/*--------------------------------*- C++ -*----------------------------------*\
  =========                 |
  \\      /  F ield         | OpenFOAM: The Open Source CFD Toolbox
   \\    /   O peration     | Website:  https://openfoam.org
    \\  /    A nd           | Version:  8
     \\/     M anipulation  |
\*---------------------------------------------------------------------------*/
FoamFile
{
    version     2.0;
    format      ascii;
    class       volScalarField;
    location    "0.2";
    object      p;
}
// * * * * * * * * * * * * * * * * * * * * * * * * * * * * * * * * * * * * * //

dimensions      [0 2 -2 0 0 0 0];

internalField   nonuniform List<scalar> 
112710
(
2.23682
2.21926
2.20387
2.18864
2.17339
2.15797
2.14229
2.12638
2.11024
2.09388
2.07729
2.06049
2.04349
2.0263
2.00893
1.99138
1.97367
1.9558
1.93779
1.91964
1.90136
1.88295
1.86442
1.84578
1.82703
1.80819
1.78924
1.77019
1.75107
1.73186
1.71257
1.69321
1.67378
1.65428
1.63472
1.61509
1.59542
1.57568
1.55589
1.53606
1.51619
1.49626
1.4763
1.4563
1.43626
1.41618
1.39608
1.37594
1.35576
1.33557
1.31534
1.29509
1.27481
1.25451
1.23419
1.21385
1.19348
1.1731
1.1527
1.13228
1.11184
1.09139
1.07092
1.05043
1.02993
1.00941
0.988881
0.968339
0.947783
0.927211
0.906629
0.886031
0.865421
0.844796
0.82416
0.803512
0.782847
0.762176
0.74149
0.720791
0.700076
0.67935
0.658612
0.637863
0.617096
0.596312
0.575524
0.554714
0.533892
0.513054
0.4922
0.471337
0.450453
0.429553
0.408637
0.387708
0.36676
0.345792
0.324808
0.303806
0.282785
0.261746
0.240687
0.219607
0.198509
0.177394
0.156253
0.135091
0.113909
0.092708
0.0714791
0.0502283
0.0289551
0.00765611
-0.0136588
-0.0350088
-0.0563806
-0.077772
-0.099192
-0.120638
-0.142114
-0.163612
-0.185138
-0.206688
-0.228273
-0.24988
-0.271517
-0.293183
-0.314875
-0.336598
-0.358346
-0.380125
-0.401932
-0.423767
-0.445636
-0.467531
-0.489456
-0.51141
-0.533395
-0.555408
-0.577445
-0.599515
-0.621615
-0.643738
-0.665894
-0.688075
-0.710283
-0.732516
-0.754779
-0.777065
-0.799377
-0.821713
-0.844074
-0.866453
-0.888851
-0.911274
-0.933715
-0.956177
-0.978654
-1.00114
-1.02364
-1.04616
-1.06869
-1.09123
-1.11377
-1.13631
-1.15886
-1.18141
-1.20395
-1.22649
-1.24902
-1.27154
-1.29404
-1.31653
-1.33899
-1.36142
-1.38383
-1.4062
-1.42854
-1.45082
-1.47307
-1.49526
-1.51738
-1.53945
-1.56144
-1.58336
-1.60518
-1.62692
-1.64855
-1.67009
-1.6915
-1.71278
-1.73395
-1.75499
-1.77593
-1.79673
-1.81752
-1.83853
-1.86005
-1.88478
2.24428
2.22875
2.21319
2.19771
2.18245
2.16715
2.15164
2.1359
2.11992
2.10371
2.08727
2.07061
2.05374
2.03666
2.0194
2.00196
1.98434
1.96656
1.94862
1.93053
1.91231
1.89395
1.87547
1.85686
1.83814
1.81931
1.80037
1.78133
1.7622
1.74299
1.72368
1.7043
1.68483
1.6653
1.6457
1.62602
1.60629
1.58649
1.56664
1.54674
1.52678
1.50678
1.48673
1.46664
1.4465
1.42632
1.40611
1.38586
1.36557
1.34525
1.3249
1.30452
1.28411
1.26368
1.24321
1.22273
1.20222
1.18168
1.16113
1.14055
1.11995
1.09933
1.07869
1.05804
1.03737
1.01667
0.995964
0.975239
0.954499
0.933739
0.912968
0.892178
0.871375
0.850556
0.829723
0.808873
0.788009
0.767132
0.746241
0.725333
0.704411
0.683474
0.662524
0.641558
0.620577
0.599579
0.57857
0.557542
0.536499
0.51544
0.494366
0.473275
0.452169
0.431043
0.409902
0.388744
0.367568
0.346375
0.325159
0.303932
0.282676
0.261411
0.240118
0.218811
0.197482
0.176133
0.154763
0.133369
0.111957
0.0905218
0.0690644
0.0475836
0.0260798
0.00455238
-0.0169954
-0.0385719
-0.0601704
-0.0817928
-0.103439
-0.125113
-0.146811
-0.168536
-0.190284
-0.212059
-0.233862
-0.255692
-0.277546
-0.299429
-0.321338
-0.343275
-0.365236
-0.387229
-0.409246
-0.43129
-0.45336
-0.475463
-0.497589
-0.519743
-0.541924
-0.56413
-0.586365
-0.608624
-0.630911
-0.653221
-0.675557
-0.697917
-0.720304
-0.74271
-0.765141
-0.787592
-0.810068
-0.832564
-0.855079
-0.87761
-0.900157
-0.922721
-0.945305
-0.967902
-0.990508
-1.01312
-1.03575
-1.05838
-1.08102
-1.10366
-1.12631
-1.14895
-1.17159
-1.19422
-1.21684
-1.23945
-1.26205
-1.28462
-1.30718
-1.32971
-1.35221
-1.37468
-1.39711
-1.4195
-1.44184
-1.46414
-1.48637
-1.50855
-1.53066
-1.55269
-1.57464
-1.5965
-1.61827
-1.63995
-1.66151
-1.68295
-1.70427
-1.72546
-1.74653
-1.76747
-1.7883
-1.80907
-1.83002
-1.85151
-1.87342
-1.89558
2.25158
2.2376
2.22244
2.20693
2.19158
2.17633
2.16098
2.1454
2.12958
2.11353
2.09723
2.08071
2.06397
2.04702
2.02988
2.01254
1.99501
1.97732
1.95947
1.94146
1.92329
1.90499
1.88655
1.86798
1.84929
1.83048
1.81156
1.79253
1.77341
1.75418
1.73487
1.71547
1.69598
1.67641
1.65677
1.63705
1.61727
1.59742
1.57751
1.55753
1.53751
1.51742
1.49729
1.47711
1.45688
1.4366
1.41628
1.39592
1.37552
1.35508
1.33461
1.3141
1.29357
1.27299
1.25239
1.23176
1.21111
1.19042
1.16971
1.14897
1.12822
1.10743
1.08663
1.0658
1.04495
1.02408
1.00319
0.982281
0.961355
0.940408
0.919443
0.898464
0.877463
0.856444
0.835409
0.814359
0.79329
0.772205
0.751104
0.729986
0.708851
0.687697
0.666533
0.645348
0.624149
0.602927
0.581696
0.560446
0.539176
0.517894
0.496588
0.475272
0.453934
0.43258
0.411207
0.389818
0.368408
0.346981
0.325532
0.304069
0.28258
0.261078
0.239551
0.218007
0.196441
0.174856
0.153249
0.131622
0.10997
0.0883017
0.0666041
0.0448912
0.0231497
0.00138899
-0.0203926
-0.0422052
-0.0640353
-0.0858918
-0.107767
-0.129674
-0.151603
-0.173555
-0.195532
-0.217534
-0.239563
-0.261614
-0.283693
-0.305798
-0.327928
-0.350078
-0.372258
-0.394465
-0.416694
-0.43895
-0.461232
-0.483537
-0.50587
-0.528226
-0.550605
-0.573012
-0.595438
-0.61789
-0.640363
-0.662861
-0.685381
-0.707919
-0.73048
-0.753062
-0.77566
-0.798282
-0.820918
-0.843573
-0.866238
-0.888922
-0.911616
-0.934327
-0.957046
-0.979777
-1.00251
-1.02525
-1.04799
-1.07074
-1.09349
-1.11623
-1.13897
-1.16171
-1.18443
-1.20714
-1.22984
-1.25252
-1.27517
-1.29781
-1.32041
-1.34299
-1.36553
-1.38801
-1.41047
-1.43287
-1.45522
-1.47751
-1.49974
-1.52189
-1.54397
-1.56597
-1.58788
-1.60969
-1.6314
-1.653
-1.67449
-1.69584
-1.71708
-1.73817
-1.75914
-1.77999
-1.80073
-1.82157
-1.84279
-1.86449
-1.88602
-1.9062
2.25821
2.24581
2.23147
2.21618
2.20078
2.18554
2.17028
2.15486
2.1392
2.1233
2.10717
2.09079
2.07419
2.05737
2.04034
2.02312
2.00571
1.98811
1.97034
1.9524
1.93431
1.91606
1.89768
1.87916
1.8605
1.84173
1.82283
1.80382
1.7847
1.76547
1.74615
1.72674
1.70723
1.68763
1.66796
1.64821
1.62837
1.60847
1.5885
1.56847
1.54837
1.52821
1.50799
1.48773
1.4674
1.44703
1.42661
1.40615
1.38563
1.36508
1.34449
1.32385
1.30318
1.28248
1.26174
1.24097
1.22016
1.19932
1.17846
1.15756
1.13664
1.11569
1.09472
1.07372
1.05269
1.03165
1.01057
0.989481
0.968363
0.947228
0.92607
0.904891
0.883693
0.862472
0.841231
0.819977
0.798698
0.777401
0.756089
0.734752
0.713403
0.692031
0.670645
0.649236
0.627812
0.606368
0.584908
0.563428
0.541931
0.520414
0.498878
0.477327
0.455755
0.434165
0.412555
0.390927
0.369279
0.347612
0.325926
0.30422
0.282493
0.260747
0.238981
0.217195
0.195387
0.173559
0.151709
0.12984
0.107947
0.0860359
0.0640991
0.0421409
0.0201621
-0.00184043
-0.0238633
-0.0459119
-0.0679809
-0.090077
-0.11219
-0.134332
-0.156493
-0.178683
-0.20089
-0.223125
-0.245384
-0.267662
-0.289969
-0.3123
-0.334651
-0.357027
-0.379427
-0.401848
-0.424296
-0.446764
-0.46926
-0.491773
-0.514315
-0.536874
-0.559455
-0.58206
-0.604683
-0.627327
-0.649993
-0.672674
-0.69538
-0.718102
-0.740835
-0.763589
-0.786362
-0.809147
-0.831945
-0.854758
-0.877582
-0.900409
-0.92325
-0.946101
-0.968959
-0.991815
-1.01468
-1.03754
-1.0604
-1.08326
-1.10611
-1.12896
-1.15179
-1.17461
-1.19742
-1.22021
-1.24298
-1.26571
-1.28843
-1.31112
-1.33376
-1.35638
-1.37894
-1.40146
-1.42392
-1.44633
-1.46868
-1.49097
-1.51317
-1.5353
-1.55735
-1.57931
-1.60117
-1.62292
-1.64457
-1.66609
-1.68749
-1.70876
-1.72989
-1.75089
-1.77176
-1.79252
-1.81328
-1.83425
-1.8557
-1.87726
-1.89783
-1.91598
2.26542
2.25354
2.2401
2.22531
2.21002
2.19475
2.17955
2.16426
2.14875
2.13302
2.11704
2.10083
2.08437
2.06769
2.0508
2.03369
2.01639
1.9989
1.98122
1.96337
1.94535
1.92718
1.90886
1.89039
1.87178
1.85304
1.83417
1.81518
1.79607
1.77686
1.75753
1.73811
1.71858
1.69897
1.67927
1.65948
1.63961
1.61966
1.59963
1.57954
1.55938
1.53914
1.51885
1.4985
1.47809
1.45762
1.4371
1.41653
1.39591
1.37524
1.35453
1.33377
1.31297
1.29213
1.27125
1.25034
1.22938
1.2084
1.18738
1.16632
1.14524
1.12413
1.10298
1.0818
1.0606
1.03937
1.01812
0.996834
0.97553
0.9542
0.932844
0.911464
0.890065
0.868639
0.847193
0.825724
0.804236
0.782724
0.761191
0.73964
0.718068
0.696471
0.674859
0.653225
0.631573
0.609896
0.588204
0.56649
0.544758
0.523005
0.501232
0.479441
0.457629
0.435796
0.413945
0.392073
0.370182
0.34827
0.326337
0.304386
0.282413
0.260421
0.238407
0.216372
0.194317
0.172241
0.150145
0.128025
0.105886
0.0837257
0.0615427
0.0393375
0.0171129
-0.00513601
-0.0274042
-0.0496987
-0.0720107
-0.0943468
-0.116704
-0.139088
-0.161489
-0.183913
-0.206361
-0.228833
-0.251323
-0.273839
-0.296374
-0.318935
-0.341513
-0.364117
-0.386741
-0.409385
-0.432049
-0.454738
-0.477447
-0.500173
-0.522921
-0.54569
-0.568477
-0.59128
-0.614101
-0.636941
-0.659798
-0.68267
-0.705559
-0.728462
-0.751376
-0.774306
-0.797248
-0.820196
-0.843161
-0.866126
-0.889102
-0.912084
-0.935068
-0.958058
-0.981049
-1.00403
-1.02702
-1.05
-1.07298
-1.09594
-1.1189
-1.14184
-1.16477
-1.18767
-1.21056
-1.23342
-1.25625
-1.27905
-1.30182
-1.32455
-1.34723
-1.36987
-1.39246
-1.415
-1.43748
-1.45988
-1.48222
-1.50449
-1.52667
-1.54878
-1.57078
-1.59269
-1.61449
-1.63618
-1.65775
-1.67919
-1.7005
-1.72167
-1.7427
-1.7636
-1.78438
-1.8051
-1.82592
-1.84709
-1.86854
-1.88958
-1.90907
-1.92668
2.27285
2.26104
2.24826
2.23417
2.21921
2.20399
2.18881
2.17361
2.15825
2.14269
2.12687
2.11081
2.09451
2.07798
2.06122
2.04425
2.02707
2.00968
1.99211
1.97436
1.95643
1.93833
1.92007
1.90166
1.88311
1.86441
1.84557
1.82661
1.80753
1.78833
1.76901
1.74958
1.73005
1.71042
1.69069
1.67088
1.65097
1.63097
1.6109
1.59075
1.57053
1.55023
1.52986
1.50943
1.48893
1.46837
1.44775
1.42708
1.40635
1.38557
1.36474
1.34386
1.32293
1.30196
1.28094
1.25988
1.23878
1.21764
1.19647
1.17525
1.15401
1.13272
1.1114
1.09006
1.06867
1.04726
1.02582
1.00435
0.982849
0.961324
0.939769
0.918186
0.896579
0.87495
0.853289
0.83161
0.809902
0.788174
0.766419
0.744644
0.722845
0.701024
0.67918
0.657316
0.635428
0.613516
0.591588
0.569634
0.547662
0.525666
0.503651
0.481613
0.459557
0.437476
0.415378
0.393257
0.371116
0.348955
0.32677
0.304567
0.282341
0.260097
0.237828
0.215542
0.193233
0.170902
0.148554
0.126179
0.103788
0.0813718
0.0589375
0.0364792
0.0140027
-0.00849908
-0.0310161
-0.0535609
-0.0761243
-0.0987077
-0.121313
-0.14394
-0.166588
-0.189256
-0.211948
-0.234656
-0.25739
-0.280138
-0.302914
-0.325704
-0.348515
-0.37135
-0.394202
-0.41707
-0.43996
-0.462867
-0.485793
-0.508736
-0.531697
-0.554672
-0.577666
-0.600675
-0.623696
-0.646735
-0.669781
-0.692846
-0.715921
-0.739004
-0.762099
-0.785204
-0.808318
-0.831434
-0.854556
-0.877678
-0.900806
-0.923937
-0.947064
-0.970194
-0.993315
-1.01643
-1.03954
-1.06264
-1.08572
-1.10879
-1.13185
-1.15489
-1.1779
-1.20088
-1.22384
-1.24677
-1.26966
-1.29252
-1.31534
-1.3381
-1.36082
-1.38348
-1.40609
-1.42864
-1.45111
-1.47351
-1.49584
-1.51809
-1.54024
-1.5623
-1.58425
-1.60611
-1.62784
-1.64945
-1.67094
-1.69229
-1.7135
-1.73457
-1.7555
-1.7763
-1.79702
-1.81776
-1.8387
-1.85994
-1.88111
-1.90135
-1.92011
-1.9378
2.28024
2.26839
2.25609
2.24269
2.22822
2.21321
2.19808
2.18294
2.16771
2.15229
2.13664
2.12075
2.10461
2.08823
2.07162
2.05478
2.03773
2.02047
2.00301
1.98535
1.96752
1.9495
1.93132
1.91298
1.89448
1.87584
1.85705
1.83812
1.81907
1.79988
1.78057
1.76116
1.74162
1.72198
1.70224
1.68239
1.66245
1.64242
1.6223
1.6021
1.58181
1.56145
1.54101
1.52051
1.49993
1.47928
1.45856
1.43779
1.41696
1.39607
1.37512
1.35411
1.33306
1.31195
1.2908
1.2696
1.24835
1.22707
1.20573
1.18436
1.16294
1.14149
1.12
1.09848
1.07691
1.05532
1.03369
1.01203
0.99033
0.968605
0.946847
0.925063
0.903245
0.881404
0.859531
0.837633
0.815705
0.793754
0.771775
0.74977
0.727743
0.70569
0.683609
0.661507
0.639381
0.617231
0.595059
0.572861
0.550643
0.5284
0.506137
0.483848
0.461539
0.43921
0.416853
0.394483
0.372082
0.349666
0.327224
0.304763
0.282279
0.259776
0.237248
0.214703
0.192131
0.169546
0.146932
0.124302
0.10165
0.0789743
0.0562813
0.0335648
0.0108305
-0.0119281
-0.0347041
-0.0575024
-0.0803198
-0.103158
-0.126018
-0.148896
-0.171792
-0.194711
-0.217648
-0.240602
-0.26358
-0.286573
-0.309586
-0.332614
-0.355664
-0.378728
-0.401812
-0.424911
-0.448027
-0.471159
-0.494304
-0.517464
-0.540644
-0.563829
-0.587033
-0.610243
-0.633472
-0.656707
-0.679953
-0.703204
-0.726469
-0.749733
-0.773008
-0.796289
-0.819569
-0.842851
-0.866137
-0.88942
-0.912699
-0.935973
-0.959246
-0.982509
-1.00576
-1.029
-1.05223
-1.07544
-1.09864
-1.12181
-1.14496
-1.16809
-1.19118
-1.21424
-1.23727
-1.26026
-1.28321
-1.30611
-1.32897
-1.35177
-1.37452
-1.3972
-1.41982
-1.44236
-1.46484
-1.48722
-1.50953
-1.53174
-1.55386
-1.57587
-1.59777
-1.61956
-1.64122
-1.66275
-1.68414
-1.7054
-1.72651
-1.74747
-1.7683
-1.78903
-1.80972
-1.8305
-1.85152
-1.87266
-1.89331
-1.91278
-1.93105
-1.949
2.28743
2.27567
2.26366
2.25087
2.237
2.22233
2.20732
2.19226
2.17713
2.16185
2.14636
2.13064
2.11467
2.09845
2.08199
2.0653
2.04838
2.03124
2.0139
1.99636
1.97863
1.9607
1.94261
1.92434
1.90591
1.88732
1.86858
1.8497
1.83068
1.81152
1.79223
1.77282
1.75329
1.73365
1.71389
1.69403
1.67406
1.654
1.63384
1.61359
1.59325
1.57283
1.55233
1.53174
1.51108
1.49035
1.46954
1.44867
1.42774
1.40673
1.38567
1.36454
1.34337
1.32213
1.30084
1.2795
1.25811
1.23667
1.21518
1.19365
1.17207
1.15044
1.12878
1.10707
1.08533
1.06355
1.04173
1.01987
0.997977
0.97605
0.954089
0.932094
0.910067
0.888009
0.865919
0.843799
0.821649
0.79947
0.777262
0.755026
0.732761
0.710472
0.688152
0.665809
0.643441
0.621043
0.598623
0.576175
0.553708
0.531209
0.508693
0.486149
0.463583
0.440993
0.418379
0.395745
0.373085
0.350404
0.3277
0.304975
0.282226
0.259458
0.236665
0.213852
0.191017
0.168163
0.145285
0.122388
0.0994699
0.0765293
0.0535729
0.0305888
0.00759249
-0.0154288
-0.0384678
-0.0615291
-0.0846057
-0.107702
-0.130821
-0.153954
-0.177109
-0.200281
-0.223471
-0.246677
-0.2699
-0.293141
-0.316398
-0.339671
-0.362959
-0.386263
-0.409581
-0.432912
-0.456259
-0.479616
-0.502988
-0.526372
-0.549763
-0.573168
-0.596581
-0.620002
-0.643432
-0.666864
-0.69031
-0.713756
-0.737206
-0.760655
-0.78411
-0.807564
-0.831012
-0.854462
-0.87791
-0.901351
-0.924779
-0.948199
-0.971611
-0.99501
-1.01839
-1.04176
-1.0651
-1.08842
-1.11172
-1.13499
-1.15824
-1.18145
-1.20462
-1.22775
-1.25085
-1.2739
-1.29689
-1.31984
-1.34273
-1.36556
-1.38832
-1.41102
-1.43364
-1.45619
-1.47864
-1.50101
-1.52328
-1.54546
-1.56753
-1.58949
-1.61132
-1.63304
-1.65462
-1.67606
-1.69736
-1.71851
-1.73951
-1.76037
-1.78111
-1.80178
-1.82247
-1.84331
-1.86432
-1.88515
-1.90514
-1.92395
-1.94201
-1.96003
2.29439
2.28282
2.27102
2.25872
2.24546
2.23127
2.21651
2.20155
2.18652
2.17136
2.15603
2.14047
2.12466
2.10861
2.09232
2.07578
2.059
2.04201
2.02479
2.00737
1.98974
1.97193
1.95392
1.93573
1.91738
1.89886
1.88018
1.86134
1.84236
1.82324
1.80398
1.78458
1.76506
1.74542
1.72566
1.70578
1.6858
1.66571
1.64551
1.62522
1.60483
1.58436
1.56379
1.54314
1.5224
1.50159
1.48069
1.45973
1.43869
1.41758
1.3964
1.37516
1.35385
1.33249
1.31106
1.28958
1.26804
1.24645
1.22481
1.20312
1.18137
1.15958
1.13774
1.11585
1.09393
1.07196
1.04994
1.02789
1.0058
0.983665
0.961497
0.939289
0.917049
0.894769
0.87246
0.850114
0.827738
0.805327
0.782882
0.760413
0.737906
0.715377
0.692814
0.670222
0.647606
0.624956
0.602283
0.579582
0.556854
0.534101
0.511322
0.488515
0.465687
0.44283
0.419954
0.397049
0.374122
0.351174
0.328199
0.305203
0.282183
0.259143
0.236077
0.212994
0.189887
0.166758
0.14361
0.120438
0.0972493
0.0740359
0.0508055
0.0275553
0.0042849
-0.0190041
-0.0423114
-0.0656411
-0.0889833
-0.112347
-0.135729
-0.159122
-0.182541
-0.205969
-0.229419
-0.252882
-0.276358
-0.299851
-0.323355
-0.346877
-0.370409
-0.393956
-0.417513
-0.44108
-0.464662
-0.48825
-0.511849
-0.535455
-0.559069
-0.582689
-0.606316
-0.629948
-0.653584
-0.677219
-0.700859
-0.724499
-0.748138
-0.771772
-0.795412
-0.819036
-0.842661
-0.866271
-0.889878
-0.913472
-0.937054
-0.960616
-0.984167
-1.0077
-1.0312
-1.05469
-1.07815
-1.10157
-1.12498
-1.14834
-1.17168
-1.19497
-1.21821
-1.24142
-1.26457
-1.28767
-1.31071
-1.33369
-1.35661
-1.37946
-1.40224
-1.42494
-1.44756
-1.47009
-1.49253
-1.51487
-1.53711
-1.55923
-1.58125
-1.60314
-1.62491
-1.64654
-1.66803
-1.68938
-1.71057
-1.73162
-1.75252
-1.77328
-1.79394
-1.81458
-1.83529
-1.85613
-1.87697
-1.8973
-1.91663
-1.93494
-1.95291
-1.97087
2.30111
2.28982
2.27824
2.26629
2.25362
2.23996
2.22556
2.21079
2.19587
2.18084
2.16565
2.15024
2.13461
2.11873
2.1026
2.08622
2.06961
2.05275
2.03567
2.01837
2.00087
1.98316
1.96525
1.94716
1.92889
1.91044
1.89183
1.87305
1.85412
1.83504
1.81581
1.79644
1.77693
1.7573
1.73754
1.71765
1.69766
1.67754
1.65732
1.63699
1.61656
1.59603
1.5754
1.55469
1.53388
1.51298
1.49201
1.47095
1.44981
1.4286
1.40731
1.38596
1.36453
1.34304
1.32147
1.29985
1.27817
1.25643
1.23463
1.21277
1.19086
1.1689
1.14688
1.12482
1.10271
1.08054
1.05834
1.03609
1.01379
0.991451
0.969074
0.946653
0.92419
0.901693
0.879156
0.856585
0.833974
0.811326
0.788647
0.765933
0.743187
0.720406
0.697596
0.674751
0.65188
0.628976
0.606042
0.58308
0.560089
0.537072
0.514026
0.490952
0.467852
0.444728
0.421575
0.398398
0.375199
0.35197
0.328723
0.305448
0.282151
0.25883
0.23549
0.212123
0.188739
0.165331
0.141901
0.118453
0.0949827
0.071492
0.0479835
0.0244561
0.000909208
-0.0226564
-0.0462397
-0.0698408
-0.0934563
-0.117093
-0.140742
-0.164409
-0.188089
-0.211785
-0.235494
-0.25922
-0.282957
-0.306703
-0.330464
-0.354234
-0.378019
-0.401811
-0.42561
-0.449421
-0.473239
-0.49706
-0.520889
-0.544724
-0.568558
-0.592401
-0.616243
-0.640088
-0.663929
-0.68777
-0.711611
-0.735441
-0.759269
-0.783092
-0.806909
-0.830713
-0.854504
-0.878283
-0.902044
-0.925794
-0.94952
-0.973231
-0.996912
-1.02058
-1.0442
-1.0678
-1.09138
-1.11491
-1.13841
-1.16186
-1.18528
-1.20864
-1.23196
-1.25523
-1.27843
-1.30158
-1.32466
-1.34767
-1.37062
-1.39348
-1.41626
-1.43896
-1.46157
-1.48408
-1.50649
-1.5288
-1.55099
-1.57307
-1.59502
-1.61684
-1.63853
-1.66007
-1.68146
-1.70271
-1.72379
-1.74472
-1.76552
-1.7862
-1.8068
-1.82742
-1.84813
-1.86888
-1.88937
-1.90915
-1.92786
-1.94586
-1.96373
-1.9815
2.3076
2.29665
2.28532
2.27366
2.26145
2.24837
2.23443
2.21994
2.20518
2.19027
2.17521
2.15997
2.14451
2.1288
2.11284
2.09663
2.08017
2.06347
2.04654
2.02937
2.01199
1.9944
1.97661
1.95861
1.94044
1.92207
1.90353
1.88482
1.86594
1.84691
1.82772
1.80838
1.7889
1.76928
1.74953
1.72964
1.70963
1.68951
1.66926
1.6489
1.62843
1.60785
1.58718
1.5664
1.54553
1.52455
1.5035
1.48235
1.46112
1.4398
1.41841
1.39693
1.37539
1.35377
1.33208
1.31031
1.28849
1.2666
1.24464
1.22262
1.20055
1.17841
1.15622
1.13398
1.11167
1.08932
1.06692
1.04447
1.02197
0.999419
0.976824
0.954188
0.931506
0.908782
0.886018
0.86321
0.840364
0.817479
0.794557
0.771597
0.748601
0.725569
0.702501
0.679403
0.656269
0.633103
0.609907
0.586674
0.563418
0.540127
0.516808
0.49346
0.470085
0.44668
0.423251
0.399794
0.376309
0.352802
0.329269
0.30571
0.282129
0.258523
0.234894
0.211245
0.187571
0.163877
0.140163
0.116426
0.0926715
0.0688966
0.0451022
0.0212881
-0.00253834
-0.0263899
-0.0502525
-0.0741341
-0.0980314
-0.121941
-0.145869
-0.169809
-0.193763
-0.217729
-0.241708
-0.265697
-0.289698
-0.31371
-0.337728
-0.361755
-0.385792
-0.409832
-0.433882
-0.457937
-0.481992
-0.506055
-0.530115
-0.55418
-0.578246
-0.602308
-0.626366
-0.650427
-0.674476
-0.698523
-0.722562
-0.746591
-0.770608
-0.794621
-0.818611
-0.842589
-0.86655
-0.890494
-0.914415
-0.938317
-0.962189
-0.986036
-1.00985
-1.03364
-1.05739
-1.08111
-1.10478
-1.12842
-1.15201
-1.17555
-1.19904
-1.22248
-1.24586
-1.26919
-1.29244
-1.31562
-1.33874
-1.36178
-1.38474
-1.40761
-1.43039
-1.45308
-1.47567
-1.49816
-1.52053
-1.54279
-1.56493
-1.58695
-1.60882
-1.63057
-1.65217
-1.67361
-1.6949
-1.71604
-1.73701
-1.75784
-1.77853
-1.79913
-1.8197
-1.84029
-1.86093
-1.88146
-1.90151
-1.92065
-1.93891
-1.95672
-1.97443
-1.99194
2.31383
2.30332
2.29227
2.28086
2.26903
2.25648
2.24306
2.22894
2.2144
2.19965
2.18474
2.16965
2.15435
2.13882
2.12303
2.107
2.0907
2.07416
2.05738
2.04036
2.02312
2.00565
1.98797
1.97009
1.95201
1.93374
1.91528
1.89664
1.87783
1.85885
1.83971
1.82042
1.80097
1.78137
1.76163
1.74175
1.72174
1.7016
1.68134
1.66095
1.64045
1.61983
1.59911
1.57827
1.55733
1.53629
1.51515
1.49393
1.4726
1.45119
1.42969
1.40811
1.38644
1.36469
1.34287
1.32097
1.299
1.27696
1.25485
1.23267
1.21043
1.18812
1.16576
1.14333
1.12084
1.09829
1.07569
1.05304
1.03033
1.00757
0.984761
0.961902
0.938997
0.916045
0.893044
0.870003
0.846915
0.823787
0.800616
0.777406
0.754156
0.730864
0.70754
0.684175
0.660779
0.637342
0.613874
0.590373
0.566836
0.54327
0.519672
0.496042
0.472385
0.448694
0.424981
0.401234
0.377464
0.353665
0.329841
0.305991
0.282117
0.258219
0.234297
0.210352
0.186387
0.162397
0.138392
0.11436
0.0903132
0.0662445
0.0421588
0.0180559
-0.00606618
-0.0302029
-0.0543544
-0.078525
-0.102705
-0.126902
-0.151109
-0.175332
-0.199565
-0.223807
-0.24806
-0.272321
-0.296593
-0.320868
-0.345153
-0.369442
-0.393734
-0.418032
-0.442331
-0.466635
-0.490936
-0.515236
-0.539537
-0.563833
-0.588129
-0.612415
-0.636697
-0.660966
-0.685232
-0.709483
-0.733721
-0.757948
-0.782157
-0.806354
-0.830526
-0.854676
-0.87881
-0.902914
-0.926991
-0.951041
-0.975059
-0.999042
-1.02299
-1.04691
-1.07078
-1.0946
-1.11838
-1.14211
-1.16579
-1.18942
-1.21298
-1.23648
-1.25992
-1.28329
-1.30659
-1.32981
-1.35295
-1.37601
-1.39897
-1.42185
-1.44462
-1.46729
-1.48986
-1.51231
-1.53464
-1.55685
-1.57893
-1.60087
-1.62267
-1.64432
-1.66583
-1.68717
-1.70835
-1.72937
-1.75023
-1.77095
-1.79156
-1.81209
-1.8326
-1.85314
-1.87363
-1.89383
-1.91333
-1.93193
-1.94984
-1.96751
-1.98503
-2.00215
2.31983
2.30976
2.29905
2.28789
2.2764
2.26431
2.25142
2.23774
2.22351
2.20896
2.1942
2.17927
2.16413
2.14877
2.13317
2.11731
2.10119
2.08482
2.0682
2.05133
2.03423
2.0169
1.99935
1.98159
1.96362
1.94544
1.92708
1.90852
1.88978
1.87087
1.85178
1.83253
1.81312
1.79355
1.77384
1.75397
1.73397
1.71383
1.69355
1.67315
1.65262
1.63196
1.61119
1.59031
1.56931
1.5482
1.52699
1.50568
1.48427
1.46276
1.44116
1.41946
1.39769
1.37582
1.35387
1.33183
1.30972
1.28753
1.26527
1.24292
1.22051
1.19804
1.17549
1.15288
1.1302
1.10746
1.08466
1.0618
1.03889
1.01591
0.992884
0.969802
0.946667
0.923482
0.900247
0.876963
0.85363
0.830254
0.806831
0.783363
0.759855
0.736302
0.712713
0.689078
0.665408
0.6417
0.617953
0.594173
0.570357
0.546503
0.522622
0.4987
0.474755
0.450773
0.426764
0.402723
0.378658
0.35456
0.330439
0.30629
0.282117
0.257918
0.233697
0.209449
0.185184
0.160893
0.136584
0.112252
0.0879067
0.0635339
0.0391529
0.014748
-0.00966974
-0.0341018
-0.0585513
-0.0830124
-0.107486
-0.131975
-0.15647
-0.18098
-0.205495
-0.230022
-0.254556
-0.279093
-0.30364
-0.328189
-0.352742
-0.377297
-0.401854
-0.42641
-0.450969
-0.47552
-0.500068
-0.524616
-0.549157
-0.57369
-0.598212
-0.622727
-0.647232
-0.67172
-0.696196
-0.720658
-0.745096
-0.769518
-0.793921
-0.818301
-0.842653
-0.866982
-0.891276
-0.915546
-0.939776
-0.963978
-0.988134
-1.01226
-1.03633
-1.06037
-1.08435
-1.10829
-1.13216
-1.15599
-1.17975
-1.20345
-1.22709
-1.25065
-1.27414
-1.29755
-1.32089
-1.34414
-1.36729
-1.39036
-1.41333
-1.43619
-1.45895
-1.4816
-1.50413
-1.52654
-1.54882
-1.57096
-1.59297
-1.61484
-1.63655
-1.65811
-1.6795
-1.70074
-1.72181
-1.74271
-1.76345
-1.78407
-1.80459
-1.82506
-1.84551
-1.86593
-1.88617
-1.90592
-1.92488
-1.94303
-1.96068
-1.9782
-1.99546
-2.01217
2.32557
2.31595
2.30565
2.29479
2.28357
2.27189
2.25949
2.2463
2.23245
2.21816
2.2036
2.18883
2.17386
2.15868
2.14325
2.12758
2.11164
2.09544
2.07899
2.06229
2.04534
2.02815
2.01074
1.9931
1.97525
1.95718
1.93891
1.92045
1.90179
1.88295
1.86393
1.84473
1.82537
1.80584
1.78615
1.76631
1.74632
1.72618
1.7059
1.68548
1.66493
1.64424
1.62344
1.60251
1.58146
1.56029
1.53901
1.51762
1.49613
1.47452
1.45282
1.43102
1.40913
1.38714
1.36506
1.34289
1.32064
1.2983
1.27589
1.25339
1.23081
1.20816
1.18543
1.16264
1.13977
1.11684
1.09384
1.07077
1.04764
1.02445
1.0012
0.977889
0.954523
0.931101
0.907625
0.884096
0.860516
0.836886
0.813204
0.789479
0.765706
0.741884
0.718022
0.694113
0.670167
0.646177
0.622146
0.598082
0.573973
0.549833
0.525655
0.501441
0.477195
0.452916
0.428605
0.404265
0.379893
0.355493
0.331065
0.306608
0.282129
0.257621
0.23309
0.208536
0.183959
0.159362
0.134742
0.110103
0.0854465
0.0607695
0.0360769
0.0113707
-0.0133558
-0.03809
-0.0628421
-0.0876056
-0.112377
-0.137164
-0.161955
-0.186759
-0.211567
-0.236378
-0.2612
-0.286022
-0.310847
-0.335674
-0.360501
-0.385328
-0.410152
-0.434975
-0.45979
-0.484601
-0.509402
-0.534197
-0.55898
-0.583752
-0.608511
-0.633252
-0.657981
-0.682691
-0.707379
-0.732049
-0.756694
-0.781312
-0.805904
-0.830468
-0.855
-0.879501
-0.903963
-0.928392
-0.952777
-0.977126
-1.00142
-1.02567
-1.04988
-1.07403
-1.09812
-1.12216
-1.14613
-1.17004
-1.19389
-1.21766
-1.24136
-1.26497
-1.28851
-1.31196
-1.33532
-1.35859
-1.38176
-1.40483
-1.4278
-1.45064
-1.47338
-1.49599
-1.51848
-1.54084
-1.56306
-1.58513
-1.60706
-1.62884
-1.65045
-1.67191
-1.6932
-1.71431
-1.73526
-1.75604
-1.77669
-1.7972
-1.81764
-1.83802
-1.85837
-1.8786
-1.89848
-1.91774
-1.9362
-1.95398
-1.97144
-1.98876
-2.00567
-2.02197
2.33103
2.32191
2.31204
2.30152
2.29058
2.27923
2.2673
2.2546
2.24119
2.22722
2.2129
2.19832
2.18353
2.16852
2.15328
2.13779
2.12203
2.10602
2.08975
2.07321
2.05642
2.03939
2.02212
2.00462
1.98689
1.96895
1.95079
1.93242
1.91386
1.8951
1.87615
1.85702
1.8377
1.81822
1.79857
1.77876
1.75878
1.73865
1.71838
1.69795
1.67738
1.65668
1.63584
1.61487
1.59377
1.57255
1.5512
1.52974
1.50817
1.48648
1.46468
1.44278
1.42077
1.39867
1.37646
1.35416
1.33177
1.30929
1.28672
1.26406
1.24132
1.21849
1.19559
1.17261
1.14955
1.12642
1.10321
1.07994
1.0566
1.03319
1.00971
0.986172
0.962571
0.93891
0.915188
0.891414
0.867575
0.843691
0.819746
0.795755
0.771709
0.747617
0.723475
0.699291
0.675055
0.650781
0.626459
0.602101
0.577697
0.553258
0.52878
0.504263
0.479713
0.455126
0.430509
0.405858
0.381173
0.356459
0.33172
0.306947
0.282152
0.257326
0.232482
0.207609
0.182713
0.157798
0.132864
0.107907
0.0829339
0.0579417
0.0329347
0.00791368
-0.0171246
-0.0421714
-0.0672342
-0.0923023
-0.117387
-0.142472
-0.167569
-0.192669
-0.217778
-0.242885
-0.268
-0.293108
-0.318224
-0.343331
-0.368439
-0.393541
-0.418638
-0.443729
-0.468808
-0.493877
-0.518937
-0.543982
-0.569014
-0.594024
-0.619022
-0.643997
-0.668951
-0.693882
-0.718788
-0.743665
-0.76851
-0.79333
-0.818112
-0.842862
-0.867574
-0.892242
-0.916876
-0.94146
-0.965996
-0.990489
-1.01492
-1.0393
-1.06363
-1.08789
-1.1121
-1.13623
-1.16029
-1.18428
-1.2082
-1.23204
-1.25579
-1.27946
-1.30303
-1.32651
-1.3499
-1.37318
-1.39636
-1.41942
-1.44237
-1.4652
-1.4879
-1.51047
-1.53291
-1.5552
-1.57735
-1.59935
-1.62119
-1.64287
-1.66439
-1.68573
-1.70689
-1.72789
-1.74872
-1.76939
-1.78991
-1.81033
-1.83068
-1.85096
-1.87114
-1.89109
-1.91055
-1.92931
-1.94731
-1.96482
-1.98211
-1.99917
-2.01568
-2.03151
2.33621
2.32759
2.31819
2.30806
2.29742
2.28638
2.27485
2.26264
2.24969
2.23611
2.22208
2.20772
2.19312
2.1783
2.16324
2.14794
2.13238
2.11655
2.10046
2.0841
2.06749
2.05062
2.0335
2.01614
1.99855
1.98073
1.96269
1.94443
1.92597
1.9073
1.88843
1.86937
1.85013
1.8307
1.81109
1.79131
1.77137
1.75126
1.73099
1.71057
1.68999
1.66927
1.6484
1.6274
1.60626
1.58498
1.56358
1.54205
1.5204
1.49863
1.47674
1.45474
1.43263
1.41041
1.38808
1.36565
1.34312
1.32049
1.29777
1.27495
1.25205
1.22905
1.20596
1.1828
1.15955
1.13622
1.11281
1.08932
1.06577
1.04213
1.01843
0.99466
0.970819
0.946913
0.922945
0.898915
0.87482
0.850669
0.826462
0.802196
0.777876
0.753508
0.729079
0.704607
0.680083
0.655513
0.630897
0.606235
0.581533
0.556783
0.532
0.507173
0.482309
0.457408
0.432473
0.407502
0.3825
0.357466
0.332402
0.307306
0.282188
0.257037
0.231865
0.206669
0.181449
0.156206
0.130945
0.105664
0.0803655
0.0550493
0.0297222
0.00437372
-0.0209803
-0.0463505
-0.0717282
-0.0971149
-0.122511
-0.147909
-0.173319
-0.198723
-0.224135
-0.249547
-0.274955
-0.300363
-0.32577
-0.351168
-0.376559
-0.401944
-0.42732
-0.45268
-0.47803
-0.503364
-0.528682
-0.553982
-0.579261
-0.604523
-0.629756
-0.654963
-0.680146
-0.705302
-0.730422
-0.755512
-0.780561
-0.805577
-0.830553
-0.855486
-0.880376
-0.905218
-0.930011
-0.954754
-0.979437
-1.00407
-1.02864
-1.05315
-1.07758
-1.10196
-1.12626
-1.15049
-1.17464
-1.19871
-1.2227
-1.24659
-1.2704
-1.29411
-1.31771
-1.34122
-1.36462
-1.38791
-1.41108
-1.43413
-1.45705
-1.47985
-1.50251
-1.52503
-1.54741
-1.56963
-1.59171
-1.61362
-1.63536
-1.65694
-1.67834
-1.69956
-1.72061
-1.74147
-1.76217
-1.78272
-1.80314
-1.82345
-1.84368
-1.86383
-1.88378
-1.90337
-1.92237
-1.94064
-1.95829
-1.97557
-1.99265
-2.00937
-2.02546
-2.04081
2.3411
2.33297
2.32408
2.31438
2.30409
2.29335
2.28218
2.27041
2.25795
2.24479
2.2311
2.21701
2.20263
2.188
2.17314
2.15803
2.14266
2.12703
2.11113
2.09496
2.07852
2.06182
2.04487
2.02766
2.01022
1.99254
1.97462
1.95648
1.93813
1.91956
1.90078
1.8818
1.86263
1.84327
1.82371
1.80398
1.78407
1.76399
1.74373
1.72332
1.70274
1.68201
1.66112
1.64009
1.61891
1.59759
1.57614
1.55455
1.53283
1.51098
1.489
1.4669
1.44469
1.42235
1.39991
1.37735
1.35469
1.33192
1.30904
1.28607
1.26299
1.23983
1.21657
1.19321
1.16977
1.14624
1.12263
1.09893
1.07515
1.05129
1.02736
1.00335
0.979273
0.955119
0.930897
0.906609
0.882255
0.857835
0.833354
0.808813
0.784212
0.759555
0.73484
0.710071
0.685252
0.66038
0.63546
0.610493
0.585477
0.560419
0.535316
0.510171
0.484987
0.459762
0.434503
0.409204
0.383876
0.35851
0.333115
0.307688
0.282236
0.256753
0.231246
0.205713
0.180161
0.154582
0.128988
0.103371
0.0777406
0.0520914
0.0264298
0.000756089
-0.0249312
-0.050626
-0.0763296
-0.102042
-0.127757
-0.153478
-0.179202
-0.204924
-0.230647
-0.256366
-0.282081
-0.307793
-0.333494
-0.359186
-0.38487
-0.410542
-0.436198