/*--------------------------------*- C++ -*----------------------------------*\
  =========                 |
  \\      /  F ield         | OpenFOAM: The Open Source CFD Toolbox
   \\    /   O peration     | Website:  https://openfoam.org
    \\  /    A nd           | Version:  8
     \\/     M anipulation  |
\*---------------------------------------------------------------------------*/
FoamFile
{
    version     2.0;
    format      ascii;
    class       surfaceScalarField;
    location    "0.2";
    object      phi;
}
// * * * * * * * * * * * * * * * * * * * * * * * * * * * * * * * * * * * * * //

dimensions      [0 3 -1 0 0 0 0];

internalField   nonuniform List<scalar> 
225219
(
-0.00359954
0.0263995
-0.00840024
0.0708007
-0.0119997
0.115199
-0.016799
0.159599
-0.0215984
0.203999
-0.0251978
0.248399
-0.0287973
0.291599
-0.0323967
0.335999
-0.035996
0.379199
-0.0395952
0.424799
-0.0419944
0.466799
-0.0455935
0.511199
-0.0491926
0.555599
-0.0527916
0.597599
-0.0539907
0.640799
-0.0575897
0.685199
-0.0611887
0.727199
-0.0635876
0.770399
-0.0659866
0.812399
-0.0671855
0.854399
-0.0707844
0.897599
-0.0719834
0.938399
-0.0743823
0.980399
-0.0755812
1.0224
-0.0779801
1.0632
-0.0791791
1.104
-0.0815779
1.146
-0.0827769
1.1844
-0.0839758
1.2252
-0.0863746
1.266
-0.0875736
1.3044
-0.0887725
1.344
-0.0899714
1.3824
-0.0899704
1.4208
-0.0911693
1.4592
-0.0911683
1.4964
-0.0923672
1.5348
-0.0935661
1.572
-0.0935651
1.608
-0.094764
1.644
-0.094763
1.68
-0.094762
1.716
-0.0947611
1.7496
-0.0947601
1.7856
-0.0947591
1.8192
-0.0947581
1.8528
-0.0947571
1.8864
-0.0935562
1.9188
-0.0935553
1.9512
-0.0935544
1.9836
-0.0923535
2.0136
-0.0923526
2.046
-0.0911517
2.0748
-0.0905508
2.10564
-0.08971
2.13468
-0.0887491
2.16336
-0.0877883
2.19168
-0.0868275
2.2194
-0.0856267
2.24652
-0.0844259
2.27304
-0.0832252
2.2992
-0.0819044
2.32464
-0.0804637
2.34948
-0.079023
2.37384
-0.0775823
2.3976
-0.0760216
2.42076
-0.0743409
2.4432
-0.0727802
2.46528
-0.0710996
2.48664
-0.069299
2.50728
-0.0674984
2.52744
-0.0655779
2.54688
-0.0636573
2.56572
-0.0616167
2.58396
-0.0595762
2.6016
-0.0576557
2.61864
-0.0554952
2.63484
-0.0533347
2.65044
-0.0511742
2.66556
-0.0488938
2.67984
-0.0467334
2.69364
-0.044573
2.7066
-0.0421725
2.71884
-0.0398922
2.73072
-0.0374919
2.74164
-0.0350915
2.75196
-0.0326912
2.76168
-0.0302909
2.77068
-0.0278906
2.77896
-0.0253704
2.78652
-0.0228501
2.79348
-0.0203299
2.79972
-0.0178096
2.80536
-0.0151695
2.81004
-0.0127693
2.81436
-0.0101892
2.8178
-0.00763306
2.82058
-0.00506491
2.82266
-0.00249689
2.82404
7.12421e-05
2.82475
0.00263924
2.82475
0.00520734
2.82404
0.00777532
2.82266
0.0103313
2.82058
0.0129113
2.8178
0.0153113
2.81436
0.0179512
2.81004
0.0204711
2.80536
0.0229911
2.79972
0.0255109
2.79348
0.0280308
2.78652
0.0304306
2.77896
0.0328304
2.77068
0.0352302
2.76168
0.03763
2.75196
0.0400298
2.74164
0.0423095
2.73072
0.0447092
2.71884
0.0468689
2.7066
0.0490286
2.69364
0.0513083
2.67984
0.053468
2.66556
0.0556276
2.65044
0.0577872
2.63484
0.0597068
2.61864
0.0617463
2.6016
0.0637859
2.58396
0.0657054
2.56572
0.067625
2.54688
0.0694244
2.52744
0.0712239
2.50728
0.0729034
2.48664
0.0744628
2.46528
0.0761422
2.4432
0.0777016
2.42076
0.0791409
2.3976
0.0805803
2.37384
0.0820197
2.34948
0.083339
2.32464
0.0845383
2.2992
0.0857376
2.27304
0.0869368
2.24652
0.0878961
2.2194
0.0888553
2.19168
0.0898145
2.16336
0.0906538
2.13468
0.0912529
2.10564
0.0924521
2.0748
0.0924512
2.046
0.0936503
2.0136
0.0936494
1.9836
0.0936485
1.9512
0.0948476
1.9188
0.0948466
1.8864
0.0948457
1.8528
0.0948447
1.8192
0.0948437
1.7856
0.0948427
1.7496
0.0948417
1.716
0.0948407
1.68
0.0936396
1.644
0.0936385
1.608
0.0924374
1.572
0.0912363
1.5348
0.0912352
1.4964
0.0900341
1.4592
0.090033
1.4208
0.0888319
1.3824
0.0876307
1.344
0.0864296
1.3044
0.0840283
1.266
0.0828272
1.2252
0.081626
1.1844
0.0792248
1.146
0.0780236
1.104
0.0756223
1.0632
0.0744211
1.0224
0.0720199
0.980401
0.0708188
0.938401
0.0672175
0.897601
0.0660163
0.854401
0.0636151
0.812401
0.0612139
0.770401
0.0576127
0.727201
0.0540115
0.685201
0.0528104
0.640801
0.0492092
0.597601
0.0456081
0.555601
0.0420071
0.511201
0.0396061
0.466801
0.0360051
0.424801
0.0324042
0.379201
0.0288034
0.336001
0.0252027
0.291601
0.0216021
0.248401
0.0168012
0.204001
0.0120003
0.159601
0.00839961
0.115201
0.00360061
0.070799
0.0264006
-0.00479679
0.0311963
-0.00959717
0.0756011
-0.0131974
0.1188
-0.0179956
0.164397
-0.0215928
0.207597
-0.0239903
0.250797
-0.028788
0.296397
-0.0323858
0.339597
-0.0359835
0.382797
-0.039581
0.428397
-0.0431785
0.470397
-0.0467759
0.514797
-0.0479733
0.556796
-0.0515705
0.601196
-0.0551676
0.644396
-0.0575647
0.687596
-0.0599617
0.729596
-0.0623587
0.772796
-0.0647556
0.814796
-0.0683524
0.857996
-0.0695494
0.898796
-0.0731461
0.941996
-0.0743429
0.981596
-0.0767397
1.0248
-0.0779366
1.0644
-0.0803333
1.1064
-0.0815301
1.1472
-0.0839268
1.1868
-0.0851236
1.2264
-0.0851204
1.266
-0.0863172
1.3056
-0.087514
1.3452
-0.0887108
1.3836
-0.0899076
1.422
-0.0911044
1.4604
-0.0923012
1.4976
-0.0922981
1.5348
-0.092295
1.572
-0.0934919
1.6092
-0.0934889
1.644
-0.0946858
1.6812
-0.0934828
1.7148
-0.0946798
1.7508
-0.0946769
1.7856
-0.0946739
1.8192
-0.094671
1.8528
-0.0946682
1.8864
-0.0934655
1.9176
-0.0934626
1.9512
-0.0922599
1.9824
-0.093457
2.0148
-0.0910546
2.0436
-0.0910519
2.0748
-0.0904493
2.10504
-0.0896067
2.13384
-0.0887642
2.16252
-0.0876817
2.1906
-0.0865994
2.21832
-0.0855169
2.24544
-0.0844346
2.27196
-0.0831123
2.29788
-0.0817901
2.32332
-0.0803478
2.34804
-0.0790257
2.37252
-0.0774637
2.39604
-0.0759016
2.4192
-0.0743395
2.44164
-0.0726577
2.4636
-0.0708557
2.48484
-0.0690539
2.50548
-0.0672521
2.52564
-0.0653302
2.54496
-0.0635286
2.56392
-0.061607
2.58204
-0.0595654
2.59956
-0.0574037
2.61648
-0.0553623
2.6328
-0.0533208
2.6484
-0.0510394
2.66328
-0.0488781
2.67768
-0.0465968
2.69136
-0.0443156
2.70432
-0.0420344
2.71656
-0.0396333
2.72832
-0.0373522
2.73936
-0.0349512
2.74956
-0.0325503
2.75928
-0.0300293
2.76816
-0.0276286
2.77656
-0.0252276
2.78412
-0.022707
2.79096
-0.0201863
2.7972
-0.0176658
2.80284
-0.0151452
2.80752
-0.0126246
2.81184
-0.0100321
2.81521
-0.00747572
2.81802
-0.0049074
2.8201
-0.00235119
2.82149
0.000217066
2.82218
0.0027852
2.82218
0.00534138
2.82149
0.00790945
2.8201
0.0104655
2.81802
0.0130573
2.81521
0.0155771
2.81184
0.0180969
2.80752
0.0206168
2.80284
0.0231365
2.7972
0.0256562
2.79096
0.0280556
2.78412
0.0304553
2.77656
0.0329747
2.76816
0.0353741
2.75928
0.0377735
2.74956
0.0400527
2.73936
0.0424521
2.72832
0.0447312
2.71656
0.0470104
2.70432
0.0492894
2.69136
0.0514484
2.67768
0.0537274
2.66328
0.0557662
2.6484
0.0578051
2.6328
0.0599637
2.61648
0.0620025
2.59956
0.0639212
2.58204
0.0657198
2.56392
0.0676382
2.54496
0.0694368
2.52564
0.0712352
2.50548
0.0730335
2.48484
0.0747119
2.4636
0.0762701
2.44164
0.0778282
2.4192
0.0793865
2.39604
0.0807046
2.37252
0.0821426
2.34804
0.0834606
2.32332
0.0847785
2.29788
0.0858564
2.27196
0.0869341
2.24544
0.0880119
2.21832
0.0890896
2.1906
0.0899272
2.16252
0.0907648
2.13384
0.0913624
2.10504
0.0913598
2.0748
0.0937575
2.0436
0.0925546
2.0148
0.0937521
1.9824
0.0937492
1.9512
0.0949466
1.9176
0.0949438
1.8864
0.094941
1.8528
0.094938
1.8192
0.0949351
1.7856
0.093732
1.7508
0.0949291
1.7148
0.0937259
1.6812
0.0937228
1.644
0.0925197
1.6092
0.0925165
1.572
0.0925133
1.5348
0.09131
1.4976
0.0901067
1.4604
0.0889033
1.422
0.0876999
1.3836
0.0864965
1.3452
0.0852931
1.3056
0.0852897
1.266
0.0840863
1.2264
0.0816827
1.1868
0.0804792
1.1472
0.0780756
1.1064
0.0768722
1.0644
0.0744686
1.0248
0.0732651
0.981605
0.0696614
0.942005
0.068458
0.898805
0.0648543
0.858005
0.0624509
0.814805
0.0600473
0.772805
0.0576439
0.729605
0.0552405
0.687605
0.0516371
0.644405
0.0480338
0.601204
0.0468307
0.556804
0.0432275
0.514804
0.0396245
0.470404
0.0360214
0.428404
0.0324185
0.382804
0.0288157
0.339604
0.0240128
0.296404
0.0216095
0.250804
0.0180058
0.207605
0.0132034
0.164403
0.00960383
0.1188
0.00480443
0.0755984
0.031205
-0.00479623
0.0359926
-0.00839346
0.0791983
-0.0131939
0.1236
-0.0167929
0.167996
-0.0203891
0.211193
-0.0251843
0.255592
-0.0287799
0.299993
-0.0323759
0.343193
-0.0359718
0.386393
-0.0383676
0.430793
-0.0431631
0.475192
-0.0455587
0.517192
-0.0491541
0.560392
-0.0527493
0.604791
-0.0551445
0.646791
-0.0575397
0.689991
-0.0611346
0.733191
-0.0635296
0.775191
-0.0659244
0.817191
-0.0671194
0.859191
-0.070714
0.90239
-0.0719089
0.943191
-0.0755034
0.98519
-0.0766982
1.02599
-0.0790927
1.06679
-0.0802874
1.10759
-0.0814821
1.14839
-0.0826768
1.18799
-0.0838715
1.22759
-0.086266
1.26839
-0.0874606
1.30679
-0.0886552
1.34639
-0.0898499
1.38479
-0.0910446
1.42319
-0.0910394
1.46039
-0.092234
1.49879
-0.0922289
1.53479
-0.0934236
1.57319
-0.0934185
1.60919
-0.0946133
1.64519
-0.0934084
1.67999
-0.0946033
1.71599
-0.0945983
1.75079
-0.0945932
1.78559
-0.0945885
1.81919
-0.0945835
1.85279
-0.0933789
1.88519
-0.0945739
1.91879
-0.0933694
1.94999
-0.0933647
1.98239
-0.0921602
2.01359
-0.0921556
2.04359
-0.0921512
2.07479
-0.090347
2.10323
-0.0895025
2.13299
-0.0885384
2.16155
-0.0875743
2.18963
-0.08661
2.21735
-0.0854061
2.24423
-0.0842021
2.27075
-0.0828783
2.29655
-0.0815546
2.32199
-0.0803509
2.34683
-0.0787872
2.37095
-0.0773436
2.39459
-0.0757802
2.41763
-0.074097
2.43995
-0.0724134
2.46191
-0.0707304
2.48315
-0.0690472
2.50379
-0.0671241
2.52371
-0.0653212
2.54315
-0.0632782
2.56187
-0.0613555
2.58012
-0.0594328
2.59764
-0.05739
2.61444
-0.0552275
2.63064
-0.0530653
2.64624
-0.0509027
2.66112
-0.0487406
2.67552
-0.0464584
2.68908
-0.0441763
2.70204
-0.0418941
2.71428
-0.0396124
2.72604
-0.0372106
2.73696
-0.0348088
2.74716
-0.0324072
2.75688
-0.0300057
2.76576
-0.0274841
2.77404
-0.0249629
2.7816
-0.0225617
2.78856
-0.0200405
2.79468
-0.0175194
2.80032
-0.0149983
2.805
-0.0124775
2.80932
-0.00989685
2.81263
-0.00734027
2.81546
-0.00477176
2.81753
-0.00220313
2.81892
0.000365269
2.81962
0.00293353
2.81962
0.00550156
2.81892
0.00806971
2.81753
0.0106258
2.81546
0.0132057
2.81263
0.0157256
2.80932
0.0182452
2.805
0.0207648
2.80032
0.0232842
2.79468
0.0256836
2.78856
0.0282031
2.7816
0.0307221
2.77404
0.0331212
2.76576
0.0355203
2.75688
0.037919
2.74716
0.0403179
2.73696
0.0425968
2.72604
0.0448753
2.71428
0.0471537
2.70204
0.0494321
2.68908
0.0515906
2.67552
0.0537486
2.66112
0.0559069
2.64624
0.058065
2.63064
0.0601027
2.61444
0.0620206
2.59764
0.0639384
2.58012
0.0659759
2.56188
0.0677735
2.54316
0.0696909
2.52372
0.0713682
2.5038
0.0730456
2.48316
0.0747225
2.46193
0.0763997
2.43997
0.0779567
2.41765
0.0793936
2.39461
0.0809502
2.37097
0.0821469
2.34685
0.0834636
2.32201
0.0847802
2.29657
0.0859765
2.27077
0.0871729
2.24425
0.0881289
2.21737
0.0890851
2.18965
0.0900413
2.16157
0.090877
2.13301
0.092673
2.10325
0.0926689
2.07481
0.0926644
2.04361
0.09386
2.01361
0.0938555
1.98241
0.0950512
1.95001
0.0938462
1.91881
0.0950417
1.88521
0.0950368
1.85281
0.0950322
1.81921
0.095027
1.78561
0.095022
1.75081
0.0938169
1.71601
0.0950119
1.68001
0.0938067
1.64521
0.0938014
1.60921
0.0925959
1.57321
0.0925907
1.53481
0.0913851
1.49881
0.0913797
1.46041
0.0901742
1.42321
0.0889685
1.38481
0.0877629
1.34641
0.0865571
1.30681
0.0841512
1.26841
0.0829455
1.22761
0.0817398
1.18801
0.080534
1.14841
0.0793282
1.10761
0.0769222
1.06681
0.0757164
1.02601
0.0721103
0.985211
0.0709046
0.943211
0.0672985
0.902411
0.0660928
0.85921
0.0636869
0.817211
0.0612812
0.77521
0.0576753
0.733211
0.0552696
0.69001
0.052864
0.64681
0.0492583
0.60481
0.0456528
0.56041
0.0432475
0.51721
0.038442
0.47521
0.0360368
0.430809
0.0324317
0.386409
0.0288266
0.343209
0.0252209
0.300009
0.0204146
0.25561
0.0168096
0.21121
0.0132083
0.168005
0.00840905
0.123599
0.00480527
0.0792022
0.0360103
-0.00359626
0.0395888
-0.00839073
0.0839928
-0.0131896
0.128399
-0.0167893
0.171596
-0.0215857
0.215989
-0.0251796
0.259186
-0.0287731
0.303586
-0.032367
0.346787
-0.0359611
0.389987
-0.039555
0.434386
-0.0419489
0.477586
-0.0455425
0.520786
-0.0491359
0.563985
-0.0515293
0.607185
-0.0551225
0.650385
-0.0575156
0.692384
-0.0599087
0.735584
-0.0623016
0.777584
-0.0658942
0.820783
-0.068287
0.861583
-0.0694799
0.903583
-0.0718724
0.945583
-0.0742649
0.987583
-0.0754575
1.02718
-0.0778499
1.06918
-0.0790426
1.10878
-0.0814349
1.15078
-0.0826274
1.18918
-0.0850197
1.22998
-0.0862122
1.26958
-0.0874047
1.30798
-0.0873973
1.34638
-0.0885899
1.38598
-0.0897823
1.42438
-0.0909748
1.46158
-0.0909675
1.49878
-0.0933598
1.53718
-0.0933526
1.57318
-0.0933453
1.60918
-0.0933382
1.64518
-0.0945308
1.68118
-0.0945238
1.71598
-0.0945169
1.75078
-0.0945098
1.78558
-0.0945028
1.81918
-0.094496
1.85278
-0.0944891
1.88518
-0.0932826
1.91758
-0.093276
1.94999
-0.0932692
1.98238
-0.0920631
2.01239
-0.0920566
2.04359
-0.0908502
2.07359
-0.090244
2.10263
-0.0893981
2.13215
-0.0884321
2.16059
-0.0875861
2.18879
-0.0863805
2.21615
-0.0852947
2.24315
-0.0840892
2.26955
-0.0828836
2.29535
-0.0815581
2.32067
-0.0801129
2.34539
-0.078668
2.36951
-0.0772227
2.39315
-0.0755378
2.41595
-0.074093
2.43851
-0.0724085
2.46023
-0.0706036
2.48135
-0.068799
2.50199
-0.0669949
2.52191
-0.0651908
2.54135
-0.0632665
2.55995
-0.0612227
2.57807
-0.0591786
2.59559
-0.0571352
2.61239
-0.0550913
2.62859
-0.0529279
2.64407
-0.0508847
2.65907
-0.0486012
2.67323
-0.046318
2.68679
-0.0440353
2.69975
-0.0418726
2.71211
-0.0394698
2.72363
-0.037067
2.73455
-0.0346647
2.74475
-0.0322624
2.75447
-0.0298603
2.76336
-0.0273382
2.77152
-0.0249363
2.7792
-0.0224145
2.78604
-0.0198928
2.79216
-0.0173712
2.7978
-0.01485
2.80248
-0.0122086
2.80668
-0.00974765
2.81017
-0.00717851
2.81289
-0.00462178
2.81497
-0.00205314
2.81635
0.00051541
2.81705
0.0030838
2.81705
0.00565211
2.81635
0.00820832
2.81497
0.0107761
2.8129
0.0132361
2.81017
0.0158756
2.80668
0.0183954
2.80248
0.0209147
2.7978
0.0234339
2.79216
0.025953
2.78604
0.028352
2.7792
0.0308709
2.77152
0.0332696
2.76336
0.0356683
2.75448
0.0380668
2.74476
0.040465
2.73456
0.042863
2.72364
0.0450211
2.71212
0.0472992
2.69976
0.0495769
2.68681
0.0518542
2.67325
0.0538919
2.65909
0.0560493
2.64409
0.0580862
2.62861
0.0601235
2.61241
0.0621602
2.59561
0.0641971
2.57809
0.0661136
2.55997
0.0679102
2.54137
0.0697067
2.52193
0.0715029
2.50201
0.0732986
2.48137
0.0749748
2.46025
0.0764106
2.43853
0.0780863
2.41597
0.0795216
2.39317
0.0809573
2.36953
0.0823926
2.34541
0.0837076
2.32069
0.0849025
2.29537
0.0860975
2.26957
0.0871721
2.24317
0.0883669
2.21617
0.0892014
2.18881
0.0901557
2.16061
0.0909902
2.13217
0.0915843
2.10265
0.0927781
2.07361
0.0927719
2.04361
0.0939661
2.01241
0.0939595
1.98241
0.093953
1.95001
0.0951467
1.91761
0.0951399
1.88522
0.0951332
1.85282
0.0951262
1.81922
0.0951191
1.78562
0.0951122
1.75082
0.0951052
1.71602
0.0938977
1.68122
0.0938904
1.64522
0.093883
1.60922
0.0938756
1.57322
0.0914676
1.53722
0.09146
1.49882
0.0902522
1.46162
0.0890442
1.42442
0.0878364
1.38602
0.0878286
1.34642
0.0866206
1.30802
0.0854126
1.26962
0.0830043
1.23002
0.0817962
1.18922
0.0793878
1.15082
0.0781798
1.10882
0.0757715
1.06922
0.0745633
1.02722
0.0721549
0.987619
0.0697465
0.945619
0.0685386
0.903619
0.0661303
0.861619
0.0625219
0.820819
0.0601137
0.777619
0.0577057
0.735619
0.0552977
0.692418
0.0516896
0.650418
0.0492818
0.607218
0.0456739
0.564018
0.0420661
0.520817
0.0396586
0.477617
0.036051
0.434417
0.0324436
0.390016
0.0288358
0.346816
0.0252273
0.303618
0.0216192
0.259218
0.0168145
0.216014
0.0132144
0.171605
0.00841291
0.128401
0.00360526
0.0840098
0.0396156
-0.00479594
0.0443848
-0.00958882
0.0887857
-0.0131852
0.131995
-0.0167847
0.175196
-0.0203823
0.219587
-0.0251756
0.263979
-0.0287673
0.307178
-0.0323592
0.350379
-0.0359513
0.393579
-0.0395434
0.437978
-0.0431352
0.481178
-0.0467269
0.524377
-0.0491187
0.566377
-0.0527099
0.610776
-0.0551013
0.652776
-0.0586923
0.695975
-0.0610833
0.737975
-0.0634743
0.779975
-0.0646653
0.821974
-0.0682556
0.865174
-0.0706462
0.905974
-0.0730366
0.947974
-0.0742272
0.988773
-0.0766175
1.02957
-0.0778081
1.07037
-0.0801983
1.11117
-0.0813886
1.15197
-0.082579
1.19037
-0.0837692
1.23117
-0.0849594
1.27077
-0.0861497
1.30917
-0.0885399
1.34877
-0.08973
1.38717
-0.0897206
1.42437
-0.0909108
1.46277
-0.0921011
1.49997
-0.0920917
1.53717
-0.0920825
1.57317
-0.0932729
1.61037
-0.0932636
1.64517
-0.0932543
1.68117
-0.0944448
1.71717
-0.0944356
1.75077
-0.0944266
1.78557
-0.0944175
1.81918
-0.0932089
1.85158
-0.0932002
1.88518
-0.0943912
1.91878
-0.0931826
1.94878
-0.0919743
1.98118
-0.0919656
2.01238
-0.0907574
2.04238
-0.0907493
2.07358
-0.0901412
2.10202
-0.0892933
2.1313
-0.0884454
2.15974
-0.0873576
2.1877
-0.0862703
2.21506
-0.0851827
2.24206
-0.0839756
2.26834
-0.0827682
2.29414
-0.0814413
2.31934
-0.0799945
2.34394
-0.0786675
2.36818
-0.077101
2.39158
-0.0755345
2.41438
-0.0738483
2.43682
-0.0721621
2.45854
-0.0704763
2.47966
-0.0687904
2.5003
-0.0669846
2.5201
-0.0649393
2.53931
-0.063134
2.55815
-0.0612082
2.57615
-0.0591636
2.59355
-0.0571185
2.61035
-0.0549541
2.62643
-0.0527893
2.64191
-0.0506248
2.65691
-0.0484605
2.67107
-0.0461768
2.68451
-0.0438928
2.69747
-0.0416089
2.70983
-0.0392052
2.72123
-0.0369219
2.73227
-0.0345189
2.74235
-0.0321155
2.75207
-0.0295927
2.76083
-0.0273101
2.76923
-0.0246676
2.77655
-0.0222652
2.78363
-0.0197433
2.78963
-0.0172212
2.79527
-0.0146997
2.79996
-0.0121779
2.80416
-0.0095846
2.80758
-0.00703948
2.81035
-0.00447012
2.8124
-0.00190129
2.81378
0.000667422
2.81448
0.00323594
2.81448
0.00580435
2.81378
0.00837222
2.8124
0.0109163
2.81035
0.0135083
2.80758
0.0160277
2.80416
0.0185474
2.79996
0.0210665
2.79528
0.0235858
2.78964
0.0259847
2.78364
0.0286234
2.77656
0.0309019
2.76924
0.0334202
2.76084
0.0358181
2.75209
0.0382162
2.74237
0.0404941
2.73229
0.0428915
2.72125
0.0451687
2.70985
0.0474458
2.69749
0.0497232
2.68453
0.0518799
2.67109
0.0540366
2.65693
0.0561927
2.64193
0.0583495
2.62645
0.0603853
2.61037
0.0624217
2.59357
0.0643369
2.57617
0.0661326
2.55817
0.0681682
2.53933
0.0699633
2.52013
0.0716382
2.50033
0.0733133
2.47969
0.074988
2.45857
0.0766625
2.43685
0.0782169
2.41442
0.0797711
2.39162
0.0810848
2.36822
0.0825187
2.34398
0.0838325
2.31938
0.0850258
2.29418
0.0862193
2.26838
0.0872923
2.2421
0.0883655
2.2151
0.0894383
2.18774
0.0902708
2.15978
0.0911033
2.13134
0.0916956
2.10206
0.0916879
2.07362
0.0928801
2.04242
0.0928717
2.01242
0.0940636
1.98122
0.0952553
1.94882
0.0940464
1.91882
0.0940378
1.88522
0.0952294
1.85162
0.0952203
1.81922
0.0952114
1.78563
0.0952021
1.75083
0.0939925
1.71723
0.093983
1.68123
0.0939736
1.64523
0.0927637
1.61043
0.0927542
1.57323
0.0927445
1.53723
0.0915344
1.50003
0.0903243
1.46283
0.0903144
1.42443
0.089104
1.38723
0.0866935
1.34883
0.0854832
1.30923
0.0842727
1.27083
0.0830621
1.23123
0.0818518
1.19043
0.0806412
1.15203
0.0782305
1.11123
0.0770201
1.07043
0.0746094
1.02963
0.0733989
0.98883
0.0709882
0.94803
0.0685775
0.90603
0.0649664
0.86523
0.0637562
0.822029
0.0613458
0.780029
0.0589353
0.738029
0.0553248
0.696029
0.0529146
0.652828
0.0493041
0.610828
0.0468942
0.566428
0.0432841
0.524427
0.0396741
0.481227
0.0360642
0.438027
0.0324542
0.393626
0.0288437
0.350427
0.0252328
0.307229
0.0204241
0.264027
0.016821
0.219617
0.0132206
0.175205
0.00961565
0.132006
0.00480574
0.0888198
0.0444213
-0.00479571
0.0491805
-0.0083883
0.0923783
-0.0131815
0.136789
-0.0179792
0.179993
-0.0215776
0.223185
-0.0251718
0.267574
-0.0287625
0.310769
-0.0323524
0.353969
-0.0371422
0.398369
-0.0395327
0.440369
-0.0431227
0.484768
-0.0455128
0.526768
-0.0491024
0.569967
-0.0514922
0.613166
-0.0550813
0.656365
-0.0574705
0.698365
-0.0598596
0.740364
-0.0634481
0.783563
-0.0658368
0.824363
-0.0670257
0.866363
-0.0694142
0.908362
-0.0718025
0.950362
-0.0741907
0.991162
-0.0765787
1.03196
-0.077767
1.07156
-0.080155
1.11356
-0.0813431
1.15316
-0.0837309
1.19276
-0.0849191
1.23236
-0.0861072
1.27196
-0.0872953
1.31036
-0.0884832
1.34996
-0.0884716
1.38716
-0.0896596
1.42556
-0.0908476
1.46396
-0.0920357
1.50116
-0.0920241
1.53716
-0.0932122
1.57436
-0.0932007
1.61036
-0.0943888
1.64636
-0.0943776
1.68116
-0.0943661
1.71716
-0.094355
1.75076
-0.0943437
1.78556
-0.0943327
1.81916
-0.0943216
1.85156
-0.0943107
1.88516
-0.0931
1.91757
-0.0930893
1.94877
-0.0930787
1.98117
-0.0918685
2.01117
-0.0918581
2.04237
-0.0906478
2.07237
-0.0900381
2.10141
-0.0891882
2.13045
-0.0882184
2.15877
-0.0872492
2.18673
-0.0862793
2.21409
-0.0850703
2.24085
-0.0838611
2.26713
-0.0826527
2.29293
-0.0813237
2.31801
-0.0799953
2.34261
-0.0784266
2.36661
-0.0768589
2.39001
-0.0754109
2.41293
-0.0738426
2.43525
-0.0721549
2.45686
-0.0704674
2.47798
-0.0685404
2.49838
-0.0667336
2.5183
-0.0649262
2.5375
-0.0629997
2.55622
-0.0609533
2.5741
-0.0589068
2.5915
-0.0568607
2.6083
-0.0548149
2.62438
-0.0527692
2.63986
-0.0504838
2.65462
-0.0481989
2.66878
-0.0460333
2.68234
-0.0438683
2.6953
-0.0414639
2.70743
-0.0391797
2.71895
-0.0366557
2.72975
-0.0343714
2.74007
-0.0319677
2.74967
-0.0295642
2.75843
-0.0270409
2.76671
-0.0246378
2.77415
-0.0219948
2.78099
-0.0195921
2.78723
-0.0170699
2.79275
-0.0145471
2.79743
-0.0120258
2.80163
-0.00944321
2.80499
-0.00687383
2.80778
-0.00431659
2.80984
-0.00174757
2.81121
0.000821316
2.81191
0.00338997
2.81191
0.00595848
2.81121
0.00851478
2.80985
0.0110829
2.80778
0.0136619
2.805
0.0161821
2.80164
0.0187008
2.79744
0.0212201
2.79276
0.0236189
2.78724
0.0262574
2.781
0.0286558
2.77417
0.0311739
2.76673
0.0335719
2.75845
0.0359696
2.74969
0.0382468
2.74009
0.0407642
2.72977
0.0430414
2.71897
0.0454385
2.70745
0.0475948
2.69533
0.0497506
2.68237
0.052027
2.66881
0.0543029
2.65465
0.0563385
2.63989
0.058374
2.62441
0.0604092
2.60834
0.0624438
2.59154
0.0644787
2.57414
0.0663934
2.55626
0.068187
2.53754
0.0699814
2.51834
0.0718955
2.49842
0.0735691
2.47802
0.0752424
2.4569
0.0767951
2.4353
0.0782281
2.41298
0.0797813
2.39006
0.0813335
2.36666
0.082646
2.34266
0.0839578
2.31807
0.0851503
2.29299
0.0863418
2.26719
0.0875335
2.24091
0.0884843
2.21415
0.0894357
2.18679
0.0903865
2.15883
0.0912171
2.13051
0.091808
2.10147
0.0929981
2.07243
0.0929881
2.04243
0.0941782
2.01123
0.094168
1.98123
0.0941575
1.94883
0.095347
1.91763
0.0953363
1.88523
0.0953253
1.85163
0.0953144
1.81924
0.095303
1.78564
0.0952919
1.75084
0.0952803
1.71724
0.0952689
1.68124
0.0940568
1.64644
0.094045
1.61044
0.0928327
1.57444
0.0928208
1.53724
0.0916083
1.50124
0.0903957
1.46404
0.0891832
1.42564
0.089171
1.38724
0.0879581
1.35004
0.0867454
1.31044
0.0855326
1.27204
0.0843199
1.23244
0.0819067
1.19284
0.0806937
1.15324
0.0782805
1.11364
0.0770676
1.07164
0.0746543
1.03204
0.0722411
0.991243
0.0698279
0.950443
0.0674148
0.908443
0.0662023
0.866442
0.0637893
0.824442
0.060176
0.783642
0.0577633
0.740442
0.0553506
0.698442
0.0517377
0.656441
0.0493254
0.613241
0.0457128
0.57004
0.0433008
0.526839
0.0396884
0.484839
0.0372765
0.440439
0.0324635
0.398439
0.0288504
0.35404
0.0252383
0.310841
0.0216308
0.267635
0.0180288
0.223219
0.0132258
0.180008
0.00841647
0.136815
0.0048061
0.0924301
0.0492274
-0.00359597
0.0527764
-0.00838806
0.0971703
-0.0119793
0.14038
-0.0167744
0.184789
-0.0215722
0.227983
-0.0251675
0.271169
-0.0287582
0.314359
-0.0323466
0.357557
-0.0359348
0.401957
-0.0395231
0.443957
-0.0419116
0.487156
-0.0454995
0.530355
-0.0490872
0.573554
-0.0526746
0.616753
-0.0550622
0.658753
-0.0574495
0.700752
-0.0610362
0.743951
-0.0622234
0.784751
-0.0658098
0.827949
-0.0681962
0.868749
-0.0705825
0.910749
-0.0717691
0.951548
-0.074155
0.993547
-0.0753414
1.03315
-0.0789268
1.07515
-0.0789132
1.11355
-0.0812988
1.15555
-0.0824847
1.19395
-0.0836706
1.23355
-0.0848565
1.27315
-0.0872417
1.31275
-0.0872279
1.34995
-0.0896132
1.38955
-0.090799
1.42675
-0.0907852
1.46395
-0.0907714
1.50115
-0.0919571
1.53835
-0.0931429
1.57555
-0.0931292
1.61035
-0.0931157
1.64635
-0.0943016
1.68235
-0.0930884
1.71595
-0.0942744
1.75195
-0.0942612
1.78555
-0.0930481
1.81795
-0.0942347
1.85275
-0.0942214
1.88515
-0.0930089
1.91635
-0.0929961
1.94875
-0.0929834
1.98115
-0.0929708
2.01115
-0.0917587
2.04115
-0.0905468
2.07116
-0.0899347
2.1008
-0.0889629
2.12948
-0.0881112
2.15792
-0.0871397
2.18576
-0.0860487
2.213
-0.0849579
2.23976
-0.0837468
2.26592
-0.0825359
2.29172
-0.0812055
2.31668
-0.079755
2.34116
-0.0783055
2.36516
-0.0768552
2.38856
-0.0752856
2.41136
-0.0735967
2.43357
-0.0720274
2.45529
-0.0702183
2.47617
-0.0685294
2.49669
-0.0666008
2.51637
-0.0647928
2.53569
-0.0627445
2.55417
-0.0608169
2.57217
-0.0588894
2.58957
-0.0567222
2.60613
-0.0546747
2.62233
-0.0525079
2.63769
-0.0503413
2.65246
-0.0481749
2.66662
-0.0460091
2.68018
-0.0436031
2.6929
-0.0413179
2.70514
-0.0389123
2.71654
-0.0366269
2.72746
-0.0342223
2.73766
-0.0318179
2.74726
-0.0294137
2.75602
-0.0268891
2.76418
-0.0244859
2.77175
-0.0219623
2.77847
-0.019439
2.78471
-0.0169159
2.79023
-0.0143935
2.79491
-0.0117508
2.79899
-0.00928887
2.80253
-0.00673062
2.80522
-0.00416114
2.80727
-0.00159192
2.80864
0.000977131
2.80934
0.00354593
2.80934
0.00611455
2.80865
0.00868291
2.80728
0.0112385
2.80523
0.0136984
2.80254
0.0163375
2.799
0.018857
2.79492
0.0213757
2.79024
0.0238941
2.78473
0.0264124
2.77849
0.0288109
2.77177
0.0313282
2.76421
0.0337257
2.75605
0.036123
2.74729
0.0385201
2.73769
0.0407965
2.72749
0.0431926
2.71657
0.045469
2.70517
0.0478646
2.69294
0.0500206
2.68022
0.0521758
2.66666
0.0543307
2.6525
0.0564855
2.63774
0.0585195
2.62238
0.0606737
2.60618
0.0625878
2.58962
0.0645016
2.57222
0.0665347
2.55422
0.0683281
2.53575
0.0702408
2.51643
0.0719132
2.49675
0.0737054
2.47623
0.0752574
2.45535
0.0769296
2.43363
0.0784812
2.41143
0.079912
2.38863
0.0813436
2.36523
0.0827741
2.34123
0.0840847
2.31675
0.0852748
2.2918
0.0864646
2.266
0.0875346
2.23984
0.0886044
2.21308
0.0895536
2.18584
0.0903826
2.158
0.0913314
2.12956
0.09192
2.10088
0.0931085
2.07124
0.0942969
2.04124
0.0942848
2.01124
0.0942724
1.98125
0.09426
1.94885
0.0954478
1.91645
0.0954346
1.88525
0.0942212
1.85285
0.0954083
1.81805
0.095395
1.78565
0.0941809
1.75205
0.0953675
1.71605
0.0941532
1.68245
0.0941395
1.64645
0.0941254
1.61045
0.0929107
1.57565
0.0916959
1.53845
0.0916815
1.50125
0.0916671
1.46405
0.0904521
1.42686
0.0880366
1.38966
0.0880219
1.35006
0.0856061
1.31286
0.0843909
1.27326
0.0831757
1.23366
0.0819603
1.19406
0.0795446
1.15566
0.0795297
1.11366
0.0759136
1.07526
0.0746984
1.03326
0.0722827
0.993659
0.0710676
0.951658
0.068652
0.910858
0.0662365
0.868858
0.0626208
0.828058
0.061406
0.784857
0.0577904
0.744057
0.0553756
0.700856
0.0529607
0.658856
0.0493456
0.616856
0.0457307
0.573655
0.0421159
0.530454
0.0397016
0.487254
0.0360868
0.444053
0.0324716
0.402054
0.0288566
0.357655
0.0252444
0.314453
0.0216384
0.271241
0.0168357
0.228022
0.0120291
0.184815
0.00841692
0.140427
0.00360578
0.0972413
0.0528332
-0.00479515
0.0575716
-0.00958744
0.101963
-0.0131775
0.14397
-0.01677
0.188381
-0.0203668
0.23158
-0.0239629
0.274765
-0.028754
0.31915
-0.0323416
0.361145
-0.0359281
0.405543
-0.0395145
0.447544
-0.0431008
0.490743
-0.0466868
0.533941
-0.0490731
0.575941
-0.051459
0.619139
-0.0550442
0.662338
-0.0574295
0.703137
-0.0598147
0.746336
-0.0633992
0.788335
-0.0645842
0.829135
-0.0681681
0.872333
-0.0693529
0.911933
-0.0729361
0.955132
-0.0741207
0.994732
-0.0765042
1.03553
-0.0776881
1.07633
-0.0800717
1.11593
-0.0812555
1.15673
-0.0824393
1.19513
-0.0848223
1.23593
-0.0860059
1.27433
-0.0859899
1.31273
-0.0883729
1.35233
-0.0883566
1.38953
-0.0895401
1.42793
-0.0907235
1.46513
-0.0919073
1.50233
-0.0918909
1.53833
-0.0918748
1.57553
-0.0930586
1.61153
-0.0942418
1.64753
-0.0930267
1.68113
-0.0942103
1.71713
-0.0941948
1.75193
-0.094179
1.78553
-0.0941637
1.81794
-0.0941481
1.85274
-0.0929334
1.88394
-0.0941175
1.91754
-0.092903
1.94754
-0.0916886
1.97994
-0.0916739
2.01114
-0.0916589
2.04114
-0.0904453
2.06994
-0.0898308
2.10018
-0.0889774
2.12862
-0.0881236
2.15706
-0.0870302
2.18466
-0.0860573
2.21203
-0.0848442
2.23855
-0.0837511
2.26483
-0.0822989
2.29027
-0.0809668
2.31535
-0.0796349
2.33983
-0.0783026
2.36383
-0.0767312
2.38699
-0.0751599
2.40979
-0.0735888
2.43199
-0.071778
2.45348
-0.0700879
2.47448
-0.0682775
2.49488
-0.0664673
2.51456
-0.0645379
2.53376
-0.0627281
2.55236
-0.0607991
2.57024
-0.0586299
2.5874
-0.0567013
2.6042
-0.0545331
2.62017
-0.0523651
2.63553
-0.0501979
2.65029
-0.0480297
2.66445
-0.0457431
2.67789
-0.043456
2.69061
-0.0411692
2.70285
-0.0388833
2.71425
-0.0364769
2.72506
-0.0340715
2.73526
-0.0316663
2.74486
-0.0291407
2.7535
-0.0267366
2.76178
-0.0242116
2.76922
-0.0218073
2.77606
-0.0192841
2.78218
-0.0167604
2.78771
-0.0142376
2.79239
-0.0117144
2.79647
-0.00912017
2.79994
-0.00656216
2.80266
-0.00400376
2.80472
-0.00143431
2.80607
0.00113491
2.80677
0.00370386
2.80677
0.00627258
2.80608
0.00882834
2.80472
0.0113845
2.80267
0.0139764
2.79995
0.0164954
2.79648
0.0190147
2.7924
0.0215332
2.78773
0.024052
2.78221
0.0264499
2.77609
0.0289669
2.76925
0.0313649
2.76181
0.0338814
2.75353
0.0362783
2.74489
0.0386749
2.73529
0.0410705
2.7251
0.0433466
2.7143
0.0456217
2.7029
0.0478966
2.69066
0.0501718
2.67794
0.0523255
2.6645
0.0544802
2.65034
0.056634
2.63559
0.0587876
2.62023
0.0607008
2.60427
0.0628533
2.58747
0.064766
2.57031
0.0665578
2.55243
0.0684701
2.53383
0.0702614
2.51463
0.0720525
2.49496
0.0737239
2.47456
0.0755145
2.45356
0.0770649
2.43208
0.0786149
2.40988
0.0801648
2.38708
0.0814737
2.36392
0.082783
2.33992
0.0840921
2.31545
0.085521
2.29037
0.0865889
2.26493
0.0877768
2.23865
0.0887248
2.21213
0.0897922
2.18477
0.0906193
2.15717
0.0914466
2.12873
0.0920327
2.1003
0.0932198
2.07006
0.0932053
2.04126
0.093191
2.01126
0.0943771
1.98006
0.095563
1.94766
0.0943472
1.91766
0.0955328
1.88406
0.0955172
1.85286
0.095502
1.81806
0.0954861
1.78567
0.0954705
1.75207
0.0942539
1.71727
0.0954386
1.68127
0.0942213
1.64767
0.0930047
1.61167
0.0929881
1.57567
0.0929711
1.53847
0.0917541
1.50247
0.0905368
1.46527
0.0893193
1.42807
0.0893021
1.38967
0.0868839
1.35247
0.0868669
1.31287
0.0856493
1.27447
0.0832308
1.23608
0.0820132
1.19528
0.0807955
1.15688
0.0783773
1.11608
0.0771595
1.07648
0.0747412
1.03568
0.0735239
0.994876
0.069905
0.955277
0.0686877
0.912075
0.0650692
0.872476
0.063852
0.829275
0.0602339
0.788475
0.0578165