/*--------------------------------*- C++ -*----------------------------------*\
  =========                 |
  \\      /  F ield         | OpenFOAM: The Open Source CFD Toolbox
   \\    /   O peration     | Website:  https://openfoam.org
    \\  /    A nd           | Version:  8
     \\/     M anipulation  |
\*---------------------------------------------------------------------------*/
FoamFile
{
    version     2.0;
    format      ascii;
    class       volScalarField;
    location    "3";
    object      nut;
}
// * * * * * * * * * * * * * * * * * * * * * * * * * * * * * * * * * * * * * //

dimensions      [0 2 -1 0 0 0 0];

internalField   nonuniform List<scalar> 
248760
(
0.139974
0.139922
0.139869
0.139817
0.139764
0.139711
0.139658
0.139605
0.139552
0.139499
0.139446
0.139393
0.13934
0.139288
0.139235
0.139183
0.139131
0.139079
0.139027
0.138976
0.138925
0.138874
0.138823
0.138773
0.138723
0.138673
0.138624
0.138575
0.138526
0.138478
0.13843
0.138382
0.138335
0.138289
0.138242
0.138197
0.138151
0.138106
0.138062
0.138018
0.137974
0.137931
0.137889
0.137847
0.137805
0.137764
0.137724
0.137684
0.137644
0.137605
0.137566
0.137528
0.13749
0.137453
0.137417
0.13738
0.137345
0.13731
0.137275
0.137241
0.137207
0.137174
0.137141
0.137109
0.137077
0.137046
0.137015
0.136984
0.136954
0.136925
0.136896
0.136867
0.136839
0.136811
0.136784
0.136757
0.136731
0.136704
0.136679
0.136654
0.136629
0.136604
0.13658
0.136557
0.136533
0.136511
0.136488
0.136466
0.136444
0.136423
0.136402
0.136381
0.136361
0.136341
0.136321
0.136302
0.136283
0.136264
0.136246
0.136228
0.13621
0.136193
0.136177
0.13616
0.136145
0.13613
0.136116
0.136103
0.136091
0.136081
0.136073
0.136067
0.136064
0.136064
0.13607
0.136081
0.1361
0.136128
0.136168
0.136222
0.139974
0.139922
0.139869
0.139816
0.139763
0.13971
0.139657
0.139604
0.139551
0.139498
0.139445
0.139392
0.13934
0.139287
0.139234
0.139182
0.13913
0.139078
0.139026
0.138974
0.138923
0.138872
0.138821
0.138771
0.138721
0.138671
0.138622
0.138572
0.138524
0.138475
0.138427
0.13838
0.138333
0.138286
0.13824
0.138194
0.138148
0.138103
0.138059
0.138015
0.137971
0.137928
0.137886
0.137843
0.137802
0.137761
0.13772
0.13768
0.13764
0.137601
0.137562
0.137524
0.137486
0.137449
0.137412
0.137376
0.13734
0.137305
0.13727
0.137236
0.137202
0.137169
0.137136
0.137103
0.137072
0.13704
0.137009
0.136979
0.136949
0.136919
0.13689
0.136861
0.136833
0.136805
0.136778
0.136751
0.136724
0.136698
0.136672
0.136647
0.136622
0.136598
0.136574
0.13655
0.136527
0.136504
0.136481
0.136459
0.136437
0.136415
0.136394
0.136374
0.136353
0.136333
0.136313
0.136294
0.136275
0.136256
0.136238
0.13622
0.136202
0.136185
0.136169
0.136152
0.136137
0.136122
0.136108
0.136095
0.136083
0.136073
0.136064
0.136058
0.136055
0.136056
0.136062
0.136073
0.136092
0.136121
0.136161
0.136215
0.139974
0.139921
0.139869
0.139816
0.139763
0.13971
0.139657
0.139603
0.13955
0.139497
0.139444
0.139391
0.139338
0.139285
0.139233
0.13918
0.139128
0.139076
0.139024
0.138972
0.138921
0.138869
0.138818
0.138768
0.138718
0.138668
0.138618
0.138569
0.13852
0.138471
0.138423
0.138375
0.138328
0.138281
0.138235
0.138189
0.138143
0.138098
0.138053
0.138009
0.137965
0.137922
0.137879
0.137837
0.137795
0.137754
0.137713
0.137672
0.137633
0.137593
0.137554
0.137516
0.137478
0.137441
0.137404
0.137367
0.137331
0.137296
0.137261
0.137227
0.137193
0.137159
0.137126
0.137094
0.137061
0.13703
0.136999
0.136968
0.136938
0.136908
0.136879
0.13685
0.136822
0.136794
0.136766
0.136739
0.136712
0.136686
0.13666
0.136635
0.13661
0.136585
0.136561
0.136537
0.136514
0.13649
0.136468
0.136445
0.136423
0.136402
0.136381
0.13636
0.136339
0.136319
0.136299
0.13628
0.136261
0.136242
0.136223
0.136205
0.136188
0.13617
0.136154
0.136137
0.136122
0.136107
0.136093
0.13608
0.136068
0.136057
0.136049
0.136043
0.13604
0.136041
0.136046
0.136058
0.136077
0.136106
0.136146
0.136201
0.139974
0.139921
0.139868
0.139815
0.139762
0.139709
0.139655
0.139602
0.139549
0.139495
0.139442
0.139389
0.139336
0.139283
0.13923
0.139177
0.139125
0.139073
0.13902
0.138968
0.138917
0.138865
0.138814
0.138764
0.138713
0.138663
0.138613
0.138564
0.138514
0.138466
0.138417
0.138369
0.138322
0.138275
0.138228
0.138182
0.138136
0.13809
0.138045
0.138001
0.137957
0.137913
0.13787
0.137828
0.137786
0.137744
0.137703
0.137662
0.137622
0.137583
0.137543
0.137505
0.137467
0.137429
0.137392
0.137355
0.137319
0.137283
0.137248
0.137214
0.137179
0.137146
0.137112
0.13708
0.137047
0.137015
0.136984
0.136953
0.136923
0.136893
0.136863
0.136834
0.136806
0.136777
0.13675
0.136722
0.136696
0.136669
0.136643
0.136617
0.136592
0.136567
0.136543
0.136519
0.136495
0.136472
0.136449
0.136427
0.136405
0.136383
0.136361
0.13634
0.13632
0.136299
0.136279
0.13626
0.13624
0.136221
0.136203
0.136185
0.136167
0.136149
0.136133
0.136116
0.1361
0.136085
0.136071
0.136058
0.136046
0.136036
0.136027
0.136021
0.136018
0.136019
0.136024
0.136036
0.136055
0.136084
0.136125
0.13618
0.139974
0.139921
0.139868
0.139814
0.139761
0.139708
0.139654
0.1396
0.139547
0.139493
0.13944
0.139387
0.139333
0.13928
0.139227
0.139174
0.139121
0.139069
0.139016
0.138964
0.138912
0.138861
0.138809
0.138758
0.138707
0.138657
0.138607
0.138557
0.138508
0.138459
0.13841
0.138362
0.138314
0.138266
0.138219
0.138173
0.138127
0.138081
0.138036
0.137991
0.137947
0.137903
0.137859
0.137816
0.137774
0.137732
0.137691
0.13765
0.137609
0.137569
0.13753
0.137491
0.137453
0.137415
0.137377
0.13734
0.137304
0.137268
0.137232
0.137197
0.137163
0.137129
0.137095
0.137062
0.13703
0.136997
0.136966
0.136935
0.136904
0.136874
0.136844
0.136815
0.136786
0.136757
0.136729
0.136702
0.136675
0.136648
0.136622
0.136596
0.13657
0.136545
0.136521
0.136496
0.136472
0.136449
0.136426
0.136403
0.136381
0.136359
0.136337
0.136316
0.136295
0.136274
0.136254
0.136234
0.136215
0.136196
0.136177
0.136159
0.136141
0.136123
0.136106
0.13609
0.136074
0.136058
0.136044
0.136031
0.136019
0.136008
0.136
0.135993
0.13599
0.135991
0.135997
0.136009
0.136028
0.136057
0.136099
0.136154
0.139973
0.13992
0.139867
0.139813
0.13976
0.139706
0.139652
0.139599
0.139545
0.139491
0.139437
0.139384
0.13933
0.139277
0.139223
0.13917
0.139117
0.139064
0.139012
0.138959
0.138907
0.138855
0.138803
0.138752
0.138701
0.13865
0.1386
0.138549
0.1385
0.13845
0.138401
0.138353
0.138305
0.138257
0.138209
0.138162
0.138116
0.13807
0.138024
0.137979
0.137934
0.13789
0.137846
0.137803
0.13776
0.137718
0.137676
0.137635
0.137594
0.137554
0.137514
0.137475
0.137436
0.137398
0.13736
0.137322
0.137286
0.137249
0.137213
0.137178
0.137143
0.137109
0.137075
0.137042
0.137009
0.136976
0.136944
0.136913
0.136882
0.136851
0.136821
0.136791
0.136762
0.136733
0.136705
0.136677
0.13665
0.136623
0.136596
0.13657
0.136544
0.136519
0.136494
0.13647
0.136445
0.136422
0.136398
0.136375
0.136353
0.13633
0.136309
0.136287
0.136266
0.136245
0.136225
0.136205
0.136185
0.136166
0.136147
0.136128
0.13611
0.136092
0.136075
0.136058
0.136042
0.136027
0.136012
0.135999
0.135986
0.135976
0.135967
0.135961
0.135958
0.135959
0.135965
0.135977
0.135996
0.136026
0.136068
0.136124
0.139973
0.13992
0.139866
0.139812
0.139759
0.139705
0.139651
0.139597
0.139543
0.139489
0.139435
0.139381
0.139327
0.139273
0.139219
0.139166
0.139112
0.139059
0.139006
0.138954
0.138901
0.138849
0.138797
0.138745
0.138693
0.138642
0.138591
0.138541
0.138491
0.138441
0.138392
0.138343
0.138294
0.138246
0.138198
0.138151
0.138104
0.138057
0.138011
0.137966
0.137921
0.137876
0.137832
0.137788
0.137745
0.137702
0.13766
0.137618
0.137577
0.137536
0.137496
0.137456
0.137417
0.137378
0.13734
0.137302
0.137265
0.137228
0.137192
0.137156
0.137121
0.137086
0.137052
0.137018
0.136985
0.136952
0.13692
0.136888
0.136857
0.136826
0.136795
0.136765
0.136736
0.136707
0.136678
0.13665
0.136622
0.136595
0.136568
0.136541
0.136515
0.136489
0.136464
0.136439
0.136415
0.136391
0.136367
0.136344
0.136321
0.136298
0.136276
0.136254
0.136233
0.136212
0.136191
0.136171
0.136151
0.136131
0.136112
0.136093
0.136075
0.136057
0.136039
0.136022
0.136006
0.135991
0.135976
0.135962
0.13595
0.135939
0.13593
0.135924
0.135921
0.135922
0.135928
0.13594
0.13596
0.13599
0.136032
0.13609
0.139973
0.139919
0.139865
0.139811
0.139757
0.139703
0.139649
0.139594
0.13954
0.139486
0.139432
0.139377
0.139323
0.139269
0.139215
0.139161
0.139107
0.139054
0.139001
0.138947
0.138894
0.138842
0.138789
0.138737
0.138685
0.138634
0.138583
0.138532
0.138481
0.138431
0.138381
0.138332
0.138283
0.138234
0.138186
0.138138
0.13809
0.138044
0.137997
0.137951
0.137905
0.13786
0.137816
0.137772
0.137728
0.137685
0.137642
0.1376
0.137558
0.137517
0.137476
0.137436
0.137396
0.137357
0.137319
0.13728
0.137243
0.137205
0.137169
0.137133
0.137097
0.137062
0.137027
0.136993
0.136959
0.136926
0.136893
0.136861
0.136829
0.136798
0.136767
0.136736
0.136706
0.136677
0.136648
0.136619
0.136591
0.136563
0.136536
0.136509
0.136483
0.136457
0.136431
0.136406
0.136381
0.136357
0.136333
0.136309
0.136286
0.136263
0.13624
0.136218
0.136197
0.136175
0.136154
0.136134
0.136113
0.136093
0.136074
0.136055
0.136036
0.136018
0.136
0.135983
0.135966
0.135951
0.135936
0.135922
0.135909
0.135898
0.135889
0.135883
0.13588
0.135881
0.135887
0.135899
0.13592
0.13595
0.135993
0.136052
0.139973
0.139919
0.139865
0.13981
0.139756
0.139701
0.139647
0.139592
0.139538
0.139483
0.139428
0.139374
0.139319
0.139265
0.13921
0.139156
0.139102
0.139048
0.138994
0.138941
0.138887
0.138834
0.138782
0.138729
0.138677
0.138625
0.138573
0.138522
0.138471
0.13842
0.13837
0.13832
0.13827
0.138221
0.138172
0.138124
0.138076
0.138029
0.137982
0.137935
0.137889
0.137844
0.137798
0.137754
0.13771
0.137666
0.137623
0.13758
0.137538
0.137496
0.137455
0.137414
0.137374
0.137334
0.137295
0.137256
0.137218
0.137181
0.137143
0.137107
0.137071
0.137035
0.137
0.136965
0.136931
0.136897
0.136864
0.136831
0.136799
0.136767
0.136736
0.136705
0.136674
0.136645
0.136615
0.136586
0.136557
0.136529
0.136502
0.136474
0.136447
0.136421
0.136395
0.136369
0.136344
0.13632
0.136295
0.136271
0.136248
0.136224
0.136202
0.136179
0.136157
0.136135
0.136114
0.136093
0.136072
0.136052
0.136032
0.136013
0.135994
0.135976
0.135958
0.13594
0.135923
0.135907
0.135892
0.135878
0.135865
0.135854
0.135845
0.135839
0.135836
0.135837
0.135843
0.135855
0.135876
0.135907
0.135951
0.13601
0.139973
0.139919
0.139864
0.139809
0.139755
0.1397
0.139645
0.13959
0.139535
0.13948
0.139425
0.13937
0.139315
0.13926
0.139205
0.139151
0.139096
0.139042
0.138988
0.138934
0.13888
0.138827
0.138773
0.13872
0.138667
0.138615
0.138563
0.138511
0.13846
0.138408
0.138358
0.138307
0.138257
0.138207
0.138158
0.138109
0.138061
0.138013
0.137966
0.137918
0.137872
0.137826
0.13778
0.137735
0.13769
0.137646
0.137602
0.137559
0.137516
0.137474
0.137432
0.137391
0.13735
0.13731
0.13727
0.137231
0.137192
0.137154
0.137116
0.137079
0.137043
0.137006
0.136971
0.136935
0.136901
0.136867
0.136833
0.1368
0.136767
0.136735
0.136703
0.136671
0.136641
0.13661
0.13658
0.136551
0.136522
0.136493
0.136465
0.136437
0.13641
0.136383
0.136357
0.136331
0.136305
0.13628
0.136255
0.136231
0.136207
0.136183
0.13616
0.136137
0.136115
0.136093
0.136071
0.13605
0.136029
0.136008
0.135988
0.135968
0.135949
0.13593
0.135912
0.135894
0.135877
0.135861
0.135845
0.135831
0.135818
0.135807
0.135798
0.135791
0.135788
0.135789
0.135795
0.135808
0.13583
0.135861
0.135906
0.135966
0.139973
0.139918
0.139863
0.139808
0.139753
0.139698
0.139643
0.139587
0.139532
0.139477
0.139421
0.139366
0.139311
0.139256
0.1392
0.139145
0.13909
0.139036
0.138981
0.138927
0.138872
0.138818
0.138765
0.138711
0.138658
0.138605
0.138552
0.1385
0.138448
0.138396
0.138345
0.138294
0.138243
0.138193
0.138143
0.138094
0.138045
0.137997
0.137948
0.137901
0.137854
0.137807
0.137761
0.137715
0.13767
0.137625
0.137581
0.137537
0.137493
0.137451
0.137408
0.137366
0.137325
0.137284
0.137244
0.137204
0.137165
0.137126
0.137088
0.13705
0.137013
0.136976
0.13694
0.136904
0.136869
0.136834
0.1368
0.136766
0.136733
0.1367
0.136668
0.136636
0.136605
0.136574
0.136543
0.136513
0.136484
0.136455
0.136426
0.136398
0.13637
0.136343
0.136316
0.13629
0.136264
0.136238
0.136213
0.136188
0.136164
0.13614
0.136116
0.136093
0.13607
0.136047
0.136025
0.136004
0.135982
0.135961
0.135941
0.135921
0.135901
0.135882
0.135864
0.135845
0.135828
0.135812
0.135796
0.135781
0.135768
0.135757
0.135747
0.135741
0.135738
0.135739
0.135745
0.135758
0.13578
0.135812
0.135858
0.13592
0.139973
0.139918
0.139862
0.139807
0.139752
0.139696
0.139641
0.139585
0.139529
0.139474
0.139418
0.139362
0.139306
0.139251
0.139195
0.13914
0.139084
0.139029
0.138974
0.138919
0.138864
0.13881
0.138756
0.138702
0.138648
0.138594
0.138541
0.138488
0.138436
0.138384
0.138332
0.13828
0.138229
0.138178
0.138128
0.138078
0.138028
0.137979
0.137931
0.137882
0.137835
0.137787
0.13774
0.137694
0.137648
0.137603
0.137558
0.137513
0.13747
0.137426
0.137383
0.137341
0.137299
0.137257
0.137217
0.137176
0.137136
0.137097
0.137058
0.13702
0.136982
0.136945
0.136908
0.136872
0.136836
0.1368
0.136766
0.136731
0.136697
0.136664
0.136631
0.136599
0.136567
0.136536
0.136505
0.136474
0.136444
0.136415
0.136385
0.136357
0.136329
0.136301
0.136273
0.136247
0.13622
0.136194
0.136168
0.136143
0.136118
0.136094
0.13607
0.136046
0.136023
0.136
0.135978
0.135955
0.135934
0.135912
0.135892
0.135871
0.135851
0.135832
0.135813
0.135794
0.135777
0.13576
0.135744
0.135729
0.135716
0.135704
0.135695
0.135688
0.135685
0.135686
0.135693
0.135706
0.135728
0.135761
0.135808
0.135871
0.139972
0.139917
0.139862
0.139806
0.13975
0.139694
0.139639
0.139582
0.139526
0.13947
0.139414
0.139358
0.139302
0.139246
0.13919
0.139134
0.139078
0.139022
0.138967
0.138911
0.138856
0.138801
0.138747
0.138692
0.138638
0.138584
0.13853
0.138476
0.138423
0.138371
0.138318
0.138266
0.138214
0.138163
0.138112
0.138061
0.138011
0.137961
0.137912
0.137863
0.137815
0.137767
0.13772
0.137673
0.137626
0.13758
0.137534
0.137489
0.137445
0.137401
0.137357
0.137314
0.137272
0.13723
0.137188
0.137147
0.137107
0.137067
0.137027
0.136988
0.13695
0.136912
0.136874
0.136838
0.136801
0.136765
0.13673
0.136695
0.136661
0.136627
0.136593
0.13656
0.136528
0.136496
0.136464
0.136433
0.136403
0.136373
0.136343
0.136314
0.136285
0.136257
0.136229
0.136202
0.136175
0.136148
0.136122
0.136096
0.136071
0.136046
0.136022
0.135997
0.135974
0.13595
0.135928
0.135905
0.135883
0.135861
0.13584
0.135819
0.135799
0.135779
0.13576
0.135741
0.135723
0.135706
0.13569
0.135675
0.135661
0.135649
0.13564
0.135633
0.13563
0.135631
0.135638
0.135652
0.135674
0.135708
0.135755
0.13582
0.139972
0.139917
0.139861
0.139805
0.139749
0.139693
0.139636
0.13958
0.139523
0.139467
0.13941
0.139354
0.139297
0.139241
0.139184
0.139128
0.139072
0.139016
0.138959
0.138904
0.138848
0.138792
0.138737
0.138682
0.138627
0.138573
0.138518
0.138464
0.13841
0.138357
0.138304
0.138251
0.138199
0.138147
0.138095
0.138044
0.137993
0.137943
0.137893
0.137844
0.137795
0.137746
0.137698
0.13765
0.137603
0.137556
0.13751
0.137465
0.137419
0.137375
0.13733
0.137287
0.137243
0.137201
0.137159
0.137117
0.137076
0.137035
0.136995
0.136956
0.136916
0.136878
0.13684
0.136802
0.136765
0.136729
0.136693
0.136657
0.136622
0.136588
0.136554
0.13652
0.136487
0.136455
0.136423
0.136391
0.13636
0.136329
0.136299
0.136269
0.13624
0.136211
0.136183
0.136155
0.136128
0.1361
0.136074
0.136048
0.136022
0.135996
0.135972
0.135947
0.135923
0.135899
0.135876
0.135853
0.13583
0.135808
0.135787
0.135765
0.135745
0.135724
0.135705
0.135686
0.135667
0.13565
0.135633
0.135618
0.135604
0.135592
0.135582
0.135576
0.135572
0.135574
0.135581
0.135595
0.135618
0.135653
0.135701
0.135767
0.139972
0.139916
0.13986
0.139804
0.139747
0.139691
0.139634
0.139577
0.13952
0.139464
0.139407
0.13935
0.139293
0.139236
0.139179
0.139122
0.139065
0.139009
0.138952
0.138896
0.138839
0.138783
0.138727
0.138672
0.138616
0.138561
0.138506
0.138452
0.138397
0.138343
0.13829
0.138236
0.138183
0.138131
0.138079
0.138027
0.137975
0.137924
0.137874
0.137824
0.137774
0.137725
0.137676
0.137627
0.13758
0.137532
0.137485
0.137439
0.137393
0.137348
0.137303
0.137258
0.137215
0.137171
0.137128
0.137086
0.137044
0.137003
0.136962
0.136922
0.136882
0.136843
0.136804
0.136766
0.136728
0.136691
0.136655
0.136619
0.136583
0.136548
0.136513
0.136479
0.136445
0.136412
0.13638
0.136347
0.136316
0.136285
0.136254
0.136223
0.136194
0.136164
0.136135
0.136107
0.136079
0.136051
0.136024
0.135997
0.135971
0.135945
0.13592
0.135895
0.13587
0.135846
0.135822
0.135799
0.135776
0.135753
0.135731
0.13571
0.135689
0.135668
0.135648
0.135629
0.13561
0.135592
0.135575
0.13556
0.135545
0.135533
0.135523
0.135516
0.135513
0.135515
0.135522
0.135536
0.13556
0.135595
0.135645
0.135712
0.139972
0.139916
0.139859
0.139803
0.139746
0.139689
0.139632
0.139575
0.139518
0.13946
0.139403
0.139345
0.139288
0.139231
0.139173
0.139116
0.139059
0.139001
0.138944
0.138887
0.138831
0.138774
0.138718
0.138661
0.138605
0.13855
0.138494
0.138439
0.138384
0.138329
0.138275
0.138221
0.138167
0.138114
0.138061
0.138009
0.137957
0.137905
0.137854
0.137803
0.137753
0.137703
0.137653
0.137604
0.137556
0.137507
0.13746
0.137413
0.137366
0.13732
0.137274
0.137229
0.137185
0.137141
0.137097
0.137054
0.137012
0.13697
0.136928
0.136887
0.136847
0.136807
0.136768
0.136729
0.136691
0.136653
0.136615
0.136579
0.136542
0.136507
0.136471
0.136437
0.136402
0.136369
0.136335
0.136303
0.13627
0.136238
0.136207
0.136176
0.136146
0.136116
0.136086
0.136057
0.136029
0.136001
0.135973
0.135946
0.135919
0.135893
0.135867
0.135841
0.135816
0.135791
0.135767
0.135743
0.13572
0.135697
0.135674
0.135652
0.135631
0.13561
0.135589
0.13557
0.135551
0.135532
0.135515
0.135499
0.135485
0.135473
0.135463
0.135456
0.135452
0.135454
0.135461
0.135476
0.1355
0.135537
0.135587
0.135656
0.139972
0.139915
0.139859
0.139802
0.139744
0.139687
0.13963
0.139572
0.139514
0.139457
0.139399
0.139341
0.139283
0.139225
0.139167
0.13911
0.139052
0.138994
0.138937
0.138879
0.138822
0.138765
0.138708
0.138651
0.138594
0.138538
0.138482
0.138426
0.13837
0.138315
0.13826
0.138206
0.138151
0.138097
0.138044
0.137991
0.137938
0.137885
0.137833
0.137782
0.137731
0.13768
0.13763
0.13758
0.137531
0.137482
0.137434
0.137386
0.137339
0.137292
0.137246
0.1372
0.137155
0.13711
0.137065
0.137022
0.136979
0.136936
0.136894
0.136852
0.136811
0.13677
0.13673
0.136691
0.136652
0.136613
0.136575
0.136538
0.136501
0.136464
0.136429
0.136393
0.136358
0.136324
0.13629
0.136257
0.136224
0.136191
0.136159
0.136128
0.136097
0.136066
0.136036
0.136007
0.135978
0.135949
0.135921
0.135893
0.135866
0.135839
0.135812
0.135786
0.135761
0.135735
0.135711
0.135686
0.135662
0.135639
0.135616
0.135594
0.135572
0.13555
0.135529
0.135509
0.13549
0.135471
0.135454
0.135438
0.135423
0.13541
0.1354
0.135393
0.13539
0.135391
0.135399
0.135414
0.135439
0.135476
0.135528
0.135599
0.139972
0.139915
0.139858
0.1398
0.139743
0.139685
0.139628
0.13957
0.139511
0.139453
0.139395
0.139337
0.139278
0.13922
0.139162
0.139103
0.139045
0.138987
0.138929
0.138871
0.138813
0.138755
0.138698
0.13864
0.138583
0.138526
0.138469
0.138413
0.138357
0.138301
0.138245
0.13819
0.138135
0.13808
0.138026
0.137972
0.137919
0.137865
0.137813
0.137761
0.137709
0.137657
0.137606
0.137556
0.137506
0.137456
0.137407
0.137359
0.137311
0.137263
0.137216
0.13717
0.137124
0.137078
0.137033
0.136989
0.136945
0.136901
0.136858
0.136816
0.136774
0.136733
0.136692
0.136652
0.136612
0.136573
0.136534
0.136496
0.136458
0.136421
0.136385
0.136349
0.136313
0.136278
0.136244
0.136209
0.136176
0.136143
0.13611
0.136078
0.136047
0.136015
0.135985
0.135955
0.135925
0.135896
0.135867
0.135839
0.135811
0.135783
0.135756
0.13573
0.135704
0.135678
0.135653
0.135628
0.135604
0.13558
0.135556
0.135533
0.135511
0.135489
0.135468
0.135447
0.135427
0.135409
0.135391
0.135374
0.135359
0.135347
0.135336
0.135329
0.135326
0.135327
0.135335
0.135351
0.135377
0.135414
0.135468
0.13554
0.139972
0.139914
0.139857
0.139799
0.139742
0.139683
0.139625
0.139567
0.139508
0.13945
0.139391
0.139332
0.139274
0.139215
0.139156
0.139097
0.139038
0.13898
0.138921
0.138862
0.138804
0.138746
0.138687
0.138629
0.138572
0.138514
0.138457
0.138399
0.138343
0.138286
0.13823
0.138174
0.138118
0.138063
0.138008
0.137953
0.137899
0.137845
0.137792
0.137739
0.137686
0.137634
0.137582
0.137531
0.13748
0.13743
0.13738
0.137331
0.137282
0.137234
0.137186
0.137139
0.137092
0.137046
0.137
0.136955
0.13691
0.136866
0.136822
0.136779
0.136737
0.136695
0.136653
0.136612
0.136572
0.136532
0.136492
0.136454
0.136415
0.136377
0.13634
0.136303
0.136267
0.136231
0.136196
0.136161
0.136127
0.136094
0.13606
0.136028
0.135995
0.135964
0.135932
0.135902
0.135871
0.135841
0.135812
0.135783
0.135755
0.135727
0.135699
0.135672
0.135645
0.135619
0.135593
0.135568
0.135543
0.135519
0.135495
0.135472
0.135449
0.135427
0.135405
0.135384
0.135364
0.135345
0.135326
0.13531
0.135295
0.135281
0.135271
0.135264
0.13526
0.135262
0.13527
0.135286
0.135313
0.135351
0.135406
0.13548
0.139971
0.139914
0.139856
0.139798
0.13974
0.139682
0.139623
0.139564
0.139505
0.139446
0.139387
0.139328
0.139269
0.139209
0.13915
0.139091
0.139031
0.138972
0.138913
0.138854
0.138795
0.138736
0.138677
0.138618
0.13856
0.138502
0.138444
0.138386
0.138328
0.138271
0.138214
0.138158
0.138101
0.138045
0.13799
0.137934
0.137879
0.137825
0.137771
0.137717
0.137663
0.137611
0.137558
0.137506
0.137455
0.137404
0.137353
0.137303
0.137253
0.137204
0.137156
0.137108
0.13706
0.137013
0.136966
0.13692
0.136875
0.13683
0.136786
0.136742
0.136698
0.136656
0.136613
0.136572
0.136531
0.13649
0.13645
0.13641
0.136371
0.136333
0.136295
0.136257
0.13622
0.136184
0.136148
0.136112
0.136078
0.136043
0.136009
0.135976
0.135943
0.135911
0.135879
0.135847
0.135816
0.135786
0.135756
0.135727
0.135698
0.135669
0.135641
0.135613
0.135586
0.135559
0.135533
0.135507
0.135482
0.135457
0.135433
0.135409
0.135385
0.135363
0.135341
0.135319
0.135299
0.135279
0.135261
0.135244
0.135228
0.135215
0.135204
0.135197
0.135194
0.135196
0.135204
0.135221
0.135247
0.135287
0.135343
0.135418
0.139971
0.139913
0.139855
0.139797
0.139739
0.13968
0.139621
0.139562
0.139502
0.139443
0.139383
0.139324
0.139264
0.139204
0.139144
0.139084
0.139025
0.138965
0.138905
0.138845
0.138786
0.138726
0.138667
0.138607
0.138548
0.13849
0.138431
0.138372
0.138314
0.138256
0.138199
0.138141
0.138084
0.138027
0.137971
0.137915
0.137859
0.137804
0.137749
0.137695
0.13764
0.137587
0.137534
0.137481
0.137429
0.137377
0.137325
0.137274
0.137224
0.137174
0.137125
0.137076
0.137028
0.13698
0.136932
0.136886
0.136839
0.136794
0.136748
0.136704
0.13666
0.136616
0.136573
0.136531
0.136489
0.136447
0.136406
0.136366
0.136326
0.136287
0.136248
0.13621
0.136172
0.136135
0.136099
0.136063
0.136027
0.135992
0.135957
0.135923
0.13589
0.135857
0.135824
0.135792
0.135761
0.13573
0.135699
0.135669
0.135639
0.13561
0.135581
0.135553
0.135525
0.135498
0.135471
0.135445
0.135419
0.135394
0.135369
0.135345
0.135321
0.135298
0.135275
0.135253
0.135233
0.135213
0.135194
0.135176
0.135161
0.135147
0.135136
0.135129
0.135126
0.135128
0.135136
0.135153
0.135181
0.135222
0.135279
0.135356
0.139971
0.139913
0.139855
0.139796
0.139737
0.139678
0.139619
0.139559
0.139499
0.139439
0.139379
0.139319
0.139259
0.139199
0.139138
0.139078
0.139018
0.138957
0.138897
0.138837
0.138776
0.138716
0.138656
0.138596
0.138537
0.138477
0.138418
0.138359
0.1383
0.138241
0.138183
0.138125
0.138067
0.138009
0.137952
0.137895
0.137839
0.137783
0.137727
0.137672
0.137617
0.137563
0.137509
0.137455
0.137402
0.137349
0.137297
0.137246
0.137194
0.137144
0.137093
0.137044
0.136995
0.136946
0.136898
0.13685
0.136803
0.136757
0.136711
0.136665
0.13662
0.136576
0.136532
0.136489
0.136446
0.136404
0.136362
0.136321
0.136281
0.136241
0.136201
0.136162
0.136124
0.136086
0.136049
0.136012
0.135976
0.13594
0.135905
0.13587
0.135836
0.135802
0.135769
0.135736
0.135704
0.135672
0.135641
0.13561
0.13558
0.13555
0.135521
0.135492
0.135464
0.135436
0.135409
0.135382
0.135356
0.13533
0.135304
0.135279
0.135255
0.135232
0.135209
0.135187
0.135165
0.135145
0.135126
0.135108
0.135092
0.135078
0.135067
0.13506
0.135057
0.135059
0.135068
0.135085
0.135114
0.135155
0.135214
0.135293
0.139971
0.139913
0.139854
0.139795
0.139736
0.139676
0.139616
0.139556
0.139496
0.139436
0.139375
0.139315
0.139254
0.139193
0.139132
0.139072
0.139011
0.13895
0.138889
0.138828
0.138767
0.138706
0.138646
0.138585
0.138525
0.138465
0.138405
0.138345
0.138285
0.138226
0.138167
0.138108
0.13805
0.137991
0.137933
0.137876
0.137819
0.137762
0.137705
0.137649
0.137594
0.137538
0.137484
0.137429
0.137375
0.137322
0.137269
0.137216
0.137164
0.137113
0.137062
0.137011
0.136961
0.136912
0.136863
0.136814
0.136767
0.136719
0.136672
0.136626
0.13658
0.136535
0.136491
0.136447
0.136403
0.13636
0.136318
0.136276
0.136234
0.136194
0.136153
0.136114
0.136075
0.136036
0.135998
0.13596
0.135923
0.135887
0.135851
0.135816
0.135781
0.135746
0.135712
0.135679
0.135646
0.135614
0.135582
0.135551
0.13552
0.135489
0.13546
0.13543
0.135401
0.135373
0.135345
0.135318
0.135291
0.135264
0.135238
0.135213
0.135188
0.135164
0.135141
0.135118
0.135097
0.135076
0.135057
0.135039
0.135022
0.135009
0.134997
0.13499
0.134987
0.134989
0.134998
0.135016
0.135045
0.135088
0.135148
0.135229
0.139971
0.139912
0.139853
0.139794
0.139734
0.139674
0.139614
0.139554
0.139493
0.139432
0.139371
0.13931
0.139249
0.139188
0.139127
0.139065
0.139004
0.138942
0.138881
0.138819
0.138758
0.138696
0.138635
0.138574
0.138513
0.138452
0.138392
0.138331
0.138271
0.138211
0.138151
0.138091
0.138032
0.137973
0.137914
0.137856
0.137798
0.13774
0.137683
0.137626
0.13757
0.137514
0.137458
0.137403
0.137348
0.137294
0.13724
0.137187
0.137134
0.137082
0.13703
0.136978
0.136927
0.136877
0.136827
0.136778
0.136729
0.136681
0.136634
0.136587
0.13654
0.136494
0.136449
0.136404
0.136359
0.136316
0.136272
0.13623
0.136188
0.136146
0.136105
0.136064
0.136025
0.135985
0.135946
0.135908
0.13587
0.135833
0.135796
0.13576
0.135725
0.13569
0.135655
0.135621
0.135588
0.135555
0.135522
0.13549
0.135459
0.135428
0.135397
0.135367
0.135338
0.135309
0.13528
0.135252
0.135225
0.135198
0.135172
0.135146
0.135121
0.135096
0.135072
0.135049
0.135027
0.135006
0.134986
0.134968
0.134952
0.134938
0.134926
0.134919
0.134915
0.134918
0.134927
0.134946
0.134976
0.13502
0.135081
0.135164
0.139971
0.139912
0.139852
0.139793
0.139733
0.139672
0.139612
0.139551
0.13949
0.139429
0.139368
0.139306
0.139244
0.139183
0.139121
0.139059
0.138997
0.138935
0.138873
0.13881
0.138748
0.138687
0.138625
0.138563
0.138501
0.13844
0.138378
0.138317
0.138256
0.138195
0.138135
0.138074
0.138014
0.137955
0.137895
0.137836
0.137777
0.137719
0.137661
0.137603
0.137546
0.137489
0.137432
0.137376
0.137321
0.137266
0.137211
0.137157
0.137103
0.13705
0.136997
0.136945
0.136893
0.136842
0.136792
0.136741
0.136692
0.136643
0.136594
0.136546
0.136499
0.136452
0.136406
0.13636
0.136315
0.13627
0.136226
0.136183
0.13614
0.136098
0.136056
0.136015
0.135974
0.135934
0.135894
0.135855
0.135817
0.135779
0.135741
0.135704
0.135668
0.135632
0.135597
0.135562
0.135528
0.135494
0.135461
0.135429
0.135396
0.135365
0.135334
0.135303
0.135273
0.135244
0.135215
0.135186
0.135158
0.135131
0.135104
0.135078
0.135052
0.135027
0.135003
0.134979
0.134957
0.134935
0.134915
0.134897
0.13488
0.134866
0.134854
0.134846
0.134843
0.134846
0.134856
0.134875
0.134905
0.13495
0.135013
0.135098
0.139971
0.139911
0.139852
0.139791
0.139731
0.139671
0.13961
0.139548
0.139487
0.139425
0.139364
0.139302
0.139239
0.139177
0.139115
0.139052
0.13899
0.138927
0.138864
0.138802
0.138739
0.138676
0.138614
0.138552
0.138489
0.138427
0.138365
0.138303
0.138241
0.13818
0.138118
0.138057
0.137997
0.137936
0.137876
0.137816
0.137756
0.137697
0.137638
0.13758
0.137522
0.137464
0.137407
0.13735
0.137293
0.137237
0.137182
0.137127
0.137072
0.137018
0.136964
0.136911
0.136859
0.136807
0.136755
0.136704
0.136654
0.136604
0.136555
0.136506
0.136458
0.13641
0.136363
0.136316
0.13627
0.136225
0.13618
0.136136
0.136092
0.136049
0.136006
0.135964
0.135922
0.135882
0.135841
0.135801
0.135762
0.135723
0.135685
0.135648
0.135611
0.135574
0.135538
0.135503
0.135468
0.135433
0.1354
0.135366
0.135334
0.135301
0.13527
0.135238
0.135208
0.135178
0.135148
0.135119
0.13509
0.135062
0.135035
0.135008
0.134982
0.134957
0.134932
0.134908
0.134885
0.134863
0.134843
0.134824
0.134807
0.134793
0.134781
0.134773
0.13477
0.134773
0.134783
0.134803
0.134834
0.13488
0.134944
0.135031
0.13997
0.139911
0.139851
0.13979
0.13973
0.139669
0.139607
0.139546
0.139484
0.139422
0.13936
0.139297
0.139234
0.139172
0.139109
0.139046
0.138983
0.138919
0.138856
0.138793
0.13873
0.138666
0.138603
0.13854
0.138477
0.138414
0.138351
0.138289
0.138226
0.138164
0.138102
0.13804
0.137979
0.137917
0.137856
0.137796
0.137735
0.137675
0.137615
0.137556
0.137497
0.137439
0.13738
0.137323
0.137265
0.137209
0.137152
0.137096
0.137041
0.136986
0.136931
0.136877
0.136824
0.136771
0.136719
0.136667
0.136615
0.136565
0.136514
0.136465
0.136416
0.136367
0.136319
0.136272
0.136225
0.136178
0.136133
0.136088
0.136043
0.135999
0.135956
0.135913
0.13587
0.135829
0.135787
0.135747
0.135707
0.135667
0.135628
0.13559
0.135552
0.135515
0.135478
0.135442
0.135407
0.135372
0.135337
0.135303
0.13527
0.135237
0.135204
0.135173
0.135141
0.135111
0.13508
0.135051
0.135022
0.134993
0.134965
0.134938
0.134911
0.134886
0.13486
0.134836
0.134813
0.134791
0.13477
0.134751
0.134734
0.134719
0.134707
0.134699
0.134696
0.134699
0.13471
0.13473
0.134762
0.134809
0.134875
0.134964
0.13997
0.13991
0.13985
0.139789
0.139728
0.139667
0.139605
0.139543
0.139481
0.139418
0.139356
0.139293
0.13923
0.139166
0.139103
0.139039
0.138976
0.138912
0.138848
0.138784
0.13872
0.138656
0.138593
0.138529
0.138465
0.138401
0.138338
0.138275
0.138211
0.138148
0.138086
0.138023
0.137961
0.137899
0.137837
0.137775
0.137714
0.137653
0.137593
0.137532
0.137473
0.137413
0.137354
0.137296
0.137237
0.13718
0.137122
0.137066
0.137009
0.136953
0.136898
0.136843
0.136789
0.136735
0.136682
0.136629
0.136577
0.136525
0.136474