/*--------------------------------*- C++ -*----------------------------------*\
  =========                 |
  \\      /  F ield         | OpenFOAM: The Open Source CFD Toolbox
   \\    /   O peration     | Website:  https://openfoam.org
    \\  /    A nd           | Version:  8
     \\/     M anipulation  |
\*---------------------------------------------------------------------------*/
FoamFile
{
    version     2.0;
    format      ascii;
    class       volScalarField;
    location    "3.9";
    object      p;
}
// * * * * * * * * * * * * * * * * * * * * * * * * * * * * * * * * * * * * * //

dimensions      [0 2 -2 0 0 0 0];

internalField   nonuniform List<scalar> 
262620
(
-1.34866
-1.34887
-1.34953
-1.35053
-1.35184
-1.35345
-1.35535
-1.35751
-1.35993
-1.36258
-1.36544
-1.36851
-1.37177
-1.3752
-1.37879
-1.38253
-1.3864
-1.39039
-1.3945
-1.39871
-1.403
-1.40738
-1.41183
-1.41634
-1.4209
-1.42551
-1.43016
-1.43484
-1.43954
-1.44427
-1.449
-1.45374
-1.45848
-1.46322
-1.46795
-1.47267
-1.47737
-1.48205
-1.4867
-1.49133
-1.49593
-1.5005
-1.50503
-1.50953
-1.51399
-1.5184
-1.52277
-1.5271
-1.53138
-1.53561
-1.5398
-1.54393
-1.54802
-1.55205
-1.55604
-1.55997
-1.56384
-1.56767
-1.57144
-1.57515
-1.57882
-1.58243
-1.58598
-1.58949
-1.59294
-1.59633
-1.59967
-1.60296
-1.6062
-1.60939
-1.61252
-1.6156
-1.61864
-1.62162
-1.62455
-1.62743
-1.63026
-1.63305
-1.63578
-1.63847
-1.64112
-1.64371
-1.64627
-1.64877
-1.65124
-1.65366
-1.65603
-1.65837
-1.66066
-1.66291
-1.66513
-1.6673
-1.66943
-1.67153
-1.67359
-1.67561
-1.67759
-1.67954
-1.68145
-1.68333
-1.68517
-1.68699
-1.68876
-1.69051
-1.69223
-1.69391
-1.69556
-1.69718
-1.69878
-1.70034
-1.70188
-1.70339
-1.70487
-1.70633
-1.70776
-1.70916
-1.71054
-1.71189
-1.71322
-1.71453
-1.34853
-1.34874
-1.3494
-1.35039
-1.3517
-1.35331
-1.35521
-1.35737
-1.35979
-1.36244
-1.3653
-1.36837
-1.37163
-1.37506
-1.37865
-1.38239
-1.38626
-1.39025
-1.39436
-1.39857
-1.40287
-1.40725
-1.4117
-1.41621
-1.42077
-1.42538
-1.43003
-1.43471
-1.43942
-1.44414
-1.44888
-1.45362
-1.45836
-1.4631
-1.46784
-1.47256
-1.47726
-1.48194
-1.4866
-1.49123
-1.49584
-1.50041
-1.50494
-1.50944
-1.5139
-1.51832
-1.52269
-1.52702
-1.5313
-1.53554
-1.53973
-1.54387
-1.54795
-1.55199
-1.55598
-1.55991
-1.56379
-1.56762
-1.57139
-1.57511
-1.57878
-1.58239
-1.58595
-1.58945
-1.59291
-1.59631
-1.59965
-1.60294
-1.60618
-1.60937
-1.61251
-1.61559
-1.61863
-1.62161
-1.62455
-1.62743
-1.63027
-1.63305
-1.63579
-1.63849
-1.64113
-1.64373
-1.64629
-1.6488
-1.65126
-1.65368
-1.65606
-1.6584
-1.6607
-1.66295
-1.66517
-1.66734
-1.66948
-1.67158
-1.67364
-1.67566
-1.67764
-1.67959
-1.68151
-1.68339
-1.68524
-1.68705
-1.68883
-1.69058
-1.6923
-1.69398
-1.69564
-1.69726
-1.69886
-1.70042
-1.70196
-1.70347
-1.70496
-1.70641
-1.70785
-1.70925
-1.71063
-1.71199
-1.71332
-1.71462
-1.3483
-1.34851
-1.34916
-1.35016
-1.35146
-1.35307
-1.35496
-1.35713
-1.35954
-1.36219
-1.36505
-1.36812
-1.37138
-1.37481
-1.3784
-1.38214
-1.38601
-1.39001
-1.39412
-1.39833
-1.40263
-1.40701
-1.41146
-1.41597
-1.42054
-1.42516
-1.42981
-1.43449
-1.4392
-1.44393
-1.44867
-1.45341
-1.45816
-1.46291
-1.46764
-1.47237
-1.47707
-1.48176
-1.48642
-1.49106
-1.49567
-1.50024
-1.50478
-1.50929
-1.51375
-1.51817
-1.52255
-1.52689
-1.53118
-1.53542
-1.53961
-1.54375
-1.54785
-1.55189
-1.55588
-1.55982
-1.5637
-1.56753
-1.57131
-1.57504
-1.57871
-1.58233
-1.58589
-1.5894
-1.59286
-1.59626
-1.59961
-1.60291
-1.60615
-1.60935
-1.61249
-1.61558
-1.61862
-1.6216
-1.62454
-1.62743
-1.63027
-1.63306
-1.63581
-1.6385
-1.64115
-1.64376
-1.64631
-1.64883
-1.6513
-1.65372
-1.65611
-1.65845
-1.66075
-1.66301
-1.66522
-1.6674
-1.66954
-1.67164
-1.67371
-1.67573
-1.67772
-1.67967
-1.68159
-1.68348
-1.68533
-1.68714
-1.68893
-1.69068
-1.6924
-1.69408
-1.69574
-1.69737
-1.69897
-1.70054
-1.70208
-1.70359
-1.70508
-1.70654
-1.70797
-1.70938
-1.71076
-1.71212
-1.71345
-1.71476
-1.34796
-1.34816
-1.34881
-1.3498
-1.3511
-1.35271
-1.3546
-1.35676
-1.35917
-1.36182
-1.36468
-1.36775
-1.371
-1.37444
-1.37803
-1.38177
-1.38564
-1.38964
-1.39375
-1.39796
-1.40227
-1.40665
-1.41111
-1.41562
-1.4202
-1.42481
-1.42947
-1.43416
-1.43887
-1.44361
-1.44835
-1.4531
-1.45786
-1.46261
-1.46735
-1.47208
-1.47679
-1.48149
-1.48616
-1.4908
-1.49542
-1.5
-1.50455
-1.50906
-1.51353
-1.51796
-1.52234
-1.52668
-1.53098
-1.53523
-1.53943
-1.54358
-1.54768
-1.55173
-1.55573
-1.55967
-1.56357
-1.56741
-1.57119
-1.57492
-1.5786
-1.58223
-1.5858
-1.58932
-1.59278
-1.59619
-1.59955
-1.60285
-1.60611
-1.60931
-1.61245
-1.61555
-1.6186
-1.62159
-1.62454
-1.62743
-1.63028
-1.63308
-1.63583
-1.63853
-1.64119
-1.6438
-1.64636
-1.64888
-1.65136
-1.65379
-1.65618
-1.65853
-1.66083
-1.66309
-1.66532
-1.6675
-1.66965
-1.67175
-1.67382
-1.67585
-1.67785
-1.67981
-1.68173
-1.68362
-1.68547
-1.6873
-1.68908
-1.69084
-1.69256
-1.69426
-1.69592
-1.69755
-1.69916
-1.70073
-1.70227
-1.70379
-1.70528
-1.70675
-1.70818
-1.7096
-1.71098
-1.71234
-1.71368
-1.71499
-1.34751
-1.3477
-1.34834
-1.34933
-1.35063
-1.35223
-1.35412
-1.35627
-1.35868
-1.36133
-1.36419
-1.36726
-1.37051
-1.37394
-1.37754
-1.38128
-1.38515
-1.38916
-1.39327
-1.39748
-1.40179
-1.40618
-1.41064
-1.41516
-1.41974
-1.42436
-1.42903
-1.43372
-1.43844
-1.44318
-1.44793
-1.45269
-1.45745
-1.46221
-1.46696
-1.4717
-1.47642
-1.48113
-1.48581
-1.49046
-1.49508
-1.49967
-1.50423
-1.50875
-1.51323
-1.51767
-1.52207
-1.52642
-1.53072
-1.53498
-1.53919
-1.54335
-1.54746
-1.55152
-1.55553
-1.55949
-1.56339
-1.56724
-1.57103
-1.57478
-1.57847
-1.5821
-1.58568
-1.58921
-1.59268
-1.5961
-1.59947
-1.60278
-1.60604
-1.60925
-1.61241
-1.61552
-1.61857
-1.62157
-1.62453
-1.62743
-1.63029
-1.63309
-1.63585
-1.63856
-1.64123
-1.64385
-1.64642
-1.64895
-1.65143
-1.65387
-1.65627
-1.65862
-1.66094
-1.66321
-1.66544
-1.66763
-1.66978
-1.6719
-1.67397
-1.67601
-1.67801
-1.67998
-1.68191
-1.6838
-1.68566
-1.68749
-1.68928
-1.69105
-1.69278
-1.69447
-1.69614
-1.69778
-1.69939
-1.70097
-1.70252
-1.70404
-1.70554
-1.70701
-1.70845
-1.70987
-1.71126
-1.71263
-1.71397
-1.71528
-1.34695
-1.34714
-1.34777
-1.34875
-1.35004
-1.35164
-1.35352
-1.35567
-1.35808
-1.36072
-1.36358
-1.36665
-1.3699
-1.37333
-1.37693
-1.38067
-1.38455
-1.38855
-1.39267
-1.39689
-1.4012
-1.4056
-1.41006
-1.41459
-1.41917
-1.42381
-1.42848
-1.43318
-1.43791
-1.44265
-1.44742
-1.45218
-1.45695
-1.46172
-1.46648
-1.47123
-1.47597
-1.48068
-1.48537
-1.49003
-1.49467
-1.49927
-1.50384
-1.50837
-1.51286
-1.51731
-1.52172
-1.52609
-1.53041
-1.53468
-1.5389
-1.54307
-1.54719
-1.55127
-1.55529
-1.55925
-1.56317
-1.56703
-1.57084
-1.57459
-1.57829
-1.58194
-1.58553
-1.58907
-1.59256
-1.59599
-1.59937
-1.60269
-1.60597
-1.60919
-1.61236
-1.61547
-1.61854
-1.62155
-1.62452
-1.62743
-1.6303
-1.63312
-1.63589
-1.63861
-1.64128
-1.64391
-1.64649
-1.64903
-1.65153
-1.65398
-1.65638
-1.65875
-1.66107
-1.66335
-1.66559
-1.66779
-1.66995
-1.67207
-1.67416
-1.6762
-1.67821
-1.68019
-1.68213
-1.68403
-1.6859
-1.68773
-1.68954
-1.69131
-1.69304
-1.69475
-1.69643
-1.69807
-1.69969
-1.70127
-1.70283
-1.70436
-1.70586
-1.70734
-1.70879
-1.71021
-1.71161
-1.71298
-1.71433
-1.71565
-1.34629
-1.34646
-1.34709
-1.34806
-1.34934
-1.35093
-1.35281
-1.35496
-1.35736
-1.36
-1.36286
-1.36592
-1.36918
-1.37261
-1.37621
-1.37995
-1.38383
-1.38784
-1.39196
-1.39619
-1.4005
-1.4049
-1.40937
-1.41391
-1.4185
-1.42314
-1.42782
-1.43253
-1.43727
-1.44203
-1.4468
-1.45158
-1.45636
-1.46114
-1.46591
-1.47068
-1.47542
-1.48015
-1.48485
-1.48953
-1.49418
-1.49879
-1.50338
-1.50792
-1.51243
-1.51689
-1.52132
-1.52569
-1.53003
-1.53431
-1.53855
-1.54274
-1.54687
-1.55096
-1.555
-1.55898
-1.56291
-1.56678
-1.57061
-1.57437
-1.57809
-1.58175
-1.58536
-1.58891
-1.59241
-1.59586
-1.59925
-1.60259
-1.60588
-1.60911
-1.61229
-1.61542
-1.6185
-1.62153
-1.62451
-1.62744
-1.63031
-1.63314
-1.63593
-1.63866
-1.64135
-1.64399
-1.64658
-1.64913
-1.65164
-1.6541
-1.65652
-1.65889
-1.66123
-1.66352
-1.66577
-1.66798
-1.67015
-1.67228
-1.67438
-1.67643
-1.67845
-1.68044
-1.68239
-1.6843
-1.68618
-1.68802
-1.68983
-1.69161
-1.69336
-1.69507
-1.69676
-1.69841
-1.70004
-1.70163
-1.7032
-1.70474
-1.70625
-1.70773
-1.70919
-1.71062
-1.71202
-1.7134
-1.71476
-1.71608
-1.34552
-1.34568
-1.3463
-1.34726
-1.34854
-1.35012
-1.35199
-1.35413
-1.35653
-1.35916
-1.36202
-1.36509
-1.36834
-1.37177
-1.37537
-1.37912
-1.383
-1.38701
-1.39114
-1.39537
-1.39969
-1.4041
-1.40858
-1.41312
-1.41772
-1.42237
-1.42706
-1.43179
-1.43654
-1.44131
-1.44609
-1.45088
-1.45568
-1.46047
-1.46526
-1.47003
-1.47479
-1.47953
-1.48425
-1.48894
-1.49361
-1.49824
-1.50284
-1.5074
-1.51192
-1.5164
-1.52084
-1.52524
-1.52959
-1.53389
-1.53814
-1.54235
-1.5465
-1.55061
-1.55466
-1.55866
-1.5626
-1.5665
-1.57034
-1.57412
-1.57785
-1.58153
-1.58516
-1.58873
-1.59224
-1.5957
-1.59911
-1.60247
-1.60577
-1.60902
-1.61222
-1.61536
-1.61846
-1.6215
-1.62449
-1.62744
-1.63033
-1.63318
-1.63597
-1.63872
-1.64142
-1.64408
-1.64668
-1.64925
-1.65177
-1.65424
-1.65667
-1.65906
-1.66141
-1.66371
-1.66598
-1.6682
-1.67038
-1.67253
-1.67463
-1.6767
-1.67873
-1.68073
-1.68269
-1.68461
-1.6865
-1.68836
-1.69018
-1.69197
-1.69373
-1.69545
-1.69715
-1.69881
-1.70044
-1.70205
-1.70362
-1.70517
-1.70669
-1.70818
-1.70965
-1.71109
-1.7125
-1.71389
-1.71526
-1.71659
-1.34465
-1.3448
-1.34541
-1.34636
-1.34762
-1.3492
-1.35106
-1.3532
-1.35559
-1.35822
-1.36108
-1.36414
-1.36739
-1.37083
-1.37442
-1.37817
-1.38206
-1.38608
-1.39021
-1.39445
-1.39878
-1.40319
-1.40768
-1.41223
-1.41684
-1.4215
-1.42621
-1.43094
-1.4357
-1.44049
-1.44528
-1.45009
-1.4549
-1.45971
-1.46451
-1.4693
-1.47408
-1.47884
-1.48357
-1.48828
-1.49296
-1.49761
-1.50223
-1.50681
-1.51135
-1.51585
-1.52031
-1.52472
-1.52909
-1.53341
-1.53769
-1.54191
-1.54608
-1.55021
-1.55428
-1.5583
-1.56226
-1.56617
-1.57003
-1.57384
-1.57759
-1.58128
-1.58493
-1.58851
-1.59205
-1.59553
-1.59896
-1.60233
-1.60565
-1.60892
-1.61213
-1.6153
-1.61841
-1.62147
-1.62448
-1.62744
-1.63035
-1.63321
-1.63602
-1.63879
-1.6415
-1.64418
-1.6468
-1.64938
-1.65191
-1.6544
-1.65685
-1.65925
-1.66161
-1.66393
-1.66621
-1.66845
-1.67064
-1.6728
-1.67492
-1.677
-1.67905
-1.68106
-1.68303
-1.68497
-1.68687
-1.68874
-1.69057
-1.69237
-1.69414
-1.69588
-1.69758
-1.69926
-1.7009
-1.70252
-1.7041
-1.70566
-1.70719
-1.7087
-1.71017
-1.71162
-1.71305
-1.71444
-1.71582
-1.71716
-1.34369
-1.34382
-1.34441
-1.34535
-1.34661
-1.34817
-1.35003
-1.35216
-1.35454
-1.35717
-1.36002
-1.36308
-1.36634
-1.36977
-1.37337
-1.37712
-1.38102
-1.38504
-1.38917
-1.39342
-1.39775
-1.40218
-1.40668
-1.41124
-1.41586
-1.42053
-1.42525
-1.43
-1.43477
-1.43957
-1.44438
-1.44921
-1.45403
-1.45886
-1.46368
-1.46849
-1.47328
-1.47806
-1.48281
-1.48754
-1.49225
-1.49692
-1.50155
-1.50615
-1.51071
-1.51524
-1.51971
-1.52415
-1.52854
-1.53288
-1.53718
-1.54142
-1.54562
-1.54976
-1.55385
-1.55789
-1.56188
-1.56581
-1.56969
-1.57352
-1.57729
-1.58101
-1.58467
-1.58828
-1.59183
-1.59533
-1.59878
-1.60218
-1.60552
-1.6088
-1.61204
-1.61522
-1.61835
-1.62143
-1.62446
-1.62744
-1.63037
-1.63325
-1.63608
-1.63886
-1.6416
-1.64429
-1.64693
-1.64952
-1.65208
-1.65458
-1.65705
-1.65947
-1.66184
-1.66418
-1.66647
-1.66872
-1.67094
-1.67311
-1.67525
-1.67734
-1.6794
-1.68142
-1.68341
-1.68536
-1.68728
-1.68916
-1.69101
-1.69282
-1.6946
-1.69635
-1.69807
-1.69976
-1.70142
-1.70304
-1.70464
-1.70621
-1.70775
-1.70927
-1.71076
-1.71222
-1.71365
-1.71506
-1.71645
-1.71779
-1.34262
-1.34274
-1.34332
-1.34424
-1.34548
-1.34704
-1.34889
-1.35101
-1.35339
-1.35601
-1.35886
-1.36192
-1.36517
-1.36861
-1.37221
-1.37596
-1.37986
-1.38389
-1.38803
-1.39228
-1.39663
-1.40106
-1.40557
-1.41015
-1.41478
-1.41947
-1.42419
-1.42896
-1.43375
-1.43856
-1.44339
-1.44823
-1.45308
-1.45792
-1.46276
-1.46759
-1.47241
-1.4772
-1.48198
-1.48673
-1.49145
-1.49615
-1.5008
-1.50543
-1.51001
-1.51456
-1.51906
-1.52352
-1.52793
-1.53229
-1.53661
-1.54088
-1.5451
-1.54927
-1.55338
-1.55744
-1.56146
-1.56541
-1.56932
-1.57316
-1.57696
-1.5807
-1.58439
-1.58802
-1.5916
-1.59512
-1.59859
-1.60201
-1.60537
-1.60868
-1.61194
-1.61514
-1.61829
-1.62139
-1.62444
-1.62744
-1.63039
-1.63329
-1.63614
-1.63895
-1.6417
-1.64441
-1.64707
-1.64969
-1.65226
-1.65478
-1.65726
-1.6597
-1.6621
-1.66445
-1.66676
-1.66903
-1.67126
-1.67345
-1.6756
-1.67772
-1.67979
-1.68183
-1.68383
-1.6858
-1.68773
-1.68963
-1.69149
-1.69332
-1.69511
-1.69688
-1.69861
-1.70031
-1.70198
-1.70362
-1.70524
-1.70682
-1.70837
-1.7099
-1.7114
-1.71287
-1.71432
-1.71574
-1.71714
-1.7185
-1.34146
-1.34156
-1.34212
-1.34304
-1.34426
-1.34581
-1.34764
-1.34976
-1.35213
-1.35475
-1.35759
-1.36065
-1.3639
-1.36734
-1.37094
-1.3747
-1.3786
-1.38264
-1.38679
-1.39105
-1.3954
-1.39984
-1.40436
-1.40895
-1.4136
-1.4183
-1.42305
-1.42783
-1.43263
-1.43747
-1.44231
-1.44717
-1.45204
-1.4569
-1.46176
-1.46661
-1.47145
-1.47627
-1.48107
-1.48584
-1.49059
-1.49531
-1.49999
-1.50464
-1.50925
-1.51381
-1.51834
-1.52282
-1.52726
-1.53165
-1.536
-1.54029
-1.54454
-1.54873
-1.55287
-1.55696
-1.56099
-1.56498
-1.56891
-1.57278
-1.5766
-1.58037
-1.58408
-1.58773
-1.59134
-1.59489
-1.59838
-1.60182
-1.60521
-1.60854
-1.61182
-1.61505
-1.61823
-1.62135
-1.62442
-1.62745
-1.63042
-1.63334
-1.63621
-1.63904
-1.64181
-1.64454
-1.64723
-1.64986
-1.65245
-1.655
-1.6575
-1.65996
-1.66237
-1.66474
-1.66707
-1.66936
-1.67161
-1.67382
-1.67599
-1.67812
-1.68022
-1.68227
-1.68429
-1.68627
-1.68822
-1.69013
-1.69201
-1.69386
-1.69567
-1.69745
-1.6992
-1.70092
-1.7026
-1.70426
-1.70588
-1.70748
-1.70905
-1.71059
-1.7121
-1.71359
-1.71505
-1.71649
-1.71789
-1.71926
-1.34021
-1.34029
-1.34083
-1.34173
-1.34294
-1.34447
-1.3463
-1.34841
-1.35077
-1.35339
-1.35623
-1.35928
-1.36253
-1.36597
-1.36957
-1.37334
-1.37724
-1.38128
-1.38544
-1.38971
-1.39407
-1.39853
-1.40306
-1.40766
-1.41233
-1.41704
-1.4218
-1.4266
-1.43143
-1.43628
-1.44115
-1.44603
-1.45091
-1.4558
-1.46068
-1.46555
-1.47042
-1.47526
-1.48008
-1.48488
-1.48965
-1.4944
-1.49911
-1.50378
-1.50842
-1.51301
-1.51757
-1.52208
-1.52654
-1.53096
-1.53533
-1.53965
-1.54393
-1.54815
-1.55231
-1.55643
-1.5605
-1.56451
-1.56846
-1.57236
-1.57621
-1.58
-1.58374
-1.58743
-1.59106
-1.59463
-1.59815
-1.60162
-1.60503
-1.60839
-1.6117
-1.61495
-1.61815
-1.6213
-1.6244
-1.62745
-1.63044
-1.63339
-1.63629
-1.63914
-1.64194
-1.64469
-1.64739
-1.65005
-1.65266
-1.65523
-1.65776
-1.66023
-1.66267
-1.66506
-1.66741
-1.66972
-1.67199
-1.67422
-1.67641
-1.67856
-1.68067
-1.68275
-1.68479
-1.68679
-1.68875
-1.69069
-1.69258
-1.69444
-1.69627
-1.69807
-1.69984
-1.70157
-1.70327
-1.70494
-1.70658
-1.7082
-1.70978
-1.71134
-1.71287
-1.71437
-1.71584
-1.71729
-1.71871
-1.72009
-1.33887
-1.33892
-1.33945
-1.34033
-1.34153
-1.34304
-1.34486
-1.34696
-1.34931
-1.35192
-1.35476
-1.35781
-1.36106
-1.3645
-1.3681
-1.37187
-1.37578
-1.37983
-1.38399
-1.38827
-1.39265
-1.39711
-1.40166
-1.40628
-1.41096
-1.41569
-1.42047
-1.42528
-1.43013
-1.435
-1.43989
-1.44479
-1.4497
-1.45461
-1.45952
-1.46442
-1.4693
-1.47417
-1.47902
-1.48385
-1.48865
-1.49342
-1.49816
-1.50286
-1.50752
-1.51215
-1.51673
-1.52127
-1.52577
-1.53021
-1.53462
-1.53897
-1.54327
-1.54752
-1.55172
-1.55586
-1.55996
-1.564
-1.56798
-1.57192
-1.57579
-1.57962
-1.58338
-1.5871
-1.59076
-1.59436
-1.59791
-1.6014
-1.60484
-1.60823
-1.61157
-1.61485
-1.61808
-1.62125
-1.62438
-1.62745
-1.63047
-1.63344
-1.63637
-1.63924
-1.64207
-1.64484
-1.64757
-1.65026
-1.65289
-1.65548
-1.65803
-1.66053
-1.66299
-1.66541
-1.66778
-1.67011
-1.6724
-1.67465
-1.67686
-1.67904
-1.68117
-1.68326
-1.68532
-1.68734
-1.68933
-1.69128
-1.69319
-1.69508
-1.69692
-1.69874
-1.70052
-1.70227
-1.70399
-1.70568
-1.70734
-1.70897
-1.71057
-1.71214
-1.71369
-1.7152
-1.71669
-1.71816
-1.71959
-1.72099
-1.33743
-1.33747
-1.33797
-1.33883
-1.34001
-1.34152
-1.34332
-1.34541
-1.34776
-1.35036
-1.35319
-1.35624
-1.35949
-1.36292
-1.36653
-1.3703
-1.37422
-1.37827
-1.38245
-1.38674
-1.39113
-1.3956
-1.40017
-1.4048
-1.40949
-1.41424
-1.41904
-1.42388
-1.42874
-1.43364
-1.43855
-1.44348
-1.44841
-1.45334
-1.45828
-1.4632
-1.46812
-1.47301
-1.47789
-1.48275
-1.48758
-1.49237
-1.49714
-1.50187
-1.50657
-1.51123
-1.51584
-1.52041
-1.52494
-1.52942
-1.53385
-1.53823
-1.54257
-1.54685
-1.55108
-1.55526
-1.55938
-1.56346
-1.56747
-1.57144
-1.57535
-1.5792
-1.583
-1.58674
-1.59043
-1.59407
-1.59765
-1.60117
-1.60464
-1.60806
-1.61142
-1.61473
-1.61799
-1.6212
-1.62435
-1.62745
-1.6305
-1.6335
-1.63645
-1.63935
-1.64221
-1.64501
-1.64777
-1.65048
-1.65314
-1.65575
-1.65833
-1.66085
-1.66334
-1.66578
-1.66817
-1.67053
-1.67284
-1.67512
-1.67735
-1.67954
-1.6817
-1.68381
-1.68589
-1.68794
-1.68994
-1.69191
-1.69385
-1.69575
-1.69762
-1.69945
-1.70125
-1.70302
-1.70476
-1.70647
-1.70815
-1.70979
-1.71141
-1.713
-1.71456
-1.7161
-1.7176
-1.71908
-1.72054
-1.72194
-1.3359
-1.33592
-1.3364
-1.33724
-1.33841
-1.33989
-1.34169
-1.34376
-1.3461
-1.34869
-1.35152
-1.35457
-1.35782
-1.36125
-1.36487
-1.36864
-1.37256
-1.37662
-1.38081
-1.38511
-1.38951
-1.394
-1.39858
-1.40322
-1.40794
-1.41271
-1.41752
-1.42238
-1.42727
-1.43219
-1.43712
-1.44207
-1.44703
-1.452
-1.45696
-1.46191
-1.46685
-1.47178
-1.47669
-1.48157
-1.48643
-1.49126
-1.49606
-1.50083
-1.50556
-1.51024
-1.51489
-1.5195
-1.52406
-1.52857
-1.53304
-1.53745
-1.54182
-1.54614
-1.5504
-1.55461
-1.55877
-1.56288
-1.56693
-1.57093
-1.57487
-1.57876
-1.58259
-1.58637
-1.59009
-1.59376
-1.59737
-1.60093
-1.60443
-1.60788
-1.61127
-1.61462
-1.6179
-1.62114
-1.62432
-1.62746
-1.63054
-1.63357
-1.63654
-1.63947
-1.64236
-1.64519
-1.64797
-1.65071
-1.6534
-1.65604
-1.65864
-1.66119
-1.6637
-1.66617
-1.66859
-1.67097
-1.67331
-1.67561
-1.67786
-1.68008
-1.68226
-1.6844
-1.6865
-1.68857
-1.6906
-1.69259
-1.69455
-1.69647
-1.69836
-1.70021
-1.70203
-1.70382
-1.70558
-1.70731
-1.70901
-1.71067
-1.71231
-1.71392
-1.7155
-1.71705
-1.71857
-1.72007
-1.72154
-1.72296
-1.33429
-1.33428
-1.33474
-1.33556
-1.33671
-1.33818
-1.33996
-1.34202
-1.34435
-1.34694
-1.34976
-1.3528
-1.35605
-1.35949
-1.3631
-1.36688
-1.37081
-1.37488
-1.37907
-1.38338
-1.3878
-1.3923
-1.39689
-1.40156
-1.40629
-1.41108
-1.41592
-1.4208
-1.42571
-1.43065
-1.43561
-1.44059
-1.44558
-1.45057
-1.45556
-1.46054
-1.46551
-1.47047
-1.47541
-1.48033
-1.48522
-1.49009
-1.49492
-1.49972
-1.50448
-1.5092
-1.51389
-1.51853
-1.52312
-1.52767
-1.53217
-1.53663
-1.54103
-1.54538
-1.54968
-1.55393
-1.55813
-1.56227
-1.56635
-1.57039
-1.57437
-1.57829
-1.58216
-1.58597
-1.58972
-1.59343
-1.59707
-1.60067
-1.6042
-1.60769
-1.61111
-1.61449
-1.61781
-1.62108
-1.62429
-1.62746
-1.63057
-1.63363
-1.63664
-1.6396
-1.64251
-1.64537
-1.64819
-1.65095
-1.65367
-1.65635
-1.65897
-1.66155
-1.66409
-1.66658
-1.66903
-1.67144
-1.6738
-1.67613
-1.67841
-1.68065
-1.68286
-1.68502
-1.68715
-1.68924
-1.69129
-1.69331
-1.69529
-1.69723
-1.69914
-1.70102
-1.70286
-1.70467
-1.70645
-1.7082
-1.70992
-1.7116
-1.71326
-1.71489
-1.71649
-1.71806
-1.7196
-1.72112
-1.7226
-1.72404
-1.33259
-1.33255
-1.33299
-1.33379
-1.33492
-1.33637
-1.33814
-1.34019
-1.34251
-1.34509
-1.3479
-1.35094
-1.35419
-1.35762
-1.36124
-1.36503
-1.36896
-1.37304
-1.37724
-1.38156
-1.38599
-1.39051
-1.39512
-1.3998
-1.40456
-1.40936
-1.41422
-1.41913
-1.42407
-1.42903
-1.43402
-1.43903
-1.44404
-1.44906
-1.45408
-1.4591
-1.4641
-1.46909
-1.47407
-1.47902
-1.48395
-1.48885
-1.49371
-1.49855
-1.50335
-1.50811
-1.51283
-1.5175
-1.52214
-1.52672
-1.53126
-1.53575
-1.5402
-1.54459
-1.54892
-1.55321
-1.55744
-1.56162
-1.56575
-1.56982
-1.57383
-1.57779
-1.5817
-1.58555
-1.58934
-1.59308
-1.59676
-1.60039
-1.60396
-1.60748
-1.61094
-1.61435
-1.61771
-1.62101
-1.62426
-1.62746
-1.63061
-1.6337
-1.63674
-1.63974
-1.64268
-1.64557
-1.64842
-1.65122
-1.65396
-1.65667
-1.65932
-1.66193
-1.6645
-1.66702
-1.6695
-1.67194
-1.67433
-1.67668
-1.67899
-1.68126
-1.68349
-1.68568
-1.68783
-1.68994
-1.69202
-1.69406
-1.69607
-1.69804
-1.69997
-1.70187
-1.70374
-1.70557
-1.70737
-1.70914
-1.71088
-1.71259
-1.71426
-1.71591
-1.71753
-1.71912
-1.72068
-1.72222
-1.72373
-1.72518
-1.33081
-1.33074
-1.33116
-1.33193
-1.33304
-1.33448
-1.33622
-1.33826
-1.34057
-1.34314
-1.34595
-1.34899
-1.35223
-1.35567
-1.35929
-1.36308
-1.36702
-1.37111
-1.37532
-1.37965
-1.38409
-1.38863
-1.39326
-1.39796
-1.40273
-1.40756
-1.41245
-1.41737
-1.42234
-1.42733
-1.43235
-1.43738
-1.44243
-1.44748
-1.45253
-1.45758
-1.46262
-1.46764
-1.47265
-1.47764
-1.4826
-1.48754
-1.49245
-1.49732
-1.50215
-1.50695
-1.51171
-1.51643
-1.5211
-1.52573
-1.53031
-1.53484
-1.53932
-1.54375
-1.54813
-1.55245
-1.55672
-1.56094
-1.56511
-1.56922
-1.57327
-1.57727
-1.58122
-1.5851
-1.58894
-1.59271
-1.59643
-1.6001
-1.60371
-1.60727
-1.61077
-1.61421
-1.61761
-1.62095
-1.62423
-1.62746
-1.63064
-1.63377
-1.63685
-1.63988
-1.64285
-1.64578
-1.64866
-1.65149
-1.65427
-1.65701
-1.65969
-1.66234
-1.66493
-1.66748
-1.66999
-1.67246
-1.67488
-1.67726
-1.6796
-1.68189
-1.68415
-1.68637
-1.68855
-1.69069
-1.69279
-1.69486
-1.69689
-1.69888
-1.70084
-1.70277
-1.70466
-1.70651
-1.70834
-1.71013
-1.71189
-1.71362
-1.71532
-1.71699
-1.71863
-1.72024
-1.72183
-1.72338
-1.72491
-1.72638
-1.32895
-1.32885
-1.32923
-1.32999
-1.33107
-1.33249
-1.33422
-1.33625
-1.33855
-1.34111
-1.34391
-1.34694
-1.35018
-1.35362
-1.35724
-1.36104
-1.36499
-1.36908
-1.37331
-1.37765
-1.38211
-1.38666
-1.3913
-1.39603
-1.40082
-1.40567
-1.41058
-1.41553
-1.42053
-1.42555
-1.43059
-1.43566
-1.44074
-1.44582
-1.45091
-1.45599
-1.46106
-1.46612
-1.47117
-1.47619
-1.4812
-1.48617
-1.49112
-1.49603
-1.5009
-1.50574
-1.51054
-1.5153
-1.52001
-1.52468
-1.5293
-1.53387
-1.5384
-1.54287
-1.54729
-1.55166
-1.55597
-1.56023
-1.56444
-1.56859
-1.57268
-1.57672
-1.58071
-1.58464
-1.58851
-1.59233
-1.59609
-1.5998
-1.60345
-1.60704
-1.61058
-1.61407
-1.6175
-1.62087
-1.6242
-1.62747
-1.63068
-1.63385
-1.63696
-1.64003
-1.64304
-1.646
-1.64891
-1.65178
-1.65459
-1.65736
-1.66008
-1.66276
-1.66538
-1.66797
-1.67051
-1.673
-1.67546
-1.67787
-1.68023
-1.68256
-1.68485
-1.68709
-1.6893
-1.69147
-1.6936
-1.69569
-1.69775
-1.69977
-1.70176
-1.70371
-1.70562
-1.7075
-1.70935
-1.71117
-1.71296
-1.71471
-1.71643
-1.71812
-1.71979
-1.72142
-1.72303
-1.72461
-1.72615
-1.72764
-1.327
-1.32687
-1.32723
-1.32796
-1.32902
-1.33042
-1.33213
-1.33414
-1.33643
-1.33898
-1.34178
-1.3448
-1.34804
-1.35148
-1.35511
-1.35891
-1.36286
-1.36697
-1.3712
-1.37556
-1.38003
-1.3846
-1.38926
-1.39401
-1.39882
-1.4037
-1.40863
-1.41361
-1.41863
-1.42368
-1.42876
-1.43386
-1.43897
-1.44409
-1.44921
-1.45432
-1.45943
-1.46453
-1.46962
-1.47468
-1.47972
-1.48474
-1.48972
-1.49468
-1.4996
-1.50448
-1.50932
-1.51412
-1.51887
-1.52359
-1.52825
-1.53287
-1.53743
-1.54195
-1.54641
-1.55082
-1.55518
-1.55948
-1.56373
-1.56793
-1.57207
-1.57615
-1.58018
-1.58415
-1.58807
-1.59193
-1.59573
-1.59948
-1.60317
-1.6068
-1.61038
-1.61391
-1.61738
-1.6208
-1.62416
-1.62747
-1.63073
-1.63393
-1.63708
-1.64018
-1.64323
-1.64623
-1.64918
-1.65208
-1.65493
-1.65773
-1.66049
-1.6632
-1.66586
-1.66848
-1.67105
-1.67358
-1.67606
-1.6785
-1.6809
-1.68326
-1.68558
-1.68785
-1.69009
-1.69229
-1.69445
-1.69657
-1.69865
-1.7007
-1.70271
-1.70469
-1.70663
-1.70854
-1.71042
-1.71226
-1.71407
-1.71585
-1.71759
-1.71931
-1.721
-1.72265
-1.72428
-1.72588
-1.72745
-1.72896
-1.32497
-1.32481
-1.32514
-1.32584
-1.32688
-1.32826
-1.32995
-1.33195
-1.33422
-1.33677
-1.33955
-1.34258
-1.34581
-1.34925
-1.35288
-1.35669
-1.36065
-1.36476
-1.36901
-1.37338
-1.37787
-1.38246
-1.38714
-1.3919
-1.39674
-1.40164
-1.4066
-1.41161
-1.41666
-1.42174
-1.42685
-1.43198
-1.43712
-1.44228
-1.44743
-1.45259
-1.45774
-1.46288
-1.468
-1.4731
-1.47819
-1.48324
-1.48827
-1.49327
-1.49823
-1.50316
-1.50804
-1.51289
-1.51769
-1.52244
-1.52715
-1.53181
-1.53642
-1.54099
-1.5455
-1.54995
-1.55436
-1.55871
-1.563
-1.56724
-1.57142
-1.57555
-1.57963
-1.58364
-1.5876
-1.5915
-1.59535
-1.59914
-1.60288
-1.60656
-1.61018
-1.61375
-1.61726
-1.62072
-1.62412
-1.62747
-1.63077
-1.63401
-1.6372
-1.64034
-1.64343
-1.64647
-1.64945
-1.65239
-1.65528
-1.65812
-1.66091
-1.66366
-1.66635
-1.66901
-1.67161
-1.67417
-1.67669
-1.67917
-1.6816
-1.68399
-1.68634
-1.68865
-1.69091
-1.69314
-1.69533
-1.69748
-1.6996
-1.70167
-1.70371
-1.70572
-1.70769
-1.70963
-1.71153
-1.7134
-1.71523
-1.71704
-1.71881
-1.72055
-1.72226
-1.72394
-1.7256
-1.72722
-1.72881
-1.73034
-1.32286
-1.32267
-1.32297
-1.32364
-1.32466
-1.32601
-1.32769
-1.32967
-1.33193
-1.33446
-1.33725
-1.34026
-1.3435
-1.34694
-1.35057
-1.35438
-1.35835
-1.36247
-1.36673
-1.37112
-1.37562
-1.38023
-1.38493
-1.38971
-1.39457
-1.3995
-1.40449
-1.40952
-1.4146
-1.41972
-1.42486
-1.43002
-1.4352
-1.44039
-1.44559
-1.45078
-1.45597
-1.46115
-1.46631
-1.47146
-1.47659
-1.48169
-1.48676
-1.4918
-1.49681
-1.50178
-1.50671
-1.5116
-1.51645
-1.52125
-1.52601
-1.53072
-1.53538
-1.53998
-1.54454
-1.54905
-1.5535
-1.55789
-1.56224
-1.56652
-1.57075
-1.57493
-1.57905
-1.58311
-1.58712
-1.59107
-1.59496
-1.59879
-1.60257
-1.6063
-1.60997
-1.61358
-1.61713
-1.62064
-1.62408
-1.62747
-1.63081
-1.6341
-1.63733
-1.64051
-1.64364
-1.64672
-1.64974
-1.65272
-1.65565
-1.65852
-1.66135
-1.66413
-1.66687
-1.66956
-1.6722
-1.6748
-1.67735
-1.67986
-1.68233
-1.68475
-1.68713
-1.68947
-1.69177
-1.69403
-1.69625
-1.69844
-1.70058
-1.70269
-1.70476
-1.70679
-1.70879
-1.71076
-1.71269
-1.71458
-1.71644
-1.71828
-1.72007
-1.72184
-1.72358
-1.72529
-1.72696
-1.72861
-1.73023
-1.73177
-1.32068
-1.32045
-1.32072
-1.32136
-1.32235
-1.32369
-1.32535
-1.32731
-1.32956
-1.33208
-1.33485
-1.33786
-1.34109
-1.34453
-1.34817
-1.35198
-1.35596
-1.36009
-1.36436
-1.36876
-1.37328
-1.37791
-1.38263
-1.38744
-1.39233
-1.39728
-1.40229
-1.40736
-1.41247
-1.41762
-1.42279
-1.42799
-1.43321
-1.43844
-1.44367
-1.4489
-1.45413
-1.45936
-1.46456
-1.46975
-1.47492
-1.48007
-1.48519
-1.49028
-1.49533
-1.50035
-1.50533
-1.51027
-1.51516
-1.52001
-1.52482
-1.52958
-1.53428
-1.53894
-1.54355
-1.5481
-1.5526
-1.55705
-1.56144
-1.56578
-1.57006
-1.57428
-1.57845
-1.58256
-1.58661
-1.59061
-1.59455
-1.59843
-1.60226
-1.60603
-1.60974
-1.6134
-1.617
-1.62055
-1.62404
-1.62748
-1.63086
-1.63419
-1.63746
-1.64069
-1.64386
-1.64697
-1.65004
-1.65306
-1.65603
-1.65894
-1.66181
-1.66463
-1.6674
-1.67013
-1.67281
-1.67545
-1.67803
-1.68058
-1.68308
-1.68554
-1.68796
-1.69033
-1.69267
-1.69496
-1.69721
-1.69943
-1.7016
-1.70374
-1.70584
-1.70791
-1.70994
-1.71193
-1.71389
-1.71582
-1.71771
-1.71957
-1.72139
-1.72319
-1.72495
-1.72668
-1.72839
-1.73006
-1.7317
-1.73327
-1.31842
-1.31815
-1.31839
-1.319
-1.31997
-1.32128
-1.32292
-1.32486
-1.3271
-1.3296
-1.33237
-1.33537
-1.33861
-1.34205
-1.34568
-1.3495
-1.35349
-1.35763
-1.36191
-1.36633
-1.37086
-1.37551
-1.38025
-1.38508
-1.38999
-1.39498
-1.40002
-1.40511
-1.41026
-1.41544
-1.42065
-1.42588
-1.43114
-1.43641
-1.44168
-1.44696
-1.45223
-1.45749
-1.46275
-1.46798
-1.4732
-1.47839
-1.48356
-1.48869
-1.4938
-1.49886
-1.50389
-1.50888
-1.51383
-1.51873
-1.52358
-1.52839
-1.53315
-1.53786
-1.54252
-1.54712
-1.55167
-1.55617
-1.56061
-1.565
-1.56933
-1.57361
-1.57782
-1.58198
-1.58609
-1.59013
-1.59412
-1.59806
-1.60193
-1.60575
-1.60951
-1.61322
-1.61687
-1.62046
-1.624
-1.62748
-1.63091
-1.63428
-1.6376
-1.64087
-1.64408
-1.64724
-1.65035
-1.65341
-1.65642
-1.65938
-1.66229
-1.66515
-1.66796
-1.67073
-1.67345
-1.67612
-1.67875
-1.68133
-1.68387
-1.68636
-1.68881
-1.69122
-1.69359
-1.69592
-1.69821
-1.70046
-1.70267
-1.70484
-1.70697
-1.70907
-1.71113
-1.71315
-1.71514
-1.7171
-1.71902
-1.72091
-1.72276
-1.72458
-1.72638
-1.72814
-1.72987
-1.73157
-1.73323
-1.73482
-1.31608
-1.31577
-1.31598
-1.31657
-1.3175
-1.31879
-1.32041
-1.32233
-1.32455
-1.32705
-1.3298
-1.3328
-1.33603
-1.33947
-1.34311
-1.34693
-1.35093
-1.35508
-1.35938
-1.36381
-1.36836
-1.37302
-1.37779
-1.38265
-1.38758
-1.39259
-1.39766
-1.40279
-1.40797
-1.41318
-1.41843
-1.4237
-1.429
-1.43431
-1.43962
-1.44494
-1.45026
-1.45557
-1.46087
-1.46615
-1.47141
-1.47665
-1.48187
-1.48705
-1.49221
-1.49732
-1.5024
-1.50744
-1.51244
-1.5174
-1.5223
-1.52716
-1.53198
-1.53674
-1.54145
-1.54611
-1.55071
-1.55526
-1.55976
-1.5642
-1.56858
-1.57291
-1.57718
-1.58139
-1.58554
-1.58964
-1.59368
-1.59766
-1.60159
-1.60546
-1.60927
-1.61302
-1.61672
-1.62036
-1.62395
-1.62748
-1.63095
-1.63438
-1.63774
-1.64105
-1.64431
-1.64752
-1.65067
-1.65378
-1.65683
-1.65983
-1.66278
-1.66568
-1.66854
-1.67134
-1.6741
-1.67682
-1.67948
-1.6821
-1.68468
-1.68721
-1.6897
-1.69215
-1.69455
-1.69692
-1.69924
-1.70152
-1.70377
-1.70597
-1.70814
-1.71027
-1.71236
-1.71442
-1.71644
-1.71843
-1.72038
-1.7223
-1.72418
-1.72603
-1.72785
-1.72964
-1.7314
-1.73313
-1.73482
-1.73643
-1.31367
-1.31332
-1.3135
-1.31405
-1.31496
-1.31622
-1.31781
-1.31972
-1.32193
-1.32441
-1.32716
-1.33015
-1.33337
-1.33681
-1.34045
-1.34428
-1.34828
-1.35245
-1.35676
-1.3612
-1.36577
-1.37046
-1.37525
-1.38013
-1.38509
-1.39013
-1.39523
-1.40039
-1.4056
-1.41085
-1.41614
-1.42145
-1.42678
-1.43213
-1.43749
-1.44285
-1.44822
-1.45357
-1.45892
-1.46425
-1.46956
-1.47485
-1.48012
-1.48536
-1.49056
-1.49573
-1.50086
-1.50596
-1.51101
-1.51602
-1.52098
-1.52589
-1.53076
-1.53558
-1.54034
-1.54505
-1.54971
-1.55432
-1.55887
-1.56336
-1.5678
-1.57218
-1.5765
-1.58077
-1.58498
-1.58913
-1.59322
-1.59726
-1.60124
-1.60516
-1.60902
-1.61283
-1.61657
-1.62027
-1.6239
-1.62748
-1.631
-1.63447
-1.63789
-1.64125
-1.64455
-1.64781
-1.65101
-1.65415
-1.65725
-1.6603
-1.66329
-1.66624
-1.66913
-1.67198
-1.67478
-1.67754
-1.68024
-1.68291
-1.68552
-1.68809
-1.69062
-1.69311
-1.69555
-1.69795
-1.70031
-1.70263
-1.70491
-1.70715
-1.70935
-1.71151
-1.71364
-1.71573
-1.71778
-1.7198
-1.72178
-1.72373
-1.72565
-1.72753
-1.72938
-1.7312
-1.73299
-1.73475
-1.73646
-1.7381
-1.31119
-1.3108
-1.31094
-1.31146
-1.31234
-1.31357
-1.31514
-1.31703
-1.31922
-1.32169
-1.32443
-1.32741
-1.33064
-1.33407
-1.33772
-1.34155
-1.34556
-1.34973
-1.35406
-1.35852
-1.36311
-1.36781
-1.37262
-1.37753
-1.38252
-1.38759
-1.39272
-1.39791
-1.40316
-1.40844
-1.41377
-1.41912
-1.4245
-1.42989
-1.43529
-1.4407
-1.44611
-1.45151
-1.45691
-1.46229
-1.46765
-1.473
-1.47831
-1.4836
-1.48886
-1.49408
-1.49927
-1.50442
-1.50953
-1.51459
-1.51961
-1.52458
-1.5295
-1.53438
-1.5392