/*--------------------------------*- C++ -*----------------------------------*\
  =========                 |
  \\      /  F ield         | OpenFOAM: The Open Source CFD Toolbox
   \\    /   O peration     | Website:  https://openfoam.org
    \\  /    A nd           | Version:  8
     \\/     M anipulation  |
\*---------------------------------------------------------------------------*/
FoamFile
{
    version     2.0;
    format      ascii;
    class       volScalarField;
    location    "1.47655";
    object      nut;
}
// * * * * * * * * * * * * * * * * * * * * * * * * * * * * * * * * * * * * * //

dimensions      [0 2 -1 0 0 0 0];

internalField   nonuniform List<scalar> 
127200
(
0.000196198
0.000201857
0.000207246
0.000212423
0.000217407
0.000222151
0.000226581
0.000230676
0.000234452
0.000237927
0.000241118
0.000244041
0.00024671
0.000249138
0.000251337
0.000253316
0.000255084
0.000256645
0.000258003
0.000259155
0.000260094
0.000260806
0.000261275
0.000261511
0.000261645
0.000261669
0.000261594
0.000261423
0.000261161
0.00026081
0.000260373
0.000259851
0.000259247
0.000258562
0.000257797
0.000256953
0.00025603
0.00025503
0.000253954
0.000252801
0.000251573
0.000250269
0.00024889
0.000247437
0.000245908
0.000244305
0.000242627
0.000240875
0.000239047
0.000237143
0.000235163
0.000233107
0.000230973
0.000228761
0.00022647
0.000224098
0.000221645
0.000219108
0.000216486
0.000213775
0.000210973
0.000208077
0.000205084
0.000201989
0.00019879
0.000195481
0.000192058
0.000188515
0.000184845
0.000181041
0.000177094
0.000172995
0.000168732
0.000164291
0.000159658
0.000154815
0.00014974
0.000144411
0.000138804
0.0001329
0.000126712
0.000120339
0.000114105
0.000108731
0.000105186
0.000103649
0.000103083
0.000102724
0.000102383
0.000102035
0.000101674
0.000101298
0.000100905
0.000100493
0.000100057
9.95949e-05
9.91084e-05
9.86477e-05
9.83979e-05
9.81317e-05
0.000306915
0.00030455
0.000302412
0.000301223
0.000302017
0.000305406
0.000309975
0.000314535
0.000319022
0.000323446
0.00032782
0.000332153
0.000336457
0.000340742
0.000345018
0.000349296
0.000353588
0.000357906
0.000362264
0.000366676
0.00037114
0.000375639
0.000380182
0.000384756
0.000389246
0.000393662
0.00039801
0.000402292
0.000406512
0.000410672
0.000414774
0.000418819
0.000422808
0.000426743
0.000430625
0.000434453
0.000438229
0.000441953
0.000445626
0.000449247
0.000452818
0.000456337
0.000459807
0.000463226
0.000466594
0.000469913
0.000473181
0.000476399
0.000479567
0.000482686
0.000485754
0.000488774
0.000491744
0.000494665
0.000497539
0.000500366
0.000503148
0.000505888
0.000508588
0.000511244
0.000513849
0.000516402
0.000518903
0.000521354
0.000523754
0.000526103
0.000528402
0.000530651
0.000532851
0.000535003
0.000537106
0.000539164
0.000541175
0.000543141
0.000545064
0.000546945
0.000548784
0.000550582
0.000552337
0.000554044
0.000555693
0.000557265
0.000558731
0.000560053
0.000561209
0.000562212
0.000563108
0.000563933
0.000564701
0.000565412
0.000566065
0.000566657
0.000567186
0.000567647
0.000568038
0.000568352
0.000568581
0.000568715
0.000568752
0.000568712
0.00054166
0.000555304
0.000568874
0.000582364
0.000595726
0.000608891
0.000621786
0.000634393
0.000646723
0.00065879
0.000670608
0.00068219
0.000693546
0.000704689
0.000715627
0.000726368
0.000736918
0.000747282
0.000757461
0.000767456
0.000777279
0.000786965
0.00079652
0.000805943
0.000815231
0.000824384
0.000833402
0.000842287
0.000851041
0.000859668
0.000868168
0.000876544
0.000884796
0.000892928
0.000900938
0.00090883
0.000916603
0.000924258
0.000931797
0.000939218
0.000946523
0.000953712
0.000960786
0.000967743
0.000974585
0.000981312
0.000987923
0.000994418
0.0010008
0.00100706
0.00101321
0.00101924
0.00102516
0.00103096
0.00103664
0.0010422
0.00104765
0.00105298
0.0010582
0.00106329
0.00106827
0.00107313
0.00107787
0.00108249
0.001087
0.00109138
0.00109564
0.00109979
0.00110381
0.00110772
0.0011115
0.00111517
0.00111871
0.00112214
0.00112544
0.00112862
0.00113168
0.00113462
0.00113743
0.00114012
0.00114268
0.00114511
0.00114741
0.00114957
0.0011516
0.00115349
0.00115525
0.00115689
0.0011584
0.00115978
0.00116104
0.00116217
0.00116318
0.00116406
0.00116482
0.00116544
0.00116593
0.00116629
0.00116652
0.00116663
0.000894118
0.00091558
0.000936538
0.00095703
0.000977079
0.00099671
0.00101595
0.00103483
0.00105336
0.00107156
0.00108943
0.00110701
0.00112428
0.00114128
0.001158
0.00117447
0.00119068
0.00120664
0.00122238
0.00123788
0.00125317
0.00126824
0.0012831
0.00129775
0.0013122
0.00132644
0.00134048
0.00135432
0.00136796
0.00138142
0.00139467
0.00140774
0.00142062
0.00143332
0.00144582
0.00145815
0.00147029
0.00148224
0.00149402
0.00150561
0.00151702
0.00152825
0.0015393
0.00155017
0.00156085
0.00157136
0.00158169
0.00159183
0.0016018
0.00161158
0.00162118
0.0016306
0.00163983
0.00164889
0.00165776
0.00166645
0.00167495
0.00168327
0.0016914
0.00169935
0.00170712
0.0017147
0.00172209
0.0017293
0.00173632
0.00174315
0.00174979
0.00175625
0.00176252
0.0017686
0.00177449
0.00178019
0.00178569
0.00179101
0.00179614
0.00180107
0.00180582
0.00181036
0.00181472
0.00181888
0.00182284
0.0018266
0.00183016
0.00183352
0.00183668
0.00183963
0.00184239
0.00184495
0.00184731
0.00184947
0.00185144
0.00185321
0.00185478
0.00185616
0.00185733
0.00185831
0.0018591
0.00185968
0.00186006
0.00186026
0.00130215
0.00133046
0.00135825
0.00138556
0.00141241
0.00143881
0.0014648
0.00149036
0.00151553
0.0015403
0.00156469
0.00158871
0.00161238
0.00163569
0.00165866
0.0016813
0.00170362
0.00172562
0.00174731
0.00176869
0.00178978
0.00181058
0.0018311
0.00185134
0.0018713
0.00189098
0.0019104
0.00192955
0.00194844
0.00196706
0.00198542
0.00200353
0.00202137
0.00203896
0.0020563
0.00207338
0.00209021
0.00210678
0.00212311
0.00213918
0.002155
0.00217057
0.00218589
0.00220096
0.00221578
0.00223035
0.00224467
0.00225873
0.00227255
0.00228611
0.00229942
0.00231248
0.00232528
0.00233783
0.00235013
0.00236217
0.00237396
0.00238548
0.00239676
0.00240777
0.00241853
0.00242903
0.00243927
0.00244925
0.00245897
0.00246843
0.00247763
0.00248657
0.00249524
0.00250365
0.0025118
0.00251968
0.0025273
0.00253465
0.00254174
0.00254855
0.0025551
0.00256138
0.00256739
0.00257313
0.00257859
0.00258379
0.00258871
0.00259335
0.00259772
0.00260181
0.00260563
0.00260918
0.00261245
0.00261545
0.00261818
0.00262063
0.00262281
0.00262471
0.00262634
0.0026277
0.00262879
0.0026296
0.00263014
0.00263041
0.00175905
0.0017945
0.0018294
0.00186379
0.00189769
0.0019311
0.00196404
0.00199651
0.00202852
0.00206008
0.0020912
0.00212188
0.00215215
0.00218199
0.00221143
0.00224048
0.00226913
0.0022974
0.00232529
0.00235281
0.00237996
0.00240675
0.00243319
0.00245928
0.00248503
0.00251043
0.00253548
0.0025602
0.00258459
0.00260864
0.00263235
0.00265574
0.0026788
0.00270153
0.00272393
0.00274601
0.00276776
0.00278918
0.00281028
0.00283106
0.00285152
0.00287164
0.00289145
0.00291093
0.00293009
0.00294892
0.00296743
0.00298561
0.00300347
0.003021
0.0030382
0.00305508
0.00307162
0.00308784
0.00310373
0.00311929
0.00313452
0.00314941
0.00316397
0.0031782
0.0031921
0.00320566
0.00321888
0.00323177
0.00324432
0.00325653
0.0032684
0.00327994
0.00329113
0.00330198
0.00331249
0.00332266
0.00333248
0.00334196
0.00335109
0.00335987
0.00336831
0.0033764
0.00338414
0.00339153
0.00339857
0.00340526
0.0034116
0.00341759
0.00342322
0.0034285
0.00343342
0.00343799
0.00344221
0.00344608
0.00344959
0.00345275
0.00345555
0.00345801
0.00346011
0.00346186
0.00346326
0.0034643
0.003465
0.00346535
0.00226256
0.00230529
0.00234742
0.00238898
0.00243001
0.0024705
0.00251047
0.00254993
0.00258888
0.00262733
0.00266529
0.00270276
0.00273975
0.00277628
0.00281233
0.00284793
0.00288307
0.00291777
0.00295203
0.00298584
0.00301923
0.00305219
0.00308472
0.00311684
0.00314853
0.00317982
0.00321069
0.00324115
0.0032712
0.00330085
0.00333009
0.00335893
0.00338737
0.0034154
0.00344304
0.00347027
0.00349711
0.00352354
0.00354958
0.00357522
0.00360046
0.0036253
0.00364974
0.00367378
0.00369743
0.00372067
0.0037435
0.00376594
0.00378798
0.00380961
0.00383083
0.00385166
0.00387207
0.00389208
0.00391169
0.00393088
0.00394966
0.00396804
0.003986
0.00400355
0.00402069
0.00403741
0.00405372
0.00406961
0.00408508
0.00410014
0.00411478
0.00412899
0.00414279
0.00415616
0.00416911
0.00418164
0.00419374
0.00420542
0.00421666
0.00422749
0.00423788
0.00424784
0.00425737
0.00426648
0.00427515
0.00428338
0.00429119
0.00429856
0.00430549
0.00431199
0.00431806
0.00432369
0.00432888
0.00433364
0.00433797
0.00434186
0.00434531
0.00434833
0.00435092
0.00435307
0.00435479
0.00435608
0.00435694
0.00435736
0.00281009
0.00286013
0.00290952
0.00295831
0.00300652
0.00305417
0.00310125
0.00314778
0.00319375
0.00323918
0.00328408
0.00332843
0.00337225
0.00341555
0.00345833
0.00350059
0.00354233
0.00358357
0.00362431
0.00366454
0.00370427
0.00374351
0.00378226
0.00382052
0.00385829
0.00389558
0.00393239
0.00396872
0.00400456
0.00403993
0.00407482
0.00410924
0.00414318
0.00417664
0.00420963
0.00424214
0.00427418
0.00430575
0.00433684
0.00436746
0.0043976
0.00442726
0.00445645
0.00448516
0.0045134
0.00454115
0.00456843
0.00459522
0.00462154
0.00464737
0.00467272
0.00469759
0.00472197
0.00474586
0.00476927
0.00479219
0.00481462
0.00483656
0.004858
0.00487896
0.00489942
0.00491938
0.00493885
0.00495781
0.00497629
0.00499426
0.00501172
0.00502869
0.00504515
0.00506111
0.00507656
0.00509151
0.00510595
0.00511988
0.0051333
0.0051462
0.0051586
0.00517048
0.00518185
0.00519271
0.00520305
0.00521287
0.00522218
0.00523097
0.00523924
0.00524699
0.00525422
0.00526094
0.00526714
0.00527281
0.00527797
0.00528261
0.00528673
0.00529033
0.00529342
0.00529598
0.00529803
0.00529957
0.00530059
0.0053011
0.00339965
0.00345706
0.0035138
0.00356989
0.00362536
0.00368022
0.00373449
0.00378815
0.00384123
0.00389371
0.0039456
0.00399691
0.00404764
0.00409779
0.00414736
0.00419636
0.00424478
0.00429264
0.00433993
0.00438666
0.00443283
0.00447843
0.00452348
0.00456797
0.00461191
0.00465529
0.00469813
0.00474041
0.00478213
0.00482331
0.00486394
0.00490402
0.00494355
0.00498253
0.00502096
0.00505884
0.00509617
0.00513295
0.00516918
0.00520486
0.00523998
0.00527455
0.00530857
0.00534203
0.00537494
0.00540729
0.00543908
0.00547031
0.00550098
0.00553109
0.00556063
0.00558961
0.00561803
0.00564587
0.00567315
0.00569986
0.005726
0.00575156
0.00577656
0.00580097
0.00582481
0.00584807
0.00587075
0.00589286
0.00591437
0.00593531
0.00595566
0.00597543
0.0059946
0.00601319
0.00603119
0.0060486
0.00606541
0.00608164
0.00609726
0.0061123
0.00612673
0.00614057
0.00615381
0.00616645
0.00617849
0.00618993
0.00620077
0.006211
0.00622063
0.00622966
0.00623808
0.0062459
0.00625312
0.00625973
0.00626574
0.00627114
0.00627594
0.00628013
0.00628372
0.00628671
0.0062891
0.00629089
0.00629208
0.00629267
0.00402999
0.00409486
0.004159
0.00422246
0.00428525
0.0043474
0.0044089
0.00446976
0.00452998
0.00458956
0.00464852
0.00470683
0.00476451
0.00482157
0.00487799
0.00493378
0.00498894
0.00504347
0.00509737
0.00515065
0.00520331
0.00525534
0.00530674
0.00535752
0.00540769
0.00545722
0.00550614
0.00555443
0.0056021
0.00564915
0.00569558
0.00574138
0.00578656
0.00583112
0.00587505
0.00591836
0.00596104
0.00600309
0.00604452
0.00608532
0.00612548
0.00616502
0.00620392
0.00624219
0.00627982
0.00631681
0.00635317
0.00638889
0.00642397
0.0064584
0.00649219
0.00652534
0.00655783
0.00658968
0.00662088
0.00665142
0.00668131
0.00671055
0.00673913
0.00676705
0.00679431
0.00682091
0.00684684
0.00687212
0.00689672
0.00692066
0.00694393
0.00696652
0.00698845
0.0070097
0.00703028
0.00705018
0.0070694
0.00708794
0.00710581
0.00712299
0.00713949
0.00715531
0.00717044
0.00718489
0.00719865
0.00721173
0.00722411
0.00723581
0.00724682
0.00725714
0.00726677
0.00727571
0.00728396
0.00729151
0.00729838
0.00730456
0.00731004
0.00731484
0.00731894
0.00732236
0.00732509
0.00732714
0.0073285
0.00732918
0.00470021
0.00477259
0.0048442
0.00491508
0.00498524
0.00505472
0.0051235
0.0051916
0.00525902
0.00532575
0.0053918
0.00545716
0.00552184
0.00558583
0.00564913
0.00571175
0.00577368
0.00583493
0.00589548
0.00595535
0.00601453
0.00607302
0.00613082
0.00618794
0.00624436
0.00630009
0.00635513
0.00640947
0.00646313
0.00651609
0.00656835
0.00661992
0.00667079
0.00672096
0.00677044
0.00681921
0.00686728
0.00691464
0.0069613
0.00700726
0.0070525
0.00709704
0.00714086
0.00718397
0.00722637
0.00726805
0.00730901
0.00734925
0.00738876
0.00742756
0.00746563
0.00750297
0.00753958
0.00757546
0.0076106
0.00764501
0.00767869
0.00771162
0.00774382
0.00777527
0.00780598
0.00783594
0.00786516
0.00789362
0.00792134
0.0079483
0.00797451
0.00799996
0.00802465
0.00804859
0.00807176
0.00809417
0.00811582
0.00813671
0.00815683
0.00817618
0.00819476
0.00821257
0.00822961
0.00824589
0.00826138
0.00827611
0.00829006
0.00830323
0.00831563
0.00832725
0.00833809
0.00834816
0.00835745
0.00836596
0.0083737
0.00838065
0.00838683
0.00839224
0.00839686
0.00840071
0.00840379
0.00840609
0.00840763
0.00840839
0.0054096
0.00548956
0.00556868
0.00564703
0.00572462
0.00580147
0.00587758
0.00595296
0.0060276
0.00610151
0.00617469
0.00624712
0.00631882
0.00638978
0.00646
0.00652947
0.0065982
0.00666618
0.00673341
0.00679989
0.00686562
0.0069306
0.00699482
0.00705828
0.00712099
0.00718293
0.00724412
0.00730454
0.0073642
0.00742309
0.00748122
0.00753857
0.00759516
0.00765097
0.00770601
0.00776027
0.00781375
0.00786645
0.00791836
0.0079695
0.00801984
0.0080694
0.00811817
0.00816614
0.00821332
0.0082597
0.00830528
0.00835006
0.00839404
0.00843721
0.00847958
0.00852113
0.00856188
0.0086018
0.00864092
0.00867921
0.00871668
0.00875333
0.00878916
0.00882416
0.00885833
0.00889167
0.00892418
0.00895585
0.00898669
0.00901669
0.00904585
0.00907417
0.00910165
0.00912828
0.00915406
0.009179
0.00920308
0.00922632
0.0092487
0.00927023
0.0092909
0.00931072
0.00932968
0.00934778
0.00936502
0.0093814
0.00939692
0.00941158
0.00942537
0.0094383
0.00945037
0.00946157
0.00947191
0.00948138
0.00948998
0.00949773
0.0095046
0.00951062
0.00951577
0.00952005
0.00952348
0.00952604
0.00952775
0.00952861
0.00615764
0.00624522
0.00633192
0.00641778
0.00650284
0.0065871
0.00667057
0.00675326
0.00683516
0.00691627
0.0069966
0.00707613
0.00715488
0.00723282
0.00730997
0.00738631
0.00746185
0.00753658
0.0076105
0.00768361
0.0077559
0.00782737
0.00789802
0.00796785
0.00803685
0.00810503
0.00817237
0.00823888
0.00830455
0.00836939
0.00843339
0.00849654
0.00855885
0.00862031
0.00868091
0.00874067
0.00879957
0.00885762
0.0089148
0.00897112
0.00902658
0.00908116
0.00913488
0.00918773
0.0092397
0.00929079
0.009341
0.00939033
0.00943878
0.00948634
0.009533
0.00957878
0.00962366
0.00966764
0.00971073
0.00975291
0.00979419
0.00983456
0.00987402
0.00991257
0.00995021
0.00998694
0.0100227
0.0100576
0.0100916
0.0101246
0.0101568
0.0101879
0.0102182
0.0102475
0.0102759
0.0103034
0.0103299
0.0103555
0.0103802
0.0104039
0.0104266
0.0104485
0.0104694
0.0104893
0.0105083
0.0105263
0.0105434
0.0105595
0.0105747
0.010589
0.0106023
0.0106146
0.010626
0.0106364
0.0106459
0.0106544
0.010662
0.0106686
0.0106743
0.010679
0.0106828
0.0106856
0.0106875
0.0106885
0.00694392
0.00703917
0.00713349
0.00722691
0.00731946
0.00741117
0.00750203
0.00759206
0.00768124
0.00776958
0.00785708
0.00794373
0.00802953
0.00811448
0.00819856
0.00828179
0.00836415
0.00844564
0.00852625
0.00860599
0.00868485
0.00876282
0.00883991
0.0089161
0.0089914
0.00906581
0.00913931
0.00921191
0.0092836
0.00935438
0.00942424
0.00949319
0.00956122
0.00962833
0.00969451
0.00975976
0.00982409
0.00988747
0.00994992
0.0100114
0.010072
0.0101316
0.0101903
0.010248
0.0103047
0.0103605
0.0104154
0.0104693
0.0105222
0.0105741
0.0106251
0.0106751
0.0107241
0.0107721
0.0108192
0.0108653
0.0109103
0.0109544
0.0109975
0.0110396
0.0110807
0.0111208
0.0111599
0.011198
0.0112351
0.0112712
0.0113063
0.0113403
0.0113734
0.0114054
0.0114364
0.0114664
0.0114954
0.0115233
0.0115502
0.0115761
0.011601
0.0116248
0.0116476
0.0116694
0.0116901
0.0117098
0.0117285
0.0117461
0.0117627
0.0117782
0.0117927
0.0118062
0.0118187
0.01183
0.0118404
0.0118497
0.011858
0.0118652
0.0118714
0.0118766
0.0118807
0.0118838
0.0118859
0.0118869
0.00776813
0.0078711
0.00797306
0.00807408
0.00817417
0.00827335
0.00837163
0.00846902
0.0085655
0.00866109
0.00875578
0.00884956
0.00894243
0.00903438
0.00912542
0.00921553
0.00930471
0.00939296
0.00948027
0.00956665
0.00965207
0.00973654
0.00982006
0.00990262
0.00998421
0.0100648
0.0101445
0.0102232
0.0103009
0.0103776
0.0104533
0.0105281
0.0106018
0.0106745
0.0107463
0.010817
0.0108868
0.0109555
0.0110232
0.0110899
0.0111555
0.0112202
0.0112838
0.0113463
0.0114079
0.0114684
0.0115278
0.0115862
0.0116436
0.0116999
0.0117552
0.0118094
0.0118625
0.0119146
0.0119656
0.0120156
0.0120644
0.0121122
0.0121589
0.0122046
0.0122492
0.0122926
0.012335
0.0123763
0.0124165
0.0124556
0.0124937
0.0125306
0.0125664
0.0126011
0.0126347
0.0126672
0.0126986
0.0127289
0.0127581
0.0127861
0.0128131
0.0128389
0.0128636
0.0128872
0.0129097
0.012931
0.0129513
0.0129704
0.0129884
0.0130052
0.013021
0.0130356
0.013049
0.0130614
0.0130726
0.0130827
0.0130917
0.0130995
0.0131063
0.0131118
0.0131163
0.0131197
0.0131219
0.013123
0.00863003
0.00874075
0.00885041
0.00895905
0.00906671
0.00917339
0.00927911
0.00938388
0.00948769
0.00959053
0.00969242
0.00979334
0.00989328
0.00999225
0.0100902
0.0101872
0.0102832
0.0103783
0.0104723
0.0105653
0.0106572
0.0107482
0.0108381
0.0109271
0.0110149
0.0111018
0.0111876
0.0112723
0.011356
0.0114387
0.0115202
0.0116007
0.0116802
0.0117586
0.0118358
0.0119121
0.0119872
0.0120612
0.0121342
0.012206
0.0122767
0.0123464
0.0124149
0.0124823
0.0125486
0.0126138
0.0126779
0.0127408
0.0128026
0.0128633
0.0129228
0.0129812
0.0130384
0.0130945
0.0131495
0.0132033
0.0132559
0.0133074
0.0133577
0.0134069
0.0134549
0.0135017
0.0135474
0.0135919
0.0136352
0.0136773
0.0137183
0.013758
0.0137966
0.013834
0.0138702
0.0139052
0.013939
0.0139717
0.0140031
0.0140333
0.0140623
0.0140901
0.0141168
0.0141422
0.0141664
0.0141894
0.0142112
0.0142317
0.0142511
0.0142693
0.0142862
0.0143019
0.0143165
0.0143298
0.0143419
0.0143527
0.0143624
0.0143708
0.0143781
0.0143841
0.0143889
0.0143926
0.014395
0.0143962
0.00952943
0.00964794
0.00976532
0.00988162
0.00999687
0.0101111
0.0102243
0.0103364
0.0104476
0.0105577
0.0106668
0.0107748
0.0108819
0.0109879
0.0110928
0.0111967
0.0112995
0.0114013
0.011502
0.0116016
0.0117001
0.0117976
0.0118939
0.0119892
0.0120833
0.0121763
0.0122683
0.0123591
0.0124487
0.0125373
0.0126247
0.012711
0.0127961
0.01288
0.0129629
0.0130445
0.013125
0.0132043
0.0132825
0.0133595
0.0134353
0.0135099
0.0135833
0.0136555
0.0137266
0.0137964
0.013865
0.0139325
0.0139987
0.0140637
0.0141275
0.01419
0.0142514
0.0143115
0.0143703
0.014428
0.0144844
0.0145395
0.0145934
0.0146461
0.0146975
0.0147477
0.0147966
0.0148443
0.0148906
0.0149358
0.0149796
0.0150222
0.0150636
0.0151036
0.0151424
0.0151799
0.0152161
0.015251
0.0152847
0.0153171
0.0153481
0.0153779
0.0154064
0.0154337
0.0154596
0.0154842
0.0155075
0.0155296
0.0155503
0.0155698
0.0155879
0.0156048
0.0156203
0.0156346
0.0156475
0.0156592
0.0156695
0.0156786
0.0156864
0.0156928
0.015698
0.0157019
0.0157044
0.0157057
0.0104662
0.0105925
0.0107177
0.0108416
0.0109645
0.0110863
0.0112069
0.0113265
0.011445
0.0115624
0.0116787
0.0117939
0.011908
0.012021
0.0121329
0.0122437
0.0123533
0.0124618
0.0125692
0.0126754
0.0127805
0.0128844
0.0129871
0.0130887
0.0131891
0.0132883
0.0133863
0.0134832
0.0135788
0.0136732
0.0137664
0.0138584
0.0139492
0.0140387
0.0141271
0.0142141
0.0143
0.0143846
0.0144679
0.01455
0.0146308
0.0147104
0.0147887
0.0148657
0.0149415
0.0150159
0.0150891
0.015161
0.0152316
0.0153009
0.0153689
0.0154356
0.015501
0.0155651
0.0156278
0.0156893
0.0157494
0.0158082
0.0158657
0.0159218
0.0159766
0.0160301
0.0160822
0.016133
0.0161825
0.0162306
0.0162773
0.0163227
0.0163668
0.0164095
0.0164508
0.0164907
0.0165293
0.0165666
0.0166025
0.016637
0.0166701
0.0167018
0.0167322
0.0167612
0.0167889
0.0168151
0.01684
0.0168635
0.0168856
0.0169063
0.0169256
0.0169436
0.0169602
0.0169754
0.0169892
0.0170016
0.0170126
0.0170223
0.0170306
0.0170375
0.017043
0.0170471
0.0170499
0.0170512
0.0114402
0.0115744
0.0117073
0.011839
0.0119695
0.0120988
0.012227
0.012354
0.0124798
0.0126045
0.012728
0.0128504
0.0129716
0.0130916
0.0132104
0.0133281
0.0134445
0.0135598
0.0136738
0.0137866
0.0138982
0.0140085
0.0141177
0.0142255
0.0143321
0.0144375
0.0145416
0.0146444
0.014746
0.0148463
0.0149453
0.015043
0.0151394
0.0152344
0.0153282
0.0154207
0.0155118
0.0156017
0.0156902
0.0157773
0.0158631
0.0159476
0.0160308
0.0161125
0.016193
0.016272
0.0163497
0.016426
0.016501
0.0165745
0.0166467
0.0167175
0.016787
0.016855
0.0169216
0.0169868
0.0170506
0.0171131
0.0171741
0.0172337
0.0172918
0.0173486
0.0174039
0.0174578
0.0175103
0.0175613
0.017611
0.0176591
0.0177059
0.0177512
0.017795
0.0178374
0.0178784
0.0179179
0.017956
0.0179926
0.0180277
0.0180614
0.0180937
0.0181245
0.0181538
0.0181816
0.018208
0.018233
0.0182564
0.0182784
0.0182989
0.018318
0.0183356
0.0183517
0.0183664
0.0183795
0.0183913
0.0184015
0.0184103
0.0184176
0.0184235
0.0184278
0.0184308
0.0184322
0.0124514
0.0125934
0.0127342
0.0128736
0.0130117
0.0131486
0.0132843
0.0134187
0.0135519
0.0136839
0.0138147
0.0139442
0.0140724
0.0141995
0.0143252
0.0144497
0.014573
0.0146949
0.0148156
0.014935
0.015053
0.0151698
0.0152853
0.0153994
0.0155123
0.0156237
0.0157339
0.0158427
0.0159502
0.0160562
0.016161
0.0162643
0.0163663
0.0164669
0.0165661
0.016664
0.0167604
0.0168554
0.016949
0.0170412
0.017132
0.0172214
0.0173093
0.0173958
0.0174808
0.0175645
0.0176466
0.0177273
0.0178066
0.0178844
0.0179607
0.0180356
0.018109
0.018181
0.0182514
0.0183204
0.0183878
0.0184538
0.0185183
0.0185813
0.0186428
0.0187028
0.0187613
0.0188183
0.0188738
0.0189278
0.0189802
0.0190311
0.0190806
0.0191284
0.0191748
0.0192196
0.0192629
0.0193047
0.0193449
0.0193836
0.0194208
0.0194564
0.0194905
0.019523
0.019554
0.0195834
0.0196113
0.0196377
0.0196625
0.0196857
0.0197074
0.0197275
0.0197461
0.0197632
0.0197787
0.0197926
0.019805
0.0198158
0.0198251
0.0198328
0.019839
0.0198437
0.0198467
0.0198483
0.0134996
0.0136496
0.0137982
0.0139453
0.0140911
0.0142356
0.0143788
0.0145207
0.0146612
0.0148005
0.0149385
0.0150751
0.0152105
0.0153445
0.0154771
0.0156085
0.0157385
0.0158671
0.0159944
0.0161204
0.0162449
0.0163681
0.0164899
0.0166103
0.0167293
0.0168469
0.016963
0.0170778
0.0171911
0.017303
0.0174134
0.0175224
0.0176299
0.017736
0.0178406
0.0179437
0.0180454
0.0181456
0.0182443
0.0183415
0.0184372
0.0185314
0.018624
0.0187152
0.0188049
0.018893
0.0189796
0.0190647
0.0191482
0.0192302
0.0193107
0.0193896
0.0194669
0.0195427
0.0196169
0.0196896
0.0197607
0.0198302
0.0198982
0.0199646
0.0200294
0.0200926
0.0201542
0.0202142
0.0202727
0.0203295
0.0203848
0.0204384
0.0204905
0.0205409
0.0205897
0.0206369
0.0206825
0.0207265
0.0207689
0.0208097
0.0208488
0.0208863
0.0209222
0.0209565
0.0209891
0.0210201
0.0210495
0.0210772
0.0211033
0.0211278
0.0211507
0.0211719
0.0211915
0.0212094
0.0212258
0.0212404
0.0212535
0.0212649
0.0212747
0.0212828
0.0212893
0.0212942
0.0212975
0.0212991
0.0145849
0.0147428
0.0148992
0.0150541
0.0152076
0.0153597
0.0155104
0.0156597
0.0158076
0.0159542
0.0160993
0.0162431
0.0163855
0.0165265
0.0166661
0.0168043
0.016941
0.0170763
0.0172102
0.0173427
0.0174737
0.0176032
0.0177313
0.0178579
0.017983
0.0181067
0.0182288
0.0183495
0.0184686
0.0185862
0.0187023
0.0188169
0.01893
0.0190415
0.0191514
0.0192598
0.0193667
0.019472
0.0195757
0.0196779
0.0197784
0.0198774
0.0199748
0.0200706
0.0201648
0.0202574
0.0203484
0.0204378
0.0205255
0.0206117
0.0206962
0.0207791
0.0208603
0.0209399
0.0210179
0.0210942
0.0211689
0.0212419
0.0213133
0.021383
0.0214511
0.0215175
0.0215822
0.0216452
0.0217066
0.0217663
0.0218243
0.0218806
0.0219353
0.0219882
0.0220395
0.0220891
0.0221369
0.0221831
0.0222276
0.0222704
0.0223115
0.0223509
0.0223885
0.0224245
0.0224588
0.0224913
0.0225222
0.0225513
0.0225787
0.0226044
0.0226284
0.0226507
0.0226712
0.0226901
0.0227072
0.0227226
0.0227363
0.0227483
0.0227586
0.0227671
0.022774
0.0227791
0.0227825
0.0227842
0.0157072
0.015873
0.0160372
0.0161999
0.0163611
0.0165208
0.016679
0.0168357
0.016991
0.0171448
0.0172972
0.0174481
0.0175975
0.0177455
0.0178919
0.0180369
0.0181804
0.0183223
0.0184628
0.0186018
0.0187392
0.018875
0.0190094
0.0191422
0.0192734
0.019403
0.0195311
0.0196576
0.0197826
0.0199059
0.0200276
0.0201477
0.0202662
0.0203831
0.0204984
0.020612
0.020724
0.0208344
0.0209431
0.0210501
0.0211555
0.0212592
0.0213613
0.0214617
0.0215604
0.0216574
0.0217527
0.0218464
0.0219383
0.0220286
0.0221171
0.0222039
0.022289
0.0223724
0.0224541
0.022534
0.0226122
0.0226887
0.0227634
0.0228364
0.0229077
0.0229772
0.023045
0.023111
0.0231752
0.0232377
0.0232984
0.0233574
0.0234146
0.0234701
0.0235237
0.0235756
0.0236258
0.0236741
0.0237207
0.0237655
0.0238085
0.0238497
0.0238891
0.0239268
0.0239626
0.0239967
0.024029
0.0240595
0.0240882
0.0241151
0.0241402
0.0241635
0.024185
0.0242048
0.0242227
0.0242388
0.0242532
0.0242657
0.0242765
0.0242854
0.0242926
0.0242979
0.0243015
0.0243033
0.0168663
0.0170401
0.0172122
0.0173826
0.0175515
0.0177187
0.0178844
0.0180486
0.0182112
0.0183723
0.0185319
0.0186899
0.0188463
0.0190012
0.0191545
0.0193063
0.0194564
0.019605
0.019752
0.0198974
0.0200412
0.0201834
0.0203239
0.0204628
0.0206001
0.0207358
0.0208697
0.0210021
0.0211327
0.0212617
0.021389
0.0215146
0.0216385
0.0217608
0.0218813
0.0220001
0.0221172
0.0222325
0.0223462
0.0224581
0.0225682
0.0226766
0.0227833
0.0228882
0.0229913
0.0230927
0.0231923
0.0232902
0.0233862
0.0234805
0.023573
0.0236637
0.0237526
0.0238397
0.023925
0.0240085
0.0240902
0.0241701
0.0242482
0.0243244
0.0243988
0.0244714
0.0245422
0.0246111
0.0246782
0.0247435
0.0248069
0.0248685
0.0249282
0.0249861
0.0250421
0.0250963
0.0251486
0.0251991
0.0252477
0.0252945
0.0253394
0.0253824
0.0254236
0.0254629
0.0255003
0.0255359
0.0255696
0.0256014
0.0256314
0.0256594
0.0256857
0.02571
0.0257325
0.0257531
0.0257718
0.0257886
0.0258036
0.0258167
0.0258279
0.0258372
0.0258447
0.0258503
0.0258541
0.0258559
0.0180623
0.018244
0.0184239
0.0186021
0.0187786
0.0189535
0.0191267
0.0192983
0.0194682
0.0196365
0.0198032
0.0199683
0.0201317
0.0202935
0.0204537
0.0206122
0.020769
0.0209242
0.0210777
0.0212295
0.0213796
0.021528
0.0216747
0.0218197
0.021963
0.0221046
0.0222444
0.0223825
0.0225188
0.0226534
0.0227862
0.0229173
0.0230466
0.0231741
0.0232998
0.0234237
0.0235458
0.0236661
0.0237846
0.0239013
0.0240162
0.0241292
0.0242405
0.0243498
0.0244574
0.0245631
0.0246669
0.0247689
0.024869
0.0249673
0.0250637
0.0251582
0.0252509
0.0253416
0.0254305
0.0255175
0.0256026
0.0256859
0.0257672
0.0258466
0.0259242
0.0259998
0.0260735
0.0261453
0.0262152
0.0262832
0.0263492
0.0264133
0.0264756
0.0265358
0.0265942
0.0266506
0.0267051
0.0267577
0.0268083
0.026857
0.0269038
0.0269486
0.0269914
0.0270324
0.0270713
0.0271084
0.0271435
0.0271766
0.0272078
0.027237
0.0272643
0.0272897
0.0273131
0.0273345
0.027354
0.0273715
0.0273871
0.0274008
0.0274124
0.0274222
0.02743
0.0274358
0.0274397
0.0274416
0.0192949
0.0194846
0.0196723
0.0198583
0.0200424
0.0202249
0.0204056
0.0205845
0.0207618
0.0209373
0.0211111
0.0212832
0.0214536
0.0216223
0.0217892
0.0219544
0.0221179
0.0222796
0.0224395
0.0225977
0.0227541
0.0229087
0.0230616
0.0232126
0.0233619
0.0235093
0.0236549
0.0237987
0.0239407
0.0240808
0.0242191
0.0243555
0.0244901
0.0246228
0.0247536
0.0248826
0.0250097
0.0251349
0.0252582
0.0253796
0.0254991
0.0256168
0.0257325
0.0258462
0.0259581
0.026068
0.026176
0.0262821
0.0263862
0.0264884
0.0265887
0.026687
0.0267833
0.0268777
0.0269701
0.0270605
0.027149
0.0272355
0.0273201
0.0274026
0.0274832
0.0275618
0.0276384
0.0277131
0.0277857
0.0278563
0.027925
0.0279916
0.0280563
0.0281189
0.0281795
0.0282382
0.0282948
0.0283494
0.028402
0.0284526
0.0285012
0.0285477
0.0285922
0.0286348
0.0286753
0.0287137
0.0287502
0.0287846
0.028817
0.0288474
0.0288757
0.0289021
0.0289264
0.0289486
0.0289689
0.0289871
0.0290033
0.0290175
0.0290296
0.0290397
0.0290478
0.0290539
0.0290579
0.0290599
0.0205641
0.0207617
0.0209573
0.021151
0.0213428
0.0215328
0.0217209
0.0219072
0.0220917
0.0222744
0.0224554
0.0226345
0.0228118
0.0229873
0.0231609
0.0233328
0.0235028
0.023671
0.0238374
0.0240019
0.0241645
0.0243253
0.0244842
0.0246412
0.0247963
0.0249496
0.0251009
0.0252504
0.0253979
0.0255435
0.0256872
0.0258289
0.0259687
0.0261066
0.0262425
0.0263764
0.0265084
0.0266385
0.0267665
0.0268926
0.0270167
0.0271388
0.0272589
0.027377
0.0274931
0.0276072
0.0277193
0.0278294
0.0279375
0.0280435
0.0281475
0.0282495
0.0283495
0.0284474
0.0285433
0.0286371
0.0287289
0.0288187
0.0289064
0.028992
0.0290756
0.0291571
0.0292365
0.0293139
0.0293893
0.0294625
0.0295337
0.0296028
0.0296698
0.0297348
0.0297976
0.0298584
0.0299171
0.0299737
0.0300283
0.0300807
0.0301311
0.0301793
0.0302255
0.0302695
0.0303115
0.0303514
0.0303892
0.0304249
0.0304584
0.0304899
0.0305193
0.0305466
0.0305718
0.0305949
0.0306159
0.0306347
0.0306515
0.0306662
0.0306788
0.0306893
0.0306977
0.0307039
0.0307081
0.0307102
0.0218698
0.0220753
0.0222787
0.02248
0.0226795
0.0228769
0.0230725
0.0232661
0.0234579
0.0236477
0.0238357
0.0240218
0.0242059
0.0243882
0.0245686
0.024747
0.0249236
0.0250982
0.0252709
0.0254416
0.0256104
0.0257773
0.0259422
0.0261051
0.0262661
0.0264251
0.0265821
0.0267371
0.0268901
0.0270411
0.0271901
0.0273371
0.0274821
0.027625
0.0277659
0.0279048
0.0280416
0.0281764
0.0283091
0.0284397
0.0285683
0.0286949
0.0288193
0.0289417
0.029062
0.0291802
0.0292963
0.0294104
0.0295223
0.0296321
0.0297398
0.0298455
0.029949
0.0300504
0.0301496
0.0302468
0.0303418
0.0304347
0.0305255
0.0306141
0.0307007
0.030785
0.0308673
0.0309474
0.0310253
0.0311011
0.0311748
0.0312463
0.0313156
0.0313828
0.0314479
0.0315108
0.0315715
0.0316301
0.0316865
0.0317408
0.0317928
0.0318428
0.0318905
0.0319361
0.0319795
0.0320208
0.0320599
0.0320968
0.0321315
0.0321641
0.0321945
0.0322227
0.0322487
0.0322726
0.0322943
0.0323139
0.0323312
0.0323464
0.0323594
0.0323703
0.0323789
0.0323854
0.0323898
0.0323919