/*--------------------------------*- C++ -*----------------------------------*\
  =========                 |
  \\      /  F ield         | OpenFOAM: The Open Source CFD Toolbox
   \\    /   O peration     | Website:  https://openfoam.org
    \\  /    A nd           | Version:  8
     \\/     M anipulation  |
\*---------------------------------------------------------------------------*/
FoamFile
{
    version     2.0;
    format      ascii;
    class       volScalarField;
    location    "1.47655";
    object      p;
}
// * * * * * * * * * * * * * * * * * * * * * * * * * * * * * * * * * * * * * //

dimensions      [0 2 -2 0 0 0 0];

internalField   nonuniform List<scalar> 
127200
(
-13.5206
-13.9598
-14.3745
-14.7629
-15.1228
-15.4533
-15.7529
-16.0203
-16.2544
-16.4546
-16.6208
-16.753
-16.8515
-16.9169
-16.95
-16.9518
-16.9236
-16.8667
-16.7824
-16.672
-16.5386
-16.3859
-16.2124
-16.006
-15.7621
-15.4867
-15.1827
-14.8527
-14.4986
-14.122
-13.7241
-13.3061
-12.8689
-12.4136
-11.941
-11.452
-10.9474
-10.4282
-9.89513
-9.34902
-8.79071
-8.22103
-7.64079
-7.05081
-6.45194
-5.84497
-5.23075
-4.61009
-3.98382
-3.35275
-2.7177
-2.0795
-1.43895
-0.796861
-0.154054
0.488675
1.13053
1.77072
2.40846
3.04297
3.67348
4.29923
4.91949
5.53349
6.14051
6.73985
7.33079
7.91265
8.48475
9.04644
9.59707
10.136
10.6627
11.1766
11.677
12.1635
12.6355
13.0926
13.5342
13.96
14.3695
14.7621
15.1376
15.4953
15.8342
16.1532
16.451
16.7275
16.9826
17.2165
17.4291
17.6203
17.7899
17.9379
18.064
18.1681
18.2503
18.3105
18.3488
18.3663
-11.53
-11.8261
-12.0973
-12.3442
-12.5656
-12.7603
-12.9281
-13.0694
-13.1846
-13.2742
-13.3383
-13.3772
-13.391
-13.3801
-13.3444
-13.284
-13.1989
-13.0891
-12.9545
-12.7948
-12.6087
-12.3952
-12.1574
-11.9073
-11.649
-11.3774
-11.0906
-10.7877
-10.4681
-10.132
-9.77954
-9.41126
-9.02765
-8.62931
-8.21686
-7.79093
-7.35219
-6.90129
-6.43892
-5.96573
-5.48242
-4.98966
-4.48814
-3.97853
-3.46154
-2.93784
-2.40812
-1.87307
-1.33339
-0.789752
-0.242852
0.306625
0.857995
1.41058
1.96369
2.51667
3.06883
3.61951
4.16805
4.71379
5.25608
5.79427
6.32771
6.85579
7.37786
7.89332
8.40155
8.90195
9.39393
9.87689
10.3503
10.8135
11.2659
11.7071
12.1363
12.5532
12.957
13.3472
13.7233
14.0846
14.4306
14.7609
15.0753
15.3742
15.6585
15.9285
16.1839
16.4236
16.6467
16.8527
17.0414
17.2125
17.3658
17.5012
17.6184
17.7175
17.7984
17.8609
17.9054
17.9309
-11.3805
-11.6385
-11.8821
-12.11
-12.3203
-12.5118
-12.6837
-12.8351
-12.9651
-13.0731
-13.1587
-13.2213
-13.2606
-13.2765
-13.2688
-13.2373
-13.1821
-13.103
-13.0003
-12.8741
-12.7245
-12.5505
-12.3513
-12.1278
-11.8824
-11.6162
-11.3304
-11.0257
-10.7031
-10.3632
-10.0067
-9.63434
-9.24678
-8.84469
-8.42872
-7.99954
-7.55783
-7.10425
-6.63948
-6.1642
-5.67909
-5.18482
-4.68209
-4.17158
-3.65398
-3.12998
-2.60028
-2.06555
-1.52649
-0.9838
-0.43816
0.109739
0.659211
1.20958
1.76015
2.31026
2.85923
3.4064
3.9511
4.49268
5.0305
5.5639
6.09226
6.61496
7.13138
7.64091
8.14297
8.63696
9.12232
9.59848
10.0649
10.521
10.9664
11.4004
11.8226
12.2325
12.6297
13.0137
13.3841
13.7404
14.0823
14.4093
14.7213
15.0177
15.2985
15.5633
15.8116
16.043
16.2573
16.4542
16.6335
16.795
16.9387
17.0644
17.172
17.2615
17.3329
17.3863
17.422
17.44
-10.1249
-10.2917
-10.4466
-10.5885
-10.7159
-10.8279
-10.9235
-11.0019
-11.0625
-11.105
-11.1289
-11.134
-11.1201
-11.0872
-11.0352
-10.9641
-10.8743
-10.7657
-10.6389
-10.4941
-10.3317
-10.1521
-9.95604
-9.74399
-9.51624
-9.27291
-9.01417
-8.74022
-8.45136
-8.14792
-7.83029
-7.4989
-7.15423
-6.79676
-6.42702
-6.04553
-5.65285
-5.24953
-4.83614
-4.41326
-3.98147
-3.54135
-3.09351
-2.63853
-2.17703
-1.70959
-1.23684
-0.759366
-0.27779
0.207281
0.695238
1.18547
1.67737
2.17034
2.66375
3.15702
3.64954
4.14072
4.62996
5.11667
5.60027
6.08018
6.55582
7.02663
7.49205
7.95153
8.40451
8.85047
9.28886
9.71918
10.1409
10.5535
10.9566
11.3496
11.732
12.1035
12.4635
12.8117
13.1477
13.471
13.7813
14.0784
14.362
14.6317
14.8875
15.129
15.3559
15.5679
15.7648
15.9462
16.1119
16.2616
16.3953
16.5126
16.6135
16.6978
16.7655
16.8163
16.8502
16.8671
-9.65037
-9.78476
-9.91274
-10.0316
-10.1398
-10.2358
-10.3186
-10.3872
-10.4408
-10.4787
-10.5002
-10.505
-10.4925
-10.4625
-10.4146
-10.3488
-10.2647
-10.1623
-10.0416
-9.90267
-9.7458
-9.57131
-9.3796
-9.17118
-8.94655
-8.70621
-8.45065
-8.18034
-7.89578
-7.59742
-7.28576
-6.96128
-6.62447
-6.27583
-5.91586
-5.54509
-5.16403
-4.77322
-4.3732
-3.96451
-3.5477
-3.12332
-2.69194
-2.25411
-1.81041
-1.36141
-0.907674
-0.44978
0.0116959
0.47618
0.943094
1.41187
1.88192
2.35268
2.82358
3.29404
3.76351
4.23142
4.69722
5.16035
5.62026
6.07642
6.52828
6.97531
7.417
7.85284
8.2823
8.70491
9.12016
9.52758
9.92671
10.3171
10.6982
11.0698
11.4312
11.7822
12.1224
12.4512
12.7685
13.0738
13.3668
13.6472
13.9146
14.1689
14.4097
14.6368
14.8499
15.0487
15.2331
15.4028
15.5576
15.6974
15.822
15.9312
16.0251
16.1034
16.1661
16.2131
16.2445
16.2602
-8.80974
-8.9005
-8.98322
-9.05691
-9.12067
-9.17365
-9.21514
-9.24446
-9.26103
-9.26436
-9.25403
-9.22971
-9.19112
-9.13809
-9.07048
-8.98824
-8.89138
-8.77996
-8.65407
-8.51371
-8.35892
-8.18983
-8.00662
-7.80949
-7.59867
-7.37442
-7.137
-6.8867
-6.62385
-6.34877
-6.06182
-5.76339
-5.45387
-5.13368
-4.80324
-4.46298
-4.11337
-3.75487
-3.38795
-3.01308
-2.63077
-2.2415
-1.84578
-1.4441
-1.03699
-0.624957
-0.208517
0.211809
0.635498
1.06203
1.49087
1.9215
2.3534
2.78604
3.2189
3.65145
4.08318
4.51358
4.94212
5.3683
5.79161
6.21156
6.62765
7.03939
7.44629
7.84789
8.2437
8.63327
9.01614
9.39188
9.76003
10.1202
10.4719
10.8148
11.1485
11.4726
11.7867
12.0905
12.3836
12.6658
12.9366
13.1959
13.4433
13.6785
13.9013
14.1115
14.3089
14.4931
14.6639
14.8213
14.9649
15.0947
15.2104
15.3119
15.3991
15.472
15.5304
15.5742
15.6034
15.6181
-8.22606
-8.29124
-8.35069
-8.40281
-8.44663
-8.48136
-8.50627
-8.52071
-8.52408
-8.51588
-8.49563
-8.46295
-8.41748
-8.35896
-8.28715
-8.20187
-8.10298
-7.99041
-7.86416
-7.72434
-7.57108
-7.40455
-7.22493
-7.03246
-6.82738
-6.60995
-6.38047
-6.13923
-5.88655
-5.62277
-5.34822
-5.06326
-4.76826
-4.46361
-4.14969
-3.82692
-3.4957
-3.15645
-2.80961
-2.45562
-2.09493
-1.72798
-1.35524
-0.977162
-0.594224
-0.206896
0.184346
0.579026
0.976661
1.37677
1.77887
2.18248
2.58711
2.99228
3.39751
3.80231
4.20622
4.60874
5.00942
5.40778
5.80334
6.19567
6.58428
6.96875
7.34861
7.72343
8.09279
8.45624
8.81339
9.16381
9.50711
9.8429
10.1708
10.4904
10.8014
11.1034
11.3961
11.6792
11.9523
12.2151
12.4673
12.7088
12.9391
13.1581
13.3655
13.5611
13.7446
13.9159
14.0748
14.2211
14.3545
14.4751
14.5825
14.6768
14.7578
14.8255
14.8797
14.9204
14.9475
14.9611
-7.57376
-7.61465
-7.64933
-7.67688
-7.69664
-7.70808
-7.71071
-7.70405
-7.68769
-7.66122
-7.62433
-7.57671
-7.51813
-7.44838
-7.36732
-7.27482
-7.17083
-7.0553
-6.9282
-6.78953
-6.63931
-6.47763
-6.30459
-6.12032
-5.92498
-5.71877
-5.50188
-5.27455
-5.03702
-4.78957
-4.53247
-4.26603
-3.99057
-3.70641
-3.41389
-3.11337
-2.80521
-2.48979
-2.16749
-1.83871
-1.50384
-1.1633
-0.817497
-0.466849
-0.111781
0.247277
0.609892
0.97563
1.34405
1.71472
2.08719
2.46102
2.83576
3.21098
3.58623
3.96107
4.33506
4.70776
5.07874
5.44756
5.8138
6.17703
6.53682
6.89278
7.24447
7.59151
7.93348
8.27
8.60069
8.92516
9.24304
9.55397
9.8576
10.1536
10.4416
10.7213
10.9924
11.2546
11.5075
11.751
11.9847
12.2083
12.4217
12.6246
12.8168
12.998
13.1681
13.3268
13.474
13.6096
13.7333
13.845
13.9446
14.032
14.1071
14.1699
14.2201
14.2579
14.283
14.2956
-7.01573
-7.03815
-7.05544
-7.06646
-7.07057
-7.06732
-7.05627
-7.03702
-7.00917
-6.97238
-6.92635
-6.87079
-6.80547
-6.73018
-6.64476
-6.54906
-6.443
-6.32651
-6.19959
-6.06224
-5.91453
-5.75652
-5.58831
-5.41003
-5.22183
-5.02387
-4.81634
-4.59945
-4.37342
-4.13849
-3.89491
-3.64295
-3.3829
-3.11505
-2.8397
-2.55718
-2.2678
-1.97191
-1.66986
-1.36199
-1.04867
-0.730268
-0.407158
-0.0797204
0.251659
0.586592
0.924684
1.26554
1.60876
1.95394
2.30067
2.64856
2.9972
3.34619
3.69511
4.04356
4.39115
4.73746
5.08211
5.42469
5.7648
6.10207
6.43611
6.76652
7.09294
7.41499
7.73231
8.04454
8.35132
8.6523
8.94715
9.23553
9.51712
9.7916
10.0587
10.318
10.5694
10.8124
11.0469
11.2726
11.4893
11.6966
11.8944
12.0824
12.2605
12.4285
12.5861
12.7331
12.8695
12.9951
13.1097
13.2132
13.3055
13.3864
13.456
13.5141
13.5606
13.5956
13.6189
13.6306
-6.46812
-6.47505
-6.47701
-6.47309
-6.46276
-6.44569
-6.42156
-6.39005
-6.35087
-6.30376
-6.24847
-6.18479
-6.11253
-6.03154
-5.94168
-5.84286
-5.735
-5.61805
-5.49197
-5.35676
-5.21244
-5.05907
-4.8967
-4.72543
-4.54537
-4.35667
-4.15946
-3.95393
-3.74025
-3.51863
-3.2893
-3.05248
-2.80841
-2.55737
-2.29961
-2.03541
-1.76508
-1.4889
-1.20719
-0.920272
-0.62846
-0.33209
-0.0314997
0.272967
0.580962
0.892132
1.20612
1.52257
1.84111
2.16137
2.483
2.80563
3.12887
3.45237
3.77575
4.09864
4.42068
4.74149
5.06071
5.37798
5.69294
6.00522
6.31448
6.62036
6.92252
7.22061
7.51431
7.80327
8.08718
8.36571
8.63855
8.90539
9.16594
9.41991
9.66701
9.90697
10.1395
10.3644
10.5814
10.7902
10.9906
11.1824
11.3654
11.5393
11.7041
11.8594
12.0052
12.1412
12.2674
12.3836
12.4896
12.5853
12.6707
12.7456
12.8099
12.8637
12.9067
12.9391
12.9606
12.9714
-5.96989
-5.96418
-5.95413
-5.93875
-5.91756
-5.89028
-5.85664
-5.81639
-5.76926
-5.71505
-5.65354
-5.58454
-5.50791
-5.42349
-5.33117
-5.23086
-5.12248
-5.006
-4.88138
-4.74864
-4.6078
-4.45888
-4.30197
-4.13714
-3.96449
-3.78413
-3.5962
-3.40086
-3.19826
-2.98858
-2.77202
-2.54879
-2.31909
-2.08317
-1.84126
-1.59361
-1.34048
-1.08214
-0.818866
-0.550947
-0.278673
-0.00234168
0.277741
0.561266
0.847918
1.13738
1.42932
1.72342
2.01935
2.31677
2.61535
2.91476
3.21465
3.5147
3.81456
4.1139
4.41237
4.70965
5.0054
5.29928
5.59098
5.88015
6.16648
6.44965
6.72933
7.00522
7.27701
7.54439
7.80707
8.06474
8.31714
8.56397
8.80497
9.03985
9.26838
9.49028
9.70532
9.91326
10.1139
10.3069
10.4922
10.6695
10.8387
10.9995
11.1518
11.2954
11.4302
11.5559
11.6725
11.7799
11.8778
11.9663
12.0452
12.1144
12.1739
12.2236
12.2634
12.2932
12.3132
12.3231
-5.49906
-5.48308
-5.4631
-5.43821
-5.40797
-5.37216
-5.33057
-5.28301
-5.22926
-5.16916
-5.10254
-5.02925
-4.94917
-4.86218
-4.76819
-4.66714
-4.55895
-4.44359
-4.32104
-4.19131
-4.05439
-3.91034
-3.7592
-3.60104
-3.43594
-3.26401
-3.08536
-2.90011
-2.70842
-2.51044
-2.30633
-2.09628
-1.88049
-1.65915
-1.43247
-1.20069
-0.964032
-0.722734
-0.477047
-0.227226
0.0264663
0.283761
0.544384
0.808056
1.07449
1.3434
1.6145
1.88748
2.16204
2.4379
2.71474
2.99225
3.27014
3.54809
3.82579
4.10295
4.37925
4.65439
4.92805
5.19995
5.46977
5.73723
6.00201
6.26383
6.52241
6.77744
7.02866
7.27578
7.51852
7.75663
7.98984
8.2179
8.44054
8.65753
8.86862
9.07359
9.27221
9.46427
9.64954
9.82783
9.99895
10.1627
10.3189
10.4674
10.608
10.7406
10.865
10.9811
11.0888
11.1879
11.2784
11.36
11.4329
11.4968
11.5517
11.5975
11.6343
11.6618
11.6802
11.6894
-5.064
-5.03961
-5.01169
-4.97929
-4.942
-4.89964
-4.85205
-4.79905
-4.74048
-4.67621
-4.60608
-4.52999
-4.44782
-4.35949
-4.26491
-4.16403
-4.0568
-3.94318
-3.82318
-3.69678
-3.564
-3.42489
-3.27947
-3.12782
-2.97002
-2.80614
-2.63629
-2.46059
-2.27916
-2.09215
-1.8997
-1.70197
-1.49914
-1.29138
-1.07889
-0.861863
-0.640509
-0.415043
-0.185688
0.0473286
0.28377
0.523394
0.765954
1.0112
1.25887
1.50871
1.76045
2.01382
2.26855
2.52438
2.78102
3.0382
3.29564
3.55306
3.81018
4.06673
4.32242
4.57697
4.83011
5.08156
5.33104
5.57829
5.82303
6.065
6.30393
6.53955
6.77162
6.99988
7.22408
7.44396
7.65931
7.86987
8.07542
8.27573
8.47059
8.65978
8.8431
9.02035
9.19133
9.35586
9.51376
9.66486
9.80899
9.94599
10.0757
10.1981
10.3128
10.4199
10.5193
10.6107
10.6941
10.7695
10.8366
10.8956
10.9462
10.9885
11.0224
11.0478
11.0648
11.0733
-4.65795
-4.62684
-4.59256
-4.55419
-4.51132
-4.46382
-4.41156
-4.3544
-4.29222
-4.2249
-4.15232
-4.07439
-3.99104
-3.90217
-3.80774
-3.7077
-3.60201
-3.49065
-3.3736
-3.25088
-3.1225
-2.9885
-2.8489
-2.70378
-2.55319
-2.39721
-2.23594
-2.06949
-1.89795
-1.72146
-1.54014
-1.35415
-1.16363
-0.968754
-0.769679
-0.566589
-0.359669
-0.149111
0.0648845
0.282112
0.50236
0.72541
0.95104
1.17902
1.40913
1.64112
1.87476
2.1098
2.346
2.58312
2.8209
3.05909
3.29744
3.5357
3.77361
4.01092
4.24738
4.48273
4.71673
4.94911
5.17962
5.40803
5.63409
5.85754
6.07816
6.29569
6.50991
6.72059
6.92749
7.1304
7.32909
7.52335
7.71296
7.89774
8.07746
8.25195
8.42101
8.58446
8.74212
8.89382
9.0394
9.1787
9.31157
9.43788
9.55747
9.67022
9.77602
9.87474
9.96628
10.0505
10.1274
10.1969
10.2588
10.3131
10.3598
10.3988
10.43
10.4534
10.4691
10.4769
-4.28182
-4.24534
-4.20605
-4.16304
-4.11591
-4.06455
-4.00887
-3.94876
-3.8841
-3.8148
-3.74078
-3.66196
-3.57827
-3.48965
-3.39606
-3.29745
-3.19381
-3.08512
-2.97137
-2.85257
-2.72874
-2.5999
-2.46611
-2.32741
-2.18386
-2.03554
-1.88252
-1.7249
-1.56278
-1.39628
-1.2255
-1.05058
-0.871662
-0.688882
-0.502396
-0.312362
-0.118948
0.0776734
0.277323
0.479815
0.68496
0.892562
1.10242
1.31433
1.52808
1.74346
1.96026
2.17826
2.39722
2.61694
2.83719
3.05773
3.27834
3.49879
3.71885
3.9383
4.15689
4.3744
4.5906
4.80527
5.01816
5.22907
5.43776
5.64402
5.84762
6.04834
6.24598
6.44032
6.63116
6.81828
7.0015
7.18061
7.35542
7.52575
7.69142
7.85224
8.00804
8.15866
8.30394
8.44372
8.57785
8.70619
8.8286
8.94495
9.05511
9.15897
9.25642
9.34735
9.43166
9.50926
9.58008
9.64403
9.70105
9.75107
9.79405
9.82993
9.85869
9.88027
9.89468
9.90188
-3.93271
-3.89205
-3.84889
-3.80234
-3.75203
-3.69785
-3.63975
-3.57761
-3.51138
-3.44095
-3.36628
-3.28728
-3.20392
-3.11615
-3.02393
-2.92724
-2.82605
-2.72036
-2.61017
-2.49548
-2.37633
-2.25273
-2.12473
-1.99238
-1.85573
-1.71484
-1.56979
-1.42067
-1.26757
-1.11059
-0.949828
-0.785408
-0.617453
-0.446091
-0.27146
-0.0937027
0.0870302
0.270584
0.456796
0.645501
0.836528
1.0297
1.22483
1.42175
1.62026
1.82016
2.02128
2.2234
2.42632
2.62985
2.83379
3.03792
3.24204
3.44594
3.64941
3.85225
4.05424
4.25518
4.45486
4.65307
4.8496
5.04426
5.23683
5.42711
5.61491
5.80003
5.98228
6.16145
6.33737
6.50985
6.6787
6.84375
7.00482
7.16174
7.31435
7.46249
7.60599
7.7447
7.87849
8.0072
8.13071
8.24887
8.36156
8.46868
8.57009
8.66569
8.75539
8.83908
8.91668
8.98811
9.05328
9.11214
9.16461
9.21065
9.2502
9.28322
9.30968
9.32954
9.3428
9.34942
-3.6097
-3.56583
-3.51977
-3.47063
-3.41804
-3.36193
-3.30224
-3.23891
-3.17186
-3.10103
-3.02637
-2.94783
-2.86537
-2.77895
-2.68856
-2.59416
-2.49575
-2.39332
-2.28688
-2.17645
-2.06204
-1.94369
-1.82142
-1.69529
-1.56535
-1.43166
-1.29428
-1.1533
-1.0088
-0.86087
-0.709604
-0.555108
-0.397494
-0.23688
-0.0733884
0.0928514
0.261704
0.43303
0.606684
0.782515
0.96037
1.14009
1.32151
1.50446
1.68879
1.8743
2.06083
2.2482
2.43622
2.62472
2.81351
3.00241
3.19122
3.37977
3.56785
3.75529
3.94189
4.12746
4.31182
4.49477
4.67614
4.85573
5.03336
5.20885
5.38201
5.55267
5.72064
5.88577
6.04786
6.20677
6.36231
6.51433
6.66267
6.80717
6.94768
7.08406
7.21616
7.34385
7.46699
7.58545
7.6991
7.80784
7.91153
8.01008
8.10339
8.19134
8.27386
8.35085
8.42223
8.48793
8.54788
8.60201
8.65027
8.69261
8.72899
8.75936
8.78369
8.80196
8.81415
8.82024
-3.31092
-3.2647
-3.21654
-3.1656
-3.1115
-3.05419
-2.99363
-2.92976
-2.86253
-2.79189
-2.71779
-2.6402
-2.55909
-2.47443
-2.3862
-2.2944
-2.19902
-2.10005
-1.99751
-1.89142
-1.78178
-1.66864
-1.55203
-1.432
-1.30858
-1.18185
-1.05185
-0.918669
-0.782375
-0.643053
-0.50079
-0.355682
-0.207829
-0.0573369
0.0956819
0.251111
0.408829
0.568709
0.73062
0.894427
1.05999
1.22717
1.39581
1.56577
1.73689
1.90902
2.082
2.25566
2.42985
2.6044
2.77913
2.9539
3.12852
3.30282
3.47664
3.64981
3.82214
3.99348
4.16365
4.33247
4.49979
4.66543
4.82923
4.99102
5.15063
5.3079
5.46267
5.61479
5.7641
5.91044
6.05366
6.19363
6.33018
6.46319
6.59251
6.71802
6.83957
6.95705
7.07034
7.17931
7.28385
7.38386
7.47923
7.56986
7.65566
7.73654
7.81241
7.8832
7.94883
8.00923
8.06435
8.11411
8.15848
8.1974
8.23084
8.25875
8.28112
8.29792
8.30912
8.31472
-3.03508
-2.9872
-2.93764
-2.88556
-2.83059
-2.77269
-2.71184
-2.64799
-2.5811
-2.51112
-2.43803
-2.3618
-2.28241
-2.19983
-2.11406
-2.02509
-1.93291
-1.83754
-1.73899
-1.63727
-1.53241
-1.42443
-1.31336
-1.19926
-1.08217
-0.962139
-0.839226
-0.713496
-0.585021
-0.453874
-0.320138
-0.183899
-0.0452472
0.0957204
0.238903
0.384194
0.531485
0.68066
0.831602
0.984187
1.13829
1.29378
1.45053
1.6084
1.76726
1.92695
2.08734
2.24829
2.40964
2.57125
2.73296
2.89463
3.0561
3.21722
3.37783
3.53778
3.69692
3.85508
4.01212
4.16788
4.32221
4.47495
4.62595
4.77507
4.92215
5.06705
5.20962
5.34972
5.4872
5.62193
5.75378
5.8826
6.00827
6.13065
6.24963
6.36509
6.4769
6.58495
6.68913
6.78934
6.88547
6.97742
7.0651
7.14841
7.22728
7.30162
7.37136
7.43642
7.49673
7.55224
7.60289
7.64862
7.68938
7.72515
7.75587
7.78152
7.80207
7.8175
7.8278
7.83294
-2.78065
-2.73172
-2.68133
-2.62866
-2.57336
-2.51539
-2.45473
-2.39135
-2.32522
-2.25631
-2.18458
-2.11004
-2.03264
-1.9524
-1.86929
-1.78332
-1.69448
-1.6028
-1.50828
-1.41094
-1.3108
-1.20789
-1.10226
-0.993923
-0.882941
-0.769359
-0.653231
-0.534617
-0.413582
-0.290194
-0.164529
-0.0366645
0.0933162
0.225326
0.359272
0.495059
0.632587
0.771754
0.91245
1.05457
1.19799
1.3426
1.48829
1.63492
1.78237
1.93052
2.07923
2.22838
2.37783
2.52745
2.6771
2.82664
2.97594
3.12485
3.27324
3.42097
3.5679
3.71389
3.85879
4.00247
4.14479
4.28562
4.42481
4.56222
4.69773
4.83121
4.96251
5.0915
5.21807
5.34209
5.46343
5.58197
5.69758
5.81017
5.91961
6.02579
6.12861
6.22796
6.32374
6.41586
6.50422
6.58874
6.66932
6.74589
6.81836
6.88667
6.95074
7.01052
7.06593
7.11692
7.16345
7.20546
7.24291
7.27576
7.30398
7.32754
7.34641
7.36058
7.37004
7.37477
-2.54631
-2.49683
-2.44609
-2.3933
-2.3381
-2.28047
-2.2204
-2.15787
-2.09284
-2.02531
-1.95524
-1.88263
-1.80746
-1.72973
-1.64944
-1.56659
-1.48118
-1.39323
-1.30274
-1.20975
-1.11427
-1.01633
-0.91597
-0.813222
-0.708128
-0.600736
-0.491097
-0.379265
-0.265301
-0.149268
-0.0312334
0.0887298
0.210546
0.334136
0.459415
0.586298
0.714693
0.844506
0.975641
1.108
1.24147
1.37596
1.51135
1.64754
1.78441
1.92184
2.05972
2.19793
2.33636
2.47487
2.61335
2.75167
2.88971
3.02734
3.16443
3.30087
3.43652
3.57125
3.70495
3.83748
3.96872
4.09854
4.22683
4.35345
4.47829
4.60122
4.72212
4.84088
4.95739
5.07152
5.18317
5.29223
5.39859
5.50214
5.60278
5.70041
5.79494
5.88628
5.97432
6.05898
6.14019
6.21785
6.29189
6.36224
6.42882
6.49157
6.55043
6.60533
6.65623
6.70306
6.74579
6.78437
6.81876
6.84893
6.87484
6.89647
6.91381
6.92682
6.9355
6.93984
-2.33069
-2.28109
-2.23041
-2.17787
-2.12314
-2.0662
-2.00705
-1.94566
-1.88202
-1.81611
-1.74792
-1.67744
-1.60466
-1.52959
-1.45222
-1.37256
-1.29061
-1.2064
-1.11993
-1.03122
-0.94031
-0.847215
-0.751971
-0.654613
-0.555181
-0.453718
-0.350273
-0.244897
-0.137644
-0.0285741
0.082251
0.194765
0.308899
0.42458
0.541732
0.660275
0.780128
0.901205
1.02342
1.14668
1.27089
1.39596
1.52178
1.64827
1.77531
1.90281
2.03065
2.15873
2.28694
2.41518
2.54332
2.67126
2.79889
2.9261
3.05276
3.17876
3.304
3.42835
3.5517
3.67395
3.79496
3.91464
4.03287
4.14954
4.26453
4.37775
4.48908
4.59841
4.70564
4.81067
4.9134
5.01372
5.11155
5.20678
5.29932
5.38908
5.47598
5.55993
5.64085
5.71865
5.79327
5.86462
5.93264
5.99727
6.05843
6.11606
6.17012
6.22054
6.26728
6.31028
6.34952
6.38494
6.41652
6.44421
6.468
6.48786
6.50378
6.51572
6.52369
6.52768
-2.13256
-2.08319
-2.03289
-1.98093
-1.92697
-1.87099
-1.81301
-1.753
-1.69096
-1.62687
-1.56073
-1.49253
-1.42226
-1.34993
-1.27555
-1.19911
-1.12064
-1.04014
-0.957631
-0.873137
-0.786678
-0.698284
-0.607986
-0.515816
-0.421814
-0.326019
-0.228477
-0.129236
-0.0283457
0.0741387
0.17816
0.283658
0.390569
0.498826
0.60836
0.719098
0.830967
0.943888
1.05778
1.17257
1.28816
1.40447
1.5214
1.63888
1.75681
1.87509
1.99363
2.11233
2.23109
2.34982
2.46841
2.58676
2.70477
2.82234
2.93937
3.05575
3.17137
3.28615
3.39997
3.51272
3.62432
3.73465
3.84361
3.95111
4.05704
4.16131
4.26382
4.36447
4.46316
4.55981
4.65433
4.74662
4.83659
4.92416
5.00925
5.09178
5.17166
5.24882
5.32318
5.39467
5.46323
5.52878
5.59127
5.65063
5.7068
5.75973
5.80937
5.85568
5.89859
5.93808
5.9741
6.00662
6.03561
6.06103
6.08287
6.10111
6.11571
6.12668
6.134
6.13765
-1.95069
-1.90184
-1.85221
-1.80107
-1.74811
-1.69333
-1.63673
-1.57829
-1.51802
-1.45589
-1.39192
-1.32609
-1.25841
-1.18888
-1.11751
-1.04431
-0.969287
-0.892456
-0.813838
-0.733452
-0.651323
-0.567476
-0.481943
-0.394755
-0.305948
-0.215562
-0.123637
-0.0302175
0.0646484
0.160911
0.258517
0.357411
0.457535
0.558828
0.661226
0.764664
0.869073
0.974383
1.08052
1.18741
1.29498
1.40315
1.51184
1.62096
1.73043
1.84017
1.95009
2.06011
2.17013
2.28006
2.38982
2.49931
2.60844
2.71712
2.82526
2.93276
3.03952
3.14547
3.25049
3.35451
3.45743
3.55914
3.65958
3.75864
3.85623
3.95226
4.04665
4.13931
4.23016
4.3191
4.40607
4.49096
4.57372
4.65426
4.7325
4.80836
4.88179
4.95271
5.02105
5.08674
5.14973
5.20996
5.26736
5.32188
5.37347
5.42209
5.46767
5.51019
5.54959
5.58585
5.61892
5.64877
5.67538
5.69873
5.71877
5.73551
5.74892
5.75898
5.7657
5.76905
-1.78393
-1.73585
-1.6871
-1.637
-1.58524
-1.53182
-1.47675
-1.42003
-1.36164
-1.30159
-1.23987
-1.17649
-1.11144
-1.04473
-0.97638
-0.906387
-0.834768
-0.761539
-0.686718
-0.610326
-0.532387
-0.452926
-0.371972
-0.289556
-0.205712
-0.120475
-0.0338858
0.0540152
0.143184
0.233574
0.325137
0.417821
0.511572
0.606336
0.702054
0.798666
0.896109
0.99432
1.09323
1.19278
1.29289
1.39349
1.49451
1.59588
1.69752
1.79935
1.90129
2.00327
2.1052
2.20701
2.30861
2.40992
2.51085
2.61133
2.71127
2.81058
2.90918
3.00698
3.10391
3.19988
3.2948
3.3886
3.48118
3.57247
3.66239
3.75085
3.83778
3.92309
4.00672
4.08858
4.16861
4.24671
4.32284
4.39691
4.46885
4.53861
4.60611
4.6713
4.73411
4.79448
4.85236
4.90769
4.96042
5.0105
5.05789
5.10254
5.1444
5.18344
5.21962
5.25291
5.28328
5.31069
5.33512
5.35654
5.37495
5.39031
5.40262
5.41186
5.41802
5.4211
-1.63121
-1.58408
-1.53638
-1.48748
-1.43707
-1.38516
-1.33175
-1.27684
-1.22043
-1.16252
-1.10311
-1.0422
-0.979798
-0.915911
-0.850549
-0.783722
-0.715445
-0.645733
-0.574605
-0.502082
-0.428186
-0.352941
-0.276377
-0.198521
-0.119407
-0.0390672
0.0424607
0.125138
0.208925
0.293779
0.379653
0.466501
0.554274
0.642921
0.732388
0.822621
0.913563
1.00515
1.09734
1.19005
1.28322
1.3768
1.47071
1.56488
1.65926
1.75376
1.84832
1.94287
2.03733
2.13162
2.22569
2.31944
2.41281
2.50572
2.5981
2.68986
2.78094
2.87125
2.96072
3.04928
3.13685
3.22335
3.30871
3.39286
3.47572
3.55722
3.63729
3.71586
3.79286
3.86821
3.94186
4.01373
4.08377
4.1519
4.21807
4.28222
4.34428
4.4042
4.46194
4.51742
4.57061
4.62145
4.6699
4.71591
4.75944
4.80045
4.8389
4.87476
4.90798
4.93855
4.96643
4.9916
5.01403
5.0337
5.0506
5.0647
5.076
5.08448
5.09014
5.09297
-1.49147
-1.44545
-1.39896
-1.35138
-1.30243
-1.25212
-1.20045
-1.14743
-1.09306
-1.03733
-0.980254
-0.921831
-0.862069
-0.800976
-0.738563
-0.674843
-0.609828
-0.543537
-0.475986
-0.407196
-0.337189
-0.265989
-0.193623
-0.120117
-0.0455032
0.0301874
0.10692
0.18466
0.263369
0.343006
0.42353
0.504899
0.587066
0.669985
0.753606
0.837881
0.922757
1.00818
1.0941
1.18045
1.26718
1.35423
1.44154
1.52905
1.61669
1.70441
1.79214
1.87981
1.96736
2.05472
2.14183
2.22861
2.315
2.40094
2.48634
2.57115
2.6553
2.73871
2.82132
2.90306
2.98386
3.06366
3.14238
3.21996
3.29634
3.37145
3.44521
3.51758
3.58849
3.65787
3.72566
3.79181
3.85626
3.91894
3.97981
4.03881
4.09589
4.15099
4.20406
4.25507
4.30396
4.35068
4.3952
4.43748
4.47747
4.51515
4.55047
4.5834
4.61392
4.642
4.6676
4.69071
4.71131
4.72937
4.74489
4.75784
4.76821
4.776
4.78119
4.78379
-1.36375
-1.31896
-1.27377
-1.22762
-1.18022
-1.13158
-1.08171
-1.03063
-0.97832
-0.924794
-0.870053
-0.814103
-0.756953
-0.698612
-0.639091
-0.578402
-0.51656
-0.453582
-0.389484
-0.324287
-0.258012
-0.190681
-0.122321
-0.0529579
0.0173807
0.0886641
0.160861
0.233937
0.307858
0.382586
0.458083
0.53431
0.611223
0.688782
0.76694
0.845651
0.924869
1.00454
1.08463
1.16507
1.24581
1.3268
1.40799
1.48932
1.57073
1.65217
1.73358
1.81489
1.89606
1.97701
2.05769
2.13805
2.218
2.2975
2.37649
2.45489
2.53266
2.60972
2.68601
2.76148
2.83606
2.90969
2.98231
3.05386
3.12428
3.19351
3.26149
3.32817
3.39348
3.45738
3.5198
3.5807
3.64002
3.69771
3.75371
3.80799
3.86049
3.91117
3.95998
4.00688
4.05182
4.09477
4.1357
4.17455
4.21131
4.24592
4.27838
4.30864
4.33667
4.36246
4.38598
4.40721
4.42613
4.44272
4.45697
4.46886
4.47839
4.48554
4.49031
4.4927
-1.24713
-1.20366
-1.15986
-1.1152
-1.0694
-1.02248
-0.974454
-0.925325
-0.875094
-0.823766
-0.771347
-0.717843
-0.663263
-0.607616
-0.550916
-0.493174
-0.434404
-0.374624
-0.313849
-0.2521
-0.189397
-0.125762
-0.061219
0.00420741
0.0704902
0.137601
0.205511
0.274187
0.343599
0.41371
0.484487
0.555891
0.627885
0.700429
0.773483
0.847003
0.920946
0.995269
1.06992
1.14487
1.22005
1.29542
1.37093
1.44653
1.52217
1.5978
1.67336
1.7488
1.82406
1.8991
1.97385
2.04827
2.12229
2.19587
2.26893
2.34144
2.41333
2.48454
2.55503
2.62473
2.69359
2.76155
2.82856
2.89456
2.95951
3.02335
3.08602
3.14747
3.20765
3.26652
3.32401
3.38009
3.43471
3.48781
3.53936
3.58931
3.63762
3.68424
3.72914
3.77228
3.81361
3.85311
3.89073
3.92645
3.96024
3.99206
4.02189
4.0497
4.07546
4.09916
4.12077
4.14028
4.15766
4.1729
4.18599
4.19692
4.20567
4.21224
4.21662
4.21881
-1.14075
-1.09867
-1.05631
-1.01318
-0.969024
-0.923851
-0.877678
-0.830509
-0.782349
-0.733201
-0.683073
-0.631971
-0.579906
-0.526887
-0.472927
-0.418038
-0.362234
-0.305532
-0.247948
-0.189501
-0.13021
-0.0700964
-0.00918305
0.0525066
0.114947
0.178113
0.241975
0.306505
0.371673
0.437447
0.503793
0.570678
0.638067
0.705923
0.774209
0.842885
0.911913
0.981251
1.05086
1.12069
1.19071
1.26086
1.33111
1.4014
1.47169
1.54194
1.61209
1.6821
1.75192
1.82149
1.89078
1.95972
2.02827
2.09638
2.164
2.23107
2.29755
2.36339
2.42853
2.49292
2.55652
2.61927
2.68113
2.74204
2.80197
2.86085
2.91864
2.9753
3.03077
3.08502
3.138
3.18966
3.23997
3.28887
3.33634
3.38232
3.42678
3.46969
3.51101
3.55069
3.58872
3.62505
3.65966
3.69251
3.72358
3.75283
3.78026
3.80582
3.82951
3.85129
3.87116
3.88908
3.90506
3.91907
3.93109
3.94113
3.94918
3.95521
3.95924
3.96125
-1.04379
-1.00314
-0.962266
-0.920698
-0.878203
-0.834786
-0.790465
-0.745247
-0.699135
-0.652136
-0.604255
-0.555503
-0.505888
-0.45542
-0.404112
-0.351977
-0.299028
-0.245281
-0.190752
-0.135459
-0.0794214
-0.0226587
0.0348079
0.0929557
0.151761
0.2112
0.271246
0.331871
0.393048
0.454748
0.51694
0.579592
0.642672
0.706147
0.769982
0.834141
0.898589
0.963287
1.0282
1.09328
1.1585
1.22382
1.28918
1.35456
1.4199
1.48517
1.55032
1.61531
1.6801
1.74463
1.80886
1.87276
1.93626
1.99934
2.06193
2.124
2.18551
2.24639
2.30661
2.36613
2.42489
2.48286
2.53998
2.59622
2.65153
2.70586
2.75918
2.81143
2.86259
2.91261
2.96144
3.00905
3.0554
3.10046
3.14418
3.18653
3.22747
3.26697
3.30501
3.34154
3.37653
3.40997
3.44181
3.47203
3.50061
3.52753
3.55275
3.57626
3.59804
3.61807
3.63634
3.65282
3.66751
3.68039
3.69145
3.70068
3.70807
3.71362
3.71732
3.71917
-0.955513
-0.916322
-0.876944
-0.836951
-0.796118
-0.75445
-0.711967
-0.668675
-0.624579
-0.579685
-0.534
-0.487534
-0.440297
-0.392297
-0.343549
-0.294063
-0.243855
-0.192938
-0.141329
-0.0890452
-0.0361037
0.0174761
0.0716741
0.126469
0.181839
0.237761
0.29421
0.351162
0.408589
0.466466
0.524763
0.583452
0.642503
0.701885
0.761566
0.821514
0.881696
0.942076
1.00262
1.06329
1.12406
1.18488
1.24572
1.30654
1.36731
1.42797
1.4885
1.54885
1.60898
1.66886
1.72843
1.78767
1.84653
1.90496
1.96293
2.02039
2.07731
2.13364
2.18934
2.24437
2.29869
2.35226
2.40504
2.45698
2.50805
2.55821
2.60741
2.65563
2.70283
2.74896
2.79399
2.83789
2.88062
2.92215
2.96243
3.00145
3.03917
3.07556
3.11059
3.14422
3.17644
3.20722
3.23653
3.26435
3.29066
3.31542
3.33863
3.36027
3.38031
3.39873
3.41554
3.4307
3.44421
3.45605
3.46622
3.47471
3.48151
3.48662
3.49002
3.49172
-0.875199
-0.83748
-0.799608
-0.761187
-0.722006
-0.682071
-0.6414
-0.6
-0.557877
-0.515037
-0.471489
-0.42724
-0.382302
-0.336684
-0.290398
-0.243456
-0.195873
-0.147662
-0.0988378
-0.0494178
0.000581387
0.0511417
0.102244
0.153869
0.205995
0.258601
0.311664
0.365161
0.419068
0.473359
0.528008
0.582988
0.638272
0.693832
0.749638
0.80566
0.861868
0.918231
0.974716
1.03129
1.08792
1.14458
1.20123
1.25782
1.31434
1.37075
1.427
1.48306
1.5389
1.59447
1.64975
1.70469
1.75926
1.81342
1.86713
1.92035
1.97305
2.02519
2.07673
2.12764
2.17787
2.2274
2.27618
2.32417
2.37135
2.41768
2.46312
2.50763
2.55119
2.59376
2.63531
2.6758
2.71521
2.7535
2.79064
2.82661
2.86138
2.89491
2.92718
2.95817
2.98785
3.0162
3.0432
3.06881
3.09303
3.11583
3.1372
3.15712
3.17556
3.19252
3.20799
3.22194
3.23437
3.24527
3.25463
3.26244
3.2687
3.27339
3.27653
3.27809
-0.802196
-0.76595
-0.729577
-0.692716
-0.655168
-0.616937
-0.578044
-0.538494
-0.498294
-0.45745
-0.415972
-0.373867
-0.331146
-0.287818
-0.243896
-0.199391
-0.154317
-0.108686
-0.0625149
-0.0158176
0.0313893
0.0790887
0.127263
0.175893
0.224959
0.274442
0.32432
0.374571
0.425172
0.476102
0.527334
0.578845
0.630609
0.6826
0.734791
0.787155
0.839664
0.892288
0.945
0.997768
1.05056
1.10335
1.15611
1.2088
1.26139
1.31385
1.36615
1.41825
1.47012
1.52173
1.57304
1.62401
1.67463
1.72485
1.77463
1.82395
1.87276
1.92105
1.96876
2.01587
2.06235
2.10816
2.15327
2.19764
2.24125
2.28405
2.32603
2.36715
2.40737
2.44668
2.48503
2.5224
2.55876
2.59409
2.62835
2.66152
2.69358
2.7245
2.75425
2.78281
2.81017
2.83629
2.86117
2.88477
2.90708
2.92808
2.94776
2.96611
2.98309
2.99871
3.01295
3.0258
3.03725
3.04728
3.0559
3.06309
3.06885
3.07317
3.07605
3.0775
-0.735894
-0.701109
-0.666221
-0.630898
-0.594953
-0.558393
-0.521235
-0.483486
-0.445153
-0.406244
-0.366765
-0.326726
-0.286137
-0.245008
-0.20335
-0.161175
-0.118494
-0.0753221
-0.0316725
0.0124402
0.0570005
0.101992
0.147399
0.193202
0.239385
0.285927
0.33281
0.380013
0.427515
0.475294
0.523328
0.571595
0.620071
0.668731
0.717551
0.766506
0.815571
0.864718
0.913921
0.963153
1.01239
1.06159
1.11074
1.15981
1.20877
1.25758
1.30622
1.35465
1.40286
1.4508
1.49845
1.54577
1.59274
1.63932
1.68549
1.73121
1.77645
1.82118
1.86538
1.909
1.95202
1.99442
2.03615
2.07719
2.11752
2.1571
2.1959
2.2339
2.27106
2.30737
2.34279
2.3773
2.41087
2.44347
2.4751
2.50571
2.53528