/*--------------------------------*- C++ -*----------------------------------*\
  =========                 |
  \\      /  F ield         | OpenFOAM: The Open Source CFD Toolbox
   \\    /   O peration     | Website:  https://openfoam.org
    \\  /    A nd           | Version:  8
     \\/     M anipulation  |
\*---------------------------------------------------------------------------*/
FoamFile
{
    version     2.0;
    format      ascii;
    class       volVectorField;
    location    "1.47655";
    object      U;
}
// * * * * * * * * * * * * * * * * * * * * * * * * * * * * * * * * * * * * * //

dimensions      [0 1 -1 0 0 0 0];

internalField   nonuniform List<vector> 
127200
(
(5.0462 -0.547831 1.2337e-18)
(5.24308 -0.638602 -2.96158e-19)
(5.42856 -0.734347 -6.18659e-19)
(5.60022 -0.833537 -1.64407e-18)
(5.75837 -0.935829 -1.78648e-18)
(5.90306 -1.04072 1.70466e-18)
(6.03449 -1.14771 1.3124e-18)
(6.15286 -1.25633 4.4746e-19)
(6.25845 -1.36615 1.10938e-19)
(6.35157 -1.47675 -2.31249e-19)
(6.43255 -1.58773 1.21816e-19)
(6.50176 -1.6987 2.40082e-19)
(6.55956 -1.80928 2.21414e-19)
(6.6063 -1.91912 1.162e-19)
(6.64234 -2.0279 1.92471e-19)
(6.66804 -2.13534 -4.97102e-19)
(6.68374 -2.24117 6.17714e-20)
(6.6898 -2.34518 9.93485e-20)
(6.68653 -2.4472 5.23771e-19)
(6.67429 -2.54709 -2.37329e-19)
(6.65351 -2.64481 -5.64567e-19)
(6.62467 -2.74045 -1.84727e-19)
(6.58786 -2.83402 -5.8859e-19)
(6.54304 -2.92542 1.01961e-18)
(6.4925 -3.01544 1.36113e-18)
(6.43631 -3.10339 5.17297e-20)
(6.37518 -3.18908 -1.37747e-18)
(6.30951 -3.27227 -9.29804e-19)
(6.23963 -3.35281 3.57348e-20)
(6.1658 -3.43057 -7.22132e-21)
(6.08824 -3.5054 4.64677e-19)
(6.00717 -3.57721 -1.00036e-18)
(5.92276 -3.64588 -1.81752e-20)
(5.83518 -3.71133 1.24049e-18)
(5.7446 -3.77344 1.13647e-18)
(5.65117 -3.83215 4.9978e-19)
(5.55505 -3.88736 -7.42689e-19)
(5.4564 -3.93901 -1.05034e-20)
(5.35536 -3.98701 1.37444e-18)
(5.25209 -4.03131 6.32273e-19)
(5.14674 -4.07185 -1.91893e-18)
(5.03946 -4.10855 9.21238e-21)
(4.93039 -4.14139 1.44211e-18)
(4.8197 -4.17029 -1.96174e-18)
(4.70753 -4.19523 -1.52837e-18)
(4.59402 -4.21617 5.52372e-19)
(4.47933 -4.23306 -8.96208e-19)
(4.36362 -4.24589 -1.023e-18)
(4.24702 -4.25463 8.41938e-19)
(4.12968 -4.25926 2.52359e-20)
(4.01177 -4.25977 -2.54516e-20)
(3.89341 -4.25614 -2.60213e-18)
(3.77477 -4.24837 2.83803e-19)
(3.65599 -4.23647 2.53955e-18)
(3.53721 -4.22043 -1.11853e-18)
(3.41858 -4.20027 8.39597e-20)
(3.30025 -4.176 1.21856e-18)
(3.18235 -4.14763 2.92681e-18)
(3.06503 -4.1152 -4.44542e-19)
(2.94844 -4.07873 -2.92998e-18)
(2.8327 -4.03825 0)
(2.71796 -3.9938 -1.36717e-19)
(2.60435 -3.94541 9.02084e-19)
(2.49201 -3.89314 -9.62295e-19)
(2.38108 -3.83702 9.96818e-19)
(2.27168 -3.77712 9.32084e-19)
(2.16394 -3.71348 -9.94085e-19)
(2.058 -3.64617 -5.29935e-20)
(1.95398 -3.57525 -1.1288e-18)
(1.85201 -3.50079 9.35055e-20)
(1.75222 -3.42284 -1.00103e-18)
(1.65473 -3.34148 -2.05161e-18)
(1.55967 -3.25677 1.12594e-18)
(1.46718 -3.16878 2.09144e-18)
(1.37741 -3.07757 2.21682e-18)
(1.29048 -2.98319 1.05927e-18)
(1.20657 -2.88571 -2.20336e-18)
(1.12586 -2.78514 -3.83846e-20)
(1.04853 -2.68151 -5.44319e-20)
(0.974805 -2.57483 -1.16136e-18)
(0.904892 -2.46509 1.12133e-18)
(0.838916 -2.35233 2.2168e-18)
(0.776774 -2.23664 1.10501e-18)
(0.717957 -2.11835 -2.23052e-18)
(0.661646 -1.99806 -2.13769e-18)
(0.607424 -1.87637 3.38153e-20)
(0.555901 -1.75347 2.039e-18)
(0.508006 -1.62923 -1.05352e-18)
(0.464131 -1.50362 -3.11113e-18)
(0.424323 -1.37668 9.74896e-19)
(0.388587 -1.24848 9.53447e-19)
(0.356934 -1.11912 9.16052e-19)
(0.329386 -0.988698 -1.69702e-18)
(0.305965 -0.857365 7.21356e-19)
(0.286686 -0.725282 1.81002e-18)
(0.271546 -0.592648 -2.03708e-18)
(0.2605 -0.459701 2.64718e-21)
(0.253415 -0.326798 7.5655e-19)
(0.249892 -0.19471 5.7684e-19)
(0.248933 -0.064446 -3.36528e-20)
(7.14695 -0.566564 8.44602e-19)
(7.20594 -0.62322 6.91565e-19)
(7.25287 -0.683709 -1.00176e-18)
(7.28831 -0.747161 -1.30402e-18)
(7.31355 -0.813517 -1.47913e-18)
(7.32961 -0.882536 -7.76177e-19)
(7.33751 -0.953938 3.30042e-19)
(7.33814 -1.02746 6.66918e-19)
(7.33229 -1.1029 4.13911e-19)
(7.32062 -1.18009 1.85576e-19)
(7.30375 -1.25885 3.34421e-19)
(7.28219 -1.33899 4.79306e-19)
(7.25643 -1.42035 1.70284e-20)
(7.22691 -1.50278 1.93218e-19)
(7.19399 -1.58614 -6.72348e-20)
(7.15801 -1.67031 -5.01295e-19)
(7.11927 -1.7552 6.73407e-19)
(7.07802 -1.84074 -6.16793e-19)
(7.03444 -1.92692 2.8879e-19)
(6.98865 -2.01367 -8.85707e-19)
(6.94071 -2.10092 -9.69533e-19)
(6.89071 -2.18855 6.76427e-19)
(6.83875 -2.27684 1.12347e-18)
(6.78508 -2.36589 -8.54747e-21)
(6.7279 -2.45419 -1.1892e-18)
(6.6675 -2.54136 -5.771e-19)
(6.6036 -2.62693 -9.84109e-19)
(6.53618 -2.71059 -1.74703e-19)
(6.46525 -2.79208 3.50891e-19)
(6.39091 -2.8712 4.45131e-21)
(6.31323 -2.94776 8.41763e-19)
(6.23234 -3.02162 4.2141e-19)
(6.14835 -3.09266 1.47107e-19)
(6.0614 -3.16076 -4.67723e-19)
(5.97161 -3.2258 0)
(5.87912 -3.28769 -4.79373e-19)
(5.78406 -3.34635 -1.92155e-19)
(5.68658 -3.40168 9.13694e-19)
(5.5868 -3.4536 8.15603e-19)
(5.48486 -3.50205 -2.71664e-18)
(5.38091 -3.54696 -1.26897e-18)
(5.27508 -3.58826 2.98515e-18)
(5.16751 -3.62589 -1.36014e-18)
(5.05835 -3.65981 -1.64484e-18)
(4.94773 -3.68997 -1.86037e-19)
(4.83579 -3.71632 1.13138e-19)
(4.72268 -3.73883 -9.32095e-19)
(4.60854 -3.75746 -3.63508e-19)
(4.49351 -3.77218 1.96764e-18)
(4.37773 -3.78298 0)
(4.26135 -3.78983 -2.0373e-19)
(4.14451 -3.79271 -3.36808e-20)
(4.02734 -3.79163 -1.01179e-18)
(3.90999 -3.78656 -1.04084e-18)
(3.79261 -3.77752 1.19065e-18)
(3.67532 -3.7645 3.23329e-18)
(3.55827 -3.74752 7.96563e-19)
(3.44161 -3.72659 -3.75061e-18)
(3.32546 -3.70172 -8.6546e-19)
(3.20996 -3.67293 1.9835e-18)
(3.09526 -3.64026 -1.43054e-18)
(2.98147 -3.60373 -1.65629e-18)
(2.86874 -3.56337 2.4172e-18)
(2.7572 -3.51923 8.95627e-19)
(2.64697 -3.47135 -1.21133e-18)
(2.53819 -3.41977 5.36389e-19)
(2.43097 -3.36455 -1.79437e-19)
(2.32544 -3.30573 -5.37905e-20)
(2.22173 -3.24338 1.3602e-18)
(2.11995 -3.17756 6.52005e-19)
(2.02022 -3.10832 -6.33746e-19)
(1.92265 -3.03575 -5.99674e-19)
(1.82735 -2.95992 -1.86833e-18)
(1.73444 -2.8809 1.19322e-18)
(1.64402 -2.79878 6.16488e-19)
(1.5562 -2.71366 -1.18428e-18)
(1.47107 -2.62563 -6.31352e-19)
(1.38874 -2.53482 -1.71355e-18)
(1.30928 -2.44135 5.84318e-19)
(1.2328 -2.3454 1.6257e-18)
(1.15935 -2.24715 1.48179e-20)
(1.08901 -2.14681 3.1457e-20)
(1.02181 -2.0446 6.01451e-19)
(0.957789 -1.94061 1.07178e-19)
(0.89703 -1.83482 -1.09692e-19)
(0.839672 -1.72703 9.4149e-19)
(0.785902 -1.61714 4.34723e-19)
(0.735863 -1.50523 -8.67519e-19)
(0.689628 -1.3915 -6.94801e-19)
(0.647238 -1.27616 -1.29903e-19)
(0.60872 -1.1594 4.29052e-21)
(0.574101 -1.04138 0)
(0.543406 -0.922251 -1.46267e-19)
(0.516657 -0.802139 -7.35035e-19)
(0.493866 -0.681159 6.30735e-19)
(0.475029 -0.559403 1.81141e-19)
(0.460116 -0.436922 -8.60246e-19)
(0.449062 -0.313674 3.58723e-19)
(0.441776 -0.189364 6.17917e-19)
(0.438173 -0.0634254 2.6412e-19)
(6.834 -0.714857 -4.35398e-20)
(6.84174 -0.769375 2.40702e-20)
(6.84816 -0.828423 1.54888e-19)
(6.85315 -0.891606 3.73955e-19)
(6.85672 -0.958602 -2.08414e-20)
(6.85872 -1.02905 -4.17054e-19)
(6.859 -1.10259 -5.08827e-19)
(6.85738 -1.17884 2.31499e-20)
(6.85369 -1.25745 9.74795e-20)
(6.84776 -1.33807 5.46709e-20)
(6.83941 -1.4204 -3.27246e-19)
(6.82847 -1.50412 -2.7847e-20)
(6.81481 -1.58893 2.32087e-19)
(6.79828 -1.67456 4.98792e-21)
(6.77877 -1.76071 -3.8467e-20)
(6.75618 -1.8471 2.57704e-19)
(6.73043 -1.93345 -1.81061e-19)
(6.70147 -2.01944 -1.79892e-19)
(6.66925 -2.10478 3.51598e-19)
(6.63374 -2.18917 -1.57016e-19)
(6.5948 -2.2725 2.43805e-19)
(6.55226 -2.3545 1.41394e-19)
(6.50608 -2.43467 -9.66348e-19)
(6.45629 -2.51268 1.2055e-19)
(6.40297 -2.58851 5.41604e-20)
(6.34623 -2.66231 3.78649e-19)
(6.28616 -2.73408 -2.2107e-19)
(6.22285 -2.80375 1.82108e-19)
(6.15642 -2.87125 2.63541e-19)
(6.08696 -2.93648 8.58262e-19)
(6.0146 -2.99935 -2.7826e-19)
(5.93945 -3.05975 -1.4631e-18)
(5.86161 -3.11759 7.44491e-19)
(5.78122 -3.17278 6.2108e-19)
(5.69838 -3.22522 -9.21684e-19)
(5.61322 -3.27483 -1.79644e-20)
(5.52585 -3.32153 5.31559e-19)
(5.4364 -3.36525 -2.21962e-19)
(5.34498 -3.40592 -3.0428e-19)
(5.25173 -3.44347 2.57341e-19)
(5.15676 -3.47785 1.26568e-18)
(5.06019 -3.509 -3.67803e-19)
(4.96216 -3.53687 -1.68495e-18)
(4.86278 -3.56141 -6.03129e-19)
(4.76218 -3.58259 7.29691e-19)
(4.66049 -3.60037 4.28022e-20)
(4.55783 -3.61471 -2.05938e-18)
(4.45433 -3.62559 1.98693e-18)
(4.35011 -3.63298 1.74449e-18)
(4.2453 -3.63687 -1.60388e-18)
(4.14002 -3.63723 -9.53524e-21)
(4.0344 -3.63407 4.39205e-21)
(3.92857 -3.62736 8.67887e-19)
(3.82264 -3.61711 9.15307e-19)
(3.71675 -3.60333 -8.17173e-19)
(3.61101 -3.58601 4.13378e-19)
(3.50556 -3.56516 -1.24945e-19)
(3.40051 -3.54081 3.94636e-19)
(3.29598 -3.51296 4.99882e-19)
(3.19209 -3.48163 -1.8175e-18)
(3.08897 -3.44687 -2.20643e-18)
(2.98673 -3.40868 -2.90631e-20)
(2.88549 -3.36711 3.04413e-18)
(2.78536 -3.32218 8.96681e-19)
(2.68646 -3.27395 -8.57884e-19)
(2.5889 -3.22246 -1.73386e-18)
(2.49279 -3.16775 -3.9969e-19)
(2.39825 -3.10987 2.09888e-18)
(2.30537 -3.04889 -7.13327e-22)
(2.21428 -2.98485 -3.2315e-19)
(2.12507 -2.91782 1.72551e-20)
(2.03784 -2.84787 -1.45532e-20)
(1.9527 -2.77506 -5.37481e-20)
(1.86976 -2.69947 -5.84968e-20)
(1.7891 -2.62117 3.61532e-20)
(1.71083 -2.54026 -8.45586e-20)
(1.63503 -2.45681 3.69983e-19)
(1.56179 -2.37092 -7.97705e-20)
(1.49121 -2.28268 -1.21791e-19)
(1.42335 -2.19219 9.89335e-19)
(1.35827 -2.09956 -2.93454e-19)
(1.29603 -2.0049 -1.62404e-18)
(1.23665 -1.9083 3.12478e-20)
(1.18013 -1.80986 1.55928e-18)
(1.1265 -1.70964 2.51138e-20)
(1.07577 -1.60769 -7.83888e-19)
(1.02804 -1.50408 6.00029e-19)
(0.983403 -1.39891 1.08219e-18)
(0.941954 -1.29228 -2.27344e-19)
(0.903759 -1.18433 -8.696e-19)
(0.868873 -1.07518 -1.7614e-19)
(0.837335 -0.964949 -1.64022e-19)
(0.809178 -0.853753 1.3168e-19)
(0.784429 -0.741711 2.17544e-19)
(0.763111 -0.628936 -2.56854e-19)
(0.745244 -0.515539 6.41607e-20)
(0.730851 -0.401623 -2.28886e-19)
(0.719959 -0.28728 -3.25655e-19)
(0.712603 -0.172571 7.2085e-20)
(0.70885 -0.0575459 -2.52603e-21)
(6.55353 -0.675594 5.37926e-19)
(6.57033 -0.723612 -4.82183e-20)
(6.58661 -0.775326 -4.03032e-19)
(6.60198 -0.830468 -3.71548e-19)
(6.61598 -0.888744 -1.03111e-19)
(6.62821 -0.949857 1.48088e-19)
(6.63833 -1.01352 -2.94103e-19)
(6.64604 -1.07946 -3.84241e-19)
(6.65107 -1.14741 -9.76987e-20)
(6.65322 -1.21713 1.3757e-19)
(6.65229 -1.28837 -2.59743e-19)
(6.64816 -1.36089 -9.92563e-20)
(6.64068 -1.43446 -1.44743e-19)
(6.62975 -1.50888 -7.05844e-20)
(6.61531 -1.58394 2.1562e-20)
(6.59728 -1.65945 1.07852e-19)
(6.57563 -1.73523 1.24014e-19)
(6.55031 -1.81111 8.26146e-19)
(6.52133 -1.88694 1.64696e-19)
(6.48872 -1.96246 -2.70318e-19)
(6.45258 -2.03738 -6.36865e-20)
(6.41295 -2.11153 2.3017e-19)
(6.36991 -2.18473 9.08263e-19)
(6.32358 -2.2568 6.20141e-19)
(6.27408 -2.32757 -6.15599e-19)
(6.22148 -2.39689 9.45997e-20)
(6.16586 -2.46461 -5.69543e-19)
(6.1073 -2.53059 -1.02991e-20)
(6.04587 -2.5947 -1.80945e-19)
(5.98165 -2.65682 -1.04731e-19)
(5.91474 -2.71682 -2.42055e-19)
(5.84523 -2.7746 5.75093e-19)
(5.77321 -2.83006 1.42488e-19)
(5.69878 -2.8831 1.40851e-19)
(5.62206 -2.93362 -9.91747e-20)
(5.54313 -2.98155 -7.55736e-19)
(5.46211 -3.02681 -1.30795e-18)
(5.37912 -3.06931 -2.92619e-19)
(5.29425 -3.10899 1.16019e-18)
(5.20763 -3.14579 1.50841e-18)
(5.11936 -3.17965 -5.92349e-20)
(5.02956 -3.2105 -2.96302e-19)
(4.93836 -3.2383 3.92055e-19)
(4.84585 -3.26301 -1.74632e-19)
(4.75217 -3.28458 -3.48239e-19)
(4.65742 -3.30297 2.32141e-19)
(4.56173 -3.31814 1.71554e-18)
(4.46521 -3.33008 1.26437e-18)
(4.36798 -3.33876 -9.14257e-19)
(4.27017 -3.34414 -8.26383e-19)
(4.17188 -3.34623 -7.74678e-19)
(4.07325 -3.345 0)
(3.97438 -3.34044 4.18013e-20)
(3.8754 -3.33256 2.05839e-19)
(3.77642 -3.32134 -6.42727e-20)
(3.67756 -3.30681 -1.50724e-18)
(3.57894 -3.28895 -6.03797e-19)
(3.48067 -3.26778 1.15099e-18)
(3.38287 -3.24333 -1.17234e-18)
(3.28565 -3.2156 -3.27897e-19)
(3.18913 -3.18461 1.13061e-18)
(3.09342 -3.15041 3.21357e-20)
(2.99863 -3.11301 3.34766e-19)
(2.90487 -3.07245 1.62208e-18)
(2.81224 -3.02877 1.10106e-18)
(2.72086 -2.982 -2.19526e-18)
(2.63083 -2.9322 8.00117e-21)
(2.54226 -2.87941 8.07673e-19)
(2.45523 -2.82369 -1.84441e-18)
(2.36987 -2.76508 -2.65805e-19)
(2.28625 -2.70364 1.02309e-18)
(2.20449 -2.63945 1.52824e-18)
(2.12466 -2.57256 5.04345e-19)
(2.04687 -2.50305 -1.21203e-18)
(1.9712 -2.43099 4.5492e-19)
(1.89774 -2.35645 -2.67434e-20)
(1.82656 -2.27951 -9.33012e-19)
(1.75776 -2.20027 4.09226e-19)
(1.69139 -2.1188 4.89328e-20)
(1.62754 -2.0352 -9.35903e-19)
(1.56626 -1.94955 2.10727e-20)
(1.50762 -1.86196 3.92489e-19)
(1.45167 -1.77249 -6.48653e-19)
(1.39847 -1.68124 -3.37651e-19)
(1.34806 -1.58829 5.94237e-19)
(1.30051 -1.4937 2.71354e-19)
(1.25588 -1.39756 -5.06245e-19)
(1.21422 -1.29996 -5.68457e-20)
(1.17559 -1.20099 6.70068e-19)
(1.14005 -1.10077 1.68437e-19)
(1.10763 -0.999408 -3.40508e-20)
(1.07837 -0.897005 -4.00692e-19)
(1.05231 -0.793673 -2.18741e-20)
(1.02945 -0.689522 4.82121e-19)
(1.00984 -0.58466 -9.76558e-20)
(0.993471 -0.479193 -1.66885e-19)
(0.980368 -0.373228 8.60692e-20)
(0.970533 -0.266869 -8.84343e-20)
(0.963969 -0.160224 2.94438e-21)
(0.960681 -0.0534023 5.18911e-20)
(6.37952 -0.749779 2.16127e-19)
(6.39593 -0.798347 5.25564e-19)
(6.41129 -0.849605 -2.78442e-21)
(6.42524 -0.903439 -1.07604e-20)
(6.43744 -0.959661 -2.89942e-19)
(6.44759 -1.01807 2.37985e-20)
(6.45544 -1.07847 4.42499e-20)
(6.46081 -1.14064 -2.71921e-19)
(6.46351 -1.20439 -4.02814e-20)
(6.46342 -1.26949 -2.07521e-19)
(6.46042 -1.33574 1.95728e-19)
(6.45443 -1.40294 4.30485e-20)
(6.44539 -1.47086 -2.1408e-19)
(6.43324 -1.53932 6.11521e-20)
(6.41795 -1.6081 2.21029e-20)
(6.3995 -1.67698 9.92756e-20)
(6.37789 -1.74577 1.3633e-19)
(6.35311 -1.81424 -7.88586e-20)
(6.32519 -1.88221 -3.62361e-19)
(6.2941 -1.94958 -3.05002e-20)
(6.25989 -2.01621 5.70747e-19)
(6.22259 -2.08193 -1.27258e-19)
(6.18226 -2.14662 -9.22256e-20)
(6.13898 -2.21012 -7.29948e-19)
(6.0928 -2.27233 5.43282e-20)
(6.04382 -2.33314 -9.2472e-20)
(5.99208 -2.39245 -5.5577e-19)
(5.93768 -2.45016 4.01754e-19)
(5.88067 -2.50615 3.51811e-19)
(5.82116 -2.56035 0)
(5.75921 -2.61263 6.08945e-19)
(5.69491 -2.66293 5.01476e-20)
(5.62835 -2.71113 -5.2066e-19)
(5.55962 -2.75717 -3.53057e-19)
(5.48882 -2.80095 -4.24886e-20)
(5.41603 -2.8424 -1.55042e-19)
(5.34135 -2.88144 6.90144e-19)
(5.26488 -2.91802 7.89058e-19)
(5.18672 -2.95205 5.4794e-19)
(5.10697 -2.98348 2.43487e-20)
(5.02573 -3.01226 -5.13097e-19)
(4.94311 -3.03833 -5.19535e-19)
(4.8592 -3.06165 -6.09319e-19)
(4.77412 -3.08217 1.13168e-18)
(4.68797 -3.09984 5.32363e-20)
(4.60086 -3.11464 -6.35288e-19)
(4.51289 -3.12653 -1.1165e-19)
(4.42417 -3.13549 -1.32159e-19)
(4.33481 -3.14148 1.71669e-19)
(4.24491 -3.14449 -4.92616e-20)
(4.15459 -3.14451 0)
(4.06394 -3.14151 -1.96645e-19)
(3.97309 -3.13549 -2.25626e-20)
(3.88214 -3.12645 -4.28219e-19)
(3.79119 -3.11439 -8.39465e-19)
(3.70035 -3.0993 6.37106e-19)
(3.60973 -3.08119 8.65665e-19)
(3.51943 -3.06007 2.10884e-19)
(3.42957 -3.03595 1.04059e-20)
(3.34023 -3.00885 -9.80883e-19)
(3.25154 -2.9788 -8.08105e-19)
(3.16358 -2.9458 1.21566e-18)
(3.07647 -2.9099 7.98127e-19)
(2.9903 -2.87111 -4.1167e-19)
(2.90517 -2.82948 2.6223e-21)
(2.82118 -2.78505 -3.96694e-19)
(2.73842 -2.73784 -3.5913e-21)
(2.657 -2.6879 4.05213e-19)
(2.577 -2.63529 -1.87859e-19)
(2.49851 -2.58005 -4.00837e-19)
(2.42163 -2.52223 -1.89581e-19)
(2.34645 -2.46189 3.61634e-19)
(2.27304 -2.39909 3.83859e-19)
(2.2015 -2.3339 3.40241e-19)
(2.1319 -2.26636 3.31121e-19)
(2.06431 -2.19657 2.04595e-20)
(1.99883 -2.12458 6.47587e-19)
(1.93551 -2.05046 -9.08147e-19)
(1.87443 -1.97431 5.058e-20)
(1.81566 -1.89618 9.77166e-19)
(1.75924 -1.81616 -8.38077e-19)
(1.70525 -1.73434 -1.51289e-19)
(1.65373 -1.65079 -5.9979e-21)
(1.60473 -1.56558 -3.0777e-19)
(1.55831 -1.47881 1.11879e-19)
(1.51452 -1.39054 2.69923e-19)
(1.4734 -1.30087 -1.29108e-19)
(1.43501 -1.20988 -2.65492e-19)
(1.3994 -1.11766 -1.82285e-19)
(1.36661 -1.0243 -2.20084e-19)
(1.33668 -0.929899 3.21966e-19)
(1.30965 -0.834554 1.87998e-19)
(1.28554 -0.738362 -2.68326e-19)
(1.26438 -0.641423 1.68796e-19)
(1.24621 -0.543836 4.69414e-20)
(1.23103 -0.445699 -1.42628e-19)
(1.21887 -0.347114 -8.81001e-20)
(1.20974 -0.248178 -1.89004e-20)
(1.20364 -0.148992 2.09733e-20)
(1.20059 -0.0496556 9.87693e-20)
(6.26351 -0.773448 -1.11552e-19)
(6.27755 -0.818135 5.65104e-20)
(6.29017 -0.864773 6.211e-20)
(6.30121 -0.913333 1.88788e-19)
(6.31047 -0.963724 1.63896e-19)
(6.31778 -1.01583 4.20124e-20)
(6.32296 -1.06952 1.23337e-19)
(6.32587 -1.12467 1.79461e-19)
(6.3264 -1.18111 3.79439e-20)
(6.32443 -1.23871 -1.33934e-19)
(6.31987 -1.2973 4.36625e-20)
(6.31265 -1.35673 -1.01087e-19)
(6.3027 -1.41684 5.29663e-21)
(6.28998 -1.47749 0)
(6.27444 -1.53852 8.61803e-20)
(6.25606 -1.59977 -8.42353e-20)
(6.23484 -1.66113 -7.62683e-20)
(6.21075 -1.72243 -6.54946e-20)
(6.18383 -1.78352 -4.35037e-20)
(6.15411 -1.84423 1.09799e-19)
(6.1216 -1.90439 -2.96599e-19)
(6.08634 -1.96386 -2.28385e-19)
(6.04837 -2.0225 2.55501e-19)
(6.00775 -2.08019 -3.64788e-19)
(5.96452 -2.1368 2.60347e-19)
(5.91873 -2.1922 8.76329e-20)
(5.87046 -2.24628 -4.17883e-20)
(5.81976 -2.29894 -4.03515e-19)
(5.76669 -2.35008 2.00533e-19)
(5.71133 -2.39958 2.91132e-19)
(5.65375 -2.44736 1.20335e-19)
(5.59401 -2.49333 2.81292e-19)
(5.53221 -2.53739 -3.30928e-19)
(5.46841 -2.57948 -4.78686e-19)
(5.40271 -2.6195 1.72308e-19)
(5.33518 -2.65739 -3.12143e-19)
(5.26591 -2.69307 5.67321e-19)
(5.19499 -2.72648 5.81788e-19)
(5.12252 -2.75756 -5.23156e-19)
(5.04857 -2.78625 -8.39546e-20)
(4.97325 -2.8125 2.92991e-19)
(4.89665 -2.83625 -7.67452e-19)
(4.81887 -2.85746 -2.40344e-19)
(4.74 -2.87609 2.97965e-19)
(4.66013 -2.8921 -3.27174e-19)
(4.57938 -2.90546 6.53043e-19)
(4.49783 -2.91612 1.11594e-19)
(4.41558 -2.92408 -2.59374e-19)
(4.33274 -2.9293 1.99194e-19)
(4.2494 -2.93176 -3.34861e-19)
(4.16567 -2.93145 0)
(4.08164 -2.92835 -3.03352e-19)
(3.99741 -2.92246 -1.78019e-20)
(3.91309 -2.91377 2.85009e-19)
(3.82877 -2.90227 2.52748e-19)
(3.74455 -2.88797 1.65027e-19)
(3.66054 -2.87088 -2.64301e-19)
(3.57682 -2.851 1.72031e-19)
(3.4935 -2.82834 7.95508e-21)
(3.41068 -2.80292 -3.08025e-19)
(3.32845 -2.77475 -8.78907e-19)
(3.2469 -2.74387 -2.81296e-19)
(3.16613 -2.71028 8.75995e-19)
(3.08624 -2.67403 7.05391e-19)
(3.00731 -2.63513 -2.58584e-21)
(2.92944 -2.59363 -7.19525e-19)
(2.85271 -2.54957 -1.11325e-20)
(2.77722 -2.50297 -3.88057e-19)
(2.70304 -2.45389 -1.23784e-19)
(2.63027 -2.40238 8.90841e-19)
(2.55899 -2.34847 2.39233e-19)
(2.48927 -2.29223 1.3353e-19)
(2.4212 -2.2337 3.84477e-19)
(2.35486 -2.17295 -6.20682e-19)
(2.29031 -2.11003 -8.66746e-20)
(2.22763 -2.04501 2.05576e-19)
(2.16689 -1.97796 -5.18754e-19)
(2.10816 -1.90893 1.09663e-19)
(2.0515 -1.83799 1.28373e-19)
(1.99698 -1.76523 -1.31004e-19)
(1.94464 -1.69071 2.27544e-19)
(1.89455 -1.6145 2.31004e-19)
(1.84676 -1.53668 -1.30059e-19)
(1.80133 -1.45733 2.78993e-19)
(1.7583 -1.37651 -2.54349e-19)
(1.71771 -1.29432 -5.63097e-19)
(1.67962 -1.21082 2.19296e-19)
(1.64407 -1.1261 5.29841e-19)
(1.61109 -1.04024 4.51747e-20)
(1.58074 -0.953333 -2.4163e-19)
(1.55304 -0.865463 -5.79116e-20)
(1.52802 -0.776717 1.22534e-19)
(1.50571 -0.687187 5.62965e-20)
(1.48614 -0.596964 -3.33804e-20)
(1.46932 -0.506138 7.94074e-20)
(1.45529 -0.414803 8.01961e-20)
(1.44404 -0.32305 9.59275e-20)
(1.4356 -0.230972 -4.25563e-20)
(1.42996 -0.138661 -9.60128e-21)
(1.42714 -0.0462119 -9.18807e-20)
(6.1619 -0.809597 -4.88235e-20)
(6.17187 -0.851792 -4.06739e-20)
(6.18049 -0.895557 -1.1728e-19)
(6.18766 -0.940861 -6.18886e-20)
(6.19322 -0.987631 6.69578e-20)
(6.19703 -1.03578 3.98339e-20)
(6.19897 -1.0852 -2.57498e-20)
(6.19892 -1.13578 -2.03429e-20)
(6.19678 -1.1874 -6.10919e-20)
(6.19245 -1.23994 3.3359e-20)
(6.18588 -1.29326 -4.89229e-20)
(6.17698 -1.34724 -9.64267e-20)
(6.16571 -1.40174 -4.56355e-20)
(6.15202 -1.45661 1.01005e-19)
(6.13589 -1.51173 -7.58808e-20)
(6.11728 -1.56694 -5.16449e-20)
(6.09619 -1.62211 5.72763e-20)
(6.0726 -1.67709 1.1611e-19)
(6.04652 -1.73178 -1.9773e-19)
(6.01794 -1.78605 9.12437e-20)
(5.98689 -1.83979 -2.67507e-19)
(5.95338 -1.89287 1.18288e-19)
(5.91747 -1.94518 1.2148e-19)
(5.87917 -1.9966 -1.43975e-19)
(5.83853 -2.04704 -2.75066e-19)
(5.7956 -2.09638 2.68729e-19)
(5.75043 -2.14453 3.27453e-19)
(5.70306 -2.19139 9.98116e-20)
(5.65357 -2.23687 3.34268e-19)
(5.60201 -2.28088 9.87372e-20)
(5.54843 -2.32333 -4.24856e-19)
(5.49291 -2.36414 -4.23396e-19)
(5.43552 -2.40324 6.76433e-20)
(5.37632 -2.44054 4.72508e-19)
(5.31539 -2.47597 3.8608e-19)
(5.25281 -2.50947 7.37406e-21)
(5.18865 -2.54097 -2.05895e-19)
(5.12299 -2.57041 -5.86148e-20)
(5.05591 -2.59773 -4.33612e-19)
(4.98749 -2.62288 -4.89704e-20)
(4.91783 -2.6458 3.8192e-19)
(4.847 -2.66646 -4.64571e-21)
(4.77509 -2.6848 2.44982e-20)
(4.70218 -2.70079 -1.71868e-20)
(4.62838 -2.71439 6.76971e-19)
(4.55375 -2.72557 4.26751e-20)
(4.47841 -2.73429 -7.43752e-19)
(4.40243 -2.74054 1.38732e-19)
(4.3259 -2.74428 -9.74038e-20)
(4.24892 -2.7455 -1.31124e-19)
(4.17158 -2.74418 2.1552e-19)
(4.09397 -2.74032 -3.25856e-19)
(4.01619 -2.73389 -5.45096e-19)
(3.93831 -2.7249 -6.7074e-19)
(3.86044 -2.71334 -4.29953e-21)
(3.78267 -2.69922 1.45624e-18)
(3.70508 -2.68253 9.09388e-19)
(3.62778 -2.66328 -1.06327e-19)
(3.55083 -2.64148 -4.39447e-19)
(3.47435 -2.61715 -3.38048e-19)
(3.39841 -2.5903 -7.74405e-19)
(3.3231 -2.56095 3.31175e-19)
(3.24851 -2.52912 7.58044e-19)
(3.17473 -2.49484 3.19446e-21)
(3.10183 -2.45813 4.27918e-19)
(3.02991 -2.41903 -1.04535e-21)
(2.95905 -2.37757 -4.12736e-19)
(2.88932 -2.33379 -3.00903e-19)
(2.82081 -2.28772 -2.29844e-20)
(2.75359 -2.23941 -1.90502e-19)
(2.68775 -2.18891 -7.82034e-20)
(2.62334 -2.13625 1.80933e-20)
(2.56046 -2.08149 1.2097e-19)
(2.49916 -2.02468 2.15923e-19)
(2.43952 -1.96587 4.83902e-19)
(2.38161 -1.90513 -2.12905e-19)
(2.32548 -1.84251 -8.04599e-19)
(2.27121 -1.77807 5.29619e-19)
(2.21884 -1.71187 2.67235e-19)
(2.16845 -1.64398 -1.67339e-19)
(2.12007 -1.57447 -3.10839e-19)
(2.07377 -1.5034 -2.08918e-19)
(2.0296 -1.43085 6.02951e-19)
(1.9876 -1.35687 1.24885e-19)
(1.94783 -1.28155 -2.15272e-19)
(1.91031 -1.20495 1.5052e-19)
(1.87511 -1.12716 -5.82475e-20)
(1.84225 -1.04824 -3.82716e-19)
(1.81177 -0.968276 2.23705e-20)
(1.78371 -0.887346 1.40847e-19)
(1.7581 -0.805529 -1.5301e-19)
(1.73497 -0.722908 8.16035e-20)
(1.71434 -0.639564 2.8189e-19)
(1.69624 -0.555581 -1.39089e-19)
(1.68069 -0.471043 -6.05098e-20)
(1.66771 -0.386035 -5.3497e-21)
(1.6573 -0.300641 -2.45253e-20)
(1.64949 -0.214948 7.99823e-20)
(1.64428 -0.129041 3.07303e-20)
(1.64167 -0.0430047 5.78034e-20)
(6.07209 -0.82854 3.45928e-20)
(6.07899 -0.867707 -7.7762e-20)
(6.08459 -0.908094 -1.34281e-19)
(6.08881 -0.949684 -2.69145e-20)
(6.09156 -0.992429 -6.45003e-20)
(6.09273 -1.03626 -1.94324e-20)
(6.09221 -1.08111 2.04904e-20)
(6.08992 -1.12689 -1.35458e-19)
(6.08578 -1.1735 -6.95382e-20)
(6.0797 -1.22086 -5.04324e-20)
(6.07164 -1.26885 -2.52119e-20)
(6.06152 -1.31737 -3.47488e-20)
(6.04931 -1.36632 1.09251e-19)
(6.03496 -1.41558 -1.5338e-19)
(6.01843 -1.46504 2.11626e-20)
(5.99972 -1.51459 1.9453e-19)
(5.97879 -1.56413 1.08696e-19)
(5.95565 -1.61353 -2.3573e-20)
(5.93029 -1.66268 -7.15469e-20)
(5.90272 -1.71147 3.89625e-20)
(5.87296 -1.75978 -2.24616e-19)
(5.84102 -1.80751 -4.46023e-20)
(5.80692 -1.85455 1.67359e-19)
(5.77069 -1.9008 1.58578e-19)
(5.73236 -1.94616 -4.42684e-19)
(5.69198 -1.99053 3.86938e-19)
(5.64959 -2.03383 4.69487e-19)
(5.60522 -2.07596 -1.34476e-19)
(5.55893 -2.11683 1.44972e-19)
(5.51076 -2.15637 -2.78769e-19)
(5.46078 -2.19449 -2.37436e-19)
(5.40905 -2.23112 -1.78144e-19)
(5.35561 -2.26619 -7.90761e-20)
(5.30054 -2.29961 6.89792e-19)
(5.2439 -2.33134 3.44951e-20)
(5.18576 -2.3613 -3.02229e-19)
(5.12618 -2.38943 -1.03537e-20)
(5.06524 -2.41568 -3.18354e-19)
(5.00301 -2.43999 -3.52004e-19)
(4.93956 -2.46231 4.96006e-20)
(4.87498 -2.48259 5.37731e-19)
(4.80934 -2.5008 3.13587e-21)
(4.74271 -2.51689 -3.49034e-19)
(4.67518 -2.53082 -2.84218e-20)
(4.60682 -2.54255 3.3954e-19)
(4.53772 -2.55207 -1.88477e-19)
(4.46797 -2.55933 -1.3332e-19)
(4.39763 -2.56431 5.14232e-19)
(4.3268 -2.567 -2.87308e-21)
(4.25556 -2.56737 -3.51261e-19)
(4.184 -2.56541 3.3876e-19)
(4.11219 -2.56111 1.62553e-19)
(4.04022 -2.55445 -3.24282e-19)
(3.96818 -2.54543 -1.51766e-19)
(3.89615 -2.53405 -1.92024e-20)
(3.82421 -2.52031 3.59173e-19)
(3.75244 -2.50421 -5.5084e-21)
(3.68094 -2.48575 3.29672e-19)
(3.60978 -2.46495 1.70739e-20)
(3.53904 -2.44181 -3.55082e-19)
(3.46881 -2.41635 -1.85501e-19)
(3.39917 -2.38859 -3.17678e-19)
(3.33019 -2.35855 3.62434e-21)
(3.26196 -2.32625 -1.07966e-20)
(3.19456 -2.29171 2.0052e-19)
(3.12805 -2.25497 -1.60004e-19)
(3.06253 -2.21605 -1.45161e-19)
(2.99805 -2.17499 1.61937e-19)
(2.9347 -2.13182 1.49892e-19)
(2.87254 -2.08659 1.37893e-20)
(2.81166 -2.03933 -4.29834e-19)
(2.7521 -1.99009 -1.49176e-19)
(2.69396 -1.9389 4.16939e-19)
(2.63727 -1.88583 2.83364e-19)
(2.58212 -1.83092 -3.1114e-19)
(2.52857 -1.77421 -8.82522e-20)
(2.47667 -1.71578 3.64864e-19)
(2.42647 -1.65566 2.18013e-19)
(2.37805 -1.59392 7.08236e-20)
(2.33144 -1.53062 -2.36439e-19)
(2.2867 -1.46582 -2.48612e-19)
(2.24389 -1.39958 -1.68228e-19)
(2.20304 -1.33196 -5.73475e-21)
(2.1642 -1.26303 5.76028e-20)
(2.12742 -1.19286 -3.34937e-20)
(2.09274 -1.12152 8.93544e-20)
(2.06019 -1.04907 2.45428e-19)
(2.02981 -0.975578 1.55677e-19)
(2.00163 -0.901125 -7.83286e-20)
(1.97569 -0.825781 -1.40079e-19)
(1.95202 -0.74962 -5.53221e-20)
(1.93064 -0.672716 -1.46618e-19)
(1.91157 -0.595146 -2.26701e-20)
(1.89484 -0.516986 1.5864e-19)
(1.88047 -0.438314 -4.80625e-20)
(1.86847 -0.359208 5.9735e-20)
(1.85885 -0.279746 -9.48893e-20)
(1.85163 -0.200007 -8.46367e-20)
(1.84681 -0.12007 3.25368e-21)
(1.8444 -0.0400144 9.45886e-20)
(5.98979 -0.84438 1.10551e-19)
(5.99386 -0.880895 1.38581e-19)
(5.9967 -0.918401 -6.83639e-20)
(5.99829 -0.956881 -1.14318e-20)
(5.99854 -0.996289 -5.24409e-20)
(5.99735 -1.03657 -1.07789e-21)
(5.99466 -1.07766 -4.33944e-22)
(5.99039 -1.11949 4.03949e-20)
(5.98446 -1.16197 7.19019e-22)
(5.97683 -1.20504 6.46295e-20)
(5.96744 -1.2486 -1.6238e-20)
(5.95624 -1.29256 1.30638e-19)
(5.94318 -1.33683 1.59009e-21)
(5.92824 -1.38131 -1.15124e-19)
(5.91139 -1.42591 1.02992e-19)
(5.8926 -1.47054 -2.58296e-20)
(5.87186 -1.51508 5.67086e-20)
(5.84916 -1.55945 -6.69738e-20)
(5.82449 -1.60354 1.2746e-20)
(5.79786 -1.64728 -1.50006e-19)
(5.76928 -1.69056 -1.91999e-19)
(5.73876 -1.73328 -1.09378e-19)
(5.70631 -1.77537 2.41606e-19)
(5.67197 -1.81672 2.46527e-19)
(5.63575 -1.85726 -1.65761e-19)
(5.59769 -1.89689 4.42941e-20)
(5.55782 -1.93554 -5.03257e-20)
(5.51618 -1.97313 -4.01798e-20)
(5.47282 -2.00957 -8.49876e-20)
(5.42778 -2.04479 1.54215e-19)
(5.3811 -2.07873 -2.6893e-19)
(5.33284 -2.1113 -2.4318e-19)
(5.28305 -2.14245 1.14222e-19)
(5.23179 -2.17211 1.18903e-19)
(5.1791 -2.20022 3.68862e-19)
(5.12506 -2.22672 -2.42085e-19)
(5.06973 -2.25155 -2.51462e-19)
(5.01316 -2.27467 -2.40596e-19)
(4.95543 -2.29602 1.2713e-19)
(4.8966 -2.31556 7.79921e-19)
(4.83674 -2.33324 -1.21346e-19)
(4.77592 -2.34901 -4.35122e-19)
(4.71421 -2.36286 -2.74909e-19)
(4.65168 -2.37473 1.45354e-19)
(4.58841 -2.38459 5.44768e-19)
(4.52446 -2.39243 2.51112e-19)
(4.45992 -2.3982 -4.22515e-19)
(4.39486 -2.40189 -4.04955e-19)
(4.32935 -2.40348 1.31429e-19)
(4.26347 -2.40294 -1.34788e-19)
(4.1973 -2.40027 1.62715e-20)
(4.13092 -2.39545 3.88169e-19)
(4.06439 -2.38847 -2.622e-21)
(3.99781 -2.37933 -1.07186e-18)
(3.93123 -2.36803 -1.37097e-19)
(3.86475 -2.35455 7.97794e-19)
(3.79844 -2.33891 -3.95178e-19)
(3.73237 -2.32111 8.82197e-22)
(3.66663 -2.30116 7.84515e-19)
(3.60128 -2.27906 2.61309e-21)
(3.53639 -2.25483 -3.85997e-19)
(3.47206 -2.22849 -4.18522e-22)
(3.40834 -2.20005 2.45095e-19)
(3.34532 -2.16954 -6.15698e-19)
(3.28305 -2.13697 7.28937e-21)
(3.22162 -2.10237 5.90344e-19)
(3.1611 -2.06577 -1.17076e-19)
(3.10154 -2.02721 1.32585e-20)
(3.04303 -1.98671 -2.33027e-19)
(2.98562 -1.9443 -4.58626e-19)
(2.92938 -1.90004 2.20703e-19)
(2.87437 -1.85394 3.65374e-19)
(2.82066 -1.80607 -3.20077e-20)
(2.7683 -1.75645 3.80698e-19)
(2.71736 -1.70514 4.75683e-21)
(2.66789 -1.65218 -4.73848e-19)
(2.61995 -1.59762 -7.86456e-20)
(2.57358 -1.54152 -2.48416e-19)
(2.52885 -1.48392 2.30411e-19)
(2.4858 -1.42488 6.76607e-19)
(2.44447 -1.36446 6.60868e-20)
(2.40492 -1.30272 -3.20193e-19)
(2.36719 -1.2397 -2.30154e-19)
(2.33132 -1.17548 1.42832e-19)
(2.29734 -1.11011 2.80258e-20)
(2.2653 -1.04366 -7.73675e-20)
(2.23524 -0.976193 -4.64818e-20)
(2.20717 -0.907768 -1.2825e-19)
(2.18115 -0.838456 1.28169e-19)
(2.15719 -0.768324 6.48434e-20)
(2.13532 -0.697438 -4.46386e-20)
(2.11557 -0.625869 1.46341e-19)
(2.09796 -0.553687 -7.29131e-20)
(2.08251 -0.480961 -9.48777e-20)
(2.06923 -0.407763 3.46654e-20)
(2.05815 -0.334166 4.3462e-20)
(2.04926 -0.26024 3.33456e-20)
(2.04259 -0.186059 -6.40366e-20)
(2.03814 -0.111696 -1.75342e-20)
(2.03591 -0.0372228 -3.89667e-20)
(5.91436 -0.852294 -5.66472e-20)
(5.91617 -0.886209 6.31786e-20)
(5.91682 -0.920914 1.21495e-19)
(5.9163 -0.956391 -2.36118e-20)
(5.91455 -0.992605 -8.37193e-21)
(5.91149 -1.02951 7.94202e-20)
(5.90707 -1.06705 5.05678e-20)
(5.90123 -1.10517 8.11893e-20)
(5.89391 -1.1438 3.51377e-20)
(5.88506 -1.18288 -2.27081e-20)
(5.87463 -1.22233 3.52926e-20)
(5.8626 -1.26209 1.01082e-19)
(5.84892 -1.30207 -1.00671e-19)
(5.83356 -1.34219 -4.4702e-20)
(5.8165 -1.38238 1.37061e-19)
(5.79772 -1.42255 9.87187e-20)
(5.7772 -1.46262 0)
(5.75495 -1.50251 8.20213e-20)
(5.73095 -1.54213 5.30597e-20)
(5.70521 -1.58139 -1.86874e-19)
(5.67772 -1.62022 1.06096e-19)
(5.64851 -1.65853 1.29238e-19)
(5.61759 -1.69624 -1.53437e-19)
(5.58497 -1.73328 2.95845e-21)
(5.55068 -1.76956 4.05011e-20)
(5.51474 -1.80501 1.02635e-19)
(5.47719 -1.83956 2.3536e-21)
(5.43805 -1.87313 -3.07046e-19)
(5.39736 -1.90566 6.63301e-20)
(5.35517 -1.93707 3.60246e-19)
(5.31151 -1.9673 -1.02558e-19)
(5.26642 -1.99629 -2.12297e-19)
(5.21996 -2.02397 1.19174e-19)
(5.17218 -2.0503 -6.645e-20)
(5.12312 -2.0752 -2.03072e-19)
(5.07283 -2.09864 3.68827e-19)