/*--------------------------------*- C++ -*----------------------------------*\
  =========                 |
  \\      /  F ield         | OpenFOAM: The Open Source CFD Toolbox
   \\    /   O peration     | Website:  https://openfoam.org
    \\  /    A nd           | Version:  8
     \\/     M anipulation  |
\*---------------------------------------------------------------------------*/
FoamFile
{
    version     2.0;
    format      ascii;
    class       volScalarField;
    location    "19";
    object      p;
}
// * * * * * * * * * * * * * * * * * * * * * * * * * * * * * * * * * * * * * //

dimensions      [0 2 -2 0 0 0 0];

internalField   nonuniform List<scalar> 
277560
(
-0.0138806
-0.000198516
-0.00148333
-0.000191632
0.000840327
0.00185568
0.00287103
0.00388354
0.00489936
0.00592182
0.00695386
0.00799674
0.00905143
0.0101174
0.0111941
0.0122794
0.0133716
0.0144674
0.015564
0.0166574
0.0177437
0.0188182
0.0198764
0.0209132
0.0219236
0.0229021
0.0238436
0.0247425
0.0255938
0.0263922
0.0271326
0.0278106
0.028421
0.0289607
0.0294251
0.029812
0.0301177
0.0303411
0.0304797
0.0305333
0.030501
0.0303837
0.0301816
0.0298968
0.0295306
0.0290856
0.0285642
0.0279703
0.0273075
0.0265804
0.0257931
0.0249508
0.0240582
0.0231205
0.0221428
0.0211303
0.0200881
0.0190214
0.0179353
0.0168348
0.0157246
0.0146096
0.0134943
0.0123831
0.0112803
0.01019
0.00911612
0.00806223
0.00703203
0.00602861
0.00505535
0.00411494
0.00321041
0.00234407
0.0015186
0.000735914
-1.62491e-06
-0.000692501
-0.00133467
-0.00192699
-0.00246772
-0.00295605
-0.00339053
-0.00377067
-0.00409524
-0.00436409
-0.00457617
-0.0047316
-0.00482953
-0.0048703
-0.00485321
-0.00477884
-0.00464657
-0.00445723
-0.00421024
-0.00390662
-0.00354585
-0.0031291
-0.00265591
-0.00212751
-0.00154359
-0.000905328
-0.000212575
0.000533576
0.00133309
0.00218495
0.00308905
0.00404439
0.00505084
0.00610739
0.00721392
0.00836943
0.00957382
0.0108258
0.012125
0.0134738
0.0148796
0.0163093
0.0176309
0.0189962
-0.0128048
-0.00111793
-0.00134518
-0.000233857
0.000820856
0.00183524
0.00284625
0.00385476
0.00486609
0.00588414
0.00691159
0.00795002
0.00900011
0.0100616
0.0111336
0.0122145
0.013302
0.0143933
0.0154852
0.0165739
0.0176554
0.0187252
0.0197786
0.0208107
0.0218162
0.0227899
0.0237265
0.0246205
0.0254668
0.0262602
0.0269957
0.0276683
0.0282738
0.0288079
0.0292674
0.0296486
0.0299492
0.0301667
0.0302999
0.0303476
0.0303097
0.0301861
0.0299782
0.0296869
0.0293147
0.028863
0.0283353
0.0277345
0.0270652
0.0263309
0.0255369
0.0246873
0.0237878
0.0228427
0.0218579
0.0208378
0.0197885
0.0187142
0.0176207
0.0165124
0.0153947
0.0142716
0.0131484
0.0120289
0.0109181
0.00981926
0.00873704
0.00767435
0.00663553
0.00562306
0.0046409
0.00369118
0.00277749
0.00190158
0.00106667
0.00027417
-0.000473071
-0.00117401
-0.00182613
-0.00242874
-0.00297966
-0.0034785
-0.00392338
-0.00431422
-0.0046494
-0.00492912
-0.00515197
-0.00531843
-0.00542726
-0.00547918
-0.00547313
-0.00541002
-0.0052889
-0.00511091
-0.00487516
-0.00458298
-0.00423353
-0.00382831
-0.00336651
-0.00284973
-0.00227725
-0.00165069
-0.000969446
-0.000235058
0.000552868
0.00139294
0.00228538
0.0032289
0.00422364
0.00526837
0.00636316
0.00750688
0.00869956
0.00993981
0.0112275
0.012565
0.0139594
0.0153761
0.0166858
0.0180459
-0.0126862
-0.00132362
-0.00131766
-0.000270512
0.000790233
0.00179846
0.00280186
0.00380267
0.00480603
0.00581608
0.00683547
0.00786587
0.00890786
0.00996128
0.0110251
0.0120977
0.0131769
0.0142598
0.0153432
0.0164234
0.0174963
0.0185574
0.019602
0.0206251
0.0216217
0.0225863
0.0235137
0.0243985
0.0252353
0.0260192
0.026745
0.0274079
0.0280036
0.0285276
0.0289768
0.0293475
0.0296375
0.0298442
0.0299665
0.0300029
0.0299536
0.0298184
0.0295986
0.0292952
0.0289106
0.0284465
0.027906
0.0272924
0.0266098
0.0258624
0.025055
0.0241921
0.0232789
0.0223203
0.0213217
0.0202882
0.019225
0.0181371
0.0170297
0.0159077
0.014776
0.0136391
0.0125017
0.0113682
0.0102429
0.0091298
0.00803277
0.0069556
0.0059017
0.0048745
0.00387704
0.00291242
0.00198325
0.00109232
0.000241857
-0.000565699
-0.0013285
-0.00204445
-0.00271208
-0.0033296
-0.00389591
-0.00440949
-0.00486958
-0.00527494
-0.0056251
-0.00591905
-0.00615659
-0.00633693
-0.00646012
-0.00652552
-0.00653342
-0.00648332
-0.00637572
-0.00621021
-0.00598749
-0.00570719
-0.00537022
-0.00497622
-0.00452626
-0.00402
-0.00345861
-0.0028418
-0.00217078
-0.00144533
-0.000666625
0.000165451
0.00104978
0.00198642
0.00297429
0.00401341
0.00510274
0.00624236
0.00743122
0.00866912
0.00995483
0.0112921
0.0126865
0.0141052
0.0154188
0.0167874
-0.0127286
-0.00134265
-0.00133031
-0.000309493
0.000747483
0.00174441
0.00273628
0.00372529
0.00471674
0.00571479
0.0067222
0.00774055
0.00877048
0.00981173
0.0108633
0.0119235
0.0129902
0.0140605
0.0151311
0.0161983
0.0172581
0.0183059
0.0193371
0.0203466
0.0213294
0.0222801
0.0231934
0.0240639
0.0248862
0.0256554
0.0263662
0.0270141
0.0275942
0.0281027
0.0285358
0.0288905
0.0291638
0.0293539
0.0294588
0.029478
0.0294106
0.0292574
0.0290188
0.0286968
0.0282928
0.0278094
0.0272489
0.0266154
0.0259124
0.0251446
0.0243163
0.0234327
0.0224984
0.0215191
0.0204993
0.019445
0.0183605
0.0172518
0.0161231
0.0149799
0.0138264
0.0126678
0.0115081
0.0103523
0.00920396
0.00806793
0.00694732
0.00584662
0.00476857
0.00371732
0.00269525
0.00170614
0.000752005
-0.000163732
-0.00103942
-0.00187201
-0.0026602
-0.00340131
-0.0040944
-0.00473711
-0.00532886
-0.0058676
-0.00635305
-0.00678345
-0.00715881
-0.00747764
-0.0077402
-0.00794522
-0.0080932
-0.00818307
-0.00821553
-0.00818966
-0.00810637
-0.00796485
-0.00776621
-0.00750969
-0.00719659
-0.00682617
-0.00639992
-0.00591709
-0.00537929
-0.00478583
-0.00413832
-0.00343622
-0.00268103
-0.00187238
-0.00101165
-9.86173e-05
0.000865453
0.00188069
0.00294592
0.00406123
0.0052255
0.00643853
0.00769902
0.00901057
0.0103788
0.0117713
0.0130607
0.0144024
-0.0127505
-0.00132784
-0.00135964
-0.000352465
0.000692389
0.00167351
0.00264979
0.003623
0.00459857
0.00558074
0.00657228
0.00757473
0.0085887
0.00961386
0.0106492
0.0116931
0.0127431
0.0137966
0.0148503
0.0159003
0.0169427
0.0179729
0.0189863
0.0199777
0.0209422
0.0218744
0.0227688
0.0236203
0.0244233
0.0251728
0.0258637
0.0264913
0.0270509
0.0275386
0.0279503
0.0282834
0.0285346
0.0287023
0.0287842
0.0287801
0.028689
0.0285115
0.0282482
0.027901
0.0274714
0.0269621
0.0263753
0.0257151
0.0249851
0.0241901
0.0233344
0.0224233
0.0214615
0.0204546
0.0194074
0.0183252
0.017213
0.0160758
0.0149186
0.0137463
0.0125635
0.0113749
0.0101851
0.00899851
0.00781931
0.00665167
0.00549952
0.00436658
0.0032565
0.00217259
0.00111814
9.60964e-05
-0.000890591
-0.00183939
-0.00274767
-0.00361331
-0.00443402
-0.00520806
-0.00593345
-0.00660886
-0.0072326
-0.00780368
-0.0083207
-0.008783
-0.00918945
-0.00953965
-0.0098327
-0.0100685
-0.0102463
-0.0103663
-0.0104279
-0.0104314
-0.0103764
-0.0102635
-0.0100923
-0.00986357
-0.009577
-0.0092335
-0.0088328
-0.00837595
-0.00786269
-0.00729418
-0.0066702
-0.00599192
-0.00525922
-0.00447321
-0.00363388
-0.00274228
-0.00179846
-0.00080343
0.000242727
0.00133907
0.00248547
0.00368075
0.00492459
0.00621953
0.00757206
0.0089491
0.0102271
0.0115587
-0.0127689
-0.00129212
-0.00139843
-0.000400126
0.000625456
0.00158656
0.00254324
0.00349672
0.00445253
0.00541503
0.0063869
0.0073697
0.00836392
0.00936922
0.0103845
0.0114081
0.0124377
0.0134704
0.0145031
0.0155318
0.0165526
0.0175611
0.0185523
0.0195214
0.0204632
0.0213723
0.0222435
0.0230712
0.0238503
0.0245754
0.0252415
0.0258439
0.0263781
0.0268395
0.0272252
0.0275309
0.027755
0.0278943
0.0279481
0.0279145
0.0277941
0.0275861
0.0272923
0.0269134
0.0264522
0.0259101
0.0252908
0.024597
0.0238337
0.0230045
0.022115
0.0211694
0.0201736
0.0191317
0.0180498
0.016932
0.0157842
0.0146104
0.0134165
0.0122064
0.0109859
0.00975854
0.00852998
0.0073037
0.00608498
0.00487702
0.00368475
0.00251104
0.00136043
0.000235441
-0.00085976
-0.00192303
-0.00295057
-0.0039406
-0.00488972
-0.00579651
-0.00665792
-0.00747291
-0.00823879
-0.00895488
-0.00961878
-0.0102302
-0.010787
-0.0112891
-0.0117349
-0.0121244
-0.0124563
-0.0127308
-0.0129469
-0.0131051
-0.0132043
-0.0132454
-0.0132275
-0.0131515
-0.0130168
-0.0128245
-0.0125739
-0.0122663
-0.0119011
-0.0114797
-0.0110015
-0.0104681
-0.00987894
-0.0092355
-0.0085374
-0.00778611
-0.00698133
-0.00612445
-0.00521529
-0.00425515
-0.0032439
-0.00218279
-0.00107173
8.78191e-05
0.00129572
0.00255415
0.00386961
0.00520976
0.00645438
0.00775092
-0.0127919
-0.0012403
-0.00144413
-0.00045352
0.000546725
0.00148379
0.00241705
0.00334697
0.0042793
0.00521839
0.00616694
0.0071264
0.00809722
0.00907897
0.0100705
0.0110701
0.0120753
0.0130834
0.0140911
0.0150947
0.0160899
0.0170724
0.0180374
0.0189799
0.0198947
0.0207766
0.02162
0.0224196
0.0231701
0.0238662
0.0245028
0.0250753
0.0255789
0.0260096
0.0263634
0.0266373
0.0268284
0.0269346
0.026954
0.0268861
0.0267299
0.0264861
0.0261552
0.0257391
0.0252393
0.0246588
0.0239999
0.0232667
0.0224627
0.0215932
0.0206625
0.0196759
0.018638
0.0175543
0.0164293
0.0152685
0.0140762
0.0128581
0.0116186
0.0103631
0.00909584
0.00782223
0.00654622
0.00527294
0.0040061
0.00275055
0.00150963
0.000287876
-0.00091175
-0.00208507
-0.00322949
-0.0043412
-0.00541801
-0.00645646
-0.00745476
-0.00840979
-0.00932016
-0.0101831
-0.0109976
-0.0117612
-0.0124733
-0.0131317
-0.013736
-0.0142846
-0.0147772
-0.0152124
-0.0155904
-0.0159098
-0.0161711
-0.0163732
-0.0165168
-0.0166009
-0.0166264
-0.0165925
-0.0165002
-0.0163488
-0.0161396
-0.0158719
-0.015547
-0.0151644
-0.0147255
-0.0142298
-0.0136788
-0.013072
-0.0124109
-0.0116952
-0.0109262
-0.0101039
-0.00922955
-0.00830296
-0.00732546
-0.00629692
-0.00521862
-0.00409071
-0.00291465
-0.00168708
-0.000403087
0.000907346
0.00212621
0.0033996
-0.0128168
-0.00117885
-0.00149577
-0.000513278
0.000456239
0.00136544
0.00227152
0.00317423
0.00407947
0.00499156
0.00591318
0.00684574
0.00778959
0.00874419
0.00970833
0.0106802
0.0116574
0.0126371
0.0136161
0.0145905
0.0155563
0.0165089
0.0174437
0.0183555
0.0192392
0.0200895
0.0209009
0.0216681
0.0223856
0.0230481
0.0236507
0.0241885
0.0246569
0.0250518
0.0253692
0.0256059
0.025759
0.0258266
0.0258066
0.0256984
0.0255012
0.0252156
0.024842
0.0243822
0.0238381
0.0232125
0.0225078
0.0217281
0.0208772
0.0199601
0.0189814
0.0179461
0.0168591
0.0157254
0.0145498
0.0133375
0.0120934
0.0108227
0.0095302
0.00822099
0.00689984
0.00557159
0.00424083
0.00291213
0.00158985
0.000278241
-0.00101866
-0.00229696
-0.00355294
-0.0047831
-0.00598407
-0.00715276
-0.00828614
-0.00938154
-0.0104363
-0.0114481
-0.0124146
-0.013334
-0.0142042
-0.0150238
-0.015791
-0.0165048
-0.0171637
-0.017767
-0.0183134
-0.0188026
-0.0192335
-0.0196061
-0.0199195
-0.0201739
-0.0203687
-0.0205042
-0.02058
-0.0205966
-0.0205537
-0.020452
-0.0202913
-0.0200725
-0.0197953
-0.0194609
-0.019069
-0.0186208
-0.0181162
-0.0175563
-0.0169412
-0.016272
-0.0155488
-0.0147727
-0.0139439
-0.0130634
-0.0121314
-0.011149
-0.0101164
-0.00903486
-0.00790479
-0.00672406
-0.00548691
-0.00422339
-0.00304573
-0.0018152
-0.0128406
-0.00111256
-0.00155303
-0.000579902
0.000353968
0.00123161
0.00210684
0.00297879
0.00385344
0.00473505
0.00562627
0.00652846
0.00744188
0.00836586
0.00929908
0.0102397
0.0111852
0.012133
0.0130795
0.014021
0.0149535
0.0158725
0.016773
0.0176502
0.0184988
0.0193135
0.0200888
0.0208192
0.0214994
0.0221242
0.0226882
0.0231868
0.0236154
0.0239696
0.0242458
0.0244404
0.0245507
0.0245743
0.0245098
0.0243558
0.0241122
0.0237788
0.0233568
0.0228473
0.0222528
0.0215755
0.0208188
0.0199858
0.0190813
0.0181095
0.0170757
0.0159843
0.0148408
0.0136495
0.0124159
0.0111447
0.00984131
0.00851032
0.00715735
0.00578675
0.00440405
0.00301341
0.00162018
0.000228256
-0.00115726
-0.00253278
-0.00389352
-0.00523622
-0.00655644
-0.00785131
-0.00911674
-0.0103503
-0.0115481
-0.0127083
-0.0138273
-0.0149036
-0.0159342
-0.0169177
-0.0178514
-0.0187346
-0.0195647
-0.0203414
-0.0210625
-0.0217278
-0.0223356
-0.0228859
-0.0233772
-0.0238099
-0.0241826
-0.024496
-0.024749
-0.0249424
-0.0250753
-0.0251486
-0.0251616
-0.0251155
-0.0250094
-0.0248449
-0.0246212
-0.0243399
-0.0240003
-0.023604
-0.0231505
-0.0226414
-0.0220763
-0.0214567
-0.0207824
-0.0200549
-0.019274
-0.018441
-0.017556
-0.0166203
-0.0156337
-0.014598
-0.0135132
-0.0123776
-0.0111855
-0.00996613
-0.00882615
-0.00763211
-0.0128619
-0.00104445
-0.00161578
-0.000653659
0.000240041
0.0010826
0.00192341
0.0027611
0.00360173
0.00444946
0.00530689
0.00617535
0.00705497
0.00794495
0.00884385
0.00974971
0.0106601
0.0115722
0.0124827
0.0133878
0.0142833
0.0151648
0.0160274
0.0168662
0.0176758
0.0184508
0.0191859
0.0198756
0.0205144
0.021097
0.0216183
0.0220733
0.0224575
0.0227666
0.0229968
0.0231445
0.023207
0.0231817
0.0230674
0.0228625
0.0225668
0.0221803
0.021704
0.021139
0.0204877
0.0197526
0.018937
0.0180442
0.0170791
0.0160459
0.0149499
0.0137956
0.0125882
0.0113324
0.0100334
0.0086961
0.00732583
0.00592747
0.00450624
0.00306701
0.00161485
0.000154489
-0.00130925
-0.00277182
-0.00422869
-0.0056756
-0.00710836
-0.00852299
-0.0099157
-0.0112828
-0.012621
-0.0139269
-0.0151976
-0.01643
-0.0176217
-0.0187701
-0.0198729
-0.020928
-0.0219336
-0.0228877
-0.0237891
-0.024636
-0.0254274
-0.0261621
-0.0268393
-0.0274579
-0.0280177
-0.0285177
-0.0289578
-0.0293374
-0.0296566
-0.029915
-0.030113
-0.0302502
-0.0303272
-0.0303437
-0.0303006
-0.0301976
-0.0300358
-0.029815
-0.0295363
-0.0291996
-0.0288062
-0.0283559
-0.02785
-0.0272886
-0.0266729
-0.026003
-0.0252802
-0.0245045
-0.0236773
-0.0227986
-0.0218697
-0.020891
-0.0198637
-0.0187854
-0.0176518
-0.0164892
-0.0154
-0.0142562
-0.0128796
-0.000976501
-0.00168407
-0.000734799
0.000114503
0.000918612
0.00172153
0.00252155
0.00332481
0.00413532
0.00495565
0.00578707
0.00662961
0.00748233
0.0083436
0.00921138
0.0100833
0.0109563
0.0118273
0.0126923
0.0135473
0.0143877
0.0152088
0.0160053
0.0167721
0.0175038
0.0181948
0.0188397
0.0194331
0.0199695
0.0204437
0.0208509
0.0211863
0.0214458
0.0216254
0.0217216
0.0217314
0.0216525
0.0214831
0.0212222
0.0208691
0.0204241
0.0198876
0.0192614
0.0185471
0.0177479
0.0168668
0.0159079
0.0148754
0.0137744
0.0126093
0.0113854
0.010107
0.00877982
0.00740821
0.00599787
0.00455335
0.00308036
0.0015834
6.81204e-05
-0.0014611
-0.00299876
-0.0045407
-0.00608162
-0.00761765
-0.00914376
-0.0106564
-0.0121509
-0.013624
-0.0150713
-0.0164902
-0.0178765
-0.0192279
-0.0205408
-0.0218131
-0.0230415
-0.0242246
-0.0253594
-0.0264447
-0.0274778
-0.0284581
-0.0293832
-0.0302528
-0.0310647
-0.031819
-0.0325139
-0.0331496
-0.0337246
-0.0342395
-0.0346929
-0.0350856
-0.0354165
-0.0356865
-0.0358949
-0.0360426
-0.0361289
-0.0361552
-0.0361207
-0.0360269
-0.0358732
-0.0356612
-0.0353904
-0.0350623
-0.0346766
-0.034235
-0.033737
-0.0331844
-0.0325769
-0.0319161
-0.0312018
-0.0304356
-0.0296174
-0.0287487
-0.0278297
-0.0268619
-0.0258427
-0.0247686
-0.023664
-0.0226251
-0.0215302
-0.012893
-0.000910062
-0.00175796
-0.000823455
-2.25095e-05
0.000739956
0.00150163
0.00226068
0.00302328
0.00379329
0.00457325
0.00536438
0.00616663
0.00697888
0.00779932
0.00862578
0.00945579
0.0102865
0.0111145
0.0119361
0.0127471
0.013543
0.0143188
0.0150696
0.01579
0.0164745
0.0171177
0.0177141
0.018258
0.0187442
0.0191674
0.0195226
0.0198051
0.0200105
0.0201351
0.0201752
0.0201277
0.0199903
0.019761
0.019439
0.0190232
0.0185141
0.017912
0.0172186
0.0164355
0.0155658
0.014613
0.0135816
0.0124756
0.0113001
0.0100596
0.00875911
0.00740338
0.00599764
0.0045467
0.00305595
0.0015303
-2.48715e-05
-0.00160462
-0.00320367
-0.00481716
-0.00644002
-0.00806751
-0.00969483
-0.0113175
-0.012931
-0.014531
-0.0161136
-0.0176748
-0.0192107
-0.020718
-0.0221931
-0.023633
-0.0250347
-0.0263954
-0.0277125
-0.0289836
-0.0302065
-0.0313792
-0.0325
-0.0335669
-0.0345788
-0.0355341
-0.0364318
-0.0372708
-0.0380503
-0.0387695
-0.039428
-0.0400251
-0.0405607
-0.0410343
-0.0414461
-0.0417957
-0.0420836
-0.0423095
-0.042474
-0.0425771
-0.0426195
-0.0426013
-0.0425233
-0.0423856
-0.0421893
-0.0419344
-0.0416223
-0.0412528
-0.0408275
-0.0403462
-0.0398105
-0.0392204
-0.0385773
-0.0378813
-0.0371338
-0.036335
-0.0354863
-0.0345882
-0.0336395
-0.0326358
-0.0316011
-0.0306228
-0.0295892
-0.0129015
-0.000846061
-0.00183755
-0.000919742
-0.000170928
0.000546845
0.00126403
0.00197891
0.00269766
0.00342399
0.00416037
0.004908
0.00566678
0.00643544
0.00721194
0.00799391
0.00877887
0.00956394
0.0103458
0.0111207
0.0118843
0.0126322
0.0133595
0.014061
0.0147314
0.0153652
0.0159569
0.016501
0.0169918
0.0174239
0.017792
0.0180912
0.0183166
0.0184639
0.0185291
0.0185086
0.0183993
0.0181987
0.0179049
0.0175165
0.0170332
0.0164545
0.0157815
0.015015
0.0141572
0.013211
0.0121807
0.0110704
0.00988498
0.00862855
0.00730633
0.00592269
0.00448304
0.00299189
0.00145487
-0.000123399
-0.00173718
-0.00338181
-0.00505157
-0.00674187
-0.00844706
-0.0101627
-0.0118834
-0.0136049
-0.0153219
-0.0170307
-0.0187261
-0.0204048
-0.0220621
-0.0236947
-0.0252985
-0.0268707
-0.0284073
-0.0299061
-0.0313634
-0.0327774
-0.0341448
-0.0354642
-0.0367327
-0.0379493
-0.0391113
-0.0402181
-0.0412675
-0.0422592
-0.0431912
-0.0440636
-0.0448746
-0.0456246
-0.0463121
-0.0469379
-0.0475006
-0.048001
-0.0484383
-0.0488133
-0.0491253
-0.0493755
-0.0495633
-0.0496899
-0.0497548
-0.0497596
-0.0497037
-0.0495887
-0.0494143
-0.0491821
-0.0488918
-0.0485453
-0.0481419
-0.0476839
-0.0471707
-0.0466041
-0.0459841
-0.0453123
-0.0445887
-0.043815
-0.0429914
-0.0421171
-0.0411882
-0.0402268
-0.0393122
-0.038341
-0.0129048
-0.000785175
-0.00192286
-0.00102371
-0.000330609
0.000339571
0.00100914
0.00167677
0.00234857
0.0030281
0.00371779
0.00441877
0.00513095
0.00585292
0.00658241
0.00731685
0.00805364
0.00878995
0.00952245
0.0102473
0.0109604
0.0116571
0.0123324
0.0129813
0.0135983
0.014178
0.0147147
0.0152028
0.0156368
0.0160111
0.0163204
0.0165597
0.016724
0.016809
0.0168107
0.0167253
0.0165498
0.0162814
0.0159183
0.0154589
0.0149028
0.0142497
0.0135002
0.0126551
0.0117169
0.0106886
0.00957476
0.00837988
0.00710874
0.00576549
0.00435509
0.00288209
0.00135172
-0.000231239
-0.00186141
-0.00353383
-0.00524304
-0.00698402
-0.00875133
-0.01054
-0.0123446
-0.0141604
-0.0159822
-0.0178053
-0.0196249
-0.0214365
-0.0232357
-0.0250182
-0.02678
-0.0285172
-0.0302262
-0.0319033
-0.0335454
-0.0351492
-0.036712
-0.038231
-0.0397036
-0.0411276
-0.0425008
-0.0438213
-0.0450874
-0.0462973
-0.0474499
-0.0485436
-0.0495776
-0.0505508
-0.0514627
-0.0523122
-0.0530993
-0.0538232
-0.0544839
-0.0550811
-0.0556149
-0.0560852
-0.0564923
-0.0568362
-0.0571176
-0.0573365
-0.0574936
-0.0575892
-0.0576241
-0.0575986
-0.0575138
-0.0573699
-0.0571681
-0.0569086
-0.0565929
-0.056221
-0.0557944
-0.0553134
-0.0547793
-0.0541925
-0.0535542
-0.0528651
-0.0521265
-0.051337
-0.0504939
-0.0496163
-0.0487757
-0.0478771
-0.0129026
-0.000727892
-0.00201393
-0.00113537
-0.000501456
0.000118349
0.000737285
0.00135467
0.00197651
0.00260624
0.00324619
0.00389748
0.00455997
0.00523219
0.00591167
0.00659557
0.0072812
0.00796569
0.00864577
0.00931761
0.00997698
0.0106193
0.0112395
0.0118325
0.0123928
0.0129149
0.0133932
0.013822
0.0141956
0.0145085
0.0147553
0.0149308
0.0150302
0.015049
0.0149831
0.0148286
0.0145825
0.014242
0.013805
0.0132701
0.0126363
0.0119037
0.0110724
0.0101436
0.00911933
0.00800346
0.00680038
0.00551532
0.00415245
0.00271649
0.00121161
-0.00035692
-0.00198457
-0.00366581
-0.00539596
-0.00716928
-0.008981
-0.0108253
-0.0126975
-0.0145917
-0.0165034
-0.0184267
-0.0203574
-0.0222898
-0.0242199
-0.0261424
-0.0280533
-0.0299479
-0.0318225
-0.0336726
-0.035495
-0.0372856
-0.0390416
-0.0407591
-0.042436
-0.0440686
-0.0456551
-0.0471924
-0.0486791
-0.0501124
-0.0514912
-0.0528131
-0.0540776
-0.0552823
-0.0564271
-0.0575102
-0.0585316
-0.0594897
-0.0603849
-0.0612159
-0.0619833
-0.0626861
-0.063325
-0.0638993
-0.06441
-0.0648565
-0.0652398
-0.0655596
-0.0658171
-0.0660121
-0.066146
-0.0662184
-0.0662312
-0.0661838
-0.0660782
-0.065914
-0.0656932
-0.0654154
-0.0650828
-0.0646949
-0.0642538
-0.0637593
-0.0632133
-0.0626158
-0.0619687
-0.0612705
-0.0605196
-0.0597322
-0.0589704
-0.0581488
-0.0128946
-0.000674593
-0.00211075
-0.00125472
-0.000683307
-0.000116535
0.000448856
0.0010131
0.0015821
0.0021591
0.00274637
0.00334497
0.00395476
0.00457423
0.00520073
0.00583117
0.00646269
0.00709243
0.0077171
0.00833289
0.00893553
0.00952036
0.0100824
0.0106164
0.0111168
0.0115782
0.0119947
0.0123608
0.0126706
0.0129186
0.0130993
0.0132075
0.0132383
0.013187
0.0130495
0.012822
0.0125012
0.0120843
0.011569
0.0109539
0.0102378
0.00942079
0.00850274
0.00748493
0.00636946
0.00516062
0.00386307
0.00248203
0.00102179
-0.000513038
-0.00211822
-0.0037887
-0.00551975
-0.007306
-0.00914251
-0.0110238
-0.0129447
-0.0148996
-0.0168836
-0.018891
-0.0209168
-0.0229556
-0.0250026
-0.0270525
-0.0291007
-0.0311423
-0.0331729
-0.0351879
-0.0371834
-0.0391551
-0.0410992
-0.0430122
-0.0448904
-0.0467307
-0.04853
-0.0502855
-0.0519945
-0.0536545
-0.0552633
-0.0568188
-0.0583191
-0.0597626
-0.0611475
-0.0624729
-0.0637373
-0.0649398
-0.0660795
-0.0671558
-0.068168
-0.0691158
-0.0699987
-0.0708168
-0.0715697
-0.0722578
-0.0728809
-0.0734395
-0.0739337
-0.0743641
-0.074731
-0.0750352
-0.0752768
-0.0754571
-0.0755762
-0.0756355
-0.0756349
-0.0755762
-0.0754594
-0.0752862
-0.0750566
-0.0747724
-0.0744336
-0.0740421
-0.073598
-0.073103
-0.0725576
-0.0719619
-0.0713136
-0.0706277
-0.0699542
-0.0692203
-0.0128807
-0.000625567
-0.0022133
-0.00138172
-0.000876044
-0.00036486
0.000144154
0.000652475
0.0011658
0.00168724
0.00221898
0.00276202
0.00331619
0.00387997
0.00445057
0.00502467
0.00559923
0.00617135
0.00673776
0.00729462
0.00783761
0.00836205
0.00886288
0.00933482
0.00977235
0.0101698
0.0105215
0.0108216
0.0110643
0.011244
0.0113552
0.0113926
0.0113511
0.0112261
0.0110133
0.0107088
0.0103092
0.00981171
0.00921399
0.00851423
0.00771151
0.00680526
0.00579576
0.00468381
0.00347225
0.00216522
0.00076808
-0.000714543
-0.00227773
-0.00391735
-0.00562867
-0.00740732
-0.0092479
-0.0111457
-0.013095
-0.015091
-0.0171278
-0.0192006
-0.0213034
-0.0234314
-0.0255787
-0.0277406
-0.0299115
-0.0320868
-0.034261
-0.0364299
-0.0385883
-0.0407323
-0.0428569
-0.0449588
-0.0470333
-0.0490773
-0.0510867
-0.0530587
-0.0549895
-0.0568769
-0.0587175
-0.0605094
-0.0622496
-0.0639366
-0.0655678
-0.0671421
-0.0686573
-0.0701126
-0.0715062
-0.0728377
-0.0741054
-0.0753093
-0.0764482
-0.0775223
-0.0785304
-0.0794733
-0.0803499
-0.0811612
-0.0819065
-0.0825867
-0.0832015
-0.083752
-0.0842379
-0.0846606
-0.0850197
-0.085317
-0.0855522
-0.085727
-0.0858412
-0.0858969
-0.0858936
-0.0858337
-0.0857166
-0.0855447
-0.0853176
-0.0850376
-0.0847044
-0.0843204
-0.0838854
-0.0834004
-0.0828635
-0.0822873
-0.0817095
-0.0810692
-0.0128607
-0.000581049
-0.0023215
-0.00151632
-0.00107948
-0.000626337
-0.000176425
0.000273276
0.000728219
0.00119136
0.00166481
0.00214949
0.0026452
0.0031504
0.00366224
0.00417718
0.004692
0.00520374
0.00570911
0.00620424
0.00668478
0.00714599
0.00758276
0.00798976
0.0083614
0.00869198
0.00897569
0.0092067
0.00937917
0.00948739
0.00952574
0.00948885
0.00937166
0.00916935
0.0088776
0.00849238
0.00801023
0.00742818
0.00674383
0.00595527
0.00506147
0.00406158
0.00295594
0.00174519
0.000432636
-0.000977428
-0.00247939
-0.00406877
-0.00574056
-0.00749064
-0.00931413
-0.0112067
-0.0131632
-0.0151786
-0.0172474
-0.0193646
-0.0215244
-0.0237216
-0.0259506
-0.0282062
-0.0304827
-0.0327751
-0.0350779
-0.0373861
-0.0396946
-0.0419987
-0.0442935
-0.0465745
-0.0488373
-0.0510777
-0.0532916
-0.0554753
-0.0576251
-0.0597375
-0.0618094
-0.0638377
-0.0658197
-0.0677525
-0.069634
-0.0714617
-0.0732339
-0.0749485
-0.076604
-0.0781988
-0.0797318
-0.0812018
-0.0826078
-0.0839491
-0.0852251
-0.0864351
-0.087579
-0.0886564
-0.0896673
-0.0906116
-0.0914896
-0.0923013
-0.0930473
-0.0937276
-0.0943432
-0.0948942
-0.0953817
-0.0958059
-0.096168
-0.0964683
-0.0967084
-0.0968883
-0.0970098
-0.097073
-0.0970798
-0.0970303
-0.0969263
-0.0967682
-0.0965576
-0.0962951
-0.0959823
-0.095619
-0.0952056
-0.0947502
-0.0942788
-0.0937419
-0.0128345
-0.000541234
-0.00243529
-0.00165844
-0.00129348
-0.00090074
-0.000512587
-0.000124112
0.000269811
0.000672006
0.00108449
0.00150811
0.00194262
0.00238648
0.00283677
0.0032898
0.00374216
0.00419084
0.00463249
0.00506321
0.0054786
0.00587385
0.0062438
0.00658305
0.00688596
0.00714677
0.0073596
0.00751854
0.00761771
0.0076513
0.00761363
0.00749925
0.00730297
0.00701998
0.00664575
0.00617621
0.00560777
0.00493736
0.00416242
0.00328111
0.00229187
0.00119432
-1.21495e-05
-0.00132595
-0.00274444
-0.00426204
-0.00587409
-0.00757513
-0.00936121
-0.011227
-0.0131688
-0.015181
-0.0172595
-0.0193986
-0.0215935
-0.0238382
-0.0261278
-0.0284563
-0.0308188
-0.033209
-0.0356223
-0.0380525
-0.0404951
-0.0429441
-0.0453951
-0.0478424
-0.050282
-0.0527085
-0.0551181
-0.0575057
-0.0598681
-0.0622004
-0.0644999
-0.066762
-0.0689844
-0.0711631
-0.073296
-0.0753795
-0.0774121
-0.0793905
-0.0813136
-0.0831785
-0.0849844
-0.0867289
-0.0884116
-0.0900304
-0.0915851
-0.0930742
-0.0944976
-0.0958542
-0.0971443
-0.0983668
-0.0995224
-0.10061
-0.101632
-0.102586
-0.103473
-0.104294
-0.10505
-0.10574
-0.106366
-0.106928
-0.107428
-0.107865
-0.108241
-0.108556
-0.108812
-0.10901
-0.10915
-0.109234
-0.109263
-0.109238
-0.10916
-0.10903
-0.108849
-0.108618
-0.108338
-0.108014
-0.107658
-0.107233
-0.0128022
-0.000506283
-0.00255456
-0.001808
-0.00151784
-0.00118777
-0.000863933
-0.0005392
-0.000208842
0.000129839
0.00047877
0.00083872
0.00120939
0.00158921
0.00197523
0.00236366
0.00275095
0.00313397
0.00350932
0.00387305
0.00422068
0.00454734
0.00484781
0.00511662
0.00534808
0.00553633
0.00567545
0.00575946
0.00578239
0.00573836
0.00562162
0.00542661
0.0051481
0.00478109
0.00432103
0.00376373
0.00310545
0.00234301
0.00147378
0.000495677
-0.000592717
-0.00179238
-0.00310348
-0.00452508
-0.00605353
-0.00768378
-0.00941029
-0.0112285
-0.0131336
-0.0151211
-0.0171862
-0.0193244
-0.0215305
-0.0237998
-0.0261266
-0.0285058
-0.0309314
-0.0333985
-0.0359009
-0.0384335
-0.0409904
-0.0435666
-0.0461561
-0.0487543
-0.0513553
-0.0539547
-0.056547
-0.059128
-0.0616927
-0.064237
-0.0667563
-0.069247
-0.0717049
-0.0741268
-0.0765087
-0.078848
-0.0811412
-0.0833859
-0.0855791
-0.0877189
-0.0898026
-0.0918287
-0.0937949
-0.0957003
-0.0975427
-0.0993215
-0.101035
-0.102683
-0.104265
-0.105779
-0.107226
-0.108605
-0.109916
-0.111159
-0.112334
-0.113442
-0.114482
-0.115456
-0.116363
-0.117204
-0.11798
-0.118691
-0.119339
-0.119924
-0.120447
-0.12091
-0.121312
-0.121656
-0.121942
-0.122172
-0.122346
-0.122465
-0.122532
-0.122546
-0.12251
-0.122424
-0.12229
-0.12211
-0.121879
-0.121577
-0.0127635
-0.00047634
-0.00267923
-0.0019649
-0.0017524
-0.00148719
-0.00123017
-0.000971612
-0.000707284
-0.000434591
-0.000151706
0.000142054
0.000446332
0.00075952
0.00107867
0.0013999
0.00171956
0.00203442
0.00234099
0.00263524
0.00291261
0.00316816
0.00339661
0.0035924
0.00374978
0.00386282
0.00392553
0.00393184
0.00387573
0.00375122
0.00355248
0.00327386
0.00291
0.00245588
0.00190677
0.00125838
0.000506885
-0.000351057
-0.0013182
-0.00239673
-0.0035882
-0.00489373
-0.00631362
-0.00784697
-0.00948984
-0.011237
-0.0130829
-0.015023
-0.0170523
-0.0191666
-0.0213609
-0.0236305
-0.0259703
-0.0283756
-0.0308407
-0.0333604
-0.035929
-0.038541
-0.0411906
-0.0438725
-0.0465807
-0.0493099
-0.0520546
-0.0548094
-0.057569
-0.0603283
-0.0630822
-0.065826
-0.0685548
-0.0712644
-0.0739502
-0.0766082
-0.0792344
-0.0818252
-0.0843769
-0.0868863
-0.0893503
-0.0917659
-0.0941305
-0.0964416
-0.098697
-0.100895
-0.103032
-0.105109
-0.107122
-0.109072
-0.110956
-0.112774
-0.114525
-0.116208
-0.117824
-0.11937
-0.120849
-0.122258
-0.1236
-0.124872
-0.126077
-0.127214
-0.128284
-0.129288
-0.130226
-0.131098
-0.131907
-0.132652
-0.133334
-0.133955
-0.134517
-0.135018
-0.135462
-0.135848
-0.136179
-0.136456
-0.136679
-0.13685
-0.13697
-0.13704
-0.137065
-0.13704
-0.136947
-0.136776
-0.0127184
-0.00045152
-0.00280913
-0.00212904
-0.00199694
-0.00179869
-0.0016109
-0.00142086
-0.00122494
-0.00102063
-0.000806198
-0.000581063
-0.000345639
-0.000101575
0.000148166
0.000399693
0.000649288
0.000893577
0.00112898
0.00135135
0.00155606
0.00173809
0.00189206
0.00201236
0.00209314
0.00212842
0.00211212
0.00203811
0.00190026
0.00169253
0.00140898
0.00104389
0.000591796
4.75236e-05
-0.000593705
-0.00133632
-0.00218427
-0.00314104
-0.00420951
-0.00539198
-0.00669017
-0.0081052
-0.00963778
-0.0112867
-0.0130482
-0.0149166
-0.0168865
-0.018953
-0.0211117
-0.0233577
-0.0256866
-0.0280931
-0.0305725
-0.0331195
-0.0357291
-0.0383956
-0.0411136
-0.0438772
-0.0466811
-0.0495191
-0.052386
-0.0552757
-0.0581832
-0.0611025
-0.0640287
-0.0669562
-0.0698802
-0.0727954
-0.0756974
-0.0785812
-0.0814428
-0.0842775
-0.0870817
-0.0898511
-0.0925825
-0.0952721
-0.0979171
-0.100514
-0.103061
-0.105554
-0.107992
-0.110371
-0.112692
-0.114951
-0.117147
-0.119278
-0.121344
-0.123344
-0.125276
-0.12714
-0.128936
-0.130662
-0.13232
-0.133908
-0.135427
-0.136877
-0.138259
-0.139572
-0.140818
-0.141996
-0.143108
-0.144154
-0.145136
-0.146053
-0.146908
-0.147701
-0.148433
-0.149105
-0.14972
-0.150276
-0.150777
-0.151223
-0.151616
-0.151957
-0.152247
-0.152487
-0.152684
-0.152829
-0.152884
-0.152856
-0.012667
-0.000431941
-0.00294418
-0.0023003
-0.00225128
-0.00212204
-0.00200581
-0.00188656
-0.00176135
-0.00162773
-0.00148408
-0.00132991
-0.0011657
-0.000993153
-0.000815233
-0.000635805
-0.00045863
-0.000287214
-0.000125274
2.29362e-05
0.00015269
0.000258866
0.000336023
0.000378452
0.000380242
0.000335325
0.000237538
8.06713e-05
-0.000141475
-0.000435043
-0.000806062
-0.00126035
-0.0018035
-0.00244074
-0.00317702
-0.00401685
-0.00496435
-0.00602308
-0.00719612
-0.00848587
-0.00989417
-0.0114223
-0.013071
-0.0148393
-0.0167234
-0.0187172
-0.0208154
-0.023013
-0.0253057
-0.0276885
-0.030157
-0.032706
-0.0353305
-0.0380252
-0.0407851
-0.0436047
-0.0464784
-0.0494003
-0.0523649
-0.0553663
-0.0583988
-0.0614567
-0.0645345
-0.0676264
-0.0707271
-0.0738312
-0.0769336
-0.0800291
-0.083113
-0.0861804
-0.0892268
-0.0922479
-0.0952395
-0.0981976
-0.101119
-0.103999