/*--------------------------------*- C++ -*----------------------------------*\
  =========                 |
  \\      /  F ield         | OpenFOAM: The Open Source CFD Toolbox
   \\    /   O peration     | Website:  https://openfoam.org
    \\  /    A nd           | Version:  8
     \\/     M anipulation  |
\*---------------------------------------------------------------------------*/
FoamFile
{
    version     2.0;
    format      ascii;
    class       volScalarField;
    location    "0.06";
    object      nut;
}
// * * * * * * * * * * * * * * * * * * * * * * * * * * * * * * * * * * * * * //

dimensions      [0 2 -1 0 0 0 0];

internalField   nonuniform List<scalar> 
104000
(
0.000477924
0.000451908
0.000428159
0.000403647
0.000378046
0.000352034
0.000326238
0.000301267
0.000277537
0.00025532
0.000234678
0.000215588
0.00019798
0.00018171
0.000166636
0.000153293
0.000141098
0.000129797
0.000119274
0.000109449
0.000100256
9.16412e-05
8.35632e-05
7.59958e-05
6.89139e-05
6.22943e-05
5.613e-05
5.04112e-05
4.51228e-05
4.03126e-05
3.5981e-05
3.20547e-05
2.85e-05
2.52953e-05
2.24188e-05
1.98471e-05
1.75553e-05
1.55195e-05
1.37164e-05
1.2123e-05
1.07171e-05
9.47837e-06
8.38787e-06
7.42857e-06
6.58499e-06
5.84319e-06
5.19076e-06
4.61683e-06
4.11174e-06
3.66635e-06
3.27301e-06
2.92378e-06
2.61846e-06
2.39673e-06
2.31598e-06
2.29501e-06
2.2771e-06
2.24869e-06
2.20604e-06
2.15227e-06
2.09076e-06
2.02372e-06
1.9528e-06
1.87991e-06
1.808e-06
1.74245e-06
1.69085e-06
1.65806e-06
1.64219e-06
1.63659e-06
1.63419e-06
1.63016e-06
1.62234e-06
1.61039e-06
1.5948e-06
1.57635e-06
1.55576e-06
1.53362e-06
1.5104e-06
1.48646e-06
1.46204e-06
1.43734e-06
1.41252e-06
1.38775e-06
1.36327e-06
1.33946e-06
1.31694e-06
1.29653e-06
1.27901e-06
1.26484e-06
1.25399e-06
1.24598e-06
1.24008e-06
1.23553e-06
1.23161e-06
1.22778e-06
1.22361e-06
1.21884e-06
1.21338e-06
1.20725e-06
1.2006e-06
1.1937e-06
1.18685e-06
1.18038e-06
1.1745e-06
1.16933e-06
1.16486e-06
1.16101e-06
1.15762e-06
1.15453e-06
1.15158e-06
1.14864e-06
1.14563e-06
1.14248e-06
1.13918e-06
1.13578e-06
1.13231e-06
1.12885e-06
1.12548e-06
1.12221e-06
1.11899e-06
1.11583e-06
1.11274e-06
1.10973e-06
1.10683e-06
1.10402e-06
1.1013e-06
1.09867e-06
1.09611e-06
1.09363e-06
1.09124e-06
1.08894e-06
1.08674e-06
1.08465e-06
1.08268e-06
1.08083e-06
1.07909e-06
1.07746e-06
1.07592e-06
1.07446e-06
1.07309e-06
1.07178e-06
1.07054e-06
1.06937e-06
1.06826e-06
1.06722e-06
1.06625e-06
1.06534e-06
1.0645e-06
1.06371e-06
1.06299e-06
1.06232e-06
1.0617e-06
1.06114e-06
1.06062e-06
1.06015e-06
1.05973e-06
1.05935e-06
1.05902e-06
1.05872e-06
1.05846e-06
1.05824e-06
1.05803e-06
1.05789e-06
1.05751e-06
1.05684e-06
1.05597e-06
1.05502e-06
1.05407e-06
1.05313e-06
1.05224e-06
1.05138e-06
1.05057e-06
1.04979e-06
1.04905e-06
1.04834e-06
1.04765e-06
1.047e-06
1.04636e-06
1.04575e-06
1.04516e-06
1.04459e-06
1.04404e-06
1.04351e-06
1.043e-06
1.04251e-06
1.04204e-06
1.04159e-06
1.04115e-06
1.04074e-06
1.04034e-06
1.03996e-06
1.03959e-06
1.03924e-06
1.03889e-06
1.03856e-06
1.03823e-06
1.0379e-06
1.03758e-06
1.03725e-06
1.03691e-06
1.03658e-06
1.03623e-06
1.03588e-06
1.03551e-06
1.03514e-06
1.03475e-06
1.03435e-06
1.03393e-06
1.03349e-06
1.03302e-06
1.03253e-06
1.03201e-06
1.03146e-06
1.03088e-06
1.03025e-06
1.02957e-06
1.02885e-06
1.02807e-06
1.02723e-06
1.02633e-06
1.02535e-06
1.0243e-06
1.02316e-06
1.02192e-06
1.02059e-06
1.01914e-06
1.01757e-06
1.01586e-06
1.01401e-06
1.01199e-06
1.0098e-06
1.00744e-06
1.00487e-06
1.0021e-06
9.99112e-07
9.95881e-07
9.92395e-07
9.88633e-07
9.84576e-07
9.80202e-07
9.75486e-07
9.70402e-07
9.64923e-07
9.59019e-07
9.52658e-07
9.45806e-07
9.38425e-07
9.30477e-07
9.21918e-07
9.12704e-07
9.02785e-07
8.92111e-07
8.80625e-07
8.6827e-07
8.54984e-07
8.40701e-07
8.25354e-07
8.0887e-07
7.91177e-07
7.72199e-07
7.51862e-07
7.30094e-07
7.0683e-07
6.82018e-07
6.55632e-07
6.27697e-07
5.98344e-07
5.67848e-07
5.36869e-07
5.09071e-07
4.88638e-07
4.73256e-07
4.59145e-07
4.44653e-07
4.29374e-07
4.13367e-07
3.96744e-07
3.7961e-07
3.63948e-07
3.49092e-07
3.33802e-07
3.17822e-07
3.00979e-07
2.82942e-07
2.63211e-07
2.41416e-07
2.17493e-07
1.89374e-07
1.54189e-07
1.12511e-07
7.24886e-08
5.04451e-08
5.05902e-08
5.17536e-08
4.98572e-08
4.35064e-08
3.41985e-08
2.5129e-08
2.07252e-08
0.00222713
0.00214194
0.00204531
0.00193848
0.00182335
0.0017045
0.00158579
0.00147076
0.00136155
0.00125961
0.00116558
0.00107943
0.00100089
0.00092943
0.000864414
0.000805341
0.000751734
0.000703026
0.000658659
0.000618151
0.000581083
0.000547083
0.000515821
0.000487018
0.000460423
0.00043581
0.000412986
0.000391877
0.000372257
0.000353967
0.000336887
0.00032091
0.000305941
0.000291896
0.000278702
0.000266294
0.000254613
0.000243596
0.000233192
0.000223352
0.000214032
0.000205191
0.000196794
0.000188808
0.000181205
0.000173957
0.000167039
0.000160426
0.0001541
0.000148038
0.000142219
0.000136631
0.000131266
0.00012611
0.000121149
0.000116373
0.000111779
0.000107366
0.000103129
9.90568e-05
9.5141e-05
9.13767e-05
8.77682e-05
8.43445e-05
8.1209e-05
7.86136e-05
7.68757e-05
7.6052e-05
7.58705e-05
7.59767e-05
7.61094e-05
7.613e-05
7.59887e-05
7.56843e-05
7.5237e-05
7.4673e-05
7.40177e-05
7.32926e-05
7.25152e-05
7.16995e-05
7.08557e-05
6.99914e-05
6.91135e-05
6.82305e-05
6.73553e-05
6.65096e-05
6.57267e-05
6.50475e-05
6.45069e-05
6.41204e-05
6.38795e-05
6.3758e-05
6.3721e-05
6.37334e-05
6.3765e-05
6.37908e-05
6.3793e-05
6.37604e-05
6.36889e-05
6.35808e-05
6.34444e-05
6.32937e-05
6.31454e-05
6.30153e-05
6.29145e-05
6.2848e-05
6.28145e-05
6.28083e-05
6.28214e-05
6.28451e-05
6.28712e-05
6.28932e-05
6.29064e-05
6.29084e-05
6.28992e-05
6.28807e-05
6.28566e-05
6.28309e-05
6.28086e-05
6.27878e-05
6.27668e-05
6.27459e-05
6.27264e-05
6.27094e-05
6.26954e-05
6.26842e-05
6.26755e-05
6.26689e-05
6.26642e-05
6.26618e-05
6.2662e-05
6.26657e-05
6.26735e-05
6.26858e-05
6.27031e-05
6.27253e-05
6.27522e-05
6.27835e-05
6.28185e-05
6.28569e-05
6.28982e-05
6.29422e-05
6.29886e-05
6.30376e-05
6.30891e-05
6.31433e-05
6.32001e-05
6.32597e-05
6.33219e-05
6.33867e-05
6.34539e-05
6.35234e-05
6.35952e-05
6.36691e-05
6.37452e-05
6.38233e-05
6.39034e-05
6.39854e-05
6.40694e-05
6.41552e-05
6.42426e-05
6.43317e-05
6.44219e-05
6.45168e-05
6.45899e-05
6.46427e-05
6.46833e-05
6.47186e-05
6.47525e-05
6.47872e-05
6.48238e-05
6.48625e-05
6.49034e-05
6.49464e-05
6.49912e-05
6.50377e-05
6.50857e-05
6.51349e-05
6.51854e-05
6.52371e-05
6.52898e-05
6.53437e-05
6.53987e-05
6.54549e-05
6.55122e-05
6.55707e-05
6.56303e-05
6.56912e-05
6.57532e-05
6.58165e-05
6.5881e-05
6.59467e-05
6.60136e-05
6.60817e-05
6.61508e-05
6.62208e-05
6.62917e-05
6.63631e-05
6.64352e-05
6.65077e-05
6.65807e-05
6.66541e-05
6.67281e-05
6.68027e-05
6.68778e-05
6.69536e-05
6.703e-05
6.71071e-05
6.71849e-05
6.72634e-05
6.73426e-05
6.74226e-05
6.75031e-05
6.75844e-05
6.76663e-05
6.77489e-05
6.7832e-05
6.79158e-05
6.80003e-05
6.80853e-05
6.81709e-05
6.8257e-05
6.83437e-05
6.8431e-05
6.85187e-05
6.86068e-05
6.8695e-05
6.8783e-05
6.88705e-05
6.89574e-05
6.90436e-05
6.91293e-05
6.92144e-05
6.9299e-05
6.93832e-05
6.9467e-05
6.95504e-05
6.96335e-05
6.97161e-05
6.97983e-05
6.98798e-05
6.99608e-05
7.00409e-05
7.01202e-05
7.01984e-05
7.02753e-05
7.03508e-05
7.04246e-05
7.04963e-05
7.05658e-05
7.06326e-05
7.06963e-05
7.07566e-05
7.08128e-05
7.08646e-05
7.09113e-05
7.09523e-05
7.09868e-05
7.10141e-05
7.10332e-05
7.10429e-05
7.10423e-05
7.10298e-05
7.10038e-05
7.09626e-05
7.09041e-05
7.08255e-05
7.07234e-05
7.0604e-05
7.02911e-05
6.99095e-05
6.94889e-05
6.90376e-05
6.85537e-05
6.80299e-05
6.74575e-05
6.6827e-05
6.6129e-05
6.53522e-05
6.44853e-05
6.35162e-05
6.24273e-05
6.11939e-05
5.97829e-05
5.81462e-05
5.62133e-05
5.39108e-05
5.11549e-05
4.76701e-05
4.29753e-05
3.64895e-05
2.76191e-05
1.95133e-05
1.78703e-05
1.73815e-05
1.65366e-05
1.47838e-05
1.21344e-05
9.03064e-06
6.35701e-06
0.00461807
0.00448871
0.00430851
0.00409501
0.00385867
0.00361108
0.00336181
0.00311855
0.00288666
0.00266991
0.00246982
0.00228643
0.00211917
0.00196707
0.00182892
0.00170353
0.00158968
0.0014862
0.00139196
0.00130596
0.00122732
0.00115525
0.00108905
0.00102812
0.000971921
0.000919991
0.000871915
0.000827344
0.000785947
0.000747435
0.000711553
0.000678075
0.000646797
0.000617538
0.000590139
0.000564461
0.000540412
0.000517833
0.000496603
0.000476618
0.000457784
0.000440017
0.000423239
0.00040738
0.000392386
0.000378193
0.000364739
0.000351972
0.000339846
0.000328317
0.000317342
0.000306884
0.000296912
0.000287403
0.00027833
0.000269666
0.000261391
0.000253482
0.00024592
0.000238684
0.000231755
0.000225118
0.000218758
0.000212662
0.000206819
0.000201225
0.000195886
0.000190806
0.000185977
0.000181385
0.000177007
0.000172818
0.000168798
0.00016493
0.000161203
0.000157606
0.000154133
0.000150776
0.000147531
0.000144393
0.000141354
0.00013841
0.000135564
0.000132834
0.000130256
0.000127902
0.000125862
0.000124207
0.000122943
0.000122011
0.000121321
0.000120785
0.000120335
0.000119922
0.000119516
0.000119091
0.000118632
0.000118136
0.00011761
0.000117068
0.000116533
0.000116036
0.000115605
0.000115257
0.000114992
0.000114801
0.000114666
0.000114567
0.000114489
0.000114415
0.000114336
0.000114244
0.000114138
0.000114019
0.00011389
0.00011376
0.000113636
0.000113525
0.000113436
0.000113341
0.000113243
0.000113149
0.000113064
0.000112986
0.000112914
0.000112847
0.000112783
0.000112722
0.000112665
0.000112614
0.000112569
0.000112533
0.000112506
0.000112488
0.000112479
0.000112478
0.000112484
0.000112497
0.000112515
0.000112538
0.000112565
0.000112597
0.000112634
0.000112675
0.000112722
0.000112772
0.000112828
0.000112888
0.000112953
0.000113021
0.000113093
0.000113169
0.000113248
0.00011333
0.000113416
0.000113504
0.000113596
0.00011369
0.000113788
0.000113887
0.000113989
0.000114094
0.000114198
0.000114318
0.00011432
0.000114309
0.000114303
0.000114302
0.000114305
0.00011431
0.000114315
0.000114322
0.000114329
0.000114337
0.000114346
0.000114355
0.000114365
0.000114375
0.000114387
0.000114399
0.000114412
0.000114427
0.000114443
0.00011446
0.000114478
0.000114498
0.00011452
0.000114543
0.000114567
0.000114593
0.000114621
0.00011465
0.00011468
0.000114712
0.000114745
0.00011478
0.000114814
0.000114849
0.000114885
0.000114921
0.000114957
0.000114994
0.000115032
0.00011507
0.000115109
0.000115149
0.000115189
0.00011523
0.000115272
0.000115315
0.000115359
0.000115403
0.000115448
0.000115494
0.000115541
0.000115588
0.000115637
0.000115685
0.000115735
0.000115785
0.000115836
0.000115888
0.000115941
0.000115994
0.000116047
0.000116101
0.000116154
0.000116206
0.000116258
0.000116308
0.000116357
0.000116405
0.000116453
0.0001165
0.000116547
0.000116594
0.00011664
0.000116686
0.000116731
0.000116776
0.000116821
0.000116866
0.000116909
0.000116953
0.000116995
0.000117037
0.000117077
0.000117117
0.000117155
0.000117191
0.000117226
0.000117258
0.000117288
0.000117316
0.00011734
0.000117361
0.000117379
0.000117393
0.000117402
0.000117407
0.000117406
0.0001174
0.000117387
0.000117367
0.00011734
0.000117303
0.000117257
0.0001172
0.000117135
0.000117044
0.000116918
0.000116759
0.000116569
0.000116345
0.000116089
0.000115798
0.000115472
0.000115105
0.000114695
0.000114233
0.000113713
0.000113127
0.000112462
0.000111706
0.000110837
0.000109827
0.000108639
0.00010724
0.000105551
0.000103439
0.000100736
9.71413e-05
9.28802e-05
8.96694e-05
8.73651e-05
8.4873e-05
8.09208e-05
7.46129e-05
6.55141e-05
5.48358e-05
0.00744366
0.00727181
0.00700329
0.00666911
0.00629171
0.00589209
0.00548755
0.00509141
0.00471299
0.00435821
0.00403047
0.00373003
0.00345599
0.0032068
0.00298054
0.00277518
0.00258869
0.00241913
0.00226471
0.00212381
0.00199497
0.00187691
0.00176851
0.00166877
0.00157682
0.0014919
0.00141333
0.00134051
0.00127291
0.00121007
0.00115157
0.00109704
0.00104613
0.000998556
0.000954042
0.000912346
0.000873256
0.000836566
0.000802092
0.000769666
0.000739138
0.000710368
0.00068323
0.000657608
0.000633428
0.000610574
0.000588936
0.000568428
0.000548971
0.000530495
0.000512937
0.000496244
0.000480366
0.000465251
0.000450855
0.000437138
0.000424064
0.0004116
0.000399709
0.000388356
0.000377511
0.000367151
0.000357252
0.000347784
0.00033872
0.000330041
0.000321733
0.000313782
0.000306174
0.000298892
0.000291909
0.000285204
0.000278764
0.000272577
0.000266632
0.000260917
0.00025542
0.000250129
0.000245032
0.000240121
0.000235369
0.000230768
0.000226316
0.000222013
0.000217862
0.000213863
0.000210022
0.000206343
0.000202832
0.000199489
0.000196307
0.000193276
0.000190382
0.000187612
0.000184957
0.000182376
0.000179873
0.000177467
0.000175182
0.000173061
0.000171159
0.000169523
0.000168167
0.000167062
0.000166154
0.000165383
0.000164698
0.00016406
0.000163444
0.000162833
0.000162218
0.000161598
0.000160978
0.000160368
0.000159784
0.00015924
0.000158751
0.000158318
0.000157957
0.000157507
0.000157092
0.000156722
0.000156384
0.000156067
0.000155762
0.000155467
0.00015518
0.000154906
0.000154647
0.000154408
0.00015419
0.000153994
0.000153819
0.000153663
0.000153523
0.000153396
0.000153281
0.000153176
0.000153079
0.000152991
0.000152913
0.000152844
0.000152785
0.000152736
0.000152697
0.000152667
0.000152647
0.000152634
0.000152629
0.00015263
0.000152638
0.000152653
0.000152674
0.000152701
0.000152734
0.000152772
0.000152816
0.000152865
0.000152918
0.000152976
0.000153038
0.000153103
0.000153171
0.000153246
0.000153316
0.000153378
0.000153434
0.000153487
0.000153539
0.000153591
0.000153643
0.000153696
0.000153748
0.0001538
0.000153853
0.000153905
0.000153959
0.000154013
0.000154068
0.000154125
0.000154183
0.000154243
0.000154305
0.000154369
0.000154435
0.000154503
0.000154573
0.000154646
0.000154721
0.000154798
0.000154878
0.00015496
0.000155044
0.000155129
0.000155216
0.000155303
0.000155391
0.000155479
0.000155568
0.000155657
0.000155747
0.000155839
0.000155931
0.000156025
0.00015612
0.000156216
0.000156313
0.000156411
0.000156511
0.000156611
0.000156713
0.000156816
0.000156919
0.000157024
0.00015713
0.000157236
0.000157344
0.000157452
0.000157561
0.000157671
0.000157782
0.000157893
0.000158006
0.000158119
0.000158232
0.000158344
0.000158452
0.000158558
0.000158662
0.000158763
0.000158864
0.000158963
0.000159061
0.000159158
0.000159254
0.000159348
0.000159441
0.000159533
0.000159623
0.000159711
0.000159797
0.000159881
0.000159963
0.000160041
0.000160117
0.000160189
0.000160257
0.000160321
0.000160379
0.000160433
0.00016048
0.00016052
0.000160553
0.000160577
0.000160593
0.000160599
0.000160595
0.000160579
0.00016055
0.000160508
0.000160451
0.000160378
0.000160287
0.000160178
0.000160048
0.000159895
0.000159718
0.000159515
0.000159285
0.000159026
0.000158732
0.000158399
0.000158025
0.000157596
0.000157116
0.000156588
0.000156015
0.000155399
0.00015474
0.000154041
0.000153303
0.000152531
0.000151728
0.000150895
0.000150037
0.000149149
0.000148227
0.000147259
0.000146223
0.000145074
0.000143755
0.000142157
0.00014016
0.000138074
0.000136261
0.000134617
0.000132562
0.000129399
0.000124627
0.000118375
0.010637
0.0104189
0.0100543
0.00958585
0.00904944
0.00847743
0.00789637
0.00732639
0.00678138
0.00626994
0.00579675
0.00536305
0.00496753
0.0046079
0.0042814
0.00398505
0.00371592
0.00347121
0.00324833
0.00304495
0.00285899
0.00268862
0.0025322
0.0023883
0.00225568
0.00213323
0.00201997
0.00191504
0.00181769
0.00172723
0.00164305
0.00156462
0.00149146
0.00142312
0.00135922
0.0012994
0.00124334
0.00119076
0.00114138
0.00109497
0.00105131
0.00101019
0.000971426
0.000934852
0.000900311
0.000867657
0.000836748
0.00080746
0.000779681
0.000753315
0.000728273
0.00070449
0.000681896
0.000660405
0.00063995
0.000620475
0.000601929
0.000584262
0.00056742
0.000551353
0.00053602
0.000521387
0.000507418
0.000494056
0.000481268
0.000469031
0.000457325
0.000446127
0.000435412
0.000425152
0.000415291
0.000405813
0.000396713
0.000387979
0.000379597
0.000371548
0.000363813
0.000356375
0.000349218
0.000342329
0.000335639
0.000329165
0.00032292
0.000316901
0.000311098
0.0003055
0.0003001
0.000294888
0.000289859
0.000285007
0.000280327
0.000275812
0.000271456
0.000267249
0.000263193
0.000259154
0.000255249
0.000251486
0.000247854
0.000244348
0.00024097
0.000237726
0.000234623
0.000231663
0.000228845
0.000226157
0.00022359
0.000221129
0.000218764
0.00021649
0.000214305
0.000212219
0.000210247
0.000208416
0.000206751
0.00020527
0.000203971
0.000202834
0.000201834
0.000200924
0.000200074
0.000199267
0.000198492
0.000197741
0.000197013
0.00019631
0.000195641
0.000195012
0.000194432
0.000193905
0.000193428
0.000192998
0.000192607
0.000192248
0.000191914
0.0001916
0.000191303
0.000191022
0.000190758
0.000190512
0.000190286
0.00019008
0.000189896
0.00018973
0.000189583
0.000189452
0.000189335
0.000189231
0.000189139
0.000189058
0.000188989
0.000188932
0.000188886
0.00018885
0.000188825
0.00018881
0.000188803
0.000188804
0.000188812
0.000188828
0.00018885
0.000188878
0.000188913
0.000188953
0.000188999
0.000189049
0.000189101
0.000189155
0.000189212
0.000189271
0.000189331
0.000189391
0.000189452
0.000189513
0.000189575
0.000189639
0.000189704
0.000189772
0.000189843
0.000189917
0.000189993
0.000190073
0.000190156
0.000190243
0.000190333
0.000190427
0.000190524
0.000190624
0.000190728
0.000190835
0.000190946
0.00019106
0.000191177
0.000191295
0.000191412
0.00019153
0.000191647
0.000191766
0.000191886
0.000192008
0.000192131
0.000192257
0.000192384
0.000192514
0.000192645
0.000192778
0.000192913
0.00019305
0.000193188
0.000193328
0.000193469
0.000193612
0.000193756
0.000193901
0.000194048
0.000194196
0.000194346
0.000194496
0.000194648
0.000194801
0.000194955
0.000195109
0.000195265
0.000195422
0.000195579
0.000195727
0.000195868
0.000196006
0.000196142
0.000196277
0.000196411
0.000196544
0.000196676
0.000196806
0.000196936
0.000197063
0.000197188
0.000197312
0.000197432
0.00019755
0.000197665
0.000197777
0.000197884
0.000197988
0.000198087
0.00019818
0.000198267
0.000198347
0.00019842
0.000198484
0.000198539
0.000198584
0.000198617
0.000198639
0.000198647
0.000198641
0.00019862
0.000198582
0.000198525
0.000198448
0.000198349
0.000198227
0.000198078
0.000197902
0.000197694
0.000197454
0.000197177
0.000196862
0.000196504
0.000196102
0.000195651
0.000195149
0.000194591
0.00019393
0.000193207
0.000192422
0.000191573
0.000190658
0.000189678
0.000188636
0.000187536
0.000186386
0.000185197
0.000183981
0.000182753
0.000181528
0.000180323
0.000179151
0.000178022
0.00017693
0.000175862
0.000174785
0.000173614
0.000172347
0.000171131
0.000170071
0.000169009
0.000167525
0.000165116
0.00016151
0.0141582
0.0138876
0.0134163
0.0127986
0.0120851
0.0113212
0.0105439
0.00978112
0.00905183
0.00836749
0.00773397
0.00715328
0.00662386
0.0061426
0.00570572
0.00530921
0.0049491
0.00462164
0.00432337
0.0040512
0.00380234
0.00357433
0.00336502
0.00317249
0.00299507
0.00283129
0.00267985
0.00253958
0.00240948
0.00228864
0.00217623
0.00207155
0.00197394
0.00188281
0.00179764
0.00171795
0.00164331
0.00157333
0.00150765
0.00144595
0.00138794
0.00133333
0.00128188
0.00123336
0.00118755
0.00114426
0.00110329
0.00106449
0.00102769
0.000992784
0.000959644
0.000928169
0.000898258
0.000869817
0.000842751
0.000816993
0.000792481
0.000769145
0.000746909
0.000725705
0.000705483
0.000686199
0.000667793
0.000650172
0.00063331
0.000617189
0.000601781
0.000587048
0.000572953
0.000559453
0.00054643
0.00053392
0.00052193
0.000510437
0.000499411
0.000488825
0.000478655
0.000468877
0.000459472
0.000450423
0.000441537
0.000432999
0.0004248
0.000416908
0.000409302
0.000401965
0.000394882
0.000388042
0.000381433
0.000375047
0.000368873
0.000362904
0.00035713
0.000351543
0.000346139
0.00034089
0.000335794
0.000330849
0.000326054
0.000321403
0.000316893
0.000312519
0.00030828
0.000304174
0.0003002
0.000296354
0.00029263
0.000289025
0.000285531
0.000282143
0.000278857
0.00027567
0.000272581
0.000269591
0.000266707
0.000263934
0.000261274
0.00025873
0.000256299
0.000253972
0.000251741
0.000249601
0.000247548
0.000245586
0.000243725
0.00024198
0.000240366
0.000238897
0.000237574
0.000236387
0.00023532
0.000234351
0.000233457
0.000232623
0.000231836
0.000231089
0.00023038
0.000229711
0.000229086
0.000228507
0.000227975
0.00022749
0.000227048
0.000226643
0.00022627
0.000225924
0.000225603
0.000225304
0.000225027
0.000224772
0.000224538
0.000224327
0.000224137
0.000223966
0.000223813
0.000223674
0.000223551
0.00022344
0.000223341
0.000223254
0.000223179
0.000223114
0.00022306
0.000223017
0.000222984
0.00022296
0.000222945
0.000222937
0.000222937
0.000222944
0.000222953
0.000222963
0.000222975
0.000222989
0.000223008
0.000223033
0.000223063
0.000223099
0.000223141
0.000223189
0.000223243
0.000223303
0.000223368
0.000223439
0.000223517
0.000223599
0.000223687
0.000223781
0.00022388
0.000223984
0.000224093
0.000224207
0.000224326
0.000224438
0.000224548
0.000224659
0.000224772
0.000224889
0.000225009
0.000225133
0.00022526
0.000225391
0.000225524
0.000225661
0.000225801
0.000225944
0.000226089
0.000226237
0.000226387
0.000226539
0.000226694
0.00022685
0.000227009
0.00022717
0.000227333
0.000227498
0.000227664
0.000227833
0.000228004
0.000228176
0.00022835
0.000228526
0.000228702
0.00022888
0.000229061
0.0002292
0.000229339
0.000229482
0.000229628
0.000229774
0.000229921
0.000230067
0.000230212
0.000230355
0.000230498
0.000230638
0.000230776
0.000230912
0.000231045
0.000231175
0.000231301
0.000231423
0.000231541
0.000231653
0.00023176
0.000231859
0.000231951
0.000232035
0.000232108
0.00023217
0.000232221
0.000232259
0.000232284
0.000232294
0.000232288
0.000232265
0.000232223
0.00023216
0.000232075
0.000231965
0.000231829
0.000231663
0.000231466
0.000231234
0.000230965
0.000230655
0.000230301
0.0002299
0.000229447
0.000228938
0.00022837
0.000227737
0.000227038
0.000226257
0.000225391
0.000224438
0.000223395
0.00022226
0.000221033
0.000219716
0.000218311
0.000216824
0.000215264
0.000213645
0.000211986
0.000210307
0.000208637
0.000207004
0.000205439
0.000203971
0.000202619
0.000201398
0.000200291
0.000199263
0.000198336
0.000197573
0.000196973
0.000196358
0.000195366
0.000193619
0.0179818
0.017651
0.0170599
0.016276
0.015366
0.0143902
0.0133975
0.0124241
0.0114943
0.0106226
0.00981594
0.00907641
0.00840248
0.00779004
0.00723419
0.00672973
0.00627158
0.00585494
0.00547542
0.00512908
0.00481238
0.00452222
0.00425584
0.00401085
0.00378511
0.00357674
0.00338411
0.00320574
0.00304034
0.00288675
0.00274394
0.00261098
0.00248705
0.0023714
0.00226335
0.0021623
0.0020677
0.00197905
0.00189589
0.0018178
0.0017444
0.00167535
0.00161033
0.00154903
0.00149117
0.00143651
0.0013848
0.00133583
0.00128941
0.00124539
0.00120362
0.00116396
0.00112629
0.00109047
0.0010564
0.001024
0.000993188
0.000963865
0.000935889
0.000909216
0.000883801
0.000859575
0.000836453
0.00081427
0.000793071
0.000772832
0.000753499
0.000735017
0.000717336
0.0007004
0.000683938
0.000668214
0.000653176
0.000638767
0.000624943
0.00061167
0.000598918
0.000586659
0.000574868
0.000563523
0.000552568
0.000541996
0.000531804
0.000521978
0.0005125
0.000503354
0.000494523
0.000485992
0.000477747
0.000469776
0.000462067
0.000454607
0.000447387
0.000440396
0.000433625
0.000427062
0.000420697
0.000414521
0.000408528
0.00040271
0.000397061
0.000391576
0.000386249
0.000381074
0.000376049
0.000371167
0.000366426
0.000361819
0.000357343
0.000352992
0.000348761
0.000344646
0.000340643
0.000336749
0.000332963
0.000329283
0.000325708
0.000322238
0.000318872
0.000315607
0.00031244
0.000309365
0.00030638
0.000303481
0.00030067
0.000297947
0.000295315
0.000292781
0.000290346
0.000288011
0.000285775
0.000283635
0.000281587
0.000279631
0.000277767
0.000276
0.000274339
0.000272794
0.000271372
0.000270074
0.000268892
0.000267815
0.000266828
0.000265916
0.000265068
0.000264274
0.000263529
0.000262832
0.000262182
0.00026158
0.000261026
0.000260519
0.000260051
0.000259617
0.000259213
0.000258837
0.000258486
0.000258159
0.000257853
0.000257569
0.000257306
0.000257063
0.00025684
0.000256636
0.00025645
0.000256281
0.000256127
0.000255988
0.000255863
0.000255751
0.000255634
0.000255519
0.000255412
0.000255317
0.000255234
0.000255165
0.000255107
0.000255061
0.000255025
0.000255
0.000254986
0.000254981
0.000254986
0.000255
0.000255023
0.000255055
0.000255095
0.000255144
0.000255201
0.000255266
0.000255339
0.000255417
0.000255505
0.000255554
0.00025561
0.000255676
0.000255752
0.000255836
0.000255925
0.00025602
0.000256121
0.000256227
0.000256338
0.000256453
0.000256574
0.000256698
0.000256825
0.000256957
0.000257091
0.000257229
0.00025737
0.000257515
0.000257663
0.000257814
0.000257969
0.000258127
0.000258288
0.000258452
0.000258619
0.000258789
0.000258961
0.000259135
0.000259312
0.00025949
0.00025967
0.000259846
0.000260015
0.000260182
0.000260347
0.000260511
0.000260675
0.000260838
0.000261001
0.000261162
0.000261322
0.000261481
0.000261637
0.000261791
0.000261941
0.000262089
0.000262232
0.000262371
0.000262505
0.000262632
0.000262753
0.000262866
0.000262969
0.00026306
0.000263139
0.000263205
0.000263258
0.000263297
0.00026332
0.000263327
0.000263315
0.000263282
0.000263228
0.00026315
0.000263046
0.000262913
0.000262749
0.000262551
0.000262316
0.000262042
0.000261724
0.000261359
0.000260943
0.000260472
0.000259942
0.000259348
0.000258685
0.000257947
0.00025713
0.000256229
0.000255234
0.00025414
0.000252937
0.000251623
0.000250197
0.000248657
0.000247003
0.000245237
0.000243364
0.000241393
0.000239339
0.000237223
0.00023507
0.000232915
0.000230798
0.000228763
0.000226854
0.000225119
0.000223591
0.000222282
0.000221197
0.000220361
0.000219801
0.00021947
0.000219177
0.000218598
0.022091
0.021691
0.0209646
0.0199948
0.0188671
0.0176585
0.016431
0.0152297
0.0140843
0.013012
0.0120209
0.0111126
0.010285
0.0095333
0.00885117
0.00823217
0.00766998
0.00715869
0.00669292
0.00626781
0.00587905
0.00552285
0.00519584
0.00489507
0.00461796
0.00436221
0.00412579
0.00390692
0.003704
0.00351562
0.00334051
0.00317753
0.00302566
0.002884
0.0027517
0.00262801
0.00251227
0.00240384
0.00230217
0.00220675
0.0021171
0.00203279
0.00195342
0.00187864
0.00180807
0.00174142
0.00167838
0.00161869
0.00156213
0.00150851
0.00145765
0.00140939
0.00136355
0.00132
0.00127857
0.00123921
0.00120181
0.00116623
0.00113224
0.00109987
0.00106905
0.0010397
0.00101169
0.000984665
0.000958943
0.000934418
0.00091099
0.000888593
0.000867165
0.000846646
0.00082693
0.000808011
0.000789868
0.000772465
0.000755762
0.000739724
0.000724315
0.000709503
0.000695257
0.000681548
0.000668341
0.00065561
0.000643334
0.000631492
0.000620065
0.000609035
0.000598382
0.000588089
0.00057814
0.000568518
0.000559209
0.0005502
0.000541477
0.000533029
0.000524843
0.000516908
0.000509213
0.000501747
0.000494501
0.000487467
0.000480635
0.000473999
0.000467551
0.000461284
0.000455192
0.00044927
0.000443511
0.00043791
0.000432461
0.00042716
0.000422
0.000416978
0.000412089
0.000407327
0.000402688
0.000398169
0.000393767
0.00038948
0.000385305
0.00038124
0.000377279
0.000373419
0.000369658
0.000365992
0.000362421
0.000358942
0.000355553
0.000352256
0.000349047
0.000345926
0.000342892
0.000339944
0.000337081
0.000334302
0.000331606
0.000328993
0.000326464
0.00032402
0.000321666
0.000319399
0.000317219
0.00031513
0.00031313
0.000311222
0.000309405
0.000307684
0.000306062
0.000304547
0.000303142
0.000301848
0.000300662
0.000299575
0.000298562
0.000297615
0.00029673
0.000295901
0.000295124
0.000294393
0.000293709
0.000293069
0.000292472
0.000291916
0.000291399
0.000290917
0.000290468
0.000290048
0.000289656
0.00028929
0.000288949
0.000288636
0.000288268
0.00028793
0.000287628
0.000287355
0.000287108
0.000286883
0.000286678
0.000286492
0.000286324
0.000286172
0.000286037
0.000285918
0.000285813
0.000285724
0.000285648
0.000285586
0.000285537
0.000285501
0.000285477
0.000285465
0.000285462
0.000285468
0.000285484
0.000285502
0.000285522
0.000285546
0.000285578
0.000285617
0.000285663
0.000285717
0.000285779
0.000285849
0.000285925
0.000286008
0.000286097
0.000286191
0.00028629
0.000286393
0.000286501
0.000286614
0.000286733
0.000286856
0.000286986
0.00028712
0.000287259
0.000287403
0.000287552
0.000287705
0.000287862
0.000288023
0.000288187
0.000288355
0.000288527
0.000288699
0.000288871
0.000289044
0.000289216
0.000289388
0.00028956
0.000289731
0.000289902
0.000290073
0.000290244
0.000290414
0.000290583
0.00029075
0.000290916
0.00029108
0.000291241
0.000291398
0.000291552
0.0002917
0.000291843
0.000291979
0.000292108
0.000292227
0.000292331
0.00029242
0.000292496
0.000292559
0.000292607
0.000292641
0.000292658
0.000292656
0.000292633
0.000292588
0.000292518
0.000292422
0.000292296
0.000292138
0.000291945
0.000291713
0.000291441
0.000291124
0.000290758
0.000290341
0.000289867
0.000289332
0.000288731
0.000288059
0.000287311
0.000286481
0.000285563
0.000284551
0.000283438
0.000282218
0.000280865
0.000279393
0.000277797
0.000276072
0.000274214
0.00027222
0.000270091
0.000267832
0.000265451
0.000262963
0.000260389
0.000257756
0.000255104
0.000252478
0.000249933
0.00024753
0.000245333
0.000243398
0.000241764
0.000240468
0.000239544
0.000239008
0.000238792
0.00023869
0.0264739
0.0259945
0.0251144
0.0239364
0.0225676
0.0211041
0.019622
0.0181759
0.0168006
0.0155158
0.0143301
0.0132445
0.0122558
0.0113578
0.0105433
0.00980419
0.00913292
0.00852237
0.0079661
0.00745832
0.0069939
0.00656833
0.00617761
0.00581823
0.00548712
0.00518154
0.00489909
0.00463764
0.00439528
0.00417034
0.00396128
0.00376677
0.00358557
0.00341659
0.00325883
0.00311141
0.00297349
0.00284434
0.00272329
0.00260972
0.00250306
0.00240279
0.00230844
0.00221956
0.00213572
0.00205654
0.00198167
0.00191078
0.00184363
0.00178001
0.00171967
0.00166245
0.00160811
0.00155652
0.00150741
0.00146082
0.00141661
0.00137458
0.00133427
0.00129602
0.00125965
0.00122501
0.00119197
0.00116035
0.00113013
0.00110127
0.00107368
0.00104728
0.00102202
0.000997824
0.000974626
0.000952377
0.000931031
0.000910547
0.000890883
0.000872
0.000853859
0.000836421
0.00081965
0.000803511
0.000787968
0.000772991
0.000758551
0.000744621
0.000731178
0.000718198
0.000705661
0.000693545
0.000681831
0.000670502
0.000659539
0.000648926
0.00063865
0.000628694
0.000619045
0.000609691
0.000600619
0.000591817
0.000583273
0.000574978