/*--------------------------------*- C++ -*----------------------------------*\
  =========                 |
  \\      /  F ield         | OpenFOAM: The Open Source CFD Toolbox
   \\    /   O peration     | Website:  https://openfoam.org
    \\  /    A nd           | Version:  8
     \\/     M anipulation  |
\*---------------------------------------------------------------------------*/
FoamFile
{
    version     2.0;
    format      ascii;
    class       volScalarField;
    location    "0.06";
    object      nuTilda;
}
// * * * * * * * * * * * * * * * * * * * * * * * * * * * * * * * * * * * * * //

dimensions      [0 2 -1 0 0 0 0];

internalField   nonuniform List<scalar> 
104000
(
0.000479476
0.000453642
0.000430087
0.00040581
0.000380505
0.000354857
0.000329507
0.000305073
0.000281978
0.000260502
0.000240716
0.000222604
0.000206099
0.000191055
0.000177332
0.000165418
0.000154724
0.000145016
0.000136164
0.000128074
0.000120659
0.000113845
0.000107567
0.000101772
9.64112e-05
9.14354e-05
8.68081e-05
8.25043e-05
7.84877e-05
7.4765e-05
7.13535e-05
6.81776e-05
6.52085e-05
6.24281e-05
5.98225e-05
5.73786e-05
5.50841e-05
5.29273e-05
5.08986e-05
4.89884e-05
4.71879e-05
4.54889e-05
4.38842e-05
4.23672e-05
4.0932e-05
3.95728e-05
3.82847e-05
3.70627e-05
3.59028e-05
3.48001e-05
3.37497e-05
3.27493e-05
3.18527e-05
3.15266e-05
3.22501e-05
3.3254e-05
3.4211e-05
3.5037e-05
3.57524e-05
3.63227e-05
3.67295e-05
3.69839e-05
3.71117e-05
3.71416e-05
3.71023e-05
3.70282e-05
3.69589e-05
3.692e-05
3.6909e-05
3.6906e-05
3.6892e-05
3.6858e-05
3.68041e-05
3.67346e-05
3.66541e-05
3.65665e-05
3.6474e-05
3.63781e-05
3.62794e-05
3.61783e-05
3.60751e-05
3.597e-05
3.58631e-05
3.57549e-05
3.56463e-05
3.55388e-05
3.54348e-05
3.53375e-05
3.52501e-05
3.51746e-05
3.51109e-05
3.50572e-05
3.50107e-05
3.49683e-05
3.49274e-05
3.48861e-05
3.48432e-05
3.47979e-05
3.47502e-05
3.47005e-05
3.46494e-05
3.45979e-05
3.45472e-05
3.44985e-05
3.44525e-05
3.44096e-05
3.43698e-05
3.43326e-05
3.42974e-05
3.42635e-05
3.42303e-05
3.41973e-05
3.41643e-05
3.4131e-05
3.40976e-05
3.40641e-05
3.40309e-05
3.39981e-05
3.3966e-05
3.39347e-05
3.39039e-05
3.38736e-05
3.38438e-05
3.38147e-05
3.37861e-05
3.37582e-05
3.37308e-05
3.37038e-05
3.36773e-05
3.36513e-05
3.36257e-05
3.36006e-05
3.35761e-05
3.35521e-05
3.35286e-05
3.35057e-05
3.34831e-05
3.34611e-05
3.34394e-05
3.34181e-05
3.3397e-05
3.33764e-05
3.3356e-05
3.33359e-05
3.33162e-05
3.32967e-05
3.32774e-05
3.32585e-05
3.32398e-05
3.32213e-05
3.32031e-05
3.3185e-05
3.31672e-05
3.31495e-05
3.3132e-05
3.31146e-05
3.30974e-05
3.30803e-05
3.30633e-05
3.30464e-05
3.30295e-05
3.30128e-05
3.2996e-05
3.29795e-05
3.29623e-05
3.29447e-05
3.2927e-05
3.29097e-05
3.28926e-05
3.28759e-05
3.28593e-05
3.28429e-05
3.28265e-05
3.28102e-05
3.27939e-05
3.27776e-05
3.27612e-05
3.27449e-05
3.27285e-05
3.27122e-05
3.26958e-05
3.26795e-05
3.26631e-05
3.26467e-05
3.26302e-05
3.26138e-05
3.25973e-05
3.25807e-05
3.25641e-05
3.25475e-05
3.25307e-05
3.25139e-05
3.2497e-05
3.24799e-05
3.24628e-05
3.24455e-05
3.24281e-05
3.24105e-05
3.23928e-05
3.23749e-05
3.23567e-05
3.23384e-05
3.23198e-05
3.2301e-05
3.22819e-05
3.22625e-05
3.22428e-05
3.22227e-05
3.22022e-05
3.21813e-05
3.216e-05
3.21381e-05
3.21157e-05
3.20927e-05
3.20691e-05
3.20448e-05
3.20198e-05
3.19939e-05
3.19672e-05
3.19396e-05
3.1911e-05
3.18814e-05
3.18506e-05
3.18185e-05
3.17851e-05
3.17502e-05
3.17138e-05
3.16757e-05
3.16359e-05
3.15942e-05
3.15504e-05
3.15044e-05
3.1456e-05
3.14051e-05
3.13513e-05
3.12945e-05
3.12344e-05
3.11707e-05
3.11031e-05
3.10314e-05
3.0955e-05
3.08737e-05
3.0787e-05
3.06944e-05
3.05955e-05
3.04896e-05
3.03762e-05
3.02545e-05
3.01237e-05
2.99832e-05
2.98318e-05
2.96686e-05
2.94924e-05
2.93019e-05
2.90957e-05
2.88722e-05
2.86295e-05
2.83656e-05
2.80783e-05
2.77648e-05
2.74224e-05
2.70476e-05
2.66368e-05
2.61858e-05
2.56897e-05
2.51434e-05
2.45421e-05
2.38815e-05
2.31529e-05
2.22654e-05
2.14345e-05
2.08458e-05
2.05039e-05
2.02793e-05
2.00891e-05
1.99013e-05
1.97054e-05
1.94981e-05
1.92783e-05
1.90713e-05
1.8868e-05
1.86517e-05
1.84176e-05
1.81612e-05
1.78754e-05
1.75492e-05
1.71741e-05
1.67438e-05
1.61794e-05
1.53615e-05
1.41901e-05
1.27175e-05
1.16137e-05
1.16147e-05
1.16656e-05
1.15469e-05
1.11524e-05
1.05042e-05
9.80864e-06
9.89147e-06
0.0022272
0.00214202
0.00204539
0.00193858
0.00182346
0.00170463
0.00158593
0.00147092
0.00136174
0.00125984
0.00116584
0.00107974
0.00100125
0.000929844
0.000864893
0.000805892
0.000752365
0.000703747
0.00065948
0.000619083
0.000582136
0.000548269
0.000517155
0.000488511
0.00046209
0.000437666
0.000415046
0.000394159
0.000374779
0.000356748
0.000339946
0.000324267
0.000309618
0.000295915
0.000283085
0.000271065
0.000259795
0.000249215
0.000239271
0.000229916
0.000221105
0.000212798
0.00020496
0.000197558
0.000190563
0.000183947
0.000177684
0.000171749
0.000166122
0.000160779
0.000155698
0.000150868
0.000146279
0.000141931
0.000137817
0.000133908
0.000130191
0.000126657
0.000123297
0.000120097
0.000117045
0.000114131
0.000111357
0.000108742
0.000106368
0.000104432
0.000103172
0.000102609
0.000102517
0.000102626
0.00010274
0.000102761
0.000102654
0.00010242
0.000102077
0.000101645
0.000101144
0.00010059
9.99979e-05
9.9377e-05
9.87358e-05
9.80799e-05
9.74148e-05
9.67473e-05
9.60877e-05
9.54529e-05
9.48678e-05
9.43621e-05
9.39599e-05
9.36709e-05
9.34884e-05
9.3393e-05
9.33594e-05
9.33619e-05
9.33786e-05
9.33913e-05
9.33867e-05
9.33568e-05
9.32984e-05
9.32132e-05
9.31072e-05
9.29907e-05
9.28758e-05
9.27745e-05
9.26952e-05
9.26418e-05
9.26134e-05
9.26059e-05
9.26134e-05
9.26291e-05
9.2647e-05
9.26619e-05
9.26704e-05
9.26705e-05
9.26622e-05
9.2647e-05
9.26275e-05
9.26067e-05
9.25886e-05
9.25718e-05
9.25549e-05
9.25382e-05
9.25225e-05
9.25088e-05
9.24973e-05
9.2488e-05
9.24803e-05
9.24743e-05
9.24696e-05
9.24666e-05
9.24656e-05
9.24672e-05
9.24719e-05
9.248e-05
9.24917e-05
9.25071e-05
9.2526e-05
9.25481e-05
9.2573e-05
9.26003e-05
9.26298e-05
9.26614e-05
9.26947e-05
9.273e-05
9.27672e-05
9.28063e-05
9.28474e-05
9.28906e-05
9.29357e-05
9.29828e-05
9.30316e-05
9.30823e-05
9.31346e-05
9.31885e-05
9.3244e-05
9.33011e-05
9.33596e-05
9.34197e-05
9.34811e-05
9.3544e-05
9.36081e-05
9.36735e-05
9.37397e-05
9.38094e-05
9.38628e-05
9.39011e-05
9.39304e-05
9.39558e-05
9.39802e-05
9.40053e-05
9.40318e-05
9.406e-05
9.40898e-05
9.41212e-05
9.4154e-05
9.4188e-05
9.42231e-05
9.42593e-05
9.42963e-05
9.43343e-05
9.4373e-05
9.44127e-05
9.44532e-05
9.44945e-05
9.45367e-05
9.45798e-05
9.46238e-05
9.46687e-05
9.47145e-05
9.47612e-05
9.48088e-05
9.48574e-05
9.49068e-05
9.49571e-05
9.50081e-05
9.50599e-05
9.51122e-05
9.51651e-05
9.52183e-05
9.52719e-05
9.53259e-05
9.53802e-05
9.54348e-05
9.54899e-05
9.55454e-05
9.56014e-05
9.56578e-05
9.57148e-05
9.57722e-05
9.58302e-05
9.58886e-05
9.59476e-05
9.6007e-05
9.60669e-05
9.61273e-05
9.61881e-05
9.62493e-05
9.6311e-05
9.63731e-05
9.64356e-05
9.64985e-05
9.65618e-05
9.66254e-05
9.66894e-05
9.67537e-05
9.68183e-05
9.68828e-05
9.6947e-05
9.70109e-05
9.70742e-05
9.7137e-05
9.71992e-05
9.72609e-05
9.73222e-05
9.73831e-05
9.74435e-05
9.75035e-05
9.75631e-05
9.76222e-05
9.76808e-05
9.77388e-05
9.7796e-05
9.78525e-05
9.79081e-05
9.79625e-05
9.80158e-05
9.80676e-05
9.81177e-05
9.8166e-05
9.82121e-05
9.82557e-05
9.82964e-05
9.83339e-05
9.83678e-05
9.83975e-05
9.84225e-05
9.84422e-05
9.8456e-05
9.84631e-05
9.84625e-05
9.84534e-05
9.84345e-05
9.84046e-05
9.8362e-05
9.83051e-05
9.82318e-05
9.81396e-05
9.80252e-05
9.78917e-05
9.76019e-05
9.72616e-05
9.69032e-05
9.6537e-05
9.61576e-05
9.57547e-05
9.53187e-05
9.48408e-05
9.43131e-05
9.37266e-05
9.30728e-05
9.23424e-05
9.15224e-05
9.05948e-05
8.95352e-05
8.83091e-05
8.68665e-05
8.51597e-05
8.31238e-05
8.05196e-05
7.69591e-05
7.19319e-05
6.46869e-05
5.71094e-05
5.54122e-05
5.48707e-05
5.39635e-05
5.20319e-05
4.89005e-05
4.47865e-05
4.06221e-05
0.00461808
0.00448873
0.00430853
0.00409503
0.0038587
0.0036111
0.00336184
0.00311858
0.00288671
0.00266996
0.00246988
0.0022865
0.00211925
0.00196716
0.00182903
0.00170365
0.00158983
0.00148636
0.00139215
0.00130617
0.00122756
0.00115551
0.00108935
0.00102846
0.000972299
0.000920413
0.000872384
0.000827865
0.000786524
0.000748073
0.000712257
0.000678849
0.000647648
0.000618471
0.00059116
0.000565575
0.000541627
0.000519156
0.000498039
0.000478176
0.000459471
0.00044184
0.000425206
0.000409501
0.000394668
0.000380644
0.000367369
0.000354791
0.000342862
0.000331539
0.000320781
0.000310549
0.000300815
0.000291553
0.000282738
0.000274344
0.000266348
0.000258729
0.000251466
0.00024454
0.00023793
0.000231621
0.000225599
0.00021985
0.000214361
0.000209129
0.000204158
0.000199449
0.000194995
0.000190779
0.000186779
0.000182969
0.000179331
0.000175847
0.000172505
0.000169297
0.000166215
0.000163251
0.0001604
0.000157656
0.000155014
0.000152467
0.000150019
0.000147684
0.000145494
0.00014351
0.000141806
0.000140436
0.000139396
0.000138628
0.000138057
0.000137609
0.00013723
0.000136879
0.000136533
0.000136171
0.000135782
0.000135363
0.00013492
0.000134466
0.000134019
0.000133604
0.000133245
0.000132953
0.00013273
0.000132568
0.000132452
0.000132367
0.000132299
0.000132235
0.000132168
0.00013209
0.000132001
0.000131901
0.000131793
0.000131684
0.000131581
0.000131488
0.000131413
0.000131333
0.000131252
0.000131174
0.000131103
0.000131039
0.000130979
0.000130924
0.000130871
0.00013082
0.000130773
0.00013073
0.000130693
0.000130663
0.000130641
0.000130626
0.000130618
0.000130617
0.000130622
0.000130633
0.000130647
0.000130666
0.000130688
0.000130714
0.000130744
0.000130778
0.000130815
0.000130857
0.000130903
0.000130952
0.000131004
0.00013106
0.000131119
0.000131181
0.000131246
0.000131313
0.000131383
0.000131456
0.000131531
0.000131609
0.000131689
0.00013177
0.000131854
0.00013194
0.000132026
0.000132124
0.000132126
0.000132117
0.000132112
0.000132111
0.000132113
0.000132117
0.000132122
0.000132127
0.000132133
0.00013214
0.000132147
0.000132155
0.000132163
0.000132172
0.000132181
0.000132191
0.000132202
0.000132214
0.000132227
0.000132242
0.000132257
0.000132274
0.000132291
0.00013231
0.000132331
0.000132352
0.000132375
0.000132399
0.000132424
0.000132451
0.000132478
0.000132507
0.000132535
0.000132565
0.000132594
0.000132624
0.000132654
0.000132685
0.000132716
0.000132748
0.00013278
0.000132813
0.000132846
0.00013288
0.000132915
0.000132951
0.000132987
0.000133023
0.000133061
0.000133099
0.000133137
0.000133177
0.000133217
0.000133257
0.000133298
0.00013334
0.000133382
0.000133425
0.000133468
0.000133512
0.000133557
0.000133601
0.000133645
0.000133688
0.000133731
0.000133772
0.000133813
0.000133853
0.000133892
0.000133931
0.00013397
0.000134008
0.000134047
0.000134085
0.000134122
0.00013416
0.000134197
0.000134233
0.000134269
0.000134305
0.00013434
0.000134374
0.000134408
0.00013444
0.000134471
0.000134501
0.000134529
0.000134556
0.00013458
0.000134602
0.000134622
0.000134639
0.000134653
0.000134663
0.00013467
0.000134672
0.000134671
0.000134664
0.000134651
0.000134633
0.000134608
0.000134575
0.000134533
0.000134481
0.000134423
0.000134342
0.000134233
0.000134096
0.000133935
0.000133748
0.000133534
0.000133292
0.000133021
0.000132718
0.000132378
0.000131997
0.000131567
0.000131084
0.000130537
0.000129915
0.000129202
0.000128376
0.000127409
0.000126276
0.000124914
0.000123215
0.000121051
0.000118191
0.000114811
0.000112299
0.000110509
0.000108575
0.000105534
0.000100753
9.402e-05
8.62422e-05
0.00744367
0.00727181
0.0070033
0.00666912
0.00629172
0.0058921
0.00548756
0.00509143
0.004713
0.00435823
0.0040305
0.00373005
0.00345602
0.00320684
0.00298058
0.00277522
0.00258874
0.00241919
0.00226478
0.00212389
0.00199506
0.00187701
0.00176862
0.0016689
0.00157697
0.00149206
0.0014135
0.0013407
0.00127313
0.00121032
0.00115184
0.00109733
0.00104646
0.000998914
0.000954434
0.000912775
0.000873724
0.000837076
0.000802646
0.000770268
0.000739791
0.000711075
0.000683994
0.000658432
0.000634315
0.000611529
0.000589962
0.000569528
0.00055015
0.000531757
0.000514286
0.000497684
0.000481902
0.000466887
0.000452595
0.000438987
0.000426027
0.000413681
0.000401912
0.000390687
0.000379974
0.000369751
0.000359994
0.000350672
0.000341758
0.000333234
0.000325086
0.000317299
0.000309859
0.000302749
0.000295942
0.000289417
0.000283161
0.000277162
0.000271408
0.000265888
0.00026059
0.0002555
0.000250608
0.000245904
0.000241364
0.000236978
0.000232744
0.000228664
0.000224736
0.000220964
0.000217349
0.000213898
0.000210613
0.000207493
0.000204531
0.000201717
0.000199037
0.000196479
0.000194032
0.00019166
0.000189367
0.000187167
0.000185086
0.00018316
0.000181439
0.000179963
0.000178742
0.000177748
0.00017693
0.000176235
0.000175616
0.000175041
0.000174484
0.000173933
0.00017338
0.000172823
0.000172266
0.000171719
0.000171195
0.000170708
0.00017027
0.000169882
0.000169559
0.000169157
0.000168787
0.000168457
0.000168156
0.000167873
0.000167602
0.000167339
0.000167085
0.000166841
0.000166611
0.000166398
0.000166205
0.000166031
0.000165876
0.000165738
0.000165614
0.000165502
0.0001654
0.000165307
0.000165222
0.000165144
0.000165075
0.000165014
0.000164962
0.000164919
0.000164884
0.000164858
0.00016484
0.000164829
0.000164825
0.000164826
0.000164833
0.000164847
0.000164865
0.000164889
0.000164918
0.000164952
0.000164991
0.000165034
0.000165082
0.000165133
0.000165187
0.000165245
0.000165306
0.000165372
0.000165434
0.000165488
0.000165538
0.000165585
0.000165631
0.000165677
0.000165724
0.00016577
0.000165817
0.000165863
0.00016591
0.000165956
0.000166004
0.000166052
0.000166101
0.000166151
0.000166203
0.000166256
0.000166311
0.000166368
0.000166426
0.000166487
0.000166549
0.000166614
0.00016668
0.000166749
0.00016682
0.000166892
0.000166967
0.000167043
0.00016712
0.000167198
0.000167276
0.000167354
0.000167433
0.000167512
0.000167593
0.000167674
0.000167756
0.000167839
0.000167924
0.000168009
0.000168096
0.000168183
0.000168272
0.000168361
0.000168452
0.000168543
0.000168635
0.000168729
0.000168823
0.000168917
0.000169013
0.00016911
0.000169207
0.000169305
0.000169404
0.000169503
0.000169603
0.000169704
0.000169805
0.000169905
0.000170002
0.000170096
0.000170188
0.000170279
0.000170369
0.000170457
0.000170545
0.000170631
0.000170717
0.000170801
0.000170884
0.000170966
0.000171047
0.000171126
0.000171203
0.000171278
0.00017135
0.000171421
0.000171488
0.000171553
0.000171613
0.00017167
0.000171723
0.000171771
0.000171813
0.000171849
0.000171878
0.0001719
0.000171914
0.000171919
0.000171915
0.000171901
0.000171875
0.000171838
0.000171787
0.000171721
0.00017164
0.000171542
0.000171425
0.000171289
0.000171131
0.000170949
0.000170743
0.000170511
0.000170248
0.000169951
0.000169617
0.000169234
0.000168807
0.000168337
0.000167828
0.00016728
0.000166695
0.000166075
0.000165422
0.000164738
0.000164028
0.000163293
0.000162536
0.000161755
0.000160944
0.000160095
0.000159187
0.000158183
0.000157032
0.000155639
0.000153903
0.000152099
0.000150536
0.000149122
0.000147362
0.000144675
0.000140665
0.000135481
0.010637
0.0104189
0.0100543
0.00958585
0.00904945
0.00847744
0.00789637
0.0073264
0.00678139
0.00626994
0.00579676
0.00536307
0.00496754
0.00460792
0.00428142
0.00398507
0.00371595
0.00347124
0.00324836
0.00304499
0.00285904
0.00268867
0.00253225
0.00238836
0.00225575
0.00213331
0.00202006
0.00191514
0.0018178
0.00172735
0.00164318
0.00156477
0.00149162
0.00142329
0.00135941
0.00129961
0.00124357
0.00119101
0.00114166
0.00109527
0.00105163
0.00101054
0.000971804
0.00093526
0.000900752
0.000868131
0.000837258
0.000808007
0.000780269
0.000753944
0.000728945
0.000705208
0.000682662
0.000661223
0.00064082
0.0006214
0.000602911
0.000585305
0.000568525
0.000552522
0.000537256
0.000522694
0.000508796
0.00049551
0.000482799
0.000470641
0.000459017
0.000447904
0.000437276
0.000427105
0.000417336
0.000407953
0.000398949
0.000390315
0.000382034
0.000374088
0.000366459
0.000359128
0.000352081
0.000345305
0.00033873
0.000332373
0.000326248
0.000320351
0.000314671
0.000309199
0.000303926
0.000298843
0.000293944
0.000289224
0.000284677
0.000280295
0.000276074
0.000272003
0.000268083
0.000264185
0.000260422
0.000256801
0.000253312
0.000249949
0.000246714
0.000243612
0.00024065
0.000237829
0.000235146
0.000232592
0.000230155
0.000227823
0.000225586
0.000223437
0.000221376
0.000219411
0.000217557
0.000215838
0.000214277
0.00021289
0.000211674
0.00021061
0.000209676
0.000208825
0.000208032
0.000207278
0.000206555
0.000205855
0.000205176
0.000204522
0.000203899
0.000203314
0.000202775
0.000202284
0.000201842
0.000201442
0.00020108
0.000200747
0.000200437
0.000200146
0.000199871
0.000199611
0.000199366
0.000199139
0.00019893
0.00019874
0.000198569
0.000198416
0.00019828
0.000198159
0.000198051
0.000197955
0.000197871
0.000197796
0.000197733
0.00019768
0.000197637
0.000197605
0.000197582
0.000197568
0.000197561
0.000197563
0.000197571
0.000197585
0.000197606
0.000197632
0.000197664
0.000197701
0.000197744
0.00019779
0.000197838
0.000197889
0.000197941
0.000197996
0.000198051
0.000198107
0.000198164
0.00019822
0.000198278
0.000198336
0.000198397
0.00019846
0.000198525
0.000198593
0.000198664
0.000198738
0.000198815
0.000198896
0.000198979
0.000199066
0.000199155
0.000199248
0.000199345
0.000199444
0.000199546
0.000199652
0.000199761
0.00019987
0.000199979
0.000200087
0.000200196
0.000200306
0.000200417
0.00020053
0.000200645
0.000200761
0.000200879
0.000200999
0.000201121
0.000201245
0.00020137
0.000201497
0.000201625
0.000201755
0.000201886
0.000202018
0.000202152
0.000202287
0.000202423
0.000202561
0.000202699
0.000202839
0.00020298
0.000203122
0.000203265
0.000203409
0.000203554
0.000203699
0.000203845
0.000203983
0.000204114
0.000204242
0.000204369
0.000204494
0.000204619
0.000204743
0.000204866
0.000204987
0.000205107
0.000205226
0.000205343
0.000205457
0.00020557
0.00020568
0.000205787
0.00020589
0.000205991
0.000206087
0.000206179
0.000206266
0.000206347
0.000206422
0.00020649
0.00020655
0.000206601
0.000206642
0.000206674
0.000206694
0.000206702
0.000206696
0.000206676
0.000206641
0.000206588
0.000206516
0.000206424
0.00020631
0.000206172
0.000206007
0.000205814
0.00020559
0.000205333
0.000205039
0.000204707
0.000204333
0.000203914
0.000203447
0.000202929
0.000202315
0.000201644
0.000200916
0.00020013
0.000199283
0.000198377
0.000197413
0.000196398
0.000195338
0.000194243
0.000193124
0.000191995
0.000190872
0.000189767
0.000188695
0.000187662
0.000186665
0.000185691
0.000184709
0.000183643
0.00018249
0.000181387
0.000180425
0.000179463
0.000178123
0.000175957
0.000172729
0.0141582
0.0138876
0.0134163
0.0127987
0.0120851
0.0113212
0.0105439
0.00978112
0.00905183
0.00836749
0.00773398
0.00715329
0.00662387
0.00614261
0.00570573
0.00530922
0.00494911
0.00462165
0.00432339
0.00405122
0.00380236
0.00357436
0.00336505
0.00317253
0.00299511
0.00283134
0.0026799
0.00253964
0.00240954
0.0022887
0.00217631
0.00207163
0.00197403
0.00188291
0.00179775
0.00171807
0.00164344
0.00157347
0.00150781
0.00144612
0.00138812
0.00133353
0.0012821
0.0012336
0.00118781
0.00114453
0.00110359
0.0010648
0.00102803
0.000993146
0.000960032
0.000928584
0.000898701
0.000870289
0.000843254
0.000817528
0.000793049
0.000769749
0.000747549
0.000726382
0.0007062
0.000686957
0.000668593
0.000651015
0.000634198
0.000618124
0.000602764
0.000588081
0.000574037
0.000560589
0.00054762
0.000535167
0.000523234
0.000511799
0.000500833
0.000490309
0.000480202
0.000470488
0.000461149
0.000452167
0.00044335
0.000434883
0.000426756
0.000418937
0.000411406
0.000404144
0.000397138
0.000390376
0.000383847
0.000377541
0.000371449
0.000365562
0.000359872
0.00035437
0.000349052
0.00034389
0.000338882
0.000334026
0.000329321
0.000324761
0.000320342
0.000316061
0.000311916
0.000307904
0.000304023
0.000300271
0.000296642
0.000293131
0.000289732
0.00028644
0.000283249
0.000280156
0.000277162
0.000274268
0.000271478
0.000268797
0.00026623
0.000263775
0.000261432
0.000259191
0.000257046
0.000254988
0.000253017
0.000251135
0.000249351
0.000247679
0.000246135
0.00024473
0.000243465
0.000242332
0.000241313
0.000240387
0.000239535
0.00023874
0.000237989
0.000237278
0.000236602
0.000235965
0.00023537
0.000234819
0.000234313
0.000233852
0.000233431
0.000233047
0.000232692
0.000232364
0.000232059
0.000231776
0.000231513
0.00023127
0.000231049
0.000230849
0.000230669
0.000230507
0.000230361
0.00023023
0.000230113
0.000230008
0.000229915
0.000229833
0.000229761
0.0002297
0.000229649
0.000229608
0.000229577
0.000229555
0.000229541
0.000229534
0.000229534
0.00022954
0.000229549
0.000229559
0.00022957
0.000229583
0.000229602
0.000229625
0.000229653
0.000229688
0.000229728
0.000229773
0.000229824
0.000229881
0.000229944
0.000230011
0.000230084
0.000230163
0.000230246
0.000230335
0.000230429
0.000230528
0.000230632
0.00023074
0.000230852
0.000230959
0.000231064
0.000231169
0.000231276
0.000231387
0.000231501
0.000231619
0.00023174
0.000231863
0.00023199
0.00023212
0.000232253
0.000232389
0.000232527
0.000232667
0.00023281
0.000232955
0.000233101
0.00023325
0.000233401
0.000233554
0.000233709
0.000233865
0.000234024
0.000234185
0.000234347
0.000234511
0.000234676
0.000234843
0.000235011
0.00023518
0.000235353
0.000235485
0.000235617
0.000235753
0.000235892
0.000236031
0.000236171
0.000236309
0.000236447
0.000236584
0.00023672
0.000236853
0.000236985
0.000237114
0.000237241
0.000237365
0.000237485
0.000237601
0.000237713
0.00023782
0.000237922
0.000238017
0.000238105
0.000238184
0.000238254
0.000238313
0.000238362
0.000238398
0.000238422
0.000238431
0.000238426
0.000238404
0.000238364
0.000238304
0.000238223
0.000238118
0.000237988
0.000237831
0.000237643
0.000237422
0.000237166
0.000236871
0.000236534
0.000236152
0.000235721
0.000235237
0.000234696
0.000234095
0.00023343
0.000232689
0.000231866
0.000230962
0.000229972
0.000228897
0.000227735
0.000226488
0.000225159
0.000223754
0.000222282
0.000220756
0.000219193
0.000217614
0.000216045
0.000214512
0.000213046
0.000211671
0.000210407
0.000209265
0.000208231
0.000207272
0.000206407
0.000205695
0.000205137
0.000204564
0.000203642
0.000202022
0.0179818
0.017651
0.0170599
0.016276
0.015366
0.0143902
0.0133975
0.0124241
0.0114943
0.0106226
0.00981594
0.00907641
0.00840248
0.00779005
0.0072342
0.00672974
0.00627159
0.00585495
0.00547544
0.00512909
0.00481239
0.00452223
0.00425586
0.00401087
0.00378513
0.00357677
0.00338414
0.00320578
0.00304038
0.00288679
0.00274398
0.00261103
0.0024871
0.00237146
0.00226342
0.00216238
0.00206779
0.00197914
0.00189599
0.00181791
0.00174452
0.00167548
0.00161047
0.00154918
0.00149134
0.00143668
0.00138499
0.00133603
0.00128963
0.00124562
0.00120387
0.00116423
0.00112657
0.00109078
0.00105672
0.00102434
0.00099355
0.00096425
0.000936297
0.000909648
0.000884258
0.000860058
0.000836964
0.000814809
0.000793638
0.000773429
0.000754127
0.000735678
0.000718029
0.000701127
0.000684701
0.000669012
0.000654012
0.00063964
0.000625855
0.000612622
0.00059991
0.000587693
0.000575945
0.000564643
0.000553733
0.000543207
0.000533061
0.000523282
0.000513852
0.000504755
0.000495973
0.000487493
0.0004793
0.000471381
0.000463725
0.000456319
0.000449154
0.000442219
0.000435504
0.000428998
0.000422691
0.000416574
0.000410639
0.000404881
0.000399293
0.00039387
0.000388604
0.000383492
0.00037853
0.000373712
0.000369035
0.000364493
0.000360082
0.000355796
0.000351631
0.000347583
0.000343647
0.00033982
0.000336101
0.000332489
0.000328981
0.00032558
0.000322281
0.000319084
0.000315984
0.000312976
0.000310058
0.000307226
0.000304481
0.000301824
0.000299259
0.000296789
0.000294417
0.000292144
0.000289969
0.000287888
0.000285899
0.000283999
0.00028219
0.000280476
0.000278866
0.000277369
0.000275991
0.000274734
0.00027359
0.000272547
0.000271593
0.000270711
0.000269891
0.000269124
0.000268404
0.000267731
0.000267103
0.000266522
0.000265987
0.000265498
0.000265046
0.000264628
0.000264239
0.000263876
0.000263538
0.000263222
0.000262928
0.000262654
0.0002624
0.000262167
0.000261952
0.000261756
0.000261577
0.000261414
0.000261266
0.000261132
0.000261012
0.000260904
0.000260792
0.00026068
0.000260578
0.000260486
0.000260407
0.00026034
0.000260285
0.00026024
0.000260206
0.000260182
0.000260168
0.000260164
0.000260168
0.000260182
0.000260204
0.000260235
0.000260274
0.000260321
0.000260377
0.000260439
0.000260509
0.000260585
0.000260669
0.000260716
0.00026077
0.000260834
0.000260908
0.000260988
0.000261074
0.000261166
0.000261263
0.000261365
0.000261472
0.000261583
0.000261699
0.000261819
0.000261942
0.000262068
0.000262198
0.00026233
0.000262467
0.000262606
0.000262749
0.000262895
0.000263044
0.000263196
0.000263352
0.00026351
0.000263671
0.000263835
0.000264001
0.000264169
0.000264339
0.000264511
0.000264685
0.000264854
0.000265018
0.000265178
0.000265338
0.000265496
0.000265654
0.000265812
0.000265969
0.000266125
0.000266279
0.000266432
0.000266583
0.000266731
0.000266877
0.000267019
0.000267158
0.000267292
0.000267421
0.000267544
0.000267661
0.00026777
0.000267869
0.000267957
0.000268033
0.000268098
0.000268149
0.000268186
0.000268209
0.000268215
0.000268203
0.000268172
0.00026812
0.000268044
0.000267944
0.000267815
0.000267657
0.000267466
0.00026724
0.000266974
0.000266667
0.000266315
0.000265914
0.00026546
0.000264948
0.000264375
0.000263736
0.000263025
0.000262238
0.000261369
0.000260411
0.000259358
0.0002582
0.000256937
0.000255566
0.000254087
0.000252499
0.000250804
0.000249009
0.000247122
0.000245157
0.000243134
0.000241079
0.000239024
0.000237006
0.000235069
0.000233255
0.000231607
0.000230157
0.000228916
0.000227888
0.000227096
0.000226565
0.000226252
0.000225975
0.000225428
0.022091
0.021691
0.0209646
0.0199948
0.0188671
0.0176585
0.016431
0.0152297
0.0140843
0.013012
0.0120209
0.0111126
0.010285
0.0095333
0.00885117
0.00823217
0.00766999
0.0071587
0.00669293
0.00626782
0.00587906
0.00552286
0.00519585
0.00489509
0.00461798
0.00436222
0.00412581
0.00390694
0.00370403
0.00351565
0.00334054
0.00317756
0.0030257
0.00288404
0.00275174
0.00262806
0.00251232
0.0024039
0.00230224
0.00220682
0.00211718
0.00203287
0.00195352
0.00187874
0.00180818
0.00174154
0.0016785
0.00161882
0.00156227
0.00150867
0.00145782
0.00140957
0.00136374
0.00132021
0.00127879
0.00123944
0.00120206
0.0011665
0.00113252
0.00110016
0.00106937
0.00104003
0.00101204
0.000985034
0.000959332
0.000934827
0.00091142
0.000889046
0.000867641
0.000847144
0.000827452
0.000808558
0.00079044
0.000773063
0.000756387
0.000740376
0.000724995
0.000710212
0.000695995
0.000682316
0.00066914
0.00065644
0.000644195
0.000632385
0.000620992
0.000609995
0.000599377
0.000589118
0.000579204
0.000569619
0.000560347
0.000551375
0.00054269
0.00053428
0.000526132
0.000518237
0.000510582
0.000503157
0.000495952
0.000488959
0.00048217
0.000475576
0.000469171
0.000462948
0.0004569
0.000451022
0.000445308
0.000439753
0.00043435
0.000429095
0.000423982
0.000419007
0.000414165
0.00040945
0.000404859
0.000400389
0.000396036
0.000391798
0.000387672
0.000383656
0.000379744
0.000375934
0.000372223
0.000368608
0.000365086
0.000361657
0.000358319
0.000355072
0.000351914
0.000348842
0.000345858
0.000342959
0.000340146
0.000337416
0.000334769
0.000332205
0.000329723
0.000327327
0.000325019
0.000322797
0.000320662
0.000318616
0.000316659
0.000314792
0.000313015
0.000311332
0.000309747
0.000308267
0.000306894
0.000305631
0.000304473
0.000303412
0.000302423
0.0003015
0.000300637
0.000299829
0.00029907
0.000298359
0.000297692
0.000297068
0.000296487
0.000295945
0.000295441
0.000294972
0.000294535
0.000294126
0.000293745
0.000293389
0.000293057
0.000292752
0.000292394
0.000292066
0.000291772
0.000291507
0.000291266
0.000291047
0.000290848
0.000290667
0.000290504
0.000290357
0.000290225
0.000290109
0.000290008
0.000289921
0.000289847
0.000289787
0.00028974
0.000289705
0.000289682
0.000289669
0.000289666
0.000289672
0.000289688
0.000289706
0.000289725
0.000289749
0.00028978
0.000289817
0.000289863
0.000289916
0.000289976
0.000290043
0.000290118
0.000290199
0.000290285
0.000290377
0.000290473
0.000290573
0.000290678
0.000290788
0.000290903
0.000291024
0.00029115
0.00029128
0.000291416
0.000291556
0.000291701
0.000291849
0.000292002
0.000292159
0.000292319
0.000292483
0.000292649
0.000292817
0.000292985
0.000293153
0.000293321
0.000293488
0.000293655
0.000293822
0.000293988
0.000294155
0.000294321
0.000294486
0.000294651
0.000294814
0.000294976
0.000295135
0.000295292
0.000295446
0.000295595
0.00029574
0.000295879
0.000296011
0.000296137
0.000296253
0.000296354
0.000296441
0.000296515
0.000296576
0.000296624
0.000296656
0.000296673
0.000296671
0.000296649
0.000296605
0.000296537
0.000296443
0.00029632
0.000296166
0.000295978
0.000295753
0.000295488
0.000295179
0.000294823
0.000294416
0.000293955
0.000293434
0.00029285
0.000292196
0.000291468
0.000290661
0.000289768
0.000288784
0.000287702
0.000286517
0.000285202
0.000283773
0.000282224
0.000280551
0.000278749
0.000276817
0.000274755
0.000272569
0.000270268
0.000267864
0.000265379
0.000262841
0.000260286
0.000257759
0.000255312
0.000253004
0.000250896
0.000249041
0.000247476
0.000246235
0.000245351
0.000244838
0.000244632
0.000244533
0.0264739
0.0259945
0.0251144
0.0239364
0.0225676
0.0211041
0.019622
0.0181759
0.0168006
0.0155158
0.0143301
0.0132445
0.0122558
0.0113578
0.0105433
0.00980419
0.00913292
0.00852238
0.0079661
0.00745832
0.00699391
0.00656834
0.00617762
0.00581824
0.00548713
0.00518155
0.0048991
0.00463765
0.0043953
0.00417036
0.0039613
0.00376679
0.0035856
0.00341662
0.00325887
0.00311144
0.00297353
0.00284439
0.00272334
0.00260977
0.00250311
0.00240285
0.00230851
0.00221963
0.0021358
0.00205663
0.00198176
0.00191088
0.00184374
0.00178012
0.00171979
0.00166258
0.00160825
0.00155667
0.00150757
0.00146099
0.00141679
0.00137477
0.00133447
0.00129623
0.00125988
0.00122525
0.00119222
0.00116061
0.00113041
0.00110156
0.00107399
0.00104761
0.00102236
0.000998183
0.000975003
0.000952771
0.000931443
0.000910978
0.000891333
0.00087247
0.000854349
0.000836932
0.000820182
0.000804064
0.000788543
0.000773589
0.000759171
0.000745265
0.000731845
0.00071889
0.000706378
0.000694287
0.000682599
0.000671295
0.000660358
0.000649773
0.000639523
0.000629595
0.000619975
0.000610649
0.000601606