/*--------------------------------*- C++ -*----------------------------------*\
  =========                 |
  \\      /  F ield         | OpenFOAM: The Open Source CFD Toolbox
   \\    /   O peration     | Website:  https://openfoam.org
    \\  /    A nd           | Version:  8
     \\/     M anipulation  |
\*---------------------------------------------------------------------------*/
FoamFile
{
    version     2.0;
    format      ascii;
    class       surfaceScalarField;
    location    "0.06";
    object      phi;
}
// * * * * * * * * * * * * * * * * * * * * * * * * * * * * * * * * * * * * * //

dimensions      [0 3 -1 0 0 0 0];

internalField   nonuniform List<scalar> 
206740
(
-0.00431454
-0.0010339
-0.00357621
-0.000738311
-0.00300937
-0.00056682
-0.00252577
-0.000483581
-0.00210647
-0.000419282
-0.00173598
-0.000370475
-0.00140702
-0.000328954
-0.0011139
-0.000293121
-0.00085212
-0.000261788
-0.000617732
-0.000234404
-0.000407243
-0.000210523
-0.000217476
-0.00018981
-4.55901e-05
-0.000171957
0.000109135
-0.000154816
0.000245937
-0.000136931
0.000366903
-0.0001211
0.000475705
-0.000108956
0.000574687
-9.91329e-05
0.000665197
-9.06763e-05
0.000748282
-8.32436e-05
0.000824773
-7.66618e-05
0.000895379
-7.07665e-05
0.000960658
-6.54502e-05
0.0010211
-6.05976e-05
0.00107708
-5.6147e-05
0.00112894
-5.20171e-05
0.00117695
-4.81766e-05
0.00122137
-4.45714e-05
0.0012624
-4.11898e-05
0.00130023
-3.79845e-05
0.00133503
-3.49537e-05
0.00136696
-3.20745e-05
0.00139616
-2.93497e-05
0.00142278
-2.67532e-05
0.00144692
-2.42944e-05
0.00146874
-2.19524e-05
0.00148834
-1.97355e-05
0.00150583
-1.76242e-05
0.00152132
-1.56273e-05
0.00153493
-1.37269e-05
0.00154673
-1.19315e-05
0.00155683
-1.02242e-05
0.00156532
-8.61276e-06
0.00157229
-7.08143e-06
0.0015778
-5.63695e-06
0.00158196
-4.26416e-06
0.00158481
-2.96717e-06
0.00158643
-1.73117e-06
0.00158688
-5.62255e-07
0.00158612
6.56088e-07
0.00158398
2.03343e-06
0.00158043
3.44771e-06
0.00157561
4.71651e-06
0.00156967
5.8469e-06
0.00156271
6.86114e-06
0.00155484
7.77456e-06
0.00154615
8.59846e-06
0.00153671
9.34887e-06
0.00152659
1.00263e-05
0.00151586
1.06427e-05
0.00150457
1.11976e-05
0.00149279
1.16965e-05
0.00148058
1.21269e-05
0.00146802
1.24739e-05
0.00145524
1.26967e-05
0.00144242
1.27453e-05
0.00142977
1.25677e-05
0.00141753
1.21639e-05
0.00140586
1.15899e-05
0.00139484
1.09429e-05
0.00138446
1.03103e-05
0.00137463
9.75502e-06
0.00136525
9.30366e-06
0.00135622
8.96226e-06
0.00134743
8.71922e-06
0.00133881
8.55859e-06
0.00133028
8.46063e-06
0.00132181
8.40845e-06
0.00131336
8.38646e-06
0.00130491
8.38269e-06
0.00129647
8.38734e-06
0.00128802
8.39265e-06
0.00127957
8.39223e-06
0.00127113
8.37871e-06
0.00126274
8.34456e-06
0.0012544
8.27901e-06
0.00124618
8.17153e-06
0.00123812
8.00995e-06
0.00123028
7.78895e-06
0.00122272
7.50848e-06
0.0012155
7.18068e-06
0.00120863
6.82101e-06
0.00120214
6.45132e-06
0.001196
6.08841e-06
0.00119021
5.74966e-06
0.00118473
5.44335e-06
0.00117951
5.17812e-06
0.00117452
4.95294e-06
0.00116972
4.76803e-06
0.00116507
4.61491e-06
0.00116054
4.48876e-06
0.00115613
4.3774e-06
0.00115183
4.27472e-06
0.00114763
4.16928e-06
0.00114354
4.05876e-06
0.00113957
3.93704e-06
0.00113574
3.80817e-06
0.00113204
3.67114e-06
0.00112848
3.53379e-06
0.00112506
3.39668e-06
0.00112177
3.26787e-06
0.0011186
3.14647e-06
0.00111554
3.03868e-06
0.00111258
2.94101e-06
0.00110971
2.85732e-06
0.0011069
2.78172e-06
0.00110417
2.71638e-06
0.0011015
2.65432e-06
0.00109889
2.59691e-06
0.00109634
2.53797e-06
0.00109384
2.48283e-06
0.0010914
2.42668e-06
0.00108902
2.37364e-06
0.00108669
2.31835e-06
0.00108442
2.26557e-06
0.0010822
2.21049e-06
0.00108003
2.15839e-06
0.00107792
2.10459e-06
0.00107586
2.05435e-06
0.00107385
2.00253e-06
0.00107189
1.95407e-06
0.00106999
1.90352e-06
0.00106813
1.85572e-06
0.00106632
1.80524e-06
0.00106456
1.75725e-06
0.00106286
1.70654e-06
0.0010612
1.65865e-06
0.00105959
1.60859e-06
0.00105803
1.56199e-06
0.00105652
1.51384e-06
0.00105505
1.46971e-06
0.00105363
1.42434e-06
0.00105226
1.38312e-06
0.00105092
1.34064e-06
0.00104963
1.30215e-06
0.00104837
1.26219e-06
0.00104715
1.22602e-06
0.00104597
1.18823e-06
0.00104483
1.15412e-06
0.00104371
1.11835e-06
0.00104264
1.08622e-06
0.0010416
1.05245e-06
0.00104059
1.02232e-06
0.00103961
9.90543e-07
0.00103866
9.62396e-07
0.00103774
9.32638e-07
0.00103684
9.0648e-07
0.00103598
8.78771e-07
0.00103514
8.54748e-07
0.00103432
8.29404e-07
0.00103353
8.08085e-07
0.00103276
7.86215e-07
0.00103201
7.69743e-07
0.00103127
7.52855e-07
0.00103054
7.43515e-07
0.00102982
7.40393e-07
0.00102909
7.45938e-07
0.00102836
7.51719e-07
0.00102762
7.60012e-07
0.00102687
7.64409e-07
0.00102612
7.68805e-07
0.00102537
7.68231e-07
0.00102463
7.67503e-07
0.00102388
7.62335e-07
0.00102315
7.57708e-07
0.00102241
7.49533e-07
0.00102169
7.42689e-07
0.00102098
7.33061e-07
0.00102028
7.25314e-07
0.00101958
7.15318e-07
0.0010189
7.07501e-07
0.00101822
6.97749e-07
0.00101755
6.90329e-07
0.00101689
6.81155e-07
0.00101624
6.74364e-07
0.0010156
6.65966e-07
0.00101496
6.59961e-07
0.00101433
6.52469e-07
0.00101371
6.47401e-07
0.00101309
6.40966e-07
0.00101247
6.36977e-07
0.00101186
6.31762e-07
0.00101126
6.28989e-07
0.00101066
6.25125e-07
0.00101006
6.23838e-07
0.00100946
6.2175e-07
0.00100886
6.22423e-07
0.00100826
6.22575e-07
0.00100766
6.25616e-07
0.00100705
6.28344e-07
0.00100644
6.34036e-07
0.00100582
6.39543e-07
0.0010052
6.48031e-07
0.00100456
6.56466e-07
0.00100392
6.67903e-07
0.00100326
6.7944e-07
0.00100259
6.94069e-07
0.0010019
7.08993e-07
0.0010012
7.27139e-07
0.00100047
7.45851e-07
0.00099973
7.67968e-07
0.00099896
7.90962e-07
0.000998165
8.17618e-07
0.00099734
8.45505e-07
0.000996485
8.77343e-07
0.000995595
9.10827e-07
0.000994669
9.48591e-07
0.000993701
9.88446e-07
0.00099269
1.03298e-06
0.00099163
1.0801e-06
0.000990519
1.13234e-06
0.000989351
1.18773e-06
0.000988123
1.24875e-06
0.000986829
1.31351e-06
0.000985466
1.38443e-06
0.000984025
1.45978e-06
0.000982504
1.54217e-06
0.000980892
1.63014e-06
0.000979186
1.72616e-06
0.000977376
1.82879e-06
0.000975456
1.94042e-06
0.000973414
2.05963e-06
0.000971245
2.18877e-06
0.000968936
2.32653e-06
0.00096648
2.47529e-06
0.000963864
2.6339e-06
0.000961078
2.80482e-06
0.000958108
2.98708e-06
0.000954943
3.18325e-06
0.000951568
3.39256e-06
0.000947968
3.61766e-06
0.000944127
3.858e-06
0.000940028
4.11637e-06
0.000935652
4.39238e-06
0.00093098
4.68898e-06
0.000925991
5.00602e-06
0.000920661
5.3466e-06
0.000914966
5.71084e-06
0.000908881
6.10205e-06
0.000902376
6.52059e-06
0.000895422
6.97001e-06
0.000887986
7.45098e-06
0.000880035
7.96727e-06
0.000871531
8.51986e-06
0.000862434
9.11282e-06
0.000852701
9.74741e-06
0.000842289
1.0428e-05
0.000831147
1.11562e-05
0.000819226
1.19366e-05
0.000806469
1.2771e-05
0.00079282
1.36645e-05
0.000778215
1.46188e-05
0.000762591
1.56391e-05
0.000745878
1.67272e-05
0.000728005
1.78882e-05
0.000708895
1.91235e-05
0.000688471
2.04394e-05
0.000666648
2.18373e-05
0.000643337
2.33267e-05
0.000618436
2.49152e-05
0.000591858
2.65933e-05
0.000563539
2.83343e-05
0.000533437
3.01187e-05
0.00050153
3.19231e-05
0.000467823
3.37246e-05
0.00043235
3.54913e-05
0.000395182
3.71886e-05
0.000356432
3.87697e-05
0.000316273
4.01833e-05
0.000274931
4.13667e-05
0.000232703
4.22565e-05
0.00018995
4.27848e-05
0.000147094
4.28934e-05
0.000104607
4.25297e-05
6.29948e-05
4.16627e-05
2.27941e-05
4.0259e-05
-1.52601e-05
3.81234e-05
-4.97191e-05
3.45251e-05
-8.04067e-05
3.07504e-05
-0.000108715
2.83646e-05
-0.000135074
2.64198e-05
-0.000158159
2.31444e-05
-0.000175976
1.78836e-05
-0.000186774
1.08655e-05
-0.000189047
2.34109e-06
-0.000184881
-4.1049e-06
-0.000178206
-6.60917e-06
-0.00017175
-6.38665e-06
-0.000167938
-3.7524e-06
2.3121e-06
-0.000170253
-0.00396094
-0.00157499
-0.00341852
-0.00128072
-0.00294433
-0.001041
-0.00252508
-0.000902818
-0.00215157
-0.000792771
-0.00181655
-0.00070549
-0.0015151
-0.000630389
-0.00124344
-0.000564774
-0.000998385
-0.000506836
-0.00077706
-0.000455733
-0.0005768
-0.000410787
-0.00039522
-0.000371405
-0.00023026
-0.000336934
-7.89855e-05
-0.00030612
6.17882e-05
-0.000277741
0.000192934
-0.000252302
0.000314392
-0.000230477
0.000426807
-0.000211626
0.000531046
-0.000194998
0.000627886
-0.000180179
0.000717996
-0.000166867
0.000801953
-0.00015483
0.000880264
-0.000143865
0.000953373
-0.000133819
0.00102167
-0.000124555
0.00108551
-0.000115971
0.00114519
-0.000107973
0.001201
-0.000100498
0.00125317
-9.34822e-05
0.00130195
-8.688e-05
0.00134753
-8.06475e-05
0.00139009
-7.47633e-05
0.00142982
-6.91952e-05
0.00146687
-6.39263e-05
0.0015014
-5.89337e-05
0.00153353
-5.42077e-05
0.00156341
-4.97287e-05
0.00159116
-4.5489e-05
0.00161689
-4.1472e-05
0.00164072
-3.76719e-05
0.00166276
-3.40738e-05
0.00168309
-3.06726e-05
0.00170183
-2.74547e-05
0.00171905
-2.44151e-05
0.00173485
-2.15409e-05
0.00174931
-1.88268e-05
0.0017625
-1.62592e-05
0.0017745
-1.38321e-05
0.00178538
-1.15319e-05
0.00179528
-9.34354e-06
0.00180445
-7.23169e-06
0.00181299
-5.18608e-06
0.00182084
-3.22176e-06
0.00182795
-1.35931e-06
0.00183433
3.95532e-07
0.00183997
2.04334e-06
0.0018449
3.58687e-06
0.00184915
5.01615e-06
0.00185276
6.33918e-06
0.00185576
7.55902e-06
0.0018582
8.68491e-06
0.0018601
9.71809e-06
0.00186149
1.06557e-05
0.00186241
1.1487e-05
0.00186283
1.22017e-05
0.00186272
1.27841e-05
0.001862
1.32234e-05
0.00186058
1.35099e-05
0.00185846
1.36518e-05
0.00185566
1.36738e-05
0.00185229
1.36173e-05
0.00184846
1.35213e-05
0.00184429
1.34195e-05
0.00183986
1.33319e-05
0.00183525
1.32704e-05
0.00183051
1.32365e-05
0.00182569
1.32291e-05
0.0018208
1.32419e-05
0.00181587
1.32696e-05
0.0018109
1.33048e-05
0.00180589
1.33422e-05
0.00180086
1.33751e-05
0.00179581
1.33985e-05
0.00179074
1.34048e-05
0.00178565
1.3386e-05
0.00178055
1.33318e-05
0.00177545
1.32325e-05
0.00177034
1.30793e-05
0.00176522
1.28693e-05
0.00176008
1.26052e-05
0.00175493
1.2296e-05
0.00174976
1.19544e-05
0.00174458
1.15952e-05
0.0017394
1.12323e-05
0.00173424
1.08778e-05
0.00172911
1.05411e-05
0.00172403
1.02289e-05
0.00171901
9.94412e-06
0.00171406
9.68661e-06
0.00170919
9.45344e-06
0.00170441
9.23958e-06
0.00169972
9.03898e-06
0.00169513
8.84493e-06
0.00169062
8.65189e-06
0.0016862
8.45561e-06
0.00168186
8.25461e-06
0.0016776
8.04894e-06
0.0016734
7.84087e-06
0.00166929
7.63288e-06
0.00166523
7.42853e-06
0.00166125
7.23038e-06
0.00165734
7.04133e-06
0.0016535
6.86256e-06
0.00164973
6.6954e-06
0.00164603
6.5392e-06
0.0016424
6.39355e-06
0.00163885
6.25626e-06
0.00163537
6.1264e-06
0.00163195
6.0005e-06
0.0016286
5.87823e-06
0.00162531
5.75959e-06
0.00162208
5.64443e-06
0.00161891
5.53101e-06
0.0016158
5.41966e-06
0.00161275
5.30949e-06
0.00160975
5.20145e-06
0.00160681
5.09489e-06
0.00160392
4.99082e-06
0.00160108
4.88838e-06
0.00159829
4.78829e-06
0.00159555
4.68936e-06
0.00159286
4.59216e-06
0.00159021
4.49546e-06
0.00158762
4.39999e-06
0.00158507
4.30474e-06
0.00158256
4.21074e-06
0.0015801
4.11722e-06
0.00157768
4.02544e-06
0.00157531
3.93469e-06
0.00157298
3.8462e-06
0.00157069
3.75915e-06
0.00156844
3.67465e-06
0.00156624
3.59168e-06
0.00156407
3.51125e-06
0.00156194
3.43225e-06
0.00155985
3.35566e-06
0.0015578
3.28037e-06
0.00155579
3.2074e-06
0.00155381
3.13565e-06
0.00155187
3.0662e-06
0.00154996
2.99795e-06
0.00154809
2.93197e-06
0.00154625
2.86716e-06
0.00154444
2.8046e-06
0.00154267
2.7432e-06
0.00154093
2.68407e-06
0.00153922
2.62612e-06
0.00153753
2.57048e-06
0.00153588
2.51614e-06
0.00153426
2.46435e-06
0.00153266
2.41428e-06
0.00153109
2.36749e-06
0.00152954
2.32449e-06
0.00152802
2.28708e-06
0.00152652
2.25581e-06
0.00152504
2.2319e-06
0.00152358
2.21175e-06
0.00152215
2.19468e-06
0.00152075
2.1784e-06
0.00151936
2.16292e-06
0.001518
2.14638e-06
0.00151665
2.12938e-06
0.00151532
2.11074e-06
0.001514
2.09153e-06
0.0015127
2.07087e-06
0.00151142
2.05001e-06
0.00151014
2.02818e-06
0.00150888
2.00663e-06
0.00150764
1.98457e-06
0.00150641
1.96318e-06
0.00150519
1.94163e-06
0.00150398
1.92102e-06
0.00150278
1.90049e-06
0.0015016
1.88109e-06
0.00150042
1.86196e-06
0.00149926
1.84409e-06
0.00149811
1.82662e-06
0.00149697
1.81054e-06
0.00149583
1.79502e-06
0.00149471
1.78101e-06
0.00149359
1.76772e-06
0.00149249
1.75608e-06
0.00149138
1.74527e-06
0.00149029
1.73622e-06
0.0014892
1.72828e-06
0.00148811
1.72248e-06
0.00148703
1.71814e-06
0.00148596
1.71622e-06
0.00148488
1.71606e-06
0.00148381
1.71857e-06
0.00148273
1.72308e-06
0.00148166
1.73046e-06
0.00148058
1.74005e-06
0.0014795
1.75269e-06
0.00147842
1.76779e-06
0.00147732
1.78618e-06
0.00147623
1.80733e-06
0.00147512
1.83208e-06
0.001474
1.85994e-06
0.00147287
1.89179e-06
0.00147172
1.92719e-06
0.00147056
1.96705e-06
0.00146939
2.01097e-06
0.00146819
2.0599e-06
0.00146696
2.1135e-06
0.00146572
2.17272e-06
0.00146444
2.23731e-06
0.00146314
2.30825e-06
0.0014618
2.38533e-06
0.00146042
2.46958e-06
0.00145901
2.56088e-06
0.00145755
2.66029e-06
0.00145604
2.76776e-06
0.00145449
2.88439e-06
0.00145287
3.01014e-06
0.0014512
3.14619e-06
0.00144946
3.29295e-06
0.00144766
3.45183e-06
0.00144577
3.62317e-06
0.00144381
3.80835e-06
0.00144175
4.00776e-06
0.0014396
4.22281e-06
0.00143735
4.45401e-06
0.00143498
4.70288e-06
0.0014325
4.97009e-06
0.00142989
5.25734e-06
0.00142714
5.56551e-06
0.00142424
5.89651e-06
0.00142119
6.25147e-06
0.00141796
6.63257e-06
0.00141455
7.04122e-06
0.00141094
7.47986e-06
0.00140711
7.95025e-06
0.00140306
8.45514e-06
0.00139876
8.99663e-06
0.0013942
9.57786e-06
0.00138936
1.02014e-05
0.00138421
1.08707e-05
0.00137873
1.1589e-05
0.00137291
1.23603e-05
0.0013667
1.31881e-05
0.00136008
1.40773e-05
0.00135303
1.50319e-05
0.0013455
1.60574e-05
0.00133746
1.71588e-05
0.00132888
1.83422e-05
0.0013197
1.96134e-05
0.00130989
2.09794e-05
0.00129939
2.2447e-05
0.00128814
2.40242e-05
0.0012761
2.57187e-05
0.00126318
2.75395e-05
0.00124934
2.94953e-05
0.00123448
3.1596e-05
0.00121852
3.38514e-05
0.00120138
3.62724e-05
0.00118296
3.88695e-05
0.00116314
4.16602e-05
0.00114183
4.46513e-05
0.0011189
4.78505e-05
0.00109423
5.12683e-05
0.00106767
5.49014e-05
0.00103906
5.87363e-05
0.00100824
6.27546e-05
0.000975045
6.69292e-05
0.000939321
7.12243e-05
0.000900929
7.55893e-05
0.00085975
7.99583e-05
0.000815698
8.42441e-05
0.000768736
8.83397e-05
0.000718888
9.21145e-05
0.000666263
9.5421e-05
0.000611071
9.80971e-05
0.000553637
9.99777e-05
0.000494418
0.000100895
0.000433979
0.000100714
0.000372912
9.92062e-05
0.000311221
9.62352e-05
0.00024945
9.25429e-05
0.000189
8.8841e-05
0.000130897
8.45536e-05
7.60496e-05
7.80329e-05
2.55496e-05
6.84339e-05
-1.92977e-05
5.57711e-05
-5.87558e-05
4.18543e-05
-9.31965e-05
3.03849e-05
-0.000122577
2.28222e-05
-0.000147718
1.88097e-05
-0.00016924
1.78179e-05
1.97614e-05
-0.000186692
-0.00354309
-0.00190716
-0.00315543
-0.00166838
-0.00277027
-0.00142617
-0.00241337
-0.00125974
-0.00208416
-0.00112198
-0.00178239
-0.00100728
-0.00150605
-0.000906742
-0.00125331
-0.000817526
-0.00102228
-0.000737886
-0.000811083
-0.000666947
-0.000617875
-0.000604017
-0.000440892
-0.000548408
-0.000278491
-0.000499358
-0.000128773
-0.000455858
1.03143e-05
-0.000416848
0.000139981
-0.000381981
0.000260746
-0.000351256
0.000373249
-0.000324139
0.000478216
-0.00029998
0.000576313
-0.000278288
0.00066811
-0.000258681
0.000754108
-0.000240843
0.00083474
-0.000224519
0.000910394
-0.000209492
0.000981408
-0.000195594
0.00104809
-0.000182677
0.00111071
-0.000170626
0.00116953
-0.000159341
0.00122476
-0.000148748
0.00127663
-0.000138773
0.00132531
-0.000129367
0.00137099
-0.000120482
0.00141384
-0.000112083
0.00145401
-0.000104135
0.00149165
-9.6613e-05
0.00152689
-8.94903e-05
0.00155987
-8.27494e-05
0.00159071
-7.63665e-05
0.00161952
-7.03276e-05
0.00164641
-6.46124e-05
0.0016715
-5.92091e-05
0.00169488
-5.40995e-05
0.00171665
-4.92726e-05
0.0017369
-4.47114e-05
0.00175571
-4.04056e-05
0.00177318
-3.63386e-05
0.00178937
-3.25e-05
0.00180436
-2.88732e-05
0.00181822
-2.54465e-05
0.00183104
-2.22071e-05
0.0018429
-1.91462e-05
0.00185391
-1.62435e-05
0.00186412
-1.349e-05
0.0018736
-1.08816e-05
0.00188236
-8.41988e-06
0.00189046
-6.10212e-06
0.00189792
-3.92964e-06
0.00190479
-1.89816e-06
0.00191108
-3.49125e-09
0.00191683
1.76222e-06
0.00192206
3.40083e-06
0.00192682
4.91535e-06
0.00193112
6.30429e-06
0.001935
7.56684e-06
0.00193845
8.69982e-06
0.00194149
9.70272e-06
0.00194409
1.05733e-05
0.00194624
1.13133e-05
0.00194792
1.19273e-05
0.00194912
1.24288e-05
0.00194986
1.2838e-05
0.00195016
1.31785e-05
0.00195007
1.34707e-05
0.00194963
1.37311e-05
0.00194889
1.39706e-05
0.00194789
1.41961e-05
0.00194667
1.44104e-05
0.00194526
1.4614e-05
0.00194368
1.4806e-05
0.00194197
1.49843e-05
0.00194013
1.51464e-05
0.00193818
1.52897e-05
0.00193613
1.5411e-05
0.00193399
1.55062e-05
0.00193178
1.55707e-05
0.00192947
1.55995e-05
0.00192709
1.55884e-05
0.0019246
1.55337e-05
0.00192201
1.54344e-05
0.00191929
1.52909e-05
0.00191645
1.51077e-05
0.00191349
1.48909e-05
0.0019104
1.465e-05
0.00190722
1.43937e-05
0.00190394
1.41315e-05
0.00190058
1.38702e-05
0.00189717
1.36164e-05
0.00189372
1.33723e-05
0.00189024
1.31391e-05
0.00188676
1.29144e-05
0.00188328
1.26965e-05
0.00187982
1.24809e-05
0.00187638
1.22657e-05
0.00187296
1.20478e-05
0.00186957
1.18275e-05
0.0018662
1.16036e-05
0.00186285
1.13784e-05
0.00185952
1.11522e-05
0.00185621
1.09281e-05
0.00185292
1.07066e-05
0.00184964
1.04908e-05
0.00184639
1.02808e-05
0.00184316
1.00788e-05
0.00183996
9.88369e-06
0.00183679
9.69674e-06
0.00183365
9.51591e-06
0.00183055
9.34166e-06
0.0018275
9.17214e-06
0.00182448
9.00784e-06
0.0018215
8.84707e-06
0.00181856
8.69056e-06
0.00181566
8.53573e-06
0.00181279
8.38385e-06
0.00180997
8.23353e-06
0.00180719
8.08638e-06
0.00180444
7.94099e-06
0.00180173
7.79888e-06
0.00179905
7.65847e-06
0.00179642
7.52112e-06
0.00179381
7.385e-06
0.00179125
7.25137e-06
0.00178871
7.11841e-06
0.00178622
6.98753e-06
0.00178376
6.85706e-06
0.00178133
6.72866e-06
0.00177894
6.60087e-06
0.00177658
6.47549e-06
0.00177425
6.35114e-06
0.00177195
6.22963e-06
0.00176969
6.10948e-06
0.00176745
5.99239e-06
0.00176525
5.87677e-06
0.00176308
5.76422e-06
0.00176094
5.65308e-06
0.00175883
5.54495e-06
0.00175674
5.43818e-06
0.00175469
5.3344e-06
0.00175267
5.23199e-06
0.00175067
5.13257e-06
0.00174871
5.03454e-06
0.00174677
4.93948e-06
0.00174486
4.84577e-06
0.00174298
4.75496e-06
0.00174112
4.66548e-06
0.00173929
4.57892e-06
0.00173748
4.49371e-06
0.0017357
4.41144e-06
0.00173395
4.33063e-06
0.00173222
4.2529e-06
0.00173051
4.17689e-06
0.00172883
4.10437e-06
0.00172717
4.0341e-06
0.00172553
3.96951e-06
0.00172391
3.90873e-06
0.00172232
3.85239e-06
0.00172076
3.79998e-06
0.00171923
3.75269e-06
0.00171772
3.70828e-06
0.00171624
3.66722e-06
0.00171479
3.62709e-06
0.00171335
3.58854e-06
0.00171194
3.54975e-06
0.00171055
3.51185e-06
0.00170918
3.47338e-06
0.00170782
3.43569e-06
0.00170648
3.39755e-06
0.00170516
3.36037e-06
0.00170386
3.32302e-06
0.00170256
3.28688e-06
0.00170129
3.25084e-06
0.00170002
3.21626e-06
0.00169877
3.18202e-06
0.00169753
3.14942e-06
0.00169631
3.11738e-06
0.0016951
3.08714e-06
0.00169389
3.05762e-06
0.0016927
3.03005e-06
0.00169152
3.00339e-06
0.00169035
2.97882e-06
0.00168918
2.95536e-06
0.00168803
2.93419e-06
0.00168688
2.91434e-06
0.00168574
2.89689e-06
0.00168461
2.88093e-06
0.00168348
2.86773e-06
0.00168236
2.85655e-06
0.00168124
2.84853e-06
0.00168013
2.84287e-06
0.00167901
2.84067e-06
0.0016779
2.84116e-06
0.00167679
2.8454e-06
0.00167568
2.85265e-06
0.00167457
2.86395e-06
0.00167346
2.8786e-06
0.00167234
2.89764e-06
0.00167122
2.92045e-06
0.00167009
2.94809e-06
0.00166895
2.98001e-06
0.00166781
3.01726e-06
0.00166665
3.05936e-06
0.00166548
3.10739e-06
0.0016643
3.16096e-06
0.0016631
3.22116e-06
0.00166188
3.28769e-06
0.00166065
3.36167e-06
0.00165939
3.44287e-06
0.00165811
3.53246e-06
0.00165679
3.63029e-06
0.00165545
3.7376e-06
0.00165408
3.85433e-06
0.00165267
3.98177e-06
0.00165122
4.11998e-06
0.00164973
4.27031e-06
0.00164819
4.43296e-06
0.0016466
4.6092e-06
0.00164496
4.79939e-06
0.00164326
5.00538e-06
0.00164149
5.22778e-06
0.00163966
5.46822e-06
0.00163775
5.72735e-06
0.00163576
6.00692e-06
0.00163369
6.30774e-06
0.00163152
6.63174e-06
0.00162925
6.97994e-06
0.00162688
7.35447e-06
0.00162439
7.75662e-06
0.00162178
8.18876e-06
0.00161903
8.65251e-06
0.00161614
9.15054e-06
0.0016131
9.68481e-06
0.00160989
1.02584e-05
0.0016065
1.08736e-05
0.00160293
1.15339e-05
0.00159915
1.22421e-05
0.00159516
1.30022e-05
0.00159092
1.38175e-05
0.00158644
1.46925e-05
0.00158169
1.56312e-05
0.00157665
1.66389e-05
0.0015713
1.77202e-05
0.00156561
1.8881e-05
0.00155957
2.0127e-05
0.00155315
2.1465e-05
0.00154631
2.29015e-05
0.00153903
2.44444e-05
0.00153128
2.61014e-05
0.00152302
2.78815e-05
0.00151421
2.97937e-05
0.00150482
3.18484e-05
0.0014948
3.40561e-05
0.00148409
3.64288e-05
0.00147266
3.89784e-05
0.00146044
4.17187e-05
0.00144738
4.46633e-05
0.00143342
4.78277e-05
0.00141847
5.12272e-05
0.00140246
5.48786e-05
0.00138533
5.88012e-05
0.00136698
6.30098e-05
0.00134732
6.75186e-05
0.00132624
7.23468e-05
0.00130365
7.75058e-05
0.00127939
8.29992e-05
0.00125333
8.88224e-05
0.0012253
9.49634e-05
0.00119513
0.000101398
0.00116264
0.000108087
0.00112764
0.000114973
0.00108991
0.000121976
0.00104927
0.000128987
0.00100553
0.000135864
0.000958526
0.000142431
0.000908155
0.000148476
0.000854384
0.000153757
0.000797282
0.000158004
0.000737044
0.000160961
0.000673904
0.000162355
0.000608193
0.000161956
0.000540863
0.000159885
0.000473307
0.000156409
0.000406566
0.00015131
0.000340857
0.000143758
0.000276071
0.000133237
0.000212422
0.000119439
0.000150776
0.00010352
9.30955e-05
8.80868e-05
4.10147e-05
7.49303e-05
-4.72121e-06
6.4579e-05
-4.36941e-05
5.68179e-05
5.18561e-05
-7.57846e-05
-0.00316228
-0.00213744
-0.0028776
-0.00195307
-0.00256973
-0.00173404
-0.00226925
-0.00156022
-0.00198264
-0.00140861
-0.00171351
-0.00127641
-0.0014625
-0.00115777
-0.0012294
-0.00105063
-0.0010135
-0.000953795
-0.000813828
-0.000866637
-0.000629251
-0.000788609
-0.000458585
-0.000719092
-0.00030063
-0.00065733
-0.000154091
-0.000602413
-1.75783e-05
-0.000553374
0.000109982
-0.000509556
0.000229244
-0.000470531
0.000340811
-0.000435722
0.00044531
-0.000404495
0.000543312
-0.000376311
0.000635323
-0.000350715
0.000721789
-0.000327335
0.000803102
-0.000305859
0.000879609
-0.000286032
0.000951622
-0.00026764
0.00101942
-0.000250511
0.00108325
-0.000234498
0.00114336
-0.000219486
0.00119994
-0.000205372
0.0012532
-0.000192078
0.00130332
-0.000179532
0.00135047
-0.000167678
0.00139481
-0.000156468
0.00143648
-0.00014586
0.00147564
-0.000135817
0.00151241
-0.00012631
0.00154691
-0.000117309
0.00157928
-0.000108789
0.00160963
-0.000100725
0.00163806
-9.3097e-05
0.00166468
-8.58825e-05
0.00168959
-7.90637e-05
0.00171288
-7.26199e-05
0.00173465
-6.65346e-05
0.00175497
-6.07883e-05
0.00177394
-5.53649e-05
0.00179163
-5.02457e-05
0.00180812
-4.54148e-05
0.00182347
-4.08544e-05
0.00183776
-3.65535e-05
0.00185106
-3.25002e-05
0.00186344
-2.86789e-05
0.00187497
-2.50722e-05
0.0018857
-2.16706e-05
0.00189569
-1.84655e-05
0.00190499
-1.54533e-05
0.00191364
-1.26279e-05
0.00192167
-9.98336e-06
0.00192912
-7.51047e-06
0.00193603
-5.20241e-06
0.00194244
-3.05406e-06
0.00194836
-1.06261e-06
0.00195384
7.76955e-07
0.00195889
2.46556e-06
0.00196354
4.00414e-06
0.0019678
5.39409e-06
0.00197169
6.64026e-06
0.0019752
7.7493e-06
0.00197835
8.73179e-06
0.00198114
9.59853e-06
0.00198357
1.03658e-05
0.00198565
1.10499e-05
0.00198741
1.16667e-05
0.00198887
1.22282e-05
0.00199006
1.27448e-05
0.00199099
1.32223e-05
0.00199169
1.36655e-05
0.00199219
1.40759e-05
0.00199251
1.44549e-05
0.00199265
1.48023e-05
0.00199264
1.51177e-05
0.0019925
1.54001e-05
0.00199222
1.56482e-05
0.00199183
1.58602e-05
0.00199134
1.60344e-05
0.00199073
1.61689e-05
0.00199003
1.6263e-05
0.00198921
1.63159e-05
0.00198829
1.63281e-05
0.00198725
1.63003e-05
0.00198609
1.6235e-05
0.00198482
1.61362e-05
0.00198343
1.60099e-05
0.00198194
1.58628e-05
0.00198034
1.57018e-05
0.00197865
1.55328e-05
0.00197688
1.53606e-05
0.00197504
1.51878e-05
0.00197314
1.50162e-05
0.00197119
1.48456e-05
0.00196919
1.46754e-05
0.00196714
1.45041e-05
0.00196506
1.43301e-05
0.00196294
1.41521e-05
0.00196077
1.3969e-05
0.00195858
1.37806e-05
0.00195635
1.35874e-05
0.0019541
1.33904e-05
0.00195182
1.3191e-05
0.00194952
1.29909e-05
0.0019472
1.27914e-05
0.00194487
1.25938e-05
0.00194254
1.23987e-05
0.0019402
1.22066e-05
0.00193787
1.20173e-05
0.00193554
1.1831e-05
0.00193322
1.16474e-05
0.00193091
1.14675e-05
0.00192862
1.12903e-05
0.00192634
1.11158e-05
0.00192408
1.0944e-05
0.00192183
1.07749e-05
0.0019196
1.06081e-05
0.00191738
1.04437e-05
0.00191518
1.02813e-05
0.00191299
1.0121e-05
0.00191082
9.96231e-06
0.00190867
9.80532e-06
0.00190653
9.64956e-06
0.00190442
9.49521e-06
0.00190232
9.34187e-06
0.00190024
9.18985e-06
0.00189819
9.03889e-06
0.00189615
8.88945e-06
0.00189414
8.74133e-06
0.00189214
8.59503e-06
0.00189016
8.45037e-06
0.0018882
8.30784e-06
0.00188626
8.16717e-06
0.00188434
8.02877e-06
0.00188244
7.89229e-06
0.00188056
7.75811e-06
0.0018787
7.62586e-06
0.00187686
7.49592e-06
0.00187504
7.36796e-06
0.00187323
7.24239e-06
0.00187145
7.1189e-06
0.00186969
6.9979e-06
0.00186794
6.87904e-06
0.00186622
6.76271e-06
0.00186451
6.64849e-06
0.00186282
6.53672e-06
0.00186116
6.42697e-06
0.00185951
6.31965e-06
0.00185787
6.21442e-06
0.00185626
6.11169e-06
0.00185467
6.01113e-06
0.00185309
5.9132e-06
0.00185153
5.81763e-06
0.00184999
5.72492e-06
0.00184846
5.63496e-06
0.00184695
5.54825e-06
0.00184546
5.46547e-06
0.00184399
5.38634e-06
0.00184254
5.30956e-06
0.00184111
5.23664e-06
0.00183971
5.16768e-06
0.00183832
5.10272e-06
0.00183695
5.04069e-06
0.00183561
4.98118e-06
0.00183428
4.92316e-06
0.00183297
4.86667e-06
0.00183168
4.81108e-06
0.00183041
4.75661e-06
0.00182915
4.70279e-06
0.00182791
4.65002e-06
0.00182668
4.59798e-06
0.00182547
4.54712e-06
0.00182426
4.49719e-06
0.00182308
4.44864e-06
0.0018219
4.40124e-06
0.00182074
4.35543e-06
0.00181959
4.31097e-06
0.00181845
4.26829e-06
0.00181732
4.22714e-06
0.0018162
4.18794e-06
0.00181509
4.15045e-06
0.00181399
4.11509e-06
0.00181289
4.08163e-06
0.00181181
4.05052e-06
0.00181073
4.02157e-06
0.00180966
3.99523e-06
0.0018086
3.97121e-06
0.00180754
3.94999e-06
0.00180649
3.93161e-06
0.00180544
3.91663e-06
0.00180439
3.90488e-06
0.00180335
3.89683e-06
0.00180231
3.89235e-06
0.00180127
3.89193e-06
0.00180023
3.89547e-06
0.00179919
3.90345e-06
0.00179815
3.91582e-06
0.00179711
3.93307e-06
0.00179606
3.9552e-06
0.00179501
3.98275e-06
0.00179395
4.01578e-06
0.00179289
4.05486e-06
0.00179181
4.10009e-06
0.00179073
4.15211e-06
0.00178964
4.21107e-06
0.00178853
4.27764e-06
0.00178741
4.35206e-06
0.00178628
4.43506e-06
0.00178512
4.52695e-06
0.00178395
4.62854e-06
0.00178275
4.74022e-06
0.00178153
4.86286e-06
0.00178028
4.99697e-06
0.001779
5.14351e-06
0.00177769
5.30309e-06
0.00177634
5.47678e-06
0.00177496
5.66532e-06
0.00177353
5.86997e-06
0.00177206
6.09139e-06
0.00177053
6.33102e-06
0.00176896
6.59022e-06
0.00176733
6.87042e-06
0.00176563
7.17274e-06
0.00176387
7.49884e-06
0.00176203
7.8501e-06
0.00176012
8.22841e-06
0.00175813
8.6354e-06
0.00175604
9.07319e-06
0.00175386
9.54369e-06
0.00175158
1.00493e-05
0.00174918
1.05923e-05
0.00174667
1.11754e-05
0.00174403
1.18012e-05
0.00174125
1.2473e-05
0.00173832
1.31938e-05
0.00173524
1.39672e-05
0.00173198
1.47969e-05
0.00172854
1.56871e-05
0.00172491
1.6642e-05
0.00172107
1.76664e-05
0.00171701
1.87652e-05
0.0017127
1.99442e-05
0.00170814
2.12089e-05
0.0017033
2.2566e-05
0.00169817
2.40222e-05
0.00169272
2.55849e-05
0.00168693
2.72619e-05
0.00168077
2.9062e-05
0.00167423
3.09942e-05
0.00166727
3.30687e-05
0.00165986
3.52959e-05
0.00165197
3.76875e-05
0.00164357
4.02559e-05
0.00163462
4.30144e-05
0.00162508
4.59774e-05
0.0016149
4.91602e-05
0.00160405
5.25792e-05
0.00159247
5.6252e-05
0.0015801
6.01972e-05
0.0015669
6.44347e-05
0.0015528
6.8985e-05
0.00153774
7.38711e-05
0.00152164
7.91142e-05
0.00150443
8.47338e-05
0.00148603
9.07512e-05
0.00146636
9.71869e-05
0.0014453
0.000104055
0.00142277
0.000111365
0.00139862
0.000119116
0.00137273
0.000127299
0.00134493
0.000135893
0.00131505
0.000144859
0.00128289
0.000154136
0.00124825
0.000163636
0.00121089
0.000173237
0.00117054
0.000182778
0.00112697
0.000192056
0.00107992
0.000200819
0.00102916
0.000208769
0.000974539
0.000215587
0.000915967
0.000220934
0.00085348
0.000224451
0.000787477
0.000225897
0.000718728
0.000225169
0.000648029
0.000222019
0.000575936
0.000215863
0.000502856
0.000206329
0.000429055
0.000193252
0.00035545
0.000177138
0.000284027
0.000159524
0.000216924
0.000142048
0.000155688
0.000125835
0.000101083
0.000111442
9.93166e-05
5.36214e-05
-0.00282617
-0.00230921
-0.00261036
-0.00216889
-0.00236436
-0.00198006
-0.00211307
-0.00181152
-0.00186565
-0.00165604
-0.00162767
-0.0015144
-0.00140151
-0.00138395
-0.00118821
-0.00126394
-0.000988026
-0.001154
-0.000800716
-0.00105396
-0.000625771
-0.000963571
-0.000462509
-0.000882369
-0.000310151
-0.000809702
-0.000167825
-0.000744748
-3.45953e-05
-0.000686611
9.03606e-05
-0.000634512
0.000207648
-0.000587817
0.000317804
-0.000545872
0.000421345
-0.000508031
0.000518756
-0.000473714
0.00061047
-0.000442423
0.000696878
-0.000413736
0.000778327
-0.000387304
0.000855132
-0.000362831
0.000927572
-0.000340077
0.000995906
-0.00031884
0.00106036
-0.000298956
0.00112116
-0.000280284
0.0011785
-0.000262712
0.00123256
-0.000246142
0.00128352
-0.000230495
0.00133154
-0.000215701
0.00137677
-0.000201705
0.00141936
-0.000188454
0.00145944
-0.000175908
0.00149715
-0.000164025
0.0015326
-0.000152774
0.00156592
-0.00014212
0.00159721
-0.000132038
0.0016266
-0.000122497
0.00165417
-0.000113474
0.00168004
-0.000104944
0.00170428
-9.68847e-05
0.001727
-8.9272e-05
0.00174828
-8.2085e-05
0.00176819
-7.53011e-05
0.00178682
-6.89e-05
0.00180425
-6.28604e-05
0.00182053
-5.71641e-05
0.00183575
-5.17947e-05
0.00184996
-4.67388e-05
0.00186324
-4.19781e-05
0.00187563
-3.74957e-05
0.00188721
-3.32763e-05
0.00189803
-2.93083e-05
0.00190813
-2.55816e-05
0.00191756
-2.20876e-05
0.00192636
-1.88153e-05
0.00193458
-1.57548e-05
0.00194224
-1.2896e-05