/*--------------------------------*- C++ -*----------------------------------*\
  =========                 |
  \\      /  F ield         | OpenFOAM: The Open Source CFD Toolbox
   \\    /   O peration     | Website:  https://openfoam.org
    \\  /    A nd           | Version:  8
     \\/     M anipulation  |
\*---------------------------------------------------------------------------*/
FoamFile
{
    version     2.0;
    format      ascii;
    class       volScalarField;
    location    "23";
    object      p;
}
// * * * * * * * * * * * * * * * * * * * * * * * * * * * * * * * * * * * * * //

dimensions      [0 2 -2 0 0 0 0];

internalField   nonuniform List<scalar> 
277560
(
-0.594426
-0.595195
-0.597101
-0.599911
-0.603521
-0.607916
-0.613067
-0.618923
-0.625439
-0.632573
-0.640286
-0.648539
-0.657297
-0.666522
-0.676181
-0.68624
-0.696669
-0.707437
-0.718515
-0.729877
-0.741494
-0.753344
-0.7654
-0.777641
-0.790045
-0.802591
-0.81526
-0.828032
-0.84089
-0.853818
-0.866799
-0.879819
-0.892863
-0.905918
-0.918972
-0.932012
-0.945029
-0.95801
-0.970947
-0.983831
-0.996652
-1.0094
-1.02208
-1.03467
-1.04717
-1.05957
-1.07187
-1.08407
-1.09615
-1.10812
-1.11997
-1.1317
-1.1433
-1.15478
-1.16612
-1.17733
-1.18841
-1.19935
-1.21015
-1.22082
-1.23134
-1.24173
-1.25197
-1.26207
-1.27203
-1.28185
-1.29153
-1.30107
-1.31047
-1.31972
-1.32884
-1.33782
-1.34666
-1.35536
-1.36393
-1.37236
-1.38066
-1.38882
-1.39685
-1.40475
-1.41253
-1.42017
-1.42769
-1.43508
-1.44235
-1.4495
-1.45652
-1.46343
-1.47022
-1.4769
-1.48346
-1.4899
-1.49624
-1.50246
-1.50858
-1.51459
-1.5205
-1.5263
-1.532
-1.5376
-1.5431
-1.5485
-1.55381
-1.55903
-1.56415
-1.56918
-1.57412
-1.57897
-1.58373
-1.58841
-1.59301
-1.59752
-1.60196
-1.60631
-1.61058
-1.61478
-1.6189
-1.62295
-1.62692
-1.63083
-0.594006
-0.594751
-0.596641
-0.599447
-0.603054
-0.607445
-0.612593
-0.618447
-0.624961
-0.632093
-0.639805
-0.648058
-0.656815
-0.66604
-0.675699
-0.685759
-0.696188
-0.706957
-0.718037
-0.7294
-0.74102
-0.752871
-0.764931
-0.777175
-0.789582
-0.802131
-0.814803
-0.82758
-0.840442
-0.853374
-0.86636
-0.879385
-0.892434
-0.905494
-0.918553
-0.9316
-0.944622
-0.957609
-0.970553
-0.983443
-0.99627
-1.00903
-1.02171
-1.03431
-1.04681
-1.05922
-1.07153
-1.08374
-1.09583
-1.1078
-1.11966
-1.1314
-1.14301
-1.15449
-1.16584
-1.17706
-1.18814
-1.19909
-1.2099
-1.22058
-1.23111
-1.2415
-1.25175
-1.26186
-1.27183
-1.28166
-1.29134
-1.30089
-1.31029
-1.31956
-1.32868
-1.33767
-1.34652
-1.35523
-1.3638
-1.37224
-1.38054
-1.38871
-1.39675
-1.40466
-1.41244
-1.42009
-1.42762
-1.43502
-1.4423
-1.44945
-1.45648
-1.4634
-1.47019
-1.47688
-1.48344
-1.48989
-1.49624
-1.50247
-1.50859
-1.51461
-1.52052
-1.52633
-1.53203
-1.53764
-1.54315
-1.54856
-1.55387
-1.55909
-1.56422
-1.56925
-1.5742
-1.57906
-1.58383
-1.58851
-1.59311
-1.59763
-1.60207
-1.60642
-1.6107
-1.6149
-1.61903
-1.62308
-1.62706
-1.63096
-0.593218
-0.593964
-0.595853
-0.598657
-0.602262
-0.60665
-0.611795
-0.617647
-0.624159
-0.631291
-0.639002
-0.647255
-0.656013
-0.66524
-0.6749
-0.684963
-0.695396
-0.706168
-0.717252
-0.72862
-0.740245
-0.752102
-0.764167
-0.776418
-0.788832
-0.801388
-0.814068
-0.826853
-0.839724
-0.852665
-0.86566
-0.878694
-0.891753
-0.904823
-0.917893
-0.93095
-0.943983
-0.956982
-0.969936
-0.982838
-0.995678
-1.00845
-1.02114
-1.03375
-1.04627
-1.05869
-1.07101
-1.08323
-1.09533
-1.10732
-1.11919
-1.13094
-1.14256
-1.15406
-1.16542
-1.17665
-1.18775
-1.19871
-1.20954
-1.22022
-1.23077
-1.24117
-1.25144
-1.26156
-1.27154
-1.28138
-1.29108
-1.30063
-1.31005
-1.31933
-1.32846
-1.33746
-1.34632
-1.35504
-1.36363
-1.37208
-1.38039
-1.38857
-1.39662
-1.40454
-1.41233
-1.42
-1.42753
-1.43494
-1.44223
-1.44939
-1.45644
-1.46336
-1.47017
-1.47686
-1.48343
-1.48989
-1.49624
-1.50248
-1.50862
-1.51464
-1.52056
-1.52638
-1.53209
-1.53771
-1.54322
-1.54864
-1.55396
-1.55919
-1.56432
-1.56936
-1.57432
-1.57918
-1.58396
-1.58865
-1.59326
-1.59778
-1.60223
-1.60659
-1.61088
-1.61508
-1.61922
-1.62328
-1.62726
-1.63117
-0.592051
-0.592789
-0.594668
-0.597462
-0.601058
-0.60544
-0.610579
-0.616426
-0.622935
-0.630064
-0.637774
-0.646026
-0.654784
-0.664011
-0.673674
-0.683739
-0.694175
-0.704952
-0.716041
-0.727414
-0.739045
-0.75091
-0.762983
-0.775242
-0.787665
-0.800232
-0.812923
-0.825718
-0.838601
-0.851554
-0.864562
-0.87761
-0.890683
-0.903768
-0.916852
-0.929924
-0.942973
-0.955988
-0.968959
-0.981877
-0.994734
-1.00752
-1.02023
-1.03286
-1.0454
-1.05784
-1.07018
-1.08241
-1.09453
-1.10654
-1.11843
-1.1302
-1.14184
-1.15336
-1.16474
-1.17599
-1.18711
-1.19809
-1.20893
-1.21964
-1.2302
-1.24062
-1.25091
-1.26105
-1.27105
-1.28091
-1.29063
-1.3002
-1.30964
-1.31893
-1.32809
-1.3371
-1.34598
-1.35472
-1.36333
-1.37179
-1.38013
-1.38833
-1.39639
-1.40433
-1.41214
-1.41982
-1.42737
-1.4348
-1.4421
-1.44928
-1.45634
-1.46328
-1.4701
-1.47681
-1.4834
-1.48988
-1.49624
-1.5025
-1.50865
-1.51469
-1.52062
-1.52645
-1.53218
-1.53781
-1.54334
-1.54877
-1.5541
-1.55934
-1.56449
-1.56955
-1.57451
-1.57939
-1.58418
-1.58888
-1.5935
-1.59804
-1.60249
-1.60687
-1.61116
-1.61538
-1.61953
-1.62359
-1.62759
-1.63151
-0.590511
-0.591235
-0.593102
-0.595886
-0.599473
-0.603847
-0.60898
-0.614822
-0.621327
-0.628453
-0.636161
-0.644412
-0.653171
-0.6624
-0.672065
-0.682134
-0.692575
-0.703359
-0.714455
-0.725836
-0.737477
-0.749351
-0.761435
-0.773706
-0.786142
-0.798723
-0.811428
-0.824239
-0.837138
-0.850108
-0.863134
-0.876199
-0.889291
-0.902396
-0.9155
-0.928593
-0.941663
-0.954699
-0.967693
-0.980633
-0.993513
-1.00632
-1.01906
-1.03171
-1.04427
-1.05674
-1.0691
-1.08136
-1.09351
-1.10554
-1.11746
-1.12925
-1.14092
-1.15246
-1.16387
-1.17514
-1.18629
-1.19729
-1.20816
-1.21889
-1.22948
-1.23993
-1.25024
-1.26041
-1.27043
-1.28032
-1.29006
-1.29966
-1.30912
-1.31844
-1.32762
-1.33666
-1.34556
-1.35433
-1.36295
-1.37144
-1.3798
-1.38802
-1.39611
-1.40407
-1.4119
-1.4196
-1.42718
-1.43463
-1.44195
-1.44915
-1.45623
-1.46319
-1.47003
-1.47676
-1.48337
-1.48987
-1.49625
-1.50253
-1.50869
-1.51475
-1.5207
-1.52655
-1.5323
-1.53794
-1.54349
-1.54893
-1.55429
-1.55954
-1.56471
-1.56978
-1.57476
-1.57965
-1.58446
-1.58917
-1.59381
-1.59836
-1.60283
-1.60722
-1.61153
-1.61576
-1.61992
-1.624
-1.62801
-1.63194
-0.588605
-0.589312
-0.591165
-0.593936
-0.597512
-0.601876
-0.607
-0.612835
-0.619335
-0.626456
-0.634162
-0.642413
-0.651172
-0.660403
-0.670071
-0.680145
-0.690592
-0.701382
-0.712487
-0.723878
-0.73553
-0.747416
-0.759514
-0.771799
-0.784251
-0.796848
-0.809571
-0.8224
-0.835319
-0.84831
-0.861357
-0.874445
-0.88756
-0.900688
-0.913817
-0.926935
-0.940031
-0.953094
-0.966114
-0.979082
-0.99199
-1.00483
-1.01759
-1.03027
-1.04286
-1.05536
-1.06776
-1.08005
-1.09222
-1.10429
-1.11624
-1.12806
-1.13976
-1.15133
-1.16277
-1.17408
-1.18525
-1.19629
-1.20719
-1.21795
-1.22858
-1.23906
-1.2494
-1.2596
-1.26965
-1.27957
-1.28934
-1.29898
-1.30847
-1.31782
-1.32702
-1.33609
-1.34503
-1.35382
-1.36248
-1.371
-1.37938
-1.38763
-1.39575
-1.40374
-1.4116
-1.41932
-1.42693
-1.4344
-1.44175
-1.44898
-1.45608
-1.46307
-1.46994
-1.47669
-1.48332
-1.48985
-1.49625
-1.50255
-1.50874
-1.51482
-1.5208
-1.52667
-1.53244
-1.53811
-1.54367
-1.54914
-1.55451
-1.55979
-1.56498
-1.57007
-1.57507
-1.57998
-1.5848
-1.58954
-1.59419
-1.59876
-1.60325
-1.60766
-1.61199
-1.61624
-1.62041
-1.62451
-1.62853
-1.63248
-0.58634
-0.587028
-0.588864
-0.591619
-0.595181
-0.599533
-0.604647
-0.610475
-0.616968
-0.624085
-0.631788
-0.640037
-0.648797
-0.65803
-0.667703
-0.677782
-0.688236
-0.699035
-0.71015
-0.721552
-0.733217
-0.745118
-0.757232
-0.769534
-0.782005
-0.794622
-0.807365
-0.820217
-0.833159
-0.846174
-0.859247
-0.872361
-0.885504
-0.89866
-0.911819
-0.924967
-0.938093
-0.951188
-0.964241
-0.977242
-0.990183
-1.00306
-1.01585
-1.02857
-1.0412
-1.05373
-1.06616
-1.07849
-1.0907
-1.1028
-1.11479
-1.12665
-1.13839
-1.15
-1.16148
-1.17282
-1.18403
-1.19511
-1.20605
-1.21685
-1.22751
-1.23803
-1.2484
-1.25864
-1.26873
-1.27869
-1.2885
-1.29817
-1.30769
-1.31708
-1.32632
-1.33543
-1.3444
-1.35322
-1.36192
-1.37047
-1.37889
-1.38717
-1.39533
-1.40335
-1.41124
-1.419
-1.42663
-1.43414
-1.44152
-1.44878
-1.45592
-1.46293
-1.46983
-1.47661
-1.48327
-1.48982
-1.49626
-1.50259
-1.5088
-1.51491
-1.52092
-1.52681
-1.53261
-1.5383
-1.54389
-1.54939
-1.55478
-1.56009
-1.56529
-1.57041
-1.57543
-1.58037
-1.58522
-1.58998
-1.59465
-1.59924
-1.60375
-1.60818
-1.61253
-1.6168
-1.62099
-1.62511
-1.62915
-1.63312
-0.583725
-0.584389
-0.586205
-0.588942
-0.592488
-0.596827
-0.601929
-0.607747
-0.614233
-0.621345
-0.629044
-0.637293
-0.646052
-0.655288
-0.664965
-0.67505
-0.685513
-0.696321
-0.707448
-0.718864
-0.730544
-0.742461
-0.754593
-0.766916
-0.779407
-0.792047
-0.804815
-0.817692
-0.830661
-0.843704
-0.856806
-0.869951
-0.883125
-0.896315
-0.909507
-0.922689
-0.935852
-0.948983
-0.962072
-0.975112
-0.988092
-1.001
-1.01384
-1.0266
-1.03927
-1.05184
-1.06431
-1.07668
-1.08894
-1.10108
-1.11311
-1.12502
-1.1368
-1.14845
-1.15997
-1.17136
-1.18262
-1.19374
-1.20472
-1.21556
-1.22626
-1.23683
-1.24725
-1.25753
-1.26767
-1.27766
-1.28751
-1.29722
-1.30679
-1.31622
-1.32551
-1.33465
-1.34366
-1.35253
-1.36126
-1.36986
-1.37831
-1.38664
-1.39483
-1.40289
-1.41082
-1.41862
-1.42629
-1.43383
-1.44125
-1.44854
-1.45572
-1.46277
-1.4697
-1.47651
-1.48321
-1.4898
-1.49627
-1.50262
-1.50887
-1.51501
-1.52105
-1.52698
-1.5328
-1.53852
-1.54415
-1.54967
-1.5551
-1.56043
-1.56566
-1.57081
-1.57586
-1.58082
-1.58569
-1.59048
-1.59518
-1.5998
-1.60433
-1.60878
-1.61316
-1.61745
-1.62167
-1.62581
-1.62987
-1.63387
-0.580764
-0.581402
-0.583196
-0.585913
-0.58944
-0.593763
-0.598853
-0.60466
-0.611137
-0.618243
-0.625939
-0.634185
-0.642946
-0.652184
-0.661866
-0.671958
-0.68243
-0.693249
-0.704389
-0.71582
-0.727517
-0.739453
-0.751605
-0.76395
-0.776466
-0.789131
-0.801926
-0.814833
-0.827832
-0.840907
-0.854042
-0.867221
-0.880431
-0.893657
-0.906887
-0.920109
-0.933312
-0.946484
-0.959616
-0.972698
-0.985721
-0.998679
-1.01156
-1.02436
-1.03708
-1.0497
-1.06222
-1.07463
-1.08694
-1.09913
-1.11121
-1.12316
-1.13499
-1.14669
-1.15827
-1.16971
-1.18101
-1.19218
-1.20321
-1.2141
-1.22486
-1.23547
-1.24594
-1.25627
-1.26645
-1.2765
-1.2864
-1.29616
-1.30577
-1.31525
-1.32458
-1.33378
-1.34283
-1.35174
-1.36052
-1.36916
-1.37766
-1.38603
-1.39427
-1.40237
-1.41034
-1.41818
-1.4259
-1.43348
-1.44094
-1.44828
-1.45549
-1.46258
-1.46955
-1.47641
-1.48314
-1.48976
-1.49627
-1.50267
-1.50895
-1.51513
-1.5212
-1.52716
-1.53302
-1.53878
-1.54443
-1.54999
-1.55545
-1.56081
-1.56608
-1.57125
-1.57634
-1.58133
-1.58623
-1.59105
-1.59578
-1.60042
-1.60498
-1.60946
-1.61386
-1.61819
-1.62243
-1.6266
-1.63069
-1.6347
-0.577466
-0.578075
-0.579843
-0.582537
-0.586045
-0.59035
-0.595425
-0.60122
-0.607688
-0.614787
-0.622478
-0.630723
-0.639484
-0.648725
-0.658412
-0.668512
-0.678993
-0.689825
-0.700979
-0.712427
-0.724142
-0.736099
-0.748274
-0.760643
-0.773186
-0.785879
-0.798705
-0.811643
-0.824676
-0.837786
-0.850958
-0.864176
-0.877425
-0.890693
-0.903965
-0.917231
-0.930478
-0.943695
-0.956874
-0.970004
-0.983076
-0.996083
-1.00902
-1.02187
-1.03463
-1.04731
-1.05988
-1.07235
-1.08471
-1.09696
-1.10909
-1.12109
-1.13298
-1.14473
-1.15636
-1.16786
-1.17922
-1.19044
-1.20153
-1.21248
-1.22328
-1.23395
-1.24448
-1.25486
-1.2651
-1.2752
-1.28515
-1.29496
-1.30463
-1.31416
-1.32355
-1.33279
-1.3419
-1.35086
-1.35969
-1.36838
-1.37694
-1.38535
-1.39364
-1.40179
-1.40981
-1.4177
-1.42546
-1.43309
-1.44059
-1.44797
-1.45523
-1.46237
-1.46938
-1.47628
-1.48306
-1.48972
-1.49627
-1.50271
-1.50904
-1.51525
-1.52136
-1.52736
-1.53326
-1.53906
-1.54475
-1.55034
-1.55584
-1.56124
-1.56654
-1.57175
-1.57687
-1.58189
-1.58683
-1.59168
-1.59644
-1.60112
-1.60571
-1.61022
-1.61465
-1.619
-1.62328
-1.62747
-1.63159
-1.63564
-0.573836
-0.574413
-0.576153
-0.578823
-0.582308
-0.586594
-0.591653
-0.597434
-0.603891
-0.610982
-0.618668
-0.626911
-0.635672
-0.644916
-0.654609
-0.664717
-0.675209
-0.686054
-0.697224
-0.70869
-0.720425
-0.732405
-0.744605
-0.757001
-0.769573
-0.782298
-0.795156
-0.80813
-0.821199
-0.834348
-0.84756
-0.86082
-0.874113
-0.887426
-0.900745
-0.914058
-0.927354
-0.940622
-0.953852
-0.967034
-0.98016
-0.993221
-1.00621
-1.01912
-1.03194
-1.04467
-1.0573
-1.06983
-1.08225
-1.09455
-1.10674
-1.11881
-1.13076
-1.14257
-1.15426
-1.16582
-1.17724
-1.18852
-1.19967
-1.21068
-1.22155
-1.23227
-1.24286
-1.2533
-1.2636
-1.27376
-1.28377
-1.29364
-1.30337
-1.31296
-1.3224
-1.33171
-1.34087
-1.34989
-1.35877
-1.36752
-1.37613
-1.3846
-1.39294
-1.40114
-1.40922
-1.41716
-1.42497
-1.43265
-1.44021
-1.44764
-1.45495
-1.46213
-1.4692
-1.47614
-1.48297
-1.48968
-1.49627
-1.50276
-1.50913
-1.51539
-1.52154
-1.52759
-1.53353
-1.53936
-1.5451
-1.55073
-1.55627
-1.56171
-1.56705
-1.5723
-1.57745
-1.58252
-1.58749
-1.59237
-1.59717
-1.60188
-1.60651
-1.61106
-1.61552
-1.61991
-1.62421
-1.62844
-1.63259
-1.63667
-0.569881
-0.570423
-0.572133
-0.574775
-0.578236
-0.582501
-0.587542
-0.593309
-0.599754
-0.606836
-0.614517
-0.622757
-0.631518
-0.640765
-0.650464
-0.660581
-0.671084
-0.681944
-0.69313
-0.704615
-0.716373
-0.728377
-0.740604
-0.75303
-0.765632
-0.778391
-0.791285
-0.804297
-0.817407
-0.830597
-0.843853
-0.857159
-0.870499
-0.88386
-0.89723
-0.910595
-0.923944
-0.937267
-0.950553
-0.963792
-0.976976
-0.990096
-1.00314
-1.01611
-1.029
-1.04179
-1.05448
-1.06708
-1.07956
-1.09193
-1.10418
-1.11632
-1.12833
-1.14021
-1.15196
-1.16359
-1.17507
-1.18643
-1.19764
-1.20871
-1.21965
-1.23044
-1.24109
-1.2516
-1.26197
-1.27219
-1.28227
-1.2922
-1.30199
-1.31164
-1.32115
-1.33052
-1.33974
-1.34883
-1.35777
-1.36658
-1.37525
-1.38378
-1.39218
-1.40044
-1.40857
-1.41657
-1.42444
-1.43217
-1.43979
-1.44727
-1.45463
-1.46187
-1.46899
-1.47599
-1.48286
-1.48963
-1.49627
-1.5028
-1.50922
-1.51553
-1.52173
-1.52783
-1.53381
-1.5397
-1.54548
-1.55116
-1.55674
-1.56222
-1.5676
-1.57289
-1.57809
-1.58319
-1.58821
-1.59313
-1.59797
-1.60272
-1.60738
-1.61197
-1.61647
-1.62089
-1.62523
-1.62949
-1.63368
-1.63779
-0.565607
-0.566112
-0.567789
-0.570401
-0.573835
-0.578077
-0.583099
-0.588849
-0.595282
-0.602355
-0.610029
-0.618266
-0.627027
-0.636278
-0.645983
-0.656109
-0.666624
-0.677499
-0.688703
-0.700209
-0.71199
-0.72402
-0.736276
-0.748733
-0.76137
-0.774164
-0.787097
-0.80015
-0.813302
-0.826538
-0.839841
-0.853196
-0.866587
-0.880001
-0.893425
-0.906846
-0.920253
-0.933634
-0.94698
-0.960281
-0.973528
-0.986712
-0.999825
-1.01286
-1.02581
-1.03867
-1.05143
-1.06409
-1.07664
-1.08909
-1.10141
-1.11362
-1.1257
-1.13765
-1.14948
-1.16117
-1.17273
-1.18415
-1.19544
-1.20658
-1.21759
-1.22845
-1.23917
-1.24975
-1.26019
-1.27048
-1.28063
-1.29064
-1.3005
-1.31022
-1.31979
-1.32923
-1.33852
-1.34767
-1.35668
-1.36555
-1.37429
-1.38288
-1.39134
-1.39967
-1.40786
-1.41592
-1.42385
-1.43165
-1.43933
-1.44687
-1.45429
-1.46159
-1.46876
-1.47581
-1.48275
-1.48957
-1.49627
-1.50285
-1.50932
-1.51569
-1.52194
-1.52808
-1.53412
-1.54005
-1.54588
-1.55161
-1.55724
-1.56277
-1.5682
-1.57353
-1.57877
-1.58392
-1.58898
-1.59395
-1.59883
-1.60362
-1.60833
-1.61295
-1.61749
-1.62195
-1.62633
-1.63063
-1.63486
-1.639
-0.561021
-0.561484
-0.563126
-0.565706
-0.569112
-0.573329
-0.57833
-0.584063
-0.590481
-0.597544
-0.605211
-0.613444
-0.622206
-0.631459
-0.64117
-0.651306
-0.661834
-0.672725
-0.683948
-0.695476
-0.707282
-0.71934
-0.731626
-0.744117
-0.756789
-0.769623
-0.782597
-0.795692
-0.808891
-0.822175
-0.835529
-0.848936
-0.862381
-0.875852
-0.889333
-0.902814
-0.916283
-0.929727
-0.943138
-0.956505
-0.969818
-0.983071
-0.996253
-1.00936
-1.02238
-1.03531
-1.04815
-1.06088
-1.07351
-1.08602
-1.09842
-1.1107
-1.12286
-1.13489
-1.1468
-1.15857
-1.1702
-1.1817
-1.19306
-1.20429
-1.21537
-1.22631
-1.23711
-1.24776
-1.25828
-1.26864
-1.27887
-1.28895
-1.29888
-1.30868
-1.31832
-1.32783
-1.3372
-1.34642
-1.3555
-1.36444
-1.37325
-1.38191
-1.39044
-1.39884
-1.4071
-1.41523
-1.42322
-1.43109
-1.43882
-1.44643
-1.45392
-1.46128
-1.46851
-1.47563
-1.48262
-1.4895
-1.49626
-1.5029
-1.50943
-1.51585
-1.52216
-1.52836
-1.53445
-1.54043
-1.54632
-1.55209
-1.55777
-1.56335
-1.56883
-1.57422
-1.57951
-1.5847
-1.58981
-1.59482
-1.59975
-1.60458
-1.60934
-1.614
-1.61859
-1.62309
-1.62751
-1.63185
-1.63612
-1.6403
-0.556127
-0.556547
-0.558151
-0.560697
-0.564072
-0.568263
-0.573241
-0.578955
-0.585358
-0.59241
-0.600069
-0.608298
-0.617059
-0.626316
-0.636033
-0.646179
-0.656721
-0.667628
-0.678871
-0.690422
-0.702254
-0.714341
-0.72666
-0.739186
-0.751896
-0.764771
-0.777788
-0.79093
-0.804177
-0.817513
-0.83092
-0.844382
-0.857886
-0.871416
-0.884959
-0.898504
-0.912038
-0.925549
-0.939029
-0.952466
-0.965851
-0.979176
-0.992432
-1.00561
-1.01871
-1.03172
-1.04463
-1.05745
-1.07015
-1.08275
-1.09523
-1.10759
-1.11983
-1.13194
-1.14392
-1.15578
-1.16749
-1.17908
-1.19052
-1.20183
-1.21299
-1.22401
-1.23489
-1.24563
-1.25622
-1.26667
-1.27698
-1.28714
-1.29715
-1.30702
-1.31675
-1.32634
-1.33578
-1.34508
-1.35424
-1.36325
-1.37213
-1.38087
-1.38948
-1.39794
-1.40628
-1.41448
-1.42254
-1.43048
-1.43828
-1.44596
-1.45351
-1.46094
-1.46824
-1.47542
-1.48248
-1.48942
-1.49624
-1.50295
-1.50954
-1.51602
-1.52238
-1.52864
-1.53479
-1.54083
-1.54677
-1.55261
-1.55834
-1.56397
-1.56951
-1.57495
-1.58029
-1.58553
-1.59069
-1.59575
-1.60073
-1.60561
-1.61041
-1.61513
-1.61976
-1.6243
-1.62877
-1.63315
-1.63746
-1.64169
-0.550932
-0.551306
-0.552869
-0.555379
-0.558721
-0.562884
-0.567837
-0.573532
-0.579919
-0.586957
-0.594608
-0.602833
-0.611593
-0.620852
-0.630577
-0.640732
-0.651288
-0.662212
-0.673476
-0.685051
-0.696911
-0.709029
-0.721381
-0.733944
-0.746695
-0.759612
-0.772676
-0.785866
-0.799165
-0.812554
-0.826018
-0.839539
-0.853103
-0.866697
-0.880306
-0.893918
-0.907521
-0.921103
-0.934655
-0.948166
-0.961627
-0.97503
-0.988365
-1.00163
-1.0148
-1.02789
-1.04089
-1.05379
-1.06658
-1.07926
-1.09182
-1.10427
-1.1166
-1.12879
-1.14087
-1.1528
-1.16461
-1.17628
-1.18781
-1.1992
-1.21046
-1.22156
-1.23253
-1.24336
-1.25403
-1.26457
-1.27496
-1.2852
-1.2953
-1.30526
-1.31507
-1.32474
-1.33426
-1.34364
-1.35288
-1.36198
-1.37094
-1.37976
-1.38844
-1.39699
-1.4054
-1.41367
-1.42181
-1.42982
-1.4377
-1.44545
-1.45308
-1.46057
-1.46794
-1.47519
-1.48232
-1.48933
-1.49622
-1.50299
-1.50965
-1.51619
-1.52262
-1.52894
-1.53515
-1.54126
-1.54726
-1.55315
-1.55894
-1.56463
-1.57022
-1.57572
-1.58111
-1.58642
-1.59162
-1.59674
-1.60177
-1.6067
-1.61155
-1.61632
-1.62099
-1.62559
-1.6301
-1.63454
-1.63889
-1.64316
-0.545441
-0.545766
-0.547287
-0.549757
-0.553065
-0.557198
-0.562125
-0.567798
-0.574168
-0.581193
-0.588835
-0.597054
-0.605813
-0.615075
-0.624805
-0.634972
-0.645541
-0.656483
-0.667769
-0.679369
-0.691257
-0.703408
-0.715796
-0.728397
-0.74119
-0.754152
-0.767264
-0.780505
-0.793858
-0.807304
-0.820826
-0.834409
-0.848038
-0.861698
-0.875376
-0.889059
-0.902735
-0.916392
-0.930021
-0.94361
-0.957151
-0.970634
-0.984052
-0.997397
-1.01066
-1.02384
-1.03692
-1.0499
-1.06278
-1.07555
-1.08821
-1.10075
-1.11316
-1.12546
-1.13762
-1.14965
-1.16155
-1.17331
-1.18493
-1.19642
-1.20776
-1.21896
-1.23002
-1.24094
-1.25171
-1.26233
-1.27281
-1.28315
-1.29334
-1.30338
-1.31328
-1.32304
-1.33265
-1.34212
-1.35144
-1.36063
-1.36967
-1.37857
-1.38734
-1.39597
-1.40446
-1.41281
-1.42103
-1.42912
-1.43708
-1.44491
-1.45261
-1.46018
-1.46763
-1.47495
-1.48215
-1.48923
-1.49619
-1.50303
-1.50976
-1.51637
-1.52287
-1.52925
-1.53553
-1.5417
-1.54776
-1.55372
-1.55957
-1.56533
-1.57098
-1.57653
-1.58198
-1.58734
-1.59261
-1.59778
-1.60286
-1.60785
-1.61276
-1.61757
-1.6223
-1.62695
-1.63151
-1.636
-1.6404
-1.64472
-0.53966
-0.539934
-0.541409
-0.543838
-0.54711
-0.55121
-0.55611
-0.56176
-0.568111
-0.575122
-0.582753
-0.590967
-0.599724
-0.608988
-0.618725
-0.628902
-0.639486
-0.650446
-0.661754
-0.67338
-0.685298
-0.697482
-0.709907
-0.722548
-0.735385
-0.748394
-0.761556
-0.774851
-0.788259
-0.801765
-0.815349
-0.828997
-0.842693
-0.856423
-0.870173
-0.88393
-0.897682
-0.911418
-0.925127
-0.938799
-0.952423
-0.965992
-0.979497
-0.99293
-1.00628
-1.01955
-1.03273
-1.0458
-1.05878
-1.07164
-1.08439
-1.09702
-1.10954
-1.12192
-1.13418
-1.14631
-1.15831
-1.17017
-1.18189
-1.19347
-1.20491
-1.21621
-1.22737
-1.23838
-1.24924
-1.25997
-1.27054
-1.28097
-1.29126
-1.30139
-1.31139
-1.32124
-1.33094
-1.3405
-1.34992
-1.35919
-1.36832
-1.37731
-1.38617
-1.39488
-1.40346
-1.4119
-1.4202
-1.42838
-1.43642
-1.44433
-1.4521
-1.45976
-1.46728
-1.47468
-1.48196
-1.48912
-1.49615
-1.50307
-1.50987
-1.51655
-1.52312
-1.52958
-1.53592
-1.54216
-1.54829
-1.55431
-1.56023
-1.56605
-1.57177
-1.57738
-1.5829
-1.58832
-1.59364
-1.59888
-1.60402
-1.60907
-1.61402
-1.6189
-1.62368
-1.62838
-1.633
-1.63754
-1.64199
-1.64636
-0.533594
-0.533813
-0.535241
-0.537627
-0.54086
-0.544927
-0.549798
-0.555423
-0.561754
-0.568749
-0.57637
-0.584576
-0.593331
-0.602597
-0.612341
-0.622528
-0.633127
-0.644106
-0.655436
-0.667089
-0.679038
-0.691256
-0.703719
-0.716402
-0.729284
-0.742342
-0.755556
-0.768906
-0.782374
-0.79594
-0.80959
-0.823305
-0.837071
-0.850874
-0.864699
-0.878534
-0.892366
-0.906184
-0.919977
-0.933734
-0.947447
-0.961106
-0.974701
-0.988227
-1.00167
-1.01504
-1.02831
-1.04148
-1.05455
-1.06752
-1.08037
-1.0931
-1.10571
-1.1182
-1.13056
-1.14279
-1.15489
-1.16685
-1.17868
-1.19036
-1.2019
-1.21331
-1.22456
-1.23568
-1.24664
-1.25747
-1.26814
-1.27867
-1.28906
-1.29929
-1.30938
-1.31933
-1.32913
-1.33879
-1.3483
-1.35767
-1.36689
-1.37598
-1.38492
-1.39373
-1.4024
-1.41093
-1.41932
-1.42758
-1.43571
-1.4437
-1.45157
-1.4593
-1.46691
-1.4744
-1.48175
-1.48899
-1.4961
-1.5031
-1.50997
-1.51673
-1.52338
-1.52991
-1.53633
-1.54264
-1.54884
-1.55493
-1.56092
-1.56681
-1.57259
-1.57827
-1.58385
-1.58934
-1.59473
-1.60002
-1.60522
-1.61033
-1.61535
-1.62028
-1.62513
-1.62989
-1.63456
-1.63915
-1.64366
-1.64808
-0.527248
-0.527411
-0.528789
-0.531129
-0.534321
-0.538352
-0.543193
-0.548792
-0.555101
-0.56208
-0.569688
-0.577888
-0.586639
-0.595907
-0.605657
-0.615855
-0.626468
-0.637466
-0.64882
-0.6605
-0.67248
-0.684734
-0.697236
-0.709962
-0.722891
-0.736
-0.749268
-0.762675
-0.776204
-0.789834
-0.803551
-0.817336
-0.831175
-0.845054
-0.858957
-0.872873
-0.886788
-0.900692
-0.914572
-0.92842
-0.942224
-0.955976
-0.969666
-0.983288
-0.996834
-1.0103
-1.02367
-1.03694
-1.05012
-1.06318
-1.07614
-1.08898
-1.1017
-1.11429
-1.12676
-1.13909
-1.1513
-1.16337
-1.1753
-1.18709
-1.19874
-1.21025
-1.22161
-1.23283
-1.24391
-1.25483
-1.26562
-1.27625
-1.28674
-1.29708
-1.30727
-1.31732
-1.32723
-1.33698
-1.34659
-1.35606
-1.36539
-1.37457
-1.38361
-1.39251
-1.40128
-1.4099
-1.41839
-1.42674
-1.43496
-1.44304
-1.451
-1.45882
-1.46652
-1.47409
-1.48153
-1.48885
-1.49605
-1.50312
-1.51008
-1.51692
-1.52364
-1.53025
-1.53675
-1.54313
-1.54941
-1.55558
-1.56164
-1.5676
-1.57345
-1.5792
-1.58485
-1.5904
-1.59586
-1.60122
-1.60649
-1.61166
-1.61674
-1.62173
-1.62664
-1.63146
-1.63619
-1.64084
-1.6454
-1.64988
-0.520627
-0.520731
-0.522056
-0.52435
-0.527499
-0.531492
-0.5363
-0.541872
-0.548158
-0.555119
-0.562715
-0.570906
-0.579654
-0.588923
-0.598679
-0.608886
-0.619514
-0.630532
-0.641909
-0.653617
-0.665629
-0.677919
-0.690462
-0.703233
-0.71621
-0.729371
-0.742694
-0.756161
-0.769752
-0.783449
-0.797235
-0.811093
-0.825008
-0.838965
-0.85295
-0.866949
-0.880951
-0.894943
-0.908915
-0.922856
-0.936755
-0.950604
-0.964394
-0.978116
-0.991764
-1.00533
-1.01881
-1.03219
-1.04547
-1.05864
-1.07171
-1.08465
-1.09748
-1.11019
-1.12277
-1.13521
-1.14753
-1.15971
-1.17175
-1.18366
-1.19542
-1.20704
-1.21852
-1.22985
-1.24103
-1.25207
-1.26296
-1.27371
-1.2843
-1.29475
-1.30506
-1.31521
-1.32522
-1.33508
-1.3448
-1.35437
-1.3638
-1.37309
-1.38223
-1.39123
-1.40009
-1.40881
-1.4174
-1.42585
-1.43416
-1.44234
-1.45039
-1.45831
-1.46609
-1.47375
-1.48129
-1.48869
-1.49598
-1.50314
-1.51018
-1.51711
-1.52391
-1.5306
-1.53718
-1.54364
-1.55
-1.55624
-1.56238
-1.56841
-1.57434
-1.58016
-1.58589
-1.59151
-1.59704
-1.60246
-1.6078
-1.61304
-1.61819
-1.62324
-1.62821
-1.63309
-1.63789
-1.6426
-1.64722
-1.65176
-0.513737
-0.513779
-0.51505
-0.517293
-0.520397
-0.524351
-0.529125
-0.534668
-0.54093
-0.547872
-0.555454
-0.563636
-0.57238
-0.581649
-0.59141
-0.601628
-0.612271
-0.623307
-0.634708
-0.646445
-0.65849
-0.670817
-0.683401
-0.696217
-0.709244
-0.722458
-0.735839
-0.749367
-0.763023
-0.776788
-0.790646
-0.804579
-0.818572
-0.83261
-0.846679
-0.860766
-0.874857
-0.888941
-0.903008
-0.917045
-0.931043
-0.944993
-0.958885
-0.972712
-0.986465
-1.00014
-1.01372
-1.02721
-1.04061
-1.05389
-1.06707
-1.08013
-1.09308
-1.1059
-1.11859
-1.13116
-1.14359
-1.15588
-1.16804
-1.18006
-1.19194
-1.20368
-1.21527
-1.22672
-1.23802
-1.24917
-1.26018
-1.27104
-1.28175
-1.29231
-1.30273
-1.313
-1.32312
-1.33309
-1.34291
-1.3526
-1.36213
-1.37152
-1.38077
-1.38988
-1.39885
-1.40767
-1.41636
-1.42491
-1.43332
-1.4416
-1.44975
-1.45776
-1.46564
-1.4734
-1.48102
-1.48852
-1.4959
-1.50315
-1.51028
-1.51729
-1.52418
-1.53096
-1.53762
-1.54417
-1.5506
-1.55693
-1.56315
-1.56926
-1.57526
-1.58116
-1.58696
-1.59266
-1.59826
-1.60376
-1.60916
-1.61447
-1.61969
-1.62482
-1.62985
-1.6348
-1.63966
-1.64443
-1.64912
-1.65371
-0.506582
-0.506559
-0.507773
-0.509965
-0.513022
-0.516935
-0.521673
-0.527185
-0.533422
-0.540344
-0.54791
-0.556082
-0.564821
-0.57409
-0.583856
-0.594083
-0.604741
-0.615797
-0.627222
-0.638987
-0.651065
-0.66343
-0.676056
-0.688919
-0.701996
-0.715266
-0.728706
-0.742297
-0.756019
-0.769854
-0.783786
-0.797796
-0.81187
-0.825992
-0.840147
-0.854324
-0.868508
-0.882687
-0.896851
-0.910988
-0.925089
-0.939143
-0.953142
-0.967077
-0.98094
-0.994724
-1.00842
-1.02203
-1.03553
-1.04894
-1.06223
-1.07541
-1.08848
-1.10142
-1.11423
-1.12692
-1.13947
-1.15189
-1.16417
-1.17631
-1.18831
-1.20017
-1.21188
-1.22345
-1.23487
-1.24614
-1.25727
-1.26825
-1.27908
-1.28976
-1.30029
-1.31067
-1.32091
-1.331
-1.34094
-1.35073
-1.36038
-1.36989
-1.37924
-1.38846
-1.39754
-1.40647
-1.41526
-1.42392
-1.43243
-1.44082
-1.44906
-1.45718
-1.46516
-1.47301
-1.48073
-1.48833
-1.4958
-1.50315
-1.51037
-1.51747
-1.52446
-1.53132
-1.53807
-1.5447
-1.55123
-1.55764
-1.56394
-1.57013
-1.57621
-1.58219
-1.58807
-1.59385
-1.59952
-1.6051
-1.61058
-1.61596
-1.62125
-1.62644
-1.63155
-1.63657
-1.64149
-1.64633
-1.65109
-1.65574
-0.499167
-0.499077
-0.500232
-0.50237
-0.505378
-0.509248
-0.513948
-0.519428
-0.525638
-0.532538
-0.540088
-0.548249
-0.556982
-0.566251
-0.57602
-0.586257
-0.596929
-0.608004
-0.619453
-0.631248
-0.643359
-0.655762
-0.668431
-0.681342
-0.694471
-0.707796
-0.721296
-0.734951
-0.748742
-0.76265
-0.776657
-0.790747
-0.804903
-0.819111
-0.833357
-0.847625
-0.861904
-0.876182
-0.890447
-0.904687
-0.918893
-0.933055
-0.947164
-0.961211
-0.975188
-0.989087
-1.0029
-1.01663
-1.03025
-1.04378
-1.05719
-1.0705
-1.08368
-1.09675
-1.10968
-1.12249
-1.13517
-1.14772
-1.16012
-1.17239
-1.18452
-1.1965
-1.20834
-1.22003
-1.23158
-1.24298
-1.25423
-1.26533
-1.27628
-1.28709
-1.29774
-1.30825
-1.3186
-1.32881
-1.33887
-1.34878
-1.35855
-1.36817
-1.37764
-1.38697
-1.39616
-1.4052
-1.41411
-1.42287
-1.4315
-1.43999
-1.44834
-1.45656
-1.46465
-1.4726
-1.48042
-1.48812
-1.49569
-1.50313
-1.51045
-1.51765
-1.52473
-1.53169
-1.53853
-1.54525
-1.55186
-1.55836
-1.56475
-1.57102
-1.57719
-1.58326
-1.58922
-1.59507
-1.60083
-1.60648
-1.61204
-1.6175
-1.62286
-1.62813
-1.63331
-1.6384
-1.64339
-1.6483
-1.65312
-1.65785
-0.491497
-0.491338
-0.492431
-0.494512
-0.49747
-0.501294
-0.505956
-0.511401
-0.517583
-0.52446
-0.531993
-0.540141
-0.548867
-0.558134
-0.567908
-0.578153
-0.588839
-0.599933
-0.611407
-0.62323
-0.635376
-0.647817
-0.66053
-0.673488
-0.68667
-0.700052
-0.713614
-0.727335
-0.741195
-0.755177
-0.769262
-0.783433
-0.797675
-0.811971
-0.826308
-0.840672
-0.855049
-0.869428
-0.883796
-0.898143
-0.912458
-0.926731
-0.940953
-0.955115
-0.969209
-0.983228
-0.997163
-1.01101
-1.02476
-1.03841
-1.05195
-1.06538
-1.07869
-1.09189
-1.10495
-1.11789
-1.1307
-1.14338
-1.15591
-1.16831
-1.18057
-1.19268
-1.20465
-1.21648
-1.22815
-1.23968
-1.25106
-1.26229
-1.27337
-1.2843
-1.29508
-1.30571
-1.31619
-1.32653
-1.33671
-1.34674
-1.35663
-1.36637
-1.37596
-1.38541
-1.39472
-1.40388
-1.4129
-1.42178
-1.43051
-1.43911
-1.44758
-1.45591
-1.4641
-1.47216
-1.48009
-1.48789
-1.49556
-1.50311
-1.51053
-1.51783
-1.525
-1.53205
-1.53899
-1.54581
-1.55251
-1.5591
-1.56558
-1.57194
-1.5782
-1.58435
-1.5904
-1.59634
-1.60217
-1.60791
-1.61355
-1.61908
-1.62453
-1.62987
-1.63513
-1.64029
-1.64536
-1.65034
-1.65523
-1.66003
-0.483576
-0.483345
-0.484374
-0.486397
-0.489302
-0.49308
-0.4977
-0.50311
-0.509262
-0.516115
-0.523628
-0.531763
-0.540481
-0.549746
-0.559522
-0.569776
-0.580475
-0.591588
-0.603085
-0.614938
-0.627118
-0.639598
-0.652355
-0.665362
-0.678597
-0.692038
-0.705662
-0.71945
-0.733382
-0.747438
-0.761603
-0.775857
-0.790186
-0.804573
-0.819005
-0.833466
-0.847944
-0.862426
-0.876901
-0.891357
-0.905784
-0.920171
-0.93451
-0.948791
-0.963006
-0.977147
-0.991207
-1.00518
-1.01906
-1.03283
-1.04651
-1.06007
-1.07351
-1.08684
-1.10004
-1.11311
-1.12605
-1.13886
-1.15154
-1.16407
-1.17646
-1.18871
-1.20081
-1.21277
-1.22458
-1.23625
-1.24776
-1.25912
-1.27034
-1.2814
-1.29231
-1.30307
-1.31368
-1.32414
-1.33445
-1.34461
-1.35463
-1.36449
-1.37421
-1.38378
-1.39321
-1.40249
-1.41163
-1.42062
-1.42948
-1.4382
-1.44677
-1.45521
-1.46352
-1.47169
-1.47973
-1.48764
-1.49542
-1.50307
-1.51059
-1.51799
-1.52527
-1.53242
-1.53946
-1.54637
-1.55317
-1.55986
-1.56643
-1.57289
-1.57924
-1.58548
-1.59161
-1.59764
-1.60356
-1.60938
-1.6151
-1.62072
-1.62624
-1.63167
-1.637
-1.64224
-1.64739
-1.65245
-1.65741
-1.66228
-0.475409
-0.475104
-0.476067
-0.478029
-0.480879
-0.484608
-0.489185
-0.494558
-0.500678
-0.507505
-0.514999
-0.523119
-0.531828
-0.54109
-0.550868
-0.561129
-0.571841
-0.582973
-0.594494
-0.606375
-0.618589
-0.631109
-0.643909
-0.656966
-0.670255
-0.683755
-0.697443
-0.711299
-0.725303
-0.739436
-0.753682
-0.768021
-0.782439
-0.796919
-0.811447
-0.826008
-0.840589
-0.855178
-0.869762
-0.88433
-0.898872
-0.913377
-0.927835
-0.942238
-0.956578
-0.970845