/*--------------------------------*- C++ -*----------------------------------*\
  =========                 |
  \\      /  F ield         | OpenFOAM: The Open Source CFD Toolbox
   \\    /   O peration     | Website:  https://openfoam.org
    \\  /    A nd           | Version:  8
     \\/     M anipulation  |
\*---------------------------------------------------------------------------*/
FoamFile
{
    version     2.0;
    format      ascii;
    class       volScalarField;
    location    "0.05";
    object      p;
}
// * * * * * * * * * * * * * * * * * * * * * * * * * * * * * * * * * * * * * //

dimensions      [0 2 -2 0 0 0 0];

internalField   nonuniform List<scalar> 
108654
(
0.912376
0.904723
0.898418
0.892369
0.886473
0.880559
0.874545
0.868439
0.862247
0.855973
0.849606
0.843152
0.836618
0.830005
0.823321
0.816565
0.809737
0.802849
0.795898
0.788886
0.781816
0.774693
0.767515
0.760288
0.75301
0.745688
0.73832
0.730906
0.723454
0.715962
0.708435
0.700871
0.693271
0.685642
0.677979
0.670288
0.662568
0.65482
0.647048
0.639251
0.631432
0.623589
0.615724
0.607837
0.599932
0.592007
0.584065
0.576104
0.568125
0.56013
0.552119
0.544094
0.536052
0.527998
0.519928
0.511846
0.503749
0.495641
0.487519
0.479385
0.471241
0.463083
0.454914
0.446733
0.438542
0.43034
0.422126
0.413904
0.40567
0.397425
0.389172
0.380906
0.372631
0.364345
0.35605
0.347745
0.339427
0.331103
0.322767
0.314422
0.306065
0.297699
0.289323
0.280937
0.27254
0.26413
0.255714
0.247284
0.238845
0.230394
0.221932
0.213461
0.204977
0.196481
0.187974
0.179457
0.170927
0.162384
0.15383
0.145264
0.136684
0.128093
0.119489
0.110871
0.10224
0.0935984
0.0849408
0.0762697
0.0675851
0.0588883
0.0501748
0.0414473
0.0327058
0.0239482
0.0151796
0.00639098
-0.00241159
-0.0112272
-0.0200599
-0.0289085
-0.0377746
-0.0466547
-0.0555519
-0.0644639
-0.0733957
-0.082342
-0.0913056
-0.100287
-0.109284
-0.118299
-0.12733
-0.136379
-0.145445
-0.154528
-0.16363
-0.172749
-0.181885
-0.191038
-0.20021
-0.209399
-0.218603
-0.227827
-0.237068
-0.246325
-0.2556
-0.264892
-0.2742
-0.283524
-0.292866
-0.302223
-0.311597
-0.320986
-0.330391
-0.339809
-0.349241
-0.358689
-0.368151
-0.377626
-0.387114
-0.396613
-0.406122
-0.415643
-0.425175
-0.434718
-0.444267
-0.453824
-0.463389
-0.472956
-0.482531
-0.492107
-0.501684
-0.511264
-0.520843
-0.530423
-0.539997
-0.549563
-0.559128
-0.568681
-0.578226
-0.587757
-0.597278
-0.606781
-0.616266
-0.625728
-0.635173
-0.644589
-0.653974
-0.663333
-0.672657
-0.681949
-0.691202
-0.700411
-0.709597
-0.718758
-0.727889
-0.736982
-0.74617
-0.755726
-0.765862
-0.778172
0.916397
0.908971
0.902393
0.896035
0.890011
0.884109
0.878162
0.872126
0.865993
0.859774
0.853463
0.847066
0.840584
0.834017
0.827376
0.820662
0.813874
0.807019
0.800099
0.793114
0.786072
0.778968
0.771811
0.7646
0.757336
0.750024
0.742664
0.735255
0.727805
0.720315
0.712782
0.705212
0.697605
0.689965
0.682289
0.674581
0.666843
0.659076
0.65128
0.643458
0.63561
0.627739
0.619843
0.611922
0.60398
0.596018
0.588036
0.580034
0.572013
0.563973
0.555915
0.547841
0.53975
0.531643
0.52352
0.515382
0.50723
0.499063
0.490882
0.482688
0.474479
0.466259
0.458025
0.449778
0.44152
0.433248
0.424966
0.416672
0.408366
0.400047
0.391719
0.383379
0.375027
0.366664
0.358291
0.349906
0.34151
0.333104
0.324687
0.316258
0.307818
0.299368
0.290907
0.282435
0.273951
0.265455
0.256951
0.248433
0.239905
0.231365
0.222814
0.214251
0.205676
0.197089
0.188491
0.179881
0.171258
0.162624
0.153975
0.145316
0.136641
0.127957
0.119257
0.110546
0.101821
0.093083
0.0843311
0.0755645
0.0667851
0.0579915
0.0491835
0.0403609
0.0315237
0.0226714
0.013806
0.0049233
-0.00397364
-0.0128856
-0.0218127
-0.0307562
-0.0397153
-0.0486906
-0.0576809
-0.0666873
-0.0757107
-0.0847508
-0.0938062
-0.102879
-0.111967
-0.121073
-0.130194
-0.139334
-0.148489
-0.157661
-0.166849
-0.176056
-0.185278
-0.194517
-0.203773
-0.213045
-0.222334
-0.231639
-0.240961
-0.250298
-0.259651
-0.26902
-0.278406
-0.287806
-0.297221
-0.306651
-0.316096
-0.325555
-0.335028
-0.344514
-0.354012
-0.363522
-0.373047
-0.382583
-0.392129
-0.401683
-0.411249
-0.420824
-0.430407
-0.439997
-0.449593
-0.459195
-0.468801
-0.478408
-0.488019
-0.49763
-0.507242
-0.51685
-0.526455
-0.53606
-0.545654
-0.555241
-0.56482
-0.574386
-0.583938
-0.59348
-0.603
-0.612504
-0.621986
-0.631443
-0.640876
-0.650275
-0.659645
-0.668986
-0.678286
-0.687549
-0.696775
-0.705963
-0.715123
-0.724243
-0.733339
-0.742485
-0.751951
-0.762079
-0.772722
-0.784827
0.918619
0.912816
0.906369
0.899826
0.893602
0.887642
0.881745
0.875776
0.869707
0.863548
0.857295
0.850955
0.844525
0.838011
0.831416
0.824745
0.817997
0.81118
0.804292
0.797341
0.790323
0.783247
0.776109
0.768917
0.761669
0.754371
0.747021
0.73962
0.732175
0.724685
0.717152
0.709579
0.701967
0.694317
0.68663
0.678909
0.671155
0.663369
0.655552
0.647706
0.639833
0.631933
0.624008
0.616055
0.60808
0.60008
0.59206
0.584017
0.575955
0.56787
0.559767
0.551644
0.543504
0.535346
0.52717
0.518979
0.51077
0.502545
0.494305
0.486049
0.47778
0.469495
0.461196
0.452883
0.444556
0.436217
0.427863
0.419497
0.411119
0.402727
0.394322
0.385907
0.377478
0.369036
0.360583
0.352119
0.343641
0.335153
0.326653
0.31814
0.309616
0.301078
0.292532
0.283972
0.275401
0.266816
0.258222
0.249616
0.240996
0.232366
0.223721
0.215067
0.206399
0.197719
0.189027
0.180323
0.171605
0.162876
0.154132
0.145377
0.136607
0.127826
0.11903
0.110222
0.1014
0.0925645
0.0837153
0.0748524
0.0659744
0.0570844
0.0481772
0.0392585
0.0303229
0.0213739
0.0124113
0.00343051
-0.00556274
-0.0145723
-0.023595
-0.0326358
-0.0416912
-0.050762
-0.059848
-0.0689499
-0.0780683
-0.0872013
-0.0963512
-0.105518
-0.1147
-0.123896
-0.13311
-0.14234
-0.151585
-0.160847
-0.170125
-0.179419
-0.188729
-0.198055
-0.207396
-0.216753
-0.226125
-0.235513
-0.244915
-0.254333
-0.263766
-0.273213
-0.282674
-0.29215
-0.301638
-0.311143
-0.320658
-0.330187
-0.339727
-0.349279
-0.358842
-0.368418
-0.378003
-0.387599
-0.397201
-0.406811
-0.41643
-0.426058
-0.43569
-0.445327
-0.454968
-0.464612
-0.474259
-0.483904
-0.49355
-0.503193
-0.512835
-0.522471
-0.532102
-0.541727
-0.551342
-0.560942
-0.570535
-0.58011
-0.589674
-0.599215
-0.60874
-0.618238
-0.627714
-0.63716
-0.64658
-0.655964
-0.665315
-0.674629
-0.683906
-0.69314
-0.702339
-0.711497
-0.720624
-0.72971
-0.738799
-0.748112
-0.757971
-0.768478
-0.779012
-0.788678
0.920095
0.915982
0.910206
0.903723
0.89732
0.891233
0.885318
0.879402
0.873401
0.867304
0.861114
0.85483
0.848456
0.841996
0.835449
0.828823
0.82212
0.81534
0.808489
0.80157
0.794585
0.787533
0.780421
0.77325
0.766022
0.758738
0.751401
0.74401
0.736572
0.729086
0.721554
0.713981
0.706365
0.698706
0.691011
0.68328
0.67551
0.667708
0.659873
0.652005
0.644107
0.636181
0.628226
0.620245
0.612235
0.604201
0.596142
0.588062
0.579957
0.57183
0.563681
0.555512
0.547321
0.539113
0.530887
0.52264
0.514374
0.506093
0.497793
0.489477
0.481145
0.472796
0.464432
0.456053
0.447657
0.439248
0.430823
0.422386
0.413933
0.405467
0.396987
0.388493
0.379987
0.371466
0.362931
0.354386
0.345826
0.337253
0.328669
0.32007
0.31146
0.302836
0.294201
0.285552
0.276891
0.268217
0.259531
0.250832
0.242121
0.233396
0.224658
0.21591
0.207147
0.198372
0.189584
0.180783
0.171968
0.163141
0.154301
0.145447
0.136579
0.127699
0.118805
0.109898
0.100976
0.0920416
0.0830924
0.0741297
0.0651524
0.0561623
0.0471563
0.0381361
0.0291021
0.0200529
0.0109901
0.00191117
-0.00718151
-0.0162909
-0.0254127
-0.0345518
-0.0437043
-0.0528744
-0.062057
-0.0712567
-0.0804722
-0.0897006
-0.0989467
-0.108209
-0.117484
-0.126775
-0.136083
-0.145404
-0.154742
-0.164094
-0.173464
-0.182846
-0.192245
-0.201658
-0.211086
-0.220528
-0.229985
-0.239455
-0.248941
-0.258438
-0.267952
-0.277478
-0.287014
-0.296565
-0.30613
-0.315705
-0.325292
-0.334891
-0.3445
-0.354116
-0.363744
-0.373382
-0.383029
-0.392681
-0.402341
-0.412007
-0.421679
-0.431357
-0.441037
-0.450719
-0.460405
-0.470088
-0.479772
-0.489456
-0.499135
-0.508809
-0.518479
-0.528142
-0.537795
-0.54744
-0.557071
-0.566688
-0.576289
-0.585873
-0.595439
-0.604986
-0.614505
-0.623999
-0.633466
-0.642903
-0.652304
-0.66167
-0.671001
-0.680288
-0.689537
-0.698745
-0.707911
-0.71704
-0.72613
-0.735204
-0.744395
-0.753986
-0.764211
-0.774716
-0.78429
-0.791393
0.922214
0.918667
0.913684
0.907576
0.90115
0.894906
0.888915
0.883016
0.877073
0.871041
0.864913
0.85869
0.852375
0.845969
0.839476
0.832899
0.826241
0.819504
0.812693
0.805808
0.798856
0.791836
0.784751
0.777605
0.770398
0.76313
0.755808
0.748431
0.741003
0.733524
0.725996
0.718424
0.710804
0.703143
0.695441
0.687699
0.679918
0.6721
0.664247
0.656359
0.64844
0.640488
0.632505
0.624495
0.616454
0.608385
0.600291
0.592171
0.584025
0.575857
0.567663
0.559448
0.55121
0.54295
0.53467
0.52637
0.518049
0.509709
0.50135
0.492973
0.484579
0.476167
0.467736
0.459289
0.450825
0.442346
0.43385
0.425338
0.416812
0.40827
0.399713
0.39114
0.382555
0.373953
0.365338
0.356708
0.348065
0.339407
0.330735
0.322051
0.313353
0.304639
0.295914
0.287175
0.278423
0.269655
0.260877
0.252083
0.243278
0.234458
0.225625
0.216779
0.20792
0.199046
0.190161
0.181261
0.172348
0.16342
0.15448
0.145526
0.136558
0.127577
0.118582
0.109572
0.10055
0.0915127
0.0824624
0.0733968
0.0643179
0.0552249
0.0461171
0.0369947
0.0278589
0.0187075
0.0095428
0.000361604
-0.00883234
-0.0180418
-0.0272655
-0.036506
-0.0457591
-0.0550272
-0.064311
-0.0736101
-0.0829227
-0.0922512
-0.101594
-0.110953
-0.120324
-0.129712
-0.139115
-0.14853
-0.157961
-0.167407
-0.176867
-0.186341
-0.195828
-0.205331
-0.214847
-0.224375
-0.233916
-0.243472
-0.25304
-0.26262
-0.272213
-0.281818
-0.291433
-0.301061
-0.310699
-0.320346
-0.330006
-0.339672
-0.349348
-0.359033
-0.368725
-0.378425
-0.388131
-0.39784
-0.407557
-0.417279
-0.427001
-0.436727
-0.446454
-0.456183
-0.46591
-0.475633
-0.485354
-0.495071
-0.504784
-0.514487
-0.524183
-0.533869
-0.543542
-0.553204
-0.56285
-0.572481
-0.58209
-0.591679
-0.601246
-0.610789
-0.620304
-0.629792
-0.639246
-0.648668
-0.65805
-0.667396
-0.6767
-0.685962
-0.69518
-0.704358
-0.713492
-0.722588
-0.731657
-0.740778
-0.750166
-0.760086
-0.770436
-0.780446
-0.788868
-0.79517
0.924824
0.921165
0.916748
0.911217
0.90499
0.898672
0.892567
0.886634
0.880726
0.874757
0.868693
0.862532
0.856277
0.849931
0.843492
0.836967
0.830358
0.823666
0.816898
0.810056
0.803138
0.796149
0.789095
0.781976
0.774792
0.767546
0.760242
0.752881
0.745465
0.737997
0.730475
0.722904
0.715287
0.707623
0.699916
0.692166
0.684375
0.676543
0.668674
0.660769
0.652829
0.644854
0.636844
0.628805
0.620734
0.612632
0.604503
0.596345
0.58816
0.57995
0.571714
0.563452
0.555165
0.546855
0.538523
0.530169
0.521793
0.513395
0.504978
0.496539
0.488082
0.479604
0.471108
0.462594
0.454061
0.44551
0.436942
0.428357
0.419755
0.411137
0.402501
0.393849
0.385182
0.376501
0.3678
0.359088
0.350358
0.341615
0.332855
0.324082
0.315293
0.30649
0.297673
0.288842
0.279995
0.271134
0.262261
0.253371
0.244469
0.235552
0.226621
0.217676
0.208718
0.199744
0.190758
0.181757
0.172742
0.163714
0.154671
0.145615
0.136543
0.127459
0.118359
0.109247
0.10012
0.0909789
0.0818245
0.072654
0.0634712
0.0542725
0.0450608
0.0358336
0.0265934
0.017337
0.0080689
-0.00121645
-0.0105151
-0.0198277
-0.0291551
-0.038497
-0.0478537
-0.0572241
-0.0666102
-0.0760087
-0.085424
-0.0948508
-0.104295
-0.11375
-0.123221
-0.132707
-0.142206
-0.151717
-0.161243
-0.170783
-0.180336
-0.189902
-0.199481
-0.209072
-0.218677
-0.228294
-0.237922
-0.247563
-0.257213
-0.266877
-0.276551
-0.286234
-0.295928
-0.305632
-0.315346
-0.325067
-0.334796
-0.344531
-0.354275
-0.364026
-0.373781
-0.383544
-0.393309
-0.403076
-0.412849
-0.422623
-0.432396
-0.44217
-0.451943
-0.461715
-0.471483
-0.481245
-0.491001
-0.500751
-0.510492
-0.520224
-0.529945
-0.539651
-0.549341
-0.559018
-0.568675
-0.578315
-0.587931
-0.597522
-0.607088
-0.616628
-0.626137
-0.635609
-0.645048
-0.654452
-0.663814
-0.673133
-0.682412
-0.691642
-0.700831
-0.709977
-0.719081
-0.728148
-0.737235
-0.746485
-0.756133
-0.766254
-0.776385
-0.785581
-0.793207
-0.799777
0.927594
0.923641
0.919523
0.914561
0.90872
0.902477
0.896286
0.890282
0.884376
0.878452
0.872451
0.866355
0.860163
0.853876
0.847497
0.841027
0.83447
0.827829
0.821105
0.814304
0.807426
0.800474
0.793452
0.786363
0.779206
0.771984
0.764701
0.757358
0.749957
0.742499
0.734986
0.727423
0.719808
0.712144
0.704434
0.696679
0.688879
0.681036
0.673154
0.665233
0.657271
0.649275
0.641242
0.633176
0.625076
0.616943
0.608778
0.600585
0.592362
0.58411
0.575829
0.567522
0.55919
0.55083
0.542446
0.534039
0.525606
0.517153
0.508675
0.500176
0.491654
0.483113
0.47455
0.465968
0.457364
0.448743
0.440102
0.431442
0.422764
0.414068
0.405353
0.396622
0.387873
0.379108
0.370324
0.361525
0.352708
0.343877
0.335029
0.326164
0.317285
0.30839
0.299478
0.290552
0.281611
0.272654
0.263683
0.254696
0.245695
0.236678
0.227647
0.218601
0.209541
0.200467
0.191376
0.182274
0.173154
0.164022
0.154873
0.145712
0.136536
0.127346
0.11814
0.108922
0.0996868
0.0904411
0.0811773
0.0719018
0.0626111
0.0533054
0.0439867
0.0346526
0.0253055
0.0159425
0.00656668
-0.00282422
-0.0122288
-0.0216476
-0.0310816
-0.0405288
-0.0499891
-0.0594647
-0.0689542
-0.0784562
-0.087974
-0.0975041
-0.107048
-0.116605
-0.126177
-0.13576
-0.145357
-0.154967
-0.16459
-0.174225
-0.183872
-0.193531
-0.203204
-0.212885
-0.22258
-0.232284
-0.242002
-0.251728
-0.261465
-0.271209
-0.280966
-0.290728
-0.300501
-0.310282
-0.320069
-0.329863
-0.339665
-0.349471
-0.359282
-0.369097
-0.378917
-0.388739
-0.398564
-0.408388
-0.418215
-0.428039
-0.437865
-0.447685
-0.457502
-0.467316
-0.477123
-0.486921
-0.496711
-0.506492
-0.516262
-0.526016
-0.535759
-0.545485
-0.555192
-0.56488
-0.574547
-0.584192
-0.593812
-0.603401
-0.612965
-0.622496
-0.631994
-0.641453
-0.650876
-0.660255
-0.669593
-0.678886
-0.688132
-0.697334
-0.706489
-0.715602
-0.724677
-0.733746
-0.742906
-0.752345
-0.76221
-0.772304
-0.781923
-0.79032
-0.797567
-0.804695
0.930338
0.926176
0.922132
0.917614
0.912251
0.906241
0.900051
0.893977
0.888039
0.882137
0.87619
0.870159
0.864032
0.857808
0.851489
0.845077
0.838576
0.831985
0.825311
0.818554
0.811719
0.804805
0.797821
0.790763
0.783637
0.77644
0.769182
0.761858
0.754475
0.747032
0.739531
0.731976
0.724367
0.716706
0.708995
0.701236
0.693431
0.68558
0.677685
0.669748
0.661771
0.653754
0.645699
0.637606
0.629479
0.621316
0.613119
0.60489
0.59663
0.588337
0.580014
0.571662
0.563283
0.554876
0.54644
0.537981
0.529493
0.520981
0.512443
0.503884
0.4953
0.486693
0.478064
0.469413
0.46074
0.452046
0.443331
0.434596
0.425841
0.417067
0.408273
0.399459
0.390628
0.381777
0.372909
0.364022
0.355118
0.346197
0.337258
0.328302
0.319328
0.310339
0.301332
0.29231
0.283272
0.274216
0.265146
0.256059
0.246958
0.237838
0.228706
0.219556
0.210392
0.201213
0.192018
0.182808
0.173584
0.164344
0.155089
0.14582
0.136535
0.127237
0.117923
0.108595
0.0992521
0.0898956
0.0805236
0.0711376
0.0617375
0.0523221
0.0428945
0.0334496
0.0239938
0.0145217
0.00503652
-0.00446395
-0.0139766
-0.0235033
-0.0330456
-0.0425994
-0.0521684
-0.0617505
-0.0713458
-0.0809542
-0.0905755
-0.10021
-0.109858
-0.119518
-0.12919
-0.138875
-0.148573
-0.158281
-0.168002
-0.177734
-0.187478
-0.197233
-0.206997
-0.216773
-0.226558
-0.236353
-0.246158
-0.255969
-0.265793
-0.275622
-0.28546
-0.295303
-0.305154
-0.315012
-0.324873
-0.334741
-0.344614
-0.35449
-0.364368
-0.374248
-0.384131
-0.394014
-0.403895
-0.413777
-0.423656
-0.433532
-0.443404
-0.453271
-0.463133
-0.472985
-0.482829
-0.492662
-0.502484
-0.512294
-0.522088
-0.531868
-0.541629
-0.551371
-0.561091
-0.57079
-0.580463
-0.590113
-0.599731
-0.60932
-0.618873
-0.628396
-0.637877
-0.647321
-0.65672
-0.666079
-0.675388
-0.684651
-0.693867
-0.703035
-0.712157
-0.721238
-0.7303
-0.739409
-0.748697
-0.758328
-0.76828
-0.778099
-0.78706
-0.794855
-0.802079
-0.809632
0.932959
0.928718
0.924649
0.920419
0.915525
0.909878
0.903815
0.897713
0.891729
0.885824
0.879915
0.873943
0.867879
0.861721
0.855467
0.849115
0.842671
0.836136
0.829511
0.822805
0.816013
0.809146
0.802197
0.795176
0.788082
0.780915
0.773683
0.766383
0.759021
0.751594
0.744108
0.736564
0.728963
0.721307
0.713599
0.705837
0.698029
0.690172
0.682267
0.674319
0.666324
0.658291
0.650214
0.642099
0.633945
0.625754
0.617525
0.609263
0.600965
0.592634
0.58427
0.575876
0.567449
0.558995
0.550507
0.541994
0.533453
0.524884
0.516288
0.507668
0.49902
0.490348
0.481652
0.472932
0.464188
0.455422
0.446633
0.437822
0.428989
0.420135
0.41126
0.402364
0.393449
0.384512
0.375557
0.366582
0.357589
0.348576
0.339543
0.330495
0.321425
0.312341
0.303238
0.294116
0.284979
0.275823
0.266651
0.257462
0.248257
0.239035
0.229797
0.220541
0.211272
0.201984
0.192683
0.183364
0.174031
0.164682
0.155317
0.145938
0.136543
0.127133
0.117708
0.108269
0.0988141
0.0893445
0.0798616
0.0703624
0.0608506
0.0513225
0.0417815
0.0322264
0.0226568
0.0130736
0.00347673
-0.00613553
-0.015759
-0.0253976
-0.0350496
-0.0447126
-0.0543923
-0.0640817
-0.0737867
-0.083503
-0.0932311
-0.102972
-0.112725
-0.12249
-0.132266
-0.142055
-0.151854
-0.161663
-0.171485
-0.181315
-0.191156
-0.201007
-0.210867
-0.220735
-0.230613
-0.240499
-0.250393
-0.260292
-0.2702
-0.280115
-0.290035
-0.299959
-0.309892
-0.319824
-0.329763
-0.339702
-0.349646
-0.35959
-0.369536
-0.37948
-0.389425
-0.399367
-0.409307
-0.419243
-0.429175
-0.439098
-0.44902
-0.45893
-0.468833
-0.478724
-0.488602
-0.49847
-0.508322
-0.518157
-0.527976
-0.537775
-0.547553
-0.55731
-0.56704
-0.576746
-0.586423
-0.596074
-0.605689
-0.615269
-0.624817
-0.63432
-0.643788
-0.653208
-0.662587
-0.671916
-0.681196
-0.690429
-0.699608
-0.708742
-0.717835
-0.726895
-0.735971
-0.745162
-0.754602
-0.764361
-0.774202
-0.783547
-0.791867
-0.799302
-0.806662
-0.814438
0.935444
0.931253
0.927154
0.92306
0.918553
0.913319
0.907507
0.901462
0.895449
0.889525
0.883636
0.877709
0.871708
0.865617
0.859426
0.853137
0.846756
0.840277
0.83371
0.827053
0.820311
0.813488
0.806582
0.799599
0.79254
0.785408
0.778204
0.770931
0.763591
0.756187
0.748716
0.741186
0.733595
0.725947
0.718245
0.710484
0.702674
0.694813
0.6869
0.678941
0.670934
0.662885
0.654789
0.646652
0.638475
0.630255
0.621998
0.613701
0.60537
0.597
0.588597
0.58016
0.571689
0.563186
0.554649
0.546083
0.537487
0.528863
0.520208
0.511526
0.502816
0.494079
0.485316
0.476525
0.467712
0.458872
0.450008
0.441121
0.432209
0.423274
0.414318
0.405339
0.396337
0.387315
0.378271
0.369207
0.360121
0.351015
0.34189
0.332744
0.32358
0.314396
0.305194
0.295972
0.286734
0.277476
0.2682
0.258906
0.249595
0.240267
0.230922
0.221559
0.212179
0.202784
0.193371
0.183942
0.174498
0.165035
0.155559
0.146066
0.136558
0.127034
0.117496
0.107941
0.0983726
0.0887884
0.0791892
0.0695765
0.0599485
0.0503058
0.0406497
0.0309796
0.0212954
0.0115971
0.00188541
-0.00783997
-0.0175775
-0.02733
-0.0370939
-0.0468716
-0.0566608
-0.0664634
-0.0762771
-0.0861044
-0.0959429
-0.105791
-0.115652
-0.125523
-0.135406
-0.145299
-0.155201
-0.165115
-0.175037
-0.184968
-0.194907
-0.204856
-0.214811
-0.224776
-0.234746
-0.244725
-0.254708
-0.264697
-0.274692
-0.28469
-0.294693
-0.304699
-0.31471
-0.324722
-0.334734
-0.344748
-0.35476
-0.364775
-0.374785
-0.384796
-0.3948
-0.404803
-0.414797
-0.424787
-0.43477
-0.444743
-0.454708
-0.464662
-0.474604
-0.484532
-0.494444
-0.504344
-0.514222
-0.524082
-0.533922
-0.543739
-0.553534
-0.563299
-0.573039
-0.582749
-0.592428
-0.602073
-0.611683
-0.621255
-0.630787
-0.640276
-0.64972
-0.65912
-0.668469
-0.677771
-0.687016
-0.696215
-0.705362
-0.714461
-0.723526
-0.732589
-0.74171
-0.75101
-0.760577
-0.770335
-0.779876
-0.788666
-0.796472
-0.80379
-0.811295
-0.819097
0.937803
0.933743
0.929655
0.925608
0.92136
0.916541
0.911062
0.905176
0.899186
0.893245
0.887357
0.881468
0.875522
0.869492
0.863368
0.857145
0.850825
0.84441
0.8379
0.831297
0.824608
0.817832
0.810973
0.804032
0.797013
0.789915
0.782745
0.775501
0.768187
0.760805
0.753355
0.745842
0.738264
0.730627
0.722932
0.715176
0.707365
0.699501
0.691585
0.683618
0.675603
0.667536
0.659424
0.651268
0.643067
0.634822
0.626536
0.61821
0.609844
0.601438
0.592996
0.584516
0.576001
0.567452
0.558869
0.550249
0.5416
0.532919
0.524206
0.515462
0.50669
0.497887
0.489057
0.480199
0.471312
0.462398
0.45346
0.444494
0.435504
0.426488
0.417447
0.408384
0.399296
0.390186
0.381053
0.371896
0.362718
0.353519
0.344297
0.335055
0.325792
0.316508
0.307204
0.297881
0.288538
0.279175
0.269795
0.260393
0.250975
0.241537
0.232082
0.222609
0.213118
0.203609
0.194085
0.184542
0.174982
0.165407
0.155815
0.146206
0.136582
0.126941
0.117285
0.107614
0.0979269
0.088225
0.0785092
0.0687772
0.0590318
0.0492716
0.0394972
0.0297082
0.0199079
0.0100908
0.000262785
-0.00957959
-0.0194348
-0.0293015
-0.0391821
-0.0490745
-0.0589789
-0.0688948
-0.0788224
-0.0887607
-0.0987104
-0.108671
-0.118641
-0.128621
-0.138612
-0.14861
-0.158619
-0.168637
-0.178662
-0.188695
-0.198735
-0.208782
-0.218837
-0.228896
-0.238961
-0.249033
-0.259106
-0.269185
-0.279267
-0.289351
-0.299437
-0.309527
-0.319615
-0.329703
-0.339791
-0.349878
-0.359962
-0.370044
-0.38012
-0.390192
-0.400258
-0.410319
-0.42037
-0.430411
-0.440443
-0.450466
-0.460472
-0.470467
-0.480446
-0.490409
-0.500355
-0.510283
-0.520186
-0.530068
-0.539927
-0.549759
-0.559564
-0.56934
-0.579084
-0.588796
-0.598472
-0.608113
-0.617712
-0.627272
-0.636787
-0.646256
-0.655676
-0.665049
-0.674369
-0.683636
-0.69285
-0.702012
-0.711124
-0.720197
-0.729249
-0.738328
-0.747527
-0.756934
-0.766552
-0.776152
-0.785263
-0.793496
-0.800991
-0.808333
-0.815919
-0.823619
0.940061
0.936189
0.932154
0.928112
0.92402
0.919538
0.914435
0.908798
0.902907
0.896977
0.89109
0.885222
0.87932
0.87335
0.867291
0.861137
0.854882
0.84853
0.84208
0.835538
0.828902
0.822179
0.815367
0.808471
0.801494
0.794437
0.787301
0.78009
0.772806
0.76545
0.758023
0.750529
0.742969
0.735345
0.727658
0.71991
0.712103
0.704241
0.696322
0.68835
0.680324
0.672247
0.66412
0.655946
0.647724
0.639455
0.631142
0.622787
0.614388
0.605949
0.597469
0.588949
0.58039
0.571795
0.563163
0.554494
0.545791
0.537053
0.528283
0.519479
0.510642
0.501776
0.492878
0.48395
0.474991
0.466004
0.456988
0.447946
0.438875
0.429777
0.420654
0.411504
0.402329
0.393129
0.383904
0.374656
0.365383
0.356087
0.346768
0.337427
0.328064
0.318677
0.309271
0.299842
0.290394
0.280924
0.271435
0.261925
0.252395
0.242847
0.23328
0.223693
0.214089
0.204464
0.194825
0.185165
0.175489
0.165795
0.156084
0.146357
0.136613
0.126853
0.117077
0.107285
0.0974786
0.087655
0.0778191
0.0679655
0.0580996
0.0482179
0.0383229
0.0284142
0.0184911
0.00855533
-0.001393
-0.0113559
-0.0213291
-0.0313162
-0.0413136
-0.0513249
-0.0613464
-0.0713785
-0.0814217
-0.091475
-0.101539
-0.111611
-0.121695
-0.131786
-0.141885
-0.151994
-0.162109
-0.172233
-0.182363
-0.192499
-0.202642
-0.212789
-0.222943
-0.233099
-0.243261
-0.253423
-0.263591
-0.273759
-0.283928
-0.294099
-0.304269
-0.31444
-0.324608
-0.334773
-0.344938
-0.355096
-0.36525
-0.375399
-0.385541
-0.395674
-0.4058
-0.415918
-0.426024
-0.436117
-0.446197
-0.456263
-0.466315
-0.476348
-0.486362
-0.496357
-0.506332
-0.516285
-0.526213
-0.536115
-0.54599
-0.555834
-0.565649
-0.57543
-0.585175
-0.594886
-0.604558
-0.614188
-0.623775
-0.633318
-0.642815
-0.652259
-0.661654
-0.670995
-0.680283
-0.689515
-0.698694
-0.707818
-0.7169
-0.725951
-0.73501
-0.744135
-0.753411
-0.762886
-0.77244
-0.781739
-0.790356
-0.798154
-0.805501
-0.812935
-0.820539
-0.828047
0.942218
0.938544
0.934615
0.930594
0.926582
0.922346
0.917604
0.912281
0.906568
0.900701
0.894827
0.888973
0.883109
0.877193
0.871199
0.86511
0.858922
0.852635
0.846251
0.839769
0.833193
0.826524
0.819764
0.812918
0.805986
0.79897
0.791875
0.784699
0.777447
0.77012
0.762719
0.755249
0.747708
0.740099
0.732425
0.724688
0.716889
0.709029
0.70111
0.693134
0.685102
0.677016
0.668877
0.660687
0.652445
0.644155
0.635818
0.627434
0.619006
0.610531
0.602016
0.593456
0.584857
0.576216
0.567537
0.558818
0.550062
0.541269
0.532442
0.523577
0.514678
0.505746
0.49678
0.487781
0.478752
0.469691
0.460599
0.451476
0.442326
0.433146
0.423937
0.4147
0.405436
0.396146
0.386828
0.377485
0.368116
0.358724
0.349305
0.339862
0.330397
0.320907
0.311395
0.301859
0.292303
0.282724
0.273123
0.263502
0.253861
0.244197
0.234516
0.224811
0.215091
0.205349
0.19559
0.185811
0.176016
0.1662
0.156369
0.14652
0.136654
0.126771
0.116872
0.106956
0.0970264
0.0870793
0.0771183
0.067141
0.0571517
0.0471442
0.0371269
0.0270929
0.0170469
0.0069883
-0.00308425
-0.0131684
-0.0232642
-0.0333737
-0.0434921
-0.0536234
-0.0637639
-0.0739158
-0.0840776
-0.0942476
-0.104428
-0.114617
-0.124814
-0.135018
-0.14523
-0.155449
-0.165675
-0.175905
-0.186141
-0.196383
-0.20663
-0.216879
-0.227131
-0.237386
-0.247644
-0.257902
-0.268161
-0.278422
-0.288679
-0.298935
-0.309191
-0.319443
-0.32969
-0.339935
-0.350171
-0.360404
-0.370626
-0.380843
-0.391048
-0.401245
-0.411429
-0.421601
-0.431761
-0.441904
-0.45203
-0.462141
-0.472231
-0.482302
-0.492352
-0.502377
-0.512378
-0.522354
-0.532303
-0.542223
-0.55211
-0.561964
-0.571785
-0.581569
-0.591314
-0.60102
-0.610682
-0.620301
-0.629872
-0.639394
-0.648867
-0.658286
-0.66765
-0.676959
-0.68621
-0.695407
-0.704549
-0.713642
-0.722694
-0.731737
-0.740813
-0.749996
-0.759335
-0.7688
-0.778164
-0.787065
-0.795211
-0.80272
-0.810039
-0.817541
-0.825082
-0.832385
0.944269
0.940796
0.937029
0.933069
0.929094
0.925018
0.920574
0.91559
0.910127
0.904385
0.898557
0.892727
0.886892
0.881024
0.875087
0.869065
0.862946
0.856728
0.850409
0.843992
0.837477
0.830867
0.824164
0.817368
0.810485
0.803515
0.796462
0.789325
0.782109
0.774816
0.767445
0.759997
0.752481
0.74489
0.737233
0.729508
0.721719
0.713866
0.705948
0.697972
0.689936
0.681843
0.673695
0.66549
0.657233
0.648922
0.640563
0.632153
0.623696
0.615189
0.606638
0.598041
0.589401
0.580716
0.57199
0.563223
0.554416
0.545569
0.536683
0.527758
0.518798
0.5098
0.500766
0.491699
0.482597
0.473461
0.464292
0.45509
0.445858
0.436594
0.427299
0.417974
0.40862
0.399237
0.389826
0.380387
0.370921
0.361429
0.351908
0.342365
0.332794
0.323198
0.313579
0.303934
0.294267
0.284576
0.274862
0.265128
0.255369
0.24559
0.23579
0.225968
0.216126
0.206265
0.196383
0.186483
0.176563
0.166625
0.156669
0.146694
0.136704
0.126694
0.116669
0.106627
0.0965695
0.0864965
0.0764074
0.0663037
0.0561858
0.0460525
0.035906
0.0257471
0.0155727
0.00538842
-0.00481028
-0.0150206
-0.0252413
-0.0354751
-0.0457175
-0.0559727
-0.0662363
-0.076508
-0.0867916
-0.0970816
-0.10738
-0.117687
-0.128
-0.138321
-0.148647
-0.158979
-0.169315
-0.179657
-0.190001
-0.20035
-0.2107
-0.221053
-0.231407
-0.241761
-0.252116
-0.262471
-0.272823
-0.283174
-0.293522
-0.303865
-0.314204
-0.324538
-0.334865
-0.345186
-0.355497
-0.365801
-0.376093
-0.386377
-0.396645
-0.406902
-0.417143
-0.427371
-0.437581
-0.447773
-0.457944
-0.468096
-0.478226
-0.488331
-0.498413
-0.508467
-0.518493
-0.52849
-0.538455
-0.54839
-0.558286
-0.56815
-0.577974
-0.587755
-0.597496
-0.607194
-0.616845
-0.626448
-0.636
-0.6455
-0.654945
-0.664333
-0.673665
-0.682938
-0.692153
-0.701311
-0.710416
-0.719477
-0.728515
-0.737559
-0.74667
-0.755898
-0.765252
-0.774609
-0.783674
-0.792139
-0.799913
-0.807268
-0.814629
-0.822136
-0.829526
-0.836622
0.946224
0.942956
0.93937
0.935509
0.931571
0.927588
0.92338
0.918715
0.913544
0.907994
0.90226
0.896472
0.890669
0.884842
0.878962
0.873002
0.866951
0.860803
0.854556
0.848205
0.841753
0.835205
0.82856
0.82182
0.81499
0.808069
0.801061
0.793967
0.786791
0.779532
0.772193
0.764778
0.757285
0.749719
0.742079
0.734371
0.726593
0.718748
0.710838
0.702865
0.694826
0.68673
0.678573
0.670358
0.662085
0.653758
0.645377
0.636944
0.62846
0.619923
0.611339
0.602706
0.594024
0.585299
0.576527
0.567711
0.558853
0.549951
0.54101
0.532026
0.523003
0.51394
0.504839
0.495702
0.486526
0.477316
0.468069
0.458788
0.449472
0.440124
0.430743
0.421329
0.411884
0.402408
0.392901
0.383367
0.373799
0.364207
0.354583
0.344935
0.335257
0.325553
0.315823
0.30607
0.296288
0.286484
0.276654
0.266802
0.256925
0.247026
0.237105
0.227162
0.217198
0.207212
0.197207
0.187181
0.177134
0.167068
0.156986
0.146882
0.136763
0.126623
0.11647
0.106297
0.0961087
0.085905
0.0756866
0.0654513
0.0552029
0.0449391
0.0346624
0.0243727
0.0140688
0.00375426
-0.00657404
-0.0169116
-0.0272634
-0.0376221
-0.047993
-0.0583726
-0.0687628
-0.0791594
-0.0895666
-0.0999779
-0.1104
-0.120825
-0.131258
-0.141696
-0.152138
-0.162586
-0.173035
-0.183487
-0.193943
-0.204399
-0.214857
-0.225313
-0.235771
-0.246226
-0.25668
-0.267131
-0.277578
-0.28802
-0.298456
-0.308888
-0.319311
-0.329727
-0.340135
-0.35053
-0.360919
-0.371293
-0.381653
-0.392002
-0.402333
-0.412649
-0.422947
-0.433227
-0.443487
-0.453725
-0.463941
-0.474131
-0.484299
-0.494437
-0.504546
-0.514627
-0.524676
-0.53469
-0.544672
-0.554615
-0.564523
-0.574387
-0.584211
-0.59399
-0.603722
-0.613409
-0.623044
-0.632628
-0.642156
-0.65163
-0.661045
-0.670401
-0.679699
-0.688934
-0.698107
-0.707227
-0.716298
-0.725336
-0.734362
-0.743421
-0.752564
-0.761811
-0.771105
-0.780254
-0.788954
-0.797016
-0.804514
-0.811823
-0.819229
-0.826684
-0.833896
-0.840775
0.948072
0.944998
0.941608
0.937898
0.934025
0.930105
0.926055
0.921664
0.916798
0.911492
0.905906
0.90019
0.894434
0.888649
0.882818
0.876922
0.87094
0.864862
0.858684
0.852403
0.84602
0.839537
0.832953
0.826274
0.819498
0.812631
0.805672
0.798624
0.79149
0.78427
0.776969
0.769585
0.762122
0.754581
0.746965
0.739275
0.731513
0.723679
0.715778
0.707809
0.699772
0.691673
0.683512
0.675288
0.667004
0.658661
0.650263
0.641807
0.633298
0.624732
0.616117
0.607449
0.598731
0.589964
0.581148
0.572285
0.563375
0.554421
0.545423
0.53638
0.527296
0.518168
0.509
0.499792
0.490545
0.481258
0.471934
0.462572
0.453174
0.443741
0.434271
0.424769
0.41523
0.40566
0.396057
0.386422
0.376755
0.367058
0.357332
0.347575
0.337789
0.327977
0.318133
0.308265
0.298369
0.288447
0.2785
0.268526
0.25853
0.248507
0.238464
0.228396
0.218305
0.208193
0.198059
0.187904
0.177728
0.167533
0.157318
0.147083
0.136832
0.12656
0.116272
0.105967
0.0956451
0.0853067
0.0749535
0.0645845
0.0542016
0.0438037
0.0333943
0.0229687
0.0125334
0.00208412