/*--------------------------------*- C++ -*----------------------------------*\
  =========                 |
  \\      /  F ield         | OpenFOAM: The Open Source CFD Toolbox
   \\    /   O peration     | Website:  https://openfoam.org
    \\  /    A nd           | Version:  8
     \\/     M anipulation  |
\*---------------------------------------------------------------------------*/
FoamFile
{
    version     2.0;
    format      ascii;
    class       surfaceScalarField;
    location    "0.05";
    object      phi;
}
// * * * * * * * * * * * * * * * * * * * * * * * * * * * * * * * * * * * * * //

dimensions      [0 3 -1 0 0 0 0];

internalField   nonuniform List<scalar> 
217010
(
-0.00359981
0.0263998
-0.00840013
0.0708003
-0.0119998
0.1152
-0.0167994
0.1596
-0.0215989
0.204
-0.0251985
0.2484
-0.0287982
0.2916
-0.0323978
0.336
-0.0359975
0.3792
-0.0395971
0.4248
-0.0419967
0.4668
-0.0455963
0.5112
-0.049196
0.5556
-0.0527956
0.5976
-0.0539952
0.6408
-0.0575948
0.6852
-0.0611944
0.7272
-0.063594
0.7704
-0.0659936
0.8124
-0.0671932
0.8544
-0.0707928
0.8976
-0.0719924
0.9384
-0.074392
0.9804
-0.0755916
1.0224
-0.0779911
1.0632
-0.0791907
1.104
-0.0815903
1.146
-0.0827899
1.1844
-0.0839895
1.2252
-0.086389
1.266
-0.0875886
1.3044
-0.0887882
1.344
-0.0899878
1.3824
-0.0899874
1.4208
-0.091187
1.4592
-0.0911866
1.4964
-0.0923862
1.5348
-0.0935858
1.572
-0.0935854
1.608
-0.094785
1.644
-0.0947846
1.68
-0.0947842
1.716
-0.0947838
1.7496
-0.0947834
1.7856
-0.094783
1.8192
-0.0947826
1.8528
-0.0947823
1.8864
-0.0935819
1.9188
-0.0935815
1.9512
-0.0935812
1.9836
-0.0923808
2.0136
-0.0923804
2.046
-0.0911801
2.0748
-0.0905797
2.10564
-0.0897394
2.13468
-0.0887791
2.16336
-0.0878187
2.19168
-0.0868584
2.2194
-0.0856581
2.24652
-0.0844578
2.27304
-0.0832575
2.2992
-0.0819372
2.32464
-0.0804969
2.34948
-0.0790566
2.37384
-0.0776163
2.3976
-0.076056
2.42076
-0.0743757
2.4432
-0.0728154
2.46528
-0.0711352
2.48664
-0.0693349
2.50728
-0.0675347
2.52744
-0.0656144
2.54688
-0.0636942
2.56572
-0.0616539
2.58396
-0.0596137
2.6016
-0.0576935
2.61864
-0.0555333
2.63484
-0.0533731
2.65044
-0.0512129
2.66556
-0.0489327
2.67984
-0.0467725
2.69364
-0.0446123
2.7066
-0.0422121
2.71884
-0.039932
2.73072
-0.0375318
2.74164
-0.0351317
2.75196
-0.0327315
2.76168
-0.0303314
2.77068
-0.0279313
2.77896
-0.0254111
2.78652
-0.022891
2.79348
-0.0203709
2.79972
-0.0178508
2.80536
-0.0152107
2.81004
-0.0128106
2.81436
-0.0102306
2.8178
-0.00767451
2.82058
-0.00510643
2.82266
-0.00253841
2.82404
2.96633e-05
2.82475
0.00259768
2.82475
0.00516574
2.82404
0.00773375
2.82266
0.0102898
2.82058
0.0128698
2.8178
0.0152698
2.81436
0.0179098
2.81004
0.0204298
2.80536
0.0229498
2.79972
0.0254697
2.79348
0.0279897
2.78652
0.0303896
2.77896
0.0327896
2.77068
0.0351895
2.76168
0.0375894
2.75196
0.0399894
2.74164
0.0422693
2.73072
0.0446692
2.71884
0.0468291
2.7066
0.048989
2.69364
0.0512689
2.67984
0.0534287
2.66556
0.0555886
2.65044
0.0577484
2.63484
0.0596683
2.61864
0.0617081
2.6016
0.063748
2.58396
0.0656678
2.56572
0.0675876
2.54688
0.0693874
2.52744
0.0711873
2.50728
0.0728671
2.48664
0.0744268
2.46528
0.0761066
2.4432
0.0776664
2.42076
0.0791061
2.3976
0.0805459
2.37384
0.0819856
2.34948
0.0833054
2.32464
0.0845051
2.2992
0.0857049
2.27304
0.0869046
2.24652
0.0878643
2.2194
0.088824
2.19168
0.0897837
2.16336
0.0906234
2.13468
0.0912231
2.10564
0.0924227
2.0748
0.0924224
2.046
0.093622
2.0136
0.0936217
1.9836
0.0936213
1.9512
0.094821
1.9188
0.0948206
1.8864
0.0948202
1.8528
0.0948198
1.8192
0.0948194
1.7856
0.0948191
1.7496
0.0948187
1.716
0.0948183
1.68
0.0936178
1.644
0.0936174
1.608
0.092417
1.572
0.0912165
1.5348
0.0912161
1.4964
0.0900157
1.4592
0.0900153
1.4208
0.0888148
1.3824
0.0876143
1.344
0.0864139
1.3044
0.0840134
1.266
0.0828129
1.2252
0.0816125
1.1844
0.079212
1.146
0.0780115
1.104
0.075611
1.0632
0.0744105
1.0224
0.0720101
0.9804
0.0708096
0.9384
0.0672091
0.897601
0.0660086
0.8544
0.0636081
0.8124
0.0612076
0.770401
0.0576071
0.7272
0.0540066
0.685201
0.0528062
0.6408
0.0492057
0.5976
0.0456051
0.555601
0.0420046
0.511201
0.0396041
0.4668
0.0360036
0.424801
0.0324031
0.379201
0.0288026
0.336
0.0252022
0.2916
0.0216016
0.248401
0.0168009
0.204001
0.0120002
0.159601
0.00839978
0.1152
0.00360028
0.0707995
0.0264003
-0.00479891
0.0311987
-0.00959914
0.0756005
-0.0131994
0.1188
-0.0179988
0.164399
-0.0215976
0.207598
-0.0239963
0.250798
-0.0287952
0.296399
-0.0323941
0.339599
-0.0359931
0.382799
-0.0395919
0.428398
-0.0431908
0.470399
-0.0467897
0.514798
-0.0479886
0.556799
-0.0515874
0.601198
-0.0551862
0.644398
-0.057585
0.687598
-0.0599838
0.729598
-0.0623826
0.772798
-0.0647814
0.814798
-0.0683801
0.857998
-0.0695789
0.898798
-0.0731776
0.941998
-0.0743764
0.981598
-0.0767751
1.0248
-0.0779738
1.0644
-0.0803725
1.1064
-0.0815713
1.1472
-0.08397
1.1868
-0.0851687
1.2264
-0.0851675
1.266
-0.0863662
1.3056
-0.0875649
1.3452
-0.0887637
1.3836
-0.0899624
1.422
-0.0911611
1.4604
-0.0923599
1.4976
-0.0923587
1.5348
-0.0923574
1.572
-0.0935562
1.6092
-0.093555
1.644
-0.0947537
1.6812
-0.0935526
1.7148
-0.0947514
1.7508
-0.0947502
1.7856
-0.094749
1.8192
-0.0947479
1.8528
-0.0947467
1.8864
-0.0935456
1.9176
-0.0935445
1.9512
-0.0923434
1.9824
-0.0935422
2.0148
-0.0911412
2.0436
-0.0911401
2.0748
-0.090539
2.10504
-0.089698
2.13384
-0.088857
2.16252
-0.0877759
2.1906
-0.086695
2.21832
-0.085614
2.24544
-0.084533
2.27196
-0.0832121
2.29788
-0.0818912
2.32332
-0.0804502
2.34804
-0.0791293
2.37252
-0.0775685
2.39604
-0.0760076
2.4192
-0.0744468
2.44164
-0.072766
2.4636
-0.0709652
2.48484
-0.0691644
2.50548
-0.0673636
2.52564
-0.0654428
2.54496
-0.0636421
2.56392
-0.0617214
2.58204
-0.0596807
2.59956
-0.05752
2.61648
-0.0554794
2.6328
-0.0534388
2.6484
-0.0511582
2.66328
-0.0489976
2.67768
-0.046717
2.69136
-0.0444365
2.70432
-0.0421559
2.71656
-0.0397555
2.72832
-0.037475
2.73936
-0.0350745
2.74956
-0.0326741
2.75928
-0.0301536
2.76816
-0.0277533
2.77656
-0.0253529
2.78412
-0.0228326
2.79096
-0.0203122
2.7972
-0.017792
2.80284
-0.0152717
2.80752
-0.0127514
2.81184
-0.0101591
2.81521
-0.00760293
2.81802
-0.00503475
2.8201
-0.00247861
2.82149
8.95417e-05
2.82218
0.00265765
2.82218
0.00521377
2.82149
0.00778186
2.8201
0.0103379
2.81802
0.0129299
2.81521
0.0154499
2.81184
0.0179699
2.80752
0.0204899
2.80284
0.0230098
2.7972
0.0255297
2.79096
0.0279295
2.78412
0.0303295
2.77656
0.0328493
2.76816
0.0352491
2.75928
0.0376489
2.74956
0.0399286
2.73936
0.0423284
2.72832
0.0446081
2.71656
0.0468878
2.70432
0.0491675
2.69136
0.0513271
2.67768
0.0536067
2.66328
0.0556463
2.6484
0.0576859
2.6328
0.0598454
2.61648
0.061885
2.59956
0.0638045
2.58204
0.065604
2.56392
0.0675234
2.54496
0.0693228
2.52564
0.0711222
2.50548
0.0729216
2.48484
0.074601
2.4636
0.0761603
2.44164
0.0777196
2.4192
0.0792789
2.39604
0.0805982
2.37252
0.0820374
2.34804
0.0833566
2.32332
0.0846758
2.29788
0.0857549
2.27196
0.0868341
2.24544
0.0879132
2.21832
0.0889923
2.1906
0.0898314
2.16252
0.0906704
2.13384
0.0912694
2.10504
0.0912684
2.0748
0.0936675
2.0436
0.0924663
2.0148
0.0936653
1.9824
0.0936642
1.9512
0.0948632
1.9176
0.094862
1.8864
0.0948609
1.8528
0.0948597
1.8192
0.0948585
1.7856
0.0936573
1.7508
0.0948561
1.7148
0.0936548
1.6812
0.0936536
1.644
0.0924523
1.6092
0.092451
1.572
0.0924497
1.5348
0.0912483
1.4976
0.090047
1.4604
0.0888456
1.422
0.0876442
1.3836
0.0864428
1.3452
0.0852414
1.3056
0.0852401
1.266
0.0840386
1.2264
0.0816372
1.1868
0.0804357
1.1472
0.0780342
1.1064
0.0768328
1.0644
0.0744313
1.0248
0.0732298
0.981602
0.0696283
0.942002
0.0684268
0.898802
0.0648253
0.858002
0.0624238
0.814802
0.0600223
0.772802
0.0576208
0.729602
0.0552192
0.687602
0.0516177
0.644402
0.0480161
0.601202
0.0468147
0.556802
0.0432131
0.514802
0.0396116
0.470402
0.03601
0.428402
0.0324086
0.382802
0.0288071
0.339602
0.0240055
0.296402
0.0216036
0.250802
0.0180018
0.207603
0.0132009
0.164402
0.00960133
0.1188
0.0048017
0.0755991
0.031202
-0.00479837
0.0359971
-0.00839754
0.0791997
-0.013198
0.1236
-0.016798
0.167999
-0.0203966
0.211197
-0.0251946
0.255596
-0.0287925
0.299996
-0.0323907
0.343197
-0.0359889
0.386397
-0.0383871
0.430797
-0.0431852
0.475197
-0.0455833
0.517197
-0.0491814
0.560397
-0.0527794
0.604796
-0.0551775
0.646797
-0.0575755
0.689996
-0.0611735
0.733196
-0.0635715
0.775196
-0.0659694
0.817196
-0.0671674
0.859196
-0.0707653
0.902396
-0.0719632
0.943196
-0.0755611
0.985196
-0.076759
1.026
-0.0791568
1.0668
-0.0803547
1.1076
-0.0815526
1.1484
-0.0827505
1.188
-0.0839484
1.2276
-0.0863462
1.2684
-0.087544
1.3068
-0.0887419
1.3464
-0.0899398
1.3848
-0.0911377
1.4232
-0.0911356
1.4604
-0.0923335
1.4988
-0.0923314
1.5348
-0.0935293
1.5732
-0.0935273
1.6092
-0.0947252
1.6452
-0.0935232
1.68
-0.0947212
1.716
-0.0947192
1.7508
-0.0947171
1.7856
-0.0947152
1.8192
-0.0947132
1.8528
-0.0935114
1.8852
-0.0947093
1.9188
-0.0935075
1.95
-0.0935056
1.9824
-0.0923038
2.0136
-0.0923019
2.0436
-0.0923001
2.0748
-0.0904983
2.10324
-0.0896565
2.133
-0.0886948
2.16156
-0.0877332
2.18964
-0.0867714
2.21736
-0.0855698
2.24424
-0.0843681
2.27076
-0.0830465
2.29656
-0.081725
2.322
-0.0805235
2.34684
-0.0789619
2.37096
-0.0775204
2.3946
-0.075959
2.41764
-0.0742776
2.43996
-0.0725961
2.46192
-0.0709148
2.48316
-0.0692335
2.5038
-0.0673122
2.52372
-0.0655109
2.54316
-0.0634696
2.56188
-0.0615485
2.58012
-0.0596273
2.59764
-0.0575861
2.61444
-0.055425
2.63064
-0.0532641
2.64624
-0.0511029
2.66112
-0.048942
2.67552
-0.0466611
2.68908
-0.0443801
2.70204
-0.0420992
2.71428
-0.0398184
2.72604
-0.0374176
2.73696
-0.0350168
2.74716
-0.0326161
2.75688
-0.0302154
2.76576
-0.0276946
2.77404
-0.0251741
2.7816
-0.0227735
2.78856
-0.0202529
2.79468
-0.0177324
2.80032
-0.0152118
2.805
-0.0126914
2.80932
-0.0101111
2.81263
-0.00755475
2.81546
-0.00498646
2.81753
-0.00241811
2.81892
0.000150139
2.81962
0.00271834
2.81962
0.00528644
2.81892
0.00785458
2.81753
0.0104107
2.81546
0.0129908
2.81263
0.0155108
2.80932
0.0180307
2.805
0.0205507
2.80032
0.0230705
2.79468
0.0254704
2.78856
0.0279902
2.7816
0.0305099
2.77404
0.0329096
2.76576
0.0353093
2.75688
0.0377089
2.74716
0.0401086
2.73696
0.0423882
2.72604
0.0446677
2.71428
0.0469471
2.70204
0.0492265
2.68908
0.051386
2.67552
0.0535453
2.66112
0.0557047
2.64624
0.057864
2.63064
0.0599031
2.61444
0.0618223
2.59764
0.0637415
2.58012
0.0657806
2.56188
0.0675797
2.54316
0.0694987
2.52372
0.0711776
2.5038
0.0728566
2.48316
0.0745354
2.46192
0.0762144
2.43996
0.0777732
2.41764
0.079212
2.3946
0.0807707
2.37096
0.0819694
2.34684
0.0832881
2.322
0.0846067
2.29656
0.0858053
2.27076
0.0870039
2.24424
0.0879623
2.21736
0.0889208
2.18964
0.0898793
2.16156
0.0907176
2.133
0.092516
2.10324
0.0925143
2.0748
0.0925125
2.0436
0.0937108
2.0136
0.093709
1.9824
0.0949072
1.95
0.0937052
1.9188
0.0949034
1.8852
0.0949014
1.8528
0.0948995
1.8192
0.0948974
1.7856
0.0948954
1.7508
0.0936933
1.716
0.0948913
1.68
0.0936891
1.6452
0.093687
1.6092
0.0924848
1.5732
0.0924826
1.5348
0.0912803
1.4988
0.0912781
1.4604
0.0900758
1.4232
0.0888735
1.3848
0.0876711
1.3464
0.0864687
1.3068
0.0840663
1.2684
0.0828639
1.2276
0.0816615
1.188
0.0804591
1.1484
0.0792567
1.1076
0.0768542
1.0668
0.0756517
1.026
0.0720491
0.985205
0.0708467
0.943204
0.0672441
0.902405
0.0660417
0.859204
0.0636391
0.817205
0.0612366
0.775205
0.057634
0.733205
0.0552315
0.690005
0.052829
0.646805
0.0492264
0.604805
0.0456238
0.560405
0.0432213
0.517205
0.0384186
0.475205
0.0360162
0.430805
0.0324137
0.386404
0.0288111
0.343205
0.0252081
0.300005
0.020405
0.255606
0.016803
0.211204
0.013203
0.168002
0.00840385
0.123599
0.00480257
0.0792004
0.0360046
-0.00359835
0.0395954
-0.00839619
0.0839976
-0.0131961
0.1284
-0.0167966
0.171599
-0.0215957
0.215996
-0.0251934
0.259194
-0.0287905
0.303594
-0.0323877
0.346794
-0.0359852
0.389994
-0.0395826
0.434394
-0.0419801
0.477594
-0.0455774
0.520794
-0.0491747
0.563994
-0.051572
0.607194
-0.0551692
0.650394
-0.0575664
0.692394
-0.0599636
0.735594
-0.0623608
0.777594
-0.0659579
0.820793
-0.068355
0.861593
-0.0695521
0.903593
-0.0719492
0.945593
-0.0743462
0.987593
-0.0755433
1.02719
-0.0779403
1.06919
-0.0791373
1.10879
-0.0815343
1.15079
-0.0827313
1.18919
-0.0851282
1.22999
-0.0863253
1.26959
-0.0875223
1.30799
-0.0875193
1.34639
-0.0887164
1.38599
-0.0899133
1.42439
-0.0911103
1.46159
-0.0911074
1.49879
-0.0935044
1.53719
-0.0935014
1.57319
-0.0934986
1.60919
-0.0934957
1.64519
-0.0946927
1.68119
-0.0946899
1.71599
-0.0946871
1.75079
-0.0946843
1.78559
-0.0946814
1.81919
-0.0946787
1.85279
-0.0946759
1.88519
-0.0934732
1.91759
-0.0934706
1.94999
-0.0934678
1.98239
-0.0922653
2.01239
-0.0922627
2.04359
-0.09106
2.07359
-0.0904575
2.10263
-0.0896151
2.13215
-0.0886526
2.16059
-0.0878101
2.18879
-0.0866078
2.21615
-0.0855254
2.24315
-0.0843231
2.26955
-0.0831208
2.29535
-0.0817985
2.32067
-0.0803563
2.3454
-0.0789143
2.36952
-0.0774721
2.39316
-0.07579
2.41596
-0.074348
2.43852
-0.0726661
2.46024
-0.070864
2.48136
-0.0690621
2.502
-0.0672603
2.52192
-0.0654586
2.54136
-0.0635367
2.55996
-0.0614951
2.57808
-0.0594533
2.5956
-0.0574119
2.6124
-0.0553702
2.6286
-0.0532087
2.64408
-0.0511673
2.65908
-0.0488858
2.67324
-0.0466044
2.6868
-0.0443232
2.69976
-0.0421619
2.71212
-0.0397607
2.72364
-0.0373595
2.73456
-0.0349584
2.74476
-0.0325574
2.75448
-0.0301564
2.76336
-0.0276354
2.77152
-0.0252345
2.7792
-0.0227137
2.78604
-0.0201929
2.79216
-0.0176721
2.7978
-0.0151515
2.80248
-0.0125108
2.80668
-0.0100503
2.81017
-0.00748168
2.81289
-0.00492526
2.81497
-0.00235687
2.81635
0.000211477
2.81705
0.00277976
2.81705
0.00534801
2.81635
0.00790423
2.81497
0.0104723
2.8129
0.0129324
2.81017
0.0155723
2.80668
0.0180924
2.80248
0.0206122
2.7978
0.023132
2.79216
0.0256518
2.78604
0.0280515
2.7792
0.0305711
2.77152
0.0329708
2.76336
0.0353703
2.75448
0.0377699
2.74476
0.0401692
2.73456
0.0425685
2.72364
0.0447279
2.71212
0.0470072
2.69976
0.0492864
2.6868
0.0515654
2.67324
0.0536046
2.65908
0.0557636
2.64408
0.0578025
2.6286
0.0598415
2.6124
0.0618803
2.5956
0.0639191
2.57808
0.0658378
2.55996
0.0676365
2.54136
0.0694352
2.52192
0.0712337
2.502
0.073032
2.48136
0.0747106
2.46024
0.0761489
2.43852
0.0778273
2.41596
0.0792654
2.39316
0.0807038
2.36952
0.0821419
2.3454
0.08346
2.32068
0.0846579
2.29536
0.085856
2.26956
0.0869338
2.24316
0.0881318
2.21616
0.0889696
2.1888
0.0899273
2.16061
0.0907651
2.13217
0.0913627
2.10265
0.0925603
2.07361
0.0925578
2.04361
0.0937554
2.01241
0.0937527
1.98241
0.0937501
1.95001
0.0949476
1.91761
0.0949448
1.88521
0.0949421
1.85281
0.0949393
1.81921
0.0949364
1.78561
0.0949335
1.75081
0.0949307
1.71601
0.0937276
1.68121
0.0937246
1.64521
0.0937216
1.60921
0.0937185
1.57321
0.0913152
1.53721
0.0913121
1.49881
0.0901089
1.46161
0.0889056
1.42441
0.0877023
1.38601
0.0876991
1.34641
0.0864958
1.30801
0.0852924
1.26961
0.0828889
1.23001
0.0816855
1.18921
0.079282
1.15081
0.0780787
1.10881
0.0756751
1.06921
0.0744717
1.02721
0.0720681
0.987608
0.0696646
0.945608
0.0684611
0.903608
0.0660576
0.861608
0.0624539
0.820808
0.0600504
0.777608
0.0576468
0.735608
0.0552433
0.692408
0.0516396
0.650408
0.0492361
0.607208
0.0456324
0.564008
0.0420288
0.520808
0.0396253
0.477608
0.0360218
0.434408
0.0324182
0.390008
0.0288142
0.346809
0.0252099
0.303609
0.0216064
0.259209
0.0168052
0.216006
0.0132061
0.171601
0.008406
0.128399
0.00360263
0.0840038
0.0396072
-0.00479819
0.0443936
-0.00959521
0.0887946
-0.013194
0.131999
-0.0167945
0.1752
-0.0203945
0.219596
-0.0251924
0.263992
-0.028789
0.30719
-0.0323853
0.35039
-0.0359818
0.393591
-0.0395785
0.437991
-0.0431752
0.481191
-0.0467718
0.52439
-0.0491684
0.56639
-0.0527648
0.61079
-0.0551613
0.65279
-0.0587576
0.69599
-0.061154
0.73799
-0.0635504
0.77999
-0.0647469
0.82199
-0.068343
0.86519
-0.0707392
0.90599
-0.0731355
0.94799
-0.0743317
0.988789
-0.0767279
1.02959
-0.0779241
1.07039
-0.0803202
1.11119
-0.0815164
1.15199
-0.0827126
1.19039
-0.0839087
1.23119
-0.0851048
1.27079
-0.0863009
1.30919
-0.088697
1.34879
-0.089893
1.38719
-0.0898893
1.42439
-0.0910854
1.46279
-0.0922815
1.49999
-0.0922777
1.53719
-0.092274
1.57319
-0.0934702
1.61039
-0.0934664
1.64519
-0.0934627
1.68119
-0.0946589
1.71719
-0.0946551
1.75079
-0.0946515
1.78559
-0.0946478
1.81919
-0.0934444
1.85159
-0.0934408
1.88519
-0.0946372
1.91879
-0.0934337
1.94879
-0.0922303
1.98119
-0.0922267
2.01239
-0.0910234
2.04239
-0.0910201
2.07359
-0.0904167
2.10203
-0.0895735
2.13131
-0.0887302
2.15975
-0.087647
2.18771
-0.086564
2.21507
-0.0854808
2.24207
-0.0842779
2.26835
-0.0830748
2.29415
-0.0817519
2.31935
-0.0803091
2.34395
-0.0789862
2.36819
-0.0774234
2.39159
-0.0758607
2.41439
-0.0741781
2.43683
-0.0724955
2.45855
-0.070813
2.47967
-0.0691305
2.50031
-0.067328
2.52011
-0.0652858
2.53931
-0.0634835
2.55815
-0.0615611
2.57615
-0.0595191
2.59355
-0.0574768
2.61035
-0.055315
2.62643
-0.0531528
2.64191
-0.0509909
2.65691
-0.048829
2.67107
-0.0465474
2.68452
-0.0442656
2.69748
-0.0419839
2.70984
-0.0395822
2.72124
-0.0373007
2.73228
-0.0348994
2.74236
-0.0324978
2.75208
-0.0299766
2.76084
-0.0276953
2.76924
-0.0250541
2.77656
-0.022653
2.78364
-0.0201321
2.78964
-0.0176111
2.79528
-0.0150903
2.79996
-0.0125694
2.80416
-0.00997672
2.80758
-0.0074321
2.81035
-0.00486338
2.8124
-0.00229488
2.81378
0.000273573
2.81448
0.00284195
2.81448
0.00541028
2.81378
0.00797839
2.8124
0.0105226
2.81035
0.0131148
2.80758
0.0156347
2.80416
0.0181547
2.79996
0.0206745
2.79528
0.0231944
2.78964
0.0255941
2.78364
0.0282337
2.77656
0.0305133
2.76924
0.0330328
2.76084
0.035432
2.75208
0.0378314
2.74236
0.0401107
2.73228
0.0425098
2.72124
0.0447888
2.70984
0.0470678
2.69748
0.0493469
2.68452
0.0515057
2.67108
0.0536645
2.65692
0.0558231
2.64192
0.0579819
2.62644
0.0600203
2.61036
0.062059
2.59356
0.0639771
2.57616
0.0657755
2.55816
0.0678139
2.53932
0.069612
2.52012
0.07129
2.50033
0.0729682
2.47969
0.0746461
2.45857
0.076324
2.43685
0.0778818
2.41441
0.0794395
2.39161
0.080757
2.36821
0.0821947
2.34397
0.0835122
2.31937
0.0847095
2.29417
0.085907
2.26837
0.0869842
2.24209
0.0880615
2.21509
0.0891386
2.18773
0.0899756
2.15977
0.0908126
2.13133
0.0914095
2.10205
0.0914064
2.07361
0.0926033
2.04241
0.0925999
2.01241
0.0937966
1.98121
0.0949932
1.94881
0.0937897
1.91881
0.0937861
1.88521
0.0949827
1.85161
0.094979
1.81921
0.0949754
1.78561
0.0949716
1.75081
0.0937676
1.71721
0.0937638
1.68121
0.0937599
1.64521
0.0925558
1.61041
0.0925519
1.57321
0.0925479
1.53721
0.0913437
1.50001
0.0901395
1.46281
0.0901354
1.42441
0.0889311
1.38721
0.0865267
1.34881
0.0853224
1.30921
0.084118
1.27081
0.0829136
1.23121
0.0817092
1.19041
0.0805048
1.15201
0.0781002
1.11121
0.0768958
1.07041
0.0744913
1.02961
0.0732868
0.988813
0.0708823
0.948013
0.0684776
0.906013
0.0648729
0.865213
0.0636684
0.822013
0.0612639
0.780013
0.0588593
0.738013
0.0552546
0.696013
0.05285
0.652813
0.0492453
0.610813
0.0468407
0.566413
0.043236
0.524413
0.0396315
0.481213
0.0360269
0.438013
0.032422
0.393613
0.0288165
0.350414
0.0252114
0.307215
0.0204085
0.264012
0.0168086
0.219606
0.0132095
0.1752
0.00960759
0.132001
0.00480289
0.0888085
0.0444101
-0.00479812
0.0491918
-0.00839488
0.0923913
-0.0131921
0.136796
-0.0179918
0.18
-0.0215923
0.223197
-0.0251912
0.267591
-0.0287879
0.310787
-0.0323834
0.353986
-0.0371789
0.398386
-0.0395749
0.440387
-0.0431708
0.484787
-0.0455667
0.526786
-0.0491625
0.569986
-0.0515583
0.613186
-0.0551538
0.656386
-0.0575495
0.698386
-0.0599451
0.740386
-0.0635405
0.783585
-0.065936
0.824385
-0.0671316
0.866385
-0.0695271
0.908385
-0.0719224
0.950385
-0.0743177
0.991185
-0.076713
1.03198
-0.0779083
1.07158
-0.0803035
1.11358
-0.0814988
1.15318
-0.083894
1.19278
-0.0850893
1.23238
-0.0862845
1.27198
-0.0874798
1.31038
-0.0886749
1.34998
-0.0886703
1.38718
-0.0898655
1.42558
-0.0910607
1.46398
-0.0922559
1.50118
-0.0922513
1.53718
-0.0934465
1.57438
-0.0934419
1.61038
-0.0946371
1.64638
-0.0946326
1.68119
-0.094628
1.71719
-0.0946235
1.75079
-0.0946189
1.78559
-0.0946145
1.81919
-0.09461
1.85159
-0.0946055
1.88519
-0.0934012
1.91759
-0.0933968
1.94879
-0.0933925
1.98119
-0.0921883
2.01119
-0.0921841
2.04239
-0.0909799
2.07239
-0.0903759
2.10143
-0.0895318
2.13047
-0.0885678
2.15879
-0.087604
2.18675
-0.0866399
2.21411
-0.0854361
2.24087
-0.0842323
2.26715
-0.0830288
2.29295
-0.0817051
2.31803
-0.0803816
2.34263
-0.078818
2.36663
-0.0772547
2.39003
-0.0758113
2.41295
-0.0742479
2.43527
-0.0725646
2.45687
-0.0708814
2.47799
-0.0689585
2.49839
-0.0671556
2.51831
-0.0653524
2.53751
-0.0634296
2.55623
-0.0613869
2.57411
-0.0593441
2.59151
-0.0573014
2.60831
-0.0552589
2.62439
-0.0532164
2.63987
-0.0509341
2.65463
-0.0486519
2.66879
-0.0464894
2.68235
-0.0443272
2.69531
-0.0419253
2.70743
-0.0396434
2.71895
-0.0371216
2.72975
-0.0348397
2.74007
-0.032438
2.74967
-0.0300364
2.75843
-0.0275148
2.76672
-0.0251133
2.77416
-0.0224719
2.781
-0.0200706
2.78724
-0.0175496
2.79276
-0.0150282
2.79744
-0.0125075
2.80164
-0.00992622
2.805
-0.00735745
2.80778
-0.00480074
2.80985
-0.00223212
2.81121
0.000336442
2.81191
0.00290491
2.81191
0.00547333
2.81121
0.00802965
2.80985
0.0105979
2.80778
0.0131777
2.805
0.015698
2.80164
0.0182176
2.79744
0.0207376
2.79276
0.0231373
2.78724
0.0257769
2.781
0.0281764
2.77416
0.0306959
2.76672
0.0330952
2.75844
0.0354945
2.74968
0.0377735
2.74008
0.0402927
2.72976
0.0425717
2.71896
0.0449707
2.70744
0.0471294
2.69532
0.0492879
2.68236
0.0515666
2.6688
0.0538451
2.65464
0.0558835
2.63989
0.0579218
2.62441
0.05996
2.60833
0.061998
2.59153
0.0640361
2.57413
0.0659541
2.55625
0.0677516
2.53753
0.0695495
2.51833
0.0714672
2.49841
0.0731447
2.47801
0.0748221
2.45689
0.0763793
2.43529
0.0778165
2.41297
0.0793739
2.39005
0.0809308
2.36665
0.0822479
2.34265
0.0835646
2.31805
0.0847617
2.29297
0.0859583
2.26717
0.087155
2.24089
0.0881113
2.21413
0.0890679
2.18677
0.0900242
2.15881
0.0908605
2.13049
0.0914568
2.10145
0.0926528
2.07241
0.0926487
2.04241
0.0938448
2.01121
0.0938406
1.98121
0.0938364
1.94881
0.0950321
1.91761
0.0950278
1.88521
0.0950232
1.85161
0.0950188
1.81921
0.0950141
1.78561
0.0950096
1.75081
0.0950048
1.71722
0.0950001
1.68122
0.0937952
1.64642
0.0937903
1.61042
0.0925852
1.57442
0.0925802
1.53722
0.0913751
1.50122
0.0901699
1.46402
0.0889646
1.42562
0.0889596
1.38722
0.0877542
1.35002
0.0865489
1.31042
0.0853435
1.27202
0.0841381
1.23242
0.0817326
1.19282
0.0805271
1.15322
0.0781215
1.11362
0.0769161
1.07162
0.0745104
1.03202
0.0721048
0.991218
0.0696991
0.950418
0.0672935
0.908418
0.0660881
0.866418
0.0636824
0.824418
0.0600766
0.783618
0.057671
0.740418
0.0552653
0.698418
0.0516595
0.656419
0.049254
0.613219
0.0456482
0.570019
0.0432427
0.526818
0.0396371
0.484818
0.0372314
0.440418
0.0324249
0.398419
0.0288184
0.35402
0.0252135
0.310819
0.0216119
0.267614
0.0180129
0.223205
0.0132124
0.18
0.00840816
0.136805
0.00480303
0.0924136
0.0492131
-0.00359824
0.05279
-0.00839474
0.0971878
-0.011991
0.140393
-0.0167893
0.184798
-0.0215895
0.227997
-0.0251893
0.271191
-0.0287867
0.314384
-0.032382
0.357581
-0.0359767
0.401981
-0.0395717
0.443982
-0.0419669
0.487182
-0.045562
0.530382
-0.049157
0.573581
-0.0527519
0.616781
-0.0551468
0.658781
-0.0575417
0.700781
-0.0611363
0.74398
-0.0623312
0.78478
-0.0659258
0.82798
-0.0683204
0.86878
-0.0707149
0.91078
-0.0719096
0.95158
-0.074304
0.993579
-0.0754986
1.03318
-0.0790928
1.07518
-0.0790875
1.11358
-0.0814817
1.15558
-0.0826761
1.19398
-0.0838705
1.23358
-0.0850649
1.27318
-0.087459
1.31278
-0.0874535
1.34998
-0.0898476
1.38958
-0.0910419
1.42678
-0.0910364
1.46398
-0.0910309
1.50118
-0.0922252
1.53838
-0.0934195
1.57558
-0.0934139
1.61038
-0.0934085
1.64638
-0.0946028
1.68238
-0.0933975
1.71598
-0.0945919
1.75198
-0.0945865
1.78558
-0.0933812
1.81798
-0.0945758
1.85278
-0.0945704
1.88518
-0.0933653
1.91638
-0.0933601
1.94878
-0.0933549
1.98118
-0.0933497
2.01118
-0.0921448
2.04118
-0.0909399
2.07118
-0.0903349
2.10082
-0.0893701
2.1295
-0.0885252
2.15794
-0.0875605
2.18578
-0.0864759
2.21302
-0.0853915
2.23978
-0.0841869
2.26594
-0.0829823
2.29174
-0.081658
2.3167
-0.0802136
2.34118
-0.0787696
2.36518
-0.0773253
2.38858
-0.0757613
2.41139
-0.0740775
2.43359
-0.0725136
2.45531
-0.0707098
2.47619
-0.069026
2.49671
-0.0671023
2.51639
-0.0652989
2.53571
-0.0632553
2.55419
-0.0613321
2.57219
-0.0594089
2.58959
-0.0572457
2.60615
-0.0552025
2.62235
-0.0530395
2.63771
-0.0508766
2.65247
-0.0487138
2.66663
-0.0465513
2.68019
-0.0441486
2.69291
-0.0418663
2.70515
-0.0394638
2.71655
-0.0371814
2.72747
-0.0347793
2.73767
-0.0323773
2.74727
-0.0299753
2.75603
-0.0274532
2.76419
-0.0250517
2.77175
-0.02253
2.77847
-0.0200084
2.78471
-0.0174869
2.79023
-0.0149657
2.79492
-0.0123244
2.799
-0.00986332
2.80254
-0.00730616
2.80522
-0.00473732
2.80728
-0.00216857
2.80865
0.000400101
2.80934
0.00296867
2.80934
0.00553717
2.80865
0.00810556
2.80728
0.0106616
2.80523
0.0131218
2.80254
0.0157617
2.799
0.0182818
2.79492
0.0208015
2.79024
0.0233211
2.78472
0.0258406
2.77848
0.0282403
2.77176
0.0307594
2.7642
0.0331586
2.75604
0.0355577
2.74728
0.0379568
2.73768
0.0402355
2.72748
0.0426342
2.71656
0.0449129
2.70516
0.0473114
2.69293
0.0494699
2.68021
0.0516282
2.66665
0.0537863
2.65249
0.0559444
2.63773
0.0579821
2.62237
0.06014
2.60617
0.0620578
2.58961
0.0639755
2.57221
0.0660128
2.55421
0.0678103
2.53573
0.0697275
2.51641
0.0714046
2.49673
0.0732016
2.47621
0.0747584
2.45533
0.0764354
2.43361
0.0779921
2.41141
0.0794285
2.38861
0.0808652
2.36521
0.0823015
2.34121
0.0836178
2.31673
0.0848138
2.29177
0.0860098
2.26597
0.0870858
2.23981
0.0881618
2.21306
0.0891174
2.18582
0.089953
2.15798
0.0909085
2.12954
0.0915039
2.10086
0.0926993
2.07122
0.0938946
2.04122
0.0938897
2.01122
0.0938847
1.98122
0.0938796
1.94882
0.0950746
1.91642
0.0950693
1.88522
0.0938638
1.85282
0.0950585
1.81802
0.0950531
1.78562
0.0938473
1.75202
0.0950418
1.71602
0.0938359
1.68242
0.0938302
1.64642
0.0938244
1.61042
0.0926183
1.57562
0.0914122
1.53842
0.0914062
1.50122
0.0914002
1.46402
0.090194
1.42682
0.0877875
1.38962
0.0877814
1.35002
0.0853747
1.31282
0.0841683
1.27322
0.0829619
1.23362
0.0817555
1.19402
0.0793488
1.15562
0.0793425
1.11362
0.0757356
1.07522
0.0745292
1.03322
0.0721224
0.993625
0.070916
0.951625
0.0685093
0.910825
0.0661025
0.868825
0.0624957
0.828025
0.0612892
0.784825
0.0576823
0.744025
0.0552757
0.700825
0.052869
0.658825
0.0492622
0.616825
0.0456554
0.573625
0.0420487
0.530425
0.0396421
0.487225
0.0360349
0.444026
0.0324272
0.402027
0.0288203
0.357627
0.0252165
0.314423
0.0216164
0.271214
0.016817
0.228004
0.0120143
0.184803
0.00840844
0.140411
0.00360286
0.0972192
0.052816
-0.00479791
0.0575879
-0.00959449
0.101984
-0.0131901
0.143988
-0.016787
0.188395
-0.0203865
0.231596
-0.0239868
0.274791
-0.028785
0.319182
-0.0323807
0.361177
-0.0359749
0.405575
-0.0395689
0.447576
-0.0431632
0.490776
-0.0467575
0.533976
-0.0491519
0.575976
-0.0515462
0.619175
-0.0551402
0.662375
-0.0575343
0.703175
-0.0599283
0.746374
-0.0635221
0.788374
-0.0647162
0.829174
-0.0683097
0.872373
-0.0695037
0.911974
-0.073097
0.955173
-0.0742909
0.994773
-0.0766844
1.03557
-0.077878
1.07637
-0.0802715
1.11597
-0.081465
1.15677
-0.0826586
1.19517
-0.0850518
1.23597
-0.0862453
1.27437
-0.0862389
1.31277
-0.0886322
1.35237
-0.0886257
1.38957
-0.089819
1.42797
-0.0910124
1.46517
-0.0922059
1.50237
-0.0921993
1.53837
-0.0921929
1.57557
-0.0933864
1.61157
-0.0945796
1.64757
-0.0933735
1.68117
-0.0945669
1.71717
-0.0945606
1.75197
-0.0945542
1.78557
-0.094548
1.81797
-0.0945417
1.85277
-0.0933357
1.88397
-0.0945293
1.91757
-0.0933234
1.94758
-0.0921175
1.97998
-0.0921115
2.01118
-0.0921053
2.04118
-0.0908998
2.06998
-0.0902938
2.10022
-0.0894483
2.12866
-0.0886026
2.1571
-0.0875171
2.1847
-0.0865517
2.21206
-0.0853463
2.23858
-0.0842609
2.26486
-0.0828158
2.2903
-0.0814907
2.31538
-0.0801658
2.33986
-0.0788406
2.36386
-0.0772758
2.38702
-0.0757111
2.40982
-0.0741464
2.43202
-0.0723419
2.4535
-0.0706576
2.4745
-0.0688531
2.4949
-0.0670488
2.51458
-0.0651248
2.53378
-0.0633206
2.55238
-0.0613968
2.57026
-0.0592328
2.58742
-0.0573091
2.60422
-0.0551455
2.62019
-0.052982
2.63555
-0.0508189
2.65031
-0.0486553
2.66447
-0.0463724
2.67791
-0.0440892
2.69063
-0.0418062
2.70287
-0.0395235
2.71427
-0.0371207
2.72507
-0.0347182
2.73527
-0.0323158
2.74487
-0.0297933
2.75351
-0.0273914
2.76179
-0.024869
2.76923
-0.022467
2.77607
-0.0199454
2.78219
-0.0174237
2.78771
-0.0149022
2.79239
-0.0123807
2.79647
-0.00978746
2.79994
-0.00723036
2.80267
-0.00467309
2.80472
-0.00210422
2.80608
0.000464568
2.80677
0.00303324
2.80677
0.00560182
2.80608
0.00815801
2.80472
0.0107144
2.80267
0.0133066
2.79995
0.0158265
2.79648
0.0183465
2.7924
0.0208662
2.78772
0.023386
2.7822
0.0257854
2.77608
0.0283045
2.76924
0.0307039
2.7618
0.0332228
2.75352
0.0356217
2.74488
0.0380206
2.73528
0.0404191
2.72509
0.0426978
2.71429
0.0449761
2.70289
0.0472542
2.69065
0.0495325
2.67793
0.0516902
2.66449
0.0538483
2.65033
0.056006
2.63557
0.0581636
2.62021
0.0600811
2.60425
0.0622382
2.58745
0.0641555
2.57029
0.0659524
2.55241
0.0678694
2.53381
0.0696661
2.51461
0.0714626
2.49493
0.0731393
2.47453
0.0749357
2.45353
0.0764919
2.43206
0.078048
2.40986
0.079604
2.38706
0.0809197
2.3639
0.0822355
2.3399
0.0835511
2.31542
0.0849867
2.29034
0.0860619
2.2649
0.0872571
2.23862
0.0882123
2.2121
0.0892873
2.18474
0.0901221
2.15714
0.090957
2.1287
0.0915514
2.10026
0.0927462
2.07002
0.0927403
2.04122
0.0927345
2.01122
0.0939288
1.98002
0.0951231
1.94762
0.0939167
1.91763
0.0951108
1.88403
0.0951044
1.85283
0.0950982
1.81803
0.0950917
1.78563
0.0950853
1.75203
0.0938784
1.71723
0.0950721
1.68123
0.093865
1.64763
0.0926581
1.61163
0.0926512
1.57563
0.0926442
1.53843
0.0914371
1.50243
0.0902299
1.46523
0.0890226
1.42803
0.0890154
1.38963
0.0866078
1.35243
0.0866006
1.31283
0.0853932
1.27443
0.0829854
1.23603
0.081778
1.19523
0.0805705
1.15683
0.0781628
1.11603
0.0769552
1.07643
0.0745474
1.03563
0.07334
0.994832
0.0697318
0.955233
0.0685244
0.912032
0.0649163
0.872433
0.0637088
0.829233
0.0601009
0.788433
0.0576932
0.746433
0.0552855
0.703233
0.0516775
0.662433
0.0492699
0.619233
0.0468623
0.576033
0.0432544
0.534033
0.0396464
0.490833
0.0360378
0.447634
0.0324293
0.405636
0.028823
0.361234
0.0240206