/*--------------------------------*- C++ -*----------------------------------*\
  =========                 |
  \\      /  F ield         | OpenFOAM: The Open Source CFD Toolbox
   \\    /   O peration     | Website:  https://openfoam.org
    \\  /    A nd           | Version:  8
     \\/     M anipulation  |
\*---------------------------------------------------------------------------*/
FoamFile
{
    version     2.0;
    format      ascii;
    class       volVectorField;
    location    "0.05";
    object      U;
}
// * * * * * * * * * * * * * * * * * * * * * * * * * * * * * * * * * * * * * //

dimensions      [0 1 -1 0 0 0 0];

internalField   nonuniform List<vector> 
108654
(
(14.9999 1.55123e-06 -1.2382e-24)
(15 2.29856e-07 -2.8639e-23)
(15 1.50744e-06 -1.52068e-22)
(14.9999 4.28046e-06 4.56615e-23)
(14.9999 7.43222e-06 8.0954e-22)
(14.9999 1.03358e-05 -8.43975e-22)
(14.9999 1.28097e-05 -3.2815e-23)
(14.9999 1.53239e-05 3.47399e-22)
(14.9999 1.80262e-05 1.12404e-21)
(14.9999 2.09632e-05 -1.89522e-21)
(14.9999 2.37975e-05 -5.14353e-23)
(14.9999 2.66304e-05 3.46275e-21)
(14.9999 2.95924e-05 2.334e-21)
(14.9999 3.24734e-05 2.52608e-21)
(14.9999 3.54308e-05 2.32362e-21)
(14.9998 3.83617e-05 3.99012e-21)
(14.9998 4.12965e-05 -3.05841e-21)
(14.9998 4.43829e-05 5.54296e-21)
(14.9998 4.7362e-05 -4.20389e-21)
(14.9998 5.0329e-05 -6.38126e-21)
(14.9998 5.33323e-05 -1.17263e-20)
(14.9998 5.64109e-05 -5.10138e-21)
(14.9998 5.93809e-05 -5.37053e-21)
(14.9998 6.24597e-05 -3.14243e-21)
(14.9998 6.54484e-05 2.73626e-21)
(14.9998 6.85574e-05 6.13902e-21)
(14.9998 7.16001e-05 -9.78435e-21)
(14.9998 7.45866e-05 1.32434e-20)
(14.9998 7.7634e-05 -9.26736e-23)
(14.9998 8.06822e-05 7.05637e-21)
(14.9998 8.37457e-05 7.05259e-21)
(14.9998 8.67055e-05 8.74643e-23)
(14.9998 8.96844e-05 7.35305e-21)
(14.9998 9.26777e-05 7.65061e-21)
(14.9998 9.55236e-05 -7.75987e-21)
(14.9998 9.84727e-05 8.76429e-23)
(14.9998 0.000101344 -1.22528e-20)
(14.9998 0.000104227 7.9344e-21)
(14.9998 0.0001072 -3.44505e-21)
(14.9998 0.000109973 1.61856e-20)
(14.9998 0.000112844 -1.62636e-20)
(14.9998 0.00011562 1.30783e-20)
(14.9999 0.000118309 3.14125e-21)
(14.9999 0.00012103 -7.8845e-23)
(14.9999 0.00012377 8.20507e-21)
(14.9999 0.000126388 2.74913e-21)
(14.9999 0.000129126 8.09382e-21)
(14.9999 0.00013176 -1.35469e-20)
(14.9999 0.000134246 -8.10172e-21)
(14.9999 0.000136844 1.93638e-20)
(14.9999 0.000139305 5.80911e-21)
(14.9999 0.000141827 1.57152e-20)
(14.9999 0.000144239 1.55829e-20)
(14.9999 0.000146732 -5.98954e-21)
(14.9999 0.000149082 -6.13059e-21)
(14.9999 0.00015139 -7.53919e-21)
(14.9999 0.000153686 -1.48933e-20)
(14.9999 0.000155995 6.28049e-21)
(14.9999 0.000158153 7.29874e-21)
(14.9999 0.00016039 -7.18527e-21)
(14.9999 0.000162557 7.0723e-21)
(14.9999 0.000164575 -5.25466e-23)
(14.9999 0.000166685 6.81805e-21)
(14.9999 0.000168682 -5.35347e-23)
(14.9999 0.000170699 6.54742e-21)
(14.9999 0.000172667 -1.32044e-20)
(14.9999 0.000174513 0)
(14.9999 0.000176481 -6.07454e-21)
(14.9999 0.000178304 5.92826e-21)
(14.9999 0.000180059 5.77254e-21)
(14.9999 0.000181782 1.26778e-20)
(14.9999 0.000183462 -7.06579e-21)
(14.9999 0.000185072 -1.06623e-20)
(14.9999 0.000186653 1.24041e-20)
(14.9999 0.000188279 -1.4546e-20)
(14.9999 0.000189806 7.25057e-21)
(14.9999 0.000191181 1.66373e-20)
(14.9999 0.0001927 -2.97844e-21)
(14.9999 0.000194049 0)
(14.9999 0.000195376 0)
(14.9999 0.000196584 0)
(14.9999 0.000197865 -3.71491e-21)
(14.9999 0.000199063 0)
(14.9999 0.000200251 -4.27579e-21)
(14.9999 0.000201299 1.52607e-20)
(15 0.000202292 5.97723e-21)
(15 0.000203366 -2.59617e-20)
(15 0.000204288 5.17416e-21)
(15 0.000205186 5.4199e-21)
(15 0.000206037 -7.801e-21)
(15 0.000206878 -1.98458e-21)
(15 0.000207672 1.78421e-21)
(15 0.000208362 1.55925e-21)
(15 0.00020901 1.44747e-20)
(15 0.00020958 1.70402e-20)
(15 0.000210147 -7.00457e-21)
(15 0.000210634 -1.5971e-20)
(15 0.000211123 0)
(15 0.000211498 3.17856e-22)
(15 0.000211847 8.04345e-21)
(15 0.000212153 -1.0059e-22)
(15 0.000212419 -7.74166e-21)
(15 0.000212657 0)
(15 0.000212781 1.61339e-20)
(15 0.000212905 -3.82212e-21)
(15 0.000212947 -6.88917e-21)
(15 0.000212987 -2.77288e-21)
(15 0.000212946 -8.06425e-21)
(15 0.00021286 -9.88044e-21)
(15 0.000212666 4.05738e-21)
(15 0.000212422 2.21482e-21)
(15 0.000212166 8.07281e-21)
(15 0.000211859 -2.69681e-21)
(15 0.000211525 8.08997e-21)
(15 0.00021103 -6.22228e-21)
(15.0001 0.000210618 -4.65686e-21)
(15.0001 0.000210145 -1.15702e-20)
(15.0001 0.000209521 3.78664e-21)
(15.0001 0.000208884 1.99637e-20)
(15.0001 0.000208155 -1.20952e-20)
(15.0001 0.000207499 -7.92462e-21)
(15.0001 0.000206713 9.07608e-21)
(15.0001 0.000205898 7.92762e-21)
(15.0001 0.000204898 2.92223e-21)
(15.0001 0.000204046 -2.60613e-20)
(15.0001 0.000203025 5.42105e-21)
(15.0001 0.000201893 2.21073e-21)
(15.0001 0.000200802 -1.5572e-20)
(15.0001 0.000199674 1.97043e-20)
(15.0001 0.000198463 1.53987e-21)
(15.0001 0.0001972 -7.67908e-21)
(15.0001 0.000195893 -5.31892e-21)
(15.0001 0.000194504 1.43066e-20)
(15.0001 0.000192948 -1.44953e-20)
(15.0001 0.000191518 6.57634e-21)
(15.0001 0.000189944 7.54906e-21)
(15.0001 0.000188309 7.44809e-21)
(15.0001 0.000186685 -1.50424e-20)
(15.0001 0.000184926 -2.2519e-20)
(15.0001 0.00018326 7.16851e-23)
(15.0001 0.000181417 7.26904e-21)
(15.0001 0.000179485 0)
(15.0001 0.000177632 8.36344e-21)
(15.0001 0.000175595 0)
(15.0001 0.000173563 -7.11267e-21)
(15.0001 0.000171506 8.8621e-21)
(15.0002 0.000169387 -1.99271e-21)
(15.0002 0.000167093 9.03058e-21)
(15.0002 0.00016488 6.85733e-21)
(15.0002 0.000162526 -1.85667e-20)
(15.0002 0.00016023 -3.99185e-21)
(15.0002 0.000157761 2.89411e-21)
(15.0002 0.00015541 1.60839e-20)
(15.0002 0.00015287 -3.20555e-21)
(15.0002 0.000150193 0)
(15.0002 0.000147643 3.41217e-21)
(15.0002 0.000144932 1.60443e-20)
(15.0002 0.000142228 1.56789e-20)
(15.0002 0.000139547 -1.57123e-20)
(15.0002 0.000136745 3.91394e-21)
(15.0002 0.000133811 1.01399e-22)
(15.0002 0.000130978 5.57256e-21)
(15.0002 0.000127881 -5.54847e-21)
(15.0002 0.000124876 1.09696e-20)
(15.0002 0.000121867 6.47825e-22)
(15.0002 0.000118742 -1.97895e-20)
(15.0002 0.000115725 -4.92671e-21)
(15.0002 0.000112504 -4.46148e-21)
(15.0002 0.000109278 -1.10512e-22)
(15.0002 0.000106056 1.18786e-22)
(15.0002 0.000102679 4.33179e-21)
(15.0002 9.92971e-05 1.94242e-25)
(15.0002 9.58915e-05 -2.51865e-20)
(15.0002 9.25398e-05 1.2802e-20)
(15.0002 8.9089e-05 -1.23543e-20)
(15.0002 8.55235e-05 1.13154e-20)
(15.0002 8.20861e-05 -1.09636e-20)
(15.0002 7.84981e-05 9.15782e-22)
(15.0002 7.50204e-05 9.84777e-21)
(15.0002 7.13609e-05 -8.80323e-22)
(15.0002 6.7762e-05 -6.19935e-21)
(15.0002 6.41695e-05 5.82908e-21)
(15.0002 6.05161e-05 2.15753e-21)
(15.0002 5.66704e-05 -2.85152e-21)
(15.0002 5.29859e-05 -1.09429e-20)
(15.0002 4.92586e-05 4.99084e-21)
(15.0002 4.54452e-05 -3.65666e-21)
(15.0002 4.16909e-05 1.92995e-21)
(15.0002 3.77778e-05 4.01152e-21)
(15.0002 3.40077e-05 -1.60357e-21)
(15.0002 3.01859e-05 5.00233e-22)
(15.0002 2.61609e-05 1.72635e-21)
(15.0002 2.24257e-05 -1.90428e-21)
(15.0002 1.89202e-05 1.11782e-21)
(15.0002 1.54088e-05 5.00339e-22)
(15.0002 1.11553e-05 7.1123e-22)
(15.0001 6.41291e-06 -3.49214e-22)
(15.0001 2.27026e-06 -2.42891e-22)
(15 2.30497e-07 1.36219e-22)
(15.0001 2.48903e-06 -1.80767e-23)
(14.9993 3.65646e-06 1.22644e-23)
(14.9997 1.05485e-05 -1.43599e-22)
(14.9999 3.45108e-06 -3.28387e-23)
(14.9998 5.7507e-06 -5.58119e-22)
(14.9997 1.39205e-05 7.83713e-22)
(14.9997 2.39418e-05 -5.93488e-22)
(14.9997 3.28253e-05 -1.31567e-21)
(14.9996 4.05839e-05 5.12434e-23)
(14.9996 4.82073e-05 4.799e-22)
(14.9996 5.65466e-05 1.17383e-22)
(14.9996 6.50988e-05 -1.74073e-21)
(14.9996 7.36427e-05 9.66004e-22)
(14.9996 8.23062e-05 3.03165e-21)
(14.9996 9.09092e-05 -2.1193e-21)
(14.9996 9.9698e-05 9.0198e-21)
(14.9995 0.000108522 8.28495e-22)
(14.9995 0.000117337 -6.32506e-21)
(14.9995 0.000126376 -9.18463e-22)
(14.9995 0.000135377 4.41688e-21)
(14.9995 0.000144416 -1.98399e-23)
(14.9995 0.000153496 -2.48814e-21)
(14.9995 0.000162719 -8.93142e-21)
(14.9995 0.000171828 -6.49344e-21)
(14.9995 0.000181094 -2.05515e-23)
(14.9995 0.000190252 -3.13129e-21)
(14.9995 0.000199553 6.50659e-21)
(14.9995 0.000208877 2.78055e-22)
(14.9995 0.000218082 2.22699e-22)
(14.9995 0.000227276 -4.04346e-21)
(14.9995 0.000236515 -3.88794e-21)
(14.9995 0.000245706 3.95068e-21)
(14.9995 0.000254818 2.07735e-22)
(14.9995 0.000263943 -1.29957e-20)
(14.9995 0.00027304 3.48717e-20)
(14.9995 0.000281947 4.66653e-21)
(14.9995 0.000290909 8.80459e-21)
(14.9995 0.000299719 -9.67762e-21)
(14.9995 0.000308525 -1.73744e-22)
(14.9995 0.000317457 9.15858e-21)
(14.9995 0.000326059 2.30072e-20)
(14.9995 0.000334755 1.45773e-20)
(14.9995 0.000343294 -1.91177e-21)
(14.9995 0.000351676 9.04762e-21)
(14.9996 0.000360034 0)
(14.9996 0.000368376 3.32132e-21)
(14.9996 0.00037652 -5.86375e-21)
(14.9996 0.000384776 2.06934e-20)
(14.9996 0.000392769 -1.16233e-20)
(14.9996 0.000400555 -2.10203e-20)
(14.9996 0.000408442 6.0703e-21)
(14.9996 0.000416176 8.8312e-21)
(14.9996 0.000423808 4.45249e-21)
(14.9996 0.000431251 2.97979e-20)
(14.9996 0.000438803 1.50302e-20)
(14.9996 0.00044606 -7.05847e-23)
(14.9996 0.000453234 5.07185e-21)
(14.9996 0.000460341 -6.63084e-21)
(14.9996 0.000467307 -1.36416e-20)
(14.9996 0.000474081 2.25467e-20)
(14.9996 0.000480887 1.55202e-20)
(14.9996 0.000487482 5.96082e-22)
(14.9997 0.000493878 0)
(14.9997 0.000500305 7.33024e-21)
(14.9997 0.000506511 -7.17754e-21)
(14.9997 0.000512637 1.42206e-20)
(14.9997 0.000518614 4.12212e-23)
(14.9997 0.000524471 -5.28647e-23)
(14.9997 0.000530311 -1.38589e-20)
(14.9997 0.000535908 -1.49157e-20)
(14.9997 0.000541342 3.14439e-24)
(14.9997 0.000546637 1.50275e-20)
(14.9997 0.00055187 1.52166e-20)
(14.9997 0.000556908 -7.62976e-21)
(14.9997 0.000561771 3.33908e-21)
(14.9998 0.000566658 -7.70367e-21)
(14.9998 0.000571323 -1.29418e-20)
(14.9998 0.00057575 4.97621e-21)
(14.9998 0.00058026 7.84107e-21)
(14.9998 0.000584465 1.24997e-20)
(14.9998 0.000588535 -4.38974e-21)
(14.9998 0.000592382 1.21597e-20)
(14.9998 0.000596228 4.02208e-21)
(14.9998 0.000599904 -1.98925e-20)
(14.9998 0.000603476 -8.09736e-21)
(14.9998 0.000606771 8.10873e-21)
(14.9999 0.000609921 1.45349e-20)
(14.9999 0.000613057 -1.86978e-24)
(14.9999 0.000616004 8.21085e-21)
(14.9999 0.000618735 2.0366e-23)
(14.9999 0.000621358 -1.06235e-20)
(14.9999 0.000623935 -1.04235e-20)
(14.9999 0.000626261 -1.85704e-20)
(14.9999 0.000628391 1.49941e-20)
(14.9999 0.000630365 1.67754e-20)
(14.9999 0.000632211 3.75308e-21)
(15 0.000634016 3.10059e-21)
(15 0.000635539 -9.2754e-21)
(15 0.00063699 -8.47986e-21)
(15 0.000638137 -2.84722e-24)
(15 0.000639214 8.386e-21)
(15 0.000640154 8.44042e-21)
(15 0.000640957 -2.50674e-24)
(15 0.000641688 -8.54232e-21)
(15 0.000642113 -1.7108e-20)
(15 0.000642461 6.56193e-21)
(15.0001 0.000642523 7.29756e-21)
(15.0001 0.00064254 -9.98732e-21)
(15.0001 0.000642423 -1.58362e-23)
(15.0001 0.000642143 6.64646e-21)
(15.0001 0.000641658 1.70725e-20)
(15.0001 0.000640908 -1.94591e-20)
(15.0001 0.000640106 -8.49492e-21)
(15.0001 0.000639184 -1.60167e-23)
(15.0001 0.000638033 3.07302e-21)
(15.0001 0.000636675 1.937e-21)
(15.0002 0.000635295 7.0109e-21)
(15.0002 0.000633753 -8.50912e-21)
(15.0002 0.00063191 3.98259e-21)
(15.0002 0.000629946 9.32585e-23)
(15.0002 0.00062779 -4.40739e-21)
(15.0002 0.00062562 2.15384e-20)
(15.0002 0.0006232 -6.64484e-23)
(15.0002 0.00062062 -1.6773e-20)
(15.0002 0.000617699 -1.36996e-20)
(15.0003 0.000614849 2.98635e-23)
(15.0003 0.000611726 1.97607e-20)
(15.0003 0.000608346 -5.94184e-21)
(15.0003 0.000604972 8.3278e-21)
(15.0003 0.000601388 1.26931e-20)
(15.0003 0.000597571 -1.47882e-20)
(15.0003 0.000593665 -1.64793e-20)
(15.0003 0.000589584 2.35029e-20)
(15.0003 0.000585301 1.61285e-20)
(15.0003 0.000580725 -7.28663e-21)
(15.0003 0.000576103 -9.09774e-23)
(15.0004 0.000571324 -1.58886e-22)
(15.0004 0.000566351 -8.05291e-21)
(15.0004 0.000561261 -2.41375e-20)
(15.0004 0.000555894 4.55598e-22)
(15.0004 0.000550532 2.50088e-20)
(15.0004 0.000544915 1.65274e-20)
(15.0004 0.000539026 -1.06968e-21)
(15.0004 0.000533141 -7.10589e-23)
(15.0004 0.000527003 1.58631e-21)
(15.0004 0.000520668 0)
(15.0004 0.000514221 1.9489e-21)
(15.0005 0.000507643 7.64394e-21)
(15.0005 0.000500683 7.33874e-21)
(15.0005 0.000493811 -1.47977e-20)
(15.0005 0.000486678 -2.6873e-21)
(15.0005 0.000479386 7.12874e-21)
(15.0005 0.000471871 3.24138e-21)
(15.0005 0.000464432 1.3793e-20)
(15.0005 0.000456703 -1.04826e-20)
(15.0005 0.000448617 1.3902e-20)
(15.0005 0.000440616 -1.08221e-20)
(15.0005 0.000432329 1.77811e-20)
(15.0005 0.000423972 -1.78225e-20)
(15.0005 0.000415534 4.59609e-21)
(15.0006 0.000406854 1.07488e-20)
(15.0006 0.000397927 1.57482e-20)
(15.0006 0.000389059 6.20701e-21)
(15.0006 0.000379728 4.77088e-21)
(15.0006 0.000370492 6.2193e-21)
(15.0006 0.000361191 5.70372e-21)
(15.0006 0.00035164 -1.66173e-20)
(15.0006 0.000342095 -1.65094e-20)
(15.0006 0.000332247 5.66813e-21)
(15.0006 0.000322297 -5.42787e-21)
(15.0006 0.000312296 1.31895e-22)
(15.0006 0.000302125 -5.33327e-21)
(15.0006 0.000291821 -3.02408e-20)
(15.0006 0.000281502 2.21573e-22)
(15.0006 0.000271091 1.46331e-20)
(15.0006 0.000260445 9.83178e-21)
(15.0006 0.00024974 8.1227e-21)
(15.0006 0.000239127 -2.18277e-20)
(15.0006 0.000228268 8.63625e-21)
(15.0006 0.000217505 4.62296e-21)
(15.0006 0.000206463 8.01698e-21)
(15.0006 0.000195479 6.32884e-21)
(15.0006 0.000184409 -4.16175e-21)
(15.0006 0.000173248 -2.80807e-21)
(15.0006 0.000161891 -8.64719e-21)
(15.0006 0.000150692 -6.73783e-21)
(15.0006 0.000139333 -2.33996e-21)
(15.0006 0.000127875 -6.27535e-21)
(15.0006 0.00011654 1.48047e-21)
(15.0006 0.000105 -1.35631e-21)
(15.0006 9.34989e-05 1.25067e-21)
(15.0006 8.18334e-05 -7.97891e-23)
(15.0006 7.03397e-05 -1.65678e-21)
(15.0005 5.97491e-05 1.16911e-21)
(15.0005 4.87595e-05 3.33363e-21)
(15.0005 3.57809e-05 -2.82751e-22)
(15.0004 2.0777e-05 -4.80435e-23)
(15.0003 8.4352e-06 -8.47148e-22)
(15.0002 5.26549e-06 4.54985e-22)
(15.0004 1.64836e-05 -7.70381e-23)
(15.0011 5.91261e-06 -6.72328e-23)
(14.9987 3.35232e-06 1.56972e-23)
(14.9994 2.02461e-05 2.09303e-23)
(14.9997 1.59938e-05 1.1007e-22)
(14.9997 1.20655e-05 -3.32819e-22)
(14.9996 1.83337e-05 -3.32531e-22)
(14.9995 3.29801e-05 1.41044e-21)
(14.9994 4.92926e-05 -3.73304e-22)
(14.9994 6.3729e-05 0)
(14.9994 7.66945e-05 -3.04963e-21)
(14.9993 9.00795e-05 4.90818e-21)
(14.9993 0.000104147 -4.48829e-21)
(14.9993 0.000118461 1.02465e-21)
(14.9993 0.000132837 1.10929e-21)
(14.9993 0.000147252 -4.57013e-21)
(14.9993 0.000161908 3.58096e-21)
(14.9992 0.000176639 1.78118e-21)
(14.9992 0.000191375 -9.06972e-21)
(14.9992 0.000206345 -9.63644e-21)
(14.9992 0.000221331 2.99874e-21)
(14.9992 0.000236429 3.25682e-21)
(14.9992 0.000251629 1.169e-20)
(14.9992 0.000266922 2.75338e-21)
(14.9992 0.000282239 3.68016e-21)
(14.9992 0.000297678 -6.87316e-21)
(14.9992 0.000313012 3.25363e-21)
(14.9992 0.000328488 -1.46202e-20)
(14.9992 0.000344038 1.50994e-20)
(14.9992 0.000359436 3.60924e-21)
(14.9992 0.000374801 3.86265e-21)
(14.9992 0.000390265 -3.9388e-21)
(14.9992 0.000405605 -8.41706e-21)
(14.9992 0.000420948 1.27592e-20)
(14.9992 0.000436268 -2.16492e-20)
(14.9992 0.000451528 -1.34722e-20)
(14.9992 0.000466573 1.82189e-20)
(14.9992 0.000481678 1.77745e-20)
(14.9992 0.00049654 8.96646e-21)
(14.9992 0.000511349 -4.99987e-21)
(14.9992 0.000526245 3.91296e-21)
(14.9992 0.000540818 -1.81976e-20)
(14.9992 0.000555338 2.36197e-20)
(14.9992 0.000569787 5.51684e-21)
(14.9992 0.000583989 9.13106e-21)
(14.9992 0.000598198 9.1296e-21)
(14.9993 0.000612258 0)
(14.9993 0.000626022 -5.84587e-21)
(14.9993 0.000639818 2.72278e-21)
(14.9993 0.000653354 1.52389e-20)
(14.9993 0.000666663 -1.23878e-20)
(14.9993 0.000679915 -8.88957e-21)
(14.9993 0.000693035 1.1338e-20)
(14.9993 0.000706 -1.51652e-20)
(14.9993 0.000718585 -1.08453e-20)
(14.9993 0.000731237 2.36959e-20)
(14.9993 0.000743591 6.60358e-21)
(14.9994 0.000755822 8.42327e-21)
(14.9994 0.000767782 1.78977e-20)
(14.9994 0.000779585 1.29638e-21)
(14.9994 0.00079118 -1.38408e-20)
(14.9994 0.000802633 1.47914e-20)
(14.9994 0.000813838 2.19177e-20)
(14.9994 0.000824749 7.59669e-21)
(14.9994 0.000835586 7.14552e-21)
(14.9994 0.000846204 5.12214e-23)
(14.9995 0.000856558 -2.1657e-20)
(14.9995 0.000866686 1.40225e-20)
(14.9995 0.000876656 7.38112e-21)
(14.9995 0.000886422 6.73343e-21)
(14.9995 0.000895933 -1.40771e-20)
(14.9995 0.000905176 -8.9856e-24)
(14.9995 0.000914219 1.41909e-21)
(14.9995 0.000923127 -7.60018e-21)
(14.9996 0.000931764 -9.6584e-21)
(14.9996 0.00094005 1.33955e-20)
(14.9996 0.000948185 1.32907e-20)
(14.9996 0.000956177 -5.2743e-21)
(14.9996 0.00096385 -5.08472e-21)
(14.9996 0.000971308 -1.76997e-20)
(14.9997 0.000978495 3.25047e-21)
(14.9997 0.00098546 -4.41977e-21)
(14.9997 0.000992061 -1.61581e-20)
(14.9997 0.000998561 2.02802e-20)
(14.9997 0.00100482 4.05094e-22)
(14.9997 0.00101086 -1.63695e-20)
(14.9997 0.00101647 -2.74611e-23)
(14.9998 0.0010219 2.02272e-23)
(14.9998 0.00102716 -1.13484e-20)
(14.9998 0.00103221 8.30623e-21)
(14.9998 0.0010369 1.40739e-20)
(14.9998 0.00104138 2.4263e-21)
(14.9998 0.00104563 2.17412e-21)
(14.9999 0.00104955 1.13738e-23)
(14.9999 0.00105324 -1.02203e-20)
(14.9999 0.00105665 -1.54576e-20)
(14.9999 0.00105984 -8.53455e-21)
(14.9999 0.00106286 2.56202e-20)
(14.9999 0.00106546 7.72596e-21)
(15 0.00106783 -8.58342e-21)
(15 0.00106985 8.21808e-21)
(15 0.00107175 1.58267e-22)
(15 0.00107335 -8.71597e-21)
(15 0.00107464 3.10668e-22)
(15 0.0010758 0)
(15.0001 0.00107662 7.71279e-22)
(15.0001 0.0010772 -7.65277e-21)
(15.0001 0.00107735 -1.2309e-21)
(15.0001 0.00107731 1.01304e-20)
(15.0001 0.00107706 -1.20714e-20)
(15.0001 0.00107651 -8.6451e-21)
(15.0002 0.00107571 5.68634e-25)
(15.0002 0.00107456 -7.35437e-24)
(15.0002 0.00107317 1.72995e-20)
(15.0002 0.00107154 8.60036e-21)
(15.0002 0.00106953 -8.61281e-21)
(15.0002 0.00106729 8.62625e-21)
(15.0003 0.00106485 1.21537e-20)
(15.0003 0.00106221 -1.72272e-20)
(15.0003 0.0010591 -1.31261e-20)
(15.0003 0.00105573 4.33642e-21)
(15.0003 0.00105209 2.15822e-20)
(15.0004 0.00104832 4.66571e-21)
(15.0004 0.00104414 -1.34403e-20)
(15.0004 0.00103969 0)
(15.0004 0.00103493 8.51473e-21)
(15.0004 0.00102991 1.40577e-20)
(15.0004 0.00102451 -8.4606e-21)
(15.0005 0.00101893 -8.40078e-21)
(15.0005 0.00101315 8.42231e-21)
(15.0005 0.00100695 -1.29995e-20)
(15.0005 0.00100043 -8.32202e-21)
(15.0005 0.000993712 8.33946e-21)
(15.0005 0.000986741 1.53898e-20)
(15.0006 0.000979435 -2.29179e-20)
(15.0006 0.000971806 -6.65974e-22)
(15.0006 0.000963906 -7.24957e-21)
(15.0006 0.000955786 7.86686e-21)
(15.0006 0.000947368 -1.62009e-20)
(15.0006 0.000938605 8.09832e-21)
(15.0006 0.000929548 1.65066e-20)
(15.0007 0.000920355 8.70463e-21)
(15.0007 0.000910777 -7.06397e-21)
(15.0007 0.000900864 -7.77628e-21)
(15.0007 0.000890731 2.48665e-20)
(15.0007 0.000880305 -7.52004e-23)
(15.0007 0.000869638 -7.68457e-21)
(15.0008 0.000858596 0)
(15.0008 0.00084735 1.97083e-20)
(15.0008 0.000835694 -2.00134e-20)
(15.0008 0.000824048 0)
(15.0008 0.00081189 1.0277e-20)
(15.0008 0.000799479 -1.04044e-20)
(15.0008 0.000786842 7.31383e-21)
(15.0009 0.00077406 3.30115e-21)
(15.0009 0.000760935 1.44601e-20)
(15.0009 0.00074742 -9.93019e-23)
(15.0009 0.000733863 -2.16667e-20)
(15.0009 0.000719865 6.79214e-21)
(15.0009 0.000705603 -2.62354e-20)
(15.0009 0.00069126 1.7655e-20)
(15.0009 0.000676525 -1.10728e-20)
(15.0009 0.000661611 -6.4568e-21)
(15.001 0.000646536 -1.09921e-20)
(15.001 0.000630965 4.72571e-21)
(15.001 0.000615399 1.74672e-20)
(15.001 0.000599665 -5.36829e-21)
(15.001 0.000583523 -2.84015e-20)
(15.001 0.000567348 -2.17069e-20)
(15.001 0.000550792 1.63316e-20)
(15.001 0.000534044 -2.14329e-20)
(15.001 0.000517149 0)
(15.001 0.000500138 -1.55918e-20)
(15.001 0.000482842 -5.11594e-21)
(15.001 0.000465544 1.94663e-20)
(15.001 0.000448063 -9.81285e-21)
(15.001 0.00043024 1.47037e-20)
(15.0011 0.000412355 -1.77651e-20)
(15.0011 0.000394485 9.11385e-21)
(15.0011 0.000376294 1.24266e-20)
(15.0011 0.000358066 1.20278e-20)
(15.0011 0.000339658 1.13449e-20)
(15.0011 0.000321153 1.01408e-21)
(15.0011 0.000302564 2.00672e-22)
(15.0011 0.000283903 -4.13017e-21)
(15.001 0.000265038 3.74546e-21)
(15.001 0.000246255 0)
(15.001 0.00022725 -7.4579e-21)
(15.001 0.00020812 9.64133e-21)
(15.001 0.00018911 -4.36587e-21)
(15.001 0.000169935 -2.14897e-21)
(15.001 0.0001506 1.09443e-21)
(15.001 0.000131348 -7.58089e-21)
(15.0009 0.000112845 9.66453e-22)
(15.0009 9.46371e-05 2.41912e-21)
(15.0009 7.37798e-05 3.87531e-22)
(15.0008 4.95824e-05 4.89055e-23)
(15.0006 2.75783e-05 -5.23455e-22)
(15.0005 1.8391e-05 2.13503e-22)
(15.0005 2.51552e-05 -2.9787e-23)
(15.001 3.18654e-05 -3.0966e-22)
(15.0021 5.47545e-06 1.69135e-23)
(14.9982 4.09108e-06 -1.27779e-23)
(14.9989 2.49708e-05 8.93831e-23)
(14.9994 3.14215e-05 0)
(14.9995 2.50182e-05 0)
(14.9994 2.42473e-05 -1.73032e-22)
(14.9993 3.79027e-05 -2.77637e-22)
(14.9992 6.00412e-05 -6.21491e-22)
(14.9991 8.22266e-05 -3.15624e-22)
(14.9991 0.000101684 -1.04016e-21)
(14.9991 0.000120325 1.69861e-21)
(14.999 0.000139606 -1.22533e-21)
(14.999 0.000159549 -1.09826e-21)
(14.999 0.000179721 -1.76622e-21)
(14.999 0.000200066 1.10382e-23)
(14.999 0.000220617 -7.47564e-21)
(14.9989 0.000241267 5.74914e-21)
(14.9989 0.000262002 1.87141e-21)
(14.9989 0.000282955 2.89159e-21)
(14.9989 0.000304041 -7.4612e-21)
(14.9989 0.000325246 3.25872e-21)
(14.9989 0.000346514 -1.19032e-20)
(14.9989 0.000367955 1.0275e-22)
(14.9989 0.000389477 2.74825e-21)
(14.9989 0.00041117 -3.63297e-21)
(14.9989 0.000432744 6.97321e-21)
(14.9989 0.000454447 1.0146e-22)
(14.9989 0.000476231 -1.46439e-20)
(14.9989 0.000497933 -7.87833e-21)
(14.9989 0.00051954 3.91183e-21)
(14.9989 0.000541325 1.52291e-23)
(14.9989 0.000562992 0)
(14.9989 0.000584586 8.51425e-21)
(14.9989 0.000606137 1.30076e-20)
(14.9989 0.000627632 -8.71658e-21)
(14.9989 0.000648956 -9.36998e-21)
(14.9989 0.000670236 -9.04621e-21)
(14.9989 0.000691327 -8.94485e-21)
(14.9989 0.000712336 -9.20594e-21)
(14.9989 0.000733306 1.18104e-21)
(14.9989 0.000753932 -1.83374e-20)
(14.9989 0.000774491 -1.47011e-20)
(14.9989 0.00079488 3.78257e-21)
(14.9989 0.000815029 3.59872e-21)
(14.9989 0.000835169 5.691e-21)
(14.999 0.000855111 9.31918e-21)
(14.999 0.000874653 -7.91328e-23)
(14.999 0.00089417 6.04961e-21)
(14.999 0.000913376 1.82802e-20)
(14.999 0.000932369 9.07226e-21)
(14.999 0.000951152 -6.25274e-21)
(14.999 0.000969766 8.86777e-21)
(14.999 0.000988092 -4.82947e-21)
(14.999 0.00100615 -6.45066e-21)
(14.9991 0.00102406 -6.73006e-21)
(14.9991 0.00104162 6.73989e-21)
(14.9991 0.00105899 1.02511e-20)
(14.9991 0.00107595 -6.87094e-21)
(14.9991 0.00109277 1.51528e-20)
(14.9991 0.00110931 -1.12676e-21)
(14.9991 0.00112557 -2.30604e-20)
(14.9992 0.00114153 -7.14808e-21)
(14.9992 0.00115715 7.17226e-21)
(14.9992 0.00117255 7.29155e-21)
(14.9992 0.00118763 2.20261e-20)
(14.9992 0.0012024 -7.25408e-21)
(14.9993 0.0012169 -1.49868e-20)
(14.9993 0.00123105 5.31982e-22)
(14.9993 0.0012449 6.83263e-21)
(14.9993 0.0012585 -7.58088e-21)
(14.9993 0.00127176 6.44791e-21)
(14.9993 0.00128469 1.5433e-20)
(14.9994 0.00129728 1.23212e-20)
(14.9994 0.0013096 -2.15831e-20)
(14.9994 0.00132149 -1.36559e-20)
(14.9994 0.00133305 7.89592e-21)
(14.9994 0.00134444 2.58604e-21)
(14.9995 0.00135543 7.97993e-21)
(14.9995 0.00136601 3.05369e-21)
(14.9995 0.00137624 -9.62066e-21)
(14.9995 0.00138619 1.10086e-21)
(14.9995 0.00139573 -1.70031e-20)
(14.9996 0.00140498 1.21835e-20)
(14.9996 0.00141388 -4.17666e-21)
(14.9996 0.00142246 -2.48722e-20)
(14.9996 0.00143055 4.7421e-21)
(14.9997 0.00143836 1.67147e-20)
(14.9997 0.00144582 1.66857e-23)
(14.9997 0.00145298 5.46664e-21)
(14.9997 0.00145972 -8.40727e-21)
(14.9997 0.00146613 -2.29953e-20)
(14.9998 0.00147211 2.25733e-21)
(14.9998 0.00147777 1.80649e-24)
(14.9998 0.00148313 8.57049e-21)
(14.9998 0.00148803 8.60727e-21)
(14.9999 0.00149256 4.58323e-21)
(14.9999 0.00149678 6.42655e-21)
(14.9999 0.00150049 -7.79053e-21)
(14.9999 0.00150387 -8.70508e-21)
(15 0.00150681 -8.71979e-21)
(15 0.00150956 -8.56451e-21)
(15 0.00151184 2.6205e-20)
(15 0.00151363 8.75622e-21)
(15.0001 0.00151523 -9.2921e-21)
(15.0001 0.00151639 -8.77118e-21)
(15.0001 0.00151721 -9.76313e-21)
(15.0001 0.00151751 1.00152e-20)
(15.0002 0.00151748 -2.05257e-20)
(15.0002 0.00151707 -8.75672e-21)
(15.0002 0.00151617 2.82636e-20)
(15.0002 0.00151496 1.75093e-20)
(15.0003 0.0015134 -1.50875e-20)
(15.0003 0.00151138 -3.36641e-21)
(15.0003 0.001509 -2.4835e-23)
(15.0003 0.00150617 2.03548e-23)
(15.0004 0.00150299 1.74653e-20)
(15.0004 0.00149944 -3.64672e-21)
(15.0004 0.00149556 -1.25508e-20)
(15.0004 0.00149114 -4.61431e-21)
(15.0004 0.00148636 1.3067e-20)
(15.0005 0.00148117 1.7319e-20)
(15.0005 0.00147565 0)
(15.0005 0.00146963 -8.64671e-21)
(15.0005 0.0014633 -3.34641e-21)
(15.0006 0.00145655 0)
(15.0006 0.00144931 -5.70965e-21)
(15.0006 0.0014416 -5.93596e-21)
(15.0006 0.00143365 -6.1534e-21)
(15.0007 0.00142531 -8.52624e-21)
(15.0007 0.00141644 -6.54935e-21)
(15.0007 0.00140722 8.42595e-21)
(15.0007 0.00139758 -8.45341e-21)
(15.0008 0.00138752 3.92405e-23)
(15.0008 0.00137703 9.24455e-21)
(15.0008 0.0013662 7.60738e-21)
(15.0008 0.00135498 6.43416e-23)
(15.0009 0.00134329 -1.61849e-20)
(15.0009 0.00133125 -8.16528e-21)
(15.0009 0.00131879 0)
(15.0009 0.00130589 -9.62004e-24)
(15.0009 0.00129267 -7.37882e-22)
(15.001 0.00127899 -1.81148e-20)
(15.001 0.0012649 2.6485e-20)
(15.001 0.00125039 9.22192e-21)
(15.001 0.0012355 -3.47448e-20)
(15.001 0.00122034 0)
(15.0011 0.00120463 7.79794e-21)
(15.0011 0.00118861 2.19887e-21)
(15.0011 0.00117209 2.64757e-21)
(15.0011 0.0011553 7.5032e-21)
(15.0011 0.0011381 -1.04241e-20)
(15.0012 0.00112046 0)
(15.0012 0.00110251 7.38502e-21)
(15.0012 0.00108421 -3.56074e-21)
(15.0012 0.00106554 3.66723e-21)
(15.0012 0.00104639 -2.51351e-20)
(15.0013 0.0010271 1.11351e-20)
(15.0013 0.0010072 -1.0957e-22)
(15.0013 0.000986938 -1.10504e-20)
(15.0013 0.000966538 6.63413e-21)
(15.0013 0.000945713 -6.67765e-21)
(15.0013 0.000924547 -6.4641e-21)
(15.0013 0.000903161 2.41276e-20)
(15.0014 0.000881209 6.08435e-21)
(15.0014 0.000859062 5.14205e-21)
(15.0014 0.000836665 -1.72712e-20)
(15.0014 0.000813877 -2.28731e-20)
(15.0014 0.000790877 1.69125e-20)
(15.0014 0.000767502 -5.52504e-21)
(15.0014 0.000743885 1.11729e-22)
(15.0014 0.000720042 5.2312e-21)
(15.0014 0.000695927 0)
(15.0015 0.000671473 2.06744e-20)
(15.0015 0.000647056 -1.01315e-20)
(15.0015 0.000622308 -9.90429e-21)
(15.0015 0.000597235 -1.92739e-20)
(15.0015 0.000572032 -5.02953e-21)
(15.0015 0.000546749 1.30854e-20)
(15.0015 0.000521043 -8.70321e-21)
(15.0015 0.000495279 -3.6909e-21)
(15.0015 0.000469333 -7.88146e-21)
(15.0015 0.000443321 -1.20555e-20)
(15.0015 0.000417097 1.13129e-20)
(15.0015 0.000390731 1.10929e-22)
(15.0015 0.000364237 -1.12541e-22)
(15.0015 0.00033772 5.91079e-21)
(15.0014 0.000311012 7.36344e-21)
(15.0014 0.00028412 2.87031e-21)
(15.0014 0.000257206 9.35483e-22)
(15.0014 0.000230195 -3.65601e-21)
(15.0014 0.000203126 -3.39055e-21)
(15.0013 0.000176637 8.18068e-23)
(15.0013 0.00015067 3.14242e-21)
(15.0013 0.000122913 -3.74935e-21)
(15.0012 9.03564e-05 1.47609e-21)
(15.0011 5.72882e-05 5.54261e-24)
(15.0009 3.69902e-05 0)
(15.0007 3.8966e-05 -2.25514e-22)
(15.001 4.96693e-05 -2.73704e-22)
(15.0017 3.95006e-05 4.35074e-23)
(15.0029 6.71932e-06 2.347e-23)
(14.9978 4.32664e-06 -2.43724e-23)
(14.9985 2.66979e-05 -1.23714e-22)
(14.999 4.56343e-05 0)
(14.9993 4.38778e-05 3.46162e-22)
(14.9993 3.63409e-05 1.81698e-22)
(14.9991 4.31852e-05 -4.70993e-22)
(14.999 6.63155e-05 -9.98316e-22)
(14.9989 9.54595e-05 -4.43318e-22)
(14.9989 0.000122575 3.94594e-22)
(14.9988 0.000147308 -1.96068e-21)
(14.9988 0.000171834 3.14359e-21)
(14.9987 0.000197158 -1.65155e-21)
(14.9987 0.000223015 4.17767e-21)
(14.9987 0.000249227 -1.25885e-23)
(14.9987 0.000275633 2.29065e-21)
(14.9986 0.000302253 -1.7175e-21)
(14.9986 0.000328992 9.0579e-21)
(14.9986 0.000355877 6.87221e-21)
(14.9986 0.00038298 -2.0638e-21)
(14.9986 0.000410367 -1.82589e-22)
(14.9986 0.000437834 -3.26331e-21)
(14.9986 0.000465402 -2.77495e-21)
(14.9986 0.000493172 -6.57953e-21)
(14.9986 0.000521074 -2.99177e-21)
(14.9986 0.000548916 -7.21493e-21)
(14.9985 0.000576871 1.41606e-20)
(14.9985 0.000604988 -4.04321e-21)
(14.9985 0.000633052 -7.87482e-21)
(14.9985 0.000661006 -8.0655e-21)
(14.9985 0.000689209 -1.22178e-20)
(14.9985 0.000717221 -4.21076e-21)
(14.9985 0.000745183 0)
(14.9985 0.000773102 -1.31124e-20)
(14.9986 0.000800926 -8.91439e-21)
(14.9986 0.000828631 4.65107e-22)
(14.9986 0.000856259 -4.1982e-21)
(14.9986 0.000883657 -9.15946e-21)
(14.9986 0.000910952 -1.42562e-20)
(14.9986 0.000938099 -9.35682e-21)
(14.9986 0.000964946 1.8696e-20)
(14.9986 0.000991679 -1.54223e-21)
(14.9986 0.00101829 -1.49502e-20)
(14.9986 0.00104453 -3.75657e-21)
(14.9986 0.00107069 8.52757e-23)
(14.9986 0.00109666 -7.68244e-23)
(14.9987 0.00112212 -9.2535e-21)
(14.9987 0.00114747 9.21371e-21)
(14.9987 0.00117259 -9.17289e-21)
(14.9987 0.00119732 9.1377e-21)
(14.9987 0.00122184 8.76351e-23)
(14.9987 0.00124613 6.31139e-21)
(14.9987 0.00126999 9.16603e-21)
(14.9988 0.00129363 2.21922e-21)
(14.9988 0.00131697 -2.12818e-21)
(14.9988 0.0013399 2.02322e-21)
(14.9988 0.00136256 8.57373e-21)
(14.9988 0.00138481 -8.46666e-21)
(14.9989 0.00140673 -8.48811e-21)
(14.9989 0.00142834 1.53801e-20)
(14.9989 0.00144957 0)
(14.9989 0.00147045 -8.03989e-21)
(14.9989 0.001491 -1.57985e-20)
(14.999 0.00151112 7.75232e-21)
(14.999 0.00153078 -7.60568e-21)
(14.999 0.00155015 1.4923e-20)
(14.999 0.00156917 7.48494e-21)
(14.999 0.00158768 7.19084e-21)
(14.9991 0.00160579 -6.91815e-22)
(14.9991 0.00162357 -7.66004e-21)
(14.9991 0.001641 -1.33057e-20)
(14.9991 0.00165797 6.50455e-21)
(14.9992 0.00167435 6.23335e-21)
(14.9992 0.00169045 1.83647e-21)
(14.9992 0.00170614 -5.90755e-21)
(14.9992 0.00172134 -3.45214e-21)
(14.9993 0.00173616 -5.48617e-21)
(14.9993 0.00175054 -5.36846e-21)
(14.9993 0.00176443 1.32784e-20)
(14.9994 0.00177787 -1.63334e-20)
(14.9994 0.00179093 -6.27921e-23)