/*--------------------------------*- C++ -*----------------------------------*\
  =========                 |
  \\      /  F ield         | OpenFOAM: The Open Source CFD Toolbox
   \\    /   O peration     | Website:  https://openfoam.org
    \\  /    A nd           | Version:  10
     \\/     M anipulation  |
\*---------------------------------------------------------------------------*/
FoamFile
{
    format      ascii;
    class       volScalarField;
    location    "0.003";
    object      alphat;
}
// * * * * * * * * * * * * * * * * * * * * * * * * * * * * * * * * * * * * * //

dimensions      [1 -1 -1 0 0 0 0];

internalField   nonuniform List<scalar> 
53500
(
3.74581e-07
2.85423e-07
3.41841e-07
3.24834e-07
2.84952e-07
2.41724e-07
1.96142e-07
1.58346e-07
1.24376e-07
9.80325e-08
7.67281e-08
6.24237e-08
5.22756e-08
4.46341e-08
3.85712e-08
3.3697e-08
3.28195e-08
4.2566e-08
4.97623e-08
5.43421e-08
5.65443e-08
5.73575e-08
5.74666e-08
5.84102e-08
5.97813e-08
6.11477e-08
6.29543e-08
6.51588e-08
3.10543e-08
3.20262e-08
3.25377e-08
3.2824e-08
3.28363e-08
3.28202e-08
3.3065e-08
3.32536e-08
3.33165e-08
3.33793e-08
3.34113e-08
3.35998e-08
6.80797e-08
7.07779e-08
7.17499e-08
3.44788e-08
3.48534e-08
3.52186e-08
7.1216e-08
3.57632e-08
3.61901e-08
3.6551e-08
7.31219e-08
3.72634e-08
7.42172e-08
3.8102e-08
3.86544e-08
3.91226e-08
7.63772e-08
3.99726e-08
4.05314e-08
4.09766e-08
7.79155e-08
8.02634e-08
8.07759e-08
8.11958e-08
8.21396e-08
4.33178e-08
4.37562e-08
4.4066e-08
4.43224e-08
4.4552e-08
4.4752e-08
8.22492e-08
8.47316e-08
4.49771e-08
4.51205e-08
8.32548e-08
8.50773e-08
8.52175e-08
8.52796e-08
8.53003e-08
8.52894e-08
8.52304e-08
8.51043e-08
8.48953e-08
8.46062e-08
8.42164e-08
8.37095e-08
8.30743e-08
8.23115e-08
8.1414e-08
8.03677e-08
7.9172e-08
7.78309e-08
7.63448e-08
7.47237e-08
7.29636e-08
7.10538e-08
6.89886e-08
6.67682e-08
6.43891e-08
6.19254e-08
5.94282e-08
5.67973e-08
5.40531e-08
5.12245e-08
4.83413e-08
4.54249e-08
4.24936e-08
3.95653e-08
3.6655e-08
3.37783e-08
3.09306e-08
2.78563e-08
2.49286e-08
2.21675e-08
1.95865e-08
1.7204e-08
1.5043e-08
1.30613e-08
1.12306e-08
9.52889e-09
7.95126e-09
6.51081e-09
5.20233e-09
4.01295e-09
2.86806e-09
2.21932e-09
1.75306e-09
1.38231e-09
1.10867e-09
9.23238e-10
8.03669e-10
7.02872e-10
5.9715e-10
5.25072e-10
4.59046e-10
5.066e-10
5.07449e-10
4.94396e-10
4.75818e-10
4.4883e-10
4.13087e-10
3.75613e-10
3.46911e-10
3.48387e-10
3.96847e-10
4.88827e-10
5.95675e-10
6.96348e-10
7.58108e-10
6.66018e-10
4.3583e-10
4.91701e-10
1.00355e-09
1.64309e-09
2.08474e-09
2.25409e-09
2.40406e-09
2.88063e-09
3.9686e-09
7.93718e-09
1.25708e-08
9.34538e-09
1.65179e-08
2.93969e-08
3.86211e-08
4.38349e-08
5.47055e-08
1.84994e-07
4.28339e-07
6.02969e-07
7.86523e-07
9.58306e-07
1.11767e-06
1.26477e-06
1.40012e-06
1.52756e-06
1.64901e-06
1.76553e-06
1.87675e-06
1.98113e-06
2.08007e-06
2.1735e-06
2.261e-06
2.34255e-06
2.41798e-06
2.48642e-06
2.55137e-06
2.61048e-06
2.65407e-06
2.65966e-06
2.62378e-06
2.5211e-06
2.24693e-06
1.57837e-06
6.34802e-07
6.10848e-07
6.12647e-07
7.24851e-07
9.672e-07
8.40026e-05
7.7671e-05
8.4515e-05
8.29681e-05
7.83392e-05
7.24462e-05
6.51328e-05
5.78494e-05
5.0541e-05
4.37932e-05
3.70678e-05
3.11532e-05
2.63533e-05
2.24686e-05
1.92918e-05
1.65163e-05
1.42356e-05
1.2492e-05
1.09642e-05
9.73293e-06
8.65981e-06
7.77723e-06
7.13839e-06
7.04906e-06
7.14309e-06
7.32616e-06
7.66853e-06
7.97345e-06
7.91036e-06
8.22044e-06
8.41052e-06
8.50546e-06
8.48946e-06
8.47165e-06
8.56553e-06
8.64876e-06
8.71768e-06
8.6886e-06
8.69682e-06
8.77164e-06
9.23576e-06
9.37333e-06
9.46824e-06
9.19929e-06
9.3072e-06
9.45749e-06
9.9823e-06
9.74919e-06
9.87377e-06
1.00277e-05
1.05905e-05
1.0393e-05
1.09553e-05
1.07679e-05
1.09525e-05
1.11582e-05
1.17787e-05
1.16094e-05
1.1801e-05
1.19985e-05
1.26021e-05
1.28143e-05
1.30086e-05
1.31976e-05
1.33831e-05
1.31359e-05
1.32761e-05
1.34072e-05
1.35176e-05
1.36062e-05
1.36733e-05
1.41427e-05
1.41876e-05
1.37685e-05
1.37362e-05
1.41203e-05
1.40626e-05
1.39612e-05
1.38359e-05
1.36918e-05
1.35284e-05
1.33461e-05
1.3145e-05
1.29215e-05
1.26761e-05
1.24145e-05
1.2139e-05
1.18497e-05
1.15467e-05
1.12298e-05
1.08953e-05
1.05468e-05
1.01874e-05
9.82026e-06
9.44626e-06
9.06728e-06
8.68286e-06
8.29268e-06
7.89899e-06
7.50299e-06
7.11109e-06
6.72236e-06
6.33267e-06
5.94715e-06
5.57049e-06
5.20425e-06
4.84993e-06
4.50793e-06
4.17824e-06
3.86103e-06
3.55587e-06
3.26309e-06
2.98346e-06
2.71901e-06
2.47145e-06
2.2429e-06
2.03554e-06
1.84945e-06
1.68088e-06
1.5249e-06
1.37746e-06
1.23743e-06
1.1069e-06
9.86507e-07
8.74893e-07
7.71147e-07
6.82351e-07
6.02069e-07
5.27782e-07
4.59193e-07
3.97258e-07
3.42548e-07
2.93892e-07
2.49757e-07
2.10453e-07
1.75571e-07
1.45712e-07
1.21345e-07
9.97533e-08
8.27567e-08
6.85956e-08
5.63201e-08
4.63499e-08
3.9073e-08
3.6116e-08
3.84666e-08
4.44392e-08
5.15934e-08
6.17665e-08
8.22895e-08
1.0591e-07
1.29253e-07
1.51809e-07
1.7051e-07
1.82264e-07
1.82086e-07
1.82317e-07
2.03269e-07
2.84284e-07
4.85094e-07
9.88158e-07
2.17061e-06
4.85385e-06
9.66942e-06
1.70345e-05
2.09712e-05
2.26917e-05
2.59167e-05
3.52214e-05
4.21653e-05
4.67637e-05
5.01895e-05
5.29761e-05
5.53987e-05
5.73978e-05
5.90479e-05
6.05193e-05
6.19714e-05
6.34591e-05
6.49184e-05
6.62575e-05
6.74267e-05
6.84108e-05
6.9194e-05
6.97582e-05
7.01137e-05
7.03464e-05
7.05597e-05
7.071e-05
7.03536e-05
6.82635e-05
6.48752e-05
6.05583e-05
5.60737e-05
5.26945e-05
5.0392e-05
5.4279e-05
5.99193e-05
7.60517e-05
0.000102159
0.000281057
0.00027398
0.000285365
0.000284389
0.000277964
0.000268771
0.000256488
0.000243239
0.000229192
0.000214898
0.000199188
0.000183409
0.000169198
0.000156335
0.000144653
0.000133677
0.000123519
0.000114564
0.00010608
9.86885e-05
9.17977e-05
8.56827e-05
8.08974e-05
8.01996e-05
8.08136e-05
8.21012e-05
8.45264e-05
8.66003e-05
8.83621e-05
9.06264e-05
9.19323e-05
9.25589e-05
9.24344e-05
9.22705e-05
9.28784e-05
9.34155e-05
9.37439e-05
9.36425e-05
9.36709e-05
9.41525e-05
9.48726e-05
9.55994e-05
9.61547e-05
9.67285e-05
9.7506e-05
9.84467e-05
9.93782e-05
0.000100123
0.000100962
0.000101898
0.000102942
0.000103955
0.000105027
0.000106105
0.000107237
0.000108407
0.000109599
0.000110795
0.000111913
0.000112988
0.000114
0.000115016
0.000116005
0.000116969
0.000117882
0.00011877
0.000119552
0.000120204
0.00012075
0.000121183
0.000121522
0.000121698
0.000121815
0.000121893
0.000121814
0.000121547
0.000121183
0.000120671
0.00012004
0.000119312
0.000118481
0.000117549
0.000116513
0.000115351
0.000114061
0.000112671
0.000111188
0.00010961
0.000107931
0.000106153
0.000104257
0.000102247
0.000100133
9.79279e-05
9.56317e-05
9.3251e-05
9.07772e-05
8.82016e-05
8.55328e-05
8.27726e-05
7.99602e-05
7.7083e-05
7.41067e-05
7.10655e-05
6.79945e-05
6.49056e-05
6.18132e-05
5.87225e-05
5.56364e-05
5.25598e-05
4.94916e-05
4.64394e-05
4.34239e-05
4.04671e-05
3.75989e-05
3.48592e-05
3.22927e-05
2.99176e-05
2.77044e-05
2.55995e-05
2.35543e-05
2.15578e-05
1.96488e-05
1.78468e-05
1.61418e-05
1.45515e-05
1.30963e-05
1.1728e-05
1.04306e-05
9.20339e-06
8.06792e-06
7.04177e-06
6.10966e-06
5.24745e-06
4.46398e-06
3.75375e-06
3.12603e-06
2.58791e-06
2.11661e-06
1.71861e-06
1.39059e-06
1.11443e-06
8.94955e-07
7.35316e-07
6.57668e-07
6.56739e-07
7.20983e-07
8.64285e-07
1.13665e-06
1.55993e-06
2.07179e-06
2.55641e-06
2.97396e-06
3.27732e-06
3.45078e-06
3.42056e-06
3.42213e-06
3.84241e-06
5.4638e-06
9.29444e-06
1.78598e-05
3.58493e-05
6.49432e-05
9.83409e-05
0.00013423
0.000149865
0.000155168
0.000156606
0.000157906
0.000158802
0.000159422
0.000159941
0.0001606
0.000161494
0.000162079
0.000162371
0.000162689
0.000163331
0.000164358
0.000165541
0.000166604
0.000167404
0.000167907
0.000168099
0.000167965
0.000167519
0.000166849
0.000166105
0.000165386
0.000164711
0.000163882
0.000162786
0.000161518
0.00016076
0.000161761
0.000166228
0.000174804
0.000188276
0.000208127
0.000224779
0.000491351
0.000483299
0.000495609
0.000491288
0.000478531
0.000461273
0.000439692
0.000416785
0.000393442
0.000370031
0.000345584
0.000321303
0.000299661
0.00028011
0.000262541
0.00024604
0.000230766
0.000217184
0.000204231
0.000192894
0.000182102
0.000172396
0.000163568
0.00015634
0.000151447
0.000149661
0.000150992
0.000152344
0.000153717
0.000156018
0.00015701
0.000157201
0.000156413
0.00015565
0.000156106
0.000156512
0.000156672
0.000156291
0.000156102
0.000156583
0.000157292
0.000158162
0.000158813
0.000159644
0.000160648
0.000161888
0.000163012
0.000164117
0.000165265
0.000166549
0.000167894
0.000169406
0.000170831
0.000172453
0.000174083
0.000175774
0.000177437
0.000179274
0.00018096
0.000182597
0.000184116
0.000185719
0.000187321
0.000188912
0.000190464
0.000192057
0.000193491
0.000194779
0.000195946
0.000196992
0.000197934
0.000198649
0.000199345
0.00020006
0.000200554
0.000200767
0.000200899
0.000200854
0.000200662
0.000200349
0.000199915
0.000199353
0.000198657
0.000197793
0.000196759
0.000195587
0.000194292
0.000192874
0.000191328
0.000189652
0.000187815
0.000185819
0.000183679
0.000181415
0.000179024
0.000176512
0.000173861
0.000171057
0.000168113
0.00016503
0.000161825
0.000158454
0.000154883
0.000151171
0.000147378
0.000143531
0.000139651
0.000135748
0.000131822
0.00012787
0.000123874
0.000119832
0.000115759
0.000111653
0.000107511
0.00010334
9.91481e-05
9.4928e-05
9.0662e-05
8.63272e-05
8.1897e-05
7.73733e-05
7.27862e-05
6.81812e-05
6.36298e-05
5.92178e-05
5.49816e-05
5.08086e-05
4.66576e-05
4.25387e-05
3.85353e-05
3.47464e-05
3.11354e-05
2.76255e-05
2.42727e-05
2.1079e-05
1.8115e-05
1.54375e-05
1.29842e-05
1.07854e-05
8.85822e-06
7.20221e-06
5.83358e-06
4.82031e-06
4.31226e-06
4.28028e-06
4.66109e-06
5.55054e-06
7.22707e-06
9.65171e-06
1.24585e-05
1.50075e-05
1.70593e-05
1.85822e-05
1.96821e-05
1.99331e-05
2.03461e-05
2.28428e-05
3.11526e-05
4.82648e-05
7.86995e-05
0.000124019
0.000178484
0.000213573
0.000233938
0.000243186
0.000245558
0.000245404
0.000245179
0.000245111
0.000245152
0.00024533
0.000245836
0.000247042
0.000247869
0.000248191
0.000248494
0.000249327
0.000250928
0.000252969
0.000254942
0.000256576
0.000257823
0.000258676
0.000259139
0.000259227
0.000259018
0.00025879
0.000258913
0.000259943
0.000262118
0.000265105
0.000268651
0.000272925
0.000278335
0.000285611
0.000294284
0.000304775
0.000318852
0.000329527
0.000729667
0.000720503
0.000733027
0.000723734
0.000702154
0.000673741
0.000639471
0.000603335
0.000567504
0.000532009
0.000496162
0.000460887
0.00042966
0.000401677
0.000376937
0.000354003
0.000333066
0.000314618
0.000297134
0.000282008
0.000267584
0.000254723
0.000242808
0.000231827
0.000223016
0.000215999
0.000213246
0.0002116
0.00021078
0.000212058
0.000211806
0.000210871
0.000208869
0.000207084
0.000207108
0.000207093
0.000206867
0.000205987
0.000205424
0.000205776
0.000206471
0.000207367
0.000207985
0.00020883
0.000209948
0.000211392
0.000212753
0.000214007
0.000215386
0.00021695
0.000218666
0.000220498
0.000222347
0.000224352
0.000226439
0.000228622
0.000230865
0.000233223
0.000235475
0.000237693
0.000239867
0.00024211
0.000244382
0.000246673
0.000248952
0.000251245
0.000253447
0.00025551
0.000257454
0.000259289
0.000261028
0.000262609
0.000264124
0.000265602
0.000266926
0.000268028
0.000268961
0.000269692
0.000270257
0.000270693
0.000271002
0.00027117
0.00027118
0.000270984
0.000270578
0.000270001
0.00026927
0.00026839
0.000267358
0.00026617
0.000264778
0.000263182
0.000261405
0.000259468
0.000257375
0.000255126
0.000252696
0.000250063
0.000247246
0.000244249
0.000241059
0.000237599
0.000233834
0.000229853
0.000225748
0.000221568
0.000217346
0.0002131
0.000208834
0.000204545
0.000200203
0.000195807
0.000191379
0.000186916
0.000182409
0.000177863
0.000173287
0.000168669
0.000163996
0.000159245
0.000154373
0.000149367
0.000144214
0.0001389
0.000133397
0.000127698
0.000121809
0.000115671
0.000109315
0.000102792
9.62237e-05
8.96224e-05
8.29584e-05
7.6175e-05
6.93701e-05
6.25406e-05
5.58475e-05
4.94781e-05
4.32784e-05
3.73623e-05
3.18399e-05
2.68236e-05
2.23179e-05
1.88078e-05
1.69807e-05
1.68359e-05
1.81477e-05
2.1189e-05
2.64412e-05
3.34347e-05
4.09095e-05
4.72186e-05
5.20899e-05
5.58507e-05
5.91389e-05
6.08551e-05
6.30105e-05
7.01425e-05
8.9035e-05
0.000121768
0.000169364
0.000230617
0.000280033
0.000303723
0.000316596
0.000322195
0.000323389
0.000323309
0.000323545
0.000324267
0.00032523
0.000326402
0.000327878
0.000331059
0.000333886
0.000335794
0.000337459
0.000339928
0.000344034
0.000349468
0.000355298
0.000360972
0.000366413
0.000371631
0.000376648
0.00038149
0.000386221
0.000390999
0.000395931
0.000401139
0.000406652
0.000412366
0.000418265
0.000424447
0.000431001
0.000438108
0.000444794
0.000449477
0.000450594
0.00044456
0.00100221
0.000992043
0.00100377
0.000987916
0.000955239
0.000912805
0.000862767
0.000810051
0.000758728
0.000708282
0.000658504
0.000609947
0.000566959
0.000528594
0.000495078
0.000464281
0.000436508
0.000412297
0.000389476
0.000370018
0.000351433
0.000335094
0.00031991
0.000305582
0.000293769
0.000282717
0.000274697
0.000267758
0.000263153
0.000262694
0.000260455
0.000257914
0.000254283
0.000251201
0.000250714
0.000250114
0.000249364
0.000247823
0.000246788
0.000246969
0.000247579
0.00024844
0.000248934
0.000249739
0.000250925
0.000252536
0.000254073
0.000255424
0.000256994
0.000258805
0.000260849
0.000262979
0.000265206
0.000267579
0.000270098
0.000272753
0.000275538
0.000278416
0.000281213
0.000283996
0.000286794
0.000289666
0.000292602
0.00029559
0.000298595
0.000301613
0.000304591
0.00030744
0.000310176
0.000312821
0.000315383
0.000317838
0.00032021
0.000322526
0.000324739
0.000326772
0.000328578
0.00033017
0.000331588
0.000332879
0.00033405
0.000335079
0.000335942
0.000336569
0.00033696
0.000337154
0.000337174
0.000337029
0.000336718
0.000336235
0.000335511
0.000334543
0.00033336
0.00033199
0.000330439
0.000328704
0.000326744
0.000324528
0.000322081
0.00031941
0.000316464
0.000313115
0.000309329
0.000305228
0.000300948
0.000296565
0.00029213
0.000287675
0.000283211
0.000278735
0.000274206
0.000269627
0.00026503
0.000260413
0.00025576
0.000251082
0.000246387
0.000241657
0.000236886
0.000232057
0.000227121
0.000222072
0.000216883
0.000211529
0.000205961
0.000200154
0.000194107
0.000187734
0.000181012
0.000173878
0.000166347
0.000158374
0.000150017
0.000141299
0.000132341
0.000123091
0.000113653
0.00010412
9.44665e-05
8.47653e-05
7.51883e-05
6.60003e-05
5.71871e-05
4.9878e-05
4.58439e-05
4.54522e-05
4.82298e-05
5.44093e-05
6.41076e-05
7.61971e-05
8.82478e-05
9.78567e-05
0.000105052
0.000110937
0.000116925
0.000121233
0.000126327
0.000138572
0.000165853
0.000208505
0.000267188
0.000331023
0.000366884
0.000382675
0.000391217
0.000395523
0.00039751
0.000399212
0.000401545
0.00040485
0.000408808
0.000413508
0.000418455
0.000428295
0.000439203
0.000449301
0.000458838
0.000468272
0.00047783
0.000487467
0.000497006
0.0005062
0.0005151
0.000523745
0.000532165
0.000540391
0.000548483
0.000556525
0.000564567
0.000572632
0.000580687
0.000588686
0.000596601
0.000604406
0.000611866
0.000619099
0.000625062
0.000627562
0.000623923
0.000609804
0.00131146
0.00130043
0.00131034
0.00128638
0.00124043
0.00118114
0.00111236
0.00103971
0.000969913
0.000903721
0.000840578
0.000779459
0.000723832
0.000674463
0.000630659
0.000590955
0.000555009
0.000523466
0.000494186
0.000468652
0.000444836
0.000423552
0.00040407
0.000385693
0.000369889
0.000354884
0.000342339
0.000330942
0.000321033
0.000314363
0.000307493
0.000301427
0.000295183
0.00029052
0.00028956
0.000288224
0.000286824
0.000284433
0.000282843
0.000282852
0.000283319
0.000284103
0.000284368
0.000285099
0.000286321
0.000288082
0.000289735
0.000291131
0.000292864
0.000294897
0.000297235
0.000299645
0.000302212
0.000304945
0.000307879
0.000310989
0.000314284
0.000317684
0.000321003
0.000324335
0.000327724
0.000331215
0.000334804
0.000338481
0.000342205
0.000345959
0.000349711
0.000353337
0.000356862
0.000360314
0.000363703
0.000367014
0.000370251
0.000373438
0.000376559
0.000379523
0.000382225
0.000384707
0.000387017
0.000389211
0.0003913
0.000393254
0.000395044
0.000396577
0.000397855
0.000398927
0.000399813
0.000400528
0.000401075
0.000401448
0.000401552
0.00040138
0.000400972
0.00040036
0.000399554
0.000398545
0.000397275
0.0003957
0.00039385
0.000391733
0.000389249
0.000386201
0.000382545
0.000378449
0.000374094
0.000369592
0.000365018
0.000360421
0.00035582
0.000351216
0.000346552
0.000341837
0.000337118
0.000332393
0.00032764
0.000322874
0.000318104
0.000313304
0.000308479
0.000303613
0.000298655
0.00029361
0.00028844
0.000283118
0.000277579
0.0002718
0.000265794
0.000259474
0.000252813
0.000245717
0.000238164
0.000230039
0.000221316
0.000211887
0.000201832
0.000191183
0.000180143
0.000168779
0.000157096
0.000145158
0.000132903
0.000120589
0.000108286
9.75779e-05
9.13978e-05
9.06542e-05
9.45993e-05
0.000103199
0.000115863
0.000131129
0.000145812
0.000157193
0.000165613
0.000173057
0.000181745
0.00018914
0.000197752
0.000215041
0.000248978
0.000300239
0.000368157
0.000421169
0.000446068
0.000456237
0.000462806
0.00046819
0.00047316
0.000478709
0.000485407
0.000494841
0.000507907
0.000527161
0.000545587
0.00056414
0.000581863
0.000598224
0.000613483
0.000628043
0.000642109
0.00065584
0.00066938
0.000682438
0.000695111
0.000707458
0.000719502
0.000731249
0.000742732
0.000754041
0.000765217
0.000776268
0.00078715
0.000797805
0.000808155
0.000818123
0.000827284
0.000835416
0.000841554
0.000843105
0.00083667
0.000817985
0.00165925
0.0016475
0.00165464
0.00162113
0.00155975
0.0014807
0.00139173
0.00130328
0.00121775
0.00113687
0.00105956
0.000985485
0.000915801
0.000854046
0.000798293
0.000748169
0.000702503
0.000661964
0.000624816
0.000591492
0.000561107
0.000533336
0.000508292
0.00048482
0.000463722
0.000444033
0.000426442
0.000410521
0.000395879
0.000383817
0.000372439
0.000362292
0.000352625
0.00034404
0.000337969
0.0003322
0.000327121
0.000322022
0.000318577
0.000317625
0.000317324
0.000317433
0.000316933
0.000317166
0.000318107
0.000319735
0.000321259
0.000322613
0.000324487
0.000326721
0.000329332
0.000331994
0.000334872
0.000337951
0.000341283
0.000344833
0.00034862
0.000352537
0.000356353
0.000360217
0.000364175
0.000368276
0.00037251
0.000376872
0.000381306
0.000385799
0.000390324
0.000394718
0.000399023
0.000403279
0.000407495
0.000411655
0.000415758
0.000419832
0.000423874
0.000427771
0.000431377
0.000434763
0.000437986
0.000441109
0.000444148
0.000447067
0.000449829
0.000452315
0.000454535
0.000456549
0.000458376
0.000460034
0.000461532
0.000462865
0.000463905
0.00046465
0.000465149
0.000465439
0.000465535
0.000465425
0.000465029
0.000464285
0.000463234
0.000461883
0.000460067
0.000457502
0.000454132
0.000450171
0.000445854
0.000441333
0.000436707
0.000432047
0.000427384
0.000422722
0.000417982
0.000413185
0.000408395
0.000403607
0.000398795
0.00039398
0.00038917
0.000384331
0.000379475
0.000374589
0.000369619
0.000364581
0.00035943
0.000354137
0.000348611
0.000342842
0.00033686
0.000330578
0.000323986
0.000316979
0.000309534
0.000301519
0.000292894
0.000283487
0.000273291
0.000262186
0.000250246
0.000237559
0.000224356
0.000210826
0.000196861
0.000182583
0.000168114
0.000155205
0.000147451
0.000146266
0.000150706
0.000160442
0.000174252
0.000190952
0.000206955
0.000219282
0.000228331
0.000237107
0.000248742
0.000259871
0.000272822
0.000295743
0.00033735
0.000399214
0.000463328
0.000504993
0.000521193
0.000527817
0.00053498
0.000544208
0.000554807
0.0005672
0.000583187
0.000613546
0.000645047
0.000676046
0.000704329
0.000730577
0.000755158
0.000777774
0.000798771
0.000818626
0.000837576
0.00085581
0.00087346
0.000890503
0.000907081
0.000923266
0.000939082
0.000954508
0.000969517
0.000984254
0.000998782
0.00101311
0.00102718
0.00104094
0.00105428
0.00106704
0.00107872
0.00108877
0.00109621
0.00109806
0.00109049
0.00106974
0.00204745
0.00203514
0.00203863
0.00199422
0.00191524
0.00181865
0.00171416
0.00161077
0.00150983
0.0014139
0.00132129
0.0012332
0.00114815
0.00107235
0.00100309
0.000940898
0.000884037
0.000833059
0.000786673
0.000744251
0.000706043
0.000670586
0.000638845
0.000609276
0.000581848
0.00055668
0.000533356
0.000512448
0.000492943
0.000475565
0.00045958
0.000444883
0.000431347
0.00041879
0.000408126
0.000398083
0.000388931
0.000380329
0.000372888
0.00036718
0.000362333
0.000358411
0.000354825
0.000352808
0.000352336
0.000352915
0.000353513
0.000354109
0.00035554
0.000357505
0.000359959
0.000362479
0.000365308
0.000368419
0.00037186
0.000375585
0.000379615
0.000383858
0.00038813
0.000392507
0.000397017
0.00040172
0.000406592
0.000411636
0.000416774
0.000422004
0.0004273
0.000432449
0.000437528
0.000442583
0.000447625
0.000452632
0.000457605
0.000462577
0.000467549
0.000472387
0.000476899
0.000481197
0.000485349
0.000489422
0.000493437
0.000497349
0.000501116
0.000504587
0.000507784
0.000510784
0.000513606
0.000516266
0.00051878
0.000521147
0.000523201
0.000524946
0.000526446
0.000527746
0.000528862
0.00052978
0.000530397
0.000530633
0.000530543
0.000530132
0.000529159
0.000527232
0.000524279
0.000520573
0.000516401
0.000511957
0.00050737
0.000502733
0.000498089
0.000493447
0.0004887
0.000483883
0.000479085
0.000474294
0.000469477
0.000464666
0.000459867
0.000455033
0.000450189
0.000445317
0.000440362
0.000435355
0.000430238
0.000424985
0.000419469
0.000413696
0.000407716
0.000401444
0.000394888
0.000387939
0.000380584
0.000372688
0.000364228
0.00035501
0.000345019
0.000334064
0.000322128
0.000309111
0.000295057
0.000280143
0.000264542
0.000248527
0.000232223
0.000217528
0.000208494
0.000206755
0.000211234
0.000221375
0.000235491
0.000252939
0.000269828
0.000282848
0.00029239
0.00030264
0.000317773
0.000333469
0.000351868
0.000382311
0.000433684
0.000498905
0.000554087
0.000584984
0.000594623
0.00060016
0.00061104
0.000627488
0.000647099
0.000672575
0.000718212
0.000767739
0.000813935
0.000856228
0.000894002
0.000928152
0.000959375
0.000988089
0.00101475
0.00103994
0.00106392
0.00108693
0.00110913
0.00113059
0.00115152
0.001172
0.00119207
0.00121168
0.00123065
0.00124924
0.00126756
0.0012856
0.00130332
0.00132063
0.00133741
0.00135343
0.00136806
0.00138048
0.0013896
0.00139236
0.00138491
0.00136333
0.00247807
0.00246541
0.00246441
0.00240792
0.00231271
0.00220288
0.00208412
0.00196552
0.00184842
0.00173632
0.00162694
0.0015232
0.00142146
0.00132963
0.00124519
0.00116908
0.00109945
0.00103662
0.000979588
0.000926995
0.000879766
0.000835685
0.000796243
0.000759665
0.000725208
0.000693835
0.000664324
0.000637954
0.000613278
0.000590554
0.000569822
0.000550371
0.00053266
0.000515999
0.000501001
0.000486821
0.000473522
0.000461261
0.00044997
0.000440102
0.000431147
0.000423193
0.000415912
0.000409661
0.00040453
0.000400393
0.00039694
0.000394297
0.000393369
0.000393671
0.000394808
0.00039622
0.000398188
0.000400662
0.000403627
0.000407018
0.00041084
0.000414991
0.000419296
0.000423804
0.000428516
0.000433501
0.000438712
0.000444155
0.000449726
0.000455433
0.000461253
0.00046706
0.000472901
0.000478749
0.000484617
0.000490469
0.000496313
0.000502192
0.000508106
0.000513894
0.000519308
0.000524522
0.000529614
0.000534658
0.000539671
0.000544602
0.000549405
0.000553882
0.000558082
0.000562105
0.000565963
0.000569672
0.000573255
0.000576717
0.000579841
0.000582649
0.000585221
0.00058761
0.000589836
0.000591884
0.000593621
0.000594948
0.000595943
0.000596609
0.000596616
0.000595441
0.000593001
0.00058964
0.000585702
0.00058142
0.000576953
0.000572416
0.000567869
0.000563323
0.000558632
0.000553857
0.000549114
0.000544382
0.000539615
0.000534866
0.000530135
0.000525358
0.000520577
0.000515767
0.000510867
0.00050593
0.000500878
0.000495696
0.000490197
0.000484426
0.000478444
0.000472171
0.000465631
0.000458715
0.00045142
0.000443615
0.0004353
0.000426273
0.000416546
0.00040589
0.000394288
0.000381543
0.000367611
0.000352484
0.000336093
0.000318661
0.000300428
0.000283759
0.000273309
0.00027083
0.000275137
0.000285426
0.000299524
0.000317464
0.000335065
0.000348621
0.000358501
0.000370408
0.000389741
0.000411218
0.000436653
0.000476909
0.000537218
0.000596085
0.000641806
0.000663036
0.000668404
0.000675951
0.000694367
0.000722243
0.000755757
0.000816574
0.000887071
0.000954656
0.00101462
0.00106741
0.00111423
0.00115627
0.00119452
0.00122973
0.00126248
0.00129347
0.001323
0.00135133
0.00137865
0.0014051
0.00143095
0.00145628
0.00148119
0.00150569
0.00152916
0.00155214
0.00157477
0.00159704
0.00161888
0.00164021
0.00166087
0.00168061
0.0016987
0.00171409
0.00172527
0.00172941
0.00172243
0.00170036
0.00295326
0.00294055
0.00293433
0.00286422
0.00275814
0.00263651
0.00250354
0.00236879
0.00223416
0.00210426
0.00197625
0.00185475
0.00173494
0.00162483
0.0015233
0.00143117
0.00134697
0.00127073
0.0012015
0.00113762
0.00108013
0.00102651
0.000978372
0.000933864
0.000891758
0.000853458
0.000817336
0.000785027
0.000754795
0.000726681
0.000701044
0.000676813
0.000654747
0.000633895
0.000614765
0.000596534
0.000579197
0.000563288
0.000548329
0.000534743
0.000522123
0.000510501
0.00049981
0.000489849
0.000480797
0.000472552
0.00046513
0.000458434
0.000453002
0.000448711
0.000445468
0.000443102
0.000442007
0.000442103
0.000443159
0.000445032
0.000447656
0.000450855
0.000454414
0.00045836
0.000462665
0.000467385
0.000472446
0.000477837
0.000483422
0.000489216
0.000495195
0.000501287
0.000507524
0.000513825
0.000520193
0.00052658
0.000532998
0.000539499
0.000546084
0.000552621
0.000558918
0.000565048
0.000571091
0.000577123
0.000583158
0.000589131
0.000594997
0.000600497
0.000605719
0.000610795
0.000615727
0.000620526
0.000625225
0.000629836
0.000634076
0.000637995
0.000641698
0.000645243
0.000648652
0.000651913
0.000654855
0.00065736
0.000659538
0.000661393
0.000662481
0.000662134
0.000660265
0.000657309
0.000653669
0.000649614
0.000645332
0.000640964
0.000636581
0.000632199
0.000627618
0.000622939
0.000618312
0.000613695
0.000609033
0.000604403
0.000599798
0.00059513
0.00059047
0.000585773
0.000580975
0.000576158
0.000571213
0.000566144
0.000560683
0.000554933
0.000548964
0.000542696
0.000536171
0.00052928
0.000522027
0.000514287
0.000506086
0.000497214
0.000487726
0.000477361
0.000466141
0.000453802
0.000440296
0.000425527
0.000409289
0.000391741
0.000372823
0.00035458
0.00034269
0.000339311
0.000343353
0.000353675
0.000367521
0.000385686
0.00040375
0.000417575
0.000427485
0.000441151
0.00046546
0.000494195
0.00052862
0.000580782
0.000640904
0.00069124
0.000727477
0.000740689
0.000744631
0.000758034
0.00078853
0.000833192
0.000900433
0.000995396
0.00108948
0.00117355
0.0012466
0.00131013
0.00136638
0.00141686
0.0014628
0.00150511
0.00154456
0.00158201
0.00161775
0.00165206
0.00168515
0.00171722
0.00174861
0.00177942
0.00180977
0.00184005
0.00186861
0.00189655
0.00192405
0.00195109
0.00197758
0.0020034
0.00202837
0.00205222
0.00207427
0.00209346
0.002107
0.00211292
0.00210662
0.00208309
0.00347532
0.0034628
0.00345121
0.00336928
0.00325438
0.00312134
0.00297363
0.00282146
0.00266753
0.00251784
0.00236906
0.00222723
0.00208792
0.0019571
0.00183637
0.00172585
0.00162509
0.00153371
0.00145058
0.00137415
0.00130503
0.00124089
0.00118301
0.00112962
0.00107918
0.00103317
0.000989955
0.000951127
0.00091484
0.000881175
0.000850383
0.000821321
0.000794731
0.000769577
0.000746459
0.00072418
0.000702936
0.000683419
0.000664952
0.000647944
0.000631973
0.000617065
0.000603292
0.000590099
0.000577722
0.000566048
0.000555266
0.000545179
0.000536124
0.000528082
0.000520907
0.00051436
0.000508731
0.000504188
0.000500873
0.000498957
0.000498439
0.000499011
0.000500367
0.000502482
0.000505288
0.000508779
0.000512847
0.000517421
0.000522325
0.000527563
0.000533118
0.000538939
0.000545041
0.000551304
0.000557706
0.000564188
0.000570769
0.000577505
0.000584398
0.000591317
0.000598103
0.00060478
0.000611425
0.000618117
0.000624858
0.000631563
0.000638191
0.000644609
0.000650864
0.000657021
0.00066306
0.000668987
0.000674845
0.00068066
0.000686051
0.000691121
0.000696006
0.000700766
0.000705426
0.000709975
0.000714193
0.000717944
0.000721388
0.000724527
0.000726778
0.000727294
0.000726016
0.000723494
0.000720193
0.000716411
0.000712367
0.000708223
0.000704064
0.000699908
0.000695479
0.000690943
0.000686489
0.000682041
0.000677533
0.000673082
0.000668661
0.000664153
0.000659677
0.000655149
0.000650506
0.000645869
0.000641081
0.000636184
0.000630785
0.00062509
0.000619163
0.000612928
0.000606438
0.000599585
0.000592373
0.00058469
0.000576583
0.000567831
0.000558545
0.000548416
0.000537541
0.000525574
0.000512513
0.000498202
0.000482346
0.000465154
0.000446314
0.000428019
0.000415569
0.000412015
0.000416533
0.000427318
0.000441352
0.000459529
0.000477666
0.000491405
0.000500891
0.000516304
0.000546489
0.000584349
0.000630275
0.000691945
0.000745457
0.000786142
0.00081258
0.000819976
0.000826046
0.000850024
0.000898042
0.000967162
0.00108383
0.00121106
0.00132725
0.00142808
0.00151483
0.00158993
0.00165633
0.00171595
0.00177027
0.00182035
0.0018671
0.00191151
0.00195392
0.00199466
0.00203393
0.00207195
0.00210912
0.00214553
0.00218122
0.00221621
0.00225009
0.00228318
0.00231574
0.00234763
0.00237873
0.00240885
0.00243769
0.00246486
0.00248978
0.00251206
0.00252615
0.002532
0.00252506
0.00250104
0.00404667
0.00403453
0.00401751
0.00392643
0.00380346
0.00365889
0.00349564
0.00332459
0.00314931
0.00297761
0.00280567
0.0026408
0.00247999
0.00232626
0.00218397
0.00205425
0.00193565
0.00182751
0.00172896
0.00163812
0.00155559
0.00147903
0.00140959
0.00134543
0.00128586
0.0012313
0.00118044
0.00113444
0.0010915
0.00105197
0.00101566
0.00098161
0.000950254
0.000920586
0.000893552
0.000867122
0.000842024
0.000818897
0.000797016
0.000776744
0.000757582
0.000739658
0.000723055
0.000706964
0.000691642
0.000677025
0.000663357
0.0006504
0.000638428
0.000627438
0.000617201
0.000607367
0.000598195
0.000589869
0.000582532
0.000576362
0.000571458
0.000567686
0.000565013
0.000563569
0.000563346
0.000564253
0.000566141
0.000568823
0.000572063
0.000575837
0.00058014
0.000584919
0.000590151
0.000595693
0.000601472
0.000607435
0.000613599
0.000620021
0.000626718
0.000633519
0.000640284
0.00064702
0.00065381
0.000660737
0.000667781
0.000674826
0.000681833
0.000688762
0.000695651
0.000702514
0.000709294