/*--------------------------------*- C++ -*----------------------------------*\
  =========                 |
  \\      /  F ield         | OpenFOAM: The Open Source CFD Toolbox
   \\    /   O peration     | Website:  https://openfoam.org
    \\  /    A nd           | Version:  10
     \\/     M anipulation  |
\*---------------------------------------------------------------------------*/
FoamFile
{
    format      ascii;
    class       surfaceScalarField;
    location    "0.003";
    object      phi;
}
// * * * * * * * * * * * * * * * * * * * * * * * * * * * * * * * * * * * * * //

dimensions      [1 0 -1 0 0 0 0];

internalField   nonuniform List<scalar> 
106340
(
-0.000200834
-4.18539e-05
0.000242688
-0.000181118
-1.9716e-05
-0.00014956
-3.15575e-05
-0.000118017
-3.15422e-05
-8.9619e-05
-2.83977e-05
-6.38942e-05
-2.57246e-05
-4.26715e-05
-2.12225e-05
-2.40297e-05
-1.86416e-05
-9.57394e-06
-1.44554e-05
2.17657e-06
-1.17493e-05
1.05698e-05
-8.39377e-06
1.71769e-05
-6.6061e-06
2.1865e-05
-4.68866e-06
2.52856e-05
-3.41991e-06
2.77595e-05
-2.47459e-06
2.93704e-05
-1.61e-06
3.03818e-05
-1.01191e-06
3.09375e-05
-5.55207e-07
3.11715e-05
-2.34227e-07
3.12704e-05
-9.87935e-08
3.11333e-05
1.37254e-07
3.09526e-05
1.80689e-07
3.0811e-05
1.41633e-07
3.07075e-05
1.03716e-07
3.07267e-05
-1.9135e-08
3.06908e-05
3.60776e-08
3.07343e-05
-4.32237e-08
3.07833e-05
-4.90173e-08
3.0779e-05
4.26532e-09
3.08186e-05
-3.92287e-08
3.07135e-05
1.05883e-07
3.06101e-05
1.0282e-07
3.04476e-05
1.63076e-07
3.02838e-05
1.63389e-07
3.02124e-05
7.20752e-08
3.00705e-05
1.41485e-07
2.99826e-05
8.79713e-08
2.98398e-05
1.42568e-07
2.97327e-05
1.07051e-07
2.96545e-05
7.80665e-08
2.95468e-05
1.07702e-07
2.95369e-05
9.79295e-09
2.94988e-05
3.79751e-08
2.95323e-05
-3.33549e-08
2.95192e-05
1.3153e-08
2.95042e-05
1.52366e-08
2.95228e-05
-1.84028e-08
2.95522e-05
-2.95843e-08
2.9603e-05
-5.08954e-08
2.95867e-05
1.57612e-08
2.96605e-05
-7.33427e-08
2.96939e-05
-3.36587e-08
2.97835e-05
-8.91542e-08
2.98661e-05
-8.10895e-08
2.99744e-05
-1.09745e-07
3.00123e-05
-3.87363e-08
3.01233e-05
-1.10226e-07
3.02328e-05
-1.07752e-07
3.03479e-05
-1.16943e-07
3.03878e-05
-3.99482e-08
3.04607e-05
-7.30048e-08
3.05308e-05
-7.04352e-08
3.06381e-05
-1.07111e-07
3.07143e-05
-7.6179e-08
3.0846e-05
-1.31647e-07
3.09587e-05
-1.12607e-07
3.10354e-05
-7.66109e-08
3.11055e-05
-7.00357e-08
3.11487e-05
-4.17825e-08
3.12015e-05
-5.4312e-08
3.11894e-05
1.18736e-08
3.11771e-05
1.19761e-08
3.12209e-05
-4.46908e-08
3.1258e-05
-3.69175e-08
3.12282e-05
3.12546e-08
3.11691e-05
5.75091e-08
3.11269e-05
4.05754e-08
3.10787e-05
4.89289e-08
3.09921e-05
8.65261e-08
3.08982e-05
9.38434e-08
3.07997e-05
9.84811e-08
3.06864e-05
1.13255e-07
3.0559e-05
1.27366e-07
3.04195e-05
1.3957e-07
3.02674e-05
1.51969e-07
3.00926e-05
1.7486e-07
2.98963e-05
1.96262e-07
2.96789e-05
2.17493e-07
2.94443e-05
2.34416e-07
2.91879e-05
2.56646e-07
2.89074e-05
2.80391e-07
2.86056e-05
3.01858e-07
2.82839e-05
3.21713e-07
2.79408e-05
3.43282e-07
2.75803e-05
3.60452e-07
2.71953e-05
3.85074e-07
2.67852e-05
4.10088e-07
2.6348e-05
4.37325e-07
2.588e-05
4.6801e-07
2.53787e-05
5.01268e-07
2.48541e-05
5.24673e-07
2.43083e-05
5.4577e-07
2.37336e-05
5.74747e-07
2.3133e-05
6.00756e-07
2.25048e-05
6.2819e-07
2.1854e-05
6.50873e-07
2.11758e-05
6.7825e-07
2.04727e-05
7.03215e-07
1.97432e-05
7.29501e-07
1.89865e-05
7.56814e-07
1.82044e-05
7.82077e-07
1.73926e-05
8.11806e-07
1.65536e-05
8.38976e-07
1.5693e-05
8.6067e-07
1.48106e-05
8.82397e-07
1.39088e-05
9.01836e-07
1.29961e-05
9.12679e-07
1.20708e-05
9.25346e-07
1.11282e-05
9.42576e-07
1.01751e-05
9.53041e-07
9.20055e-06
9.74594e-07
8.21542e-06
9.85256e-07
7.22749e-06
9.87947e-07
6.23852e-06
9.89098e-07
5.26924e-06
9.69405e-07
4.31306e-06
9.56137e-07
3.39566e-06
9.17546e-07
2.50487e-06
8.90731e-07
1.66707e-06
8.37809e-07
8.76724e-07
7.90372e-07
1.63329e-07
7.1339e-07
-4.79716e-07
6.43077e-07
-1.03396e-06
5.54246e-07
-1.5046e-06
4.70686e-07
-1.89119e-06
3.86553e-07
-2.19871e-06
3.07502e-07
-2.43003e-06
2.31358e-07
-2.58564e-06
1.55673e-07
-2.68616e-06
1.00414e-07
-2.7395e-06
5.35897e-08
-2.74988e-06
1.01608e-08
-2.72259e-06
-2.70167e-08
-2.68787e-06
-3.50052e-08
-2.72676e-06
3.90543e-08
-2.93663e-06
2.09709e-07
-3.35864e-06
4.22321e-07
-3.95664e-06
5.97736e-07
-4.50356e-06
5.47331e-07
-4.67926e-06
1.75567e-07
-4.11522e-06
-5.63787e-07
-2.54699e-06
-1.56835e-06
-7.29915e-08
-2.47373e-06
2.77709e-06
-2.85015e-06
5.70369e-06
-2.92616e-06
7.83939e-06
-2.13588e-06
8.70834e-06
-8.68384e-07
8.72579e-06
-1.87188e-08
8.69105e-06
3.7121e-08
9.49592e-06
-8.07118e-07
1.15786e-05
-2.07948e-06
1.46836e-05
-3.10799e-06
1.80051e-05
-3.31762e-06
2.03714e-05
-2.3699e-06
2.04033e-05
-2.6791e-08
1.62826e-05
4.11717e-06
6.68139e-06
9.60879e-06
-8.70746e-06
1.53891e-05
-2.83051e-05
1.95982e-05
-4.87049e-05
2.04004e-05
-6.73851e-05
1.86803e-05
-8.3578e-05
1.61936e-05
-9.76214e-05
1.40436e-05
-0.000109871
1.22495e-05
-0.000120627
1.07564e-05
-0.000130158
9.5308e-06
-0.000138708
8.55006e-06
-0.000146577
7.87101e-06
-0.000153898
7.31894e-06
-0.000160716
6.81895e-06
-0.000167052
6.3355e-06
-0.000172903
5.85115e-06
-0.000178344
5.43961e-06
-0.000183424
5.08131e-06
-0.00018819
4.76438e-06
-0.000192687
4.49852e-06
-0.000196998
4.30827e-06
-0.000200995
3.99691e-06
-0.000204597
3.60044e-06
-0.000207597
2.99973e-06
-0.000209931
2.33344e-06
-0.000211939
2.00853e-06
-0.000214336
2.39549e-06
-0.00021804
3.70369e-06
-0.000223416
5.37627e-06
-0.000229983
6.56626e-06
-0.000235416
5.43334e-06
-0.000237208
1.79003e-06
-0.000233933
-3.27654e-06
-0.000218301
-1.56331e-05
-5.46076e-05
-0.000163693
-0.000267909
-8.56301e-05
0.000311686
-0.000236702
-5.09228e-05
-0.000197185
-7.10739e-05
-0.000158264
-7.04637e-05
-0.000123219
-6.34423e-05
-9.07426e-05
-5.82004e-05
-6.31652e-05
-4.87999e-05
-3.86267e-05
-4.31799e-05
-1.85089e-05
-3.45731e-05
-6.3879e-07
-2.96188e-05
1.43577e-05
-2.33905e-05
2.65762e-05
-1.88241e-05
3.64895e-05
-1.46022e-05
4.45441e-05
-1.14741e-05
5.14302e-05
-9.36108e-06
5.69164e-05
-7.09576e-06
6.14731e-05
-5.5689e-06
6.5141e-05
-4.2229e-06
6.81006e-05
-3.19403e-06
7.0483e-05
-2.48122e-06
7.23023e-05
-1.68214e-06
7.37228e-05
-1.23999e-06
7.48281e-05
-9.63736e-07
7.57438e-05
-8.12069e-07
7.6564e-05
-8.3938e-07
7.72507e-05
-6.50679e-07
7.78928e-05
-6.85182e-07
7.84313e-05
-5.87455e-07
7.88659e-05
-4.30018e-07
7.92763e-05
-4.49229e-07
7.95512e-05
-1.68418e-07
7.9741e-05
-8.71533e-08
7.98393e-05
6.52084e-08
7.98993e-05
1.03249e-07
7.99998e-05
-2.79388e-08
8.00609e-05
8.02795e-08
8.01175e-05
3.15526e-08
8.01257e-05
1.34278e-07
8.01401e-05
9.24447e-08
8.0214e-05
3.92057e-09
8.02893e-05
3.20448e-08
8.03811e-05
-8.22435e-08
8.04276e-05
-8.41169e-09
8.04978e-05
-1.03227e-07
8.05862e-05
-7.49929e-08
8.07108e-05
-1.09311e-07
8.08327e-05
-1.40163e-07
8.09208e-05
-1.17516e-07
8.10452e-05
-1.75305e-07
8.11806e-05
-1.20194e-07
8.1336e-05
-2.28437e-07
8.14773e-05
-1.75202e-07
8.16434e-05
-2.54884e-07
8.17809e-05
-2.17522e-07
8.19563e-05
-2.85987e-07
8.21439e-05
-2.26958e-07
8.23366e-05
-3.02438e-07
8.24968e-05
-2.668e-07
8.26803e-05
-3.01518e-07
8.28674e-05
-2.27407e-07
8.307e-05
-2.76172e-07
8.32412e-05
-2.4207e-07
8.34233e-05
-2.89159e-07
8.35914e-05
-2.44223e-07
8.37499e-05
-2.89664e-07
8.38915e-05
-2.53619e-07
8.40474e-05
-2.32296e-07
8.41971e-05
-2.19482e-07
8.43322e-05
-1.76192e-07
8.44656e-05
-1.88573e-07
8.4601e-05
-1.24125e-07
8.47392e-05
-1.26735e-07
8.48286e-05
-1.3454e-07
8.4898e-05
-1.05976e-07
8.50038e-05
-7.38781e-08
8.50936e-05
-3.37032e-08
8.51452e-05
-1.2032e-08
8.51838e-05
1.04737e-08
8.51889e-05
8.12723e-08
8.51732e-05
1.09487e-07
8.51471e-05
1.24459e-07
8.51174e-05
1.42966e-07
8.50679e-05
1.76881e-07
8.49989e-05
2.08558e-07
8.49115e-05
2.39341e-07
8.47939e-05
2.92561e-07
8.46384e-05
3.51713e-07
8.44429e-05
4.13108e-07
8.42069e-05
4.70343e-07
8.39267e-05
5.36975e-07
8.35987e-05
6.08336e-07
8.32211e-05
6.79644e-07
8.27925e-05
7.50344e-07
8.23107e-05
8.25178e-07
8.17771e-05
8.94079e-07
8.11811e-05
9.81222e-07
8.0516e-05
1.07528e-06
7.9774e-05
1.17942e-06
7.89451e-05
1.29703e-06
7.80199e-05
1.42654e-06
7.70132e-05
1.53154e-06
7.59306e-05
1.6285e-06
7.47557e-05
1.74974e-06
7.34863e-05
1.87032e-06
7.21199e-05
1.99471e-06
7.06601e-05
2.11081e-06
6.90998e-05
2.23867e-06
6.74393e-05
2.36381e-06
6.56749e-05
2.49396e-06
6.38037e-05
2.62819e-06
6.18272e-05
2.75864e-06
5.97355e-05
2.9037e-06
5.75299e-05
3.04464e-06
5.52213e-05
3.16938e-06
5.2812e-05
3.29181e-06
5.0306e-05
3.40796e-06
4.77239e-05
3.49495e-06
4.50655e-05
3.58382e-06
4.23172e-05
3.69098e-06
3.94929e-05
3.7775e-06
3.65676e-05
3.89996e-06
3.35624e-05
3.99057e-06
3.05018e-05
4.04867e-06
2.73882e-05
4.10292e-06
2.42767e-05
4.08105e-06
2.11547e-05
4.0782e-06
1.80871e-05
3.98528e-06
1.50462e-05
3.93159e-06
1.21032e-05
3.7808e-06
9.25037e-06
3.64321e-06
6.57854e-06
3.38521e-06
4.08807e-06
3.13356e-06
1.83748e-06
2.80484e-06
-1.84174e-07
2.49238e-06
-1.9388e-06
2.14115e-06
-3.424e-06
1.79268e-06
-4.6527e-06
1.46007e-06
-5.61392e-06
1.11695e-06
-6.35394e-06
8.40335e-07
-6.8966e-06
5.96457e-07
-7.25438e-06
3.67729e-07
-7.46404e-06
1.82879e-07
-7.62748e-06
1.28161e-07
-7.95848e-06
3.7016e-07
-8.68761e-06
9.38681e-07
-9.86783e-06
1.60278e-06
-1.1304e-05
2.03367e-06
-1.23788e-05
1.62242e-06
-1.23044e-05
1.01041e-07
-1.03663e-05
-2.50172e-06
-6.20998e-06
-5.72483e-06
-1.85727e-07
-8.49775e-06
6.6599e-06
-9.69587e-06
1.37202e-05
-9.98611e-06
1.941e-05
-7.82575e-06
2.26688e-05
-4.12661e-06
2.38367e-05
-1.18757e-06
2.42156e-05
-3.39753e-07
2.54708e-05
-2.06395e-06
2.81048e-05
-4.71083e-06
3.03123e-05
-5.31758e-06
2.81166e-05
-1.119e-06
1.60742e-05
9.67024e-06
-8.03446e-06
2.40851e-05
-3.9577e-05
3.5658e-05
-7.31085e-05
4.31443e-05
-0.00010684
4.91218e-05
-0.000139461
5.22204e-05
-0.000169086
5.00259e-05
-0.000194618
4.42137e-05
-0.000216169
3.77455e-05
-0.000234619
3.24944e-05
-0.000250572
2.82034e-05
-0.000264539
2.47233e-05
-0.00027693
2.19223e-05
-0.000288026
1.96464e-05
-0.000298166
1.80114e-05
-0.000307512
1.66646e-05
-0.000316173
1.54801e-05
-0.000324235
1.43976e-05
-0.000331739
1.3355e-05
-0.000338794
1.24946e-05
-0.000345472
1.17599e-05
-0.000351819
1.111e-05
-0.000357865
1.05451e-05
-0.000363633
1.00757e-05
-0.000369176
9.53918e-06
-0.000374495
8.91848e-06
-0.000379666
8.16959e-06
-0.000384715
7.38145e-06
-0.00038953
6.82346e-06
-0.00039388
6.74344e-06
-0.000397422
7.24485e-06
-0.000399557
7.50985e-06
-0.000399466
6.47478e-06
-0.000396174
2.14016e-06
-0.000388544
-5.8425e-06
-0.000376375
-1.54467e-05
-0.000358547
-3.34613e-05
-8.54538e-05
-0.000327702
-0.000295623
-0.000127548
0.000337541
-0.000260441
-8.61044e-05
-0.000219194
-0.000112321
-0.000177875
-0.000111783
-0.000140138
-0.000101179
-0.000104884
-9.34536e-05
-7.45623e-05
-7.91218e-05
-4.73866e-05
-7.03556e-05
-2.43282e-05
-5.76315e-05
-3.95259e-06
-4.99941e-05
1.35587e-05
-4.09019e-05
2.79088e-05
-3.3174e-05
3.99688e-05
-2.66623e-05
5.00774e-05
-2.15826e-05
5.89065e-05
-1.81904e-05
6.62519e-05
-1.44409e-05
7.26326e-05
-1.19497e-05
7.78952e-05
-9.48529e-06
8.23881e-05
-7.68692e-06
8.61927e-05
-6.28583e-06
8.93409e-05
-4.83022e-06
9.20315e-05
-3.93054e-06
9.41822e-05
-3.11432e-06
9.58943e-05
-2.52409e-06
9.73004e-05
-2.24541e-06
9.84329e-05
-1.78305e-06
9.94021e-05
-1.65427e-06
0.000100222
-1.40696e-06
0.000100899
-1.10729e-06
0.000101504
-1.05468e-06
0.000101994
-6.58607e-07
0.000102407
-5.00014e-07
0.000102739
-2.66562e-07
0.000102998
-1.56283e-07
0.000103249
-2.77973e-07
0.000103455
-1.26576e-07
0.000103649
-1.6175e-07
0.000103802
-1.91273e-08
0.000103933
-3.84953e-08
0.000104085
-1.47888e-07
0.000104223
-1.06363e-07
0.000104371
-2.29493e-07
0.000104488
-1.26416e-07
0.000104612
-2.27251e-07
0.000104742
-2.04361e-07
0.000104883
-2.50851e-07
0.00010503
-2.86611e-07
0.000105154
-2.42218e-07
0.000105299
-3.1957e-07
0.000105443
-2.64346e-07
0.000105601
-3.8632e-07
0.000105752
-3.26007e-07
0.000105916
-4.19016e-07
0.000106066
-3.67763e-07
0.000106238
-4.57807e-07
0.000106415
-4.04531e-07
0.000106597
-4.84312e-07
0.000106766
-4.35575e-07
0.000106949
-4.84444e-07
0.000107132
-4.10849e-07
0.000107325
-4.68713e-07
0.000107503
-4.19847e-07
0.000107689
-4.75487e-07
0.000107868
-4.22665e-07
0.000108046
-4.68447e-07
0.000108216
-4.22997e-07
0.000108394
-4.10607e-07
0.000108569
-3.94603e-07
0.000108737
-3.4408e-07
0.000108907
-3.59139e-07
0.000109077
-2.93716e-07
0.000109251
-3.0093e-07
0.000109403
-2.86473e-07
0.000109544
-2.4709e-07
0.000109704
-2.33171e-07
0.000109853
-1.82935e-07
0.000109981
-1.40183e-07
0.000110102
-1.10776e-07
0.000110204
-2.0567e-08
0.000110293
2.07066e-08
0.000110375
4.21527e-08
0.000110445
7.30884e-08
0.00011051
1.11825e-07
0.00011056
1.58811e-07
0.000110597
2.02313e-07
0.000110611
2.78452e-07
0.000110592
3.70561e-07
0.000110536
4.68904e-07
0.000110443
5.63345e-07
0.000110308
6.71766e-07
0.000110129
7.8786e-07
0.000109903
9.05951e-07
0.000109628
1.02534e-06
0.000109302
1.15048e-06
0.000108927
1.26922e-06
0.000108493
1.41558e-06
0.000107992
1.57635e-06
0.000107415
1.756e-06
0.000106752
1.96043e-06
0.000105989
2.18895e-06
0.000105141
2.37996e-06
0.000104216
2.55294e-06
0.000103201
2.76518e-06
0.000102087
2.98432e-06
0.00010087
3.21173e-06
9.95498e-05
3.43087e-06
9.81186e-05
3.66988e-06
9.65733e-05
3.90909e-06
9.49081e-05
4.15916e-06
9.31175e-05
4.41876e-06
9.11993e-05
4.67678e-06
8.91374e-05
4.96564e-06
8.69246e-05
5.25737e-06
8.45622e-05
5.53176e-06
8.20391e-05
5.81483e-06
7.93406e-05
6.10653e-06
7.64705e-05
6.36501e-06
7.34196e-05
6.63471e-06
7.01696e-05
6.94091e-06
6.674e-05
7.20709e-06
6.31034e-05
7.5365e-06
5.92693e-05
7.82476e-06
5.52513e-05
8.06665e-06
5.10378e-05
8.31638e-06
4.66894e-05
8.42955e-06
4.21811e-05
8.58645e-06
3.75946e-05
8.57187e-06
3.28964e-05
8.6297e-06
2.81832e-05
8.49398e-06
2.34496e-05
8.37688e-06
1.88332e-05
8.00157e-06
1.43427e-05
7.62417e-06
1.00946e-05
7.05292e-06
6.10288e-06
6.48411e-06
2.46027e-06
5.78374e-06
-7.89459e-07
5.04239e-06
-3.61326e-06
4.28392e-06
-5.97729e-06
3.48103e-06
-7.9288e-06
2.79175e-06
-9.46995e-06
2.13785e-06
-1.06268e-05
1.52438e-06
-1.1474e-05
1.0303e-06
-1.2182e-05
8.35922e-07
-1.30622e-05
1.25052e-06
-1.4412e-05
2.28835e-06
-1.62206e-05
3.41177e-06
-1.8087e-05
3.89974e-06
-1.91118e-05
2.64767e-06
-1.82511e-05
-7.59707e-07
-1.47933e-05
-5.95931e-06
-8.58285e-06
-1.19354e-05
-2.53356e-07
-1.6827e-05
9.23526e-06
-1.91845e-05
1.90016e-05
-1.97522e-05
2.73687e-05
-1.6193e-05
3.3019e-05
-9.77658e-06
3.58831e-05
-4.05255e-06
3.68262e-05
-1.28131e-06
3.70913e-05
-2.33035e-06
3.65209e-05
-4.13889e-06
3.22333e-05
-1.0313e-06
1.95578e-05
1.15577e-05
-5.12692e-06
3.4354e-05
-4.19102e-05
6.08693e-05
-8.58566e-05
7.96038e-05
-0.000130758
8.80473e-05
-0.000172664
9.10273e-05
-0.000209743
8.92987e-05
-0.000241623
8.1906e-05
-0.0002688
7.1391e-05
-0.000291776
6.07212e-05
-0.000311506
5.22241e-05
-0.000328654
4.53513e-05
-0.000343754
3.98236e-05
-0.000357215
3.53829e-05
-0.000369289
3.17202e-05
-0.000380312
2.9035e-05
-0.000390464
2.68163e-05
-0.000399882
2.48982e-05
-0.000408674
2.31888e-05
-0.000416888
2.15699e-05
-0.000424634
2.02398e-05
-0.000431973
1.90994e-05
-0.000438939
1.80752e-05
-0.000445546
1.71521e-05
-0.000451795
1.63239e-05
-0.000457736
1.54801e-05
-0.000463349
1.45313e-05
-0.000468667
1.34878e-05
-0.000473616
1.23302e-05
-0.000477979
1.11871e-05
-0.000481436
1.02003e-05
-0.000483614
9.42253e-06
-0.000484049
7.94496e-06
-0.000482331
4.75721e-06
-0.00047814
-2.05016e-06
-0.000470673
-1.33099e-05
-0.000459579
-2.65413e-05
-0.000445225
-4.7816e-05
-0.000105244
-0.000425434
-0.000319421
-0.000169065
0.000360938
-0.000281753
-0.000123771
-0.00023907
-0.000155005
-0.000195932
-0.00015492
-0.000156067
-0.000141044
-0.000118495
-0.000131025
-8.57374e-05
-0.00011188
-5.59776e-05
-0.000100115
-3.04268e-05
-8.31823e-05
-7.79298e-06
-7.26277e-05
1.16952e-05
-6.03901e-05
2.81883e-05
-4.9667e-05
4.20528e-05
-4.05269e-05
5.36735e-05
-3.32031e-05
6.38106e-05
-2.83276e-05
7.2331e-05
-2.29611e-05
7.99061e-05
-1.95249e-05
8.63058e-05
-1.58849e-05
9.18594e-05
-1.32406e-05
9.66406e-05
-1.1067e-05
0.000100686
-8.87517e-06
0.000104231
-7.47626e-06
0.000107171
-6.05382e-06
0.000109617
-4.97075e-06
0.000111646
-4.27391e-06
0.000113281
-3.41806e-06
0.000114652
-3.02525e-06
0.000115807
-2.56184e-06
0.000116774
-2.07436e-06
0.000117623
-1.90359e-06
0.000118342
-1.37745e-06
0.000118973
-1.13089e-06
0.000119516
-8.09934e-07
0.000119966
-6.0613e-07
0.000120376
-6.87649e-07
0.000120726
-4.76548e-07
0.000121051
-4.86395e-07
0.000121334
-3.02597e-07
0.000121579
-2.83758e-07
0.000121822
-3.90866e-07
0.000122037
-3.21132e-07
0.000122255
-4.47303e-07
0.000122446
-3.1823e-07
0.000122635
-4.16099e-07
0.000122819
-3.87406e-07
0.000122998
-4.30704e-07
0.000123186
-4.73942e-07
0.000123355
-4.11767e-07
0.000123535
-4.99401e-07
0.000123706
-4.34783e-07
0.000123888
-5.6907e-07
0.000124064
-5.01669e-07
0.000124248
-6.0306e-07
0.000124425
-5.43751e-07
0.000124612
-6.45749e-07
0.0001248
-5.9245e-07
0.000124994
-6.78051e-07
0.000125183
-6.24426e-07
0.000125379
-6.81259e-07
0.000125573
-6.04599e-07
0.000125773
-6.69458e-07
0.000125967
-6.13195e-07
0.000126167
-6.76437e-07
0.000126362
-6.17109e-07
0.000126563
-6.68749e-07
0.000126756
-6.15732e-07
0.000126953
-6.08307e-07
0.000127149
-5.90132e-07
0.000127341
-5.35323e-07
0.000127535
-5.54334e-07
0.000127727
-4.85077e-07
0.000127923
-4.97573e-07
0.00012811
-4.74079e-07
0.00012829
-4.26737e-07
0.000128478
-4.20687e-07
0.000128656
-3.6159e-07
0.000128821
-3.05685e-07
0.000128982
-2.72041e-07
0.000129129
-1.67019e-07
0.000129265
-1.15942e-07
0.000129398
-9.06673e-08
0.00012952
-4.8589e-08
0.000129633
-1.56855e-09
0.000129737
5.46542e-08
0.000129829
1.10817e-07
0.000129899
2.08471e-07
0.000129938
3.31406e-07
0.00012994
4.67021e-07
0.000129904
5.99417e-07
0.000129825
7.50402e-07
0.000129701
9.12403e-07
0.000129528
1.07841e-06
0.000129306
1.24785e-06
0.000129032
1.42451e-06
0.000128706
1.59456e-06
0.000128321
1.80116e-06
0.000127867
2.03041e-06
0.000127335
2.28789e-06
0.000126713
2.58239e-06
0.000125987
2.91473e-06
0.000125171
3.19595e-06
0.000124278
3.4464e-06
0.000123293
3.75057e-06
0.000122206
4.07147e-06
0.000121011
4.40619e-06
0.000119708
4.7343e-06
0.000118287
5.09079e-06
0.000116744
5.45169e-06
0.000115074
5.8298e-06
0.000113269
6.22334e-06
0.000111328
6.61779e-06
0.000109233
7.06074e-06
0.000106975
7.5158e-06
0.000104553
7.95407e-06
0.000101953
8.41443e-06
9.91563e-05
8.90323e-06
9.6163e-05
9.35838e-06
9.29613e-05
9.83642e-06
8.95306e-05
1.03716e-05
8.5892e-05
1.08458e-05
8.2017e-05
1.14116e-05
7.7909e-05
1.19328e-05
7.3575e-05
1.24007e-05
6.89889e-05
1.29025e-05
6.41994e-05
1.32191e-05
5.91625e-05
1.36234e-05
5.39565e-05
1.3778e-05
4.85423e-05
1.40438e-05
4.3017e-05
1.40193e-05
3.73583e-05
1.40355e-05
3.16971e-05
1.36628e-05
2.60247e-05
1.32965e-05
2.04825e-05
1.25951e-05
1.50902e-05
1.18764e-05
9.96614e-06
1.09078e-05
5.17651e-06
9.83201e-06
7.92631e-07
8.6678e-06
-3.10272e-06
7.3764e-06
-6.52421e-06
6.2132e-06
-9.41862e-06
5.03237e-06
-1.1804e-05
3.90967e-06
-1.374e-05
2.96635e-06
-1.53962e-05
2.49199e-06
-1.71006e-05
2.95505e-06
-1.91034e-05
4.29101e-06
-2.12778e-05
5.5863e-06
-2.30638e-05
5.68556e-06
-2.35579e-05
3.14189e-06
-2.17692e-05
-2.54852e-06
-1.71493e-05
-1.05791e-05
-9.77816e-06
-1.93065e-05
-3.35909e-07
-2.62692e-05
1.05857e-05
-3.01061e-05
2.17828e-05
-3.09491e-05
3.17134e-05
-2.61236e-05
3.89083e-05
-1.69712e-05
4.29147e-05
-8.05917e-06
4.3851e-05
-2.21687e-06
4.23721e-05
-8.51939e-07
3.80853e-05
1.48837e-07
2.81418e-05
8.91166e-06
8.26305e-06
3.14372e-05
-2.49034e-05
6.75201e-05
-7.05012e-05
0.000106468
-0.000122809
0.000131911
-0.000174896
0.000140136
-0.000221911
0.000138042
-0.000262322
0.00012971
-0.00029645
0.000116035
-0.00032532
0.000100261
-0.0003497
8.51015e-05
-0.000370654
7.31793e-05
-0.000388905
6.3602e-05
-0.000405005
5.5924e-05
-0.000419362
4.97402e-05
-0.000432224
4.45822e-05
-0.000443941
4.07523e-05
-0.000454711
3.75857e-05
-0.000464688
3.48763e-05
-0.000473996
3.24962e-05
-0.00048268
3.02545e-05
-0.000490849
2.84082e-05
-0.000498558
2.68088e-05
-0.000505834
2.53501e-05
-0.000512677
2.39961e-05
-0.000519081
2.27267e-05
-0.000525046
2.14444e-05
-0.000530553
2.0038e-05
-0.000535594
1.85286e-05
-0.00054009
1.68254e-05
-0.000543886
1.49827e-05
-0.000546788
1.31013e-05
-0.000548557
1.11913e-05
-0.000548924
8.31129e-06
-0.000547631
3.46357e-06
-0.000544517
-5.16504e-06
-0.000538936
-1.88926e-05
-0.000530517
-3.49607e-05
-0.000519891
-5.84422e-05
-0.000118398
-0.000506738
-0.000343067
-0.000210787
0.000384789
-0.00030348
-0.000163358
-0.000259445
-0.00019904
-0.000214668
-0.000199697
-0.000172818
-0.000182894
-0.000132993
-0.00017085
-9.78837e-05
-0.000146989
-6.56322e-05
-0.000132367
-3.77069e-05
-0.000111108
-1.27429e-05
-9.75916e-05
8.78913e-06
-8.19223e-05
2.74262e-05
-6.83039e-05
4.32018e-05
-5.63026e-05
5.65026e-05
-4.65039e-05
6.81146e-05
-3.99396e-05
7.78456e-05
-3.26921e-05
8.65113e-05
-2.81907e-05
9.38738e-05
-2.32473e-05
0.000100311
-1.96778e-05
0.000105957
-1.67128e-05
0.000110835
-1.37534e-05
0.000115163
-1.18039e-05
0.000118838
-9.72851e-06
0.00012201
-8.14265e-06
0.00012471
-6.97464e-06
0.000126943
-5.65084e-06
0.00012883
-4.9116e-06
0.000130419
-4.15183e-06
0.000131764
-3.41853e-06
0.000132936
-3.07566e-06
0.000133945
-2.38642e-06
0.000134843
-2.02942e-06
0.000135638
-1.60447e-06
0.000136316
-1.28468e-06
0.000136927
-1.29832e-06
0.000137454
-1.00413e-06
0.000137941
-9.73087e-07
0.000138378
-7.3941e-07
0.000138763
-6.68482e-07
0.000139129
-7.56906e-07
0.00013945
-6.42708e-07
0.000139765
-7.61863e-07
0.000140048
-6.0165e-07
0.00014032
-6.88149e-07
0.000140579
-6.45693e-07
0.000140822
-6.742e-07
0.00014107
-7.22148e-07
0.000141298
-6.39096e-07
0.00014153
-7.32384e-07
0.000141747
-6.51452e-07
0.000141973
-7.94706e-07
0.000142188
-7.16672e-07
0.000142408
-8.22889e-07
0.000142619
-7.54484e-07
0.000142836
-8.63344e-07
0.00014305
-8.06223e-07
0.000143268
-8.96454e-07
0.000143482
-8.38534e-07
0.000143701
-9.00394e-07
0.000143915
-8.18608e-07
0.000144135
-8.89107e-07
0.000144348
-8.26205e-07
0.000144568
-8.96393e-07
0.000144781
-8.29798e-07
0.000145001
-8.88458e-07
0.000145212
-8.27382e-07
0.000145427
-8.23089e-07
0.000145639
-8.02542e-07
0.000145848
-7.4368e-07
0.00014606
-7.67233e-07
0.000146268
-6.92671e-07
0.000146481
-7.10381e-07
0.000146688
-6.81211e-07
0.000146887
-6.26181e-07
0.000147092
-6.25127e-07
0.000147288
-5.57263e-07
0.000147472
-4.90267e-07
0.000147654
-4.53479e-07
0.000147822
-3.34936e-07
0.00014798
-2.74407e-07
0.000148137
-2.47074e-07
0.000148283
-1.949e-07
0.000148416
-1.35048e-07
0.000148545
-7.37315e-08
0.00014866
-4.14019e-09
0.000148752
1.15756e-07
0.000148814
2.69538e-07
0.000148838
4.43303e-07
0.000148821
6.16665e-07
0.000148758
8.13164e-07
0.000148647
1.02391e-06
0.000148484
1.24118e-06
0.000148267
1.46437e-06
0.000147995
1.69632e-06
0.000147668
1.92156e-06
0.000147277
2.19251e-06
0.000146812
2.49507e-06
0.000146264
2.83606e-06
0.000145619
3.22728e-06
0.000144863
3.67133e-06
0.000144009
4.04922e-06
0.000143074
4.38148e-06
0.000142042
4.78251e-06
0.000140902
5.21167e-06
0.000139647
5.66142e-06
0.000138274
6.10734e-06
0.000136773
6.59121e-06
0.00013514
7.0847e-06
0.000133368
7.60249e-06
0.000131449
8.14211e-06
0.000129381
8.68519e-06
0.000127146
9.29581e-06
0.000124733
9.92884e-06
0.000122142
1.05455e-05
0.000119358
1.1198e-05
0.000116361
1.19002e-05
0.000113151
1.25684e-05
0.000109716
1.32717e-05
0.000106032
1.40559e-05
0.00010212
1.47573e-05
9.79503e-05
1.55813e-05
9.35246e-05
1.63585e-05
8.88495e-05
1.70758e-05
8.38928e-05
1.78591e-05
7.87022e-05
1.84097e-05
7.32243e-05
1.91013e-05
6.75384e-05
1.94639e-05
6.15992e-05
1.9983e-05
5.55041e-05
2.01144e-05
4.92176e-05
2.0322e-05
4.28662e-05
2.00142e-05
3.64281e-05
1.97346e-05
3.00537e-05
1.89696e-05
2.37576e-05
1.81726e-05
1.76661e-05
1.69992e-05
1.1845e-05
1.56531e-05
6.36846e-06
1.41444e-05
1.34134e-06
1.24035e-05
-3.23283e-06
1.07873e-05
-7.27305e-06
9.0727e-06
-1.07937e-05
7.43026e-06
-1.38408e-05
6.01358e-06
-1.65355e-05
5.18652e-06
-1.91221e-05
5.54178e-06
-2.17072e-05
6.87608e-06
-2.40606e-05
7.93987e-06
-2.56664e-05
7.29129e-06
-2.56612e-05
3.13688e-06
-2.33615e-05
-4.84824e-06
-1.8351e-05
-1.55895e-05
-1.0545e-05
-2.71126e-05
-5.4245e-07
-3.62716e-05
1.1202e-05
-4.18505e-05
2.32894e-05
-4.30364e-05
3.41816e-05
-3.70159e-05
4.22777e-05
-2.50672e-05
4.67692e-05
-1.25509e-05
4.73868e-05
-2.83396e-06
4.44148e-05
2.11959e-06
3.71825e-05
7.38153e-06
2.2625e-05
2.34688e-05
-3.69811e-06
5.77605e-05
-4.50064e-05
0.000108828
-9.92958e-05
0.000160758
-0.000159387
0.000192002
-0.000217365
0.000198115
-0.000268289
0.000188967
-0.000311251
0.000172672
-0.000347147
0.000151931
-0.000377351
0.000130465
-0.000402819
0.000110569
-0.000424696
9.50559e-05
-0.000443742
8.26472e-05
-0.000460534
7.27164e-05
-0.000475492
6.46984e-05
-0.000488864
5.79541e-05
-0.000501004
5.28926e-05
-0.000512114
4.86953e-05
-0.000522359
4.51215e-05
-0.000531875
4.20117e-05
-0.00054072
3.90994e-05
-0.000548998
3.6686e-05
-0.000556771
3.45818e-05
-0.000564069
3.26483e-05
-0.000570898
3.08245e-05
-0.000577232
2.90613e-05
-0.000583055
2.72666e-05
-0.000588374
2.53573e-05
-0.000593191
2.33459e-05
-0.000597484
2.11177e-05
-0.000601182
1.86812e-05
-0.000604152
1.60716e-05
-0.000606233
1.32728e-05
-0.000607232
9.31044e-06
-0.000606978
3.21068e-06
-0.000605408
-6.73497e-06
-0.000601975
-2.23257e-05
-0.000596134
-4.08026e-05
-0.000588467
-6.61089e-05
-0.000126779
-0.000580086
-0.000367506
-0.000252945
0.000409664
-0.000326236
-0.000204628
-0.000280899
-0.000244378
-0.000234552
-0.000246044
-0.000190747
-0.000226698
-0.000148657
-0.00021294
-0.000111178
-0.000184468
-7.64611e-05
-0.000167084
-4.61613e-05
-0.000141407
-1.88405e-05
-0.000124912
4.8308e-06
-0.000105594
2.56855e-05
-8.91585e-05
4.34676e-05
-7.40847e-05
5.85823e-05
-6.16186e-05
7.18243e-05
-5.31816e-05
8.29668e-05
-4.38344e-05
9.28286e-05
-3.80526e-05
0.00010126
-3.16788e-05
0.000108638
-2.70559e-05
0.000115114
-2.31886e-05
0.000120734
-1.93731e-05
0.000125778
-1.68481e-05
0.000130162
-1.41123e-05
0.000134045
-1.20261e-05
0.000137428
-1.03569e-05
0.000140312
-8.53534e-06
0.000142805
-7.40439e-06
0.000144929
-6.27596e-06
0.000146745
-5.23472e-06
0.000148326
-4.6567e-06
0.0001497
-3.76024e-06
0.000150932
-3.2612e-06
0.000152035
-2.70694e-06
0.000152995
-2.24473e-06
0.000153856
-2.15955e-06
0.000154607
-1.75557e-06
0.000155299
-1.6638e-06
0.000155927
-1.36801e-06
0.000156488
-1.22946e-06
0.000157014
-1.28289e-06
0.000157477
-1.10617e-06
0.00015792
-1.20509e-06
0.000158322
-1.00375e-06
0.000158704
-1.06973e-06
0.000159063
-1.00457e-06
0.000159396
-1.0072e-06
0.000159728
-1.05414e-06
0.000160032
-9.43563e-07
0.000160339
-1.03854e-06
0.000160622
-9.34645e-07
0.000160908
-1.08146e-06
0.000161179
-9.87365e-07
0.00016145
-1.09411e-06
0.000161709
-1.01248e-06
0.000161969
-1.12404e-06
0.000162222
-1.05935e-06
0.000162477
-1.15097e-06
0.000162725
-1.0862e-06
0.000162975
-1.151e-06
0.000163218
-1.06222e-06
0.000163466
-1.13663e-06
0.000163705
-1.06527e-06
0.000163949
-1.14052e-06
0.000164183
-1.06429e-06
0.000164424
-1.12861e-06
0.000164654
-1.05738e-06
0.000164886
-1.05501e-06
0.000165115
-1.03104e-06
0.000165339
-9.67892e-07
0.000165568
-9.96101e-07
0.00016579
-9.15139e-07
0.000166016
-9.37031e-07
0.000166237
-9.01821e-07
0.000166449
-8.37971e-07
0.000166665
-8.41289e-07
0.000166872
-7.64518e-07
0.000167067
-6.86124e-07
0.00016726
-6.4622e-07
0.000167439
-5.14172e-07
0.000167608
-4.42914e-07
0.000167775
-4.14356e-07
0.000167932
-3.52251e-07
0.000168073
-2.76041e-07
0.00016821
-2.10641e-07
0.000168335
-1.28933e-07
0.000168436
1.50171e-08
0.000168505
2.0069e-07
0.000168535
4.13278e-07
0.00016852
6.30812e-07
0.000168457
8.76518e-07
0.000168341
1.14011e-06
0.000168169
1.41278e-06
0.00016794
1.69416e-06
0.00016765
1.98608e-06
0.0001673
2.27132e-06
0.000166881
2.61166e-06
0.000166383
2.99336e-06
0.000165794
3.42439e-06
0.000165102
3.91998e-06
0.000164288
4.48466e-06
0.000163371
4.9663e-06
0.000162368
5.38525e-06
0.000161261
5.88901e-06
0.000160039
6.43359e-06
0.000158694
7.00673e-06
0.000157221
7.57997e-06
0.000155611
8.20197e-06
0.000153855
8.83996e-06
0.000151948
9.51019e-06
0.000149881
1.02093e-05
0.000147651
1.09147e-05
0.000145239
1.17083e-05
0.000142632
1.25356e-05
0.00013983
1.33468e-05
0.00013682
1.42085e-05
0.000133577
1.5143e-05
0.000130103
1.60424e-05
0.000126385
1.69904e-05
0.000122394
1.80463e-05
0.000118155
1.89965e-05
0.000113633
2.01034e-05
0.000108829
2.11621e-05
0.000103752
2.21535e-05
9.83642e-05
2.32467e-05
9.27175e-05
2.40565e-05
8.67519e-05
2.50669e-05
8.05502e-05
2.56656e-05
7.40596e-05
2.64736e-05
6.73815e-05
2.67926e-05
6.04712e-05
2.72323e-05
5.34599e-05
2.70256e-05
4.63156e-05
2.6879e-05
3.91956e-05
2.60895e-05
3.21082e-05
2.526e-05
2.5188e-05
2.39194e-05
1.85027e-05
2.23384e-05
1.21305e-05
2.05166e-05
6.19045e-06
1.83435e-05
6.94444e-07
1.62833e-05
-4.25905e-06
1.40262e-05
-8.68656e-06
1.18577e-05
-1.26229e-05
9.94997e-06
-1.61498e-05
8.71334e-06
-1.94464e-05
8.8384e-06
-2.25187e-05
9.94835e-06
-2.50896e-05
1.05107e-05
-2.66904e-05
8.8921e-06
-2.66151e-05
3.06154e-06
-2.42938e-05
-7.16961e-06
-1.92723e-05
-2.0611e-05
-1.13331e-05
-3.50518e-05
-8.99561e-07
-4.67051e-05
1.14456e-05
-5.41956e-05
2.43256e-05
-5.59164e-05
3.6007e-05
-4.86972e-05
4.47759e-05
-3.3836e-05
4.94806e-05
-1.72557e-05
4.96121e-05
-2.96509e-06
4.51819e-05
6.54971e-06
3.50761e-05
1.74876e-05
1.58464e-05
4.26984e-05
-1.74504e-05
9.10576e-05
-6.74698e-05
0.000158848
-0.000130484
0.000223772
-0.000197658
0.000259176
-0.000260423
0.00026088
-0.000314259
0.000242803
-0.00035902
0.000217434
-0.000396123
0.000189034
-0.000427217
0.000161558
-0.00045339
0.000136743
-0.000475835
0.000117502
-0.000495322
0.000102134
-0.000512455
8.98494e-05
-0.000527688
7.99313e-05
-0.000541282
7.15483e-05
-0.0005536
6.5211e-05
-0.000564849
5.99444e-05
-0.000575198
5.547e-05
-0.000584781
5.15948e-05
-0.000593661
4.79794e-05
-0.000601942
4.49662e-05
-0.000609685
4.23255e-05
-0.000616925
3.98882e-05
-0.000623674
3.75735e-05
-0.000629936
3.53229e-05
-0.0006357
3.303e-05
-0.000641008
3.06645e-05
-0.000645881
2.82192e-05
-0.000650296
2.55323e-05
-0.000654217
2.26013e-05