/*--------------------------------*- C++ -*----------------------------------*\
  =========                 |
  \\      /  F ield         | OpenFOAM: The Open Source CFD Toolbox
   \\    /   O peration     | Website:  https://openfoam.org
    \\  /    A nd           | Version:  10
     \\/     M anipulation  |
\*---------------------------------------------------------------------------*/
FoamFile
{
    format      ascii;
    class       volVectorField;
    location    "0.003";
    object      U;
}
// * * * * * * * * * * * * * * * * * * * * * * * * * * * * * * * * * * * * * //

dimensions      [0 1 -1 0 0 0 0];

internalField   nonuniform List<vector> 
53500
(
(-1.10745 -14.9736 0)
(-1.60217 -12.6366 0)
(-2.23313 -11.0785 0)
(-2.49074 -8.77564 1.78381e-15)
(-2.44531 -6.79478 3.969e-18)
(-2.15032 -4.95387 -4.4296e-18)
(-1.7184 -3.41242 2.62961e-15)
(-1.19558 -2.0947 -2.90436e-15)
(-0.667012 -1.02455 -6.52099e-18)
(-0.13214 -0.202132 0)
(0.324116 0.421034 0)
(0.713497 0.888959 -1.32943e-17)
(1.0722 1.20902 1.27312e-17)
(1.38272 1.43553 -3.17318e-15)
(1.64542 1.59148 1.17851e-17)
(1.87286 1.6857 2.99227e-15)
(2.05288 1.73497 5.76133e-15)
(2.2026 1.74909 -5.72682e-15)
(2.32389 1.73998 5.56409e-15)
(2.42824 1.72071 0)
(2.51308 1.6859 1.07643e-14)
(2.58359 1.64584 5.20594e-15)
(2.64782 1.60289 2.03863e-17)
(2.71735 1.5638 5.03417e-15)
(2.79185 1.5298 4.93321e-15)
(2.86173 1.49392 4.84089e-15)
(2.93428 1.46108 0)
(3.00237 1.42815 4.65051e-15)
(3.06682 1.39458 -4.49766e-15)
(3.12803 1.36184 1.71958e-17)
(3.17529 1.32518 -1.68784e-17)
(3.21303 1.28714 -4.18742e-15)
(3.23996 1.24733 0)
(3.26036 1.20642 -4.07713e-15)
(3.28633 1.16969 0)
(3.30815 1.13244 -1.54687e-17)
(3.32731 1.09644 1.51672e-17)
(3.33989 1.05994 -3.0101e-17)
(3.35028 1.0237 -3.76323e-15)
(3.36464 0.990425 -2.92133e-17)
(3.37006 0.955426 -3.64385e-15)
(3.38389 0.924243 2.83188e-17)
(3.39365 0.892708 -3.60269e-15)
(3.41179 0.86405 2.73639e-17)
(3.42293 0.834636 3.44366e-15)
(3.43434 0.805812 0)
(3.43659 0.776557 3.38546e-15)
(3.45086 0.749901 6.6225e-15)
(3.45979 0.723194 0)
(3.46682 0.696332 3.22519e-15)
(3.46699 0.669372 0)
(3.4811 0.64507 0)
(3.48104 0.619176 -3.10919e-15)
(3.49444 0.595646 2.39115e-17)
(3.50237 0.57189 -3.01814e-15)
(3.50851 0.548175 2.93401e-15)
(3.50652 0.524012 -2.92567e-15)
(3.51892 0.501953 0)
(3.52438 0.479496 -2.86573e-15)
(3.52718 0.456875 2.80839e-15)
(3.52113 0.433861 3.27748e-22)
(3.52109 0.411773 4.32716e-17)
(3.52177 0.390191 -2.75848e-15)
(3.521 0.368709 -2.11127e-17)
(3.51955 0.347513 2.08863e-17)
(3.52516 0.327334 -2.05571e-17)
(3.52164 0.306347 -2.60431e-15)
(3.51607 0.285956 -1.26656e-15)
(3.50795 0.265386 1.27309e-15)
(3.49864 0.24533 1.25962e-15)
(3.48755 0.225389 0)
(3.46618 0.205111 1.672e-22)
(3.45109 0.185906 -1.2257e-15)
(3.443 0.166876 -2.42023e-15)
(3.42617 0.14806 0)
(3.39832 0.129597 -1.86201e-17)
(3.37549 0.111893 -1.16294e-15)
(3.35127 0.09477 0)
(3.32531 0.078112 -5.80986e-16)
(3.29799 0.0613127 -1.8014e-17)
(3.26937 0.0444254 1.7878e-17)
(3.23933 0.0279747 -3.01691e-16)
(3.20764 0.0118866 -1.23341e-16)
(3.17405 -0.00335386 7.00001e-17)
(3.13867 -0.0176467 5.2157e-17)
(3.10151 -0.0316438 -2.41855e-16)
(3.06239 -0.0453258 -1.71693e-17)
(3.02119 -0.0585245 -5.46203e-16)
(2.97806 -0.0711116 5.43179e-16)
(2.93306 -0.0828973 0)
(2.88592 -0.094292 1.10847e-15)
(2.83676 -0.105005 -3.34236e-17)
(2.78582 -0.115043 0)
(2.73314 -0.124445 -2.15257e-15)
(2.67894 -0.133125 -2.11076e-15)
(2.62316 -0.141155 4.23676e-15)
(2.56553 -0.148556 2.09355e-15)
(2.50593 -0.155274 3.25869e-17)
(2.44427 -0.161348 -3.24669e-17)
(2.38032 -0.166811 -2.0706e-15)
(2.31468 -0.171552 4.22346e-15)
(2.24793 -0.175443 7.13776e-22)
(2.17972 -0.178541 -3.45717e-17)
(2.11012 -0.180894 -3.55269e-17)
(2.0393 -0.182588 -4.6383e-15)
(1.96748 -0.183632 -4.76957e-15)
(1.89468 -0.1841 -3.85881e-17)
(1.82089 -0.18403 -5.07422e-15)
(1.74615 -0.183415 0)
(1.6704 -0.182298 4.18351e-17)
(1.59369 -0.180669 -4.30514e-17)
(1.51593 -0.178592 0)
(1.43709 -0.176113 0)
(1.35749 -0.173121 4.66598e-17)
(1.27731 -0.169693 -6.23592e-15)
(1.19664 -0.165864 4.91972e-17)
(1.116 -0.161615 2.52907e-17)
(1.03563 -0.156984 3.3279e-15)
(0.955191 -0.151959 -2.66373e-17)
(0.87477 -0.146448 0)
(0.794007 -0.140472 3.60192e-15)
(0.71291 -0.134002 -3.6692e-15)
(0.632274 -0.127055 -2.97323e-17)
(0.552365 -0.119684 3.92671e-15)
(0.474038 -0.111877 7.79404e-22)
(0.397671 -0.103716 -3.21069e-17)
(0.324134 -0.0952186 -3.31474e-17)
(0.253557 -0.0864083 4.4033e-15)
(0.186552 -0.077338 -3.49563e-17)
(0.123641 -0.0680839 -3.56962e-17)
(0.0657428 -0.0586245 -4.68098e-15)
(0.013552 -0.0488568 4.80145e-15)
(-0.0323296 -0.0395704 0)
(-0.0716002 -0.0307493 0)
(-0.104375 -0.022267 0)
(-0.130754 -0.014944 -5.2066e-15)
(-0.151335 -0.00868688 0)
(-0.166179 -0.00273547 -5.3874e-15)
(-0.175663 0.00199085 5.47158e-15)
(-0.181882 0.00596191 -4.41659e-17)
(-0.184461 0.00909919 -5.71496e-15)
(-0.183823 0.0115481 4.58021e-17)
(-0.181098 0.0136172 1.51221e-22)
(-0.179859 0.0155771 -9.55575e-17)
(-0.18708 0.0179084 4.86774e-17)
(-0.207851 0.0207552 0)
(-0.242863 0.02366 0)
(-0.282962 0.0254919 -3.27051e-15)
(-0.309144 0.0245995 -3.28781e-15)
(-0.297216 0.0201153 6.7328e-15)
(-0.226906 0.0122817 0)
(-0.0906515 0.00251405 0)
(0.0842677 -0.00669314 0)
(0.273817 -0.0188037 7.24379e-15)
(0.44413 -0.0309904 3.59378e-15)
(0.542236 -0.0422769 5.75746e-17)
(0.565227 -0.0515422 5.84578e-17)
(0.55449 -0.0569685 -3.8706e-15)
(0.569393 -0.0606711 7.67123e-15)
(0.656913 -0.063632 3.97128e-15)
(0.829865 -0.0660439 -5.93151e-17)
(1.04423 -0.0708793 -3.73322e-15)
(1.25215 -0.0605366 3.65824e-15)
(1.32195 0.00590529 -7.12268e-15)
(1.13512 0.125788 5.4225e-17)
(0.67201 0.285454 0)
(-0.107373 0.445933 3.60564e-15)
(-1.21061 0.58314 0)
(-2.51171 0.72697 2.7814e-15)
(-3.73859 0.868878 -1.9071e-17)
(-4.80783 0.991218 -6.45117e-21)
(-5.72481 1.09722 -2.09591e-15)
(-6.51915 1.19201 -9.92714e-16)
(-7.21156 1.27742 -9.49878e-16)
(-7.8176 1.35474 9.02064e-16)
(-8.35462 1.42577 2.78782e-17)
(-8.84107 1.49302 -1.35754e-17)
(-9.2906 1.55761 1.69691e-15)
(-9.70812 1.61951 -1.29756e-17)
(-10.0949 1.67817 -8.1465e-16)
(-10.4514 1.73328 -7.90114e-16)
(-10.7802 1.78607 6.07573e-22)
(-11.0852 1.83654 -7.80875e-16)
(-11.3693 1.88439 7.77904e-16)
(-11.6363 1.93013 -4.54108e-23)
(-11.8902 1.97393 -7.63035e-16)
(-12.1294 2.01441 1.51111e-15)
(-12.3479 2.04935 7.4781e-16)
(-12.539 2.0769 7.44352e-16)
(-12.6881 2.09687 -5.80593e-18)
(-12.7971 2.11209 5.82054e-18)
(-12.9087 2.13314 -2.91989e-18)
(-13.0778 2.17166 -7.51306e-16)
(-13.3436 2.23414 0)
(-13.687 2.30645 -2.88012e-18)
(-14.0722 2.38065 7.29369e-16)
(-14.447 2.40018 3.59368e-16)
(-14.5405 2.32333 -3.58158e-16)
(-13.5396 2.05608 0)
(-11.276 1.50988 3.63144e-16)
(-0.757158 -17.9502 0)
(-1.59973 -15.5264 0)
(-2.67871 -13.3783 8.44634e-19)
(-3.10522 -10.7873 -8.94218e-19)
(-3.20614 -8.51564 -1.95144e-18)
(-2.94726 -6.39501 2.08517e-18)
(-2.45962 -4.558 0)
(-1.78135 -2.96531 0)
(-1.00786 -1.60162 5.67103e-18)
(-0.184166 -0.487205 -6.1165e-18)
(0.606276 0.419342 -1.67826e-15)
(1.32632 1.17461 1.65469e-15)
(2.05157 1.76675 3.26109e-22)
(2.74226 2.2246 6.53801e-18)
(3.38641 2.58715 0)
(3.9932 2.87562 0)
(4.52 3.07908 -3.33734e-15)
(4.99065 3.22199 3.4082e-15)
(5.41374 3.3182 -3.40064e-15)
(5.79375 3.38012 0)
(6.12568 3.40572 -3.45694e-15)
(6.41637 3.40763 -1.33614e-17)
(6.67464 3.38806 -3.48273e-15)
(6.91309 3.35572 1.32059e-17)
(7.1378 3.31892 -6.59069e-15)
(7.34322 3.27244 -6.42994e-15)
(7.53768 3.22395 0)
(7.71667 3.17117 -3.02907e-15)
(7.87211 3.1113 0)
(8.0207 3.0515 -2.83212e-15)
(8.14846 2.98586 1.07695e-17)
(8.25765 2.91733 0)
(8.34846 2.84464 2.08669e-17)
(8.42408 2.76885 2.58583e-15)
(8.49919 2.69604 2.5723e-15)
(8.56568 2.62204 0)
(8.62501 2.54966 0)
(8.67259 2.47555 2.45599e-15)
(8.71263 2.40144 0)
(8.7532 2.32987 0)
(8.79264 2.25935 2.32182e-15)
(8.82808 2.19096 1.80031e-17)
(8.85595 2.12176 -1.77278e-17)
(8.87796 2.05353 -2.20044e-15)
(8.90014 1.98634 -2.19082e-15)
(8.92065 1.92052 1.67162e-17)
(8.94213 1.85701 -2.15863e-15)
(8.95217 1.79231 -4.13015e-15)
(8.96359 1.72958 0)
(8.97192 1.66686 -2.0225e-15)
(8.9834 1.60695 1.54886e-17)
(8.98567 1.54595 1.94095e-15)
(8.99315 1.4876 1.49579e-17)
(8.99139 1.42831 -2.93172e-17)
(8.99204 1.37101 2.97817e-22)
(8.99052 1.31385 -3.59587e-15)
(8.99168 1.25881 1.78604e-15)
(8.98367 1.20297 -1.36783e-17)
(8.97723 1.1487 -1.83136e-21)
(8.96783 1.09441 -1.69308e-15)
(8.96068 1.04192 -1.30615e-17)
(8.94774 0.989216 1.65851e-15)
(8.93358 0.937643 1.6081e-15)
(8.9172 0.88628 1.24608e-17)
(8.89913 0.835979 -1.22862e-17)
(8.87588 0.785865 -7.71481e-16)
(8.85345 0.736455 7.61444e-16)
(8.82943 0.68817 1.17318e-17)
(8.80261 0.640063 -7.41648e-16)
(8.77407 0.593101 -7.32861e-16)
(8.74344 0.546405 0)
(8.71405 0.500906 -1.43905e-15)
(8.6797 0.456322 7.12331e-16)
(8.63933 0.41172 7.03273e-16)
(8.60039 0.368319 -6.97136e-16)
(8.56324 0.326029 7.15734e-16)
(8.51961 0.284433 6.46277e-16)
(8.4733 0.243845 2.14137e-17)
(8.42457 0.20405 6.81562e-16)
(8.37389 0.164663 0)
(8.32147 0.125731 -3.3789e-16)
(8.26723 0.087301 1.68394e-16)
(8.21069 0.0496298 0)
(8.15135 0.0131654 2.09587e-17)
(8.08923 -0.021876 -4.1882e-17)
(8.0241 -0.0555169 1.88435e-16)
(7.95542 -0.0882774 -1.88528e-16)
(7.88272 -0.119932 -3.35589e-16)
(7.80597 -0.150317 2.10191e-17)
(7.72519 -0.179544 2.10788e-17)
(7.64007 -0.207443 -2.11575e-17)
(7.55047 -0.234025 0)
(7.45647 -0.259248 6.83965e-16)
(7.35799 -0.283123 -2.15116e-17)
(7.2552 -0.305478 2.16719e-17)
(7.14792 -0.326418 -2.77454e-15)
(7.03553 -0.345921 3.67397e-22)
(6.91753 -0.363883 1.40254e-15)
(6.79346 -0.380307 0)
(6.66262 -0.395168 1.45765e-15)
(6.52581 -0.408236 -2.99476e-15)
(6.38429 -0.419252 0)
(6.23759 -0.428219 3.23331e-15)
(6.08545 -0.435213 5.31763e-17)
(5.92795 -0.440394 -3.58544e-15)
(5.76543 -0.443769 -2.90785e-17)
(5.59791 -0.445501 3.04146e-17)
(5.42532 -0.445627 4.0735e-15)
(5.24768 -0.444181 0)
(5.06488 -0.441226 4.46682e-15)
(4.87697 -0.436769 -4.72574e-15)
(4.68369 -0.430841 -4.87691e-15)
(4.48486 -0.423471 -2.57689e-15)
(4.28112 -0.414729 -2.66586e-15)
(4.07299 -0.404703 2.80136e-15)
(3.86075 -0.393451 2.98438e-15)
(3.64555 -0.38101 0)
(3.42823 -0.367486 -3.34352e-15)
(3.20812 -0.35281 5.38341e-17)
(2.98533 -0.336899 -3.62372e-15)
(2.75908 -0.319804 -2.48632e-21)
(2.52932 -0.301504 6.23401e-17)
(2.29791 -0.282176 -6.56431e-17)
(2.06569 -0.261912 4.40567e-15)
(1.8347 -0.240841 0)
(1.60613 -0.219153 0)
(1.38229 -0.19699 -8.06145e-17)
(1.16347 -0.174422 -1.07336e-14)
(0.951417 -0.151635 0)
(0.747719 -0.128852 0)
(0.555473 -0.106657 6.36719e-15)
(0.377553 -0.0853034 -1.33408e-14)
(0.215738 -0.0645466 7.05657e-15)
(0.0706196 -0.044891 0)
(-0.0567686 -0.0265245 -7.6379e-15)
(-0.165152 -0.00918252 0)
(-0.255209 0.00621239 1.2351e-16)
(-0.327047 0.0186556 7.96232e-15)
(-0.38104 0.0290883 8.2128e-15)
(-0.422235 0.037695 -8.34985e-15)
(-0.449982 0.0439927 8.50947e-15)
(-0.465724 0.0485751 0)
(-0.474204 0.0522915 -7.00087e-17)
(-0.485034 0.0564981 7.09553e-17)
(-0.515015 0.0633736 0)
(-0.574646 0.073474 0)
(-0.66031 0.0852846 -7.20916e-17)
(-0.744737 0.0938486 4.71549e-15)
(-0.781345 0.0924174 4.66914e-15)
(-0.717805 0.0763746 7.44997e-17)
(-0.525566 0.0441503 4.86661e-15)
(-0.201257 0.00164199 -8.00014e-17)
(0.195734 -0.0448439 7.98813e-17)
(0.621684 -0.0912209 -9.59454e-15)
(1.01892 -0.134705 -4.57899e-15)
(1.29177 -0.163447 -7.22233e-17)
(1.4132 -0.17998 7.29002e-17)
(1.43709 -0.190033 4.55266e-15)
(1.46657 -0.203864 -4.53696e-15)
(1.58582 -0.228646 -8.7382e-15)
(1.77524 -0.25603 6.19641e-17)
(1.83624 -0.248286 3.56604e-15)
(1.50651 -0.169118 0)
(0.391251 0.0557465 5.05939e-15)
(-1.42411 0.393221 0)
(-3.36378 0.747133 -2.47095e-17)
(-5.33186 1.09564 2.16412e-17)
(-7.26376 1.41322 0)
(-9.07886 1.68002 1.73848e-17)
(-10.6504 1.89342 -1.61686e-17)
(-11.9675 2.06879 9.88735e-16)
(-13.0786 2.21954 9.45158e-16)
(-14.0278 2.35166 9.24355e-16)
(-14.848 2.46938 4.50707e-16)
(-15.5656 2.57595 -4.34808e-16)
(-16.201 2.67385 -4.35761e-16)
(-16.7729 2.76531 -4.22601e-16)
(-17.2953 2.85145 -1.32311e-17)
(-17.7756 2.93252 -4.17992e-16)
(-18.2193 3.00892 6.45365e-18)
(-18.63 3.08138 -8.13574e-22)
(-19.0125 3.15074 7.20851e-22)
(-19.3721 3.21755 -4.03314e-16)
(-19.7119 3.28197 -4.00791e-16)
(-20.0349 3.34455 0)
(-20.3434 3.40552 3.10279e-18)
(-20.6362 3.46326 -3.96714e-16)
(-20.9156 3.51723 -3.09201e-18)
(-21.1871 3.56848 -7.89985e-16)
(-21.4531 3.61992 0)
(-21.7114 3.67323 -3.9567e-16)
(-21.9537 3.72769 -3.97426e-16)
(-22.1683 3.78232 0)
(-22.322 3.83018 0)
(-22.3601 3.85414 0)
(-22.255 3.83976 0)
(-22.0318 3.75813 -4.09199e-16)
(-21.5445 3.59552 -2.03112e-16)
(-20.3622 3.16303 0)
(-18.7783 2.35485 -1.81397e-16)
(-0.321981 -18.1068 0)
(-1.25165 -15.8333 0)
(-2.36027 -13.666 0)
(-2.88878 -11.1653 -2.55635e-16)
(-3.05307 -8.90416 0)
(-2.86914 -6.78673 0)
(-2.43819 -4.92664 2.34253e-18)
(-1.79769 -3.29502 -6.1723e-16)
(-1.02553 -1.88697 -5.22264e-18)
(-0.183553 -0.705168 6.91911e-16)
(0.667134 0.274815 2.86439e-18)
(1.45509 1.08091 -7.39552e-16)
(2.23225 1.74019 0)
(2.99977 2.26604 0)
(3.73427 2.69669 -5.94877e-18)
(4.43364 3.04631 -7.85479e-16)
(5.07601 3.31716 6.14673e-18)
(5.66279 3.5218 -1.63289e-15)
(6.20165 3.67294 0)
(6.69735 3.78575 0)
(7.14589 3.85688 -1.70251e-15)
(7.55437 3.90003 0)
(7.92412 3.91722 1.74514e-15)
(8.24832 3.90638 -1.70773e-15)
(8.53916 3.8805 1.68808e-15)
(8.79985 3.83835 -1.25009e-20)
(9.03601 3.78749 -1.57251e-15)
(9.25036 3.73006 3.08813e-15)
(9.43972 3.66436 1.49345e-15)
(9.61395 3.59623 1.43731e-15)
(9.76892 3.52244 1.09529e-17)
(9.90622 3.44615 1.34943e-15)
(10.0277 3.36668 0)
(10.1331 3.28344 7.06273e-21)
(10.23 3.20095 -1.30351e-15)
(10.3162 3.11653 1.28646e-15)
(10.3931 3.03348 9.76061e-18)
(10.4598 2.94919 -2.48125e-15)
(10.5167 2.86441 0)
(10.5689 2.78115 -1.20062e-15)
(10.6158 2.69789 0)
(10.6572 2.61679 0)
(10.6916 2.53504 0)
(10.7194 2.45471 1.09979e-15)
(10.7443 2.3749 -1.07642e-15)
(10.7649 2.29631 1.06528e-15)
(10.784 2.21957 -1.06177e-15)
(10.7949 2.14258 1.02812e-15)
(10.8043 2.06752 -1.01314e-15)
(10.8096 1.99245 9.99429e-16)
(10.8146 1.9198 -1.90425e-22)
(10.8135 1.84678 -9.62561e-16)
(10.8131 1.77612 -7.32571e-18)
(10.8067 1.70506 7.18404e-18)
(10.7999 1.63614 7.04167e-18)
(10.7905 1.56741 1.76243e-15)
(10.7811 1.50066 0)
(10.7663 1.43373 -1.32975e-17)
(10.7511 1.36867 8.47881e-16)
(10.7332 1.30371 8.32821e-16)
(10.7153 1.24056 -8.18467e-16)
(10.6936 1.17744 9.35907e-22)
(10.6706 1.11585 7.78254e-16)
(10.6455 1.05458 0)
(10.6188 0.99461 1.17567e-17)
(10.5892 0.935201 -3.92624e-16)
(10.5586 0.87667 1.13809e-17)
(10.5269 0.819354 -1.12035e-17)
(10.4928 0.762402 8.87995e-23)
(10.4574 0.706829 1.09017e-17)
(10.4203 0.651741 0)
(10.3827 0.597954 3.51123e-16)
(10.3427 0.545139 -3.47061e-16)
(10.2992 0.492728 -3.22407e-16)
(10.2554 0.441704 6.48715e-16)
(10.2118 0.391548 -6.43011e-16)
(10.1644 0.342044 -2.0248e-17)
(10.1149 0.293782 1.00518e-17)
(10.0636 0.24645 -3.19597e-16)
(10.0106 0.199832 -9.93056e-18)
(9.95618 0.154278 1.58103e-16)
(9.90039 0.109213 -7.87155e-17)
(9.84278 0.0649787 -3.22307e-23)
(9.78285 0.0218233 1.95596e-17)
(9.72064 -0.0199572 -9.76428e-18)
(9.65589 -0.0601557 0)
(9.58791 -0.099205 8.77961e-17)
(9.51617 -0.13704 1.46437e-16)
(9.4406 -0.173467 -1.56464e-16)
(9.36121 -0.208552 0)
(9.2778 -0.242333 -3.14794e-16)
(9.19021 -0.274676 -3.16222e-16)
(9.0985 -0.305563 -8.37613e-23)
(9.00253 -0.335013 0)
(8.90249 -0.362834 0)
(8.79824 -0.389143 6.50591e-16)
(8.68917 -0.413887 -6.56842e-16)
(8.57478 -0.43697 -6.53585e-16)
(8.45457 -0.458398 -2.09986e-17)
(8.32777 -0.478138 1.06389e-17)
(8.19482 -0.495924 -1.40216e-15)
(8.05723 -0.511453 -1.46706e-15)
(7.91504 -0.524707 1.53699e-15)
(7.76775 -0.535773 0)
(7.61514 -0.544829 3.38595e-15)
(7.45739 -0.551869 0)
(7.2944 -0.557076 0)
(7.12595 -0.56047 -1.95344e-15)
(6.95195 -0.562095 -1.61914e-17)
(6.77213 -0.562001 -2.1673e-15)
(6.58641 -0.560197 4.6158e-15)
(6.39425 -0.556718 2.43556e-15)
(6.19499 -0.551565 1.26588e-15)
(5.98866 -0.54471 0)
(5.77507 -0.5362 2.25434e-17)
(5.55339 -0.525986 -3.07606e-15)
(5.32348 -0.514006 0)
(5.08532 -0.500278 1.7165e-15)
(4.83793 -0.484655 0)
(4.58172 -0.467113 1.9327e-15)
(4.31638 -0.447709 -4.13635e-15)
(4.04152 -0.42641 2.1858e-15)
(3.75813 -0.40336 3.6521e-17)
(3.46616 -0.378524 -2.49229e-15)
(3.16758 -0.352108 4.18866e-17)
(2.86326 -0.324192 -4.47274e-17)
(2.55564 -0.294966 3.08771e-15)
(2.24551 -0.26449 3.3079e-15)
(1.9352 -0.233112 0)
(1.62705 -0.201131 -3.80184e-15)
(1.32555 -0.169177 1.22926e-21)
(1.03507 -0.137517 8.96444e-15)
(0.759382 -0.106641 -9.88019e-15)
(0.501631 -0.0770481 5.40721e-15)
(0.265138 -0.0492505 9.24416e-17)
(0.0536363 -0.0235553 -6.42169e-15)
(-0.131074 -0.00017819 -1.06316e-16)
(-0.286874 0.0204415 -1.11188e-16)
(-0.414632 0.0382039 -7.25678e-15)
(-0.517347 0.0531486 7.69367e-15)
(-0.595008 0.0646521 -1.24563e-16)
(-0.64966 0.073447 1.28738e-16)
(-0.68989 0.0810919 -1.33503e-16)
(-0.729633 0.0901721 8.96946e-15)
(-0.790715 0.103528 -8.89012e-15)
(-0.883824 0.120899 1.36359e-16)
(-0.99669 0.138331 3.90185e-22)
(-1.08711 0.146174 -1.34544e-16)
(-1.09666 0.136804 6.81334e-17)
(-0.963675 0.102277 -4.22256e-15)
(-0.677622 0.0467131 -4.21938e-15)
(-0.245389 -0.0218797 0)
(0.264957 -0.0983577 -4.11591e-15)
(0.808051 -0.15829 3.77282e-15)
(1.32485 -0.21356 5.66074e-17)
(1.71783 -0.249102 -5.63729e-17)
(1.94291 -0.26857 0)
(2.02996 -0.283544 0)
(2.04961 -0.302044 0)
(2.05597 -0.317892 2.91846e-15)
(1.97677 -0.302283 -2.41605e-15)
(1.56374 -0.20389 -1.86214e-15)
(0.557217 0.0385773 1.37386e-15)
(-1.18398 0.415988 7.80585e-21)
(-3.50317 0.852067 -1.70647e-21)
(-5.97229 1.28183 -1.86946e-21)
(-8.33868 1.68262 -1.03109e-17)
(-10.4545 2.02834 -6.1733e-16)
(-12.2679 2.29784 -1.21313e-15)
(-13.8026 2.5006 0)
(-15.0886 2.6624 -5.79384e-16)
(-16.1745 2.80026 8.93926e-18)
(-17.1053 2.922 -2.83026e-16)
(-17.9139 3.03185 2.71536e-16)
(-18.6253 3.13276 2.78324e-16)
(-19.2571 3.22667 2.77925e-16)
(-19.8252 3.315 2.80918e-16)
(-20.3432 3.39855 -5.5046e-16)
(-20.8192 3.4775 2.69471e-16)
(-21.2598 3.55225 -6.52308e-22)
(-21.6692 3.62355 2.71834e-16)
(-22.0519 3.69227 5.32585e-22)
(-22.4124 3.75865 5.45281e-16)
(-22.7531 3.82276 -5.11007e-23)
(-23.0759 3.88488 -4.22133e-18)
(-23.382 3.94526 -4.22476e-18)
(-23.6696 4.00276 -2.67252e-16)
(-23.9407 4.05597 0)
(-24.1984 4.1045 2.74861e-16)
(-24.4415 4.14833 2.69104e-16)
(-24.6623 4.18998 5.52873e-16)
(-24.8478 4.22893 2.71202e-16)
(-24.9824 4.26222 -2.77247e-16)
(-25.0379 4.28364 2.18331e-18)
(-24.9797 4.27514 0)
(-24.8082 4.21433 2.84232e-16)
(-24.557 4.08813 1.38783e-16)
(-24.1243 3.90955 1.37217e-16)
(-23.2015 3.55591 1.32204e-16)
(-22.09 2.77055 0)
(0.0839642 -17.9737 -1.63701e-19)
(-0.905633 -15.8303 1.73854e-19)
(-1.99578 -13.7118 6.78303e-19)
(-2.56502 -11.3268 1.7388e-16)
(-2.78356 -9.12223 -3.64424e-16)
(-2.66115 -7.04813 0)
(-2.2889 -5.20234 -3.90592e-16)
(-1.70635 -3.5661 3.98489e-16)
(-0.971852 -2.13416 4.24337e-16)
(-0.151607 -0.916358 -8.69378e-16)
(0.696821 0.104524 4.57143e-16)
(1.5046 0.947602 0)
(2.30117 1.65241 4.72413e-16)
(3.08866 2.21394 0)
(3.84518 2.67439 -9.57452e-16)
(4.56394 3.04819 -3.91017e-18)
(5.23652 3.34715 0)
(5.86764 3.58581 1.02647e-15)
(6.45512 3.76745 -1.03286e-15)
(7.00059 3.90816 1.04138e-15)
(7.49944 4.00602 1.07648e-15)
(7.95994 4.07306 0)
(8.38134 4.11256 9.39858e-21)
(8.75729 4.12183 0)
(9.09591 4.11225 8.56177e-18)
(9.39757 4.08174 2.17405e-15)
(9.66713 4.0375 -8.16389e-18)
(9.90965 3.98396 -1.03715e-15)
(10.1257 3.92058 -9.89415e-16)
(10.322 3.85272 -9.78351e-16)
(10.498 3.77846 -7.4199e-18)
(10.6559 3.70115 -9.15945e-16)
(10.7981 3.62073 9.16282e-16)
(10.924 3.536 -9.01242e-16)
(11.0381 3.45085 3.37124e-22)
(11.1396 3.36303 -8.64626e-16)
(11.23 3.276 0)
(11.3101 3.18783 8.48114e-16)
(11.3797 3.0988 0)
(11.4422 3.01076 -3.53441e-21)
(11.4967 2.92195 0)
(11.5447 2.8352 6.15385e-18)
(11.5855 2.74781 -2.13367e-22)
(11.6197 2.66191 -5.92513e-18)
(11.649 2.57624 1.50252e-15)
(11.6726 2.49155 -7.34585e-16)
(11.6927 2.40844 7.3144e-16)
(11.7066 2.32555 -1.09893e-17)
(11.7172 2.24444 1.38616e-15)
(11.7233 2.16327 -6.88837e-16)
(11.7268 2.08429 6.76443e-16)
(11.726 2.00533 0)
(11.7232 1.92845 0)
(11.7163 1.85152 -6.28265e-16)
(11.7073 1.77666 0)
(11.6954 1.70203 -6.04065e-16)
(11.6818 1.6293 0)
(11.6649 1.55675 9.07116e-18)
(11.6464 1.48608 -8.89429e-18)
(11.6252 1.41559 -1.10886e-15)
(11.6026 1.34689 1.09665e-15)
(11.5774 1.27841 -1.08482e-15)
(11.5505 1.21159 -5.20461e-16)
(11.5217 1.14515 -8.10752e-18)
(11.4911 1.08013 -5.10257e-16)
(11.4587 1.01586 -7.8294e-18)
(11.4244 0.952475 2.62061e-16)
(11.3889 0.890399 -7.57804e-18)
(11.3512 0.828777 0)
(11.3122 0.768632 0)
(11.2717 0.709053 2.3187e-16)
(11.2296 0.650784 0)
(11.1864 0.593586 -1.2327e-22)
(11.1408 0.536919 6.96644e-18)
(11.094 0.481688 -4.54348e-16)
(11.0464 0.427352 2.17712e-16)
(10.9962 0.373764 6.73343e-18)
(10.9441 0.321516 -1.00049e-16)
(10.8905 0.270288 -2.64454e-23)
(10.8352 0.219838 -6.5577e-18)
(10.7787 0.170679 1.04134e-16)
(10.7208 0.122243 5.1707e-17)
(10.6613 0.0746187 0)
(10.5997 0.0281223 0)
(10.536 -0.0169349 -1.6525e-23)
(10.4699 -0.0606345 6.33472e-18)
(10.4007 -0.102889 -5.0515e-17)
(10.3279 -0.143875 0)
(10.2513 -0.183378 9.43255e-17)
(10.171 -0.221461 6.28197e-18)
(10.0867 -0.258169 2.01e-16)
(9.99831 -0.293399 2.0116e-16)
(9.9059 -0.327108 -4.09286e-16)
(9.80932 -0.359319 -8.61255e-23)
(9.70875 -0.389833 1.26712e-17)
(9.60406 -0.418762 9.92405e-23)
(9.49468 -0.446042 -1.27895e-17)
(9.38013 -0.471581 6.43439e-18)
(9.25989 -0.495385 0)
(9.13318 -0.517421 -6.5345e-18)
(9.00036 -0.537408 1.29243e-15)
(8.86306 -0.555016 8.99921e-16)
(8.72155 -0.57022 -9.31416e-16)
(8.57529 -0.58312 1.67087e-22)
(8.42396 -0.593912 -1.01671e-15)
(8.26766 -0.602591 1.89141e-22)
(8.10628 -0.609345 -1.11313e-15)
(7.93955 -0.614195 1.14687e-15)
(7.76734 -0.617189 9.53041e-18)
(7.5894 -0.618375 0)
(7.40563 -0.617763 -8.84045e-22)
(7.21553 -0.615384 -7.15558e-16)
(7.01834 -0.611224 2.31072e-17)
(6.81397 -0.605262 -1.21598e-17)
(6.60219 -0.597538 -8.06627e-16)
(6.38199 -0.58798 -1.34617e-17)
(6.15296 -0.576521 -1.41999e-17)
(5.91495 -0.563164 1.49893e-17)
(5.66689 -0.547746 0)
(5.40919 -0.53027 0)
(5.14171 -0.510772 1.15125e-15)
(4.86387 -0.489213 -1.87963e-17)
(4.57627 -0.465724 0)
(4.27824 -0.440191 0)
(3.97089 -0.41281 0)
(3.65414 -0.383522 -1.53637e-15)
(3.32943 -0.352505 -3.36673e-15)
(2.99764 -0.319781 6.35496e-22)
(2.66086 -0.28576 -3.06326e-17)
(2.32095 -0.250686 4.27041e-15)
(1.98142 -0.215172 2.32263e-15)
(1.64549 -0.179492 -2.60692e-15)
(1.31694 -0.144177 5.62644e-15)
(0.999982 -0.109637 -3.0243e-15)
(0.698387 -0.0765259 3.3136e-15)
(0.417042 -0.0454349 3.93801e-15)
(0.159225 -0.0165574 -4.41106e-15)
(-0.0707481 0.00971367 7.4287e-17)
(-0.271871 0.0334763 -8.02829e-17)
(-0.443858 0.0541394 5.66406e-15)
(-0.585272 0.0712048 0)
(-0.698157 0.0853944 1.00674e-16)
(-0.788917 0.0984224 -1.08031e-16)
(-0.873259 0.113568 -7.33457e-15)
(-0.970284 0.133695 7.45938e-15)
(-1.0856 0.156155 0)
(-1.19875 0.174195 -3.57695e-15)
(-1.26125 0.175051 0)
(-1.22777 0.151237 0)
(-1.03991 0.0987834 0)
(-0.709713 0.025713 -2.89598e-15)
(-0.244999 -0.0639065 8.77535e-17)
(0.298352 -0.155843 2.57204e-15)
(0.873858 -0.227687 2.44207e-15)
(1.42663 -0.279097 2.35156e-15)
(1.86569 -0.306005 0)
(2.14098 -0.319139 2.298e-15)
(2.25819 -0.325276 -2.23773e-15)
(2.22768 -0.327934 3.20716e-17)
(2.09767 -0.317291 -2.65986e-22)
(1.77338 -0.243049 1.27801e-15)
(1.05016 -0.0443153 9.65085e-16)
(-0.298266 0.316731 -7.13686e-16)
(-2.37343 0.80698 -5.96544e-16)
(-4.95012 1.33069 0)
(-7.63883 1.80886 0)
(-10.126 2.21481 -8.95909e-16)
(-12.2682 2.53395 8.722e-16)
(-14.0588 2.76731 4.2945e-16)
(-15.5545 2.9373 0)
(-16.8045 3.07105 8.5326e-16)
(-17.86 3.18595 6.64874e-18)
(-18.7663 3.28954 -6.63199e-18)
(-19.5554 3.38516 6.60731e-18)
(-20.2504 3.47477 -4.28528e-16)
(-20.8672 3.55953 0)
(-21.4207 3.64025 -2.11562e-16)
(-21.9239 3.71737 4.22544e-16)
(-22.3855 3.79088 0)
(-22.8123 3.86097 2.13235e-16)
(-23.2084 3.92777 2.03342e-16)
(-23.578 3.99212 -2.0305e-16)
(-23.9249 4.05487 -4.21851e-16)
(-24.2511 4.11551 -2.09173e-16)
(-24.5578 4.17381 0)
(-24.8453 4.22977 -2.06208e-16)
(-25.1111 4.28256 -3.28855e-18)
(-25.3563 4.32996 3.29698e-18)
(-25.5816 4.37175 -3.30461e-18)
(-25.7847 4.40751 -4.23808e-16)
(-25.9597 4.43891 -4.61093e-23)
(-26.0992 4.46469 0)
(-26.195 4.48405 2.13095e-16)
(-26.2301 4.49258 2.1232e-16)
(-26.1821 4.46983 1.67837e-18)
(-26.0556 4.38989 -1.85557e-21)
(-25.8803 4.24844 0)
(-25.5787 4.05875 4.08163e-19)
(-24.91 3.7235 -1.02775e-16)
(-24.1489 2.98463 1.91983e-19)
(0.506033 -17.7637 1.27395e-19)
(-0.520463 -15.743 6.81713e-17)
(-1.58441 -13.6942 1.33204e-16)
(-2.18231 -11.4295 -1.32194e-16)
(-2.45276 -9.29589 2.77084e-16)
(-2.39282 -7.27546 2.77661e-16)
(-2.08348 -5.45478 2.96535e-16)
(-1.56268 -3.82634 2.99785e-16)
(-0.878295 -2.3874 -3.20023e-16)
(-0.0959408 -1.14916 3.28248e-16)
(0.730633 -0.0998151 0)
(1.53526 0.777087 2.76321e-18)
(2.33387 1.51976 -3.60261e-16)
(3.12912 2.1168 -2.88192e-18)
(3.90016 2.60903 -2.87846e-18)
(4.63234 3.00833 3.83226e-16)
(5.32047 3.32842 7.63544e-16)
(5.96675 3.5868 -7.86191e-16)
(6.57058 3.78582 -3.09416e-18)
(7.13749 3.94368 -8.01829e-16)
(7.66679 4.0613 -8.11697e-16)
(8.16021 4.14656 6.35429e-18)
(8.61392 4.20325 -8.4842e-16)
(9.02602 4.23067 -8.39561e-16)
(9.40229 4.23799 -8.46394e-16)
(9.74021 4.22211 -6.63783e-18)
(10.0431 4.18932 8.35009e-16)
(10.3149 4.14414 -8.33533e-16)
(10.5581 4.08717 -8.08798e-16)
(10.7782 4.02354 7.92127e-16)
(10.9763 3.95234 6.08699e-18)
(11.1551 3.87706 -5.94019e-18)
(11.3175 3.79821 4.94971e-21)
(11.463 3.71452 7.46805e-16)
(11.5946 3.62945 5.76672e-18)
(11.7118 3.5409 -5.66262e-18)
(11.8163 3.4524 0)
(11.9099 3.36257 -5.52632e-18)
(11.9922 3.27152 -6.86419e-16)
(12.066 3.18102 1.37268e-15)
(12.1301 3.08924 0)
(12.1864 2.99915 0)
(12.2348 2.90828 1.01392e-17)
(12.276 2.81874 -9.93234e-18)
(12.3113 2.72926 -6.2757e-16)
(12.3399 2.64053 9.5551e-18)
(12.3637 2.55321 -9.44549e-18)
(12.3815 2.46615 -5.81312e-16)
(12.3952 2.38079 -1.17333e-15)
(12.4038 2.29532 0)
(12.4088 2.21192 -5.59653e-16)
(12.4096 2.1286 -8.57316e-18)
(12.4072 2.04727 8.40843e-18)
(12.4009 1.96598 5.28027e-16)
(12.3917 1.88671 0)
(12.3792 1.80769 0)
(12.3644 1.73056 0)
(12.3465 1.65371 -4.95282e-16)
(12.3265 1.57875 -4.70517e-16)
(12.3036 1.50404 4.61702e-16)
(12.2788 1.43114 -9.20107e-16)
(12.2515 1.35854 4.58349e-16)
(12.2223 1.28766 -6.92244e-18)
(12.191 1.21722 6.78826e-18)
(12.1578 1.14825 8.47019e-16)
(12.1229 1.08013 2.15879e-16)
(12.0857 1.01293 -2.05854e-16)
(12.0471 0.947108 -6.31672e-18)
(12.0065 0.881803 1.9881e-16)
(11.9644 0.818034 6.11185e-18)
(11.9208 0.754931 -1.9242e-16)
(11.8754 0.69314 -1.89519e-16)
(11.8289 0.632523 1.86642e-16)
(11.7805 0.572497 1.78236e-16)
(11.7304 0.51396 3.68523e-16)
(11.6793 0.456403 0)
(11.626 0.399672 0)
(11.5708 0.344347 1.74609e-16)
(11.514 0.290125 -2.58155e-23)
(11.4557 0.236718 -5.33763e-18)
(11.396 0.184664 -7.92492e-17)
(11.335 0.133602 -4.18576e-17)
(11.2725 0.0833241 5.18465e-18)
(11.2079 0.0342293 -5.14153e-18)
(11.1412 -0.013338 2.23289e-25)
(11.0723 -0.0596409 2.02694e-17)
(11.0003 -0.104431 -4.02796e-17)
(10.9248 -0.147755 0)
(10.8454 -0.189537 -7.9692e-17)
(10.7623 -0.229869 -4.95823e-18)
(10.6752 -0.268712 1.63008e-16)
(10.584 -0.306011 4.92513e-18)
(10.4887 -0.341719 -4.9142e-18)
(10.3893 -0.375865 4.90732e-18)
(10.2858 -0.40824 3.08993e-16)
(10.1782 -0.438951 0)
(10.0659 -0.46794 3.141e-16)
(9.94837 -0.495109 0)
(9.82517 -0.52046 0)
(9.6955 -0.543958 0)
(9.55969 -0.565309 -6.45445e-16)
(9.41948 -0.58416 5.22839e-18)
(9.27521 -0.600483 1.17038e-22)
(9.12635 -0.614392 -5.63953e-18)
(8.97254 -0.626098 -5.8664e-18)
(8.81381 -0.635599 6.10691e-18)
(8.65002 -0.643088 8.13458e-16)
(8.48087 -0.648587 0)
(8.30621 -0.652143 0)
(8.12579 -0.653803 0)
(7.93949 -0.653578 -9.58332e-16)
(7.74685 -0.651493 5.07097e-16)
(7.54709 -0.647541 5.1222e-16)
(7.34013 -0.641701 0)
(7.12574 -0.634009 5.59305e-16)
(6.90296 -0.624395 1.19487e-15)
(6.67138 -0.612797 9.69349e-18)
(6.43088 -0.599226 -6.59851e-16)
(6.18037 -0.583525 0)
(5.92015 -0.565699 1.11512e-17)
(5.6501 -0.545775 -1.16884e-17)
(5.36955 -0.523701 1.22837e-17)
(5.07907 -0.499614 -8.42363e-16)
(4.7779 -0.473388 0)
(4.46686 -0.445224 1.44764e-17)
(4.14563 -0.415032 9.6216e-16)
(3.81529 -0.383008 1.0598e-15)
(3.47665 -0.349162 1.08979e-15)
(3.1315 -0.313918 0)
(2.78136 -0.27748 -1.27203e-15)
(2.42893 -0.240461 -1.37972e-15)
(2.07674 -0.203071 2.32315e-17)
(1.72818 -0.16583 -3.27957e-15)
(1.38753 -0.129166 0)
(1.0582 -0.09372 -1.96155e-15)
(0.745078 -0.0600795 -3.40009e-17)
(0.451289 -0.0286338 2.46552e-15)
(0.181275 0.000133407 0)
(-0.0629344 0.0265047 -3.05603e-15)
(-0.279811 0.0500963 -6.75777e-15)
(-0.467528 0.0703973 -5.8841e-17)
(-0.627728 0.0881561 0)
(-0.765294 0.105325 4.62298e-15)
(-0.892214 0.125464 0)
(-1.01993 0.149959 -8.11797e-17)
(-1.14555 0.173924 -5.1307e-15)
(-1.24686 0.188186 2.46019e-15)
(-1.28575 0.180795 1.53458e-16)
(-1.21869 0.144477 -2.34344e-15)
(-1.02242 0.0791211 -6.24914e-17)
(-0.692296 -0.00845257 1.85713e-15)
(-0.234142 -0.110276 1.70311e-15)
(0.306499 -0.209137 0)
(0.88119 -0.291085 -2.94665e-15)
(1.43541 -0.338028 -1.53898e-15)
(1.88084 -0.350719 -1.40009e-15)
(2.16509 -0.346933 -1.45057e-15)
(2.27356 -0.33371 1.35673e-15)
(2.20209 -0.316011 3.84588e-17)
(1.97404 -0.27049 0)
(1.48999 -0.137682 -8.13574e-16)
(0.550106 0.150339 -5.97033e-16)
(-1.06211 0.624974 -1.56454e-17)
(-3.4096 1.23202 4.44774e-16)
(-6.19509 1.83886 3.91494e-16)
(-8.99814 2.33831 0)
(-11.5037 2.71911 3.66578e-16)
(-13.6058 2.99123 -3.54951e-16)
(-15.3373 3.1757 3.46701e-16)
(-16.7714 3.30373 -3.51191e-16)
(-17.9671 3.40322 -6.99962e-16)
(-18.9759 3.49052 3.41538e-16)
(-19.8417 3.57198 -1.70585e-16)
(-20.5953 3.64977 -3.56045e-16)
(-21.2585 3.72463 1.80065e-16)
(-21.8461 3.79694 5.46629e-18)
(-22.3716 3.86691 -1.09104e-17)
(-22.8474 3.93453 -1.68658e-16)
(-23.2815 3.99949 0)
(-23.6808 4.06192 0)
(-24.0498 4.12173 -1.72299e-16)
(-24.3923 4.17899 5.36792e-18)
(-24.712 4.23495 -8.0258e-18)
(-25.0109 4.28913 3.44217e-16)
(-25.2903 4.3409 0)
(-25.5503 4.3901 3.4318e-16)