/*--------------------------------*- C++ -*----------------------------------*\
  =========                 |
  \\      /  F ield         | OpenFOAM: The Open Source CFD Toolbox
   \\    /   O peration     | Website:  https://openfoam.org
    \\  /    A nd           | Version:  8
     \\/     M anipulation  |
\*---------------------------------------------------------------------------*/
FoamFile
{
    version     2.0;
    format      ascii;
    class       volScalarField;
    location    "0.32";
    object      p;
}
// * * * * * * * * * * * * * * * * * * * * * * * * * * * * * * * * * * * * * //

dimensions      [0 2 -2 0 0 0 0];

internalField   nonuniform List<scalar> 
112642
(
3.42453
3.41135
3.39732
3.38186
3.36448
3.34566
3.3258
3.30529
3.28429
3.2629
3.24116
3.2191
3.19674
3.17408
3.15115
3.12794
3.10446
3.08074
3.05677
3.03256
3.00811
2.98344
2.95853
2.9334
2.90805
2.88248
2.8567
2.8307
2.8045
2.77811
2.75153
2.72475
2.6978
2.67069
2.64341
2.61598
2.58841
2.56069
2.53285
2.50489
2.47682
2.44864
2.42035
2.39197
2.36349
2.33493
2.30629
2.27757
2.24876
2.21989
2.19094
2.16193
2.13285
2.10372
2.07451
2.04525
2.01593
1.98655
1.95711
1.92762
1.89809
1.86849
1.83885
1.80915
1.77941
1.74961
1.71976
1.68987
1.65993
1.62994
1.5999
1.56981
1.53967
1.50948
1.47924
1.44896
1.41862
1.38824
1.35782
1.32734
1.29681
1.26623
1.23561
1.20493
1.17421
1.14342
1.11261
1.08173
1.0508
1.01981
0.988776
0.957695
0.926554
0.895357
0.864105
0.832804
0.801443
0.77002
0.738543
0.707007
0.675411
0.643755
0.612037
0.580254
0.548411
0.516508
0.484534
0.452494
0.420389
0.388223
0.35598
0.323669
0.291289
0.258835
0.226321
0.193719
0.161048
0.12831
0.0954935
0.0625995
0.0296249
-0.00342014
-0.0365443
-0.0697426
-0.10303
-0.13639
-0.169832
-0.203358
-0.236964
-0.270655
-0.304427
-0.338288
-0.372234
-0.406268
-0.440397
-0.474612
-0.508919
-0.54332
-0.577814
-0.612402
-0.647075
-0.681851
-0.716722
-0.751682
-0.786744
-0.821897
-0.857145
-0.892484
-0.927922
-0.963448
-0.999067
-1.03478
-1.07057
-1.10645
-1.14241
-1.17846
-1.21458
-1.25079
-1.28707
-1.32342
-1.35983
-1.39631
-1.43286
-1.46948
-1.50614
-1.54286
-1.57963
-1.61643
-1.65329
-1.69018
-1.7271
-1.76406
-1.80106
-1.83809
-1.87515
-1.91222
-1.94935
-1.98651
-2.02371
-2.06094
-2.09824
-2.13558
-2.17297
-2.21042
-2.24793
-2.28548
-2.32307
-2.3607
-2.39835
-2.43603
-2.47369
-2.51134
-2.54895
-2.58645
-2.62371
-2.66042
-2.69622
-2.73073
-2.7643
-2.79744
3.43214
3.4189
3.40512
3.39049
3.37408
3.35615
3.33695
3.31693
3.29631
3.27522
3.25375
3.23193
3.2098
3.18734
3.16459
3.14156
3.11825
3.09468
3.07085
3.04676
3.02243
2.99785
2.97304
2.94799
2.92271
2.8972
2.87147
2.84551
2.81934
2.79298
2.7664
2.73964
2.71268
2.68556
2.65826
2.63079
2.60318
2.57542
2.54752
2.51949
2.49134
2.46308
2.4347
2.40622
2.37763
2.34896
2.32019
2.29134
2.2624
2.23338
2.20429
2.17512
2.14588
2.11657
2.08719
2.05775
2.02824
1.99867
1.96903
1.93934
1.90959
1.87978
1.84991
1.81999
1.79001
1.75997
1.72989
1.69975
1.66955
1.6393
1.609
1.57864
1.54824
1.51778
1.48727
1.4567
1.42609
1.39542
1.3647
1.33393
1.30311
1.27223
1.2413
1.21033
1.17929
1.1482
1.11707
1.08587
1.05463
1.02333
0.991971
0.96056
0.929095
0.897569
0.86599
0.834353
0.802658
0.770906
0.739087
0.707219
0.675276
0.643285
0.61122
0.579099
0.546912
0.51466
0.482343
0.449954
0.417504
0.384984
0.352395
0.319735
0.287005
0.254204
0.221335
0.188387
0.155369
0.122278
0.0891139
0.0558717
0.022555
-0.0108397
-0.0443069
-0.0778524
-0.111478
-0.145184
-0.178967
-0.212832
-0.246777
-0.280807
-0.314916
-0.349116
-0.383398
-0.417765
-0.452218
-0.486768
-0.5214
-0.556122
-0.590938
-0.62584
-0.660837
-0.695922
-0.731102
-0.766371
-0.801732
-0.837183
-0.87273
-0.90836
-0.944081
-0.979887
-1.01578
-1.05177
-1.08783
-1.12397
-1.16019
-1.19648
-1.23286
-1.26931
-1.30582
-1.34239
-1.37904
-1.41574
-1.4525
-1.48931
-1.52617
-1.56308
-1.60003
-1.63701
-1.67404
-1.71109
-1.74818
-1.78528
-1.82241
-1.85958
-1.89676
-1.93396
-1.97119
-2.00845
-2.04573
-2.08306
-2.1204
-2.15781
-2.19524
-2.23272
-2.27024
-2.30779
-2.34537
-2.38299
-2.42059
-2.4582
-2.49579
-2.53335
-2.5708
-2.60805
-2.64495
-2.68108
-2.7162
-2.75015
-2.78362
-2.8169
3.44078
3.42716
3.4133
3.39942
3.38388
3.36687
3.34841
3.32894
3.30871
3.28796
3.26675
3.24518
3.22325
3.201
3.17844
3.15558
3.13243
3.10901
3.0853
3.06135
3.03712
3.01265
2.98792
2.96295
2.93774
2.9123
2.88662
2.86071
2.83459
2.80824
2.78169
2.75494
2.72799
2.70086
2.67354
2.64605
2.6184
2.5906
2.56265
2.53456
2.50634
2.47799
2.44953
2.42095
2.39226
2.36346
2.33457
2.30559
2.27652
2.24735
2.2181
2.18877
2.15937
2.12988
2.10032
2.0707
2.04099
2.01122
1.98138
1.95148
1.92151
1.89148
1.86138
1.83123
1.80101
1.77073
1.74039
1.70999
1.67954
1.64903
1.61846
1.58783
1.55715
1.52641
1.49561
1.46476
1.43385
1.40289
1.37187
1.3408
1.30967
1.27848
1.24725
1.21595
1.1846
1.15319
1.12173
1.09022
1.05864
1.02701
0.995314
0.963572
0.931765
0.899903
0.867982
0.836002
0.80396
0.771859
0.739693
0.707473
0.675182
0.642836
0.610418
0.57794
0.545394
0.512786
0.48011
0.447366
0.414551
0.381674
0.348718
0.315702
0.282606
0.249445
0.216215
0.182902
0.149525
0.11607
0.0825502
0.0489455
0.0152696
-0.0184809
-0.0523054
-0.0862078
-0.120189
-0.154245
-0.188382
-0.222601
-0.2569
-0.291272
-0.325733
-0.360279
-0.394903
-0.429616
-0.464413
-0.499295
-0.534266
-0.569322
-0.604465
-0.639699
-0.675014
-0.710423
-0.745916
-0.7815
-0.817172
-0.852925
-0.888768
-0.9247
-0.960708
-0.996808
-1.03298
-1.06924
-1.10557
-1.14198
-1.17846
-1.21501
-1.25163
-1.28832
-1.32507
-1.36187
-1.39873
-1.43565
-1.47262
-1.50963
-1.54669
-1.58378
-1.62091
-1.65807
-1.69526
-1.73247
-1.7697
-1.80696
-1.84423
-1.88152
-1.91883
-1.95614
-1.99348
-2.03083
-2.06822
-2.10562
-2.14306
-2.18051
-2.218
-2.25551
-2.29306
-2.33062
-2.3682
-2.40578
-2.44336
-2.4809
-2.51843
-2.55584
-2.59313
-2.63008
-2.66649
-2.70201
-2.73653
-2.76994
-2.80369
-2.83746
3.45014
3.43583
3.42175
3.40831
3.39355
3.37747
3.35979
3.34094
3.32117
3.30077
3.27986
3.25853
3.23683
3.21478
3.19241
3.16972
3.14673
3.12345
3.09989
3.07605
3.05195
3.02758
3.00295
2.97807
2.95295
2.92758
2.90196
2.87611
2.85003
2.82373
2.79721
2.77048
2.74355
2.71641
2.68909
2.6616
2.63393
2.60609
2.5781
2.54995
2.52167
2.49325
2.4647
2.43603
2.40724
2.37833
2.34932
2.32021
2.291
2.26169
2.23229
2.2028
2.17322
2.14356
2.11383
2.08401
2.05411
2.02414
1.99409
1.96397
1.93378
1.90352
1.87319
1.8428
1.81233
1.78181
1.75121
1.72056
1.68984
1.65906
1.62822
1.59731
1.56635
1.53532
1.50423
1.47309
1.44188
1.41061
1.37929
1.3479
1.31646
1.28496
1.2534
1.22178
1.1901
1.15837
1.12657
1.09472
1.06281
1.03083
0.998797
0.966708
0.934555
0.902343
0.870067
0.837733
0.805335
0.772876
0.740354
0.70777
0.675118
0.642404
0.609625
0.57678
0.543867
0.510889
0.477841
0.444727
0.411542
0.378293
0.344968
0.311573
0.27811
0.244574
0.210969
0.177288
0.143538
0.10971
0.0758172
0.0418438
0.00780245
-0.0263217
-0.0605106
-0.0947815
-0.12913
-0.163546
-0.198049
-0.232631
-0.267285
-0.302021
-0.336838
-0.371733
-0.406715
-0.441774
-0.476923
-0.512148
-0.547464
-0.582858
-0.618336
-0.653902
-0.68955
-0.72528
-0.761099
-0.796995
-0.832982
-0.869051
-0.905189
-0.941415
-0.977726
-1.01411
-1.05057
-1.0871
-1.12371
-1.16037
-1.19711
-1.23392
-1.27079
-1.30771
-1.34469
-1.38172
-1.4188
-1.45593
-1.49309
-1.5303
-1.56754
-1.60481
-1.64211
-1.67944
-1.71678
-1.75413
-1.79151
-1.8289
-1.8663
-1.90372
-1.94114
-1.97857
-2.01601
-2.05346
-2.09094
-2.12844
-2.16594
-2.20347
-2.24101
-2.27858
-2.31615
-2.35373
-2.39131
-2.42887
-2.46641
-2.5039
-2.54131
-2.57858
-2.61563
-2.6522
-2.68811
-2.72295
-2.75693
-2.79011
-2.82418
-2.85885
3.45951
3.44457
3.43019
3.4168
3.40265
3.3874
3.37057
3.35244
3.33321
3.31323
3.29265
3.27159
3.25013
3.2283
3.20613
3.18363
3.16082
3.1377
3.11428
3.09058
3.06661
3.04236
3.01785
2.99308
2.96805
2.94276
2.91723
2.89145
2.86544
2.83919
2.81272
2.78603
2.75913
2.73202
2.70471
2.67722
2.64954
2.62168
2.59365
2.56547
2.53713
2.50865
2.48002
2.45127
2.42238
2.39337
2.36425
2.33502
2.30567
2.27623
2.24667
2.21703
2.18729
2.15746
2.12754
2.09753
2.06744
2.03727
2.00701
1.97668
1.94627
1.91579
1.88522
1.85458
1.82388
1.7931
1.76225
1.73133
1.70035
1.6693
1.63818
1.60699
1.57574
1.54442
1.51304
1.48159
1.45008
1.41851
1.38687
1.35518
1.32342
1.29159
1.25971
1.22776
1.19575
1.16368
1.13154
1.09935
1.06709
1.03477
1.00239
0.969945
0.937439
0.904867
0.872235
0.839538
0.806779
0.773953
0.741064
0.708111
0.67509
0.642006
0.608853
0.575632
0.542346
0.50899
0.475567
0.442072
0.40851
0.374879
0.341176
0.307401
0.273559
0.239642
0.205657
0.171594
0.137467
0.103264
0.0689905
0.0346373
0.000219221
-0.0342731
-0.0688413
-0.103486
-0.138201
-0.172995
-0.207862
-0.24281
-0.27783
-0.312932
-0.348112
-0.383368
-0.418702
-0.454121
-0.489621
-0.525195
-0.560852
-0.596594
-0.632415
-0.668312
-0.70429
-0.740352
-0.776493
-0.812711
-0.849011
-0.885387
-0.921835
-0.958363
-0.994965
-1.03163
-1.06838
-1.10518
-1.14205
-1.17899
-1.21598
-1.25303
-1.29014
-1.32729
-1.3645
-1.40175
-1.43904
-1.47636
-1.51372
-1.55112
-1.58854
-1.62597
-1.66343
-1.7009
-1.73839
-1.77589
-1.81339
-1.8509
-1.88842
-1.92594
-1.96346
-2.001
-2.03853
-2.07607
-2.11362
-2.15119
-2.18876
-2.22635
-2.26395
-2.30155
-2.33915
-2.37674
-2.41431
-2.45185
-2.48934
-2.52675
-2.56404
-2.60112
-2.63787
-2.67399
-2.7093
-2.74358
-2.77715
-2.81044
-2.84495
-2.88031
3.46891
3.45343
3.43866
3.42507
3.41129
3.39677
3.38078
3.36342
3.34483
3.32534
3.30514
3.2844
3.2632
3.24162
3.21966
3.19736
3.17474
3.15179
3.12855
3.10501
3.08118
3.05707
3.03268
3.00803
2.98312
2.95794
2.9325
2.90682
2.88089
2.85472
2.82831
2.80167
2.77481
2.74774
2.72045
2.69297
2.66529
2.63741
2.60937
2.58115
2.55277
2.52423
2.49553
2.4667
2.43773
2.40862
2.37939
2.35003
2.32056
2.29098
2.26129
2.23149
2.20159
2.17158
2.14149
2.1113
2.08101
2.05063
2.02018
1.98963
1.959
1.92828
1.89749
1.86661
1.83566
1.80463
1.77352
1.74234
1.71109
1.67976
1.64836
1.61688
1.58535
1.55374
1.52205
1.49031
1.45849
1.42661
1.39465
1.36264
1.33055
1.2984
1.26618
1.2339
1.20155
1.16914
1.13666
1.10412
1.07151
1.03883
1.0061
0.97329
0.940424
0.907486
0.87449
0.841423
0.808292
0.775097
0.74183
0.708503
0.675104
0.641641
0.608104
0.574504
0.540834
0.507092
0.473286
0.439403
0.405457
0.371434
0.337346
0.303182
0.268952
0.234645
0.200275
0.165825
0.131307
0.0967192
0.0620594
0.0273274
-0.00747761
-0.0423521
-0.0773036
-0.112322
-0.147421
-0.182586
-0.217836
-0.25315
-0.288543
-0.324018
-0.359566
-0.395186
-0.430887
-0.466664
-0.502519
-0.538451
-0.574461
-0.610545
-0.646711
-0.682953
-0.719267
-0.755663
-0.792125
-0.82867
-0.865287
-0.901972
-0.93873
-0.975559
-1.01246
-1.04942
-1.08644
-1.12351
-1.16065
-1.19785
-1.23509
-1.2724
-1.30974
-1.34712
-1.38455
-1.42202
-1.45951
-1.49703
-1.53458
-1.57215
-1.60974
-1.64733
-1.68494
-1.72256
-1.76018
-1.7978
-1.83542
-1.87304
-1.91065
-1.94826
-1.98588
-2.02349
-2.0611
-2.09871
-2.13633
-2.17396
-2.21159
-2.24921
-2.28684
-2.32447
-2.36208
-2.39966
-2.43722
-2.47471
-2.51214
-2.54945
-2.5866
-2.62342
-2.65979
-2.69541
-2.73014
-2.76394
-2.79731
-2.83091
-2.86601
-2.90203
3.47845
3.46249
3.44736
3.4334
3.41975
3.40578
3.39057
3.37401
3.35613
3.3372
3.31745
3.29707
3.27618
3.25485
3.23314
3.21107
3.18865
3.16591
3.14285
3.11948
3.09581
3.07186
3.04762
3.02311
2.99831
2.97325
2.94793
2.92235
2.89651
2.87042
2.84409
2.81752
2.79071
2.76367
2.73642
2.70895
2.68127
2.6534
2.62533
2.59709
2.56866
2.54007
2.51131
2.48241
2.45335
2.42415
2.39481
2.36534
2.33575
2.30603
2.27619
2.24624
2.21618
2.186
2.15573
2.12536
2.09488
2.0643
2.03363
2.00287
1.97201
1.94107
1.91004
1.87893
1.84772
1.81644
1.78507
1.75362
1.72209
1.69049
1.6588
1.62705
1.59521
1.5633
1.53132
1.49926
1.46713
1.43493
1.40265
1.37031
1.3379
1.30541
1.27285
1.24023
1.20753
1.17477
1.14194
1.10904
1.07607
1.04304
1.00993
0.97676
0.943521
0.910217
0.876836
0.8434
0.809884
0.776308
0.742658
0.708944
0.675158
0.641306
0.607379
0.573389
0.53932
0.505193
0.470983
0.436711
0.402365
0.367946
0.33346
0.298899
0.264272
0.229568
0.194797
0.159954
0.125041
0.090057
0.0549992
0.0198735
-0.0153194
-0.0505879
-0.0859275
-0.121334
-0.15682
-0.192374
-0.228003
-0.2637
-0.299477
-0.335323
-0.371247
-0.407242
-0.443314
-0.47946
-0.515678
-0.551969
-0.588343
-0.624778
-0.661296
-0.697878
-0.734542
-0.771272
-0.808073
-0.844939
-0.88188
-0.918878
-0.955948
-0.993082
-1.03027
-1.06752
-1.10483
-1.14219
-1.1796
-1.21705
-1.25456
-1.2921
-1.32968
-1.36729
-1.40494
-1.44261
-1.48032
-1.51803
-1.55576
-1.59351
-1.63126
-1.66901
-1.70677
-1.74452
-1.78227
-1.82
-1.85774
-1.89546
-1.93316
-1.97086
-2.00855
-2.04623
-2.08391
-2.12157
-2.15924
-2.1969
-2.23457
-2.27222
-2.30986
-2.34748
-2.38508
-2.42264
-2.46014
-2.49758
-2.53492
-2.57209
-2.60902
-2.64554
-2.68147
-2.71656
-2.75075
-2.78421
-2.81766
-2.85175
-2.88734
-2.92411
3.48819
3.47188
3.45633
3.44193
3.4282
3.41456
3.40001
3.38424
3.36712
3.34884
3.3296
3.30964
3.2891
3.26807
3.24662
3.2248
3.20261
3.18007
3.15722
3.13403
3.11055
3.08676
3.06268
3.03831
3.01367
2.98873
2.96353
2.93806
2.91232
2.88632
2.86007
2.83356
2.80682
2.77983
2.7526
2.72516
2.6975
2.66962
2.64155
2.61327
2.58482
2.55618
2.52737
2.49838
2.46925
2.43996
2.41051
2.38093
2.35122
2.32137
2.29138
2.26128
2.23106
2.20072
2.17027
2.13972
2.10905
2.07827
2.04739
2.01641
1.98534
1.95416
1.9229
1.89153
1.86008
1.82854
1.7969
1.76519
1.73338
1.70149
1.66952
1.63747
1.60534
1.57312
1.54083
1.50846
1.47601
1.44349
1.41088
1.3782
1.34545
1.31263
1.27972
1.24675
1.2137
1.18058
1.14739
1.11412
1.08079
1.04738
1.01391
0.980357
0.946738
0.913049
0.879287
0.845459
0.811558
0.777587
0.743545
0.709436
0.675252
0.641001
0.606676
0.57228
0.537812
0.503276
0.468665
0.433984
0.399232
0.364406
0.329515
0.294542
0.25951
0.224399
0.189221
0.153969
0.118652
0.0832654
0.0478025
0.0122772
-0.0233222
-0.0589912
-0.0947288
-0.130536
-0.166413
-0.202362
-0.238383
-0.274473
-0.310636
-0.346871
-0.383177
-0.419553
-0.456004
-0.492523
-0.529116
-0.565779
-0.602509
-0.639313
-0.676184
-0.713122
-0.75013
-0.787197
-0.824341
-0.861543
-0.898808
-0.936126
-0.97351
-1.01095
-1.04844
-1.08598
-1.12358
-1.16122
-1.19889
-1.23661
-1.27437
-1.31216
-1.34998
-1.38783
-1.42569
-1.46358
-1.50147
-1.53939
-1.5773
-1.61522
-1.65313
-1.69104
-1.72893
-1.76682
-1.80469
-1.84254
-1.88038
-1.91819
-1.95598
-1.99376
-2.03151
-2.06926
-2.10699
-2.1447
-2.1824
-2.2201
-2.25777
-2.29543
-2.33306
-2.37067
-2.40823
-2.44573
-2.48317
-2.52052
-2.55771
-2.59469
-2.63135
-2.66749
-2.70292
-2.73747
-2.77124
-2.80457
-2.83828
-2.87292
-2.90911
-2.94644
3.49823
3.48156
3.46555
3.45068
3.43669
3.42319
3.40915
3.39411
3.37776
3.36017
3.34152
3.32205
3.3019
3.28121
3.26007
3.2385
3.21656
3.19426
3.17161
3.14865
3.12534
3.10175
3.07783
3.05362
3.02912
3.00433
2.97925
2.9539
2.92827
2.90237
2.8762
2.84977
2.82308
2.79615
2.76897
2.74155
2.71391
2.68604
2.65796
2.62967
2.60117
2.5725
2.54363
2.51459
2.48538
2.456
2.42646
2.39678
2.36694
2.33696
2.30684
2.2766
2.24622
2.21572
2.18509
2.15435
2.12349
2.09251
2.06143
2.03024
1.99893
1.96753
1.93602
1.90442
1.87271
1.84091
1.80901
1.77702
1.74494
1.71277
1.6805
1.64815
1.61572
1.58319
1.55059
1.5179
1.48513
1.45227
1.41933
1.38632
1.35321
1.32004
1.28679
1.25346
1.22005
1.18656
1.153
1.11937
1.08566
1.05187
1.01801
0.984075
0.95007
0.915986
0.881835
0.847607
0.813307
0.778938
0.744491
0.709977
0.675387
0.640726
0.605989
0.571184
0.536304
0.50135
0.466328
0.431227
0.396061
0.360816
0.325505
0.290121
0.254666
0.219142
0.183548
0.147878
0.112148
0.0763432
0.0404696
0.00453574
-0.0314795
-0.0675516
-0.103702
-0.139917
-0.176197
-0.21255
-0.248969
-0.285463
-0.32202
-0.358651
-0.395347
-0.432112
-0.46895
-0.505851
-0.542823
-0.579858
-0.616962
-0.654129
-0.691362
-0.72866
-0.766022
-0.803437
-0.840917
-0.878456
-0.916049
-0.953692
-0.991402
-1.02914
-1.06694
-1.10477
-1.14266
-1.18058
-1.21853
-1.25651
-1.29452
-1.33256
-1.37061
-1.40868
-1.44677
-1.48486
-1.52296
-1.56106
-1.59916
-1.63724
-1.67531
-1.71337
-1.75141
-1.78942
-1.82741
-1.86538
-1.90331
-1.94122
-1.97909
-2.01694
-2.05476
-2.09257
-2.13034
-2.16808
-2.20582
-2.24351
-2.2812
-2.31883
-2.35645
-2.39401
-2.43152
-2.46896
-2.50629
-2.54349
-2.58052
-2.61724
-2.65355
-2.68925
-2.72416
-2.75823
-2.7917
-2.82505
-2.8592
-2.89444
-2.93131
-2.96924
3.5085
3.49151
3.47508
3.4597
3.44535
3.43177
3.41807
3.40364
3.38803
3.37119
3.35319
3.33425
3.31456
3.29425
3.27344
3.25216
3.2305
3.20844
3.18603
3.16327
3.14018
3.11677
3.09303
3.06899
3.04464
3.02
2.99506
2.96983
2.94431
2.91852
2.89244
2.86609
2.83947
2.8126
2.78547
2.75809
2.73047
2.70261
2.67453
2.64623
2.61772
2.58901
2.5601
2.531
2.50172
2.47226
2.44264
2.41284
2.3829
2.35279
2.32255
2.29216
2.26163
2.23096
2.20016
2.16924
2.13819
2.10702
2.07573
2.04432
2.0128
1.98117
1.94942
1.91757
1.88561
1.85355
1.82138
1.78912
1.75676
1.72429
1.69174
1.65909
1.62634
1.59351
1.56058
1.52757
1.49447
1.46127
1.428
1.39464
1.36119
1.32766
1.29405
1.26035
1.22658
1.19272
1.15878
1.12477
1.09067
1.0565
1.02225
0.987919
0.953514
0.919035
0.884476
0.849843
0.815139
0.780353
0.7455
0.710567
0.675562
0.640479
0.605328
0.570095
0.534795
0.499417
0.463965
0.428444
0.392847
0.357177
0.321439
0.285629
0.249747
0.213794
0.177772
0.141681
0.105526
0.0692955
0.0330033
-0.00335983
-0.0397863
-0.0762832
-0.112844
-0.149477
-0.186176
-0.222935
-0.259766
-0.296662
-0.333629
-0.370661
-0.407754
-0.444919
-0.482149
-0.519437
-0.556792
-0.594212
-0.631687
-0.669231
-0.70683
-0.744492
-0.782206
-0.819976
-0.857805
-0.895676
-0.933601
-0.971574
-1.0096
-1.04766
-1.08575
-1.12389
-1.16205
-1.20026
-1.23848
-1.27673
-1.31499
-1.35328
-1.39156
-1.42985
-1.46816
-1.50645
-1.54475
-1.58303
-1.6213
-1.65955
-1.69778
-1.73599
-1.77416
-1.8123
-1.85041
-1.88848
-1.92652
-1.96451
-2.00246
-2.04038
-2.07827
-2.11611
-2.15393
-2.19171
-2.22945
-2.26716
-2.30483
-2.34245
-2.38003
-2.41754
-2.45496
-2.4923
-2.52951
-2.56654
-2.60333
-2.63975
-2.67565
-2.71085
-2.74526
-2.77892
-2.81224
-2.84585
-2.88048
-2.91641
-2.95389
-2.99243
3.51894
3.5017
3.48492
3.46902
3.45421
3.44043
3.42685
3.4129
3.39797
3.38187
3.36456
3.34623
3.32704
3.30716
3.2867
3.26576
3.24437
3.22259
3.20042
3.17789
3.15501
3.1318
3.10825
3.08438
3.06021
3.03571
3.01091
2.98581
2.96042
2.93473
2.90876
2.8825
2.85596
2.82915
2.80208
2.77474
2.74715
2.71932
2.69125
2.66295
2.63443
2.60569
2.57674
2.5476
2.51825
2.48872
2.45901
2.42913
2.39908
2.36886
2.33848
2.30795
2.27728
2.24645
2.2155
2.18439
2.15316
2.12179
2.0903
2.05868
2.02694
1.99507
1.96309
1.93099
1.89878
1.86645
1.83402
1.80148
1.76884
1.73608
1.70323
1.67028
1.63722
1.60407
1.57083
1.53748
1.50405
1.47052
1.43689
1.40318
1.36938
1.33549
1.30151
1.26744
1.23329
1.19905
1.16473
1.13032
1.09584
1.06127
1.02662
0.991889
0.957079
0.922187
0.887219
0.852171
0.817044
0.781843
0.746564
0.711208
0.675776
0.640266
0.60468
0.569021
0.533282
0.49747
0.461586
0.425625
0.389593
0.353488
0.31731
0.281059
0.244746
0.208352
0.171897
0.135371
0.0987766
0.0621197
0.0253915
-0.011401
-0.0482591
-0.0851825
-0.122171
-0.159225
-0.196344
-0.233532
-0.270777
-0.308089
-0.345468
-0.382905
-0.42041
-0.457978
-0.495601
-0.53329
-0.571033
-0.60884
-0.646705
-0.68462
-0.722589
-0.76062
-0.798691
-0.836819
-0.874993
-0.913209
-0.951466
-0.989775
-1.02811
-1.06648
-1.10488
-1.14331
-1.18177
-1.22025
-1.25874
-1.29725
-1.33576
-1.37429
-1.41281
-1.45132
-1.48983
-1.52834
-1.56682
-1.60529
-1.64372
-1.68214
-1.72052
-1.75887
-1.79717
-1.83543
-1.87365
-1.91182
-1.94995
-1.98802
-2.02605
-2.06404
-2.10198
-2.13988
-2.17772
-2.21553
-2.25328
-2.29099
-2.32864
-2.36624
-2.40376
-2.4412
-2.47854
-2.51576
-2.5528
-2.58963
-2.62614
-2.66218
-2.69764
-2.73234
-2.76629
-2.79967
-2.83303
-2.86697
-2.90225
-2.93887
-2.97689
-3.016
3.5294
3.51209
3.49505
3.47867
3.46337
3.44923
3.43561
3.42196
3.40761
3.39221
3.37561
3.35793
3.33929
3.31988
3.29983
3.27923
3.25816
3.23666
3.21475
3.19246
3.16981
3.14681
3.12346
3.09978
3.07577
3.05144
3.02679
3.00183
2.97657
2.95101
2.92514
2.89898
2.87253
2.8458
2.81879
2.79151
2.76397
2.73617
2.70812
2.67983
2.6513
2.62255
2.59357
2.56438
2.53499
2.50539
2.4756
2.44563
2.41548
2.38515
2.35466
2.324
2.29317
2.2622
2.23108
2.1998
2.16839
2.13683
2.10514
2.07331
2.04134
2.00926
1.97704
1.94469
1.91223
1.87964
1.84694
1.81412
1.78119
1.74814
1.71499
1.68173
1.64837
1.6149
1.58132
1.54765
1.51387
1.47999
1.44602
1.41195
1.37778
1.34352
1.30917
1.27473
1.2402
1.20557
1.17086
1.13606
1.10117
1.06619
1.03113
0.995989
0.960764
0.925451
0.890065
0.854589
0.819037
0.783403
0.747692
0.7119
0.676031
0.640082
0.604055
0.56795
0.531771
0.49551
0.459183
0.422772
0.386294
0.34974
0.313115
0.27642
0.239651
0.202816
0.165915
0.12894
0.0919057
0.0548007
0.0176356
-0.0196015
-0.0568997
-0.0942593
-0.131684
-0.169172
-0.206725
-0.244335
-0.282014
-0.31975
-0.357545
-0.395404
-0.433319
-0.471297
-0.509328
-0.547414
-0.585558
-0.623754
-0.662007
-0.700305
-0.738654
-0.777044
-0.815488
-0.853969
-0.892489
-0.931053
-0.969648
-1.00828
-1.04694
-1.08562
-1.12433
-1.16306
-1.2018
-1.24055
-1.27931
-1.31807
-1.35684
-1.39561
-1.43436
-1.47309
-1.51181
-1.55051
-1.58918
-1.62782
-1.66642
-1.70498
-1.74351
-1.78199
-1.82042
-1.85879
-1.89712
-1.93538
-1.97359
-2.01175
-2.04984
-2.08789
-2.12588
-2.16381
-2.20168
-2.2395
-2.27727
-2.31496
-2.3526
-2.39014
-2.42761
-2.46497
-2.5022
-2.53926
-2.57613
-2.6127
-2.64889
-2.68453
-2.71951
-2.75373
-2.78732
-2.82057
-2.85412
-2.88857
-2.92449
-2.96182
-3.00031
-3.03974
3.53981
3.52258
3.5054
3.48861
3.47284
3.45824
3.44442
3.4309
3.41699
3.40221
3.38632
3.3693
3.35127
3.33237
3.31277
3.29255
3.27181
3.25061
3.22898
3.20695
3.18454
3.16176
3.13862
3.11514
3.09131
3.06716
3.04268
3.01787
2.99275
2.96731
2.94157
2.91552
2.88917
2.86253
2.83559
2.80838
2.7809
2.75314
2.72512
2.69685
2.66833
2.63956
2.61057
2.58135
2.55191
2.52226
2.4924
2.46235
2.43211
2.40168
2.37107
2.34028
2.30933
2.27821
2.24693
2.21548
2.18389
2.15214
2.12026
2.08821
2.05603
2.02372
1.99126
1.95867
1.92596
1.89311
1.86014
1.82704
1.79382
1.76049
1.72703
1.69346
1.65977
1.62598
1.59207
1.55806
1.52394
1.48971
1.45538
1.42095
1.38641
1.35178
1.31705
1.28222
1.24729
1.21227
1.17716
1.14195
1.10666
1.07126
1.03579
1.00022
0.964575
0.928834
0.893012
0.857101
0.821114
0.785036
0.748883
0.712645
0.676329
0.639928
0.603452
0.56689
0.530258
0.493542
0.456754
0.419886
0.382952
0.345932
0.308854
0.271695
0.234472
0.19718
0.159818
0.122392
0.0849018
0.0473405
0.00972344
-0.0279629
-0.0657067
-0.103517
-0.141389
-0.179317
-0.217312
-0.255363
-0.293474
-0.331643
-0.369869
-0.408151
-0.446494
-0.484882
-0.523323
-0.561821
-0.600369
-0.638962
-0.677599
-0.716285
-0.755015
-0.79378
-0.832587
-0.871433
-0.910303
-0.949208
-0.988143
-1.0271
-1.06608
-1.10508
-1.14409
-1.18311
-1.22213
-1.26117
-1.30019
-1.33921
-1.37822
-1.41721
-1.45619
-1.49514
-1.53406
-1.57295
-1.6118
-1.65061
-1.68937
-1.72808
-1.76674
-1.80534
-1.84389
-1.88237
-1.92079
-1.95914
-1.99743
-2.03565
-2.07381
-2.1119
-2.14992
-2.18789
-2.22578
-2.2636
-2.30136
-2.33904
-2.37662
-2.41412
-2.4515
-2.48876
-2.52587
-2.56277
-2.5994
-2.63569
-2.67151
-2.70672
-2.74123
-2.77504
-2.80838
-2.84167
-2.87557
-2.91064
-2.94721
-2.98518
-3.02408
-3.06368
3.55003
3.53305
3.51589
3.49881
3.48261
3.46752
3.45336
3.4398
3.42616
3.41191
3.39666
3.38033
3.36293
3.3446
3.32547
3.30567
3.2853
3.26443
3.24309
3.22134
3.19918
3.17664
3.15373
3.13046
3.10683
3.08286
3.05855
3.03391
3.00894
2.98365
2.95804
2.93211
2.90588
2.87933
2.85249
2.82536
2.79794
2.77024
2.74226
2.71402
2.68551
2.65675
2.62775
2.59851
2.56904
2.53934
2.50943
2.4793
2.44898
2.41845
2.38773
2.35683
2.32575
2.29448
2.26305
2.23144
2.19967
2.16775
2.13566
2.10341
2.07102
2.03848
2.00578
1.97296
1.93998
1.90687
1.87363
1.84025
1.80674
1.77311
1.73935
1.70546
1.67146
1.63733
1.60309
1.56874
1.53427
1.49968
1.46499
1.43019
1.39528
1.36026
1.32514
1.28992
1.2546
1.21917
1.18365
1.14803
1.11231
1.0765
1.0406
1.0046
0.968514
0.932337
0.896069
0.859717
0.823277
0.786752
0.750142
0.713447
0.676672
0.639809
0.602866
0.565844
0.528741
0.491561
0.454301
0.416967
0.379559
0.342074
0.304519
0.266896
0.229197
0.19144
0.15361
0.115714
0.0777601
0.0397344
0.00165439
-0.0364956
-0.0747007
-0.112962
-0.151292
-0.189675
-0.228116
-0.266616
-0.305171
-0.343782
-0.382445
-0.421163
-0.459929
-0.498745
-0.537607
-0.576517
-0.61547
-0.654467
-0.693504
-0.732575
-0.771687
-0.810833
-0.850006
-0.889214
-0.928443
-0.967693
-1.00696
-1.04625
-1.08555
-1.12486
-1.16417
-1.20348
-1.24279
-1.2821
-1.32138
-1.36065
-1.3999
-1.43913
-1.47832
-1.51748
-1.55659
-1.59567
-1.63469
-1.67366
-1.71258
-1.75142
-1.79021
-1.82893
-1.86758
-1.90616
-1.94466
-1.9831
-2.02145
-2.05973
-2.09793
-2.13606
-2.17411
-2.21209
-2.24999
-2.28781
-2.32554
-2.36317
-2.40071
-2.43813
-2.47543
-2.51256
-2.5495
-2.5862
-2.62259
-2.65854
-2.69397
-2.72873
-2.7628
-2.79629
-2.82953
-2.86302
-2.89744
-2.93316
-2.97036
-3.00885
-3.04799
-3.08768
3.55983
3.54338
3.52644
3.50921
3.49265
3.47705
3.46248
3.44873
3.4352
3.42134
3.40667
3.391
3.37425
3.35651
3.33791
3.31856
3.29859
3.27808
3.25707
3.23561
3.21373
3.19144
3.16877
3.14572
3.12231
3.09854
3.07442
3.04996
3.02516
3.00003
2.97456
2.94877
2.92266
2.89623
2.86949
2.84245
2.8151
2.78746
2.75954
2.73134
2.70286
2.67412
2.64512
2.61587
2.58637
2.55664
2.52668
2.49649
2.46609
2.43547
2.40466
2.37365
2.34243
2.31103
2.27945
2.24769
2.21575
2.18364
2.15136
2.11891
2.0863
2.05354
2.02061
1.98754
1.95431
1.92094
1.88742
1.85376
1.81996
1.78603
1.75197
1.71776
1.68343
1.64898
1.61439
1.57969
1.54486
1.50992
1.47486
1.43968
1.40439
1.36898
1.33347
1.29785
1.26211
1.22628
1.19034
1.1543
1.11815
1.08191
1.04557
1.00913
0.972593
0.935964
0.899248
0.862438
0.825536
0.788544
0.751474
0.714307
0.677063
0.639723
0.602311
0.564808
0.527224
0.489563
0.451827
0.414008
0.376118
0.338151
0.300114
0.262009
0.22383
0.18559
0.147279
0.10891
0.0704683
0.0319764
-0.00658229
-0.045199
-0.0838793
-0.12261
-0.161407
-0.200248
-0.239156
-0.278106
-0.317117
-0.356175
-0.395283
-0.434443
-0.473643
-0.512887
-0.552179
-0.591508
-0.630877
-0.670276
-0.709718
-0.749186
-0.788684
-0.828209
-0.867758
-0.907326
-0.946907
-0.986509
-1.02612
-1.06573
-1.10535
-1.14497
-1.18459
-1.22419
-1.26377
-1.30335
-1.34289
-1.38241
-1.42189
-1.46134
-1.50075
-1.54011
-1.57942
-1.61866
-1.65786
-1.69698
-1.73603
-1.77502
-1.81393
-1.85275
-1.8915
-1.93017
-1.96875
-2.00725
-2.04566
-2.08398
-2.12222
-2.16037
-2.19844
-2.23642
-2.27431
-2.3121
-2.34979
-2.38738
-2.42485
-2.46218
-2.49934
-2.53632
-2.57308
-2.60955
-2.64563
-2.68123
-2.71624
-2.75056
-2.78426
-2.81755
-2.85085
-2.8847
-2.91966
-2.9561
-2.99389
-3.03281
-3.072
-3.11142
3.5691
3.55343
3.53691
3.51972
3.50292
3.48687
3.47184
3.45777
3.4442
3.43058
3.4164
3.40132
3.38522
3.36811
3.35006
3.33122
3.31169
3.29156
3.2709
3.24976
3.22817
3.20617
3.18375
3.16095
3.13777
3.11422
3.09031
3.06604
3.04142
3.01645
2.99115
2.9655
2.93953
2.91322
2.8866
2.85966
2.83241
2.80485
2.77699
2.74884
2.7204
2.69168
2.6627
2.63344
2.60393
2.57417
2.54417
2.51393
2.48346
2.45277
2.42186
2.39074
2.35941
2.32788
2.29616
2.26424
2.23213
2.19984
2.16738
2.13473
2.10191
2.06892
2.03576
2.00244
1.96897
1.93533
1.90154
1.8676
1.83351
1.79927
1.76489
1.73038
1.69572
1.66092
1.626
1.59094
1.55575
1.52044
1.485
1.44944
1.41376
1.37796
1.34204
1.30601
1.26986
1.2336
1.19724
1.16076
1.12418
1.08749
1.0507
1.01381
0.976819
0.93973
0.902546
0.865265
0.827893
0.79043
0.752878
0.71523
0.677503
0.639678
0.601774
0.563784
0.525711
0.487555
0.449322
0.411011
0.372624
0.334163
0.295636
0.257028
0.218362
0.179623
0.140823
0.101961
0.0630333
0.0240522
-0.0149991
-0.0540945
-0.0932541
-0.13247
-0.171735
-0.211055
-0.250432
-0.289852
-0.329322
-0.36884
-0.408406
-0.448007
-0.487654
-0.527338
-0.567059
-0.606814
-0.646601
-0.686422
-0.726263
-0.766128
-0.806018
-0.845931
-0.88585
-0.925789
-0.965727
-1.00567
-1.04563
-1.08557
-1.12551
-1.16544
-1.20535
-1.24524
-1.2851
-1.32494
-1.36474
-1.4045
-1.44422
-1.48389
-1.5235
-1.56306
-1.60255
-1.64197
-1.68132
-1.72059
-1.75978
-1.79889
-1.83791
-1.87683
-1.91567
-1.95442
-1.99307
-2.03162
-2.07007
-2.10844
-2.1467
-2.18486
-2.22293
-2.26089
-2.29876
-2.33651
-2.37415
-2.41165
-2.44903
-2.48624
-2.52326
-2.56007
-2.5966
-2.63278
-2.66854
-2.70374
-2.73832
-2.77226
-2.80568
-2.83889
-2.8724
-2.90673
-2.94235
-2.97942
-3.01771
-3.05686
-3.09593
-3.13484
3.57763
3.56299
3.54718
3.53021
3.51336
3.49694
3.48146
3.46699
3.45325
3.43972
3.42589
3.41135
3.39587
3.37938
3.36193
3.34363
3.32457
3.30487
3.28459
3.26379
3.24253
3.22081
3.19868
3.17614
3.1532
3.12989
3.10619
3.08213
3.05771
3.03293
3.0078
2.98231
2.95649
2.93033
2.90383
2.877
2.84985
2.82238
2.7946
2.76651
2.73812
2.70944
2.68048
2.65124
2.62172
2.59195
2.56191
2.53163
2.5011
2.47034
2.43934
2.40813
2.37669
2.34503
2.31317
2.2811
2.24884
2.21638
2.18372
2.15088
2.11784
2.08464
2.05125
2.01769
1.98396
1.95005
1.91599
1.88176
1.84738
1.81284
1.77815
1.74331
1.70832
1.67318
1.6379
1.60249
1.56694
1.53125
1.49543
1.45948
1.4234
1.3872
1.35086
1.31441
1.27784
1.24115
1.20435
1.16743
1.1304
1.09326
1.05601
1.01865
0.981195
0.943631
0.905973
0.868209
0.830356
0.792402
0.754359
0.716219
0.677994
0.639672
0.601266
0.562769
0.524195
0.485531
0.446794
0.407972
0.369079
0.330108
0.291068
0.251961
0.212782
0.173541
0.134236
0.0948664
0.0554412
0.015954
-0.0235909
-0.063188
-0.10284
-0.142545
-0.1823
-0.222108
-0.261959
-0.301856
-0.341801
-0.381788
-0.421812
-0.461874
-0.501969
-0.542103
-0.582263
-0.622452
-0.662665
-0.702902
-0.743155
-0.783429
-0.823711
-0.864003
-0.90431
-0.944607
-0.984916
-1.02521
-1.0655
-1.10578
-1.14603
-1.18627
-1.22648
-1.26665
-1.3068
-1.3469
-1.38695
-1.42694
-1.46689
-1.50677
-1.54659
-1.58633
-1.626
-1.66558
-1.70509
-1.7445
-1.78382
-1.82305
-1.86216
-1.90119
-1.94011
-1.97892
-2.01762
-2.05622
-2.09471
-2.13309
-2.17137
-2.20954
-2.24759
-2.28553
-2.32334
-2.36104
-2.3986
-2.43601
-2.47326
-2.51033
-2.54719
-2.58378
-2.62006
-2.65593
-2.69131
-2.7261
-2.76029
-2.79388
-2.82713
-2.86043
-2.89426
-2.92918
-2.96542
-3.00311
-3.04171
-3.08094
-3.11954
-3.15772
3.58522
3.57192
3.55709
3.54059
3.52386
3.50723
3.49135