/*--------------------------------*- C++ -*----------------------------------*\
  =========                 |
  \\      /  F ield         | OpenFOAM: The Open Source CFD Toolbox
   \\    /   O peration     | Website:  https://openfoam.org
    \\  /    A nd           | Version:  8
     \\/     M anipulation  |
\*---------------------------------------------------------------------------*/
FoamFile
{
    version     2.0;
    format      ascii;
    class       volVectorField;
    location    "0.32";
    object      U;
}
// * * * * * * * * * * * * * * * * * * * * * * * * * * * * * * * * * * * * * //

dimensions      [0 1 -1 0 0 0 0];

internalField   nonuniform List<vector> 
112642
(
(14.9998 -1.12355e-06 -3.96589e-21)
(14.9997 -5.26045e-05 -1.38511e-20)
(14.9997 -7.91826e-05 -3.87112e-20)
(14.9996 -5.04802e-05 7.48306e-21)
(14.9996 -3.46516e-05 9.17069e-20)
(14.9996 -7.13138e-06 -6.9522e-20)
(14.9995 1.20763e-05 -2.05752e-21)
(14.9995 3.05148e-05 1.70132e-20)
(14.9995 4.51199e-05 4.44316e-20)
(14.9995 5.9161e-05 -6.14693e-20)
(14.9995 7.1255e-05 -1.41277e-21)
(14.9995 8.30411e-05 8.18325e-20)
(14.9995 9.48997e-05 4.79971e-20)
(14.9995 0.000105932 4.60757e-20)
(14.9995 0.000117378 3.79817e-20)
(14.9995 0.000128173 5.90349e-20)
(14.9995 0.000139092 -4.14103e-20)
(14.9995 0.000150578 6.89666e-20)
(14.9995 0.000161313 -4.85883e-20)
(14.9995 0.000172154 -6.89843e-20)
(14.9995 0.000182966 -1.19084e-19)
(14.9994 0.00019423 -4.8908e-20)
(14.9994 0.000204889 -4.889e-20)
(14.9994 0.00021614 -2.72215e-20)
(14.9994 0.000226901 2.27506e-20)
(14.9994 0.000238382 4.89077e-20)
(14.9994 0.000249441 -7.50072e-20)
(14.9994 0.000260464 9.81722e-20)
(14.9994 0.000271828 -6.67789e-22)
(14.9994 0.000283126 4.91355e-20)
(14.9994 0.000294635 4.7765e-20)
(14.9994 0.000305715 5.77245e-22)
(14.9994 0.000316947 4.74036e-20)
(14.9994 0.000328301 4.82336e-20)
(14.9994 0.00033897 -4.79376e-20)
(14.9994 0.000350201 5.30792e-22)
(14.9994 0.000361018 -7.29801e-20)
(14.9994 0.000371902 4.63911e-20)
(14.9994 0.000383157 -1.97133e-20)
(14.9995 0.000393564 9.17241e-20)
(14.9995 0.000404453 -9.08408e-20)
(14.9995 0.000414865 7.21894e-20)
(14.9995 0.000424949 1.69832e-20)
(14.9995 0.000435194 -4.27598e-22)
(14.9995 0.000445465 4.36277e-20)
(14.9995 0.00045525 1.43389e-20)
(14.9995 0.000465512 4.21517e-20)
(14.9995 0.000475352 -7.00228e-20)
(14.9995 0.000484615 -4.14292e-20)
(14.9995 0.000494353 9.84377e-20)
(14.9995 0.000503555 2.93564e-20)
(14.9995 0.000512998 7.84256e-20)
(14.9995 0.00052201 7.72245e-20)
(14.9995 0.000531373 -2.96273e-20)
(14.9995 0.000540181 -3.01268e-20)
(14.9995 0.000548833 -3.66461e-20)
(14.9995 0.000557448 -7.19792e-20)
(14.9996 0.000566139 3.03356e-20)
(14.9996 0.000574214 3.49027e-20)
(14.9996 0.000582638 -3.41884e-20)
(14.9996 0.000590785 3.34993e-20)
(14.9996 0.000598355 -2.47511e-22)
(14.9996 0.000606312 3.20198e-20)
(14.9996 0.000613839 -2.52658e-22)
(14.9996 0.000621436 3.05122e-20)
(14.9996 0.000628877 -6.14648e-20)
(14.9996 0.00063586 0)
(14.9996 0.000643324 -2.80214e-20)
(14.9997 0.000650232 2.72646e-20)
(14.9997 0.000656928 2.64743e-20)
(14.9997 0.00066349 5.81543e-20)
(14.9997 0.000669905 -3.24046e-20)
(14.9997 0.000676079 -4.85369e-20)
(14.9997 0.000682134 5.65145e-20)
(14.9997 0.000688377 -6.62793e-20)
(14.9997 0.00069425 3.29771e-20)
(14.9997 0.000699561 7.53178e-20)
(14.9997 0.000705431 -1.3605e-20)
(14.9998 0.000710647 0)
(14.9998 0.00071581 0)
(14.9998 0.000720514 0)
(14.9998 0.000725521 -1.6665e-20)
(14.9998 0.000730208 0)
(14.9998 0.000734871 -1.93138e-20)
(14.9998 0.000738982 6.86092e-20)
(14.9998 0.000742956 2.67215e-20)
(14.9998 0.000747207 -1.16491e-19)
(14.9999 0.000750871 2.32695e-20)
(14.9999 0.000754498 2.43547e-20)
(14.9999 0.000757915 -3.49725e-20)
(14.9999 0.000761332 -8.85727e-21)
(14.9999 0.000764572 7.96333e-21)
(14.9999 0.000767407 6.9609e-21)
(14.9999 0.000770109 6.4871e-20)
(14.9999 0.000772534 7.63374e-20)
(14.9999 0.000774955 -3.13974e-20)
(15 0.000777055 -7.1588e-20)
(15 0.000779192 0)
(15 0.000780914 1.43564e-21)
(15 0.000782534 3.60986e-20)
(15 0.00078401 -4.29988e-22)
(15 0.000785344 -3.47989e-20)
(15 0.000786571 0)
(15 0.000787379 7.25367e-20)
(15.0001 0.00078822 -1.7017e-20)
(15.0001 0.000788729 -3.10665e-20)
(15.0001 0.000789232 -1.23824e-20)
(15.0001 0.000789443 -3.63676e-20)
(15.0001 0.000789512 -4.45355e-20)
(15.0001 0.000789152 1.81925e-20)
(15.0001 0.000788602 9.94517e-21)
(15.0001 0.000788041 3.65694e-20)
(15.0002 0.000787252 -1.21462e-20)
(15.0002 0.000786411 3.67488e-20)
(15.0002 0.000784939 -2.81198e-20)
(15.0002 0.000783748 -2.13242e-20)
(15.0002 0.000782396 -5.2715e-20)
(15.0002 0.000780437 1.72069e-20)
(15.0002 0.000778432 9.16055e-20)
(15.0002 0.000776061 -5.54254e-20)
(15.0003 0.000773995 -3.64717e-20)
(15.0003 0.000771409 4.16009e-20)
(15.0003 0.000768743 3.66546e-20)
(15.0003 0.000765339 1.36891e-20)
(15.0003 0.00076253 -1.20831e-19)
(15.0003 0.00075908 2.51146e-20)
(15.0003 0.000755203 1.04917e-20)
(15.0003 0.000751519 -7.30172e-20)
(15.0004 0.000747684 9.23679e-20)
(15.0004 0.00074356 7.43665e-21)
(15.0004 0.000739256 -3.63813e-20)
(15.0004 0.000734776 -2.4956e-20)
(15.0004 0.000730035 6.81344e-20)
(15.0004 0.000724633 -6.93301e-20)
(15.0004 0.000719754 3.13201e-20)
(15.0004 0.000714315 3.6529e-20)
(15.0005 0.000708668 3.62128e-20)
(15.0005 0.000703067 -7.33268e-20)
(15.0005 0.000696929 -1.10461e-19)
(15.0005 0.000691213 3.55508e-22)
(15.0005 0.000684781 3.61312e-20)
(15.0005 0.000677984 0)
(15.0005 0.000671561 4.19008e-20)
(15.0005 0.000664364 0)
(15.0005 0.000657208 -3.62963e-20)
(15.0006 0.000649957 4.53656e-20)
(15.0006 0.000642461 -1.01325e-20)
(15.0006 0.000634228 4.69832e-20)
(15.0006 0.000626353 3.61216e-20)
(15.0006 0.000617881 -9.83193e-20)
(15.0006 0.000609625 -2.16132e-20)
(15.0006 0.000600631 1.54943e-20)
(15.0006 0.000592149 8.78853e-20)
(15.0006 0.000582876 -1.75563e-20)
(15.0007 0.000573007 0)
(15.0007 0.000563674 1.91596e-20)
(15.0007 0.000553667 9.19476e-20)
(15.0007 0.000543636 9.11012e-20)
(15.0007 0.000533745 -9.25868e-20)
(15.0007 0.000523387 2.32965e-20)
(15.0007 0.000512347 6.1591e-22)
(15.0007 0.000501873 3.45269e-20)
(15.0007 0.000490225 -3.50077e-20)
(15.0007 0.000479006 7.05667e-20)
(15.0007 0.000467808 4.38559e-21)
(15.0008 0.000455995 -1.3269e-19)
(15.0008 0.000444865 -3.38273e-20)
(15.0008 0.000432744 -3.13011e-20)
(15.0008 0.0004207 -7.97515e-22)
(15.0008 0.00040878 8.82217e-22)
(15.0008 0.000396147 3.32207e-20)
(15.0008 0.000383697 -4.28218e-25)
(15.0008 0.000371006 -2.0682e-19)
(15.0008 0.000358661 1.09091e-19)
(15.0008 0.000346118 -1.09749e-19)
(15.0008 0.000332791 1.05196e-19)
(15.0008 0.000320346 -1.06865e-19)
(15.0008 0.000306999 9.3742e-21)
(15.0008 0.000294342 1.06991e-19)
(15.0008 0.000280553 -1.01444e-20)
(15.0008 0.000267262 -7.65892e-20)
(15.0008 0.000253682 7.73795e-20)
(15.0008 0.000240042 3.09875e-20)
(15.0008 0.000224984 -4.4744e-20)
(15.0008 0.000210591 -1.88888e-19)
(15.0009 0.000196211 9.55583e-20)
(15.0009 0.000180591 -7.86267e-20)
(15.0009 0.000165532 4.70435e-20)
(15.0009 0.000149112 1.13031e-19)
(15.0009 0.000133012 -5.28546e-20)
(15.0009 0.000116847 1.9576e-20)
(15.0009 9.8346e-05 8.30535e-20)
(15.0009 8.00108e-05 -1.14651e-19)
(15.0009 5.80788e-05 8.75507e-20)
(15.0008 3.65621e-05 5.27838e-20)
(15.0008 7.42119e-06 1.07405e-19)
(15.0008 -1.35798e-05 -8.069e-20)
(15.0008 -4.45713e-05 -9.25094e-20)
(15.0008 -3.36792e-05 1.024e-19)
(15.0004 1.82504e-06 -8.95781e-20)
(14.9992 6.99239e-05 2.18219e-20)
(14.9991 0.00041703 -3.52344e-20)
(14.9991 0.000557954 -6.1411e-21)
(14.9989 0.000473403 -5.94019e-20)
(14.9988 0.000441468 6.04694e-20)
(14.9987 0.000368187 -3.42029e-20)
(14.9987 0.000333016 -5.92773e-20)
(14.9986 0.000309252 1.81508e-21)
(14.9986 0.000303128 1.44081e-20)
(14.9986 0.000306395 2.82855e-21)
(14.9985 0.00031658 -3.67036e-20)
(14.9985 0.00033169 1.76269e-20)
(14.9985 0.000350516 4.78486e-20)
(14.9985 0.000371693 -2.96113e-20)
(14.9984 0.000395441 1.15435e-19)
(14.9984 0.000420242 9.05026e-21)
(14.9984 0.000446801 -6.83141e-20)
(14.9984 0.000475257 -8.59974e-21)
(14.9984 0.000504031 4.18854e-20)
(14.9984 0.000534009 -1.73708e-22)
(14.9984 0.000564578 -2.10032e-20)
(14.9984 0.000596682 -7.09782e-20)
(14.9984 0.000628363 -4.90927e-20)
(14.9983 0.000661307 -1.49387e-22)
(14.9983 0.000693927 -2.22032e-20)
(14.9983 0.000727756 4.4565e-20)
(14.9983 0.000761343 1.80914e-21)
(14.9983 0.000794971 5.54071e-22)
(14.9983 0.000828737 -2.44407e-20)
(14.9983 0.000862383 -2.38181e-20)
(14.9983 0.000896191 2.36884e-20)
(14.9983 0.000929378 1.19122e-21)
(14.9983 0.000962781 -7.37159e-20)
(14.9983 0.000996006 1.93901e-19)
(14.9983 0.00102826 2.5922e-20)
(14.9983 0.00106095 4.70994e-20)
(14.9983 0.00109277 -5.21668e-20)
(14.9984 0.00112458 -9.00509e-22)
(14.9984 0.00115689 4.70188e-20)
(14.9984 0.00118774 1.17303e-19)
(14.9984 0.00121925 7.37001e-20)
(14.9984 0.00124977 -1.0629e-20)
(14.9984 0.00127989 4.44864e-20)
(14.9984 0.00130992 0)
(14.9984 0.00133982 1.54871e-20)
(14.9984 0.00136898 -2.86273e-20)
(14.9985 0.00139868 9.94104e-20)
(14.9985 0.00142734 -5.43364e-20)
(14.9985 0.00145526 -9.95528e-20)
(14.9985 0.00148371 2.87772e-20)
(14.9985 0.00151154 4.08763e-20)
(14.9985 0.00153906 1.95332e-20)
(14.9986 0.00156588 1.37389e-19)
(14.9986 0.00159325 6.89327e-20)
(14.9986 0.00161946 -3.19252e-22)
(14.9986 0.00164541 2.37663e-20)
(14.9986 0.00167118 -3.02366e-20)
(14.9987 0.00169651 -6.19161e-20)
(14.9987 0.00172105 1.01007e-19)
(14.9987 0.00174591 6.90141e-20)
(14.9987 0.00176997 2.26848e-21)
(14.9988 0.00179329 0)
(14.9988 0.00181691 3.22905e-20)
(14.9988 0.00183969 -3.15282e-20)
(14.9988 0.00186226 6.26389e-20)
(14.9989 0.00188437 1.7955e-22)
(14.9989 0.00190603 -2.29978e-22)
(14.9989 0.00192778 -6.06e-20)
(14.9989 0.00194858 -6.53797e-20)
(14.999 0.00196892 1.35705e-23)
(14.999 0.00198873 6.55999e-20)
(14.999 0.00200837 6.62958e-20)
(14.9991 0.00202733 -3.31846e-20)
(14.9991 0.00204565 1.4043e-20)
(14.9991 0.00206414 -3.33984e-20)
(14.9992 0.00208179 -5.58195e-20)
(14.9992 0.00209859 2.13188e-20)
(14.9992 0.00211579 3.3858e-20)
(14.9992 0.00213179 5.374e-20)
(14.9993 0.0021474 -1.87543e-20)
(14.9993 0.00216214 5.21942e-20)
(14.9993 0.00217698 1.71605e-20)
(14.9994 0.00219116 -8.5361e-20)
(14.9994 0.00220502 -3.47737e-20)
(14.9994 0.00221779 3.48023e-20)
(14.9995 0.00223017 6.21663e-20)
(14.9995 0.00224249 -7.96704e-24)
(14.9995 0.00225404 3.51928e-20)
(14.9996 0.00226495 8.6807e-23)
(14.9996 0.00227537 -4.54629e-20)
(14.9997 0.00228573 -4.46118e-20)
(14.9997 0.00229516 -7.95114e-20)
(14.9997 0.00230384 6.42294e-20)
(14.9998 0.00231201 7.18519e-20)
(14.9998 0.00231974 1.61074e-20)
(14.9998 0.00232735 1.33505e-20)
(14.9999 0.00233387 -3.97871e-20)
(14.9999 0.00234022 -3.6357e-20)
(14.9999 0.00234546 -1.26559e-23)
(15 0.00235044 3.59189e-20)
(15 0.00235496 3.63081e-20)
(15.0001 0.00235902 -1.00511e-23)
(15.0001 0.00236282 -3.67016e-20)
(15.0001 0.00236548 -7.35415e-20)
(15.0002 0.00236796 2.84623e-20)
(15.0002 0.00236931 3.15442e-20)
(15.0002 0.00237053 -4.28811e-20)
(15.0003 0.00237126 -6.69616e-23)
(15.0003 0.00237146 2.88394e-20)
(15.0004 0.00237086 7.37421e-20)
(15.0004 0.00236926 -8.39538e-20)
(15.0004 0.00236757 -3.67747e-20)
(15.0005 0.00236535 -6.75156e-23)
(15.0005 0.00236241 1.31233e-20)
(15.0005 0.00235864 8.86105e-21)
(15.0006 0.00235475 3.00454e-20)
(15.0006 0.00235041 -3.70825e-20)
(15.0007 0.00234487 1.7126e-20)
(15.0007 0.00233892 9.45555e-22)
(15.0007 0.00233221 -1.90217e-20)
(15.0008 0.00232553 9.4217e-20)
(15.0008 0.00231785 -2.86887e-22)
(15.0008 0.00230967 -7.39008e-20)
(15.0009 0.0023001 -6.0141e-20)
(15.0009 0.00229091 1.29664e-22)
(15.001 0.00228071 8.69041e-20)
(15.001 0.00226951 -2.60322e-20)
(15.001 0.00225845 3.7129e-20)
(15.0011 0.0022466 5.59171e-20)
(15.0011 0.00223391 -6.58804e-20)
(15.0011 0.00222097 -7.41151e-20)
(15.0012 0.00220735 1.05577e-19)
(15.0012 0.00219312 7.30303e-20)
(15.0013 0.0021777 -3.26323e-20)
(15.0013 0.00216228 -4.07208e-22)
(15.0013 0.00214623 -1.24249e-21)
(15.0014 0.00212952 -3.6488e-20)
(15.0014 0.00211243 -1.10886e-19)
(15.0014 0.00209421 1.55598e-21)
(15.0015 0.00207621 1.15363e-19)
(15.0015 0.00205717 7.67861e-20)
(15.0015 0.00203704 -4.428e-21)
(15.0016 0.00201712 -3.30541e-22)
(15.0016 0.0019961 6.89634e-21)
(15.0016 0.00197437 0)
(15.0017 0.00195226 8.69861e-21)
(15.0017 0.00192964 3.70377e-20)
(15.0017 0.00190543 3.58249e-20)
(15.0018 0.00188167 -7.27262e-20)
(15.0018 0.00185683 -1.25371e-20)
(15.0018 0.00183138 3.55861e-20)
(15.0019 0.0018049 1.54834e-20)
(15.0019 0.00177883 6.83301e-20)
(15.0019 0.00175157 -5.28196e-20)
(15.002 0.00172275 7.18618e-20)
(15.002 0.00169437 -5.56098e-20)
(15.002 0.00166479 9.29078e-20)
(15.0021 0.00163482 -9.41869e-20)
(15.0021 0.00160454 2.38827e-20)
(15.0021 0.00157348 5.78613e-20)
(15.0021 0.00154095 8.53897e-20)
(15.0022 0.00150903 3.4876e-20)
(15.0022 0.00147497 2.62952e-20)
(15.0022 0.00144131 3.60162e-20)
(15.0022 0.00140742 3.36248e-20)
(15.0023 0.00137209 -9.88343e-20)
(15.0023 0.00133711 -1.0014e-19)
(15.0023 0.00130052 3.53878e-20)
(15.0023 0.00126339 -3.38514e-20)
(15.0023 0.00122623 8.52589e-22)
(15.0024 0.00118788 -3.50584e-20)
(15.0024 0.00114932 -2.07165e-19)
(15.0024 0.00111022 1.55986e-21)
(15.0024 0.00107083 1.06253e-19)
(15.0024 0.00103102 7.41918e-20)
(15.0024 0.000990318 6.41781e-20)
(15.0025 0.000950811 -1.78815e-19)
(15.0025 0.000910218 7.40342e-20)
(15.0025 0.000870927 4.14878e-20)
(15.0025 0.000830374 7.62841e-20)
(15.0025 0.000791461 6.42374e-20)
(15.0025 0.000752774 -4.47466e-20)
(15.0025 0.000715207 -3.26919e-20)
(15.0025 0.000677248 -1.08534e-19)
(15.0025 0.000641314 -9.14238e-20)
(15.0026 0.000607107 -3.54174e-20)
(15.0026 0.000573038 -1.05238e-19)
(15.0026 0.000541362 2.81501e-20)
(15.0026 0.000510928 -2.93807e-20)
(15.0026 0.000483411 3.14987e-20)
(15.0026 0.000458962 -2.33466e-21)
(15.0026 0.000438297 -5.99144e-20)
(15.0026 0.000424356 5.08264e-20)
(15.0025 0.000424127 1.89144e-19)
(15.0025 0.00043055 -2.0133e-20)
(15.0024 0.000463371 -4.97051e-21)
(15.0024 0.000465194 -1.29304e-19)
(15.0023 0.000516311 1.11427e-19)
(15.0023 0.000402378 -2.89401e-20)
(15.0021 6.88062e-05 -1.75685e-19)
(14.9985 5.83666e-05 3.88378e-20)
(14.9985 7.19407e-05 6.1503e-21)
(14.9984 0.000744479 1.78169e-20)
(14.9983 0.000608599 -3.24957e-20)
(14.9981 0.00065204 -2.37893e-20)
(14.9979 0.000544305 7.89954e-20)
(14.9978 0.000503433 -1.64626e-20)
(14.9977 0.000464152 0)
(14.9976 0.000456348 -8.90042e-20)
(14.9976 0.000460715 1.19812e-19)
(14.9975 0.000478975 -9.36196e-20)
(14.9975 0.000505004 1.84755e-20)
(14.9975 0.000536856 1.7669e-20)
(14.9974 0.000572861 -6.51411e-20)
(14.9974 0.000613011 4.62833e-20)
(14.9974 0.000655246 2.09232e-20)
(14.9974 0.000699961 -9.87465e-20)
(14.9973 0.000747338 -9.74382e-20)
(14.9973 0.000795808 2.84845e-20)
(14.9973 0.000846197 2.91071e-20)
(14.9973 0.000897945 9.8531e-20)
(14.9973 0.000951441 2.20025e-20)
(14.9972 0.00100545 2.8201e-20)
(14.9972 0.0010609 -5.04019e-20)
(14.9972 0.00111629 2.29744e-20)
(14.9972 0.0011731 -9.96142e-20)
(14.9972 0.00123006 9.96525e-20)
(14.9972 0.00128703 2.32042e-20)
(14.9972 0.00134413 2.41879e-20)
(14.9972 0.0014014 -2.40632e-20)
(14.9972 0.00145851 -5.00318e-20)
(14.9972 0.00151526 7.43652e-20)
(14.9972 0.00157204 -1.23943e-19)
(14.9972 0.00162846 -7.56364e-20)
(14.9972 0.00168376 1.00704e-19)
(14.9972 0.00173943 9.64374e-20)
(14.9972 0.00179381 4.79636e-20)
(14.9972 0.00184797 -2.6529e-20)
(14.9973 0.0019024 2.02407e-20)
(14.9973 0.0019553 -9.37025e-20)
(14.9973 0.00200829 1.20424e-19)
(14.9973 0.00206052 2.79342e-20)
(14.9973 0.00211199 4.55756e-20)
(14.9973 0.00216344 4.5151e-20)
(14.9974 0.00221422 0)
(14.9974 0.00226389 -2.85161e-20)
(14.9974 0.0023138 1.32909e-20)
(14.9974 0.00236263 7.30872e-20)
(14.9975 0.00241065 -5.90585e-20)
(14.9975 0.00245862 -4.20295e-20)
(14.9975 0.00250598 5.32366e-20)
(14.9976 0.00255291 -7.08855e-20)
(14.9976 0.00259836 -5.03693e-20)
(14.9976 0.00264425 1.09541e-19)
(14.9977 0.0026889 3.03786e-20)
(14.9977 0.00273318 3.85738e-20)
(14.9977 0.00277653 8.16289e-20)
(14.9978 0.00281939 5.91445e-21)
(14.9978 0.00286139 -6.25392e-20)
(14.9978 0.00290315 6.66233e-20)
(14.9979 0.00294396 9.83452e-20)
(14.9979 0.00298373 3.40094e-20)
(14.998 0.00302349 3.18258e-20)
(14.998 0.00306242 2.28004e-22)
(14.998 0.00310055 -9.60282e-20)
(14.9981 0.00313795 6.20545e-20)
(14.9981 0.00317482 3.25045e-20)
(14.9982 0.00321116 2.96531e-20)
(14.9982 0.0032465 -6.17737e-20)
(14.9983 0.00328105 -3.94022e-23)
(14.9983 0.00331487 6.12253e-21)
(14.9984 0.00334829 -3.31091e-20)
(14.9984 0.00338076 -4.19335e-20)
(14.9985 0.00341196 5.82292e-20)
(14.9985 0.00344274 5.7686e-20)
(14.9986 0.00347296 -2.29019e-20)
(14.9986 0.00350203 -2.2052e-20)
(14.9987 0.00353048 -7.65666e-20)
(14.9987 0.00355782 1.39465e-20)
(14.9988 0.00358451 -1.91141e-20)
(14.9988 0.00360978 -6.95509e-20)
(14.9989 0.00363484 8.72937e-20)
(14.999 0.00365898 1.59189e-21)
(14.999 0.00368238 -7.02994e-20)
(14.9991 0.00370415 -1.18539e-22)
(14.9991 0.00372544 8.74509e-23)
(14.9992 0.00374608 -4.87393e-20)
(14.9992 0.0037659 3.56013e-20)
(14.9993 0.00378458 6.02253e-20)
(14.9994 0.00380237 1.04781e-20)
(14.9994 0.0038195 9.39567e-21)
(14.9995 0.00383539 4.93505e-23)
(14.9995 0.0038504 -4.38618e-20)
(14.9996 0.00386448 -6.61237e-20)
(14.9997 0.0038778 -3.65636e-20)
(14.9997 0.00389055 1.09781e-19)
(14.9998 0.00390167 3.30245e-20)
(14.9998 0.00391211 -3.6804e-20)
(14.9999 0.00392127 3.51578e-20)
(15 0.00393002 7.75949e-22)
(15 0.0039377 -3.73168e-20)
(15.0001 0.0039443 1.23589e-21)
(15.0001 0.00395048 0)
(15.0002 0.00395535 3.21528e-21)
(15.0003 0.00395951 -3.30173e-20)
(15.0003 0.00396199 -5.19701e-21)
(15.0004 0.00396385 4.35365e-20)
(15.0005 0.0039649 -5.18357e-20)
(15.0005 0.00396494 -3.73055e-20)
(15.0006 0.00396405 2.52619e-24)
(15.0007 0.00396181 -3.17486e-23)
(15.0007 0.00395885 7.48873e-20)
(15.0008 0.0039549 3.72755e-20)
(15.0008 0.0039497 -3.73767e-20)
(15.0009 0.00394358 3.7485e-20)
(15.001 0.00393671 5.27829e-20)
(15.001 0.00392925 -7.5081e-20)
(15.0011 0.00391997 -5.74092e-20)
(15.0012 0.00390982 1.90736e-20)
(15.0012 0.00389856 9.44169e-20)
(15.0013 0.00388697 2.03563e-20)
(15.0014 0.00387373 -5.89718e-20)
(15.0014 0.00385966 0)
(15.0015 0.00384424 3.75955e-20)
(15.0015 0.003828 6.2075e-20)
(15.0016 0.0038104 -3.75308e-20)
(15.0017 0.00379202 -3.73604e-20)
(15.0017 0.00377307 3.75534e-20)
(15.0018 0.00375256 -5.78266e-20)
(15.0019 0.00373086 -3.7319e-20)
(15.0019 0.00370857 3.75104e-20)
(15.002 0.0036853 6.92942e-20)
(15.0021 0.00366095 -1.03453e-19)
(15.0021 0.00363529 -3.18525e-21)
(15.0022 0.00360882 -3.274e-20)
(15.0022 0.00358151 3.58559e-20)
(15.0023 0.00355311 -7.43084e-20)
(15.0024 0.00352354 3.73858e-20)
(15.0024 0.00349274 7.63722e-20)
(15.0025 0.00346164 4.03746e-20)
(15.0025 0.00342904 -3.32611e-20)
(15.0026 0.00339504 -3.65989e-20)
(15.0027 0.00336045 1.1745e-19)
(15.0027 0.00332457 -3.55893e-22)
(15.0028 0.0032878 -3.67812e-20)
(15.0028 0.00324962 0)
(15.0029 0.00321069 9.50329e-20)
(15.0029 0.00316996 -9.71421e-20)
(15.003 0.00312943 0)
(15.003 0.00308674 5.05987e-20)
(15.0031 0.00304317 -5.16257e-20)
(15.0031 0.00299843 3.67887e-20)
(15.0032 0.00295325 1.64463e-20)
(15.0032 0.00290666 7.33946e-20)
(15.0033 0.00285831 -5.0967e-22)
(15.0033 0.00280988 -1.12444e-19)
(15.0034 0.00275965 3.58308e-20)
(15.0034 0.00270822 -1.38922e-19)
(15.0035 0.00265642 9.4963e-20)
(15.0035 0.00260327 -6.01698e-20)
(15.0036 0.00254881 -3.57533e-20)
(15.0036 0.00249407 -6.13869e-20)
(15.0037 0.00243695 2.66031e-20)
(15.0037 0.00237976 1.00831e-19)
(15.0037 0.00232186 -3.12936e-20)
(15.0038 0.00226176 -1.69985e-19)
(15.0038 0.00220172 -1.32117e-19)
(15.0038 0.00213963 1.01637e-19)
(15.0039 0.00207649 -1.36264e-19)
(15.0039 0.00201278 0)
(15.004 0.00194798 -1.0436e-19)
(15.004 0.00188224 -3.5177e-20)
(15.004 0.00181599 1.38178e-19)
(15.004 0.00174912 -7.19427e-20)
(15.0041 0.00168142 1.11725e-19)
(15.0041 0.00161304 -1.40217e-19)
(15.0041 0.00154578 7.50684e-20)
(15.0041 0.00147748 1.07117e-19)
(15.0042 0.00141036 1.08988e-19)
(15.0042 0.00134306 1.08574e-19)
(15.0042 0.00127734 1.06681e-20)
(15.0042 0.00121263 2.18045e-21)
(15.0042 0.00114979 -4.83313e-20)
(15.0043 0.00108737 4.74202e-20)
(15.0043 0.00102757 0)
(15.0043 0.000969919 -1.12599e-19)
(15.0043 0.00091323 1.6188e-19)
(15.0043 0.000860107 -8.2706e-20)
(15.0043 0.000809445 -4.64022e-20)
(15.0043 0.000762805 2.72256e-20)
(15.0043 0.000719942 -2.22676e-19)
(15.0043 0.000686769 3.43193e-20)
(15.0043 0.000661158 1.05969e-19)
(15.0042 0.000661086 2.13933e-20)
(15.0041 0.000657633 3.57515e-21)
(15.0041 0.000698975 -5.12314e-20)
(15.0039 0.000632722 3.011e-20)
(15.0038 0.000717867 -7.18235e-21)
(15.0038 0.000152117 -1.29908e-19)
(15.0037 6.76863e-05 5.59332e-20)
(14.9979 -1.35826e-05 -3.13854e-20)
(14.9979 -0.000532286 3.18802e-20)
(14.9978 0.000532524 0)
(14.9976 0.00046103 0)
(14.9973 0.000648073 -1.10969e-20)
(14.9971 0.000572172 -1.41589e-20)
(14.9969 0.000562755 -2.58688e-20)
(14.9968 0.000531857 -1.08372e-20)
(14.9967 0.000536948 -2.95039e-20)
(14.9966 0.000552399 4.05731e-20)
(14.9966 0.000585983 -2.51748e-20)
(14.9965 0.000628297 -1.95818e-20)
(14.9965 0.000678329 -2.80039e-20)
(14.9964 0.000733505 1.55748e-22)
(14.9964 0.000793504 -9.56583e-20)
(14.9963 0.00085611 6.71906e-20)
(14.9963 0.000921541 2.01222e-20)
(14.9963 0.000989934 2.90819e-20)
(14.9962 0.00106003 -6.9972e-20)
(14.9962 0.00113229 2.88246e-20)
(14.9962 0.00120586 -9.95469e-20)
(14.9962 0.00128155 8.17992e-22)
(14.9961 0.00135825 2.09075e-20)
(14.9961 0.00143666 -2.64762e-20)
(14.9961 0.00151497 4.89807e-20)
(14.9961 0.00159485 6.88517e-22)
(14.9961 0.00167499 -9.63895e-20)
(14.9961 0.0017554 -5.0308e-20)
(14.9961 0.00183582 2.44168e-20)
(14.9961 0.00191676 9.22905e-23)
(14.9961 0.00199745 0)
(14.9961 0.00207767 4.94597e-20)
(14.9961 0.00215774 7.42622e-20)
(14.9961 0.00223751 -4.88158e-20)
(14.9961 0.00231626 -5.18435e-20)
(14.9961 0.00239499 -4.90959e-20)
(14.9961 0.00247262 -4.78626e-20)
(14.9961 0.0025499 -4.86019e-20)
(14.9961 0.00262697 6.29899e-21)
(14.9962 0.00270242 -9.45877e-20)
(14.9962 0.00277785 -7.50569e-20)
(14.9962 0.0028522 1.90745e-20)
(14.9962 0.00292572 1.79882e-20)
(14.9963 0.00299915 2.82168e-20)
(14.9963 0.00307175 4.58208e-20)
(14.9963 0.00314282 -3.85988e-22)
(14.9964 0.00321394 2.92499e-20)
(14.9964 0.00328373 8.78629e-20)
(14.9964 0.00335279 4.33145e-20)
(14.9965 0.00342121 -2.95882e-20)
(14.9965 0.00348886 4.18098e-20)
(14.9966 0.00355561 -2.28155e-20)
(14.9966 0.00362123 -2.99748e-20)
(14.9966 0.00368652 -3.1111e-20)
(14.9967 0.00375031 3.09945e-20)
(14.9967 0.00381355 4.72216e-20)
(14.9968 0.00387529 -3.1302e-20)
(14.9968 0.00393658 6.88921e-20)
(14.9969 0.0039968 -5.25604e-21)
(14.9969 0.00405623 -1.04108e-19)
(14.997 0.00411455 -3.2049e-20)
(14.9971 0.0041717 3.20455e-20)
(14.9971 0.00422831 3.24739e-20)
(14.9972 0.00428373 9.79626e-20)
(14.9972 0.00433823 -3.21098e-20)
(14.9973 0.00439189 -6.6167e-20)
(14.9974 0.00444434 2.17865e-21)
(14.9974 0.00449592 3.01774e-20)
(14.9975 0.00454659 -3.32252e-20)
(14.9976 0.00459619 2.83565e-20)
(14.9976 0.00464463 6.73605e-20)
(14.9977 0.00469195 5.3985e-20)
(14.9978 0.00473834 -9.40128e-20)
(14.9978 0.00478315 -5.94398e-20)
(14.9979 0.00482695 3.4229e-20)
(14.998 0.00487008 1.10508e-20)
(14.9981 0.00491179 3.44984e-20)
(14.9981 0.00495216 1.3046e-20)
(14.9982 0.00499114 -4.17743e-20)
(14.9983 0.00502933 5.01934e-21)
(14.9984 0.00506587 -7.3468e-20)
(14.9984 0.00510157 5.22656e-20)
(14.9985 0.00513589 -1.78124e-20)
(14.9986 0.00516921 -1.06823e-19)
(14.9987 0.00520063 2.02212e-20)
(14.9988 0.00523122 7.17079e-20)
(14.9988 0.00526054 7.24668e-23)
(14.9989 0.0052887 2.33014e-20)
(14.999 0.00531554 -3.60258e-20)
(14.9991 0.00534103 -9.83951e-20)
(14.9992 0.00536515 9.79773e-21)
(14.9993 0.00538807 7.97972e-24)
(14.9993 0.00540989 3.67127e-20)
(14.9994 0.00543013 3.68743e-20)
(14.9995 0.00544905 1.92624e-20)
(14.9996 0.00546691 2.72917e-20)
(14.9997 0.00548283 -3.32728e-20)
(14.9998 0.00549774 -3.73326e-20)
(14.9999 0.00551099 -3.74107e-20)
(14.9999 0.00552363 -3.66328e-20)
(15 0.00553458 1.12613e-19)
(15.0001 0.00554384 3.76065e-20)
(15.0002 0.00555245 -3.98046e-20)
(15.0003 0.00555937 -3.77062e-20)
(15.0004 0.00556524 -4.18795e-20)
(15.0005 0.00556909 4.29926e-20)
(15.0006 0.00557183 -8.81875e-20)
(15.0007 0.00557315 -3.7757e-20)
(15.0007 0.0055728 1.21856e-19)
(15.0008 0.00557125 7.5638e-20)
(15.0009 0.00556839 -6.53582e-20)
(15.001 0.00556403 -1.48044e-20)
(15.0011 0.0055582 -1.06522e-22)
(15.0012 0.00555089 8.74498e-23)
(15.0013 0.00554228 7.5905e-20)
(15.0014 0.00553222 -1.57586e-20)
(15.0015 0.00552119 -5.45939e-20)
(15.0016 0.00550801 -2.02561e-20)
(15.0016 0.00549362 5.70285e-20)
(15.0017 0.0054776 7.58706e-20)
(15.0018 0.0054605 0)
(15.0019 0.00544144 -3.80221e-20)
(15.002 0.00542135 -1.48656e-20)
(15.0021 0.00539955 0)
(15.0022 0.00537608 -2.51489e-20)
(15.0023 0.00535086 -2.62113e-20)
(15.0024 0.00532471 -2.72436e-20)
(15.0025 0.00529723 -3.80225e-20)
(15.0025 0.00526779 -2.91621e-20)
(15.0026 0.00523711 3.77911e-20)
(15.0027 0.00520495 -3.80299e-20)
(15.0028 0.00517122 1.76257e-22)
(15.0029 0.00513603 4.19948e-20)
(15.003 0.00509953 3.44409e-20)
(15.0031 0.00506171 2.92242e-22)
(15.0032 0.00502219 -7.3839e-20)
(15.0032 0.00498133 -3.7544e-20)
(15.0033 0.00493904 0)
(15.0034 0.00489498 -4.44308e-23)
(15.0035 0.00484988 -3.28921e-21)
(15.0036 0.004803 -8.4516e-20)
(15.0037 0.00475442 1.24333e-19)
(15.0037 0.00470449 4.34727e-20)
(15.0038 0.00465289 -1.64993e-19)
(15.0039 0.00460037 0)
(15.004 0.00454563 3.75549e-20)
(15.0041 0.00448983 1.04572e-20)
(15.0041 0.0044318 1.26998e-20)
(15.0042 0.00437293 3.6875e-20)
(15.0043 0.00431223 -5.13689e-20)
(15.0044 0.00424992 0)
(15.0044 0.00418616 3.71495e-20)
(15.0045 0.00412107 -1.77842e-20)
(15.0046 0.00405452 1.84817e-20)
(15.0046 0.00398578 -1.29577e-19)
(15.0047 0.00391658 5.77988e-20)
(15.0048 0.00384491 -5.7421e-22)
(15.0048 0.00377166 -5.85968e-20)
(15.0049 0.00369783 3.57991e-20)
(15.005 0.00362239 -3.64806e-20)
(15.005 0.00354503 -3.57879e-20)
(15.0051 0.0034671 1.35056e-19)
(15.0052 0.00338643 3.46562e-20)
(15.0052 0.00330486 2.93777e-20)
(15.0053 0.00322217 -1.01279e-19)
(15.0053 0.00313728 -1.36694e-19)
(15.0054 0.00305163 1.02937e-19)
(15.0054 0.00296384 -3.40816e-20)
(15.0055 0.00287479 7.08134e-22)
(15.0055 0.00278465 3.41415e-20)
(15.0056 0.0026929 0)
(15.0056 0.00259978 1.41714e-19)
(15.0056 0.00250635 -7.16028e-20)
(15.0057 0.00241173 -7.22959e-20)
(15.0057 0.00231631 -1.45854e-19)
(15.0058 0.00221999 -3.94813e-20)
(15.0058 0.00212464 1.07375e-19)
(15.0058 0.00202781 -7.46627e-20)
(15.0059 0.00193223 -3.33069e-20)
(15.0059 0.00183677 -7.50667e-20)
(15.0059 0.00174315 -1.21942e-19)
(15.006 0.0016501 1.22136e-19)
(15.006 0.00155883 1.28675e-21)
(15.006 0.00146844 -1.41056e-21)
(15.006 0.00138064 8.07484e-20)
(15.006 0.00129499 1.10485e-19)
(15.006 0.00121037 4.79589e-20)
(15.006 0.0011293 1.77652e-20)
(15.006 0.00105127 -7.81261e-20)
(15.006 0.000978432 -8.34993e-20)
(15.006 0.000909276 2.36876e-21)
(15.006 0.000853625 1.09551e-19)
(15.006 0.00080347 -1.60279e-19)
(15.0059 0.000783733 7.88518e-20)
(15.0058 0.000741992 3.77835e-22)
(15.0056 0.000737288 0)
(15.0055 0.000551802 -2.97119e-20)
(15.0053 0.000579364 -6.68985e-20)
(15.0053 -0.00034798 2.07815e-20)
(15.0053 1.2703e-05 7.38627e-20)
(14.9972 -0.000109914 -4.17537e-20)
(14.9972 -0.000790539 -4.70471e-20)
(14.9972 0.000286077 0)
(14.997 0.000344892 3.02122e-20)
(14.9967 0.000656534 1.0593e-20)
(14.9964 0.000627493 -2.13379e-20)
(14.9961 0.00065589 -3.8035e-20)
(14.9959 0.000635482 -1.44792e-20)
(14.9958 0.000650462 1.02465e-20)
(14.9957 0.000673222 -4.50633e-20)
(14.9956 0.000718114 6.24987e-20)
(14.9955 0.000773575 -2.84706e-20)
(14.9955 0.000838986 6.44725e-20)
(14.9954 0.000911001 -1.732e-22)
(14.9953 0.000988897 2.84893e-20)
(14.9953 0.00107029 -1.98297e-20)
(14.9952 0.00115507 9.57473e-20)
(14.9952 0.00124285 6.78322e-20)
(14.9951 0.00133293 -1.92279e-20)
(14.9951 0.00142584 -1.58722e-21)
(14.9951 0.00152027 -2.66671e-20)
(14.995 0.00161668 -2.1967e-20)
(14.995 0.00171467 -4.93117e-20)
(14.995 0.00181439 -2.1779e-20)
(14.995 0.00191427 -5.00616e-20)
(14.995 0.00201583 9.54783e-20)
(14.995 0.00211806 -2.6037e-20)
(14.995 0.00222073 -4.98023e-20)
(14.9949 0.00232344 -4.96807e-20)
(14.9949 0.00242715 -7.37288e-20)
(14.9949 0.00253037 -2.50238e-20)
(14.9949 0.00263335 0)
(14.9949 0.00273621 -7.44269e-20)
(14.995 0.00283872 -4.96059e-20)
(14.995 0.00294049 2.94089e-21)
(14.995 0.00304215 -2.24746e-20)
(14.995 0.00314262 -4.87572e-20)
(14.995 0.00324274 -7.51024e-20)
(14.995 0.0033423 -4.86035e-20)
(14.995 0.00344044 9.60406e-20)
(14.9951 0.00353841 -8.05512e-21)
(14.9951 0.00363553 -7.53285e-20)
(14.9951 0.00373137 -1.86509e-20)
(14.9952 0.00382685 4.21296e-22)
(14.9952 0.00392157 -3.7644e-22)
(14.9952 0.00401434 -4.5008e-20)
(14.9953 0.00410689 4.44807e-20)
(14.9953 0.00419843 -4.39652e-20)
(14.9954 0.00428859 4.35072e-20)
(14.9954 0.00437806 4.14658e-22)
(14.9955 0.00446664 2.96622e-20)
(14.9955 0.00455371 4.28716e-20)
(14.9956 0.00463981 1.03675e-20)
(14.9957 0.00472507 -9.90379e-21)
(14.9957 0.0048086 9.38188e-21)
(14.9958 0.00489129 3.93106e-20)
(14.9958 0.00497238 -3.86534e-20)
(14.9959 0.00505245 -3.85942e-20)
(14.996 0.00513125 6.95647e-20)
(14.996 0.00520895 0)
(14.9961 0.00528535 -3.61551e-20)
(14.9962 0.00536061 -7.08116e-20)
(14.9963 0.0054346 3.46399e-20)
(14.9963 0.00550699 -3.38838e-20)
(14.9964 0.0055785 6.6299e-20)
(14.9965 0.00564889 3.3041e-20)
(14.9966 0.00571756 3.17845e-20)
(14.9967 0.00578499 -2.91829e-21)
(14.9968 0.00585123 -3.35695e-20)
(14.9968 0.00591641 -5.84285e-20)
(14.9969 0.00597997 2.851e-20)
(14.997 0.00604157 2.72731e-20)
(14.9971 0.00610217 7.86652e-21)
(14.9972 0.0061613 -2.57678e-20)
(14.9973 0.00621883 -1.52065e-20)
(14.9974 0.006275 -2.38677e-20)
(14.9975 0.00632957 -2.3332e-20)
(14.9976 0.00638256 5.74578e-20)
(14.9977 0.00643379 -7.04481e-20)
(14.9978 0.00648387 -2.72591e-22)
(14.9979 0.00653211 3.58264e-20)
(14.998 0.00657859 -3.57909e-20)
(14.9981 0.00662348 3.54461e-20)
(14.9982 0.00666729 -3.35993e-20)