/*--------------------------------*- C++ -*---------------------------------*\ 
| ========                 |                                                 | 
| \      /  F ield         | OpenFOAM: The Open Source CFD Toolbox           | 
|  \    /   O peration     | Version:  v1812                                 | 
|   \  /    A nd           | Web:      www.OpenFOAM.com                      | 
|    \/     M anipulation  |                                                 | 
\*--------------------------------------------------------------------------*/ 
FoamFile
{
    version     2.0;
    format      ascii;
    class       volVectorField;
    location    "/home/james/dafoam/myRuns/bezier_coanda_opt/0.00000000001/";
    object      sens_CL_shapey;
}
// * * * * * * * * * * * * * * * * * * * * * * * * * * * * * * * * * * * * * //

dimensions      [0 0 0 0 0 0 0];
internalField   uniform (0 0 0);
boundaryField
{
    allWalls
    {
        type  wall;
        value nonuniform List<vector>
198
(
(0.004183 0.004399 -0.000027)
(-0.002508 0.006958 -0.000020)
(-0.009311 0.007925 -0.000014)
(-0.012698 0.006901 -0.000014)
(-0.012454 0.006205 -0.000013)
(-0.011677 0.005697 -0.000013)
(-0.011458 0.006555 -0.000012)
(-0.012049 0.009574 -0.000011)
(-0.013332 0.014971 -0.000010)
(-0.009874 0.013931 -0.000008)
(-0.007907 0.014161 -0.000006)
(-0.010449 0.021431 -0.000004)
(-0.011608 0.026733 -0.000001)
(-0.011853 0.030337 0.000114)
(-0.011172 0.031859 0.000239)
(-0.010550 0.034125 0.000265)
(-0.009970 0.036642 0.000295)
(-0.009575 0.040535 0.000328)
(-0.009406 0.046046 0.000363)
(-0.009014 0.052103 0.000762)
(-0.007625 0.052126 0.001241)
(-0.005431 0.046133 0.001442)
(-0.006855 0.094363 0.001642)
(-0.006122 0.125927 0.001827)
(-0.000737 0.108866 0.001913)
(0.004480 0.120230 0.001417)
(0.009957 0.129238 0.000768)
(0.015249 0.131638 0.000489)
(0.020811 0.137879 0.000270)
(0.026555 0.144701 0.000107)
(0.032233 0.151178 -0.000009)
(0.037970 0.157984 -0.000002)
(0.043719 0.165190 0.000051)
(0.048434 0.169075 0.000051)
(0.050996 0.166711 0.000051)
(0.052593 0.162427 0.000051)
(0.053366 0.157243 0.000051)
(0.050020 0.141401 0.000036)
(0.042452 0.115452 0.000021)
(0.034598 0.091144 0.000021)
(0.028052 0.071746 0.000021)
(0.019983 0.050008 0.000021)
(0.012138 0.030013 0.000021)
(0.006146 0.015077 0.000021)
(0.001824 0.004260 0.000022)
(-0.000264 -0.000877 0.000022)
(-0.001545 -0.003886 0.000022)
(-0.002358 -0.005180 0.000022)
(-0.002594 -0.001384 0.000022)
(-0.000659 0.002294 0.000012)
(-0.010610 0.133569 0.000022)
(-0.001755 0.019042 0.000022)
(-0.005313 0.059677 0.000022)
(-0.007460 0.086194 0.000022)
(-0.007604 0.090095 0.000022)
(-0.007596 0.091103 0.000021)
(-0.007856 0.094863 0.000021)
(-0.008190 0.099605 0.000021)
(-0.008455 0.103794 0.000021)
(-0.008609 0.106895 0.000021)
(-0.008686 0.109253 0.000021)
(-0.008701 0.111049 0.000021)
(-0.008787 0.112267 0.000036)
(-0.008810 0.112921 0.000051)
(-0.008631 0.112955 0.000051)
(-0.008386 0.112389 0.000051)
(-0.008115 0.111781 0.000051)
(-0.007705 0.109405 0.000051)
(-0.007574 0.112037 0.000147)
(-0.007290 0.112157 0.000247)
(-0.006480 0.104800 0.000250)
(-0.005743 0.099498 0.000239)
(-0.005432 0.103194 0.000209)
(-0.004959 0.104519 0.000154)
(-0.004220 0.104427 0.000065)
(-0.003274 0.099445 -0.000336)
(-0.002009 0.084416 -0.000700)
(-0.001008 0.070955 -0.000720)
(-0.000204 0.059574 -0.000718)
(0.000424 0.052619 -0.000698)
(0.001003 0.047655 -0.000668)
(0.001461 0.042834 -0.000454)
(0.001922 0.038770 -0.000240)
(0.002473 0.037264 -0.000205)
(0.002852 0.033734 -0.000169)
(0.003346 0.031528 -0.000136)
(0.003823 0.029680 -0.000103)
(0.004463 0.028345 -0.000073)
(0.005214 0.027117 -0.000056)
(0.006112 0.025796 -0.000052)
(0.006895 0.024452 -0.000049)
(0.007613 0.022073 -0.000045)
(0.008057 0.018913 -0.000042)
(0.009069 0.016917 -0.000039)
(0.010876 0.015969 -0.000036)
(0.009106 0.010616 -0.000034)
(0.011194 0.009603 -0.000032)
(0.015129 0.010196 -0.000030)
(0.014904 0.006913 -0.000028)
(0.010979 0.004766 -0.000026)
(0.000695 -0.005430 0.000001)
(-0.000005 -0.010563 0.000001)
(-0.000233 -0.000698 0.000001)
(0.000123 0.013922 0.000001)
(0.000725 0.025434 0.000001)
(0.001217 0.033433 0.000001)
(0.001506 0.041004 0.000001)
(0.001896 0.053915 0.000001)
(0.002693 0.075954 0.000001)
(0.003733 0.104597 0.000001)
(0.003247 0.081388 0.000001)
(0.001651 -0.020333 0.000001)
(0.015744 0.277621 0.000002)
(0.059839 1.348416 0.000002)
(-1.003030 -2.580350 0.000002)
(-59.715489 -0.017310 0.000002)
(-0.034288 -0.053064 0.000002)
(-0.025860 -0.001154 0.000002)
(-1.042583 -3.569822 0.000002)
(59.692101 -0.051346 0.000002)
(-0.031018 -0.108039 0.000002)
(-0.028376 -0.025317 0.000002)
(0.015212 0.219059 0.000002)
(0.014604 0.248346 0.000005)
(-0.036644 0.035900 0.000008)
(-0.067034 -0.093723 0.000008)
(-0.077905 -0.129984 0.000008)
(-0.070658 -0.111547 0.000008)
(-0.041713 -0.056678 0.000008)
(0.007735 0.016315 0.000008)
(0.071747 0.094268 0.000008)
(0.148331 0.173294 0.000008)
(0.202774 0.214136 0.000008)
(0.218129 0.203203 0.000008)
(0.210276 0.173567 0.000008)
(0.174845 0.128456 0.000008)
(0.135768 0.089669 0.000008)
(0.104074 0.062452 0.000008)
(0.083418 0.044583 0.000008)
(0.084075 0.039736 0.000008)
(0.090574 0.036704 0.000008)
(0.087169 0.029180 0.000008)
(0.080687 0.022372 0.000008)
(0.084741 0.019916 0.000008)
(0.083600 0.015847 0.000008)
(0.067320 0.008620 0.000008)
(0.050563 0.002480 0.000008)
(0.034390 -0.002934 0.000008)
(0.020439 -0.007728 0.000008)
(0.013481 -0.011422 0.000008)
(0.009200 -0.012847 0.000008)
(0.000753 -0.010768 0.000008)
(-0.015098 -0.005014 0.000008)
(-0.037660 0.004381 0.000008)
(-0.061664 0.015932 0.000008)
(-0.081405 0.027425 0.000008)
(-0.098832 0.039863 0.000008)
(-0.116619 0.055470 0.000008)
(-0.112123 0.062708 0.000008)
(-0.116736 0.077903 0.000008)
(-0.135119 0.099037 0.000008)
(-0.128928 0.100195 0.000008)
(-0.145724 0.120298 0.000008)
(-0.201908 0.176571 0.000008)
(-0.290507 0.267010 0.000008)
(-0.427088 0.430680 0.000008)
(-0.550436 0.619976 0.000008)
(-0.529312 0.664339 0.000008)
(-0.441231 0.635372 0.000008)
(-0.281618 0.431297 0.000008)
(-0.017060 -0.019218 0.000008)
(0.187507 -0.430395 0.000008)
(0.290387 -0.734313 0.000008)
(0.302008 -0.906349 0.000005)
(0.256378 -0.933824 0.000003)
(0.203131 -0.851740 0.000002)
(0.147126 -0.620222 0.000002)
(0.082694 -0.331858 0.000002)
(-59.668193 -0.117665 0.000002)
(59.711648 -0.056311 0.000002)
(0.058668 -0.133491 0.000002)
(0.130939 -0.001445 0.000002)
(1.253268 -6.450999 0.000002)
(1.075756 -3.505876 0.000002)
(-0.144351 4.223012 0.000002)
(-0.043474 1.216411 0.000002)
(-0.005861 0.116551 0.000001)
(-0.009258 0.264268 0.000001)
(-0.013932 0.430823 0.000001)
(-0.009808 0.320204 0.000001)
(-0.004799 0.152832 0.000001)
(-0.005172 0.160536 0.000001)
(-0.005677 0.179212 0.000001)
(-0.006203 0.192632 0.000001)
(-0.004587 0.136223 0.000001)
(-0.001749 0.094947 0.000001)
(0.000545 0.086480 0.000001)
(-0.009974 0.170606 0.000012)
)
;
    }
}
