/*--------------------------------*- C++ -*---------------------------------*\ 
| ========                 |                                                 | 
| \      /  F ield         | OpenFOAM: The Open Source CFD Toolbox           | 
|  \    /   O peration     | Version:  v1812                                 | 
|   \  /    A nd           | Web:      www.OpenFOAM.com                      | 
|    \/     M anipulation  |                                                 | 
\*--------------------------------------------------------------------------*/ 
FoamFile
{
    version     2.0;
    format      ascii;
    class       volVectorField;
    location    "/home/james/dafoam/myRuns/bezier_coanda_opt/0.00000000001/";
    object      sens_CL_shapey;
}
// * * * * * * * * * * * * * * * * * * * * * * * * * * * * * * * * * * * * * //

dimensions      [0 0 0 0 0 0 0];
internalField   uniform (0 0 0);
boundaryField
{
    allWalls
    {
        type  wall;
        value nonuniform List<vector>
198
(
(0.005570 0.005542 -0.000040)
(-0.001822 0.010393 -0.000036)
(-0.011496 0.012425 -0.000031)
(-0.016765 0.009758 -0.000031)
(-0.014722 0.005823 -0.000031)
(-0.011497 0.001705 -0.000030)
(-0.011238 0.001932 -0.000029)
(-0.012400 0.006610 -0.000028)
(-0.013448 0.013670 -0.000026)
(-0.007881 0.010990 -0.000024)
(-0.006225 0.011920 -0.000022)
(-0.011107 0.022381 -0.000019)
(-0.012196 0.026932 -0.000015)
(-0.013054 0.032134 0.000087)
(-0.012554 0.034398 0.000199)
(-0.011225 0.034947 0.000223)
(-0.010612 0.037489 0.000249)
(-0.010164 0.041363 0.000278)
(-0.010322 0.048728 0.000310)
(-0.009907 0.054854 0.000700)
(-0.007621 0.049639 0.001167)
(-0.004890 0.039745 0.001354)
(-0.008298 0.109466 0.001543)
(-0.007705 0.134635 0.001717)
(-0.000704 0.099942 0.001799)
(0.004078 0.117423 0.001345)
(0.009176 0.119069 0.000745)
(0.013809 0.115517 0.000481)
(0.017987 0.113851 0.000274)
(0.021867 0.112630 0.000120)
(0.025251 0.111257 0.000011)
(0.028156 0.109340 0.000031)
(0.030568 0.107368 0.000095)
(0.031441 0.101956 0.000095)
(0.031886 0.097354 0.000095)
(0.033736 0.097923 0.000095)
(0.034601 0.096412 0.000095)
(0.031751 0.085895 0.000072)
(0.028891 0.075571 0.000049)
(0.029414 0.073872 0.000049)
(0.027823 0.067677 0.000049)
(0.021315 0.050627 0.000049)
(0.015240 0.034911 0.000049)
(0.010738 0.023351 0.000047)
(0.007118 0.014664 0.000044)
(0.004555 0.008985 0.000044)
(0.002727 0.004942 0.000044)
(0.001319 0.002638 0.000044)
(0.000177 0.003765 0.000044)
(0.000654 0.004328 0.000032)
(-0.008434 0.142500 0.000044)
(-0.001926 0.029891 0.000044)
(-0.004143 0.062710 0.000044)
(-0.005800 0.090482 0.000044)
(-0.006047 0.096464 0.000044)
(-0.006003 0.096233 0.000047)
(-0.006169 0.098760 0.000049)
(-0.006450 0.103294 0.000049)
(-0.006679 0.107095 0.000049)
(-0.006824 0.109553 0.000049)
(-0.006930 0.111442 0.000049)
(-0.007003 0.112872 0.000049)
(-0.007040 0.113831 0.000072)
(-0.007024 0.113986 0.000095)
(-0.007011 0.114419 0.000095)
(-0.006771 0.111007 0.000095)
(-0.007141 0.118764 0.000095)
(-0.006992 0.116901 0.000095)
(-0.006159 0.104062 0.000182)
(-0.005698 0.098322 0.000274)
(-0.005713 0.102785 0.000278)
(-0.005752 0.109230 0.000268)
(-0.005323 0.107950 0.000237)
(-0.004838 0.106884 0.000181)
(-0.004157 0.103617 0.000089)
(-0.003357 0.099888 -0.000322)
(-0.002188 0.084940 -0.000694)
(-0.001144 0.069939 -0.000715)
(-0.000372 0.060423 -0.000711)
(0.000279 0.053741 -0.000691)
(0.000824 0.048046 -0.000659)
(0.001339 0.043635 -0.000473)
(0.001768 0.039452 -0.000286)
(0.002270 0.036700 -0.000247)
(0.002767 0.034857 -0.000208)
(0.003212 0.032059 -0.000172)
(0.003668 0.030001 -0.000137)
(0.004359 0.029098 -0.000104)
(0.004906 0.027571 -0.000077)
(0.005732 0.026533 -0.000063)
(0.006598 0.025615 -0.000060)
(0.007204 0.022729 -0.000057)
(0.008157 0.020855 -0.000054)
(0.008694 0.017549 -0.000051)
(0.010513 0.016437 -0.000049)
(0.009718 0.012632 -0.000047)
(0.011136 0.010244 -0.000045)
(0.015749 0.011047 -0.000043)
(0.016300 0.008046 -0.000041)
(0.011942 0.005478 -0.000040)
(0.000586 -0.001078 0.000020)
(-0.000123 -0.002442 0.000020)
(-0.000102 0.004978 0.000020)
(0.000139 0.013712 0.000020)
(0.000614 0.020818 0.000020)
(0.000950 0.027063 0.000020)
(0.001270 0.032622 0.000020)
(0.001455 0.037378 0.000020)
(0.001715 0.045516 0.000020)
(0.002128 0.057534 0.000020)
(0.001643 0.037107 0.000020)
(0.000499 -0.031240 0.000020)
(0.008574 0.127995 0.000015)
(0.034509 0.771117 0.000010)
(-0.610191 -1.483491 0.000010)
(-59.724786 -0.011049 0.000010)
(-0.017419 -0.032459 0.000010)
(0.007965 0.043330 0.000010)
(-0.618743 -2.023544 0.000010)
(59.694932 -0.056530 0.000010)
(-0.027755 -0.129310 0.000010)
(-0.035118 -0.134917 0.000010)
(-0.021419 -0.066602 0.000010)
(-0.001695 0.025964 0.000010)
(0.011226 0.089940 0.000010)
(-0.007435 0.047620 0.000010)
(-0.044858 -0.055344 0.000010)
(-0.059763 -0.096333 0.000010)
(-0.054039 -0.084177 0.000010)
(-0.037209 -0.054898 0.000010)
(-0.012062 -0.018227 0.000010)
(0.020690 0.020574 0.000010)
(0.061249 0.061971 0.000010)
(0.092179 0.085425 0.000010)
(0.109428 0.091357 0.000010)
(0.116039 0.087548 0.000010)
(0.109214 0.074830 0.000010)
(0.093118 0.058207 0.000010)
(0.078818 0.044518 0.000010)
(0.074442 0.036901 0.000010)
(0.076437 0.032057 0.000010)
(0.075294 0.025844 0.000010)
(0.069637 0.019558 0.000010)
(0.070634 0.016682 0.000010)
(0.072480 0.013987 0.000010)
(0.062883 0.008538 0.000010)
(0.050097 0.003365 0.000010)
(0.037716 -0.001037 0.000010)
(0.026335 -0.004965 0.000010)
(0.017881 -0.008010 0.000010)
(0.011846 -0.009457 0.000010)
(0.002277 -0.007965 0.000010)
(-0.014579 -0.002957 0.000010)
(-0.033815 0.004764 0.000010)
(-0.056106 0.015341 0.000010)
(-0.076365 0.026567 0.000010)
(-0.091224 0.037633 0.000010)
(-0.112016 0.054219 0.000010)
(-0.117419 0.066687 0.000010)
(-0.122085 0.082684 0.000010)
(-0.136239 0.100767 0.000010)
(-0.139158 0.108714 0.000010)
(-0.161196 0.134885 0.000010)
(-0.214941 0.193320 0.000010)
(-0.301601 0.287716 0.000010)
(-0.438563 0.458974 0.000010)
(-0.574522 0.668990 0.000010)
(-0.570802 0.739323 0.000010)
(-0.497499 0.732168 0.000010)
(-0.334226 0.520171 0.000010)
(-0.039309 0.010656 0.000010)
(0.193873 -0.457181 0.000010)
(0.305277 -0.772533 0.000010)
(0.326463 -0.978869 0.000010)
(0.287239 -1.044592 0.000010)
(0.221387 -0.918592 0.000010)
(0.157426 -0.651115 0.000010)
(0.090149 -0.357913 0.000010)
(-59.667015 -0.125685 0.000010)
(59.709314 -0.061870 0.000010)
(0.059630 -0.148918 0.000010)
(0.138541 -0.035477 0.000010)
(1.320299 -7.001838 0.000010)
(1.133160 -3.817313 0.000010)
(-0.151874 4.541544 0.000010)
(-0.046380 1.329014 0.000015)
(-0.006124 0.127043 0.000020)
(-0.010171 0.302015 0.000020)
(-0.012683 0.393307 0.000020)
(-0.010851 0.340197 0.000020)
(-0.008798 0.291516 0.000020)
(-0.004314 0.145936 0.000020)
(-0.004475 0.133900 0.000020)
(-0.006878 0.217073 0.000020)
(-0.004999 0.157834 0.000020)
(-0.002494 0.104147 0.000020)
(-0.001113 0.098259 0.000020)
(-0.008405 0.182516 0.000032)
)
;
    }
}
