/*--------------------------------*- C++ -*---------------------------------*\ 
| ========                 |                                                 | 
| \      /  F ield         | OpenFOAM: The Open Source CFD Toolbox           | 
|  \    /   O peration     | Version:  v1812                                 | 
|   \  /    A nd           | Web:      www.OpenFOAM.com                      | 
|    \/     M anipulation  |                                                 | 
\*--------------------------------------------------------------------------*/ 
FoamFile
{
    version     2.0;
    format      ascii;
    class       volVectorField;
    location    "/home/james/dafoam/myRuns/bezier_coanda_opt/0.00000000001/";
    object      sens_CL_shapey;
}
// * * * * * * * * * * * * * * * * * * * * * * * * * * * * * * * * * * * * * //

dimensions      [0 0 0 0 0 0 0];
internalField   uniform (0 0 0);
boundaryField
{
    allWalls
    {
        type  wall;
        value nonuniform List<vector>
198
(
(-0.060447 -0.008274 -0.000103)
(-0.022183 -0.002090 -0.000103)
(0.005293 0.006913 -0.000104)
(-0.001613 0.018336 -0.000107)
(-0.013639 0.016768 -0.000109)
(-0.015232 0.007262 -0.000112)
(-0.012375 -0.001520 -0.000115)
(-0.011051 -0.007238 -0.000117)
(-0.014802 -0.004696 -0.000119)
(-0.023107 0.007670 -0.000121)
(-0.026866 0.019749 -0.000123)
(-0.029427 0.031675 -0.000124)
(-0.025428 0.032843 -0.000124)
(-0.018431 0.029499 -0.000030)
(-0.017397 0.031812 0.000076)
(-0.017036 0.035626 0.000103)
(-0.017112 0.040107 0.000136)
(-0.017992 0.050072 0.000174)
(-0.000998 -0.000279 0.000214)
(0.023894 -0.088046 0.000657)
(-0.117854 0.685359 0.001158)
(-0.026082 -0.232526 0.001313)
(0.085359 -0.467340 0.001451)
(-0.010816 0.953892 0.001557)
(-0.041447 -0.184284 0.001571)
(0.001813 -0.276473 0.001235)
(0.053158 0.354186 0.000813)
(-0.011647 -0.044401 0.000613)
(-0.024240 -0.095031 0.000465)
(-0.033493 -0.117686 0.000359)
(-0.050910 -0.157364 0.000285)
(-0.056469 -0.161168 0.000287)
(-0.047207 -0.122718 0.000322)
(-0.035897 -0.080846 0.000327)
(-0.004571 0.002398 0.000332)
(0.042241 0.109915 0.000336)
(0.060712 0.142962 0.000341)
(0.057811 0.129065 0.000266)
(0.052948 0.114772 0.000189)
(0.043835 0.093908 0.000189)
(0.036344 0.077781 0.000189)
(0.028505 0.061006 0.000189)
(0.021757 0.047106 0.000189)
(0.016303 0.036095 0.000189)
(0.012078 0.027423 0.000170)
(0.008577 0.020028 0.000150)
(0.006458 0.014926 0.000150)
(0.005854 0.013944 0.000150)
(0.004798 0.015823 0.000150)
(0.000212 -0.006003 0.000150)
(-0.027557 -0.661686 0.000124)
(0.156560 0.657617 0.000150)
(0.079193 0.346082 0.000150)
(0.019240 0.097517 0.000150)
(0.018109 0.090148 0.000150)
(0.022871 0.113707 0.000150)
(0.021606 0.112609 0.000170)
(0.019080 0.105932 0.000189)
(0.017085 0.102082 0.000189)
(0.015442 0.100404 0.000189)
(0.013796 0.098894 0.000189)
(0.012105 0.097151 0.000189)
(0.010465 0.095875 0.000269)
(0.008862 0.094847 0.000347)
(0.007281 0.093908 0.000343)
(0.005719 0.092977 0.000339)
(0.004181 0.092328 0.000335)
(0.002670 0.090733 0.000331)
(0.001249 0.094581 0.000399)
(-0.000136 0.096368 0.000483)
(-0.001460 0.091515 0.000504)
(-0.002700 0.092453 0.000513)
(-0.003836 0.095139 0.000505)
(-0.005149 0.101924 0.000472)
(-0.006023 0.102126 0.000396)
(-0.006435 0.087915 -0.000040)
(-0.006606 0.076637 -0.000451)
(-0.005991 0.067531 -0.000494)
(-0.005273 0.058974 -0.000508)
(-0.004682 0.053459 -0.000502)
(-0.004113 0.048410 -0.000480)
(-0.002107 0.043556 -0.000482)
(-0.000165 0.040284 -0.000472)
(0.000286 0.037554 -0.000421)
(0.000754 0.034043 -0.000371)
(0.001186 0.032349 -0.000322)
(0.001597 0.030467 -0.000276)
(0.001954 0.027289 -0.000232)
(0.001583 0.024614 -0.000171)
(0.001169 0.021404 -0.000128)
(0.001633 0.019279 -0.000125)
(0.002006 0.016986 -0.000121)
(0.002472 0.016461 -0.000118)
(0.004206 0.023132 -0.000115)
(0.001745 0.014632 -0.000112)
(-0.001309 0.006243 -0.000110)
(0.016491 0.043722 -0.000107)
(0.028436 0.049120 -0.000105)
(0.101337 0.062425 -0.000103)
(0.052996 0.044773 -0.000102)
(-0.002070 -0.005280 0.000124)
(-0.000334 0.017815 0.000098)
(0.000164 0.016984 0.000098)
(0.000587 0.019319 0.000098)
(0.000938 0.024709 0.000098)
(0.001202 0.029366 0.000098)
(0.001333 0.032552 0.000098)
(0.001378 0.035420 0.000098)
(0.001362 0.037431 0.000098)
(0.001271 0.038641 0.000098)
(0.001187 0.037373 0.000098)
(0.000866 0.022768 0.000098)
(0.000429 0.004282 0.000071)
(-0.000033 0.064370 0.000044)
(-0.067614 -0.196323 0.000044)
(-59.705917 -0.004127 0.000044)
(-0.001956 -0.004725 0.000044)
(-0.002410 0.006204 0.000044)
(-0.069350 -0.253310 0.000044)
(59.699691 -0.012922 0.000044)
(-0.006452 -0.020478 0.000044)
(-0.007729 -0.022495 0.000044)
(-0.009645 -0.027198 0.000044)
(-0.012272 -0.031851 0.000044)
(-0.014600 -0.034625 0.000034)
(-0.017428 -0.038738 0.000024)
(-0.020055 -0.042372 0.000024)
(-0.021627 -0.042357 0.000024)
(-0.021909 -0.039395 0.000024)
(-0.020496 -0.034119 0.000024)
(-0.017213 -0.026974 0.000024)
(-0.012300 -0.018856 0.000024)
(-0.006036 -0.010463 0.000024)
(0.001103 -0.002577 0.000024)
(0.008396 0.003947 0.000024)
(0.014964 0.008424 0.000024)
(0.020245 0.010879 0.000024)
(0.024308 0.011902 0.000024)
(0.027340 0.012108 0.000024)
(0.029931 0.011993 0.000024)
(0.030704 0.010823 0.000024)
(0.031118 0.009282 0.000024)
(0.032691 0.008148 0.000024)
(0.033246 0.006557 0.000024)
(0.031831 0.004491 0.000024)
(0.028731 0.002273 0.000024)
(0.024771 0.000175 0.000024)
(0.020071 -0.001772 0.000024)
(0.015157 -0.003399 0.000024)
(0.010455 -0.004663 0.000024)
(0.006452 -0.005205 0.000024)
(-0.002287 -0.003875 0.000024)
(-0.016058 -0.000519 0.000024)
(-0.028159 0.004071 0.000024)
(-0.042265 0.010926 0.000024)
(-0.057161 0.019716 0.000024)
(-0.069621 0.029556 0.000024)
(-0.079154 0.039388 0.000024)
(-0.095836 0.055266 0.000024)
(-0.098408 0.066167 0.000024)
(-0.102868 0.083152 0.000024)
(-0.124949 0.108390 0.000024)
(-0.143257 0.129172 0.000024)
(-0.179806 0.170244 0.000024)
(-0.246902 0.245684 0.000024)
(-0.356971 0.374216 0.000024)
(-0.522242 0.602389 0.000024)
(-0.675125 0.870690 0.000024)
(-0.656971 0.945739 0.000024)
(-0.530728 0.865475 0.000024)
(-0.305213 0.499864 0.000024)
(0.028238 -0.178633 0.000024)
(0.286570 -0.795501 0.000024)
(0.398696 -1.185030 0.000024)
(0.382796 -1.360078 0.000034)
(0.290504 -1.185801 0.000044)
(0.174665 -0.804397 0.000044)
(0.091222 -0.507501 0.000044)
(-59.654096 -0.214015 0.000044)
(59.688678 -0.098307 0.000044)
(0.074633 -0.233566 0.000044)
(0.209339 -0.306911 0.000044)
(1.219614 -8.803794 0.000044)
(1.024961 -4.518638 0.000044)
(-0.086748 5.707178 0.000044)
(-0.023042 1.369143 0.000071)
(-0.004303 0.212315 0.000098)
(-0.010867 0.752452 0.000098)
(-0.008353 0.579953 0.000098)
(-0.005691 0.386065 0.000098)
(-0.004762 0.338242 0.000098)
(-0.004489 0.300256 0.000098)
(-0.004423 0.235880 0.000098)
(-0.003126 0.269886 0.000098)
(-0.001184 0.220751 0.000098)
(-0.006462 0.294834 0.000098)
(-0.004494 0.743312 0.000098)
(-0.116115 -0.516337 0.000098)
)
;
    }
}
