/*--------------------------------*- C++ -*---------------------------------*\ 
| ========                 |                                                 | 
| \      /  F ield         | OpenFOAM: The Open Source CFD Toolbox           | 
|  \    /   O peration     | Version:  v1812                                 | 
|   \  /    A nd           | Web:      www.OpenFOAM.com                      | 
|    \/     M anipulation  |                                                 | 
\*--------------------------------------------------------------------------*/ 
FoamFile
{
    version     2.0;
    format      ascii;
    class       volVectorField;
    location    "/home/james/dafoam/myRuns/bezier_coanda_opt/0.00000000001/";
    object      sens_CL_shapey;
}
// * * * * * * * * * * * * * * * * * * * * * * * * * * * * * * * * * * * * * //

dimensions      [0 0 0 0 0 0 0];
internalField   uniform (0 0 0);
boundaryField
{
    allWalls
    {
        type  wall;
        value nonuniform List<vector>
198
(
(0.000720 0.003268 -0.000010)
(-0.004605 0.004582 -0.000006)
(-0.009614 0.005698 -0.000006)
(-0.011775 0.006702 -0.000005)
(-0.011999 0.007958 -0.000004)
(-0.011450 0.008811 -0.000003)
(-0.011931 0.011063 -0.000002)
(-0.012725 0.014781 -0.000001)
(-0.011202 0.016349 0.000001)
(-0.009577 0.017239 0.000003)
(-0.009863 0.021378 0.000005)
(-0.010289 0.025686 0.000007)
(-0.009552 0.027233 0.000072)
(-0.009160 0.030002 0.000145)
(-0.008683 0.032449 0.000162)
(-0.007995 0.034536 0.000180)
(-0.007603 0.037960 0.000200)
(-0.007133 0.041645 0.000221)
(-0.006642 0.045990 0.000242)
(-0.006023 0.050739 0.000635)
(-0.005279 0.056224 0.001093)
(-0.004342 0.062948 0.001244)
(-0.003169 0.074415 0.001391)
(-0.001367 0.101599 0.001521)
(0.001719 0.122692 0.001566)
(0.005476 0.121458 0.001075)
(0.009339 0.123244 0.000483)
(0.013039 0.127916 0.000280)
(0.016440 0.130298 0.000126)
(0.019748 0.133736 0.000016)
(0.022821 0.136591 -0.000059)
(0.025740 0.139647 -0.000035)
(0.028320 0.141861 0.000017)
(0.030458 0.142840 0.000017)
(0.032099 0.142489 0.000017)
(0.033143 0.140479 0.000017)
(0.033262 0.135583 0.000017)
(0.032298 0.127356 0.000011)
(0.031234 0.119626 0.000005)
(0.030249 0.113101 0.000005)
(0.028174 0.103317 0.000005)
(0.025465 0.091819 0.000005)
(0.022626 0.080289 0.000005)
(0.019310 0.067599 0.000006)
(0.015729 0.054412 0.000006)
(0.013086 0.045588 0.000006)
(0.011575 0.038919 0.000006)
(0.008219 0.027654 0.000006)
(0.005487 0.018423 0.000006)
(0.006977 0.028479 0.000001)
(-0.014274 0.104031 0.000006)
(-0.004398 0.024627 0.000006)
(-0.008472 0.053093 0.000006)
(-0.011469 0.074052 0.000006)
(-0.012252 0.081713 0.000006)
(-0.012592 0.085132 0.000006)
(-0.013275 0.091106 0.000005)
(-0.013984 0.097485 0.000005)
(-0.014531 0.103223 0.000005)
(-0.014868 0.107926 0.000005)
(-0.015034 0.111852 0.000005)
(-0.015030 0.114986 0.000005)
(-0.014841 0.117224 0.000011)
(-0.014475 0.118538 0.000017)
(-0.013960 0.119066 0.000017)
(-0.013310 0.118884 0.000017)
(-0.012538 0.118055 0.000017)
(-0.011682 0.116840 0.000017)
(-0.010739 0.115124 0.000108)
(-0.009780 0.113747 0.000191)
(-0.008637 0.110297 0.000165)
(-0.007862 0.113159 0.000119)
(-0.006677 0.109714 0.000047)
(-0.005212 0.104351 -0.000056)
(-0.004202 0.109441 -0.000186)
(-0.002683 0.102229 -0.000584)
(-0.001120 0.086241 -0.000908)
(0.000059 0.072631 -0.000888)
(0.000894 0.060803 -0.000848)
(0.001579 0.053079 -0.000795)
(0.002166 0.048187 -0.000736)
(0.002657 0.043081 -0.000394)
(0.003250 0.040587 -0.000077)
(0.003689 0.037133 -0.000066)
(0.004130 0.033834 -0.000055)
(0.004652 0.031893 -0.000044)
(0.005196 0.029831 -0.000033)
(0.005886 0.028573 -0.000049)
(0.006439 0.026571 -0.000067)
(0.007230 0.025190 -0.000060)
(0.007649 0.022565 -0.000053)
(0.008099 0.019824 -0.000047)
(0.009784 0.019415 -0.000041)
(0.010258 0.016093 -0.000036)
(0.010240 0.012298 -0.000031)
(0.011004 0.010766 -0.000026)
(0.012906 0.009966 -0.000023)
(0.014306 0.008575 -0.000019)
(0.011167 0.005536 -0.000016)
(0.005695 0.003328 -0.000014)
(0.004078 0.037645 -0.000004)
(-0.000507 0.040463 -0.000004)
(0.000529 0.044587 -0.000004)
(0.002246 0.063133 -0.000004)
(0.002716 0.083559 -0.000004)
(0.003244 0.101037 -0.000004)
(0.004200 0.127101 -0.000004)
(0.004865 0.143785 -0.000004)
(0.005389 0.152732 -0.000004)
(0.007505 0.218684 -0.000004)
(0.008853 0.239308 -0.000004)
(0.004972 0.021163 -0.000004)
(0.034041 0.647612 -0.000002)
(0.141031 3.227129 -0.000000)
(-1.148972 -3.321501 -0.000000)
(-59.717137 -0.039642 -0.000000)
(-0.030085 -0.092593 -0.000000)
(-0.093015 0.240230 -0.000000)
(-1.317277 -5.522984 -0.000000)
(59.674936 0.050797 -0.000000)
(-0.042715 0.125210 -0.000000)
(-0.082221 -0.073610 -0.000000)
(-0.133504 -0.453537 -0.000000)
(-0.158187 -0.539537 -0.000000)
(-0.169932 -0.489380 0.000001)
(-0.194389 -0.469814 0.000003)
(-0.187193 -0.384373 0.000003)
(-0.125336 -0.225097 0.000003)
(-0.009938 -0.028126 0.000003)
(0.188622 0.262069 0.000003)
(0.343251 0.449850 0.000003)
(0.408428 0.478161 0.000003)
(0.432556 0.452036 0.000003)
(0.362786 0.336082 0.000003)
(0.253347 0.209803 0.000003)
(0.180787 0.134931 0.000003)
(0.127291 0.088835 0.000003)
(0.100434 0.065839 0.000003)
(0.108474 0.066399 0.000003)
(0.114616 0.061732 0.000003)
(0.109278 0.049988 0.000003)
(0.098808 0.038086 0.000003)
(0.106183 0.034505 0.000003)
(0.106051 0.028923 0.000003)
(0.081856 0.017454 0.000003)
(0.057990 0.008278 0.000003)
(0.035028 0.000462 0.000003)
(0.013613 -0.006528 0.000003)
(0.002203 -0.011491 0.000003)
(0.001940 -0.013812 0.000003)
(0.001758 -0.012501 0.000003)
(-0.009705 -0.007271 0.000003)
(-0.032174 0.001260 0.000003)
(-0.058125 0.011675 0.000003)
(-0.080038 0.022133 0.000003)
(-0.107030 0.036740 0.000003)
(-0.118002 0.047409 0.000003)
(-0.105061 0.049867 0.000003)
(-0.112631 0.063814 0.000003)
(-0.125541 0.081676 0.000003)
(-0.121146 0.089091 0.000003)
(-0.116494 0.090326 0.000003)
(-0.141003 0.114961 0.000003)
(-0.204777 0.177772 0.000003)
(-0.314128 0.293674 0.000003)
(-0.466421 0.468938 0.000003)
(-0.569588 0.614645 0.000003)
(-0.498569 0.572871 0.000003)
(-0.360121 0.471332 0.000003)
(-0.174133 0.239846 0.000003)
(0.055567 -0.134785 0.000003)
(0.193184 -0.412831 0.000003)
(0.253441 -0.626690 0.000003)
(0.256850 -0.781478 0.000003)
(0.225879 -0.841826 0.000001)
(0.193584 -0.835078 -0.000000)
(0.147458 -0.654005 -0.000000)
(0.080647 -0.351565 -0.000000)
(-59.660531 -0.128504 -0.000000)
(59.718695 -0.057637 -0.000000)
(0.068144 -0.127678 -0.000000)
(0.130173 0.073450 -0.000000)
(1.288573 -5.893564 -0.000000)
(1.110375 -3.139941 -0.000000)
(-0.146202 3.971456 -0.000000)
(-0.041297 1.065988 -0.000002)
(-0.004869 0.062769 -0.000004)
(-0.011148 0.314328 -0.000004)
(-0.012409 0.385615 -0.000004)
(-0.006065 0.187573 -0.000004)
(-0.005635 0.165720 -0.000004)
(-0.006366 0.196891 -0.000004)
(-0.005111 0.163336 -0.000004)
(-0.004643 0.137059 -0.000004)
(-0.004517 0.118253 -0.000004)
(-0.000677 0.085933 -0.000004)
(0.002908 0.068711 -0.000004)
(-0.011427 0.132585 0.000001)
)
;
    }
}
