/*--------------------------------*- C++ -*---------------------------------*\ 
| ========                 |                                                 | 
| \      /  F ield         | OpenFOAM: The Open Source CFD Toolbox           | 
|  \    /   O peration     | Version:  v1812                                 | 
|   \  /    A nd           | Web:      www.OpenFOAM.com                      | 
|    \/     M anipulation  |                                                 | 
\*--------------------------------------------------------------------------*/ 
FoamFile
{
    version     2.0;
    format      ascii;
    class       volVectorField;
    location    "/home/james/dafoam/myRuns/bezier_coanda_opt/0.00000000001/";
    object      sens_CL_shapey;
}
// * * * * * * * * * * * * * * * * * * * * * * * * * * * * * * * * * * * * * //

dimensions      [0 0 0 0 0 0 0];
internalField   uniform (0 0 0);
boundaryField
{
    allWalls
    {
        type  wall;
        value nonuniform List<vector>
198
(
(0.002409 0.003869 -0.000006)
(-0.003506 0.005713 -0.000002)
(-0.009316 0.006541 -0.000002)
(-0.011991 0.006794 -0.000002)
(-0.011606 0.007087 -0.000002)
(-0.010708 0.007436 -0.000001)
(-0.011040 0.009188 -0.000001)
(-0.012342 0.013425 0.000000)
(-0.010259 0.013898 0.000001)
(-0.008746 0.015452 0.000002)
(-0.009743 0.020419 0.000003)
(-0.009843 0.024005 0.000005)
(-0.010687 0.027851 0.000076)
(-0.010693 0.030059 0.000154)
(-0.010012 0.031962 0.000170)
(-0.009337 0.033935 0.000187)
(-0.009035 0.037770 0.000205)
(-0.008650 0.041689 0.000224)
(-0.008117 0.045941 0.000244)
(-0.007605 0.051279 0.000652)
(-0.006745 0.055839 0.001135)
(-0.005764 0.062038 0.001305)
(-0.004491 0.070470 0.001472)
(-0.002909 0.111382 0.001624)
(-0.000007 0.126228 0.001686)
(0.004629 0.115676 0.001185)
(0.009246 0.126841 0.000566)
(0.013389 0.128943 0.000341)
(0.017518 0.132937 0.000167)
(0.021495 0.136873 0.000041)
(0.025288 0.140535 -0.000046)
(0.028937 0.144319 -0.000030)
(0.032247 0.147365 0.000021)
(0.035018 0.148911 0.000021)
(0.037061 0.148467 0.000021)
(0.037959 0.144666 0.000021)
(0.037693 0.137826 0.000021)
(0.037636 0.130881 0.000020)
(0.036908 0.122704 0.000018)
(0.033965 0.110000 0.000018)
(0.030137 0.095317 0.000018)
(0.026267 0.081393 0.000018)
(0.022046 0.066860 0.000018)
(0.017699 0.052672 0.000019)
(0.014006 0.040907 0.000020)
(0.011092 0.032305 0.000020)
(0.008951 0.024633 0.000020)
(0.005735 0.015343 0.000020)
(0.003303 0.008845 0.000020)
(0.004047 0.016995 0.000009)
(-0.013095 0.113113 0.000020)
(-0.002907 0.022345 0.000020)
(-0.007121 0.055072 0.000020)
(-0.010020 0.078489 0.000020)
(-0.010611 0.085583 0.000020)
(-0.010738 0.087841 0.000019)
(-0.011198 0.092701 0.000018)
(-0.011759 0.098566 0.000018)
(-0.012195 0.103870 0.000018)
(-0.012440 0.108029 0.000018)
(-0.012545 0.111424 0.000018)
(-0.012519 0.114129 0.000018)
(-0.012867 0.115992 0.000020)
(-0.013079 0.117046 0.000021)
(-0.012653 0.117400 0.000021)
(-0.012116 0.117092 0.000021)
(-0.011489 0.116266 0.000021)
(-0.010776 0.114885 0.000021)
(-0.010038 0.113651 0.000118)
(-0.009124 0.110448 0.000210)
(-0.008613 0.113981 0.000192)
(-0.007653 0.110372 0.000156)
(-0.006324 0.102727 0.000097)
(-0.005527 0.105382 0.000008)
(-0.004589 0.108732 -0.000111)
(-0.003321 0.101131 -0.000511)
(-0.001906 0.085376 -0.000850)
(-0.000818 0.072257 -0.000845)
(0.000010 0.060097 -0.000818)
(0.000648 0.052687 -0.000778)
(0.001251 0.048216 -0.000729)
(0.001713 0.043229 -0.000397)
(0.002216 0.039529 -0.000083)
(0.002707 0.036991 -0.000069)
(0.003158 0.033916 -0.000055)
(0.003607 0.031577 -0.000041)
(0.004219 0.030031 -0.000028)
(0.005333 0.028363 -0.000045)
(0.006522 0.026630 -0.000066)
(0.007187 0.025209 -0.000058)
(0.007850 0.023161 -0.000051)
(0.008259 0.020380 -0.000044)
(0.009597 0.018952 -0.000038)
(0.010594 0.017122 -0.000033)
(0.010914 0.013543 -0.000028)
(0.010973 0.010992 -0.000023)
(0.012765 0.009983 -0.000019)
(0.015169 0.009154 -0.000015)
(0.012898 0.006075 -0.000012)
(0.007787 0.003768 -0.000010)
(0.002707 0.022093 -0.000001)
(0.000187 0.021852 -0.000001)
(0.000455 0.029416 -0.000001)
(0.001695 0.050254 -0.000001)
(0.002055 0.061167 -0.000001)
(0.002395 0.074339 -0.000001)
(0.003212 0.097476 -0.000001)
(0.004067 0.119384 -0.000001)
(0.004598 0.129580 -0.000001)
(0.005459 0.164029 -0.000001)
(0.006703 0.184679 -0.000001)
(0.004477 -0.012061 -0.000001)
(0.030161 0.483292 -0.000001)
(0.129530 2.770236 -0.000000)
(-1.095270 -3.192296 -0.000000)
(-59.722996 -0.074224 -0.000000)
(-0.011513 -0.150690 -0.000000)
(-0.068457 0.247443 -0.000000)
(-1.248562 -5.047044 -0.000000)
(59.683614 0.067419 -0.000000)
(-0.023939 0.228880 -0.000000)
(-0.042021 0.186714 -0.000000)
(-0.082473 -0.117628 -0.000000)
(-0.121634 -0.310653 -0.000000)
(-0.150337 -0.392218 0.000002)
(-0.176100 -0.411911 0.000004)
(-0.191724 -0.389157 0.000004)
(-0.158385 -0.287979 0.000004)
(-0.059038 -0.105470 0.000004)
(0.102874 0.134814 0.000004)
(0.270003 0.345526 0.000004)
(0.351609 0.404846 0.000004)
(0.377432 0.381887 0.000004)
(0.349915 0.320962 0.000004)
(0.260330 0.215440 0.000004)
(0.190505 0.140464 0.000004)
(0.138955 0.095108 0.000004)
(0.101466 0.064415 0.000004)
(0.101875 0.060459 0.000004)
(0.110746 0.058572 0.000004)
(0.104449 0.047178 0.000004)
(0.099413 0.037452 0.000004)
(0.105292 0.034058 0.000004)
(0.103945 0.028124 0.000004)
(0.086394 0.018436 0.000004)
(0.062651 0.009213 0.000004)
(0.040853 0.001792 0.000004)
(0.019059 -0.005090 0.000004)
(0.005623 -0.010219 0.000004)
(0.003170 -0.013088 0.000004)
(0.002648 -0.012584 0.000004)
(-0.006865 -0.008038 0.000004)
(-0.027550 0.000107 0.000004)
(-0.053742 0.010797 0.000004)
(-0.076759 0.021625 0.000004)
(-0.098141 0.033755 0.000004)
(-0.116445 0.047236 0.000004)
(-0.111439 0.052907 0.000004)
(-0.110536 0.062982 0.000004)
(-0.125926 0.082422 0.000004)
(-0.125181 0.090600 0.000004)
(-0.116940 0.088699 0.000004)
(-0.139105 0.111256 0.000004)
(-0.200615 0.169483 0.000004)
(-0.304578 0.273374 0.000004)
(-0.454688 0.444005 0.000004)
(-0.562229 0.602598 0.000004)
(-0.504368 0.592051 0.000004)
(-0.379937 0.516656 0.000004)
(-0.207282 0.305306 0.000004)
(0.037635 -0.106313 0.000004)
(0.203048 -0.443742 0.000004)
(0.270370 -0.676221 0.000004)
(0.276595 -0.839921 0.000004)
(0.236563 -0.871035 0.000002)
(0.193349 -0.831087 -0.000000)
(0.144508 -0.643562 -0.000000)
(0.078825 -0.344310 -0.000000)
(-59.663940 -0.125636 -0.000000)
(59.717040 -0.055729 -0.000000)
(0.067526 -0.124946 -0.000000)
(0.139251 0.055792 -0.000000)
(1.259438 -6.026075 -0.000000)
(1.074892 -3.214434 -0.000000)
(-0.145101 4.051366 -0.000000)
(-0.042004 1.116157 -0.000001)
(-0.005018 0.073680 -0.000001)
(-0.011187 0.318723 -0.000001)
(-0.012805 0.398399 -0.000001)
(-0.006340 0.199795 -0.000001)
(-0.005638 0.169901 -0.000001)
(-0.006465 0.201213 -0.000001)
(-0.005290 0.169759 -0.000001)
(-0.004825 0.144066 -0.000001)
(-0.004687 0.125376 -0.000001)
(-0.000994 0.091565 -0.000001)
(0.002601 0.072459 -0.000001)
(-0.011141 0.145603 0.000009)
)
;
    }
}
