/*--------------------------------*- C++ -*---------------------------------*\ 
| ========                 |                                                 | 
| \      /  F ield         | OpenFOAM: The Open Source CFD Toolbox           | 
|  \    /   O peration     | Version:  v1812                                 | 
|   \  /    A nd           | Web:      www.OpenFOAM.com                      | 
|    \/     M anipulation  |                                                 | 
\*--------------------------------------------------------------------------*/ 
FoamFile
{
    version     2.0;
    format      ascii;
    class       volVectorField;
    location    "/home/james/dafoam/myRuns/bezier_coanda_opt/0.00000000001/";
    object      sens_CL_shapey;
}
// * * * * * * * * * * * * * * * * * * * * * * * * * * * * * * * * * * * * * //

dimensions      [0 0 0 0 0 0 0];
internalField   uniform (0 0 0);
boundaryField
{
    allWalls
    {
        type  wall;
        value nonuniform List<vector>
198
(
(0.001853 0.002567 -0.000078)
(0.004338 0.008154 -0.000075)
(-0.004252 0.017599 -0.000072)
(-0.016163 0.016656 -0.000074)
(-0.016151 0.007862 -0.000076)
(-0.010261 -0.000904 -0.000078)
(-0.005535 -0.007131 -0.000080)
(-0.008630 -0.004008 -0.000081)
(-0.019382 0.010957 -0.000082)
(-0.021695 0.020086 -0.000083)
(-0.017682 0.021918 -0.000084)
(-0.016454 0.024212 -0.000084)
(-0.015597 0.025683 -0.000083)
(-0.016643 0.029644 0.000034)
(-0.016217 0.031593 0.000164)
(-0.012739 0.027422 0.000194)
(-0.014574 0.036392 0.000229)
(-0.018537 0.052146 0.000268)
(-0.016613 0.054787 0.000311)
(-0.013528 0.054718 0.000688)
(-0.011642 0.062274 0.001135)
(-0.006642 0.045703 0.001318)
(-0.007306 0.127955 0.001491)
(-0.005668 0.141991 0.001638)
(0.005348 0.095417 0.001687)
(0.008931 0.106004 0.001308)
(0.012785 0.088762 0.000804)
(0.012013 0.069825 0.000555)
(0.006665 0.029078 0.000366)
(0.003329 0.011454 0.000227)
(-0.002895 -0.013456 0.000130)
(-0.011268 -0.039818 0.000152)
(-0.018387 -0.057745 0.000215)
(-0.017349 -0.050093 0.000215)
(-0.011471 -0.028854 0.000215)
(-0.006215 -0.010084 0.000215)
(0.004820 0.019467 0.000215)
(0.026185 0.068927 0.000169)
(0.041575 0.099486 0.000123)
(0.041929 0.094852 0.000123)
(0.038299 0.083100 0.000123)
(0.033258 0.069599 0.000123)
(0.026723 0.054503 0.000123)
(0.021125 0.042414 0.000112)
(0.015849 0.031295 0.000101)
(0.011032 0.021678 0.000101)
(0.007384 0.014207 0.000101)
(0.006112 0.011596 0.000101)
(0.004206 0.011654 0.000101)
(-0.000171 -0.004169 0.000082)
(0.010784 -0.131828 0.000101)
(0.024709 0.250044 0.000101)
(0.017268 0.172326 0.000101)
(0.009327 0.100984 0.000101)
(0.008673 0.097433 0.000101)
(0.009064 0.106646 0.000112)
(0.008576 0.107535 0.000123)
(0.007817 0.105882 0.000123)
(0.007104 0.105396 0.000123)
(0.006386 0.105442 0.000123)
(0.005607 0.105151 0.000123)
(0.004787 0.104736 0.000123)
(0.003927 0.104147 0.000169)
(0.003032 0.103114 0.000215)
(0.002150 0.103239 0.000215)
(0.001244 0.100901 0.000215)
(0.000332 0.100810 0.000215)
(-0.000562 0.104780 0.000215)
(-0.001420 0.102236 0.000284)
(-0.002182 0.098738 0.000367)
(-0.002889 0.097766 0.000389)
(-0.003678 0.101282 0.000401)
(-0.004265 0.102293 0.000397)
(-0.004509 0.097173 0.000372)
(-0.004861 0.098073 0.000308)
(-0.004727 0.093531 -0.000146)
(-0.003965 0.081129 -0.000583)
(-0.003116 0.068663 -0.000624)
(-0.002359 0.059392 -0.000638)
(-0.001765 0.053789 -0.000632)
(-0.001191 0.048039 -0.000612)
(-0.000675 0.044367 -0.000477)
(-0.000188 0.040360 -0.000335)
(0.000284 0.037325 -0.000295)
(0.000698 0.034206 -0.000254)
(0.001175 0.032278 -0.000215)
(0.001645 0.031021 -0.000178)
(0.002109 0.028910 -0.000144)
(0.002657 0.028065 -0.000117)
(0.003364 0.027718 -0.000105)
(0.004069 0.026681 -0.000101)
(0.005044 0.025854 -0.000098)
(0.006018 0.024632 -0.000094)
(0.006623 0.021494 -0.000091)
(0.008038 0.020382 -0.000088)
(0.009886 0.020188 -0.000085)
(0.011097 0.016934 -0.000083)
(0.024331 0.020379 -0.000081)
(0.031769 0.019598 -0.000079)
(0.013396 0.007738 -0.000077)
(-0.001928 -0.004550 0.000062)
(-0.000791 0.010655 0.000062)
(-0.000208 0.012693 0.000062)
(0.000340 0.018039 0.000062)
(0.000781 0.023934 0.000062)
(0.001047 0.028601 0.000062)
(0.001288 0.032327 0.000062)
(0.001402 0.035450 0.000062)
(0.001466 0.037768 0.000062)
(0.001431 0.039343 0.000062)
(0.001334 0.035002 0.000062)
(0.001029 0.005926 0.000062)
(0.002206 0.010004 0.000045)
(0.007516 0.192196 0.000029)
(-0.137100 -0.376595 0.000029)
(-59.712811 -0.004609 0.000029)
(-0.002365 -0.005264 0.000029)
(0.001550 0.025490 0.000029)
(-0.141911 -0.522591 0.000029)
(59.701863 -0.020678 0.000029)
(-0.009796 -0.038240 0.000029)
(-0.011929 -0.040797 0.000029)
(-0.011798 -0.036560 0.000029)
(-0.016613 -0.044093 0.000022)
(-0.024020 -0.057792 0.000016)
(-0.030988 -0.067194 0.000017)
(-0.038481 -0.079376 0.000017)
(-0.043085 -0.082775 0.000017)
(-0.044539 -0.078313 0.000017)
(-0.042634 -0.069100 0.000017)
(-0.035843 -0.054369 0.000017)
(-0.024411 -0.036362 0.000017)
(-0.009437 -0.017244 0.000017)
(0.007026 0.000595 0.000017)
(0.022148 0.014543 0.000017)
(0.033917 0.023309 0.000017)
(0.040707 0.026346 0.000017)
(0.042561 0.024474 0.000017)
(0.042627 0.020888 0.000017)
(0.044248 0.018206 0.000017)
(0.046401 0.016327 0.000017)
(0.044726 0.013380 0.000017)
(0.043187 0.010746 0.000017)
(0.045918 0.009395 0.000017)
(0.045314 0.006949 0.000017)
(0.040344 0.003644 0.000017)
(0.034902 0.000767 0.000017)
(0.028309 -0.001926 0.000017)
(0.021789 -0.004303 0.000017)
(0.015905 -0.006210 0.000017)
(0.010816 -0.007172 0.000017)
(0.001719 -0.006028 0.000017)
(-0.012962 -0.002407 0.000017)
(-0.027709 0.003031 0.000017)
(-0.044969 0.011077 0.000017)
(-0.062779 0.020999 0.000017)
(-0.077247 0.031457 0.000017)
(-0.088255 0.041959 0.000017)
(-0.104151 0.058190 0.000017)
(-0.112631 0.073996 0.000017)
(-0.115795 0.088987 0.000017)
(-0.132212 0.110121 0.000017)
(-0.156439 0.136673 0.000017)
(-0.199656 0.184686 0.000017)
(-0.275979 0.268343 0.000017)
(-0.407419 0.422647 0.000017)
(-0.582458 0.652280 0.000017)
(-0.682671 0.827428 0.000017)
(-0.619271 0.823843 0.000017)
(-0.428895 0.630345 0.000017)
(-0.146106 0.183439 0.000017)
(0.137420 -0.373451 0.000017)
(0.322114 -0.836926 0.000017)
(0.385331 -1.139365 0.000023)
(0.346630 -1.238551 0.000029)
(0.258121 -1.054496 0.000029)
(0.167298 -0.725691 0.000029)
(0.094294 -0.440360 0.000029)
(-59.660205 -0.169527 0.000029)
(59.695484 -0.081479 0.000029)
(0.069423 -0.197697 0.000029)
(0.181412 -0.209075 0.000029)
(1.294087 -7.924865 0.000029)
(1.088646 -4.285520 0.000029)
(-0.133101 4.891646 0.000029)
(-0.044020 1.532870 0.000045)
(-0.015075 0.509132 0.000062)
(-0.014851 0.552851 0.000062)
(-0.013040 0.485231 0.000062)
(-0.009781 0.366316 0.000062)
(-0.008262 0.310720 0.000062)
(-0.007160 0.265898 0.000062)
(-0.006192 0.212614 0.000062)
(-0.005894 0.243072 0.000062)
(-0.003865 0.204159 0.000062)
(-0.008119 0.183101 0.000062)
(-0.015880 0.328226 0.000062)
(-0.011167 -0.040730 0.000082)
)
;
    }
}
