/*--------------------------------*- C++ -*---------------------------------*\ 
| ========                 |                                                 | 
| \      /  F ield         | OpenFOAM: The Open Source CFD Toolbox           | 
|  \    /   O peration     | Version:  v1812                                 | 
|   \  /    A nd           | Web:      www.OpenFOAM.com                      | 
|    \/     M anipulation  |                                                 | 
\*--------------------------------------------------------------------------*/ 
FoamFile
{
    version     2.0;
    format      ascii;
    class       volVectorField;
    location    "/home/james/dafoam/myRuns/bezier_coanda_opt/0.00000000001/";
    object      sens_CL_shapey;
}
// * * * * * * * * * * * * * * * * * * * * * * * * * * * * * * * * * * * * * //

dimensions      [0 0 0 0 0 0 0];
internalField   uniform (0 0 0);
boundaryField
{
    allWalls
    {
        type  wall;
        value nonuniform List<vector>
198
(
(-0.034389 -0.003815 -0.000092)
(-0.007557 -0.000352 -0.000093)
(0.004212 0.009616 -0.000094)
(-0.004898 0.018348 -0.000097)
(-0.015244 0.014038 -0.000099)
(-0.014159 0.004829 -0.000102)
(-0.009907 -0.002917 -0.000105)
(-0.010324 -0.005574 -0.000107)
(-0.013417 -0.001925 -0.000109)
(-0.020227 0.009533 -0.000111)
(-0.025339 0.021585 -0.000112)
(-0.026925 0.030677 -0.000113)
(-0.023676 0.031521 -0.000113)
(-0.018244 0.028839 -0.000014)
(-0.018189 0.032995 0.000097)
(-0.016173 0.032871 0.000124)
(-0.015309 0.036364 0.000156)
(-0.018548 0.050484 0.000193)
(-0.016500 0.052927 0.000233)
(-0.013119 0.049870 0.000717)
(-0.013585 0.064062 0.001269)
(-0.007337 0.041220 0.001441)
(-0.007210 0.161324 0.001598)
(-0.005908 0.164753 0.001720)
(0.006968 0.071738 0.001739)
(0.008029 0.077065 0.001350)
(0.007061 0.039273 0.000861)
(0.005045 0.026207 0.000631)
(-0.004645 -0.018681 0.000458)
(-0.016437 -0.058045 0.000334)
(-0.032100 -0.101704 0.000247)
(-0.038052 -0.112410 0.000244)
(-0.028210 -0.075692 0.000278)
(-0.019736 -0.043695 0.000280)
(-0.003569 0.000874 0.000282)
(0.030104 0.080669 0.000284)
(0.050311 0.121769 0.000287)
(0.048487 0.111227 0.000222)
(0.043860 0.097134 0.000156)
(0.038942 0.084862 0.000156)
(0.031643 0.068435 0.000156)
(0.025334 0.054750 0.000156)
(0.019810 0.043201 0.000156)
(0.015035 0.033393 0.000156)
(0.011319 0.025703 0.000141)
(0.008160 0.018965 0.000127)
(0.006082 0.014135 0.000127)
(0.004899 0.011819 0.000127)
(0.003688 0.012591 0.000127)
(0.000790 -0.001644 0.000127)
(-0.014797 -0.546002 0.000104)
(0.120116 0.571130 0.000127)
(0.062750 0.308144 0.000127)
(0.017075 0.095614 0.000127)
(0.016184 0.089808 0.000127)
(0.019880 0.111101 0.000127)
(0.018819 0.110434 0.000141)
(0.016717 0.104566 0.000156)
(0.015028 0.101272 0.000156)
(0.013626 0.100053 0.000156)
(0.012194 0.098905 0.000156)
(0.010699 0.097394 0.000156)
(0.009217 0.096126 0.000223)
(0.007776 0.095295 0.000290)
(0.006342 0.094489 0.000288)
(0.004908 0.093507 0.000286)
(0.003496 0.092754 0.000284)
(0.002119 0.091200 0.000282)
(0.000802 0.096049 0.000356)
(-0.000460 0.096319 0.000446)
(-0.001666 0.091173 0.000470)
(-0.002757 0.091674 0.000485)
(-0.003894 0.096829 0.000484)
(-0.005093 0.103459 0.000460)
(-0.005565 0.097169 0.000394)
(-0.006148 0.087518 -0.000030)
(-0.006406 0.078198 -0.000433)
(-0.005580 0.066003 -0.000473)
(-0.004972 0.059414 -0.000487)
(-0.004366 0.053157 -0.000481)
(-0.003756 0.047429 -0.000461)
(-0.001867 0.044208 -0.000459)
(0.000046 0.040135 -0.000445)
(0.000517 0.036462 -0.000394)
(0.000961 0.034342 -0.000344)
(0.001373 0.031955 -0.000296)
(0.001784 0.029554 -0.000250)
(0.002179 0.027753 -0.000207)
(0.001922 0.025956 -0.000153)
(0.001621 0.023701 -0.000119)
(0.002197 0.022493 -0.000115)
(0.002779 0.021631 -0.000111)
(0.003421 0.020651 -0.000108)
(0.004654 0.022776 -0.000105)
(0.003315 0.016189 -0.000102)
(0.003187 0.013606 -0.000099)
(0.014427 0.033799 -0.000097)
(0.035482 0.045189 -0.000095)
(0.073175 0.046232 -0.000093)
(0.025241 0.022416 -0.000091)
(-0.000903 -0.000347 0.000104)
(0.000031 0.015322 0.000080)
(0.000323 0.015189 0.000080)
(0.000650 0.019827 0.000080)
(0.000962 0.024987 0.000080)
(0.001143 0.028628 0.000080)
(0.001256 0.031748 0.000080)
(0.001322 0.034558 0.000080)
(0.001405 0.036507 0.000080)
(0.001352 0.036886 0.000080)
(0.001168 0.033494 0.000080)
(0.000818 0.012566 0.000080)
(0.001386 0.007968 0.000058)
(0.004223 0.130761 0.000037)
(-0.100221 -0.283969 0.000037)
(-59.707993 -0.004537 0.000037)
(-0.002684 -0.004553 0.000037)
(-0.000797 0.016851 0.000037)
(-0.103554 -0.386046 0.000037)
(59.699999 -0.015392 0.000037)
(-0.007259 -0.025941 0.000037)
(-0.008823 -0.029024 0.000037)
(-0.010673 -0.033240 0.000037)
(-0.015031 -0.040714 0.000029)
(-0.019337 -0.046362 0.000021)
(-0.024067 -0.051918 0.000021)
(-0.029788 -0.061712 0.000021)
(-0.033412 -0.064886 0.000021)
(-0.034346 -0.061201 0.000021)
(-0.032507 -0.053318 0.000021)
(-0.027643 -0.042213 0.000021)
(-0.020287 -0.029702 0.000021)
(-0.010888 -0.016814 0.000021)
(-0.000212 -0.004668 0.000021)
(0.010646 0.005520 0.000021)
(0.020477 0.013192 0.000021)
(0.027405 0.016972 0.000021)
(0.031515 0.017197 0.000021)
(0.034230 0.016027 0.000021)
(0.036433 0.014682 0.000021)
(0.038341 0.013588 0.000021)
(0.037698 0.011590 0.000021)
(0.037236 0.009566 0.000021)
(0.039231 0.008194 0.000021)
(0.038545 0.005996 0.000021)
(0.034906 0.003313 0.000021)
(0.030496 0.000896 0.000021)
(0.025068 -0.001361 0.000021)
(0.019896 -0.003381 0.000021)
(0.014639 -0.004886 0.000021)
(0.008934 -0.005472 0.000021)
(0.001748 -0.004605 0.000021)
(-0.011237 -0.001371 0.000021)
(-0.026313 0.003818 0.000021)
(-0.040845 0.010715 0.000021)
(-0.056856 0.019921 0.000021)
(-0.070830 0.030206 0.000021)
(-0.080877 0.040334 0.000021)
(-0.098154 0.056702 0.000021)
(-0.105884 0.071525 0.000021)
(-0.104655 0.082921 0.000021)
(-0.120523 0.103412 0.000021)
(-0.143665 0.128517 0.000021)
(-0.180595 0.169019 0.000021)
(-0.248625 0.243087 0.000021)
(-0.358379 0.367104 0.000021)
(-0.526287 0.593487 0.000021)
(-0.673938 0.850933 0.000021)
(-0.637516 0.896946 0.000021)
(-0.498143 0.794305 0.000021)
(-0.271043 0.430075 0.000021)
(0.053821 -0.226231 0.000021)
(0.293988 -0.799966 0.000021)
(0.386709 -1.139947 0.000029)
(0.366239 -1.303663 0.000037)
(0.272827 -1.117644 0.000037)
(0.159378 -0.744551 0.000037)
(0.085427 -0.482922 0.000037)
(-59.657341 -0.202668 0.000037)
(59.691566 -0.095148 0.000037)
(0.074066 -0.225883 0.000037)
(0.201281 -0.286715 0.000037)
(1.228067 -8.538626 0.000037)
(1.029184 -4.384104 0.000037)
(-0.102297 5.541026 0.000037)
(-0.026558 1.321648 0.000058)
(-0.004836 0.204952 0.000080)
(-0.013003 0.731814 0.000080)
(-0.009951 0.562848 0.000080)
(-0.006748 0.374471 0.000080)
(-0.005702 0.328024 0.000080)
(-0.005286 0.290404 0.000080)
(-0.004904 0.225954 0.000080)
(-0.003905 0.261340 0.000080)
(-0.001967 0.219493 0.000080)
(-0.007319 0.267185 0.000080)
(-0.009077 0.649047 0.000080)
(-0.085584 -0.413905 0.000080)
)
;
    }
}
