/*--------------------------------*- C++ -*---------------------------------*\ 
| ========                 |                                                 | 
| \      /  F ield         | OpenFOAM: The Open Source CFD Toolbox           | 
|  \    /   O peration     | Version:  v1812                                 | 
|   \  /    A nd           | Web:      www.OpenFOAM.com                      | 
|    \/     M anipulation  |                                                 | 
\*--------------------------------------------------------------------------*/ 
FoamFile
{
    version     2.0;
    format      ascii;
    class       volVectorField;
    location    "/home/james/dafoam/myRuns/bezier_coanda_opt/0.00000000001/";
    object      sens_CL_shapey;
}
// * * * * * * * * * * * * * * * * * * * * * * * * * * * * * * * * * * * * * //

dimensions      [0 0 0 0 0 0 0];
internalField   uniform (0 0 0);
boundaryField
{
    allWalls
    {
        type  wall;
        value nonuniform List<vector>
198
(
(-0.026176 -0.002124 -0.000099)
(-0.002908 0.001766 -0.000100)
(0.004593 0.013379 -0.000101)
(-0.006919 0.022197 -0.000103)
(-0.018524 0.016240 -0.000104)
(-0.016546 0.004826 -0.000106)
(-0.009685 -0.006271 -0.000107)
(-0.009524 -0.010296 -0.000109)
(-0.015860 -0.002943 -0.000110)
(-0.027240 0.016183 -0.000110)
(-0.028191 0.026757 -0.000110)
(-0.020366 0.026107 -0.000110)
(-0.017574 0.027055 -0.000109)
(-0.016095 0.028515 -0.000043)
(-0.017294 0.034284 0.000035)
(-0.014562 0.031916 0.000062)
(-0.013479 0.034557 0.000093)
(-0.019488 0.056009 0.000129)
(-0.017776 0.059003 0.000167)
(-0.013650 0.054496 0.000612)
(-0.013300 0.064297 0.001113)
(-0.006705 0.038286 0.001261)
(-0.008557 0.160463 0.001395)
(-0.007278 0.164470 0.001501)
(0.005896 0.075688 0.001524)
(0.006810 0.078034 0.001190)
(0.007656 0.044907 0.000765)
(0.004753 0.027705 0.000567)
(-0.010836 -0.045783 0.000420)
(-0.024299 -0.092642 0.000314)
(-0.039412 -0.134426 0.000239)
(-0.056709 -0.175416 0.000258)
(-0.061588 -0.176610 0.000309)
(-0.052890 -0.138617 0.000309)
(-0.040543 -0.092640 0.000309)
(-0.013797 -0.019385 0.000309)
(0.029876 0.082104 0.000309)
(0.058378 0.137541 0.000247)
(0.062866 0.138464 0.000185)
(0.058407 0.123411 0.000185)
(0.050140 0.102948 0.000185)
(0.040868 0.082671 0.000185)
(0.031729 0.063496 0.000185)
(0.023517 0.046859 0.000165)
(0.016859 0.033620 0.000144)
(0.010943 0.022181 0.000144)
(0.007243 0.013862 0.000144)
(0.007687 0.014522 0.000144)
(0.006352 0.017817 0.000144)
(-0.002084 -0.015764 0.000144)
(-0.002204 -0.425251 0.000121)
(0.088516 0.489036 0.000144)
(0.048937 0.276054 0.000144)
(0.015874 0.100333 0.000144)
(0.015028 0.095333 0.000144)
(0.017616 0.113741 0.000165)
(0.016687 0.113408 0.000185)
(0.014941 0.108384 0.000185)
(0.013492 0.105613 0.000185)
(0.012256 0.104721 0.000185)
(0.010971 0.103766 0.000185)
(0.009619 0.102399 0.000185)
(0.008251 0.101070 0.000247)
(0.006910 0.100237 0.000309)
(0.005558 0.099251 0.000309)
(0.004205 0.098250 0.000309)
(0.002862 0.096778 0.000309)
(0.001577 0.096895 0.000309)
(0.000349 0.100668 0.000377)
(-0.000847 0.099090 0.000458)
(-0.001969 0.095395 0.000476)
(-0.002979 0.094971 0.000482)
(-0.004064 0.099502 0.000469)
(-0.005166 0.106340 0.000432)
(-0.005482 0.099066 0.000351)
(-0.005895 0.089377 -0.000095)
(-0.005977 0.080056 -0.000511)
(-0.005137 0.067716 -0.000543)
(-0.004473 0.060332 -0.000548)
(-0.003851 0.054037 -0.000532)
(-0.003257 0.048504 -0.000503)
(-0.001575 0.044498 -0.000495)
(0.000055 0.041320 -0.000481)
(0.000537 0.037484 -0.000435)
(0.000992 0.035026 -0.000390)
(0.001409 0.032470 -0.000347)
(0.001826 0.029964 -0.000306)
(0.002276 0.028775 -0.000267)
(0.002174 0.027209 -0.000187)
(0.002008 0.024847 -0.000125)
(0.002689 0.024469 -0.000121)
(0.003284 0.023407 -0.000118)
(0.004310 0.023623 -0.000115)
(0.004467 0.020949 -0.000112)
(0.003823 0.015771 -0.000109)
(0.007483 0.021948 -0.000106)
(0.014494 0.032718 -0.000104)
(0.034281 0.038558 -0.000102)
(0.064692 0.039732 -0.000100)
(0.019557 0.017864 -0.000099)
(-0.004601 -0.013592 0.000121)
(-0.001006 0.018597 0.000098)
(-0.000521 0.013750 0.000098)
(0.000059 0.016652 0.000098)
(0.000587 0.024011 0.000098)
(0.000946 0.029494 0.000098)
(0.001190 0.034267 0.000098)
(0.001380 0.038536 0.000098)
(0.001506 0.041901 0.000098)
(0.001491 0.043678 0.000098)
(0.001420 0.043835 0.000098)
(0.001057 0.032474 0.000098)
(0.000246 0.008441 0.000071)
(-0.001778 0.046384 0.000043)
(-0.060841 -0.174038 0.000043)
(-59.707984 -0.004208 0.000043)
(-0.002160 -0.005352 0.000043)
(-0.003121 0.002119 0.000043)
(-0.061546 -0.218120 0.000043)
(59.701699 -0.012721 0.000043)
(-0.006775 -0.020366 0.000043)
(-0.008493 -0.024470 0.000043)
(-0.010158 -0.027698 0.000043)
(-0.012266 -0.030193 0.000044)
(-0.014325 -0.033116 0.000034)
(-0.016312 -0.035693 0.000023)
(-0.017814 -0.036989 0.000023)
(-0.018379 -0.035252 0.000023)
(-0.017967 -0.031735 0.000023)
(-0.016073 -0.026352 0.000023)
(-0.012546 -0.019501 0.000023)
(-0.007578 -0.011874 0.000023)
(-0.001646 -0.004443 0.000023)
(0.004846 0.002215 0.000023)
(0.011302 0.007473 0.000023)
(0.016765 0.010892 0.000023)
(0.021170 0.012838 0.000023)
(0.024786 0.013861 0.000023)
(0.027420 0.014046 0.000023)
(0.029809 0.013787 0.000023)
(0.030450 0.012493 0.000023)
(0.030811 0.010936 0.000023)
(0.033064 0.010057 0.000023)
(0.033282 0.008448 0.000023)
(0.030948 0.006234 0.000023)
(0.027702 0.004131 0.000023)
(0.023426 0.002088 0.000023)
(0.018652 0.000230 0.000023)
(0.014131 -0.001306 0.000023)
(0.009450 -0.002343 0.000023)
(0.005250 -0.002565 0.000023)
(-0.004254 -0.000883 0.000023)
(-0.019418 0.002928 0.000023)
(-0.031840 0.007783 0.000023)
(-0.046225 0.014815 0.000023)
(-0.061195 0.023543 0.000023)
(-0.073260 0.033198 0.000023)
(-0.082749 0.043145 0.000023)
(-0.097320 0.058445 0.000023)
(-0.104272 0.073132 0.000023)
(-0.107112 0.088314 0.000023)
(-0.123627 0.108878 0.000023)
(-0.146651 0.131868 0.000023)
(-0.188813 0.175053 0.000023)
(-0.265665 0.254215 0.000023)
(-0.392855 0.393686 0.000023)
(-0.576362 0.635079 0.000023)
(-0.721029 0.888262 0.000023)
(-0.661192 0.904788 0.000023)
(-0.500420 0.780287 0.000023)
(-0.252199 0.391705 0.000023)
(0.085384 -0.281121 0.000023)
(0.317348 -0.846173 0.000023)
(0.408440 -1.208331 0.000022)
(0.379122 -1.350583 0.000032)
(0.277074 -1.138988 0.000043)
(0.167104 -0.771722 0.000043)
(0.090280 -0.490815 0.000043)
(-59.656091 -0.203559 0.000043)
(59.691586 -0.096857 0.000043)
(0.077116 -0.230903 0.000043)
(0.205997 -0.280049 0.000043)
(1.315585 -8.824398 0.000043)
(1.098001 -4.420420 0.000043)
(-0.122821 5.732775 0.000043)
(-0.029551 1.258560 0.000071)
(-0.006284 0.233530 0.000098)
(-0.015965 0.768076 0.000098)
(-0.012080 0.583632 0.000098)
(-0.008166 0.386675 0.000098)
(-0.006939 0.338180 0.000098)
(-0.006330 0.297818 0.000098)
(-0.005596 0.228229 0.000098)
(-0.004858 0.269103 0.000098)
(-0.002849 0.233845 0.000098)
(-0.008424 0.247734 0.000098)
(-0.014260 0.564627 0.000098)
(-0.058407 -0.301265 0.000098)
)
;
    }
}
