/*--------------------------------*- C++ -*----------------------------------*\
  =========                 |
  \\      /  F ield         | OpenFOAM: The Open Source CFD Toolbox
   \\    /   O peration     | Website:  https://openfoam.org
    \\  /    A nd           | Version:  8
     \\/     M anipulation  |
\*---------------------------------------------------------------------------*/
FoamFile
{
    version     2.0;
    format      ascii;
    class       volScalarField;
    location    "2";
    object      nut;
}
// * * * * * * * * * * * * * * * * * * * * * * * * * * * * * * * * * * * * * //

dimensions      [0 2 -1 0 0 0 0];

internalField   nonuniform List<scalar> 
115200
(
0.000213363
0.000219954
0.000226102
0.000231866
0.000237304
0.000242471
0.000247422
0.000252197
0.000256814
0.000261247
0.000265435
0.000269335
0.000272952
0.000276301
0.000279392
0.00028224
0.000284854
0.000287246
0.000289424
0.000291397
0.000293171
0.000294751
0.000296139
0.000297335
0.000298334
0.000299127
0.000299699
0.000300037
0.000300159
0.000300185
0.000300109
0.000299938
0.000299675
0.000299326
0.000298891
0.000298374
0.000297775
0.000297098
0.000296342
0.00029551
0.000294602
0.00029362
0.000292564
0.000291436
0.000290236
0.000288966
0.000287625
0.000286214
0.000284735
0.000283187
0.000281571
0.000279888
0.000278138
0.000276322
0.000274438
0.000272489
0.000270473
0.000268392
0.000266244
0.000264031
0.000261751
0.000259404
0.000256991
0.00025451
0.000251961
0.000249344
0.000246657
0.0002439
0.000241072
0.000238171
0.000235196
0.000232145
0.000229017
0.00022581
0.000222521
0.000219147
0.000215687
0.000212137
0.000208491
0.000204746
0.000200896
0.000196937
0.000192861
0.000188662
0.000184332
0.000179861
0.000175238
0.000170452
0.000165486
0.000160325
0.000154948
0.000149333
0.000143455
0.000137295
0.000130854
0.000124201
0.000117593
0.000111653
0.00010736
0.00010519
0.00034438
0.00034269
0.000340467
0.000337796
0.000334817
0.000331744
0.000328926
0.00032692
0.000326521
0.000328433
0.000332105
0.000336089
0.000340039
0.00034395
0.000347829
0.000351685
0.000355525
0.000359358
0.000363194
0.000367039
0.000370905
0.000374802
0.000378742
0.000382737
0.000386799
0.000390914
0.000395076
0.000399293
0.000403542
0.000407712
0.000411815
0.000415855
0.000419834
0.000423753
0.000427615
0.000431421
0.000435171
0.000438868
0.000442511
0.000446101
0.000449638
0.000453123
0.000456557
0.000459938
0.000463268
0.000466547
0.000469774
0.000472951
0.000476075
0.000479149
0.000482172
0.000485143
0.000488062
0.000490931
0.000493748
0.000496513
0.000499227
0.000501889
0.0005045
0.000507058
0.000509565
0.000512019
0.000514421
0.000516771
0.000519068
0.000521312
0.000523504
0.000525643
0.00052773
0.000529764
0.000531745
0.000533674
0.000535551
0.000537376
0.000539151
0.000540876
0.000542554
0.000544186
0.000545774
0.000547309
0.000548792
0.000550222
0.000551601
0.00055293
0.000554209
0.000555439
0.000556622
0.00055776
0.000558854
0.000559904
0.000560911
0.000561875
0.000562794
0.000563664
0.000564475
0.000565212
0.000565847
0.000566343
0.000566673
0.000566844
0.000530564
0.000543276
0.000555956
0.000568618
0.000581264
0.000593891
0.000606492
0.000619046
0.000631517
0.000643849
0.000655983
0.000667885
0.000679556
0.000691005
0.000702242
0.000713276
0.000724115
0.000734765
0.000745235
0.000755528
0.00076565
0.000775602
0.000785386
0.000795
0.000804444
0.00081374
0.000822911
0.000831958
0.000840879
0.000849671
0.000858332
0.000866864
0.000875266
0.000883541
0.000891691
0.000899716
0.000907617
0.000915397
0.000923055
0.000930593
0.000938011
0.00094531
0.000952491
0.000959552
0.000966496
0.000973322
0.000980029
0.000986619
0.000993092
0.000999446
0.00100568
0.0010118
0.0010178
0.00102369
0.00102945
0.0010351
0.00104062
0.00104603
0.00105132
0.0010565
0.00106155
0.00106648
0.0010713
0.00107599
0.00108056
0.00108501
0.00108934
0.00109355
0.00109764
0.00110161
0.00110545
0.00110917
0.00111277
0.00111624
0.0011196
0.00112283
0.00112593
0.00112892
0.00113178
0.00113451
0.00113712
0.00113961
0.00114198
0.00114422
0.00114634
0.00114833
0.0011502
0.00115195
0.00115359
0.0011551
0.00115649
0.00115776
0.0011589
0.00115992
0.0011608
0.00116155
0.00116216
0.00116263
0.00116296
0.00116315
0.000868394
0.000890259
0.000911673
0.000932663
0.000953238
0.000973407
0.000993179
0.00101256
0.00103157
0.00105023
0.00106855
0.00108655
0.00110425
0.00112165
0.00113877
0.00115561
0.00117219
0.00118851
0.00120457
0.0012204
0.00123598
0.00125134
0.00126647
0.00128139
0.0012961
0.0013106
0.00132489
0.00133899
0.00135288
0.00136657
0.00138006
0.00139336
0.00140646
0.00141937
0.00143209
0.00144461
0.00145695
0.0014691
0.00148106
0.00149283
0.00150442
0.00151582
0.00152704
0.00153807
0.00154892
0.00155958
0.00157006
0.00158035
0.00159046
0.00160039
0.00161013
0.00161969
0.00162906
0.00163825
0.00164725
0.00165606
0.00166469
0.00167314
0.00168139
0.00168946
0.00169735
0.00170505
0.00171256
0.00171988
0.00172702
0.00173396
0.00174072
0.00174729
0.00175366
0.00175984
0.00176584
0.00177164
0.00177725
0.00178266
0.00178788
0.00179291
0.00179775
0.00180239
0.00180684
0.0018111
0.00181516
0.00181903
0.0018227
0.00182618
0.00182946
0.00183254
0.00183543
0.00183813
0.00184063
0.00184293
0.00184504
0.00184694
0.00184865
0.00185016
0.00185147
0.00185257
0.00185347
0.00185417
0.00185466
0.00185495
0.00126967
0.00129852
0.00132686
0.00135471
0.00138211
0.00140905
0.00143556
0.00146165
0.00148733
0.00151262
0.00153751
0.00156204
0.0015862
0.00161001
0.00163347
0.0016566
0.00167939
0.00170184
0.00172397
0.00174577
0.00176727
0.00178846
0.00180936
0.00182996
0.00185028
0.00187031
0.00189007
0.00190954
0.00192875
0.00194769
0.00196635
0.00198476
0.00200289
0.00202076
0.00203838
0.00205573
0.00207282
0.00208965
0.00210622
0.00212254
0.0021386
0.0021544
0.00216995
0.00218524
0.00220028
0.00221506
0.00222959
0.00224386
0.00225787
0.00227163
0.00228513
0.00229838
0.00231136
0.00232409
0.00233657
0.00234878
0.00236074
0.00237243
0.00238387
0.00239505
0.00240596
0.00241662
0.00242701
0.00243714
0.00244701
0.00245662
0.00246596
0.00247503
0.00248385
0.00249239
0.00250067
0.00250868
0.00251643
0.00252391
0.00253112
0.00253806
0.00254473
0.00255114
0.00255727
0.00256314
0.00256873
0.00257405
0.00257911
0.00258389
0.0025884
0.00259264
0.0025966
0.00260029
0.00260371
0.00260686
0.00260973
0.00261232
0.00261464
0.00261669
0.00261846
0.00261995
0.00262116
0.00262209
0.00262275
0.00262312
0.00171965
0.00175575
0.00179131
0.00182636
0.0018609
0.00189495
0.00192851
0.00196159
0.0019942
0.00202636
0.00205806
0.00208933
0.00212016
0.00215057
0.00218056
0.00221014
0.00223931
0.00226809
0.00229648
0.00232448
0.00235211
0.00237936
0.00240624
0.00243276
0.00245893
0.00248473
0.00251019
0.0025353
0.00256006
0.00258449
0.00260857
0.00263231
0.00265572
0.00267879
0.00270152
0.00272393
0.002746
0.00276773
0.00278914
0.00281022
0.00283096
0.00285138
0.00287146
0.00289122
0.00291064
0.00292974
0.0029485
0.00296694
0.00298504
0.00300281
0.00302025
0.00303736
0.00305414
0.00307058
0.00308669
0.00310246
0.0031179
0.003133
0.00314777
0.0031622
0.00317629
0.00319005
0.00320346
0.00321654
0.00322927
0.00324166
0.00325372
0.00326542
0.00327679
0.00328781
0.00329849
0.00330882
0.00331881
0.00332845
0.00333774
0.00334669
0.00335529
0.00336353
0.00337144
0.00337899
0.00338619
0.00339304
0.00339954
0.00340568
0.00341148
0.00341693
0.00342202
0.00342675
0.00343114
0.00343517
0.00343885
0.00344217
0.00344513
0.00344774
0.00344999
0.00345189
0.00345343
0.00345461
0.00345544
0.0034559
0.00221628
0.00225968
0.00230248
0.00234471
0.00238641
0.00242758
0.00246822
0.00250834
0.00254795
0.00258705
0.00262565
0.00266376
0.00270138
0.00273852
0.00277519
0.00281138
0.00284711
0.00288238
0.0029172
0.00295157
0.0029855
0.00301898
0.00305203
0.00308465
0.00311684
0.0031486
0.00317994
0.00321086
0.00324137
0.00327146
0.00330114
0.0033304
0.00335925
0.00338769
0.00341573
0.00344335
0.00347057
0.00349738
0.00352379
0.00354979
0.00357538
0.00360056
0.00362534
0.00364972
0.00367368
0.00369724
0.00372039
0.00374314
0.00376547
0.0037874
0.00380891
0.00383002
0.00385071
0.003871
0.00389087
0.00391033
0.00392937
0.003948
0.00396621
0.003984
0.00400138
0.00401834
0.00403488
0.004051
0.0040667
0.00408198
0.00409684
0.00411127
0.00412528
0.00413886
0.00415202
0.00416475
0.00417706
0.00418893
0.00420038
0.0042114
0.00422199
0.00423214
0.00424187
0.00425117
0.00426003
0.00426846
0.00427645
0.00428402
0.00429114
0.00429784
0.00430409
0.00430991
0.0043153
0.00432024
0.00432475
0.00432883
0.00433246
0.00433566
0.00433841
0.00434073
0.00434261
0.00434405
0.00434505
0.00434561
0.0027565
0.00280724
0.00285735
0.00290686
0.0029558
0.00300417
0.00305198
0.00309923
0.00314592
0.00319207
0.00323766
0.00328272
0.00332724
0.00337122
0.00341467
0.00345759
0.0035
0.00354188
0.00358324
0.0036241
0.00366444
0.00370428
0.00374362
0.00378246
0.0038208
0.00385864
0.00389599
0.00393285
0.00396922
0.0040051
0.00404049
0.0040754
0.00410983
0.00414376
0.00417722
0.00421019
0.00424268
0.00427468
0.0043062
0.00433724
0.0043678
0.00439787
0.00442745
0.00445656
0.00448517
0.0045133
0.00454095
0.00456811
0.00459478
0.00462096
0.00464665
0.00467185
0.00469656
0.00472078
0.00474451
0.00476774
0.00479047
0.00481271
0.00483446
0.0048557
0.00487644
0.00489669
0.00491643
0.00493568
0.00495441
0.00497265
0.00499038
0.0050076
0.00502432
0.00504053
0.00505622
0.00507141
0.00508609
0.00510026
0.00511391
0.00512706
0.00513968
0.0051518
0.00516339
0.00517448
0.00518504
0.00519509
0.00520462
0.00521363
0.00522212
0.00523009
0.00523754
0.00524447
0.00525088
0.00525677
0.00526214
0.00526698
0.0052713
0.0052751
0.00527838
0.00528113
0.00528335
0.00528506
0.00528624
0.00528689
0.00333847
0.00339665
0.00345415
0.00351102
0.00356728
0.00362294
0.00367799
0.00373245
0.00378631
0.00383957
0.00389224
0.00394432
0.00399581
0.00404671
0.00409703
0.00414676
0.00419592
0.00424449
0.00429249
0.00433991
0.00438676
0.00443304
0.00447875
0.00452389
0.00456847
0.00461248
0.00465593
0.00469881
0.00474114
0.0047829
0.0048241
0.00486474
0.00490482
0.00494435
0.00498331
0.00502171
0.00505956
0.00509684
0.00513356
0.00516973
0.00520533
0.00524037
0.00527484
0.00530875
0.0053421
0.00537488
0.0054071
0.00543875
0.00546983
0.00550034
0.00553028
0.00555965
0.00558844
0.00561666
0.00564431
0.00567138
0.00569787
0.00572379
0.00574912
0.00577387
0.00579805
0.00582163
0.00584464
0.00586705
0.00588888
0.00591012
0.00593078
0.00595084
0.00597031
0.00598919
0.00600747
0.00602516
0.00604225
0.00605875
0.00607465
0.00608995
0.00610466
0.00611876
0.00613226
0.00614516
0.00615746
0.00616915
0.00618024
0.00619073
0.00620061
0.00620988
0.00621855
0.00622661
0.00623406
0.00624091
0.00624715
0.00625278
0.0062578
0.00626221
0.00626601
0.00626921
0.00627179
0.00627376
0.00627513
0.00627588
0.00396106
0.00402675
0.00409173
0.00415603
0.00421969
0.00428269
0.00434505
0.00440678
0.00446786
0.0045283
0.0045881
0.00464726
0.00470578
0.00476365
0.00482089
0.00487749
0.00493345
0.00498877
0.00504346
0.00509751
0.00515092
0.00520369
0.00525583
0.00530734
0.00535821
0.00540845
0.00545805
0.00550702
0.00555536
0.00560307
0.00565014
0.00569657
0.00574237
0.00578754
0.00583207
0.00587597
0.00591923
0.00596185
0.00600383
0.00604517
0.00608588
0.00612594
0.00616536
0.00620414
0.00624227
0.00627976
0.0063166
0.00635279
0.00638833
0.00642322
0.00645746
0.00649104
0.00652397
0.00655624
0.00658786
0.00661881
0.00664911
0.00667874
0.00670771
0.00673601
0.00676364
0.00679061
0.00681691
0.00684254
0.0068675
0.00689178
0.00691539
0.00693833
0.00696059
0.00698217
0.00700307
0.00702328
0.00704282
0.00706168
0.00707985
0.00709734
0.00711414
0.00713025
0.00714568
0.00716042
0.00717447
0.00718783
0.0072005
0.00721248
0.00722376
0.00723436
0.00724425
0.00725346
0.00726197
0.00726979
0.00727691
0.00728334
0.00728907
0.0072941
0.00729844
0.00730208
0.00730503
0.00730727
0.00730883
0.00730968
0.00462342
0.00469669
0.00476921
0.00484101
0.00491211
0.00498252
0.00505224
0.00512128
0.00518963
0.00525729
0.00532426
0.00539054
0.00545613
0.00552102
0.00558522
0.00564872
0.00571153
0.00577364
0.00583505
0.00589576
0.00595577
0.00601508
0.00607369
0.0061316
0.0061888
0.00624531
0.00630111
0.0063562
0.00641059
0.00646427
0.00651725
0.00656952
0.00662108
0.00667193
0.00672207
0.00677149
0.0068202
0.0068682
0.00691548
0.00696205
0.00700789
0.00705301
0.00709741
0.00714109
0.00718404
0.00722627
0.00726777
0.00730853
0.00734857
0.00738787
0.00742644
0.00746427
0.00750136
0.00753772
0.00757333
0.0076082
0.00764232
0.0076757
0.00770832
0.0077402
0.00777133
0.00780171
0.00783133
0.00786019
0.0078883
0.00791565
0.00794224
0.00796807
0.00799313
0.00801743
0.00804097
0.00806374
0.00808574
0.00810697
0.00812743
0.00814712
0.00816603
0.00818417
0.00820154
0.00821813
0.00823395
0.00824899
0.00826325
0.00827673
0.00828943
0.00830135
0.0083125
0.00832285
0.00833243
0.00834123
0.00834924
0.00835647
0.00836292
0.00836858
0.00837346
0.00837755
0.00838086
0.00838339
0.00838513
0.00838609
0.00532492
0.00540583
0.00548595
0.00556529
0.00564389
0.00572175
0.00579887
0.00587526
0.00595092
0.00602583
0.00610001
0.00617344
0.00624613
0.00631807
0.00638925
0.00645969
0.00652936
0.00659828
0.00666644
0.00673384
0.00680048
0.00686634
0.00693145
0.00699578
0.00705934
0.00712213
0.00718415
0.00724539
0.00730585
0.00736554
0.00742444
0.00748257
0.00753991
0.00759646
0.00765222
0.0077072
0.00776139
0.00781478
0.00786738
0.00791918
0.00797019
0.00802039
0.00806979
0.00811839
0.00816618
0.00821317
0.00825934
0.0083047
0.00834925
0.00839298
0.00843589
0.00847799
0.00851926
0.00855971
0.00859934
0.00863813
0.0086761
0.00871324
0.00874954
0.00878501
0.00881965
0.00885344
0.0088864
0.00891851
0.00894978
0.00898021
0.00900979
0.00903852
0.0090664
0.00909344
0.00911961
0.00914494
0.00916941
0.00919303
0.00921578
0.00923768
0.00925872
0.0092789
0.00929821
0.00931667
0.00933425
0.00935098
0.00936684
0.00938183
0.00939595
0.00940921
0.00942159
0.00943311
0.00944376
0.00945354
0.00946244
0.00947048
0.00947765
0.00948394
0.00948936
0.00949391
0.00949759
0.00950039
0.00950233
0.00950339
0.00606507
0.00615369
0.00624144
0.00632838
0.00641452
0.00649987
0.00658443
0.00666821
0.0067512
0.0068334
0.00691481
0.00699541
0.00707522
0.00715422
0.00723242
0.0073098
0.00738636
0.00746211
0.00753703
0.00761113
0.0076844
0.00775684
0.00782844
0.00789921
0.00796914
0.00803823
0.00810647
0.00817387
0.00824041
0.00830611
0.00837095
0.00843494
0.00849807
0.00856033
0.00862173
0.00868227
0.00874194
0.00880074
0.00885866
0.00891571
0.00897188
0.00902717
0.00908158
0.0091351
0.00918774
0.00923949
0.00929035
0.00934031
0.00938937
0.00943754
0.00948481
0.00953117
0.00957663
0.00962118
0.00966482
0.00970755
0.00974937
0.00979027
0.00983026
0.00986932
0.00990746
0.00994468
0.00998097
0.0100163
0.0100508
0.0100843
0.0101169
0.0101485
0.0101792
0.010209
0.0102378
0.0102657
0.0102926
0.0103186
0.0103437
0.0103678
0.0103909
0.0104132
0.0104344
0.0104547
0.0104741
0.0104925
0.01051
0.0105265
0.010542
0.0105566
0.0105702
0.0105829
0.0105946
0.0106054
0.0106152
0.010624
0.0106319
0.0106389
0.0106448
0.0106498
0.0106539
0.010657
0.0106591
0.0106602
0.00684353
0.00693989
0.00703533
0.00712991
0.00722362
0.0073165
0.00740853
0.00749972
0.00759007
0.00767958
0.00776824
0.00785604
0.00794298
0.00802906
0.00811427
0.00819861
0.00828207
0.00836465
0.00844634
0.00852715
0.00860706
0.00868607
0.00876418
0.00884139
0.00891768
0.00899307
0.00906754
0.00914109
0.00921372
0.00928543
0.0093562
0.00942605
0.00949496
0.00956294
0.00962998
0.00969607
0.00976122
0.00982541
0.00988866
0.00995095
0.0100123
0.0100727
0.0101321
0.0101905
0.010248
0.0103045
0.01036
0.0104146
0.0104682
0.0105208
0.0105724
0.010623
0.0106727
0.0107213
0.010769
0.0108156
0.0108613
0.0109059
0.0109496
0.0109922
0.0110339
0.0110745
0.0111142
0.0111528
0.0111904
0.0112269
0.0112625
0.011297
0.0113306
0.0113631
0.0113945
0.011425
0.0114544
0.0114828
0.0115101
0.0115364
0.0115617
0.011586
0.0116092
0.0116313
0.0116525
0.0116726
0.0116916
0.0117096
0.0117266
0.0117425
0.0117574
0.0117712
0.011784
0.0117958
0.0118065
0.0118161
0.0118247
0.0118323
0.0118388
0.0118442
0.0118486
0.011852
0.0118543
0.0118556
0.00766002
0.00776417
0.00786735
0.00796959
0.00807092
0.00817135
0.00827088
0.00836951
0.00846724
0.00856407
0.00866
0.00875501
0.0088491
0.00894226
0.0090345
0.0091258
0.00921616
0.00930557
0.00939404
0.00948154
0.00956809
0.00965367
0.00973828
0.00982192
0.00990458
0.00998626
0.0100669
0.0101466
0.0102254
0.0103031
0.0103798
0.0104555
0.0105301
0.0106038
0.0106765
0.0107481
0.0108187
0.0108883
0.0109569
0.0110244
0.0110909
0.0111563
0.0112207
0.0112841
0.0113464
0.0114076
0.0114678
0.011527
0.0115851
0.0116421
0.011698
0.0117529
0.0118067
0.0118594
0.0119111
0.0119617
0.0120112
0.0120596
0.0121069
0.0121531
0.0121983
0.0122423
0.0122852
0.0123271
0.0123678
0.0124075
0.012446
0.0124834
0.0125198
0.012555
0.0125891
0.0126221
0.0126539
0.0126847
0.0127143
0.0127428
0.0127702
0.0127965
0.0128217
0.0128457
0.0128686
0.0128903
0.012911
0.0129305
0.0129489
0.0129661
0.0129822
0.0129972
0.0130111
0.0130238
0.0130354
0.0130458
0.0130552
0.0130633
0.0130704
0.0130763
0.0130811
0.0130847
0.0130872
0.0130886
0.00851434
0.00862633
0.00873727
0.00884722
0.0089562
0.00906421
0.00917126
0.00927735
0.00938248
0.00948665
0.00958985
0.00969208
0.00979332
0.00989358
0.00999284
0.0100911
0.0101884
0.0102846
0.0103798
0.010474
0.0105672
0.0106594
0.0107505
0.0108405
0.0109295
0.0110175
0.0111044
0.0111902
0.011275
0.0113587
0.0114413
0.0115228
0.0116033
0.0116826
0.0117609
0.011838
0.0119141
0.0119891
0.0120629
0.0121356
0.0122072
0.0122777
0.0123471
0.0124154
0.0124825
0.0125485
0.0126133
0.012677
0.0127396
0.012801
0.0128612
0.0129203
0.0129783
0.0130351
0.0130907
0.0131452
0.0131985
0.0132506
0.0133016
0.0133514
0.0134
0.0134474
0.0134937
0.0135387
0.0135826
0.0136253
0.0136668
0.0137071
0.0137462
0.0137841
0.0138208
0.0138564
0.0138907
0.0139238
0.0139557
0.0139864
0.0140159
0.0140442
0.0140712
0.0140971
0.0141217
0.0141452
0.0141674
0.0141884
0.0142082
0.0142268
0.0142441
0.0142602
0.0142751
0.0142888
0.0143013
0.0143126
0.0143226
0.0143314
0.014339
0.0143453
0.0143505
0.0143544
0.0143571
0.0143586
0.00940637
0.00952623
0.00964497
0.00976266
0.0098793
0.00999492
0.0101095
0.0102231
0.0103356
0.0104471
0.0105576
0.0106671
0.0107755
0.0108828
0.0109891
0.0110943
0.0111985
0.0113016
0.0114035
0.0115044
0.0116042
0.0117029
0.0118005
0.011897
0.0119923
0.0120865
0.0121796
0.0122715
0.0123623
0.012452
0.0125405
0.0126278
0.012714
0.012799
0.0128829
0.0129655
0.013047
0.0131273
0.0132064
0.0132843
0.0133611
0.0134366
0.0135109
0.013584
0.0136559
0.0137266
0.0137961
0.0138643
0.0139313
0.0139971
0.0140616
0.0141249
0.014187
0.0142479
0.0143074
0.0143658
0.0144229
0.0144787
0.0145333
0.0145866
0.0146387
0.0146895
0.014739
0.0147872
0.0148342
0.0148799
0.0149244
0.0149675
0.0150094
0.01505
0.0150893
0.0151273
0.0151641
0.0151995
0.0152337
0.0152666
0.0152981
0.0153284
0.0153574
0.0153851
0.0154115
0.0154365
0.0154603
0.0154828
0.015504
0.0155239
0.0155424
0.0155597
0.0155756
0.0155903
0.0156036
0.0156157
0.0156264
0.0156358
0.0156439
0.0156507
0.0156562
0.0156604
0.0156633
0.0156649
0.010336
0.0104638
0.0105903
0.0107158
0.0108401
0.0109634
0.0110855
0.0112066
0.0113265
0.0114454
0.0115632
0.0116799
0.0117954
0.0119099
0.0120232
0.0121353
0.0122464
0.0123563
0.012465
0.0125726
0.012679
0.0127842
0.0128882
0.0129911
0.0130927
0.0131932
0.0132924
0.0133904
0.0134873
0.0135828
0.0136772
0.0137703
0.0138622
0.0139528
0.0140422
0.0141304
0.0142172
0.0143029
0.0143872
0.0144703
0.0145521
0.0146326
0.0147118
0.0147898
0.0148664
0.0149417
0.0150158
0.0150885
0.01516
0.0152301
0.0152989
0.0153664
0.0154325
0.0154974
0.0155609
0.0156231
0.0156839
0.0157434
0.0158016
0.0158584
0.0159139
0.015968
0.0160208
0.0160722
0.0161223
0.016171
0.0162183
0.0162643
0.0163089
0.0163522
0.0163941
0.0164346
0.0164737
0.0165115
0.0165479
0.0165829
0.0166165
0.0166488
0.0166797
0.0167092
0.0167373
0.016764
0.0167893
0.0168133
0.0168358
0.016857
0.0168767
0.0168951
0.0169121
0.0169277
0.0169419
0.0169548
0.0169662
0.0169762
0.0169848
0.0169921
0.0169979
0.0170024
0.0170055
0.0170071
0.0113032
0.0114389
0.0115733
0.0117065
0.0118386
0.0119695
0.0120992
0.0122278
0.0123552
0.0124814
0.0126065
0.0127304
0.0128531
0.0129746
0.0130949
0.013214
0.0133319
0.0134486
0.0135641
0.0136783
0.0137913
0.013903
0.0140135
0.0141227
0.0142306
0.0143373
0.0144426
0.0145467
0.0146495
0.014751
0.0148512
0.0149501
0.0150476
0.0151439
0.0152388
0.0153324
0.0154246
0.0155155
0.015605
0.0156932
0.01578
0.0158655
0.0159496
0.0160323
0.0161137
0.0161937
0.0162723
0.0163495
0.0164253
0.0164997
0.0165727
0.0166444
0.0167146
0.0167834
0.0168508
0.0169168
0.0169813
0.0170445
0.0171062
0.0171665
0.0172254
0.0172828
0.0173388
0.0173933
0.0174465
0.0174981
0.0175484
0.0175971
0.0176445
0.0176904
0.0177348
0.0177778
0.0178193
0.0178593
0.0178979
0.0179351
0.0179707
0.0180049
0.0180377
0.0180689
0.0180987
0.0181271
0.0181539
0.0181793
0.0182032
0.0182257
0.0182467
0.0182661
0.0182842
0.0183007
0.0183158
0.0183293
0.0183415
0.0183521
0.0183612
0.0183689
0.0183751
0.0183798
0.0183831
0.0183848
0.0123079
0.0124515
0.0125938
0.0127348
0.0128746
0.0130132
0.0131505
0.0132865
0.0134214
0.013555
0.0136873
0.0138184
0.0139483
0.0140769
0.0142042
0.0143303
0.014455
0.0145785
0.0147006
0.0148215
0.014941
0.0150592
0.0151761
0.0152917
0.0154059
0.0155187
0.0156302
0.0157403
0.015849
0.0159564
0.0160624
0.016167
0.0162702
0.0163719
0.0164723
0.0165713
0.0166688
0.016765
0.0168597
0.0169529
0.0170448
0.0171351
0.0172241
0.0173116
0.0173976
0.0174821
0.0175652
0.0176469
0.017727
0.0178057
0.0178829
0.0179586
0.0180329
0.0181056
0.0181769
0.0182466
0.0183148
0.0183816
0.0184468
0.0185105
0.0185728
0.0186335
0.0186926
0.0187503
0.0188064
0.018861
0.0189141
0.0189656
0.0190157
0.0190641
0.0191111
0.0191565
0.0192003
0.0192427
0.0192834
0.0193227
0.0193604
0.0193965
0.0194311
0.0194641
0.0194956
0.0195255
0.0195539
0.0195807
0.0196059
0.0196296
0.0196518
0.0196724
0.0196914
0.0197088
0.0197247
0.0197391
0.0197519
0.0197631
0.0197727
0.0197808
0.0197874
0.0197923
0.0197958
0.0197976
0.01335
0.0135016
0.0136518
0.0138007
0.0139482
0.0140944
0.0142393
0.0143829
0.0145251
0.0146661
0.0148057
0.0149441
0.0150811
0.0152167
0.015351
0.015484
0.0156156
0.0157458
0.0158746
0.0160021
0.0161282
0.0162528
0.0163761
0.0164979
0.0166183
0.0167373
0.0168549
0.016971
0.0170856
0.0171988
0.0173105
0.0174208
0.0175296
0.0176369
0.0177427
0.017847
0.0179498
0.0180512
0.018151
0.0182493
0.018346
0.0184413
0.018535
0.0186272
0.0187179
0.018807
0.0188945
0.0189805
0.019065
0.0191479
0.0192292
0.019309
0.0193872
0.0194638
0.0195389
0.0196123
0.0196842
0.0197545
0.0198232
0.0198903
0.0199558
0.0200198
0.0200821
0.0201428
0.0202019
0.0202594
0.0203153
0.0203696
0.0204222
0.0204733
0.0205227
0.0205705
0.0206166
0.0206612
0.0207041
0.0207454
0.0207851
0.0208231
0.0208595
0.0208943
0.0209274
0.0209589
0.0209887
0.021017
0.0210435
0.0210685
0.0210918
0.0211134
0.0211334
0.0211518
0.0211685
0.0211836
0.0211971
0.0212089
0.021219
0.0212275
0.0212344
0.0212396
0.0212432
0.0212451
0.0144296
0.0145892
0.0147473
0.014904
0.0150593
0.0152131
0.0153656
0.0155167
0.0156664
0.0158147
0.0159616
0.0161071
0.0162513
0.016394
0.0165352
0.0166751
0.0168135
0.0169504
0.0170859
0.01722
0.0173525
0.0174836
0.0176132
0.0177413
0.0178679
0.017993
0.0181166
0.0182386
0.0183591
0.0184781
0.0185956
0.0187114
0.0188258
0.0189385
0.0190497
0.0191594
0.0192674
0.0193739
0.0194788
0.019582
0.0196837
0.0197838
0.0198822
0.0199791
0.0200743
0.0201679
0.0202599
0.0203502
0.0204389
0.020526
0.0206114
0.0206952
0.0207773
0.0208577
0.0209365
0.0210137
0.0210891
0.0211629
0.0212351
0.0213055
0.0213743
0.0214414
0.0215068
0.0215706
0.0216326
0.0216929
0.0217516
0.0218086
0.0218638
0.0219174
0.0219692
0.0220194
0.0220679
0.0221146
0.0221596
0.022203
0.0222446
0.0222845
0.0223227
0.0223591
0.0223939
0.0224269
0.0224582
0.0224878
0.0225157
0.0225419
0.0225663
0.022589
0.02261
0.0226292
0.0226468
0.0226626
0.0226767
0.022689
0.0226997
0.0227086
0.0227158
0.0227212
0.022725
0.022727
0.0155466
0.0157142
0.0158802
0.0160448
0.0162078
0.0163693
0.0165294
0.016688
0.0168451
0.0170007
0.0171549
0.0173076
0.0174588
0.0176085
0.0177568
0.0179035
0.0180486
0.0181923
0.0183344
0.018475
0.018614
0.0187515
0.0188874
0.0190217
0.0191545
0.0192856
0.0194152
0.0195431
0.0196695
0.0197942
0.0199173
0.0200387
0.0201586
0.0202767
0.0203933
0.0205082
0.0206214
0.0207329
0.0208428
0.020951
0.0210575
0.0211624
0.0212655
0.0213669
0.0214667
0.0215647
0.021661
0.0217557
0.0218486
0.0219397
0.0220292
0.0221169
0.0222029
0.0222871
0.0223696
0.0224504
0.0225294
0.0226066
0.0226821
0.0227559
0.0228279
0.0228981
0.0229666
0.0230333
0.0230982
0.0231614
0.0232227
0.0232823
0.0233402
0.0233962
0.0234505
0.023503
0.0235536
0.0236025
0.0236497
0.023695
0.0237385
0.0237802
0.0238202
0.0238583
0.0238947
0.0239292
0.023962
0.0239929
0.0240221
0.0240494
0.0240749
0.0240987
0.0241206
0.0241407
0.0241591
0.0241756
0.0241903
0.0242032
0.0242143
0.0242236
0.0242311
0.0242368
0.0242407
0.0242428
0.016701
0.0168766
0.0170506
0.0172229
0.0173937
0.0175629
0.0177305
0.0178966
0.0180611
0.0182241
0.0183855
0.0185454
0.0187036
0.0188604
0.0190155
0.019169
0.0193209
0.0194713
0.01962
0.0197671
0.0199125
0.0200563
0.0201985
0.020339
0.0204778
0.020615
0.0207505
0.0208843
0.0210164
0.0211468
0.0212755
0.0214025
0.0215277
0.0216513
0.0217731
0.0218932
0.0220115
0.0221281
0.0222429
0.022356
0.0224673
0.0225768
0.0226846
0.0227906
0.0228948
0.0229972
0.0230978
0.0231966
0.0232937
0.0233889
0.0234823
0.0235739
0.0236637
0.0237517
0.0238378
0.0239221
0.0240046
0.0240853
0.0241641
0.0242411
0.0243163
0.0243896
0.024461
0.0245306
0.0245984
0.0246643
0.0247284
0.0247906
0.0248509
0.0249094
0.024966
0.0250208
0.0250737
0.0251247
0.0251738
0.0252211
0.0252665
0.02531
0.0253517
0.0253915
0.0254294
0.0254654
0.0254996
0.0255318
0.0255622
0.0255907
0.0256174
0.0256421
0.025665
0.025686
0.0257051
0.0257223
0.0257376
0.0257511
0.0257626
0.0257723
0.0257801
0.025786
0.02579
0.0257922
0.0178927
0.0180763
0.0182582
0.0184384
0.0186169
0.0187938
0.0189689
0.0191425
0.0193144
0.0194847
0.0196533
0.0198203
0.0199856
0.0201493
0.0203113
0.0204716
0.0206303
0.0207872
0.0209425
0.021096
0.0212478
0.0213979
0.0215463
0.0216929
0.0218378
0.0219809
0.0221223
0.0222619
0.0223997
0.0225357
0.02267
0.0228024
0.0229331
0.0230619
0.0231889
0.0233141
0.0234375
0.0235591
0.0236788
0.0237967
0.0239127
0.0240269
0.0241392
0.0242497
0.0243582
0.024465
0.0245698
0.0246728
0.0247739
0.0248731
0.0249704
0.0250659
0.0251594
0.025251
0.0253408
0.0254286
0.0255145
0.0255985
0.0256806
0.0257608
0.025839
0.0259154
0.0259898
0.0260623
0.0261328
0.0262014
0.0262681
0.0263329
0.0263957
0.0264565
0.0265155
0.0265724
0.0266275
0.0266806
0.0267317
0.0267809
0.0268282
0.0268735
0.0269168
0.0269582
0.0269976
0.0270351
0.0270706
0.0271042
0.0271358
0.0271654
0.0271931
0.0272189
0.0272426
0.0272644
0.0272843
0.0273022
0.0273181
0.0273321
0.0273441
0.0273541
0.0273622
0.0273683
0.0273725
0.0273747
0.0191217
0.0193134
0.0195032
0.0196912
0.0198774
0.0200618
0.0202446
0.0204256
0.0206048
0.0207824
0.0209582
0.0211323
0.0213046
0.0214752
0.021644
0.0218111
0.0219764
0.0221399
0.0223017
0.0224616
0.0226198
0.0227761
0.0229306
0.0230833
0.0232342
0.0233832
0.0235304
0.0236757
0.0238192
0.0239608
0.0241005
0.0242383
0.0243743
0.0245084
0.0246406
0.0247708
0.0248992
0.0250256
0.0251502
0.0252728
0.0253935
0.0255122
0.025629
0.0257439
0.0258568
0.0259678
0.0260768
0.0261839
0.026289
0.0263921
0.0264933
0.0265924
0.0266897
0.0267849
0.0268781
0.0269694
0.0270587
0.027146
0.0272313
0.0273146
0.0273959
0.0274752
0.0275524
0.0276277
0.027701
0.0277723
0.0278415
0.0279088
0.027974
0.0280372
0.0280984
0.0281576
0.0282147
0.0282698
0.0283229
0.028374
0.028423
0.0284701
0.028515
0.028558
0.0285989
0.0286378
0.0286747
0.0287095
0.0287423
0.028773
0.0288018
0.0288285
0.0288531
0.0288757
0.0288963
0.0289148
0.0289313
0.0289458
0.0289583
0.0289687
0.028977
0.0289833
0.0289876
0.0289899
0.0203879
0.0205876
0.0207853
0.020981
0.021175
0.021367
0.0215573
0.0217457
0.0219323
0.022117
0.0223
0.0224811
0.0226604
0.0228379
0.0230135
0.0231873
0.0233592
0.0235292
0.0236974
0.0238637
0.0240281
0.0241906
0.0243512
0.0245099
0.0246667
0.0248216
0.0249745
0.0251255
0.0252745
0.0254216
0.0255668
0.0257099
0.0258511
0.0259904
0.0261276
0.0262629
0.0263961
0.0265274
0.0266567
0.026784
0.0269092
0.0270325
0.0271537
0.0272729
0.0273901
0.0275052
0.0276183
0.0277294
0.0278384
0.0279454
0.0280503
0.0281532
0.028254
0.0283528
0.0284495
0.0285441
0.0286367
0.0287272
0.0288156
0.028902
0.0289862
0.0290684
0.0291486
0.0292266
0.0293025
0.0293764
0.0294482
0.0295178
0.0295854
0.0296509
0.0297143
0.0297756
0.0298348
0.0298919
0.0299469
0.0299998
0.0300506
0.0300993
0.0301459
0.0301904
0.0302327
0.030273
0.0303112
0.0303472
0.0303812
0.030413
0.0304427
0.0304703
0.0304958
0.0305192
0.0305405
0.0305597
0.0305768
0.0305917
0.0306046
0.0306153
0.0306239
0.0306305
0.0306349
0.0306372
0.0216912
0.0218988
0.0221044
0.0223079
0.0225095
0.0227091
0.0229068
0.0231026
0.0232965
0.0234884
0.0236785
0.0238666
0.0240528
0.0242371
0.0244195
0.0245999
0.0247783
0.0249548
0.0251294
0.025302
0.0254726
0.0256412
0.0258078
0.0259724
0.0261351
0.0262957
0.0264543
0.0266109
0.0267654
0.0269179
0.0270684
0.0272168
0.0273632
0.0275075
0.0276497
0.0277899
0.027928
0.028064
0.028198
0.0283298
0.0284596
0.0285872
0.0287128
0.0288362
0.0289576
0.0290768
0.0291939
0.0293089
0.0294218
0.0295326
0.0296412
0.0297477
0.029852
0.0299542
0.0300543
0.0301522
0.030248
0.0303417
0.0304332
0.0305225
0.0306097
0.0306947
0.0307776
0.0308583
0.0309368
0.0310132
0.0310874
0.0311595
0.0312294
0.0312971
0.0313626
0.031426
0.0314872
0.0315462
0.0316031
0.0316578
0.0317103
0.0317606
0.0318087
0.0318547
0.0318985
0.0319401
0.0319795
0.0320168
0.0320518
0.0320847
0.0321154
0.0321439
0.0321703
0.0321944
0.0322164
0.0322362
0.0322538
0.0322692
0.0322824
0.0322935
0.0323024
0.0323091
0.0323136