/*--------------------------------*- C++ -*----------------------------------*\
  =========                 |
  \\      /  F ield         | OpenFOAM: The Open Source CFD Toolbox
   \\    /   O peration     | Website:  https://openfoam.org
    \\  /    A nd           | Version:  8
     \\/     M anipulation  |
\*---------------------------------------------------------------------------*/
FoamFile
{
    version     2.0;
    format      ascii;
    class       volScalarField;
    location    "2";
    object      nut;
}
// * * * * * * * * * * * * * * * * * * * * * * * * * * * * * * * * * * * * * //

dimensions      [0 2 -1 0 0 0 0];

internalField   nonuniform List<scalar> 
262620
(
0.139989
0.139966
0.139943
0.13992
0.139898
0.139876
0.139853
0.139831
0.13981
0.139788
0.139766
0.139745
0.139724
0.139703
0.139682
0.139662
0.139641
0.139621
0.139601
0.139582
0.139562
0.139543
0.139524
0.139505
0.139486
0.139468
0.13945
0.139432
0.139414
0.139396
0.139379
0.139362
0.139345
0.139328
0.139312
0.139296
0.13928
0.139264
0.139248
0.139233
0.139218
0.139203
0.139188
0.139174
0.139159
0.139145
0.139131
0.139118
0.139104
0.139091
0.139078
0.139065
0.139052
0.13904
0.139028
0.139016
0.139004
0.138992
0.13898
0.138969
0.138958
0.138947
0.138936
0.138925
0.138915
0.138904
0.138894
0.138884
0.138874
0.138865
0.138855
0.138846
0.138837
0.138828
0.138819
0.13881
0.138801
0.138793
0.138784
0.138776
0.138768
0.13876
0.138752
0.138745
0.138737
0.13873
0.138722
0.138715
0.138708
0.138701
0.138694
0.138688
0.138681
0.138674
0.138668
0.138662
0.138656
0.138649
0.138644
0.138638
0.138632
0.138626
0.138621
0.138615
0.13861
0.138604
0.138599
0.138594
0.138589
0.138584
0.138579
0.138574
0.13857
0.138565
0.13856
0.138556
0.138551
0.138547
0.138543
0.138539
0.139989
0.139966
0.139943
0.13992
0.139898
0.139875
0.139853
0.139831
0.139809
0.139787
0.139766
0.139744
0.139723
0.139702
0.139681
0.139661
0.139641
0.13962
0.1396
0.139581
0.139561
0.139542
0.139523
0.139504
0.139485
0.139466
0.139448
0.13943
0.139412
0.139395
0.139377
0.13936
0.139343
0.139327
0.13931
0.139294
0.139278
0.139262
0.139246
0.139231
0.139216
0.139201
0.139186
0.139172
0.139157
0.139143
0.139129
0.139115
0.139102
0.139089
0.139076
0.139063
0.13905
0.139037
0.139025
0.139013
0.139001
0.138989
0.138978
0.138966
0.138955
0.138944
0.138933
0.138922
0.138912
0.138901
0.138891
0.138881
0.138871
0.138862
0.138852
0.138843
0.138833
0.138824
0.138815
0.138806
0.138798
0.138789
0.138781
0.138773
0.138765
0.138757
0.138749
0.138741
0.138733
0.138726
0.138719
0.138711
0.138704
0.138697
0.13869
0.138684
0.138677
0.138671
0.138664
0.138658
0.138652
0.138645
0.138639
0.138634
0.138628
0.138622
0.138616
0.138611
0.138605
0.1386
0.138595
0.13859
0.138585
0.13858
0.138575
0.13857
0.138565
0.13856
0.138556
0.138551
0.138547
0.138543
0.138538
0.138534
0.139988
0.139965
0.139943
0.13992
0.139897
0.139875
0.139852
0.13983
0.139808
0.139786
0.139765
0.139743
0.139722
0.139701
0.13968
0.139659
0.139639
0.139619
0.139599
0.139579
0.139559
0.13954
0.139521
0.139502
0.139483
0.139464
0.139446
0.139428
0.13941
0.139392
0.139375
0.139357
0.13934
0.139324
0.139307
0.139291
0.139275
0.139259
0.139243
0.139227
0.139212
0.139197
0.139182
0.139168
0.139153
0.139139
0.139125
0.139111
0.139098
0.139084
0.139071
0.139058
0.139045
0.139033
0.13902
0.139008
0.138996
0.138984
0.138972
0.138961
0.13895
0.138939
0.138928
0.138917
0.138906
0.138896
0.138885
0.138875
0.138865
0.138856
0.138846
0.138837
0.138827
0.138818
0.138809
0.1388
0.138791
0.138783
0.138774
0.138766
0.138758
0.13875
0.138742
0.138734
0.138727
0.138719
0.138712
0.138704
0.138697
0.13869
0.138683
0.138676
0.13867
0.138663
0.138657
0.13865
0.138644
0.138638
0.138632
0.138626
0.13862
0.138614
0.138609
0.138603
0.138598
0.138592
0.138587
0.138582
0.138577
0.138571
0.138567
0.138562
0.138557
0.138552
0.138548
0.138543
0.138539
0.138534
0.13853
0.138526
0.139988
0.139965
0.139942
0.139919
0.139897
0.139874
0.139852
0.139829
0.139807
0.139785
0.139764
0.139742
0.139721
0.139699
0.139678
0.139658
0.139637
0.139617
0.139596
0.139576
0.139557
0.139537
0.139518
0.139499
0.13948
0.139461
0.139443
0.139424
0.139406
0.139389
0.139371
0.139354
0.139336
0.139319
0.139303
0.139286
0.13927
0.139254
0.139238
0.139223
0.139207
0.139192
0.139177
0.139162
0.139148
0.139133
0.139119
0.139105
0.139092
0.139078
0.139065
0.139052
0.139039
0.139026
0.139014
0.139001
0.138989
0.138977
0.138965
0.138954
0.138942
0.138931
0.13892
0.138909
0.138899
0.138888
0.138878
0.138867
0.138857
0.138847
0.138838
0.138828
0.138819
0.13881
0.1388
0.138791
0.138783
0.138774
0.138765
0.138757
0.138749
0.138741
0.138733
0.138725
0.138717
0.138709
0.138702
0.138695
0.138687
0.13868
0.138673
0.138666
0.13866
0.138653
0.138646
0.13864
0.138634
0.138627
0.138621
0.138615
0.138609
0.138604
0.138598
0.138592
0.138587
0.138581
0.138576
0.138571
0.138565
0.13856
0.138555
0.13855
0.138545
0.138541
0.138536
0.138531
0.138527
0.138523
0.138518
0.138514
0.139988
0.139965
0.139942
0.139919
0.139896
0.139873
0.139851
0.139828
0.139806
0.139784
0.139762
0.13974
0.139719
0.139698
0.139676
0.139655
0.139635
0.139614
0.139594
0.139574
0.139554
0.139534
0.139515
0.139495
0.139476
0.139457
0.139439
0.13942
0.139402
0.139384
0.139366
0.139349
0.139332
0.139315
0.139298
0.139281
0.139265
0.139248
0.139233
0.139217
0.139201
0.139186
0.139171
0.139156
0.139141
0.139127
0.139112
0.139098
0.139085
0.139071
0.139057
0.139044
0.139031
0.139018
0.139006
0.138993
0.138981
0.138969
0.138957
0.138945
0.138934
0.138922
0.138911
0.1389
0.138889
0.138879
0.138868
0.138858
0.138848
0.138838
0.138828
0.138818
0.138809
0.138799
0.13879
0.138781
0.138772
0.138763
0.138754
0.138746
0.138738
0.138729
0.138721
0.138713
0.138706
0.138698
0.13869
0.138683
0.138675
0.138668
0.138661
0.138654
0.138647
0.138641
0.138634
0.138627
0.138621
0.138615
0.138609
0.138602
0.138596
0.13859
0.138585
0.138579
0.138573
0.138568
0.138562
0.138557
0.138552
0.138547
0.138542
0.138537
0.138532
0.138527
0.138522
0.138517
0.138513
0.138508
0.138504
0.1385
0.139988
0.139965
0.139941
0.139918
0.139895
0.139872
0.13985
0.139827
0.139805
0.139783
0.13976
0.139739
0.139717
0.139695
0.139674
0.139653
0.139632
0.139611
0.139591
0.139571
0.139551
0.139531
0.139511
0.139492
0.139472
0.139453
0.139434
0.139416
0.139398
0.139379
0.139361
0.139344
0.139326
0.139309
0.139292
0.139275
0.139259
0.139242
0.139226
0.13921
0.139194
0.139179
0.139164
0.139149
0.139134
0.139119
0.139105
0.13909
0.139076
0.139063
0.139049
0.139036
0.139022
0.139009
0.138997
0.138984
0.138971
0.138959
0.138947
0.138935
0.138924
0.138912
0.138901
0.13889
0.138879
0.138868
0.138857
0.138847
0.138836
0.138826
0.138816
0.138807
0.138797
0.138787
0.138778
0.138769
0.13876
0.138751
0.138742
0.138733
0.138725
0.138717
0.138708
0.1387
0.138692
0.138685
0.138677
0.138669
0.138662
0.138655
0.138647
0.13864
0.138633
0.138626
0.13862
0.138613
0.138607
0.1386
0.138594
0.138588
0.138582
0.138576
0.13857
0.138564
0.138558
0.138553
0.138547
0.138542
0.138536
0.138531
0.138526
0.138521
0.138516
0.138511
0.138506
0.138501
0.138497
0.138492
0.138488
0.138483
0.139988
0.139965
0.139941
0.139918
0.139895
0.139872
0.139849
0.139826
0.139803
0.139781
0.139759
0.139737
0.139715
0.139693
0.139672
0.13965
0.139629
0.139608
0.139588
0.139567
0.139547
0.139527
0.139507
0.139487
0.139468
0.139449
0.13943
0.139411
0.139392
0.139374
0.139356
0.139338
0.13932
0.139303
0.139286
0.139269
0.139252
0.139235
0.139219
0.139203
0.139187
0.139171
0.139156
0.139141
0.139126
0.139111
0.139096
0.139082
0.139068
0.139054
0.13904
0.139026
0.139013
0.139
0.138987
0.138974
0.138961
0.138949
0.138937
0.138925
0.138913
0.138901
0.138889
0.138878
0.138867
0.138856
0.138845
0.138835
0.138824
0.138814
0.138804
0.138794
0.138784
0.138774
0.138765
0.138756
0.138746
0.138737
0.138728
0.13872
0.138711
0.138702
0.138694
0.138686
0.138678
0.13867
0.138662
0.138654
0.138647
0.138639
0.138632
0.138625
0.138618
0.138611
0.138604
0.138597
0.138591
0.138584
0.138578
0.138571
0.138565
0.138559
0.138553
0.138547
0.138541
0.138536
0.13853
0.138524
0.138519
0.138514
0.138508
0.138503
0.138498
0.138493
0.138488
0.138483
0.138479
0.138474
0.13847
0.138465
0.139988
0.139964
0.139941
0.139917
0.139894
0.139871
0.139848
0.139825
0.139802
0.139779
0.139757
0.139735
0.139713
0.139691
0.139669
0.139648
0.139626
0.139605
0.139584
0.139564
0.139543
0.139523
0.139503
0.139483
0.139463
0.139444
0.139425
0.139406
0.139387
0.139369
0.13935
0.139332
0.139314
0.139297
0.139279
0.139262
0.139245
0.139228
0.139212
0.139195
0.139179
0.139163
0.139148
0.139132
0.139117
0.139102
0.139087
0.139072
0.139058
0.139044
0.13903
0.139016
0.139003
0.138989
0.138976
0.138963
0.13895
0.138938
0.138925
0.138913
0.138901
0.138889
0.138877
0.138866
0.138855
0.138843
0.138832
0.138822
0.138811
0.138801
0.13879
0.13878
0.13877
0.13876
0.138751
0.138741
0.138732
0.138723
0.138714
0.138705
0.138696
0.138687
0.138679
0.13867
0.138662
0.138654
0.138646
0.138638
0.138631
0.138623
0.138616
0.138608
0.138601
0.138594
0.138587
0.13858
0.138573
0.138567
0.13856
0.138554
0.138548
0.138541
0.138535
0.138529
0.138523
0.138517
0.138512
0.138506
0.138501
0.138495
0.13849
0.138484
0.138479
0.138474
0.138469
0.138464
0.138459
0.138455
0.13845
0.138446
0.139988
0.139964
0.13994
0.139917
0.139893
0.13987
0.139847
0.139823
0.139801
0.139778
0.139755
0.139733
0.139711
0.139688
0.139667
0.139645
0.139623
0.139602
0.139581
0.13956
0.139539
0.139519
0.139499
0.139479
0.139459
0.139439
0.13942
0.1394
0.139381
0.139363
0.139344
0.139326
0.139308
0.13929
0.139272
0.139255
0.139238
0.139221
0.139204
0.139187
0.139171
0.139155
0.139139
0.139123
0.139108
0.139093
0.139078
0.139063
0.139048
0.139034
0.139019
0.139005
0.138992
0.138978
0.138965
0.138952
0.138939
0.138926
0.138913
0.138901
0.138888
0.138876
0.138865
0.138853
0.138841
0.13883
0.138819
0.138808
0.138797
0.138787
0.138776
0.138766
0.138756
0.138746
0.138736
0.138726
0.138717
0.138707
0.138698
0.138689
0.13868
0.138671
0.138663
0.138654
0.138646
0.138638
0.138629
0.138621
0.138614
0.138606
0.138598
0.138591
0.138584
0.138576
0.138569
0.138562
0.138555
0.138549
0.138542
0.138535
0.138529
0.138523
0.138516
0.13851
0.138504
0.138498
0.138492
0.138487
0.138481
0.138475
0.13847
0.138464
0.138459
0.138454
0.138449
0.138444
0.138439
0.138434
0.138429
0.138425
0.139988
0.139964
0.13994
0.139916
0.139892
0.139869
0.139845
0.139822
0.139799
0.139776
0.139753
0.139731
0.139708
0.139686
0.139664
0.139642
0.13962
0.139599
0.139577
0.139556
0.139535
0.139515
0.139494
0.139474
0.139454
0.139434
0.139414
0.139395
0.139376
0.139357
0.139338
0.139319
0.139301
0.139283
0.139265
0.139247
0.13923
0.139213
0.139196
0.139179
0.139162
0.139146
0.13913
0.139114
0.139098
0.139083
0.139068
0.139053
0.139038
0.139023
0.139009
0.138994
0.13898
0.138967
0.138953
0.13894
0.138926
0.138913
0.138901
0.138888
0.138876
0.138863
0.138851
0.138839
0.138828
0.138816
0.138805
0.138794
0.138783
0.138772
0.138761
0.138751
0.13874
0.13873
0.13872
0.13871
0.138701
0.138691
0.138682
0.138672
0.138663
0.138654
0.138646
0.138637
0.138628
0.13862
0.138612
0.138604
0.138596
0.138588
0.13858
0.138572
0.138565
0.138558
0.13855
0.138543
0.138536
0.138529
0.138523
0.138516
0.138509
0.138503
0.138496
0.13849
0.138484
0.138478
0.138472
0.138466
0.13846
0.138455
0.138449
0.138444
0.138438
0.138433
0.138428
0.138422
0.138417
0.138413
0.138408
0.138403
0.139988
0.139964
0.13994
0.139916
0.139892
0.139868
0.139844
0.139821
0.139798
0.139774
0.139751
0.139729
0.139706
0.139683
0.139661
0.139639
0.139617
0.139595
0.139574
0.139552
0.139531
0.13951
0.13949
0.139469
0.139449
0.139429
0.139409
0.139389
0.13937
0.13935
0.139331
0.139313
0.139294
0.139276
0.139258
0.13924
0.139222
0.139205
0.139187
0.13917
0.139153
0.139137
0.139121
0.139104
0.139088
0.139073
0.139057
0.139042
0.139027
0.139012
0.138997
0.138983
0.138969
0.138955
0.138941
0.138927
0.138914
0.138901
0.138888
0.138875
0.138862
0.13885
0.138837
0.138825
0.138813
0.138802
0.13879
0.138779
0.138768
0.138757
0.138746
0.138735
0.138724
0.138714
0.138704
0.138694
0.138684
0.138674
0.138665
0.138655
0.138646
0.138637
0.138628
0.138619
0.13861
0.138602
0.138594
0.138585
0.138577
0.138569
0.138561
0.138553
0.138546
0.138538
0.138531
0.138524
0.138516
0.138509
0.138502
0.138496
0.138489
0.138482
0.138476
0.138469
0.138463
0.138457
0.138451
0.138445
0.138439
0.138433
0.138427
0.138422
0.138416
0.138411
0.138405
0.1384
0.138395
0.13839
0.138385
0.13838
0.139988
0.139963
0.139939
0.139915
0.139891
0.139867
0.139843
0.13982
0.139796
0.139773
0.139749
0.139726
0.139704
0.139681
0.139658
0.139636
0.139614
0.139592
0.13957
0.139549
0.139527
0.139506
0.139485
0.139464
0.139444
0.139423
0.139403
0.139383
0.139364
0.139344
0.139325
0.139306
0.139287
0.139268
0.13925
0.139232
0.139214
0.139196
0.139179
0.139161
0.139144
0.139128
0.139111
0.139095
0.139078
0.139062
0.139047
0.139031
0.139016
0.139001
0.138986
0.138971
0.138957
0.138942
0.138928
0.138915
0.138901
0.138887
0.138874
0.138861
0.138848
0.138836
0.138823
0.138811
0.138799
0.138787
0.138775
0.138763
0.138752
0.138741
0.13873
0.138719
0.138708
0.138698
0.138687
0.138677
0.138667
0.138657
0.138647
0.138638
0.138628
0.138619
0.13861
0.138601
0.138592
0.138583
0.138575
0.138566
0.138558
0.13855
0.138542
0.138534
0.138526
0.138518
0.138511
0.138503
0.138496
0.138489
0.138482
0.138475
0.138468
0.138461
0.138454
0.138448
0.138441
0.138435
0.138429
0.138423
0.138417
0.138411
0.138405
0.138399
0.138394
0.138388
0.138383
0.138377
0.138372
0.138367
0.138362
0.138357
0.139988
0.139963
0.139939
0.139914
0.13989
0.139866
0.139842
0.139818
0.139794
0.139771
0.139748
0.139724
0.139701
0.139678
0.139656
0.139633
0.139611
0.139588
0.139566
0.139545
0.139523
0.139501
0.13948
0.139459
0.139438
0.139418
0.139397
0.139377
0.139357
0.139338
0.139318
0.139299
0.13928
0.139261
0.139242
0.139224
0.139206
0.139188
0.13917
0.139152
0.139135
0.139118
0.139101
0.139084
0.139068
0.139052
0.139036
0.13902
0.139004
0.138989
0.138974
0.138959
0.138944
0.13893
0.138916
0.138901
0.138888
0.138874
0.13886
0.138847
0.138834
0.138821
0.138808
0.138796
0.138784
0.138771
0.138759
0.138748
0.138736
0.138725
0.138713
0.138702
0.138691
0.138681
0.13867
0.13866
0.138649
0.138639
0.138629
0.138619
0.13861
0.1386
0.138591
0.138582
0.138573
0.138564
0.138555
0.138546
0.138538
0.13853
0.138521
0.138513
0.138505
0.138498
0.13849
0.138482
0.138475
0.138467
0.13846
0.138453
0.138446
0.138439
0.138432
0.138426
0.138419
0.138413
0.138406
0.1384
0.138394
0.138388
0.138382
0.138376
0.13837
0.138364
0.138359
0.138353
0.138348
0.138343
0.138338
0.138333
0.139988
0.139963
0.139938
0.139914
0.139889
0.139865
0.139841
0.139817
0.139793
0.139769
0.139746
0.139722
0.139699
0.139676
0.139653
0.13963
0.139607
0.139585
0.139563
0.13954
0.139519
0.139497
0.139475
0.139454
0.139433
0.139412
0.139392
0.139371
0.139351
0.139331
0.139311
0.139292
0.139272
0.139253
0.139234
0.139216
0.139197
0.139179
0.139161
0.139143
0.139125
0.139108
0.139091
0.139074
0.139057
0.139041
0.139025
0.139009
0.138993
0.138977
0.138962
0.138947
0.138932
0.138917
0.138902
0.138888
0.138874
0.13886
0.138846
0.138833
0.138819
0.138806
0.138793
0.138781
0.138768
0.138756
0.138743
0.138731
0.13872
0.138708
0.138696
0.138685
0.138674
0.138663
0.138652
0.138642
0.138631
0.138621
0.138611
0.138601
0.138591
0.138581
0.138572
0.138562
0.138553
0.138544
0.138535
0.138526
0.138518
0.138509
0.138501
0.138492
0.138484
0.138476
0.138468
0.138461
0.138453
0.138446
0.138438
0.138431
0.138424
0.138417
0.13841
0.138403
0.138396
0.138389
0.138383
0.138377
0.13837
0.138364
0.138358
0.138352
0.138346
0.13834
0.138335
0.138329
0.138323
0.138318
0.138313
0.138308
0.139988
0.139963
0.139938
0.139913
0.139889
0.139864
0.13984
0.139815
0.139791
0.139767
0.139744
0.13972
0.139696
0.139673
0.13965
0.139627
0.139604
0.139581
0.139559
0.139536
0.139514
0.139492
0.139471
0.139449
0.139428
0.139407
0.139386
0.139365
0.139345
0.139324
0.139304
0.139284
0.139265
0.139245
0.139226
0.139207
0.139188
0.13917
0.139152
0.139134
0.139116
0.139098
0.139081
0.139064
0.139047
0.13903
0.139013
0.138997
0.138981
0.138965
0.138949
0.138934
0.138919
0.138904
0.138889
0.138874
0.13886
0.138846
0.138832
0.138818
0.138805
0.138791
0.138778
0.138765
0.138752
0.13874
0.138727
0.138715
0.138703
0.138691
0.138679
0.138668
0.138656
0.138645
0.138634
0.138623
0.138613
0.138602
0.138592
0.138582
0.138572
0.138562
0.138552
0.138542
0.138533
0.138524
0.138515
0.138506
0.138497
0.138488
0.138479
0.138471
0.138463
0.138455
0.138446
0.138439
0.138431
0.138423
0.138416
0.138408
0.138401
0.138394
0.138386
0.138379
0.138373
0.138366
0.138359
0.138353
0.138346
0.13834
0.138334
0.138327
0.138321
0.138315
0.13831
0.138304
0.138298
0.138293
0.138287
0.138282
0.139987
0.139962
0.139937
0.139913
0.139888
0.139863
0.139839
0.139814
0.13979
0.139766
0.139742
0.139718
0.139694
0.13967
0.139647
0.139624
0.1396
0.139577
0.139555
0.139532
0.13951
0.139488
0.139466
0.139444
0.139422
0.139401
0.13938
0.139359
0.139338
0.139317
0.139297
0.139277
0.139257
0.139237
0.139218
0.139199
0.13918
0.139161
0.139142
0.139124
0.139106
0.139088
0.13907
0.139053
0.139036
0.139019
0.139002
0.138985
0.138969
0.138953
0.138937
0.138921
0.138906
0.13889
0.138875
0.138861
0.138846
0.138831
0.138817
0.138803
0.138789
0.138776
0.138762
0.138749
0.138736
0.138723
0.13871
0.138698
0.138686
0.138674
0.138662
0.13865
0.138638
0.138627
0.138616
0.138605
0.138594
0.138583
0.138573
0.138562
0.138552
0.138542
0.138532
0.138522
0.138512
0.138503
0.138494
0.138484
0.138475
0.138467
0.138458
0.138449
0.138441
0.138432
0.138424
0.138416
0.138408
0.1384
0.138392
0.138385
0.138377
0.13837
0.138363
0.138356
0.138348
0.138342
0.138335
0.138328
0.138321
0.138315
0.138309
0.138302
0.138296
0.13829
0.138284
0.138278
0.138272
0.138267
0.138261
0.138256
0.139987
0.139962
0.139937
0.139912
0.139887
0.139862
0.139837
0.139813
0.139788
0.139764
0.139739
0.139715
0.139691
0.139667
0.139644
0.13962
0.139597
0.139574
0.139551
0.139528
0.139505
0.139483
0.139461
0.139439
0.139417
0.139395
0.139374
0.139352
0.139331
0.13931
0.13929
0.139269
0.139249
0.139229
0.13921
0.13919
0.139171
0.139152
0.139133
0.139114
0.139096
0.139078
0.13906
0.139042
0.139024
0.139007
0.13899
0.138973
0.138957
0.13894
0.138924
0.138908
0.138892
0.138877
0.138861
0.138846
0.138831
0.138817
0.138802
0.138788
0.138774
0.13876
0.138746
0.138733
0.13872
0.138706
0.138694
0.138681
0.138668
0.138656
0.138644
0.138632
0.13862
0.138608
0.138597
0.138586
0.138574
0.138564
0.138553
0.138542
0.138532
0.138521
0.138511
0.138501
0.138491
0.138482
0.138472
0.138463
0.138454
0.138445
0.138436
0.138427
0.138418
0.13841
0.138401
0.138393
0.138385
0.138377
0.138369
0.138361
0.138353
0.138346
0.138338
0.138331
0.138324
0.138317
0.13831
0.138303
0.138296
0.138289
0.138283
0.138276
0.13827
0.138264
0.138258
0.138252
0.138246
0.13824
0.138235
0.138229
0.139987
0.139962
0.139937
0.139911
0.139886
0.139861
0.139836
0.139811
0.139787
0.139762
0.139737
0.139713
0.139689
0.139665
0.139641
0.139617
0.139593
0.13957
0.139547
0.139524
0.139501
0.139478
0.139456
0.139433
0.139411
0.139389
0.139367
0.139346
0.139325
0.139303
0.139283
0.139262
0.139241
0.139221
0.139201
0.139181
0.139162
0.139142
0.139123
0.139104
0.139086
0.139067
0.139049
0.139031
0.139013
0.138996
0.138978
0.138961
0.138944
0.138928
0.138911
0.138895
0.138879
0.138863
0.138847
0.138832
0.138817
0.138802
0.138787
0.138773
0.138758
0.138744
0.13873
0.138716
0.138703
0.138689
0.138676
0.138663
0.138651
0.138638
0.138626
0.138613
0.138601
0.138589
0.138578
0.138566
0.138555
0.138544
0.138533
0.138522
0.138511
0.138501
0.13849
0.13848
0.13847
0.13846
0.13845
0.138441
0.138431
0.138422
0.138413
0.138404
0.138395
0.138386
0.138378
0.138369
0.138361
0.138353
0.138345
0.138337
0.138329
0.138321
0.138313
0.138306
0.138299
0.138291
0.138284
0.138277
0.13827
0.138263
0.138257
0.13825
0.138244
0.138237
0.138231
0.138225
0.138219
0.138213
0.138207
0.138202
0.139987
0.139962
0.139936
0.139911
0.139885
0.13986
0.139835
0.13981
0.139785
0.13976
0.139735
0.139711
0.139686
0.139662
0.139638
0.139614
0.13959
0.139566
0.139543
0.139519
0.139496
0.139473
0.13945
0.139428
0.139405
0.139383
0.139361
0.139339
0.139318
0.139296
0.139275
0.139254
0.139233
0.139213
0.139193
0.139173
0.139153
0.139133
0.139114
0.139094
0.139075
0.139057
0.139038
0.13902
0.139002
0.138984
0.138966
0.138949
0.138932
0.138915
0.138898
0.138881
0.138865
0.138849
0.138833
0.138817
0.138802
0.138787
0.138772
0.138757
0.138742
0.138728
0.138714
0.1387
0.138686
0.138672
0.138659
0.138645
0.138632
0.13862
0.138607
0.138594
0.138582
0.13857
0.138558
0.138546
0.138535
0.138523
0.138512
0.138501
0.13849
0.138479
0.138469
0.138458
0.138448
0.138438
0.138428
0.138418
0.138409
0.138399
0.13839
0.138381
0.138372
0.138363
0.138354
0.138345
0.138337
0.138328
0.13832
0.138312
0.138304
0.138296
0.138288
0.13828
0.138273
0.138266
0.138258
0.138251
0.138244
0.138237
0.13823
0.138223
0.138217
0.13821
0.138204
0.138197
0.138191
0.138185
0.138179
0.138174
0.139987
0.139961
0.139936
0.13991
0.139885
0.139859
0.139834
0.139808
0.139783
0.139758
0.139733
0.139708
0.139684
0.139659
0.139635
0.13961
0.139586
0.139562
0.139539
0.139515
0.139492
0.139468
0.139445
0.139422
0.1394
0.139377
0.139355
0.139333
0.139311
0.139289
0.139268
0.139246
0.139225
0.139205
0.139184
0.139164
0.139143
0.139123
0.139104
0.139084
0.139065
0.139046
0.139027
0.139008
0.13899
0.138972
0.138954
0.138936
0.138919
0.138902
0.138884
0.138868
0.138851
0.138835
0.138818
0.138803
0.138787
0.138771
0.138756
0.138741
0.138726
0.138711
0.138697
0.138682
0.138668
0.138655
0.138641
0.138627
0.138614
0.138601
0.138588
0.138575
0.138563
0.13855
0.138538
0.138526
0.138514
0.138503
0.138491
0.13848
0.138469
0.138458
0.138447
0.138436
0.138426
0.138416
0.138405
0.138395
0.138386
0.138376
0.138366
0.138357
0.138348
0.138339
0.13833
0.138321
0.138312
0.138303
0.138295
0.138287
0.138278
0.13827
0.138262
0.138254
0.138247
0.138239
0.138232
0.138224
0.138217
0.13821
0.138203
0.138196
0.138189
0.138182
0.138176
0.138169
0.138163
0.138157
0.138151
0.138145
0.139987
0.139961
0.139935
0.139909
0.139884
0.139858
0.139832
0.139807
0.139782
0.139756
0.139731
0.139706
0.139681
0.139656
0.139632
0.139607
0.139583
0.139559
0.139534
0.139511
0.139487
0.139463
0.13944
0.139417
0.139394
0.139371
0.139348
0.139326
0.139304
0.139282
0.13926
0.139239
0.139217
0.139196
0.139175
0.139155
0.139134
0.139114
0.139094
0.139074
0.139054
0.139035
0.139016
0.138997
0.138978
0.13896
0.138942
0.138924
0.138906
0.138888
0.138871
0.138854
0.138837
0.13882
0.138804
0.138788
0.138771
0.138756
0.13874
0.138725
0.138709
0.138695
0.13868
0.138665
0.138651
0.138637
0.138623
0.138609
0.138595
0.138582
0.138569
0.138556
0.138543
0.13853
0.138518
0.138506
0.138494
0.138482
0.13847
0.138459
0.138447
0.138436
0.138425
0.138414
0.138403
0.138393
0.138382
0.138372
0.138362
0.138352
0.138342
0.138333
0.138323
0.138314
0.138305
0.138296
0.138287
0.138278
0.138269
0.138261
0.138252
0.138244
0.138236
0.138228
0.13822
0.138212
0.138205
0.138197
0.13819
0.138182
0.138175
0.138168
0.138161
0.138154
0.138147
0.138141
0.138134
0.138128
0.138122
0.138116
0.139987
0.139961
0.139935
0.139909
0.139883
0.139857
0.139831
0.139806
0.13978
0.139754
0.139729
0.139704
0.139678
0.139653
0.139629
0.139604
0.139579
0.139555
0.13953
0.139506
0.139482
0.139458
0.139435
0.139411
0.139388
0.139365
0.139342
0.139319
0.139297
0.139275
0.139253
0.139231
0.139209
0.139188
0.139166
0.139145
0.139125
0.139104
0.139084
0.139064
0.139044
0.139024
0.139005
0.138985
0.138966
0.138948
0.138929
0.138911
0.138893
0.138875
0.138857
0.13884
0.138823
0.138806
0.138789
0.138772
0.138756
0.13874
0.138724
0.138708
0.138693
0.138678
0.138663
0.138648
0.138633
0.138619
0.138604
0.13859
0.138576
0.138563
0.138549
0.138536
0.138523
0.13851
0.138498
0.138485
0.138473
0.138461
0.138449
0.138437
0.138425
0.138414
0.138402
0.138391
0.13838
0.13837
0.138359
0.138348
0.138338
0.138328
0.138318
0.138308
0.138298
0.138289
0.138279
0.13827
0.138261
0.138252
0.138243
0.138234
0.138226
0.138217
0.138209
0.138201
0.138193
0.138185
0.138177
0.138169
0.138162
0.138154
0.138147
0.138139
0.138132
0.138125
0.138118
0.138112
0.138105
0.138098
0.138092
0.138086
0.139987
0.139961
0.139934
0.139908
0.139882
0.139856
0.13983
0.139804
0.139778
0.139752
0.139727
0.139701
0.139676
0.139651
0.139625
0.1396
0.139575
0.139551
0.139526
0.139502
0.139477
0.139453
0.139429
0.139406
0.139382
0.139359
0.139336
0.139313
0.13929
0.139267
0.139245
0.139223
0.139201
0.139179
0.139158
0.139136
0.139115
0.139094
0.139074
0.139053
0.139033
0.139013
0.138993
0.138974
0.138955
0.138935
0.138917
0.138898
0.13888
0.138861
0.138843
0.138826
0.138808
0.138791
0.138774
0.138757
0.13874
0.138724
0.138708
0.138692
0.138676
0.13866
0.138645
0.13863
0.138615
0.1386
0.138586
0.138571
0.138557
0.138543
0.13853
0.138516
0.138503
0.13849
0.138477
0.138464
0.138451
0.138439
0.138427
0.138415
0.138403
0.138391
0.13838
0.138368
0.138357
0.138346
0.138335
0.138324
0.138314
0.138303
0.138293
0.138283
0.138273
0.138263
0.138254
0.138244
0.138235
0.138226
0.138217
0.138208
0.138199
0.13819
0.138182
0.138173
0.138165
0.138157
0.138149
0.138141
0.138133
0.138125
0.138118
0.13811
0.138103
0.138096
0.138089
0.138082
0.138075
0.138068
0.138062
0.138056
0.139987
0.13996
0.139934
0.139908
0.139881
0.139855
0.139829
0.139803
0.139777
0.139751
0.139725
0.139699
0.139673
0.139648
0.139622
0.139597
0.139572
0.139547
0.139522
0.139497
0.139473
0.139448
0.139424
0.1394
0.139376
0.139353
0.139329
0.139306
0.139283
0.13926
0.139237
0.139215
0.139193
0.139171
0.139149
0.139127
0.139106
0.139085
0.139064
0.139043
0.139022
0.139002
0.138982
0.138962
0.138942
0.138923
0.138904
0.138885
0.138866
0.138848
0.138829
0.138811
0.138794
0.138776
0.138759
0.138741
0.138724
0.138708
0.138691
0.138675
0.138659
0.138643
0.138627
0.138612
0.138597
0.138582
0.138567
0.138552
0.138538
0.138524
0.13851
0.138496
0.138482
0.138469
0.138456
0.138443
0.13843
0.138417
0.138405
0.138392
0.13838
0.138368
0.138356
0.138345
0.138333
0.138322
0.138311
0.1383
0.138289
0.138278
0.138268
0.138258
0.138248
0.138238
0.138228
0.138218
0.138208
0.138199
0.13819
0.13818
0.138171
0.138163
0.138154
0.138145
0.138137
0.138128
0.13812
0.138112
0.138104
0.138096
0.138088
0.138081
0.138073
0.138066
0.138059
0.138051
0.138045
0.138038
0.138031
0.138025
0.139987
0.13996
0.139933
0.139907
0.13988
0.139854
0.139827
0.139801
0.139775
0.139749
0.139723
0.139696
0.139671
0.139645
0.139619
0.139594
0.139568
0.139543
0.139518
0.139493
0.139468
0.139443
0.139419
0.139395
0.13937
0.139347
0.139323
0.139299
0.139276
0.139253
0.13923
0.139207
0.139184
0.139162
0.13914
0.139118
0.139096
0.139075
0.139053
0.139032
0.139011
0.138991
0.13897
0.13895
0.13893
0.138911
0.138891
0.138872
0.138853
0.138834
0.138815
0.138797
0.138779
0.138761
0.138743
0.138726
0.138709
0.138691
0.138675
0.138658
0.138642
0.138626
0.13861
0.138594
0.138578
0.138563
0.138548
0.138533
0.138518
0.138504
0.138489
0.138475
0.138461
0.138448
0.138434
0.138421
0.138408
0.138395
0.138382
0.138369
0.138357
0.138345
0.138333
0.138321
0.138309
0.138298
0.138286
0.138275
0.138264
0.138253
0.138242
0.138232
0.138221
0.138211
0.138201
0.138191
0.138181
0.138172
0.138162
0.138153
0.138144
0.138134
0.138125
0.138117
0.138108
0.138099
0.138091
0.138083
0.138074
0.138066
0.138058
0.138051
0.138043
0.138035
0.138028
0.138021
0.138013
0.138006
0.138
0.137993
0.139987
0.13996
0.139933
0.139906
0.13988
0.139853
0.139826
0.1398
0.139773
0.139747
0.13972
0.139694
0.139668
0.139642
0.139616
0.13959
0.139565
0.139539
0.139514
0.139488
0.139463
0.139438
0.139414
0.139389
0.139365
0.13934
0.139316
0.139293
0.139269
0.139245
0.139222
0.139199
0.139176
0.139153
0.139131
0.139109
0.139087
0.139065
0.139043
0.139022
0.139001
0.13898
0.138959
0.138938
0.138918
0.138898
0.138878
0.138859
0.138839
0.13882
0.138801
0.138783
0.138764
0.138746
0.138728
0.13871
0.138692
0.138675
0.138658
0.138641
0.138624
0.138608
0.138592
0.138576
0.13856
0.138544
0.138529
0.138513
0.138498
0.138484
0.138469
0.138455
0.13844
0.138426
0.138413
0.138399
0.138386
0.138372
0.138359
0.138346
0.138334
0.138321
0.138309
0.138297
0.138285
0.138273
0.138261
0.13825
0.138239
0.138227
0.138216
0.138206
0.138195
0.138184
0.138174
0.138164
0.138154
0.138144
0.138134
0.138125
0.138115
0.138106
0.138097
0.138088
0.138079
0.13807
0.138061
0.138053
0.138044
0.138036
0.138028
0.13802
0.138012
0.138004
0.137997
0.137989
0.137982
0.137975
0.137968
0.137961
0.139987
0.13996
0.139933
0.139906
0.139879
0.139852
0.139825
0.139798
0.139771
0.139745
0.139718
0.139692
0.139665
0.139639
0.139613
0.139587
0.139561
0.139535
0.13951
0.139484
0.139459
0.139434
0.139408
0.139384
0.139359
0.139334
0.13931
0.139286
0.139262
0.139238
0.139214
0.139191
0.139168
0.139145
0.139122
0.1391
0.139077
0.139055
0.139033
0.139011
0.13899
0.138969
0.138948
0.138927
0.138906
0.138886
0.138866
0.138846
0.138826
0.138806
0.138787
0.138768
0.138749
0.138731
0.138712
0.138694
0.138676
0.138659
0.138641
0.138624
0.138607
0.13859
0.138573
0.138557
0.138541
0.138525
0.138509
0.138494
0.138478
0.138463
0.138448
0.138434
0.138419
0.138405
0.138391
0.138377
0.138363
0.13835
0.138336
0.138323
0.13831
0.138297
0.138285
0.138272
0.13826
0.138248
0.138236
0.138224
0.138213
0.138201
0.13819
0.138179
0.138168
0.138157
0.138147
0.138136
0.138126
0.138116
0.138106
0.138096
0.138086
0.138077
0.138067
0.138058
0.138049
0.13804
0.138031
0.138022
0.138014
0.138005
0.137997
0.137989
0.13798
0.137973
0.137965
0.137957
0.13795
0.137942
0.137935
0.137928
0.139986
0.139959
0.139932
0.139905
0.139878
0.139851
0.139824
0.139797
0.13977
0.139743
0.139716
0.139689
0.139663
0.139636
0.13961
0.139584
0.139557
0.139531
0.139506
0.13948
0.139454
0.139429
0.139403
0.139378
0.139353
0.139328
0.139304
0.139279
0.139255
0.139231
0.139207
0.139183
0.13916
0.139136
0.139113
0.13909
0.139068
0.139045
0.139023
0.139001
0.138979
0.138957
0.138936
0.138915
0.138894
0.138873
0.138853
0.138832
0.138812
0.138793
0.138773
0.138754
0.138734
0.138715