/*--------------------------------*- C++ -*----------------------------------*\
  =========                 |
  \\      /  F ield         | OpenFOAM: The Open Source CFD Toolbox
   \\    /   O peration     | Website:  https://openfoam.org
    \\  /    A nd           | Version:  8
     \\/     M anipulation  |
\*---------------------------------------------------------------------------*/
FoamFile
{
    version     2.0;
    format      ascii;
    class       volScalarField;
    location    "2";
    object      nuTilda;
}
// * * * * * * * * * * * * * * * * * * * * * * * * * * * * * * * * * * * * * //

dimensions      [0 2 -1 0 0 0 0];

internalField   nonuniform List<scalar> 
115200
(
0.000220487
0.00022671
0.000232538
0.00023802
0.000243208
0.00024815
0.000252897
0.000257485
0.000261929
0.000266203
0.000270248
0.00027402
0.000277523
0.000280769
0.000283768
0.000286534
0.000289075
0.000291401
0.000293521
0.000295442
0.00029717
0.000298709
0.000300062
0.000301228
0.000302202
0.000302976
0.000303535
0.000303865
0.000303984
0.000304009
0.000303935
0.000303767
0.000303512
0.00030317
0.000302746
0.000302242
0.000301658
0.000300997
0.00030026
0.000299449
0.000298564
0.000297607
0.000296578
0.00029548
0.000294311
0.000293074
0.000291769
0.000290397
0.000288959
0.000287454
0.000285885
0.00028425
0.000282551
0.000280789
0.000278963
0.000277074
0.000275122
0.000273108
0.000271031
0.000268891
0.00026669
0.000264426
0.000262099
0.00025971
0.000257258
0.000254743
0.000252163
0.00024952
0.000246811
0.000244036
0.000241195
0.000238286
0.000235308
0.00023226
0.00022914
0.000225947
0.000222679
0.000219332
0.000215905
0.000212394
0.000208796
0.000205106
0.000201321
0.000197436
0.000193446
0.000189344
0.000185124
0.000180778
0.000176296
0.000171668
0.000166881
0.000161922
0.000156779
0.000151443
0.000145925
0.000140298
0.000134782
0.000129889
0.000126392
0.000124635
0.000347321
0.00034566
0.000343474
0.000340849
0.000337923
0.000334905
0.000332139
0.000330171
0.000329779
0.000331656
0.000335259
0.000339172
0.000343054
0.000346899
0.000350715
0.00035451
0.000358291
0.000362068
0.000365848
0.00036964
0.000373454
0.000377299
0.000381189
0.000385135
0.000389148
0.000393215
0.00039733
0.000401501
0.000405704
0.000409832
0.000413894
0.000417895
0.000421835
0.000425719
0.000429546
0.000433318
0.000437037
0.000440703
0.000444316
0.000447878
0.000451388
0.000454847
0.000458255
0.000461612
0.000464918
0.000468174
0.00047138
0.000474535
0.000477639
0.000480693
0.000483696
0.000486649
0.000489551
0.000492403
0.000495203
0.000497952
0.000500651
0.000503298
0.000505894
0.000508439
0.000510932
0.000513374
0.000515763
0.000518101
0.000520386
0.000522619
0.0005248
0.000526929
0.000529006
0.00053103
0.000533002
0.000534922
0.00053679
0.000538607
0.000540373
0.000542091
0.000543761
0.000545387
0.000546968
0.000548496
0.000549972
0.000551397
0.00055277
0.000554093
0.000555367
0.000556592
0.00055777
0.000558903
0.000559993
0.000561039
0.000562042
0.000563002
0.000563917
0.000564784
0.000565592
0.000566326
0.000566958
0.000567452
0.000567782
0.000567951
0.000531827
0.000544481
0.000557107
0.000569718
0.000582317
0.000594901
0.00060746
0.000619976
0.00063241
0.000644709
0.000656812
0.000668684
0.000680328
0.000691752
0.000702966
0.000713978
0.000724795
0.000735426
0.000745877
0.000756154
0.000766259
0.000776196
0.000785965
0.000795565
0.000804996
0.00081428
0.000823438
0.000832474
0.000841385
0.000850166
0.000858817
0.000867339
0.000875733
0.000883999
0.00089214
0.000900157
0.000908051
0.000915823
0.000923475
0.000931006
0.000938418
0.00094571
0.000952885
0.000959941
0.000966879
0.000973699
0.000980402
0.000986987
0.000993454
0.000999804
0.00100604
0.00101215
0.00101815
0.00102403
0.00102979
0.00103543
0.00104095
0.00104636
0.00105165
0.00105682
0.00106187
0.0010668
0.00107161
0.0010763
0.00108087
0.00108532
0.00108965
0.00109385
0.00109794
0.0011019
0.00110574
0.00110946
0.00111306
0.00111653
0.00111988
0.00112311
0.00112622
0.0011292
0.00113206
0.00113479
0.0011374
0.00113989
0.00114225
0.00114449
0.00114661
0.0011486
0.00115047
0.00115222
0.00115385
0.00115537
0.00115676
0.00115803
0.00115917
0.00116018
0.00116106
0.00116181
0.00116242
0.00116289
0.00116322
0.00116341
0.000868868
0.00089071
0.000912103
0.000933073
0.000953631
0.000973784
0.000993541
0.00101291
0.00103191
0.00105055
0.00106886
0.00108685
0.00110454
0.00112194
0.00113905
0.00115588
0.00117245
0.00118876
0.00120482
0.00122064
0.00123622
0.00125157
0.0012667
0.00128161
0.00129631
0.00131081
0.0013251
0.00133918
0.00135307
0.00136676
0.00138025
0.00139355
0.00140664
0.00141955
0.00143226
0.00144479
0.00145712
0.00146926
0.00148122
0.00149299
0.00150458
0.00151598
0.00152719
0.00153822
0.00154907
0.00155973
0.00157021
0.0015805
0.00159061
0.00160053
0.00161027
0.00161982
0.00162919
0.00163838
0.00164738
0.00165619
0.00166482
0.00167326
0.00168152
0.00168959
0.00169747
0.00170517
0.00171268
0.00172001
0.00172714
0.00173408
0.00174084
0.0017474
0.00175378
0.00175996
0.00176595
0.00177175
0.00177736
0.00178277
0.001788
0.00179303
0.00179786
0.0018025
0.00180695
0.00181121
0.00181527
0.00181913
0.00182281
0.00182628
0.00182956
0.00183265
0.00183554
0.00183824
0.00184073
0.00184304
0.00184514
0.00184705
0.00184876
0.00185027
0.00185157
0.00185268
0.00185358
0.00185427
0.00185476
0.00185505
0.00126989
0.00129873
0.00132706
0.00135491
0.00138229
0.00140923
0.00143574
0.00146182
0.00148749
0.00151277
0.00153767
0.00156219
0.00158635
0.00161015
0.00163361
0.00165673
0.00167951
0.00170196
0.00172409
0.00174589
0.00176739
0.00178858
0.00180947
0.00183007
0.00185038
0.00187041
0.00189017
0.00190964
0.00192885
0.00194778
0.00196645
0.00198485
0.00200298
0.00202085
0.00203846
0.00205581
0.0020729
0.00208973
0.0021063
0.00212262
0.00213868
0.00215448
0.00217003
0.00218532
0.00220035
0.00221513
0.00222966
0.00224393
0.00225794
0.0022717
0.0022852
0.00229844
0.00231143
0.00232416
0.00233663
0.00234885
0.0023608
0.0023725
0.00238393
0.00239511
0.00240603
0.00241668
0.00242707
0.0024372
0.00244707
0.00245668
0.00246602
0.00247509
0.0024839
0.00249245
0.00250073
0.00250874
0.00251649
0.00252396
0.00253117
0.00253812
0.00254479
0.00255119
0.00255733
0.00256319
0.00256879
0.00257411
0.00257916
0.00258394
0.00258845
0.00259269
0.00259665
0.00260035
0.00260376
0.00260691
0.00260978
0.00261238
0.0026147
0.00261674
0.00261851
0.00262
0.00262121
0.00262214
0.0026228
0.00262317
0.00171977
0.00175586
0.00179142
0.00182647
0.001861
0.00189505
0.0019286
0.00196168
0.00199429
0.00202644
0.00205815
0.00208941
0.00212024
0.00215064
0.00218063
0.00221021
0.00223938
0.00226816
0.00229655
0.00232455
0.00235217
0.00237942
0.00240631
0.00243283
0.00245899
0.00248479
0.00251025
0.00253536
0.00256012
0.00258454
0.00260862
0.00263236
0.00265577
0.00267884
0.00270157
0.00272398
0.00274604
0.00276778
0.00278919
0.00281026
0.00283101
0.00285142
0.00287151
0.00289126
0.00291068
0.00292978
0.00294854
0.00296698
0.00298508
0.00300285
0.00302029
0.0030374
0.00305418
0.00307062
0.00308673
0.0031025
0.00311794
0.00313304
0.00314781
0.00316224
0.00317633
0.00319008
0.0032035
0.00321657
0.00322931
0.0032417
0.00325375
0.00326546
0.00327682
0.00328785
0.00329852
0.00330885
0.00331884
0.00332848
0.00333777
0.00334672
0.00335532
0.00336357
0.00337147
0.00337902
0.00338622
0.00339307
0.00339957
0.00340572
0.00341151
0.00341696
0.00342205
0.00342679
0.00343117
0.0034352
0.00343888
0.0034422
0.00344516
0.00344777
0.00345002
0.00345192
0.00345346
0.00345464
0.00345547
0.00345593
0.00221636
0.00225975
0.00230254
0.00234478
0.00238647
0.00242764
0.00246827
0.00250839
0.002548
0.0025871
0.0026257
0.00266381
0.00270143
0.00273857
0.00277523
0.00281143
0.00284716
0.00288243
0.00291724
0.00295161
0.00298554
0.00301902
0.00305207
0.00308469
0.00311687
0.00314864
0.00317998
0.0032109
0.0032414
0.00327149
0.00330117
0.00333043
0.00335928
0.00338773
0.00341576
0.00344338
0.0034706
0.00349741
0.00352382
0.00354981
0.00357541
0.00360059
0.00362537
0.00364974
0.00367371
0.00369727
0.00372042
0.00374316
0.0037655
0.00378742
0.00380894
0.00383004
0.00385074
0.00387102
0.00389089
0.00391035
0.00392939
0.00394802
0.00396623
0.00398403
0.00400141
0.00401837
0.00403491
0.00405103
0.00406673
0.004082
0.00409686
0.00411129
0.0041253
0.00413888
0.00415204
0.00416477
0.00417708
0.00418895
0.0042004
0.00421142
0.00422201
0.00423216
0.00424189
0.00425119
0.00426005
0.00426848
0.00427647
0.00428404
0.00429116
0.00429785
0.00430411
0.00430993
0.00431532
0.00432026
0.00432477
0.00432885
0.00433248
0.00433568
0.00433843
0.00434075
0.00434263
0.00434407
0.00434507
0.00434563
0.00275655
0.00280729
0.00285739
0.0029069
0.00295584
0.00300421
0.00305201
0.00309926
0.00314596
0.0031921
0.0032377
0.00328275
0.00332727
0.00337125
0.0034147
0.00345762
0.00350002
0.00354191
0.00358327
0.00362413
0.00366447
0.00370431
0.00374365
0.00378248
0.00382082
0.00385866
0.00389601
0.00393287
0.00396924
0.00400512
0.00404052
0.00407542
0.00410985
0.00414378
0.00417724
0.00421021
0.0042427
0.0042747
0.00430622
0.00433726
0.00436781
0.00439788
0.00442747
0.00445657
0.00448519
0.00451332
0.00454097
0.00456812
0.00459479
0.00462097
0.00464667
0.00467187
0.00469658
0.0047208
0.00474452
0.00476775
0.00479049
0.00481273
0.00483447
0.00485571
0.00487646
0.00489671
0.00491645
0.00493569
0.00495443
0.00497266
0.00499039
0.00500762
0.00502433
0.00504054
0.00505624
0.00507143
0.00508611
0.00510027
0.00511393
0.00512707
0.0051397
0.00515181
0.00516341
0.00517449
0.00518505
0.0051951
0.00520463
0.00521364
0.00522213
0.0052301
0.00523756
0.00524449
0.0052509
0.00525679
0.00526215
0.00526699
0.00527132
0.00527511
0.00527839
0.00528114
0.00528337
0.00528507
0.00528625
0.00528691
0.0033385
0.00339668
0.00345418
0.00351105
0.00356731
0.00362297
0.00367802
0.00373247
0.00378633
0.0038396
0.00389227
0.00394434
0.00399583
0.00404674
0.00409705
0.00414679
0.00419594
0.00424451
0.00429251
0.00433993
0.00438678
0.00443306
0.00447877
0.00452391
0.00456849
0.0046125
0.00465594
0.00469883
0.00474115
0.00478291
0.00482412
0.00486476
0.00490484
0.00494436
0.00498333
0.00502173
0.00505957
0.00509686
0.00513358
0.00516974
0.00520534
0.00524038
0.00527485
0.00530877
0.00534211
0.00537489
0.00540711
0.00543876
0.00546984
0.00550035
0.00553029
0.00555966
0.00558845
0.00561667
0.00564432
0.00567139
0.00569788
0.0057238
0.00574913
0.00577389
0.00579806
0.00582164
0.00584465
0.00586706
0.00588889
0.00591013
0.00593079
0.00595085
0.00597032
0.0059892
0.00600748
0.00602517
0.00604226
0.00605876
0.00607466
0.00608996
0.00610467
0.00611877
0.00613227
0.00614517
0.00615747
0.00616916
0.00618025
0.00619073
0.00620061
0.00620989
0.00621856
0.00622662
0.00623407
0.00624092
0.00624716
0.00625279
0.00625781
0.00626222
0.00626602
0.00626922
0.0062718
0.00627377
0.00627514
0.00627589
0.00396108
0.00402677
0.00409175
0.00415606
0.00421971
0.00428271
0.00434507
0.00440679
0.00446788
0.00452832
0.00458811
0.00464727
0.00470579
0.00476367
0.00482091
0.00487751
0.00493347
0.00498879
0.00504347
0.00509752
0.00515093
0.00520371
0.00525585
0.00530735
0.00535822
0.00540846
0.00545807
0.00550704
0.00555537
0.00560308
0.00565015
0.00569658
0.00574238
0.00578755
0.00583208
0.00587598
0.00591924
0.00596186
0.00600384
0.00604518
0.00608589
0.00612595
0.00616537
0.00620415
0.00624228
0.00627977
0.00631661
0.0063528
0.00638834
0.00642323
0.00645747
0.00649105
0.00652398
0.00655625
0.00658786
0.00661882
0.00664911
0.00667874
0.00670771
0.00673602
0.00676365
0.00679062
0.00681692
0.00684255
0.00686751
0.00689179
0.0069154
0.00693834
0.00696059
0.00698217
0.00700307
0.00702329
0.00704283
0.00706169
0.00707986
0.00709734
0.00711415
0.00713026
0.00714569
0.00716043
0.00717448
0.00718784
0.00720051
0.00721248
0.00722377
0.00723436
0.00724426
0.00725347
0.00726198
0.0072698
0.00727692
0.00728334
0.00728907
0.00729411
0.00729845
0.00730209
0.00730503
0.00730728
0.00730883
0.00730969
0.00462343
0.00469671
0.00476923
0.00484102
0.00491212
0.00498253
0.00505226
0.00512129
0.00518964
0.0052573
0.00532427
0.00539055
0.00545614
0.00552103
0.00558523
0.00564873
0.00571154
0.00577365
0.00583506
0.00589577
0.00595578
0.00601509
0.0060737
0.00613161
0.00618881
0.00624532
0.00630112
0.00635621
0.0064106
0.00646428
0.00651726
0.00656953
0.00662109
0.00667194
0.00672208
0.0067715
0.00682021
0.00686821
0.00691549
0.00696205
0.0070079
0.00705302
0.00709742
0.0071411
0.00718405
0.00722628
0.00726777
0.00730854
0.00734858
0.00738788
0.00742645
0.00746428
0.00750137
0.00753772
0.00757333
0.0076082
0.00764232
0.0076757
0.00770833
0.00774021
0.00777134
0.00780171
0.00783134
0.0078602
0.00788831
0.00791566
0.00794225
0.00796807
0.00799314
0.00801744
0.00804097
0.00806374
0.00808574
0.00810697
0.00812743
0.00814712
0.00816604
0.00818418
0.00820155
0.00821814
0.00823396
0.00824899
0.00826325
0.00827674
0.00828944
0.00830136
0.0083125
0.00832286
0.00833244
0.00834123
0.00834925
0.00835647
0.00836292
0.00836858
0.00837346
0.00837756
0.00838087
0.00838339
0.00838513
0.00838609
0.00532493
0.00540585
0.00548596
0.0055653
0.0056439
0.00572176
0.00579888
0.00587527
0.00595093
0.00602584
0.00610002
0.00617345
0.00624614
0.00631808
0.00638926
0.00645969
0.00652937
0.00659829
0.00666645
0.00673385
0.00680048
0.00686635
0.00693145
0.00699579
0.00705935
0.00712214
0.00718415
0.0072454
0.00730586
0.00736554
0.00742445
0.00748257
0.00753991
0.00759646
0.00765223
0.00770721
0.00776139
0.00781479
0.00786739
0.00791919
0.00797019
0.0080204
0.0080698
0.0081184
0.00816619
0.00821317
0.00825934
0.00830471
0.00834925
0.00839299
0.0084359
0.00847799
0.00851927
0.00855972
0.00859934
0.00863814
0.00867611
0.00871324
0.00874955
0.00878502
0.00881965
0.00885345
0.0088864
0.00891852
0.00894979
0.00898021
0.00900979
0.00903853
0.00906641
0.00909344
0.00911962
0.00914495
0.00916942
0.00919303
0.00921579
0.00923769
0.00925872
0.0092789
0.00929822
0.00931667
0.00933426
0.00935098
0.00936684
0.00938183
0.00939595
0.00940921
0.0094216
0.00943312
0.00944376
0.00945354
0.00946245
0.00947048
0.00947765
0.00948394
0.00948936
0.00949391
0.00949759
0.0095004
0.00950233
0.00950339
0.00606508
0.0061537
0.00624145
0.00632839
0.00641453
0.00649988
0.00658444
0.00666822
0.00675121
0.00683341
0.00691481
0.00699542
0.00707523
0.00715423
0.00723242
0.0073098
0.00738637
0.00746211
0.00753704
0.00761113
0.0076844
0.00775684
0.00782845
0.00789921
0.00796914
0.00803823
0.00810648
0.00817387
0.00824042
0.00830612
0.00837096
0.00843494
0.00849807
0.00856034
0.00862174
0.00868227
0.00874194
0.00880074
0.00885866
0.00891571
0.00897189
0.00902718
0.00908159
0.00913511
0.00918775
0.00923949
0.00929035
0.00934031
0.00938938
0.00943754
0.00948481
0.00953118
0.00957663
0.00962119
0.00966483
0.00970756
0.00974937
0.00979028
0.00983026
0.00986932
0.00990746
0.00994468
0.00998098
0.0100163
0.0100508
0.0100843
0.0101169
0.0101485
0.0101792
0.010209
0.0102378
0.0102657
0.0102926
0.0103186
0.0103437
0.0103678
0.0103909
0.0104132
0.0104344
0.0104547
0.0104741
0.0104925
0.01051
0.0105265
0.010542
0.0105566
0.0105702
0.0105829
0.0105946
0.0106054
0.0106152
0.010624
0.0106319
0.0106389
0.0106448
0.0106498
0.0106539
0.010657
0.0106591
0.0106603
0.00684353
0.0069399
0.00703534
0.00712991
0.00722363
0.0073165
0.00740854
0.00749973
0.00759008
0.00767959
0.00776824
0.00785604
0.00794299
0.00802907
0.00811428
0.00819862
0.00828208
0.00836466
0.00844635
0.00852715
0.00860706
0.00868607
0.00876418
0.00884139
0.00891769
0.00899307
0.00906754
0.00914109
0.00921373
0.00928543
0.00935621
0.00942606
0.00949497
0.00956294
0.00962998
0.00969607
0.00976122
0.00982542
0.00988866
0.00995096
0.0100123
0.0100727
0.0101321
0.0101905
0.010248
0.0103045
0.01036
0.0104146
0.0104682
0.0105208
0.0105724
0.010623
0.0106727
0.0107213
0.010769
0.0108156
0.0108613
0.0109059
0.0109496
0.0109923
0.0110339
0.0110745
0.0111142
0.0111528
0.0111904
0.0112269
0.0112625
0.0112971
0.0113306
0.0113631
0.0113945
0.011425
0.0114544
0.0114828
0.0115101
0.0115364
0.0115617
0.011586
0.0116092
0.0116313
0.0116525
0.0116726
0.0116916
0.0117096
0.0117266
0.0117425
0.0117574
0.0117712
0.011784
0.0117958
0.0118065
0.0118161
0.0118247
0.0118323
0.0118388
0.0118442
0.0118487
0.011852
0.0118543
0.0118556
0.00766002
0.00776417
0.00786735
0.00796959
0.00807092
0.00817135
0.00827088
0.00836952
0.00846725
0.00856408
0.00866
0.00875501
0.0088491
0.00894227
0.0090345
0.0091258
0.00921616
0.00930558
0.00939404
0.00948155
0.00956809
0.00965368
0.00973829
0.00982192
0.00990458
0.00998626
0.010067
0.0101466
0.0102254
0.0103031
0.0103798
0.0104555
0.0105301
0.0106038
0.0106765
0.0107481
0.0108187
0.0108883
0.0109569
0.0110244
0.0110909
0.0111563
0.0112207
0.0112841
0.0113464
0.0114076
0.0114678
0.011527
0.0115851
0.0116421
0.011698
0.0117529
0.0118067
0.0118594
0.0119111
0.0119617
0.0120112
0.0120596
0.0121069
0.0121531
0.0121983
0.0122423
0.0122852
0.0123271
0.0123678
0.0124075
0.012446
0.0124835
0.0125198
0.012555
0.0125891
0.0126221
0.0126539
0.0126847
0.0127143
0.0127428
0.0127702
0.0127965
0.0128217
0.0128457
0.0128686
0.0128903
0.012911
0.0129305
0.0129489
0.0129661
0.0129822
0.0129972
0.0130111
0.0130238
0.0130354
0.0130458
0.0130552
0.0130633
0.0130704
0.0130763
0.0130811
0.0130847
0.0130872
0.0130886
0.00851435
0.00862633
0.00873728
0.00884723
0.0089562
0.00906421
0.00917126
0.00927735
0.00938249
0.00948666
0.00958986
0.00969208
0.00979332
0.00989358
0.00999284
0.0100911
0.0101884
0.0102846
0.0103798
0.010474
0.0105672
0.0106594
0.0107505
0.0108405
0.0109295
0.0110175
0.0111044
0.0111902
0.011275
0.0113587
0.0114413
0.0115228
0.0116033
0.0116826
0.0117609
0.011838
0.0119141
0.0119891
0.0120629
0.0121356
0.0122073
0.0122777
0.0123471
0.0124154
0.0124825
0.0125485
0.0126133
0.012677
0.0127396
0.012801
0.0128612
0.0129204
0.0129783
0.0130351
0.0130907
0.0131452
0.0131985
0.0132506
0.0133016
0.0133514
0.0134
0.0134474
0.0134937
0.0135387
0.0135826
0.0136253
0.0136668
0.0137071
0.0137462
0.0137841
0.0138208
0.0138564
0.0138907
0.0139238
0.0139557
0.0139864
0.0140159
0.0140442
0.0140712
0.0140971
0.0141218
0.0141452
0.0141674
0.0141884
0.0142082
0.0142268
0.0142441
0.0142602
0.0142751
0.0142888
0.0143013
0.0143126
0.0143226
0.0143314
0.014339
0.0143453
0.0143505
0.0143544
0.0143571
0.0143586
0.00940638
0.00952623
0.00964498
0.00976266
0.0098793
0.00999492
0.0101095
0.0102231
0.0103356
0.0104471
0.0105576
0.0106671
0.0107755
0.0108828
0.0109891
0.0110943
0.0111985
0.0113016
0.0114035
0.0115044
0.0116042
0.0117029
0.0118005
0.011897
0.0119923
0.0120865
0.0121796
0.0122715
0.0123623
0.012452
0.0125405
0.0126278
0.012714
0.012799
0.0128829
0.0129655
0.013047
0.0131273
0.0132064
0.0132843
0.0133611
0.0134366
0.0135109
0.013584
0.0136559
0.0137266
0.0137961
0.0138643
0.0139313
0.0139971
0.0140616
0.0141249
0.014187
0.0142479
0.0143074
0.0143658
0.0144229
0.0144787
0.0145333
0.0145866
0.0146387
0.0146895
0.014739
0.0147872
0.0148342
0.0148799
0.0149244
0.0149675
0.0150094
0.01505
0.0150893
0.0151273
0.0151641
0.0151995
0.0152337
0.0152666
0.0152981
0.0153284
0.0153574
0.0153851
0.0154115
0.0154365
0.0154603
0.0154828
0.015504
0.0155239
0.0155424
0.0155597
0.0155756
0.0155903
0.0156036
0.0156157
0.0156264
0.0156358
0.0156439
0.0156508
0.0156562
0.0156604
0.0156633
0.0156649
0.010336
0.0104638
0.0105903
0.0107158
0.0108401
0.0109634
0.0110855
0.0112066
0.0113265
0.0114454
0.0115632
0.0116799
0.0117954
0.0119099
0.0120232
0.0121354
0.0122464
0.0123563
0.012465
0.0125726
0.012679
0.0127842
0.0128882
0.0129911
0.0130927
0.0131932
0.0132924
0.0133904
0.0134873
0.0135828
0.0136772
0.0137703
0.0138622
0.0139528
0.0140422
0.0141304
0.0142173
0.0143029
0.0143872
0.0144703
0.0145521
0.0146326
0.0147118
0.0147898
0.0148664
0.0149417
0.0150158
0.0150885
0.01516
0.0152301
0.0152989
0.0153664
0.0154325
0.0154974
0.0155609
0.0156231
0.0156839
0.0157434
0.0158016
0.0158584
0.0159139
0.015968
0.0160208
0.0160722
0.0161223
0.016171
0.0162183
0.0162643
0.0163089
0.0163522
0.0163941
0.0164346
0.0164737
0.0165115
0.0165479
0.0165829
0.0166165
0.0166488
0.0166797
0.0167092
0.0167373
0.016764
0.0167893
0.0168133
0.0168358
0.016857
0.0168767
0.0168951
0.0169121
0.0169277
0.0169419
0.0169548
0.0169662
0.0169762
0.0169848
0.0169921
0.0169979
0.0170024
0.0170055
0.0170071
0.0113032
0.0114389
0.0115733
0.0117065
0.0118386
0.0119695
0.0120992
0.0122278
0.0123552
0.0124814
0.0126065
0.0127304
0.0128531
0.0129746
0.0130949
0.013214
0.0133319
0.0134486
0.0135641
0.0136783
0.0137913
0.013903
0.0140135
0.0141227
0.0142306
0.0143373
0.0144426
0.0145467
0.0146495
0.014751
0.0148512
0.0149501
0.0150476
0.0151439
0.0152388
0.0153324
0.0154246
0.0155155
0.015605
0.0156932
0.01578
0.0158655
0.0159496
0.0160323
0.0161137
0.0161937
0.0162723
0.0163495
0.0164253
0.0164997
0.0165727
0.0166444
0.0167146
0.0167834
0.0168508
0.0169168
0.0169813
0.0170445
0.0171062
0.0171665
0.0172254
0.0172828
0.0173388
0.0173933
0.0174465
0.0174981
0.0175484
0.0175971
0.0176445
0.0176904
0.0177348
0.0177778
0.0178193
0.0178593
0.0178979
0.0179351
0.0179707
0.0180049
0.0180377
0.0180689
0.0180988
0.0181271
0.0181539
0.0181793
0.0182032
0.0182257
0.0182467
0.0182661
0.0182842
0.0183007
0.0183158
0.0183293
0.0183415
0.0183521
0.0183612
0.0183689
0.0183751
0.0183798
0.0183831
0.0183848
0.0123079
0.0124515
0.0125938
0.0127348
0.0128746
0.0130132
0.0131505
0.0132865
0.0134214
0.013555
0.0136873
0.0138184
0.0139483
0.0140769
0.0142042
0.0143303
0.014455
0.0145785
0.0147006
0.0148215
0.014941
0.0150592
0.0151761
0.0152917
0.0154059
0.0155187
0.0156302
0.0157403
0.015849
0.0159564
0.0160624
0.016167
0.0162702
0.0163719
0.0164723
0.0165713
0.0166688
0.016765
0.0168597
0.0169529
0.0170448
0.0171351
0.0172241
0.0173116
0.0173976
0.0174821
0.0175653
0.0176469
0.017727
0.0178057
0.0178829
0.0179586
0.0180329
0.0181056
0.0181769
0.0182466
0.0183149
0.0183816
0.0184468
0.0185106
0.0185728
0.0186335
0.0186926
0.0187503
0.0188064
0.018861
0.0189141
0.0189656
0.0190157
0.0190641
0.0191111
0.0191565
0.0192003
0.0192427
0.0192834
0.0193227
0.0193604
0.0193965
0.0194311
0.0194641
0.0194956
0.0195255
0.0195539
0.0195807
0.0196059
0.0196296
0.0196518
0.0196724
0.0196914
0.0197088
0.0197248
0.0197391
0.0197519
0.0197631
0.0197727
0.0197808
0.0197874
0.0197923
0.0197958
0.0197976
0.01335
0.0135016
0.0136518
0.0138007
0.0139482
0.0140944
0.0142393
0.0143829
0.0145251
0.0146661
0.0148057
0.0149441
0.0150811
0.0152167
0.015351
0.015484
0.0156156
0.0157458
0.0158746
0.0160021
0.0161282
0.0162528
0.0163761
0.0164979
0.0166183
0.0167373
0.0168549
0.016971
0.0170856
0.0171988
0.0173105
0.0174208
0.0175296
0.0176369
0.0177427
0.017847
0.0179498
0.0180512
0.018151
0.0182493
0.018346
0.0184413
0.018535
0.0186272
0.0187179
0.018807
0.0188945
0.0189805
0.019065
0.0191479
0.0192292
0.019309
0.0193872
0.0194638
0.0195389
0.0196123
0.0196842
0.0197545
0.0198232
0.0198903
0.0199558
0.0200198
0.0200821
0.0201428
0.0202019
0.0202594
0.0203153
0.0203696
0.0204222
0.0204733
0.0205227
0.0205705
0.0206166
0.0206612
0.0207041
0.0207454
0.0207851
0.0208231
0.0208595
0.0208943
0.0209274
0.0209589
0.0209888
0.021017
0.0210435
0.0210685
0.0210918
0.0211134
0.0211334
0.0211518
0.0211685
0.0211836
0.0211971
0.0212089
0.021219
0.0212275
0.0212344
0.0212396
0.0212432
0.0212451
0.0144296
0.0145892
0.0147473
0.014904
0.0150593
0.0152131
0.0153656
0.0155167
0.0156664
0.0158147
0.0159616
0.0161071
0.0162513
0.016394
0.0165352
0.0166751
0.0168135
0.0169504
0.0170859
0.01722
0.0173525
0.0174836
0.0176132
0.0177413
0.0178679
0.017993
0.0181166
0.0182386
0.0183591
0.0184781
0.0185956
0.0187115
0.0188258
0.0189385
0.0190497
0.0191594
0.0192674
0.0193739
0.0194788
0.019582
0.0196837
0.0197838
0.0198822
0.0199791
0.0200743
0.0201679
0.0202599
0.0203502
0.0204389
0.020526
0.0206114
0.0206952
0.0207773
0.0208577
0.0209365
0.0210137
0.0210891
0.0211629
0.0212351
0.0213055
0.0213743
0.0214414
0.0215068
0.0215706
0.0216326
0.0216929
0.0217516
0.0218086
0.0218638
0.0219174
0.0219693
0.0220194
0.0220679
0.0221146
0.0221596
0.022203
0.0222446
0.0222845
0.0223227
0.0223591
0.0223939
0.0224269
0.0224582
0.0224878
0.0225157
0.0225419
0.0225663
0.022589
0.02261
0.0226292
0.0226468
0.0226626
0.0226767
0.022689
0.0226997
0.0227086
0.0227158
0.0227212
0.022725
0.022727
0.0155466
0.0157142
0.0158802
0.0160448
0.0162078
0.0163693
0.0165294
0.016688
0.0168451
0.0170007
0.0171549
0.0173076
0.0174588
0.0176085
0.0177568
0.0179035
0.0180486
0.0181923
0.0183344
0.018475
0.018614
0.0187515
0.0188874
0.0190217
0.0191545
0.0192856
0.0194152
0.0195431
0.0196695
0.0197942
0.0199173
0.0200387
0.0201586
0.0202767
0.0203933
0.0205082
0.0206214
0.0207329
0.0208428
0.020951
0.0210575
0.0211624
0.0212655
0.0213669
0.0214667
0.0215647
0.021661
0.0217557
0.0218486
0.0219397
0.0220292
0.0221169
0.0222029
0.0222871
0.0223696
0.0224504
0.0225294
0.0226066
0.0226821
0.0227559
0.0228279
0.0228981
0.0229666
0.0230333
0.0230982
0.0231614
0.0232227
0.0232823
0.0233402
0.0233962
0.0234505
0.023503
0.0235536
0.0236025
0.0236497
0.023695
0.0237385
0.0237802
0.0238202
0.0238583
0.0238947
0.0239292
0.023962
0.0239929
0.0240221
0.0240494
0.0240749
0.0240987
0.0241206
0.0241408
0.0241591
0.0241756
0.0241903
0.0242032
0.0242143
0.0242236
0.0242311
0.0242368
0.0242407
0.0242428
0.016701
0.0168766
0.0170506
0.0172229
0.0173937
0.0175629
0.0177305
0.0178966
0.0180611
0.0182241
0.0183855
0.0185454
0.0187037
0.0188604
0.0190155
0.019169
0.019321
0.0194713
0.01962
0.0197671
0.0199125
0.0200563
0.0201985
0.020339
0.0204778
0.020615
0.0207505
0.0208843
0.0210164
0.0211468
0.0212755
0.0214025
0.0215277
0.0216513
0.0217731
0.0218932
0.0220115
0.0221281
0.0222429
0.022356
0.0224673
0.0225768
0.0226846
0.0227906
0.0228948
0.0229972
0.0230978
0.0231966
0.0232937
0.0233889
0.0234823
0.0235739
0.0236637
0.0237517
0.0238378
0.0239221
0.0240046
0.0240853
0.0241641
0.0242411
0.0243163
0.0243896
0.024461
0.0245306
0.0245984
0.0246643
0.0247284
0.0247906
0.0248509
0.0249094
0.024966
0.0250208
0.0250737
0.0251247
0.0251738
0.0252211
0.0252665
0.02531
0.0253517
0.0253915
0.0254294
0.0254654
0.0254996
0.0255318
0.0255622
0.0255907
0.0256174
0.0256421
0.025665
0.025686
0.0257051
0.0257223
0.0257376
0.0257511
0.0257626
0.0257723
0.0257801
0.025786
0.02579
0.0257922
0.0178927
0.0180763
0.0182582
0.0184384
0.0186169
0.0187938
0.0189689
0.0191425
0.0193144
0.0194847
0.0196533
0.0198203
0.0199856
0.0201493
0.0203113
0.0204716
0.0206303
0.0207872
0.0209425
0.021096
0.0212478
0.0213979
0.0215463
0.0216929
0.0218378
0.0219809
0.0221223
0.0222619
0.0223997
0.0225357
0.02267
0.0228024
0.0229331
0.0230619
0.0231889
0.0233141
0.0234375
0.0235591
0.0236788
0.0237967
0.0239127
0.0240269
0.0241392
0.0242497
0.0243582
0.024465
0.0245698
0.0246728
0.0247739
0.0248731
0.0249704
0.0250659
0.0251594
0.025251
0.0253408
0.0254286
0.0255145
0.0255985
0.0256806
0.0257608
0.025839
0.0259154
0.0259898
0.0260623
0.0261328
0.0262014
0.0262681
0.0263329
0.0263957
0.0264565
0.0265155
0.0265724
0.0266275
0.0266806
0.0267317
0.0267809
0.0268282
0.0268735
0.0269168
0.0269582
0.0269976
0.0270351
0.0270706
0.0271042
0.0271358
0.0271654
0.0271931
0.0272189
0.0272426
0.0272644
0.0272843
0.0273022
0.0273181
0.0273321
0.0273441
0.0273541
0.0273622
0.0273684
0.0273725
0.0273747
0.0191217
0.0193134
0.0195032
0.0196912
0.0198774
0.0200618
0.0202446
0.0204256
0.0206048
0.0207824
0.0209582
0.0211323
0.0213046
0.0214752
0.021644
0.0218111
0.0219764
0.0221399
0.0223017
0.0224616
0.0226198
0.0227761
0.0229306
0.0230833
0.0232342
0.0233832
0.0235304
0.0236757
0.0238192
0.0239608
0.0241005
0.0242383
0.0243743
0.0245084
0.0246406
0.0247708
0.0248992
0.0250256
0.0251502
0.0252728
0.0253935
0.0255122
0.025629
0.0257439
0.0258568
0.0259678
0.0260768
0.0261839
0.026289
0.0263921
0.0264933
0.0265924
0.0266897
0.0267849
0.0268781
0.0269694
0.0270587
0.027146
0.0272313
0.0273146
0.0273959
0.0274752
0.0275524
0.0276277
0.027701
0.0277723
0.0278415
0.0279088
0.027974
0.0280372
0.0280984
0.0281576
0.0282147
0.0282698
0.0283229
0.028374
0.028423
0.0284701
0.028515
0.028558
0.0285989
0.0286378
0.0286747
0.0287095
0.0287423
0.028773
0.0288018
0.0288285
0.0288531
0.0288757
0.0288963
0.0289148
0.0289314
0.0289458
0.0289583
0.0289687
0.028977
0.0289833
0.0289876
0.0289899
0.0203879
0.0205876
0.0207853
0.020981
0.021175
0.021367
0.0215573
0.0217457
0.0219323
0.022117
0.0223
0.0224811
0.0226604
0.0228379
0.0230135
0.0231873
0.0233592
0.0235292
0.0236974
0.0238637
0.0240281
0.0241906
0.0243512
0.0245099
0.0246667
0.0248216
0.0249745
0.0251255
0.0252745
0.0254216
0.0255668
0.0257099
0.0258511
0.0259904
0.0261276
0.0262629
0.0263961
0.0265274
0.0266567
0.026784
0.0269092
0.0270325
0.0271537
0.0272729
0.0273901
0.0275052
0.0276183
0.0277294
0.0278384
0.0279454
0.0280503
0.0281532
0.028254
0.0283528
0.0284495
0.0285441
0.0286367
0.0287272
0.0288156
0.028902
0.0289862
0.0290684
0.0291486
0.0292266
0.0293025
0.0293764
0.0294482
0.0295178
0.0295854
0.0296509
0.0297143
0.0297756
0.0298348
0.0298919
0.0299469
0.0299998
0.0300506
0.0300993
0.0301459
0.0301904
0.0302327
0.030273
0.0303112
0.0303472
0.0303812
0.030413
0.0304427
0.0304703
0.0304958
0.0305192
0.0305405
0.0305597
0.0305768
0.0305917
0.0306046
0.0306153
0.0306239
0.0306305
0.0306349
0.0306372
0.0216912
0.0218988
0.0221044
0.0223079
0.0225095
0.0227091
0.0229068
0.0231026
0.0232965
0.0234884
0.0236785
0.0238666
0.0240528
0.0242371
0.0244195
0.0245999
0.0247783
0.0249548
0.0251294
0.025302
0.0254726
0.0256412
0.0258078
0.0259724
0.0261351
0.0262957
0.0264543
0.0266109
0.0267654
0.0269179
0.0270684
0.0272168
0.0273632
0.0275075
0.0276497
0.0277899
0.027928
0.028064
0.028198
0.0283298
0.0284596
0.0285872
0.0287128
0.0288362
0.0289576
0.0290768
0.0291939
0.0293089
0.0294218
0.0295326
0.0296412
0.0297477
0.029852
0.0299542
0.0300543
0.0301522
0.030248
0.0303417
0.0304332
0.0305225
0.0306097
0.0306947
0.0307776
0.0308583
0.0309368
0.0310132
0.0310874
0.0311595
0.0312294
0.0312971
0.0313626
0.031426
0.0314872
0.0315462
0.0316031
0.0316578
0.0317103
0.0317606
0.0318087
0.0318547
0.0318985
0.0319401
0.0319795
0.0320168
0.0320518
0.0320847
0.0321154
0.0321439
0.0321703
0.0321944
0.0322164
0.0322362
0.0322538
0.0322692
0.0322824
0.0322935
0.0323024
0.0323091