/*--------------------------------*- C++ -*----------------------------------*\
  =========                 |
  \\      /  F ield         | OpenFOAM: The Open Source CFD Toolbox
   \\    /   O peration     | Website:  https://openfoam.org
    \\  /    A nd           | Version:  8
     \\/     M anipulation  |
\*---------------------------------------------------------------------------*/
FoamFile
{
    version     2.0;
    format      ascii;
    class       volScalarField;
    location    "2";
    object      p;
}
// * * * * * * * * * * * * * * * * * * * * * * * * * * * * * * * * * * * * * //

dimensions      [0 2 -2 0 0 0 0];

internalField   nonuniform List<scalar> 
262620
(
-0.414129
-0.414239
-0.414586
-0.415111
-0.415796
-0.416641
-0.417637
-0.418773
-0.42004
-0.421431
-0.422937
-0.424549
-0.426262
-0.428066
-0.429956
-0.431924
-0.433964
-0.436071
-0.438237
-0.440458
-0.442728
-0.445042
-0.447396
-0.449785
-0.452204
-0.454649
-0.457117
-0.459603
-0.462105
-0.464619
-0.467142
-0.469671
-0.472203
-0.474737
-0.477268
-0.479796
-0.482318
-0.484833
-0.487337
-0.489831
-0.492312
-0.494778
-0.497229
-0.499663
-0.50208
-0.504477
-0.506855
-0.509212
-0.511548
-0.513861
-0.516152
-0.51842
-0.520664
-0.522884
-0.525079
-0.52725
-0.529396
-0.531517
-0.533612
-0.535682
-0.537726
-0.539745
-0.541739
-0.543707
-0.54565
-0.547567
-0.549459
-0.551326
-0.553169
-0.554986
-0.55678
-0.558548
-0.560294
-0.562015
-0.563713
-0.565388
-0.56704
-0.56867
-0.570277
-0.571862
-0.573427
-0.574969
-0.576492
-0.577993
-0.579475
-0.580937
-0.58238
-0.583803
-0.585208
-0.586595
-0.587964
-0.589316
-0.590651
-0.591969
-0.593271
-0.594557
-0.595827
-0.597083
-0.598323
-0.59955
-0.600762
-0.601961
-0.603147
-0.60432
-0.605481
-0.60663
-0.607767
-0.608892
-0.610007
-0.611111
-0.612206
-0.61329
-0.614365
-0.615431
-0.616488
-0.617536
-0.618577
-0.619612
-0.620645
-0.621633
-0.414061
-0.414172
-0.414516
-0.41504
-0.415725
-0.41657
-0.417565
-0.4187
-0.419967
-0.421358
-0.422863
-0.424475
-0.426188
-0.427992
-0.429882
-0.43185
-0.433891
-0.435997
-0.438164
-0.440385
-0.442656
-0.44497
-0.447325
-0.449714
-0.452133
-0.454579
-0.457048
-0.459535
-0.462038
-0.464553
-0.467076
-0.469606
-0.47214
-0.474674
-0.477206
-0.479735
-0.482259
-0.484774
-0.48728
-0.489775
-0.492257
-0.494724
-0.497176
-0.499612
-0.502029
-0.504428
-0.506807
-0.509165
-0.511502
-0.513817
-0.516109
-0.518379
-0.520624
-0.522845
-0.525042
-0.527214
-0.529361
-0.531484
-0.53358
-0.535652
-0.537697
-0.539718
-0.541713
-0.543682
-0.545626
-0.547545
-0.549438
-0.551307
-0.553151
-0.55497
-0.556764
-0.558535
-0.560281
-0.562004
-0.563703
-0.56538
-0.567033
-0.568664
-0.570273
-0.57186
-0.573425
-0.574969
-0.576493
-0.577996
-0.579479
-0.580942
-0.582386
-0.583811
-0.585218
-0.586606
-0.587976
-0.589329
-0.590665
-0.591985
-0.593288
-0.594575
-0.595847
-0.597104
-0.598345
-0.599573
-0.600787
-0.601987
-0.603174
-0.604349
-0.605511
-0.606661
-0.607799
-0.608926
-0.610042
-0.611148
-0.612243
-0.613329
-0.614405
-0.615472
-0.61653
-0.61758
-0.618622
-0.619659
-0.620693
-0.621683
-0.413941
-0.41405
-0.414393
-0.414915
-0.415599
-0.416443
-0.417437
-0.418571
-0.419838
-0.421228
-0.422732
-0.424345
-0.426057
-0.427861
-0.429751
-0.431719
-0.43376
-0.435867
-0.438034
-0.440256
-0.442528
-0.444843
-0.447199
-0.449589
-0.452009
-0.454457
-0.456926
-0.459415
-0.461919
-0.464436
-0.466961
-0.469492
-0.472028
-0.474564
-0.477098
-0.479629
-0.482154
-0.484672
-0.48718
-0.489676
-0.49216
-0.49463
-0.497084
-0.499522
-0.501942
-0.504343
-0.506724
-0.509085
-0.511424
-0.513741
-0.516036
-0.518307
-0.520555
-0.522779
-0.524978
-0.527152
-0.529302
-0.531426
-0.533526
-0.535599
-0.537648
-0.53967
-0.541667
-0.543639
-0.545586
-0.547507
-0.549402
-0.551273
-0.553119
-0.554941
-0.556738
-0.55851
-0.560259
-0.561984
-0.563685
-0.565364
-0.567019
-0.568653
-0.570263
-0.571852
-0.57342
-0.574966
-0.576492
-0.577997
-0.579482
-0.580947
-0.582393
-0.58382
-0.585228
-0.586619
-0.587991
-0.589346
-0.590684
-0.592005
-0.59331
-0.594599
-0.595872
-0.597131
-0.598375
-0.599604
-0.60082
-0.602022
-0.603211
-0.604387
-0.60555
-0.606702
-0.607842
-0.608971
-0.610089
-0.611196
-0.612293
-0.613381
-0.614459
-0.615528
-0.616588
-0.61764
-0.618684
-0.619722
-0.620759
-0.62175
-0.413762
-0.413869
-0.414209
-0.414729
-0.415411
-0.416253
-0.417245
-0.418379
-0.419644
-0.421033
-0.422537
-0.424149
-0.42586
-0.427664
-0.429554
-0.431523
-0.433564
-0.435672
-0.43784
-0.440062
-0.442335
-0.444651
-0.447008
-0.4494
-0.451822
-0.454271
-0.456742
-0.459233
-0.461739
-0.464258
-0.466786
-0.46932
-0.471857
-0.474396
-0.476933
-0.479467
-0.481995
-0.484515
-0.487026
-0.489526
-0.492013
-0.494486
-0.496943
-0.499384
-0.501807
-0.504212
-0.506596
-0.50896
-0.511303
-0.513624
-0.515922
-0.518196
-0.520448
-0.522675
-0.524878
-0.527056
-0.529209
-0.531337
-0.53344
-0.535517
-0.537569
-0.539595
-0.541596
-0.543571
-0.545521
-0.547446
-0.549345
-0.55122
-0.553069
-0.554894
-0.556694
-0.55847
-0.560223
-0.561951
-0.563656
-0.565338
-0.566997
-0.568633
-0.570248
-0.57184
-0.573411
-0.574961
-0.576489
-0.577998
-0.579486
-0.580955
-0.582404
-0.583834
-0.585245
-0.586639
-0.588014
-0.589372
-0.590713
-0.592038
-0.593346
-0.594638
-0.595915
-0.597176
-0.598423
-0.599656
-0.600874
-0.602079
-0.603271
-0.60445
-0.605617
-0.606771
-0.607914
-0.609046
-0.610167
-0.611277
-0.612377
-0.613467
-0.614548
-0.61562
-0.616683
-0.617738
-0.618784
-0.619826
-0.620865
-0.621859
-0.413526
-0.413629
-0.413966
-0.414483
-0.415163
-0.416002
-0.416992
-0.418123
-0.419387
-0.420775
-0.422278
-0.423889
-0.4256
-0.427404
-0.429294
-0.431263
-0.433304
-0.435413
-0.437582
-0.439806
-0.442079
-0.444398
-0.446756
-0.449149
-0.451574
-0.454025
-0.456499
-0.458993
-0.461502
-0.464023
-0.466554
-0.469091
-0.471632
-0.474174
-0.476715
-0.479252
-0.481784
-0.484308
-0.486823
-0.489326
-0.491818
-0.494295
-0.496757
-0.499202
-0.501629
-0.504038
-0.506427
-0.508796
-0.511143
-0.513468
-0.515771
-0.51805
-0.520306
-0.522538
-0.524746
-0.526929
-0.529086
-0.531219
-0.533327
-0.535409
-0.537465
-0.539496
-0.541502
-0.543482
-0.545436
-0.547366
-0.54927
-0.551149
-0.553003
-0.554832
-0.556637
-0.558418
-0.560175
-0.561908
-0.563617
-0.565303
-0.566967
-0.568608
-0.570227
-0.571823
-0.573398
-0.574952
-0.576485
-0.577998
-0.579491
-0.580963
-0.582416
-0.583851
-0.585266
-0.586664
-0.588043
-0.589405
-0.59075
-0.592078
-0.59339
-0.594686
-0.595967
-0.597232
-0.598483
-0.599719
-0.600942
-0.60215
-0.603346
-0.604529
-0.605699
-0.606857
-0.608004
-0.609139
-0.610264
-0.611378
-0.612481
-0.613575
-0.61466
-0.615735
-0.616802
-0.61786
-0.61891
-0.619955
-0.620998
-0.621995
-0.413234
-0.413332
-0.413665
-0.414179
-0.414855
-0.415691
-0.416678
-0.417808
-0.419069
-0.420455
-0.421957
-0.423567
-0.425278
-0.427081
-0.428971
-0.430941
-0.432983
-0.435092
-0.437262
-0.439487
-0.441763
-0.444083
-0.446443
-0.448839
-0.451266
-0.45372
-0.456197
-0.458694
-0.461207
-0.463732
-0.466266
-0.468807
-0.471352
-0.473898
-0.476444
-0.478985
-0.481522
-0.484051
-0.48657
-0.489079
-0.491576
-0.494058
-0.496525
-0.498975
-0.501408
-0.503823
-0.506217
-0.508591
-0.510944
-0.513275
-0.515583
-0.517869
-0.52013
-0.522368
-0.524581
-0.52677
-0.528934
-0.531072
-0.533186
-0.535273
-0.537336
-0.539373
-0.541384
-0.54337
-0.54533
-0.547265
-0.549175
-0.55106
-0.55292
-0.554755
-0.556566
-0.558352
-0.560114
-0.561853
-0.563568
-0.56526
-0.566929
-0.568575
-0.5702
-0.571802
-0.573382
-0.574942
-0.57648
-0.577998
-0.579496
-0.580974
-0.582432
-0.583871
-0.585292
-0.586695
-0.588079
-0.589446
-0.590796
-0.59213
-0.593447
-0.594747
-0.596033
-0.597303
-0.598559
-0.5998
-0.601027
-0.60224
-0.603441
-0.604628
-0.605803
-0.606966
-0.608117
-0.609257
-0.610386
-0.611505
-0.612613
-0.613711
-0.6148
-0.61588
-0.616951
-0.618014
-0.619068
-0.620118
-0.621165
-0.622166
-0.412886
-0.412979
-0.413307
-0.413817
-0.414489
-0.415321
-0.416306
-0.417432
-0.418692
-0.420076
-0.421576
-0.423185
-0.424895
-0.426698
-0.428588
-0.430557
-0.4326
-0.43471
-0.436882
-0.439109
-0.441386
-0.443709
-0.446071
-0.44847
-0.4509
-0.453358
-0.455838
-0.458339
-0.460855
-0.463385
-0.465924
-0.46847
-0.471019
-0.473571
-0.476121
-0.478668
-0.48121
-0.483745
-0.48627
-0.488785
-0.491287
-0.493776
-0.496249
-0.498706
-0.501145
-0.503566
-0.505967
-0.508348
-0.510707
-0.513045
-0.51536
-0.517652
-0.519921
-0.522165
-0.524385
-0.526581
-0.528752
-0.530897
-0.533017
-0.535112
-0.537182
-0.539225
-0.541244
-0.543236
-0.545204
-0.547146
-0.549062
-0.550954
-0.552821
-0.554663
-0.55648
-0.558273
-0.560043
-0.561788
-0.56351
-0.565208
-0.566884
-0.568536
-0.570167
-0.571776
-0.573363
-0.574928
-0.576473
-0.577997
-0.579501
-0.580985
-0.58245
-0.583895
-0.585322
-0.586731
-0.588122
-0.589494
-0.59085
-0.592189
-0.593512
-0.594819
-0.59611
-0.597386
-0.598647
-0.599894
-0.601127
-0.602346
-0.603551
-0.604744
-0.605925
-0.607093
-0.60825
-0.609395
-0.61053
-0.611653
-0.612767
-0.61387
-0.614965
-0.61605
-0.617126
-0.618194
-0.619254
-0.620308
-0.62136
-0.622366
-0.412485
-0.412572
-0.412894
-0.413398
-0.414066
-0.414894
-0.415875
-0.416998
-0.418255
-0.419637
-0.421135
-0.422743
-0.424452
-0.426255
-0.428144
-0.430114
-0.432158
-0.434269
-0.436442
-0.438671
-0.44095
-0.443276
-0.445641
-0.448043
-0.450477
-0.452938
-0.455423
-0.457928
-0.460449
-0.462983
-0.465528
-0.468079
-0.470634
-0.473191
-0.475748
-0.478301
-0.480849
-0.48339
-0.485923
-0.488444
-0.490953
-0.493449
-0.495929
-0.498394
-0.50084
-0.503268
-0.505677
-0.508066
-0.510433
-0.512778
-0.515101
-0.517401
-0.519678
-0.52193
-0.524158
-0.526362
-0.528541
-0.530694
-0.532822
-0.534925
-0.537003
-0.539054
-0.541081
-0.543082
-0.545057
-0.547007
-0.548932
-0.550831
-0.552706
-0.554556
-0.556381
-0.558182
-0.559959
-0.561712
-0.563441
-0.565147
-0.56683
-0.568491
-0.570129
-0.571745
-0.573339
-0.574913
-0.576465
-0.577996
-0.579507
-0.580999
-0.58247
-0.583923
-0.585357
-0.586772
-0.58817
-0.58955
-0.590913
-0.592258
-0.593588
-0.594901
-0.596199
-0.597482
-0.59875
-0.600003
-0.601242
-0.602468
-0.60368
-0.604879
-0.606066
-0.607241
-0.608404
-0.609555
-0.610696
-0.611826
-0.612945
-0.614055
-0.615155
-0.616246
-0.617329
-0.618403
-0.619468
-0.620529
-0.621587
-0.622598
-0.412031
-0.41211
-0.412427
-0.412925
-0.413587
-0.41441
-0.415387
-0.416507
-0.41776
-0.41914
-0.420636
-0.422242
-0.42395
-0.425752
-0.427642
-0.429612
-0.431657
-0.433769
-0.435944
-0.438175
-0.440457
-0.442785
-0.445154
-0.44756
-0.449997
-0.452463
-0.454952
-0.457462
-0.459989
-0.462529
-0.465079
-0.467636
-0.470198
-0.472761
-0.475325
-0.477885
-0.48044
-0.482989
-0.485529
-0.488058
-0.490575
-0.493078
-0.495567
-0.498039
-0.500494
-0.502931
-0.505348
-0.507745
-0.510121
-0.512476
-0.514808
-0.517116
-0.519402
-0.521663
-0.523901
-0.526113
-0.528301
-0.530464
-0.532601
-0.534713
-0.536799
-0.53886
-0.540896
-0.542906
-0.54489
-0.546849
-0.548783
-0.550691
-0.552575
-0.554434
-0.556268
-0.558078
-0.559863
-0.561625
-0.563363
-0.565078
-0.56677
-0.568439
-0.570085
-0.57171
-0.573313
-0.574894
-0.576454
-0.577994
-0.579514
-0.581013
-0.582493
-0.583954
-0.585395
-0.586819
-0.588224
-0.589612
-0.590982
-0.592336
-0.593673
-0.594994
-0.5963
-0.59759
-0.598865
-0.600126
-0.601372
-0.602605
-0.603824
-0.605031
-0.606225
-0.607407
-0.608577
-0.609735
-0.610883
-0.61202
-0.613146
-0.614263
-0.61537
-0.616468
-0.617557
-0.618638
-0.61971
-0.620777
-0.621842
-0.622859
-0.411525
-0.411596
-0.411905
-0.412397
-0.413053
-0.413871
-0.414844
-0.415959
-0.417209
-0.418586
-0.42008
-0.421684
-0.423391
-0.425193
-0.427082
-0.429053
-0.431098
-0.433212
-0.435389
-0.437622
-0.439907
-0.442238
-0.444611
-0.44702
-0.449462
-0.451933
-0.454427
-0.456943
-0.459475
-0.462021
-0.464578
-0.467142
-0.469711
-0.472282
-0.474852
-0.47742
-0.479984
-0.482541
-0.485089
-0.487626
-0.490152
-0.492665
-0.495162
-0.497644
-0.500108
-0.502555
-0.504981
-0.507388
-0.509774
-0.512138
-0.51448
-0.516798
-0.519094
-0.521365
-0.523613
-0.525835
-0.528033
-0.530206
-0.532353
-0.534476
-0.536572
-0.538643
-0.540689
-0.542709
-0.544703
-0.546672
-0.548616
-0.550535
-0.552428
-0.554297
-0.556141
-0.557961
-0.559756
-0.561528
-0.563275
-0.565
-0.566701
-0.56838
-0.570036
-0.57167
-0.573282
-0.574873
-0.576443
-0.577992
-0.57952
-0.581029
-0.582518
-0.583987
-0.585438
-0.58687
-0.588284
-0.589681
-0.59106
-0.592422
-0.593768
-0.595097
-0.596411
-0.59771
-0.598993
-0.600262
-0.601517
-0.602758
-0.603985
-0.6052
-0.606402
-0.607592
-0.608769
-0.609936
-0.611091
-0.612236
-0.61337
-0.614494
-0.615609
-0.616715
-0.617811
-0.618899
-0.619979
-0.621054
-0.622126
-0.623149
-0.410968
-0.41103
-0.411332
-0.411816
-0.412465
-0.413278
-0.414245
-0.415356
-0.416603
-0.417976
-0.419468
-0.42107
-0.422775
-0.424576
-0.426466
-0.428437
-0.430483
-0.432598
-0.434777
-0.437013
-0.439301
-0.441635
-0.444012
-0.446426
-0.448873
-0.451349
-0.453849
-0.45637
-0.458909
-0.461462
-0.464026
-0.466597
-0.469174
-0.471753
-0.474332
-0.476908
-0.479481
-0.482046
-0.484604
-0.487151
-0.489686
-0.492209
-0.494716
-0.497208
-0.499683
-0.502139
-0.504577
-0.506994
-0.50939
-0.511765
-0.514118
-0.516447
-0.518754
-0.521036
-0.523295
-0.525529
-0.527738
-0.529922
-0.53208
-0.534214
-0.536321
-0.538404
-0.54046
-0.542491
-0.544497
-0.546477
-0.548432
-0.550362
-0.552266
-0.554146
-0.556001
-0.557831
-0.559638
-0.56142
-0.563178
-0.564914
-0.566626
-0.568315
-0.569981
-0.571626
-0.573248
-0.574849
-0.576429
-0.577988
-0.579527
-0.581045
-0.582544
-0.584024
-0.585484
-0.586926
-0.58835
-0.589756
-0.591145
-0.592516
-0.593871
-0.59521
-0.596533
-0.597841
-0.599134
-0.600412
-0.601675
-0.602925
-0.604162
-0.605385
-0.606596
-0.607794
-0.608981
-0.610156
-0.61132
-0.612473
-0.613616
-0.614749
-0.615872
-0.616986
-0.618091
-0.619187
-0.620275
-0.621358
-0.622438
-0.623469
-0.410361
-0.410413
-0.410706
-0.411183
-0.411825
-0.412631
-0.413593
-0.414699
-0.415941
-0.417311
-0.4188
-0.4204
-0.422104
-0.423904
-0.425793
-0.427765
-0.429812
-0.431929
-0.43411
-0.436349
-0.43864
-0.440978
-0.443359
-0.445778
-0.44823
-0.450712
-0.453218
-0.455746
-0.458292
-0.460852
-0.463423
-0.466003
-0.468588
-0.471176
-0.473764
-0.47635
-0.478931
-0.481507
-0.484074
-0.486632
-0.489178
-0.491711
-0.494229
-0.496732
-0.499218
-0.501686
-0.504134
-0.506563
-0.508971
-0.511358
-0.513722
-0.516064
-0.518382
-0.520677
-0.522947
-0.525193
-0.527415
-0.529611
-0.531782
-0.533927
-0.536047
-0.538142
-0.54021
-0.542254
-0.544271
-0.546264
-0.548231
-0.550172
-0.552089
-0.55398
-0.555847
-0.55769
-0.559508
-0.561302
-0.563072
-0.564819
-0.566542
-0.568243
-0.569921
-0.571577
-0.57321
-0.574823
-0.576414
-0.577984
-0.579533
-0.581063
-0.582573
-0.584063
-0.585534
-0.586987
-0.588421
-0.589838
-0.591237
-0.592619
-0.593984
-0.595333
-0.596666
-0.597984
-0.599286
-0.600574
-0.601848
-0.603108
-0.604354
-0.605587
-0.606807
-0.608015
-0.609211
-0.610396
-0.611569
-0.612731
-0.613883
-0.615025
-0.616158
-0.617281
-0.618395
-0.6195
-0.620597
-0.621689
-0.622778
-0.623817
-0.409704
-0.409746
-0.410031
-0.410499
-0.411133
-0.411932
-0.412888
-0.413989
-0.415226
-0.416592
-0.418078
-0.419676
-0.421378
-0.423177
-0.425066
-0.427038
-0.429087
-0.431205
-0.433388
-0.43563
-0.437925
-0.440267
-0.442653
-0.445077
-0.447535
-0.450022
-0.452535
-0.45507
-0.457624
-0.460192
-0.462772
-0.46536
-0.467954
-0.470551
-0.473149
-0.475745
-0.478337
-0.480923
-0.483501
-0.48607
-0.488627
-0.491172
-0.493702
-0.496216
-0.498714
-0.501194
-0.503656
-0.506097
-0.508518
-0.510917
-0.513294
-0.515649
-0.51798
-0.520288
-0.522571
-0.52483
-0.527064
-0.529274
-0.531458
-0.533616
-0.53575
-0.537857
-0.539939
-0.541996
-0.544027
-0.546032
-0.548012
-0.549967
-0.551896
-0.553801
-0.55568
-0.557536
-0.559366
-0.561173
-0.562956
-0.564715
-0.566451
-0.568164
-0.569855
-0.571523
-0.573169
-0.574793
-0.576396
-0.577978
-0.57954
-0.581081
-0.582603
-0.584105
-0.585587
-0.587051
-0.588497
-0.589925
-0.591336
-0.592729
-0.594105
-0.595465
-0.596809
-0.598138
-0.599451
-0.60075
-0.602034
-0.603304
-0.604561
-0.605804
-0.607035
-0.608253
-0.60946
-0.610654
-0.611838
-0.61301
-0.614172
-0.615324
-0.616466
-0.617599
-0.618723
-0.619838
-0.620945
-0.622046
-0.623145
-0.624192
-0.409
-0.409031
-0.409305
-0.409764
-0.41039
-0.411182
-0.412131
-0.413226
-0.414458
-0.41582
-0.417303
-0.418898
-0.420599
-0.422397
-0.424285
-0.426258
-0.428308
-0.430428
-0.432614
-0.434858
-0.437157
-0.439504
-0.441894
-0.444324
-0.446787
-0.449281
-0.451802
-0.454344
-0.456905
-0.459482
-0.462071
-0.464669
-0.467272
-0.469879
-0.472488
-0.475094
-0.477697
-0.480295
-0.482885
-0.485465
-0.488035
-0.490592
-0.493134
-0.495662
-0.498173
-0.500666
-0.50314
-0.505595
-0.508029
-0.510442
-0.512833
-0.515202
-0.517547
-0.519868
-0.522166
-0.524439
-0.526687
-0.528911
-0.531109
-0.533282
-0.535429
-0.537551
-0.539647
-0.541718
-0.543763
-0.545782
-0.547776
-0.549745
-0.551688
-0.553607
-0.5555
-0.557369
-0.559214
-0.561034
-0.562831
-0.564604
-0.566353
-0.568079
-0.569783
-0.571464
-0.573123
-0.574761
-0.576377
-0.577972
-0.579546
-0.5811
-0.582634
-0.584149
-0.585644
-0.58712
-0.588578
-0.590019
-0.591441
-0.592846
-0.594234
-0.595606
-0.596962
-0.598302
-0.599627
-0.600938
-0.602233
-0.603515
-0.604783
-0.606038
-0.607279
-0.608509
-0.609726
-0.610932
-0.612126
-0.613309
-0.614482
-0.615645
-0.616798
-0.617941
-0.619075
-0.620201
-0.621318
-0.62243
-0.623539
-0.624595
-0.408248
-0.408267
-0.408531
-0.40898
-0.409597
-0.410381
-0.411323
-0.412412
-0.413639
-0.414996
-0.416475
-0.418068
-0.419766
-0.421563
-0.423452
-0.425425
-0.427475
-0.429598
-0.431786
-0.434034
-0.436336
-0.438688
-0.441084
-0.443519
-0.445989
-0.44849
-0.451018
-0.453568
-0.456138
-0.458724
-0.461322
-0.46393
-0.466544
-0.469162
-0.471781
-0.474399
-0.477014
-0.479624
-0.482226
-0.484819
-0.487402
-0.489972
-0.492528
-0.495069
-0.497593
-0.500101
-0.502589
-0.505058
-0.507507
-0.509934
-0.51234
-0.514723
-0.517083
-0.51942
-0.521732
-0.52402
-0.526284
-0.528522
-0.530736
-0.532924
-0.535086
-0.537223
-0.539334
-0.54142
-0.54348
-0.545515
-0.547523
-0.549507
-0.551465
-0.553399
-0.555307
-0.557191
-0.55905
-0.560885
-0.562696
-0.564483
-0.566247
-0.567988
-0.569706
-0.571401
-0.573074
-0.574725
-0.576355
-0.577964
-0.579552
-0.58112
-0.582667
-0.584195
-0.585704
-0.587193
-0.588664
-0.590118
-0.591553
-0.592971
-0.594372
-0.595757
-0.597125
-0.598478
-0.599815
-0.601138
-0.602445
-0.603739
-0.605019
-0.606286
-0.60754
-0.608781
-0.61001
-0.611227
-0.612433
-0.613628
-0.614812
-0.615987
-0.617151
-0.618306
-0.619451
-0.620588
-0.621716
-0.622839
-0.623959
-0.625026
-0.40745
-0.407456
-0.407709
-0.408147
-0.408755
-0.40953
-0.410464
-0.411547
-0.412769
-0.414121
-0.415596
-0.417186
-0.418882
-0.420678
-0.422566
-0.424539
-0.426591
-0.428716
-0.430907
-0.433158
-0.435464
-0.437821
-0.440222
-0.442664
-0.445141
-0.447649
-0.450185
-0.452744
-0.455323
-0.457918
-0.460526
-0.463144
-0.465769
-0.468398
-0.471029
-0.47366
-0.476287
-0.47891
-0.481525
-0.484132
-0.486728
-0.489312
-0.491882
-0.494438
-0.496977
-0.499499
-0.502003
-0.504487
-0.506951
-0.509394
-0.511815
-0.514214
-0.51659
-0.518942
-0.52127
-0.523575
-0.525854
-0.528109
-0.530338
-0.532542
-0.53472
-0.536873
-0.539001
-0.541103
-0.543178
-0.545229
-0.547254
-0.549253
-0.551228
-0.553177
-0.555101
-0.557
-0.558875
-0.560725
-0.562552
-0.564354
-0.566133
-0.567889
-0.569622
-0.571333
-0.573021
-0.574687
-0.576331
-0.577955
-0.579557
-0.581139
-0.582701
-0.584243
-0.585766
-0.58727
-0.588755
-0.590222
-0.591671
-0.593103
-0.594517
-0.595915
-0.597297
-0.598663
-0.600014
-0.601349
-0.60267
-0.603977
-0.60527
-0.606549
-0.607816
-0.60907
-0.610311
-0.611541
-0.612759
-0.613966
-0.615163
-0.616349
-0.617525
-0.618692
-0.61985
-0.620999
-0.622139
-0.623274
-0.624405
-0.625482
-0.406606
-0.406599
-0.406839
-0.407267
-0.407865
-0.408631
-0.409557
-0.410633
-0.411848
-0.413196
-0.414667
-0.416253
-0.417948
-0.419742
-0.421629
-0.423603
-0.425656
-0.427783
-0.429976
-0.432231
-0.434542
-0.436904
-0.439311
-0.441758
-0.444243
-0.446759
-0.449303
-0.451871
-0.454459
-0.457064
-0.459683
-0.462312
-0.464949
-0.46759
-0.470234
-0.472877
-0.475517
-0.478153
-0.480782
-0.483403
-0.486014
-0.488613
-0.491198
-0.493769
-0.496324
-0.498861
-0.501381
-0.503881
-0.506361
-0.508821
-0.511258
-0.513674
-0.516066
-0.518435
-0.520781
-0.523102
-0.525398
-0.527669
-0.529916
-0.532137
-0.534332
-0.536502
-0.538647
-0.540765
-0.542858
-0.544926
-0.546967
-0.548984
-0.550975
-0.55294
-0.554881
-0.556797
-0.558688
-0.560555
-0.562398
-0.564217
-0.566012
-0.567784
-0.569533
-0.571259
-0.572963
-0.574645
-0.576305
-0.577944
-0.579562
-0.581159
-0.582736
-0.584294
-0.585831
-0.58735
-0.58885
-0.590331
-0.591795
-0.593241
-0.59467
-0.596083
-0.597479
-0.598859
-0.600223
-0.601572
-0.602907
-0.604228
-0.605534
-0.606827
-0.608107
-0.609374
-0.610629
-0.611872
-0.613103
-0.614324
-0.615533
-0.616732
-0.617921
-0.619101
-0.620271
-0.621433
-0.622586
-0.623733
-0.624877
-0.625965
-0.405718
-0.405696
-0.405924
-0.40634
-0.406927
-0.407684
-0.408601
-0.409669
-0.410879
-0.412221
-0.413688
-0.415271
-0.416962
-0.418755
-0.420642
-0.422616
-0.424671
-0.426799
-0.428996
-0.431254
-0.43357
-0.435937
-0.43835
-0.440804
-0.443296
-0.44582
-0.448373
-0.45095
-0.453548
-0.456164
-0.458794
-0.461435
-0.464084
-0.466737
-0.469394
-0.47205
-0.474705
-0.477355
-0.479999
-0.482635
-0.48526
-0.487875
-0.490476
-0.493063
-0.495634
-0.498188
-0.500724
-0.503241
-0.505739
-0.508215
-0.51067
-0.513103
-0.515513
-0.5179
-0.520263
-0.522602
-0.524916
-0.527205
-0.52947
-0.531709
-0.533922
-0.53611
-0.538272
-0.540409
-0.54252
-0.544605
-0.546664
-0.548698
-0.550707
-0.55269
-0.554649
-0.556582
-0.558491
-0.560375
-0.562235
-0.564071
-0.565883
-0.567672
-0.569438
-0.571181
-0.572902
-0.5746
-0.576277
-0.577932
-0.579566
-0.581179
-0.582772
-0.584346
-0.585899
-0.587433
-0.588949
-0.590446
-0.591925
-0.593386
-0.594831
-0.596258
-0.597669
-0.599064
-0.600443
-0.601807
-0.603156
-0.604491
-0.605812
-0.607119
-0.608413
-0.609695
-0.610963
-0.61222
-0.613465
-0.614699
-0.615923
-0.617135
-0.618338
-0.619531
-0.620715
-0.621889
-0.623056
-0.624216
-0.625373
-0.626473
-0.404785
-0.404748
-0.404963
-0.405367
-0.405942
-0.406689
-0.407598
-0.408658
-0.409861
-0.411197
-0.412659
-0.414239
-0.415928
-0.417719
-0.419606
-0.42158
-0.423636
-0.425766
-0.427966
-0.430228
-0.432548
-0.434921
-0.43734
-0.439802
-0.442301
-0.444834
-0.447395
-0.449983
-0.452591
-0.455218
-0.45786
-0.460512
-0.463174
-0.465841
-0.468511
-0.471182
-0.473851
-0.476516
-0.479175
-0.481826
-0.484468
-0.487099
-0.489716
-0.49232
-0.494908
-0.49748
-0.500033
-0.502568
-0.505083
-0.507578
-0.510051
-0.512502
-0.514931
-0.517336
-0.519718
-0.522075
-0.524408
-0.526716
-0.528999
-0.531257
-0.533489
-0.535696
-0.537877
-0.540033
-0.542162
-0.544266
-0.546344
-0.548397
-0.550424
-0.552426
-0.554403
-0.556355
-0.558282
-0.560184
-0.562062
-0.563916
-0.565747
-0.567553
-0.569337
-0.571097
-0.572836
-0.574551
-0.576245
-0.577918
-0.579569
-0.581199
-0.582809
-0.584399
-0.585969
-0.58752
-0.589052
-0.590565
-0.592061
-0.593538
-0.594998
-0.596441
-0.597868
-0.599278
-0.600673
-0.602053
-0.603417
-0.604767
-0.606103
-0.607425
-0.608734
-0.61003
-0.611314
-0.612585
-0.613845
-0.615094
-0.616331
-0.617558
-0.618775
-0.619982
-0.62118
-0.622369
-0.623549
-0.624724
-0.625894
-0.627006
-0.403809
-0.403757
-0.403958
-0.404348
-0.404912
-0.405649
-0.406548
-0.4076
-0.408795
-0.410126
-0.411583
-0.413159
-0.414845
-0.416635
-0.41852
-0.420495
-0.422552
-0.424685
-0.426887
-0.429154
-0.431479
-0.433857
-0.436282
-0.438751
-0.441259
-0.4438
-0.446371
-0.448969
-0.451588
-0.454227
-0.45688
-0.459546
-0.46222
-0.464901
-0.467585
-0.470271
-0.472955
-0.475635
-0.478311
-0.480978
-0.483637
-0.486284
-0.488919
-0.491541
-0.494147
-0.496736
-0.499308
-0.501862
-0.504396
-0.506909
-0.509401
-0.511872
-0.514319
-0.516744
-0.519145
-0.521522
-0.523875
-0.526203
-0.528505
-0.530783
-0.533035
-0.535261
-0.537462
-0.539637
-0.541786
-0.54391
-0.546008
-0.54808
-0.550127
-0.552148
-0.554144
-0.556115
-0.558061
-0.559983
-0.56188
-0.563753
-0.565602
-0.567427
-0.56923
-0.571009
-0.572765
-0.574499
-0.576211
-0.577902
-0.579571
-0.581219
-0.582847
-0.584454
-0.586042
-0.58761
-0.589159
-0.590689
-0.592202
-0.593696
-0.595173
-0.596633
-0.598076
-0.599503
-0.600914
-0.602309
-0.60369
-0.605056
-0.606407
-0.607745
-0.60907
-0.610382
-0.611681
-0.612967
-0.614242
-0.615506
-0.616759
-0.618001
-0.619233
-0.620455
-0.621667
-0.622871
-0.624066
-0.625255
-0.62644
-0.627565
-0.402791
-0.402722
-0.402908
-0.403285
-0.403837
-0.404562
-0.405452
-0.406495
-0.407683
-0.409007
-0.410459
-0.412031
-0.413714
-0.415502
-0.417387
-0.419362
-0.42142
-0.423555
-0.42576
-0.428031
-0.430361
-0.432745
-0.435177
-0.437654
-0.44017
-0.44272
-0.445301
-0.447909
-0.45054
-0.45319
-0.455856
-0.458535
-0.461223
-0.463918
-0.466617
-0.469318
-0.472018
-0.474715
-0.477407
-0.480091
-0.482767
-0.485432
-0.488086
-0.490725
-0.49335
-0.495958
-0.498549
-0.501122
-0.503676
-0.506209
-0.508721
-0.511211
-0.513679
-0.516124
-0.518546
-0.520943
-0.523316
-0.525664
-0.527988
-0.530286
-0.532558
-0.534805
-0.537027
-0.539222
-0.541392
-0.543536
-0.545655
-0.547747
-0.549814
-0.551856
-0.553872
-0.555863
-0.55783
-0.559771
-0.561688
-0.563581
-0.56545
-0.567295
-0.569116
-0.570915
-0.57269
-0.574444
-0.576175
-0.577884
-0.579572
-0.581239
-0.582885
-0.58451
-0.586116
-0.587703
-0.58927
-0.590818
-0.592348
-0.59386
-0.595354
-0.596831
-0.598292
-0.599736
-0.601164
-0.602576
-0.603974
-0.605356
-0.606725
-0.608079
-0.60942
-0.610748
-0.612063
-0.613366
-0.614657
-0.615936
-0.617205
-0.618462
-0.61971
-0.620947
-0.622176
-0.623394
-0.624604
-0.625809
-0.627009
-0.628147
-0.40173
-0.401645
-0.401816
-0.402179
-0.402718
-0.403431
-0.404311
-0.405345
-0.406525
-0.407843
-0.409289
-0.410856
-0.412537
-0.414322
-0.416206
-0.418181
-0.42024
-0.422378
-0.424587
-0.426861
-0.429196
-0.431586
-0.434026
-0.43651
-0.439034
-0.441594
-0.444186
-0.446804
-0.449447
-0.452109
-0.454788
-0.457481
-0.460183
-0.462893
-0.465608
-0.468324
-0.471041
-0.473754
-0.476463
-0.479166
-0.48186
-0.484543
-0.487215
-0.489874
-0.492518
-0.495146
-0.497757
-0.50035
-0.502924
-0.505477
-0.50801
-0.510521
-0.51301
-0.515476
-0.517919
-0.520338
-0.522732
-0.525102
-0.527446
-0.529766
-0.53206
-0.534329
-0.536571
-0.538789
-0.54098
-0.543145
-0.545285
-0.547399
-0.549487
-0.55155
-0.553587
-0.5556
-0.557587
-0.559549
-0.561487
-0.5634
-0.565289
-0.567155
-0.568996
-0.570815
-0.572611
-0.574384
-0.576135
-0.577864
-0.579571
-0.581258
-0.582923
-0.584568
-0.586193
-0.587798
-0.589384
-0.590951
-0.592499
-0.594029
-0.595542
-0.597037
-0.598516
-0.599978
-0.601423
-0.602854
-0.604268
-0.605669
-0.607054
-0.608426
-0.609784
-0.611129
-0.612461
-0.61378
-0.615088
-0.616384
-0.617669
-0.618943
-0.620207
-0.62146
-0.622705
-0.62394
-0.625166
-0.626386
-0.627602
-0.628754
-0.400629
-0.400526
-0.400681
-0.401029
-0.401555
-0.402256
-0.403125
-0.40415
-0.405321
-0.406632
-0.408073
-0.409636
-0.411313
-0.413096
-0.414979
-0.416954
-0.419014
-0.421154
-0.423366
-0.425645
-0.427985
-0.430381
-0.432828
-0.43532
-0.437853
-0.440423
-0.443025
-0.445655
-0.44831
-0.450985
-0.453677
-0.456384
-0.459101
-0.461826
-0.464557
-0.46729
-0.470023
-0.472754
-0.475481
-0.478202
-0.480914
-0.483617
-0.486309
-0.488987
-0.491651
-0.4943
-0.496931
-0.499545
-0.50214
-0.504715
-0.507269
-0.509802
-0.512313
-0.514801
-0.517265
-0.519706
-0.522123
-0.524515
-0.526882
-0.529224
-0.53154
-0.533831
-0.536096
-0.538336
-0.540549
-0.542737
-0.544899
-0.547035
-0.549145
-0.55123
-0.553289
-0.555323
-0.557332
-0.559316
-0.561275
-0.56321
-0.565121
-0.567007
-0.56887
-0.57071
-0.572527
-0.574321
-0.576092
-0.577842
-0.579569
-0.581276
-0.582961
-0.584626
-0.586271
-0.587896
-0.589501
-0.591087
-0.592655
-0.594205
-0.595736
-0.597251
-0.598748
-0.600228
-0.601693
-0.603141
-0.604574
-0.605992
-0.607396
-0.608786
-0.610161
-0.611524
-0.612873
-0.61421
-0.615535
-0.616849
-0.618151
-0.619442
-0.620723
-0.621993
-0.623254
-0.624506
-0.625749
-0.626986
-0.628218
-0.629385
-0.399487
-0.399365
-0.399504
-0.399837
-0.400349
-0.401038
-0.401895
-0.40291
-0.404073
-0.405377
-0.406812
-0.40837
-0.410043
-0.411824
-0.413706
-0.415681
-0.417743
-0.419884
-0.4221
-0.424383
-0.426729
-0.429131
-0.431585
-0.434085
-0.436628
-0.439207
-0.44182
-0.444462
-0.447129
-0.449817
-0.452523
-0.455244
-0.457977
-0.460718
-0.463465
-0.466215
-0.468966
-0.471715
-0.47446
-0.4772
-0.479932
-0.482654
-0.485366
-0.488065
-0.49075
-0.49342
-0.496073
-0.498708
-0.501325
-0.503922
-0.506499
-0.509054
-0.511587
-0.514098
-0.516585
-0.519049
-0.521488
-0.523903
-0.526294
-0.528659
-0.530998
-0.533312
-0.535601
-0.537863
-0.5401
-0.542311
-0.544496
-0.546655
-0.548788
-0.550896
-0.552978
-0.555035
-0.557066
-0.559073
-0.561054
-0.563011
-0.564944
-0.566853
-0.568738
-0.570599
-0.572438
-0.574253
-0.576046
-0.577817
-0.579566
-0.581293
-0.583
-0.584685
-0.586351
-0.587996
-0.589622
-0.591228
-0.592816
-0.594385
-0.595937
-0.597471
-0.598987
-0.600487
-0.601971
-0.603438
-0.604891
-0.606328
-0.60775
-0.609158
-0.610552
-0.611933
-0.613301
-0.614656
-0.615999
-0.61733
-0.61865
-0.619959
-0.621258
-0.622546
-0.623824
-0.625093
-0.626354
-0.627608
-0.628857
-0.630039
-0.398306
-0.398165
-0.398287
-0.398604
-0.399101
-0.399777
-0.400623
-0.401627
-0.402782
-0.404077
-0.405506
-0.407059
-0.408729
-0.410507
-0.412388
-0.414363
-0.416425
-0.418569
-0.420788
-0.423076
-0.425427
-0.427836
-0.430297
-0.432806
-0.435357
-0.437947
-0.440571
-0.443225
-0.445905
-0.448606
-0.451327
-0.454063
-0.456811
-0.459569
-0.462333
-0.4651
-0.467869
-0.470637
-0.473401
-0.47616
-0.478912
-0.481655
-0.484388
-0.487108
-0.489814
-0.492506
-0.495181
-0.497839
-0.500478
-0.503098
-0.505698
-0.508276
-0.510833
-0.513367
-0.515878
-0.518366
-0.520829
-0.523268
-0.525682
-0.528071
-0.530435
-0.532773
-0.535085
-0.537372
-0.539633
-0.541867
-0.544076
-0.546259
-0.548416
-0.550548
-0.552653
-0.554734
-0.556789
-0.558818
-0.560823
-0.562804
-0.564759
-0.566691
-0.568599
-0.570483
-0.572344
-0.574181
-0.575997
-0.57779