# Forces      
# CofR        : (0.000000e+00 0.000000e+00 0.000000e+00)
# Time        forces(pressure viscous porous)	moments(pressure viscous porous)
0             	((0.000000e+00 0.000000e+00 0.000000e+00) (5.172985e-02 6.482489e-18 2.319146e-28) (0.000000e+00 0.000000e+00 0.000000e+00)) ((0.000000e+00 0.000000e+00 0.000000e+00) (-1.901704e-24 1.646623e-23 6.749794e-19) (0.000000e+00 0.000000e+00 0.000000e+00))
0.25          	((3.223947e-01 2.571704e-03 3.131060e-22) (3.510308e-02 7.112241e-06 8.854212e-25) (0.000000e+00 0.000000e+00 0.000000e+00)) ((2.143521e-23 2.665408e-22 2.344570e-05) (-1.664942e-25 4.853195e-25 3.961404e-06) (0.000000e+00 0.000000e+00 0.000000e+00))
0.5           	((2.248248e-01 -8.272031e-04 2.574337e-22) (3.137714e-02 1.007452e-05 2.061533e-25) (0.000000e+00 0.000000e+00 0.000000e+00)) ((7.216111e-24 2.233369e-22 -1.670032e-03) (-1.426984e-25 4.658982e-25 3.303843e-06) (0.000000e+00 0.000000e+00 0.000000e+00))
0.75          	((1.863135e-01 -2.550952e-03 2.276295e-22) (3.005446e-02 6.400712e-06 9.021681e-25) (0.000000e+00 0.000000e+00 0.000000e+00)) ((-1.244426e-24 2.159071e-22 -2.117737e-03) (-1.321552e-25 3.466094e-25 3.178589e-07) (0.000000e+00 0.000000e+00 0.000000e+00))
1             	((1.630478e-01 -3.224846e-03 2.210153e-22) (2.951832e-02 8.087730e-09 1.365755e-24) (0.000000e+00 0.000000e+00 0.000000e+00)) ((-8.123477e-24 2.133444e-22 -1.926370e-03) (-1.189352e-25 2.505927e-25 -2.571654e-06) (0.000000e+00 0.000000e+00 0.000000e+00))
1.25          	((1.428830e-01 3.290600e-04 2.444457e-22) (2.953612e-02 2.017090e-06 1.502556e-24) (0.000000e+00 0.000000e+00 0.000000e+00)) ((-1.189897e-23 2.019569e-22 -4.920556e-04) (-1.082193e-25 2.320887e-25 -2.061379e-06) (0.000000e+00 0.000000e+00 0.000000e+00))
1.5           	((1.307014e-01 1.164721e-04 2.584872e-22) (2.955917e-02 1.609644e-06 1.506701e-24) (0.000000e+00 0.000000e+00 0.000000e+00)) ((-1.405322e-23 1.963104e-22 -2.537063e-04) (-1.026513e-25 2.434288e-25 -1.229830e-06) (0.000000e+00 0.000000e+00 0.000000e+00))
1.75          	((1.252854e-01 3.180223e-04 2.647936e-22) (2.958744e-02 1.287790e-06 1.442681e-24) (0.000000e+00 0.000000e+00 0.000000e+00)) ((-1.511198e-23 1.940161e-22 -8.828298e-05) (-1.009277e-25 2.856656e-25 -8.193662e-07) (0.000000e+00 0.000000e+00 0.000000e+00))
2             	((1.250962e-01 6.469491e-04 2.645166e-22) (2.969435e-02 1.053120e-06 1.420220e-24) (0.000000e+00 0.000000e+00 0.000000e+00)) ((-1.535952e-23 1.945965e-22 -1.331215e-05) (-1.004652e-25 2.957363e-25 -6.837994e-07) (0.000000e+00 0.000000e+00 0.000000e+00))
2.25          	((1.264025e-01 8.172928e-04 2.627956e-22) (2.982890e-02 8.710645e-07 1.387194e-24) (0.000000e+00 0.000000e+00 0.000000e+00)) ((-1.533472e-23 1.958733e-22 -3.858044e-06) (-1.005261e-25 2.999886e-25 -6.022915e-07) (0.000000e+00 0.000000e+00 0.000000e+00))
2.5           	((1.275150e-01 8.124282e-04 2.617141e-22) (2.994392e-02 7.256916e-07 1.352202e-24) (0.000000e+00 0.000000e+00 0.000000e+00)) ((-1.528496e-23 1.968745e-22 -1.955703e-05) (-1.006061e-25 3.022106e-25 -5.167141e-07) (0.000000e+00 0.000000e+00 0.000000e+00))
2.75          	((1.280851e-01 7.026035e-04 2.615615e-22) (3.002373e-02 6.074423e-07 1.323780e-24) (0.000000e+00 0.000000e+00 0.000000e+00)) ((-1.527114e-23 1.974345e-22 -3.720058e-05) (-1.006060e-25 3.037516e-25 -4.256705e-07) (0.000000e+00 0.000000e+00 0.000000e+00))
3             	((1.282105e-01 5.574961e-04 2.620767e-22) (3.007039e-02 5.102768e-07 1.304755e-24) (0.000000e+00 0.000000e+00 0.000000e+00)) ((-1.529099e-23 1.976461e-22 -4.823539e-05) (-1.005462e-25 3.049015e-25 -3.382626e-07) (0.000000e+00 0.000000e+00 0.000000e+00))
3.25          	((1.280769e-01 4.217707e-04 2.629308e-22) (3.009238e-02 4.303045e-07 1.293851e-24) (0.000000e+00 0.000000e+00 0.000000e+00)) ((-1.532802e-23 1.976457e-22 -5.213609e-05) (-1.004573e-25 3.057436e-25 -2.622011e-07) (0.000000e+00 0.000000e+00 0.000000e+00))
3.5           	((1.278338e-01 3.122342e-04 2.638853e-22) (3.009847e-02 3.640826e-07 1.288544e-24) (0.000000e+00 0.000000e+00 0.000000e+00)) ((-1.536831e-23 1.975411e-22 -5.119844e-05) (-1.003623e-25 3.063378e-25 -2.004741e-07) (0.000000e+00 0.000000e+00 0.000000e+00))
3.75          	((1.275711e-01 2.300510e-04 2.648080e-22) (3.009543e-02 3.082379e-07 1.286551e-24) (0.000000e+00 0.000000e+00 0.000000e+00)) ((-1.540409e-23 1.973991e-22 -4.761984e-05) (-1.002743e-25 3.067442e-25 -1.525117e-07) (0.000000e+00 0.000000e+00 0.000000e+00))
4             	((1.273315e-01 1.696677e-04 2.656420e-22) (3.008768e-02 2.599102e-07 1.286280e-24) (0.000000e+00 0.000000e+00 0.000000e+00)) ((-1.543246e-23 1.972547e-22 -4.279852e-05) (-1.001983e-25 3.070160e-25 -1.158532e-07) (0.000000e+00 0.000000e+00 0.000000e+00))
4.25          	((1.271296e-01 1.246044e-04 2.663710e-22) (3.007788e-02 2.170691e-07 1.286778e-24) (0.000000e+00 0.000000e+00 0.000000e+00)) ((-1.545333e-23 1.971228e-22 -3.746642e-05) (-1.001346e-25 3.071940e-25 -8.767327e-08) (0.000000e+00 0.000000e+00 0.000000e+00))
4.5           	((1.269659e-01 9.128568e-05 2.669982e-22) (3.006750e-02 1.785483e-07 1.287540e-24) (0.000000e+00 0.000000e+00 0.000000e+00)) ((-1.546781e-23 1.970082e-22 -3.202525e-05) (-1.000823e-25 3.073079e-25 -6.560588e-08) (0.000000e+00 0.000000e+00 0.000000e+00))
4.75          	((1.268367e-01 6.257869e-05 2.675237e-22) (3.005736e-02 1.438029e-07 1.288325e-24) (0.000000e+00 0.000000e+00 0.000000e+00)) ((-1.547723e-23 1.969116e-22 -2.660858e-05) (-1.000393e-25 3.073782e-25 -4.801720e-08) (0.000000e+00 0.000000e+00 0.000000e+00))
5             	((1.267360e-01 4.093380e-05 2.679607e-22) (3.004790e-02 1.127488e-07 1.289037e-24) (0.000000e+00 0.000000e+00 0.000000e+00)) ((-1.548290e-23 1.968312e-22 -2.148288e-05) (-1.000039e-25 3.074188e-25 -3.383507e-08) (0.000000e+00 0.000000e+00 0.000000e+00))
5.25          	((1.266591e-01 2.397479e-05 2.683144e-22) (3.003936e-02 8.542896e-08 1.289646e-24) (0.000000e+00 0.000000e+00 0.000000e+00)) ((-1.548580e-23 1.967654e-22 -1.676312e-05) (-9.997484e-26 3.074393e-25 -2.242663e-08) (0.000000e+00 0.000000e+00 0.000000e+00))
5.5           	((1.266018e-01 1.078310e-05 2.685921e-22) (3.003188e-02 6.189777e-08 1.290154e-24) (0.000000e+00 0.000000e+00 0.000000e+00)) ((-1.548674e-23 1.967127e-22 -1.255317e-05) (-9.995121e-26 3.074463e-25 -1.337700e-08) (0.000000e+00 0.000000e+00 0.000000e+00))
5.75          	((1.265602e-01 1.505993e-06 2.688019e-22) (3.002548e-02 4.213077e-08 1.290572e-24) (0.000000e+00 0.000000e+00 0.000000e+00)) ((-1.548633e-23 1.966712e-22 -8.922633e-06) (-9.993224e-26 3.074445e-25 -6.370570e-09) (0.000000e+00 0.000000e+00 0.000000e+00))
6             	((1.265317e-01 -5.105418e-06 2.689522e-22) (3.002017e-02 2.598326e-08 1.290914e-24) (0.000000e+00 0.000000e+00 0.000000e+00)) ((-1.548504e-23 1.966396e-22 -5.887293e-06) (-9.991731e-26 3.074372e-25 -1.135513e-09) (0.000000e+00 0.000000e+00 0.000000e+00))
6.25          	((1.265135e-01 -9.239747e-06 2.690515e-22) (3.001589e-02 1.321428e-08 1.291193e-24) (0.000000e+00 0.000000e+00 0.000000e+00)) ((-1.548323e-23 1.966163e-22 -3.439626e-06) (-9.990585e-26 3.074268e-25 2.589198e-09) (0.000000e+00 0.000000e+00 0.000000e+00))
6.5           	((1.265032e-01 -1.164592e-05 2.691093e-22) (3.001255e-02 3.501915e-09 1.291419e-24) (0.000000e+00 0.000000e+00 0.000000e+00)) ((-1.548116e-23 1.966000e-22 -1.525779e-06) (-9.989739e-26 3.074150e-25 5.050580e-09) (0.000000e+00 0.000000e+00 0.000000e+00))
6.75          	((1.264991e-01 -1.255405e-05 2.691333e-22) (3.001005e-02 -3.527434e-09 1.291603e-24) (0.000000e+00 0.000000e+00 0.000000e+00)) ((-1.547905e-23 1.965895e-22 -1.031709e-07) (-9.989144e-26 3.074031e-25 6.491241e-09) (0.000000e+00 0.000000e+00 0.000000e+00))
7             	((1.264995e-01 -1.239439e-05 2.691314e-22) (3.000828e-02 -8.261070e-09 1.291749e-24) (0.000000e+00 0.000000e+00 0.000000e+00)) ((-1.547702e-23 1.965836e-22 8.960482e-07) (-9.988755e-26 3.073919e-25 7.123445e-09) (0.000000e+00 0.000000e+00 0.000000e+00))
7.25          	((1.265029e-01 -1.144426e-05 2.691105e-22) (3.000711e-02 -1.108852e-08 1.291863e-24) (0.000000e+00 0.000000e+00 0.000000e+00)) ((-1.547518e-23 1.965812e-22 1.537378e-06) (-9.988535e-26 3.073820e-25 7.138948e-09) (0.000000e+00 0.000000e+00 0.000000e+00))
7.5           	((1.265083e-01 -1.001564e-05 2.690764e-22) (3.000644e-02 -1.237924e-08 1.291951e-24) (0.000000e+00 0.000000e+00 0.000000e+00)) ((-1.547357e-23 1.965814e-22 1.886648e-06) (-9.988444e-26 3.073735e-25 6.702693e-09) (0.000000e+00 0.000000e+00 0.000000e+00))
7.75          	((1.265149e-01 -8.289092e-06 2.690342e-22) (3.000617e-02 -1.247767e-08 1.292017e-24) (0.000000e+00 0.000000e+00 0.000000e+00)) ((-1.547222e-23 1.965835e-22 2.003979e-06) (-9.988452e-26 3.073666e-25 5.956542e-09) (0.000000e+00 0.000000e+00 0.000000e+00))
8             	((1.265219e-01 -6.353603e-06 2.689878e-22) (3.000619e-02 -1.169438e-08 1.292065e-24) (0.000000e+00 0.000000e+00 0.000000e+00)) ((-1.547114e-23 1.965869e-22 1.948823e-06) (-9.988533e-26 3.073613e-25 5.017985e-09) (0.000000e+00 0.000000e+00 0.000000e+00))
