# Forces      
# CofR        : (0.000000e+00 0.000000e+00 0.000000e+00)
# Time        forces(pressure viscous porous)	moments(pressure viscous porous)
0             	((0.000000e+00 0.000000e+00 0.000000e+00) (2.325115e-02 1.148894e-18 2.489319e-28) (0.000000e+00 0.000000e+00 0.000000e+00)) ((0.000000e+00 0.000000e+00 0.000000e+00) (-1.605036e-26 -3.850728e-25 3.751827e-19) (0.000000e+00 0.000000e+00 0.000000e+00))
0.25          	((4.821885e-01 -5.283345e-04 -3.179200e-22) (3.222601e-02 -7.092336e-07 -6.031745e-27) (0.000000e+00 0.000000e+00 0.000000e+00)) ((2.293377e-23 3.944061e-23 1.097775e-03) (-3.139548e-26 -6.643090e-25 1.518511e-06) (0.000000e+00 0.000000e+00 0.000000e+00))
0.5           	((3.181174e-01 1.120487e-03 -3.141491e-22) (2.842284e-02 3.967419e-06 6.007317e-25) (0.000000e+00 0.000000e+00 0.000000e+00)) ((1.249529e-23 8.201037e-24 1.388570e-04) (-5.473885e-26 -8.808750e-25 4.060712e-06) (0.000000e+00 0.000000e+00 0.000000e+00))
0.75          	((2.505293e-01 -2.509401e-04 -3.012180e-22) (2.566919e-02 6.465447e-06 6.947902e-25) (0.000000e+00 0.000000e+00 0.000000e+00)) ((7.903508e-24 -1.646125e-23 -9.431264e-04) (-5.386016e-26 -1.142255e-24 4.198375e-06) (0.000000e+00 0.000000e+00 0.000000e+00))
1             	((2.123494e-01 -3.399921e-03 -2.837560e-22) (2.404788e-02 6.842881e-06 8.724078e-25) (0.000000e+00 0.000000e+00 0.000000e+00)) ((5.795653e-24 -3.848799e-23 -1.998409e-03) (-8.036710e-26 -1.322425e-24 3.186079e-06) (0.000000e+00 0.000000e+00 0.000000e+00))
1.25          	((1.836299e-01 -4.818727e-03 -2.693993e-22) (2.327954e-02 4.176294e-06 1.356110e-24) (0.000000e+00 0.000000e+00 0.000000e+00)) ((4.635365e-24 -5.605853e-23 -2.422744e-03) (-8.807135e-26 -1.640058e-24 1.302237e-06) (0.000000e+00 0.000000e+00 0.000000e+00))
1.5           	((1.579589e-01 -1.768812e-04 -2.609089e-22) (2.295234e-02 1.387938e-06 1.597034e-25) (0.000000e+00 0.000000e+00 0.000000e+00)) ((3.500295e-24 -6.832268e-23 -1.377727e-03) (-9.535007e-26 -1.109118e-24 -1.036721e-06) (0.000000e+00 0.000000e+00 0.000000e+00))
1.75          	((1.390453e-01 1.498812e-03 -2.570360e-22) (2.284516e-02 2.268014e-06 -2.602344e-25) (0.000000e+00 0.000000e+00 0.000000e+00)) ((2.603687e-24 -7.600505e-23 -5.540210e-04) (-9.147143e-26 -9.375204e-25 -1.345181e-06) (0.000000e+00 0.000000e+00 0.000000e+00))
2             	((1.269786e-01 2.141102e-04 -2.543888e-22) (2.286650e-02 1.337011e-06 -5.715922e-25) (0.000000e+00 0.000000e+00 0.000000e+00)) ((2.030146e-24 -8.099980e-23 -4.374792e-04) (-1.137609e-25 -8.066589e-25 -1.317729e-06) (0.000000e+00 0.000000e+00 0.000000e+00))
2.25          	((1.210310e-01 1.896358e-04 -2.531515e-22) (2.297035e-02 1.099197e-06 -7.774294e-25) (0.000000e+00 0.000000e+00 0.000000e+00)) ((1.746114e-24 -8.386761e-23 -2.097338e-04) (-1.314366e-25 -7.188945e-25 -1.026381e-06) (0.000000e+00 0.000000e+00 0.000000e+00))
2.5           	((1.200700e-01 4.147730e-04 -2.540336e-22) (2.310423e-02 9.422596e-07 -8.735001e-25) (0.000000e+00 0.000000e+00 0.000000e+00)) ((1.700708e-24 -8.490138e-23 -6.103656e-05) (-1.391178e-25 -6.782368e-25 -7.509522e-07) (0.000000e+00 0.000000e+00 0.000000e+00))
2.75          	((1.212862e-01 7.048273e-04 -2.558393e-22) (2.324487e-02 8.509221e-07 -9.150810e-25) (0.000000e+00 0.000000e+00 0.000000e+00)) ((1.758074e-24 -8.502947e-23 -9.479713e-06) (-1.432868e-25 -6.605183e-25 -5.989513e-07) (0.000000e+00 0.000000e+00 0.000000e+00))
3             	((1.230299e-01 9.483879e-04 -2.577221e-22) (2.337796e-02 7.974099e-07 -9.328105e-25) (0.000000e+00 0.000000e+00 0.000000e+00)) ((1.841030e-24 -8.485155e-23 -1.303124e-05) (-1.460099e-25 -6.528353e-25 -5.288252e-07) (0.000000e+00 0.000000e+00 0.000000e+00))
3.25          	((1.246170e-01 1.081228e-03 -2.593420e-22) (2.349578e-02 7.487819e-07 -9.402652e-25) (0.000000e+00 0.000000e+00 0.000000e+00)) ((1.916816e-24 -8.463009e-23 -3.676226e-05) (-1.479146e-25 -6.496248e-25 -4.957392e-07) (0.000000e+00 0.000000e+00 0.000000e+00))
3.5           	((1.258027e-01 1.091660e-03 -2.605706e-22) (2.359354e-02 6.941187e-07 -9.434956e-25) (0.000000e+00 0.000000e+00 0.000000e+00)) ((1.973084e-24 -8.446944e-23 -6.183202e-05) (-1.492505e-25 -6.483831e-25 -4.678537e-07) (0.000000e+00 0.000000e+00 0.000000e+00))
3.75          	((1.265454e-01 1.013758e-03 -2.613894e-22) (2.366931e-02 6.336009e-07 -9.451697e-25) (0.000000e+00 0.000000e+00 0.000000e+00)) ((2.007505e-24 -8.439865e-23 -8.035867e-05) (-1.501588e-25 -6.479600e-25 -4.299911e-07) (0.000000e+00 0.000000e+00 0.000000e+00))
4             	((1.269069e-01 8.780236e-04 -2.618404e-22) (2.372394e-02 5.697196e-07 -9.463995e-25) (0.000000e+00 0.000000e+00 0.000000e+00)) ((2.023088e-24 -8.440825e-23 -8.977716e-05) (-1.507420e-25 -6.478236e-25 -3.813879e-07) (0.000000e+00 0.000000e+00 0.000000e+00))
4.25          	((1.269882e-01 7.249378e-04 -2.619989e-22) (2.376028e-02 5.058690e-07 -9.475862e-25) (0.000000e+00 0.000000e+00 0.000000e+00)) ((2.024911e-24 -8.447397e-23 -9.125531e-05) (-1.510870e-25 -6.477328e-25 -3.266121e-07) (0.000000e+00 0.000000e+00 0.000000e+00))
4.5           	((1.268910e-01 5.745642e-04 -2.619456e-22) (2.378211e-02 4.456452e-07 -9.488020e-25) (0.000000e+00 0.000000e+00 0.000000e+00)) ((2.018156e-24 -8.456928e-23 -8.685885e-05) (-1.512669e-25 -6.475989e-25 -2.709066e-07) (0.000000e+00 0.000000e+00 0.000000e+00))
4.75          	((1.267004e-01 4.468611e-04 -2.617549e-22) (2.379332e-02 3.915381e-07 -9.499939e-25) (0.000000e+00 0.000000e+00 0.000000e+00)) ((2.007127e-24 -8.467230e-23 -7.975509e-05) (-1.513402e-25 -6.474077e-25 -2.188105e-07) (0.000000e+00 0.000000e+00 0.000000e+00))
5             	((1.264759e-01 3.462808e-04 -2.614831e-22) (2.379728e-02 3.445129e-07 -9.510840e-25) (0.000000e+00 0.000000e+00 0.000000e+00)) ((1.994832e-24 -8.476833e-23 -7.192717e-05) (-1.513495e-25 -6.471760e-25 -1.732769e-07) (0.000000e+00 0.000000e+00 0.000000e+00))
