/*--------------------------------*- C++ -*----------------------------------*\
  =========                 |
  \\      /  F ield         | OpenFOAM: The Open Source CFD Toolbox
   \\    /   O peration     | Website:  https://openfoam.org
    \\  /    A nd           | Version:  8
     \\/     M anipulation  |
\*---------------------------------------------------------------------------*/
FoamFile
{
    version     2.0;
    format      ascii;
    class       volScalarField;
    location    "1.9";
    object      nut;
}
// * * * * * * * * * * * * * * * * * * * * * * * * * * * * * * * * * * * * * //

dimensions      [0 2 -1 0 0 0 0];

internalField   nonuniform List<scalar> 
248760
(
0.139974
0.139922
0.139869
0.139817
0.139764
0.139711
0.139658
0.139605
0.139552
0.139499
0.139446
0.139393
0.139341
0.139288
0.139236
0.139183
0.139131
0.139079
0.139028
0.138976
0.138925
0.138874
0.138823
0.138773
0.138723
0.138673
0.138624
0.138575
0.138526
0.138478
0.13843
0.138383
0.138336
0.138289
0.138243
0.138197
0.138152
0.138107
0.138063
0.138019
0.137975
0.137932
0.13789
0.137848
0.137806
0.137765
0.137724
0.137684
0.137645
0.137605
0.137567
0.137529
0.137491
0.137454
0.137417
0.137381
0.137345
0.13731
0.137276
0.137241
0.137208
0.137175
0.137142
0.13711
0.137078
0.137047
0.137016
0.136985
0.136956
0.136926
0.136897
0.136869
0.136841
0.136813
0.136786
0.13676
0.136734
0.136708
0.136683
0.136658
0.136634
0.13661
0.136587
0.136564
0.136542
0.13652
0.136499
0.136478
0.136458
0.136439
0.13642
0.136402
0.136384
0.136368
0.136351
0.136336
0.136322
0.136308
0.136296
0.136284
0.136274
0.136265
0.136257
0.136251
0.136247
0.136244
0.136245
0.136248
0.136254
0.136265
0.136281
0.136303
0.136332
0.136371
0.136422
0.136487
0.13657
0.136676
0.136811
0.13698
0.139974
0.139922
0.139869
0.139816
0.139763
0.139711
0.139658
0.139604
0.139551
0.139498
0.139445
0.139393
0.13934
0.139287
0.139235
0.139182
0.13913
0.139078
0.139026
0.138975
0.138924
0.138873
0.138822
0.138771
0.138721
0.138672
0.138622
0.138573
0.138524
0.138476
0.138428
0.13838
0.138333
0.138287
0.13824
0.138194
0.138149
0.138104
0.13806
0.138016
0.137972
0.137929
0.137886
0.137844
0.137802
0.137761
0.137721
0.13768
0.137641
0.137601
0.137563
0.137524
0.137487
0.13745
0.137413
0.137377
0.137341
0.137306
0.137271
0.137237
0.137203
0.137169
0.137137
0.137104
0.137072
0.137041
0.13701
0.13698
0.13695
0.13692
0.136891
0.136863
0.136835
0.136807
0.13678
0.136754
0.136727
0.136702
0.136676
0.136652
0.136627
0.136604
0.13658
0.136558
0.136535
0.136514
0.136492
0.136472
0.136452
0.136432
0.136413
0.136395
0.136378
0.136361
0.136345
0.136329
0.136315
0.136302
0.136289
0.136278
0.136267
0.136258
0.136251
0.136245
0.136241
0.136238
0.136239
0.136242
0.136249
0.13626
0.136275
0.136297
0.136327
0.136366
0.136417
0.136483
0.136566
0.136673
0.136807
0.136977
0.139974
0.139921
0.139869
0.139816
0.139763
0.13971
0.139657
0.139604
0.13955
0.139497
0.139444
0.139391
0.139338
0.139286
0.139233
0.13918
0.139128
0.139076
0.139024
0.138972
0.138921
0.13887
0.138819
0.138768
0.138718
0.138668
0.138619
0.138569
0.13852
0.138472
0.138424
0.138376
0.138329
0.138282
0.138235
0.138189
0.138144
0.138099
0.138054
0.13801
0.137966
0.137923
0.13788
0.137838
0.137796
0.137754
0.137714
0.137673
0.137633
0.137594
0.137555
0.137517
0.137479
0.137441
0.137404
0.137368
0.137332
0.137297
0.137262
0.137227
0.137193
0.13716
0.137127
0.137094
0.137062
0.137031
0.137
0.136969
0.136939
0.13691
0.136881
0.136852
0.136824
0.136796
0.136769
0.136742
0.136716
0.13669
0.136665
0.13664
0.136615
0.136591
0.136568
0.136545
0.136523
0.136501
0.13648
0.136459
0.136439
0.136419
0.136401
0.136382
0.136365
0.136348
0.136332
0.136317
0.136302
0.136289
0.136276
0.136265
0.136255
0.136246
0.136238
0.136232
0.136228
0.136226
0.136227
0.13623
0.136237
0.136248
0.136264
0.136286
0.136316
0.136356
0.136407
0.136473
0.136557
0.136664
0.136799
0.136969
0.139974
0.139921
0.139868
0.139815
0.139762
0.139709
0.139656
0.139602
0.139549
0.139496
0.139442
0.139389
0.139336
0.139283
0.13923
0.139178
0.139125
0.139073
0.139021
0.138969
0.138917
0.138866
0.138815
0.138764
0.138714
0.138663
0.138614
0.138564
0.138515
0.138466
0.138418
0.13837
0.138322
0.138275
0.138229
0.138182
0.138136
0.138091
0.138046
0.138002
0.137958
0.137914
0.137871
0.137829
0.137786
0.137745
0.137704
0.137663
0.137623
0.137583
0.137544
0.137506
0.137467
0.13743
0.137393
0.137356
0.13732
0.137284
0.137249
0.137214
0.13718
0.137146
0.137113
0.137081
0.137048
0.137017
0.136985
0.136955
0.136924
0.136895
0.136865
0.136836
0.136808
0.13678
0.136753
0.136726
0.136699
0.136673
0.136648
0.136623
0.136598
0.136574
0.136551
0.136528
0.136505
0.136483
0.136462
0.136441
0.136421
0.136402
0.136383
0.136364
0.136347
0.13633
0.136314
0.136299
0.136284
0.136271
0.136258
0.136247
0.136237
0.136228
0.136221
0.136215
0.136211
0.136209
0.13621
0.136213
0.13622
0.136232
0.136248
0.13627
0.136301
0.13634
0.136392
0.136458
0.136543
0.136651
0.136787
0.136958
0.139974
0.139921
0.139868
0.139814
0.139761
0.139708
0.139654
0.139601
0.139547
0.139494
0.13944
0.139387
0.139334
0.13928
0.139227
0.139174
0.139122
0.139069
0.139017
0.138965
0.138913
0.138861
0.13881
0.138759
0.138708
0.138658
0.138607
0.138558
0.138508
0.138459
0.138411
0.138362
0.138314
0.138267
0.13822
0.138173
0.138127
0.138082
0.138036
0.137992
0.137947
0.137903
0.13786
0.137817
0.137775
0.137733
0.137691
0.13765
0.13761
0.13757
0.137531
0.137492
0.137453
0.137415
0.137378
0.137341
0.137304
0.137268
0.137233
0.137198
0.137164
0.13713
0.137096
0.137063
0.137031
0.136999
0.136967
0.136936
0.136906
0.136876
0.136846
0.136817
0.136788
0.13676
0.136732
0.136705
0.136679
0.136652
0.136627
0.136602
0.136577
0.136553
0.136529
0.136506
0.136483
0.136461
0.13644
0.136419
0.136399
0.136379
0.13636
0.136342
0.136324
0.136307
0.136291
0.136276
0.136261
0.136248
0.136236
0.136224
0.136214
0.136206
0.136198
0.136193
0.136189
0.136187
0.136188
0.136192
0.136199
0.136211
0.136227
0.13625
0.136281
0.136321
0.136373
0.13644
0.136525
0.136633
0.13677
0.136943
0.139974
0.13992
0.139867
0.139813
0.13976
0.139706
0.139653
0.139599
0.139545
0.139491
0.139438
0.139384
0.13933
0.139277
0.139224
0.139171
0.139117
0.139065
0.139012
0.13896
0.138907
0.138855
0.138804
0.138752
0.138701
0.138651
0.1386
0.13855
0.1385
0.138451
0.138402
0.138353
0.138305
0.138257
0.13821
0.138163
0.138117
0.138071
0.138025
0.13798
0.137935
0.137891
0.137847
0.137804
0.137761
0.137719
0.137677
0.137636
0.137595
0.137554
0.137515
0.137475
0.137437
0.137398
0.13736
0.137323
0.137286
0.13725
0.137214
0.137179
0.137144
0.13711
0.137076
0.137043
0.13701
0.136978
0.136946
0.136914
0.136883
0.136853
0.136823
0.136794
0.136765
0.136737
0.136709
0.136681
0.136654
0.136628
0.136602
0.136577
0.136552
0.136527
0.136504
0.13648
0.136457
0.136435
0.136414
0.136393
0.136372
0.136352
0.136333
0.136315
0.136297
0.13628
0.136264
0.136249
0.136235
0.136221
0.136209
0.136198
0.136188
0.136179
0.136172
0.136167
0.136163
0.136162
0.136163
0.136167
0.136174
0.136186
0.136203
0.136226
0.136257
0.136298
0.13635
0.136418
0.136504
0.136613
0.136751
0.136925
0.139973
0.13992
0.139866
0.139813
0.139759
0.139705
0.139651
0.139597
0.139543
0.139489
0.139435
0.139381
0.139327
0.139273
0.13922
0.139166
0.139113
0.13906
0.139007
0.138954
0.138901
0.138849
0.138797
0.138745
0.138694
0.138643
0.138592
0.138542
0.138491
0.138442
0.138392
0.138343
0.138295
0.138247
0.138199
0.138151
0.138104
0.138058
0.138012
0.137966
0.137921
0.137877
0.137832
0.137789
0.137746
0.137703
0.137661
0.137619
0.137578
0.137537
0.137497
0.137457
0.137418
0.137379
0.137341
0.137303
0.137266
0.137229
0.137193
0.137157
0.137122
0.137087
0.137053
0.137019
0.136986
0.136954
0.136921
0.13689
0.136859
0.136828
0.136798
0.136768
0.136739
0.13671
0.136682
0.136654
0.136627
0.1366
0.136574
0.136548
0.136523
0.136499
0.136475
0.136451
0.136428
0.136406
0.136384
0.136363
0.136342
0.136322
0.136303
0.136285
0.136267
0.13625
0.136234
0.136219
0.136204
0.136191
0.136179
0.136168
0.136158
0.136149
0.136142
0.136137
0.136134
0.136132
0.136134
0.136138
0.136146
0.136158
0.136175
0.136199
0.13623
0.136271
0.136325
0.136393
0.13648
0.13659
0.13673
0.136905
0.139973
0.139919
0.139866
0.139812
0.139757
0.139703
0.139649
0.139595
0.13954
0.139486
0.139432
0.139378
0.139323
0.139269
0.139215
0.139162
0.139108
0.139054
0.139001
0.138948
0.138895
0.138842
0.13879
0.138738
0.138686
0.138634
0.138583
0.138532
0.138482
0.138432
0.138382
0.138332
0.138283
0.138235
0.138186
0.138139
0.138091
0.138044
0.137998
0.137952
0.137906
0.137861
0.137816
0.137772
0.137729
0.137685
0.137643
0.137601
0.137559
0.137518
0.137477
0.137437
0.137397
0.137358
0.137319
0.137281
0.137243
0.137206
0.13717
0.137133
0.137098
0.137063
0.137028
0.136994
0.13696
0.136927
0.136895
0.136863
0.136831
0.1368
0.136769
0.136739
0.13671
0.136681
0.136652
0.136624
0.136597
0.13657
0.136543
0.136517
0.136492
0.136467
0.136443
0.136419
0.136396
0.136373
0.136351
0.13633
0.136309
0.136289
0.13627
0.136252
0.136234
0.136217
0.136201
0.136185
0.136171
0.136158
0.136146
0.136135
0.136125
0.136116
0.13611
0.136104
0.136101
0.1361
0.136102
0.136106
0.136115
0.136127
0.136145
0.136169
0.136201
0.136243
0.136297
0.136366
0.136454
0.136565
0.136706
0.136883
0.139973
0.139919
0.139865
0.139811
0.139756
0.139702
0.139647
0.139592
0.139538
0.139483
0.139429
0.139374
0.13932
0.139265
0.139211
0.139157
0.139103
0.139049
0.138995
0.138941
0.138888
0.138835
0.138782
0.13873
0.138677
0.138625
0.138574
0.138522
0.138471
0.138421
0.13837
0.13832
0.138271
0.138222
0.138173
0.138125
0.138077
0.138029
0.137982
0.137936
0.13789
0.137844
0.137799
0.137754
0.13771
0.137667
0.137623
0.137581
0.137538
0.137497
0.137456
0.137415
0.137375
0.137335
0.137296
0.137257
0.137219
0.137181
0.137144
0.137108
0.137072
0.137036
0.137001
0.136966
0.136932
0.136899
0.136866
0.136833
0.136801
0.13677
0.136739
0.136708
0.136678
0.136649
0.13662
0.136592
0.136564
0.136537
0.13651
0.136484
0.136458
0.136433
0.136408
0.136384
0.136361
0.136338
0.136316
0.136295
0.136274
0.136254
0.136234
0.136216
0.136198
0.136181
0.136165
0.136149
0.136135
0.136122
0.13611
0.136099
0.136089
0.136081
0.136074
0.136069
0.136067
0.136066
0.136068
0.136073
0.136081
0.136094
0.136112
0.136137
0.136169
0.136212
0.136266
0.136336
0.136425
0.136538
0.136681
0.13686
0.139973
0.139919
0.139864
0.139809
0.139755
0.1397
0.139645
0.13959
0.139535
0.13948
0.139425
0.13937
0.139315
0.139261
0.139206
0.139151
0.139097
0.139043
0.138988
0.138934
0.138881
0.138827
0.138774
0.138721
0.138668
0.138616
0.138564
0.138512
0.13846
0.138409
0.138358
0.138308
0.138258
0.138208
0.138159
0.13811
0.138062
0.138014
0.137966
0.137919
0.137873
0.137826
0.137781
0.137735
0.137691
0.137646
0.137603
0.13756
0.137517
0.137475
0.137433
0.137392
0.137351
0.137311
0.137271
0.137232
0.137193
0.137155
0.137117
0.13708
0.137044
0.137008
0.136972
0.136937
0.136902
0.136868
0.136835
0.136802
0.13677
0.136738
0.136706
0.136675
0.136645
0.136615
0.136586
0.136557
0.136529
0.136502
0.136474
0.136448
0.136422
0.136397
0.136372
0.136348
0.136324
0.136301
0.136279
0.136257
0.136236
0.136216
0.136196
0.136178
0.13616
0.136143
0.136126
0.136111
0.136097
0.136084
0.136072
0.136061
0.136052
0.136044
0.136037
0.136032
0.13603
0.136029
0.136031
0.136037
0.136045
0.136059
0.136077
0.136102
0.136135
0.136178
0.136234
0.136305
0.136395
0.13651
0.136654
0.136836
0.139973
0.139918
0.139863
0.139808
0.139753
0.139698
0.139643
0.139588
0.139532
0.139477
0.139422
0.139366
0.139311
0.139256
0.139201
0.139146
0.139091
0.139036
0.138982
0.138927
0.138873
0.138819
0.138765
0.138712
0.138659
0.138606
0.138553
0.138501
0.138449
0.138397
0.138346
0.138295
0.138244
0.138194
0.138144
0.138095
0.138046
0.137997
0.137949
0.137901
0.137854
0.137808
0.137761
0.137716
0.13767
0.137625
0.137581
0.137537
0.137494
0.137451
0.137409
0.137367
0.137326
0.137285
0.137245
0.137205
0.137166
0.137127
0.137089
0.137051
0.137014
0.136978
0.136941
0.136906
0.136871
0.136836
0.136803
0.136769
0.136736
0.136704
0.136672
0.136641
0.13661
0.13658
0.13655
0.136521
0.136492
0.136464
0.136437
0.13641
0.136384
0.136358
0.136333
0.136309
0.136285
0.136262
0.136239
0.136217
0.136196
0.136176
0.136156
0.136138
0.13612
0.136103
0.136086
0.136071
0.136057
0.136044
0.136032
0.136021
0.136012
0.136004
0.135998
0.135993
0.135991
0.135991
0.135993
0.135999
0.136008
0.136022
0.136041
0.136066
0.1361
0.136144
0.1362
0.136272
0.136364
0.13648
0.136626
0.136809
0.139973
0.139918
0.139863
0.139807
0.139752
0.139696
0.139641
0.139585
0.13953
0.139474
0.139418
0.139362
0.139307
0.139251
0.139196
0.13914
0.139085
0.13903
0.138975
0.13892
0.138865
0.138811
0.138756
0.138702
0.138649
0.138595
0.138542
0.138489
0.138437
0.138384
0.138332
0.138281
0.13823
0.138179
0.138129
0.138079
0.138029
0.13798
0.137931
0.137883
0.137835
0.137788
0.137741
0.137695
0.137649
0.137603
0.137558
0.137514
0.13747
0.137427
0.137384
0.137341
0.1373
0.137258
0.137217
0.137177
0.137137
0.137098
0.137059
0.137021
0.136983
0.136946
0.13691
0.136874
0.136838
0.136803
0.136769
0.136735
0.136701
0.136668
0.136636
0.136604
0.136573
0.136543
0.136513
0.136483
0.136454
0.136426
0.136398
0.136371
0.136344
0.136318
0.136293
0.136268
0.136244
0.136221
0.136198
0.136176
0.136155
0.136134
0.136115
0.136096
0.136078
0.136061
0.136045
0.136029
0.136015
0.136002
0.135991
0.13598
0.135971
0.135963
0.135957
0.135953
0.135951
0.135951
0.135953
0.135959
0.135969
0.135983
0.136003
0.136029
0.136063
0.136108
0.136165
0.136238
0.136331
0.136448
0.136596
0.136782
0.139972
0.139917
0.139862
0.139806
0.139751
0.139695
0.139639
0.139583
0.139527
0.139471
0.139415
0.139358
0.139302
0.139246
0.13919
0.139134
0.139079
0.139023
0.138968
0.138912
0.138857
0.138802
0.138747
0.138693
0.138638
0.138584
0.138531
0.138477
0.138424
0.138371
0.138319
0.138267
0.138215
0.138164
0.138113
0.138062
0.138012
0.137962
0.137913
0.137864
0.137816
0.137768
0.13772
0.137673
0.137627
0.137581
0.137535
0.13749
0.137445
0.137401
0.137358
0.137315
0.137272
0.13723
0.137189
0.137148
0.137108
0.137068
0.137028
0.13699
0.136951
0.136914
0.136877
0.13684
0.136804
0.136768
0.136733
0.136699
0.136665
0.136632
0.136599
0.136567
0.136535
0.136504
0.136474
0.136444
0.136414
0.136386
0.136358
0.13633
0.136303
0.136277
0.136251
0.136226
0.136202
0.136178
0.136156
0.136133
0.136112
0.136091
0.136072
0.136053
0.136035
0.136018
0.136001
0.135986
0.135972
0.135959
0.135948
0.135937
0.135928
0.135921
0.135915
0.135911
0.135909
0.135909
0.135912
0.135919
0.135929
0.135943
0.135963
0.13599
0.136025
0.13607
0.136128
0.136202
0.136296
0.136415
0.136565
0.136753
0.139972
0.139917
0.139861
0.139805
0.139749
0.139693
0.139637
0.13958
0.139524
0.139467
0.139411
0.139354
0.139298
0.139241
0.139185
0.139129
0.139072
0.139016
0.13896
0.138904
0.138849
0.138793
0.138738
0.138683
0.138628
0.138573
0.138519
0.138465
0.138411
0.138358
0.138305
0.138252
0.1382
0.138148
0.138096
0.138045
0.137994
0.137944
0.137894
0.137844
0.137795
0.137747
0.137699
0.137651
0.137604
0.137557
0.137511
0.137465
0.13742
0.137375
0.137331
0.137287
0.137244
0.137202
0.13716
0.137118
0.137077
0.137037
0.136997
0.136957
0.136918
0.13688
0.136842
0.136805
0.136769
0.136733
0.136697
0.136662
0.136628
0.136594
0.136561
0.136528
0.136496
0.136464
0.136434
0.136403
0.136373
0.136344
0.136316
0.136288
0.136261
0.136234
0.136208
0.136183
0.136159
0.136135
0.136112
0.13609
0.136068
0.136047
0.136027
0.136008
0.13599
0.135973
0.135957
0.135942
0.135928
0.135915
0.135904
0.135893
0.135885
0.135877
0.135872
0.135868
0.135866
0.135867
0.13587
0.135877
0.135887
0.135902
0.135923
0.13595
0.135986
0.136032
0.136091
0.136166
0.136261
0.136381
0.136533
0.136724
0.139972
0.139916
0.13986
0.139804
0.139748
0.139691
0.139634
0.139578
0.139521
0.139464
0.139407
0.13935
0.139293
0.139236
0.139179
0.139123
0.139066
0.139009
0.138953
0.138896
0.13884
0.138784
0.138728
0.138673
0.138617
0.138562
0.138507
0.138453
0.138398
0.138344
0.13829
0.138237
0.138184
0.138132
0.138079
0.138027
0.137976
0.137925
0.137874
0.137824
0.137774
0.137725
0.137676
0.137628
0.13758
0.137533
0.137486
0.13744
0.137394
0.137348
0.137303
0.137259
0.137215
0.137172
0.137129
0.137087
0.137046
0.137004
0.136964
0.136924
0.136884
0.136846
0.136807
0.13677
0.136732
0.136696
0.13666
0.136624
0.136589
0.136555
0.136521
0.136488
0.136456
0.136424
0.136392
0.136362
0.136331
0.136302
0.136273
0.136245
0.136217
0.136191
0.136164
0.136139
0.136114
0.13609
0.136067
0.136045
0.136023
0.136002
0.135982
0.135963
0.135945
0.135928
0.135912
0.135897
0.135883
0.13587
0.135859
0.135849
0.13584
0.135833
0.135827
0.135824
0.135823
0.135824
0.135827
0.135834
0.135845
0.135861
0.135882
0.135909
0.135946
0.135992
0.136052
0.136128
0.136225
0.136347
0.1365
0.136693
0.139972
0.139916
0.139859
0.139803
0.139746
0.139689
0.139632
0.139575
0.139518
0.139461
0.139403
0.139346
0.139289
0.139231
0.139174
0.139117
0.139059
0.139002
0.138945
0.138888
0.138831
0.138775
0.138718
0.138662
0.138606
0.13855
0.138495
0.13844
0.138385
0.13833
0.138276
0.138222
0.138168
0.138115
0.138062
0.13801
0.137957
0.137906
0.137854
0.137804
0.137753
0.137703
0.137654
0.137605
0.137556
0.137508
0.13746
0.137413
0.137367
0.137321
0.137275
0.13723
0.137186
0.137142
0.137099
0.137056
0.137013
0.136972
0.13693
0.13689
0.13685
0.13681
0.136771
0.136733
0.136695
0.136658
0.136621
0.136585
0.13655
0.136515
0.136481
0.136447
0.136414
0.136382
0.13635
0.136319
0.136289
0.136259
0.13623
0.136201
0.136173
0.136146
0.13612
0.136094
0.136069
0.136045
0.136021
0.135999
0.135977
0.135956
0.135936
0.135917
0.135899
0.135882
0.135866
0.135851
0.135837
0.135824
0.135813
0.135803
0.135795
0.135788
0.135782
0.135779
0.135778
0.135779
0.135784
0.135791
0.135802
0.135818
0.135839
0.135868
0.135905
0.135952
0.136013
0.13609
0.136188
0.136311
0.136466
0.136662
0.139972
0.139915
0.139859
0.139802
0.139745
0.139687
0.13963
0.139573
0.139515
0.139457
0.139399
0.139342
0.139284
0.139226
0.139168
0.13911
0.139053
0.138995
0.138937
0.13888
0.138823
0.138765
0.138709
0.138652
0.138595
0.138539
0.138483
0.138427
0.138371
0.138316
0.138261
0.138206
0.138152
0.138098
0.138044
0.137991
0.137938
0.137886
0.137834
0.137783
0.137731
0.137681
0.137631
0.137581
0.137532
0.137483
0.137434
0.137387
0.137339
0.137293
0.137247
0.137201
0.137156
0.137111
0.137067
0.137023
0.136981
0.136938
0.136896
0.136855
0.136814
0.136774
0.136735
0.136696
0.136657
0.13662
0.136582
0.136546
0.13651
0.136475
0.13644
0.136406
0.136372
0.136339
0.136307
0.136276
0.136245
0.136215
0.136185
0.136156
0.136128
0.136101
0.136074
0.136048
0.136023
0.135998
0.135975
0.135952
0.13593
0.135909
0.135889
0.13587
0.135852
0.135835
0.135819
0.135804
0.13579
0.135778
0.135766
0.135757
0.135748
0.135742
0.135737
0.135734
0.135733
0.135735
0.135739
0.135747
0.135758
0.135775
0.135797
0.135826
0.135863
0.135911
0.135973
0.136051
0.13615
0.136275
0.136432
0.136629
0.139972
0.139915
0.139858
0.139801
0.139743
0.139686
0.139628
0.13957
0.139512
0.139454
0.139396
0.139337
0.139279
0.139221
0.139162
0.139104
0.139046
0.138988
0.13893
0.138872
0.138814
0.138756
0.138698
0.138641
0.138584
0.138527
0.13847
0.138414
0.138357
0.138302
0.138246
0.138191
0.138136
0.138081
0.138027
0.137973
0.137919
0.137866
0.137813
0.137761
0.137709
0.137658
0.137607
0.137557
0.137507
0.137457
0.137408
0.13736
0.137312
0.137264
0.137217
0.137171
0.137125
0.13708
0.137035
0.136991
0.136947
0.136904
0.136862
0.13682
0.136778
0.136738
0.136697
0.136658
0.136619
0.136581
0.136543
0.136506
0.136469
0.136433
0.136398
0.136364
0.13633
0.136296
0.136264
0.136232
0.1362
0.13617
0.13614
0.136111
0.136082
0.136055
0.136028
0.136001
0.135976
0.135951
0.135928
0.135905
0.135883
0.135862
0.135842
0.135823
0.135804
0.135787
0.135771
0.135756
0.135743
0.13573
0.135719
0.13571
0.135702
0.135695
0.135691
0.135688
0.135687
0.135689
0.135694
0.135702
0.135714
0.135731
0.135753
0.135783
0.135821
0.13587
0.135932
0.136011
0.136111
0.136238
0.136397
0.136597
0.139972
0.139914
0.139857
0.1398
0.139742
0.139684
0.139626
0.139567
0.139509
0.13945
0.139392
0.139333
0.139274
0.139215
0.139157
0.139098
0.139039
0.13898
0.138922
0.138863
0.138805
0.138746
0.138688
0.13863
0.138572
0.138515
0.138458
0.1384
0.138343
0.138287
0.138231
0.138175
0.138119
0.138064
0.138009
0.137954
0.1379
0.137846
0.137792
0.137739
0.137687
0.137635
0.137583
0.137532
0.137481
0.137431
0.137381
0.137332
0.137283
0.137235
0.137187
0.13714
0.137094
0.137048
0.137002
0.136957
0.136913
0.136869
0.136826
0.136784
0.136742
0.1367
0.13666
0.136619
0.13658
0.136541
0.136503
0.136465
0.136428
0.136392
0.136356
0.136321
0.136286
0.136253
0.136219
0.136187
0.136155
0.136124
0.136094
0.136065
0.136036
0.136008
0.135981
0.135954
0.135929
0.135904
0.13588
0.135857
0.135835
0.135814
0.135794
0.135775
0.135756
0.135739
0.135723
0.135709
0.135695
0.135683
0.135672
0.135663
0.135655
0.135648
0.135644
0.135641
0.135641
0.135643
0.135648
0.135657
0.135669
0.135686
0.135709
0.135739
0.135778
0.135827
0.13589
0.135971
0.136072
0.1362
0.136361
0.136563
0.139971
0.139914
0.139856
0.139798
0.13974
0.139682
0.139623
0.139565
0.139506
0.139447
0.139388
0.139329
0.139269
0.13921
0.139151
0.139092
0.139032
0.138973
0.138914
0.138855
0.138796
0.138737
0.138678
0.138619
0.138561
0.138503
0.138445
0.138387
0.138329
0.138272
0.138215
0.138158
0.138102
0.138046
0.13799
0.137935
0.13788
0.137825
0.137771
0.137717
0.137664
0.137611
0.137559
0.137507
0.137455
0.137404
0.137354
0.137304
0.137255
0.137206
0.137157
0.137109
0.137062
0.137015
0.136969
0.136924
0.136879
0.136834
0.13679
0.136747
0.136705
0.136663
0.136621
0.13658
0.13654
0.136501
0.136462
0.136424
0.136386
0.136349
0.136313
0.136277
0.136242
0.136208
0.136175
0.136142
0.13611
0.136079
0.136048
0.136018
0.135989
0.135961
0.135933
0.135907
0.135881
0.135856
0.135832
0.135809
0.135787
0.135766
0.135745
0.135726
0.135708
0.135691
0.135675
0.13566
0.135647
0.135635
0.135624
0.135615
0.135607
0.135601
0.135597
0.135595
0.135595
0.135597
0.135602
0.135611
0.135624
0.135641
0.135665
0.135695
0.135734
0.135785
0.135848
0.13593
0.136032
0.136162
0.136324
0.136529
0.139971
0.139914
0.139856
0.139797
0.139739
0.13968
0.139621
0.139562
0.139503
0.139443
0.139384
0.139324
0.139265
0.139205
0.139145
0.139085
0.139025
0.138966
0.138906
0.138846
0.138787
0.138727
0.138668
0.138608
0.138549
0.138491
0.138432
0.138373
0.138315
0.138257
0.138199
0.138142
0.138085
0.138028
0.137972
0.137916
0.13786
0.137805
0.13775
0.137695
0.137641
0.137588
0.137534
0.137482
0.137429
0.137378
0.137326
0.137276
0.137226
0.137176
0.137127
0.137078
0.13703
0.136983
0.136936
0.13689
0.136844
0.136799
0.136754
0.13671
0.136667
0.136624
0.136582
0.136541
0.1365
0.13646
0.136421
0.136382
0.136344
0.136306
0.13627
0.136234
0.136198
0.136164
0.13613
0.136097
0.136064
0.136032
0.136001
0.135971
0.135942
0.135914
0.135886
0.135859
0.135833
0.135808
0.135784
0.135761
0.135738
0.135717
0.135697
0.135677
0.135659
0.135642
0.135627
0.135612
0.135599
0.135587
0.135576
0.135567
0.135559
0.135553
0.135549
0.135547
0.135548
0.13555
0.135556
0.135565
0.135578
0.135596
0.13562
0.135651
0.13569
0.135741
0.135806
0.135888
0.135992
0.136123
0.136287
0.136494
0.139971
0.139913
0.139855
0.139796
0.139737
0.139678
0.139619
0.13956
0.1395
0.13944
0.13938
0.13932
0.13926
0.1392
0.139139
0.139079
0.139019
0.138958
0.138898
0.138838
0.138777
0.138717
0.138657
0.138597
0.138538
0.138478
0.138419
0.13836
0.138301
0.138242
0.138184
0.138126
0.138068
0.13801
0.137953
0.137896
0.13784
0.137784
0.137728
0.137673
0.137618
0.137564
0.13751
0.137456
0.137403
0.137351
0.137299
0.137247
0.137196
0.137146
0.137096
0.137047
0.136998
0.13695
0.136902
0.136855
0.136809
0.136763
0.136718
0.136673
0.136629
0.136586
0.136543
0.136501
0.13646
0.136419
0.136379
0.13634
0.136301
0.136263
0.136226
0.136189
0.136154
0.136119
0.136084
0.136051
0.136018
0.135986
0.135955
0.135924
0.135895
0.135866
0.135838
0.135811
0.135785
0.135759
0.135735
0.135712
0.135689
0.135668
0.135648
0.135629
0.13561
0.135593
0.135578
0.135563
0.13555
0.135538
0.135528
0.135519
0.135511
0.135505
0.135502
0.1355
0.1355
0.135503
0.135509
0.135518
0.135532
0.13555
0.135574
0.135606
0.135646
0.135697
0.135763
0.135846
0.135951
0.136083
0.13625
0.136459
0.139971
0.139913
0.139854
0.139795
0.139736
0.139676
0.139617
0.139557
0.139497
0.139437
0.139376
0.139316
0.139255
0.139194
0.139133
0.139072
0.139012
0.138951
0.13889
0.138829
0.138768
0.138707
0.138647
0.138586
0.138526
0.138466
0.138406
0.138346
0.138286
0.138227
0.138168
0.138109
0.13805
0.137992
0.137934
0.137877
0.137819
0.137763
0.137706
0.13765
0.137594
0.137539
0.137485
0.13743
0.137377
0.137323
0.13727
0.137218
0.137166
0.137115
0.137065
0.137015
0.136965
0.136916
0.136868
0.13682
0.136773
0.136727
0.136681
0.136635
0.136591
0.136547
0.136504
0.136461
0.136419
0.136378
0.136337
0.136297
0.136258
0.13622
0.136182
0.136145
0.136109
0.136073
0.136039
0.136005
0.135971
0.135939
0.135908
0.135877
0.135847
0.135818
0.13579
0.135763
0.135736
0.135711
0.135686
0.135663
0.13564
0.135619
0.135599
0.135579
0.135561
0.135544
0.135529
0.135514
0.135501
0.135489
0.135479
0.13547
0.135463
0.135457
0.135454
0.135452
0.135453
0.135456
0.135462
0.135472
0.135485
0.135504
0.135528
0.13556
0.135601
0.135653
0.135719
0.135803
0.135909
0.136043
0.136212
0.136423
0.139971
0.139912
0.139853
0.139794
0.139734
0.139675
0.139615
0.139554
0.139494
0.139433
0.139372
0.139311
0.13925
0.139189
0.139127
0.139066
0.139005
0.138943
0.138882
0.13882
0.138759
0.138698
0.138636
0.138575
0.138514
0.138453
0.138393
0.138332
0.138272
0.138212
0.138152
0.138092
0.138033
0.137974
0.137915
0.137857
0.137799
0.137741
0.137684
0.137627
0.137571
0.137515
0.137459
0.137404
0.13735
0.137296
0.137242
0.137189
0.137137
0.137085
0.137033
0.136982
0.136932
0.136883
0.136833
0.136785
0.136737
0.13669
0.136643
0.136598
0.136552
0.136508
0.136464
0.136421
0.136378
0.136336
0.136295
0.136255
0.136215
0.136176
0.136138
0.1361
0.136064
0.136028
0.135993
0.135958
0.135925
0.135892
0.13586
0.135829
0.135799
0.13577
0.135741
0.135714
0.135688
0.135662
0.135637
0.135614
0.135591
0.13557
0.13555
0.13553
0.135512
0.135495
0.13548
0.135465
0.135452
0.13544
0.13543
0.135421
0.135414
0.135409
0.135405
0.135404
0.135405
0.135408
0.135415
0.135424
0.135438
0.135457
0.135482
0.135514
0.135556
0.135608
0.135675
0.13576
0.135867
0.136003
0.136173
0.136386
0.139971
0.139912
0.139852
0.139793
0.139733
0.139673
0.139612
0.139552
0.139491
0.13943
0.139368
0.139307
0.139245
0.139183
0.139122
0.13906
0.138998
0.138936
0.138874
0.138812
0.13875
0.138688
0.138626
0.138564
0.138502
0.138441
0.138379
0.138318
0.138257
0.138196
0.138136
0.138075
0.138015
0.137955
0.137896
0.137837
0.137778
0.13772
0.137662
0.137604
0.137547
0.13749
0.137434
0.137378
0.137323
0.137268
0.137213
0.13716
0.137106
0.137054
0.137002
0.13695
0.136899
0.136849
0.136799
0.13675
0.136701
0.136653
0.136606
0.136559
0.136514
0.136468
0.136424
0.13638
0.136337
0.136294
0.136253
0.136212
0.136172
0.136132
0.136094
0.136056
0.136019
0.135982
0.135947
0.135912
0.135878
0.135845
0.135813
0.135782
0.135751
0.135722
0.135693
0.135665
0.135639
0.135613
0.135588
0.135565
0.135542
0.135521
0.1355
0.135481
0.135463
0.135446
0.13543
0.135416
0.135403
0.135391
0.135381
0.135372
0.135365
0.13536
0.135357
0.135356
0.135357
0.13536
0.135367
0.135377
0.135391
0.13541
0.135435
0.135468
0.13551
0.135563
0.135631
0.135716
0.135825
0.135961
0.136133
0.136349
0.139971
0.139911
0.139852
0.139792
0.139732
0.139671
0.13961
0.139549
0.139488
0.139426
0.139364
0.139302
0.13924
0.139178
0.139116
0.139053
0.138991
0.138928
0.138865
0.138803
0.13874
0.138678
0.138615
0.138553
0.13849
0.138428
0.138366
0.138304
0.138242
0.138181
0.138119
0.138058
0.137997
0.137937
0.137877
0.137817
0.137757
0.137698
0.137639
0.137581
0.137523
0.137465
0.137408
0.137352
0.137295
0.13724
0.137185
0.13713
0.137076
0.137023
0.13697
0.136917
0.136866
0.136814
0.136764
0.136714
0.136665
0.136616
0.136568
0.136521
0.136475
0.136429
0.136384
0.136339
0.136296
0.136253
0.13621
0.136169
0.136128
0.136088
0.136049
0.136011
0.135973
0.135936
0.135901
0.135865
0.135831
0.135798
0.135765
0.135734
0.135703
0.135673
0.135645
0.135617
0.13559
0.135564
0.135539
0.135516
0.135493
0.135471
0.135451
0.135432
0.135413
0.135397
0.135381
0.135367
0.135354
0.135342
0.135332
0.135323
0.135316
0.135311
0.135308
0.135307
0.135308
0.135312
0.135319
0.135329
0.135343
0.135363
0.135388
0.135421
0.135464
0.135517
0.135586
0.135672
0.135782
0.13592
0.136094
0.136312
0.13997
0.139911
0.139851
0.139791
0.13973
0.139669
0.139608
0.139546
0.139485
0.139423
0.13936
0.139298
0.139235
0.139173
0.13911
0.139047
0.138984
0.13892
0.138857
0.138794
0.138731
0.138668
0.138604
0.138541
0.138478
0.138415
0.138352
0.13829
0.138227
0.138165
0.138103
0.138041
0.13798
0.137918
0.137857
0.137797
0.137736
0.137676
0.137617
0.137557
0.137499
0.13744
0.137382
0.137325
0.137268
0.137212
0.137156
0.1371
0.137046
0.136991
0.136938
0.136885
0.136832
0.13678
0.136729
0.136678
0.136629
0.136579
0.136531
0.136483
0.136436
0.136389
0.136343
0.136298
0.136254
0.136211
0.136168
0.136126
0.136085
0.136044
0.136005
0.135966
0.135928
0.135891
0.135854
0.135819
0.135784
0.135751
0.135718
0.135686
0.135655
0.135625
0.135596
0.135568
0.135541
0.135515
0.13549
0.135466
0.135444
0.135422
0.135401
0.135382
0.135364
0.135347
0.135331
0.135317
0.135304
0.135293
0.135283
0.135274
0.135267
0.135262
0.135259
0.135258
0.135259
0.135263
0.13527
0.135281
0.135295
0.135315
0.135341
0.135374
0.135417
0.135471
0.13554
0.135627
0.135738
0.135877
0.136053
0.136274
0.13997
0.13991
0.13985
0.13979
0.139729
0.139667
0.139606
0.139544
0.139482
0.139419
0.139356
0.139294
0.13923
0.139167
0.139104
0.13904
0.138977
0.138913
0.138849
0.138785
0.138721
0.138657
0.138594
0.13853
0.138466
0.138402
0.138339
0.138276
0.138212
0.138149
0.138087
0.138024
0.137962
0.1379
0.137838
0.137776
0.137715
0.137654
0.137594
0.137534
0.137474
0.137415
0.137357
0.137298
0.137241
0.137183
0.137127
0.13707
0.137015
0.13696
0.136905
0.136852
0.136798
0.136746
0.136694
0.136643
0.136592