/*--------------------------------*- C++ -*---------------------------------*\ 
| ========                 |                                                 | 
| \      /  F ield         | OpenFOAM: The Open Source CFD Toolbox           | 
|  \    /   O peration     | Version:  v1812                                 | 
|   \  /    A nd           | Web:      www.OpenFOAM.com                      | 
|    \/     M anipulation  |                                                 | 
\*--------------------------------------------------------------------------*/ 
FoamFile
{
    version     2.0;
    format      ascii;
    class       volVectorField;
    location    "/home/james/dafoam/myRuns/bezier_coanda_opt/0.00000000001/";
    object      sens_CMZ_shapey;
}
// * * * * * * * * * * * * * * * * * * * * * * * * * * * * * * * * * * * * * //

dimensions      [0 0 0 0 0 0 0];
internalField   uniform (0 0 0);
boundaryField
{
    allWalls
    {
        type  wall;
        value nonuniform List<vector>
218
(
(0.001352 -0.000193 -0.000001)
(0.004384 -0.001279 -0.000001)
(0.007550 -0.003165 -0.000001)
(0.010013 -0.005816 -0.000002)
(0.011628 -0.009129 -0.000003)
(0.011828 -0.012148 -0.000004)
(0.011004 -0.014344 -0.000005)
(0.010202 -0.016326 -0.000006)
(0.009252 -0.017704 -0.000007)
(0.008049 -0.018210 -0.000008)
(0.006984 -0.018564 -0.000010)
(0.006062 -0.018839 -0.000011)
(0.005149 -0.018664 -0.000013)
(0.004380 -0.018554 -0.000007)
(0.003641 -0.017998 0.000000)
(0.002993 -0.017485 0.000003)
(0.002359 -0.016252 0.000006)
(0.001780 -0.014945 0.000011)
(0.001261 -0.012865 0.000019)
(0.000792 -0.010613 0.000029)
(0.000432 -0.007488 0.000043)
(0.000095 -0.002570 0.000062)
(-0.000024 0.003692 0.000082)
(0.000147 0.014428 0.000109)
(0.000716 0.023856 0.000133)
(0.001459 0.027919 0.000142)
(0.002672 0.036266 0.000133)
(0.003821 0.043084 0.000108)
(0.004605 0.044174 0.000086)
(0.005419 0.046249 0.000069)
(0.006059 0.047058 0.000054)
(0.006588 0.047456 0.000042)
(0.006985 0.047316 0.000032)
(0.007274 0.046830 0.000024)
(0.007450 0.045980 0.000011)
(0.007522 0.044774 0.000001)
(0.007504 0.043324 0.000001)
(0.007397 0.041633 0.000001)
(0.007184 0.039532 0.000001)
(0.006884 0.037193 0.000001)
(0.006542 0.034792 0.000001)
(0.006147 0.032207 0.000000)
(0.005679 0.029394 -0.000000)
(0.005183 0.026582 -0.000000)
(0.004762 0.024199 -0.000000)
(0.004331 0.022030 -0.000000)
(0.003564 0.017752 -0.000000)
(0.002936 0.015078 -0.000000)
(0.002962 0.014583 -0.000000)
(0.002252 0.011682 -0.000000)
(-0.002424 0.014699 -0.000000)
(-0.002978 0.016579 -0.000000)
(-0.002923 0.017150 -0.000000)
(-0.003425 0.019507 -0.000000)
(-0.004087 0.023808 -0.000000)
(-0.004431 0.025911 -0.000000)
(-0.004709 0.027836 -0.000000)
(-0.005060 0.030197 -0.000000)
(-0.005411 0.032699 0.000000)
(-0.005703 0.034978 0.000001)
(-0.005941 0.037065 0.000001)
(-0.006135 0.038995 0.000001)
(-0.006255 0.040686 0.000001)
(-0.006285 0.042055 0.000001)
(-0.006267 0.043209 0.000001)
(-0.006187 0.044130 -0.000007)
(-0.006025 0.044753 -0.000018)
(-0.005786 0.045060 -0.000023)
(-0.005477 0.045098 -0.000031)
(-0.005082 0.044708 -0.000040)
(-0.004597 0.043774 -0.000051)
(-0.004194 0.044199 -0.000065)
(-0.003293 0.038607 -0.000086)
(-0.002316 0.032072 -0.000104)
(-0.001714 0.029790 -0.000110)
(-0.000959 0.023895 -0.000104)
(-0.000334 0.013945 -0.000086)
(-0.000027 0.004696 -0.000066)
(-0.000057 -0.002041 -0.000049)
(-0.000248 -0.006959 -0.000034)
(-0.000544 -0.009659 -0.000023)
(-0.000992 -0.012759 -0.000014)
(-0.001448 -0.014449 -0.000007)
(-0.002028 -0.016027 -0.000007)
(-0.002671 -0.017360 -0.000004)
(-0.003363 -0.018032 0.000008)
(-0.004150 -0.018688 0.000013)
(-0.004994 -0.018910 0.000012)
(-0.005976 -0.019105 0.000010)
(-0.007038 -0.018963 0.000009)
(-0.008193 -0.018574 0.000007)
(-0.009476 -0.017954 0.000006)
(-0.010468 -0.016456 0.000005)
(-0.011273 -0.014309 0.000004)
(-0.012073 -0.011988 0.000003)
(-0.011629 -0.008775 0.000002)
(-0.009790 -0.005432 0.000002)
(-0.007190 -0.002872 0.000001)
(-0.003990 -0.001122 0.000001)
(-0.001108 -0.000155 0.000000)
(0.000859 0.010584 -0.000000)
(0.000184 0.012438 -0.000000)
(0.000233 0.012400 -0.000000)
(0.000505 0.013808 -0.000000)
(0.000556 0.016086 -0.000000)
(0.000576 0.017636 -0.000000)
(0.000649 0.019372 -0.000000)
(0.000721 0.021109 -0.000000)
(0.000783 0.023243 -0.000000)
(0.000845 0.025306 -0.000000)
(0.000927 0.027700 -0.000000)
(0.001015 0.030288 -0.000000)
(0.001149 0.034205 -0.000000)
(0.001290 0.037850 -0.000000)
(0.001286 0.036501 -0.000000)
(0.001245 0.038455 -0.000000)
(0.001653 0.053100 -0.000000)
(0.002067 0.060481 -0.000000)
(0.002549 0.071629 -0.000000)
(0.003098 0.084288 -0.000000)
(0.001957 0.039172 -0.000000)
(0.000941 -0.012683 -0.000000)
(0.011428 0.269281 -0.000000)
(0.032229 0.930377 -0.000000)
(-0.241857 -0.878124 -0.000000)
(-44.065959 -0.786177 -0.000000)
(-0.015282 -0.077636 -0.000000)
(-0.031161 -0.035603 -0.000000)
(-0.280244 -1.512975 -0.000000)
(44.054560 0.702116 -0.000000)
(-0.016030 -0.003585 -0.000000)
(-0.027883 -0.048064 -0.000000)
(-0.037524 -0.116883 0.000000)
(-0.042624 -0.138868 0.000000)
(-0.053854 -0.146961 0.000000)
(-0.062389 -0.141684 0.000000)
(-0.042723 -0.091832 0.000000)
(0.003014 -0.008188 0.000000)
(0.060428 0.088849 0.000000)
(0.092319 0.132586 0.000000)
(0.098659 0.129079 0.000000)
(0.093469 0.113020 0.000000)
(0.071135 0.076087 0.000000)
(0.050531 0.048367 0.000000)
(0.036347 0.032253 0.000000)
(0.024562 0.020780 0.000000)
(0.020041 0.015782 0.000000)
(0.023344 0.016771 0.000000)
(0.025270 0.015776 0.000000)
(0.024429 0.013099 0.000000)
(0.022555 0.010440 0.000000)
(0.024994 0.009968 0.000000)
(0.026173 0.008967 0.000000)
(0.021691 0.006051 0.000000)
(0.016541 0.003493 0.000000)
(0.011299 0.001436 0.000000)
(0.005584 -0.000382 0.000000)
(0.001392 -0.001670 0.000000)
(0.000017 -0.002375 0.000000)
(0.000204 -0.002431 0.000000)
(-0.000898 -0.001819 0.000000)
(-0.004723 -0.000587 0.000000)
(-0.010315 0.001210 0.000000)
(-0.015708 0.003290 0.000000)
(-0.021040 0.005851 0.000000)
(-0.025825 0.008818 0.000000)
(-0.025939 0.010317 0.000000)
(-0.022627 0.010297 0.000000)
(-0.024011 0.012719 0.000000)
(-0.025871 0.015836 0.000000)
(-0.023643 0.016765 0.000000)
(-0.020334 0.016001 0.000000)
(-0.024592 0.020719 0.000000)
(-0.036283 0.032172 0.000000)
(-0.049972 0.048335 0.000000)
(-0.069271 0.075251 0.000000)
(-0.091599 0.112112 0.000000)
(-0.100814 0.134940 0.000000)
(-0.100327 0.147747 0.000000)
(-0.070985 0.109876 0.000000)
(-0.011030 0.008866 0.000000)
(0.039175 -0.087576 0.000000)
(0.065816 -0.155054 0.000000)
(0.062381 -0.173514 0.000000)
(0.048163 -0.160974 0.000000)
(0.038470 -0.131381 0.000000)
(0.027377 -0.064479 -0.000000)
(0.015384 -0.016800 -0.000000)
(-44.054759 0.698571 -0.000000)
(44.064239 -0.780317 -0.000000)
(0.015551 -0.065011 -0.000000)
(0.035305 -0.035219 -0.000000)
(0.282077 -1.577613 -0.000000)
(0.240509 -0.920837 -0.000000)
(-0.032741 0.978690 -0.000000)
(-0.012345 0.316468 -0.000000)
(-0.001079 0.000057 -0.000000)
(-0.001747 0.036494 -0.000000)
(-0.003011 0.082781 -0.000000)
(-0.002587 0.072695 -0.000000)
(-0.002161 0.063058 -0.000000)
(-0.001709 0.055203 -0.000000)
(-0.001209 0.038311 -0.000000)
(-0.001276 0.037232 -0.000000)
(-0.001331 0.039962 -0.000000)
(-0.001210 0.036477 -0.000000)
(-0.001078 0.032478 -0.000000)
(-0.000988 0.029794 -0.000000)
(-0.000904 0.027299 -0.000000)
(-0.000829 0.025115 -0.000000)
(-0.000760 0.022977 -0.000000)
(-0.000705 0.021272 -0.000000)
(-0.000638 0.019326 -0.000000)
(-0.000614 0.017735 -0.000000)
(-0.000551 0.015408 -0.000000)
(-0.000242 0.013873 -0.000000)
(-0.000188 0.014032 -0.000000)
(-0.001041 0.013522 -0.000000)
)
;
    }
}
