/*--------------------------------*- C++ -*---------------------------------*\ 
| ========                 |                                                 | 
| \      /  F ield         | OpenFOAM: The Open Source CFD Toolbox           | 
|  \    /   O peration     | Version:  v1812                                 | 
|   \  /    A nd           | Web:      www.OpenFOAM.com                      | 
|    \/     M anipulation  |                                                 | 
\*--------------------------------------------------------------------------*/ 
FoamFile
{
    version     2.0;
    format      ascii;
    class       volVectorField;
    location    "/home/james/dafoam/myRuns/bezier_coanda_opt/0.00000000001/";
    object      sens_CMZ_shapey;
}
// * * * * * * * * * * * * * * * * * * * * * * * * * * * * * * * * * * * * * //

dimensions      [0 0 0 0 0 0 0];
internalField   uniform (0 0 0);
boundaryField
{
    allWalls
    {
        type  wall;
        value nonuniform List<vector>
218
(
(0.001573 -0.000320 -0.000001)
(0.005175 -0.001974 -0.000001)
(0.008250 -0.004225 -0.000001)
(0.009971 -0.006887 -0.000002)
(0.010628 -0.009605 -0.000001)
(0.010414 -0.011944 -0.000001)
(0.009790 -0.013723 -0.000002)
(0.009199 -0.015374 -0.000002)
(0.008412 -0.016337 -0.000001)
(0.007577 -0.017037 -0.000004)
(0.006913 -0.017804 -0.000004)
(0.006113 -0.018109 -0.000001)
(0.005351 -0.018226 -0.000006)
(0.004607 -0.018150 -0.000015)
(0.003897 -0.017863 -0.000019)
(0.003260 -0.017679 -0.000021)
(0.002535 -0.016417 -0.000023)
(0.001856 -0.015032 -0.000025)
(0.001272 -0.013137 -0.000027)
(0.000710 -0.010491 -0.000027)
(0.000308 -0.007123 0.000012)
(0.000033 -0.002072 0.000060)
(0.000047 0.004156 0.000079)
(0.000508 0.015131 0.000102)
(0.001254 0.024056 0.000122)
(0.002260 0.031671 0.000129)
(0.002949 0.035491 0.000120)
(0.003429 0.036457 0.000097)
(0.004053 0.039636 0.000072)
(0.004977 0.045059 0.000057)
(0.005417 0.046353 0.000045)
(0.005432 0.043855 0.000034)
(0.005784 0.044693 0.000026)
(0.005925 0.043998 0.000019)
(0.006059 0.043517 0.000008)
(0.006114 0.042594 0.000000)
(0.006097 0.041391 0.000000)
(0.005998 0.039983 0.000000)
(0.005882 0.038460 0.000000)
(0.005736 0.036666 0.000000)
(0.005505 0.034644 0.000000)
(0.005203 0.032416 0.000000)
(0.004865 0.030003 -0.000000)
(0.004546 0.027821 -0.000000)
(0.004296 0.026050 -0.000000)
(0.003975 0.024003 -0.000000)
(0.003348 0.019757 -0.000000)
(0.002892 0.017561 -0.000000)
(0.002970 0.017168 -0.000000)
(0.002402 0.015165 -0.000000)
(-0.002400 0.015134 -0.000000)
(-0.002970 0.017193 -0.000000)
(-0.002889 0.017547 -0.000000)
(-0.003348 0.019754 -0.000000)
(-0.003985 0.024021 -0.000000)
(-0.004316 0.026113 -0.000000)
(-0.004568 0.027924 -0.000000)
(-0.004884 0.030114 -0.000000)
(-0.005203 0.032521 0.000000)
(-0.005470 0.034663 0.000000)
(-0.005718 0.036539 0.000000)
(-0.005910 0.038397 0.000000)
(-0.006016 0.040052 0.000000)
(-0.006095 0.041445 0.000000)
(-0.006115 0.042620 0.000000)
(-0.006061 0.043535 -0.000009)
(-0.005927 0.044017 -0.000020)
(-0.005786 0.044712 -0.000026)
(-0.005434 0.043872 -0.000034)
(-0.005419 0.046367 -0.000044)
(-0.004978 0.045069 -0.000056)
(-0.004054 0.039649 -0.000071)
(-0.003430 0.036468 -0.000096)
(-0.002949 0.035500 -0.000120)
(-0.002261 0.031678 -0.000129)
(-0.001254 0.024060 -0.000123)
(-0.000508 0.015134 -0.000102)
(-0.000047 0.004157 -0.000080)
(-0.000034 -0.002072 -0.000060)
(-0.000308 -0.007123 -0.000011)
(-0.000710 -0.010491 0.000028)
(-0.001272 -0.013137 0.000027)
(-0.001856 -0.015031 0.000025)
(-0.002535 -0.016416 0.000023)
(-0.003260 -0.017679 0.000021)
(-0.003897 -0.017863 0.000019)
(-0.004606 -0.018149 0.000008)
(-0.005351 -0.018225 0.000005)
(-0.006113 -0.018109 0.000010)
(-0.006913 -0.017804 0.000009)
(-0.007576 -0.017036 0.000008)
(-0.008412 -0.016336 0.000003)
(-0.009197 -0.015371 0.000002)
(-0.009788 -0.013719 0.000002)
(-0.010413 -0.011942 -0.000001)
(-0.010625 -0.009601 -0.000001)
(-0.009970 -0.006885 -0.000001)
(-0.008252 -0.004225 -0.000000)
(-0.005175 -0.001973 0.000000)
(-0.001576 -0.000318 -0.000000)
(0.001034 0.013871 -0.000000)
(0.000214 0.014512 -0.000000)
(0.000263 0.014289 -0.000000)
(0.000563 0.015780 -0.000000)
(0.000616 0.018151 -0.000000)
(0.000634 0.019744 -0.000000)
(0.000722 0.021649 -0.000000)
(0.000794 0.023355 -0.000000)
(0.000858 0.025478 -0.000000)
(0.000927 0.027602 -0.000000)
(0.001011 0.030094 -0.000000)
(0.001106 0.032829 -0.000000)
(0.001236 0.036452 -0.000000)
(0.001342 0.039369 -0.000000)
(0.001302 0.038288 -0.000000)
(0.001325 0.041730 -0.000000)
(0.001814 0.056524 -0.000000)
(0.002165 0.062522 -0.000000)
(0.002569 0.072489 -0.000000)
(0.003019 0.082696 -0.000000)
(0.001828 0.038734 -0.000000)
(0.001296 0.006829 -0.000000)
(0.012831 0.328879 -0.000000)
(0.033714 0.992498 -0.000000)
(-0.246353 -0.909979 -0.000000)
(-44.061781 -0.777604 -0.000000)
(-0.015062 -0.062144 -0.000000)
(-0.034370 -0.035625 -0.000000)
(-0.287694 -1.573624 -0.000000)
(44.053152 0.696420 -0.000000)
(-0.014799 -0.023937 -0.000000)
(-0.026854 -0.074467 -0.000000)
(-0.039548 -0.143678 0.000000)
(-0.051600 -0.176940 0.000000)
(-0.065853 -0.186988 0.000000)
(-0.068002 -0.163106 0.000000)
(-0.040455 -0.091092 0.000000)
(0.011052 0.009173 0.000000)
(0.072528 0.111849 0.000000)
(0.103206 0.151367 0.000000)
(0.104074 0.138765 0.000000)
(0.094739 0.114710 0.000000)
(0.071722 0.076870 0.000000)
(0.051102 0.048693 0.000000)
(0.036711 0.032359 0.000000)
(0.024489 0.020555 0.000000)
(0.019814 0.015365 0.000000)
(0.023262 0.016383 0.000000)
(0.025234 0.015417 0.000000)
(0.024450 0.012847 0.000000)
(0.022619 0.010296 0.000000)
(0.025242 0.009935 0.000000)
(0.026378 0.008936 0.000000)
(0.021524 0.005918 0.000000)
(0.016180 0.003334 0.000000)
(0.010825 0.001263 0.000000)
(0.005111 -0.000557 0.000000)
(0.001069 -0.001824 0.000000)
(-0.000074 -0.002494 0.000000)
(0.000176 -0.002495 0.000000)
(-0.001088 -0.001825 0.000000)
(-0.005125 -0.000556 0.000000)
(-0.010836 0.001264 0.000000)
(-0.016189 0.003338 0.000000)
(-0.021533 0.005924 0.000000)
(-0.026389 0.008945 0.000000)
(-0.025255 0.009950 0.000000)
(-0.022635 0.010319 0.000000)
(-0.024473 0.012884 0.000000)
(-0.025265 0.015478 0.000000)
(-0.023308 0.016489 0.000000)
(-0.019887 0.015560 0.000000)
(-0.024420 0.020390 0.000000)
(-0.036597 0.032081 0.000000)
(-0.051104 0.048716 0.000000)
(-0.071726 0.076879 0.000000)
(-0.094744 0.114692 0.000000)
(-0.104076 0.138718 0.000000)
(-0.103215 0.151357 0.000000)
(-0.072551 0.111914 0.000000)
(-0.011064 0.009257 0.000000)
(0.040479 -0.091023 0.000000)
(0.068083 -0.163013 0.000000)
(0.066036 -0.186760 0.000000)
(0.051995 -0.176307 0.000000)
(0.040300 -0.142371 0.000000)
(0.027858 -0.073082 -0.000000)
(0.015541 -0.023278 -0.000000)
(-44.052885 0.696584 -0.000000)
(44.062290 -0.778530 -0.000000)
(0.016062 -0.060740 -0.000000)
(0.036108 -0.033501 -0.000000)
(0.284842 -1.578716 -0.000000)
(0.242419 -0.915130 -0.000000)
(-0.033528 0.993417 -0.000000)
(-0.012862 0.330757 -0.000000)
(-0.001295 0.007315 -0.000000)
(-0.001821 0.038795 -0.000000)
(-0.003027 0.082784 -0.000000)
(-0.002607 0.073164 -0.000000)
(-0.002138 0.060996 -0.000000)
(-0.001817 0.055957 -0.000000)
(-0.001383 0.043755 -0.000000)
(-0.001237 0.037123 -0.000000)
(-0.001267 0.037724 -0.000000)
(-0.001224 0.036620 -0.000000)
(-0.001109 0.033232 -0.000000)
(-0.001012 0.030319 -0.000000)
(-0.000928 0.027778 -0.000000)
(-0.000855 0.025604 -0.000000)
(-0.000780 0.023424 -0.000000)
(-0.000721 0.021702 -0.000000)
(-0.000658 0.019758 -0.000000)
(-0.000637 0.018107 -0.000000)
(-0.000570 0.015749 -0.000000)
(-0.000263 0.014280 -0.000000)
(-0.000209 0.014493 -0.000000)
(-0.001028 0.013804 -0.000000)
)
;
    }
}
