/*--------------------------------*- C++ -*----------------------------------*\
  =========                 |
  \\      /  F ield         | OpenFOAM: The Open Source CFD Toolbox
   \\    /   O peration     | Website:  https://openfoam.org
    \\  /    A nd           | Version:  9
     \\/     M anipulation  |
\*---------------------------------------------------------------------------*/
FoamFile
{
    format      ascii;
    class       volScalarField;
    location    "0.005";
    object      nuTilda;
}
// * * * * * * * * * * * * * * * * * * * * * * * * * * * * * * * * * * * * * //

dimensions      [0 2 -1 0 0 0 0];

internalField   nonuniform List<scalar> 
6098
(
0.0123805
0.0124739
0.0125599
0.0126393
0.0127124
0.0127798
0.0128419
0.0128993
0.0129524
0.0130016
0.0130474
0.0130899
0.0131296
0.0131666
0.0132012
0.0132336
0.0132639
0.0132924
0.0133192
0.0133443
0.013368
0.0133903
0.0134114
0.0134314
0.0134504
0.0134684
0.0134857
0.0135023
0.0135182
0.0122409
0.0123367
0.0124254
0.0125075
0.0125838
0.0126544
0.0127199
0.0127808
0.0128374
0.01289
0.0129391
0.012985
0.0130279
0.0130681
0.0131058
0.0131413
0.0131746
0.013206
0.0132355
0.0132634
0.0132898
0.0133148
0.0133384
0.0133609
0.0133821
0.0134023
0.0134215
0.0134398
0.0134571
0.0120884
0.0121854
0.0122764
0.0123618
0.0124416
0.0125159
0.0125851
0.0126496
0.0127098
0.012766
0.0128186
0.0128678
0.012914
0.0129574
0.0129982
0.0130366
0.0130728
0.0131069
0.0131392
0.0131697
0.0131986
0.013226
0.013252
0.0132767
0.0133002
0.0133226
0.0133439
0.0133641
0.0133835
0.0119345
0.012034
0.0121277
0.0122161
0.0122991
0.0123768
0.0124495
0.0125175
0.0125811
0.0126408
0.0126968
0.0127494
0.0127988
0.0128453
0.0128892
0.0129305
0.0129696
0.0130065
0.0130415
0.0130746
0.013106
0.0131358
0.0131641
0.013191
0.0132167
0.0132411
0.0132644
0.0132866
0.0133078
0.0117746
0.011876
0.0119717
0.0120625
0.0121483
0.0122291
0.0123051
0.0123764
0.0124434
0.0125065
0.0125658
0.0126216
0.0126743
0.012724
0.012771
0.0128153
0.0128573
0.0128971
0.0129349
0.0129707
0.0130047
0.013037
0.0130678
0.0130971
0.013125
0.0131516
0.013177
0.0132013
0.0132245
0.0116079
0.011711
0.0118083
0.0119009
0.0119891
0.0120727
0.0121517
0.0122261
0.0122964
0.0123626
0.0124252
0.0124842
0.0125401
0.0125929
0.012643
0.0126904
0.0127353
0.012778
0.0128185
0.0128571
0.0128938
0.0129287
0.012962
0.0129938
0.0130241
0.013053
0.0130807
0.0131071
0.0131324
0.0114339
0.0115383
0.0116371
0.0117312
0.0118213
0.0119073
0.0119889
0.0120662
0.0121395
0.0122088
0.0122744
0.0123366
0.0123956
0.0124515
0.0125046
0.012555
0.012603
0.0126485
0.0126919
0.0127333
0.0127727
0.0128103
0.0128462
0.0128804
0.0129132
0.0129445
0.0129745
0.0130032
0.0130308
0.0112529
0.0113581
0.011458
0.0115534
0.0116449
0.0117327
0.0118167
0.0118966
0.0119726
0.0120448
0.0121133
0.0121785
0.0122405
0.0122994
0.0123555
0.0124089
0.0124597
0.0125082
0.0125545
0.0125986
0.0126408
0.0126811
0.0127196
0.0127564
0.0127917
0.0128255
0.0128579
0.0128889
0.0129187
0.0110648
0.0111702
0.0112709
0.0113672
0.0114598
0.0115491
0.0116349
0.011717
0.0117955
0.0118702
0.0119415
0.0120095
0.0120743
0.0121361
0.0121951
0.0122514
0.0123051
0.0123565
0.0124056
0.0124525
0.0124974
0.0125404
0.0125816
0.0126211
0.0126589
0.0126952
0.01273
0.0127635
0.0127956
0.0108696
0.0109749
0.0110759
0.0111728
0.0112661
0.0113563
0.0114435
0.0115275
0.011608
0.0116851
0.0117589
0.0118294
0.0118968
0.0119614
0.0120231
0.0120821
0.0121387
0.0121928
0.0122447
0.0122944
0.0123421
0.0123877
0.0124316
0.0124737
0.0125141
0.0125529
0.0125902
0.0126261
0.0126607
0.0106675
0.0107723
0.0108731
0.0109702
0.0110638
0.0111546
0.0112428
0.0113281
0.0114103
0.0114894
0.0115653
0.0116381
0.0117079
0.0117749
0.0118392
0.0119008
0.01196
0.0120168
0.0120713
0.0121237
0.012174
0.0122224
0.0122689
0.0123135
0.0123565
0.0123979
0.0124377
0.0124761
0.0125131
0.0105625
0.0106627
0.0107596
0.0108533
0.0109442
0.0110328
0.011119
0.0112025
0.0112831
0.0113608
0.0114355
0.0115075
0.0115767
0.0116432
0.0117072
0.0117688
0.0118281
0.0118852
0.0119401
0.0119929
0.0120438
0.0120929
0.0121401
0.0121856
0.0122295
0.0122718
0.0123126
0.012352
0.0103459
0.0104451
0.0105413
0.0106346
0.0107254
0.0108139
0.0109004
0.0109847
0.0110665
0.0111455
0.0112219
0.0112956
0.0113666
0.0114352
0.0115013
0.0115651
0.0116266
0.0116859
0.0117432
0.0117984
0.0118517
0.0119031
0.0119528
0.0120007
0.012047
0.0120917
0.0121349
0.0121767
0.0101228
0.0102206
0.0103157
0.0104083
0.0104985
0.0105866
0.010673
0.0107575
0.0108399
0.0109199
0.0109974
0.0110725
0.0111451
0.0112153
0.0112832
0.0113488
0.0114123
0.0114736
0.0115329
0.0115903
0.0116457
0.0116994
0.0117512
0.0118014
0.01185
0.011897
0.0119425
0.0119865
0.00989404
0.0099899
0.0100835
0.0101748
0.010264
0.0103514
0.0104371
0.0105213
0.0106038
0.0106843
0.0107626
0.0108385
0.0109123
0.0109837
0.011053
0.0111202
0.0111853
0.0112483
0.0113094
0.0113686
0.011426
0.0114816
0.0115354
0.0115877
0.0116383
0.0116874
0.011735
0.0117811
0.00966019
0.00975367
0.00984521
0.00993485
0.0100227
0.0101088
0.0101935
0.010277
0.0103591
0.0104395
0.010518
0.0105944
0.0106688
0.0107411
0.0108114
0.0108797
0.010946
0.0110104
0.0110729
0.0111336
0.0111925
0.0112498
0.0113054
0.0113593
0.0114118
0.0114627
0.0115121
0.0115601
0.00942221
0.00951284
0.0096019
0.00968939
0.00977535
0.00985988
0.00994314
0.0100253
0.0101064
0.0101862
0.0102645
0.0103409
0.0104155
0.0104882
0.010559
0.0106279
0.010695
0.0107603
0.0108239
0.0108857
0.0109458
0.0110043
0.0110613
0.0111167
0.0111705
0.0112229
0.0112739
0.0113235
0.00926858
0.00935467
0.00943951
0.00952312
0.00960556
0.00968693
0.00976738
0.00984702
0.00992569
0.0100031
0.010079
0.0101533
0.0102258
0.0102967
0.0103659
0.0104333
0.0104991
0.0105632
0.0106257
0.0106866
0.010746
0.0108038
0.0108602
0.0109152
0.0109687
0.0110208
0.0110716
0.00902226
0.00910489
0.00918659
0.00926735
0.00934719
0.0094262
0.00950447
0.00958212
0.0096591
0.00973514
0.00980996
0.0098834
0.00995534
0.0100257
0.0100946
0.0101619
0.0102276
0.0102918
0.0103545
0.0104158
0.0104756
0.0105339
0.0105909
0.0106465
0.0107007
0.0107536
0.0108053
0.00877549
0.00885421
0.00893228
0.00900967
0.00908641
0.00916254
0.00923813
0.00931329
0.00938802
0.00946212
0.00953531
0.00960736
0.00967812
0.00974753
0.00981555
0.00988216
0.00994735
0.0100111
0.0100736
0.0101346
0.0101943
0.0102527
0.0103098
0.0103655
0.01042
0.0104732
0.0105253
0.00853008
0.00860448
0.00867846
0.008752
0.00882512
0.00889784
0.00897022
0.00904236
0.00911429
0.00918587
0.00925685
0.00932695
0.00939598
0.00946386
0.00953051
0.00959589
0.00966
0.00972283
0.00978442
0.00984476
0.00990386
0.0099617
0.0100183
0.0100737
0.0101279
0.010181
0.0102329
0.00835766
0.00842718
0.00849646
0.00856548
0.00863428
0.00870292
0.00877148
0.00884002
0.00890849
0.00897665
0.00904422
0.00911096
0.00917675
0.00924148
0.0093051
0.00936759
0.00942892
0.00948912
0.00954819
0.00960608
0.00966283
0.00971844
0.00977294
0.00982633
0.00987864
0.00992989
0.00811575
0.00818055
0.00824523
0.00830979
0.00837425
0.00843866
0.0085031
0.00856766
0.00863236
0.00869707
0.0087615
0.00882538
0.00888852
0.00895078
0.00901209
0.0090724
0.00913172
0.00919001
0.00924726
0.00930345
0.00935858
0.00941266
0.0094657
0.00951772
0.00956872
0.00961872
0.00788053
0.0079405
0.00800042
0.00806029
0.00812011
0.00817994
0.00823983
0.0082999
0.00836022
0.00842079
0.00848143
0.00854184
0.00860176
0.00866101
0.00871949
0.0087771
0.00883384
0.00888967
0.00894456
0.0089985
0.00905149
0.00910351
0.00915458
0.0092047
0.00925388
0.00930211
0.00770863
0.0077638
0.00781893
0.00787402
0.0079291
0.00798423
0.00803947
0.00809494
0.00815075
0.00820688
0.00826314
0.00831925
0.00837496
0.00843009
0.00848453
0.00853824
0.00859114
0.00864321
0.00869442
0.00874474
0.00879418
0.00884273
0.0088904
0.00893718
0.00898309
0.00748601
0.00753662
0.00758715
0.00763761
0.00768801
0.00773838
0.00778876
0.00783925
0.00788994
0.00794095
0.00799232
0.00804391
0.00809545
0.00814671
0.00819749
0.00824771
0.00829726
0.00834608
0.00839413
0.00844137
0.0084878
0.00853339
0.00857815
0.00862209
0.0086652
0.00731954
0.00736579
0.00741189
0.00745785
0.00750368
0.00754942
0.00759511
0.00764081
0.00768661
0.00773264
0.00777897
0.00782559
0.00787229
0.00791888
0.00796515
0.00801094
0.00805613
0.00810065
0.00814445
0.00818751
0.00822979
0.00827128
0.00831199
0.00835191
0.00711254
0.00715494
0.00719711
0.00723903
0.00728073
0.00732221
0.0073635
0.00740462
0.00744564
0.00748661
0.00752763
0.00756879
0.00761018
0.00765183
0.00769354
0.00773507
0.00777624
0.00781689
0.00785695
0.00789635
0.00793504
0.007973
0.00801021
0.00804667
0.00691489
0.00695402
0.00699279
0.00703121
0.00706928
0.00710701
0.00714441
0.0071815
0.0072183
0.00725484
0.00729117
0.00732735
0.00736344
0.00739966
0.00743609
0.00747268
0.00750926
0.00754563
0.00758162
0.00761709
0.00765197
0.0076862
0.00771974
0.00775257
0.00676167
0.0067977
0.00683324
0.00686831
0.0069029
0.00693704
0.00697071
0.00700395
0.00703676
0.00706916
0.00710119
0.00713287
0.00716434
0.00719568
0.00722698
0.00725833
0.00728974
0.0073211
0.00735226
0.00738305
0.00741334
0.00744306
0.00747215
0.00657583
0.00660982
0.00664319
0.00667594
0.00670808
0.00673962
0.00677057
0.00680094
0.00683074
0.00685998
0.00688867
0.00691684
0.00694456
0.00697189
0.00699886
0.00702555
0.00705202
0.00707836
0.0071046
0.00713074
0.0071567
0.00718234
0.00720754
0.00642649
0.00645839
0.00648953
0.00651992
0.00654958
0.0065785
0.00660671
0.00663421
0.00666101
0.00668713
0.00671257
0.0067374
0.00676166
0.00678537
0.00680856
0.00683128
0.00685357
0.00687547
0.00689704
0.00691834
0.0069394
0.00696025
0.00624459
0.0062757
0.0063059
0.00633521
0.00636365
0.00639123
0.00641795
0.00644383
0.00646889
0.00649313
0.00651656
0.00653923
0.00656118
0.00658243
0.00660301
0.00662295
0.00664226
0.00666098
0.00667915
0.0066968
0.00671398
0.00673073
0.00609167
0.00612152
0.00615036
0.00617818
0.006205
0.00623084
0.00625571
0.00627963
0.00630262
0.00632473
0.00634594
0.00636629
0.0063858
0.00640447
0.00642234
0.00643943
0.00645577
0.00647142
0.00648639
0.00650069
0.00651451
0.00593284
0.00596167
0.00598936
0.00601591
0.00604134
0.0060657
0.00608898
0.00611123
0.00613246
0.00615271
0.00617197
0.00619028
0.00620767
0.00622411
0.00623976
0.00625474
0.00626898
0.00628245
0.00629515
0.00630712
0.0057364
0.00576559
0.00579349
0.00582013
0.00584553
0.00586974
0.00589274
0.00591457
0.00593527
0.00595486
0.00597332
0.00599088
0.00600761
0.00602342
0.0060383
0.00605225
0.00606529
0.00607741
0.00608864
0.00609901
0.00555876
0.00558709
0.00561404
0.00563963
0.0056639
0.00568684
0.00570848
0.00572885
0.00574832
0.00576674
0.00578408
0.00580028
0.00581536
0.00582934
0.00584224
0.00585406
0.00586483
0.00587459
0.00588341
0.00536714
0.00539439
0.00542016
0.00544447
0.0054674
0.00548933
0.00551005
0.0055295
0.00554767
0.00556451
0.00558005
0.00559431
0.00560732
0.00561907
0.00562962
0.00563902
0.00564727
0.00565443
0.00513164
0.00515894
0.00518465
0.00520929
0.00523265
0.00525459
0.00527508
0.00529409
0.00531161
0.00532765
0.00534225
0.00535539
0.00536714
0.00537755
0.0053866
0.00539435
0.00540084
0.00540638
0.00490761
0.00493371
0.00495828
0.00498126
0.00500262
0.00502229
0.00504032
0.00505671
0.00507145
0.00508459
0.00509621
0.00510626
0.00511483
0.00512196
0.00512811
0.00513377
0.00513899
0.00466787
0.00469184
0.00471399
0.00473432
0.00475287
0.00476957
0.00478451
0.00479776
0.00480929
0.00481918
0.00482749
0.00483478
0.00484165
0.00484791
0.0048532
0.00485745
0.00438867
0.00441164
0.00443272
0.00445183
0.00446904
0.00448431
0.00449777
0.00450955
0.00451955
0.00452841
0.00453688
0.00454458
0.00455122
0.00455657
0.00456043
0.00456272
0.00412191
0.00414206
0.0041602
0.0041765
0.0041911
0.00420393
0.00421522
0.00422577
0.00423552
0.0042439
0.00425055
0.0042553
0.00425806
0.00425872
0.00425633
0.00385327
0.00387151
0.00388773
0.00390187
0.00391448
0.00392615
0.00393614
0.00394413
0.00394988
0.00395334
0.00395443
0.0039523
0.00394674
0.00393823
0.00357493
0.00359147
0.00360561
0.00361845
0.00362985
0.00363927
0.00364635
0.00365097
0.00365298
0.00365204
0.00364711
0.00363892
0.00362767
0.00361332
0.00331438
0.0033273
0.00333835
0.00334712
0.00335332
0.00335687
0.0033576
0.00335447
0.00334768
0.00333747
0.00332404
0.00330732
0.00328731
0.00305391
0.00306216
0.00306775
0.00307052
0.00307034
0.00306583
0.00305778
0.00304628
0.00303139
0.00301305
0.00299126
0.00296586
0.00279163
0.00279398
0.00279314
0.0027881
0.00277951
0.00276742
0.00275187
0.00273273
0.00271002
0.00268362
0.00265342
0.00252694
0.00252198
0.00251352
0.00250157
0.00248615
0.00246711
0.0024443
0.00241783
0.00238748
0.00235314
0.00225973
0.00224862
0.00223409
0.00221598
0.00219414
0.00216863
0.00213928
0.00210602
0.0020686
0.00199547
0.00197918
0.00195929
0.00193587
0.00190875
0.00187776
0.0018429
0.00180399
0.00175584
0.00173875
0.00171835
0.00169448
0.00166697
0.00163576
0.00160074
0.00156181
0.00149577
0.00147295
0.00144663
0.00141689
0.0013834
0.00134582
0.00127697
0.00125548
0.00123116
0.00120243
0.00116198
0.00109711
0.00107472
0.00104841
0.00101693
0.000865927
0.013531
0.0135313
0.0135316
0.0135318
0.0135321
0.0135324
0.0135326
0.0135329
0.0135331
0.0135334
0.0135336
0.0135339
0.0135341
0.0135343
0.0135346
0.0134709
0.0134712
0.0134715
0.0134718
0.0134721
0.0134724
0.0134727
0.013473
0.0134733
0.0134736
0.0134738
0.0134741
0.0134743
0.0134746
0.0134749
0.0133987
0.013399
0.0133994
0.0133997
0.0134001
0.0134004
0.0134007
0.013401
0.0134013
0.0134016
0.013402
0.0134023
0.0134026
0.0134028
0.0134031
0.0133243
0.0133247
0.0133251
0.0133254
0.0133258
0.0133262
0.0133265
0.0133269
0.0133272
0.0133275
0.0133279
0.0133282
0.0133285
0.0133289
0.0133292
0.0132423
0.0132427
0.0132432
0.0132436
0.013244
0.0132444
0.0132448
0.0132451
0.0132455
0.0132459
0.0132463
0.0132466
0.013247
0.0132474
0.0132477
0.0131517
0.0131521
0.0131526
0.0131531
0.0131535
0.0131539
0.0131544
0.0131548
0.0131552
0.0131556
0.0131561
0.0131565
0.0131569
0.0131573
0.0131576
0.0130515
0.013052
0.0130525
0.013053
0.0130535
0.013054
0.0130544
0.0130549
0.0130554
0.0130558
0.0130563
0.0130567
0.0130572
0.0130576
0.0130581
0.0129409
0.0129415
0.012942
0.0129426
0.0129431
0.0129436
0.0129442
0.0129447
0.0129452
0.0129457
0.0129462
0.0129467
0.0129472
0.0129477
0.0129481
0.0128193
0.0128199
0.0128205
0.0128211
0.0128217
0.0128223
0.0128229
0.0128235
0.012824
0.0128246
0.0128251
0.0128257
0.0128262
0.0128267
0.0128273
0.0126858
0.0126865
0.0126872
0.0126878
0.0126885
0.0126891
0.0126898
0.0126904
0.012691
0.0126916
0.0126922
0.0126928
0.0126934
0.012694
0.0126946
0.0125397
0.0125404
0.0125411
0.0125419
0.0125426
0.0125433
0.012544
0.0125447
0.0125453
0.012546
0.0125467
0.0125473
0.012548
0.0125486
0.0125493
0.01238
0.0123808
0.0123816
0.0123824
0.0123832
0.012384
0.0123847
0.0123855
0.0123862
0.0123869
0.0123877
0.0123884
0.0123891
0.0123898
0.0123905
0.0122061
0.012207
0.0122079
0.0122087
0.0122096
0.0122104
0.0122112
0.0122121
0.0122129
0.0122137
0.0122145
0.0122152
0.012216
0.0122168
0.0122176
0.0120173
0.0120182
0.0120192
0.0120201
0.012021
0.0120219
0.0120228
0.0120237
0.0120246
0.0120255
0.0120263
0.0120272
0.012028
0.0120289
0.0120297
0.011813
0.011814
0.011815
0.011816
0.011817
0.011818
0.011819
0.01182
0.0118209
0.0118219
0.0118228
0.0118238
0.0118247
0.0118256
0.0118265
0.011593
0.0115941
0.0115952
0.0115963
0.0115974
0.0115985
0.0115995
0.0116006
0.0116016
0.0116026
0.0116037
0.0116047
0.0116057
0.0116067
0.0116077
0.0113572
0.0113584
0.0113596
0.0113608
0.0113619
0.0113631
0.0113642
0.0113653
0.0113665
0.0113676
0.0113687
0.0113698
0.0113709
0.0113719
0.011373
0.0111059
0.0111072
0.0111085
0.0111097
0.011111
0.0111122
0.0111134
0.0111146
0.0111158
0.011117
0.0111182
0.0111194
0.0111206
0.0111217
0.0111229
0.0108399
0.0108412
0.0108426
0.0108439
0.0108452
0.0108465
0.0108478
0.0108491
0.0108504
0.0108517
0.010853
0.0108542
0.0108555
0.0108567
0.0108579
0.0105599
0.0105613
0.0105627
0.0105642
0.0105656
0.010567
0.0105683
0.0105697
0.0105711
0.0105724
0.0105738
0.0105751
0.0105765
0.0105778
0.0105791
0.0102672
0.0102687
0.0102702
0.0102717
0.0102732
0.0102747
0.0102761
0.0102776
0.010279
0.0102805
0.0102819
0.0102833
0.0102847
0.0102861
0.0102875
0.00996354
0.00996512
0.0099667
0.00996827
0.00996982
0.00997137
0.00997291
0.00997443
0.00997595
0.00997746
0.00997896
0.00998045
0.00998194
0.00998341
0.00998488
0.00965136
0.00965301
0.00965465
0.00965628
0.0096579
0.00965951
0.00966112
0.00966271
0.00966429
0.00966587
0.00966744
0.009669
0.00967055
0.00967209
0.00967363
0.0093334
0.00933511
0.0093368
0.00933849
0.00934016
0.00934183
0.00934349
0.00934514
0.00934678
0.00934841
0.00935004
0.00935166
0.00935327
0.00935487
0.00935647
0.00901273
0.00901448
0.00901622
0.00901795
0.00901967
0.00902138
0.00902308
0.00902478
0.00902647
0.00902815
0.00902982
0.00903149
0.00903315
0.0090348
0.00903645
0.00869288
0.00869466
0.00869642
0.00869818
0.00869993
0.00870168
0.00870341
0.00870514
0.00870686
0.00870857
0.00871028
0.00871198
0.00871368
0.00871537
0.00871705
0.00837742
0.00837921
0.00838099
0.00838277
0.00838453
0.00838629
0.00838804
0.00838979
0.00839153
0.00839326
0.00839499
0.00839671
0.00839843
0.00840014
0.00840184
0.00806985
0.00807164
0.00807342
0.00807519
0.00807696
0.00807872
0.00808048
0.00808223
0.00808398
0.00808572
0.00808745
0.00808918
0.0080909
0.00809262
0.00809433
0.00777334
0.00777511
0.00777688
0.00777864
0.0077804
0.00778215
0.0077839
0.00778564
0.00778738
0.00778911
0.00779084
0.00779256
0.00779428
0.00779599
0.0077977
0.00749048
0.00749222
0.00749397
0.00749571
0.00749744
0.00749917
0.00750089
0.00750261
0.00750433
0.00750604
0.00750775
0.00750945
0.00751116
0.00751285
0.00751455
0.00722341
0.00722511
0.00722682
0.00722851
0.00723021
0.0072319
0.00723359
0.00723528
0.00723696
0.00723864
0.00724032
0.007242
0.00724367
0.00724534
0.007247
0.00697351
0.00697515
0.00697679
0.00697842
0.00698006
0.00698169
0.00698332
0.00698495
0.00698658
0.00698821
0.00698984
0.00699147
0.00699309
0.00699471
0.00699633
0.00674124
0.00674279
0.00674434
0.00674589
0.00674745
0.006749
0.00675055
0.0067521
0.00675365
0.00675521
0.00675676
0.00675831
0.00675986
0.00676142
0.00676297
0.00652301
0.0065245
0.00652598
0.00652747
0.00652897
0.00653046
0.00653195
0.00653345
0.00653495
0.00653645
0.00653795
0.00653945
0.00654095
0.00654246
0.00654396
0.0063143
0.00631571
0.00631712
0.00631854
0.00631997
0.00632141
0.00632285
0.0063243
0.00632575
0.00632721
0.00632867
0.00633014
0.00633161
0.00633309
0.00633457
0.00610512
0.00610649
0.00610788
0.00610927
0.00611069
0.00611211
0.00611355
0.00611499
0.00611645
0.00611792
0.0061194
0.00612088
0.00612238
0.00612388
0.00612539
0.00588844
0.00588978
0.00589115
0.00589254
0.00589396
0.00589539
0.00589685
0.00589832
0.00589982
0.00590133
0.00590285
0.0059044
0.00590595
0.00590753
0.00590911
0.00565836
0.00565968
0.00566104
0.00566243
0.00566387
0.00566534
0.00566684
0.00566837
0.00566993
0.00567152
0.00567313
0.00567477
0.00567643
0.00567812
0.00567982
0.00540957
0.00541079
0.00541214
0.00541359
0.00541512
0.00541671
0.00541833
0.00542
0.00542171
0.00542345
0.00542523
0.00542704
0.00542889
0.00543076
0.00543266
0.00514196
0.0051432
0.0051446
0.00514615
0.00514784
0.00514962
0.00515146
0.00515336
0.0051553
0.00515728
0.00515931
0.00516138
0.00516349
0.00516563
0.00516781
0.00485959
0.00486065
0.00486196
0.00486348
0.00486519
0.00486707
0.0048691
0.00487121
0.00487338
0.00487561
0.0048779
0.00488025
0.00488264
0.00488507
0.00488755
0.00456314
0.00456369
0.00456461
0.00456587
0.00456743
0.00456925
0.00457129
0.00457354
0.00457593
0.00457841
0.00458096
0.00458359
0.00458628
0.00458904
0.00459185
0.004252
0.00425197
0.00425245
0.00425343
0.00425483
0.0042566
0.0042587
0.00426109
0.00426372
0.00426649
0.00426937
0.00427234
0.00427541
0.00427855
0.00428178
0.00392918
0.00392895
0.00392905
0.00392983
0.00393118
0.00393304
0.00393533
0.00393799
0.00394096
0.00394411
0.00394738
0.00395077
0.00395428
0.00395788
0.00396158
0.00359936
0.00359891
0.0035988
0.00359938
0.00360073
0.00360273
0.00360527
0.00360826
0.00361163
0.00361517
0.00361886
0.0036227
0.00362666
0.00363074
0.00363492
0.00326828
0.00326759
0.00326733
0.00326774
0.00326913
0.00327132
0.00327418
0.00327757
0.00328133
0.0032853
0.00328945
0.00329376
0.00329822
0.00330281
0.00330751
0.002942
0.00294107
0.00294068
0.00294103
0.00294259
0.00294512
0.00294842
0.00295234
0.00295654
0.00296098
0.00296563
0.00297046
0.00297545
0.00298059
0.00298586
0.00262505
0.00262391
0.00262345
0.00262394
0.00262589
0.00262896
0.00263289
0.00263731
0.00264205
0.00264705
0.00265228
0.00265772
0.00266333
0.00266909
0.00267498
0.0023208
0.00231948
0.00231904
0.00231994
0.00232251
0.00232632
0.0023309
0.00233589
0.00234124
0.00234688
0.00235276
0.00235886
0.00236514
0.00237157
0.00237812
0.00203323
0.0020318
0.00203147
0.00203306
0.00203648
0.00204112
0.00204631
0.00205197
0.002058
0.00206434
0.00207094
0.00207775
0.00208473
0.00209185
0.00209909
0.00176707
0.00176564
0.00176553
0.00176798
0.00177234
0.00177756
0.00178339
0.00178971
0.00179643
0.00180346
0.00181074
0.00181822
0.00182587
0.00183363
0.0018415
0.00152467
0.00152333
0.00152378
0.00152717
0.00153216
0.00153798
0.00154444
0.0015514
0.00155876
0.00156642
0.00157433
0.00158242
0.00159065
0.00159899
0.00160742
0.00131002
0.00130885
0.00131
0.00131409
0.0013194
0.00132555
0.00133236
0.00133967
0.00134737
0.00135537
0.00136361
0.00137202
0.00138058
0.00138924
0.00139799
0.0011301
0.00112928
0.00113107
0.00113523
0.00114036
0.00114622
0.00115261
0.00115941
0.00116656
0.00117404
0.00118183
0.00118986
0.00119811
0.00120653
0.0012151
0.000987011
0.000986411
0.00098834
0.000992148
0.000996719
0.00100189
0.00100756
0.00101364
0.00102001
0.00102659
0.00103332
0.00104017
0.00104713
0.00105422
0.00106144
0.000852833
0.000857651
0.000865788
0.000874862
0.000883957
0.000892629
0.000900644
0.000907938
0.000914582
0.00092066
0.000926252
0.000931452
0.000936366
0.000941122
0.000945927
0.000747512
0.000766352
0.000785969
0.000805553
0.000824591
0.000840867
0.000854433
0.000865541
0.00087448
0.00088157
0.000716488
0.00073887
0.000760795
0.00078004
0.0135349
0.0135353
0.0135357
0.0135362
0.0135366
0.0134752
0.0134756
0.0134761
0.0134766
0.013477
0.0134035
0.013404
0.0134046
0.0134051
0.0134056
0.0133296
0.0133302
0.0133308
0.0133314
0.013332
0.0132481
0.0132488
0.0132495
0.0132502
0.0132508
0.0131581
0.0131589
0.0131597
0.0131604
0.0131612
0.0130586
0.0130594
0.0130603
0.0130612
0.013062
0.0129487
0.0129497
0.0129507
0.0129517
0.0129526
0.0128279
0.012829
0.0128301
0.0128312
0.0128323
0.0126953
0.0126965
0.0126978
0.012699
0.0127002
0.01255
0.0125515
0.0125529
0.0125542
0.0125556
0.0123914
0.012393
0.0123945
0.0123961
0.0123976
0.0122185
0.0122203
0.0122221
0.0122238
0.0122255
0.0120308
0.0120328
0.0120347
0.0120367
0.0120386
0.0118277
0.0118299
0.0118321
0.0118343
0.0118364
0.011609
0.0116114
0.0116139
0.0116163
0.0116187
0.0113745
0.0113772
0.0113799
0.0113826
0.0113852
0.0111245
0.0111275
0.0111305
0.0111334
0.0111363
0.0108597
0.010863
0.0108662
0.0108695
0.0108726
0.0105811
0.0105846
0.0105881
0.0105916
0.0105951
0.0102896
0.0102935
0.0102973
0.0103011
0.0103049
0.0099872
0.00999134
0.00999544
0.0099995
0.0100035
0.00967612
0.00968053
0.0096849
0.00968924
0.00969354
0.00935913
0.00936379
0.00936841
0.009373
0.00937755
0.00903926
0.00904415
0.00904899
0.0090538
0.00905858
0.00871999
0.00872507
0.0087301
0.0087351
0.00874006
0.0084049
0.00841012
0.0084153
0.00842044
0.00842555
0.00809747
0.00810279
0.00810807
0.00811332
0.00811853
0.0078009
0.00780628
0.00781162
0.00781692
0.00782219
0.00751778
0.00752317
0.00752853
0.00753385
0.00753915
0.00725024
0.00725561
0.00726095
0.00726626
0.00727154
0.00699953
0.00700481
0.00701006
0.00701529
0.0070205
0.00676607
0.00677117
0.00677624
0.00678129
0.00678632
0.00654701
0.006552
0.00655696
0.00656191
0.00656685
0.0063376
0.00634259
0.00634758
0.00635258
0.00635759
0.00612852
0.00613369
0.00613891
0.00614417
0.00614945
0.00591243
0.00591796
0.00592358
0.00592929
0.00593507
0.00568343
0.00568949
0.00569573
0.0057021
0.00570859
0.00543671
0.00544356
0.00545065
0.00545793
0.00546538
0.00517247
0.00518037
0.00518857
0.00519701
0.00520567
0.00489289
0.00490198
0.00491148
0.00492131
0.00493141
0.00459793
0.00460841
0.00461945
0.00463095
0.00464282
0.00428875
0.00430089
0.00431378
0.00432724
0.00434114
0.00396955
0.00398348
0.00399829
0.00401374
0.00402967
0.0036439
0.00365962
0.00367636
0.00369382
0.0037118
0.00331751
0.00333511
0.00335385
0.00337338
0.00339344
0.0029969
0.00301641
0.00303718
0.00305878
0.00308093
0.00268715
0.00270871
0.00273164
0.00275542
0.00277971
0.00239142
0.00241509
0.00244022
0.00246618
0.00249262
0.00211347
0.00213923
0.00216655
0.00219467
0.00222319
0.00185681
0.00188446
0.00191379
0.00194395
0.00197444
0.00162345
0.00165279
0.00168395
0.00171592
0.00174817
0.00141432
0.0014448
0.00147736
0.00151083
0.0015446
0.00123088
0.00126134
0.00129431
0.00132846
0.00136313
0.00107468
0.00110275
0.00113429
0.00116777
0.00120237
0.000955294
0.000976594
0.00100187
0.00103056
0.00106209
0.000891833
0.0009011
0.00091024
0.000924796
0.000945876
0.000810009
0.000826253
0.00082454
0.000823567
0.000833402
0.000708286
0.000716132
0.000705786
0.000706813
0.000415951
0.000448255
0.00045977
0.0135376
0.0135396
0.0135417
0.0135439
0.0135463
0.0135488
0.0135515
0.0135543
0.0135573
0.0135604
0.0135638
0.0135673
0.013571
0.0135749
0.0135791
0.0135835
0.0135881
0.0135929
0.013598
0.0136033
0.0136089
0.0136147
0.0136209
0.0136273
0.013634
0.0136409
0.0136482
0.0136558
0.0136637
0.0136718
0.0136803
0.0136892
0.0136983
0.0137078
0.0137176
0.0137278
0.0137384
0.0137494
0.0137608
0.0137726
0.0137848
0.0137973
0.0138101
0.0138233
0.0138368
0.0138507
0.0138653
0.013881
0.0138986
0.0139183
0.0139405
0.0139656
0.013993
0.014025
0.0140669
0.0141085
0.0141358
0.0141298
0.0140857
0.0140339
0.013478
0.0134805
0.0134832
0.013486
0.013489
0.0134921
0.0134955
0.013499
0.0135027
0.0135066
0.0135107
0.0135151
0.0135196
0.0135245
0.0135295
0.0135349
0.0135405
0.0135463
0.0135525
0.013559
0.0135657
0.0135728
0.0135801
0.0135878
0.0135958
0.013604
0.0136127
0.0136216
0.0136308
0.0136404
0.0136502
0.0136604
0.0136709
0.0136816
0.0136926
0.0137039
0.0137156
0.0137277
0.0137404
0.0137533
0.0137667
0.0137804
0.0137945
0.0138089
0.0138234
0.013838
0.0138526
0.0138678
0.0138841
0.0139025
0.0139238
0.0139491
0.0139762
0.0140053
0.0140454
0.0140905
0.0141277
0.0141338
0.0140954
0.0140387
0.0134068
0.0134099
0.0134131
0.0134166
0.0134202
0.0134241
0.0134282
0.0134326
0.0134371
0.013442
0.0134471
0.0134524
0.0134581
0.013464
0.0134703
0.0134768
0.0134837
0.0134909
0.0134984
0.0135063
0.0135145
0.0135231
0.013532
0.0135413
0.0135509
0.0135609
0.0135712
0.0135819
0.0135929
0.0136043
0.013616
0.013628
0.0136403
0.013653
0.0136659
0.0136792
0.0136927
0.0137065
0.0137206
0.0137349
0.0137496
0.0137646
0.01378
0.0137959
0.0138119
0.0138277
0.0138431
0.0138584
0.0138741
0.013892
0.0139122
0.0139362
0.0139628
0.0139915
0.0140262
0.0140719
0.0141155
0.0141325
0.0141015
0.0140437
0.0133335
0.0133373
0.0133414
0.0133457
0.0133502
0.013355
0.01336
0.0133654
0.013371
0.0133769
0.0133832
0.0133898
0.0133967
0.0134039
0.0134115
0.0134195
0.0134278
0.0134365
0.0134456
0.0134551
0.0134649
0.0134752
0.0134858
0.0134968
0.0135082
0.01352
0.0135321
0.0135447
0.0135575
0.0135707
0.0135842
0.013598
0.0136121
0.0136265
0.0136411
0.013656
0.0136711
0.0136864
0.0137019
0.0137176
0.0137335
0.0137495
0.0137657
0.0137821
0.0137987
0.0138154
0.0138323
0.0138491
0.013866
0.0138838
0.013903
0.0139247
0.0139509
0.0139796
0.0140106
0.0140552
0.0141027
0.0141291
0.0141063
0.0140477
0.0132528
0.0132575
0.0132625
0.0132678
0.0132733
0.0132792
0.0132855
0.013292
0.0132989
0.0133062
0.0133138
0.0133218
0.0133303
0.0133391
0.0133483
0.0133579
0.013368
0.0133785
0.0133894
0.0134007
0.0134125
0.0134247
0.0134373
0.0134504
0.0134638
0.0134777
0.0134919
0.0135065
0.0135214
0.0135367
0.0135523
0.0135681
0.0135842
0.0136005
0.013617
0.0136337
0.0136505
0.0136675
0.0136845
0.0137017
0.013719
0.0137363
0.0137537
0.0137712
0.0137888
0.0138065
0.0138242
0.0138419
0.0138596
0.0138776
0.0138965
0.0139172
0.0139411
0.0139699
0.013999
0.0140406
0.01409
0.0141239
0.0141093
0.0140509
0.0131636
0.0131693
0.0131754
0.0131819
0.0131887
0.013196
0.0132036
0.0132116
0.0132201
0.0132289
0.0132382
0.013248
0.0132582
0.0132689
0.01328
0.0132916
0.0133038
0.0133163
0.0133294
0.013343
0.013357
0.0133715
0.0133864
0.0134018
0.0134176
0.0134338
0.0134504
0.0134673
0.0134846
0.0135022
0.0135201
0.0135381
0.0135564
0.0135749
0.0135934
0.0136121
0.0136308
0.0136495
0.0136682
0.0136869
0.0137056
0.0137243
0.0137429
0.0137616
0.0137802
0.0137987
0.0138173
0.0138358
0.0138542
0.0138728
0.0138917
0.0139119
0.0139346
0.013962
0.0139916
0.0140282
0.0140782
0.0141177
0.014111
0.0140533
0.013065
0.013072
0.0130794
0.0130873
0.0130956
0.0131045
0.0131138
0.0131235
0.0131338
0.0131446
0.0131559
0.0131677
0.01318
0.0131929
0.0132063
0.0132203
0.0132348
0.0132499
0.0132654
0.0132816
0.0132982
0.0133153
0.0133329
0.013351
0.0133695
0.0133883
0.0134076
0.0134272
0.0134471
0.0134673
0.0134876
0.0135082
0.0135288
0.0135496
0.0135704
0.0135911
0.0136118
0.0136324
0.0136529
0.0136732
0.0136934
0.0137134
0.0137332
0.013753
0.0137726
0.013792
0.0138114
0.0138306
0.0138497
0.0138688
0.013888
0.013908
0.0139298
0.0139554
0.0139853
0.0140179
0.0140674
0.0141109
0.0141116
0.0140548
0.0129563
0.0129647
0.0129737
0.0129832
0.0129934
0.0130041
0.0130154
0.0130272
0.0130396
0.0130527
0.0130663
0.0130805
0.0130954
0.0131108
0.0131269
0.0131436
0.0131609
0.0131788
0.0131973
0.0132164
0.013236
0.0132561
0.0132768
0.0132979
0.0133194
0.0133413
0.0133636
0.0133861
0.0134089
0.0134319
0.0134551
0.0134783
0.0135015
0.0135248
0.0135479
0.0135709
0.0135937
0.0136163
0.0136386
0.0136605
0.0136822
0.0137036
0.0137246
0.0137454
0.013766
0.0137863
0.0138064
0.0138263
0.013846
0.0138655
0.0138851
0.0139051
0.0139265
0.0139507
0.0139798
0.0140095
0.0140579
0.0141041
0.0141114
0.0140558
0.0128367
0.0128468
0.0128576
0.0128692
0.0128815
0.0128944
0.012908
0.0129222
0.0129372