/*--------------------------------*- C++ -*----------------------------------*\
  =========                 |
  \\      /  F ield         | OpenFOAM: The Open Source CFD Toolbox
   \\    /   O peration     | Website:  https://openfoam.org
    \\  /    A nd           | Version:  9
     \\/     M anipulation  |
\*---------------------------------------------------------------------------*/
FoamFile
{
    format      ascii;
    class       volScalarField;
    location    "0.005";
    object      p;
}
// * * * * * * * * * * * * * * * * * * * * * * * * * * * * * * * * * * * * * //

dimensions      [1 -1 -2 0 0 0 0];

internalField   nonuniform List<scalar> 
6098
(
99999.2
99999.1
99998.9
99998.8
99998.7
99998.6
99998.4
99998.3
99998.2
99998.1
99998
99997.9
99997.8
99997.7
99997.6
99997.5
99997.4
99997.3
99997.2
99997.1
99997.1
99997
99996.9
99996.8
99996.8
99996.7
99996.7
99996.7
99996.6
99999.1
99999
99998.9
99998.8
99998.6
99998.5
99998.4
99998.3
99998.2
99998.1
99997.9
99997.8
99997.7
99997.6
99997.5
99997.4
99997.3
99997.2
99997.1
99997
99996.9
99996.8
99996.7
99996.7
99996.6
99996.5
99996.4
99996.3
99996.3
99998.3
99998
99997.8
99997.5
99997.3
99997
99996.8
99996.6
99996.3
99996.1
99995.8
99995.6
99995.4
99995.2
99994.9
99994.7
99994.5
99994.3
99994.1
99993.9
99993.7
99993.5
99993.3
99993.1
99992.9
99992.8
99992.6
99992.4
99992.3
99997.8
99997.5
99997.2
99996.9
99996.6
99996.3
99996
99995.7
99995.4
99995.1
99994.8
99994.5
99994.2
99993.9
99993.6
99993.4
99993.1
99992.8
99992.6
99992.3
99992.1
99991.8
99991.6
99991.3
99991.1
99990.9
99990.7
99990.5
99990.3
99997.2
99996.8
99996.4
99996
99995.6
99995.3
99994.9
99994.5
99994.1
99993.7
99993.3
99993
99992.6
99992.2
99991.9
99991.5
99991.2
99990.8
99990.5
99990.2
99989.9
99989.5
99989.2
99988.9
99988.6
99988.3
99988.1
99987.8
99987.5
99996.7
99996.3
99995.8
99995.3
99994.9
99994.4
99994
99993.5
99993.1
99992.6
99992.2
99991.7
99991.3
99990.9
99990.5
99990
99989.6
99989.2
99988.8
99988.4
99988.1
99987.7
99987.3
99986.9
99986.6
99986.2
99985.9
99985.6
99985.2
99996.2
99995.7
99995.1
99994.6
99994.1
99993.5
99993
99992.5
99992
99991.4
99990.9
99990.4
99989.9
99989.4
99988.9
99988.4
99987.9
99987.5
99987
99986.5
99986.1
99985.6
99985.2
99984.8
99984.4
99984
99983.6
99983.2
99982.8
99995.7
99995.1
99994.5
99993.9
99993.3
99992.7
99992.1
99991.5
99990.9
99990.3
99989.7
99989.1
99988.5
99988
99987.4
99986.9
99986.3
99985.8
99985.2
99984.7
99984.2
99983.7
99983.2
99982.7
99982.2
99981.7
99981.3
99980.8
99980.4
99995.1
99994.5
99993.8
99993.1
99992.4
99991.7
99991.1
99990.4
99989.7
99989.1
99988.4
99987.8
99987.1
99986.5
99985.8
99985.2
99984.6
99984
99983.4
99982.8
99982.2
99981.6
99981.1
99980.5
99980
99979.4
99978.9
99978.4
99977.9
99994.6
99993.8
99993.1
99992.3
99991.5
99990.8
99990
99989.3
99988.6
99987.8
99987.1
99986.4
99985.6
99984.9
99984.2
99983.5
99982.8
99982.1
99981.5
99980.8
99980.2
99979.5
99978.9
99978.2
99977.6
99977
99976.4
99975.9
99975.3
99994
99993.1
99992.3
99991.4
99990.6
99989.8
99988.9
99988.1
99987.3
99986.5
99985.7
99984.9
99984.1
99983.3
99982.5
99981.7
99981
99980.2
99979.4
99978.7
99978
99977.3
99976.6
99975.9
99975.2
99974.5
99973.9
99973.2
99972.6
99992.4
99991.4
99990.5
99989.6
99988.7
99987.8
99986.9
99985.9
99985
99984.2
99983.3
99982.4
99981.5
99980.7
99979.8
99979
99978.1
99977.3
99976.5
99975.7
99974.9
99974.1
99973.3
99972.6
99971.9
99971.1
99970.4
99969.7
99991.5
99990.5
99989.5
99988.5
99987.5
99986.5
99985.5
99984.5
99983.5
99982.5
99981.5
99980.6
99979.6
99978.7
99977.7
99976.8
99975.9
99975
99974.1
99973.2
99972.3
99971.5
99970.6
99969.8
99969
99968.2
99967.4
99966.7
99990.5
99989.4
99988.3
99987.2
99986.1
99985
99983.9
99982.8
99981.7
99980.7
99979.6
99978.6
99977.5
99976.5
99975.4
99974.4
99973.4
99972.4
99971.5
99970.5
99969.6
99968.6
99967.7
99966.8
99965.9
99965
99964.2
99963.3
99989.4
99988.2
99987
99985.8
99984.6
99983.4
99982.2
99981
99979.8
99978.6
99977.5
99976.3
99975.2
99974.1
99972.9
99971.8
99970.7
99969.7
99968.6
99967.5
99966.5
99965.5
99964.5
99963.5
99962.5
99961.6
99960.6
99959.7
99988
99986.7
99985.4
99984.1
99982.8
99981.5
99980.2
99978.9
99977.6
99976.3
99975.1
99973.8
99972.6
99971.3
99970.1
99968.9
99967.7
99966.6
99965.4
99964.3
99963.1
99962
99960.9
99959.9
99958.8
99957.8
99956.8
99955.8
99986.4
99985
99983.6
99982.1
99980.7
99979.3
99977.9
99976.5
99975.1
99973.7
99972.3
99971
99969.6
99968.3
99967
99965.7
99964.4
99963.1
99961.8
99960.6
99959.4
99958.2
99957
99955.8
99954.7
99953.6
99952.5
99951.4
99983
99981.4
99979.8
99978.3
99976.8
99975.2
99973.7
99972.2
99970.7
99969.2
99967.7
99966.3
99964.8
99963.4
99962
99960.6
99959.2
99957.8
99956.5
99955.2
99953.9
99952.6
99951.3
99950.1
99948.9
99947.7
99946.5
99980.5
99978.8
99977.1
99975.5
99973.8
99972.1
99970.5
99968.9
99967.2
99965.6
99964
99962.4
99960.9
99959.3
99957.8
99956.3
99954.8
99953.3
99951.9
99950.4
99949
99947.6
99946.3
99945
99943.6
99942.3
99941.1
99977.6
99975.8
99973.9
99972.1
99970.3
99968.5
99966.7
99965
99963.2
99961.5
99959.7
99958
99956.3
99954.7
99953
99951.4
99949.8
99948.2
99946.6
99945.1
99943.6
99942.1
99940.6
99939.2
99937.7
99936.3
99935
99974.1
99972.1
99970.2
99968.2
99966.3
99964.3
99962.4
99960.5
99958.6
99956.7
99954.8
99953
99951.2
99949.3
99947.6
99945.8
99944.1
99942.3
99940.7
99939
99937.3
99935.7
99934.2
99932.6
99931.1
99929.6
99928.1
99967.9
99965.7
99963.6
99961.5
99959.4
99957.3
99955.3
99953.2
99951.2
99949.2
99947.2
99945.2
99943.3
99941.3
99939.4
99937.5
99935.7
99933.9
99932.1
99930.3
99928.6
99926.9
99925.2
99923.5
99921.9
99920.4
99962.8
99960.5
99958.3
99956
99953.7
99951.5
99949.3
99947
99944.8
99942.7
99940.5
99938.4
99936.3
99934.2
99932.1
99930.1
99928.1
99926.1
99924.2
99922.3
99920.4
99918.6
99916.8
99915
99913.3
99911.6
99957
99954.5
99952
99949.6
99947.2
99944.7
99942.3
99939.9
99937.6
99935.2
99932.9
99930.6
99928.3
99926.1
99923.8
99921.6
99919.5
99917.4
99915.3
99913.2
99911.2
99909.2
99907.3
99905.3
99903.4
99901.6
99947.5
99944.9
99942.2
99939.6
99937
99934.4
99931.8
99929.2
99926.7
99924.2
99921.7
99919.2
99916.8
99914.4
99912
99909.7
99907.4
99905.1
99902.9
99900.7
99898.6
99896.5
99894.4
99892.3
99890.4
99939.5
99936.6
99933.8
99930.9
99928.1
99925.3
99922.5
99919.7
99917
99914.2
99911.5
99908.9
99906.2
99903.6
99901.1
99898.5
99896
99893.6
99891.2
99888.8
99886.5
99884.2
99882
99879.7
99877.6
99927.2
99924.1
99921
99918
99914.9
99911.9
99908.9
99905.9
99902.9
99900
99897.1
99894.3
99891.4
99888.6
99885.9
99883.2
99880.5
99877.9
99875.3
99872.8
99870.3
99867.9
99865.4
99863.1
99916.5
99913.1
99909.8
99906.4
99903.1
99899.8
99896.6
99893.3
99890.1
99886.9
99883.8
99880.7
99877.6
99874.6
99871.6
99868.6
99865.7
99862.8
99860
99857.2
99854.5
99851.9
99849.2
99846.6
99904.3
99900.6
99897
99893.4
99889.8
99886.2
99882.7
99879.1
99875.6
99872.2
99868.7
99865.3
99861.9
99858.6
99855.3
99852.1
99848.9
99845.8
99842.7
99839.6
99836.7
99833.8
99830.8
99827.9
99886.5
99882.6
99878.7
99874.7
99870.8
99866.9
99863.1
99859.2
99855.4
99851.7
99847.9
99844.2
99840.6
99837
99833.4
99829.9
99826.4
99823
99819.7
99816.4
99813.2
99809.9
99806.7
99870.7
99866.3
99862
99857.7
99853.4
99849.2
99844.9
99840.7
99836.5
99832.4
99828.3
99824.2
99820.2
99816.2
99812.3
99808.4
99804.6
99800.8
99797.1
99793.5
99789.9
99786.2
99782.6
99848
99843.3
99838.6
99833.9
99829.2
99824.5
99819.9
99815.2
99810.7
99806.1
99801.6
99797.1
99792.7
99788.3
99784
99779.8
99775.6
99771.4
99767.4
99763.4
99759.3
99755.2
99827.5
99822.3
99817
99811.8
99806.6
99801.5
99796.3
99791.2
99786.1
99781.1
99776
99771.1
99766.1
99761.3
99756.4
99751.7
99747
99742.3
99737.8
99733.3
99728.6
99723.9
99798.6
99792.8
99787
99781.3
99775.5
99769.8
99764.1
99758.4
99752.7
99747.1
99741.6
99736
99730.6
99725.1
99719.8
99714.5
99709.2
99704.1
99699.1
99693.7
99688.2
99765.5
99759.1
99752.7
99746.3
99739.8
99733.4
99727.1
99720.7
99714.4
99708.2
99701.9
99695.7
99689.6
99683.5
99677.5
99671.6
99665.8
99660.1
99653.7
99647.4
99734.9
99727.7
99720.5
99713.2
99706
99698.9
99691.7
99684.5
99677.4
99670.3
99663.2
99656.2
99649.3
99642.3
99635.5
99628.7
99622.1
99615.5
99608.1
99600.6
99692.2
99684.1
99676
99667.9
99659.8
99651.6
99643.5
99635.4
99627.4
99619.3
99611.4
99603.4
99595.5
99587.6
99579.8
99572.2
99564.6
99556
99547
99643.1
99633.9
99624.7
99615.5
99606.3
99597.1
99587.8
99578.6
99569.5
99560.3
99551.2
99542.1
99533
99524
99515.2
99506.4
99496.1
99485.4
99596.7
99586.3
99575.9
99565.4
99554.9
99544.3
99533.8
99523.2
99512.7
99502.2
99491.7
99481.2
99470.6
99459.8
99449.6
99439.8
99427.5
99414.7
99532.4
99520.5
99508.5
99496.5
99484.4
99472.4
99460.3
99448.2
99436
99423.6
99411.4
99399.1
99386.4
99374.5
99363.3
99348.7
99333.6
99457.7
99444
99430.2
99416.4
99402.5
99388.6
99374.3
99360.1
99345.8
99331.7
99317.3
99302.5
99288.7
99275.6
99258.2
99240.3
99386.3
99370.7
99354.9
99339
99322.7
99306.4
99290.1
99273.6
99257
99240.6
99223.9
99206.7
99190.5
99174.9
99153.9
99133.2
99287.4
99269
99250.4
99231.7
99212.9
99194
99174.9
99155.8
99136.8
99117.3
99097
99078
99059.4
99034.4
99010.8
99171
99149.6
99128.1
99106.4
99084.6
99062.7
99040.7
99018.5
98995.4
98971.8
98949.8
98928.1
98898.2
98872
99059.7
99035.1
99010.4
98985.5
98960.6
98935.2
98909.5
98883.7
98857.1
98829.8
98804.8
98779.4
98744.1
98715.7
98905.2
98876.9
98848.6
98819.8
98790.4
98760.9
98731.5
98700.9
98669.9
98641.9
98612.4
98571.5
98542
98726
98693.5
98660.4
98627
98593.8
98560.5
98525.9
98491.3
98460.6
98426.8
98379.8
98351.7
98518.9
98481.6
98444.3
98407.4
98370.4
98331.9
98294.4
98261.6
98223.1
98171.9
98147.9
98283
98242.1
98201.8
98161.5
98120.1
98081.4
98047.4
98004.9
97952.5
97937.5
98021.2
97978.6
97936.3
97894.7
97857.2
97822.6
97778.3
97733.1
97733.2
97740.7
97698.9
97660.5
97626
97590.7
97552.9
97532.6
97543.5
97490.5
97453.3
97421.2
97392.6
97365.7
97352.2
97362.9
97390.3
97188.7
97176.2
97176.4
97192.4
97237.4
97288.5
96997
97030.1
97075.5
97157.3
97259.2
96964.7
97041.5
97149.6
97282.5
97230.4
99996.5
99996.5
99996.5
99996.5
99996.5
99996.5
99996.5
99996.5
99996.5
99996.5
99996.5
99996.5
99996.5
99996.5
99996.5
99996.2
99996.2
99996.2
99996.2
99996.2
99996.2
99996.2
99996.2
99996.2
99996.2
99996.2
99996.2
99996.2
99996.2
99996.2
99992.2
99992.2
99992.2
99992.2
99992.2
99992.2
99992.2
99992.2
99992.2
99992.2
99992.2
99992.2
99992.2
99992.2
99992.2
99990.2
99990.2
99990.2
99990.2
99990.2
99990.2
99990.2
99990.2
99990.2
99990.2
99990.2
99990.2
99990.2
99990.2
99990.2
99987.4
99987.4
99987.4
99987.4
99987.4
99987.4
99987.4
99987.4
99987.4
99987.4
99987.4
99987.4
99987.4
99987.4
99987.4
99985.1
99985.1
99985.1
99985.1
99985.1
99985.1
99985.1
99985.1
99985.1
99985.1
99985.1
99985.1
99985.1
99985.1
99985.1
99982.6
99982.6
99982.6
99982.6
99982.6
99982.6
99982.6
99982.6
99982.6
99982.6
99982.6
99982.6
99982.6
99982.6
99982.6
99980.2
99980.2
99980.2
99980.2
99980.2
99980.1
99980.1
99980.1
99980.1
99980.1
99980.1
99980.1
99980.1
99980.1
99980.2
99977.6
99977.6
99977.6
99977.6
99977.6
99977.6
99977.6
99977.6
99977.6
99977.6
99977.6
99977.6
99977.6
99977.6
99977.6
99975
99975
99975
99975
99975
99975
99975
99975
99975
99975
99975
99975
99975
99975
99975
99972.3
99972.3
99972.3
99972.3
99972.3
99972.3
99972.2
99972.2
99972.2
99972.2
99972.2
99972.2
99972.2
99972.2
99972.3
99969.4
99969.4
99969.4
99969.4
99969.4
99969.3
99969.3
99969.3
99969.3
99969.3
99969.3
99969.3
99969.3
99969.3
99969.3
99966.3
99966.3
99966.3
99966.2
99966.2
99966.2
99966.2
99966.2
99966.2
99966.2
99966.2
99966.2
99966.2
99966.2
99966.2
99962.9
99962.9
99962.9
99962.9
99962.9
99962.9
99962.9
99962.9
99962.8
99962.8
99962.8
99962.8
99962.8
99962.8
99962.9
99959.3
99959.3
99959.3
99959.2
99959.2
99959.2
99959.2
99959.2
99959.2
99959.2
99959.2
99959.2
99959.1
99959.2
99959.2
99955.3
99955.3
99955.3
99955.2
99955.2
99955.2
99955.2
99955.2
99955.2
99955.2
99955.2
99955.2
99955.1
99955.1
99955.2
99950.9
99950.9
99950.9
99950.8
99950.8
99950.8
99950.8
99950.8
99950.8
99950.8
99950.7
99950.7
99950.7
99950.7
99950.8
99946
99946
99945.9
99945.9
99945.9
99945.9
99945.9
99945.9
99945.9
99945.8
99945.8
99945.8
99945.8
99945.8
99945.9
99940.5
99940.5
99940.5
99940.5
99940.4
99940.4
99940.4
99940.4
99940.4
99940.3
99940.3
99940.3
99940.3
99940.3
99940.4
99934.4
99934.3
99934.3
99934.3
99934.3
99934.3
99934.2
99934.2
99934.2
99934.2
99934.2
99934.1
99934.1
99934.1
99934.2
99927.5
99927.4
99927.4
99927.4
99927.4
99927.3
99927.3
99927.3
99927.3
99927.2
99927.2
99927.2
99927.2
99927.2
99927.3
99919.7
99919.6
99919.6
99919.6
99919.5
99919.5
99919.5
99919.5
99919.4
99919.4
99919.4
99919.3
99919.3
99919.3
99919.4
99910.9
99910.8
99910.7
99910.7
99910.7
99910.7
99910.6
99910.6
99910.6
99910.5
99910.5
99910.5
99910.4
99910.4
99910.5
99900.9
99900.8
99900.7
99900.7
99900.7
99900.6
99900.6
99900.6
99900.5
99900.5
99900.5
99900.4
99900.4
99900.4
99900.5
99889.6
99889.4
99889.4
99889.4
99889.3
99889.3
99889.3
99889.2
99889.2
99889.1
99889.1
99889.1
99889
99889
99889.1
99876.7
99876.6
99876.5
99876.5
99876.5
99876.4
99876.4
99876.3
99876.3
99876.3
99876.2
99876.2
99876.1
99876.1
99876.2
99862.2
99862
99862
99861.9
99861.9
99861.9
99861.8
99861.8
99861.7
99861.7
99861.6
99861.6
99861.5
99861.5
99861.6
99845.7
99845.5
99845.5
99845.4
99845.4
99845.3
99845.3
99845.2
99845.2
99845.1
99845.1
99845
99845
99844.9
99845
99827
99826.8
99826.7
99826.7
99826.6
99826.6
99826.5
99826.4
99826.4
99826.3
99826.3
99826.2
99826.2
99826.1
99826.2
99805.8
99805.5
99805.4
99805.4
99805.3
99805.3
99805.2
99805.1
99805.1
99805
99805
99804.9
99804.8
99804.8
99804.9
99781.6
99781.3
99781.2
99781.2
99781.1
99781.1
99781
99780.9
99780.9
99780.8
99780.7
99780.7
99780.6
99780.6
99780.6
99754.2
99753.8
99753.7
99753.7
99753.6
99753.5
99753.5
99753.4
99753.3
99753.2
99753.2
99753.1
99753
99753
99753.1
99722.9
99722.5
99722.4
99722.3
99722.3
99722.2
99722.1
99722
99722
99721.9
99721.8
99721.7
99721.7
99721.6
99721.7
99687.3
99686.7
99686.6
99686.6
99686.5
99686.4
99686.3
99686.3
99686.2
99686.1
99686
99685.9
99685.9
99685.8
99685.9
99646.6
99645.8
99645.7
99645.7
99645.6
99645.5
99645.5
99645.4
99645.3
99645.2
99645.2
99645.1
99645
99644.9
99645
99600.1
99599.1
99599
99598.9
99598.9
99598.8
99598.7
99598.7
99598.6
99598.5
99598.4
99598.3
99598.3
99598.2
99598.3
99546.9
99545.6
99545.4
99545.4
99545.4
99545.3
99545.2
99545.2
99545.1
99545.1
99545
99544.9
99544.9
99544.8
99545
99485.6
99484
99483.9
99484
99483.9
99483.9
99483.8
99483.8
99483.7
99483.7
99483.6
99483.6
99483.5
99483.5
99483.8
99415.3
99413.4
99413.3
99413.5
99413.4
99413.4
99413.4
99413.4
99413.4
99413.4
99413.4
99413.3
99413.3
99413.4
99413.7
99334.6
99332.4
99332.3
99332.6
99332.6
99332.6
99332.7
99332.7
99332.8
99332.8
99332.9
99332.9
99332.9
99333.1
99333.5
99241.9
99239.5
99239.4
99239.8
99240
99240.1
99240.2
99240.4
99240.5
99240.6
99240.8
99240.9
99241
99241.2
99241.8
99135.7
99133
99133
99133.7
99133.9
99134.2
99134.5
99134.7
99135
99135.3
99135.6
99135.9
99136.1
99136.5
99137.2
99014.5
99011.6
99011.8
99012.7
99013.1
99013.5
99014
99014.5
99015
99015.5
99016
99016.5
99016.9
99017.5
99018.4
98877
98873.8
98874.3
98875.5
98876.3
98877
98877.8
98878.6
98879.3
98880.1
98880.9
98881.7
98882.4
98883.3
98884.5
98722.1
98718.8
98719.6
98721.3
98722.5
98723.6
98724.8
98726
98727.2
98728.4
98729.6
98730.7
98731.9
98733.1
98734.6
98549.7
98546.2
98547.7
98550
98551.7
98553.4
98555.1
98556.9
98558.6
98560.4
98562.1
98563.8
98565.5
98567.3
98569.3
98360
98356.4
98358.7
98361.6
98364.2
98366.6
98369.1
98371.6
98374.1
98376.5
98379
98381.5
98383.9
98386.4
98388.9
98155.8
98152.6
98155.8
98159.7
98163.2
98166.6
98170
98173.4
98176.8
98180.2
98183.5
98186.9
98190.3
98193.6
98197.1
97944.7
97942.1
97946.7
97951.8
97956.4
97960.9
97965.5
97970
97974.6
97979.1
97983.5
97988
97992.4
97996.9
98001.4
97738.5
97736.4
97741.8
97748.2
97754
97759.7
97765.4
97771.1
97776.8
97782.4
97788.1
97793.6
97799.2
97804.8
97810.6
97548.7
97549.8
97557.1
97564.4
97571.3
97578.1
97584.9
97591.7
97598.4
97605.1
97611.7
97618.3
97624.9
97631.4
97638.1
97393.5
97398.3
97406.2
97414.2
97421.9
97429.5
97437.1
97444.7
97452.2
97459.7
97467.1
97474.4
97481.7
97489
97496.3
97282.9
97289.9
97297.9
97305.4
97312.8
97320.1
97327.5
97334.9
97342.3
97349.8
97357.2
97364.7
97372.2
97379.6
97387
97232.2
97237
97244.1
97251.2
97258.2
97265
97271.7
97278.4
97284.9
97291.2
97297.4
97303.5
97309.6
97315.7
97321.9
97220.3
97228.5
97239.9
97249.2
97257.2
97264.4
97270.7
97276.9
97283.9
97291.6
97299.6
97308
97316.5
97325
97333.3
97169.8
97169.3
97173.9
97181.6
97190.2
97200.3
97211.5
97222.7
97232.4
97239.6
97245
97249.3
97252.8
97254.8
97252.1
97621
97603.3
97578.1
97554.6
97535.4
97520.7
97507.2
97493.8
97480.2
97463.5
97834.3
97794.6
97755.1
97720.5
99996.5
99996.5
99996.5
99996.5
99996.5
99996.2
99996.2
99996.2
99996.2
99996.3
99992.2
99992.2
99992.2
99992.2
99992.2
99990.2
99990.1
99990.1
99990.1
99990.2
99987.4
99987.4
99987.4
99987.4
99987.4
99985.1
99985
99985
99985
99985.1
99982.6
99982.5
99982.5
99982.5
99982.5
99980.1
99980.1
99980.1
99980.1
99980.1
99977.6
99977.6
99977.5
99977.5
99977.5
99975
99974.9
99974.9
99974.9
99974.9
99972.2
99972.2
99972.2
99972.1
99972.1
99969.3
99969.3
99969.2
99969.2
99969.2
99966.2
99966.1
99966.1
99966.1
99966.1
99962.9
99962.8
99962.7
99962.7
99962.7
99959.2
99959.1
99959
99959
99959
99955.2
99955.1
99955
99955
99955
99950.8
99950.6
99950.6
99950.5
99950.5
99945.8
99945.7
99945.6
99945.6
99945.6
99940.3
99940.2
99940.1
99940.1
99940
99934.2
99934
99933.9
99933.9
99933.8
99927.2
99927
99926.9
99926.9
99926.8
99919.4
99919.1
99919.1
99919
99918.9
99910.5
99910.3
99910.2
99910.1
99910
99900.4
99900.2
99900.1
99900
99899.9
99889.1
99888.8
99888.7
99888.6
99888.4
99876.1
99875.9
99875.7
99875.6
99875.5
99861.5
99861.2
99861.1
99860.9
99860.8
99844.9
99844.6
99844.4
99844.3
99844.1
99826.1
99825.8
99825.6
99825.4
99825.2
99804.7
99804.4
99804.2
99804
99803.8
99780.5
99780.1
99779.9
99779.7
99779.5
99752.9
99752.5
99752.3
99752.1
99751.9
99721.5
99721.1
99720.9
99720.7
99720.5
99685.7
99685.3
99685
99684.9
99684.8
99644.8
99644.5
99644.2
99644
99644
99598.2
99597.8
99597.5
99597.3
99597.6
99544.8
99544.4
99544.1
99544
99544.7
99483.7
99483.3
99483.1
99483
99483.9
99413.7
99413.4
99413.3
99413.3
99414.5
99333.7
99333.6
99333.6
99333.8
99335.4
99242.3
99242.4
99242.7
99243.4
99245.3
99138
99138.6
99139.4
99140.6
99143.2
99019.8
99021.2
99022.7
99024.6
99028.2
98886.5
98889
98891.6
98894.6
98899.6
98737.7
98741.7
98745.7
98750.3
98757
98573.6
98579.7
98585.5
98592.6
98601.8
98394.8
98403.7
98412.4
98422
98434.7
98205
98217.2
98228.9
98241.8
98258.7
98011.8
98027.7
98042.9
98059.7
98081.1
97823.8
97843.7
97862.8
97883.5
97909.7
97653.6
97677.1
97699.5
97723.7
97753.6
97513.5
97539.6
97564.4
97590.8
97622.7
97404.6
97431.7
97457.8
97484.9
97517.2
97337.6
97363
97388.3
97414.1
97443.8
97351.5
97378.1
97401.1
97421.5
97442.4
97253.7
97265.9
97280.1
97293.7
97312.9
97432.9
97406.2
97388.5
97386.8
97395.4
97648.9
97602
97583.7
97591.4
97583
96290.2
96302.9
96437
96438.9
93970.7
93907.4
93755.4
99996.5
99996.5
99996.5
99996.5
99996.5
99996.4
99996.4
99996.4
99996.4
99996.4
99996.4
99996.4
99996.4
99996.4
99996.4
99996.4
99996.4
99996.3
99996.3
99996.3
99996.3
99996.3
99996.3
99996.4
99996.4
99996.4
99996.4
99996.4
99996.4
99996.5
99996.5
99996.6
99996.6
99996.7
99996.7
99996.8
99996.9
99996.9
99997
99997.1
99997.2
99997.3
99997.4
99997.5
99997.6
99997.7
99997.8
99998
99998.1
99998.2
99998.3
99998.5
99998.6
99998.7
99998.8
99999
99999.2
99999.4
99999.7
99999.9
99996.3
99996.2
99996.2
99996.2
99996.2
99996.2
99996.2
99996.2
99996.2
99996.2
99996.1
99996.1
99996.1
99996.1
99996.1
99996
99996
99996
99996
99995.9
99995.9
99995.9
99995.8
99995.8
99995.7
99995.7
99995.7
99995.6
99995.6
99995.5
99995.5
99995.4
99995.4
99995.3
99995.3
99995.2
99995.2
99995.2
99995.2
99995.2
99995.2
99995.2
99995.2
99995.3
99995.4
99995.5
99995.6
99995.7
99995.9
99996.1
99996.3
99996.5
99996.8
99997.2
99997.6
99998
99998.4
99998.8
99999.2
99999.8
99992.2
99992.1
99992.1
99992.1
99992.1
99992
99992
99992
99991.9
99991.9
99991.8
99991.8
99991.8
99991.7
99991.7
99991.6
99991.6
99991.5
99991.5
99991.4
99991.4
99991.3
99991.3
99991.2
99991.1
99991.1
99991
99991
99990.9
99990.9
99990.9
99990.8
99990.8
99990.8
99990.8
99990.8
99990.8
99990.8
99990.8
99990.9
99991
99991.1
99991.2
99991.3
99991.5
99991.7
99992
99992.3
99992.6
99992.9
99993.4
99993.8
99994.4
99995
99995.6
99996.3
99997.1
99997.8
99998.7
99999.6
99990.1
99990.1
99990.1
99990
99990
99989.9
99989.9
99989.8
99989.8
99989.7
99989.7
99989.6
99989.5
99989.5
99989.4
99989.3
99989.2
99989.1
99989.1
99989
99988.9
99988.8
99988.7
99988.6
99988.5
99988.3
99988.2
99988.1
99988
99987.9
99987.8
99987.7
99987.6
99987.6
99987.5
99987.4
99987.4
99987.4
99987.4
99987.5
99987.5
99987.6
99987.8
99987.9
99988.2
99988.5
99988.8
99989.2
99989.6
99990.2
99990.8
99991.4
99992.2
99993
99993.9
99994.9
99995.9
99997
99998.2
99999.4
99987.4
99987.3
99987.2
99987.2
99987.1
99987
99987
99986.9
99986.8
99986.7
99986.6
99986.5
99986.4
99986.3
99986.2
99986.1
99986
99985.9
99985.8
99985.6
99985.5
99985.4
99985.2
99985.1
99984.9
99984.8
99984.6
99984.5
99984.4
99984.2
99984.1
99984
99983.9
99983.8
99983.7
99983.6
99983.6
99983.6
99983.6
99983.7
99983.8
99983.9
99984.1
99984.4
99984.7
99985.1
99985.5
99986
99986.6
99987.4
99988.2
99989.1
99990
99991.1
99992.2
99993.5
99994.8
99996.2
99997.7
99999.2
99985
99984.9
99984.9
99984.8
99984.7
99984.6
99984.5
99984.4
99984.3
99984.2
99984
99983.9
99983.8
99983.6
99983.5
99983.3
99983.2
99983
99982.8
99982.7
99982.5
99982.3
99982.1
99981.9
99981.7
99981.5
99981.3
99981.1
99980.9
99980.7
99980.5
99980.3
99980.2
99980
99979.9
99979.9
99979.8
99979.8
99979.8
99979.9
99980
99980.2
99980.5
99980.8
99981.2
99981.7
99982.3
99982.9
99983.7
99984.6
99985.7
99986.8
99988
99989.3
99990.7
99992.2
99993.8
99995.4
99997.2
99999.1
99982.5
99982.4
99982.3
99982.2
99982.1
99981.9
99981.8
99981.7
99981.5
99981.4
99981.2
99981
99980.9
99980.7
99980.5
99980.3
99980.1
99979.8
99979.6
99979.4
99979.1
99978.9
99978.6
99978.4
99978.1
99977.9
99977.6
99977.3
99977.1
99976.8
99976.6
99976.4
99976.2
99976.1
99975.9
99975.9
99975.8
99975.8
99975.9
99976
99976.1
99976.4
99976.7
99977.2
99977.7
99978.3
99979
99979.9
99980.9
99982
99983.2
99984.5
99986
99987.5
99989.2
99990.9
99992.8
99994.7
99996.8
99998.9
99980
99979.9
99979.8
99979.6
99979.5
99979.3
99979.1
99979
99978.8
99978.6
99978.4
99978.2
99977.9
99977.7
99977.4
99977.2
99976.9
99976.6
99976.3
99976
99975.7
99975.4
99975.1
99974.7
99974.4
99974.1
99973.8
99973.4
99973.1
99972.8
99972.6
99972.3
99972.1
99971.9
99971.8
99971.7
99971.7
99971.7
99971.8
99971.9
99972.2
99972.5
99973
99973.5
99974.2
99975
99975.9
99977
99978.1
99979.5
99980.9
99982.5
99984.1
99985.9
99987.8
99989.8
99991.9
99994
99996.5
99998.8
99977.5
99977.3
99977.1
99976.9
99976.7
99976.5
99976.3
99976.1
99975.9
99975.6
99975.4
99975.1
99974.8
99974.5
99974.2
99973.8
99973.5
99973.2
99972.8
99972.4
99972
99971.6
99971.2
99970.8
99970.4
99970
99969.7
99969.3
99968.9
99968.6
99968.3
99968
99967.8
99967.6
99967.4
99967.4
99967.4
99967.4
99967.6
99967.8
99968.2
99968.6
99969.2
99969.9
99970.7
99971.7
99972.8
99974.1
99975.5
99977
99978.7
99980.5
99982.4
99984.4
99986.5
99988.7
99991.1
99993.4
99996.1
99998.6
99974.8
99974.6
99974.4
99974.2
99973.9
99973.7
99973.4
99973.1
99972.8
99972.5
99972.2
99971.8
99971.5
99971.1
99970.7
99970.3
99969.9
99969.5
99969
99968.6
99968.1
99967.6
99967.1
99966.7
99966.2
99965.7
99965.3
99964.8
99964.4
99964
99963.7
99963.4
99963.2
99963
99962.9
99962.9
99962.9
99963
99963.2
99963.6
99964.1
99964.7
99965.4
99966.3
99967.3
99968.5
99969.8
99971.3
99973
99974.7
99976.6
99978.6
99980.8
99983
99985.4
99987.7
99990.4
99992.9
99995.8
99998.5
99972
99971.8
99971.5
99971.2
99970.9
99970.6
99970.3
99969.9
99969.6
99969.2
99968.8
99968.4
99967.9
99967.5
99967
99966.5
99966
99965.5
99964.9
99964.4
99963.8
99963.2
99962.7
99962.1
99961.6
99961.1
99960.6
99960.1
99959.6
99959.2
99958.9
99958.6
99958.3
99958.2
99958.1
99958.1
99958.3
99958.5
99958.8
99959.3
99959.9
99960.7
99961.7
99962.7
99964
99965.4
99967
99968.7
99970.6
99972.5
99974.7
99976.9
99979.3
99981.7
99984.3
99986.8
99989.8
99992.4
99995.6
99998.4
99969.1
99968.7
99968.4
99968.1
99967.7
99967.3
99966.9
99966.5
99966
99965.6
99965.1
99964.6
99964.1
99963.5
99962.9
99962.3
99961.7
99961.1
99960.5
99959.8
99959.2
99958.5
99957.9
99957.3
99956.6
99956.1
99955.5
99955
99954.5
99954.1
99953.7
99953.5
99953.3
99953.2
99953.2
99953.3
99953.5
99953.9
99954.4
99955
99955.8
99956.8
99958
99959.3
99960.8
99962.4
99964.2
99966.2
99968.3
99970.5
99972.9
99975.3
99977.9
99980.5
99983.4
99986
99989.2
99991.9
99995.4
99998.3
99965.9
99965.5
99965.1
99964.7
99964.2
99963.8
99963.3
99962.8
99962.2
99961.7
99961.1
99960.5
99959.8
99959.2
99958.5
99957.8
99957.1
99956.4
99955.6
99954.9
99954.1
99953.4
99952.7
99952
99951.3
99950.7
99950.1
99949.5
99949
99948.6
99948.3
99948.1
99948
99948
99948.1
99948.3
99948.7
99949.2
99949.9
99950.8
99951.8
99953
99954.4
99956
99957.7
99959.6
99961.7
99963.9
99966.2
99968.6
99971.2
99973.9
99976.7
99979.4
99982.5
99985.3
99988.7
99991.5
99995.2
99998.2
99962.5
99962
99961.5
99961
99960.5
99959.9
99959.3
99958.7
99958.1
99957.4
99956.7
99956
99955.2
99954.5
99953.7
99952.9
99952
99951.2
99950.3
99949.5
99948.6
99947.8
99947
99946.3
99945.6
99944.9
99944.3
99943.7
99943.3
99942.9
99942.7
99942.6
99942.5
99942.6
99942.8
99943.2
99943.8
99944.5
99945.5
99946.6
99947.8
99949.3
99950.9
99952.8
99954.8
99956.9
99959.2
99961.7
99964.2
99966.9
99969.7
99972.5
99975.5
99978.5
99981.7
99984.7
99988.2
99991.1
99995
99998.1
99958.7
99958.2
99957.6
99957
99956.4
99955.7
99955
99954.3
99953.5
99952.7
99951.9
99951
99950.1
99949.2
99948.3
99947.4
99946.4
99945.5
99944.5
99943.6
99942.7
99941.8
99940.9
99940.1
99939.4
99938.7
99938.1
99937.6
99937.2
99936.9
99936.8
99936.8
99936.9
99937.1
99937.5
99938.1
99938.9
99939.9
99941.1
99942.5
99944
99945.7
99947.7
99949.8
99952
99954.4
99957
99959.7
99962.4
99965.3
99968.3
99971.3
99974.5
99977.6
99981
99984.1
99987.8
99990.8
99994.9
99998
99954.6
99954
99953.3
99952.6
99951.8
99951
99950.2
99949.3
99948.4
99947.5
99946.5
99945.5
99944.5
99943.5
99942.4
99941.4
99940.3
99939.2
99938.2
99937.2
99936.2
99935.2
99934.3
99933.5
99932.8
99932.1
99931.6
99931.2
99930.9
99930.7
99930.7
99930.8
99931.1
99931.6
99932.2
99933.1
99934.1
99935.4
99936.8
99938.5
99940.3
99942.3
99944.6
99946.9
99949.5
99952.1
99954.9
99957.8
99960.8
99963.9
99967
99970.2
99973.6
99976.8
99980.4
99983.6
99987.5
99990.5
99994.7
99998
99950.1
99949.3
99948.5
99947.7
99946.8
99945.8
99944.8
99943.8
99942.8
99941.7
99940.6
99939.5
99938.3
99937.1
99935.9
99934.7
99933.5
99932.4
99931.3
99930.2
99929.1
99928.2
99927.3
99926.5
99925.8
99925.2
99924.7
99924.4
99924.3
99924.3
99924.4
99924.7
99925.3
99926
99926.9
99928.1
99929.4
99931
99932.7
99934.7
99936.8
99939.1
99941.6
99944.3
99947.1
99950
99953
99956.1
99959.3
99962.5
99965.9
99969.2
99972.8
99976.1
99979.9
99983.1
99987.2
99990.3
99994.6
99997.9
99945.1
99944.2
99943.2
99942.2
99941.1
99940
99938.9
99937.7
99936.5
99935.3
99934
99932.7
99931.4
99930
99928.7
99927.4
99926.2
99924.9
99923.7
99922.6
99921.5
99920.6
99919.7
99919
99918.4
99917.9
99917.6
99917.5
99917.5
99917.7
99918.1
99918.7
99919.5
99920.5
99921.7
99923.2
99924.9
99926.7
99928.8
99931.1
99933.5
99936.1
99938.9
99941.8
99944.8
99948
99951.2
99954.5
99957.9
99961.3
99964.9
99968.3
99972
99975.5
99979.4
99982.7
99986.9
99990
99994.6
99997.8
99939.5
99938.4
99937.2
99936
99934.8
99933.5
99932.2
99930.9
99929.5
99928.1
99926.6
99925.2
99923.7
99922.2
99920.8
99919.4
99918.1
99916.8
99915.6
99914.4
99913.4
99912.5
99911.7
99911.1
99910.6
99910.4
99910.2
99910.3
99910.5
99911
99911.7
99912.6
99913.7
99915.1
99916.7
99918.5
99920.5
99922.7
99925.1
99927.7
99930.4
99933.3
99936.4
99939.5
99942.8
99946.2
99949.6
99953.1
99956.7
99960.3
99964
99967.5
99971.4
99974.9
99979
99982.3
99986.6
99989.8
99994.5
99997.8
99933.2
99931.9
99930.5
99929.2
99927.7
99926.3
99924.8
99923.2
99921.6
99920
99918.4
99916.8
99915.2
99913.6
99912.1
99910.7
99909.3
99908
99906.7
99905.7
99904.7
99903.9
99903.3
99902.8
99902.6
99902.5
99902.6
99903
99903.5
99904.3
99905.4
99906.6
99908.1
99909.9
99911.8
99914
99916.3
99918.9
99921.6
99924.5
99927.5
99930.7
99934
99937.4
99940.9
99944.5
99948.1
99951.8
99955.6
99959.3
99963.1
99966.8
99970.8
99974.4
99978.6
99982
99986.4
99989.7
99994.4
99997.7
99926.1
99924.6
99923
99921.4
99919.8
99918.1
99916.4
99914.6
99912.8
99911.1
99909.3
99907.5
99905.8
99904.2
99902.6
99901.1
99899.7
99898.4
99897.3
99896.3
99895.5
99894.9
99894.5
99894.3
99894.3
99894.5
99894.9
99895.6
99896.5
99897.7
99899.1
99900.8
99902.7
99904.8
99907.2
99909.7
99912.4
99915.3
99918.3
99921.5
99924.9
99928.3
99931.9
99935.5
99939.2
99943
99946.8
99950.7
99954.6
99958.4
99962.4
99966.2
99970.3
99973.9
99978.2
99981.7
99986.3
99989.5
99994.4
99997.7
99918
99916.3
99914.5
99912.7
99910.8
99908.9
99906.9
99905
99903
99901.1
99899.2
99897.3
99895.5
99893.8
99892.2
99890.7
99889.4
99888.2
99887.2
99886.4
99885.9
99885.5
99885.4
99885.4
99885.8
99886.3
99887.2
99888.3
99889.6
99891.3
99893.1
99895.2
99897.5
99900
99902.7
99905.6
99908.7
99911.9
99915.3
99918.8
99922.4
99926.1
99929.9
99933.7
99937.7
99941.6
99945.6
99949.6
99953.6
99957.6
99961.7
99965.6
99969.8
99973.5
99978
99981.4
99986.1
99989.4
99994.4
99997.6
99909
99907
99904.9
99902.8
99900.7
99898.5
99896.4
99894.2
99892.1
99890
99888
99886.1
99884.2
99882.5
99881
99879.6
99878.4
99877.4
99876.6
99876.1
99875.8
99875.8
99876
99876.4
99877.2
99878.2
99879.5
99881.1
99882.9
99885
99887.3
99889.8
99892.6
99895.5
99898.6
99901.8
99905.3
99908.8
99912.5
99916.3
99920.1
99924.1
99928.1
99932.1
99936.2
99940.4
99944.5
99948.6
99952.8
99956.9
99961.1
99965.1
99969.4
99973.2
99977.7
99981.1
99986
99989.2
99994.3
99997.6
99898.7
99896.4
99894.1
99891.7
99889.3
99886.9
99884.5
99882.2
99879.9
99877.7
99875.7
99873.7
99871.9
99870.3
99868.8
99867.6
99866.7
99866
99865.5
99865.4
99865.4
99865.8
99866.4
99867.4
99868.6
99870.2
99872
99874.1
99876.4
99879
99881.8
99884.7
99887.9
99891.2
99894.7