/*--------------------------------*- C++ -*----------------------------------*\
  =========                 |
  \\      /  F ield         | OpenFOAM: The Open Source CFD Toolbox
   \\    /   O peration     | Website:  https://openfoam.org
    \\  /    A nd           | Version:  8
     \\/     M anipulation  |
\*---------------------------------------------------------------------------*/
FoamFile
{
    version     2.0;
    format      ascii;
    class       volScalarField;
    location    "3";
    object      p;
}
// * * * * * * * * * * * * * * * * * * * * * * * * * * * * * * * * * * * * * //

dimensions      [0 2 -2 0 0 0 0];

internalField   nonuniform List<scalar> 
262620
(
-1.17533
-1.17552
-1.17611
-1.17701
-1.17817
-1.17962
-1.18131
-1.18325
-1.18541
-1.18778
-1.19035
-1.19309
-1.19601
-1.19908
-1.20229
-1.20564
-1.2091
-1.21268
-1.21636
-1.22013
-1.22398
-1.2279
-1.23189
-1.23593
-1.24003
-1.24416
-1.24833
-1.25253
-1.25675
-1.26099
-1.26524
-1.2695
-1.27376
-1.27802
-1.28227
-1.28651
-1.29074
-1.29495
-1.29914
-1.30331
-1.30745
-1.31157
-1.31565
-1.31971
-1.32372
-1.32771
-1.33165
-1.33556
-1.33943
-1.34325
-1.34703
-1.35077
-1.35447
-1.35812
-1.36172
-1.36528
-1.3688
-1.37227
-1.37569
-1.37906
-1.38239
-1.38567
-1.3889
-1.39208
-1.39522
-1.39832
-1.40136
-1.40436
-1.40731
-1.41022
-1.41308
-1.4159
-1.41867
-1.4214
-1.42409
-1.42673
-1.42933
-1.43188
-1.4344
-1.43687
-1.43931
-1.4417
-1.44405
-1.44637
-1.44864
-1.45088
-1.45308
-1.45525
-1.45738
-1.45947
-1.46153
-1.46355
-1.46554
-1.4675
-1.46942
-1.47132
-1.47318
-1.47501
-1.47681
-1.47858
-1.48032
-1.48203
-1.48372
-1.48538
-1.48701
-1.48861
-1.49019
-1.49174
-1.49327
-1.49478
-1.49626
-1.49772
-1.49915
-1.50057
-1.50196
-1.50333
-1.50468
-1.50601
-1.50732
-1.5086
-1.17521
-1.1754
-1.17599
-1.17688
-1.17805
-1.17949
-1.18119
-1.18313
-1.18529
-1.18765
-1.19022
-1.19296
-1.19588
-1.19895
-1.20216
-1.20551
-1.20898
-1.21256
-1.21624
-1.22001
-1.22386
-1.22778
-1.23177
-1.23581
-1.23991
-1.24404
-1.24822
-1.25242
-1.25664
-1.26088
-1.26513
-1.26939
-1.27365
-1.27791
-1.28217
-1.28641
-1.29064
-1.29485
-1.29905
-1.30322
-1.30736
-1.31148
-1.31557
-1.31962
-1.32364
-1.32763
-1.33158
-1.33549
-1.33935
-1.34318
-1.34697
-1.35071
-1.35441
-1.35806
-1.36167
-1.36523
-1.36875
-1.37222
-1.37564
-1.37902
-1.38235
-1.38563
-1.38886
-1.39205
-1.39519
-1.39829
-1.40134
-1.40434
-1.40729
-1.4102
-1.41307
-1.41589
-1.41866
-1.42139
-1.42408
-1.42673
-1.42933
-1.43189
-1.4344
-1.43688
-1.43932
-1.44171
-1.44407
-1.44638
-1.44866
-1.4509
-1.45311
-1.45527
-1.4574
-1.4595
-1.46156
-1.46359
-1.46558
-1.46754
-1.46946
-1.47136
-1.47322
-1.47505
-1.47686
-1.47863
-1.48037
-1.48209
-1.48378
-1.48543
-1.48707
-1.48867
-1.49025
-1.49181
-1.49334
-1.49485
-1.49633
-1.49779
-1.49923
-1.50064
-1.50203
-1.50341
-1.50476
-1.50609
-1.5074
-1.50868
-1.17501
-1.1752
-1.17578
-1.17667
-1.17784
-1.17928
-1.18097
-1.18291
-1.18506
-1.18743
-1.19
-1.19274
-1.19566
-1.19873
-1.20194
-1.20529
-1.20876
-1.21234
-1.21602
-1.21979
-1.22364
-1.22757
-1.23156
-1.2356
-1.2397
-1.24384
-1.24801
-1.25222
-1.25644
-1.26069
-1.26494
-1.2692
-1.27347
-1.27773
-1.28199
-1.28624
-1.29047
-1.29469
-1.29889
-1.30306
-1.30721
-1.31133
-1.31542
-1.31948
-1.32351
-1.3275
-1.33145
-1.33536
-1.33924
-1.34307
-1.34686
-1.3506
-1.35431
-1.35796
-1.36158
-1.36514
-1.36866
-1.37214
-1.37557
-1.37895
-1.38228
-1.38557
-1.38881
-1.392
-1.39514
-1.39824
-1.40129
-1.4043
-1.40726
-1.41017
-1.41304
-1.41587
-1.41864
-1.42138
-1.42407
-1.42672
-1.42932
-1.43189
-1.43441
-1.43689
-1.43933
-1.44173
-1.44409
-1.44641
-1.44869
-1.45093
-1.45314
-1.45531
-1.45744
-1.45954
-1.4616
-1.46363
-1.46563
-1.46759
-1.46952
-1.47142
-1.47328
-1.47512
-1.47692
-1.4787
-1.48045
-1.48216
-1.48385
-1.48552
-1.48715
-1.48876
-1.49034
-1.4919
-1.49343
-1.49494
-1.49643
-1.49789
-1.49933
-1.50075
-1.50214
-1.50352
-1.50487
-1.5062
-1.50752
-1.5088
-1.1747
-1.17489
-1.17547
-1.17635
-1.17752
-1.17895
-1.18064
-1.18258
-1.18473
-1.1871
-1.18966
-1.19241
-1.19532
-1.19839
-1.20161
-1.20496
-1.20843
-1.21201
-1.21569
-1.21946
-1.22332
-1.22724
-1.23124
-1.23529
-1.23939
-1.24353
-1.24771
-1.25192
-1.25615
-1.26039
-1.26465
-1.26892
-1.27319
-1.27746
-1.28172
-1.28598
-1.29022
-1.29444
-1.29864
-1.30282
-1.30698
-1.3111
-1.3152
-1.31927
-1.3233
-1.32729
-1.33125
-1.33517
-1.33905
-1.34289
-1.34669
-1.35044
-1.35415
-1.35781
-1.36143
-1.36501
-1.36853
-1.37201
-1.37545
-1.37883
-1.38217
-1.38547
-1.38871
-1.39191
-1.39506
-1.39817
-1.40123
-1.40424
-1.40721
-1.41013
-1.413
-1.41583
-1.41862
-1.42136
-1.42405
-1.42671
-1.42932
-1.43189
-1.43441
-1.4369
-1.43934
-1.44175
-1.44411
-1.44644
-1.44873
-1.45098
-1.45319
-1.45537
-1.4575
-1.45961
-1.46168
-1.46371
-1.46571
-1.46768
-1.46961
-1.47152
-1.47339
-1.47523
-1.47704
-1.47882
-1.48057
-1.48229
-1.48399
-1.48565
-1.48729
-1.48891
-1.49049
-1.49206
-1.49359
-1.49511
-1.4966
-1.49806
-1.4995
-1.50093
-1.50232
-1.5037
-1.50506
-1.5064
-1.50772
-1.509
-1.1743
-1.17448
-1.17505
-1.17593
-1.17709
-1.17852
-1.18021
-1.18214
-1.1843
-1.18666
-1.18922
-1.19197
-1.19488
-1.19795
-1.20117
-1.20452
-1.20799
-1.21157
-1.21525
-1.21903
-1.22289
-1.22682
-1.23082
-1.23487
-1.23898
-1.24312
-1.24731
-1.25152
-1.25575
-1.26001
-1.26428
-1.26855
-1.27283
-1.2771
-1.28137
-1.28563
-1.28988
-1.29411
-1.29832
-1.30251
-1.30667
-1.31081
-1.31491
-1.31898
-1.32302
-1.32703
-1.331
-1.33492
-1.33881
-1.34266
-1.34646
-1.35022
-1.35394
-1.35762
-1.36124
-1.36483
-1.36836
-1.37185
-1.37529
-1.37869
-1.38204
-1.38534
-1.38859
-1.3918
-1.39496
-1.39807
-1.40114
-1.40416
-1.40714
-1.41006
-1.41295
-1.41578
-1.41858
-1.42133
-1.42403
-1.42669
-1.42931
-1.43189
-1.43442
-1.43692
-1.43937
-1.44178
-1.44415
-1.44649
-1.44878
-1.45104
-1.45326
-1.45544
-1.45758
-1.45969
-1.46177
-1.46381
-1.46582
-1.46779
-1.46973
-1.47164
-1.47352
-1.47536
-1.47718
-1.47897
-1.48072
-1.48245
-1.48415
-1.48582
-1.48747
-1.48909
-1.49068
-1.49225
-1.49379
-1.49531
-1.4968
-1.49828
-1.49972
-1.50115
-1.50255
-1.50394
-1.5053
-1.50664
-1.50797
-1.50925
-1.1738
-1.17397
-1.17454
-1.17541
-1.17657
-1.17799
-1.17968
-1.1816
-1.18376
-1.18612
-1.18868
-1.19142
-1.19433
-1.19741
-1.20062
-1.20397
-1.20745
-1.21103
-1.21472
-1.2185
-1.22236
-1.22629
-1.2303
-1.23436
-1.23847
-1.24262
-1.24681
-1.25103
-1.25527
-1.25953
-1.26381
-1.26809
-1.27237
-1.27666
-1.28093
-1.2852
-1.28946
-1.2937
-1.29792
-1.30212
-1.30629
-1.31043
-1.31455
-1.31863
-1.32268
-1.3267
-1.33068
-1.33461
-1.33851
-1.34237
-1.34619
-1.34996
-1.35369
-1.35737
-1.36101
-1.3646
-1.36815
-1.37165
-1.3751
-1.37851
-1.38187
-1.38518
-1.38844
-1.39166
-1.39483
-1.39796
-1.40103
-1.40406
-1.40705
-1.40999
-1.41288
-1.41573
-1.41853
-1.42129
-1.424
-1.42667
-1.4293
-1.43189
-1.43443
-1.43694
-1.4394
-1.44182
-1.4442
-1.44654
-1.44884
-1.45111
-1.45334
-1.45553
-1.45768
-1.4598
-1.46189
-1.46393
-1.46595
-1.46793
-1.46988
-1.4718
-1.47368
-1.47554
-1.47736
-1.47915
-1.48092
-1.48265
-1.48436
-1.48604
-1.48769
-1.48932
-1.49092
-1.49249
-1.49404
-1.49557
-1.49707
-1.49855
-1.5
-1.50143
-1.50284
-1.50423
-1.5056
-1.50695
-1.50828
-1.50957
-1.17321
-1.17337
-1.17393
-1.1748
-1.17594
-1.17736
-1.17904
-1.18097
-1.18311
-1.18547
-1.18803
-1.19077
-1.19369
-1.19676
-1.19997
-1.20333
-1.2068
-1.21039
-1.21408
-1.21786
-1.22173
-1.22567
-1.22968
-1.23374
-1.23786
-1.24202
-1.24621
-1.25044
-1.25469
-1.25896
-1.26325
-1.26754
-1.27183
-1.27613
-1.28041
-1.28469
-1.28896
-1.29321
-1.29744
-1.30165
-1.30584
-1.30999
-1.31412
-1.31822
-1.32228
-1.32631
-1.33029
-1.33425
-1.33816
-1.34203
-1.34586
-1.34964
-1.35338
-1.35708
-1.36073
-1.36433
-1.36789
-1.37141
-1.37487
-1.37829
-1.38166
-1.38499
-1.38826
-1.39149
-1.39468
-1.39781
-1.4009
-1.40395
-1.40694
-1.40989
-1.4128
-1.41566
-1.41847
-1.42124
-1.42397
-1.42665
-1.42929
-1.43189
-1.43444
-1.43696
-1.43943
-1.44186
-1.44425
-1.44661
-1.44892
-1.4512
-1.45343
-1.45564
-1.4578
-1.45993
-1.46202
-1.46408
-1.46611
-1.4681
-1.47006
-1.47198
-1.47388
-1.47574
-1.47757
-1.47937
-1.48115
-1.48289
-1.48461
-1.48629
-1.48795
-1.48959
-1.4912
-1.49278
-1.49434
-1.49587
-1.49738
-1.49886
-1.50033
-1.50177
-1.50318
-1.50458
-1.50596
-1.50731
-1.50865
-1.50995
-1.17252
-1.17267
-1.17322
-1.17408
-1.17522
-1.17664
-1.17831
-1.18023
-1.18237
-1.18473
-1.18728
-1.19002
-1.19293
-1.19601
-1.19922
-1.20258
-1.20605
-1.20965
-1.21334
-1.21713
-1.221
-1.22495
-1.22896
-1.23303
-1.23716
-1.24132
-1.24553
-1.24977
-1.25403
-1.25831
-1.2626
-1.2669
-1.27121
-1.27551
-1.27981
-1.2841
-1.28838
-1.29265
-1.29689
-1.30111
-1.30531
-1.30948
-1.31362
-1.31773
-1.32181
-1.32585
-1.32985
-1.33382
-1.33775
-1.34163
-1.34547
-1.34927
-1.35303
-1.35674
-1.36041
-1.36403
-1.3676
-1.37113
-1.37461
-1.37804
-1.38143
-1.38477
-1.38806
-1.3913
-1.3945
-1.39765
-1.40075
-1.40381
-1.40682
-1.40979
-1.4127
-1.41558
-1.41841
-1.42119
-1.42393
-1.42663
-1.42928
-1.43189
-1.43446
-1.43698
-1.43947
-1.44191
-1.44432
-1.44668
-1.44901
-1.4513
-1.45355
-1.45576
-1.45794
-1.46008
-1.46218
-1.46425
-1.46629
-1.46829
-1.47026
-1.4722
-1.4741
-1.47597
-1.47782
-1.47963
-1.48141
-1.48317
-1.48489
-1.48659
-1.48826
-1.4899
-1.49152
-1.49311
-1.49468
-1.49622
-1.49774
-1.49923
-1.5007
-1.50215
-1.50358
-1.50498
-1.50637
-1.50773
-1.50908
-1.51038
-1.17175
-1.17188
-1.17242
-1.17327
-1.1744
-1.17581
-1.17748
-1.17939
-1.18153
-1.18388
-1.18643
-1.18917
-1.19208
-1.19516
-1.19838
-1.20173
-1.20521
-1.20881
-1.2125
-1.2163
-1.22017
-1.22413
-1.22815
-1.23223
-1.23636
-1.24054
-1.24475
-1.249
-1.25327
-1.25756
-1.26187
-1.26618
-1.2705
-1.27482
-1.27913
-1.28344
-1.28773
-1.29201
-1.29627
-1.3005
-1.30472
-1.3089
-1.31306
-1.31719
-1.32128
-1.32534
-1.32936
-1.33334
-1.33728
-1.34118
-1.34504
-1.34886
-1.35263
-1.35636
-1.36004
-1.36368
-1.36727
-1.37081
-1.37431
-1.37776
-1.38116
-1.38452
-1.38782
-1.39109
-1.3943
-1.39747
-1.40058
-1.40366
-1.40668
-1.40966
-1.4126
-1.41549
-1.41833
-1.42113
-1.42389
-1.4266
-1.42926
-1.43189
-1.43447
-1.43701
-1.43951
-1.44197
-1.44439
-1.44677
-1.44911
-1.45141
-1.45367
-1.4559
-1.45809
-1.46024
-1.46236
-1.46444
-1.46649
-1.46851
-1.47049
-1.47244
-1.47435
-1.47624
-1.47809
-1.47992
-1.48171
-1.48348
-1.48521
-1.48692
-1.4886
-1.49026
-1.49189
-1.49349
-1.49507
-1.49662
-1.49815
-1.49965
-1.50113
-1.50259
-1.50403
-1.50544
-1.50683
-1.50821
-1.50956
-1.51087
-1.17089
-1.17101
-1.17153
-1.17237
-1.17349
-1.17489
-1.17655
-1.17846
-1.18059
-1.18294
-1.18549
-1.18823
-1.19114
-1.19421
-1.19743
-1.20079
-1.20427
-1.20787
-1.21157
-1.21537
-1.21925
-1.22321
-1.22724
-1.23133
-1.23547
-1.23966
-1.24389
-1.24815
-1.25243
-1.25673
-1.26105
-1.26538
-1.26971
-1.27404
-1.27837
-1.28269
-1.287
-1.2913
-1.29557
-1.29983
-1.30406
-1.30826
-1.31243
-1.31658
-1.32069
-1.32476
-1.3288
-1.3328
-1.33676
-1.34068
-1.34456
-1.34839
-1.35218
-1.35593
-1.35963
-1.36328
-1.36689
-1.37046
-1.37397
-1.37744
-1.38086
-1.38424
-1.38756
-1.39084
-1.39407
-1.39726
-1.4004
-1.40349
-1.40653
-1.40953
-1.41248
-1.41539
-1.41825
-1.42106
-1.42384
-1.42656
-1.42925
-1.43189
-1.43449
-1.43705
-1.43956
-1.44204
-1.44447
-1.44686
-1.44922
-1.45154
-1.45382
-1.45606
-1.45826
-1.46043
-1.46256
-1.46466
-1.46672
-1.46875
-1.47074
-1.47271
-1.47464
-1.47653
-1.4784
-1.48024
-1.48205
-1.48382
-1.48557
-1.4873
-1.48899
-1.49066
-1.4923
-1.49391
-1.4955
-1.49706
-1.4986
-1.50012
-1.50161
-1.50308
-1.50452
-1.50595
-1.50735
-1.50874
-1.5101
-1.51142
-1.16993
-1.17004
-1.17056
-1.17138
-1.17249
-1.17388
-1.17553
-1.17743
-1.17956
-1.1819
-1.18445
-1.18718
-1.19009
-1.19317
-1.19639
-1.19975
-1.20323
-1.20684
-1.21054
-1.21435
-1.21824
-1.22221
-1.22625
-1.23035
-1.2345
-1.2387
-1.24293
-1.2472
-1.2515
-1.25582
-1.26015
-1.26449
-1.26884
-1.27319
-1.27754
-1.28187
-1.2862
-1.29051
-1.2948
-1.29908
-1.30332
-1.30755
-1.31174
-1.3159
-1.32003
-1.32413
-1.32818
-1.3322
-1.33619
-1.34012
-1.34402
-1.34788
-1.35169
-1.35546
-1.35918
-1.36285
-1.36648
-1.37007
-1.3736
-1.37709
-1.38053
-1.38393
-1.38727
-1.39057
-1.39383
-1.39703
-1.40019
-1.4033
-1.40636
-1.40938
-1.41235
-1.41527
-1.41816
-1.42099
-1.42378
-1.42653
-1.42923
-1.43189
-1.43451
-1.43708
-1.43961
-1.44211
-1.44456
-1.44697
-1.44934
-1.45168
-1.45397
-1.45623
-1.45845
-1.46063
-1.46278
-1.46489
-1.46697
-1.46901
-1.47103
-1.473
-1.47495
-1.47686
-1.47874
-1.48059
-1.48242
-1.48421
-1.48597
-1.48771
-1.48941
-1.49109
-1.49275
-1.49437
-1.49597
-1.49755
-1.4991
-1.50063
-1.50213
-1.50362
-1.50507
-1.50651
-1.50793
-1.50932
-1.5107
-1.51203
-1.1689
-1.16899
-1.16949
-1.1703
-1.1714
-1.17278
-1.17442
-1.17631
-1.17843
-1.18077
-1.18332
-1.18605
-1.18896
-1.19203
-1.19525
-1.19861
-1.2021
-1.20571
-1.20943
-1.21324
-1.21713
-1.22111
-1.22516
-1.22927
-1.23343
-1.23764
-1.24189
-1.24618
-1.25049
-1.25482
-1.25917
-1.26353
-1.26789
-1.27226
-1.27662
-1.28098
-1.28532
-1.28965
-1.29397
-1.29826
-1.30253
-1.30677
-1.31098
-1.31517
-1.31932
-1.32344
-1.32751
-1.33156
-1.33556
-1.33952
-1.34344
-1.34732
-1.35115
-1.35494
-1.35869
-1.36238
-1.36604
-1.36964
-1.3732
-1.37671
-1.38017
-1.38359
-1.38696
-1.39028
-1.39355
-1.39678
-1.39996
-1.40309
-1.40618
-1.40921
-1.41221
-1.41515
-1.41805
-1.42091
-1.42372
-1.42649
-1.42921
-1.43189
-1.43453
-1.43712
-1.43967
-1.44218
-1.44465
-1.44708
-1.44947
-1.45183
-1.45414
-1.45641
-1.45865
-1.46085
-1.46302
-1.46515
-1.46724
-1.46931
-1.47133
-1.47333
-1.47529
-1.47722
-1.47911
-1.48098
-1.48282
-1.48463
-1.4864
-1.48815
-1.48987
-1.49157
-1.49324
-1.49488
-1.49649
-1.49808
-1.49965
-1.50119
-1.50271
-1.5042
-1.50567
-1.50712
-1.50855
-1.50996
-1.51135
-1.51269
-1.16778
-1.16785
-1.16833
-1.16914
-1.17022
-1.17159
-1.17322
-1.1751
-1.17722
-1.17955
-1.18209
-1.18482
-1.18773
-1.1908
-1.19402
-1.19739
-1.20088
-1.20449
-1.20821
-1.21203
-1.21594
-1.21993
-1.22398
-1.2281
-1.23228
-1.2365
-1.24077
-1.24507
-1.24939
-1.25374
-1.25811
-1.26249
-1.26687
-1.27125
-1.27564
-1.28001
-1.28438
-1.28873
-1.29306
-1.29737
-1.30167
-1.30593
-1.31017
-1.31437
-1.31855
-1.32269
-1.32679
-1.33085
-1.33488
-1.33887
-1.34281
-1.34671
-1.35057
-1.35438
-1.35815
-1.36187
-1.36555
-1.36918
-1.37276
-1.3763
-1.37979
-1.38323
-1.38662
-1.38996
-1.39326
-1.39651
-1.39971
-1.40287
-1.40598
-1.40904
-1.41205
-1.41502
-1.41794
-1.42082
-1.42365
-1.42644
-1.42919
-1.43189
-1.43455
-1.43716
-1.43973
-1.44227
-1.44476
-1.44721
-1.44962
-1.45199
-1.45432
-1.45662
-1.45887
-1.4611
-1.46328
-1.46543
-1.46754
-1.46962
-1.47166
-1.47368
-1.47565
-1.4776
-1.47952
-1.4814
-1.48325
-1.48508
-1.48687
-1.48864
-1.49038
-1.49209
-1.49377
-1.49542
-1.49706
-1.49866
-1.50024
-1.5018
-1.50333
-1.50484
-1.50632
-1.50779
-1.50923
-1.51065
-1.51205
-1.51341
-1.16657
-1.16663
-1.1671
-1.16788
-1.16895
-1.17031
-1.17193
-1.1738
-1.17591
-1.17824
-1.18077
-1.1835
-1.18641
-1.18948
-1.1927
-1.19607
-1.19957
-1.20319
-1.20691
-1.21074
-1.21466
-1.21865
-1.22272
-1.22685
-1.23104
-1.23528
-1.23956
-1.24387
-1.24822
-1.25258
-1.25697
-1.26136
-1.26577
-1.27017
-1.27457
-1.27897
-1.28336
-1.28773
-1.29209
-1.29642
-1.30074
-1.30503
-1.30929
-1.31352
-1.31772
-1.32188
-1.32601
-1.3301
-1.33415
-1.33816
-1.34213
-1.34606
-1.34994
-1.35378
-1.35758
-1.36133
-1.36503
-1.36868
-1.37229
-1.37585
-1.37937
-1.38283
-1.38625
-1.38962
-1.39294
-1.39622
-1.39945
-1.40263
-1.40576
-1.40884
-1.41188
-1.41488
-1.41782
-1.42073
-1.42358
-1.42639
-1.42916
-1.43189
-1.43457
-1.4372
-1.4398
-1.44235
-1.44487
-1.44734
-1.44977
-1.45217
-1.45452
-1.45683
-1.45911
-1.46135
-1.46356
-1.46573
-1.46786
-1.46996
-1.47202
-1.47405
-1.47605
-1.47801
-1.47995
-1.48185
-1.48372
-1.48556
-1.48738
-1.48916
-1.49091
-1.49264
-1.49434
-1.49601
-1.49766
-1.49928
-1.50088
-1.50245
-1.504
-1.50552
-1.50702
-1.5085
-1.50996
-1.51139
-1.51281
-1.51418
-1.16529
-1.16532
-1.16577
-1.16654
-1.1676
-1.16894
-1.17055
-1.17242
-1.17452
-1.17684
-1.17937
-1.18209
-1.185
-1.18807
-1.1913
-1.19467
-1.19817
-1.20179
-1.20552
-1.20936
-1.21328
-1.21729
-1.22137
-1.22552
-1.22972
-1.23397
-1.23827
-1.2426
-1.24696
-1.25135
-1.25575
-1.26016
-1.26459
-1.26901
-1.27344
-1.27786
-1.28227
-1.28667
-1.29105
-1.29541
-1.29975
-1.30406
-1.30835
-1.3126
-1.31683
-1.32102
-1.32518
-1.32929
-1.33337
-1.33741
-1.34141
-1.34536
-1.34927
-1.35314
-1.35696
-1.36074
-1.36447
-1.36815
-1.37179
-1.37538
-1.37892
-1.38241
-1.38586
-1.38926
-1.3926
-1.39591
-1.39916
-1.40237
-1.40553
-1.40864
-1.4117
-1.41472
-1.4177
-1.42062
-1.42351
-1.42634
-1.42914
-1.43188
-1.43459
-1.43725
-1.43987
-1.44245
-1.44499
-1.44748
-1.44994
-1.45235
-1.45473
-1.45707
-1.45937
-1.46163
-1.46386
-1.46604
-1.4682
-1.47032
-1.4724
-1.47445
-1.47647
-1.47846
-1.48041
-1.48233
-1.48422
-1.48608
-1.48791
-1.48971
-1.49149
-1.49323
-1.49495
-1.49664
-1.49831
-1.49994
-1.50156
-1.50315
-1.50471
-1.50625
-1.50777
-1.50926
-1.51074
-1.51219
-1.51362
-1.515
-1.16393
-1.16394
-1.16437
-1.16512
-1.16616
-1.16749
-1.16909
-1.17094
-1.17304
-1.17535
-1.17788
-1.1806
-1.1835
-1.18657
-1.1898
-1.19317
-1.19668
-1.20031
-1.20405
-1.20789
-1.21183
-1.21585
-1.21994
-1.2241
-1.22831
-1.23258
-1.2369
-1.24124
-1.24562
-1.25003
-1.25445
-1.25889
-1.26333
-1.26778
-1.27223
-1.27668
-1.28111
-1.28553
-1.28994
-1.29433
-1.29869
-1.30303
-1.30735
-1.31163
-1.31589
-1.3201
-1.32429
-1.32844
-1.33254
-1.33661
-1.34064
-1.34462
-1.34856
-1.35246
-1.35631
-1.36012
-1.36388
-1.36759
-1.37125
-1.37487
-1.37844
-1.38196
-1.38544
-1.38887
-1.39224
-1.39557
-1.39886
-1.40209
-1.40528
-1.40842
-1.41151
-1.41456
-1.41756
-1.42051
-1.42342
-1.42629
-1.42911
-1.43188
-1.43461
-1.4373
-1.43995
-1.44255
-1.44511
-1.44763
-1.45011
-1.45255
-1.45495
-1.45731
-1.45964
-1.46192
-1.46417
-1.46638
-1.46856
-1.4707
-1.47281
-1.47488
-1.47692
-1.47893
-1.4809
-1.48284
-1.48475
-1.48663
-1.48849
-1.49031
-1.4921
-1.49386
-1.4956
-1.49731
-1.49899
-1.50065
-1.50228
-1.50389
-1.50547
-1.50703
-1.50856
-1.51008
-1.51157
-1.51303
-1.51448
-1.51588
-1.16249
-1.16247
-1.16289
-1.16362
-1.16464
-1.16596
-1.16754
-1.16939
-1.17147
-1.17378
-1.1763
-1.17901
-1.18192
-1.18499
-1.18822
-1.19159
-1.1951
-1.19874
-1.20249
-1.20634
-1.21029
-1.21432
-1.21842
-1.22259
-1.22683
-1.23111
-1.23544
-1.23981
-1.24421
-1.24864
-1.25308
-1.25754
-1.26201
-1.26648
-1.27095
-1.27542
-1.27988
-1.28433
-1.28877
-1.29318
-1.29758
-1.30195
-1.30629
-1.3106
-1.31489
-1.31913
-1.32335
-1.32753
-1.33166
-1.33576
-1.33982
-1.34384
-1.34781
-1.35174
-1.35562
-1.35945
-1.36325
-1.36699
-1.37069
-1.37434
-1.37794
-1.38149
-1.385
-1.38845
-1.39186
-1.39522
-1.39854
-1.4018
-1.40502
-1.40819
-1.41131
-1.41439
-1.41742
-1.4204
-1.42334
-1.42623
-1.42908
-1.43188
-1.43464
-1.43735
-1.44003
-1.44266
-1.44524
-1.44779
-1.4503
-1.45276
-1.45519
-1.45757
-1.45992
-1.46223
-1.46451
-1.46674
-1.46894
-1.47111
-1.47324
-1.47533
-1.4774
-1.47942
-1.48142
-1.48338
-1.48532
-1.48722
-1.48909
-1.49093
-1.49275
-1.49453
-1.49629
-1.49802
-1.49972
-1.5014
-1.50305
-1.50467
-1.50627
-1.50785
-1.5094
-1.51093
-1.51244
-1.51393
-1.51539
-1.5168
-1.16097
-1.16093
-1.16132
-1.16204
-1.16304
-1.16434
-1.16592
-1.16775
-1.16982
-1.17212
-1.17463
-1.17735
-1.18025
-1.18332
-1.18655
-1.18993
-1.19344
-1.19709
-1.20084
-1.2047
-1.20866
-1.2127
-1.21682
-1.22101
-1.22526
-1.22956
-1.23391
-1.2383
-1.24272
-1.24717
-1.25163
-1.25612
-1.26061
-1.26511
-1.26961
-1.2741
-1.27859
-1.28307
-1.28753
-1.29197
-1.2964
-1.3008
-1.30517
-1.30952
-1.31383
-1.31811
-1.32236
-1.32657
-1.33074
-1.33487
-1.33896
-1.34301
-1.34701
-1.35097
-1.35489
-1.35876
-1.36258
-1.36636
-1.37009
-1.37377
-1.3774
-1.38099
-1.38453
-1.38802
-1.39146
-1.39485
-1.3982
-1.40149
-1.40474
-1.40794
-1.4111
-1.4142
-1.41726
-1.42028
-1.42324
-1.42617
-1.42904
-1.43188
-1.43466
-1.43741
-1.44011
-1.44277
-1.44538
-1.44796
-1.45049
-1.45298
-1.45544
-1.45785
-1.46022
-1.46256
-1.46486
-1.46712
-1.46935
-1.47154
-1.47369
-1.47581
-1.4779
-1.47995
-1.48197
-1.48396
-1.48591
-1.48784
-1.48973
-1.4916
-1.49343
-1.49524
-1.49702
-1.49877
-1.50049
-1.50219
-1.50386
-1.5055
-1.50712
-1.50872
-1.51029
-1.51184
-1.51337
-1.51488
-1.51636
-1.51778
-1.15938
-1.15931
-1.15968
-1.16038
-1.16136
-1.16265
-1.1642
-1.16602
-1.16809
-1.17038
-1.17289
-1.1756
-1.17849
-1.18156
-1.1848
-1.18818
-1.1917
-1.19535
-1.19911
-1.20298
-1.20695
-1.21101
-1.21514
-1.21935
-1.22361
-1.22793
-1.2323
-1.23671
-1.24115
-1.24562
-1.25011
-1.25462
-1.25914
-1.26366
-1.26819
-1.27271
-1.27723
-1.28174
-1.28623
-1.2907
-1.29516
-1.29959
-1.304
-1.30837
-1.31272
-1.31703
-1.32131
-1.32556
-1.32976
-1.33393
-1.33805
-1.34213
-1.34617
-1.35017
-1.35412
-1.35802
-1.36188
-1.36569
-1.36946
-1.37317
-1.37684
-1.38046
-1.38403
-1.38756
-1.39103
-1.39446
-1.39784
-1.40117
-1.40445
-1.40768
-1.41087
-1.41401
-1.4171
-1.42015
-1.42315
-1.4261
-1.42901
-1.43187
-1.43469
-1.43746
-1.4402
-1.44288
-1.44553
-1.44813
-1.45069
-1.45322
-1.4557
-1.45814
-1.46054
-1.4629
-1.46523
-1.46752
-1.46977
-1.47199
-1.47417
-1.47631
-1.47842
-1.4805
-1.48255
-1.48456
-1.48654
-1.48849
-1.4904
-1.49229
-1.49415
-1.49598
-1.49778
-1.49955
-1.5013
-1.50302
-1.50471
-1.50638
-1.50802
-1.50963
-1.51123
-1.5128
-1.51434
-1.51587
-1.51737
-1.51881
-1.15771
-1.15762
-1.15796
-1.15864
-1.1596
-1.16087
-1.16241
-1.16422
-1.16627
-1.16856
-1.17106
-1.17376
-1.17666
-1.17973
-1.18296
-1.18635
-1.18987
-1.19353
-1.1973
-1.20118
-1.20516
-1.20923
-1.21338
-1.2176
-1.22189
-1.22622
-1.23061
-1.23504
-1.23951
-1.244
-1.24852
-1.25305
-1.2576
-1.26215
-1.26671
-1.27126
-1.27581
-1.28034
-1.28487
-1.28937
-1.29386
-1.29833
-1.30276
-1.30718
-1.31156
-1.3159
-1.32022
-1.3245
-1.32874
-1.33294
-1.3371
-1.34122
-1.34529
-1.34932
-1.35331
-1.35725
-1.36115
-1.36499
-1.36879
-1.37255
-1.37625
-1.37991
-1.38351
-1.38707
-1.39058
-1.39405
-1.39746
-1.40083
-1.40414
-1.40741
-1.41063
-1.41381
-1.41693
-1.42001
-1.42304
-1.42603
-1.42897
-1.43187
-1.43472
-1.43752
-1.44029
-1.443
-1.44568
-1.44832
-1.45091
-1.45346
-1.45597
-1.45844
-1.46087
-1.46327
-1.46562
-1.46794
-1.47022
-1.47246
-1.47467
-1.47684
-1.47898
-1.48108
-1.48315
-1.48519
-1.48719
-1.48917
-1.49111
-1.49302
-1.4949
-1.49676
-1.49858
-1.50038
-1.50215
-1.50389
-1.5056
-1.50729
-1.50895
-1.51059
-1.51221
-1.5138
-1.51537
-1.51691
-1.51843
-1.5199
-1.15597
-1.15585
-1.15617
-1.15682
-1.15777
-1.15902
-1.16054
-1.16234
-1.16438
-1.16665
-1.16915
-1.17185
-1.17474
-1.17781
-1.18105
-1.18444
-1.18797
-1.19163
-1.19541
-1.1993
-1.2033
-1.20738
-1.21154
-1.21578
-1.22008
-1.22444
-1.22885
-1.2333
-1.23779
-1.24231
-1.24685
-1.25141
-1.25599
-1.26057
-1.26515
-1.26974
-1.27431
-1.27888
-1.28344
-1.28798
-1.2925
-1.297
-1.30148
-1.30592
-1.31034
-1.31472
-1.31907
-1.32339
-1.32767
-1.3319
-1.3361
-1.34026
-1.34437
-1.34844
-1.35246
-1.35644
-1.36038
-1.36426
-1.3681
-1.37189
-1.37563
-1.37933
-1.38297
-1.38657
-1.39012
-1.39362
-1.39707
-1.40047
-1.40382
-1.40713
-1.41038
-1.41359
-1.41675
-1.41987
-1.42293
-1.42596
-1.42893
-1.43186
-1.43474
-1.43758
-1.44038
-1.44313
-1.44584
-1.44851
-1.45113
-1.45371
-1.45626
-1.45876
-1.46122
-1.46364
-1.46603
-1.46837
-1.47068
-1.47295
-1.47519
-1.47739
-1.47956
-1.48169
-1.48378
-1.48585
-1.48788
-1.48988
-1.49185
-1.49379
-1.49569
-1.49757
-1.49942
-1.50124
-1.50303
-1.5048
-1.50654
-1.50825
-1.50994
-1.5116
-1.51323
-1.51485
-1.51644
-1.51801
-1.51955
-1.52103
-1.15416
-1.15401
-1.1543
-1.15493
-1.15586
-1.15709
-1.1586
-1.16038
-1.16241
-1.16467
-1.16716
-1.16986
-1.17274
-1.17581
-1.17905
-1.18244
-1.18598
-1.18965
-1.19344
-1.19734
-1.20135
-1.20544
-1.20962
-1.21388
-1.2182
-1.22258
-1.22701
-1.23149
-1.236
-1.24054
-1.24511
-1.2497
-1.25431
-1.25892
-1.26353
-1.26815
-1.27276
-1.27736
-1.28195
-1.28653
-1.29108
-1.29562
-1.30013
-1.30461
-1.30907
-1.31349
-1.31788
-1.32223
-1.32655
-1.33083
-1.33506
-1.33926
-1.34341
-1.34752
-1.35158
-1.3556
-1.35957
-1.3635
-1.36738
-1.37121
-1.37499
-1.37872
-1.3824
-1.38604
-1.38963
-1.39316
-1.39665
-1.40009
-1.40348
-1.40683
-1.41012
-1.41337
-1.41657
-1.41972
-1.42282
-1.42588
-1.42889
-1.43185
-1.43477
-1.43765
-1.44048
-1.44326
-1.44601
-1.44871
-1.45136
-1.45398
-1.45655
-1.45909
-1.46158
-1.46403
-1.46645
-1.46883
-1.47117
-1.47347
-1.47573
-1.47796
-1.48016
-1.48232
-1.48444
-1.48654
-1.4886
-1.49062
-1.49262
-1.49458
-1.49652
-1.49842
-1.50029
-1.50214
-1.50396
-1.50575
-1.50751
-1.50925
-1.51096
-1.51264
-1.51431
-1.51594
-1.51755
-1.51915
-1.52071
-1.52221
-1.15227
-1.1521
-1.15237
-1.15297
-1.15387
-1.15508
-1.15658
-1.15834
-1.16036
-1.16261
-1.16509
-1.16778
-1.17067
-1.17374
-1.17698
-1.18037
-1.18391
-1.18759
-1.19139
-1.19531
-1.19932
-1.20343
-1.20763
-1.2119
-1.21624
-1.22065
-1.2251
-1.2296
-1.23414
-1.23871
-1.24331
-1.24792
-1.25256
-1.2572
-1.26185
-1.2665
-1.27114
-1.27578
-1.2804
-1.28501
-1.28961
-1.29418
-1.29873
-1.30325
-1.30774
-1.31221
-1.31663
-1.32103
-1.32538
-1.3297
-1.33398
-1.33821
-1.34241
-1.34656
-1.35066
-1.35472
-1.35874
-1.3627
-1.36662
-1.37049
-1.37431
-1.37809
-1.38181
-1.38549
-1.38912
-1.39269
-1.39622
-1.3997
-1.40313
-1.40652
-1.40985
-1.41313
-1.41637
-1.41956
-1.4227
-1.4258
-1.42884
-1.43185
-1.4348
-1.43771
-1.44058
-1.4434
-1.44618
-1.44891
-1.4516
-1.45425
-1.45686
-1.45943
-1.46196
-1.46444
-1.46689
-1.4693
-1.47167
-1.474
-1.4763
-1.47856
-1.48079
-1.48298
-1.48513
-1.48725
-1.48934
-1.4914
-1.49342
-1.49541
-1.49737
-1.49931
-1.50121
-1.50308
-1.50492
-1.50674
-1.50853
-1.51029
-1.51203
-1.51374
-1.51542
-1.51708
-1.51872
-1.52033
-1.52192
-1.52344
-1.15032
-1.15011
-1.15035
-1.15093
-1.15181
-1.153
-1.15448
-1.15623
-1.15823
-1.16048
-1.16295
-1.16563
-1.16852
-1.17158
-1.17482
-1.17822
-1.18177
-1.18545
-1.18926
-1.19319
-1.19722
-1.20135
-1.20556
-1.20985
-1.21421
-1.21864
-1.22311
-1.22764
-1.2322
-1.2368
-1.24143
-1.24608
-1.25074
-1.25541
-1.2601
-1.26478
-1.26946
-1.27413
-1.27879
-1.28344
-1.28807
-1.29269
-1.29727
-1.30183
-1.30637
-1.31087
-1.31534
-1.31977
-1.32417
-1.32853
-1.33285
-1.33713
-1.34137
-1.34556
-1.34971
-1.35381
-1.35786
-1.36187
-1.36583
-1.36975
-1.37361
-1.37743
-1.3812
-1.38492
-1.38858
-1.3922
-1.39577
-1.3993
-1.40277
-1.40619
-1.40956
-1.41289
-1.41617
-1.4194
-1.42258
-1.42571
-1.4288
-1.43184
-1.43483
-1.43778
-1.44068
-1.44354
-1.44636
-1.44913
-1.45186
-1.45454
-1.45718
-1.45979
-1.46235
-1.46487
-1.46735
-1.46979
-1.4722
-1.47456
-1.47689
-1.47918
-1.48144
-1.48366
-1.48585
-1.488
-1.49012
-1.4922
-1.49425
-1.49628
-1.49827
-1.50023
-1.50216
-1.50406
-1.50593
-1.50777
-1.50959
-1.51137
-1.51314
-1.51487
-1.51658
-1.51827
-1.51993
-1.52157
-1.52318
-1.52472
-1.1483
-1.14806
-1.14827
-1.14882
-1.14968
-1.15085
-1.15231
-1.15404
-1.15603
-1.15826
-1.16073
-1.16341
-1.16629
-1.16935
-1.17259
-1.176
-1.17955
-1.18324
-1.18706
-1.191
-1.19504
-1.19919
-1.20342
-1.20773
-1.21211
-1.21655
-1.22106
-1.22561
-1.2302
-1.23482
-1.23948
-1.24416
-1.24886
-1.25356
-1.25828
-1.263
-1.26771
-1.27242
-1.27712
-1.28181
-1.28648
-1.29113
-1.29576
-1.30036
-1.30494
-1.30948
-1.314
-1.31847
-1.32291
-1.32732
-1.33168
-1.336
-1.34028
-1.34452
-1.34871
-1.35286
-1.35696
-1.36101
-1.36502
-1.36898
-1.37289
-1.37675
-1.38056
-1.38432
-1.38803
-1.3917
-1.39531
-1.39887
-1.40239
-1.40585
-1.40927
-1.41264
-1.41595
-1.41922
-1.42245
-1.42562
-1.42875
-1.43183
-1.43486
-1.43785
-1.44079
-1.44369
-1.44654
-1.44935
-1.45211
-1.45484
-1.45752
-1.46016
-1.46275
-1.46531
-1.46782
-1.4703
-1.47274
-1.47514
-1.4775
-1.47983
-1.48212
-1.48437
-1.48659
-1.48877
-1.49092
-1.49304
-1.49512
-1.49717
-1.49919
-1.50118
-1.50314
-1.50507
-1.50697
-1.50884
-1.51068
-1.5125
-1.51429
-1.51605
-1.51779
-1.5195
-1.52119
-1.52285
-1.52449
-1.52605
-1.14621
-1.14594
-1.14612
-1.14664
-1.14747
-1.14862
-1.15006
-1.15178
-1.15375
-1.15598
-1.15843
-1.1611
-1.16398
-1.16704
-1.17029
-1.17369
-1.17725
-1.18095
-1.18478
-1.18873
-1.19279
-1.19695
-1.2012
-1.20553
-1.20993
-1.2144
-1.21893
-1.2235
-1.22812
-1.23278
-1.23746
-1.24218
-1.2469
-1.25165
-1.2564
-1.26115
-1.26591
-1.27066
-1.27539
-1.28012
-1.28483
-1.28953
-1.2942
-1.29884
-1.30346
-1.30805
-1.3126
-1.31713
-1.32161
-1.32606
-1.33047
-1.33484
-1.33916
-1.34344
-1.34768
-1.35187
-1.35602
-1.36012
-1.36417
-1.36818
-1.37213
-1.37604
-1.37989
-1.3837
-1.38746
-1.39117
-1.39483
-1.39843
-1.40199
-1.4055
-1.40896
-1.41237
-1.41573
-1.41905
-1.42231
-1.42553
-1.4287
-1.43182
-1.43489
-1.43792
-1.4409
-1.44384
-1.44673
-1.44958
-1.45238
-1.45514
-1.45786
-1.46054
-1.46317
-1.46576
-1.46832
-1.47083
-1.4733
-1.47574
-1.47814
-1.4805
-1.48282
-1.48511
-1.48736
-1.48957
-1.49175
-1.4939
-1.49602
-1.4981
-1.50015
-1.50217
-1.50416
-1.50612
-1.50805
-1.50995
-1.51182
-1.51366
-1.51548
-1.51727
-1.51904
-1.52078
-1.52249
-1.52418
-1.52584
-1.52743
-1.14406
-1.14375
-1.1439
-1.14439
-1.1452
-1.14632
-1.14774
-1.14944
-1.15141
-1.15362
-1.15606
-1.15873
-1.1616
-1.16466
-1.16791
-1.17132
-1.17488
-1.17859
-1.18243
-1.18639
-1.19046
-1.19464
-1.19891
-1.20326
-1.20768
-1.21217
-1.21673
-1.22133
-1.22598
-1.23066
-1.23538
-1.24012
-1.24489
-1.24967
-1.25445
-1.25925
-1.26404
-1.26883
-1.27361
-1.27838
-1.28313
-1.28786
-1.29258
-1.29727
-1.30193
-1.30656
-1.31116
-1.31573
-1.32026
-1.32476
-1.32921
-1.33363
-1.338
-1.34233
-1.34662
-1.35086
-1.35505
-1.3592
-1.3633
-1.36735
-1.37135
-1.3753
-1.37921
-1.38306
-1.38686
-1.39062
-1.39432
-1.39798
-1.40158
-1.40514
-1.40864
-1.4121
-1.4155
-1.41886
-1.42217
-1.42543
-1.42864
-1.4318
-1.43492
-1.43799
-1.44102
-1.44399
-1.44693
-1.44982
-1.45266
-1.45546
-1.45822
-1.46093
-1.4636
-1.46624
-1.46883
-1.47138
-1.47389
-1.47636
-1.47879
-1.48119
-1.48354
-1.48587
-1.48815
-1.4904
-1.49262
-1.4948
-1.49695
-1.49906
-1.50114
-1.5032
-1.50522
-1.50721
-1.50917
-1.5111
-1.513
-1.51487
-1.51672
-1.51854
-1.52033
-1.5221
-1.52384
-1.52556
-1.52725
-1.52885
-1.14184
-1.14149
-1.14161
-1.14208
-1.14286
-1.14396
-1.14536
-1.14704
-1.14899
-1.15119
-1.15362
-1.15628
-1.15915
-1.16221
-1.16545
-1.16886
-1.17243
-1.17615
-1.18
-1.18398
-1.18806
-1.19225
-1.19654
-1.20091
-1.20536
-1.20988
-1.21445
-1.21909
-1.22376
-1.22848
-1.23323
-1.23801
-1.24281
-1.24762
-1.25245
-1.25728
-1.26211
-1.26694
-1.27176
-1.27657
-1.28137
-1.28615
-1.2909
-1.29564
-1.30035
-1.30503
-1.30967
-1.31429
-1.31887
-1.32341
-1.32792
-1.33238
-1.3368
-1.34118
-1.34551
-1.3498
-1.35404