/*--------------------------------*- C++ -*----------------------------------*\
  =========                 |
  \\      /  F ield         | OpenFOAM: The Open Source CFD Toolbox
   \\    /   O peration     | Website:  https://openfoam.org
    \\  /    A nd           | Version:  8
     \\/     M anipulation  |
\*---------------------------------------------------------------------------*/
FoamFile
{
    version     2.0;
    format      ascii;
    class       volScalarField;
    location    "0.14";
    object      p;
}
// * * * * * * * * * * * * * * * * * * * * * * * * * * * * * * * * * * * * * //

dimensions      [0 2 -2 0 0 0 0];

internalField   nonuniform List<scalar> 
112642
(
3.64009
3.616
3.59161
3.5669
3.54201
3.51686
3.49136
3.46553
3.43938
3.41292
3.38615
3.35909
3.33175
3.30415
3.27631
3.24821
3.21989
3.19137
3.16265
3.13374
3.10467
3.07546
3.0461
3.01662
2.98701
2.95731
2.92751
2.89761
2.86763
2.83757
2.80745
2.77725
2.74698
2.71665
2.68625
2.65578
2.62524
2.59464
2.56397
2.53324
2.50246
2.4716
2.44069
2.4097
2.37866
2.34756
2.3164
2.28518
2.2539
2.22256
2.19117
2.15973
2.12823
2.09669
2.06509
2.03344
2.00173
1.96998
1.93818
1.90632
1.87441
1.84245
1.81043
1.77836
1.74624
1.71407
1.68185
1.64959
1.61728
1.58492
1.55252
1.52007
1.48757
1.45503
1.42244
1.38981
1.35713
1.32441
1.29164
1.25883
1.22596
1.19305
1.16009
1.12709
1.09403
1.06091
1.02776
0.994542
0.961274
0.927952
0.894572
0.861146
0.827656
0.794107
0.760498
0.726837
0.69311
0.659317
0.625463
0.591547
0.557562
0.523515
0.4894
0.455215
0.420965
0.386649
0.352255
0.317788
0.283249
0.248641
0.213948
0.17918
0.144334
0.109406
0.0744103
0.0393173
0.00414651
-0.0310987
-0.0664341
-0.101857
-0.137374
-0.172976
-0.208672
-0.244459
-0.280355
-0.316342
-0.352431
-0.388622
-0.424913
-0.461305
-0.497795
-0.534388
-0.571079
-0.607869
-0.644764
-0.681755
-0.718844
-0.756033
-0.793323
-0.83071
-0.868189
-0.905774
-0.943461
-0.981242
-1.01913
-1.05712
-1.09521
-1.13339
-1.17169
-1.21009
-1.24859
-1.2872
-1.32592
-1.36473
-1.40366
-1.4427
-1.48185
-1.52111
-1.56048
-1.59996
-1.63955
-1.67925
-1.71908
-1.75903
-1.79909
-1.83928
-1.8796
-1.92003
-1.9606
-2.00129
-2.04212
-2.08308
-2.12417
-2.16541
-2.20677
-2.24824
-2.28985
-2.33158
-2.37343
-2.41538
-2.45744
-2.49959
-2.54182
-2.58411
-2.62647
-2.66887
-2.71128
-2.75371
-2.79614
-2.83858
-2.88099
-2.92337
-2.96575
-3.00814
-3.05058
-3.09314
-3.13608
-3.17975
-3.22383
-3.26831
3.65422
3.63046
3.60636
3.58189
3.55728
3.53237
3.50712
3.48154
3.45562
3.42937
3.40281
3.37594
3.34879
3.32134
3.29365
3.2657
3.23751
3.2091
3.18048
3.15167
3.12269
3.09353
3.06423
3.03479
3.00521
2.97553
2.94573
2.91582
2.88582
2.85574
2.82557
2.79532
2.76499
2.73459
2.7041
2.67354
2.64291
2.6122
2.58142
2.55057
2.51964
2.48865
2.45759
2.42645
2.39525
2.36398
2.33264
2.30124
2.26978
2.23824
2.20665
2.175
2.14329
2.11152
2.07969
2.04781
2.01587
1.98387
1.95181
1.9197
1.88753
1.8553
1.82302
1.79068
1.75829
1.72584
1.69334
1.66079
1.62819
1.59553
1.56283
1.53007
1.49727
1.46442
1.43152
1.39856
1.36556
1.33251
1.29942
1.26626
1.23306
1.19981
1.16651
1.13315
1.09975
1.06628
1.03277
0.999195
0.965567
0.931883
0.898143
0.864343
0.830487
0.796565
0.762586
0.728545
0.694441
0.660274
0.626035
0.591742
0.557368
0.522941
0.488435
0.453868
0.419229
0.38452
0.349739
0.314879
0.279951
0.244945
0.209863
0.174702
0.139462
0.104142
0.0687467
0.0332615
-0.00230232
-0.0379506
-0.0736821
-0.109506
-0.145418
-0.181424
-0.217518
-0.253708
-0.289997
-0.326386
-0.362869
-0.399454
-0.436136
-0.47292
-0.509797
-0.54678
-0.583856
-0.62103
-0.658299
-0.695674
-0.733138
-0.770701
-0.808362
-0.846115
-0.883968
-0.921915
-0.959964
-0.998107
-1.03635
-1.07469
-1.11313
-1.15166
-1.1903
-1.22903
-1.26787
-1.30682
-1.34586
-1.385
-1.42424
-1.46359
-1.50306
-1.54262
-1.58229
-1.62205
-1.66193
-1.70192
-1.74202
-1.78224
-1.82256
-1.863
-1.90356
-1.94423
-1.98502
-2.02593
-2.06697
-2.10812
-2.1494
-2.19081
-2.23232
-2.27396
-2.3157
-2.35755
-2.3995
-2.44157
-2.4837
-2.52592
-2.56821
-2.61054
-2.65292
-2.69532
-2.73774
-2.78017
-2.82257
-2.86497
-2.90733
-2.94968
-2.99202
-3.03437
-3.07684
-3.11952
-3.16256
-3.20638
-3.25041
-3.29463
3.66793
3.64456
3.62077
3.59652
3.57211
3.54741
3.52243
3.49709
3.47139
3.44537
3.419
3.39234
3.36536
3.3381
3.31056
3.28276
3.25471
3.22643
3.19793
3.16922
3.14032
3.11124
3.08199
3.0526
3.02306
2.9934
2.96361
2.9337
2.90369
2.87358
2.84338
2.81308
2.78269
2.75222
2.72166
2.69102
2.66029
2.62948
2.59859
2.56762
2.53657
2.50545
2.47425
2.44297
2.41161
2.38018
2.34868
2.3171
2.28546
2.25374
2.22196
2.1901
2.15819
2.12621
2.09416
2.06205
2.02988
1.99764
1.96535
1.93299
1.90057
1.86809
1.83555
1.80294
1.77028
1.73756
1.70479
1.67195
1.63907
1.60612
1.57312
1.54007
1.50697
1.4738
1.44059
1.40732
1.374
1.34063
1.3072
1.27372
1.24018
1.20659
1.17295
1.13925
1.1055
1.07168
1.03781
1.00389
0.969895
0.935855
0.901744
0.867583
0.833353
0.799064
0.764712
0.730297
0.695814
0.661268
0.62665
0.591973
0.557218
0.522405
0.487515
0.452559
0.41753
0.382432
0.34726
0.312013
0.276688
0.241296
0.205814
0.170266
0.134628
0.0989176
0.0631285
0.0272449
-0.00871243
-0.0447597
-0.0808848
-0.11711
-0.153422
-0.189824
-0.226317
-0.262907
-0.299595
-0.336373
-0.373253
-0.410232
-0.447306
-0.484468
-0.521735
-0.5591
-0.596554
-0.634108
-0.671757
-0.709498
-0.747337
-0.785267
-0.82329
-0.861412
-0.899619
-0.937926
-0.976325
-1.01482
-1.05341
-1.09209
-1.13087
-1.16975
-1.20871
-1.24779
-1.28695
-1.32621
-1.36557
-1.40503
-1.44458
-1.48424
-1.524
-1.56386
-1.60381
-1.64386
-1.68402
-1.72429
-1.76465
-1.80512
-1.8457
-1.88639
-1.92719
-1.96809
-2.0091
-2.05023
-2.09147
-2.13282
-2.17428
-2.21586
-2.25753
-2.2993
-2.34119
-2.38316
-2.42523
-2.46737
-2.50959
-2.55186
-2.59419
-2.63655
-2.67895
-2.72135
-2.76375
-2.80614
-2.84852
-2.89085
-2.93317
-2.97545
-3.01775
-3.0601
-3.10255
-3.14539
-3.18861
-3.23256
-3.27647
-3.32036
3.6812
3.65827
3.63491
3.61085
3.58664
3.56217
3.53741
3.5123
3.48685
3.46104
3.43491
3.40844
3.38166
3.35459
3.32722
3.29959
3.27169
3.24355
3.21517
3.18657
3.15777
3.12877
3.09959
3.07026
3.04076
3.01113
2.98135
2.95145
2.92142
2.89129
2.86105
2.83071
2.80027
2.76972
2.73909
2.70838
2.67756
2.64665
2.61566
2.58458
2.55341
2.52216
2.49082
2.45941
2.4279
2.39632
2.36465
2.33292
2.3011
2.2692
2.23723
2.20519
2.17307
2.14088
2.10863
2.0763
2.0439
2.01144
1.97891
1.94631
1.91365
1.88092
1.84812
1.81526
1.78234
1.74935
1.7163
1.68319
1.65002
1.61679
1.5835
1.55015
1.51674
1.48327
1.44974
1.41617
1.38253
1.34883
1.31508
1.28126
1.24739
1.21346
1.17948
1.14543
1.11133
1.07716
1.04294
1.00865
0.974307
0.939897
0.905424
0.870893
0.836294
0.801632
0.766902
0.732109
0.697247
0.662318
0.62732
0.592254
0.557115
0.52191
0.486633
0.451286
0.415866
0.380374
0.344807
0.309166
0.273447
0.237657
0.201783
0.165831
0.129803
0.0936926
0.057504
0.0212271
-0.0151292
-0.0515781
-0.0881038
-0.124727
-0.161434
-0.198241
-0.235131
-0.272121
-0.309207
-0.346378
-0.383653
-0.421025
-0.458483
-0.496039
-0.533691
-0.571431
-0.60927
-0.647196
-0.685223
-0.723333
-0.761542
-0.799836
-0.838221
-0.876701
-0.915267
-0.953924
-0.992675
-1.03151
-1.07045
-1.10947
-1.14858
-1.18778
-1.22709
-1.26648
-1.30597
-1.34555
-1.38522
-1.42498
-1.46484
-1.5048
-1.54486
-1.58499
-1.62524
-1.66557
-1.706
-1.74654
-1.78717
-1.82789
-1.86873
-1.90965
-1.95068
-1.99183
-2.03307
-2.0744
-2.11585
-2.1574
-2.19904
-2.24079
-2.28263
-2.32456
-2.36657
-2.40866
-2.45083
-2.49307
-2.53535
-2.57768
-2.62005
-2.66244
-2.70483
-2.74721
-2.78959
-2.83193
-2.87425
-2.91653
-2.95876
-3.00098
-3.04322
-3.08557
-3.12809
-3.17104
-3.21444
-3.25851
-3.30207
-3.3456
3.69405
3.67181
3.64891
3.62512
3.60116
3.57688
3.55237
3.52751
3.50231
3.47674
3.45083
3.42459
3.39803
3.37115
3.34397
3.31651
3.28878
3.26078
3.23254
3.20406
3.17536
3.14645
3.11736
3.08808
3.05864
3.02902
2.99927
2.96937
2.93934
2.90919
2.87892
2.84854
2.81804
2.78745
2.75675
2.72595
2.69505
2.66405
2.63296
2.60177
2.57049
2.53911
2.50764
2.47609
2.44444
2.41271
2.38089
2.34898
2.31699
2.28493
2.25277
2.22054
2.18822
2.15583
2.12336
2.09082
2.0582
2.02551
1.99274
1.95991
1.927
1.89402
1.86097
1.82785
1.79466
1.7614
1.72808
1.69468
1.66123
1.62771
1.59412
1.56047
1.52676
1.49298
1.45914
1.42523
1.39127
1.35725
1.32316
1.28901
1.2548
1.22052
1.18619
1.15179
1.11733
1.08281
1.04822
1.01357
0.978858
0.944077
0.909232
0.874321
0.839345
0.804297
0.769187
0.734005
0.698756
0.663434
0.628043
0.592583
0.557048
0.521446
0.48577
0.450021
0.414201
0.378305
0.342337
0.306289
0.270168
0.233969
0.197691
0.161333
0.1249
0.0883808
0.051785
0.015099
-0.0216642
-0.0585161
-0.0954535
-0.132487
-0.169602
-0.20681
-0.244112
-0.281508
-0.318992
-0.356573
-0.394246
-0.432014
-0.469869
-0.507821
-0.545864
-0.583993
-0.622212
-0.660527
-0.69893
-0.737416
-0.775993
-0.81466
-0.853415
-0.892252
-0.931176
-0.970193
-1.00929
-1.04848
-1.08776
-1.12713
-1.16658
-1.20612
-1.24575
-1.28547
-1.32528
-1.36517
-1.40516
-1.44523
-1.4854
-1.52566
-1.566
-1.60643
-1.64696
-1.68758
-1.72828
-1.76908
-1.80998
-1.85097
-1.89205
-1.93322
-1.97449
-2.01586
-2.05733
-2.09888
-2.14053
-2.18228
-2.22411
-2.26603
-2.30803
-2.35012
-2.39227
-2.43448
-2.47674
-2.51907
-2.56142
-2.60381
-2.64621
-2.68861
-2.73099
-2.77336
-2.81569
-2.85799
-2.90024
-2.94244
-2.9846
-3.02677
-3.06896
-3.11131
-3.1539
-3.19703
-3.24048
-3.2845
-3.32769
-3.37045
3.7067
3.68515
3.66271
3.63932
3.61565
3.59161
3.56734
3.54273
3.51778
3.49248
3.46681
3.4408
3.41445
3.38779
3.36081
3.33353
3.30597
3.27812
3.25003
3.22168
3.19309
3.16428
3.13527
3.10606
3.07667
3.04709
3.01736
2.98748
2.95746
2.9273
2.897
2.86658
2.83604
2.80539
2.77463
2.74376
2.71278
2.68169
2.6505
2.61921
2.58782
2.55633
2.52473
2.49305
2.46126
2.42938
2.39741
2.36534
2.33318
2.30094
2.26861
2.23619
2.20367
2.17108
2.1384
2.10564
2.0728
2.03988
2.00688
1.9738
1.94065
1.90742
1.87411
1.84073
1.80727
1.77374
1.74014
1.70646
1.67272
1.6389
1.60501
1.57105
1.53703
1.50294
1.46877
1.43455
1.40025
1.3659
1.33147
1.29698
1.26242
1.22779
1.1931
1.15835
1.12352
1.08863
1.05368
1.01865
0.98356
0.948398
0.913172
0.877871
0.842508
0.807068
0.771565
0.735986
0.700337
0.664619
0.628822
0.592958
0.557017
0.521008
0.48492
0.448764
0.412531
0.376222
0.339841
0.303377
0.266843
0.230224
0.193532
0.156756
0.119906
0.0829672
0.0459566
0.0088521
-0.0283323
-0.0656007
-0.102958
-0.140404
-0.17794
-0.215564
-0.253284
-0.291088
-0.328992
-0.366977
-0.405066
-0.443232
-0.481493
-0.519847
-0.558288
-0.59681
-0.635425
-0.674124
-0.71291
-0.75178
-0.790736
-0.829773
-0.868899
-0.908107
-0.947396
-0.986775
-1.02623
-1.06577
-1.1054
-1.14511
-1.1849
-1.22478
-1.26475
-1.30479
-1.34492
-1.38513
-1.42543
-1.46582
-1.50629
-1.54684
-1.58748
-1.6282
-1.66902
-1.70991
-1.75089
-1.79195
-1.83311
-1.87436
-1.91569
-1.95711
-1.99861
-2.04021
-2.08189
-2.12367
-2.16552
-2.20746
-2.24947
-2.29156
-2.33372
-2.37595
-2.41823
-2.46056
-2.50293
-2.54534
-2.58777
-2.63019
-2.67261
-2.71503
-2.75741
-2.79974
-2.84205
-2.88428
-2.92647
-2.9686
-3.01071
-3.05279
-3.09498
-3.13736
-3.18005
-3.22326
-3.26669
-3.31042
-3.35327
-3.39533
3.71912
3.69817
3.67633
3.6534
3.63003
3.60626
3.58223
3.55788
3.5332
3.50814
3.48273
3.45696
3.43085
3.40439
3.37762
3.35053
3.32314
3.29548
3.26752
3.23931
3.21085
3.18214
3.15322
3.12409
3.09475
3.06523
3.03554
3.00568
2.97567
2.9455
2.91519
2.88475
2.85418
2.82348
2.79267
2.76174
2.73069
2.69952
2.66824
2.63686
2.60535
2.57376
2.54204
2.51023
2.47831
2.44629
2.41416
2.38195
2.34963
2.31721
2.28469
2.25208
2.21938
2.18659
2.1537
2.12073
2.08767
2.05452
2.02129
1.98797
1.95457
1.92109
1.88752
1.85388
1.82015
1.78634
1.75246
1.7185
1.68446
1.65034
1.61615
1.58189
1.54755
1.51314
1.47865
1.4441
1.40946
1.37477
1.33999
1.30515
1.27024
1.23526
1.2002
1.16508
1.12989
1.09462
1.05929
1.02388
0.988405
0.952855
0.917238
0.881544
0.845781
0.809948
0.774032
0.738058
0.701996
0.665869
0.62966
0.593382
0.557025
0.520598
0.484092
0.447517
0.410857
0.374134
0.33732
0.300438
0.263476
0.226432
0.189314
0.152112
0.114834
0.0774693
0.040027
0.00249792
-0.0351129
-0.07281
-0.110599
-0.148471
-0.18643
-0.224482
-0.262624
-0.300851
-0.339174
-0.377582
-0.41608
-0.454661
-0.493336
-0.532091
-0.570935
-0.60986
-0.648871
-0.687965
-0.727138
-0.766393
-0.805738
-0.84515
-0.884652
-0.924225
-0.96389
-1.00363
-1.04344
-1.08334
-1.12332
-1.16337
-1.2035
-1.24372
-1.28402
-1.32439
-1.36484
-1.40538
-1.44599
-1.48668
-1.52746
-1.56831
-1.60924
-1.65025
-1.69134
-1.7325
-1.77376
-1.81509
-1.8565
-1.898
-1.93957
-1.98122
-2.02296
-2.06478
-2.10668
-2.14864
-2.1907
-2.23282
-2.275
-2.31725
-2.35956
-2.40193
-2.44434
-2.48676
-2.52923
-2.57171
-2.61419
-2.65665
-2.69911
-2.74151
-2.78388
-2.82619
-2.86844
-2.91063
-2.95274
-2.99482
-3.03686
-3.07893
-3.1211
-3.16355
-3.20632
-3.24957
-3.29291
-3.33627
-3.37856
-3.42011
3.73112
3.71089
3.68963
3.66724
3.64426
3.62077
3.59698
3.57288
3.54846
3.52367
3.49852
3.473
3.44712
3.42089
3.39433
3.36744
3.34025
3.31274
3.28495
3.25688
3.22856
3.19996
3.17115
3.1421
3.11285
3.08339
3.05374
3.02392
2.99392
2.96377
2.93346
2.90301
2.87242
2.84169
2.81083
2.77984
2.74873
2.7175
2.68614
2.65467
2.62308
2.59137
2.55955
2.52761
2.49557
2.46342
2.43115
2.39878
2.3663
2.33372
2.30102
2.26823
2.23535
2.20236
2.16926
2.13608
2.1028
2.06943
2.03596
2.00241
1.96876
1.93502
1.9012
1.86729
1.83329
1.79921
1.76504
1.73079
1.69645
1.66204
1.62754
1.59297
1.55831
1.52357
1.48876
1.45387
1.4189
1.38385
1.34873
1.31353
1.27826
1.24292
1.20749
1.172
1.13643
1.10078
1.06506
1.02926
0.9934
0.95745
0.921436
0.885339
0.849171
0.812927
0.776604
0.74021
0.703736
0.667186
0.630558
0.593856
0.557074
0.52022
0.483287
0.446278
0.409192
0.372031
0.334788
0.297469
0.260073
0.222593
0.185041
0.147398
0.109686
0.0718846
0.0340041
-0.00396472
-0.0420107
-0.0801438
-0.11837
-0.156674
-0.195074
-0.233559
-0.272131
-0.310791
-0.349537
-0.388371
-0.427291
-0.466295
-0.505382
-0.544554
-0.583805
-0.623137
-0.662551
-0.702042
-0.741614
-0.781263
-0.820985
-0.860789
-0.900666
-0.940619
-0.980649
-1.02075
-1.06093
-1.10119
-1.14151
-1.18191
-1.22239
-1.26295
-1.30357
-1.34427
-1.38505
-1.42591
-1.46683
-1.50783
-1.5489
-1.59005
-1.63127
-1.67256
-1.71393
-1.75536
-1.79688
-1.83846
-1.88013
-1.92187
-1.96367
-2.00555
-2.04751
-2.08954
-2.13164
-2.17381
-2.21604
-2.25833
-2.30067
-2.34307
-2.38551
-2.42801
-2.47051
-2.51304
-2.55557
-2.59812
-2.64064
-2.68313
-2.72559
-2.768
-2.81034
-2.85261
-2.89481
-2.93694
-2.97898
-3.02099
-3.06299
-3.10505
-3.14724
-3.18975
-3.23261
-3.27586
-3.31899
-3.36185
-3.4036
-3.44441
3.74278
3.72325
3.7026
3.68081
3.65826
3.63511
3.61159
3.58774
3.56358
3.53906
3.51417
3.48891
3.46327
3.43728
3.41095
3.38427
3.35726
3.32995
3.30232
3.27442
3.24623
3.21779
3.18908
3.16014
3.13098
3.10159
3.07201
3.04223
3.01228
2.98215
2.95185
2.9214
2.8908
2.86005
2.82916
2.79813
2.76697
2.73568
2.70425
2.6727
2.64102
2.60922
2.5773
2.54525
2.51308
2.4808
2.44839
2.41588
2.38325
2.3505
2.31764
2.28468
2.2516
2.21842
2.18512
2.15173
2.11823
2.08463
2.05093
2.01714
1.98325
1.94925
1.91517
1.88099
1.84672
1.81236
1.77791
1.74337
1.70873
1.67401
1.63921
1.60431
1.56933
1.53427
1.49912
1.46389
1.42858
1.39318
1.3577
1.32214
1.2865
1.25079
1.21499
1.17911
1.14316
1.10712
1.07101
1.03482
0.998546
0.962198
0.925773
0.889263
0.852683
0.816017
0.779278
0.742456
0.705556
0.66858
0.631519
0.594382
0.557166
0.519874
0.4825
0.445054
0.407527
0.369919
0.332237
0.294469
0.256629
0.218701
0.180699
0.142616
0.10445
0.066203
0.0278746
-0.0105432
-0.049036
-0.0876207
-0.12629
-0.165038
-0.203885
-0.242807
-0.281825
-0.320924
-0.360105
-0.399373
-0.43872
-0.478155
-0.517665
-0.557259
-0.596927
-0.636672
-0.676498
-0.716394
-0.756367
-0.796411
-0.836529
-0.876718
-0.91698
-0.957315
-0.997721
-1.03819
-1.07874
-1.11935
-1.16003
-1.20078
-1.24162
-1.2825
-1.32347
-1.3645
-1.4056
-1.44677
-1.48801
-1.52931
-1.57069
-1.61213
-1.65363
-1.6952
-1.73684
-1.77854
-1.82032
-1.86216
-1.90407
-1.94603
-1.98806
-2.03017
-2.07234
-2.11457
-2.15686
-2.1992
-2.2416
-2.28406
-2.32654
-2.36908
-2.41164
-2.45424
-2.49683
-2.53944
-2.58204
-2.62461
-2.66716
-2.70966
-2.75212
-2.7945
-2.83681
-2.87903
-2.92116
-2.96322
-3.00522
-3.04716
-3.08913
-3.13119
-3.17343
-3.21601
-3.25889
-3.30202
-3.34484
-3.38711
-3.42829
-3.46839
3.75403
3.7352
3.71523
3.69407
3.67206
3.64926
3.62605
3.60247
3.57857
3.55431
3.5297
3.50469
3.47932
3.45358
3.42748
3.40102
3.37423
3.34711
3.31968
3.29194
3.26391
3.23561
3.20704
3.17822
3.14916
3.11987
3.09037
3.06066
3.03075
3.00067
2.97039
2.93996
2.90935
2.8786
2.84769
2.81663
2.78542
2.75408
2.72259
2.69097
2.65921
2.62733
2.5953
2.56315
2.53088
2.49846
2.46593
2.43327
2.40049
2.36759
2.33456
2.30142
2.26816
2.23479
2.20129
2.16769
2.13397
2.10016
2.06622
2.03219
1.99805
1.9638
1.92946
1.89501
1.86047
1.82582
1.79108
1.75625
1.72131
1.68628
1.65116
1.61594
1.58063
1.54524
1.50975
1.47417
1.43851
1.40275
1.36691
1.33098
1.29498
1.25888
1.2227
1.18643
1.15008
1.11365
1.07714
1.04054
1.00386
0.967098
0.930255
0.893327
0.856317
0.819229
0.782055
0.744799
0.707466
0.670043
0.632546
0.594962
0.5573
0.519557
0.48174
0.443835
0.405858
0.367797
0.329655
0.291437
0.253135
0.214752
0.176291
0.137749
0.0991244
0.0604167
0.0216273
-0.0172459
-0.0561989
-0.0952432
-0.134366
-0.173578
-0.21287
-0.252251
-0.291713
-0.331263
-0.370893
-0.410599
-0.450388
-0.490253
-0.530202
-0.570222
-0.610313
-0.650485
-0.690728
-0.731035
-0.771415
-0.811867
-0.85238
-0.89297
-0.933621
-0.974343
-1.01512
-1.05597
-1.09689
-1.13787
-1.17891
-1.22002
-1.2612
-1.30244
-1.34373
-1.3851
-1.42652
-1.46801
-1.50956
-1.55118
-1.59284
-1.63458
-1.67636
-1.71821
-1.76012
-1.80208
-1.84411
-1.8862
-1.92835
-1.97055
-2.0128
-2.05513
-2.09749
-2.1399
-2.18238
-2.22489
-2.26746
-2.31005
-2.35267
-2.39532
-2.43799
-2.48067
-2.52334
-2.566
-2.60864
-2.65124
-2.69379
-2.73629
-2.77872
-2.82107
-2.86331
-2.90548
-2.94755
-2.98953
-3.03146
-3.07337
-3.1153
-3.15738
-3.19967
-3.2423
-3.28512
-3.32809
-3.37043
-3.41209
-3.45255
-3.4919
3.76486
3.74672
3.72749
3.70702
3.68555
3.66323
3.64036
3.61706
3.59343
3.56945
3.5451
3.52038
3.49528
3.46979
3.44394
3.41772
3.39116
3.36425
3.33702
3.30947
3.28162
3.25348
3.22506
3.19637
3.16744
3.13825
3.10884
3.07921
3.04937
3.01933
2.9891
2.95869
2.92811
2.89735
2.86644
2.83535
2.80411
2.77273
2.74119
2.70951
2.67769
2.64571
2.6136
2.58135
2.54896
2.51643
2.48377
2.45098
2.41805
2.38499
2.35181
2.31849
2.28505
2.25148
2.2178
2.18398
2.15005
2.11601
2.08185
2.04757
2.01318
1.97868
1.94407
1.90936
1.87453
1.8396
1.80457
1.76944
1.7342
1.69886
1.66341
1.62787
1.59223
1.5565
1.52067
1.48473
1.44871
1.41259
1.37638
1.34008
1.30369
1.26721
1.23063
1.19397
1.15722
1.12038
1.08346
1.04644
1.00935
0.972161
0.934889
0.897531
0.860088
0.822557
0.784946
0.747246
0.709459
0.671591
0.633637
0.595597
0.557479
0.519276
0.480993
0.442631
0.404184
0.365657
0.327052
0.288361
0.249592
0.210742
0.171809
0.132792
0.0937024
0.0545183
0.0152611
-0.0240835
-0.063511
-0.103018
-0.142613
-0.182291
-0.222051
-0.261893
-0.301818
-0.341821
-0.381905
-0.42207
-0.462305
-0.502617
-0.543005
-0.583459
-0.62399
-0.664592
-0.705253
-0.745987
-0.786781
-0.827646
-0.868575
-0.909561
-0.950609
-0.991725
-1.03289
-1.07413
-1.11542
-1.15677
-1.19817
-1.23965
-1.28117
-1.32275
-1.36439
-1.40609
-1.44785
-1.48966
-1.53152
-1.57344
-1.61541
-1.65743
-1.69951
-1.74163
-1.7838
-1.82604
-1.86831
-1.91064
-1.95301
-1.99544
-2.03792
-2.08045
-2.123
-2.1656
-2.20824
-2.25092
-2.29362
-2.33634
-2.37908
-2.42184
-2.46459
-2.50735
-2.55007
-2.59277
-2.63543
-2.67804
-2.72058
-2.76306
-2.80544
-2.84773
-2.88992
-2.93201
-2.97399
-3.01591
-3.05777
-3.09962
-3.14156
-3.18365
-3.22598
-3.2686
-3.31132
-3.35391
-3.39576
-3.43671
-3.47634
-3.51496
3.77521
3.75784
3.73936
3.7196
3.69877
3.67696
3.65449
3.63151
3.60817
3.58447
3.56041
3.53597
3.51114
3.48593
3.46033
3.43437
3.40804
3.38137
3.35435
3.32701
3.29934
3.27138
3.24312
3.21459
3.18579
3.15673
3.12742
3.09788
3.06813
3.03816
3.00798
2.97761
2.94705
2.9163
2.88539
2.85429
2.82304
2.79162
2.76004
2.72831
2.69641
2.66437
2.63217
2.59983
2.56734
2.53469
2.50191
2.46899
2.43592
2.40271
2.36937
2.33588
2.30226
2.26851
2.23462
2.2006
2.16646
2.13219
2.0978
2.06328
2.02864
1.99389
1.95902
1.92403
1.88893
1.85371
1.81838
1.78295
1.7474
1.71174
1.67598
1.6401
1.60413
1.56805
1.53186
1.49558
1.45919
1.4227
1.38611
1.34943
1.31265
1.27577
1.2388
1.20173
1.16457
1.12732
1.08997
1.05254
1.01501
0.977389
0.939681
0.901879
0.863993
0.826011
0.787949
0.74979
0.711548
0.673215
0.634796
0.596289
0.557701
0.519027
0.480271
0.44143
0.402511
0.363502
0.324421
0.285247
0.246
0.206665
0.167251
0.127755
0.0881742
0.0485143
0.00877292
-0.0310572
-0.0709611
-0.110955
-0.151024
-0.191184
-0.231421
-0.271735
-0.312131
-0.352603
-0.393155
-0.433774
-0.474475
-0.515242
-0.556076
-0.596983
-0.637953
-0.678993
-0.72009
-0.761249
-0.802474
-0.843756
-0.8851
-0.926497
-0.967953
-1.00946
-1.05103
-1.09265
-1.13431
-1.17604
-1.21782
-1.25966
-1.30154
-1.34347
-1.38546
-1.42749
-1.46957
-1.51171
-1.55388
-1.59611
-1.63838
-1.6807
-1.72306
-1.76545
-1.8079
-1.85038
-1.89291
-1.93547
-1.97808
-2.02072
-2.0634
-2.10612
-2.14887
-2.19164
-2.23444
-2.27726
-2.3201
-2.36294
-2.40579
-2.44863
-2.49146
-2.53426
-2.57702
-2.61975
-2.66242
-2.705
-2.74752
-2.78994
-2.83228
-2.87449
-2.91661
-2.9586
-3.00051
-3.04234
-3.08415
-3.12596
-3.16788
-3.20999
-3.25232
-3.29488
-3.33737
-3.37953
-3.42074
-3.46093
-3.4997
-3.53736
3.78513
3.76854
3.7508
3.73179
3.71166
3.69042
3.66842
3.6458
3.62277
3.59936
3.5756
3.55144
3.52691
3.50198
3.47667
3.45097
3.42489
3.39846
3.37167
3.34455
3.31709
3.28932
3.26124
3.23287
3.20422
3.1753
3.14612
3.11669
3.08702
3.05713
3.02701
2.9967
2.96618
2.93546
2.90455
2.87346
2.84219
2.81075
2.77914
2.74735
2.71541
2.68329
2.65102
2.61859
2.586
2.55325
2.52035
2.4873
2.4541
2.42074
2.38724
2.35359
2.3198
2.28586
2.25178
2.21756
2.1832
2.14871
2.11409
2.07933
2.04445
2.00944
1.9743
1.93904
1.90366
1.86815
1.83252
1.79678
1.76092
1.72495
1.68885
1.65264
1.61632
1.57989
1.54335
1.5067
1.46994
1.43308
1.39611
1.35903
1.32186
1.28458
1.2472
1.20972
1.17214
1.13446
1.09669
1.05882
1.02085
0.982786
0.944635
0.906375
0.868036
0.829594
0.791065
0.752439
0.713729
0.674919
0.636026
0.597038
0.557969
0.51881
0.479572
0.440241
0.400834
0.361337
0.32176
0.282095
0.242357
0.202521
0.162619
0.122623
0.0825494
0.0423964
0.00215546
-0.0381635
-0.0785628
-0.119052
-0.159611
-0.200259
-0.240979
-0.281781
-0.322661
-0.363609
-0.404637
-0.445732
-0.486898
-0.528129
-0.569428
-0.610789
-0.652218
-0.693698
-0.735237
-0.776839
-0.818498
-0.860207
-0.901967
-0.943783
-0.985651
-1.02756
-1.06953
-1.11155
-1.1536
-1.19571
-1.23786
-1.28007
-1.32231
-1.3646
-1.40693
-1.44931
-1.49172
-1.53418
-1.57666
-1.6192
-1.66177
-1.70438
-1.74702
-1.78969
-1.8324
-1.87514
-1.91791
-1.96071
-2.00354
-2.04639
-2.08927
-2.13217
-2.1751
-2.21804
-2.26099
-2.30394
-2.3469
-2.38985
-2.43279
-2.4757
-2.51858
-2.56143
-2.60421
-2.64694
-2.68959
-2.73216
-2.77463
-2.81699
-2.85924
-2.90138
-2.94341
-2.98531
-3.02712
-3.06887
-3.11059
-3.15238
-3.19429
-3.2364
-3.27868
-3.32109
-3.36323
-3.40487
-3.44532
-3.48468
-3.52258
-3.55929
3.79462
3.77876
3.7618
3.74357
3.72418
3.7036
3.6821
3.65992
3.63723
3.61413
3.59066
3.56682
3.54258
3.51796
3.49292
3.4675
3.4417
3.41552
3.38898
3.36208
3.33485
3.30729
3.2794
3.25121
3.22272
3.19395
3.1649
3.13559
3.10603
3.07623
3.0462
3.01593
2.98547
2.95478
2.9239
2.89282
2.86155
2.8301
2.79846
2.76664
2.73465
2.70248
2.67014
2.63762
2.60494
2.57209
2.53908
2.50591
2.47258
2.43908
2.40543
2.37162
2.33765
2.30353
2.26926
2.23484
2.20027
2.16556
2.13071
2.09571
2.06058
2.02531
1.98991
1.95438
1.91871
1.88291
1.84699
1.81094
1.77476
1.73846
1.70204
1.66549
1.62882
1.59203
1.55513
1.51811
1.48098
1.44373
1.40637
1.3689
1.33132
1.29363
1.25584
1.21793
1.17993
1.14182
1.1036
1.06529
1.02687
0.988359
0.949743
0.911026
0.872215
0.833306
0.794298
0.755199
0.716001
0.67671
0.637326
0.597846
0.558285
0.518629
0.47889
0.439065
0.399151
0.359156
0.319072
0.278906
0.238656
0.19832
0.157903
0.117408
0.0768214
0.0361635
-0.00458439
-0.0454117
-0.0863153
-0.127307
-0.168369
-0.209518
-0.250739
-0.29203
-0.333405
-0.374843
-0.416354
-0.457932
-0.499577
-0.541285
-0.583053
-0.624885
-0.666768
-0.70871
-0.750703
-0.792751
-0.834847
-0.876993
-0.919187
-0.961423
-1.00371
-1.04604
-1.08841
-1.13082
-1.17328
-1.21577
-1.2583
-1.30087
-1.34348
-1.38612
-1.4288
-1.47152
-1.51427
-1.55706
-1.59986
-1.6427
-1.68557
-1.72847
-1.77139
-1.81434
-1.8573
-1.90029
-1.9433
-1.98633
-2.02938
-2.07244
-2.11551
-2.15859
-2.20168
-2.24478
-2.28786
-2.33095
-2.37402
-2.41705
-2.46006
-2.50304
-2.54596
-2.58883
-2.63162
-2.67434
-2.71696
-2.75947
-2.80188
-2.84417
-2.88634
-2.92838
-2.9703
-3.0121
-3.05382
-3.09548
-3.13715
-3.17888
-3.22077
-3.26285
-3.30501
-3.34715
-3.38888
-3.42984
-3.46947
-3.50792
-3.54487
-3.58066
3.80366
3.78856
3.77237
3.75493
3.7363
3.71642
3.69553
3.67382
3.65153
3.62877
3.60562
3.58208
3.55816
3.53383
3.5091
3.48397
3.45844
3.43254
3.40626
3.37961
3.3526
3.32526
3.29758
3.26958
3.24127
3.21266
3.18376
3.15459
3.12515
3.09546
3.06551
3.03533
3.00492
2.97428
2.94343
2.91238
2.88112
2.84966
2.81801
2.78617
2.75413
2.72191
2.68951
2.65693
2.62416
2.59122
2.55811
2.52482
2.49136
2.45773
2.42393
2.38996
2.35582
2.32153
2.28707
2.25245
2.21768
2.18274
2.14767
2.11244
2.07706
2.04153
2.00586
1.97005
1.9341
1.89801
1.86179
1.82543
1.78893
1.7523
1.71554
1.67865
1.64163
1.60448
1.56721
1.52982
1.4923
1.45467
1.41691
1.37903
1.34104
1.30294
1.26471
1.22639
1.18794
1.14939
1.11073
1.07196
1.03308
0.994106
0.955022
0.915832
0.876543
0.837148
0.797659
0.758068
0.718374
0.678582
0.638703
0.598716
0.55865
0.518482
0.478239
0.437897
0.397468
0.356955
0.316359
0.275671
0.234904
0.194049
0.153113
0.112096
0.0709908
0.0298108
-0.0114575
-0.0527973
-0.0942293
-0.135726
-0.177308
-0.218962
-0.260697
-0.302496
-0.344374
-0.386308
-0.428324
-0.470389
-0.512524
-0.554715
-0.596965
-0.639272
-0.681625
-0.72403
-0.766488
-0.808989
-0.851537
-0.894122
-0.936758
-0.979428
-1.02214
-1.06489
-1.10767
-1.15049
-1.19333
-1.23622
-1.27913
-1.32208
-1.36506
-1.40806
-1.4511
-1.49416
-1.53724
-1.58035
-1.62347
-1.66662
-1.70979
-1.75297
-1.79617
-1.83938
-1.88261
-1.92584
-1.96909
-2.01234
-2.05559
-2.09885
-2.14211
-2.18536
-2.22861
-2.27185
-2.31507
-2.35826
-2.40142
-2.44454
-2.48761
-2.53063
-2.57358
-2.61645
-2.65923
-2.70192
-2.74449
-2.78695
-2.8293
-2.8715
-2.91355
-2.95548
-2.99729
-3.03899
-3.08061
-3.12219
-3.16379
-3.20548
-3.24731
-3.2893
-3.33128
-3.37306
-3.41417
-3.45441
-3.49317
-3.53069
-3.56665
-3.60141
3.81227
3.79794
3.78249
3.76584
3.748
3.72888
3.70864
3.68748
3.66563
3.64324
3.62043
3.59721
3.57361
3.5496
3.52517
3.50035
3.47512
3.44949
3.42348
3.39709
3.37034
3.34323
3.31577
3.28797
3.25985
3.23142
3.20269
3.17366
3.14435
3.11477
3.08494
3.05484
3.02451
2.99393
2.96313
2.93211
2.90088
2.86942
2.83777
2.80591
2.77384
2.74158
2.70913
2.67648
2.64365
2.61062
2.57741
2.54401
2.51044
2.47667
2.44274
2.40862
2.37432
2.33985
2.3052
2.27039
2.23541
2.20026
2.16496
2.12949
2.09387
2.05808
2.02215
1.98607
1.94983
1.91345
1.87692
1.84024
1.80343
1.76647
1.72937
1.69213
1.65475
1.61724
1.5796
1.54183
1.50392
1.46588
1.42773
1.38944
1.35103
1.3125
1.27384
1.23508
1.19619
1.15719
1.11807
1.07883
1.03949
1.00003
0.960473
0.920798
0.881018
0.841131
0.801141
0.761044
0.720847
0.680548
0.64015
0.599648
0.559064
0.518377
0.477604
0.43674
0.395787
0.354742
0.313614
0.272397
0.231096
0.189708
0.148244
0.106684
0.0650548
0.0233356
-0.0184597
-0.060335
-0.102291
-0.144317
-0.186432
-0.228604
-0.270857
-0.31318
-0.355564
-0.398017
-0.440536
-0.483108
-0.525739
-0.568427
-0.61117
-0.653954
-0.696792
-0.739673
-0.782597
-0.825562
-0.868565
-0.911611
-0.954685
-0.997791
-1.04093
-1.08411
-1.12731
-1.17054
-1.21379
-1.25707
-1.30037
-1.3437
-1.38705
-1.43041
-1.4738
-1.51721
-1.56062
-1.60406
-1.64749
-1.69095
-1.7344
-1.77788
-1.82135
-1.86483
-1.9083
-1.95177
-1.99526
-2.03872
-2.08218
-2.12563
-2.16906
-2.21248
-2.25587
-2.29924
-2.34257
-2.38586
-2.4291
-2.47229
-2.5154
-2.55845
-2.60141
-2.64427
-2.68703
-2.72967
-2.77219
-2.81457
-2.85682
-2.89891
-2.94087
-2.98268
-3.02437
-3.06595
-3.10747
-3.14897
-3.19048
-3.23213
-3.27388
-3.31571
-3.3574
-3.39869
-3.43914
-3.47851
-3.51636
-3.55289
-3.58789
-3.62161
3.82049
3.80686
3.79218
3.7763
3.75927
3.74093
3.72141
3.70085
3.67951
3.65753
3.63508
3.61221
3.58892
3.56524
3.54114
3.51663
3.4917
3.46637
3.44064
3.41452
3.38803
3.36116
3.33394
3.30636
3.27845
3.25022
3.22166
3.19279
3.16363
3.13419
3.10447
3.07448
3.04423
3.01374
2.983
2.95202
2.92082
2.88939
2.85774
2.82587
2.79378
2.7615
2.729
2.6963
2.6634
2.6303
2.597
2.5635
2.52981
2.49593
2.46185
2.42759
2.39313
2.35849
2.32367
2.28866
2.25348
2.21813
2.18259
2.1469
2.11102
2.07499
2.03879
2.00243
1.96591
1.92923
1.8924
1.85541
1.81827
1.78097
1.74353
1.70594
1.66821
1.63033
1.5923
1.55414
1.51584
1.4774
1.43883
1.40013
1.36129
1.32233
1.28324
1.24402
1.20468
1.16521
1.12562
1.08592
1.0461
1.00616
0.966101
0.92593
0.885649
0.845254
0.804756
0.76414
0.723428
0.682603
0.641677
0.600648
0.559531
0.51831
0.477
0.435593
0.394103
0.352512
0.310843
0.269079
0.227233
0.185298
0.143283
0.101185
0.0590015
0.0167413
-0.0255996
-0.0680217
-0.110516
-0.153088
-0.195736
-0.238449
-0.281235
-0.324083
-0.366997
-0.409975
-0.453006
-0.496093
-0.539237
-0.582432
-0.625669
-0.668954
-0.712276
-0.755646
-0.799047
-0.842486
-0.885955
-0.929457
-0.972982
-1.01654
-1.06012
-1.10372
-1.14735
-1.19098
-1.23465
-1.27833
-1.32202
-1.36573
-1.40945
-1.45318
-1.49692
-1.54067
-1.58443
-1.62818
-1.67193
-1.71569
-1.75944
-1.8032
-1.84694
-1.89067
-1.9344
-1.9781
-2.0218
-2.06548
-2.10914
-2.15277
-2.19636
-2.23993
-2.28346
-2.32694
-2.37037
-2.41375
-2.45705
-2.50029
-2.54343
-2.5865
-2.62945
-2.67228
-2.715
-2.75759
-2.80003
-2.84232
-2.88446
-2.92644
-2.96828
-3.00997
-3.05153
-3.09299
-3.13441
-3.17581
-3.21727
-3.25881
-3.30042
-3.34203
-3.38331
-3.42402
-3.46367
-3.50215
-3.53901
-3.57457
-3.60854
-3.64132
3.82827
3.81538
3.80142
3.78631
3.77009
3.75255