/*--------------------------------*- C++ -*----------------------------------*\
  =========                 |
  \\      /  F ield         | OpenFOAM: The Open Source CFD Toolbox
   \\    /   O peration     | Website:  https://openfoam.org
    \\  /    A nd           | Version:  8
     \\/     M anipulation  |
\*---------------------------------------------------------------------------*/
FoamFile
{
    version     2.0;
    format      ascii;
    class       surfaceScalarField;
    location    "0.14";
    object      phi;
}
// * * * * * * * * * * * * * * * * * * * * * * * * * * * * * * * * * * * * * //

dimensions      [0 3 -1 0 0 0 0];

internalField   nonuniform List<scalar> 
225079
(
-0.00362237
0.0264253
-0.00842839
0.0708094
-0.0120288
0.115204
-0.0168266
0.1596
-0.0216211
0.203996
-0.0252164
0.248397
-0.0288121
0.291597
-0.0324084
0.335997
-0.0360052
0.379198
-0.0396022
0.424798
-0.0419998
0.466798
-0.0455975
0.511198
-0.0491954
0.555598
-0.0527935
0.597599
-0.0539919
0.640799
-0.0575902
0.685199
-0.0611886
0.727199
-0.0635871
0.770399
-0.0659858
0.812399
-0.0671844
0.854399
-0.070783
0.897599
-0.0719816
0.938399
-0.0743802
0.980399
-0.0755788
1.0224
-0.0779773
1.0632
-0.0791758
1.104
-0.0815741
1.146
-0.0827726
1.1844
-0.0839709
1.2252
-0.0863691
1.266
-0.0875673
1.3044
-0.0887655
1.344
-0.0899637
1.3824
-0.0899618
1.4208
-0.0911599
1.4592
-0.0911581
1.4964
-0.0923561
1.5348
-0.0935541
1.572
-0.0935522
1.608
-0.0947502
1.644
-0.0947483
1.68
-0.0947464
1.716
-0.0947446
1.7496
-0.0947427
1.7856
-0.0947408
1.8192
-0.094739
1.8528
-0.0947371
1.8864
-0.0935354
1.9188
-0.0935337
1.9512
-0.093532
1.9836
-0.0923303
2.0136
-0.0923286
2.046
-0.091127
2.0748
-0.0905254
2.10564
-0.0896839
2.13468
-0.0887224
2.16336
-0.087761
2.19168
-0.0867995
2.2194
-0.0855982
2.24652
-0.0843968
2.27304
-0.0831956
2.2992
-0.0818743
2.32464
-0.0804331
2.34948
-0.0789919
2.37384
-0.0775507
2.3976
-0.0759896
2.42076
-0.0743084
2.4432
-0.0727473
2.46528
-0.0710662
2.48664
-0.0692653
2.50728
-0.0674642
2.52744
-0.0655433
2.54688
-0.0636223
2.56572
-0.0615813
2.58396
-0.0595403
2.6016
-0.0576195
2.61864
-0.0554586
2.63484
-0.0532977
2.65044
-0.0511369
2.66556
-0.0488561
2.67984
-0.0466953
2.69364
-0.0445345
2.7066
-0.0421338
2.71884
-0.0398531
2.73072
-0.0374525
2.74164
-0.0350518
2.75196
-0.0326512
2.76168
-0.0302506
2.77068
-0.0278501
2.77896
-0.0253295
2.78652
-0.0228089
2.79348
-0.0202885
2.79972
-0.017768
2.80536
-0.0151277
2.81004
-0.0127273
2.81436
-0.010147
2.8178
-0.00759066
2.82058
-0.0050223
2.82266
-0.00245415
2.82404
0.00011419
2.82475
0.0026823
2.82475
0.0052506
2.82404
0.00781869
2.82266
0.0103748
2.82058
0.012955
2.8178
0.015355
2.81436
0.0179951
2.81004
0.0205151
2.80536
0.0230352
2.79972
0.0255551
2.79348
0.028075
2.78652
0.0304749
2.77896
0.0328749
2.77068
0.0352747
2.76168
0.0376746
2.75196
0.0400744
2.74164
0.0423542
2.73072
0.0447539
2.71884
0.0469136
2.7066
0.0490732
2.69364
0.0513529
2.67984
0.0535125
2.66556
0.055672
2.65044
0.0578314
2.63484
0.0597509
2.61864
0.0617902
2.6016
0.0638295
2.58396
0.0657488
2.56572
0.0676681
2.54688
0.0694673
2.52744
0.0712666
2.50728
0.0729458
2.48664
0.0745049
2.46528
0.0761839
2.4432
0.0777431
2.42076
0.079182
2.3976
0.080621
2.37384
0.08206
2.34948
0.0833788
2.32464
0.0845778
2.2992
0.0857766
2.27304
0.0869754
2.24652
0.0879341
2.2194
0.0888928
2.19168
0.0898514
2.16336
0.0906901
2.13468
0.0912887
2.10564
0.0924871
2.0748
0.0924855
2.046
0.093684
2.0136
0.0936823
1.9836
0.0936806
1.9512
0.0948789
1.9188
0.094877
1.8864
0.0948751
1.8528
0.0948731
1.8192
0.0948711
1.7856
0.0948691
1.7496
0.094867
1.716
0.0948649
1.68
0.0936626
1.644
0.0936603
1.608
0.0924578
1.572
0.0912554
1.5348
0.0912529
1.4964
0.0900504
1.4592
0.0900479
1.4208
0.0888453
1.3824
0.0876425
1.344
0.0864399
1.3044
0.084037
1.266
0.0828343
1.2252
0.0816317
1.1844
0.0792289
1.146
0.0780262
1.104
0.0756235
1.0632
0.0744208
1.0224
0.0720182
0.980403
0.0708157
0.938403
0.067213
0.897603
0.0660105
0.854403
0.063608
0.812403
0.0612054
0.770403
0.0576027
0.727203
0.0539998
0.685203
0.0527972
0.640803
0.0491941
0.597603
0.0455908
0.555603
0.0419873
0.511203
0.0395835
0.466804
0.0359789
0.424804
0.032374
0.379205
0.0287683
0.336005
0.025161
0.291607
0.021552
0.248409
0.0167395
0.204012
0.0119326
0.159606
0.00833305
0.115199
0.00355284
0.0707799
0.0263517
-0.00482842
0.0312562
-0.00964348
0.0756273
-0.013234
0.118797
-0.0180292
0.164398
-0.0216204
0.207589
-0.0240127
0.250791
-0.0288045
0.29639
-0.0323972
0.339591
-0.0359904
0.382792
-0.0395838
0.428392
-0.0431778
0.470393
-0.046772
0.514793
-0.0479668
0.556794
-0.0515614
0.601194
-0.0551563
0.644394
-0.0575513
0.687594
-0.0599465
0.729594
-0.0623417
0.772794
-0.064737
0.814794
-0.0683321
0.857994
-0.0695276
0.898794
-0.0731227
0.941994
-0.0743181
0.981594
-0.0767134
1.02479
-0.0779088
1.06439
-0.0803039
1.10639
-0.0814991
1.14719
-0.0838942
1.18679
-0.0850892
1.22639
-0.0850845
1.26599
-0.0862795
1.30559
-0.0874744
1.34519
-0.0886693
1.38359
-0.0898641
1.42199
-0.091059
1.46039
-0.0922538
1.49759
-0.0922488
1.53479
-0.0922436
1.57199
-0.0934385
1.60919
-0.0934334
1.64399
-0.0946282
1.68119
-0.0934233
1.71479
-0.0946181
1.75079
-0.0946132
1.78559
-0.0946082
1.81919
-0.0946034
1.85279
-0.0945985
1.88639
-0.093394
1.91759
-0.0933892
1.95119
-0.0921846
1.98239
-0.0933797
2.01479
-0.0909756
2.04359
-0.090971
2.07479
-0.0903666
2.10503
-0.0895223
2.13383
-0.088678
2.16251
-0.0875938
2.19059
-0.0865098
2.21831
-0.0854257
2.24543
-0.0843418
2.27196
-0.0830178
2.29788
-0.0816941
2.32332
-0.0802502
2.34804
-0.0789266
2.37252
-0.0773632
2.39604
-0.0757995
2.4192
-0.074236
2.44164
-0.0725528
2.4636
-0.0707495
2.48484
-0.0689463
2.50548
-0.0671433
2.52564
-0.06522
2.54496
-0.0634171
2.56392
-0.0614943
2.58204
-0.0594515
2.59956
-0.0572886
2.61648
-0.055246
2.6328
-0.0532034
2.6484
-0.0509209
2.66328
-0.0487585
2.67768
-0.0464761
2.69136
-0.044194
2.70432
-0.0419116
2.71656
-0.0395097
2.72832
-0.0372276
2.73936
-0.0348257
2.74956
-0.0324239
2.75928
-0.0299019
2.76816
-0.0275005
2.77656
-0.0250986
2.78412
-0.0225773
2.79096
-0.0200558
2.7972
-0.0175346
2.80284
-0.0150133
2.80752
-0.012492
2.81184
-0.00989882
2.81521
-0.00734191
2.81802
-0.00477303
2.8201
-0.00221633
2.82149
0.000352448
2.82218
0.00292104
2.82218
0.00547771
2.82149
0.00804619
2.8201
0.0106027
2.81802
0.0131948
2.81521
0.0157149
2.81184
0.0182349
2.80752
0.0207551
2.80284
0.023275
2.7972
0.025795
2.79096
0.0281945
2.78412
0.0305944
2.77656
0.0331138
2.76816
0.0355132
2.75928
0.0379127
2.74956
0.0401919
2.73936
0.0425912
2.72832
0.0448701
2.71656
0.0471493
2.70432
0.0494281
2.69136
0.0515869
2.67768
0.0538656
2.66328
0.0559042
2.6484
0.0579427
2.6328
0.060101
2.61648
0.0621393
2.59956
0.0640575
2.58204
0.0658557
2.56392
0.0677734
2.54496
0.0695713
2.52564
0.0713691
2.50548
0.0731666
2.48484
0.0748443
2.4636
0.0764016
2.44164
0.0779588
2.4192
0.0795161
2.39604
0.0808332
2.37253
0.08227
2.34805
0.0835869
2.32333
0.0849036
2.29789
0.0859803
2.27197
0.0870567
2.24545
0.0881332
2.21833
0.0892095
2.19061
0.0900456
2.16253
0.0908817
2.13385
0.0914776
2.10505
0.0914733
2.07481
0.0938695
2.04361
0.0926647
2.01481
0.0938603
1.98241
0.0938555
1.95121
0.0950511
1.91761
0.0950462
1.88641
0.0950413
1.85281
0.0950361
1.81921
0.095031
1.78561
0.0938255
1.75081
0.0950203
1.71481
0.0938146
1.68121
0.093809
1.64401
0.0926033
1.60921
0.0925974
1.57201
0.0925916
1.53481
0.0913855
1.49761
0.0901794
1.46041
0.0889731
1.42201
0.0877667
1.38361
0.0865603
1.34521
0.085354
1.30561
0.0853478
1.26601
0.0841413
1.22641
0.0817346
1.18681
0.0805282
1.14721
0.0781214
1.10641
0.076915
1.06441
0.0745084
1.02481
0.073302
0.98161
0.069695
0.94201
0.0684887
0.89881
0.0648818
0.85801
0.0624751
0.81481
0.0600684
0.77281
0.0576616
0.72961
0.0552546
0.68761
0.0516473
0.64441
0.0480397
0.601211
0.0468324
0.556811
0.0432241
0.514812
0.0396154
0.470413
0.0360059
0.428414
0.0323957
0.382815
0.0287846
0.339617
0.0239712
0.29642
0.0215576
0.250822
0.0179399
0.20763
0.0131305
0.164416
0.00951244
0.118817
0.00474682
0.0755458
0.0311006
-0.00480763
0.0360676
-0.00843926
0.0792626
-0.0132317
0.123593
-0.0168274
0.167996
-0.0204164
0.21118
-0.0252056
0.255582
-0.0287946
0.299981
-0.0323842
0.343182
-0.0359742
0.386383
-0.0383647
0.430784
-0.043155
0.475184
-0.0455461
0.517185
-0.0491373
0.560386
-0.0527285
0.604785
-0.0551203
0.646786
-0.0575121
0.689986
-0.0611038
0.733186
-0.0634959
0.775186
-0.0658879
0.817186
-0.0670803
0.859187
-0.070672
0.902386
-0.0718644
0.943186
-0.0754562
0.985186
-0.0766485
1.02599
-0.0790404
1.06679
-0.0802326
1.10759
-0.0814246
1.14839
-0.0826166
1.18799
-0.0838086
1.22759
-0.0862001
1.26838
-0.0873918
1.30678
-0.0885835
1.34638
-0.0897751
1.38478
-0.0909668
1.42318
-0.0909584
1.46038
-0.0921498
1.49878
-0.0921416
1.53478
-0.0933329
1.57318
-0.0933246
1.60918
-0.0945162
1.64518
-0.0933081
1.67998
-0.0944997
1.71598
-0.0944914
1.75078
-0.0944829
1.78558
-0.0944751
1.81919
-0.0944669
1.85279
-0.0932592
1.88519
-0.0944509
1.91879
-0.0932433
1.94999
-0.0932355
1.98239
-0.092028
2.01359
-0.0920202
2.04359
-0.0920129
2.07479
-0.0902057
2.10323
-0.0893582
2.13299
-0.0883912
2.16155
-0.0874243
2.18963
-0.086457
2.21735
-0.0852504
2.24423
-0.0840435
2.27075
-0.082717
2.29655
-0.0813907
2.32199
-0.0801843
2.34683
-0.0786179
2.37095
-0.0771718
2.39459
-0.0756058
2.41763
-0.0739202
2.43995
-0.0722342
2.46191
-0.0705488
2.48315
-0.0688633
2.50379
-0.0669379
2.52371
-0.0651328
2.54315
-0.0630876
2.56187
-0.0611628
2.58011
-0.059238
2.59763
-0.0571931
2.61443
-0.0550286
2.63063
-0.0528645
2.64623
-0.0506998
2.66111
-0.048536
2.67551
-0.0462519
2.68907
-0.043968
2.70203
-0.0416841
2.71427
-0.0394007
2.72603
-0.0369974
2.73695
-0.0345939
2.74715
-0.0321908
2.75688
-0.0297878
2.76576
-0.0272646
2.77404
-0.0247421
2.7816
-0.0223395
2.78856
-0.019817
2.79468
-0.0172946
2.80032
-0.0147723
2.805
-0.0122505
2.80932
-0.00966875
2.81263
-0.00711121
2.81546
-0.00454176
2.81753
-0.00197212
2.81892
0.000597154
2.81961
0.00316621
2.81962
0.00573489
2.81892
0.00830376
2.81753
0.0108605
2.81546
0.0134411
2.81263
0.0159616
2.80932
0.0184816
2.805
0.0210015
2.80032
0.0235213
2.79468
0.0259209
2.78856
0.0284407
2.7816
0.0309598
2.77404
0.033359
2.76576
0.0357581
2.75688
0.0381568
2.74716
0.0405557
2.73696
0.0428345
2.72604
0.0451126
2.71428
0.0473908
2.70204
0.0496688
2.68908
0.051827
2.67552
0.0539843
2.66113
0.0561423
2.64625
0.0582997
2.63065
0.0603366
2.61445
0.0622537
2.59765
0.0641708
2.58013
0.0662073
2.56189
0.0680039
2.54317
0.0699201
2.52373
0.0715962
2.50381
0.0732724
2.48317
0.0749477
2.46193
0.0766236
2.43997
0.078179
2.41765
0.0796143
2.39461
0.081169
2.37097
0.0823639
2.34685
0.0836787
2.32201
0.0849933
2.29657
0.0861875
2.27077
0.0873818
2.24425
0.0883353
2.21737
0.0892893
2.18965
0.0902431
2.16157
0.0910761
2.13301
0.0928695
2.10325
0.0928627
2.07481
0.0928552
2.04361
0.094048
2.01362
0.0940404
1.98242
0.095233
1.95002
0.0940247
1.91882
0.095217
1.88522
0.0952086
1.85282
0.0952006
1.81922
0.0951917
1.78562
0.0951829
1.75082
0.0939739
1.71602
0.0951652
1.68002
0.093956
1.64522
0.0939467
1.60922
0.0927369
1.57322
0.0927275
1.53482
0.0915176
1.49882
0.0915078
1.46042
0.090298
1.42322
0.0890879
1.38482
0.0878777
1.34642
0.0866674
1.30682
0.0842568
1.26842
0.0830466
1.22762
0.0818365
1.18802
0.0806262
1.14842
0.079416
1.10762
0.0770054
1.06682
0.0757951
1.02602
0.0721843
0.985221
0.0709742
0.943221
0.0673632
0.902421
0.0661531
0.85922
0.0637425
0.817221
0.0613319
0.775221
0.0577207
0.733221
0.0553098
0.690021
0.0528987
0.646821
0.0492868
0.604823
0.0456747
0.560423
0.0432624
0.517224
0.0384486
0.475226
0.0360347
0.430828
0.0324194
0.38643
0.0288028
0.343233
0.0251836
0.300039
0.0203635
0.255642
0.0167412
0.211252
0.013133
0.168023
0.00832252
0.123627
0.00478759
0.0790802
0.0358858
-0.00359257
0.0396626
-0.00841567
0.0840886
-0.0132139
0.128394
-0.0168112
0.171595
-0.0215999
0.215971
-0.0251884
0.259171
-0.0287758
0.303569
-0.0323635
0.346771
-0.0359512
0.389971
-0.0395391
0.434372
-0.0419274
0.477573
-0.0455155
0.520774
-0.0491038
0.563974
-0.0514925
0.607175
-0.0550809
0.650375
-0.0574697
0.692375
-0.0598587
0.735575
-0.0622476
0.777576
-0.0658362
0.820775
-0.0682252
0.861576
-0.0694145
0.903575
-0.0718033
0.945575
-0.074192
0.987575
-0.0753811
1.02717
-0.0777699
1.06917
-0.0789589
1.10877
-0.0813474
1.15077
-0.0825361
1.18917
-0.0849245
1.22997
-0.086113
1.26957
-0.0873015
1.30797
-0.0872901
1.34637
-0.0884786
1.38597
-0.0896666
1.42437
-0.0908548
1.46157
-0.0908433
1.49877
-0.093231
1.53717
-0.0932194
1.57317
-0.0932077
1.60917
-0.0931962
1.64517
-0.0943842
1.68117
-0.0943729
1.71597
-0.0943616
1.75077
-0.09435
1.78557
-0.0943385
1.81917
-0.0943274
1.85277
-0.094316
1.88517
-0.0931053
1.91757
-0.0930944
1.94997
-0.0930833
1.98237
-0.0918731
2.01238
-0.0918624
2.04358
-0.0906518
2.07358
-0.0900414
2.10262
-0.0891915
2.13214
-0.0882214
2.16058
-0.0873714
2.18878
-0.0861618
2.21614
-0.085072
2.24314
-0.0838627
2.26954
-0.0826531
2.29534
-0.0813237
2.32066
-0.0798749
2.34538
-0.0784265
2.3695
-0.0769775
2.39314
-0.075289
2.41594
-0.0738407
2.4385
-0.0721529
2.46022
-0.0703445
2.48134
-0.0685366
2.50198
-0.0667293
2.5219
-0.0649222
2.54134
-0.0629947
2.55994
-0.0609479
2.57807
-0.0589008
2.59559
-0.0568546
2.61239
-0.0548077
2.62859
-0.0526415
2.64407
-0.0505958
2.65907
-0.0483094
2.67323
-0.0460236
2.68679
-0.0437385
2.69975
-0.0415733
2.71211
-0.0391681
2.72363
-0.0367629
2.73455
-0.0343583
2.74475
-0.0319539
2.75447
-0.0295497
2.76335
-0.0270256
2.77151
-0.0246217
2.77919
-0.0220979
2.78603
-0.0195743
2.79215
-0.0170509
2.79779
-0.0145281
2.80247
-0.011885
2.80667
-0.00942257
2.81017
-0.00685185
2.81289
-0.00429379
2.81497
-0.00172388
2.81635
0.000845904
2.81704
0.00341543
2.81705
0.00598483
2.81635
0.00854208
2.81497
0.0111107
2.8129
0.0135715
2.81017
0.0162117
2.80668
0.0187322
2.80248
0.021252
2.7978
0.0237717
2.79216
0.0262912
2.78604
0.0286905
2.7792
0.0312096
2.77152
0.0336085
2.76336
0.0360072
2.75448
0.0384057
2.74476
0.0408036
2.73457
0.0432014
2.72365
0.0453593
2.71213
0.0476371
2.69977
0.0499142
2.68681
0.0521907
2.67325
0.0542278
2.65909
0.0563844
2.64409
0.0584203
2.62861
0.0604568
2.61241
0.0624923
2.59561
0.0645281
2.57809
0.0664431
2.55997
0.0682384
2.54137
0.0700335
2.52193
0.0718278
2.50202
0.0736216
2.48138
0.075296
2.46026
0.0767297
2.43854
0.0784032
2.41598
0.0798361
2.39318
0.0812696
2.36954
0.0827025
2.34542
0.0840147
2.3207
0.0852067
2.29538
0.0863989
2.26958
0.0874705
2.24318
0.0886623
2.21618
0.0894934
2.18882
0.0904444
2.16062
0.0912755
2.13218
0.0918659
2.10266
0.0930559
2.07362
0.0930458
2.04363
0.0942362
2.01243
0.0942252
1.98243
0.0942145
1.95003
0.095404
1.91763
0.0953925
1.88523
0.0953812
1.85283
0.0953694
1.81923
0.0953573
1.78563
0.0953454
1.75083
0.0953334
1.71603
0.0941204
1.68123
0.0941078
1.64523
0.094095
1.60923
0.094082
1.57323
0.091668
1.53723
0.0916549
1.49883
0.0904412
1.46164
0.0892271
1.42444
0.0880135
1.38604
0.0879998
1.34644
0.0867859
1.30804
0.0855719
1.26964
0.0831573
1.23004
0.0819432
1.18924
0.0795286
1.15084
0.0783147
1.10884
0.0759002
1.06924
0.0746862
1.02724
0.0722716
0.987636
0.069857
0.945636
0.0686432
0.903635
0.0662287
0.861635
0.0626137
0.820836
0.0601991
0.777636
0.0577846
0.735636
0.0553697
0.692436
0.0517542
0.650437
0.0493389
0.607238
0.0457228
0.564039
0.0421063
0.520841
0.0396894
0.477643
0.0360713
0.434446
0.0324521
0.390049
0.0288317
0.346853
0.0252093
0.303662
0.0215882
0.259263
0.0167666
0.216073
0.0131631
0.171627
0.00836752
0.128423
0.00361055
0.0838372
0.0394992
-0.00478982
0.0444566
-0.00959592
0.0888986
-0.0131984
0.132
-0.0167965
0.175196
-0.0203864
0.219563
-0.0251739
0.263961
-0.02876
0.307157
-0.0323459
0.350358
-0.0359314
0.393558
-0.0395169
0.437959
-0.0431023
0.481159
-0.0466877
0.52436
-0.0490735
0.566361
-0.0526588
0.61076
-0.0550446
0.652761
-0.05863
0.695961
-0.0610157
0.737961
-0.0634015
0.779962
-0.0645877
0.821962
-0.0681728
0.865161
-0.0705583
0.905961
-0.0729439
0.947961
-0.0741297
0.98876
-0.0765151
1.02956
-0.0777009
1.07036
-0.0800861
1.11116
-0.0812715
1.15196
-0.082457
1.19036
-0.0836421
1.23116
-0.084827
1.27076
-0.0860121
1.30916
-0.0883968
1.34876
-0.0895814
1.38716
-0.0895667
1.42436
-0.0907514
1.46276
-0.091936
1.49996
-0.0919211
1.53716
-0.0919064
1.57316
-0.093091
1.61036
-0.0930761
1.64516
-0.0930611
1.68116
-0.0942457
1.71716
-0.0942308
1.75076
-0.0942162
1.78556
-0.0942014
1.81916
-0.0929875
1.85156
-0.0929732
1.88516
-0.0941585
1.91876
-0.0929445
1.94876
-0.0917308
1.98116
-0.0917165
2.01236
-0.090503
2.04236
-0.0904897
2.07356
-0.0898762
2.102
-0.089023
2.13128
-0.0881698
2.15972
-0.0870769
2.18769
-0.0859845
2.21505
-0.0848917
2.24205
-0.0836797
2.26833
-0.0824672
2.29413
-0.0811354
2.31933
-0.0796839
2.34393
-0.078352
2.36817
-0.0767808
2.39157
-0.0752097
2.41437
-0.073519
2.43681
-0.0718283
2.45853
-0.0701384
2.47965
-0.068448
2.50029
-0.066638
2.52009
-0.0645887
2.5393
-0.0627795
2.55814
-0.0608494
2.57614
-0.0588012
2.59354
-0.0567521
2.61034
-0.0545843
2.62642
-0.0524156
2.6419
-0.0502476
2.6569
-0.0480798
2.67106
-0.0457928
2.6845
-0.0435054
2.69746
-0.0412182
2.70982
-0.0388112
2.72122
-0.036525
2.73226
-0.0341191
2.74234
-0.0317127
2.75206
-0.0291871
2.76083
-0.0269018
2.76923
-0.0242567
2.77655
-0.0218517
2.78363
-0.0193277
2.78963
-0.0168031
2.79527
-0.0142795
2.79995
-0.0117555
2.80415
-0.00916031
2.80757
-0.00661335
2.81034
-0.00404199
2.8124
-0.0014715
2.81378
0.00109882
2.81447
0.00366883
2.81448
0.00623867
2.81378
0.00880763
2.8124
0.011353
2.81035
0.0139462
2.80758
0.0164664
2.80416
0.0189871
2.79996
0.0215068
2.79528
0.024027
2.78964
0.0264263
2.78364
0.0290654
2.77656
0.0313442
2.76924
0.0338628
2.76085
0.0362604
2.75209
0.0386585
2.74237
0.0409364
2.73229
0.0433333
2.72125
0.04561
2.70985
0.0478865
2.69749
0.0501634
2.68453
0.0523193
2.67109
0.054475
2.65693
0.0566299
2.64194
0.0587858
2.62646
0.0608201
2.61038
0.0628554
2.59358
0.0647686
2.57618
0.0665627
2.55818
0.0685966
2.53934
0.0703897
2.52014
0.0720623
2.50034
0.0737353
2.4797
0.0754075
2.45858
0.0770794
2.43687
0.078631
2.41443
0.0801823
2.39163
0.0814928
2.36823
0.0829236
2.34399
0.084234
2.31939
0.0854236
2.29419
0.0866136
2.26839
0.0876826
2.24211
0.088752
2.21511
0.0898206
2.18775
0.0906489
2.15979
0.0914769
2.13136
0.0920645
2.10208
0.0920521
2.07364
0.0932395
2.04244
0.0932256
2.01244
0.0944125
1.98124
0.0955987
1.94884
0.0943841
1.91884
0.0943697
1.88524
0.0955557
1.85164
0.0955405
1.81925
0.0955254
1.78565
0.0955097
1.75085
0.0942932
1.71725
0.094277
1.68125
0.0942608
1.64525
0.0930437
1.61045
0.0930275
1.57325
0.0930107
1.53725
0.0917932
1.50005
0.0905756
1.46285
0.0905585
1.42445
0.0893404
1.38725
0.0869221
1.34885
0.0857042
1.30925
0.0844859
1.27086
0.0832676
1.23126
0.0820497
1.19045
0.0808313
1.15206
0.0784126
1.11125
0.0771947
1.07045
0.074776
1.02965
0.0735578
0.988855
0.0711391
0.948054
0.0687203
0.906054
0.0651007
0.865255
0.0638826
0.822054
0.0614639
0.780054
0.059045
0.738055
0.0554253
0.696056
0.053006
0.652856
0.0493857
0.610858
0.0469659
0.566459
0.0433449
0.524462
0.0397233
0.481265
0.0361007
0.438068
0.0324771
0.393672
0.028853
0.350477
0.0252277
0.307286
0.0204047
0.264085
0.0167868
0.219691
0.0131855
0.175227
0.0095986
0.132008
0.00480794
0.0886273
0.0443038
-0.00479357
0.0492526
-0.0083866
0.0924947
-0.0131898
0.136806
-0.0179869
0.179995
-0.0215776
0.223155
-0.0251648
0.267549
-0.0287494
0.310742
-0.0323333
0.353943
-0.0371159
0.398342
-0.0394993
0.440343
-0.043082
0.484743
-0.045465
0.526744
-0.0490473
0.569944
-0.0514301
0.613144
-0.0550122
0.656344
-0.0573947
0.698344
-0.0597771
0.740344
-0.0633589
0.783544
-0.0657411
0.824344
-0.066924
0.866344
-0.0693061
0.908343
-0.071688
0.950343
-0.0740699
0.991142
-0.0764515
1.03194
-0.0776337
1.07154
-0.0800153
1.11354
-0.081197
1.15314
-0.0835784
1.19274
-0.0847602
1.23234
-0.0859418
1.27194
-0.0871234
1.31034
-0.0883044
1.34994
-0.0882863
1.38714
-0.0894676
1.42554
-0.0906487
1.46394
-0.0918297
1.50114
-0.0918113
1.53714
-0.0929924
1.57434
-0.0929739
1.61034
-0.0941549
1.64634
-0.0941369
1.68114
-0.0941185
1.71714
-0.0941006
1.75074
-0.0940822
1.78554
-0.0940644
1.81914
-0.0940463
1.85154
-0.0940287
1.88514
-0.0928112
1.91754
-0.0927938
1.94874
-0.0927765
1.98114
-0.0915598
2.01114
-0.0915427
2.04234
-0.0903257
2.07235
-0.0897096
2.10139
-0.0888532
2.13043
-0.087877
2.15875
-0.0869015
2.18671
-0.0859249
2.21407
-0.0847098
2.24083
-0.0834942
2.26711
-0.08228
2.29291
-0.0809449
2.31799
-0.0796105
2.3426
-0.0780358
2.3666
-0.0764625
2.39
-0.0750088
2.41292
-0.0734347
2.43524
-0.0717415
2.45684
-0.0700485
2.47796
-0.0681164
2.49836
-0.0663046
2.51828
-0.0644917
2.53748
-0.0625603
2.5562
-0.0605091
2.57409
-0.0584576
2.59149
-0.0564069
2.60829
-0.0543565
2.62437
-0.0523063
2.63985
-0.0500164
2.65461
-0.0477274
2.66877
-0.0455573
2.68233
-0.043388
2.69529
-0.0409798
2.70741
-0.0386918
2.71894
-0.0361642
2.72974
-0.0338761
2.74006
-0.0314688
2.74966
-0.0290619
2.75842
-0.0265352
2.7667
-0.0241289
2.77414
-0.0214828
2.78098
-0.0190769
2.78722
-0.0165521
2.79274
-0.0140261
2.79743
-0.0115026
2.80163
-0.00891703
2.80499
-0.00634537
2.80777
-0.00378592
2.80984
-0.00121483
2.81121
0.00135605
2.8119
0.00392656
2.81191
0.00649686
2.81121
0.00905481
2.80984
0.0116245
2.80778
0.0142043
2.805
0.0167262
2.80164
0.0192455
2.79744
0.021766
2.79276
0.0241654
2.78724
0.0268046
2.781
0.0292034
2.77417
0.0317219
2.76673
0.0341201
2.75845
0.036518
2.74969
0.0387948
2.74009
0.0413122
2.72977
0.0435891
2.71897
0.0459858
2.70745
0.0481414
2.69534
0.0502958
2.68238
0.0525716
2.66882
0.0548463
2.65466
0.0568806
2.6399
0.0589147
2.62442
0.0609484
2.60834
0.0629811
2.59155
0.0650141
2.57415
0.0669269
2.55627
0.0687178
2.53755
0.0705099
2.51835
0.0724216
2.49843
0.0740922
2.47803
0.0757625
2.45691
0.0773118
2.43532
0.0787413
2.413
0.0802913
2.39008
0.0818396
2.36668
0.0831482
2.34268
0.0844557
2.31808
0.0856443
2.293
0.0868312
2.2672
0.0880184
2.24093
0.0889639
2.21417
0.0899104
2.18681
0.0908559
2.15885
0.0916811
2.13053
0.0922665
2.10149
0.0934505
2.07245
0.0934344
2.04245
0.0946185
2.01126
0.0946017
1.98126
0.0945846
1.94886
0.0957673
1.91766
0.0957496
1.88526
0.0957312
1.85166
0.095713
1.81926
0.0956939
1.78567
0.0956751
1.75087
0.0956555
1.71727
0.0956362
1.68127
0.0944155
1.64647
0.0943952
1.61047
0.0931741
1.57447
0.0931535
1.53727
0.091932
1.50127
0.0907103
1.46408
0.0894885
1.42568
0.0894674
1.38728
0.088245
1.35008
0.0870229
1.31048
0.0858008
1.27208
0.0845785
1.23248
0.0821555
1.19288
0.0809328
1.15328
0.0785097
1.11368
0.0772871
1.07168
0.0748637
1.03208
0.0724404
0.991278
0.0700169
0.950478
0.0675937
0.908478
0.0663713
0.866478
0.0639479
0.824478
0.0603234
0.783679
0.0578998
0.740479
0.055476
0.69848
0.0518511
0.656482
0.0494269
0.613283
0.0458014
0.570085
0.0433764
0.526887
0.0397497
0.484891
0.0373231
0.440495
0.0324937
0.398502
0.0288652
0.354105
0.025237
0.310915
0.0216136
0.267709
0.0179976
0.223307
0.0131944
0.180031
0.00840719
0.136796
0.00479555
0.0922387
0.0491029
-0.0035978
0.0528547
-0.00838363
0.0972846
-0.0119854
0.140411
-0.016781
0.184793
-0.0215713
0.227947
-0.0251577
0.271138
-0.0287409
0.314327
-0.0323227
0.357526
-0.0359034
0.401924
-0.0394838
0.443924
-0.0418642
0.487124
-0.0454437
0.530324
-0.049023
0.573524
-0.0526019
0.616723
-0.0549813
0.658724
-0.0573607
0.700724
-0.060939
0.743923
-0.0621186
0.784724
-0.0656968
0.827923
-0.0680753
0.868723
-0.0704537
0.910722
-0.0716329
0.951522
-0.0740109
0.993521
-0.0751898
1.03312
-0.0787671
1.07512
-0.0787462
1.11352
-0.0811239
1.15552
-0.082302
1.19392
-0.0834801
1.23352
-0.0846582
1.27312
-0.087035
1.31272
-0.0870135
1.34992
-0.0893904
1.38952
-0.090568
1.42672
-0.0905462
1.46392
-0.0905243
1.50112
-0.0917017
1.53832
-0.092879
1.57552
-0.0928571
1.61032
-0.0928356
1.64632
-0.094013
1.68232
-0.0927917
1.71592
-0.0939692
1.75192
-0.0939478
1.78552
-0.0927267
1.81792
-0.093905
1.85272
-0.0938834
1.88512
-0.0926631
1.91632
-0.0926423
1.94872
-0.0926216
1.98112
-0.092601
2.01112
-0.0913812
2.04113
-0.0901615
2.07113
-0.0895416
2.10077
-0.0885621
2.12945
-0.0877026
2.15789
-0.0867234
2.18573
-0.085625
2.21297
-0.0845268
2.23973
-0.0833082
2.26589
-0.0820898
2.2917
-0.0807523
2.31666
-0.0792944
2.34114
-0.0778381
2.36514
-0.0763807
2.38854
-0.0748043
2.41134
-0.0731089
2.43354
-0.071533
2.45526
-0.0697174
2.47615
-0.0680221
2.49667
-0.0660871
2.51635
-0.0642731
2.53567
-0.0622187
2.55415
-0.0602853
2.57215
-0.0583521
2.58955
-0.0561793
2.60611
-0.054126
2.62232
-0.0519537
2.63768
-0.0497818
2.65244
-0.0476101
2.6666
-0.0454396
2.68016
-0.0430285
2.69288
-0.0407387
2.70512
-0.0383283
2.71653
-0.0360381
2.72745
-0.0336292
2.73765
-0.0312205
2.74725
-0.0288122
2.75601
-0.0262832
2.76417
-0.0238765
2.77173
-0.0213491
2.77846
-0.0188221
2.7847
-0.0162954
2.79022
-0.0137699
2.7949
-0.0111239
2.79898
-0.00865898
2.80252
-0.00609762
2.80521
-0.0035255
2.80727
-0.000953785
2.80864
0.00161767
2.80933
0.00418871
2.80934
0.00675949
2.80864
0.00932986
2.80727
0.011887
2.80522
0.0143486
2.80254
0.016989
2.799
0.0195099
2.79492
0.0220296
2.79024
0.0245489
2.78472
0.0270678
2.77849
0.0294674
2.77177
0.0319846
2.76421
0.0343825
2.75605
0.0367799
2.74729
0.039177
2.73769
0.0414528
2.7275
0.0438483
2.71658
0.0461243
2.70518
0.048519
2.69294
0.0506742
2.68022
0.0528281
2.66666
0.0549817
2.65251
0.0571349
2.63775
0.0591669
2.62239
0.0613193
2.60619
0.0632314
2.58963
0.065143
2.57224
0.0671735
2.55424
0.0689643
2.53576
0.0708739
2.51644
0.0725431
2.49676
0.0743319
2.47625
0.0758802
2.45537
0.077549
2.43365
0.0790966
2.41145
0.0805229
2.38865
0.0819504
2.36525
0.083376
2.34126
0.0846819
2.31678
0.0858666
2.29182
0.0870509
2.26602
0.0881156
2.23986
0.0891798
2.2131
0.0901229
2.18587
0.0909455
2.15803
0.0918878
2.12959
0.0924696
2.10091
0.0936514
2.07127
0.0948328
2.04127
0.0948131
2.01128
0.094793
1.98128
0.0947726
1.94888
0.0959527
1.91648
0.0959309
1.88528
0.0947087
1.85288
0.0958871
1.81809
0.095865
1.78569
0.0946411
1.75209
0.0958186
1.71609
0.0945942
1.68249
0.094571
1.64649
0.0945469
1.6105
0.0933217
1.5757
0.0920963
1.5385
0.0920716
1.5013
0.0920467
1.4641
0.0908208
1.4269
0.0883938
1.3897
0.0883685
1.3501
0.0859407
1.31291
0.0847143
1.2733
0.0834878
1.2337
0.0822609
1.1941
0.0798331
1.15571
0.0798071
1.1137
0.0761784
1.07531
0.0749516
1.03331
0.0725234
0.993707
0.0712965
0.951705
0.0688683
0.910906
0.0664401
0.868906
0.062811
0.828107
0.0615836
0.784906
0.057954
0.744109
0.0555255
0.700908
0.0530966
0.65891
0.0494662
0.616913
0.0458357
0.573715
0.0422044
0.530518
0.0397735
0.487322
0.036141
0.444127
0.0325077
0.402135
0.028875
0.357737
0.0252444
0.314544
0.02162
0.271333
0.0168037
0.228122
0.0119979
0.184835
0.00840622
0.140386
0.00358822
0.097056
0.0526871
-0.00479849
0.0576558
-0.00958235
0.102072
-0.0131798
0.144011
-0.0167744
0.18839
-0.0203651
0.23154
-0.0239509
0.274725
-0.0287322
0.31911
-0.0323121
0.361107
-0.0358906
0.405503
-0.0394684
0.447503
-0.0430455
0.490702
-0.0466221
0.533901
-0.0489991
0.575901
-0.0513756
0.6191
-0.054951
0.6623
-0.057327
0.7031
-0.0597028
0.746299
-0.0632777
0.788299
-0.0644537
0.829099
-0.0680279
0.872297
-0.0692037
0.911898
-0.0727772
0.955096
-0.073953
0.994696
-0.0763272
1.0355
-0.077502
1.07629
-0.0798763
1.11589
-0.081051
1.15669
-0.0822258
1.19509
-0.0845991
1.23589
-0.0857735
1.27429
-0.0857486
1.31269
-0.0881218
1.35229
-0.0880962
1.38949
-0.0892701
1.42789
-0.0904439
1.46509
-0.0916181
1.50229
-0.0915922
1.53829
-0.0915666
1.57549
-0.0927407
1.61149
-0.0939139
1.64749
-0.0926897
1.68109
-0.0938634
1.71709
-0.0938385
1.75189
-0.093813
1.78549
-0.0937883
1.8179
-0.0937631
1.8527
-0.0925393
1.8839
-0.0937135
1.9175
-0.09249
1.9475
-0.0912666
1.9799
-0.0912425
2.0111
-0.091218
2.0411
-0.0899957
2.0699
-0.0893717
2.10014
-0.0885096
2.12859
-0.0876467
2.15703
-0.0865443
2.18463
-0.0855627
2.21199
-0.0843408
2.23851
-0.0832389
2.26479
-0.0817782
2.29024
-0.0804378
2.31532
-0.0790976
2.3398
-0.0777568
2.3638
-0.0761773
2.38696
-0.074598
2.40976
-0.0730191
2.43197
-0.0712005
2.45345
-0.0695031
2.47445
-0.0676851
2.49485
-0.0658675
2.51453
-0.0639311
2.53373
-0.062114
2.55233
-0.0601783
2.57022
-0.058002
2.58738
-0.0560669
2.60418
-0.0538922
2.62014
-0.0517178
2.6355
-0.0495448
2.65027
-0.0473701
2.66443
-0.0450777
2.67787
-0.0427847
2.69059
-0.0404921
2.70283
-0.0382008
2.71423
-0.0357889
2.72503
-0.0333784
2.73524
-0.0309682
2.74484
-0.0284374
2.75348
-0.0260289
2.76176
-0.0234989
2.7692
-0.0210902
2.77605
-0.018563
2.78217
-0.0160351
2.78769
-0.0135087
2.79237
-0.0109816
2.79645
-0.00838387
2.79993
-0.00582261
2.80265
-0.00326067
2.8047
-0.000688293
2.80606
0.00188375
2.80676
0.00445535
2.80676
0.00702662
2.80607
0.0095843
2.80472
0.0121427
2.80267
0.0147366
2.79994
0.0172571
2.79648
0.0197782
2.7924
0.0222978
2.78772
0.0248181
2.7822
0.0272168
2.77609
0.0297341
2.76925
0.032133
2.76181
0.0346493
2.75353
0.0370463
2.7449
0.039443
2.7353
0.041838
2.7251
0.0441137
2.7143
0.0463879
2.7029
0.0486616
2.69067
0.050936
2.67795
0.0530878
2.66451
0.0552414
2.65035
0.0573934
2.6356
0.059545
2.62024
0.0614561
2.60428
0.0636058
2.58748
0.065516
2.57033
0.0673046
2.55245
0.0692139
2.53385
0.0710017
2.51465
0.072789
2.49498
0.0744568
2.47458
0.0762432
2.45358
0.0777891
2.4321
0.0793346
2.40991
0.0808795
2.38711
0.082183
2.36395
0.0834869
2.33995
0.0847904
2.31547
0.0862136
2.2904
0.0872751
2.26496
0.0884563
2.23868
0.0893978
2.21216
0.0904581
2.18481
0.0912777
2.15721
0.0920979
2.12877
0.0926757
2.10033
0.0938553
2.07009
0.0938318
2.0413
0.0938088
2.0113
0.0949863
1.9801
0.0961634
1.9477
0.0949375
1.91771
0.0961138
1.88411
0.096088
1.85291
0.0960628
1.81811
0.0960363
1.78572
0.0960101
1.75212
0.094782
1.71732
0.0959563
1.68132
0.0947268
1.64772
0.0934985
1.61173
0.0934702
1.57573
0.0934411
1.53853
0.092212
1.50253
0.0909821
1.46533
0.0897519
1.42813
0.0897222
1.38973
0.0872905
1.35254
0.0872611
1.31294
0.0860303
1.27454
0.0835978
1.23614
0.082367
1.19534
0.0811358
1.15694
0.0787036
1.11614
0.077472
1.07654
0.0750391
1.03574
0.0738082
0.994938
0.0701736
0.95534
0.0689422
0.912138
0.0653079
0.872541
0.064076
0.829339
0.0604418
0.788541
0.0580085
0.746542
0.0555749