# Forces      
# CofR        : (-1.050000e-01 0.000000e+00 0.000000e+00)
# Time        forces(pressure viscous)	moments(pressure viscous)
700           	((6.170828e-01 3.656009e+01 -4.130918e-18) (3.805719e-01 1.593786e-02 1.604141e-18)) ((1.376789e-20 -2.893104e-19 -1.218607e+00) (8.324154e-22 -4.853700e-21 2.406332e-03))
