/*--------------------------------*- C++ -*----------------------------------*\
  =========                 |
  \\      /  F ield         | OpenFOAM: The Open Source CFD Toolbox
   \\    /   O peration     | Website:  https://openfoam.org
    \\  /    A nd           | Version:  8
     \\/     M anipulation  |
\*---------------------------------------------------------------------------*/
FoamFile
{
    version     2.0;
    format      ascii;
    class       volScalarField;
    location    "0.1386";
    object      alphat;
}
// * * * * * * * * * * * * * * * * * * * * * * * * * * * * * * * * * * * * * //

dimensions      [1 -1 -1 0 0 0 0];

internalField   nonuniform List<scalar> 
119000
(
0.00150834
0.000200512
4.15299e-05
1.07051e-05
3.80876e-06
1.72632e-06
9.27766e-07
5.7638e-07
7.04901e-07
1.1607e-06
1.5038e-06
1.70638e-06
1.71507e-06
1.71447e-06
1.82064e-06
1.81116e-06
1.47063e-06
1.05263e-06
7.62337e-07
6.05104e-07
5.94073e-07
6.33793e-07
6.89484e-07
6.55091e-07
5.13059e-07
4.8372e-07
4.88978e-07
5.02096e-07
5.17294e-07
5.33409e-07
5.49987e-07
5.66321e-07
5.81138e-07
5.93681e-07
6.03998e-07
6.14435e-07
6.23973e-07
6.31996e-07
6.38734e-07
6.44122e-07
6.48118e-07
6.51114e-07
6.53113e-07
6.54184e-07
6.54115e-07
6.50527e-07
6.43229e-07
6.34037e-07
6.22913e-07
6.09675e-07
5.95481e-07
5.81255e-07
5.67092e-07
5.5323e-07
5.40959e-07
5.2973e-07
5.18909e-07
5.08662e-07
4.98953e-07
4.89892e-07
4.81336e-07
4.73136e-07
4.65058e-07
4.57147e-07
4.49465e-07
4.42082e-07
4.34966e-07
4.28068e-07
4.21289e-07
4.14535e-07
4.07715e-07
4.00762e-07
3.93614e-07
3.86211e-07
3.78378e-07
3.69631e-07
3.61048e-07
3.54114e-07
3.49627e-07
3.47291e-07
3.46478e-07
3.57778e-07
3.5647e-07
3.68957e-07
3.72845e-07
3.74847e-07
3.63979e-07
3.43999e-07
3.18433e-07
2.87457e-07
2.49195e-07
2.25005e-07
2.09352e-07
1.94369e-07
1.745e-07
1.45054e-07
9.81222e-08
4.82291e-08
5.31987e-08
7.51507e-08
0.00421298
0.0010746
0.000552392
0.00035892
0.000257463
0.00019357
0.000149307
0.000117241
9.35095e-05
7.60071e-05
6.31354e-05
5.36372e-05
4.68648e-05
4.93393e-05
6.04045e-05
6.92964e-05
7.50553e-05
7.86817e-05
8.12102e-05
8.4415e-05
8.83406e-05
9.22863e-05
9.5949e-05
9.92839e-05
0.000102301
0.000105094
0.000107709
0.000110238
0.000112749
0.000115287
0.000117821
0.00012027
0.000122457
0.000124296
0.000125815
0.000127078
0.000128134
0.000129012
0.00012975
0.000130345
0.000130793
0.000131139
0.000131381
0.00013153
0.000131572
0.000131256
0.000130554
0.000129655
0.000128525
0.000127166
0.000125683
0.000124169
0.000122629
0.000121091
0.000119545
0.000118025
0.000116528
0.000115091
0.000113705
0.000112398
0.000111146
0.000109934
0.000108724
0.000107522
0.000106339
0.000105187
0.000104063
0.00010296
0.000101863
0.000100757
9.9623e-05
9.84499e-05
9.72222e-05
9.59244e-05
9.4517e-05
9.28483e-05
9.09866e-05
8.90244e-05
8.7033e-05
8.50609e-05
8.31439e-05
8.1288e-05
7.96871e-05
7.82906e-05
7.66526e-05
7.52528e-05
7.40333e-05
7.28403e-05
7.1641e-05
7.0529e-05
6.92107e-05
6.79188e-05
6.66031e-05
6.50695e-05
6.24423e-05
5.77243e-05
4.68793e-05
2.58556e-05
1.55448e-05
2.79915e-05
0.00658739
0.00205912
0.00112757
0.000759415
0.00057173
0.000458797
0.00038307
0.000328406
0.000286694
0.000253706
0.00022701
0.000205075
0.000186947
0.000173033
0.000167357
0.000166978
0.000166837
0.000167864
0.000170064
0.000173464
0.000177598
0.000181276
0.000184235
0.000186676
0.00018883
0.000190617
0.000192123
0.000193535
0.000194987
0.000196536
0.00019815
0.00019973
0.000200975
0.00020172
0.000202082
0.000202168
0.000202041
0.00020175
0.000201341
0.000200826
0.000200204
0.000199504
0.000198738
0.000197921
0.000197053
0.0001957
0.000193899
0.000191894
0.000189767
0.000187551
0.000185264
0.000182963
0.000180654
0.000178354
0.00017607
0.000173831
0.000171648
0.00016955
0.000167542
0.000165641
0.000163833
0.000162081
0.000160339
0.000158617
0.00015693
0.00015529
0.000153695
0.000152131
0.000150581
0.000149022
0.000147433
0.000145797
0.000144094
0.000142304
0.000140384
0.000138221
0.000135836
0.000133317
0.000130752
0.000128209
0.000125741
0.000123382
0.000121263
0.000119328
0.000117526
0.000115957
0.000114672
0.000113601
0.000112723
0.000112042
0.000111496
0.000111123
0.000110774
0.000110307
0.000109218
0.000105842
9.56688e-05
6.84729e-05
5.93521e-05
8.86385e-05
0.00868639
0.0031543
0.00177317
0.00120818
0.000917411
0.000742453
0.000625816
0.000542352
0.000479409
0.000430073
0.000390274
0.000357493
0.000330077
0.000306979
0.000287937
0.000272199
0.000259361
0.000252749
0.000250654
0.000251526
0.000254035
0.000255821
0.000256695
0.000257022
0.000257132
0.00025687
0.000256371
0.000255939
0.000255739
0.000255804
0.000256071
0.000256411
0.000256319
0.000255562
0.000254439
0.000253082
0.000251558
0.000249917
0.000248209
0.000246449
0.000244633
0.000242782
0.000240911
0.000239041
0.000237188
0.000235189
0.000232987
0.000230668
0.000228307
0.000225943
0.000223588
0.000221273
0.000218982
0.000216733
0.000214551
0.000212471
0.000210522
0.000208734
0.000207126
0.000205717
0.000204501
0.000203424
0.000202429
0.000201555
0.000200837
0.0002003
0.000199946
0.000199767
0.000199754
0.000199883
0.000200138
0.000200497
0.000200936
0.000201415
0.000201849
0.000202019
0.000201914
0.000201594
0.00020112
0.000200531
0.000199854
0.000199102
0.00019832
0.000197469
0.000196528
0.000195498
0.000194352
0.000193034
0.000191522
0.000189776
0.000187785
0.000185605
0.00018323
0.000180714
0.000178127
0.000174806
0.000167379
0.000149601
0.00014502
0.000170339
0.0105432
0.00427692
0.00246233
0.00169535
0.00129409
0.00105081
0.000887922
0.000771067
0.000682869
0.000613708
0.00055788
0.000511824
0.000473166
0.000440224
0.00041176
0.000386742
0.000364613
0.000346146
0.000332569
0.000326308
0.000324481
0.00032198
0.000318918
0.000315792
0.000312937
0.000309855
0.000306748
0.000304088
0.000301997
0.000300432
0.000299252
0.000298279
0.000297234
0.000295923
0.000294392
0.00029272
0.000290949
0.000289127
0.000287309
0.000285514
0.000283729
0.000281975
0.000280279
0.000278671
0.000277171
0.000275688
0.000274166
0.000272638
0.000271162
0.000269771
0.000268468
0.00026726
0.000266064
0.000264891
0.000263771
0.000262735
0.000261807
0.000261008
0.000260348
0.000259836
0.000259454
0.000259088
0.000258634
0.000258182
0.000257792
0.000257501
0.000257315
0.000257238
0.00025727
0.00025741
0.000257655
0.000257996
0.000258416
0.000258887
0.000259322
0.000259312
0.000258923
0.000258298
0.000257508
0.000256596
0.00025559
0.000254508
0.000253363
0.000252137
0.000250817
0.000249386
0.000247783
0.00024594
0.000243844
0.000241477
0.000238815
0.000235885
0.000232685
0.000229255
0.000225799
0.000222233
0.000216026
0.000201558
0.000197109
0.000219825
0.0121839
0.00538291
0.00317627
0.00221117
0.00169549
0.00138015
0.00116768
0.00101451
0.000898435
0.000807089
0.000733114
0.000671873
0.000620254
0.000576042
0.000537486
0.000503228
0.000472565
0.000445424
0.000421894
0.0004041
0.000393672
0.000383166
0.000373822
0.000365816
0.000359151
0.000353505
0.000348792
0.000345074
0.000342323
0.000340388
0.00033902
0.000337972
0.000337007
0.000335969
0.000334837
0.000333651
0.000332411
0.000331156
0.000329935
0.000328758
0.000327573
0.000326399
0.000325267
0.000324209
0.000323236
0.000322244
0.000321182
0.000320084
0.000318998
0.000317957
0.000316965
0.00031602
0.000314948
0.00031379
0.000312612
0.000311467
0.000310391
0.000309415
0.000308558
0.000307828
0.000307215
0.000306526
0.000305598
0.000304642
0.000303745
0.000302948
0.000302252
0.00030166
0.000301184
0.000300836
0.00030062
0.000300533
0.000300559
0.000300676
0.000300825
0.000300818
0.000300595
0.00030021
0.000299713
0.00029914
0.000298518
0.000297861
0.00029717
0.000296422
0.000295601
0.000294675
0.000293537
0.000292064
0.000290264
0.000288127
0.000285594
0.000282638
0.000279217
0.000275321
0.000271147
0.000266949
0.000261255
0.000249852
0.000244017
0.000260506
0.0136302
0.00644742
0.00390206
0.0027478
0.0021162
0.00172647
0.0014621
0.00127048
0.0011246
0.00100931
0.000915582
0.000837692
0.000771768
0.00071509
0.000665485
0.00062126
0.000581591
0.000546042
0.000513918
0.000486542
0.000464608
0.000445519
0.000429332
0.000416316
0.000406044
0.00039796
0.00039178
0.000387307
0.00038433
0.000382529
0.000381476
0.000380805
0.000380241
0.00037963
0.000378947
0.000378214
0.000377371
0.00037646
0.000375532
0.000374588
0.000373515
0.000372357
0.000371171
0.000370003
0.000368873
0.000367617
0.000366219
0.000364754
0.000363286
0.000361849
0.000360457
0.000359119
0.000357492
0.000355714
0.000353904
0.00035213
0.000350438
0.000348866
0.000347434
0.000346144
0.000344996
0.00034393
0.000342862
0.000341844
0.000340934
0.000340161
0.000339505
0.000338967
0.000338567
0.000338326
0.00033826
0.000338352
0.000338594
0.000338963
0.000339395
0.000339716
0.000339886
0.000339928
0.000339866
0.000339717
0.000339497
0.000339212
0.000338852
0.000338381
0.000337781
0.000337031
0.000335967
0.000334396
0.000332433
0.00033009
0.000327323
0.000324074
0.000320276
0.000315874
0.000311002
0.000306027
0.00030024
0.000290416
0.000283044
0.000294038
0.0149005
0.00746563
0.00463109
0.00329841
0.00255186
0.00208639
0.00176845
0.00153674
0.00135952
0.00121885
0.00110407
0.00100833
0.000926984
0.000856838
0.000795308
0.000740341
0.000691033
0.000647199
0.000608179
0.000574061
0.000544852
0.000519318
0.000497029
0.000477934
0.000462099
0.000449726
0.000440693
0.000434538
0.000430743
0.000428681
0.000427609
0.000426962
0.000426367
0.00042566
0.000424856
0.000423986
0.000422907
0.000421703
0.00042044
0.000419121
0.000417521
0.000415767
0.000413953
0.000412146
0.00041038
0.000408357
0.000406132
0.000403861
0.000401618
0.000399435
0.000397328
0.000395323
0.000393288
0.000391229
0.000389172
0.000387175
0.000385282
0.000383533
0.000381947
0.000380505
0.000379204
0.00037804
0.00037698
0.000376035
0.000375229
0.000374579
0.00037402
0.000373546
0.000373198
0.000373003
0.00037298
0.000373121
0.000373414
0.000373839
0.000374338
0.000374643
0.000374787
0.00037482
0.000374762
0.000374621
0.00037441
0.000374131
0.000373765
0.000373258
0.000372602
0.000371794
0.000370767
0.000369403
0.000367682
0.000365583
0.000363071
0.000360059
0.000356438
0.000352088
0.000347079
0.00034174
0.00033586
0.000327163
0.000319171
0.000325401
0.0160104
0.00843622
0.00535685
0.00385769
0.00299897
0.00245706
0.00208438
0.00181131
0.00160148
0.00143423
0.00129728
0.00118265
0.00108492
0.00100043
0.000926182
0.000860794
0.000802935
0.000751783
0.000706498
0.000666611
0.000631711
0.000600944
0.00057374
0.000549798
0.000529007
0.000511507
0.00049773
0.000487981
0.000481879
0.000478449
0.000476442
0.000474987
0.000473546
0.000471948
0.000470287
0.000468627
0.000466661
0.000464593
0.000462495
0.000460369
0.000457775
0.000455023
0.000452243
0.000449509
0.000446866
0.000444192
0.000441462
0.000438743
0.000436086
0.000433508
0.000431023
0.000428659
0.000426373
0.000424145
0.000421933
0.000419787
0.000417751
0.000415862
0.000414135
0.00041252
0.000411008
0.000409635
0.000408404
0.000407319
0.000406395
0.000405642
0.000404924
0.000404241
0.000403677
0.000403261
0.00040302
0.000402966
0.000403075
0.000403334
0.000403702
0.000404039
0.000404305
0.000404505
0.000404647
0.000404732
0.000404761
0.000404729
0.000404606
0.000404296
0.000403806
0.000403143
0.000402278
0.00040114
0.000399671
0.000397825
0.000395567
0.000392807
0.000389394
0.000385137
0.000380098
0.000374518
0.000368448
0.000360402
0.000352096
0.000354689
0.0169726
0.009358
0.0060744
0.00442119
0.00345467
0.00283609
0.00240786
0.00209242
0.00184894
0.00165407
0.00149398
0.00135954
0.00124456
0.00114558
0.00105964
0.000984537
0.000918529
0.000860369
0.000808995
0.000763607
0.000723533
0.000687978
0.000656304
0.000628069
0.000603009
0.000581042
0.000562429
0.00054774
0.000537512
0.000531145
0.000526907
0.000523553
0.000520291
0.000516942
0.000513731
0.000510751
0.000507357
0.00050402
0.000500772
0.000497592
0.000494275
0.000490899
0.00048753
0.00048423
0.000481043
0.000477906
0.00047479
0.000471723
0.000468739
0.000465821
0.000462986
0.000460269
0.000457666
0.000455161
0.000452639
0.000450183
0.000447839
0.000445643
0.000443613
0.000441641
0.000439717
0.000437933
0.000436318
0.000434875
0.000433616
0.00043256
0.000431655
0.000430879
0.000430248
0.000429772
0.000429477
0.000429384
0.000429471
0.000429723
0.0004301
0.00043049
0.000430857
0.000431191
0.000431489
0.000431744
0.000431947
0.000432082
0.000432131
0.000431906
0.000431467
0.000430836
0.000430005
0.000428931
0.000427549
0.000425814
0.000423688
0.000421106
0.00041794
0.000414033
0.000409322
0.000403917
0.000397945
0.000390501
0.000382287
0.000382297
0.0178125
0.0102311
0.00677992
0.0049851
0.00391655
0.0032214
0.00273715
0.00237857
0.00210056
0.00187716
0.00169306
0.00153798
0.00140628
0.00129365
0.00119645
0.00111187
0.0010378
0.000972659
0.000915151
0.000864247
0.000819078
0.00077881
0.000742742
0.000710345
0.00068124
0.000655187
0.000632235
0.000612697
0.000597311
0.00058637
0.000578324
0.000571776
0.000565592
0.000559608
0.000554238
0.000549543
0.000545124
0.00054095
0.000536956
0.000533069
0.000529183
0.000525313
0.000521463
0.000517686
0.000514018
0.000510407
0.000506834
0.000503329
0.000499916
0.000496532
0.000493212
0.000490003
0.000486926
0.00048398
0.000480933
0.000477967
0.00047513
0.000472459
0.000469971
0.000467624
0.000465403
0.000463347
0.000461481
0.000459798
0.000458312
0.000457043
0.00045598
0.000455104
0.000454398
0.00045384
0.00045346
0.000453283
0.000453304
0.000453498
0.000453826
0.000454143
0.000454447
0.000454743
0.000455026
0.000455284
0.000455499
0.000455648
0.000455721
0.000455638
0.000455367
0.000454908
0.000454253
0.000453371
0.000452183
0.000450656
0.000448756
0.000446432
0.000443574
0.000440049
0.000435746
0.000430673
0.000424913
0.000417976
0.000410073
0.000408097
0.0185536
0.0110566
0.00747048
0.00554679
0.00438173
0.00361114
0.00307069
0.00266838
0.0023551
0.00210237
0.00189348
0.00171852
0.00157074
0.00144482
0.00133649
0.00124247
0.00116027
0.00108804
0.00102425
0.000967693
0.000917333
0.00087226
0.00083171
0.000795086
0.000761928
0.000731875
0.000704839
0.000680852
0.000660414
0.000643945
0.000630378
0.000619088
0.000609343
0.000600823
0.000593537
0.000587397
0.000582023
0.000577108
0.000572452
0.000567898
0.000563395
0.000558954
0.000554525
0.000550168
0.00054592
0.000541698
0.000537507
0.000533401
0.000529408
0.000525383
0.000521411
0.000517561
0.000513865
0.000510342
0.000506881
0.000503523
0.000500313
0.000497281
0.000494436
0.000491761
0.000489255
0.000486936
0.000484822
0.000482882
0.000481135
0.00047961
0.000478313
0.000477239
0.000476345
0.000475576
0.000474983
0.000474594
0.000474419
0.000474442
0.000474618
0.000474865
0.000475151
0.000475462
0.000475786
0.000476104
0.00047639
0.0004766
0.000476731
0.000476759
0.000476632
0.000476324
0.000475825
0.000475109
0.000474061
0.000472677
0.000470943
0.000468814
0.000466202
0.000462995
0.000459073
0.000454384
0.000448981
0.000442614
0.000435234
0.000431953
0.0192126
0.0118361
0.00814385
0.00610391
0.00484775
0.00400368
0.00340709
0.00296064
0.00261148
0.00232867
0.00209566
0.00190142
0.00173784
0.00159876
0.0014793
0.00137575
0.0012853
0.0012058
0.00113556
0.00107316
0.00101745
0.000967405
0.000922212
0.00088122
0.000843896
0.00080978
0.000778715
0.000750491
0.000725394
0.000703775
0.000685104
0.000668985
0.000655142
0.000643446
0.000633778
0.000625896
0.000619291
0.000613402
0.000607873
0.000602434
0.000597087
0.000591866
0.000586641
0.000581517
0.000576532
0.000571522
0.000566539
0.000561677
0.00055697
0.000552362
0.000547867
0.000543509
0.000539318
0.000535317
0.00053145
0.000527712
0.000524134
0.000520744
0.000517534
0.00051449
0.000511632
0.00050898
0.000506545
0.000504254
0.000502147
0.000500265
0.000498624
0.000497234
0.000496078
0.000495121
0.000494357
0.000493805
0.000493475
0.000493366
0.000493431
0.000493594
0.000493827
0.000494112
0.000494431
0.000494762
0.000495071
0.000495277
0.000495394
0.000495428
0.000495339
0.000495084
0.000494646
0.000494011
0.000493116
0.00049193
0.000490424
0.000488555
0.000486233
0.000483382
0.000479883
0.00047565
0.000470687
0.000464879
0.000458093
0.000453972
0.0198021
0.0125715
0.00879835
0.00665442
0.00531248
0.0043976
0.0037451
0.00325423
0.00286866
0.00255609
0.00229964
0.00208644
0.0019072
0.00175495
0.00162428
0.00151108
0.00141221
0.00132529
0.00124839
0.00117996
0.00111869
0.00106349
0.00101347
0.000967933
0.000926289
0.000887976
0.000852826
0.000820759
0.000791822
0.000766116
0.000743305
0.000723047
0.000705148
0.000689629
0.000676656
0.000666198
0.000657685
0.000650264
0.000643404
0.000636656
0.000630108
0.000623836
0.000617546
0.000611448
0.000605573
0.000599821
0.000594187
0.000588714
0.000583416
0.000578279
0.0005733
0.000568462
0.000563794
0.000559321
0.000555007
0.000550828
0.000546821
0.000543013
0.000539369
0.000535868
0.000532567
0.000529486
0.000526639
0.000524001
0.000521581
0.000519396
0.000517457
0.000515781
0.000514369
0.000513198
0.000512232
0.000511483
0.000510963
0.000510674
0.000510586
0.000510591
0.000510679
0.000510841
0.000511059
0.000511307
0.000511552
0.000511748
0.000511882
0.000511949
0.000511921
0.000511738
0.000511376
0.000510829
0.000510063
0.000509041
0.000507732
0.000506096
0.00050401
0.000501458
0.000498332
0.000494528
0.000490013
0.000484732
0.000478545
0.00047403
0.0203319
0.0132648
0.00943276
0.00719655
0.00577393
0.00479167
0.00408356
0.00354812
0.00312568
0.00278455
0.00250511
0.00227312
0.00207825
0.00191279
0.00177083
0.00164784
0.00154039
0.00144585
0.0013621
0.00128744
0.00122043
0.00115988
0.00110483
0.00105457
0.00100843
0.000966091
0.000927275
0.000891774
0.000859475
0.000830313
0.000804018
0.000780264
0.000758847
0.000739731
0.000723071
0.000709143
0.000697747
0.000687928
0.00067905
0.000670381
0.000662184
0.000654556
0.000647313
0.000640401
0.000633779
0.000627354
0.000621104
0.000615051
0.000609177
0.000603495
0.000597999
0.000592633
0.000587435
0.000582443
0.000577609
0.000572899
0.000568376
0.000564071
0.00055997
0.000556064
0.000552376
0.000548917
0.000545698
0.000542717
0.000539978
0.000537479
0.000535223
0.000533232
0.00053152
0.000530077
0.000528827
0.000527801
0.000527014
0.000526467
0.000526142
0.000525971
0.000525923
0.000525973
0.000526101
0.000526275
0.000526454
0.000526611
0.00052673
0.000526797
0.000526788
0.000526628
0.000526288
0.000525774
0.000525067
0.000524131
0.000522943
0.00052147
0.000519635
0.000517392
0.000514644
0.000511283
0.000507249
0.000502505
0.00049693
0.000492314
0.0208098
0.0139181
0.0100462
0.00772879
0.00623036
0.00518469
0.00442139
0.00384133
0.0033829
0.00301372
0.00271159
0.00246092
0.00225042
0.0020717
0.00191833
0.00178541
0.00166923
0.00156691
0.00147614
0.00139506
0.00132212
0.00125603
0.00119575
0.00114076
0.00109045
0.00104436
0.00100212
0.000963422
0.00092803
0.000895765
0.000866374
0.000839521
0.000814988
0.000792675
0.0007726
0.000754999
0.000739892
0.000726585
0.00071476
0.000703929
0.000694051
0.000685085
0.000676847
0.000669094
0.000661705
0.000654548
0.000647609
0.000640913
0.000634389
0.000628086
0.000622001
0.000616012
0.0006102
0.000604616
0.000599249
0.000594065
0.000589091
0.000584348
0.000579825
0.000575522
0.000571452
0.000567613
0.000564007
0.000560651
0.000557552
0.000554689
0.000552056
0.000549691
0.000547612
0.000545825
0.000544291
0.000542998
0.000541954
0.000541163
0.000540608
0.000540231
0.000540002
0.000539902
0.000539902
0.000539963
0.00054002
0.000540073
0.000540106
0.000540106
0.000540039
0.000539865
0.00053955
0.000539081
0.00053844
0.000537585
0.000536507
0.000535177
0.000533545
0.000531561
0.000529133
0.000526159
0.000522568
0.000518324
0.00051333
0.000508851
0.0212424
0.0145334
0.0106382
0.00824986
0.00668068
0.00557498
0.00475759
0.00413292
0.00363992
0.00324313
0.00291852
0.00264925
0.00242313
0.00223108
0.00206621
0.00192325
0.0017982
0.00168794
0.00158999
0.00150232
0.00142326
0.00135142
0.00128615
0.00122671
0.00117244
0.00112277
0.00107724
0.00103546
0.000997115
0.000961932
0.000929658
0.000899924
0.000872509
0.00084727
0.0008241
0.000803116
0.000784417
0.000767642
0.000752601
0.000739091
0.000727072
0.00071642
0.000706898
0.000698056
0.000689696
0.000681606
0.000673798
0.000666321
0.000659006
0.000651969
0.000645199
0.000638637
0.000632288
0.000626186
0.000620334
0.000614692
0.000609277
0.000604106
0.000599147
0.00059442
0.00058994
0.000585683
0.000581643
0.000577859
0.000574343
0.000571095
0.00056811
0.000565396
0.000562973
0.000560851
0.000559014
0.000557426
0.000556098
0.000555032
0.000554215
0.000553576
0.000553101
0.000552776
0.000552575
0.000552462
0.000552389
0.000552336
0.000552284
0.000552212
0.000552077
0.000551861
0.000551535
0.000551077
0.00055047
0.000549647
0.000548626
0.000547383
0.000545882
0.000544083
0.000541922
0.000539307
0.000536145
0.000532386
0.000527956
0.00052378
0.0216353
0.0151128
0.0112082
0.00875866
0.00712378
0.00596104
0.00509119
0.00442311
0.00389623
0.0034722
0.00312532
0.00283753
0.00259579
0.00239038
0.00221395
0.00206084
0.00192679
0.00180846
0.00170317
0.00160875
0.00152338
0.00144617
0.00137613
0.00131243
0.00125432
0.00120115
0.0011524
0.0011076
0.00106635
0.00102832
0.00099327
0.000960756
0.000930575
0.000902553
0.00087665
0.000852879
0.000831255
0.000811544
0.000793583
0.00077723
0.000762538
0.000749547
0.000738158
0.000727711
0.000717972
0.000708586
0.00069962
0.000691161
0.000683099
0.000675406
0.000668012
0.00066089
0.000654011
0.000647398
0.000641059
0.00063493
0.000629042
0.000623414
0.000617974
0.000612772
0.000607834
0.000603145
0.000598707
0.000594537
0.000590633
0.00058701
0.00058367
0.000580599
0.000577818
0.000575341
0.000573166
0.00057123
0.000569562
0.000568167
0.000567035
0.00056612
0.000565394
0.000564841
0.000564433
0.000564127
0.000563889
0.000563695
0.000563521
0.000563344
0.000563092
0.000562782
0.000562386
0.000561878
0.000561247
0.000560453
0.000559486
0.000558321
0.00055693
0.000555284
0.000553337
0.000551016
0.000548224
0.000544894
0.000540968
0.000537148
0.0219931
0.0156581
0.0117562
0.00925423
0.00755866
0.00634151
0.00542132
0.00471136
0.00415125
0.00370036
0.0033314
0.00302519
0.00276786
0.00254908
0.00236103
0.00219769
0.00205453
0.001928
0.00181524
0.0017139
0.00162267
0.00154028
0.00146564
0.00139779
0.00133591
0.00127929
0.00122732
0.0011795
0.00113535
0.00109449
0.0010567
0.00102142
0.00098865
0.000958184
0.000929899
0.000903735
0.000879646
0.000857442
0.000836979
0.000818094
0.000800815
0.000785147
0.000771253
0.000758435
0.000746676
0.00073573
0.000725534
0.000716063
0.000707195
0.000698809
0.000690738
0.000682995
0.000675516
0.000668333
0.00066146
0.000654774
0.000648351
0.000642215
0.000636324
0.000630697
0.000625345
0.000620248
0.000615421
0.000610871
0.000606574
0.000602563
0.000598846
0.000595383
0.000592206
0.000589336
0.000586779
0.000584502
0.000582503
0.000580785
0.00057934
0.000578127
0.000577123
0.00057631
0.000575663
0.000575119
0.000574661
0.000574269
0.000573915
0.000573577
0.000573209
0.0005728
0.000572325
0.000571751
0.000571075
0.000570271
0.000569323
0.000568195
0.000566866
0.000565318
0.000563518
0.000561413
0.000558925
0.000555984
0.000552522
0.000549079
0.0223197
0.0161714
0.012282
0.00973578
0.00798434
0.00671503
0.00574785
0.00499707
0.00440439
0.003927
0.00353618
0.00321168
0.00293882
0.00270668
0.00250697
0.00233333
0.00218099
0.00204616
0.00192578
0.00181797
0.00172107
0.00163367
0.00155452
0.00148259
0.00141697
0.0013569
0.0013017
0.00125084
0.00120376
0.00116003
0.00111949
0.00108173
0.00104662
0.00101393
0.000983491
0.000955184
0.000928923
0.000904518
0.000881853
0.000860711
0.000841133
0.000822955
0.000806414
0.000791162
0.000777137
0.000764254
0.000752472
0.00074171
0.000731797
0.000722524
0.000713578
0.000705056
0.000696828
0.000688955
0.00068146
0.000674252
0.00066734
0.000660739
0.000654407
0.000648362
0.000642603
0.000637086
0.000631852
0.000626906
0.000622182
0.00061775
0.000613622
0.000609783
0.000606234
0.000602993
0.000600069
0.00059744
0.000595093
0.000593034
0.000591256
0.000589708
0.000588379
0.000587258
0.000586322
0.000585522
0.000584834
0.000584233
0.000583685
0.000583167
0.000582649
0.000582108
0.000581525
0.000580841
0.000580076
0.000579209
0.000578226
0.000577105
0.000575822
0.000574352
0.000572667
0.000570732
0.000568488
0.00056587
0.000562803
0.000559705
0.0226186
0.0166543
0.0127858
0.0102026
0.00839996
0.00708078
0.00606978
0.00527961
0.00465501
0.00415154
0.0037391
0.00339646
0.00310816
0.00286269
0.00265132
0.00246734
0.00230574
0.00216249
0.00203494
0.00192088
0.00181846
0.00172614
0.00164255
0.00156657
0.00149724
0.00143369
0.00137523
0.0013213
0.00127121
0.00122477
0.00118168
0.0011416
0.00110431
0.00106953
0.00103708
0.00100678
0.000978521
0.000952091
0.000927414
0.000904187
0.000882522
0.000862304
0.0008436
0.000826227
0.000810096
0.000795143
0.000781389
0.000768846
0.000757418
0.000746874
0.000736664
0.000727084
0.000718036
0.000709479
0.000701376
0.000693621
0.0006862
0.000679119
0.00067231
0.000665815
0.000659623
0.000653639
0.000647957
0.000642581
0.000637479
0.000632663
0.000628151
0.000623942
0.000620023
0.000616407
0.000613109
0.000610104
0.000607378
0.000604943
0.000602798
0.000600908
0.000599255
0.000597825
0.000596594
0.000595514
0.000594568
0.00059373
0.000592954
0.000592216
0.000591498
0.000590778
0.000590038
0.000589241
0.000588379
0.000587432
0.000586393
0.000585246
0.000583973
0.000582539
0.000580923
0.000579099
0.000577028
0.000574657
0.000571924
0.000569143
0.0228927
0.0171085
0.0132677
0.0106541
0.00880468
0.00743798
0.00638598
0.00555833
0.00490251
0.00437337
0.00393961
0.00357902
0.00327539
0.00301666
0.00279365
0.00259929
0.00242836
0.0022771
0.0021426
0.00202245
0.00191464
0.00181748
0.0017295
0.00164949
0.00157642
0.00150937
0.0014476
0.00139054
0.00133767
0.00128866
0.00124318
0.00120088
0.00116149
0.00112472
0.00109032
0.00105811
0.00102796
0.000999589
0.00097301
0.000948009
0.000924566
0.000902595
0.000882074
0.000862881
0.000844927
0.000828121
0.000812469
0.000797944
0.000784525
0.000772151
0.000760541
0.000749744
0.000739708
0.000730327
0.000721509
0.000713087
0.000705046
0.000697405
0.000690023
0.000683003
0.000676321
0.000669924
0.000663832
0.000658054
0.000652574
0.000647376
0.000642478
0.00063789
0.000633582
0.000629568
0.000625872
0.000622486
0.000619393
0.000616597
0.000614094
0.000611853
0.000609861
0.000608104
0.000606558
0.000605158
0.000603913
0.000602795
0.000601765
0.000600798
0.000599872
0.000598958
0.000598042
0.000597098
0.000596112
0.000595051
0.000593917
0.0005927
0.000591387
0.000589956
0.000588384
0.000586643
0.000584702
0.000582524
0.000580059
0.000577542
0.0231445
0.0175355
0.0137277
0.0110896
0.00919774
0.00778584
0.00669537
0.0058326
0.00514625
0.00459192
0.00413717
0.00375886
0.00344005
0.00316815
0.00293353
0.00272876
0.00254883
0.00238982
0.00224857
0.00212248
0.00200937
0.00190743
0.00181509
0.00173105
0.00165423
0.00158364
0.00151861
0.0014586
0.00140306
0.00135159
0.00130382
0.00125936
0.00121794
0.00117921
0.0011429
0.0011088
0.0010768
0.0010467
0.00101844
0.000991849
0.000966831
0.000943306
0.000921191
0.00090039
0.000880819
0.000862357
0.000845002
0.000828751
0.000813582
0.000799452
0.000786222
0.000773899
0.000762523
0.000751984
0.000742172
0.000732815
0.000723932
0.000715565
0.000707619
0.000700089
0.000692915
0.00068608
0.000679562
0.000673363
0.000667482
0.000661873
0.00065656
0.000651566
0.00064688
0.000642495
0.000638426
0.000634673
0.000631211
0.000628048
0.000625181
0.00062257
0.00062021
0.000618095
0.000616202
0.000614491
0.000612946
0.000611543
0.000610238
0.000609019
0.00060786
0.000606722
0.000605595
0.000604463
0.000603312
0.000602121
0.00060088
0.000599575
0.0005982
0.00059674
0.000595176
0.000593472
0.000591611
0.000589563
0.000587295
0.000584991
0.0233763
0.0179367
0.0141663
0.0115089
0.00957841
0.00812419
0.00699688
0.00610183
0.00538562
0.00480662
0.00433125
0.00393548
0.00360168
0.00331671
0.00307053
0.00285559
0.00266697
0.00250045
0.00235262
0.00222072
0.0021024
0.00199574
0.00189905
0.00181098
0.00173037
0.00165635
0.00158822
0.00152538
0.00146727
0.00141342
0.0013634
0.00131683
0.00127341
0.00123273
0.0011945
0.00115862
0.00112493
0.00109325
0.00106346
0.0010354
0.00100893
0.000983982
0.000960409
0.000938131
0.000917075
0.000897172
0.000878387
0.000860688
0.00084405
0.000828416
0.000813711
0.000799879
0.000786989
0.000774915
0.000763677
0.000753142
0.000743276
0.000734076
0.000725439
0.000717309
0.000709552
0.000702189
0.000695166
0.00068848
0.000682139
0.000676121
0.000670418
0.00066504
0.000659986
0.000655231
0.000650788
0.000646664
0.000642816
0.000639265
0.000636015
0.000633038
0.000630324
0.00062786
0.000625621
0.000623581
0.000621721
0.000620015
0.000618405
0.0006169
0.000615473
0.000614097
0.000612753
0.000611422
0.000610089
0.000608743
0.00060737
0.000605947
0.000604475
0.000602944
0.000601343
0.000599648
0.000597838
0.000595882
0.000593758
0.000591617
0.02359
0.0183134
0.0145834
0.0119113
0.00994599
0.00845239
0.00728996
0.00636483
0.00562001
0.0050169
0.00452132
0.00410841
0.00375981
0.00346192
0.00320424
0.00297958
0.00278257
0.00260875
0.00245451
0.00231691
0.00219345
0.00208212
0.00198109
0.00188899
0.00180471
0.00172741
0.0016563
0.00159075
0.00153014
0.00147395
0.00142173
0.00137306
0.00132765
0.001285
0.00124501
0.00120747
0.00117221
0.00113904
0.00110782
0.00107836
0.00105052
0.00102422
0.000999261
0.000975654
0.000953311
0.000932153
0.000912127
0.000893175
0.000875268
0.000858326
0.000842319
0.000827127
0.000812836
0.000799385
0.000786756
0.000774894
0.000763795
0.000753493
0.000743889
0.00073493
0.000726361
0.000718285
0.000710673
0.000703488
0.00069668
0.000690233
0.000684119
0.000678338
0.000672899
0.000667745
0.000662902
0.000658386
0.000654171
0.000650255
0.000646641
0.000643301
0.000640228
0.000637413
0.000634815
0.000632422
0.00063022
0.000628184
0.000626279
0.000624488
0.000622785
0.000621154
0.000619575
0.00061802
0.000616479
0.000614943
0.000613405
0.000611848
0.000610266
0.000608646
0.000606983
0.000605263
0.000603466
0.000601553
0.000599518
0.000597482
0.0237871
0.0186669
0.0149793
0.0122965
0.0102998
0.00876972
0.00757401
0.00662048
0.00584881
0.0052222
0.00470688
0.00427715
0.00391401
0.00360336