/*--------------------------------*- C++ -*----------------------------------*\
  =========                 |
  \\      /  F ield         | OpenFOAM: The Open Source CFD Toolbox
   \\    /   O peration     | Website:  https://openfoam.org
    \\  /    A nd           | Version:  8
     \\/     M anipulation  |
\*---------------------------------------------------------------------------*/
FoamFile
{
    version     2.0;
    format      ascii;
    class       volScalarField;
    location    "10";
    object      p;
}
// * * * * * * * * * * * * * * * * * * * * * * * * * * * * * * * * * * * * * //

dimensions      [0 2 -2 0 0 0 0];

internalField   nonuniform List<scalar> 
262620
(
-1.35617
-1.35638
-1.35706
-1.35808
-1.35941
-1.36105
-1.36299
-1.3652
-1.36766
-1.37036
-1.37328
-1.37641
-1.37973
-1.38323
-1.38689
-1.3907
-1.39465
-1.39872
-1.40291
-1.40719
-1.41157
-1.41603
-1.42057
-1.42516
-1.42981
-1.43451
-1.43924
-1.44401
-1.4488
-1.4536
-1.45842
-1.46325
-1.46808
-1.4729
-1.47771
-1.48251
-1.48729
-1.49206
-1.49679
-1.5015
-1.50618
-1.51083
-1.51544
-1.52001
-1.52454
-1.52902
-1.53346
-1.53786
-1.54221
-1.54651
-1.55076
-1.55496
-1.55911
-1.5632
-1.56725
-1.57123
-1.57517
-1.57905
-1.58287
-1.58664
-1.59036
-1.59402
-1.59762
-1.60117
-1.60467
-1.60811
-1.61149
-1.61482
-1.6181
-1.62132
-1.6245
-1.62761
-1.63068
-1.63369
-1.63666
-1.63957
-1.64243
-1.64525
-1.64801
-1.65073
-1.65339
-1.65601
-1.65859
-1.66112
-1.6636
-1.66604
-1.66843
-1.67079
-1.67309
-1.67536
-1.67759
-1.67977
-1.68192
-1.68402
-1.68609
-1.68812
-1.69011
-1.69206
-1.69398
-1.69586
-1.69771
-1.69952
-1.7013
-1.70304
-1.70476
-1.70644
-1.70809
-1.70971
-1.7113
-1.71285
-1.71438
-1.71588
-1.71736
-1.7188
-1.72022
-1.72161
-1.72298
-1.72432
-1.72563
-1.72692
-1.35603
-1.35625
-1.35692
-1.35794
-1.35927
-1.36091
-1.36285
-1.36506
-1.36752
-1.37022
-1.37314
-1.37627
-1.37959
-1.38309
-1.38675
-1.39056
-1.39451
-1.39858
-1.40276
-1.40705
-1.41143
-1.41589
-1.42043
-1.42503
-1.42968
-1.43437
-1.43911
-1.44388
-1.44867
-1.45348
-1.4583
-1.46313
-1.46796
-1.47278
-1.4776
-1.4824
-1.48719
-1.49195
-1.49669
-1.5014
-1.50608
-1.51073
-1.51534
-1.51992
-1.52445
-1.52894
-1.53338
-1.53778
-1.54213
-1.54644
-1.55069
-1.55489
-1.55904
-1.56314
-1.56719
-1.57118
-1.57512
-1.579
-1.58283
-1.5866
-1.59032
-1.59398
-1.59759
-1.60114
-1.60464
-1.60808
-1.61147
-1.6148
-1.61808
-1.62131
-1.62448
-1.62761
-1.63067
-1.63369
-1.63666
-1.63957
-1.64244
-1.64525
-1.64802
-1.65074
-1.65341
-1.65603
-1.65861
-1.66114
-1.66363
-1.66607
-1.66847
-1.67082
-1.67313
-1.6754
-1.67763
-1.67982
-1.68196
-1.68407
-1.68614
-1.68817
-1.69016
-1.69212
-1.69404
-1.69592
-1.69777
-1.69959
-1.70137
-1.70312
-1.70483
-1.70652
-1.70817
-1.70979
-1.71138
-1.71294
-1.71447
-1.71597
-1.71745
-1.71889
-1.72031
-1.7217
-1.72307
-1.72441
-1.72573
-1.72702
-1.3558
-1.35601
-1.35668
-1.3577
-1.35903
-1.36067
-1.3626
-1.3648
-1.36727
-1.36996
-1.37289
-1.37602
-1.37934
-1.38283
-1.38649
-1.39031
-1.39425
-1.39833
-1.40252
-1.40681
-1.41119
-1.41565
-1.42019
-1.42479
-1.42944
-1.43414
-1.43888
-1.44365
-1.44845
-1.45326
-1.45809
-1.46292
-1.46775
-1.47258
-1.4774
-1.48221
-1.487
-1.49177
-1.49651
-1.50123
-1.50592
-1.51057
-1.51518
-1.51976
-1.5243
-1.52879
-1.53325
-1.53765
-1.54201
-1.54632
-1.55057
-1.55478
-1.55894
-1.56304
-1.56709
-1.57109
-1.57503
-1.57892
-1.58275
-1.58653
-1.59025
-1.59392
-1.59753
-1.60109
-1.60459
-1.60804
-1.61143
-1.61477
-1.61806
-1.62129
-1.62447
-1.62759
-1.63067
-1.63369
-1.63666
-1.63958
-1.64245
-1.64527
-1.64804
-1.65076
-1.65344
-1.65606
-1.65864
-1.66118
-1.66367
-1.66611
-1.66851
-1.67087
-1.67319
-1.67546
-1.67769
-1.67988
-1.68203
-1.68414
-1.68622
-1.68825
-1.69025
-1.6922
-1.69413
-1.69602
-1.69787
-1.69969
-1.70147
-1.70322
-1.70494
-1.70662
-1.70828
-1.7099
-1.71149
-1.71306
-1.71459
-1.7161
-1.71757
-1.71902
-1.72044
-1.72184
-1.72321
-1.72455
-1.72587
-1.72716
-1.35545
-1.35566
-1.35632
-1.35733
-1.35866
-1.3603
-1.36223
-1.36443
-1.36689
-1.36959
-1.37251
-1.37564
-1.37896
-1.38245
-1.38612
-1.38993
-1.39388
-1.39795
-1.40214
-1.40644
-1.41082
-1.41529
-1.41983
-1.42443
-1.42909
-1.4338
-1.43854
-1.44332
-1.44812
-1.45293
-1.45777
-1.4626
-1.46744
-1.47228
-1.4771
-1.48192
-1.48672
-1.49149
-1.49624
-1.50097
-1.50566
-1.51032
-1.51494
-1.51953
-1.52407
-1.52858
-1.53303
-1.53745
-1.54181
-1.54613
-1.55039
-1.55461
-1.55877
-1.56288
-1.56694
-1.57095
-1.5749
-1.57879
-1.58263
-1.58642
-1.59015
-1.59382
-1.59744
-1.60101
-1.60452
-1.60797
-1.61137
-1.61472
-1.61801
-1.62125
-1.62444
-1.62757
-1.63065
-1.63368
-1.63666
-1.63958
-1.64246
-1.64529
-1.64807
-1.65079
-1.65348
-1.65611
-1.6587
-1.66124
-1.66373
-1.66619
-1.66859
-1.67096
-1.67328
-1.67556
-1.67779
-1.67999
-1.68215
-1.68426
-1.68634
-1.68838
-1.69038
-1.69235
-1.69427
-1.69617
-1.69802
-1.69985
-1.70164
-1.70339
-1.70512
-1.70681
-1.70846
-1.71009
-1.71169
-1.71326
-1.7148
-1.71631
-1.71779
-1.71924
-1.72067
-1.72206
-1.72344
-1.72478
-1.72611
-1.7274
-1.35499
-1.35519
-1.35585
-1.35686
-1.35818
-1.35981
-1.36173
-1.36393
-1.36639
-1.36909
-1.37201
-1.37513
-1.37845
-1.38195
-1.38562
-1.38943
-1.39338
-1.39746
-1.40165
-1.40595
-1.41034
-1.41481
-1.41935
-1.42396
-1.42863
-1.43334
-1.43809
-1.44287
-1.44768
-1.4525
-1.45734
-1.46219
-1.46703
-1.47188
-1.47671
-1.48154
-1.48634
-1.49113
-1.49589
-1.50062
-1.50532
-1.50999
-1.51463
-1.51922
-1.52378
-1.52829
-1.53276
-1.53718
-1.54155
-1.54588
-1.55016
-1.55438
-1.55856
-1.56268
-1.56675
-1.57076
-1.57472
-1.57863
-1.58248
-1.58627
-1.59001
-1.5937
-1.59733
-1.6009
-1.60442
-1.60789
-1.6113
-1.61466
-1.61796
-1.62121
-1.6244
-1.62754
-1.63063
-1.63367
-1.63666
-1.63959
-1.64248
-1.64531
-1.6481
-1.65084
-1.65353
-1.65617
-1.65877
-1.66132
-1.66382
-1.66628
-1.66869
-1.67106
-1.67339
-1.67568
-1.67792
-1.68013
-1.68229
-1.68441
-1.6865
-1.68855
-1.69055
-1.69253
-1.69446
-1.69636
-1.69822
-1.70005
-1.70185
-1.70361
-1.70534
-1.70703
-1.7087
-1.71033
-1.71194
-1.71351
-1.71505
-1.71657
-1.71805
-1.71951
-1.72094
-1.72235
-1.72373
-1.72508
-1.72641
-1.72771
-1.35442
-1.35461
-1.35526
-1.35626
-1.35758
-1.3592
-1.36113
-1.36332
-1.36577
-1.36847
-1.37139
-1.37451
-1.37783
-1.38133
-1.385
-1.38881
-1.39277
-1.39685
-1.40104
-1.40535
-1.40974
-1.41422
-1.41877
-1.42338
-1.42805
-1.43277
-1.43753
-1.44232
-1.44713
-1.45197
-1.45682
-1.46167
-1.46653
-1.47138
-1.47623
-1.48106
-1.48588
-1.49068
-1.49545
-1.50019
-1.50491
-1.50959
-1.51423
-1.51884
-1.52341
-1.52793
-1.53241
-1.53685
-1.54124
-1.54558
-1.54986
-1.5541
-1.55829
-1.56242
-1.5665
-1.57053
-1.5745
-1.57842
-1.58229
-1.58609
-1.58985
-1.59355
-1.59719
-1.60077
-1.60431
-1.60778
-1.61121
-1.61457
-1.61789
-1.62115
-1.62436
-1.62751
-1.63061
-1.63366
-1.63666
-1.6396
-1.6425
-1.64535
-1.64814
-1.65089
-1.65359
-1.65625
-1.65885
-1.66141
-1.66393
-1.66639
-1.66882
-1.6712
-1.67354
-1.67583
-1.67809
-1.6803
-1.68247
-1.68461
-1.6867
-1.68875
-1.69077
-1.69275
-1.69469
-1.6966
-1.69847
-1.70031
-1.70211
-1.70388
-1.70562
-1.70732
-1.709
-1.71064
-1.71225
-1.71383
-1.71538
-1.7169
-1.71839
-1.71986
-1.7213
-1.72271
-1.72409
-1.72545
-1.72678
-1.72809
-1.35375
-1.35393
-1.35457
-1.35556
-1.35687
-1.35849
-1.3604
-1.36259
-1.36504
-1.36773
-1.37065
-1.37377
-1.37709
-1.38059
-1.38426
-1.38808
-1.39204
-1.39612
-1.40032
-1.40463
-1.40903
-1.41351
-1.41807
-1.42269
-1.42737
-1.4321
-1.43686
-1.44166
-1.44649
-1.45134
-1.45619
-1.46106
-1.46593
-1.4708
-1.47565
-1.4805
-1.48533
-1.49014
-1.49492
-1.49968
-1.50441
-1.50911
-1.51377
-1.51839
-1.52297
-1.52751
-1.53201
-1.53646
-1.54086
-1.54521
-1.54952
-1.55377
-1.55797
-1.56212
-1.56622
-1.57026
-1.57425
-1.57818
-1.58206
-1.58588
-1.58965
-1.59336
-1.59702
-1.60062
-1.60417
-1.60766
-1.6111
-1.61448
-1.61781
-1.62108
-1.6243
-1.62747
-1.63058
-1.63365
-1.63666
-1.63962
-1.64253
-1.64539
-1.6482
-1.65096
-1.65367
-1.65633
-1.65895
-1.66152
-1.66405
-1.66653
-1.66897
-1.67136
-1.67371
-1.67602
-1.67828
-1.68051
-1.68269
-1.68483
-1.68694
-1.689
-1.69103
-1.69302
-1.69497
-1.69689
-1.69877
-1.70062
-1.70243
-1.70421
-1.70595
-1.70767
-1.70935
-1.711
-1.71262
-1.7142
-1.71576
-1.71729
-1.71879
-1.72027
-1.72171
-1.72313
-1.72452
-1.72589
-1.72723
-1.72854
-1.35297
-1.35313
-1.35376
-1.35474
-1.35604
-1.35766
-1.35957
-1.36175
-1.3642
-1.36688
-1.3698
-1.37292
-1.37624
-1.37974
-1.38341
-1.38723
-1.39119
-1.39528
-1.39949
-1.4038
-1.4082
-1.41269
-1.41726
-1.42189
-1.42658
-1.43132
-1.43609
-1.44091
-1.44574
-1.4506
-1.45547
-1.46035
-1.46524
-1.47012
-1.47499
-1.47985
-1.48469
-1.48952
-1.49432
-1.49909
-1.50384
-1.50855
-1.51323
-1.51787
-1.52246
-1.52702
-1.53153
-1.536
-1.54042
-1.54479
-1.54911
-1.55338
-1.5576
-1.56177
-1.56588
-1.56994
-1.57395
-1.5779
-1.58179
-1.58564
-1.58942
-1.59315
-1.59682
-1.60044
-1.60401
-1.60751
-1.61097
-1.61437
-1.61771
-1.621
-1.62424
-1.62742
-1.63055
-1.63363
-1.63666
-1.63963
-1.64256
-1.64543
-1.64826
-1.65103
-1.65376
-1.65644
-1.65907
-1.66166
-1.6642
-1.66669
-1.66914
-1.67155
-1.67391
-1.67623
-1.67851
-1.68074
-1.68294
-1.68509
-1.68721
-1.68929
-1.69133
-1.69333
-1.69529
-1.69722
-1.69911
-1.70097
-1.70279
-1.70458
-1.70634
-1.70806
-1.70975
-1.71141
-1.71304
-1.71464
-1.71621
-1.71775
-1.71926
-1.72074
-1.7222
-1.72362
-1.72502
-1.7264
-1.72774
-1.72906
-1.35208
-1.35224
-1.35285
-1.35382
-1.35511
-1.35672
-1.35862
-1.3608
-1.36324
-1.36592
-1.36883
-1.37196
-1.37528
-1.37878
-1.38245
-1.38627
-1.39023
-1.39433
-1.39854
-1.40286
-1.40727
-1.41177
-1.41635
-1.42099
-1.42569
-1.43043
-1.43522
-1.44005
-1.4449
-1.44977
-1.45466
-1.45955
-1.46445
-1.46934
-1.47423
-1.47911
-1.48397
-1.48882
-1.49363
-1.49843
-1.50319
-1.50792
-1.51262
-1.51727
-1.52189
-1.52647
-1.531
-1.53549
-1.53992
-1.54432
-1.54866
-1.55295
-1.55719
-1.56137
-1.56551
-1.56959
-1.57361
-1.57758
-1.5815
-1.58536
-1.58916
-1.59291
-1.5966
-1.60024
-1.60382
-1.60735
-1.61082
-1.61424
-1.6176
-1.62091
-1.62417
-1.62737
-1.63052
-1.63361
-1.63666
-1.63965
-1.64259
-1.64548
-1.64832
-1.65112
-1.65386
-1.65656
-1.6592
-1.66181
-1.66436
-1.66687
-1.66934
-1.67176
-1.67413
-1.67647
-1.67876
-1.68101
-1.68322
-1.68539
-1.68752
-1.68961
-1.69166
-1.69368
-1.69566
-1.6976
-1.6995
-1.70137
-1.70321
-1.70501
-1.70678
-1.70851
-1.71021
-1.71189
-1.71353
-1.71513
-1.71671
-1.71826
-1.71978
-1.72128
-1.72274
-1.72418
-1.72559
-1.72697
-1.72833
-1.72966
-1.3511
-1.35123
-1.35184
-1.3528
-1.35407
-1.35567
-1.35756
-1.35974
-1.36217
-1.36485
-1.36776
-1.37088
-1.3742
-1.3777
-1.38137
-1.3852
-1.38917
-1.39327
-1.39748
-1.40181
-1.40623
-1.41074
-1.41533
-1.41998
-1.42469
-1.42945
-1.43425
-1.43909
-1.44396
-1.44884
-1.45375
-1.45866
-1.46357
-1.46849
-1.47339
-1.47829
-1.48317
-1.48803
-1.49287
-1.49768
-1.50247
-1.50722
-1.51193
-1.51661
-1.52125
-1.52585
-1.5304
-1.53491
-1.53937
-1.54378
-1.54815
-1.55246
-1.55672
-1.56093
-1.56509
-1.56919
-1.57323
-1.57723
-1.58116
-1.58505
-1.58887
-1.59264
-1.59636
-1.60002
-1.60362
-1.60717
-1.61066
-1.6141
-1.61748
-1.62081
-1.62409
-1.62731
-1.63048
-1.63359
-1.63666
-1.63967
-1.64263
-1.64554
-1.6484
-1.65121
-1.65397
-1.65669
-1.65935
-1.66197
-1.66454
-1.66707
-1.66955
-1.67199
-1.67439
-1.67674
-1.67905
-1.68131
-1.68354
-1.68572
-1.68787
-1.68997
-1.69204
-1.69407
-1.69606
-1.69802
-1.69994
-1.70182
-1.70367
-1.70548
-1.70727
-1.70901
-1.71073
-1.71241
-1.71407
-1.71569
-1.71728
-1.71884
-1.72037
-1.72188
-1.72335
-1.7248
-1.72622
-1.72762
-1.72898
-1.73032
-1.35001
-1.35013
-1.35072
-1.35167
-1.35293
-1.35452
-1.3564
-1.35857
-1.36099
-1.36367
-1.36657
-1.36969
-1.37301
-1.37652
-1.38019
-1.38402
-1.38799
-1.3921
-1.39632
-1.40066
-1.40509
-1.40961
-1.4142
-1.41887
-1.42359
-1.42836
-1.43318
-1.43804
-1.44292
-1.44782
-1.45274
-1.45767
-1.46261
-1.46754
-1.47247
-1.47738
-1.48228
-1.48717
-1.49203
-1.49686
-1.50167
-1.50644
-1.51118
-1.51588
-1.52055
-1.52517
-1.52974
-1.53428
-1.53876
-1.5432
-1.54759
-1.55192
-1.55621
-1.56044
-1.56462
-1.56875
-1.57282
-1.57683
-1.5808
-1.5847
-1.58855
-1.59235
-1.59608
-1.59977
-1.60339
-1.60697
-1.61048
-1.61394
-1.61735
-1.6207
-1.624
-1.62724
-1.63043
-1.63357
-1.63666
-1.63969
-1.64267
-1.6456
-1.64848
-1.65131
-1.6541
-1.65683
-1.65952
-1.66216
-1.66475
-1.66729
-1.66979
-1.67225
-1.67466
-1.67703
-1.67936
-1.68164
-1.68389
-1.68609
-1.68825
-1.69037
-1.69246
-1.6945
-1.69651
-1.69848
-1.70042
-1.70231
-1.70418
-1.70601
-1.7078
-1.70957
-1.7113
-1.71299
-1.71466
-1.71629
-1.7179
-1.71947
-1.72102
-1.72254
-1.72403
-1.72549
-1.72692
-1.72833
-1.7297
-1.73105
-1.34883
-1.34893
-1.3495
-1.35043
-1.35169
-1.35326
-1.35513
-1.35729
-1.35971
-1.36238
-1.36529
-1.3684
-1.37172
-1.37522
-1.3789
-1.38273
-1.38671
-1.39082
-1.39506
-1.3994
-1.40384
-1.40837
-1.41298
-1.41765
-1.42239
-1.42718
-1.43202
-1.43689
-1.44179
-1.44671
-1.45165
-1.4566
-1.46155
-1.46651
-1.47146
-1.47639
-1.48132
-1.48623
-1.49111
-1.49597
-1.5008
-1.5056
-1.51036
-1.51509
-1.51978
-1.52442
-1.52903
-1.53359
-1.5381
-1.54256
-1.54697
-1.55134
-1.55565
-1.55991
-1.56412
-1.56827
-1.57237
-1.57641
-1.5804
-1.58433
-1.5882
-1.59202
-1.59579
-1.5995
-1.60315
-1.60675
-1.61029
-1.61377
-1.6172
-1.62058
-1.6239
-1.62717
-1.63039
-1.63355
-1.63666
-1.63971
-1.64272
-1.64567
-1.64857
-1.65143
-1.65423
-1.65699
-1.6597
-1.66236
-1.66497
-1.66754
-1.67006
-1.67253
-1.67497
-1.67736
-1.6797
-1.682
-1.68427
-1.68649
-1.68867
-1.69081
-1.69291
-1.69497
-1.697
-1.69899
-1.70094
-1.70285
-1.70473
-1.70658
-1.70839
-1.71017
-1.71192
-1.71363
-1.71531
-1.71696
-1.71858
-1.72017
-1.72173
-1.72326
-1.72476
-1.72623
-1.72768
-1.7291
-1.73049
-1.73185
-1.34755
-1.34763
-1.34819
-1.3491
-1.35034
-1.3519
-1.35376
-1.35591
-1.35833
-1.36099
-1.36389
-1.36701
-1.37032
-1.37383
-1.3775
-1.38134
-1.38533
-1.38945
-1.39369
-1.39804
-1.40249
-1.40703
-1.41165
-1.41634
-1.4211
-1.4259
-1.43075
-1.43564
-1.44056
-1.4455
-1.45046
-1.45544
-1.46041
-1.46539
-1.47036
-1.47532
-1.48027
-1.48521
-1.49012
-1.495
-1.49986
-1.50468
-1.50947
-1.51423
-1.51894
-1.52362
-1.52825
-1.53284
-1.53738
-1.54187
-1.54631
-1.5507
-1.55504
-1.55933
-1.56357
-1.56775
-1.57187
-1.57595
-1.57996
-1.58392
-1.58783
-1.59167
-1.59547
-1.5992
-1.60288
-1.60651
-1.61008
-1.61359
-1.61705
-1.62045
-1.6238
-1.62709
-1.63033
-1.63352
-1.63665
-1.63974
-1.64277
-1.64575
-1.64867
-1.65155
-1.65438
-1.65716
-1.65989
-1.66257
-1.66521
-1.6678
-1.67034
-1.67284
-1.67529
-1.6777
-1.68007
-1.6824
-1.68468
-1.68692
-1.68912
-1.69128
-1.6934
-1.69548
-1.69753
-1.69953
-1.7015
-1.70344
-1.70534
-1.7072
-1.70903
-1.71082
-1.71259
-1.71432
-1.71601
-1.71768
-1.71931
-1.72092
-1.72249
-1.72404
-1.72556
-1.72704
-1.72851
-1.72994
-1.73134
-1.73271
-1.34618
-1.34624
-1.34677
-1.34767
-1.34889
-1.35044
-1.35229
-1.35443
-1.35684
-1.3595
-1.36239
-1.36551
-1.36882
-1.37233
-1.37601
-1.37985
-1.38384
-1.38796
-1.39221
-1.39658
-1.40104
-1.40559
-1.41023
-1.41494
-1.4197
-1.42453
-1.4294
-1.43431
-1.43925
-1.44421
-1.44919
-1.45419
-1.45919
-1.46419
-1.46919
-1.47418
-1.47915
-1.48411
-1.48905
-1.49396
-1.49885
-1.5037
-1.50852
-1.5133
-1.51805
-1.52275
-1.52742
-1.53203
-1.5366
-1.54113
-1.5456
-1.55002
-1.55439
-1.55871
-1.56298
-1.56719
-1.57135
-1.57545
-1.57949
-1.58349
-1.58742
-1.5913
-1.59512
-1.59889
-1.6026
-1.60625
-1.60985
-1.61339
-1.61688
-1.62031
-1.62369
-1.62701
-1.63028
-1.63349
-1.63665
-1.63976
-1.64282
-1.64583
-1.64878
-1.65168
-1.65454
-1.65734
-1.6601
-1.66281
-1.66547
-1.66808
-1.67065
-1.67317
-1.67565
-1.67808
-1.68047
-1.68282
-1.68512
-1.68738
-1.68961
-1.69179
-1.69393
-1.69603
-1.6981
-1.70012
-1.70211
-1.70407
-1.70599
-1.70787
-1.70971
-1.71153
-1.71331
-1.71506
-1.71677
-1.71845
-1.72011
-1.72173
-1.72332
-1.72488
-1.72641
-1.72792
-1.72939
-1.73084
-1.73226
-1.73364
-1.34471
-1.34475
-1.34527
-1.34614
-1.34735
-1.34888
-1.35073
-1.35285
-1.35525
-1.3579
-1.36079
-1.3639
-1.36722
-1.37073
-1.37441
-1.37825
-1.38225
-1.38638
-1.39064
-1.39501
-1.39949
-1.40406
-1.40871
-1.41343
-1.41822
-1.42306
-1.42795
-1.43288
-1.43784
-1.44283
-1.44783
-1.45285
-1.45788
-1.46291
-1.46793
-1.47295
-1.47795
-1.48294
-1.48791
-1.49285
-1.49776
-1.50265
-1.5075
-1.51232
-1.51709
-1.52183
-1.52652
-1.53117
-1.53578
-1.54033
-1.54484
-1.54929
-1.5537
-1.55805
-1.56235
-1.56659
-1.57078
-1.57492
-1.579
-1.58302
-1.58699
-1.5909
-1.59475
-1.59855
-1.60229
-1.60598
-1.60961
-1.61318
-1.6167
-1.62016
-1.62357
-1.62692
-1.63022
-1.63346
-1.63665
-1.63979
-1.64288
-1.64591
-1.64889
-1.65183
-1.65471
-1.65754
-1.66032
-1.66306
-1.66574
-1.66838
-1.67098
-1.67352
-1.67603
-1.67848
-1.6809
-1.68327
-1.6856
-1.68788
-1.69013
-1.69233
-1.6945
-1.69662
-1.69871
-1.70076
-1.70277
-1.70474
-1.70668
-1.70858
-1.71045
-1.71228
-1.71408
-1.71585
-1.71758
-1.71928
-1.72095
-1.72259
-1.7242
-1.72578
-1.72733
-1.72885
-1.73034
-1.73181
-1.73324
-1.73464
-1.34316
-1.34317
-1.34367
-1.34452
-1.34571
-1.34723
-1.34906
-1.35118
-1.35357
-1.35621
-1.35909
-1.3622
-1.36552
-1.36902
-1.37271
-1.37656
-1.38056
-1.3847
-1.38897
-1.39336
-1.39784
-1.40243
-1.40709
-1.41183
-1.41664
-1.4215
-1.42641
-1.43136
-1.43635
-1.44136
-1.44639
-1.45143
-1.45649
-1.46154
-1.46659
-1.47164
-1.47667
-1.48169
-1.48669
-1.49167
-1.49661
-1.50153
-1.50642
-1.51126
-1.51608
-1.52085
-1.52557
-1.53026
-1.5349
-1.53949
-1.54403
-1.54852
-1.55296
-1.55734
-1.56168
-1.56596
-1.57018
-1.57435
-1.57846
-1.58252
-1.58652
-1.59047
-1.59436
-1.59819
-1.60197
-1.60569
-1.60935
-1.61296
-1.61651
-1.62
-1.62344
-1.62683
-1.63016
-1.63343
-1.63665
-1.63982
-1.64294
-1.646
-1.64902
-1.65198
-1.65489
-1.65775
-1.66056
-1.66332
-1.66604
-1.6687
-1.67132
-1.6739
-1.67643
-1.67891
-1.68135
-1.68375
-1.6861
-1.68841
-1.69068
-1.69291
-1.6951
-1.69725
-1.69936
-1.70143
-1.70346
-1.70546
-1.70742
-1.70934
-1.71123
-1.71308
-1.7149
-1.71669
-1.71844
-1.72016
-1.72185
-1.72351
-1.72514
-1.72674
-1.72831
-1.72984
-1.73136
-1.73284
-1.73429
-1.7357
-1.34151
-1.3415
-1.34197
-1.34281
-1.34398
-1.34548
-1.3473
-1.3494
-1.35178
-1.35442
-1.3573
-1.3604
-1.36372
-1.36722
-1.37091
-1.37477
-1.37878
-1.38293
-1.38721
-1.3916
-1.3961
-1.4007
-1.40538
-1.41014
-1.41496
-1.41985
-1.42478
-1.42975
-1.43476
-1.4398
-1.44486
-1.44993
-1.45501
-1.4601
-1.46518
-1.47026
-1.47532
-1.48037
-1.4854
-1.49041
-1.49539
-1.50035
-1.50527
-1.51015
-1.515
-1.5198
-1.52457
-1.52929
-1.53396
-1.53859
-1.54317
-1.54769
-1.55217
-1.5566
-1.56097
-1.56528
-1.56954
-1.57375
-1.5779
-1.582
-1.58604
-1.59002
-1.59394
-1.59781
-1.60162
-1.60538
-1.60908
-1.61272
-1.6163
-1.61983
-1.62331
-1.62672
-1.63009
-1.6334
-1.63665
-1.63985
-1.643
-1.6461
-1.64914
-1.65214
-1.65508
-1.65797
-1.66081
-1.6636
-1.66635
-1.66905
-1.67169
-1.6743
-1.67685
-1.67937
-1.68183
-1.68426
-1.68664
-1.68897
-1.69127
-1.69352
-1.69574
-1.69791
-1.70004
-1.70214
-1.7042
-1.70622
-1.7082
-1.71015
-1.71206
-1.71393
-1.71578
-1.71758
-1.71936
-1.7211
-1.72281
-1.72449
-1.72614
-1.72775
-1.72934
-1.7309
-1.73243
-1.73393
-1.7354
-1.73682
-1.33978
-1.33974
-1.34019
-1.341
-1.34215
-1.34364
-1.34544
-1.34753
-1.3499
-1.35253
-1.3554
-1.35851
-1.36182
-1.36533
-1.36902
-1.37288
-1.37689
-1.38105
-1.38534
-1.38975
-1.39427
-1.39888
-1.40358
-1.40836
-1.4132
-1.41811
-1.42306
-1.42806
-1.4331
-1.43816
-1.44324
-1.44835
-1.45346
-1.45857
-1.46369
-1.4688
-1.4739
-1.47898
-1.48405
-1.48909
-1.49411
-1.4991
-1.50405
-1.50898
-1.51386
-1.5187
-1.52351
-1.52827
-1.53298
-1.53764
-1.54226
-1.54683
-1.55134
-1.55581
-1.56022
-1.56457
-1.56887
-1.57312
-1.57731
-1.58144
-1.58552
-1.58954
-1.5935
-1.59741
-1.60126
-1.60505
-1.60879
-1.61247
-1.61609
-1.61965
-1.62316
-1.62662
-1.63002
-1.63336
-1.63665
-1.63989
-1.64307
-1.6462
-1.64928
-1.65231
-1.65528
-1.6582
-1.66108
-1.6639
-1.66668
-1.66941
-1.67209
-1.67472
-1.67731
-1.67985
-1.68234
-1.68479
-1.6872
-1.68957
-1.69189
-1.69417
-1.69641
-1.69861
-1.70077
-1.70289
-1.70497
-1.70702
-1.70903
-1.711
-1.71293
-1.71483
-1.7167
-1.71853
-1.72032
-1.72209
-1.72382
-1.72552
-1.72719
-1.72883
-1.73043
-1.73201
-1.73356
-1.73508
-1.73657
-1.73801
-1.33796
-1.33789
-1.33832
-1.33911
-1.34024
-1.3417
-1.34349
-1.34557
-1.34793
-1.35055
-1.35342
-1.35651
-1.35982
-1.36333
-1.36703
-1.37089
-1.37492
-1.37909
-1.38339
-1.38781
-1.39234
-1.39697
-1.40168
-1.40648
-1.41135
-1.41628
-1.42126
-1.42628
-1.43134
-1.43643
-1.44155
-1.44668
-1.45182
-1.45697
-1.46212
-1.46726
-1.4724
-1.47752
-1.48262
-1.4877
-1.49276
-1.49778
-1.50278
-1.50774
-1.51266
-1.51755
-1.52239
-1.52719
-1.53194
-1.53665
-1.54131
-1.54591
-1.55047
-1.55498
-1.55943
-1.56382
-1.56817
-1.57245
-1.57668
-1.58086
-1.58498
-1.58904
-1.59304
-1.59699
-1.60088
-1.60471
-1.60848
-1.6122
-1.61586
-1.61947
-1.62301
-1.62651
-1.62994
-1.63333
-1.63665
-1.63992
-1.64314
-1.64631
-1.64942
-1.65248
-1.65549
-1.65845
-1.66136
-1.66422
-1.66702
-1.66978
-1.6725
-1.67516
-1.67778
-1.68035
-1.68288
-1.68536
-1.6878
-1.69019
-1.69254
-1.69485
-1.69712
-1.69935
-1.70154
-1.70368
-1.70579
-1.70786
-1.7099
-1.71189
-1.71385
-1.71578
-1.71767
-1.71952
-1.72134
-1.72313
-1.72488
-1.72661
-1.7283
-1.72996
-1.73159
-1.73318
-1.73475
-1.7363
-1.7378
-1.73926
-1.33606
-1.33596
-1.33635
-1.33712
-1.33823
-1.33968
-1.34145
-1.34351
-1.34586
-1.34847
-1.35133
-1.35443
-1.35774
-1.36125
-1.36495
-1.36882
-1.37285
-1.37702
-1.38134
-1.38577
-1.39032
-1.39496
-1.3997
-1.40452
-1.40941
-1.41436
-1.41936
-1.42441
-1.4295
-1.43463
-1.43977
-1.44494
-1.45011
-1.45529
-1.46048
-1.46566
-1.47083
-1.47598
-1.48112
-1.48624
-1.49134
-1.49641
-1.50144
-1.50644
-1.51141
-1.51633
-1.52122
-1.52606
-1.53086
-1.53561
-1.54031
-1.54496
-1.54956
-1.5541
-1.5586
-1.56304
-1.56742
-1.57175
-1.57603
-1.58024
-1.5844
-1.58851
-1.59255
-1.59654
-1.60047
-1.60435
-1.60816
-1.61192
-1.61562
-1.61927
-1.62286
-1.62639
-1.62987
-1.63329
-1.63665
-1.63996
-1.64322
-1.64642
-1.64957
-1.65267
-1.65572
-1.65871
-1.66165
-1.66455
-1.66739
-1.67018
-1.67293
-1.67563
-1.67828
-1.68088
-1.68344
-1.68595
-1.68842
-1.69085
-1.69323
-1.69557
-1.69787
-1.70012
-1.70234
-1.70452
-1.70665
-1.70875
-1.71081
-1.71283
-1.71482
-1.71677
-1.71869
-1.72056
-1.72241
-1.72422
-1.726
-1.72775
-1.72946
-1.73114
-1.73279
-1.73442
-1.73601
-1.73757
-1.7391
-1.74057
-1.33407
-1.33394
-1.33431
-1.33505
-1.33614
-1.33756
-1.33931
-1.34137
-1.3437
-1.34631
-1.34916
-1.35225
-1.35556
-1.35907
-1.36277
-1.36665
-1.37068
-1.37487
-1.3792
-1.38364
-1.38821
-1.39287
-1.39763
-1.40247
-1.40738
-1.41235
-1.41739
-1.42246
-1.42758
-1.43274
-1.43791
-1.44311
-1.44832
-1.45354
-1.45876
-1.46397
-1.46918
-1.47438
-1.47956
-1.48472
-1.48986
-1.49496
-1.50004
-1.50509
-1.5101
-1.51507
-1.51999
-1.52488
-1.52972
-1.53451
-1.53926
-1.54396
-1.5486
-1.55319
-1.55773
-1.56222
-1.56665
-1.57102
-1.57534
-1.5796
-1.58381
-1.58796
-1.59205
-1.59608
-1.60005
-1.60397
-1.60783
-1.61163
-1.61537
-1.61906
-1.62269
-1.62627
-1.62978
-1.63324
-1.63665
-1.64
-1.6433
-1.64654
-1.64973
-1.65287
-1.65595
-1.65898
-1.66196
-1.66489
-1.66777
-1.6706
-1.67338
-1.67611
-1.6788
-1.68144
-1.68403
-1.68658
-1.68908
-1.69153
-1.69395
-1.69632
-1.69865
-1.70094
-1.70318
-1.70539
-1.70755
-1.70968
-1.71177
-1.71382
-1.71583
-1.71781
-1.71975
-1.72166
-1.72353
-1.72537
-1.72717
-1.72894
-1.73068
-1.73238
-1.73406
-1.7357
-1.73732
-1.73891
-1.74045
-1.74195
-1.33201
-1.33184
-1.33218
-1.33289
-1.33396
-1.33536
-1.33709
-1.33913
-1.34145
-1.34405
-1.3469
-1.34998
-1.35329
-1.3568
-1.3605
-1.36438
-1.36843
-1.37263
-1.37696
-1.38143
-1.386
-1.39069
-1.39546
-1.40033
-1.40526
-1.41026
-1.41532
-1.42043
-1.42558
-1.43076
-1.43598
-1.44121
-1.44645
-1.45171
-1.45696
-1.46222
-1.46747
-1.47271
-1.47793
-1.48313
-1.48831
-1.49346
-1.49858
-1.50367
-1.50873
-1.51374
-1.51871
-1.52365
-1.52853
-1.53337
-1.53817
-1.54291
-1.5476
-1.55224
-1.55683
-1.56136
-1.56584
-1.57026
-1.57462
-1.57893
-1.58318
-1.58738
-1.59151
-1.59559
-1.59961
-1.60357
-1.60748
-1.61133
-1.61511
-1.61885
-1.62252
-1.62614
-1.6297
-1.6332
-1.63665
-1.64004
-1.64338
-1.64666
-1.64989
-1.65307
-1.65619
-1.65926
-1.66228
-1.66525
-1.66817
-1.67103
-1.67385
-1.67662
-1.67934
-1.68202
-1.68464
-1.68723
-1.68976
-1.69225
-1.6947
-1.6971
-1.69946
-1.70178
-1.70406
-1.7063
-1.70849
-1.71065
-1.71277
-1.71485
-1.71689
-1.7189
-1.72087
-1.7228
-1.7247
-1.72656
-1.72839
-1.73019
-1.73195
-1.73368
-1.73538
-1.73705
-1.73869
-1.7403
-1.74187
-1.74338
-1.32986
-1.32965
-1.32996
-1.33065
-1.33169
-1.33307
-1.33479
-1.33681
-1.33912
-1.3417
-1.34454
-1.34762
-1.35093
-1.35444
-1.35815
-1.36203
-1.36609
-1.37029
-1.37464
-1.37912
-1.38372
-1.38842
-1.39322
-1.3981
-1.40306
-1.40809
-1.41318
-1.41832
-1.4235
-1.42871
-1.43396
-1.43923
-1.44451
-1.4498
-1.4551
-1.46039
-1.46568
-1.47096
-1.47623
-1.48147
-1.4867
-1.49189
-1.49706
-1.5022
-1.5073
-1.51236
-1.51738
-1.52236
-1.5273
-1.53219
-1.53703
-1.54182
-1.54656
-1.55125
-1.55588
-1.56047
-1.56499
-1.56946
-1.57388
-1.57823
-1.58253
-1.58678
-1.59096
-1.59509
-1.59915
-1.60316
-1.60711
-1.61101
-1.61484
-1.61862
-1.62234
-1.626
-1.62961
-1.63316
-1.63665
-1.64008
-1.64347
-1.64679
-1.65006
-1.65328
-1.65645
-1.65956
-1.66262
-1.66562
-1.66858
-1.67149
-1.67434
-1.67715
-1.67991
-1.68262
-1.68528
-1.6879
-1.69047
-1.693
-1.69548
-1.69792
-1.70031
-1.70267
-1.70498
-1.70725
-1.70947
-1.71166
-1.71381
-1.71592
-1.71799
-1.72003
-1.72203
-1.72399
-1.72592
-1.72781
-1.72966
-1.73149
-1.73328
-1.73504
-1.73676
-1.73846
-1.74012
-1.74175
-1.74335
-1.74488
-1.32763
-1.32739
-1.32767
-1.32833
-1.32934
-1.3307
-1.33239
-1.3344
-1.33669
-1.33927
-1.3421
-1.34517
-1.34848
-1.35199
-1.3557
-1.35959
-1.36365
-1.36787
-1.37223
-1.37673
-1.38134
-1.38606
-1.39088
-1.39579
-1.40078
-1.40583
-1.41095
-1.41612
-1.42133
-1.42658
-1.43186
-1.43717
-1.44249
-1.44782
-1.45316
-1.4585
-1.46383
-1.46915
-1.47446
-1.47975
-1.48502
-1.49027
-1.49548
-1.50067
-1.50581
-1.51093
-1.516
-1.52103
-1.52601
-1.53095
-1.53584
-1.54069
-1.54548
-1.55022
-1.5549
-1.55953
-1.56411
-1.56863
-1.5731
-1.57751
-1.58186
-1.58615
-1.59038
-1.59456
-1.59868
-1.60273
-1.60674
-1.61068
-1.61456
-1.61839
-1.62215
-1.62586
-1.62951
-1.63311
-1.63665
-1.64013
-1.64355
-1.64692
-1.65024
-1.6535
-1.65671
-1.65986
-1.66296
-1.66601
-1.66901
-1.67196
-1.67485
-1.6777
-1.6805
-1.68325
-1.68595
-1.68861
-1.69121
-1.69378
-1.6963
-1.69877
-1.7012
-1.70359
-1.70593
-1.70823
-1.71049
-1.71271
-1.7149
-1.71704
-1.71914
-1.72121
-1.72324
-1.72523
-1.72718
-1.7291
-1.73099
-1.73284
-1.73466
-1.73644
-1.7382
-1.73992
-1.74161
-1.74327
-1.74489
-1.74644
-1.32532
-1.32505
-1.32529
-1.32592
-1.3269
-1.32824
-1.32992
-1.3319
-1.33418
-1.33675
-1.33957
-1.34264
-1.34594
-1.34945
-1.35317
-1.35706
-1.36113
-1.36536
-1.36974
-1.37425
-1.37888
-1.38362
-1.38846
-1.39339
-1.39841
-1.40349
-1.40864
-1.41384
-1.41909
-1.42437
-1.42969
-1.43503
-1.44039
-1.44577
-1.45115
-1.45653
-1.4619
-1.46727
-1.47263
-1.47797
-1.48328
-1.48858
-1.49384
-1.49907
-1.50427
-1.50944
-1.51456
-1.51964
-1.52468
-1.52967
-1.53461
-1.53951
-1.54435
-1.54914
-1.55388
-1.55857
-1.5632
-1.56777
-1.57229
-1.57675
-1.58115
-1.5855
-1.58978
-1.59401
-1.59818
-1.60229
-1.60634
-1.61033
-1.61427
-1.61814
-1.62196
-1.62571
-1.62942
-1.63306
-1.63664
-1.64017
-1.64364
-1.64706
-1.65042
-1.65373
-1.65698
-1.66018
-1.66332
-1.66642
-1.66946
-1.67245
-1.67538
-1.67827
-1.68111
-1.6839
-1.68664
-1.68934
-1.69198
-1.69458
-1.69714
-1.69965
-1.70212
-1.70454
-1.70692
-1.70926
-1.71155
-1.71381
-1.71602
-1.7182
-1.72033
-1.72243
-1.72449
-1.72651
-1.7285
-1.73045
-1.73237
-1.73425
-1.73609
-1.73791
-1.73969
-1.74144
-1.74315
-1.74484
-1.74648
-1.74806
-1.32294
-1.32262
-1.32283
-1.32343
-1.32439
-1.3257
-1.32735
-1.32932
-1.33159
-1.33414
-1.33696
-1.34002
-1.34332
-1.34683
-1.35054
-1.35445
-1.35853
-1.36277
-1.36716
-1.37168
-1.37633
-1.38109
-1.38596
-1.39092
-1.39596
-1.40107
-1.40625
-1.41148
-1.41676
-1.42209
-1.42744
-1.43282
-1.43822
-1.44364
-1.44906
-1.45449
-1.45991
-1.46533
-1.47073
-1.47612
-1.48148
-1.48683
-1.49214
-1.49743
-1.50268
-1.50789
-1.51307
-1.5182
-1.52329
-1.52834
-1.53334
-1.53829
-1.54319
-1.54803
-1.55283
-1.55757
-1.56225
-1.56688
-1.57145
-1.57597
-1.58042
-1.58482
-1.58916
-1.59344
-1.59766
-1.60183
-1.60593
-1.60998
-1.61396
-1.61789
-1.62175
-1.62556
-1.62931
-1.63301
-1.63664
-1.64022
-1.64374
-1.6472
-1.65061
-1.65397
-1.65726
-1.66051
-1.6637
-1.66684
-1.66992
-1.67295
-1.67593
-1.67887
-1.68175
-1.68458
-1.68736
-1.69009
-1.69278
-1.69542
-1.69802
-1.70057
-1.70307
-1.70553
-1.70795
-1.71032
-1.71265
-1.71494
-1.71719
-1.7194
-1.72157
-1.7237
-1.72579
-1.72785
-1.72987
-1.73185
-1.7338
-1.73571
-1.73758
-1.73943
-1.74123
-1.74301
-1.74476
-1.74647
-1.74814
-1.74974
-1.32048
-1.32012
-1.3203
-1.32086
-1.32179
-1.32308
-1.32471
-1.32666
-1.32891
-1.33145
-1.33426
-1.33731
-1.34061
-1.34412
-1.34784
-1.35175
-1.35584
-1.36009
-1.36449
-1.36903
-1.3737
-1.37848
-1.38337
-1.38835
-1.39342
-1.39857
-1.40378
-1.40904
-1.41436
-1.41972
-1.42512
-1.43054
-1.43598
-1.44144
-1.44691
-1.45238
-1.45785
-1.46331
-1.46877
-1.4742
-1.47962
-1.48502
-1.49038
-1.49572
-1.50103
-1.5063
-1.51153
-1.51672
-1.52186
-1.52696
-1.53202
-1.53702
-1.54198
-1.54688
-1.55173
-1.55653
-1.56127
-1.56596
-1.57058
-1.57515
-1.57967
-1.58412
-1.58852
-1.59285
-1.59713
-1.60135
-1.60551
-1.6096
-1.61364
-1.61762
-1.62154
-1.6254
-1.62921
-1.63295
-1.63664
-1.64027
-1.64384
-1.64735
-1.65081
-1.65421
-1.65756
-1.66085
-1.66409
-1.66727
-1.6704
-1.67348
-1.6765
-1.67948
-1.6824
-1.68528
-1.6881
-1.69088
-1.69361
-1.69629
-1.69892
-1.70151
-1.70406
-1.70655
-1.70901
-1.71142
-1.71379
-1.71612
-1.7184
-1.72065
-1.72285
-1.72502
-1.72714
-1.72923
-1.73128
-1.7333
-1.73528
-1.73722
-1.73913
-1.741
-1.74284
-1.74464
-1.74642
-1.74816
-1.74986
-1.75148
-1.31794
-1.31755
-1.31769
-1.31822
-1.31912
-1.32038
-1.32199
-1.32392
-1.32615
-1.32868
-1.33147
-1.33452
-1.33781
-1.34133
-1.34505
-1.34897
-1.35306
-1.35732
-1.36174
-1.3663
-1.37098
-1.37579
-1.3807
-1.38571
-1.39081
-1.39598
-1.40123
-1.40653
-1.41188
-1.41728
-1.42272
-1.42818
-1.43367
-1.43917
-1.44468
-1.4502
-1.45572
-1.46123
-1.46674
-1.47223
-1.4777
-1.48315
-1.48857
-1.49396
-1.49932
-1.50465
-1.50993
-1.51518
-1.52038
-1.52554
-1.53065
-1.53572
-1.54073
-1.54569
-1.5506
-1.55546
-1.56026