/*--------------------------------*- C++ -*----------------------------------*\
  =========                 |
  \\      /  F ield         | OpenFOAM: The Open Source CFD Toolbox
   \\    /   O peration     | Website:  https://openfoam.org
    \\  /    A nd           | Version:  9
     \\/     M anipulation  |
\*---------------------------------------------------------------------------*/
FoamFile
{
    format      ascii;
    class       volScalarField;
    location    "0.008099";
    object      p;
}
// * * * * * * * * * * * * * * * * * * * * * * * * * * * * * * * * * * * * * //

dimensions      [1 -1 -2 0 0 0 0];

internalField   nonuniform List<scalar> 
23450
(
164310
164307
164306
164305
164304
164303
164303
164302
164301
164301
164300
164300
164299
164299
164298
164298
164298
164297
164297
164297
164308
164307
164306
164305
164304
164303
164303
164302
164301
164301
164300
164300
164299
164299
164299
164298
164298
164297
164297
164297
164308
164307
164306
164305
164304
164303
164303
164302
164302
164301
164301
164300
164300
164299
164299
164298
164298
164297
164297
164297
164308
164307
164306
164305
164304
164304
164303
164302
164302
164301
164301
164300
164300
164299
164299
164298
164298
164298
164297
164297
164308
164307
164306
164305
164304
164304
164303
164302
164302
164301
164301
164300
164300
164299
164299
164299
164298
164298
164297
164297
164307
164307
164306
164305
164304
164304
164303
164302
164302
164301
164301
164300
164300
164300
164299
164299
164298
164298
164297
164297
164307
164307
164306
164305
164304
164304
164303
164303
164302
164301
164301
164301
164300
164300
164299
164299
164298
164298
164298
164297
164307
164307
164306
164305
164304
164304
164303
164303
164302
164302
164301
164301
164300
164300
164299
164299
164299
164298
164298
164297
164307
164307
164306
164305
164305
164304
164303
164303
164302
164302
164301
164301
164300
164300
164300
164299
164299
164298
164298
164298
164307
164307
164306
164305
164305
164304
164303
164303
164302
164302
164301
164301
164300
164300
164300
164299
164299
164299
164298
164298
164307
164307
164306
164305
164305
164304
164304
164303
164302
164302
164301
164301
164301
164300
164300
164299
164299
164299
164298
164298
164307
164307
164306
164305
164305
164304
164304
164303
164303
164302
164302
164301
164301
164300
164300
164300
164299
164299
164299
164298
164307
164307
164306
164305
164305
164304
164304
164303
164303
164302
164302
164301
164301
164300
164300
164300
164299
164299
164299
164298
164307
164307
164306
164306
164305
164304
164304
164303
164303
164302
164302
164301
164301
164301
164300
164300
164300
164299
164299
164299
164307
164307
164306
164306
164305
164304
164304
164303
164303
164302
164302
164302
164301
164301
164300
164300
164300
164299
164299
164299
164308
164307
164306
164306
164305
164305
164304
164304
164303
164303
164302
164302
164301
164301
164301
164300
164300
164300
164299
164299
164308
164307
164306
164306
164305
164305
164304
164304
164303
164303
164302
164302
164301
164301
164301
164300
164300
164300
164299
164299
164308
164307
164306
164306
164305
164305
164304
164304
164303
164303
164302
164302
164302
164301
164301
164300
164300
164300
164300
164299
164308
164307
164307
164306
164305
164305
164304
164304
164303
164303
164303
164302
164302
164301
164301
164301
164300
164300
164300
164299
164309
164307
164307
164306
164305
164305
164304
164304
164304
164303
164303
164302
164302
164302
164301
164301
164301
164300
164300
164300
164298
164298
164299
164300
164300
164300
164300
164299
164298
164295
164291
164287
164281
164274
164265
164254
164241
164223
164200
164167
164297
164297
164298
164298
164299
164299
164298
164298
164296
164294
164290
164285
164279
164271
164261
164249
164233
164213
164185
164146
164297
164297
164297
164297
164297
164297
164297
164296
164295
164292
164289
164284
164277
164269
164259
164246
164228
164206
164177
164138
164297
164297
164297
164296
164296
164296
164296
164295
164293
164291
164287
164282
164276
164268
164257
164243
164225
164201
164170
164128
164297
164297
164296
164296
164296
164295
164295
164294
164292
164290
164286
164281
164275
164267
164256
164242
164223
164198
164164
164117
164297
164296
164296
164296
164295
164295
164294
164293
164291
164289
164286
164281
164275
164266
164255
164241
164221
164195
164159
164109
164297
164296
164296
164296
164295
164295
164294
164293
164291
164289
164285
164281
164275
164266
164255
164241
164221
164194
164156
164103
164297
164297
164296
164296
164295
164295
164294
164292
164291
164289
164285
164281
164275
164267
164256
164242
164221
164194
164155
164098
164297
164297
164296
164296
164295
164295
164294
164292
164291
164289
164286
164282
164276
164268
164257
164243
164223
164194
164154
164095
164297
164297
164296
164296
164295
164295
164294
164293
164291
164289
164286
164282
164277
164269
164259
164244
164224
164196
164154
164093
164298
164297
164297
164296
164296
164295
164294
164293
164291
164289
164287
164283
164278
164271
164261
164246
164226
164198
164155
164092
164298
164297
164297
164296
164296
164295
164294
164293
164292
164290
164287
164284
164279
164272
164262
164249
164229
164200
164157
164092
164298
164298
164297
164297
164296
164295
164294
164293
164292
164290
164288
164285
164280
164273
164264
164251
164232
164203
164160
164094
164298
164298
164297
164297
164296
164296
164295
164294
164292
164291
164289
164285
164281
164275
164266
164253
164235
164207
164163
164096
164298
164298
164298
164297
164296
164296
164295
164294
164293
164291
164289
164286
164282
164276
164268
164256
164238
164210
164167
164099
164299
164298
164298
164297
164297
164296
164295
164294
164293
164292
164290
164287
164283
164278
164270
164259
164241
164214
164171
164103
164299
164298
164298
164297
164297
164296
164296
164295
164294
164292
164290
164288
164284
164279
164272
164261
164244
164218
164175
164107
164299
164299
164298
164298
164297
164297
164296
164295
164294
164293
164291
164289
164285
164281
164274
164263
164247
164222
164181
164113
164299
164299
164298
164298
164297
164297
164296
164295
164294
164293
164292
164289
164286
164282
164276
164266
164250
164226
164185
164117
164299
164299
164299
164298
164298
164297
164296
164296
164295
164294
164292
164290
164288
164284
164278
164269
164254
164231
164192
164127
164120
164053
163975
163879
163761
163611
163416
163158
162810
162331
161661
160708
159330
157319
154350
150043
143742
135592
124224
115253
164098
164030
163949
163854
163735
163585
163388
163127
162775
162292
161616
160655
159268
157246
154268
149957
143667
135545
124229
115361
164090
164023
163943
163850
163733
163582
163385
163123
162771
162287
161609
160645
159254
157227
154247
149941
143665
135556
124276
115576
164078
164011
163930
163836
163719
163568
163370
163108
162754
162267
161586
160619
159225
157196
154216
149912
143646
135562
124319
115805
164067
164000
163920
163828
163712
163561
163363
163100
162744
162256
161573
160603
159205
157173
154190
149887
143632
135568
124353
116025
164057
163991
163911
163819
163703
163552
163353
163088
162732
162241
161555
160582
159181
157145
154160
149859
143615
135572
124378
116218
164047
163982
163903
163812
163696
163544
163345
163080
162722
162229
161541
160564
159159
157119
154132
149832
143597
135574
124395
116399
164038
163974
163896
163805
163690
163538
163338
163072
162712
162217
161526
160546
159137
157093
154103
149803
143577
135575
124405
116582
164030
163967
163890
163800
163685
163532
163332
163065
162704
162207
161513
160529
159116
157068
154074
149774
143556
135574
124409
116766
164024
163961
163886
163796
163681
163528
163327
163059
162697
162198
161501
160514
159096
157043
154046
149745
143532
135570
124412
116950
164019
163957
163883
163793
163678
163525
163324
163055
162691
162190
161491
160500
159077
157019
154018
149715
143508
135563
124416
117126
164015
163955
163881
163792
163676
163524
163322
163052
162687
162184
161482
160487
159060
156997
153991
149685
143481
135552
124422
117292
164014
163953
163881
163791
163676
163523
163321
163051
162684
162179
161475
160476
159045
156976
153964
149654
143453
135539
124429
117444
164013
163953
163881
163792
163677
163524
163322
163051
162682
162176
161469
160467
159030
156956
153938
149623
143423
135521
124435
117582
164013
163954
163882
163794
163679
163526
163324
163052
162683
162173
161464
160458
159017
156936
153911
149590
143390
135500
124439
117703
164015
163956
163885
163797
163682
163530
163327
163055
162684
162174
161461
160451
159004
156917
153885
149556
143354
135475
124443
117798
164017
163958
163887
163799
163684
163532
163330
163058
162687
162174
161456
160443
158991
156896
153857
149520
143315
135446
124445
117859
164023
163964
163893
163806
163691
163538
163335
163062
162691
162176
161456
160438
158980
156877
153829
149483
143274
135415
124446
117888
164025
163965
163895
163808
163694
163541
163338
163064
162692
162177
161453
160428
158966
156857
153800
149446
143232
135380
124441
117893
164039
163977
163906
163819
163704
163552
163348
163073
162698
162180
161455
160427
158953
156834
153764
149395
143172
135317
124400
117852
99986.2
99986.3
99986.6
99986.8
99986.9
99987.1
99987.2
99987.4
99987.5
99987.7
99987.8
99988
99988.1
99988.3
99988.4
99988.5
99988.7
99988.8
99988.9
99989.1
99989.2
99989.3
99989.5
99989.6
99989.7
99989.8
99990
99990.1
99990.2
99990.3
99990.4
99990.5
99990.7
99990.8
99990.9
99991
99991.1
99991.2
99991.3
99991.4
99991.5
99991.6
99991.7
99991.8
99991.9
99992
99992.1
99992.2
99992.3
99992.4
99992.5
99992.6
99992.7
99992.8
99992.9
99993
99993.1
99993.1
99993.2
99993.3
99993.4
99993.5
99993.6
99993.7
99993.7
99993.8
99993.9
99994
99994
99994.1
100002
100002
100002
100002
100002
100002
100002
100002
100002
100002
100002
100002
100003
100003
100003
100003
100003
100003
100003
100003
100003
100003
100003
100003
100003
100003
100003
100003
100003
100003
100003
100003
100004
100004
100004
100004
100004
100004
100004
100004
100004
100004
100004
100004
100004
100004
100004
100004
100004
100004
100004
100004
100004
100004
100004
100004
100004
100004
100004
100005
100005
100005
100005
100005
100005
100005
100005
100005
100005
100005
100016
100016
100016
100016
100016
100016
100016
100015
100015
100015
100015
100015
100015
100015
100015
100015
100015
100015
100015
100015
100015
100015
100015
100015
100015
100015
100015
100015
100014
100014
100014
100014
100014
100014
100014
100014
100014
100014
100014
100014
100014
100014
100014
100014
100014
100014
100014
100014
100014
100014
100014
100014
100014
100013
100013
100013
100013
100013
100013
100013
100013
100013
100013
100013
100013
100013
100013
100013
100013
100013
100015
100015
100015
100015
100015
100015
100015
100015
100015
100015
100015
100015
100015
100016
100016
100016
100016
100016
100016
100016
100016
100016
100016
100016
100016
100016
100016
100016
100016
100015
100015
100015
100015
100015
100015
100015
100015
100015
100015
100015
100015
100015
100015
100015
100015
100015
100015
100015
100015
100015
100015
100015
100015
100015
100015
100015
100015
100015
100015
100015
100015
100015
100015
100015
100015
100015
100015
100015
100015
100015
100026
100025
100025
100025
100025
100025
100025
100025
100025
100025
100025
100025
100025
100025
100025
100025
100025
100025
100025
100025
100025
100025
100025
100025
100025
100025
100025
100025
100025
100025
100024
100024
100024
100024
100024
100024
100024
100024
100024
100024
100024
100024
100024
100024
100024
100024
100024
100024
100024
100024
100024
100024
100024
100024
100023
100023
100023
100023
100023
100023
100023
100023
100023
100023
100023
100023
100023
100023
100023
100023
100029
100029
100029
100029
100028
100028
100028
100028
100028
100028
100028
100028
100028
100028
100028
100028
100028
100028
100028
100028
100028
100028
100028
100028
100028
100028
100028
100028
100028
100028
100028
100028
100028
100028
100028
100028
100027
100027
100027
100027
100027
100027
100027
100027
100027
100027
100027
100027
100027
100027
100027
100027
100027
100027
100027
100027
100027
100027
100027
100026
100026
100026
100026
100026
100026
100026
100026
100026
100026
100026
100036
100036
100036
100036
100036
100036
100036
100036
100036
100036
100036
100036
100036
100036
100036
100036
100036
100036
100036
100035
100035
100035
100035
100035
100035
100035
100035
100035
100035
100035
100035
100035
100035
100035
100035
100035
100034
100034
100034
100034
100034
100034
100034
100034
100034
100034
100034
100034
100034
100034
100033
100033
100033
100033
100033
100033
100033
100033
100033
100033
100033
100033
100033
100032
100032
100032
100032
100032
100032
100032
100042
100042
100042
100042
100042
100042
100042
100041
100041
100041
100041
100041
100041
100041
100041
100041
100041
100041
100041
100041
100041
100041
100040
100040
100040
100040
100040
100040
100040
100040
100040
100040
100040
100040
100040
100039
100039
100039
100039
100039
100039
100039
100039
100039
100039
100039
100038
100038
100038
100038
100038
100038
100038
100038
100038
100037
100037
100037
100037
100037
100037
100037
100037
100037
100037
100036
100036
100036
100036
100036
100050
100049
100049
100049
100049
100049
100049
100049
100049
100049
100049
100049
100049
100048
100048
100048
100048
100048
100048
100048
100048
100048
100048
100047
100047
100047
100047
100047
100047
100047
100047
100046
100046
100046
100046
100046
100046
100046
100046
100045
100045
100045
100045
100045
100045
100045
100044
100044
100044
100044
100044
100044
100044
100043
100043
100043
100043
100043
100043
100042
100042
100042
100042
100042
100042
100041
100041
100041
100041
100041
100057
100057
100057
100057
100057
100056
100056
100056
100056
100056
100056
100056
100056
100055
100055
100055
100055
100055
100055
100055
100054
100054
100054
100054
100054
100054
100053
100053
100053
100053
100053
100053
100052
100052
100052
100052
100052
100051
100051
100051
100051
100051
100050
100050
100050
100050
100050
100049
100049
100049
100049
100048
100048
100048
100048
100048
100047
100047
100047
100047
100047
100046
100046
100046
100046
100045
100045
100045
100045
100045
100066
100066
100066
100065
100065
100065
100065
100065
100065
100065
100064
100064
100064
100064
100064
100063
100063
100063
100063
100062
100062
100062
100062
100062
100061
100061
100061
100061
100060
100060
100060
100059
100059
100059
100059
100058
100058
100058
100057
100057
100057
100057
100056
100056
100056
100055
100055
100055
100054
100054
100054
100054
100053
100053
100053
100052
100052
100052
100051
100051
100051
100051
100050
100050
100050
100049
100049
100049
100048
100048
100076
100075
100075
100075
100075
100075
100074
100074
100074
100074
100073
100073
100073
100073
100072
100072
100072
100071
100071
100071
100070
100070
100070
100069
100069
100069
100068
100068
100067
100067
100067
100066
100066
100065
100065
100065
100064
100064
100063
100063
100062
100062
100062
100061
100061
100060
100060
100059
100059
100059
100058
100058
100057
100057
100056
100056
100056
100055
100055
100054
100054
100053
100053
100053
100052
100052
100051
100051
100051
100050
100087
100087
100087
100086
100086
100086
100085
100085
100085
100084
100084
100084
100083
100083
100082
100082
100082
100081
100081
100080
100080
100079
100079
100078
100078
100077
100076
100076
100075
100075
100074
100074
100073
100072
100072
100071
100071
100070
100069
100069
100068
100067
100067
100066
100066
100065
100064
100064
100063
100062
100062
100061
100061
100060
100059
100059
100058
100058
100057
100056
100056
100055
100055
100054
100054
100053
100053
100052
100052
100051
100100
100100
100100
100099
100099
100098
100098
100098
100097
100097
100096
100096
100095
100094
100094
100093
100093
100092
100091
100090
100090
100089
100088
100087
100087
100086
100085
100084
100083
100083
100082
100081
100080
100079
100078
100077
100076
100075
100075
100074
100073
100072
100071
100070
100069
100068
100067
100066
100065
100065
100064
100063
100062
100061
100060
100060
100059
100058
100057
100056
100056
100055
100054
100053
100053
100052
100051
100051
100050
100050
100116
100115
100115
100114
100114
100113
100113
100112
100112
100111
100110
100110
100109
100108
100107
100106
100105
100104
100103
100102
100101
100100
100099
100098
100097
100096
100095
100094
100092
100091
100090
100089
100087
100086
100085
100083
100082
100081
100079
100078
100077
100075
100074
100073
100072
100070
100069
100068
100066
100065
100064
100063
100062
100060
100059
100058
100057
100056
100055
100054
100053
100052
100051
100050
100049
100049
100048
100047
100046
100045
100134
100133
100132
100132
100131
100131
100130
100129
100129
100128
100127
100126
100125
100124
100123
100121
100120
100119
100117
100116
100115
100113
100112
100110
100108
100107
100105
100103
100101
100100
100098
100096
100094
100092
100090
100088
100087
100085
100083
100081
100079
100077
100075
100073
100071
100070
100068
100066
100064
100063
100061
100059
100058
100056
100055
100053
100052
100050
100049
100048
100046
100045
100044
100043
100042
100041
100040
100039
100038
100038
100154
100153
100153
100152
100152
100151
100150
100149
100148
100147
100146
100145
100144
100142
100141
100139
100137
100136
100134
100132
100130
100128
100126
100124
100121
100119
100117
100114
100112
100109
100106
100104
100101
100099
100096
100093
100090
100088
100085
100082
100079
100077
100074
100072
100069
100066
100064
100061
100059
100057
100054
100052
100050
100048
100046
100044
100042
100041
100039
100037
100036
100034
100033
100032
100031
100030
100029
100028
100027
100026
100177
100176
100176
100176
100175
100174
100173
100172
100171
100170
100169
100167
100165
100164
100162
100160
100158
100155
100153
100150
100148
100145
100142
100139
100136
100133
100129
100126
100122
100119
100115
100111
100108
100104
100100
100096
100092
100088
100084
100080
100077
100073
100069
100065
100062
100058
100055
100051
100048
100045
100042
100039
100036
100033
100031
100028
100026
100024
100022
100020
100018
100017
100015
100014
100013
100012
100011
100010
100009
100009
100202
100202
100202
100201
100201
100200
100199
100198
100197
100196
100194
100193
100191
100189
100186
100184
100181
100178
100175
100172
100168
100165
100161
100157
100153
100148
100144
100139
100134
100129
100124
100119
100114
100108
100103
100098
100092
100087
100081
100076
100071
100065
100060
100055
100050
100045
100041
100036
100032
100028
100024
100020
100016
100013
100010
100007
100004
100002
99999.3
99997.2
99995.4
99993.8
99992.4
99991.2
99990.2
99989.4
99988.8
99988.5
99988.2
99988.3
100229
100229
100229
100229
100229
100228
100228
100227
100226
100224
100223
100221
100219
100216
100214
100211
100208
100204
100200
100196
100192
100187
100182
100177
100172
100166
100160
100153
100147
100140
100133
100126
100119
100112
100104
100097
100089
100081
100074
100066
100059
100052
100044
100037
100031
100024
100017
100011
100005
99999.8
99994.6
99989.6
99985.1
99980.8
99977
99973.4
99970.4
99967.7
99965.5
99963.6
99962
99960.7
99959.7
99958.9
99958.5
99958.3
99958.4
99958.7
99959.2
99960
100256
100257
100257
100258
100258
100258
100258
100257
100256
100255
100253
100252
100249
100247
100244
100241
100237
100233
100229
100224
100218
100213
100207
100200
100193
100186
100178
100170
100161
100152
100143
100133
100123
100113
100103
100093
100082
100072
100062
100051
100041
100031
100021
100012
100003
99994.4
99986.2
99978.5
99971.4
99964.8
99958.8
99953.2
99947.9
99942.8
99938.1
99933.9
99930.3
99927.4
99924.6
99921.9
99919.9
99918.6
99918
99918
99918.5
99919.6
99921.2
99923.4
99926
99928.7
100283
100284
100285
100286
100287
100288
100288
100288
100287
100286
100285
100284
100282
100279
100276
100273
100269
100264
100260
100254
100248
100241
100234
100226
100217
100208
100198
100188
100176
100165
100152
100140
100126
100113
100099
100085
100071
100056
100042
100028
100014
100001
99988.3
99975.6
99963.2
99950.6
99938.1
99926.2
99915.4
99905.6
99897.2
99890.8
99885.1
99879.8
99875.1
99871.4
99868.5
99866.5
99865.3
99865.1
99865.7
99866.9
99868.3
99870.1
99872.3
99874.8
99877.9
99881.3
99885.1
99887.6
100308
100310
100312
100314
100316
100317
100318
100318
100318
100318
100317
100316
100314
100312
100309
100306
100302
100297
100292
100286
100280
100272
100264
100254
100244
100233
100221
100208
100193
100178
100162
100145
100127
100109
100089
100070
100050
100030
100009
99987.6
99967
99947.5
99929.6
99914.5
99901.3
99888.6
99876.7
99865.9
99856.5
99848.2
99841.1
99834.7
99829.3
99824.5
99820.3
99816.9
99814.7
99813.4
99813
99813.4
99814.5
99816.3
99818.7
99821.7
99825.2
99829.3
99833.9
99838.9
99844
99846.3
100331
100334
100337
100340
100342
100344
100345
100346
100347
100347
100347
100346
100345
100344
100341
100339
100335
100331
100326
100320
100313
100305
100296
100285
100274
100261
100246
100230
100212
100192
100171
100147
100122
100096
100069
100041
100013
99986.8
99963.9
99941.9
99919.1
99897.3
99877.4
99859.2
99842.4
99827.1
99813.7
99802
99791.9
99783.6
99776.7
99771.5
99767.8
99765.3
99763.9
99763.6
99764.3
99765.9
99768.3
99771.5
99775.4
99779.9
99785
99790.5
99796.5
99802.8
99809.5
99816.6
99822.9
99826.1
100352
100356
100360
100363
100366
100368
100370
100372
100373
100374
100375
100375
100374
100373
100372
100370
100367
100363
100359
100353
100347
100339
100329
100319
100306
100291
100274
100255
100232
100207
100178
100147
100113
100078
100043
100008
99974.2
99942.7
99913
99885
99859.3
99836.4
99816.4
99799.1
99784.2
99771.7
99761.3
99752.9
99746.3
99741.3
99737.8
99735.6
99734.5
99734.5
99735.5
99737.3
99739.9
99743.2
99747.1
99751.6
99756.7
99762.3
99768.4
99774.8
99781.7
99789
99796.6
99804.6
99811.5
99815.6
100371
100375
100379
100383
100387
100389
100392
100394
100396
100397
100399
100399
100400
100399
100399
100398
100396
100393
100390
100385
100380
100372
100364
100353
100340
100324
100305
100282
100254
100220
100182
100139
100095
100052
100009
99969
99931
99896.5
99865.8
99838.9
99815.5
99795.3
99778.2
99763.7
99751.7
99741.8
99733.8
99727.5
99722.8
99719.4
99717.3
99716.3
99716.3
99717.3
99719.2
99721.8
99725.2
99729.2
99733.9
99739.1
99744.9
99751.1
99757.8
99765
99772.4
99780.3
99788.5
99796.9
99804.3
99809
100387
100392
100397
100401
100404
100408
100411
100413
100415
100417
100419
100420
100421
100422
100422
100422
100421
100420
100417
100414
100410
100405
100397
100388
100375
100359
100339
100311
100276
100232
100182
100129
100077
100027
99979.7
99937.2
99899.5
99866.5
99837.8
99813.1
99791.9
99773.8
99758.5
99745.6
99735
99726.3
99719.5
99714.2
99710.4
99707.8
99706.5
99706.2
99706.9
99708.5
99710.9
99714
99717.9
99722.3
99727.4
99732.9
99739
99745.5
99752.4
99759.7
99767.4
99775.3
99783.7
99792.4
99799.8
99805
100401
100407
100412
100416
100420
100423
100426
100429
100431
100433
100435
100437
100438
100440
100441
100441
100442
100442
100441
100440
100438
100434
100429
100421
100410
100395
100373
100341
100297
100242
100182
100122
100064
100011
99963.4
99921.7
99885.3
99853.6
99826.2
99802.5
99782.2
99764.9
99750.3
99738
99727.9
99719.7
99713.3
99708.4
99704.9
99702.6
99701.6
99701.5
99702.5
99704.3
99706.9
99710.3
99714.3
99718.9
99724
99729.7
99735.8
99742.4
99749.3
99756.6
99764.2
99772.1
99780.4
99789
99796.5
99802
100414
100420
100425
100429
100433
100436
100439
100441
100444
100446
100448
100450
100452
100454
100456
100457
100459
100460
100461
100461
100461
100459
100457
100452
100443
100430
100408
100372
100319
100255
100187
100122
100062
100008
99961.1
99919.8
99883.7
99852.2
99824.9
99801.3
99780.9
99763.6
99748.8
99736.5
99726.3
99718.1
99711.6
99706.7
99703.2
99701
99700
99700
99701
99702.9
99705.6
99709
99713.1
99717.7
99722.9
99728.5
99734.6
99741.1
99747.9
99755
99762.3
99769.9
99777.9
99786.2
99793.7
99799.8
100426
100432
100436
100440
100444
100447
100449
100452
100454
100456
100458
100460
100463
100465
100467
100469
100472
100474
100476
100478
100479
100480
100480
100478
100473
100462
100441
100402
100344
100273
100200
100132
100071
100017
99969.3
99927.3
99890.4
99858.2
99830.1
99805.8
99784.8
99766.8
99751.5
99738.7
99728.1
99719.5
99712.7
99707.5
99703.9
99701.6
99700.5
99700.5
99701.5
99703.3
99706
99709.4
99713.5
99718.1
99723.2
99728.8
99734.8
99741.1
99747.7
99754.5
99761.5
99768.7
99776.2
99784
99791.4
99798.1
100436
100442
100447
100450
100453
100456
100458
100460
100462
100464
100466
100468
100471
100473
100476
100478
100481
100484
100487
100490
100493
100496
100498
100499
100497
100490
100471
100433
100371
100297
100221
100152
100089
100033
99984.2
99940.8
99902.6
99869
99839.6
99814
99791.8
99772.8
99756.6
99743
99731.8
99722.7
99715.5
99710
99706.1
99703.6
99702.4
99702.2
99703.2
99705
99707.6
99711
99715.1
99719.7
99724.8
99730.3
99736.1
99742.2
99748.6
99755.1
99761.7
99768.3
99775
99782
99788.9
99795.8
100446
100452
100456
100459
100461
100463
100465
100466
100468
100470
100472
100474
100477
100479
100482
100485
100488
100492
100495
100499
100503
100507
100511
100515
100516
100512
100497
100462
100402
100326
100249
100177
100113
100055
100004
99958.6
99918.3
99882.7
99851.5
99824.3
99800.6
99780.4
99763.1
99748.7
99736.7
99727
99719.3
99713.5
99709.3
99706.6
99705.2
99705
99705.8
99707.6
99710.3
99713.6
99717.7
99722.3
99727.3
99732.8
99738.5
99744.4
99750.5
99756.6
99762.7
99768.6
99774.5
99780.4
99786.4
99792.8
100456
100461
100465
100467
100468
100469
100471
100472
100473
100475
100477
100479
100481
100484
100487
100490
100494
100497
100501
100506
100510
100515
100520
100525
100528
100527
100517
100489
100434
100360
100281
100207
100140
100081
100027
99978.9
99936.1
99898.2
99864.8
99835.6
99810.3
99788.7
99770.3
99754.9
99742.2
99731.9
99723.7
99717.5
99713.1
99710.2
99708.7
99708.4
99709.2
99711
99713.6
99717
99721.1
99725.7
99730.7
99736.1
99741.8
99747.5
99753.3
99759
99764.5
99769.7
99774.7
99779.4
99784.1
99789.7
100465
100470
100472
100473
100474
100475
100475
100476
100477
100478
100480
100482
100485
100488
100491
100494
100498
100501
100506
100510
100515
100520
100525
100531
100536
100537
100531
100510
100464
100394
100316
100240
100171
100108
100052
100001
99954.9
99914.2
99878.4
99847.1
99820.1
99797
99777.5
99761.2
99747.7
99736.9
99728.3
99721.8
99717.2
99714.1
99712.5
99712.2
99713.1
99714.9
99717.6
99721
99725.2
99729.8
99734.9
99740.2
99745.7
99751.3
99756.8
99762.1
99767
99771.5
99775.6
99779.2
99782.2
99786.4
100474
100478
100479
100479
100479
100479
100479
100479
100480
100481
100483
100485
100487
100490
100493
100497
100501
100504
100509
100513
100517
100522
100528
100534
100539
100541
100538
100525
100489
100428
100351
100274
100203
100138
100078
100023
99973.8
99930.1
99891.7
99858.3
99829.5
99805
99784.4
99767.2
99753.1
99741.7
99732.8
99726.1
99721.3
99718.1
99716.5
99716.2
99717.1
99719
99721.8
99725.4
99729.6
99734.4
99739.5
99744.8
99750.3
99755.7
99760.9
99765.7
99770.1
99773.8
99777.1
99779.7
99780.6
99782.9
100483
100485
100485
100484
100483
100482
100482
100482
100482
100483
100485
100487
100489
100492
100496
100499
100503
100507
100511
100515
100519
100524
100529
100535
100539
100541
100539
100532
100508
100458
100387
100310
100236
100167
100103
100045
99992.1
99945.2
99904.1
99868.5
99838
99812.2
99790.5
99772.6
99757.9
99746.1
99737
99730
99725.1
99721.9
99720.3
99720.1
99721.1
99723.2
99726.1
99729.9
99734.3
99739.2
99744.4
99749.8
99755.2
99760.4
99765.4
99769.9
99773.7
99776.5
99779
99780.9
99779.4
99778.5
100491
100492
100491
100489
100487
100485
100484
100484
100484
100485
100486
100488
100491
100494
100497
100501
100505
100508
100512
100516
100521
100525
100529
100534
100538
100539
100537
100534
100520
100482
100420
100345
100269
100197
100129
100066
100009
99958.9
99915.2
99877.5
99845.4
99818.4
99795.8
99777.2
99762
99749.9
99740.5
99733.4
99728.5
99725.3
99723.8
99723.6
99724.8
99727
99730.2
99734.2
99738.8
99743.9
99749.3
99754.9
99760.4
99765.6
99770.3
99774.5
99777.8
99779.8
99781.3
99782.8
99778.3
99772.6
100499
100498
100495
100492
100489
100487
100486
100485
100485
100486
100488
100490
100492
100495
100498
100502
100506
100510
100514
100518
100521
100525
100529
100532
100535
100536
100534
100532
100525
100501
100449
100379
100301
100225
100153
100086
100025
99971.2
99924.8
99885.1
99851.6
99823.5
99800.1
99780.9
99765.3
99753
99743.4
99736.2
99731.2
99728.1
99726.6
99726.6
99727.9
99730.4
99733.8
99738
99742.9
99748.3
99754
99759.8
99765.5
99770.8
99775.5
99779.6
99782.6
99783.6
99784.1
99785.9
99777.8
99763.9
100506
100503
100499
100495
100492
100489
100487
100486
100486
100487
100488
100490
100493
100496
100499
100503
100507
100511
100515
100519
100522
100525
100528
100530
100533
100533
100531
100528
100526
100512
100473
100410
100333
100253
100176
100104
100039
99981.7
99932.9
99891.4
99856.5
99827.5
99803.4
99783.7
99767.8
99755.2
99745.5
99738.3
99733.3
99730.2
99728.8
99728.9
99730.4
99733.1
99736.7
99741.2
99746.4
99752.1
99758.2
99764.3
99770.3
99775.8
99780.7
99784.9
99787.9
99788.1
99787.6
99790.4
99778.1
99751.1
100513
100508
100502
100497
100493
100490
100488
100487
100487
100488
100489
100491
100494
100497
100500
100504
100508
100512
100516
100519
100522
100525
100527
100529
100531
100531
100528
100525
100524
100518
100491
100436
100362
100279
100197
100120
100051
99990.5
99939.4
99896.3
99860.3
99830.5
99805.8
99785.8
99769.6
99756.8
99746.9
99739.7
99734.6
99731.6
99730.3
99730.5
99732.2
99735
99738.9
99743.6
99749.1
99755.1
99761.5
99768
99774.4
99780.3
99785.5
99790.1
99793.5
99793.1
99791.6
99796.6
99780
99732.3
100518
100512
100505
100499
100495
100491
100489
100488
100488
100488
100490
100492
100494
100497
100501
100505
100509
100513
100517
100520
100523
100525
100526
100528
100529
100530
100527
100523
100522
100519
100502
100458
100388
100303
100216
100134
100061
99997.7
99944.6
99900.1
99863.1
99832.5
99807.5
99787
99770.6
99757.7
99747.7
99740.4
99735.4
99732.3
99731.1
99731.4
99733.1
99736.1
99740.1
99745.1
99750.9
99757.2
99763.8
99770.7
99777.5
99783.9
99789.7
99794.9
99799
99798.3
99795.8
99804.3
99783.2
99704.8
100523
100515
100507
100501
100496
100492
100490
100488
100488
100489
100490
100492
100495
100498
100501
100505
100509
100513
100517
100520
100523
100524
100526
100527
100528