/*--------------------------------*- C++ -*----------------------------------*\
  =========                 |
  \\      /  F ield         | OpenFOAM: The Open Source CFD Toolbox
   \\    /   O peration     | Website:  https://openfoam.org
    \\  /    A nd           | Version:  9
     \\/     M anipulation  |
\*---------------------------------------------------------------------------*/
FoamFile
{
    format      ascii;
    class       volVectorField;
    location    "0.008099";
    object      U;
}
// * * * * * * * * * * * * * * * * * * * * * * * * * * * * * * * * * * * * * //

dimensions      [0 1 -1 0 0 0 0];

internalField   nonuniform List<vector> 
23450
(
(5.55186 -0.0301412 0)
(5.3464 0.0225001 1.23599e-17)
(5.06704 0.0378607 -1.89003e-17)
(4.79236 0.0437993 0)
(4.53683 0.0508788 0)
(4.29923 0.0534862 0)
(4.13012 0.0501133 0)
(4.01058 0.0500821 1.17376e-16)
(3.9028 0.0547052 -1.20437e-16)
(3.78839 0.0611927 0)
(3.66319 0.0676518 0)
(3.53264 0.0733559 0)
(3.40461 0.0780758 0)
(3.28569 0.0820445 0)
(3.17985 0.0854787 2.96451e-16)
(3.08328 0.0878322 -3.0289e-16)
(2.98407 0.0869033 0)
(2.84824 0.0792503 0)
(2.58013 0.0668768 0)
(1.90228 -0.0211936 0)
(5.60211 0.0231968 0)
(5.5621 0.0381495 4.95447e-18)
(5.503 0.0380989 -8.52607e-18)
(5.43575 0.0381035 0)
(5.36637 0.0376935 0)
(5.29555 0.0344748 0)
(5.20543 0.0287888 0)
(5.11305 0.0248003 0)
(5.02662 0.0244905 0)
(4.94753 0.0254322 0)
(4.8729 0.0265758 -7.577e-17)
(4.80071 0.0272346 7.97568e-17)
(4.73062 0.0270707 0)
(4.66334 0.0261826 0)
(4.59962 0.0252516 1.77381e-16)
(4.53985 0.0258617 -1.81257e-16)
(4.48064 0.0307695 -1.8441e-16)
(4.40874 0.0434959 3.72863e-16)
(4.31782 0.0910928 3.71236e-16)
(3.94418 0.159202 -3.45594e-16)
(5.60984 0.0211172 0)
(5.61405 0.0362829 0)
(5.61142 0.0398174 0)
(5.60009 0.0403214 0)
(5.5846 0.0402537 1.74566e-17)
(5.56619 0.0383003 -2.05656e-17)
(5.53048 0.0351736 0)
(5.47961 0.0325856 0)
(5.42433 0.0317249 0)
(5.37127 0.0321448 -5.4702e-17)
(5.32229 0.0330777 5.84266e-17)
(5.27731 0.0338486 0)
(5.23548 0.0339004 0)
(5.19606 0.0331733 -1.34225e-16)
(5.15871 0.0322121 2.75584e-16)
(5.12361 0.0323882 -3.49699e-22)
(5.09034 0.0374224 -2.84769e-16)
(5.05187 0.0497071 2.87456e-16)
(5.01521 0.0886513 -2.85806e-16)
(4.85713 0.167515 -2.62698e-16)
(5.61289 0.0180048 0)
(5.63382 0.0334967 0)
(5.65545 0.0387585 7.19712e-18)
(5.67 0.0396528 -2.06158e-17)
(5.68057 0.0400192 2.64003e-17)
(5.68774 0.0394878 -1.59818e-17)
(5.68564 0.0387032 0)
(5.67039 0.0370887 -4.14826e-17)
(5.64715 0.0362381 4.55071e-17)
(5.62107 0.0361405 -4.94572e-17)
(5.59532 0.0363853 5.32717e-17)
(5.57183 0.0363751 0)
(5.55058 0.0358999 0)
(5.5305 0.0348313 0)
(5.51072 0.0334595 0)
(5.49103 0.0326046 0)
(5.47206 0.035671 -1.24492e-16)
(5.45049 0.0443619 1.24731e-16)
(5.4312 0.0725449 0)
(5.35677 0.144186 -1.15391e-16)
(5.61415 0.0155395 2.88779e-19)
(5.64232 0.0297419 -7.75689e-19)
(5.67587 0.0350036 0)
(5.70434 0.0362314 0)
(5.7297 0.0369146 0)
(5.75175 0.036965 0)
(5.76852 0.0368672 -3.23375e-17)
(5.77725 0.0361448 3.72717e-17)
(5.77927 0.035872 -4.18403e-17)
(5.77693 0.0358888 4.60631e-17)
(5.77228 0.0359733 0)
(5.76642 0.0357415 -1.04517e-16)
(5.75961 0.0350819 1.07446e-16)
(5.75191 0.0339581 0)
(5.74331 0.0325075 0)
(5.73389 0.0311761 -1.13143e-16)
(5.72453 0.0327367 2.79619e-22)
(5.71429 0.0389333 2.2841e-16)
(5.70641 0.0600737 -2.71565e-22)
(5.67354 0.11551 -1.08015e-16)
(5.61452 0.0130884 -2.54762e-19)
(5.6458 0.0252407 6.41318e-19)
(5.68558 0.0301498 4.67967e-18)
(5.72194 0.0316347 -1.39632e-17)
(5.75612 0.0326146 3.97459e-23)
(5.78746 0.0329783 1.19139e-17)
(5.81526 0.0331392 0)
(5.83819 0.0330379 0)
(5.85628 0.0331912 0)
(5.87016 0.0334597 -4.22946e-17)
(5.8807 0.0337903 4.58063e-17)
(5.88786 0.0339336 0)
(5.89188 0.0337682 0)
(5.89373 0.0330054 0)
(5.89433 0.0317528 0)
(5.89411 0.030152 0)
(5.89393 0.0304266 0)
(5.89377 0.034243 0)
(5.89547 0.0487748 0)
(5.88763 0.0877987 1.04482e-16)
(5.61449 0.0104585 2.32817e-19)
(5.64683 0.0203345 -5.5691e-19)
(5.6898 0.0246779 0)
(5.73064 0.0263553 -6.15655e-18)
(5.77009 0.0275583 8.43248e-18)
(5.80718 0.0282113 0)
(5.84143 0.0284955 0)
(5.87228 0.0286979 -3.09923e-17)
(5.89953 0.0291227 3.50618e-17)
(5.92306 0.0296799 0)
(5.94313 0.0303736 0)
(5.95963 0.0310689 0)
(5.97281 0.0314812 0)
(5.98338 0.0311843 0)
(5.99217 0.0302069 0)
(5.99978 0.0285071 0)
(6.00697 0.0277632 -1.04283e-16)
(6.01435 0.0294112 1.05246e-16)
(6.02335 0.0380125 0)
(6.03024 0.0651107 0)
(5.6143 0.0077579 0)
(5.64666 0.0152202 0)
(5.69092 0.0188371 3.6602e-18)
(5.73419 0.0205803 -5.61073e-18)
(5.77655 0.0219599 0)
(5.81699 0.0228437 0)
(5.85495 0.0232023 0)
(5.89019 0.0235657 0)
(5.92258 0.024188 0)
(5.95174 0.0250303 -3.59951e-17)
(5.97768 0.0260687 3.927e-17)
(6.00049 0.0271982 0)
(6.02043 0.0280722 0)
(6.03783 0.0282541 0)
(6.0531 0.0276878 0)
(6.06666 0.0261847 0)
(6.07933 0.0248332 -1.02105e-16)
(6.09217 0.0248416 1.0365e-16)
(6.10651 0.0291958 0)
(6.12171 0.0464149 -1.03008e-16)
(5.61407 0.00507453 2.10431e-19)
(5.64591 0.0100099 -4.69111e-19)
(5.69028 0.0127121 0)
(5.73499 0.014421 -5.2654e-18)
(5.77938 0.0159477 2.88833e-23)
(5.82183 0.0170575 9.50856e-18)
(5.86173 0.0175213 0)
(5.89903 0.0180386 0)
(5.93367 0.0188413 0)
(5.9656 0.0199066 -3.42755e-17)
(5.99497 0.0211842 3.75225e-17)
(6.02173 0.0225909 0)
(6.04599 0.0238205 0)
(6.06795 0.024474 0)
(6.08768 0.024407 0)
(6.10558 0.0233 0)
(6.12242 0.0217051 0)
(6.13929 0.0205992 0)
(6.15739 0.021927 0)
(6.17725 0.0318712 -1.04831e-16)
(5.61384 0.00245113 0)
(5.64489 0.00473232 0)
(5.68865 0.00645618 -3.28448e-18)
(5.73376 0.00799426 5.12534e-18)
(5.77926 0.0096228 -7.16693e-18)
(5.82305 0.0109811 2.7833e-17)
(5.86428 0.0116277 -4.53805e-17)
(5.90294 0.0123463 8.85195e-23)
(5.93905 0.0133493 6.03627e-17)
(5.97255 0.0146168 -3.36257e-17)
(6.00351 0.0160867 -3.68394e-17)
(6.03196 0.0177042 1.19394e-16)
(6.05803 0.0192197 -8.49476e-17)
(6.08188 0.0202674 0)
(6.10401 0.0206615 9.43086e-17)
(6.12464 0.0200069 -9.84482e-17)
(6.14425 0.0184224 0)
(6.1637 0.0166041 0)
(6.1841 0.0159833 -1.07352e-16)
(6.20604 0.0202719 1.07783e-16)
(5.61364 -0.000117771 0)
(5.64374 -0.000561425 0)
(5.68646 0.000173165 0)
(5.73106 0.00140622 0)
(5.77667 0.00306536 -7.26771e-18)
(5.82092 0.00464809 9.39759e-18)
(5.8628 0.00552598 0)
(5.90227 0.00646171 -2.69034e-17)
(5.93933 0.00765937 3.06021e-17)
(5.97392 0.00913741 -3.4101e-17)
(6.006 0.0108288 3.73394e-17)
(6.03562 0.0126976 0)
(6.06287 0.0145152 0)
(6.08796 0.01591 0)
(6.11121 0.0166832 0)
(6.13295 0.0164791 0)
(6.15368 0.0151252 -1.04129e-16)
(6.1742 0.0129478 1.07587e-16)
(6.19567 0.011139 0)
(6.21878 0.0112381 0)
(5.6135 -0.00263394 0)
(5.64255 -0.00574083 0)
(5.68386 -0.00605385 3.47069e-18)
(5.72705 -0.00520991 -1.08654e-17)
(5.7717 -0.00359976 7.58288e-18)
(5.81527 -0.00186067 0)
(5.85669 -0.000731824 0)
(5.89593 0.000435795 0)
(5.93298 0.00184213 0)
(5.96779 0.00353047 0)
(6.00033 0.00544776 0)
(6.0306 0.0075603 0)
(6.05871 0.00967726 0)
(6.08479 0.0114353 0)
(6.10908 0.0126155 0)
(6.13184 0.0128472 0)
(6.15339 0.0117673 0)
(6.17435 0.00933183 0)
(6.1959 0.00643898 0)
(6.21858 0.00362804 0)
(5.6134 -0.0050777 0)
(5.6413 -0.0107329 0)
(5.68081 -0.0121039 0)
(5.72169 -0.01167 -5.79261e-18)
(5.76391 -0.0101535 8.07983e-18)
(5.80523 -0.00833226 0)
(5.84458 -0.00696908 0)
(5.88199 -0.00561146 0)
(5.91753 -0.00404344 0)
(5.95112 -0.00219416 -3.72485e-17)
(5.98271 -0.000103298 4.06927e-17)
(6.01231 0.00221133 0)
(6.03994 0.00458139 0)
(6.0657 0.00667465 0)
(6.08976 0.00829644 0)
(6.11227 0.00910449 0)
(6.13338 0.00861341 -1.12824e-16)
(6.15345 0.0063725 1.16392e-16)
(6.17353 0.00304048 0)
(6.1942 -0.0019934 -1.21572e-16)
(5.61335 -0.00744772 -2.48136e-19)
(5.6399 -0.0155364 5.61709e-19)
(5.67707 -0.017926 -4.04224e-18)
(5.71477 -0.0178386 6.30732e-18)
(5.75347 -0.0164069 -8.79731e-18)
(5.79147 -0.0145349 1.12937e-17)
(5.82779 -0.0129487 0)
(5.86244 -0.0114262 0)
(5.89545 -0.00972168 0)
(5.92679 -0.00772365 0)
(5.95645 -0.00547142 0)
(5.98444 -0.00296956 0)
(6.01068 -0.000369383 0)
(6.03521 0.00200733 1.05808e-16)
(6.05814 0.00398631 -1.11158e-16)
(6.07949 0.0052736 0)
(6.09923 0.00536681 -1.19996e-16)
(6.11744 0.00359861 1.23545e-16)
(6.13491 0.000317888 0)
(6.15237 -0.00517461 -1.2851e-16)
(5.61331 -0.00971625 0)
(5.63812 -0.0200952 0)
(5.67209 -0.023383 0)
(5.70532 -0.0235489 -7.04117e-18)
(5.7391 -0.02221 3.45567e-23)
(5.7723 -0.0203076 1.25968e-17)
(5.80421 -0.0185266 0)
(5.83475 -0.0168447 -3.52962e-17)
(5.86388 -0.0150159 3.97961e-17)
(5.89157 -0.0129249 -4.39651e-17)
(5.91799 -0.0105871 4.78837e-17)
(5.94324 -0.00794415 0)
(5.96697 -0.00515482 0)
(5.98911 -0.00250656 0)
(6.00966 -0.000119723 0)
(6.02846 0.00175235 0)
(6.04529 0.00260743 -1.30028e-16)
(6.05995 0.00152843 1.33021e-16)
(6.07306 -0.00120051 0)
(6.0855 -0.00775513 -1.36347e-16)
(5.61317 -0.011828 3.11634e-19)
(5.63546 -0.0242569 -7.59925e-19)
(5.66466 -0.0282584 5.36871e-18)
(5.69142 -0.0285217 -8.15721e-18)
(5.71805 -0.0272812 0)
(5.74409 -0.0253801 0)
(5.76931 -0.0234574 0)
(5.79358 -0.0216112 0)
(5.8167 -0.0196104 0)
(5.83871 -0.0173901 -4.98829e-17)
(5.85993 -0.0149852 5.41855e-17)
(5.8806 -0.0122092 0)
(5.89991 -0.00932508 0)
(5.9177 -0.00657599 0)
(5.93362 -0.00395889 0)
(5.94739 -0.00159308 0)
(5.95882 9.81499e-05 0)
(5.96744 1.60801e-05 0)
(5.97398 -0.00185332 0)
(5.97866 -0.00802281 0)
(5.61278 -0.0139081 0)
(5.63079 -0.0276801 0)
(5.6519 -0.0320756 0)
(5.66887 -0.032295 -1.00124e-17)
(5.68475 -0.0309988 4.63782e-23)
(5.69956 -0.0290791 1.70783e-17)
(5.71392 -0.0270699 0)
(5.72746 -0.0250821 0)
(5.74008 -0.0229373 0)
(5.75242 -0.0205882 0)
(5.76501 -0.0180609 0)
(5.77801 -0.0150458 0)
(5.7903 -0.0118106 0)
(5.79998 -0.00861644 0)
(5.80598 -0.0056743 0)
(5.80896 -0.00301191 0)
(5.80983 -0.000875604 -1.60994e-16)
(5.80869 -0.0003349 1.61592e-16)
(5.806 -0.00114894 0)
(5.79952 -0.00774327 -1.60806e-16)
(5.61177 -0.0160666 -4.71514e-19)
(5.62093 -0.0301422 1.36978e-18)
(5.62675 -0.0336692 9.44387e-18)
(5.62738 -0.0334792 -2.69065e-17)
(5.6259 -0.0321407 1.74113e-17)
(5.62244 -0.0302682 0)
(5.61835 -0.0280851 5.058e-17)
(5.61143 -0.0257143 -5.78752e-17)
(5.60225 -0.0235795 0)
(5.59366 -0.021507 -7.14503e-17)
(5.58733 -0.0192782 7.79575e-17)
(5.58317 -0.0161299 0)
(5.58046 -0.0121575 0)
(5.57431 -0.00783782 0)
(5.56256 -0.00359587 0)
(5.54722 0.000400405 0)
(5.53156 0.00397351 -1.84642e-16)
(5.51704 0.00599096 1.85483e-16)
(5.50388 0.00785921 0)
(5.48244 0.00526907 0)
(5.60892 -0.0174877 0)
(5.5944 -0.0309363 0)
(5.56657 -0.0308212 0)
(5.53404 -0.0302059 0)
(5.49911 -0.02875 -2.6584e-17)
(5.46156 -0.0269742 3.10651e-17)
(5.42212 -0.0250774 0)
(5.37619 -0.0234962 -7.76981e-17)
(5.32549 -0.022512 8.39766e-17)
(5.27424 -0.0216342 0)
(5.22406 -0.0208737 0)
(5.17459 -0.0193662 0)
(5.12516 -0.0171362 0)
(5.0767 -0.015277 0)
(5.02913 -0.0134689 0)
(4.98307 -0.011397 0)
(4.94102 -0.00924698 0)
(4.90228 -0.00725114 0)
(4.8676 -0.00689723 0)
(4.82219 -0.0114908 -2.36255e-16)
(5.58204 0.0110834 0)
(5.47873 -0.0132932 0)
(5.32628 -0.0150417 3.59994e-17)
(5.16476 -0.0105581 -8.93595e-17)
(5.00388 -0.00404199 5.10115e-17)
(4.84335 0.00188141 0)
(4.67909 0.00959417 -1.21766e-16)
(4.52198 0.01728 1.28559e-16)
(4.369 0.0237084 1.35103e-16)
(4.21056 0.0300316 -1.42635e-16)
(4.04225 0.037115 0)
(3.86628 0.0459741 0)
(3.68997 0.0556344 0)
(3.5243 0.0653008 -3.42856e-16)
(3.37622 0.0727617 7.36657e-22)
(3.24357 0.0793321 7.17171e-22)
(3.11909 0.0854545 3.70766e-16)
(3.0041 0.0920302 3.7925e-16)
(2.89505 0.102086 -3.84643e-16)
(2.83946 0.102927 0)
(1.49341 -0.0964095 8.81539e-16)
(1.60167 -0.200394 -4.84279e-16)
(1.8859 -0.138955 -7.75036e-16)
(2.15506 0.0410203 2.94631e-16)
(2.38683 0.329597 2.32781e-16)
(2.58918 0.665667 0)
(2.75878 1.02118 -8.48482e-17)
(2.91506 1.40294 -2.31857e-16)
(3.10005 1.84557 1.43897e-16)
(3.31499 2.33022 1.36972e-16)
(3.54614 2.83815 1.00106e-21)
(3.78823 3.36383 1.32255e-16)
(4.04043 3.90898 1.32701e-16)
(4.29992 4.47436 -3.34739e-17)
(4.56217 5.05822 -3.43756e-17)
(4.82513 5.68351 7.19327e-17)
(5.11753 6.36411 3.8225e-17)
(5.47435 7.08339 0)
(5.9913 7.84637 2.84242e-17)
(6.74584 8.54466 -3.47825e-17)
(3.71765 0.252263 2.43748e-16)
(3.71554 0.330831 -5.94582e-17)
(3.80732 0.440546 -2.80698e-16)
(3.93135 0.588516 3.21279e-16)
(4.05353 0.785841 0)
(4.16696 1.02979 3.83915e-22)
(4.27024 1.31598 -9.94927e-17)
(4.36837 1.6497 -1.97811e-16)
(4.48517 2.03387 1.48113e-16)
(4.63365 2.47055 -4.99451e-17)
(4.81062 2.95749 5.11965e-17)
(5.01126 3.48992 1.05985e-16)
(5.23421 4.07181 -2.71546e-17)
(5.48186 4.71343 5.49169e-17)
(5.76199 5.42757 -1.01851e-21)
(6.0668 6.22366 1.44437e-17)
(6.39736 7.11949 -6.04523e-17)
(6.77871 8.14149 1.60413e-17)
(7.33245 9.31634 -1.73906e-17)
(8.04821 10.5492 1.92246e-17)
(4.76416 0.242394 1.58193e-16)
(4.76376 0.309684 0)
(4.80982 0.407262 2.63275e-16)
(4.87859 0.541823 -3.06353e-22)
(4.95048 0.724841 -8.50212e-17)
(5.0195 0.951182 6.80075e-22)
(5.08672 1.21891 0)
(5.1581 1.53407 1.70679e-16)
(5.24624 1.90195 -4.31656e-17)
(5.36433 2.32655 -1.31912e-21)
(5.51803 2.80447 -9.07618e-17)
(5.7066 3.32983 -9.44758e-17)
(5.93034 3.90677 2.40695e-17)
(6.19145 4.5449 -7.27151e-17)
(6.49624 5.25671 -7.37775e-17)
(6.8577 6.05639 0)
(7.28084 6.96684 0)
(7.76147 8.01264 0)
(8.40598 9.19872 3.62796e-18)
(9.23887 10.4911 9.76317e-18)
(5.32097 0.220156 1.74975e-16)
(5.33477 0.292746 -3.87252e-17)
(5.37636 0.386073 -1.54356e-16)
(5.4333 0.504781 1.53611e-16)
(5.49522 0.657533 -3.54014e-22)
(5.55777 0.848336 4.449e-22)
(5.62146 1.08402 7.82625e-17)
(5.69115 1.36868 -7.95802e-17)
(5.77727 1.70456 8.12225e-17)
(5.89051 2.09884 -4.1734e-17)
(6.04062 2.54772 0)
(6.23155 3.04959 4.49269e-17)
(6.46648 3.60953 -6.78646e-17)
(6.74695 4.2379 -2.25162e-17)
(7.07977 4.94405 9.03167e-17)
(7.47677 5.74138 1.14019e-17)
(7.96385 6.64884 -2.32137e-17)
(8.54163 7.68738 -1.19421e-17)
(9.26152 8.88107 -3.1314e-18)
(10.1422 10.2489 -3.80878e-17)
(5.66532 0.186388 1.43356e-16)
(5.68496 0.252504 -1.06708e-16)
(5.72515 0.33375 -1.43166e-16)
(5.77875 0.436256 7.19223e-17)
(5.83915 0.568338 -7.25249e-17)
(5.90265 0.735389 7.35402e-17)
(5.97017 0.943458 -1.49848e-16)
(6.04582 1.19621 -7.66879e-17)
(6.13804 1.50037 1.57768e-16)
(6.25738 1.86161 4.07691e-17)
(6.41387 2.27733 -8.46085e-17)
(6.61443 2.74997 8.8222e-17)
(6.86485 3.2846 2.20356e-17)
(7.16983 3.89008 -1.28339e-21)
(7.53724 4.5805 -6.43933e-17)
(7.97972 5.36857 3.20678e-17)
(8.52095 6.27415 -2.14339e-17)
(9.18658 7.31554 3.24763e-17)
(10.0269 8.51686 2.77819e-18)
(10.96 9.95105 1.87301e-17)
(5.89561 0.147392 2.71106e-16)
(5.91838 0.209835 -1.00818e-16)
(5.95546 0.284873 0)
(6.00377 0.37664 1.37867e-16)
(6.05982 0.491373 -2.09946e-16)
(6.12271 0.636513 -7.13991e-17)
(6.19371 0.816957 2.19648e-16)
(6.27665 1.038 -1.50861e-16)
(6.37752 1.30796 -7.80471e-17)
(6.50603 1.63029 2.0252e-16)
(6.6727 2.008 -8.4342e-17)
(6.88614 2.44598 0)
(7.15449 2.95024 4.3925e-17)
(7.48563 3.5275 0)
(7.88777 4.19093 -4.18571e-17)
(8.37674 4.96032 -1.02863e-17)
(8.97945 5.85279 -3.04793e-17)
(9.72298 6.89211 0)
(10.6935 8.08005 0)
(11.7438 9.53121 0)
(6.04868 0.110262 -1.2945e-16)
(6.07443 0.165704 -2.91096e-16)
(6.10906 0.232206 1.32176e-16)
(6.1524 0.313018 -6.73512e-17)
(6.20486 0.414606 6.88197e-17)
(6.2663 0.541199 0)
(6.33845 0.69822 0)
(6.42514 0.891614 0)
(6.53225 1.12832 -7.81821e-17)
(6.66816 1.41389 4.65392e-22)
(6.84364 1.75439 1.2756e-16)
(7.06998 2.15204 -4.45619e-17)
(7.35637 2.61338 -2.22435e-17)
(7.71295 3.15026 -4.2983e-17)
(8.15108 3.77825 2.08207e-17)
(8.68475 4.5171 -3.03288e-17)
(9.34563 5.38991 3.27147e-22)
(10.1643 6.41763 -9.62384e-18)
(11.2513 7.59655 2.37345e-18)
(12.4594 9.04204 1.52895e-17)
(6.14564 0.0802214 1.09393e-16)
(6.17415 0.126536 -9.49012e-17)
(6.20828 0.183032 -3.19381e-22)
(6.24907 0.253437 6.66958e-17)
(6.29832 0.342388 -1.37014e-16)
(6.35748 0.453195 7.06299e-17)
(6.42896 0.590244 -7.31046e-17)
(6.51686 0.758858 -7.59627e-17)
(6.62715 0.965106 3.67741e-22)
(6.7679 1.21462 4.14116e-17)
(6.94858 1.51234 -8.68292e-17)
(7.18173 1.86332 4.56535e-17)
(7.48122 2.27838 -2.2873e-17)
(7.85987 2.77178 -1.27683e-21)
(8.33175 3.35796 2.10707e-17)
(8.91292 4.05624 1.01117e-17)
(9.63387 4.89734 -1.94348e-17)
(10.5258 5.90417 2.80756e-17)
(11.7118 7.07584 -1.81451e-17)
(13.0983 8.49354 -1.86883e-17)
(6.20254 0.0570132 1.53472e-16)
(6.23286 0.0946995 1.56821e-16)
(6.26842 0.139942 -2.59191e-16)
(6.30895 0.198731 -6.68063e-17)
(6.3563 0.274972 0)
(6.413 0.370454 0)
(6.48236 0.488403 0)
(6.56887 0.633414 4.31239e-22)
(6.67861 0.810805 8.11912e-17)
(6.81983 1.02624 8.51882e-17)
(7.00298 1.28609 -8.95523e-17)
(7.24043 1.59945 9.43091e-17)
(7.5476 1.97474 2.37306e-17)
(7.94126 2.42347 -2.26786e-17)
(8.43944 2.96176 0)
(9.06213 3.61019 3.07883e-17)
(9.84206 4.39979 1.45485e-21)
(10.8139 5.36442 9.2519e-18)
(12.0848 6.52067 1.76506e-17)
(13.6566 7.90832 -1.04753e-18)
(6.23292 0.0385191 -1.37411e-16)
(6.26432 0.0690066 9.43563e-17)
(6.30049 0.105555 0)
(6.34117 0.152596 -6.76643e-17)
(6.38722 0.215424 0)
(6.44125 0.295878 7.3087e-17)
(6.50732 0.396331 -1.52453e-16)
(6.59055 0.52073 -3.57019e-22)
(6.69734 0.673967 -1.67179e-16)
(6.83602 0.861622 4.37162e-22)
(7.01748 1.08992 -1.34374e-22)
(7.25499 1.36587 -9.74986e-17)
(7.56527 1.69851 2.46882e-17)
(7.96832 2.10021 -2.35442e-17)
(8.48604 2.58801 0)
(9.14316 3.18296 1.05289e-17)
(9.97486 3.91551 -1.97954e-17)
(11.0293 4.82213 9.2812e-18)
(12.3875 5.93442 0)
(14.1343 7.3031 0)
(6.24579 0.023104 -1.53515e-17)
(6.27724 0.0479948 -9.56701e-17)
(6.31236 0.0781486 9.96833e-17)
(6.35153 0.116159 -6.90958e-17)
(6.39549 0.167173 0)
(6.44573 0.234251 7.49607e-17)
(6.50648 0.319313 1.56576e-16)
(6.58364 0.425459 8.19426e-17)
(6.68432 0.556632 8.59509e-17)
(6.81724 0.717784 -1.08624e-21)
(6.99376 0.9151 -1.10619e-21)
(7.22794 1.15551 5.02461e-17)
(7.53751 1.44816 -2.56152e-17)
(7.94513 1.80452 -1.29223e-21)
(8.47656 2.24106 -4.63081e-17)
(9.16185 2.77925 3.26478e-17)
(10.0389 3.44868 1.01596e-17)
(11.1687 4.28902 -1.88648e-17)
(12.6208 5.32807 2.18559e-18)
(14.5368 6.67063 -1.90553e-17)
(6.24387 0.0113749 -1.08915e-16)
(6.27339 0.0316821 9.7611e-17)
(6.30514 0.0565267 3.39804e-17)
(6.3395 0.0878903 2.12317e-16)
(6.37817 0.129293 7.36801e-17)
(6.42253 0.183692 -7.67905e-17)
(6.47586 0.254151 -8.01798e-17)
(6.54443 0.343545 -8.39039e-17)
(6.6361 0.454974 4.39945e-17)
(6.76042 0.592348 9.24786e-17)
(6.92935 0.761319 -4.53406e-22)
(7.15768 0.968448 -5.1453e-17)
(7.46372 1.22239 5.27823e-17)
(7.87223 1.53438 -5.0634e-17)
(8.41265 1.92021 0)
(9.12037 2.40063 -1.12971e-17)
(10.037 3.0033 -2.10266e-17)
(11.2348 3.77001 4.84782e-17)
(12.7806 4.72615 2.2226e-18)
(14.8645 6.00034 -1.00661e-18)
(6.21665 0.00187072 2.5419e-16)
(6.24291 0.0177756 -1.3338e-16)
(6.26977 0.037979 0)
(6.29764 0.0635992 0)
(6.32848 0.09771 -7.53661e-17)
(6.36441 0.141576 0)
(6.40862 0.198921 8.1829e-17)
(6.46676 0.272679 -1.71181e-16)
(6.5471 0.366141 1.34651e-16)
(6.66015 0.482095 0)
(6.81903 0.625337 0)
(7.03959 0.801941 0)
(7.34027 1.01963 8.11039e-17)
(7.74746 1.28894 -1.72747e-21)
(8.29356 1.62476 -2.49493e-17)
(9.01887 2.04733 1.1775e-17)
(9.96939 2.58151 -3.29018e-17)
(11.2299 3.26913 -2.0151e-17)
(12.8609 4.13162 -1.83344e-17)
(15.1169 5.29783 1.53709e-17)
(6.16975 -0.00403319 1.22268e-16)
(6.18986 0.00808885 -1.71039e-16)
(6.20942 0.0243291 1.78097e-16)
(6.22852 0.045009 0)
(6.24909 0.0729435 1.53835e-16)
(6.27354 0.10913 -1.20158e-16)
(6.30548 0.155467 0)
(6.35075 0.215654 0)
(6.41749 0.292336 0)
(6.5164 0.388187 -4.84299e-17)
(6.66132 0.507199 5.10573e-17)
(6.86939 0.654403 0)
(7.16186 0.837394 -2.77927e-17)
(7.56666 1.06652 -2.7015e-17)
(8.1164 1.35499 0)
(8.85592 1.72079 0)
(9.83523 2.18531 2.31295e-17)
(11.1534 2.78976 2.12098e-17)
(12.8622 3.54987 1.91738e-17)
(15.2859 4.59622 -1.06051e-18)
(6.0954 -0.00795057 1.34008e-16)
(6.106 0.00110338 3.50855e-17)
(6.11434 0.0137272 -3.65164e-17)
(6.12062 0.0300671 -3.79657e-17)
(6.12703 0.0526645 -7.9071e-17)
(6.13641 0.0820847 1.23819e-16)
(6.15302 0.119999 0)
(6.18304 0.168984 -4.53387e-17)
(6.23488 0.231125 2.38506e-16)
(6.31954 0.309676 5.02779e-17)
(6.45105 0.407705 -1.06147e-16)
(6.64708 0.529119 5.60735e-17)
(6.92906 0.679429 -5.78381e-17)
(7.32639 0.867845 2.83652e-17)
(7.87735 1.11103 -2.75979e-17)
(8.62915 1.42271 -1.32336e-17)
(9.63365 1.81732 1.23988e-17)
(11.0046 2.33524 -2.2688e-17)
(12.7855 2.98521 0)
(15.3713 3.89441 7.8305e-18)
(5.97684 -0.00950718 1.75015e-17)
(5.97245 -0.0025026 1.64514e-16)
(5.96382 0.00697832 -1.52054e-16)
(5.95181 0.0198449 7.91259e-17)
(5.93925 0.037848 -4.129e-17)
(5.92982 0.0612827 0)
(5.92848 0.0916047 0)
(5.94186 0.130621 -1.43344e-16)
(5.97854 0.180403 1.00809e-16)
(6.04958 0.243557 5.32462e-17)
(6.16897 0.322725 5.63327e-17)
(6.35449 0.421642 2.98271e-17)
(6.62801 0.54388 -6.789e-22)
(7.02041 0.6981 0)
(7.57023 0.895311 3.00557e-17)
(8.33077 1.15361 0)
(9.35782 1.48106 0)
(10.7784 1.91222 -6.18436e-18)
(12.6245 2.45085 5.535e-18)
(15.3725 3.20612 -9.64347e-18)
(5.7801 -0.00866061 1.40339e-16)
(5.75253 -0.00264111 -1.9516e-17)
(5.71918 0.00440947 0)
(5.68246 0.0147504 -4.23804e-17)
(5.64638 0.0289722 4.44097e-17)
(5.61558 0.0473738 0)
(5.59522 0.0711949 -4.92724e-17)
(5.59195 0.101678 -1.5632e-16)
(5.61413 0.140548 -5.51786e-17)
(5.67275 0.189954 -5.8468e-17)
(5.78159 0.252184 -6.19797e-17)
(5.95819 0.330415 -3.28366e-17)
(6.22546 0.427073 -3.36657e-17)
(6.61483 0.550686 -6.71908e-17)
(7.16739 0.70548 -3.32402e-17)
(7.93958 0.905961 3.21205e-17)
(8.9878 1.16418 -3.02052e-17)
(10.4583 1.50398 0)
(12.3711 1.91318 0)
(15.2735 2.48819 9.34333e-18)
(5.4316 0.00431958 1.73053e-16)
(5.36564 0.00798082 -3.39615e-16)
(5.29731 0.0112704 5.21498e-22)
(5.23042 0.0176592 1.91735e-16)
(5.16893 0.0270725 1.01007e-16)
(5.1173 0.0400538 -1.06917e-16)
(5.07888 0.0575277 -8.48728e-17)
(5.06053 0.0802396 -6.00412e-17)
(5.07048 0.109627 1.27432e-16)
(5.11868 0.147625 0)
(5.21967 0.195743 -7.14422e-17)
(5.39027 0.257079 7.51691e-17)
(5.65551 0.333092 3.81137e-17)
(6.04721 0.431256 3.79917e-17)
(6.60697 0.555842 3.7444e-17)
(7.39604 0.711882 -3.62688e-17)
(8.47089 0.915376 3.44016e-17)
(9.99109 1.19317 -7.90248e-18)
(11.9723 1.51672 7.03064e-18)
(15.0109 1.90463 -1.97592e-17)
(4.72105 -0.00403769 2.01423e-16)
(4.60954 0.00306097 -1.37322e-17)
(4.50975 0.00683804 0)
(4.42038 0.0114036 -2.42019e-16)
(4.34154 0.0171996 2.56403e-16)
(4.27619 0.0252589 0)
(4.22506 0.0367787 5.42883e-17)
(4.19677 0.0521587 -1.53792e-16)
(4.19914 0.0717426 2.041e-17)
(4.24241 0.0967719 -1.72425e-16)
(4.34014 0.127859 9.09298e-17)
(4.51086 0.165797 -9.41971e-17)
(4.77769 0.212881 -1.1846e-17)
(5.17395 0.271983 0)
(5.74277 0.343708 0)
(6.5533 0.427931 0)
(7.66993 0.526233 0)
(9.26832 0.649531 -9.62169e-18)
(11.3508 0.79747 4.20158e-18)
(14.5929 0.940136 9.01271e-18)
(2.74955 0.113111 5.28145e-18)
(2.67757 0.112712 0)
(2.61315 0.11489 0)
(2.54832 0.119691 0)
(2.48388 0.126751 0)
(2.4223 0.136974 0)
(2.37873 0.15095 -2.92702e-17)
(2.35465 0.171368 -2.46459e-16)
(2.35571 0.199711 -5.48501e-16)
(2.39227 0.23776 2.675e-16)
(2.47302 0.288404 1.37705e-16)
(2.61076 0.353357 -2.77239e-16)
(2.82422 0.436136 2.22858e-16)
(3.14712 0.540152 -1.33413e-16)
(3.62092 0.667149 1.27547e-16)
(4.31819 0.821856 -5.98672e-17)
(5.29232 0.992497 -2.75702e-17)
(6.8124 1.16428 3.75059e-17)
(8.54904 1.29078 -1.08207e-17)
(12.3682 1.2291 2.31797e-18)
(8.00008 9.20042 5.6555e-17)
(9.7017 10.0556 -2.23146e-17)
(11.4443 10.9112 -3.07838e-18)
(13.3394 11.6583 1.50036e-18)
(15.4504 12.3057 -1.47278e-18)
(17.8299 12.8801 0)
(20.5767 13.3972 0)
(23.7771 13.8637 0)
(27.5346 14.2636 2.20729e-17)
(31.9703 14.5839 4.3257e-17)
(37.2344 14.7971 -2.05798e-20)
(43.5091 14.8631 1.677e-20)
(50.9642 14.7226 3.86755e-20)
(59.8733 14.3179 -3.76944e-20)
(70.2111 13.4996 -9.10971e-18)
(82.5619 12.1801 -3.42228e-20)
(94.9122 10.2178 0)
(110.456 7.71488 6.98969e-21)
(115.974 4.54216 -6.9367e-21)
(126.406 0.54587 -6.59884e-19)
(9.28745 11.7485 -2.22711e-17)
(11.02 12.9283 2.18949e-17)
(12.9912 14.1253 0)
(15.2399 15.24 -2.23085e-17)
(17.8521 16.2742 1.28913e-18)
(20.8904 17.2723 0)
(24.4455 18.2628 1.98755e-17)
(28.6358 19.2508 -1.95135e-17)
(33.6264 20.2513 -1.91405e-17)
(39.6229 21.2494 -1.87242e-17)
(46.8851 22.2092 -1.77875e-20)
(55.7533 23.0776 -1.77502e-17)
(66.6127 23.7693 1.71915e-17)
(80.0098 24.1503 0)
(96.2684 24.0569 3.01532e-20)
(116.467 23.2823 -2.91773e-20)
(139.178 21.4994 6.75111e-18)
(167.536 18.4437 1.25295e-20)
(189.753 14.1456 1.34188e-18)
(221.302 3.00091 2.0907e-21)
(10.6449 11.5432 -1.67828e-17)
(12.4815 12.4683 1.91215e-17)
(14.5692 13.4046 0)
(16.8908 14.302 3.86092e-17)
(19.5636 15.1607 1.74216e-17)
(22.6632 16.018 -1.87014e-17)
(26.2866 16.8854 -1.79456e-17)
(30.5645 17.7571 1.80229e-17)
(35.6673 18.6247 3.55366e-17)
(41.8142 19.486 -1.74727e-17)
(49.2833 20.3239 0)
(58.4416 21.1028 0)
(69.7191 21.7546 -3.26434e-17)
(83.7228 22.2045 7.85543e-18)
(100.928 22.2284 2.88497e-20)
(122.408 21.5474 -2.79146e-20)
(147.376 19.9485 -6.43903e-18)
(178.299 16.9908 5.52891e-21)
(206.686 13.978 -1.24909e-18)
(240.864 1.4632 0)
(11.5208 11.3337 1.92606e-17)
(13.2511 12.2544 -1.72848e-17)
(15.2406 13.1811 0)
(17.4548 14.0711 -1.62716e-17)
(20.0341 14.9227 -1.85011e-17)
(23.0699 15.766 1.71199e-17)
(26.6504 16.6135 1.7315e-17)
(30.903 17.4605 1.74579e-17)
(35.9917 18.3091 -1.70153e-17)
(42.1357 19.1527 3.35839e-17)
(49.6162 19.9674 -1.60798e-20)
(58.8035 20.7071 1.58371e-20)
(70.1393 21.3072 1.57528e-17)
(84.2377 21.6353 -7.60892e-18)
(101.576 21.5506 2.81393e-20)
(123.227 20.8117 -2.73168e-20)
(148.454 19.3281 3.20884e-18)
(179.679 16.2995 -6.31209e-21)
(209.093 13.4537 -7.32633e-21)
(243.677 0.661557 1.83167e-21)
(12.3628 10.9938 1.94978e-18)
(14.0786 11.8162 1.97286e-18)
(16.0741 12.6266 1.48735e-17)
(18.2956 13.3988 1.49942e-17)
(20.8781 14.1433 1.61111e-17)
(23.9181 14.8875 0)
(27.4966 15.6437 -8.63115e-22)
(31.738 16.4074 -1.6083e-17)
(36.8092 17.1764 0)
(42.93 17.9411 -1.57853e-17)
(50.3811 18.6789 -1.51513e-20)
(59.5307 19.3504 1.49635e-20)
(70.8179 19.89 -7.46526e-18)
(84.8536 20.2023 0)
(102.112 20.1321 -6.96338e-18)
(123.679 19.4287 -2.62596e-20)
(148.796 17.9842 -3.15421e-18)
(179.991 15.0098 5.37519e-21)
(209.101 12.528 -4.96972e-21)
(243.858 -0.360969 -4.3932e-19)
(13.1948 10.5494 -1.45362e-17)
(14.877 11.3175 0)
(16.8358 12.0705 -1.3915e-17)
(19.0154 12.7912 -1.59231e-17)
(21.552 13.4979 -1.55943e-17)
(24.5522 14.2078 2.37793e-19)
(28.0985 14.9261 -1.49728e-17)
(32.3131 15.648 0)
(37.3639 16.3711 1.50594e-17)
(43.4678 17.0884 0)
(50.9019 17.7782 1.42875e-20)
(60.0329 18.4007 -1.41106e-20)
(71.2939 18.8983 7.04659e-18)
(85.2964 19.1592 0)
(102.503 19.0535 6.66244e-18)
(124.006 18.3158 6.29767e-18)
(149.002 16.8919 0)
(180.171 13.919 2.77217e-18)
(208.848 11.7113 -2.27077e-21)
(243.949 -1.36041 4.26858e-19)
(13.9694 10.0471 2.94137e-17)
(15.6184 10.7647 0)
(17.5513 11.4496 -1.41545e-17)
(19.7108 12.0999 1.51785e-17)
(22.2288 12.7428 -9.00484e-19)
(25.2148 13.3894 -2.25824e-19)
(28.7494 14.0426 2.26106e-19)
(32.9512 14.7007 0)
(37.9876 15.362 -1.42983e-17)
(44.0744 16.0203 0)
(51.4877 16.6537 6.94815e-18)
(60.5922 17.2242 -6.78376e-18)
(71.8191 17.6753 -2.61147e-20)
(85.7768 17.9016 0)
(102.92 17.7871 6.30913e-18)
(124.35 17.0611 -6.02634e-18)
(149.203 15.7305 -1.1693e-20)
(180.374 12.7951 -2.66215e-18)
(208.525 10.8607 -1.18684e-18)
(244.421 -1.99212 0)
(14.6859 9.48013 -1.17361e-17)
(16.3063 10.1439 -1.1881e-17)
(18.2113 10.7618 1.28654e-17)
(20.3506 11.3519 -1.47084e-17)
(22.8489 11.9452 1.3937e-17)
(25.8165 12.545 0)
(29.3354 13.1501 1.39478e-17)
(33.5229 13.7599 -1.38704e-17)
(38.5461 14.3711 6.86978e-18)
(44.6201 14.9767 0)
(52.0193 15.5567 1.2386e-20)
(61.1058 16.0763 6.49436e-18)
(72.3076 16.4827 -6.37109e-18)
(86.2296 16.6763 -6.14131e-18)
(103.318 16.5495 2.19401e-20)
(124.687 15.8375 -3.37452e-20)
(149.385 14.5928 1.12221e-20)
(180.645 11.7076 4.81436e-21)
(207.979 9.99567 1.15638e-18)
(245.89 -2.69583 0)
(15.3409 8.86562 1.64785e-18)
(16.9329 9.47122 1.50015e-17)
(18.8082 10.0266 -1.4327e-17)
(20.9305 10.5607 -5.34504e-22)
(23.4144 11.1031 -8.55102e-19)
(26.3686 11.6519 0)
(29.8773 12.2041 -1.36339e-17)
(34.0564 12.7602 2.02937e-17)
(39.0719 13.3171 -6.68718e-18)
(45.1377 13.8672 0)
(52.5271 14.391 -1.29214e-17)
(61.6 14.858 -6.28639e-18)
(72.7814 15.2181 6.13244e-18)
(86.673 15.3779 1.19006e-17)
(103.71 15.2382 -5.75637e-18)
(125.03 14.5502 -2.19887e-20)
(149.552 13.3877 -1.03334e-20)
(181.022 10.6398 1.00555e-20)
(206.983 9.0754 -1.14967e-18)
(249.383 -3.30479 1.96418e-19)
(15.9214 8.21038 0)
(17.4924 8.75162 1.32424e-17)
(19.3411 9.24884 1.33942e-17)
(21.4498 9.73017 0)
(23.9235 10.2219 -1.35626e-17)
(26.867 10.7205 0)
(30.3675 11.2217 0)
(34.5406 11.7262 -6.68254e-18)
(39.5509 12.2309 0)
(45.6114 12.7275 6.48329e-18)
(52.9948 13.1954 6.33551e-18)
(62.0591 13.6073 1.26957e-20)
(73.2261 13.918 0)
(87.0937 14.0412 -5.83788e-18)
(104.088 13.886 2.18166e-20)
(125.364 13.2261 2.692e-18)
(149.714 12.1387 1.06522e-20)
(181.437 9.59805 1.23787e-18)
(205.669 8.07342 -6.90912e-21)
(254.387 -3.89042 -3.81342e-19)
(16.4242 7.51322 1.64535e-18)
(17.9827 7.99128 -1.16237e-17)
(19.8098 8.43566 -8.40458e-19)
(21.9067 8.86771 -7.61602e-18)
(24.372 9.31026 0)
(27.307 9.75984 0)
(30.8014 10.2107 0)
(34.9716 10.6628 0)
(39.981 11.1125 -6.59118e-18)
(46.0405 11.5524 -6.47552e-18)
(53.4216 11.9631 -6.3371e-18)
(62.4815 12.3186 1.23604e-17)
(73.639 12.5768 0)
(87.4881 12.6612 0)
(104.448 12.4879 2.18013e-20)
(125.679 11.858 -2.74553e-18)
(149.903 10.8456 0)
(181.7 8.53573 -1.22959e-18)
(205.095 7.00428 1.75943e-18)
(255.542 -4.49887 1.90587e-19)
(16.8417 6.77592 -1.66714e-18)
(18.3933 7.19934 6.72461e-18)
(20.2063 7.59372 8.50188e-19)
(22.2959 7.97574 1.37092e-17)
(24.7572 8.36668 -8.172e-18)
(27.6873 8.76538 4.30008e-19)
(31.1781 9.16547 0)
(35.3465 9.56797 0)
(40.3557 9.96786 6.67853e-18)
(46.4176 10.3509 0)
(53.801 10.7016 6.41677e-18)
(62.8607 11.0007 -6.26472e-18)
(74.0139 11.205 0)
(87.8498 11.2488 2.96877e-18)
(104.782 11.0568 2.90321e-18)
(125.971 10.4577 -3.25514e-20)
(150.102 9.52509 5.19831e-22)
(181.865 7.44485 1.00571e-20)
(204.923 5.92009 3.08987e-23)
(255.363 -5.01395 0)
(17.1818 6.0056 1.70068e-18)
(18.7278 6.37799 -6.86125e-18)