/*--------------------------------*- C++ -*----------------------------------*\
  =========                 |
  \\      /  F ield         | OpenFOAM: The Open Source CFD Toolbox
   \\    /   O peration     | Website:  https://openfoam.org
    \\  /    A nd           | Version:  8
     \\/     M anipulation  |
\*---------------------------------------------------------------------------*/
FoamFile
{
    version     2.0;
    format      ascii;
    class       volScalarField;
    location    "0.0082";
    object      p;
}
// * * * * * * * * * * * * * * * * * * * * * * * * * * * * * * * * * * * * * //

dimensions      [0 2 -2 0 0 0 0];

internalField   nonuniform List<scalar> 
109067
(
0.132634
0.133565
0.134331
0.135005
0.135617
0.136187
0.136726
0.137235
0.137714
0.138165
0.13859
0.138988
0.139362
0.139712
0.140037
0.14034
0.14062
0.140877
0.141113
0.141328
0.141521
0.141694
0.141847
0.14198
0.142093
0.142186
0.142261
0.142317
0.142354
0.142374
0.142375
0.142359
0.142325
0.142274
0.142206
0.142121
0.14202
0.141902
0.141768
0.141619
0.141454
0.141273
0.141077
0.140865
0.140639
0.140398
0.140142
0.139872
0.139588
0.139289
0.138976
0.138649
0.138309
0.137955
0.137587
0.137207
0.136812
0.136405
0.135985
0.135551
0.135105
0.134646
0.134175
0.133691
0.133195
0.132686
0.132165
0.131631
0.131086
0.130529
0.129959
0.129378
0.128785
0.128179
0.127563
0.126934
0.126294
0.125642
0.124979
0.124304
0.123618
0.12292
0.122211
0.12149
0.120758
0.120014
0.11926
0.118494
0.117716
0.116928
0.116128
0.115317
0.114494
0.11366
0.112815
0.111959
0.111092
0.110213
0.109322
0.108421
0.107508
0.106584
0.105648
0.104701
0.103743
0.102773
0.101792
0.100799
0.099795
0.0987794
0.0977519
0.0967128
0.095662
0.0945994
0.0935255
0.0924393
0.0913413
0.0902318
0.0891101
0.0879764
0.0868304
0.0856727
0.0845026
0.0833206
0.0821259
0.0809191
0.0796999
0.0784681
0.077224
0.0759672
0.0746979
0.0734158
0.072121
0.0708134
0.0694927
0.0681592
0.0668126
0.0654529
0.06408
0.0626938
0.0612948
0.0598821
0.0584558
0.0570164
0.0555631
0.0540964
0.052616
0.051122
0.0496139
0.0480922
0.0465564
0.0450067
0.0434429
0.0418653
0.0402738
0.0386679
0.0370479
0.0354134
0.0337649
0.0321023
0.0304257
0.0287344
0.0270289
0.0253086
0.0235745
0.0218261
0.0200632
0.0182866
0.0164953
0.0146901
0.0128711
0.0110375
0.0091902
0.00732835
0.00545322
0.00356499
0.00166207
-0.000253602
-0.00218301
-0.00412523
-0.00608137
-0.00804997
-0.0100314
-0.0120253
-0.014033
-0.0160524
-0.0180836
-0.0201283
-0.0221852
-0.0242557
-0.0263393
-0.0284356
-0.0305499
-0.0326828
-0.0348338
-0.0370021
-0.0392197
-0.0415545
-0.0440678
-0.0471191
0.132076
0.133038
0.133862
0.134601
0.135254
0.135848
0.136405
0.13693
0.137427
0.137894
0.138335
0.138749
0.139138
0.139502
0.139842
0.140159
0.140453
0.140724
0.140973
0.141201
0.141408
0.141593
0.141758
0.141903
0.142028
0.142134
0.14222
0.142287
0.142336
0.142366
0.142378
0.142371
0.142348
0.142306
0.142248
0.142172
0.14208
0.141971
0.141845
0.141704
0.141546
0.141373
0.141184
0.140979
0.140759
0.140525
0.140275
0.14001
0.139731
0.139437
0.139129
0.138807
0.13847
0.13812
0.137756
0.137378
0.136987
0.136582
0.136164
0.135732
0.135288
0.13483
0.13436
0.133876
0.13338
0.132871
0.13235
0.131816
0.13127
0.130711
0.13014
0.129557
0.128961
0.128354
0.127734
0.127103
0.126459
0.125804
0.125137
0.124458
0.123767
0.123064
0.12235
0.121624
0.120886
0.120136
0.119376
0.118603
0.117819
0.117023
0.116216
0.115397
0.114567
0.113725
0.112871
0.112006
0.11113
0.110242
0.109342
0.108431
0.107508
0.106574
0.105627
0.10467
0.103701
0.10272
0.101727
0.100723
0.0997064
0.0986785
0.0976387
0.0965871
0.0955235
0.094448
0.0933608
0.0922612
0.0911497
0.0900262
0.0888906
0.0877427
0.0865825
0.0854101
0.0842254
0.0830284
0.0818188
0.0805966
0.0793621
0.0781149
0.076855
0.0755824
0.0742972
0.0729989
0.0716879
0.0703639
0.069027
0.0676767
0.0663136
0.0649372
0.0635475
0.0621446
0.0607283
0.0592986
0.0578553
0.0563987
0.0549284
0.0534445
0.0519466
0.0504354
0.0489102
0.0473713
0.0458183
0.0442514
0.0426706
0.0410759
0.0394673
0.0378446
0.0362074
0.0345563
0.0328912
0.0312123
0.0295188
0.0278113
0.0260895
0.0243537
0.0226038
0.0208397
0.0190616
0.01727
0.0154639
0.0136443
0.0118104
0.00996339
0.00810244
0.00622717
0.00433926
0.00243802
0.000523259
-0.00140433
-0.00334483
-0.00529893
-0.00726468
-0.00924379
-0.0112351
-0.0132384
-0.0152546
-0.0172818
-0.0193215
-0.0213744
-0.0234385
-0.0255156
-0.0276065
-0.0297119
-0.0318346
-0.0339728
-0.0361309
-0.0383274
-0.0406289
-0.0431207
-0.0457737
-0.0488071
0.13171
0.132533
0.133376
0.134167
0.134871
0.135498
0.136075
0.136617
0.137131
0.137615
0.138072
0.138501
0.138905
0.139285
0.139639
0.13997
0.140278
0.140564
0.140827
0.141068
0.141288
0.141486
0.141664
0.141821
0.141959
0.142076
0.142174
0.142253
0.142313
0.142354
0.142377
0.142381
0.142368
0.142336
0.142287
0.142221
0.142138
0.142038
0.141921
0.141788
0.141638
0.141473
0.141291
0.141094
0.140881
0.140653
0.140409
0.14015
0.139877
0.139588
0.139285
0.138968
0.138636
0.138289
0.137929
0.137555
0.137166
0.136764
0.136349
0.135919
0.135477
0.135021
0.134551
0.134069
0.133573
0.133065
0.132543
0.132009
0.131462
0.130902
0.13033
0.129745
0.129147
0.128538
0.127915
0.127281
0.126634
0.125975
0.125304
0.124621
0.123925
0.123218
0.122498
0.121767
0.121024
0.120268
0.119501
0.118722
0.117931
0.117128
0.116313
0.115487
0.114648
0.113798
0.112936
0.112062
0.111176
0.110279
0.109369
0.108448
0.107515
0.106571
0.105614
0.104645
0.103664
0.102672
0.101668
0.100651
0.0996229
0.0985826
0.09753
0.0964656
0.0953889
0.0943001
0.0931993
0.0920859
0.0909605
0.0898227
0.0886728
0.0875102
0.0863353
0.085148
0.0839481
0.0827358
0.0815107
0.0802731
0.0790227
0.0777594
0.0764834
0.0751949
0.0738931
0.0725784
0.0712508
0.06991
0.0685562
0.0671892
0.0658089
0.0644153
0.0630086
0.0615882
0.0601547
0.0587076
0.0572471
0.0557728
0.054285
0.0527837
0.0512685
0.0497395
0.0481971
0.0466403
0.0450701
0.0434857
0.0418879
0.0402758
0.03865
0.0370099
0.0353559
0.0336878
0.0320062
0.0303105
0.0286007
0.0268767
0.0251388
0.0233872
0.0216215
0.0198422
0.0180488
0.016242
0.0144215
0.0125875
0.0107397
0.00887857
0.00700412
0.00511605
0.00321523
0.00130216
-0.000624671
-0.00256365
-0.00451594
-0.00647984
-0.00845671
-0.0104449
-0.0124456
-0.0144576
-0.0164821
-0.0185176
-0.020565
-0.0226244
-0.0246963
-0.0267803
-0.0288791
-0.0309917
-0.0331216
-0.0352668
-0.0374388
-0.0396918
-0.0421062
-0.0447084
-0.0473553
-0.049821
0.131416
0.132083
0.132886
0.133703
0.134456
0.135126
0.13573
0.136293
0.136823
0.137324
0.137798
0.138243
0.138663
0.139057
0.139427
0.139773
0.140095
0.140395
0.140672
0.140927
0.14116
0.141372
0.141563
0.141733
0.141883
0.142013
0.142123
0.142213
0.142285
0.142337
0.142371
0.142386
0.142384
0.142363
0.142324
0.142268
0.142194
0.142103
0.141995
0.141871
0.14173
0.141572
0.141399
0.141209
0.141003
0.140782
0.140545
0.140292
0.140025
0.139742
0.139444
0.139132
0.138804
0.138463
0.138106
0.137736
0.137351
0.136952
0.136539
0.136112
0.135671
0.135217
0.134749
0.134268
0.133773
0.133265
0.132744
0.132209
0.131662
0.131101
0.130527
0.129941
0.129342
0.12873
0.128105
0.127468
0.126818
0.126155
0.12548
0.124793
0.124093
0.123381
0.122656
0.121919
0.12117
0.120409
0.119635
0.11885
0.118052
0.117241
0.116419
0.115585
0.114738
0.113879
0.113009
0.112126
0.111231
0.110324
0.109404
0.108473
0.107529
0.106574
0.105606
0.104626
0.103634
0.10263
0.101613
0.100585
0.0995438
0.0984908
0.0974252
0.0963474
0.0952573
0.0941547
0.0930399
0.0919125
0.0907727
0.0896202
0.0884555
0.0872779
0.086088
0.0848851
0.0836698
0.0824416
0.0812006
0.079947
0.0786803
0.0774007
0.0761083
0.0748029
0.0734843
0.0721529
0.0708081
0.0694503
0.068079
0.0666948
0.0652969
0.0638859
0.0624616
0.0610236
0.0595723
0.0581076
0.056629
0.0551373
0.0536315
0.0521121
0.0505795
0.0490328
0.0474722
0.0458979
0.0443099
0.042708
0.0410922
0.039463
0.0378197
0.0361624
0.034491
0.0328063
0.0311075
0.0293951
0.0276686
0.0259282
0.0241743
0.0224068
0.0206253
0.0188308
0.0170225
0.0152003
0.0133651
0.011517
0.00965506
0.00778018
0.00589248
0.00399152
0.00207824
0.000152637
-0.0017854
-0.00373578
-0.0056985
-0.00767357
-0.0096596
-0.0116576
-0.0136671
-0.0156883
-0.0177203
-0.0197636
-0.021819
-0.0238852
-0.0259642
-0.0280561
-0.0301615
-0.0322822
-0.0344185
-0.0365763
-0.0387893
-0.0411266
-0.0436478
-0.0462693
-0.0487035
-0.0505666
0.131032
0.131667
0.132415
0.133224
0.134012
0.134728
0.135368
0.135955
0.136504
0.137022
0.137512
0.137975
0.13841
0.13882
0.139205
0.139566
0.139903
0.140217
0.140508
0.140777
0.141024
0.141249
0.141454
0.141637
0.1418
0.141942
0.142065
0.142168
0.142251
0.142316
0.142361
0.142388
0.142396
0.142385
0.142357
0.142311
0.142248
0.142166
0.142068
0.141953
0.14182
0.141671
0.141506
0.141324
0.141126
0.140912
0.140682
0.140436
0.140175
0.139898
0.139606
0.139299
0.138977
0.13864
0.138288
0.137921
0.13754
0.137145
0.136735
0.136311
0.135872
0.13542
0.134954
0.134474
0.13398
0.133473
0.132952
0.132417
0.131869
0.131308
0.130733
0.130145
0.129545
0.12893
0.128303
0.127663
0.12701
0.126344
0.125666
0.124974
0.12427
0.123553
0.122823
0.122081
0.121326
0.120559
0.119779
0.118986
0.118181
0.117364
0.116534
0.115691
0.114836
0.113969
0.113089
0.112197
0.111293
0.110376
0.109446
0.108504
0.10755
0.106584
0.105605
0.104613
0.103609
0.102593
0.101564
0.100523
0.099469
0.0984027
0.0973239
0.0962324
0.0951284
0.0940118
0.0928826
0.0917405
0.090586
0.0894187
0.0882387
0.0870456
0.08584
0.0846216
0.0833901
0.0821457
0.0808885
0.0796182
0.078335
0.0770385
0.0757292
0.0744065
0.0730707
0.0717218
0.0703597
0.0689841
0.0675952
0.0661932
0.0647777
0.0633486
0.0619061
0.0604503
0.0589809
0.0574979
0.0560013
0.0544912
0.0529672
0.0514298
0.0498787
0.0483138
0.0467351
0.045143
0.0435367
0.0419172
0.0402836
0.0386363
0.0369754
0.0353006
0.033612
0.0319102
0.0301942
0.0284646
0.0267217
0.024965
0.0231949
0.021411
0.019614
0.0178039
0.0159804
0.0141437
0.0122937
0.0104312
0.00855546
0.00666703
0.00476632
0.00285277
0.000927211
-0.00101092
-0.00296044
-0.0049218
-0.00689487
-0.00887958
-0.0108754
-0.0128828
-0.014901
-0.0169304
-0.0189702
-0.0210212
-0.0230834
-0.0251571
-0.0272429
-0.029342
-0.0314548
-0.0335828
-0.0357296
-0.0379149
-0.0401922
-0.0426269
-0.0451976
-0.0477192
-0.0498932
-0.0515808
0.130573
0.131252
0.13197
0.132748
0.133547
0.134302
0.134984
0.135601
0.136172
0.136708
0.137216
0.137695
0.138147
0.138573
0.138973
0.139349
0.139701
0.14003
0.140335
0.140619
0.14088
0.141119
0.141337
0.141534
0.14171
0.141866
0.142001
0.142116
0.142212
0.142289
0.142346
0.142384
0.142404
0.142405
0.142387
0.142352
0.142298
0.142227
0.142139
0.142033
0.14191
0.14177
0.141613
0.141439
0.141249
0.141043
0.14082
0.140582
0.140327
0.140057
0.139771
0.13947
0.139153
0.138821
0.138474
0.138111
0.137734
0.137342
0.136936
0.136515
0.136079
0.13563
0.135165
0.134687
0.134194
0.133688
0.133167
0.132633
0.132085
0.131523
0.130948
0.130359
0.129756
0.12914
0.128511
0.127868
0.127212
0.126543
0.12586
0.125165
0.124456
0.123735
0.123
0.122252
0.121491
0.120718
0.119931
0.119132
0.11832
0.117495
0.116657
0.115806
0.114943
0.114067
0.113178
0.112277
0.111362
0.110435
0.109496
0.108543
0.107578
0.1066
0.10561
0.104606
0.10359
0.102562
0.10152
0.100466
0.0993989
0.098319
0.0972264
0.0961209
0.0950027
0.0938714
0.0927276
0.0915706
0.0904008
0.0892181
0.0880224
0.0868136
0.0855919
0.0843572
0.0831092
0.0818484
0.0805742
0.0792871
0.0779865
0.076673
0.0753462
0.0740059
0.0726524
0.0712857
0.0699055
0.068512
0.067105
0.0656847
0.0642508
0.0628035
0.0613425
0.0598681
0.0583802
0.0568785
0.0553636
0.0538347
0.0522922
0.0507363
0.0491666
0.0475831
0.0459859
0.0443753
0.042751
0.0411133
0.0394617
0.0377963
0.0361176
0.0344248
0.0327189
0.0309995
0.0292662
0.0275196
0.0257601
0.0239868
0.0222004
0.0204004
0.0185876
0.0167619
0.0149233
0.0130717
0.0112074
0.00933038
0.00744084
0.00553929
0.00362576
0.00169975
-0.000237936
-0.00218772
-0.00414854
-0.00612057
-0.00810387
-0.0100987
-0.0121043
-0.0141197
-0.0161461
-0.0181836
-0.020231
-0.0222889
-0.0243587
-0.0264386
-0.0285319
-0.0306381
-0.0327588
-0.0348953
-0.0370626
-0.0392955
-0.041653
-0.0441551
-0.0466921
-0.0490364
-0.051037
-0.0528086
0.130076
0.130821
0.131537
0.132285
0.133075
0.133854
0.134575
0.135227
0.135825
0.136382
0.136907
0.137404
0.137872
0.138315
0.138731
0.139122
0.13949
0.139833
0.140154
0.140452
0.140727
0.140981
0.141213
0.141423
0.141613
0.141782
0.14193
0.142059
0.142167
0.142256
0.142326
0.142376
0.142407
0.14242
0.142414
0.142389
0.142347
0.142286
0.142208
0.142112
0.141998
0.141867
0.14172
0.141555
0.141373
0.141175
0.14096
0.140729
0.140481
0.140218
0.139939
0.139643
0.139332
0.139006
0.138664
0.138306
0.137934
0.137546
0.137143
0.136725
0.136293
0.135846
0.135384
0.134907
0.134416
0.133911
0.133391
0.132857
0.132309
0.131747
0.131171
0.130581
0.129977
0.129359
0.128728
0.128082
0.127423
0.126751
0.126065
0.125365
0.124652
0.123926
0.123186
0.122433
0.121667
0.120887
0.120094
0.119288
0.118468
0.117636
0.11679
0.115931
0.115059
0.114174
0.113276
0.112365
0.111441
0.110503
0.109553
0.10859
0.107613
0.106624
0.105622
0.104606
0.103578
0.102536
0.101482
0.100414
0.0993335
0.0982397
0.097133
0.0960131
0.0948803
0.0937342
0.0925751
0.0914027
0.0902173
0.0890187
0.0878068
0.0865818
0.0853437
0.0840921
0.0828273
0.0815494
0.0802579
0.0789533
0.0776352
0.076304
0.0749591
0.073601
0.0722293
0.0708442
0.0694457
0.0680336
0.0666081
0.0651691
0.0637162
0.0622503
0.0607704
0.0592773
0.0577701
0.0562496
0.0547154
0.0531678
0.0516062
0.0500315
0.0484429
0.0468405
0.0452248
0.0435954
0.0419524
0.0402959
0.0386259
0.0369426
0.0352454
0.033535
0.0318111
0.0300742
0.0283235
0.0265602
0.0247831
0.0229934
0.0211905
0.0193746
0.0175459
0.0157048
0.013851
0.0119846
0.0101058
0.00821523
0.00631195
0.00439704
0.00247057
0.00053235
-0.00141719
-0.00337819
-0.00535024
-0.00733243
-0.00932603
-0.01133
-0.0133444
-0.0153687
-0.0174035
-0.0194477
-0.0215025
-0.0235677
-0.0256436
-0.0277312
-0.029831
-0.0319448
-0.0340737
-0.0362268
-0.0384279
-0.0407239
-0.0431518
-0.0456665
-0.0480992
-0.0502697
-0.0521972
-0.0541239
0.129561
0.130363
0.131103
0.131835
0.132605
0.133391
0.134143
0.134832
0.135461
0.136042
0.136587
0.137101
0.137587
0.138045
0.138478
0.138886
0.139268
0.139627
0.139963
0.140276
0.140566
0.140834
0.14108
0.141305
0.141508
0.141691
0.141853
0.141995
0.142116
0.142218
0.1423
0.142363
0.142406
0.142431
0.142436
0.142423
0.142392
0.142342
0.142274
0.142189
0.142085
0.141964
0.141826
0.14167
0.141497
0.141307
0.141101
0.140878
0.140638
0.140381
0.140109
0.13982
0.139515
0.139195
0.138858
0.138506
0.138138
0.137755
0.137356
0.136942
0.136513
0.136068
0.135609
0.135135
0.134645
0.134142
0.133623
0.13309
0.132542
0.13198
0.131403
0.130812
0.130207
0.129588
0.128954
0.128306
0.127645
0.126969
0.12628
0.125576
0.124859
0.124128
0.123383
0.122624
0.121852
0.121066
0.120266
0.119453
0.118627
0.117786
0.116933
0.116065
0.115185
0.11429
0.113383
0.112462
0.111528
0.11058
0.109619
0.108644
0.107656
0.106655
0.105641
0.104613
0.103571
0.102517
0.101449
0.100368
0.0992731
0.0981651
0.097044
0.0959091
0.0947613
0.0935998
0.0924251
0.0912369
0.0900355
0.0888206
0.0875921
0.0863504
0.0850951
0.0838264
0.0825442
0.0812486
0.0799396
0.078617
0.0772808
0.0759312
0.074568
0.0731912
0.071801
0.0703971
0.0689796
0.0675486
0.0661039
0.0646456
0.0631739
0.0616883
0.0601893
0.0586766
0.0571502
0.0556105
0.0540567
0.0524896
0.0509088
0.0493148
0.0477068
0.0460854
0.0444507
0.0428023
0.0411401
0.0394647
0.0377763
0.0360743
0.0343589
0.0326303
0.0308887
0.0291336
0.0273658
0.025585
0.0237912
0.0219846
0.0201651
0.0183333
0.016489
0.0146324
0.0127634
0.0108822
0.00898941
0.00708455
0.00516812
0.00324027
0.00130118
-0.000649244
-0.00261019
-0.00458269
-0.00656491
-0.00855793
-0.0105604
-0.012574
-0.0145966
-0.0166293
-0.0186713
-0.0207237
-0.0227852
-0.0248571
-0.02694
-0.0290345
-0.0311414
-0.0332629
-0.0354047
-0.0375836
-0.0398325
-0.0421924
-0.0446602
-0.0471279
-0.0494214
-0.0514652
-0.0534067
-0.0554562
0.129037
0.129882
0.130659
0.131392
0.132143
0.132922
0.133692
0.134415
0.135077
0.135686
0.136253
0.136786
0.137289
0.137765
0.138214
0.138638
0.139037
0.139411
0.139762
0.14009
0.140395
0.140678
0.140939
0.141178
0.141396
0.141592
0.141768
0.141924
0.142059
0.142174
0.142269
0.142344
0.1424
0.142437
0.142455
0.142453
0.142433
0.142395
0.142338
0.142263
0.14217
0.14206
0.141931
0.141785
0.141621
0.141441
0.141243
0.141028
0.140796
0.140547
0.140282
0.14
0.139702
0.139387
0.139057
0.13871
0.138347
0.137969
0.137574
0.137164
0.136739
0.136298
0.135841
0.135369
0.134882
0.13438
0.133863
0.133331
0.132783
0.132221
0.131645
0.131053
0.130447
0.129826
0.12919
0.128541
0.127876
0.127198
0.126504
0.125797
0.125075
0.12434
0.12359
0.122826
0.122048
0.121255
0.120449
0.119629
0.118795
0.117947
0.117085
0.116209
0.11532
0.114416
0.113499
0.112568
0.111623
0.110665
0.109693
0.108707
0.107707
0.106694
0.105667
0.104626
0.103572
0.102504
0.101422
0.100327
0.099218
0.0980953
0.0969591
0.0958092
0.0946457
0.0934685
0.0922778
0.0910732
0.0898553
0.0886235
0.087378
0.0861192
0.0848462
0.08356
0.0822598
0.0809461
0.0796188
0.0782777
0.0769231
0.0755545
0.0741725
0.0727766
0.0713672
0.0699441
0.0685071
0.0670566
0.0655923
0.0641145
0.0626229
0.0611177
0.0595988
0.0580662
0.05652
0.0549605
0.0533871
0.0518001
0.0501996
0.0485858
0.0469579
0.0453173
0.0436628
0.0419953
0.040314
0.0386197
0.0369119
0.0351915
0.0334574
0.0317105
0.0299507
0.028178
0.0263923
0.0245945
0.0227832
0.02096
0.019124
0.0172762
0.0154164
0.013544
0.0116602
0.00976462
0.00785736
0.00593897
0.00400927
0.00206831
0.000117193
-0.00184506
-0.00381749
-0.0058008
-0.00779338
-0.00979585
-0.0118086
-0.0138296
-0.0158613
-0.0179012
-0.0199513
-0.0220103
-0.0240788
-0.0261577
-0.0282467
-0.0303478
-0.0324633
-0.0345956
-0.036757
-0.0389724
-0.0412754
-0.0436847
-0.0461449
-0.0485173
-0.0506751
-0.0526512
-0.054646
-0.0567703
0.128506
0.129382
0.130196
0.130947
0.131688
0.132455
0.13323
0.133978
0.134673
0.135312
0.135904
0.136458
0.13698
0.137473
0.137939
0.13838
0.138794
0.139185
0.139552
0.139895
0.140215
0.140513
0.140789
0.141043
0.141275
0.141486
0.141676
0.141845
0.141994
0.142123
0.142231
0.14232
0.142389
0.142438
0.142468
0.142479
0.142472
0.142445
0.1424
0.142336
0.142254
0.142154
0.142035
0.141899
0.141745
0.141574
0.141385
0.141179
0.140955
0.140715
0.140457
0.140183
0.139892
0.139584
0.13926
0.138919
0.138562
0.138188
0.137799
0.137393
0.136972
0.136534
0.136081
0.135612
0.135127
0.134627
0.134111
0.13358
0.133034
0.132472
0.131895
0.131303
0.130696
0.130074
0.129437
0.128785
0.128118
0.127436
0.12674
0.126029
0.125303
0.124563
0.123808
0.123038
0.122254
0.121456
0.120643
0.119816
0.118974
0.118118
0.117248
0.116364
0.115465
0.114552
0.113625
0.112684
0.111729
0.110759
0.109776
0.108778
0.107766
0.10674
0.105701
0.104647
0.103579
0.102497
0.101401
0.100292
0.0991681
0.0980303
0.0968788
0.0957132
0.0945338
0.0933404
0.092133
0.0909118
0.0896767
0.0884276
0.0871647
0.0858878
0.0845972
0.0832926
0.0819742
0.0806418
0.0792955
0.0779356
0.0765617
0.0751741
0.0737723
0.072357
0.0709279
0.0694848
0.0680279
0.0665575
0.0650732
0.063575
0.0620634
0.0605378
0.0589987
0.0574458
0.0558794
0.0542994
0.0527056
0.0510988
0.0494782
0.0478441
0.0461963
0.0445355
0.0428615
0.0411741
0.0394737
0.0377597
0.0360332
0.0342932
0.0325409
0.030775
0.0289973
0.0272066
0.0254032
0.0235878
0.0217596
0.0199195
0.0180671
0.0162031
0.0143276
0.0124396
0.0105412
0.00863118
0.00670976
0.00477786
0.00283464
0.000881709
-0.00108183
-0.00305555
-0.00503923
-0.0070325
-0.00903528
-0.0110474
-0.0130687
-0.0150987
-0.0171375
-0.0191856
-0.0212422
-0.0233084
-0.0253829
-0.0274686
-0.0295648
-0.0316731
-0.0337978
-0.0359467
-0.0381357
-0.0403946
-0.0427465
-0.0451744
-0.0475812
-0.0498394
-0.0518922
-0.0538598
-0.05591
-0.0580618
0.127967
0.128865
0.129712
0.130491
0.131238
0.131991
0.132763
0.133526
0.134249
0.134919
0.135538
0.136115
0.136657
0.137169
0.137653
0.13811
0.138541
0.138948
0.139331
0.13969
0.140026
0.140339
0.14063
0.140899
0.141146
0.141372
0.141576
0.14176
0.141923
0.142065
0.142187
0.14229
0.142372
0.142434
0.142477
0.142501
0.142506
0.142491
0.142458
0.142406
0.142335
0.142246
0.142138
0.142013
0.141869
0.141708
0.141528
0.141331
0.141117
0.140885
0.140635
0.140369
0.140085
0.139784
0.139467
0.139132
0.138781
0.138413
0.138029
0.137628
0.137211
0.136777
0.136328
0.135862
0.13538
0.134882
0.134368
0.133839
0.133293
0.132732
0.132156
0.131563
0.130956
0.130332
0.129694
0.12904
0.128371
0.127686
0.126986
0.126272
0.125542
0.124797
0.124037
0.123262
0.122472
0.121667
0.120848
0.120013
0.119164
0.1183
0.117422
0.116529
0.115621
0.114698
0.113761
0.11281
0.111843
0.110863
0.109868
0.108858
0.107834
0.106795
0.105742
0.104675
0.103594
0.102498
0.101387
0.100263
0.0991238
0.0979706
0.0968031
0.0956214
0.0944257
0.0932153
0.0919911
0.0907525
0.0894998
0.0882331
0.086952
0.0856569
0.0843476
0.0830243
0.0816868
0.0803354
0.0789698
0.0775901
0.0761967
0.0747891
0.0733675
0.0719321
0.0704826
0.0690191
0.067542
0.0660508
0.064546
0.0630272
0.0614946
0.0599484
0.0583886
0.0568148
0.0552278
0.053627
0.0520126
0.050385
0.0487439
0.047089
0.0454214
0.0437403
0.0420461
0.0403387
0.0386184
0.0368849
0.0351389
0.03338
0.0316084
0.0298241
0.0280276
0.026219
0.0243979
0.0225643
0.0207195
0.0188625
0.0169941
0.0151139
0.0132223
0.0113191
0.00940592
0.00748164
0.00554643
0.00360111
0.00164542
-0.000320153
-0.00229542
-0.00428055
-0.00627476
-0.0082786
-0.0102907
-0.0123119
-0.0143416
-0.0163798
-0.0184261
-0.0204815
-0.022545
-0.0246171
-0.0266988
-0.0287908
-0.030894
-0.0330119
-0.0351494
-0.0373191
-0.0395437
-0.0418464
-0.044229
-0.0466377
-0.0489604
-0.0511031
-0.0531007
-0.0550942
-0.0571844
-0.0593336
0.127416
0.128329
0.129206
0.13002
0.130782
0.131532
0.132296
0.133064
0.133808
0.134507
0.135155
0.135757
0.136321
0.136852
0.137354
0.137828
0.138277
0.1387
0.139099
0.139474
0.139826
0.140155
0.140461
0.140746
0.141008
0.141249
0.141468
0.141666
0.141844
0.142001
0.142137
0.142253
0.142349
0.142425
0.142482
0.142518
0.142536
0.142534
0.142513
0.142473
0.142414
0.142336
0.14224
0.142125
0.141992
0.141841
0.141672
0.141484
0.141279
0.141056
0.140815
0.140557
0.140281
0.139988
0.139678
0.13935
0.139005
0.138643
0.138264
0.137869
0.137456
0.137027
0.136582
0.136119
0.135641
0.135145
0.134634
0.134106
0.133562
0.133002
0.132426
0.131834
0.131225
0.130601
0.129961
0.129306
0.128634
0.127947
0.127244
0.126526
0.125792
0.125042
0.124278
0.123497
0.122702
0.12189
0.121064
0.120223
0.119366
0.118494
0.117607
0.116705
0.115787
0.114855
0.113908
0.112945
0.111968
0.110976
0.109969
0.108947
0.10791
0.106859
0.105792
0.104711
0.103615
0.102505
0.10138
0.10024
0.0990852
0.097916
0.0967323
0.095534
0.0943211
0.0930938
0.091852
0.0905955
0.0893248
0.0880395
0.0867401
0.0854259
0.0840976
0.082755
0.081398
0.0800268
0.0786412
0.0772417
0.0758277
0.0743997
0.0729576
0.0715014
0.0700312
0.0685468
0.0670485
0.0655365
0.0640103
0.0624704
0.0609165
0.0593491
0.0577678
0.0561732
0.0545646
0.0529427
0.0513075
0.0496585
0.0479964
0.0463208
0.0446323
0.0429308
0.0412158
0.0394883
0.0377479
0.0359947
0.0342289
0.0324508
0.03066
0.0288567
0.0270415
0.0252145
0.0233755
0.0215248
0.0196623
0.0177886
0.0159037
0.0140078
0.0121007
0.0101827
0.00825454
0.00631587
0.00436719
0.00240881
0.0004404
-0.00153725
-0.0035239
-0.00551999
-0.00752485
-0.00953799
-0.0115595
-0.0135894
-0.0156277
-0.0176731
-0.0197271
-0.0217887
-0.023859
-0.0259376
-0.0280258
-0.0301241
-0.0322359
-0.0343646
-0.0365202
-0.0387179
-0.0409788
-0.0433161
-0.045702
-0.0480577
-0.0502806
-0.052338
-0.0543196
-0.0563562
-0.058472
-0.060596
0.126853
0.127781
0.128682
0.129529
0.130317
0.131073
0.13183
0.132597
0.133354
0.134077
0.134753
0.135382
0.13597
0.136522
0.137042
0.137535
0.138001
0.138441
0.138857
0.139248
0.139616
0.139961
0.140283
0.140583
0.140861
0.141117
0.141352
0.141565
0.141757
0.141929
0.14208
0.14221
0.14232
0.14241
0.14248
0.14253
0.142561
0.142572
0.142564
0.142536
0.14249
0.142424
0.14234
0.142236
0.142115
0.141974
0.141815
0.141638
0.141443
0.141229
0.140997
0.140748
0.140481
0.140195
0.139893
0.139572
0.139234
0.138879
0.138506
0.138116
0.137709
0.137285
0.136843
0.136385
0.13591
0.135417
0.134908
0.134383
0.133841
0.133282
0.132706
0.132114
0.131506
0.130881
0.13024
0.129583
0.128909
0.12822
0.127514
0.126792
0.126054
0.1253
0.12453
0.123744
0.122943
0.122126
0.121292
0.120444
0.119579
0.118699
0.117803
0.116892
0.115965
0.115023
0.114065
0.113092
0.112103
0.111099
0.11008
0.109046
0.107996
0.106931
0.105851
0.104755
0.103645
0.102519
0.101379
0.100223
0.0990527
0.0978668
0.0966665
0.095451
0.0942207
0.0929756
0.0917156
0.090441
0.0891516
0.0878473
0.0865287
0.0851951
0.0838472
0.0824846
0.0811074
0.079716
0.0783099
0.0768895
0.0754547
0.0740057
0.0725424
0.0710649
0.0695731
0.0680674
0.0665477
0.0650138
0.0634659
0.0619042
0.0603288
0.0587395
0.0571364
0.05552
0.0538898
0.052246
0.0505893
0.048919
0.0472354
0.0455386
0.043829
0.0421062
0.040371
0.0386225
0.036862
0.0350883
0.033303
0.0315048
0.0296949
0.0278728
0.0260387
0.0241932
0.0223363
0.0204679
0.0185884
0.0166977
0.0147963
0.0128844
0.0109621
0.00902945
0.00708657
0.00513382
0.00317182
0.00120053
-0.000780148
-0.00276961
-0.00476765
-0.00677423
-0.0087888
-0.0108117
-0.0128421
-0.0148802
-0.0169259
-0.0189792
-0.0210396
-0.023108
-0.0251842
-0.0272694
-0.0293644
-0.0314708
-0.0335917
-0.035735
-0.0379118
-0.0401407
-0.0424349
-0.0447884
-0.0471477
-0.0494268
-0.0515554
-0.0535629
-0.0555578
-0.0576318
-0.0597541
-0.0618501
0.126278
0.127222
0.128142
0.129017
0.129836
0.130608
0.131366
0.132129
0.132891
0.133633
0.134334
0.13499
0.135602
0.136176
0.136718
0.137229
0.137713
0.138171
0.138603
0.139011
0.139396
0.139757
0.140095
0.140411
0.140705
0.140976
0.141226
0.141455
0.141662
0.141849
0.142015
0.14216
0.142284
0.142389
0.142473
0.142537
0.142582
0.142606
0.142611
0.142597
0.142563
0.14251
0.142437
0.142346
0.142236
0.142107
0.141959
0.141792
0.141607
0.141404
0.141182
0.140941
0.140683
0.140406
0.140111
0.139799
0.139468
0.13912
0.138753
0.138369
0.137968
0.137549
0.137112
0.136658
0.136187
0.135698
0.135192
0.134669
0.134129
0.133571
0.132997
0.132405
0.131797
0.131172
0.13053
0.129871
0.129196
0.128504
0.127795
0.12707
0.126328
0.12557
0.124795
0.124004
0.123197
0.122373
0.121533
0.120677
0.119805
0.118916
0.118012
0.117091
0.116155
0.115202
0.114234
0.11325
0.112249
0.111233
0.110202
0.109154
0.108091
0.107012
0.105918
0.104808
0.103683
0.102542
0.101385
0.100213
0.0990261
0.0978235
0.0966057
0.0953727
0.0941243
0.092861
0.0915824
0.0902887
0.0889802
0.0876564
0.086318
0.0849643
0.083596
0.0822131
0.0808151
0.0794027
0.0779756
0.0765338
0.0750776
0.0736069
0.0721218
0.0706223
0.0691086
0.0675807
0.0660387
0.0644826
0.0629125
0.0613285
0.0597306
0.0581192
0.0564938
0.0548549
0.0532027
0.0515368
0.0498578
0.0481656
0.0464603
0.044742
0.0430108
0.0412668
0.0395103
0.0377411
0.0359597
0.0341656
0.0323601
0.0305424
0.0287129
0.0268714
0.0250187
0.0231547
0.0212798
0.0193937
0.0174968
0.0155896
0.0136717
0.0117441
0.00980643
0.00785892
0.0059021
0.0039354
0.00196053
-2.41211e-05
-0.00201672
-0.00401723
-0.00602618
-0.00804311
-0.0100674
-0.0120993
-0.0141382
-0.0161845
-0.0182375
-0.0202972
-0.0223646
-0.0244391
-0.0265217
-0.0286131
-0.030715
-0.0328299
-0.0349638
-0.0371242
-0.0393268
-0.0415845
-0.0439006
-0.0462471
-0.0485539
-0.0507473
-0.052806
-0.0547964
-0.056822
-0.0589183
-0.0610256
-0.0630939
0.125691
0.126649
0.127586
0.128487
0.129337
0.130133
0.130899
0.13166
0.132424
0.133177
0.133899
0.134581
0.135219
0.135816
0.136379
0.13691
0.137412
0.137888
0.138338
0.138763
0.139164
0.139542
0.139897
0.140229
0.140538
0.140826
0.141092
0.141336
0.141559
0.141761
0.141942
0.142102
0.142242
0.142361
0.14246
0.142539
0.142597
0.142636
0.142654
0.142653
0.142633
0.142592
0.142533
0.142454
0.142356
0.142238
0.142102
0.141947
0.141772
0.141579
0.141367
0.141137
0.140888
0.14062
0.140334
0.14003
0.139707
0.139366
0.139007
0.138629
0.138234
0.13782
0.137389
0.136939
0.136472
0.135987
0.135485
0.134964
0.134426
0.133871
0.133298
0.132707
0.132099
0.131474
0.130832
0.130172
0.129495
0.1288
0.128089
0.12736
0.126615
0.125852
0.125073
0.124277
0.123463
0.122633
0.121787
0.120923
0.120043
0.119146
0.118233
0.117303
0.116356
0.115393
0.114414
0.113419
0.112407
0.111378
0.110334
0.109273
0.108196
0.107103
0.105994
0.104869
0.103728
0.102571
0.101399
0.10021
0.099006
0.097786
0.0965503
0.0952991
0.0940322
0.09275
0.0914521
0.0901391
0.0888104
0.0874668
0.0861078
0.0847337
0.0833444
0.0819403
0.0805208
0.079087
0.0776378
0.0761743
0.0746959
0.0732029
0.0716954
0.0701733
0.0686371
0.0670865
0.0655216
0.0639426
0.0623496
0.0607429
0.059122
0.0574875
0.0558394
0.0541777
0.0525026
0.0508142
0.0491129
0.0473981
0.0456707
0.0439302
0.0421771
0.0404117
0.0386333
0.0368431
0.0350408
0.0332262
0.0314002
0.0295625
0.0277133
0.0258528
0.023981
0.0220985
0.0202053
0.0183019
0.0163875
0.0144637
0.0125299
0.0105863
0.00863334
0.00667141
0.00470019
0.00272047
0.000731913
-0.00126425
-0.00326866
-0.00528058
-0.00729977
-0.00932655
-0.0113602
-0.0134007
-0.0154476
-0.0175014
-0.0195613
-0.0216279
-0.0237019
-0.0257826
-0.0278707
-0.0299686
-0.0320786
-0.0342044
-0.0363524
-0.0385337
-0.0407616
-0.0430422
-0.045363
-0.0476787
-0.0499169
-0.0520327
-0.0540448
-0.0560443
-0.058102
-0.0602076
-0.0622934
-0.0643308
0.125092
0.126066
0.127018
0.127939
0.128818
0.129642
0.130425
0.13119
0.131953
0.132712
0.133451
0.134156
0.134818
0.13544
0.136025
0.136577
0.137099
0.137593
0.13806
0.138503
0.138921
0.139316
0.139687
0.140036
0.140362
0.140666
0.140948
0.141209
0.141447
0.141665
0.141862
0.142037
0.142192
0.142327
0.14244
0.142534
0.142607
0.14266
0.142693
0.142706
0.142699
0.142672
0.142626
0.14256
0.142474
0.142369
0.142245
0.142101
0.141938
0.141756
0.141555
0.141335
0.141096
0.140837
0.14056
0.140265
0.13995
0.139617
0.139265
0.138895
0.138506
0.138099
0.137673
0.137229
0.136766
0.136286
0.135787
0.13527
0.134734
0.134181
0.13361
0.133021
0.132413
0.131788
0.131145
0.130484
0.129806