/*--------------------------------*- C++ -*----------------------------------*\
  =========                 |
  \\      /  F ield         | OpenFOAM: The Open Source CFD Toolbox
   \\    /   O peration     | Website:  https://openfoam.org
    \\  /    A nd           | Version:  8
     \\/     M anipulation  |
\*---------------------------------------------------------------------------*/
FoamFile
{
    version     2.0;
    format      ascii;
    class       surfaceScalarField;
    location    "0.0082";
    object      phi;
}
// * * * * * * * * * * * * * * * * * * * * * * * * * * * * * * * * * * * * * //

dimensions      [0 3 -1 0 0 0 0];

internalField   nonuniform List<scalar> 
217842
(
-0.00360002
0.0264
-0.00839998
0.0708
-0.012
0.1152
-0.0168
0.1596
-0.0216001
0.204
-0.0252001
0.2484
-0.0288001
0.2916
-0.0324001
0.336
-0.0360001
0.3792
-0.0396002
0.4248
-0.0420002
0.4668
-0.0456002
0.5112
-0.0492002
0.5556
-0.0528002
0.5976
-0.0540002
0.6408
-0.0576002
0.6852
-0.0612002
0.7272
-0.0636002
0.7704
-0.0660002
0.8124
-0.0672002
0.8544
-0.0708002
0.8976
-0.0720001
0.9384
-0.0744001
0.9804
-0.0756001
1.0224
-0.0780001
1.0632
-0.0792001
1.104
-0.0816001
1.146
-0.0828
1.1844
-0.084
1.2252
-0.0864
1.266
-0.0876
1.3044
-0.0887999
1.344
-0.0899999
1.3824
-0.0899999
1.4208
-0.0911998
1.4592
-0.0911998
1.4964
-0.0923998
1.5348
-0.0935997
1.572
-0.0935997
1.608
-0.0947997
1.644
-0.0947996
1.68
-0.0947996
1.716
-0.0947996
1.7496
-0.0947995
1.7856
-0.0947995
1.8192
-0.0947994
1.8528
-0.0947994
1.8864
-0.0935993
1.9188
-0.0935993
1.9512
-0.0935993
1.9836
-0.0923992
2.0136
-0.0923992
2.046
-0.0911991
2.0748
-0.0905991
2.10564
-0.089759
2.13468
-0.088799
2.16336
-0.0878389
2.19168
-0.0868789
2.2194
-0.0856788
2.24652
-0.0844788
2.27304
-0.0832787
2.2992
-0.0819587
2.32464
-0.0805186
2.34948
-0.0790786
2.37384
-0.0776385
2.3976
-0.0760785
2.42076
-0.0743984
2.4432
-0.0728384
2.46528
-0.0711583
2.48664
-0.0693583
2.50728
-0.0675582
2.52744
-0.0656382
2.54688
-0.0637181
2.56572
-0.0616781
2.58396
-0.059638
2.6016
-0.057718
2.61864
-0.0555579
2.63484
-0.0533979
2.65044
-0.0512378
2.66556
-0.0489578
2.67984
-0.0467977
2.69364
-0.0446377
2.7066
-0.0422376
2.71884
-0.0399576
2.73072
-0.0375575
2.74164
-0.0351575
2.75196
-0.0327574
2.76168
-0.0303574
2.77068
-0.0279573
2.77896
-0.0254373
2.78652
-0.0229172
2.79348
-0.0203972
2.79972
-0.0178771
2.80536
-0.0152371
2.81004
-0.012837
2.81436
-0.010257
2.8178
-0.00770096
2.82058
-0.00513292
2.82266
-0.00256488
2.82404
3.1588e-06
2.82475
0.00257119
2.82475
0.00513924
2.82404
0.00770727
2.82266
0.0102633
2.82058
0.0128433
2.8178
0.0152434
2.81436
0.0178834
2.81004
0.0204034
2.80536
0.0229235
2.79972
0.0254435
2.79348
0.0279635
2.78652
0.0303636
2.77896
0.0327636
2.77068
0.0351636
2.76168
0.0375636
2.75196
0.0399637
2.74164
0.0422437
2.73072
0.0446437
2.71884
0.0468037
2.7066
0.0489637
2.69364
0.0512438
2.67984
0.0534038
2.66556
0.0555638
2.65044
0.0577238
2.63484
0.0596438
2.61864
0.0616838
2.6016
0.0637238
2.58396
0.0656438
2.56572
0.0675639
2.54688
0.0693639
2.52744
0.0711639
2.50728
0.0728439
2.48664
0.0744039
2.46528
0.0760839
2.4432
0.0776439
2.42076
0.0790839
2.3976
0.0805238
2.37384
0.0819638
2.34948
0.0832838
2.32464
0.0844838
2.2992
0.0856838
2.27304
0.0868838
2.24652
0.0878438
2.2194
0.0888038
2.19168
0.0897637
2.16336
0.0906037
2.13468
0.0912037
2.10564
0.0924037
2.0748
0.0924036
2.046
0.0936036
2.0136
0.0936036
1.9836
0.0936035
1.9512
0.0948035
1.9188
0.0948035
1.8864
0.0948034
1.8528
0.0948034
1.8192
0.0948034
1.7856
0.0948033
1.7496
0.0948033
1.716
0.0948032
1.68
0.0936032
1.644
0.0936031
1.608
0.0924031
1.572
0.091203
1.5348
0.0912029
1.4964
0.0900029
1.4592
0.0900028
1.4208
0.0888028
1.3824
0.0876027
1.344
0.0864026
1.3044
0.0840026
1.266
0.0828025
1.2252
0.0816024
1.1844
0.0792023
1.146
0.0780023
1.104
0.0756022
1.0632
0.0744021
1.0224
0.072002
0.9804
0.0708019
0.9384
0.0672019
0.8976
0.0660018
0.8544
0.0636017
0.8124
0.0612016
0.7704
0.0576015
0.7272
0.0540014
0.6852
0.0528013
0.6408
0.0492012
0.5976
0.0456011
0.5556
0.042001
0.5112
0.0396009
0.4668
0.0360008
0.4248
0.0324007
0.3792
0.0288006
0.336
0.0252005
0.2916
0.0216004
0.2484
0.0168002
0.204
0.012
0.1596
0.00839994
0.1152
0.00360007
0.0707999
0.0264001
-0.00480012
0.0312001
-0.00960009
0.0755999
-0.0132
0.1188
-0.0180001
0.1644
-0.0216002
0.2076
-0.0240003
0.2508
-0.0288004
0.2964
-0.0324004
0.3396
-0.0360005
0.3828
-0.0396005
0.4284
-0.0432005
0.4704
-0.0468006
0.5148
-0.0480006
0.5568
-0.0516006
0.6012
-0.0552006
0.6444
-0.0576006
0.6876
-0.0600006
0.7296
-0.0624006
0.7728
-0.0648006
0.8148
-0.0684006
0.858
-0.0696005
0.8988
-0.0732005
0.942
-0.0744004
0.9816
-0.0768004
1.0248
-0.0780004
1.0644
-0.0804003
1.1064
-0.0816002
1.1472
-0.0840002
1.1868
-0.0852001
1.2264
-0.0852
1.266
-0.0864
1.3056
-0.0875999
1.3452
-0.0887998
1.3836
-0.0899997
1.422
-0.0911996
1.4604
-0.0923995
1.4976
-0.0923994
1.5348
-0.0923993
1.572
-0.0935992
1.6092
-0.0935991
1.644
-0.094799
1.6812
-0.0935988
1.7148
-0.0947987
1.7508
-0.0947986
1.7856
-0.0947985
1.8192
-0.0947984
1.8528
-0.0947982
1.8864
-0.0935981
1.9176
-0.093598
1.9512
-0.0923978
1.9824
-0.0935977
2.0148
-0.0911975
2.0436
-0.0911974
2.0748
-0.0905973
2.10504
-0.0897571
2.13384
-0.088917
2.16252
-0.0878368
2.1906
-0.0867567
2.21832
-0.0856765
2.24544
-0.0845964
2.27196
-0.0832762
2.29788
-0.0819561
2.32332
-0.0805159
2.34804
-0.0791957
2.37252
-0.0776356
2.39604
-0.0760754
2.4192
-0.0745153
2.44164
-0.0728351
2.4636
-0.071035
2.48484
-0.0692348
2.50548
-0.0674346
2.52564
-0.0655145
2.54496
-0.0637143
2.56392
-0.0617942
2.58204
-0.059754
2.59956
-0.0575939
2.61648
-0.0555537
2.6328
-0.0535136
2.6484
-0.0512334
2.66328
-0.0490732
2.67768
-0.0467931
2.69136
-0.0445129
2.70432
-0.0422328
2.71656
-0.0398326
2.72832
-0.0375525
2.73936
-0.0351523
2.74956
-0.0327522
2.75928
-0.0302321
2.76816
-0.0278319
2.77656
-0.0254318
2.78412
-0.0229116
2.79096
-0.0203915
2.7972
-0.0178714
2.80284
-0.0153512
2.80752
-0.0128311
2.81184
-0.010239
2.81521
-0.00768284
2.81802
-0.00511471
2.8201
-0.00255859
2.82149
9.52878e-06
2.82218
0.00257765
2.82218
0.00513376
2.82149
0.00770188
2.8201
0.010258
2.81802
0.0128501
2.81521
0.0153702
2.81184
0.0178903
2.80752
0.0204104
2.80284
0.0229305
2.7972
0.0254506
2.79096
0.0278507
2.78412
0.0302508
2.77656
0.0327708
2.76816
0.0351709
2.75928
0.037571
2.74956
0.0398511
2.73936
0.0422511
2.72832
0.0445312
2.71656
0.0468113
2.70432
0.0490913
2.69136
0.0512514
2.67768
0.0535314
2.66328
0.0555715
2.6484
0.0576115
2.6328
0.0597715
2.61648
0.0618116
2.59956
0.0637316
2.58204
0.0655316
2.56392
0.0674516
2.54496
0.0692517
2.52564
0.0710517
2.50548
0.0728517
2.48484
0.0745317
2.4636
0.0760917
2.44164
0.0776517
2.4192
0.0792117
2.39604
0.0805316
2.37252
0.0819716
2.34804
0.0832916
2.32332
0.0846115
2.29788
0.0856915
2.27196
0.0867715
2.24544
0.0878514
2.21832
0.0889314
2.1906
0.0897713
2.16252
0.0906112
2.13384
0.0912112
2.10504
0.0912111
2.0748
0.093611
2.0436
0.0924109
2.0148
0.0936108
1.9824
0.0936107
1.9512
0.0948106
1.9176
0.0948105
1.8864
0.0948104
1.8528
0.0948103
1.8192
0.0948101
1.7856
0.09361
1.7508
0.0948098
1.7148
0.0936097
1.6812
0.0936095
1.644
0.0924094
1.6092
0.0924092
1.572
0.0924091
1.5348
0.0912089
1.4976
0.0900087
1.4604
0.0888085
1.422
0.0876083
1.3836
0.0864081
1.3452
0.0852079
1.3056
0.0852077
1.266
0.0840075
1.2264
0.0816072
1.1868
0.080407
1.1472
0.0780068
1.1064
0.0768065
1.0644
0.0744063
1.0248
0.073206
0.9816
0.0696058
0.942
0.0684055
0.8988
0.0648052
0.858
0.062405
0.8148
0.0600047
0.7728
0.0576044
0.7296
0.0552041
0.6876
0.0516038
0.6444
0.0480035
0.6012
0.0468032
0.5568
0.0432029
0.5148
0.0396026
0.4704
0.0360023
0.4284
0.0324019
0.3828
0.0288016
0.3396
0.0240013
0.2964
0.0216008
0.250801
0.0180004
0.207601
0.0132002
0.1644
0.00960032
0.1188
0.00480041
0.0755998
0.0312005
-0.00480019
0.0360003
-0.00840027
0.0792
-0.0132002
0.1236
-0.0168002
0.168
-0.0204003
0.2112
-0.0252005
0.2556
-0.0288006
0.3
-0.0324007
0.3432
-0.0360008
0.3864
-0.0384009
0.4308
-0.0432009
0.4752
-0.045601
0.5172
-0.049201
0.5604
-0.052801
0.6048
-0.0552011
0.6468
-0.0576011
0.69
-0.0612011
0.7332
-0.063601
0.7752
-0.066001
0.8172
-0.067201
0.8592
-0.0708009
0.9024
-0.0720009
0.9432
-0.0756008
0.9852
-0.0768007
1.026
-0.0792007
1.0668
-0.0804006
1.1076
-0.0816005
1.1484
-0.0828004
1.188
-0.0840002
1.2276
-0.0864001
1.2684
-0.0876
1.3068
-0.0887999
1.3464
-0.0899997
1.3848
-0.0911996
1.4232
-0.0911994
1.4604
-0.0923993
1.4988
-0.0923991
1.5348
-0.0935989
1.5732
-0.0935987
1.6092
-0.0947986
1.6452
-0.0935984
1.68
-0.0947982
1.716
-0.094798
1.7508
-0.0947978
1.7856
-0.0947976
1.8192
-0.0947973
1.8528
-0.0935971
1.8852
-0.0947969
1.9188
-0.0935967
1.95
-0.0935964
1.9824
-0.0923962
2.0136
-0.092396
2.0436
-0.0923957
2.0748
-0.0905955
2.10324
-0.0897552
2.133
-0.088795
2.16156
-0.0878348
2.18964
-0.0868745
2.21736
-0.0856742
2.24424
-0.084474
2.27076
-0.0831537
2.29656
-0.0818335
2.322
-0.0806332
2.34684
-0.0790729
2.37096
-0.0776327
2.3946
-0.0760724
2.41764
-0.0743922
2.43996
-0.0727119
2.46192
-0.0710316
2.48316
-0.0693514
2.5038
-0.0674311
2.52372
-0.0656308
2.54316
-0.0635906
2.56188
-0.0616703
2.58012
-0.05975
2.59764
-0.0577098
2.61444
-0.0555495
2.63064
-0.0533893
2.64624
-0.051229
2.66112
-0.0490687
2.67552
-0.0467885
2.68908
-0.0445082
2.70204
-0.042228
2.71428
-0.0399477
2.72604
-0.0375475
2.73696
-0.0351472
2.74716
-0.032747
2.75688
-0.0303467
2.76576
-0.0278265
2.77404
-0.0253062
2.7816
-0.022906
2.78856
-0.0203858
2.79468
-0.0178655
2.80032
-0.0153453
2.805
-0.0128251
2.80932
-0.0102449
2.81263
-0.00768866
2.81546
-0.00512045
2.81753
-0.00255223
2.81892
1.59734e-05
2.81962
0.00258417
2.81962
0.00515236
2.81892
0.00772056
2.81753
0.0102767
2.81546
0.0128569
2.81263
0.0153771
2.80932
0.0178973
2.805
0.0204174
2.80032
0.0229376
2.79468
0.0253378
2.78856
0.0278579
2.7816
0.0303781
2.77404
0.0327782
2.76576
0.0351783
2.75688
0.0375785
2.74716
0.0399786
2.73696
0.0422587
2.72604
0.0445388
2.71428
0.0468189
2.70204
0.049099
2.68908
0.0512591
2.67552
0.0534192
2.66112
0.0555793
2.64624
0.0577393
2.63064
0.0597794
2.61444
0.0616994
2.59764
0.0636195
2.58012
0.0656595
2.56188
0.0674596
2.54316
0.0693796
2.52372
0.0710596
2.5038
0.0727396
2.48316
0.0744196
2.46192
0.0760996
2.43996
0.0776596
2.41764
0.0790996
2.3946
0.0806595
2.37096
0.0818595
2.34684
0.0831794
2.322
0.0844994
2.29656
0.0856993
2.27076
0.0868992
2.24424
0.0878591
2.21736
0.088819
2.18964
0.0897789
2.16156
0.0906188
2.133
0.0924187
2.10324
0.0924186
2.0748
0.0924184
2.0436
0.0936183
2.0136
0.0936181
1.9824
0.0948179
1.95
0.0936177
1.9188
0.0948176
1.8852
0.0948173
1.8528
0.0948172
1.8192
0.0948169
1.7856
0.0948167
1.7508
0.0936164
1.716
0.0948162
1.68
0.0936159
1.6452
0.0936157
1.6092
0.0924154
1.5732
0.0924151
1.5348
0.0912148
1.4988
0.0912145
1.4604
0.0900142
1.4232
0.0888138
1.3848
0.0876135
1.3464
0.0864132
1.3068
0.0840128
1.2684
0.0828124
1.2276
0.081612
1.188
0.0804117
1.1484
0.0792113
1.1076
0.0768109
1.0668
0.0756104
1.026
0.07201
0.985201
0.0708096
0.943201
0.0672091
0.902401
0.0660087
0.859201
0.0636082
0.817201
0.0612078
0.775201
0.0576073
0.733201
0.0552068
0.690001
0.0528063
0.646801
0.0492058
0.604801
0.0456053
0.560401
0.0432047
0.517201
0.0384042
0.475201
0.0360037
0.430801
0.0324031
0.386401
0.0288026
0.343201
0.0252019
0.300001
0.0204012
0.255601
0.0168007
0.211201
0.0132007
0.168
0.00840094
0.1236
0.00480063
0.0792001
0.0360011
-0.0036002
0.0396005
-0.00840043
0.0840003
-0.0132004
0.1284
-0.0168003
0.1716
-0.0216004
0.216
-0.0252006
0.2592
-0.0288008
0.3036
-0.032401
0.3468
-0.0360011
0.39
-0.0396012
0.4344
-0.0420013
0.4776
-0.0456014
0.5208
-0.0492014
0.564
-0.0516015
0.6072
-0.0552015
0.6504
-0.0576015
0.6924
-0.0600015
0.7356
-0.0624015
0.7776
-0.0660015
0.8208
-0.0684014
0.8616
-0.0696014
0.9036
-0.0720013
0.9456
-0.0744012
0.9876
-0.0756011
1.0272
-0.078001
1.0692
-0.0792009
1.1088
-0.0816007
1.1508
-0.0828006
1.1892
-0.0852004
1.23
-0.0864003
1.2696
-0.0876001
1.308
-0.0875999
1.3464
-0.0887997
1.386
-0.0899995
1.4244
-0.0911993
1.4616
-0.0911991
1.4988
-0.0935988
1.5372
-0.0935986
1.5732
-0.0935983
1.6092
-0.0935981
1.6452
-0.0947978
1.6812
-0.0947975
1.716
-0.0947973
1.7508
-0.094797
1.7856
-0.0947967
1.8192
-0.0947964
1.8528
-0.0947961
1.8852
-0.0935958
1.9176
-0.0935955
1.95
-0.0935951
1.9824
-0.0923948
2.0124
-0.0923945
2.0436
-0.0911941
2.0736
-0.0905938
2.10264
-0.0897534
2.13216
-0.0887931
2.1606
-0.0879527
2.1888
-0.0867524
2.21616
-0.085672
2.24316
-0.0844717
2.26956
-0.0832713
2.29536
-0.0819509
2.32068
-0.0805106
2.3454
-0.0790702
2.36952
-0.0776298
2.39316
-0.0759494
2.41596
-0.0745091
2.43852
-0.0728287
2.46024
-0.0710283
2.48136
-0.0692279
2.502
-0.0674276
2.52192
-0.0656272
2.54136
-0.0637068
2.55996
-0.0616664
2.57808
-0.0596261
2.5956
-0.0575857
2.6124
-0.0555453
2.6286
-0.0533849
2.64408
-0.0513446
2.65908
-0.0490642
2.67324
-0.0467838
2.6868
-0.0445035
2.69976
-0.0423431
2.71212
-0.0399427
2.72364
-0.0375424
2.73456
-0.035142
2.74476
-0.0327417
2.75448
-0.0303413
2.76336
-0.027821
2.77152
-0.0254207
2.7792
-0.0229003
2.78604
-0.02038
2.79216
-0.0178597
2.7978
-0.0153393
2.80248
-0.012699
2.80668
-0.0102387
2.81017
-0.00767039
2.8129
-0.00511409
2.81497
-0.0025458
2.81635
2.24954e-05
2.81705
0.00259078
2.81705
0.00515906
2.81635
0.00771534
2.81497
0.0102836
2.8129
0.0127439
2.81017
0.0153841
2.80668
0.0179044
2.80248
0.0204246
2.7978
0.0229448
2.79216
0.025465
2.78604
0.0278653
2.7792
0.0303855
2.77152
0.0327857
2.76336
0.0351858
2.75448
0.037586
2.74476
0.0399862
2.73456
0.0423864
2.72364
0.0445465
2.71212
0.0468267
2.69976
0.0491068
2.6868
0.0513869
2.67324
0.053427
2.65908
0.0555872
2.64408
0.0576272
2.6286
0.0596673
2.6124
0.0617074
2.5956
0.0637475
2.57808
0.0656675
2.55996
0.0674676
2.54136
0.0692676
2.52192
0.0710676
2.502
0.0728676
2.48136
0.0745476
2.46024
0.0759876
2.43852
0.0776676
2.41596
0.0791075
2.39316
0.0805475
2.36952
0.0819875
2.3454
0.0833074
2.32068
0.0845073
2.29536
0.0857072
2.26956
0.0867871
2.24316
0.0879869
2.21616
0.0888268
2.1888
0.0897866
2.1606
0.0906265
2.13216
0.0912263
2.10264
0.0924261
2.0736
0.0924259
2.0436
0.0936257
2.0124
0.0936255
1.9824
0.0936252
1.95
0.094825
1.9176
0.0948247
1.8852
0.0948244
1.8528
0.0948241
1.8192
0.0948238
1.7856
0.0948234
1.7508
0.0948231
1.716
0.0936227
1.6812
0.0936224
1.6452
0.093622
1.6092
0.0936216
1.5732
0.0912212
1.5372
0.0912207
1.4988
0.0900203
1.4616
0.0888198
1.4244
0.0876194
1.386
0.0876189
1.3464
0.0864184
1.308
0.0852179
1.2696
0.0828173
1.23
0.0816168
1.1892
0.0792163
1.1508
0.0780157
1.1088
0.0756151
1.0692
0.0744145
1.0272
0.0720139
0.987601
0.0696133
0.945601
0.0684127
0.903601
0.0660121
0.861601
0.0624114
0.820801
0.0600107
0.777602
0.05761
0.735602
0.0552094
0.692402
0.0516086
0.650402
0.0492079
0.607202
0.0456072
0.564002
0.0420065
0.520802
0.0396057
0.477602
0.036005
0.434402
0.0324042
0.390002
0.0288033
0.346802
0.0252023
0.303602
0.0216015
0.259202
0.0168012
0.216001
0.0132015
0.1716
0.00840146
0.1284
0.00360065
0.0840009
0.0396018
-0.00480022
0.0444007
-0.00960056
0.0888006
-0.0132007
0.132
-0.0168006
0.1752
-0.0204005
0.2196
-0.0252007
0.264001
-0.0288009
0.307201
-0.0324012
0.350401
-0.0360014
0.3936
-0.0396016
0.438
-0.0432017
0.4812
-0.0468018
0.5244
-0.0492019
0.5664
-0.0528019
0.6108
-0.055202
0.6528
-0.058802
0.696
-0.061202
0.738
-0.063602
0.78
-0.064802
0.822
-0.0684019
0.8652
-0.0708018
0.906
-0.0732018
0.948
-0.0744016
0.9888
-0.0768015
1.0296
-0.0780014
1.0704
-0.0804012
1.1112
-0.0816011
1.152
-0.0828009
1.1904
-0.0840007
1.2312
-0.0852005
1.2708
-0.0864003
1.3092
-0.0888
1.3488
-0.0899998
1.3872
-0.0899995
1.4244
-0.0911992
1.4628
-0.0923989
1.5
-0.0923987
1.5372
-0.0923983
1.5732
-0.093598
1.6104
-0.0935977
1.6452
-0.0935974
1.6812
-0.094797
1.7172
-0.0947966
1.7508
-0.0947963
1.7856
-0.0947959
1.8192
-0.0935955
1.8516
-0.0935951
1.8852
-0.0947947
1.9188
-0.0935943
1.9488
-0.0923939
1.9812
-0.0923935
2.0124
-0.091193
2.0424
-0.0911926
2.0736
-0.0905921
2.10204
-0.0897517
2.13132
-0.0889112
2.15976
-0.0878308
2.18772
-0.0867503
2.21508
-0.0856699
2.24208
-0.0844694
2.26836
-0.0832689
2.29416
-0.0819484
2.31936
-0.080508
2.34396
-0.0791875
2.3682
-0.077627
2.3916
-0.0760665
2.4144
-0.074386
2.43684
-0.0727055
2.45856
-0.071025
2.47968
-0.0693445
2.50032
-0.067544
2.52012
-0.0655036
2.53932
-0.0637031
2.55816
-0.0617826
2.57616
-0.0597421
2.59356
-0.0577016
2.61036
-0.0555411
2.62644
-0.0533806
2.64192
-0.0512201
2.65692
-0.0490597
2.67108
-0.0467792
2.68452
-0.0444987
2.69748
-0.0422182
2.70984
-0.0398177
2.72124
-0.0375373
2.73228
-0.0351368
2.74236
-0.0327364
2.75208
-0.0302159
2.76084
-0.0279355
2.76924
-0.025295
2.77656
-0.0228946
2.78364
-0.0203741
2.78964
-0.0178537
2.79528
-0.0153333
2.79996
-0.0128129
2.80416
-0.0102205
2.80758
-0.00767608
2.81035
-0.00510767
2.8124
-0.00253928
2.81378
2.90971e-05
2.81448
0.00259747
2.81448
0.00516584
2.81378
0.00773418
2.8124
0.0102785
2.81035
0.0128709
2.80758
0.0153912
2.80416
0.0179115
2.79996
0.0204318
2.79528
0.0229521
2.78964
0.0253524
2.78364
0.0279927
2.77656
0.030273
2.76924
0.0327932
2.76084
0.0351935
2.75208
0.0375937
2.74236
0.039874
2.73228
0.0422742
2.72124
0.0445544
2.70984
0.0468345
2.69748
0.0491147
2.68452
0.0512749
2.67108
0.053435
2.65692
0.0555952
2.64192
0.0577553
2.62644
0.0597954
2.61036
0.0618355
2.59356
0.0637556
2.57616
0.0655556
2.55816
0.0675957
2.53932
0.0693957
2.52012
0.0710758
2.50032
0.0727558
2.47968
0.0744358
2.45856
0.0761158
2.43684
0.0776757
2.4144
0.0792357
2.3916
0.0805556
2.3682
0.0819955
2.34396
0.0833154
2.31936
0.0845153
2.29416
0.0857152
2.26836
0.086795
2.24208
0.0878748
2.21508
0.0889547
2.18772
0.0897945
2.15976
0.0906342
2.13132
0.091234
2.10204
0.0912337
2.0736
0.0924335
2.0424
0.0924332
2.0124
0.0936329
1.9812
0.0948326
1.9488
0.0936322
1.9188
0.0936318
1.8852
0.0948315
1.8516
0.0948311
1.8192
0.0948307
1.7856
0.0948302
1.7508
0.0936298
1.7172
0.0936293
1.6812
0.0936288
1.6452
0.0924283
1.6104
0.0924278
1.5732
0.0924273
1.5372
0.0912267
1.5
0.0900261
1.4628
0.0900255
1.4244
0.0888249
1.3872
0.0864242
1.3488
0.0852236
1.3092
0.0840229
1.2708
0.0828222
1.2312
0.0816216
1.1904
0.0804208
1.152
0.0780201
1.1112
0.0768194
1.0704
0.0744186
1.0296
0.0732178
0.988802
0.070817
0.948002
0.0684162
0.906002
0.0648153
0.865202
0.0636145
0.822002
0.0612137
0.780002
0.0588128
0.738002
0.0552119
0.696002
0.052811
0.652803
0.04921
0.610803
0.0468091
0.566403
0.0432081
0.524403
0.0396072
0.481203
0.0360062
0.438003
0.0324051
0.393603
0.0288039
0.350403
0.0252027
0.307203
0.020402
0.264003
0.0168021
0.219601
0.0132023
0.1752
0.00960186
0.132
0.00480071
0.0888021
0.0444025
-0.00480024
0.049201
-0.00840062
0.092401
-0.0132009
0.1368
-0.0180009
0.18
-0.0216008
0.2232
-0.0252008
0.267601
-0.0288011
0.310801
-0.0324014
0.354001
-0.0372017
0.398401
-0.0396019
0.440401
-0.0432021
0.4848
-0.0456022
0.5268
-0.0492023
0.57
-0.0516024
0.6132
-0.0552025
0.6564
-0.0576025
0.6984
-0.0600025
0.7404
-0.0636025
0.7836
-0.0660025
0.8244
-0.0672024
0.8664
-0.0696023
0.9084
-0.0720022
0.9504
-0.0744021
0.9912
-0.076802
1.032
-0.0780018
1.0716
-0.0804017
1.1136
-0.0816015
1.1532
-0.0840012
1.1928
-0.085201
1.2324
-0.0864007
1.272
-0.0876005
1.3104
-0.0888002
1.35
-0.0887999
1.3872
-0.0899996
1.4256
-0.0911992
1.464
-0.0923989
1.5012
-0.0923985
1.5372
-0.0935982
1.5744
-0.0935978
1.6104
-0.0947974
1.6464
-0.0947969
1.6812
-0.0947965
1.7172
-0.0947961
1.7508
-0.0947956
1.7856
-0.0947952
1.8192
-0.0947947
1.8516
-0.0947942
1.8852
-0.0935937
1.9176
-0.0935932
1.9488
-0.0935927
1.9812
-0.0923922
2.0112
-0.0923916
2.0424
-0.0911911
2.0724
-0.0905906
2.10144
-0.08975
2.13048
-0.0887894
2.1588
-0.0878289
2.18676
-0.0868683
2.21412
-0.0856677
2.24088
-0.0844672
2.26716
-0.0832666
2.29296
-0.081946
2.31804
-0.0806254
2.34264
-0.0790648
2.36664
-0.0775042
2.39004
-0.0760636
2.41296
-0.074503
2.43528
-0.0728224
2.45688
-0.0711418
2.478
-0.0692212
2.4984
-0.0674206
2.51832
-0.0656199
2.53752
-0.0636993
2.55624
-0.0616587
2.57412
-0.0596181
2.59152
-0.0575775
2.60832
-0.0555369
2.6244
-0.0534963
2.63988
-0.0512157
2.65464
-0.0489351
2.6688
-0.0467745
2.68236
-0.0446139
2.69532
-0.0422133
2.70744
-0.0399327
2.71896
-0.0374122
2.72976
-0.0351316
2.74008
-0.032731
2.74968
-0.0303305
2.75844
-0.0278099
2.76672
-0.0254093
2.77416
-0.0227688
2.781
-0.0203683
2.78724
-0.0178477
2.79276
-0.0153272
2.79744
-0.0128067
2.80164
-0.0102262
2.805
-0.00765766
2.80778
-0.00510117
2.80985
-0.00253269
2.81121
3.57802e-05
2.81191
0.00260424
2.81191
0.0051727
2.81121
0.00772915
2.80985
0.0102976
2.80778
0.012878
2.805
0.0153984
2.80164
0.0179188
2.79744
0.0204392
2.79276
0.0228395
2.78724
0.0254799
2.781
0.0278803
2.77416
0.0304006
2.76672
0.0328009
2.75844
0.0352012
2.74968
0.0374815
2.74008
0.0400018
2.72976
0.0422821
2.71896
0.0446823
2.70744
0.0468426
2.69532
0.0490027
2.68236
0.051283
2.6688
0.0535631
2.65464
0.0556033
2.63988
0.0576435
2.6244
0.0596836
2.60832
0.0617237
2.59152
0.0637638
2.57412
0.0656839
2.55624
0.0674839
2.53752
0.069284
2.51832
0.0712041
2.4984
0.0728841
2.478
0.074564
2.45688
0.076124
2.43528
0.0775639
2.41296
0.0791239
2.39004
0.0806838
2.36664
0.0820037
2.34264
0.0833235
2.31804
0.0845234
2.29296
0.0857232
2.26716
0.0869231
2.24088
0.0878828
2.21412
0.0888426
2.18676
0.0898024
2.1588
0.0906421
2.13048
0.0912418
2.10144
0.0924415
2.0724
0.0924411
2.0424
0.0936408
2.0112
0.0936404
1.9812
0.09364
1.9488
0.0948395
1.9176
0.0948391
1.8852
0.0948386
1.8516
0.0948381
1.8192
0.0948376
1.7856
0.0948371
1.7508
0.0948365
1.7172
0.0948359
1.6812
0.0936353
1.6464
0.0936347
1.6104
0.092434
1.5744
0.0924333
1.5372
0.0912326
1.5012
0.0900319
1.464
0.0888312
1.4256
0.0888304
1.3872
0.0876296
1.35
0.0864288
1.3104
0.085228
1.272
0.0840272
1.2324
0.0816263
1.1928
0.0804254
1.1532
0.0780245
1.1136
0.0768236
1.0716
0.0744226
1.032
0.0720216
0.991203
0.0696206
0.950403
0.0672196
0.908403
0.0660186
0.866403
0.0636176
0.824403
0.0600165
0.783603
0.0576154
0.740403
0.0552143
0.698404
0.0516131
0.656404
0.049212
0.613204
0.0456108
0.570004
0.0432097
0.526804
0.0396085
0.484804
0.0372073
0.440404
0.0324058
0.398404
0.0288043
0.354005
0.0252032
0.310804
0.0216029
0.267603
0.0180031
0.223201
0.013203
0.18
0.00840201
0.136801
0.00480075
0.0924033
0.0492032
-0.00360023
0.0528012
-0.00840065
0.0972014
-0.0120011
0.140401
-0.0168012
0.1848
-0.0216011
0.228
-0.0252011
0.271201
-0.0288012
0.314401
-0.0324016
0.357601
-0.0360019
0.402001
-0.0396022
0.444001
-0.0420024
0.487201
-0.0456026
0.530401
-0.0492028
0.5736
-0.0528029
0.6168
-0.055203
0.6588
-0.057603
0.7008
-0.0612031
0.744
-0.0624031
0.7848
-0.066003
0.828
-0.068403
0.8688
-0.0708029
0.9108
-0.0720028
0.9516
-0.0744027
0.993599
-0.0756025
1.0332
-0.0792023
1.0752
-0.0792021
1.1136
-0.0816019
1.1556
-0.0828016
1.194
-0.0840014
1.2336
-0.0852011
1.2732
-0.0876008
1.3128
-0.0876004
1.35
-0.0900001
1.3896
-0.0911997
1.4268
-0.0911993
1.464
-0.0911989
1.5012
-0.0923985
1.5384
-0.093598
1.5756
-0.0935976
1.6104
-0.0935971
1.6464
-0.0947966
1.6824
-0.0935961
1.716
-0.0947956
1.752
-0.094795
1.7856
-0.0935945
1.818
-0.0947939
1.8528
-0.0947934
1.8852
-0.0935928
1.9164
-0.0935922
1.9488
-0.0935916
1.9812
-0.0935909
2.0112
-0.0923903
2.0412
-0.0911897
2.0712
-0.090589
2.10084
-0.0896284
2.12952
-0.0887877
2.15796
-0.087827
2.1858
-0.0867464
2.21304
-0.0856657
2.2398
-0.084465
2.26596
-0.0832643
2.29176
-0.0819436
2.31672
-0.0805029
2.3412
-0.0790622
2.3652
-0.0776214
2.3886
-0.0760607
2.4114
-0.07438
2.4336
-0.0728193
2.45532
-0.0710185
2.4762
-0.0693378
2.49672
-0.0674171
2.5164
-0.0656164
2.53572
-0.0635756
2.5542
-0.0616549
2.5722
-0.0597342
2.5896
-0.0575734
2.60616
-0.0555327
2.62236
-0.053372
2.63772
-0.0512113
2.65248
-0.0490505
2.66664
-0.0468898
2.6802
-0.0444891
2.69292
-0.0422084
2.70516
-0.0398077
2.71656
-0.037527
2.72748
-0.0351263
2.73768
-0.0327256
2.74728
-0.030325
2.75604
-0.0278043
2.7642
-0.0254036
2.77176
-0.022883
2.77848
-0.0203623
2.78472
-0.0178417
2.79024
-0.015321
2.79492
-0.0126804
2.799
-0.0102198
2.80254
-0.00766318
2.80523
-0.0050946
2.80728
-0.00252602
2.80865
4.25466e-05
2.80934
0.0026111
2.80934
0.00517965
2.80865
0.00774819
2.80728
0.0103047
2.80523
0.0127652
2.80254
0.0154057
2.799
0.0179262
2.79492
0.0204466
2.79024
0.0229671
2.78472
0.0254875
2.77848
0.0278879
2.77176
0.0304083
2.7642
0.0328087
2.75604
0.0352091
2.74728
0.0376094
2.73768
0.0398898
2.72748
0.0422901
2.71656
0.0445704
2.70516
0.0469706
2.69292
0.0491309
2.6802
0.0512912
2.66664
0.0534514
2.65248
0.0556116
2.63772
0.0576517
2.62236
0.0598119
2.60616
0.0617321
2.5896
0.0636522
2.5722
0.0656923
2.5542
0.0674924
2.53572
0.0694124
2.5164
0.0710924
2.49672
0.0728924
2.4762
0.0744524
2.45532
0.0761324
2.4336
0.0776923
2.4114
0.0791322
2.3886
0.0805721
2.3652
0.082012
2.3412
0.0833318
2.31672
0.0845316
2.29176
0.0857314
2.26596
0.0868112
2.2398
0.087891
2.21304
0.0888507
2.1858
0.0896903
2.15796
0.09065
2.12952
0.0912496
2.10084
0.0924493
2.0712
0.0936489
2.0412
0.0936484
2.0112
0.0936479
1.9812
0.0936474
1.9488
0.094847
1.9164
0.0948464
1.8852
0.0936458
1.8528
0.0948452
1.818
0.0948446
1.7856
0.0936439
1.752
0.0948433
1.716
0.0936425
1.6824
0.0936418
1.6464
0.0936411
1.6104
0.0924402
1.5756
0.0912394
1.5384
0.0912386
1.5012
0.0912378
1.464
0.0900369
1.4268
0.0876359
1.3896
0.087635
1.35
0.085234
1.3128
0.084033
1.2732
0.082832
1.2336
0.081631
1.194
0.0792299
1.1556
0.0792288
1.1136
0.0756277
1.0752
0.0744266
1.0332
0.0720254
0.993604
0.0708242
0.951604
0.068423
0.910804
0.0660218
0.868805
0.0624205
0.828005
0.0612193
0.784805
0.0576179
0.744005
0.0552166
0.700805
0.0528153
0.658805
0.0492139
0.616805
0.0456125
0.573605
0.0420111
0.530405
0.0396097
0.487205
0.0360081
0.444005
0.0324064
0.402006
0.0288048
0.357606
0.0252039
0.314405
0.021604
0.271203
0.0168041
0.228001
0.0120035
0.184801
0.00840209
0.140403
0.00360072
0.0972047
0.0528039
-0.00480029
0.0576015
-0.00960071
0.102002
-0.0132012
0.144001
-0.0168015
0.1884
-0.0204015
0.2316
-0.0240014
0.2748
-0.0288015
0.319201
-0.0324018
0.361202
-0.0360022
0.405602
-0.0396025
0.447601
-0.0432028
0.490801
-0.0468031
0.534001
-0.0492032
0.576001
-0.0516034
0.619201
-0.0552035
0.6624
-0.0576036
0.7032
-0.0600036
0.7464
-0.0636036
0.7884
-0.0648036
0.8292
-0.0684036
0.8724
-0.0696035
0.912
-0.0732034
0.955199
-0.0744032
0.994799
-0.0768031
1.0356
-0.0780029
1.0764
-0.0804026
1.116
-0.0816024
1.1568
-0.0828021
1.1952
-0.0852018
1.236
-0.0864015
1.2744
-0.0864011
1.3128
-0.0888007
1.3524
-0.0888003
1.3896
-0.0899999
1.428
-0.0911995
1.4652
-0.092399
1.5024
-0.0923985
1.5384
-0.092398
1.5756
-0.0935975
1.6116
-0.0947969
1.6476
-0.0935964
1.6812
-0.0947958
1.7172
-0.0947952
1.752
-0.0947945
1.7856
-0.0947939
1.818
-0.0947933
1.8528
-0.0935926
1.884
-0.0947919
1.9176
-0.0935912
1.9476
-0.0923905
1.98
-0.0923898
2.0112
-0.0923891
2.0412
-0.0911883
2.07
-0.0905876
2.10024
-0.0897468
2.12868
-0.088906
2.15712
-0.0878253
2.18472
-0.0868645
2.21208
-0.0856637
2.2386
-0.0845828
2.26488
-0.083142
2.29032
-0.0818212
2.3154
-0.0805004
2.33988
-0.0791796
2.36388
-0.0776187
2.38704
-0.0760579
2.40984
-0.074497
2.43204
-0.0726962
2.45352
-0.0710153
2.47452
-0.0692145
2.49492
-0.0674136
2.5146
-0.0654928
2.5338
-0.0636919
2.5524
-0.0617711
2.57028
-0.0596102
2.58744
-0.0576893
2.60424
-0.0555285
2.6202
-0.0533676
2.63556
-0.0512068
2.65032
-0.049046
2.66448
-0.0467651
2.67792
-0.0444843
2.69064
-0.0422034
2.70288
-0.0399226
2.71428
-0.0375218
2.72508
-0.035121
2.73528
-0.0327202
2.74488
-0.0301994
2.75352
-0.0277986
2.7618
-0.0252778
2.76924
-0.022877
2.77608
-0.0203563
2.7822
-0.0178355
2.78772
-0.0153148
2.7924
-0.0127941
2.79648
-0.0102014
2.79995
-0.00764466
2.80267
-0.00508794
2.80472
-0.00251927
2.80608
4.93984e-05
2.80677
0.00261805
2.80677
0.0051867
2.80608
0.0077433
2.80472
0.0102999
2.80267
0.0128925
2.79995
0.0154131
2.79648
0.0179337
2.7924
0.0204542
2.78772
0.0229747
2.7822
0.0253752
2.77608
0.0278957
2.76924
0.0302962
2.7618
0.0328166
2.75352
0.0352171
2.74488
0.0376175
2.73528
0.0400179
2.72508
0.0422982
2.71428
0.0445786
2.70288
0.0468589
2.69064
0.0491392
2.67792
0.0512995
2.66448
0.0534597
2.65032
0.05562
2.63556
0.0577802
2.6202
0.0597004
2.60424
0.0618605
2.58744
0.0637807
2.57028
0.0655808
2.5524
0.0675009
2.5338
0.0693009
2.5146
0.0711009
2.49492
0.072781
2.47452
0.0745809
2.45352
0.0761409
2.43204
0.0777008
2.40984
0.0792607
2.38704
0.0805805
2.36388
0.0819004
2.33988
0.0832202
2.3154
0.08466
2.29032
0.0857397
2.26488
0.0869394
2.2386
0.0878992
2.21208
0.0889788
2.18472
0.0898184
2.15712
0.0906581
2.12868
0.0912576
2.10024
0.0924572
2.07
0.0924566
2.0412
0.0924561
2.0112
0.0936556
1.98
0.094855
1.9476
0.0936543
1.9176
0.0948537
1.884
0.094853
1.8528
0.0948523
1.818
0.0948516
1.7856
0.0948508
1.752
0.09365
1.7172
0.0948492
1.6812
0.0936483
1.6476
0.0924474
1.6116
0.0924465
1.5756
0.0924455
1.5384
0.0912446
1.5024
0.0900435
1.4652
0.0888425
1.428
0.0888414
1.3896
0.0864403
1.3524
0.0864392
1.3128
0.085238
1.2744
0.0828368
1.236
0.0816356
1.19521
0.0804344
1.15681
0.0780331
1.11601
0.0768318
1.07641
0.0744304
1.03561
0.0732291
0.994806
0.0696277
0.955206
0.0684263
0.912006
0.0648248
0.872406
0.0636234
0.829206
0.0600219
0.788406
0.0576204
0.746406
0.0552189
0.703206
0.0516173
0.662407
0.0492157
0.619207
0.0468142
0.576007
0.0432125
0.534007
0.0396107
0.490807
0.0360088
0.447607
0.0324069
0.405608
0.0288055
0.361208
0.024005
0.319206
0.0204052
0.274803
0.0168051
0.231601
0.0132039
0.188402
0.00960222
0.144004
0.00480086
0.102006
0.0576048
-0.00480032
0.0624018
-0.00840072
0.105602
-0.0132013
0.148802
-0.0168018
0.192001
-0.0216019
0.2364
-0.0252018
0.2784
-0.0288018
0.322801
-0.032402
0.364802
-0.0360024
0.409202
-0.0396028
0.451202
-0.0432032
0.494401
-0.0456035
0.536401
-0.0492037
0.579601
-0.0528039
0.622801
-0.055204
0.664801
-0.0576041
0.7056
-0.0612042
0.75
-0.0624042
0.7896
-0.0660042
0.8328
-0.0672042
0.8736
-0.0708041
0.915599
-0.072004
0.956399
-0.0744038
0.997199
-0.0768036
1.038
-0.0780034
1.0776
-0.0804032
1.1184
-0.0816029
1.158
-0.0840026
1.1976
-0.0840023
1.236
-0.0864019
1.2768
-0.0876015
1.314
-0.0888011
1.3536
-0.0900006
1.3908
-0.0900002
1.428
-0.0911997