/*--------------------------------*- C++ -*----------------------------------*\
  =========                 |
  \\      /  F ield         | OpenFOAM: The Open Source CFD Toolbox
   \\    /   O peration     | Website:  https://openfoam.org
    \\  /    A nd           | Version:  9
     \\/     M anipulation  |
\*---------------------------------------------------------------------------*/
FoamFile
{
    format      ascii;
    class       volScalarField;
    location    "0.03";
    object      nuTilda;
}
// * * * * * * * * * * * * * * * * * * * * * * * * * * * * * * * * * * * * * //

dimensions      [0 2 -1 0 0 0 0];

internalField   nonuniform List<scalar> 
7864
(
0.00085587
0.000145292
6.64245e-05
4.35105e-05
3.32631e-05
2.75628e-05
2.51327e-05
2.48533e-05
2.41845e-05
2.31275e-05
2.19792e-05
2.15898e-05
2.97752e-05
3.46694e-05
3.32065e-05
0.0024177
0.000665033
0.00033646
0.000224934
0.00017245
0.000142239
0.000130211
0.000130094
0.000125502
0.000117279
0.000108072
0.000100068
9.52745e-05
9.04972e-05
8.6655e-05
0.00379567
0.00123358
0.000637403
0.000415973
0.000307523
0.000242956
0.000200061
0.000179967
0.000162288
0.000145603
0.000131027
0.000119181
0.000111131
0.000104378
0.000101125
0.00500011
0.00183451
0.000949359
0.000609161
0.000439192
0.000336545
0.000265105
0.000217517
0.000184175
0.000159506
0.000140915
0.000127779
0.000122418
0.000118527
0.000115527
0.00602412
0.00240628
0.00125037
0.000792018
0.000558806
0.0004156
0.000322855
0.000261249
0.000219225
0.000189587
0.000167904
0.000151718
0.00014303
0.00013552
0.000128563
0.00685286
0.00290657
0.00152238
0.000953431
0.000658847
0.000486375
0.000377933
0.000306647
0.000258168
0.000223629
0.000197604
0.000176349
0.000159879
0.000146968
0.000136799
0.00745965
0.00329814
0.00174726
0.00108096
0.000741509
0.000546892
0.000425859
0.000346266
0.000291746
0.000251883
0.000220549
0.000195643
0.000176037
0.000160562
0.000148159
0.00779286
0.00352244
0.00186625
0.00114378
0.000782485
0.000578074
0.000450947
0.000366447
0.000307953
0.0002645
0.000231001
0.0002049
0.000184274
0.000167348
0.000153374
0.00768081
0.00345079
0.0018312
0.0011198
0.000764544
0.000565382
0.000441113
0.000358038
0.000300233
0.000258055
0.000225239
0.000199658
0.000179445
0.000163164
0.000149542
0.00734492
0.00324754
0.00172668
0.00105486
0.000717778
0.000529386
0.000414094
0.000336138
0.000281275
0.000241264
0.000211017
0.000187433
0.000168695
0.000153796
0.000140648
0.00674646
0.00290381
0.0015574
0.000955494
0.000646647
0.000473802
0.00036888
0.000300412
0.000252467
0.000215821
0.000188057
0.000166552
0.000149835
0.000136369
0.000125476
0.00588797
0.0023994
0.0012929
0.000810648
0.000549508
0.000398965
0.000306606
0.000247319
0.000207564
0.000179117
0.000158014
0.000139828
0.000124919
0.000114614
0.000108914
0.0047419
0.00174692
0.0009408
0.000602849
0.000424778
0.00031385
0.000239359
0.000189937
0.000157148
0.000133944
0.000117378
0.000104827
9.51612e-05
9.0614e-05
8.30947e-05
0.00324156
0.00102379
0.00053548
0.00035149
0.000258514
0.000201469
0.000162525
0.000137484
0.000125132
0.000110108
9.7116e-05
8.5887e-05
7.52792e-05
6.59377e-05
6.76157e-05
0.00126049
0.00024392
0.000112242
7.16712e-05
5.24765e-05
4.10968e-05
3.3448e-05
2.83415e-05
2.55225e-05
2.30522e-05
2.56345e-05
2.91424e-05
3.09256e-05
3.13345e-05
3.23851e-05
3.31173e-05
3.71019e-05
3.85149e-05
3.82246e-05
3.76827e-05
3.53668e-05
3.13582e-05
2.81924e-05
2.59497e-05
2.4084e-05
2.24413e-05
2.08044e-05
1.91063e-05
1.76531e-05
1.64543e-05
8.63675e-05
8.93169e-05
9.22093e-05
9.40335e-05
9.45865e-05
9.37062e-05
9.10787e-05
8.24971e-05
7.40015e-05
6.63587e-05
5.92771e-05
5.26251e-05
4.66375e-05
4.12629e-05
3.62925e-05
0.000102886
0.00010562
0.000107845
0.00010968
0.000110666
0.000110508
0.000109026
0.000105318
9.8873e-05
9.21347e-05
8.49942e-05
7.75884e-05
6.98697e-05
6.1979e-05
5.404e-05
0.000115788
0.000116036
0.000117251
0.000117883
0.000118067
0.000117615
0.000116433
0.000113962
0.000109591
0.000104668
9.90519e-05
9.27185e-05
8.54395e-05
7.742e-05
6.89936e-05
0.000125351
0.000124677
0.000123523
0.000122767
0.000121811
0.000120497
0.000118666
0.000116203
0.000113054
0.000109599
0.000105524
0.000100615
9.47102e-05
8.77559e-05
7.99636e-05
0.000132984
0.000130015
0.000127346
0.000124956
0.000122272
0.000119681
0.000117029
0.000114289
0.000111718
0.000109084
0.000106258
0.000102949
9.87873e-05
9.33588e-05
8.68069e-05
0.000140795
0.000134415
0.000129104
0.000124123
0.000119768
0.000115834
0.000112336
0.000109335
0.000106863
0.000104754
0.000102829
0.000100885
9.83258e-05
9.47873e-05
9.00032e-05
0.000143082
0.00013433
0.000126944
0.000120516
0.00011496
0.000110093
0.00010595
0.000102537
9.97723e-05
9.7668e-05
9.61604e-05
9.5077e-05
9.39482e-05
9.2352e-05
8.96939e-05
0.000138488
0.00012895
0.000120779
0.000113692
0.000107518
0.000102175
9.76572e-05
9.39414e-05
9.10164e-05
8.89326e-05
8.76524e-05
8.69498e-05
8.66223e-05
8.63902e-05
8.57404e-05
0.000129144
0.000119202
0.000110673
0.000103459
9.74023e-05
9.23346e-05
8.80902e-05
8.45109e-05
8.16177e-05
7.95223e-05
7.80933e-05
7.74125e-05
7.74597e-05
7.80995e-05
7.87739e-05
0.000114856
0.000105768
9.83192e-05
9.2282e-05
8.73654e-05
8.32759e-05
7.96795e-05
7.60039e-05
7.26204e-05
6.99744e-05
6.81861e-05
6.73347e-05
6.74548e-05
6.84839e-05
6.97823e-05
9.90685e-05
9.19022e-05
8.69777e-05
8.33618e-05
8.03032e-05
7.743e-05
7.4036e-05
6.94002e-05
6.51929e-05
6.1953e-05
5.96796e-05
5.83152e-05
5.79616e-05
5.84293e-05
5.93455e-05
7.66813e-05
7.53356e-05
7.47933e-05
7.4181e-05
7.30321e-05
7.19907e-05
7.0017e-05
6.72237e-05
6.38064e-05
6.02384e-05
5.66052e-05
5.28064e-05
4.98596e-05
4.81549e-05
4.76016e-05
6.80801e-05
6.81791e-05
6.84731e-05
6.81315e-05
6.56575e-05
6.61188e-05
6.43288e-05
6.15561e-05
5.81529e-05
5.43499e-05
5.02727e-05
4.58234e-05
4.00902e-05
3.59847e-05
3.33786e-05
3.44233e-05
3.42163e-05
3.33105e-05
3.15844e-05
1.77926e-05
2.61865e-05
2.78167e-05
2.7731e-05
2.7244e-05
2.61748e-05
2.48028e-05
2.33279e-05
2.12858e-05
2.20372e-05
1.89061e-05
1.6281e-05
1.58173e-05
1.54344e-05
1.51471e-05
1.5061e-05
1.51355e-05
1.52692e-05
1.54533e-05
1.54973e-05
1.55889e-05
1.61726e-05
1.71704e-05
1.89131e-05
2.19437e-05
2.60714e-05
3.50456e-05
3.32511e-05
3.13361e-05
2.96573e-05
2.89045e-05
2.83608e-05
2.78179e-05
2.72199e-05
2.64515e-05
2.55545e-05
2.50719e-05
2.51495e-05
2.62117e-05
2.94528e-05
3.46735e-05
5.13861e-05
4.87947e-05
4.65313e-05
4.45031e-05
4.22496e-05
3.99402e-05
3.76058e-05
3.52652e-05
3.29257e-05
3.05749e-05
2.83905e-05
2.63333e-05
2.50414e-05
2.73761e-05
3.12276e-05
6.61522e-05
6.30805e-05
6.00581e-05
5.71729e-05
5.44907e-05
5.18686e-05
4.90638e-05
4.61122e-05
4.30528e-05
3.98817e-05
3.67479e-05
3.34929e-05
3.08038e-05
2.88409e-05
3.2096e-05
7.7242e-05
7.42276e-05
7.10525e-05
6.78125e-05
6.46304e-05
6.16191e-05
5.86716e-05
5.549e-05
5.21011e-05
4.85016e-05
4.48152e-05
4.0938e-05
3.74369e-05
3.38408e-05
3.59715e-05
8.41768e-05
8.1475e-05
7.8528e-05
7.53875e-05
7.21356e-05
6.88936e-05
6.57488e-05
6.25274e-05
5.90112e-05
5.51954e-05
5.11713e-05
4.69149e-05
4.2866e-05
3.86558e-05
3.81877e-05
8.75166e-05
8.5022e-05
8.24431e-05
7.96302e-05
7.66009e-05
7.34261e-05
7.01968e-05
6.69545e-05
6.34095e-05
5.94919e-05
5.52613e-05
5.07857e-05
4.63512e-05
4.19649e-05
3.83807e-05
8.75555e-05
8.53409e-05
8.3025e-05
8.05412e-05
7.78163e-05
7.48599e-05
7.17108e-05
6.84194e-05
6.48874e-05
6.09342e-05
5.66073e-05
5.20607e-05
4.74231e-05
4.31219e-05
3.76766e-05
8.38987e-05
8.20091e-05
8.00002e-05
7.78019e-05
7.53712e-05
7.26667e-05
6.96638e-05
6.63646e-05
6.27618e-05
5.88314e-05
5.45668e-05
5.0146e-05
4.55775e-05
4.15421e-05
3.52649e-05
7.70464e-05
7.52986e-05
7.34502e-05
7.14431e-05
6.92313e-05
6.67685e-05
6.4012e-05
6.09309e-05
5.75218e-05
5.38059e-05
4.97935e-05
4.56809e-05
4.14421e-05
3.77947e-05
3.18015e-05
6.81317e-05
6.64162e-05
6.46181e-05
6.26834e-05
6.05733e-05
5.82578e-05
5.57042e-05
5.28801e-05
4.97779e-05
4.64285e-05
4.28593e-05
3.92548e-05
3.56434e-05
3.2697e-05
2.81631e-05
5.76247e-05
5.58623e-05
5.40247e-05
5.20673e-05
4.99727e-05
4.77393e-05
4.53604e-05
4.28292e-05
4.01434e-05
3.73361e-05
3.44547e-05
3.16448e-05
2.91338e-05
2.77446e-05
2.5416e-05
4.56033e-05
4.36469e-05
4.16687e-05
3.96485e-05
3.75952e-05
3.55334e-05
3.35111e-05
3.15431e-05
2.96315e-05
2.77926e-05
2.60988e-05
2.46396e-05
2.43289e-05
2.65525e-05
2.49054e-05
3.0994e-05
2.89313e-05
2.7013e-05
2.52465e-05
2.36497e-05
2.28906e-05
2.26511e-05
2.25885e-05
2.25827e-05
2.25878e-05
2.28529e-05
2.35284e-05
2.54171e-05
2.86716e-05
2.8371e-05
1.69986e-05
1.55026e-05
1.46343e-05
1.42027e-05
1.40097e-05
1.40085e-05
1.41227e-05
1.4305e-05
1.44173e-05
1.43742e-05
1.50713e-05
1.6444e-05
1.89329e-05
2.17309e-05
2.64569e-05
0.0140468
0.0140469
0.014047
0.014047
0.0140471
0.0140472
0.0140473
0.0140473
0.0140474
0.0140475
0.0140475
0.0140476
0.0140477
0.0140478
0.0140478
0.0140479
0.014048
0.0140481
0.0140481
0.0140482
0.0140483
0.0140484
0.0140484
0.0140485
0.0140486
0.0140487
0.0140487
0.0140488
0.0140489
0.0140489
0.014049
0.0140491
0.0140491
0.0140492
0.0140493
0.0140493
0.0140494
0.0140495
0.0140495
0.0140495
0.0140496
0.0140496
0.0140496
0.0140496
0.0140496
0.0140496
0.0140496
0.0140496
0.0140496
0.0140496
0.0140497
0.0140497
0.0140497
0.0140497
0.0140497
0.0140497
0.0140497
0.0140497
0.0140497
0.0140497
0.0140497
0.0140497
0.0140497
0.0140497
0.0140497
0.0140497
0.0140497
0.0140498
0.0140498
0.0140498
0.0140498
0.0140498
0.0140498
0.0140498
0.0140499
0.0140499
0.0140499
0.0140499
0.0140499
0.01405
0.01405
0.01405
0.01405
0.01405
0.0140501
0.0140501
0.0140501
0.0140501
0.0140502
0.0140685
0.0140691
0.0140697
0.0140704
0.014071
0.0140716
0.0140722
0.0140728
0.0140734
0.0140739
0.0140745
0.0140751
0.0140756
0.0140762
0.0140767
0.0140773
0.0140778
0.0140783
0.0140788
0.0140793
0.0140798
0.0140803
0.0140808
0.0140813
0.0140818
0.0140823
0.0140827
0.0140832
0.0140837
0.0140841
0.0140846
0.014085
0.0140854
0.0140859
0.0140863
0.0140867
0.0140872
0.0140876
0.014088
0.0140884
0.0140888
0.0140892
0.0140896
0.0140899
0.0140903
0.0140906
0.0140909
0.0140912
0.0140915
0.0140918
0.014092
0.0140923
0.0140925
0.0140927
0.014093
0.0140932
0.0140934
0.0140935
0.0140937
0.0140939
0.0140941
0.0140942
0.0140944
0.0140945
0.0140947
0.0140948
0.0140949
0.0140951
0.0140952
0.0140953
0.0140954
0.0140956
0.0140957
0.0140958
0.0140959
0.014096
0.0140961
0.0140962
0.0140963
0.0140963
0.0140964
0.0140965
0.0140966
0.0140967
0.0140967
0.0140968
0.0140969
0.0140969
0.0140969
0.0140306
0.0140309
0.0140312
0.0140315
0.0140318
0.0140321
0.0140324
0.0140327
0.0140331
0.0140334
0.0140337
0.014034
0.0140343
0.0140346
0.0140349
0.0140352
0.0140356
0.0140359
0.0140362
0.0140365
0.0140368
0.0140371
0.0140375
0.0140378
0.0140381
0.0140384
0.0140387
0.014039
0.0140394
0.0140397
0.01404
0.0140403
0.0140406
0.0140409
0.0140412
0.0140416
0.0140419
0.0140422
0.0140425
0.0140428
0.0140431
0.0140434
0.0140437
0.014044
0.0140443
0.0140447
0.014045
0.0140453
0.0140456
0.0140459
0.0140462
0.0140465
0.0140468
0.0140471
0.0140474
0.0140478
0.0140481
0.0140484
0.0140487
0.014049
0.0140493
0.0140496
0.0140499
0.0140502
0.0140505
0.0140509
0.0140512
0.0140515
0.0140518
0.0140521
0.0140524
0.0140527
0.014053
0.0140533
0.0140537
0.014054
0.0140543
0.0140546
0.0140549
0.0140552
0.0140555
0.0140558
0.0140561
0.0140564
0.0140567
0.014057
0.0140573
0.0140576
0.0140577
0.0140371
0.0140374
0.0140378
0.0140382
0.0140385
0.0140388
0.0140392
0.0140395
0.0140398
0.0140402
0.0140405
0.0140408
0.0140411
0.0140414
0.0140417
0.0140419
0.0140422
0.0140424
0.0140426
0.0140428
0.014043
0.0140432
0.0140433
0.0140435
0.0140436
0.0140437
0.0140438
0.0140438
0.0140439
0.0140439
0.0140439
0.0140439
0.0140438
0.0140437
0.0140435
0.0140433
0.0140433
0.0140433
0.0140433
0.0140434
0.0140435
0.0140436
0.0140437
0.0140439
0.0140441
0.0140443
0.0140445
0.0140447
0.0140449
0.0140451
0.0140454
0.0140456
0.0140458
0.0140461
0.0140463
0.0140465
0.0140468
0.014047
0.0140473
0.0140475
0.0140478
0.0140481
0.0140483
0.0140486
0.0140489
0.0140492
0.0140494
0.0140497
0.01405
0.0140503
0.0140506
0.0140509
0.0140512
0.0140515
0.0140518
0.0140521
0.0140524
0.0140527
0.014053
0.0140533
0.0140536
0.0140539
0.0140542
0.0140545
0.0140548
0.0140551
0.0140554
0.0140557
0.0140559
0.0140276
0.0140277
0.0140278
0.0140279
0.014028
0.0140281
0.0140282
0.0140283
0.0140283
0.0140284
0.0140285
0.0140286
0.0140287
0.0140288
0.0140288
0.0140289
0.014029
0.0140291
0.0140292
0.0140292
0.0140293
0.0140294
0.0140295
0.0140295
0.0140296
0.0140297
0.0140297
0.0140298
0.0140299
0.0140299
0.01403
0.0140301
0.0140301
0.0140302
0.0140302
0.0140303
0.0140304
0.0140304
0.0140305
0.0140305
0.0140306
0.0140306
0.0140306
0.0140306
0.0140306
0.0140306
0.0140306
0.0140306
0.0140306
0.0140305
0.0140305
0.0140304
0.0140304
0.0140303
0.0140303
0.0140302
0.0140301
0.01403
0.0140299
0.0140298
0.0140297
0.0140295
0.0140294
0.0140293
0.0140291
0.0140289
0.0140288
0.0140286
0.0140284
0.0140282
0.0140279
0.0140276
0.0140272
0.0140268
0.0140265
0.0140261
0.0140257
0.0140254
0.014025
0.0140247
0.0140244
0.0140242
0.014024
0.0140238
0.0140237
0.0140235
0.0140234
0.0140232
0.0140229
0.0139974
0.0139975
0.0139977
0.0139978
0.0139979
0.0139981
0.0139982
0.0139983
0.0139984
0.0139984
0.0139985
0.0139986
0.0139986
0.0139986
0.0139987
0.0139987
0.0139987
0.0139986
0.0139986
0.0139985
0.0139984
0.0139982
0.013998
0.0139976
0.0139973
0.0139969
0.0139965
0.0139961
0.0139958
0.0139954
0.013995
0.0139947
0.0139943
0.0139939
0.0139936
0.0139932
0.0139929
0.0139925
0.0139922
0.0139918
0.0139915
0.0139911
0.0139908
0.0139904
0.0139901
0.0139898
0.0139894
0.0139891
0.0139888
0.0139884
0.0139881
0.0139878
0.0139875
0.0139871
0.0139868
0.0139865
0.0139862
0.0139859
0.0139856
0.0139853
0.013985
0.0139847
0.0139844
0.0139841
0.0139838
0.0139835
0.0139832
0.0139829
0.0139827
0.0139827
0.0139826
0.0139827
0.0139827
0.0139827
0.0139828
0.0139829
0.013983
0.0139831
0.0139832
0.0139834
0.0139835
0.0139837
0.0139838
0.013984
0.0139842
0.0139844
0.0139846
0.0139848
0.013985
0.0139526
0.0139526
0.0139526
0.0139526
0.0139527
0.0139528
0.0139529
0.013953
0.0139531
0.0139533
0.0139534
0.0139536
0.0139537
0.0139539
0.0139541
0.0139542
0.0139544
0.0139546
0.0139548
0.013955
0.0139552
0.0139554
0.0139556
0.0139558
0.0139561
0.0139563
0.0139565
0.0139567
0.0139569
0.0139571
0.0139574
0.0139576
0.0139578
0.013958
0.0139583
0.0139585
0.0139587
0.0139589
0.0139592
0.0139594
0.0139596
0.0139598
0.01396
0.0139603
0.0139605
0.0139607
0.0139609
0.0139611
0.0139614
0.0139616
0.0139618
0.013962
0.0139622
0.0139625
0.0139627
0.0139629
0.0139631
0.0139634
0.0139636
0.0139638
0.013964
0.0139642
0.0139645
0.0139647
0.0139649
0.0139651
0.0139653
0.0139656
0.0139658
0.013966
0.0139662
0.0139664
0.0139667
0.0139669
0.0139671
0.0139673
0.0139675
0.0139678
0.013968
0.0139682
0.0139684
0.0139686
0.0139688
0.0139691
0.0139693
0.0139695
0.0139697
0.0139699
0.0139702
0.0139488
0.0139483
0.0139479
0.0139474
0.0139469
0.0139465
0.013946
0.0139456
0.0139451
0.0139446
0.0139442
0.0139437
0.0139433
0.0139428
0.0139424
0.0139419
0.0139415
0.013941
0.0139406
0.0139401
0.0139397
0.0139392
0.0139388
0.0139384
0.013938
0.0139375
0.0139371
0.0139367
0.0139363
0.0139359
0.0139355
0.0139351
0.0139347
0.0139343
0.0139339
0.0139335
0.0139331
0.0139327
0.0139323
0.013932
0.0139316
0.0139312
0.0139309
0.0139307
0.0139306
0.0139306
0.0139306
0.0139307
0.0139307
0.0139308
0.0139309
0.013931
0.0139312
0.0139313
0.0139315
0.0139316
0.0139318
0.013932
0.0139322
0.0139324
0.0139326
0.0139328
0.013933
0.0139333
0.0139335
0.0139337
0.013934
0.0139342
0.0139345
0.0139347
0.013935
0.0139353
0.0139355
0.0139358
0.0139361
0.0139364
0.0139366
0.0139369
0.0139372
0.0139375
0.0139378
0.0139381
0.0139384
0.0139386
0.0139389
0.0139392
0.0139395
0.0139398
0.0139401
0.013917
0.0139166
0.0139162
0.0139158
0.0139154
0.013915
0.0139146
0.0139141
0.0139137
0.0139133
0.0139129
0.0139125
0.0139121
0.0139117
0.0139115
0.0139114
0.0139114
0.0139114
0.0139114
0.0139115
0.0139115
0.0139116
0.0139117
0.0139118
0.013912
0.0139121
0.0139122
0.0139124
0.0139125
0.0139127
0.0139128
0.013913
0.0139132
0.0139134
0.0139136
0.0139138
0.013914
0.0139142
0.0139144
0.0139146
0.0139148
0.013915
0.0139152
0.0139155
0.0139157
0.0139159
0.0139161
0.0139164
0.0139166
0.0139169
0.0139171
0.0139173
0.0139176
0.0139178
0.0139181
0.0139183
0.0139185
0.0139188
0.013919
0.0139193
0.0139195
0.0139198
0.01392
0.0139203
0.0139205
0.0139208
0.013921
0.0139213
0.0139215
0.0139218
0.013922
0.0139223
0.0139225
0.0139228
0.013923
0.0139232
0.0139235
0.0139237
0.0139239
0.0139241
0.0139243
0.0139245
0.0139247
0.0139248
0.0139249
0.013925
0.0139251
0.0139252
0.0139253
0.0139038
0.0139032
0.0139026
0.0139021
0.0139015
0.013901
0.0139004
0.0138998
0.0138993
0.0138987
0.0138981
0.0138976
0.013897
0.0138964
0.0138959
0.0138953
0.0138947
0.0138942
0.0138936
0.013893
0.0138925
0.0138919
0.0138914
0.0138908
0.0138903
0.0138897
0.0138892
0.0138887
0.0138881
0.0138876
0.0138872
0.013887
0.0138869
0.0138869
0.0138869
0.0138869
0.0138869
0.013887
0.0138871
0.0138872
0.0138873
0.0138875
0.0138876
0.0138878
0.0138879
0.0138881
0.0138883
0.0138885
0.0138887
0.0138889
0.0138891
0.0138893
0.0138895
0.0138897
0.0138899
0.0138901
0.0138904
0.0138906
0.0138908
0.013891
0.0138912
0.0138914
0.0138916
0.0138918
0.013892
0.0138922
0.0138924
0.0138925
0.0138927
0.0138929
0.013893
0.0138932
0.0138933
0.0138935
0.0138936
0.0138938
0.0138939
0.013894
0.0138941
0.0138942
0.0138943
0.0138943
0.0138944
0.0138944
0.0138943
0.0138943
0.0138943
0.0138942
0.0138942
0.0138775
0.0138769
0.0138762
0.0138755
0.0138749
0.0138742
0.0138735
0.0138729
0.0138722
0.0138716
0.0138709
0.0138702
0.0138695
0.0138689
0.0138682
0.0138675
0.0138669
0.0138663
0.0138658
0.0138656
0.0138655
0.0138654
0.0138653
0.0138653
0.0138652
0.0138652
0.0138653
0.0138653
0.0138654
0.0138654
0.0138655
0.0138656
0.0138657
0.0138658
0.013866
0.0138661
0.0138662
0.0138664
0.0138665
0.0138667
0.0138668
0.0138669
0.013867
0.013867
0.013867
0.013867
0.013867
0.0138669
0.0138668
0.0138666
0.0138664
0.0138662
0.013866
0.0138657
0.0138653
0.0138648
0.0138641
0.0138633
0.0138626
0.0138618
0.013861
0.0138602
0.0138594
0.0138586
0.0138579
0.0138571
0.0138563
0.0138555
0.0138547
0.0138539
0.0138531
0.0138524
0.0138516
0.0138508
0.01385
0.0138492
0.0138484
0.0138476
0.0138468
0.013846
0.0138452
0.0138444
0.0138436
0.0138428
0.013842
0.0138412
0.0138405
0.0138397
0.0138391
0.0138479
0.0138472
0.0138464
0.0138457
0.013845
0.0138442
0.0138435
0.0138428
0.013842
0.0138413
0.0138405
0.0138398
0.0138391
0.0138383
0.0138376
0.0138368
0.0138361
0.0138353
0.0138346
0.0138338
0.0138331
0.0138323
0.0138316
0.0138308
0.0138301
0.0138295
0.0138293
0.0138291
0.013829
0.0138289
0.0138289
0.0138288
0.0138288
0.0138288
0.0138289
0.0138289
0.0138289
0.013829
0.013829
0.0138291
0.0138292
0.0138292
0.0138292
0.0138291
0.0138291
0.0138289
0.0138288
0.0138286
0.0138283
0.0138281
0.0138278
0.0138274
0.013827
0.0138265
0.013826
0.0138252
0.0138243
0.0138233
0.0138223
0.0138213
0.0138203
0.0138193
0.0138183
0.0138174
0.0138164
0.0138154
0.0138144
0.0138134
0.0138124
0.0138115
0.0138105
0.0138095
0.0138085
0.0138075
0.0138065
0.0138055
0.0138045
0.0138035
0.0138025
0.0138015
0.0138005
0.0137995
0.0137985
0.0137975
0.0137965
0.0137955
0.0137946
0.0137936
0.0137928
0.0138208
0.0138199
0.013819
0.0138181
0.0138172
0.0138164
0.0138155
0.0138146
0.0138137
0.0138128
0.0138119
0.013811
0.0138101
0.0138092
0.0138083
0.0138074
0.0138065
0.0138056
0.0138047
0.0138039
0.0138035
0.0138033
0.013803
0.0138025
0.0138015
0.0138006
0.0137996
0.0137986
0.0137977
0.0137967
0.0137958
0.0137948
0.0137939
0.0137929
0.0137919
0.013791
0.01379
0.0137891
0.0137881
0.0137871
0.0137862
0.0137852
0.0137842
0.0137833
0.0137823
0.0137814
0.0137804
0.0137794
0.0137784
0.0137775
0.0137765
0.0137755
0.0137745
0.0137736
0.0137726
0.0137716
0.0137706
0.0137696
0.0137686
0.0137676
0.0137666
0.0137656
0.0137646
0.0137636
0.0137626
0.0137616
0.0137605
0.0137595
0.0137585
0.0137575
0.0137564
0.0137554
0.0137543
0.0137533
0.0137523
0.0137512
0.0137501
0.0137491
0.013748
0.013747
0.0137459
0.0137448
0.0137438
0.0137427
0.0137416
0.0137405
0.0137395
0.0137385
0.0137376
0.0137903
0.0137892
0.0137882
0.0137872
0.0137861
0.0137851
0.0137841
0.013783
0.013782
0.0137809
0.0137799
0.0137788
0.0137778
0.0137767
0.0137757
0.0137746
0.0137735
0.0137725
0.0137714
0.0137703
0.0137692
0.0137682
0.0137671
0.0137661
0.013765
0.0137639
0.0137628
0.0137617
0.0137606
0.0137595
0.0137584
0.0137573
0.0137561
0.013755
0.0137539
0.0137528
0.0137517
0.0137505
0.0137494
0.0137483
0.0137471
0.013746
0.0137448
0.0137437
0.0137425
0.0137414
0.0137402
0.013739
0.0137379
0.0137367
0.0137355
0.0137343
0.0137331
0.013732
0.0137308
0.0137296
0.0137284
0.0137272
0.013726
0.0137248
0.0137235
0.0137223
0.0137211
0.0137199
0.0137186
0.0137174
0.0137162
0.0137149
0.0137137
0.0137124
0.0137112
0.0137099
0.0137087
0.0137074
0.0137061
0.0137049
0.0137036
0.0137023
0.013701
0.0136997
0.0136984
0.0136971
0.0136958
0.0136945
0.0136932
0.0136919
0.0136906
0.0136894
0.0136884
0.0137579
0.0137567
0.0137555
0.0137543
0.013753
0.0137518
0.0137505
0.0137493
0.013748
0.0137468
0.0137455
0.0137443
0.013743
0.0137417
0.0137405
0.0137392
0.0137379
0.0137366
0.0137353
0.013734
0.0137327
0.0137314
0.0137301
0.0137288
0.0137275
0.0137262
0.0137249
0.0137235
0.0137222
0.0137209
0.0137195
0.0137182
0.0137169
0.0137155
0.0137141
0.0137128
0.0137114
0.01371
0.0137087
0.0137073
0.0137059
0.0137045
0.0137031
0.0137017
0.0137003
0.0136989
0.0136975
0.0136961
0.0136947
0.0136933
0.0136918
0.0136904
0.013689
0.0136875
0.0136861
0.0136846
0.0136832
0.0136817
0.0136802
0.0136788
0.0136773
0.0136758
0.0136743
0.0136728
0.0136713
0.0136698
0.0136683
0.0136668
0.0136653
0.0136638
0.0136623
0.0136607
0.0136592
0.0136576
0.0136561
0.0136545
0.013653
0.0136514
0.0136499
0.0136483
0.0136467
0.0136451
0.0136435
0.0136419
0.0136403
0.0136388
0.0136372
0.0136357
0.0136344
0.0137221
0.0137207
0.0137192
0.0137178
0.0137163
0.0137148
0.0137134
0.0137119
0.0137104
0.0137089
0.0137074
0.0137059
0.0137044
0.0137029
0.0137014
0.0136999
0.0136984
0.0136968
0.0136953
0.0136938
0.0136922
0.0136907
0.0136891
0.0136875
0.013686
0.0136844
0.0136828
0.0136812
0.0136797
0.0136781
0.0136765
0.0136749
0.0136732
0.0136716
0.01367
0.0136684
0.0136667
0.0136651
0.0136635
0.0136618
0.0136601
0.0136585
0.0136568
0.0136551
0.0136534
0.0136518
0.0136501
0.0136484
0.0136466
0.0136449
0.0136432
0.0136415
0.0136398
0.013638
0.0136363
0.0136345
0.0136328
0.013631
0.0136292
0.0136274
0.0136257
0.0136239
0.0136221
0.0136203
0.0136184
0.0136166
0.0136148
0.013613
0.0136111
0.0136093
0.0136074
0.0136056
0.0136037
0.0136018
0.0136
0.0135981
0.0135962
0.0135943
0.0135924
0.0135905
0.0135885
0.0135866
0.0135847
0.0135827
0.0135808
0.0135789
0.0135769
0.0135751
0.0135736
0.0136826
0.0136809
0.0136792
0.0136775
0.0136757
0.013674
0.0136723
0.0136705
0.0136687
0.013667
0.0136652
0.0136634
0.0136616
0.0136598
0.013658
0.0136562
0.0136544
0.0136526
0.0136508
0.013649
0.0136471
0.0136453
0.0136434
0.0136415
0.0136397
0.0136378
0.0136359
0.013634
0.0136321
0.0136302
0.0136283
0.0136264
0.0136245
0.0136225
0.0136206
0.0136186
0.0136167
0.0136147
0.0136127
0.0136108
0.0136088
0.0136068
0.0136048
0.0136027
0.0136007
0.0135987
0.0135967
0.0135946
0.0135926
0.0135905
0.0135884
0.0135863
0.0135843
0.0135822
0.0135801
0.0135779
0.0135758
0.0135737
0.0135715
0.0135694
0.0135672
0.0135651
0.0135629
0.0135607
0.0135585
0.0135563
0.0135541
0.0135519
0.0135497
0.0135474
0.0135452
0.0135429
0.0135407
0.0135384
0.0135361
0.0135338
0.0135315
0.0135292
0.0135269
0.0135246
0.0135222
0.0135199
0.0135175
0.0135152
0.0135128
0.0135104
0.0135081
0.0135058
0.013504
0.0136397
0.0136376
0.0136356
0.0136336
0.0136315
0.0136295
0.0136274
0.0136253
0.0136233
0.0136212
0.0136191
0.013617
0.0136148
0.0136127
0.0136106
0.0136084
0.0136063
0.0136041
0.013602
0.0135998
0.0135976
0.0135954
0.0135932
0.013591
0.0135888
0.0135865
0.0135843
0.013582
0.0135798
0.0135775
0.0135752
0.0135729
0.0135706
0.0135683
0.013566
0.0135636
0.0135613
0.0135589
0.0135566
0.0135542
0.0135518
0.0135494
0.013547
0.0135446
0.0135421
0.0135397
0.0135372
0.0135348
0.0135323
0.0135298
0.0135273
0.0135248
0.0135223
0.0135197
0.0135172
0.0135147
0.0135121
0.0135095
0.0135069
0.0135043
0.0135017
0.0134991
0.0134964
0.0134938
0.0134911
0.0134885
0.0134858
0.0134831
0.0134804
0.0134776
0.0134749
0.0134721
0.0134694
0.0134666
0.0134638
0.013461
0.0134582
0.0134554
0.0134526
0.0134497
0.0134468
0.013444
0.0134411
0.0134382
0.0134353
0.0134324
0.0134295
0.0134268
0.0134245
0.0135927
0.0135903
0.0135879
0.0135855
0.0135831
0.0135806
0.0135782
0.0135757
0.0135733
0.0135708
0.0135683
0.0135658
0.0135633
0.0135608
0.0135583
0.0135557
0.0135532
0.0135506
0.013548
0.0135454
0.0135428
0.0135402
0.0135376
0.0135349
0.0135323
0.0135296
0.0135269
0.0135242
0.0135215
0.0135188
0.0135161
0.0135133
0.0135105
0.0135078
0.013505
0.0135022
0.0134994
0.0134965
0.0134937
0.0134908
0.013488
0.0134851
0.0134822
0.0134792
0.0134763
0.0134734
0.0134704
0.0134674
0.0134644
0.0134614
0.0134584
0.0134554
0.0134523
0.0134492
0.0134461
0.013443
0.0134399
0.0134368
0.0134336
0.0134305
0.0134273
0.0134241
0.0134209
0.0134177
0.0134144
0.0134111
0.0134079
0.0134046
0.0134012
0.0133979
0.0133946
0.0133912
0.0133878
0.0133844
0.013381
0.0133776
0.0133741
0.0133706
0.0133671
0.0133636
0.0133601
0.0133566
0.013353
0.0133494
0.0133458
0.0133422
0.0133387
0.0133353
0.0133326
0.0135413
0.0135384
0.0135356
0.0135328
0.0135299
0.013527
0.0135241
0.0135212
0.0135183
0.0135154
0.0135124
0.0135095
0.0135065
0.0135035
0.0135005
0.0134975
0.0134944
0.0134914
0.0134883
0.0134852
0.0134821
0.013479
0.0134758
0.0134727
0.0134695
0.0134663
0.0134631
0.0134599
0.0134566
0.0134534
0.0134501
0.0134468
0.0134435
0.0134401
0.0134368
0.0134334
0.01343
0.0134266
0.0134231
0.0134197
0.0134162
0.0134127
0.0134092
0.0134057
0.0134021
0.0133985
0.013395
0.0133913
0.0133877
0.013384
0.0133804
0.0133767
0.0133729
0.0133692
0.0133654
0.0133616
0.0133578
0.013354
0.0133502
0.0133463
0.0133424
0.0133385
0.0133345
0.0133305
0.0133266
0.0133225
0.0133185
0.0133144
0.0133104
0.0133063
0.0133021
0.013298
0.0132938
0.0132896
0.0132854
0.0132811
0.0132768
0.0132725
0.0132682
0.0132638
0.0132595
0.0132551
0.0132506
0.0132462
0.0132417
0.0132372
0.0132328
0.0132286
0.0132253
0.0134845
0.0134811
0.0134778
0.0134744
0.013471
0.0134676
0.0134642
0.0134608
0.0134573
0.0134538
0.0134503
0.0134468
0.0134433
0.0134397
0.0134361
0.0134325
0.0134289
0.0134252
0.0134216
0.0134179
0.0134142
0.0134104
0.0134067
0.0134029
0.0133991
0.0133952
0.0133914
0.0133875
0.0133836
0.0133797
0.0133757
0.0133717
0.0133677
0.0133637
0.0133597
0.0133556
0.0133515
0.0133473
0.0133432
0.013339
0.0133348
0.0133305
0.0133263
0.013322
0.0133177
0.0133133
0.0133089
0.0133045
0.0133001
0.0132956
0.0132911
0.0132866
0.013282
0.0132774
0.0132728
0.0132681
0.0132635
0.0132588
0.013254
0.0132492
0.0132444
0.0132396
0.0132347
0.0132298
0.0132249
0.0132199
0.0132149
0.0132099
0.0132048
0.0131997
0.0131946
0.0131894
0.0131842
0.013179
0.0131737
0.0131684
0.0131631
0.0131577
0.0131523
0.0131468
0.0131414
0.0131358
0.0131303
0.0131247
0.0131191
0.0131135
0.0131079
0.0131027
0.0130985
0.0134215
0.0134176
0.0134136
0.0134096
0.0134056
0.0134016
0.0133975
0.0133934
0.0133893
0.0133852
0.013381
0.0133768
0.0133726
0.0133684
0.0133641
0.0133598
0.0133555
0.0133511
0.0133467
0.0133423
0.0133379
0.0133334
0.0133289
0.0133243
0.0133198
0.0133151
0.0133105
0.0133058
0.0133011
0.0132964
0.0132916
0.0132868
0.013282
0.0132771
0.0132722
0.0132672
0.0132622
0.0132572
0.0132522
0.0132471
0.0132419
0.0132368
0.0132315
0.0132263
0.013221
0.0132157
0.0132103
0.0132049
0.0131994
0.0131939
0.0131884
0.0131828
0.0131772
0.0131716
0.0131659
0.0131601
0.0131543
0.0131485
0.0131426
0.0131367
0.0131307
0.0131247
0.0131187
0.0131126
0.0131064
0.0131002
0.013094
0.0130877
0.0130814
0.013075
0.0130685
0.0130621
0.0130555
0.013049
0.0130424
0.0130357
0.013029
0.0130222
0.0130154
0.0130085
0.0130016
0.0129946
0.0129876
0.0129805
0.0129734
0.0129663
0.0129592
0.0129526
0.0129473
0.0133514
0.0133467
0.013342
0.0133373
0.0133325
0.0133278
0.0133229
0.0133181
0.0133132
0.0133083
0.0133033
0.0132983
0.0132933
0.0132883
0.0132832
0.013278
0.0132728
0.0132676
0.0132624
0.0132571
0.0132517
0.0132464
0.0132409
0.0132355
0.01323
0.0132244
0.0132188
0.0132132
0.0132075
0.0132018
0.013196
0.0131902
0.0131843
0.0131784
0.0131724
0.0131664
0.0131603
0.0131542
0.013148
0.0131417
0.0131355
0.0131291
0.0131227
0.0131163
0.0131098
0.0131032
0.0130966
0.0130899
0.0130832
0.0130764
0.0130696
0.0130627
0.0130557
0.0130487
0.0130416
0.0130345
0.0130273
0.01302
0.0130127
0.0130053
0.0129978
0.0129903
0.0129827
0.012975
0.0129673
0.0129596
0.0129517
0.0129438
0.0129358
0.0129278
0.0129197
0.0129115
0.0129032
0.0128949
0.0128865
0.0128781
0.0128695
0.0128609
0.0128523
0.0128435
0.0128347
0.0128258
0.0128168
0.0128078
0.0127987
0.0127896
0.0127806
0.0127721
0.0127654
0.013273
0.0132675
0.013262
0.0132564
0.0132508
0.0132451
0.0132394
0.0132336
0.0132278
0.013222
0.0132161
0.0132101
0.0132042
0.0131981
0.013192
0.0131859
0.0131797
0.0131734
0.0131671
0.0131608
0.0131544
0.0131479
0.0131414
0.0131348
0.0131282
0.0131214
0.0131147
0.0131079
0.013101
0.013094
0.013087
0.0130799
0.0130728
0.0130655
0.0130582
0.0130509
0.0130435
0.013036
0.0130284
0.0130207
0.013013
0.0130052
0.0129973
0.0129894
0.0129814
0.0129733
0.0129651
0.0129568
0.0129485
0.01294
0.0129315
0.0129229
0.0129142
0.0129055
0.0128966
0.0128877
0.0128786
0.0128695
0.0128603
0.012851
0.0128416
0.0128322
0.0128226
0.0128129
0.0128032
0.0127933
0.0127834
0.0127734
0.0127632
0.012753
0.0127427
0.0127323
0.0127217
0.0127111
0.0127004
0.0126896
0.0126787
0.0126677
0.0126566
0.0126454
0.012634
0.0126226
0.0126111
0.0125995
0.0125878
0.012576
0.0125644
0.0125534
0.0125449
0.0131854
0.0131789
0.0131724
0.0131658
0.0131591
0.0131524
0.0131456
0.0131388
0.0131319
0.0131249
0.0131179
0.0131108
0.0131037
0.0130965
0.0130892
0.0130819
0.0130744
0.013067
0.0130594