/*--------------------------------*- C++ -*----------------------------------*\
  =========                 |
  \\      /  F ield         | OpenFOAM: The Open Source CFD Toolbox
   \\    /   O peration     | Website:  https://openfoam.org
    \\  /    A nd           | Version:  9
     \\/     M anipulation  |
\*---------------------------------------------------------------------------*/
FoamFile
{
    format      ascii;
    class       surfaceScalarField;
    location    "0.03";
    object      phi;
}
// * * * * * * * * * * * * * * * * * * * * * * * * * * * * * * * * * * * * * //

dimensions      [1 0 -1 0 0 0 0];

internalField   nonuniform List<scalar> 
15489
(
0.000359218
7.45071e-06
0.000345789
1.34289e-05
0.000331392
1.43967e-05
0.000316933
1.44589e-05
0.000302801
1.41328e-05
0.000289396
1.34051e-05
0.000277866
1.15294e-05
0.000268566
9.30012e-06
0.000260447
8.11887e-06
0.000252261
8.1868e-06
0.000243076
9.18646e-06
0.000231453
1.1626e-05
0.000212995
1.84593e-05
0.000177247
3.57475e-05
6.5452e-05
0.000111792
0.000366309
7.80869e-06
0.000365063
1.46749e-05
0.000363283
1.61774e-05
0.000361313
1.64289e-05
0.000359156
1.62895e-05
0.000356873
1.56877e-05
0.000353735
1.46678e-05
0.000349778
1.32568e-05
0.000345784
1.21131e-05
0.000342098
1.18736e-05
0.00033852
1.27662e-05
0.000334578
1.55715e-05
0.000330859
2.21802e-05
0.000324509
4.20986e-05
7.77904e-05
0.000312169
0.000367623
6.85187e-06
0.000369232
1.30662e-05
0.000370629
1.47801e-05
0.000371863
1.51951e-05
0.000372942
1.52109e-05
0.000373706
1.49238e-05
0.000373908
1.44654e-05
0.00037344
1.37252e-05
0.000372653
1.28997e-05
0.000371984
1.25428e-05
0.000371708
1.30427e-05
0.000371863
1.54173e-05
0.000373796
2.02476e-05
0.000380053
3.58412e-05
7.01418e-05
0.000387701
0.000368061
5.45767e-06
0.000370616
1.05106e-05
0.000373244
1.2152e-05
0.000375767
1.2672e-05
0.000378158
1.28203e-05
0.00038038
1.27022e-05
0.000382329
1.25158e-05
0.000383996
1.20583e-05
0.000385378
1.15179e-05
0.000386694
1.12272e-05
0.000388234
1.1504e-05
0.000390246
1.34072e-05
0.000393278
1.72163e-05
0.000401225
2.78946e-05
5.47437e-05
0.000416623
0.000368176
3.94828e-06
0.000371028
7.65803e-06
0.000374143
9.03742e-06
0.000377233
9.58172e-06
0.000380237
9.81659e-06
0.000383123
9.81615e-06
0.000385916
9.72256e-06
0.00038858
9.3947e-06
0.000391068
9.02954e-06
0.000393457
8.83874e-06
0.000395942
9.01883e-06
0.000398871
1.04787e-05
0.000402618
1.3469e-05
0.000410138
2.03748e-05
3.90106e-05
0.000425871
0.000368148
2.46657e-06
0.000371024
4.78224e-06
0.000374287
5.77382e-06
0.000377601
6.26839e-06
0.000380867
6.54986e-06
0.000384041
6.64258e-06
0.000387168
6.5959e-06
0.000390219
6.3434e-06
0.000393154
6.09459e-06
0.000396002
5.99168e-06
0.000398899
6.1224e-06
0.000402206
7.17277e-06
0.000406274
9.40186e-06
0.000412685
1.39636e-05
2.54743e-05
0.000426221
0.000368061
1.07148e-06
0.000370827
2.01675e-06
0.000374058
2.5428e-06
0.000377418
2.90758e-06
0.000380773
3.19539e-06
0.000384034
3.38136e-06
0.000387248
3.38201e-06
0.000390384
3.20742e-06
0.000393431
3.04786e-06
0.000396422
3.00028e-06
0.000399446
3.09871e-06
0.000402789
3.82972e-06
0.000406778
5.41326e-06
0.00041238
8.36145e-06
1.51302e-05
0.000422724
0.000367953
-2.15657e-07
0.000370536
-5.65864e-07
0.000373627
-5.48831e-07
0.000376912
-3.76736e-07
0.000380249
-1.41517e-07
0.000383515
1.15108e-07
0.000386747
1.49629e-07
0.000389895
6.04203e-08
0.000392963
-2.07837e-08
0.000395982
-1.80768e-08
0.000399005
7.64132e-08
0.000402244
5.91295e-07
0.00040598
1.67796e-06
0.000410875
3.46628e-06
7.26309e-06
0.000418742
0.000367835
-1.38507e-06
0.000370203
-2.93344e-06
0.000373061
-3.4065e-06
0.00037614
-3.45644e-06
0.000379328
-3.32947e-06
0.000382505
-3.06159e-06
0.000385646
-2.99084e-06
0.000388724
-3.01759e-06
0.000391744
-3.04173e-06
0.000394732
-3.00527e-06
0.000397721
-2.91235e-06
0.000400847
-2.53545e-06
0.000404312
-1.78654e-06
0.000408505
-7.26354e-07
1.06419e-06
0.000414704
0.000367713
-2.43213e-06
0.000369833
-5.05326e-06
0.000372381
-5.95414e-06
0.000375127
-6.20257e-06
0.000377982
-6.18491e-06
0.000380878
-5.9578e-06
0.000383762
-5.87406e-06
0.00038661
-5.86536e-06
0.000389425
-5.85718e-06
0.000392228
-5.80814e-06
0.000395043
-5.72705e-06
0.000397948
-5.43962e-06
0.000401065
-4.90376e-06
0.000404599
-4.26003e-06
-3.81857e-06
0.000409482
0.000367576
-3.34171e-06
0.000369393
-6.87091e-06
0.000371533
-8.09336e-06
0.000373824
-8.49406e-06
0.000376218
-8.57891e-06
0.0003787
-8.43979e-06
0.000381209
-8.38236e-06
0.000383718
-8.37478e-06
0.000386221
-8.36018e-06
0.000388735
-8.32234e-06
0.000391293
-8.2845e-06
0.000393937
-8.08405e-06
0.000396732
-7.69839e-06
0.00039968
-7.20708e-06
-7.40703e-06
0.000403268
0.000367388
-4.06307e-06
0.000368792
-8.27507e-06
0.000370359
-9.66032e-06
0.000371992
-1.01267e-05
0.000373706
-1.02938e-05
0.000375556
-1.02893e-05
0.000377485
-1.03113e-05
0.000379471
-1.03602e-05
0.000381479
-1.03682e-05
0.00038353
-1.03736e-05
0.00038568
-1.04346e-05
0.000387946
-1.035e-05
0.000390323
-1.00748e-05
0.000392736
-9.6201e-06
-1.00653e-05
0.000395395
0.000367058
-4.45402e-06
0.000367753
-8.97024e-06
0.000368373
-1.02807e-05
0.00036898
-1.07331e-05
0.000369606
-1.09206e-05
0.000370375
-1.10577e-05
0.000371248
-1.11844e-05
0.000372163
-1.12755e-05
0.000373093
-1.12981e-05
0.000374128
-1.14083e-05
0.000375359
-1.16658e-05
0.000376785
-1.17761e-05
0.000378398
-1.1687e-05
0.000380042
-1.12639e-05
-1.15918e-05
0.000381569
0.000366254
-4.04089e-06
0.000365279
-7.99522e-06
0.000363948
-8.95005e-06
0.000362525
-9.30979e-06
0.000361073
-9.46798e-06
0.000359712
-9.69676e-06
0.000358316
-9.78865e-06
0.000356705
-9.66476e-06
0.000354934
-9.52654e-06
0.000353192
-9.6668e-06
0.00035154
-1.00135e-05
0.00035001
-1.0246e-05
0.000348514
-1.01914e-05
0.000346628
-9.37719e-06
-8.95859e-06
0.000343995
0.000362628
0.000354632
0.000345682
0.000336373
0.000326905
0.000317208
0.000307419
0.000297754
0.000288228
0.000278561
0.000268548
0.000258302
0.00024811
0.000238733
0.000229775
9.96844e-05
1.21068e-05
0.000124038
-2.43546e-05
0.000166453
-4.24156e-05
0.000213686
-4.72339e-05
0.000257814
-4.41292e-05
0.000293304
-3.54901e-05
0.000322259
-2.89558e-05
0.000340839
-1.85808e-05
0.000348186
-7.34656e-06
0.000344739
3.44581e-06
0.000333086
1.16531e-05
0.00031461
1.84761e-05
0.000290588
2.40215e-05
0.000264431
2.61575e-05
2.66976e-05
0.000237733
0.000310987
1.32884e-05
0.000323863
-3.72311e-05
0.000342458
-6.10109e-05
0.000363597
-6.83734e-05
0.000383872
-6.44046e-05
0.000400852
-5.24703e-05
0.000411508
-3.96115e-05
0.000416963
-2.40365e-05
0.000417121
-7.50472e-06
0.000411637
8.92924e-06
0.000398348
2.49423e-05
0.000378224
3.86006e-05
0.000351884
5.03609e-05
0.000320736
5.73052e-05
6.53274e-05
0.000282106
0.000386476
1.45127e-05
0.000391506
-4.22611e-05
0.000401443
-7.09482e-05
0.000413309
-8.02399e-05
0.000424444
-7.55402e-05
0.000435093
-6.31193e-05
0.000441138
-4.56564e-05
0.00044312
-2.60187e-05
0.000441042
-5.42646e-06
0.000434223
1.5748e-05
0.000422513
3.66524e-05
0.000404376
5.6737e-05
0.000379834
7.49027e-05
0.00034953
8.76093e-05
0.00010004
0.000314817
0.000420623
1.05122e-05
0.000423435
-4.50731e-05
0.000427184
-7.4698e-05
0.000432109
-8.51648e-05
0.000438151
-8.15824e-05
0.000443926
-6.88942e-05
0.000447395
-4.91252e-05
0.000448471
-2.70949e-05
0.000446954
-3.90938e-06
0.000441749
2.09528e-05
0.000432314
4.60868e-05
0.000418228
7.08232e-05
0.000397672
9.54592e-05
0.000370105
0.000115176
0.000131983
0.000338163
0.000433172
3.21136e-06
0.000435585
-4.74863e-05
0.000436455
-7.55683e-05
0.000437822
-8.65318e-05
0.000439981
-8.37417e-05
0.000441604
-7.0517e-05
0.000443402
-5.09232e-05
0.000444203
-2.78955e-05
0.00044362
-3.3269e-06
0.000440478
2.40949e-05
0.000434131
5.24342e-05
0.000424
8.09544e-05
0.000409276
0.000110183
0.000387368
0.000137084
0.000161093
0.000358258
0.000433729
-4.29642e-06
0.000436547
-5.03051e-05
0.000436454
-7.54752e-05
0.00043518
-8.52587e-05
0.000433933
-8.24947e-05
0.000433517
-7.0101e-05
0.000433894
-5.12994e-05
0.000434393
-2.83951e-05
0.000434594
-3.52783e-06
0.000433264
2.54254e-05
0.000429872
5.58266e-05
0.000423823
8.7003e-05
0.000414195
0.000119812
0.000399535
0.000151744
0.000184636
0.000375992
0.000429714
-1.12859e-05
0.000431731
-5.23222e-05
0.000430452
-7.41963e-05
0.000427601
-8.24077e-05
0.000424608
-7.9502e-05
0.000422413
-6.79064e-05
0.000421412
-5.02977e-05
0.000421082
-2.80653e-05
0.000421068
-3.51335e-06
0.00042107
2.54229e-05
0.000420582
5.63152e-05
0.000418507
8.90774e-05
0.000414144
0.000124175
0.000406269
0.000159618
0.000199952
0.000390953
0.000424189
-1.67329e-05
0.000424853
-5.2986e-05
0.000422253
-7.15972e-05
0.000418022
-7.81764e-05
0.000413382
-7.48615e-05
0.000409277
-6.38011e-05
0.000406103
-4.71234e-05
0.00040441
-2.63724e-05
0.000404195
-3.29839e-06
0.000405264
2.43541e-05
0.000407119
5.44611e-05
0.000409027
8.71692e-05
0.000410096
0.000123106
0.000408438
0.000161276
0.000205709
0.000402681
0.000418292
-2.03207e-05
0.000417227
-5.19213e-05
0.000413084
-6.74548e-05
0.000407238
-7.23302e-05
0.000400783
-6.84063e-05
0.00039481
-5.78282e-05
0.000390213
-4.25265e-05
0.000387571
-2.37304e-05
0.000386976
-2.70262e-06
0.000388433
2.28963e-05
0.000391798
5.10968e-05
0.00039669
8.22769e-05
0.000402341
0.000117455
0.000407551
0.000156066
0.000202778
0.000410482
0.000412355
-2.31933e-05
0.000409431
-4.8997e-05
0.000403711
-6.1735e-05
0.000396299
-6.4918e-05
0.000388296
-6.04033e-05
0.000380797
-5.03285e-05
0.000374685
-3.64141e-05
0.00037065
-1.96947e-05
0.000369101
-1.15385e-06
0.000370435
2.1563e-05
0.0003748
4.67321e-05
0.000382024
7.50533e-05
0.000391817
0.000107662
0.000403243
0.000144641
0.000191274
0.000414748
0.000405262
-2.51865e-05
0.000400945
-4.46804e-05
0.000393119
-5.39093e-05
0.000383986
-5.57851e-05
0.000374261
-5.06781e-05
0.000365082
-4.11494e-05
0.000357404
-2.87367e-05
0.00035212
-1.44104e-05
0.000349761
1.20485e-06
0.000351045
2.02794e-05
0.000356248
4.15292e-05
0.000365407
6.58939e-05
0.000378857
9.42119e-05
0.000395802
0.000127696
0.000171084
0.000415991
0.000396298
-2.60905e-05
0.000390556
-3.89356e-05
0.000380763
-4.41187e-05
0.000368764
-4.37848e-05
0.000356677
-3.85919e-05
0.000345453
-2.99238e-05
0.00033604
-1.93255e-05
0.000329445
-7.81439e-06
0.000326273
4.37646e-06
0.000327634
1.89192e-05
0.00033389
3.52722e-05
0.000345106
5.46788e-05
0.000362263
7.70547e-05
0.000384757
0.000105202
0.000141434
0.000414407
0.000380245
-2.47655e-05
0.000371461
-3.01519e-05
0.000358621
-3.128e-05
0.0003437
-2.88643e-05
0.000328755
-2.36479e-05
0.000315541
-1.67103e-05
0.000305182
-8.96666e-06
0.000298539
-1.1718e-06
0.000296094
6.82074e-06
0.000298839
1.61741e-05
0.000307266
2.68441e-05
0.000321173
4.07726e-05
0.000342488
5.57383e-05
0.00037016
7.75301e-05
0.00010307
0.000408523
0.000337295
-1.80642e-05
0.000323173
-1.60302e-05
0.000306226
-1.43347e-05
0.000289002
-1.1642e-05
0.000273622
-8.26937e-06
0.000261251
-4.34015e-06
0.000252659
-3.75733e-07
0.00024824
3.24682e-06
0.000248087
6.97274e-06
0.000252865
1.1395e-05
0.000263103
1.66052e-05
0.00028134
2.25358e-05
0.000309301
2.77763e-05
0.000344371
4.24596e-05
5.10335e-05
0.000396407
0.000211711
0.00019568
0.000181345
0.000169703
0.000161433
0.000157093
0.000156717
0.000159964
0.000166936
0.000178331
0.000194937
0.000217472
0.000245249
0.000287708
0.000338742
0.000255396
-1.76633e-05
0.000266708
-1.13118e-05
0.000275488
-8.77989e-06
0.00028023
-4.74239e-06
0.000282799
-2.56862e-06
0.000284154
-1.35486e-06
0.000284371
-2.17274e-07
0.000283496
8.74794e-07
0.000281361
2.13555e-06
0.000276888
4.47249e-06
0.000271562
5.32646e-06
0.000260295
1.12663e-05
0.000249416
1.08797e-05
0.000209023
4.03929e-05
-0.000140561
0.000349584
0.000295075
-3.06321e-05
0.00030416
-2.03967e-05
0.000313009
-1.76291e-05
0.000320656
-1.23889e-05
0.000326852
-8.76504e-06
0.000332175
-6.67737e-06
0.000336895
-4.93733e-06
0.000341337
-3.56804e-06
0.000345779
-2.30566e-06
0.000349977
2.74572e-07
0.000355294
9.46567e-09
0.00035832
8.24007e-06
0.000364219
4.98021e-06
0.000355001
4.96112e-05
-0.000204446
0.000418886
0.000324528
-4.03435e-05
0.00033233
-2.81978e-05
0.000338644
-2.39435e-05
0.000344076
-1.78214e-05
0.000348142
-1.28304e-05
0.000351423
-9.95899e-06
0.000354429
-7.94319e-06
0.000357388
-6.52723e-06
0.000360883
-5.80019e-06
0.000364679
-3.52122e-06
0.000370359
-5.67036e-06
0.0003748
3.79816e-06
0.000386186
-6.40532e-06
0.000383699
5.20986e-05
-0.000251206
0.000430459
0.000342677
-4.48579e-05
0.000346413
-3.19342e-05
0.000348995
-2.65246e-05
0.000351559
-2.03855e-05
0.000353752
-1.50238e-05
0.000355759
-1.19662e-05
0.000357943
-1.01274e-05
0.000360381
-8.96488e-06
0.000363449
-8.86824e-06
0.000367216
-7.28811e-06
0.000372532
-1.09865e-05
0.000377251
-9.20382e-07
0.000388446
-1.76002e-05
0.000388587
5.19571e-05
-0.000294143
0.000431524
0.000359841
-4.64413e-05
0.000361201
-3.32947e-05
0.000361908
-2.72312e-05
0.00036283
-2.1308e-05
0.000363692
-1.58855e-05
0.000364427
-1.27015e-05
0.000365355
-1.10548e-05
0.000366611
-1.0221e-05
0.000368471
-1.07286e-05
0.000371161
-9.97791e-06
0.000375068
-1.48937e-05
0.000379438
-5.28994e-06
0.000388279
-2.64418e-05
0.000392191
4.80453e-05
-0.000334644
0.000432693
0.000374875
-4.5324e-05
0.000373885
-3.23049e-05
0.00037254
-2.58863e-05
0.000371622
-2.03903e-05
0.000371027
-1.52904e-05
0.000370603
-1.22774e-05
0.000370557
-1.10092e-05
0.000371009
-1.06727e-05
0.000372087
-1.18067e-05
0.000374103
-1.19934e-05
0.000376989
-1.778e-05
0.000381285
-9.58571e-06
0.000387325
-3.24817e-05
0.000397421
3.79491e-05
-0.000370312
0.000433089
0.000387121
-4.14919e-05
0.000384299
-2.94829e-05
0.000381544
-2.31313e-05
0.000379382
-1.8228e-05
0.000377823
-1.37314e-05
0.000376628
-1.10827e-05
0.000375845
-1.02266e-05
0.000375595
-1.04225e-05
0.000375931
-1.21423e-05
0.000377234
-1.32966e-05
0.000379121
-1.9667e-05
0.000383111
-1.35765e-05
0.000386744
-3.6114e-05
0.000401056
2.36364e-05
-0.000400618
0.000431362
0.000396688
-3.54994e-05
0.000392549
-2.53435e-05
0.000388833
-1.94152e-05
0.000385767
-1.5162e-05
0.000383464
-1.14285e-05
0.000381685
-9.30413e-06
0.00038036
-8.90129e-06
0.000379592
-9.65435e-06
0.000379366
-1.19163e-05
0.000380084
-1.40142e-05
0.000381193
-2.07766e-05
0.000384673
-1.70561e-05
0.000386926
-3.83673e-05
0.000402087
8.4754e-06
-0.00042535
0.000426819
0.000403511
-2.85286e-05
0.000398497
-2.03302e-05
0.000394217
-1.51351e-05
0.000390694
-1.16388e-05
0.000388014
-8.74828e-06
0.000385901
-7.19139e-06
0.00038423
-7.23004e-06
0.000383143
-8.5672e-06
0.000382524
-1.12974e-05
0.000382766
-1.42569e-05
0.000383248
-2.12586e-05
0.000386117
-1.99247e-05
0.000387472
-3.97226e-05
0.000402171
-6.22379e-06
-0.000441584
0.000418406
0.000407553
-2.13337e-05
0.00040212
-1.48972e-05
0.000397634
-1.06488e-05
0.000393943
-7.94793e-06
0.000391243
-6.04906e-06
0.000389192
-5.1396e-06
0.000387403
-5.44145e-06
0.000386159
-7.32309e-06
0.000385314
-1.04526e-05
0.000385206
-1.41491e-05
0.000385186
-2.12381e-05
0.000387491
-2.22296e-05
0.000387907
-4.01384e-05
0.000402331
-2.06478e-05
-0.000441557
0.000402303
0.000408961
-1.43033e-05
0.000403547
-9.4836e-06
0.000399075
-6.17677e-06
0.000395523
-4.39585e-06
0.000392996
-3.52157e-06
0.000391152
-3.29651e-06
0.000389689
-3.97829e-06
0.000388478
-6.11173e-06
0.000387613
-9.58821e-06
0.000387328
-1.38635e-05
0.000386955
-2.08648e-05
0.000388778
-2.4053e-05
0.000388334
-3.96947e-05
0.000402242
-3.45553e-05
-0.000414604
0.000375288
0.00040786
-7.75622e-06
0.000402943
-4.5665e-06
0.000398872
-2.10583e-06
0.000395762
-1.28589e-06
0.000393678
-1.43711e-06
0.00039227
-1.88868e-06
0.00039134
-3.04832e-06
0.000390437
-5.20881e-06
0.000389682
-8.8335e-06
0.000389359
-1.35403e-05
0.000388756
-2.0262e-05
0.000390143
-2.54399e-05
0.000389139
-3.86903e-05
0.000401346
-4.6762e-05
-0.000351619
0.000338361
0.000403131
-2.36385e-06
0.000399335
-7.70975e-07
0.000396432
7.97538e-07
0.000394229
9.16895e-07
0.000392783
8.42983e-09
0.000392028
-1.13363e-06
0.000391713
-2.7332e-06
0.000391467
-4.96234e-06
0.00039113
-8.49719e-06
0.000391018
-1.34278e-05
0.000390275
-1.95192e-05
0.000390987
-2.61517e-05
0.000388415
-3.6119e-05
0.000396371
-5.47174e-05
-0.00024274
0.000287491
0.000393133
9.09957e-07
0.000390546
1.81607e-06
0.000389328
2.01584e-06
0.000388962
1.28212e-06
0.000388896
7.45229e-08
0.000389052
-1.28976e-06
0.000389395
-3.07542e-06
0.000389509
-5.07686e-06
0.00038845
-7.43806e-06
0.000386546
-1.15241e-05
0.000382788
-1.57606e-05
0.000378528
-2.18921e-05
0.000368196
-2.57875e-05
0.000362586
-4.91067e-05
-9.64578e-05
0.000216304
0.000339652
0.000341468
0.000343483
0.000344766
0.00034484
0.00034355
0.000340475
0.000335398
0.00032796
0.000316436
0.000300675
0.000278783
0.000252996
0.000203889
0.000107431
0.342143
-0.000651748
0.342034
-0.000653533
0.341928
-0.000655339
0.341823
-0.000657167
0.341719
-0.000659
0.341618
-0.000660834
0.341517
-0.000662668
0.341419
-0.000664501
0.341322
-0.000666334
0.341227
-0.000668167
0.341133
-0.000669999
0.34104
-0.000671831
0.340949
-0.000673663
0.34086
-0.000675495
0.340772
-0.000677326
0.340685
-0.000679157
0.340599
-0.000680987
0.340515
-0.000682817
0.340432
-0.000684647
0.34035
-0.000686476
0.340269
-0.000688305
0.34019
-0.000690133
0.340112
-0.000691961
0.340035
-0.000693788
0.339959
-0.000695614
0.339884
-0.00069744
0.33981
-0.000699265
0.339737
-0.000701089
0.339666
-0.000702912
0.339595
-0.000704735
0.339525
-0.000706557
0.339457
-0.000708378
0.339389
-0.000710198
0.339322
-0.000712017
0.339256
-0.000713835
0.339191
-0.000715652
0.339127
-0.000717468
0.339064
-0.000719283
0.339001
-0.000721097
0.338939
-0.000722909
0.338879
-0.000724721
0.338819
-0.000726531
0.33876
-0.000728348
0.338701
-0.000730171
0.338643
-0.000731995
0.338587
-0.000733817
0.33853
-0.000735636
0.338475
-0.000737453
0.33842
-0.000739267
0.338366
-0.000741078
0.338313
-0.000742887
0.33826
-0.000744693
0.338208
-0.000746496
0.338157
-0.000748297
0.338106
-0.000750095
0.338056
-0.000751891
0.338007
-0.000753684
0.337958
-0.000755475
0.33791
-0.000757263
0.337862
-0.000759049
0.337815
-0.000760832
0.337768
-0.000762613
0.337722
-0.000764392
0.337677
-0.000766168
0.337632
-0.000767941
0.337587
-0.000769712
0.337543
-0.00077148
0.3375
-0.000773246
0.337457
-0.000775009
0.337414
-0.000776769
0.337372
-0.000778527
0.337331
-0.000780282
0.33729
-0.000782034
0.337249
-0.000783784
0.337209
-0.00078553
0.337169
-0.000787274
0.33713
-0.000789015
0.337091
-0.000790753
0.337052
-0.000792488
0.337014
-0.00079422
0.336976
-0.000795949
0.336939
-0.000797675
0.336902
-0.000799398
0.336865
-0.000801117
0.336829
-0.000802833
0.336793
-0.000804546
0.336757
-0.000806253
0.336722
-0.000807945
-0.000809563
0.29936
-0.000644264
0.299354
-0.00064661
0.299347
-0.00064896
0.299341
-0.000651316
0.299336
-0.00065366
0.299331
-0.00065599
0.299327
-0.000658304
0.299323
-0.000660604
0.299319
-0.000662889
0.299316
-0.00066516
0.299314
-0.000667418
0.299312
-0.000669662
0.29931
-0.000671893
0.299309
-0.000674112
0.299308
-0.000676318
0.299307
-0.000678512
0.299307
-0.000680694
0.299307
-0.000682865
0.299307
-0.000685024
0.299308
-0.000687173
0.299309
-0.00068931
0.29931
-0.000691438
0.299312
-0.000693555
0.299313
-0.000695662
0.299316
-0.000697759
0.299318
-0.000699847
0.299321
-0.000701926
0.299324
-0.000703995
0.299327
-0.000706056
0.29933
-0.000708108
0.299334
-0.000710151
0.299338
-0.000712186
0.299342
-0.000714213
0.299346
-0.000716232
0.29935
-0.000718243
0.299355
-0.000720247
0.29936
-0.000722243
0.299364
-0.000724231
0.29937
-0.000726213
0.299375
-0.000728187
0.29938
-0.000730154
0.299386
-0.000732115
0.299392
-0.000734076
0.299397
-0.000736037
0.299403
-0.000737994
0.29941
-0.000739943
0.299416
-0.000741885
0.299422
-0.00074382
0.299429
-0.000745747
0.299435
-0.000747667
0.299442
-0.000749579
0.299449
-0.000751485
0.299456
-0.000753384
0.299463
-0.000755276
0.29947
-0.000757162
0.299477
-0.000759042
0.299484
-0.000760915
0.299491
-0.000762782
0.299499
-0.000764643
0.299506
-0.000766498
0.299514
-0.000768348
0.299521
-0.000770191
0.299529
-0.000772029
0.299537
-0.000773862
0.299544
-0.000775688
0.299552
-0.00077751
0.29956
-0.000779326
0.299568
-0.000781136
0.299576
-0.000782942
0.299584
-0.000784741
0.299592
-0.000786536
0.2996
-0.000788326
0.299608
-0.00079011
0.299616
-0.000791889
0.299624
-0.000793664
0.299632
-0.000795433
0.299641
-0.000797197
0.299649
-0.000798956
0.299657
-0.00080071
0.299665
-0.000802459
0.299673
-0.000804203
0.299682
-0.000805942
0.29969
-0.000807676
0.299698
-0.000809406
0.299707
-0.00081113
0.299715
-0.000812849
0.299723
-0.000814563
0.299732
-0.000816274
-0.000818078
0.280788
-0.000645164
0.280788
-0.000647269
0.280789
-0.000649373
0.280789
-0.000651476
0.280789
-0.000653576
0.280788
-0.000655674
0.280788
-0.00065777
0.280787
-0.000659863
0.280786
-0.000661954
0.280785
-0.000664042
0.280784
-0.000666128
0.280782
-0.000668211
0.280781
-0.000670292
0.280779
-0.000672369
0.280777
-0.00067444
0.280775
-0.000676507
0.280773
-0.000678571
0.280771
-0.000680632
0.280768
-0.000682691
0.280766
-0.000684747
0.280763
-0.000686801
0.280761
-0.000688851
0.280758
-0.0006909
0.280755
-0.000692945
0.280753
-0.000694987
0.28075
-0.000697027
0.280747
-0.000699064
0.280744
-0.000701098
0.280741
-0.000703129
0.280738
-0.000705157
0.280735
-0.000707182
0.280732
-0.000709204
0.280729
-0.000711223
0.280726
-0.000713238
0.280723
-0.00071525
0.28072
-0.000717258
0.280717
-0.000719263
0.280714
-0.000721264
0.280711
-0.000723262
0.280709
-0.000725255
0.280706
-0.000727245
0.280703
-0.00072923
0.2807
-0.000731211
0.280697
-0.000733187
0.280694
-0.000735164
0.280691
-0.000737158
0.280689
-0.000739152
0.280686
-0.000741144
0.280683
-0.000743134
0.280681
-0.00074512
0.280678
-0.000747104
0.280676
-0.000749085
0.280674
-0.000751063
0.280671
-0.000753038
0.280669
-0.00075501
0.280667
-0.000756979
0.280665
-0.000758945
0.280663
-0.000760908
0.280662
-0.000762869
0.28066
-0.000764826
0.280658
-0.00076678
0.280657
-0.000768731
0.280655
-0.000770679
0.280654
-0.000772624
0.280653
-0.000774565
0.280652
-0.000776504
0.280651
-0.00077844
0.28065
-0.000780372
0.28065
-0.000782301
0.280649
-0.000784227
0.280649
-0.00078615
0.280649
-0.00078807
0.280649
-0.000789987
0.280649
-0.0007919
0.280649
-0.00079381
0.280649
-0.000795717
0.280649
-0.000797621
0.28065
-0.000799522
0.280651
-0.000801419
0.280652
-0.000803313
0.280653
-0.000805204
0.280654
-0.000807092
0.280655
-0.000808976
0.280656
-0.000810857
0.280658
-0.000812735
0.28066
-0.00081461
0.280662
-0.000816481
0.280664
-0.000818353
-0.000820404
0.257092
-0.000627618
0.257075
-0.000630105
0.257058
-0.000632586
0.257042
-0.000635062
0.257026
-0.000637533
0.25701
-0.000639999
0.256995
-0.00064246
0.25698
-0.000644915
0.256965
-0.000647366
0.256951
-0.00064981
0.256937
-0.00065225
0.256923
-0.000654684
0.25691
-0.000657112
0.256897
-0.000659534
0.256885
-0.000661948
0.256873
-0.000664355
0.256861
-0.000666755
0.256849
-0.000669151
0.256838
-0.00067154
0.256827
-0.000673924
0.256817
-0.000676303
0.256807
-0.000678675
0.256797
-0.000681042
0.256787
-0.000683403
0.256778
-0.000685759
0.256769
-0.000688109
0.256761
-0.000690453
0.256752
-0.00069279
0.256744
-0.000695122
0.256737
-0.000697448
0.256729
-0.000699767
0.256722
-0.00070208
0.256715
-0.000704387
0.256709
-0.000706687
0.256702
-0.000708981
0.256696
-0.000711268
0.256691
-0.000713548
0.256685
-0.000715821
0.25668
-0.000718085
0.256675
-0.000720339
0.25667
-0.000722587
0.256666
-0.000724827
0.256662
-0.00072706
0.256658
-0.000729286
0.256654
-0.000731509
0.256651
-0.000733744
0.256648
-0.000735977
0.256645
-0.000738204
0.256642
-0.000740426
0.25664
-0.000742642
0.256637
-0.000744852
0.256635
-0.000747057
0.256634
-0.000749255
0.256632
-0.000751448
0.256631
-0.000753635
0.256629
-0.000755816
0.256628
-0.000757992
0.256628
-0.000760162
0.256627
-0.000762326
0.256627
-0.000764484
0.256627
-0.000766636
0.256627
-0.000768782
0.256627
-0.000770923
0.256627
-0.000773057
0.256628
-0.000775186
0.256629
-0.000777309
0.25663
-0.000779426
0.256631
-0.000781537
0.256632
-0.000783643
0.256634
-0.000785743
0.256636
-0.000787837
0.256637
-0.000789926
0.256639
-0.000792009
0.256642
-0.000794086
0.256644
-0.000796158
0.256646
-0.000798223
0.256649
-0.000800283
0.256652
-0.000802337
0.256655
-0.000804386
0.256658
-0.000806428
0.256661
-0.000808465
0.256665
-0.000810496
0.256668
-0.000812521
0.256672
-0.00081454
0.256676
-0.000816553
0.25668
-0.000818561
0.256684
-0.000820562
0.256688
-0.000822554
-0.000824459
0.23703
-0.000636175
0.237038
-0.000638606
0.237047
-0.000641035
0.237055
-0.000643463
0.237064
-0.000645888
0.237072
-0.000648312
0.23708
-0.000650734
0.237088
-0.000653154
0.237097
-0.000655572
0.237105
-0.000657987
0.237113
-0.000660399
0.237121
-0.00066281
0.237129
-0.000665217
0.237137
-0.000667622
0.237145
-0.000670023
0.237153
-0.000672422
0.237162
-0.000674817
0.23717
-0.000677209
0.237178
-0.000679597
0.237186
-0.000681981
0.237194
-0.000684361
0.237202
-0.000686736
0.23721
-0.000689107
0.237218
-0.000691473
0.237226
-0.000693858
0.237234
-0.000696247
0.237242
-0.000698634
0.237251
-0.000701018
0.237259
-0.0007034
0.237267
-0.000705778
0.237276
-0.000708153
0.237284
-0.000710524
0.237293
-0.000712892
0.237301
-0.000715257
0.23731
-0.000717619
0.237318
-0.000719976
0.237327
-0.000722331
0.237336
-0.00072468
0.237345
-0.000727024
0.237354
-0.000729362
0.237363
-0.000731697
0.237372
-0.000734027
0.237382
-0.000736353
0.237391
-0.000738676
0.237401
-0.000740994
0.23741
-0.000743307
0.23742
-0.000745617
0.237429
-0.000747922
0.237439
-0.000750222
0.237449
-0.000752518
0.237459
-0.00075481
0.237469
-0.000757097
0.237479
-0.000759379
0.237489
-0.000761657
0.2375
-0.00076393
0.23751
-0.000766198
0.237521
-0.000768461
0.237531
-0.000770719
0.237542
-0.000772972
0.237553
-0.00077522
0.237563
-0.000777462
0.237574
-0.0007797
0.237585
-0.000781932
0.237596
-0.000784159
0.237608
-0.00078638
0.237619
-0.000788596
0.23763
-0.000790807
0.237642
-0.000793018
0.237653
-0.000795236
0.237665
-0.000797452
0.237677
-0.000799663
0.237689
-0.000801867
0.237701
-0.000804063
0.237713
-0.000806252
0.237725
-0.000808433
0.237738
-0.000810607
0.23775
-0.000812774
0.237763
-0.000814933
0.237775
-0.000817085
0.237788
-0.00081923
0.237801
-0.000821368
0.237814
-0.000823498
0.237827
-0.000825622
0.237841
-0.000827738
0.237854
-0.000829847
0.237867
-0.000831949
0.237881
-0.000834044
0.237894
-0.000836123
-0.000838175
0.218497
-0.000626836
0.218488
-0.000629527
0.218479
-0.000632215
0.21847
-0.000634901
0.218462
-0.000637584
0.218454
-0.000640264
0.218446
-0.000642942
0.218438
-0.000645616
0.218431
-0.000648287
0.218424
-0.000650956
0.218417
-0.00065362
0.218411
-0.000656282
0.218405
-0.00065894
0.218399
-0.000661594
0.218393
-0.000664245
0.218387
-0.000666892
0.218382
-0.000669534
0.218377
-0.000672173
0.218372
-0.000674806
0.218368
-0.000677435
0.218363
-0.000680059
0.218359
-0.000682678
0.218355
-0.000685292
0.218352
-0.0006879
0.218349
-0.000690524
0.218345
-0.000693149
0.218343
-0.000695772
0.21834
-0.000698391
0.218338
-0.000701006
0.218335
-0.000703617
0.218333
-0.000706223
0.218332
-0.000708826
0.21833
-0.000711424
0.218329
-0.000714018
0.218328
-0.000716607
0.218327
-0.000719192
0.218327
-0.000721772
0.218326
-0.000724348
0.218326
-0.000726919
0.218326
-0.000729484
0.218327
-0.000732046
0.218327
-0.000734602
0.218328
-0.000737154
0.218329
-0.000739701
0.21833
-0.000742243
0.218332
-0.00074478
0.218334
-0.000747312
0.218335
-0.000749839
0.218338
-0.00075236
0.21834
-0.000754876
0.218343
-0.000757387
0.218345
-0.000759892
0.218348
-0.000762391
0.218352
-0.000764884
0.218355
-0.000767372
0.218359
-0.000769854
0.218363
-0.00077233
0.218367
-0.0007748
0.218371
-0.000777264
0.218375
-0.000779722
0.21838
-0.000782174
0.218385
-0.000784619
0.21839
-0.000787058
0.218396
-0.000789491
0.218401
-0.000791917
0.218407
-0.000794337
0.218413
-0.00079675
0.218419
-0.000799162
0.218425
-0.000801579
0.218432
-0.000803992
0.218438
-0.000806399
0.218445
-0.000808798
0.218453
-0.000811188
0.21846
-0.000813569
0.218467
-0.000815942
0.218475
-0.000818307
0.218483
-0.000820663
0.218491
-0.000823011
0.218499
-0.00082535
0.218508
-0.000827681
0.218516
-0.000830004
0.218525
-0.000832319
0.218534
-0.000834625
0.218543
-0.000836923
0.218553
-0.000839213
0.218562
-0.000841495
0.218572
-0.000843767
0.218582
-0.000846022
-0.000848117
0.200669
-0.00063091
0.200674
-0.000633772
0.200678
-0.000636632
0.200683
-0.00063949
0.200687
-0.000642345
0.200692
-0.000645199
0.200697
-0.00064805
0.200703
-0.000650898
0.200708
-0.000653744
0.200714
-0.000656587
0.20072
-0.000659428
0.200726
-0.000662266
0.200732
-0.000665102
0.200738
-0.000667935
0.200745
-0.000670765
0.200751
-0.000673592
0.200758
-0.000676417
0.200765
-0.000679239
0.200773
-0.000682058
0.20078
-0.000684874
0.200788
-0.000687686
0.200795
-0.000690496
0.200803
-0.000693301
0.200812
-0.000696104
0.20082
-0.000698902
0.200829
-0.000701696
0.200837
-0.000704486
0.200846
-0.000707272
0.200855
-0.000710054
0.200864
-0.000712832
0.200874
-0.000715605
0.200883
-0.000718375
0.200893
-0.000721139
0.200903
-0.000723899
0.200913
-0.000726654
0.200923
-0.000729405
0.200934
-0.00073215
0.200944
-0.000734891
0.200955
-0.000737626
0.200966
-0.000740356
0.200977
-0.000743084
0.200988
-0.000745824
0.200999
-0.000748565
0.201011
-0.000751301
0.201023
-0.00075403
0.201035
-0.000756751
0.201047
-0.000759464
0.201059
-0.000762169
0.201072
-0.000764867
0.201084
-0.000767557
0.201097
-0.000770239
0.20111
-0.000772913
0.201123
-0.00077558
0.201137
-0.000778239
0.20115
-0.000780891
0.201164
-0.000783535
0.201178
-0.000786171
0.201192
-0.0007888
0.201206
-0.000791421
0.20122
-0.000794034
0.201235
-0.00079664
0.201249
-0.000799238
0.201264
-0.000801829
0.201279
-0.000804411
0.201294
-0.000806986
0.201309
-0.000809553
0.201325
-0.000812112
0.20134
-0.000814663
0.201356
-0.000817206
0.201372
-0.000819741
0.201387
-0.000822267
0.201403
-0.000824786
0.20142
-0.000827297
0.201436
-0.000829799
0.201452
-0.000832293
0.201469
-0.000834779
0.201485
-0.000837256
0.201502
-0.000839725
0.201519
-0.000842184
0.201536
-0.000844635
0.201553
-0.000847076
0.20157
-0.000849508
0.201587
-0.000851931
0.201605
-0.000854344