/*--------------------------------*- C++ -*----------------------------------*\
  =========                 |
  \\      /  F ield         | OpenFOAM: The Open Source CFD Toolbox
   \\    /   O peration     | Website:  https://openfoam.org
    \\  /    A nd           | Version:  8
     \\/     M anipulation  |
\*---------------------------------------------------------------------------*/
FoamFile
{
    version     2.0;
    format      ascii;
    class       volScalarField;
    location    "9";
    object      nuTilda;
}
// * * * * * * * * * * * * * * * * * * * * * * * * * * * * * * * * * * * * * //

dimensions      [0 2 -1 0 0 0 0];

internalField   nonuniform List<scalar> 
277560
(
0.139703
0.139116
0.138543
0.137983
0.137437
0.136904
0.136382
0.135871
0.135368
0.134871
0.134379
0.133891
0.133403
0.132915
0.132425
0.131931
0.131434
0.130932
0.130424
0.129912
0.129394
0.128873
0.128348
0.12782
0.127292
0.126765
0.126241
0.125722
0.125211
0.124709
0.124219
0.123744
0.123286
0.122848
0.122431
0.122039
0.121674
0.121336
0.121028
0.120752
0.120508
0.120297
0.120121
0.119979
0.119871
0.119798
0.119759
0.119753
0.119779
0.119836
0.119922
0.120037
0.120178
0.120345
0.120534
0.120744
0.120974
0.121221
0.121484
0.121761
0.122051
0.122351
0.12266
0.122976
0.123299
0.123626
0.123957
0.124291
0.124626
0.124961
0.125297
0.125631
0.125963
0.126294
0.126621
0.126945
0.127265
0.127581
0.127894
0.128201
0.128504
0.128802
0.129095
0.129383
0.129666
0.129945
0.130217
0.130485
0.130748
0.131006
0.131259
0.131507
0.13175
0.131989
0.132222
0.132452
0.132677
0.132897
0.133113
0.133325
0.133533
0.133737
0.133937
0.134134
0.134326
0.134516
0.134701
0.134883
0.135062
0.135238
0.135411
0.13558
0.135747
0.135911
0.136072
0.13623
0.136385
0.136538
0.136689
0.136837
0.139703
0.139116
0.138543
0.137984
0.137439
0.136907
0.136386
0.135876
0.135374
0.134879
0.134388
0.133901
0.133414
0.132927
0.132438
0.131945
0.131449
0.130947
0.13044
0.129928
0.129411
0.128889
0.128364
0.127836
0.127308
0.126781
0.126256
0.125736
0.125224
0.124721
0.12423
0.123754
0.123295
0.122856
0.122439
0.122046
0.121679
0.121341
0.121032
0.120755
0.12051
0.120299
0.120123
0.11998
0.119873
0.1198
0.119761
0.119755
0.119781
0.119839
0.119926
0.120042
0.120185
0.120352
0.120542
0.120754
0.120985
0.121234
0.121499
0.121778
0.122069
0.122371
0.122682
0.123
0.123325
0.123654
0.123987
0.124322
0.124659
0.124997
0.125333
0.125669
0.126003
0.126335
0.126663
0.126989
0.12731
0.127628
0.127941
0.128249
0.128553
0.128852
0.129145
0.129434
0.129718
0.129996
0.130269
0.130537
0.1308
0.131058
0.131311
0.131559
0.131802
0.132041
0.132274
0.132503
0.132727
0.132947
0.133163
0.133374
0.133582
0.133785
0.133984
0.134179
0.134371
0.134559
0.134743
0.134924
0.135102
0.135276
0.135448
0.135616
0.135781
0.135943
0.136102
0.136258
0.136412
0.136563
0.136712
0.136857
0.139703
0.139116
0.138544
0.137986
0.137443
0.136912
0.136394
0.135886
0.135387
0.134894
0.134406
0.13392
0.133436
0.132951
0.132464
0.131973
0.131478
0.130977
0.130471
0.12996
0.129443
0.128922
0.128396
0.127868
0.127339
0.126811
0.126285
0.125764
0.12525
0.124746
0.124253
0.123776
0.123315
0.122874
0.122455
0.12206
0.121692
0.121352
0.121042
0.120763
0.120518
0.120306
0.120128
0.119986
0.119878
0.119805
0.119766
0.119761
0.119789
0.119848
0.119937
0.120054
0.120198
0.120368
0.120561
0.120776
0.12101
0.121262
0.12153
0.121812
0.122107
0.122412
0.122727
0.123049
0.123377
0.12371
0.124047
0.124386
0.124726
0.125066
0.125407
0.125745
0.126082
0.126417
0.126748
0.127076
0.127399
0.127719
0.128034
0.128344
0.128649
0.128949
0.129245
0.129534
0.129819
0.130098
0.130372
0.130641
0.130904
0.131162
0.131415
0.131663
0.131906
0.132143
0.132376
0.132605
0.132828
0.133047
0.133262
0.133472
0.133677
0.133879
0.134077
0.13427
0.13446
0.134646
0.134828
0.135007
0.135182
0.135353
0.135522
0.135687
0.135849
0.136008
0.136163
0.136316
0.136466
0.136614
0.136758
0.1369
0.139703
0.139117
0.138546
0.13799
0.137449
0.136921
0.136406
0.135901
0.135405
0.134916
0.134431
0.13395
0.133469
0.132987
0.132502
0.132014
0.131521
0.131022
0.130518
0.130008
0.129491
0.12897
0.128445
0.127916
0.127386
0.126857
0.126329
0.125806
0.12529
0.124784
0.124289
0.123809
0.123346
0.122902
0.12248
0.122083
0.121712
0.12137
0.121058
0.120777
0.12053
0.120317
0.120138
0.119995
0.119887
0.119814
0.119776
0.119772
0.119801
0.119862
0.119953
0.120073
0.12022
0.120393
0.12059
0.120808
0.121047
0.121303
0.121576
0.121863
0.122163
0.122474
0.122794
0.123121
0.123455
0.123793
0.124135
0.124479
0.124825
0.12517
0.125515
0.125859
0.1262
0.126539
0.126874
0.127205
0.127532
0.127855
0.128173
0.128485
0.128793
0.129095
0.129392
0.129683
0.129969
0.130249
0.130524
0.130794
0.131058
0.131316
0.131569
0.131817
0.132059
0.132297
0.132529
0.132756
0.132979
0.133196
0.133409
0.133618
0.133822
0.134021
0.134216
0.134407
0.134594
0.134777
0.134957
0.135132
0.135303
0.135471
0.135636
0.135797
0.135954
0.136109
0.13626
0.136408
0.136552
0.136694
0.136833
0.136969
0.139703
0.139118
0.138549
0.137995
0.137457
0.136934
0.136422
0.135922
0.135431
0.134946
0.134466
0.133989
0.133512
0.133034
0.132553
0.132069
0.131579
0.131082
0.13058
0.130071
0.129556
0.129035
0.128509
0.12798
0.127449
0.126918
0.126389
0.125863
0.125345
0.124835
0.124337
0.123854
0.123387
0.12294
0.122515
0.122114
0.12174
0.121395
0.12108
0.120798
0.120548
0.120333
0.120153
0.120009
0.1199
0.119828
0.11979
0.119788
0.119818
0.119881
0.119975
0.120099
0.12025
0.120427
0.120628
0.120852
0.121096
0.121358
0.121637
0.121931
0.122238
0.122555
0.122882
0.123217
0.123558
0.123903
0.124253
0.124604
0.124956
0.125308
0.12566
0.126009
0.126356
0.126701
0.127041
0.127377
0.127709
0.128035
0.128356
0.128672
0.128982
0.129286
0.129584
0.129876
0.130163
0.130443
0.130718
0.130987
0.13125
0.131508
0.13176
0.132006
0.132247
0.132483
0.132713
0.132938
0.133158
0.133374
0.133584
0.13379
0.133991
0.134187
0.134379
0.134567
0.134751
0.13493
0.135105
0.135277
0.135444
0.135608
0.135768
0.135925
0.136077
0.136227
0.136373
0.136515
0.136655
0.136791
0.136923
0.137053
0.139703
0.13912
0.138553
0.138003
0.137469
0.136949
0.136443
0.135949
0.135463
0.134984
0.13451
0.134038
0.133567
0.133094
0.132618
0.132137
0.131651
0.131158
0.130658
0.130151
0.129637
0.129116
0.12859
0.12806
0.127528
0.126995
0.126463
0.125935
0.125413
0.1249
0.124398
0.12391
0.12344
0.122988
0.122559
0.122155
0.121777
0.121428
0.12111
0.120824
0.120572
0.120355
0.120173
0.120028
0.119919
0.119846
0.11981
0.119809
0.119841
0.119907
0.120004
0.120132
0.120287
0.12047
0.120677
0.120906
0.121157
0.121427
0.121713
0.122015
0.12233
0.122656
0.122992
0.123335
0.123685
0.12404
0.124398
0.124758
0.125119
0.12548
0.125838
0.126194
0.126547
0.126895
0.127239
0.127578
0.127911
0.128239
0.128562
0.128878
0.129188
0.129493
0.129791
0.130083
0.130368
0.130648
0.130922
0.13119
0.131451
0.131707
0.131957
0.132201
0.13244
0.132673
0.132901
0.133124
0.133341
0.133554
0.133761
0.133963
0.134161
0.134354
0.134543
0.134727
0.134906
0.135082
0.135253
0.13542
0.135583
0.135742
0.135898
0.136049
0.136197
0.136342
0.136482
0.13662
0.136753
0.136884
0.137011
0.137135
0.139704
0.139122
0.138558
0.138012
0.137483
0.136969
0.136469
0.135981
0.135502
0.13503
0.134562
0.134097
0.133632
0.133166
0.132695
0.13222
0.131738
0.131248
0.130751
0.130246
0.129734
0.129214
0.128688
0.128157
0.127623
0.127087
0.126553
0.126021
0.125495
0.124978
0.124472
0.123979
0.123504
0.123048
0.122614
0.122204
0.121822
0.121469
0.121146
0.120857
0.120602
0.120382
0.120199
0.120052
0.119942
0.11987
0.119834
0.119834
0.119869
0.119938
0.120039
0.120171
0.120332
0.12052
0.120734
0.120971
0.121229
0.121507
0.121803
0.122114
0.122439
0.122775
0.123122
0.123476
0.123837
0.124202
0.12457
0.124938
0.125306
0.125672
0.126035
0.126394
0.12675
0.1271
0.127446
0.127786
0.128121
0.128449
0.128772
0.129088
0.129398
0.129702
0.129999
0.13029
0.130575
0.130853
0.131125
0.131391
0.131651
0.131905
0.132153
0.132395
0.132631
0.132861
0.133086
0.133306
0.13352
0.133729
0.133933
0.134132
0.134326
0.134516
0.1347
0.13488
0.135056
0.135227
0.135394
0.135556
0.135715
0.135869
0.13602
0.136167
0.13631
0.136449
0.136584
0.136717
0.136845
0.13697
0.137092
0.137211
0.139704
0.139125
0.138565
0.138023
0.1375
0.136993
0.1365
0.136019
0.135548
0.135084
0.134624
0.134167
0.13371
0.13325
0.132786
0.132316
0.131839
0.131355
0.130861
0.130359
0.129848
0.129328
0.128802
0.12827
0.127734
0.127196
0.126658
0.126122
0.125592
0.12507
0.124558
0.12406
0.123579
0.123117
0.122678
0.122263
0.121875
0.121517
0.12119
0.120897
0.120638
0.120415
0.120229
0.120081
0.11997
0.119898
0.119863
0.119865
0.119902
0.119975
0.12008
0.120217
0.120383
0.120578
0.120799
0.121044
0.121311
0.121599
0.121905
0.122227
0.122563
0.122912
0.12327
0.123636
0.124007
0.12438
0.124755
0.125128
0.1255
0.12587
0.126235
0.126597
0.126954
0.127306
0.127653
0.127994
0.128329
0.128658
0.12898
0.129296
0.129605
0.129908
0.130205
0.130494
0.130778
0.131054
0.131325
0.131589
0.131846
0.132098
0.132343
0.132582
0.132816
0.133043
0.133265
0.133482
0.133693
0.133898
0.134098
0.134294
0.134484
0.134669
0.13485
0.135026
0.135197
0.135364
0.135526
0.135684
0.135838
0.135988
0.136134
0.136276
0.136414
0.136548
0.136679
0.136806
0.136929
0.137049
0.137166
0.13728
0.139705
0.139129
0.138573
0.138037
0.137521
0.137021
0.136536
0.136064
0.135602
0.135147
0.134696
0.134248
0.133799
0.133347
0.13289
0.132427
0.131956
0.131477
0.130987
0.130488
0.129978
0.12946
0.128934
0.1284
0.127862
0.127321
0.126779
0.126239
0.125703
0.125175
0.124657
0.124153
0.123666
0.123197
0.122751
0.12233
0.121937
0.121573
0.121241
0.120943
0.12068
0.120454
0.120265
0.120115
0.120003
0.119931
0.119897
0.1199
0.11994
0.120016
0.120125
0.120268
0.120441
0.120642
0.120871
0.121126
0.121403
0.121701
0.122018
0.122353
0.122702
0.123062
0.123432
0.123806
0.124184
0.124563
0.124942
0.125319
0.125694
0.126066
0.126434
0.126798
0.127156
0.127509
0.127856
0.128198
0.128533
0.128861
0.129183
0.129498
0.129807
0.130109
0.130404
0.130692
0.130974
0.131249
0.131517
0.131779
0.132034
0.132283
0.132526
0.132763
0.132993
0.133218
0.133436
0.133649
0.133857
0.134059
0.134256
0.134447
0.134633
0.134815
0.134991
0.135163
0.13533
0.135492
0.13565
0.135804
0.135953
0.136098
0.136239
0.136377
0.13651
0.136639
0.136765
0.136887
0.137006
0.137121
0.137233
0.137342
0.139707
0.139134
0.138583
0.138054
0.137545
0.137053
0.136578
0.136115
0.135663
0.135218
0.134778
0.134339
0.1339
0.133457
0.133009
0.132553
0.132089
0.131615
0.13113
0.130634
0.130126
0.129609
0.129082
0.128548
0.128007
0.127462
0.126916
0.12637
0.125829
0.125294
0.12477
0.124259
0.123764
0.123288
0.122835
0.122407
0.122007
0.121637
0.121299
0.120996
0.120728
0.120498
0.120306
0.120154
0.120041
0.119968
0.119934
0.119939
0.119982
0.120061
0.120176
0.120324
0.120503
0.120713
0.12095
0.121214
0.121502
0.121812
0.122142
0.122489
0.12285
0.12322
0.123597
0.123978
0.124361
0.124744
0.125126
0.125507
0.125884
0.126258
0.126628
0.126993
0.127352
0.127706
0.128054
0.128395
0.12873
0.129058
0.12938
0.129694
0.130002
0.130303
0.130596
0.130883
0.131163
0.131436
0.131702
0.131962
0.132215
0.132461
0.132701
0.132935
0.133162
0.133384
0.133599
0.133809
0.134013
0.134211
0.134404
0.134592
0.134774
0.134952
0.135124
0.135292
0.135454
0.135612
0.135766
0.135915
0.13606
0.136201
0.136337
0.13647
0.136599
0.136723
0.136845
0.136962
0.137076
0.137187
0.137294
0.137398
0.139708
0.13914
0.138595
0.138073
0.137572
0.137091
0.136625
0.136173
0.135732
0.135299
0.134869
0.134442
0.134013
0.133581
0.133142
0.132695
0.132238
0.13177
0.131289
0.130797
0.130292
0.129776
0.129249
0.128713
0.128169
0.12762
0.127069
0.126517
0.125969
0.125428
0.124895
0.124376
0.123873
0.12339
0.122929
0.122493
0.122086
0.121709
0.121364
0.121055
0.120782
0.120548
0.120352
0.120197
0.120083
0.120009
0.119976
0.119982
0.120028
0.120111
0.12023
0.120383
0.12057
0.120788
0.121034
0.121308
0.121608
0.12193
0.122272
0.122631
0.123001
0.123378
0.123761
0.124147
0.124534
0.124921
0.125306
0.125689
0.126069
0.126444
0.126815
0.127181
0.127542
0.127896
0.128244
0.128586
0.12892
0.129248
0.129569
0.129883
0.130189
0.130489
0.130781
0.131066
0.131344
0.131616
0.13188
0.132137
0.132387
0.132631
0.132868
0.133099
0.133324
0.133542
0.133754
0.13396
0.134161
0.134356
0.134545
0.134729
0.134907
0.135081
0.135249
0.135412
0.135571
0.135725
0.135874
0.136019
0.13616
0.136296
0.136428
0.136556
0.13668
0.136801
0.136917
0.13703
0.13714
0.137246
0.137348
0.137448
0.13971
0.139146
0.138608
0.138095
0.137603
0.137132
0.136678
0.136238
0.135809
0.135388
0.134972
0.134556
0.134139
0.133718
0.133289
0.132851
0.132403
0.131941
0.131467
0.130978
0.130476
0.129961
0.129433
0.128895
0.128348
0.127795
0.127238
0.12668
0.126125
0.125575
0.125034
0.124506
0.123994
0.123502
0.123032
0.122588
0.122172
0.121788
0.121436
0.121121
0.120842
0.120603
0.120403
0.120245
0.120128
0.120054
0.120021
0.120029
0.120077
0.120163
0.120287
0.120447
0.12064
0.120866
0.121122
0.121407
0.121718
0.122052
0.122405
0.122773
0.12315
0.123534
0.123921
0.124311
0.124702
0.125092
0.12548
0.125865
0.126246
0.126623
0.126996
0.127363
0.127724
0.128079
0.128427
0.128768
0.129103
0.12943
0.12975
0.130063
0.130369
0.130667
0.130958
0.131242
0.131518
0.131787
0.132049
0.132304
0.132552
0.132793
0.133027
0.133255
0.133477
0.133692
0.133901
0.134104
0.134301
0.134492
0.134678
0.134858
0.135032
0.135202
0.135366
0.135526
0.13568
0.13583
0.135975
0.136116
0.136252
0.136384
0.136512
0.136636
0.136756
0.136872
0.136984
0.137093
0.137198
0.137299
0.137398
0.137493
0.139712
0.139154
0.138624
0.138119
0.137639
0.137179
0.136737
0.136311
0.135895
0.135487
0.135084
0.134682
0.134278
0.133869
0.133452
0.133024
0.132584
0.13213
0.131661
0.131177
0.130677
0.130163
0.129635
0.129095
0.128545
0.127987
0.127424
0.126858
0.126295
0.125736
0.125186
0.124648
0.124127
0.123624
0.123145
0.122691
0.122267
0.121874
0.121515
0.121192
0.120907
0.120662
0.120458
0.120297
0.120178
0.120102
0.120069
0.120078
0.120128
0.120218
0.120347
0.120512
0.120713
0.120947
0.121213
0.121508
0.12183
0.122176
0.122538
0.122913
0.123295
0.123684
0.124076
0.124469
0.124863
0.125255
0.125646
0.126033
0.126416
0.126795
0.127168
0.127536
0.127898
0.128253
0.128602
0.128943
0.129277
0.129604
0.129924
0.130236
0.13054
0.130837
0.131127
0.131409
0.131683
0.13195
0.13221
0.132463
0.132708
0.132947
0.133179
0.133404
0.133622
0.133834
0.13404
0.13424
0.134433
0.134621
0.134803
0.134979
0.13515
0.135316
0.135476
0.135632
0.135782
0.135928
0.136069
0.136206
0.136338
0.136466
0.13659
0.136709
0.136825
0.136937
0.137045
0.13715
0.13725
0.137348
0.137442
0.137533
0.139714
0.139163
0.138641
0.138147
0.137678
0.137231
0.136803
0.13639
0.135989
0.135596
0.135208
0.134821
0.134431
0.134034
0.133629
0.133212
0.13278
0.132333
0.13187
0.13139
0.130893
0.13038
0.129852
0.129311
0.128758
0.128195
0.127625
0.127052
0.12648
0.125911
0.125351
0.124802
0.12427
0.123757
0.123267
0.122803
0.122369
0.121967
0.1216
0.121269
0.120977
0.120727
0.120518
0.120352
0.12023
0.120153
0.120119
0.120129
0.120181
0.120275
0.120408
0.120579
0.120787
0.121029
0.121304
0.12161
0.121943
0.122297
0.122667
0.123048
0.123435
0.123828
0.124224
0.12462
0.125017
0.125412
0.125804
0.126193
0.126578
0.126958
0.127333
0.127702
0.128064
0.12842
0.128768
0.12911
0.129444
0.12977
0.130089
0.1304
0.130704
0.130999
0.131287
0.131568
0.13184
0.132105
0.132363
0.132613
0.132857
0.133093
0.133322
0.133544
0.13376
0.133969
0.134171
0.134368
0.134558
0.134742
0.134921
0.135094
0.135261
0.135423
0.13558
0.135731
0.135878
0.13602
0.136157
0.13629
0.136418
0.136542
0.136662
0.136777
0.136889
0.136997
0.137101
0.137201
0.137298
0.137392
0.137482
0.137569
0.139716
0.139173
0.138661
0.138178
0.137721
0.137288
0.136875
0.136477
0.136092
0.135715
0.135343
0.134971
0.134596
0.134213
0.133819
0.133411
0.132987
0.132546
0.132088
0.131611
0.131117
0.130606
0.130079
0.129537
0.128982
0.128416
0.127841
0.12726
0.126679
0.1261
0.125528
0.124968
0.124424
0.123899
0.123398
0.122923
0.122479
0.122067
0.12169
0.121351
0.121052
0.120795
0.120581
0.12041
0.120285
0.120206
0.120171
0.120182
0.120236
0.120332
0.12047
0.120646
0.120861
0.121111
0.121396
0.121711
0.122054
0.122416
0.122791
0.123177
0.123569
0.123966
0.124364
0.124764
0.125163
0.125561
0.125955
0.126346
0.126733
0.127114
0.12749
0.127859
0.128222
0.128578
0.128927
0.129268
0.129602
0.129928
0.130246
0.130557
0.130859
0.131154
0.13144
0.131719
0.13199
0.132253
0.132509
0.132757
0.132998
0.133231
0.133458
0.133677
0.13389
0.134096
0.134296
0.134489
0.134676
0.134857
0.135032
0.135201
0.135365
0.135524
0.135677
0.135825
0.135968
0.136106
0.136239
0.136368
0.136493
0.136613
0.136728
0.13684
0.136948
0.137052
0.137152
0.137249
0.137342
0.137432
0.137518
0.137601
0.139719
0.139184
0.138683
0.138212
0.137769
0.137351
0.136953
0.136572
0.136204
0.135845
0.135489
0.135134
0.134773
0.134402
0.134018
0.133617
0.1332
0.132764
0.13231
0.131837
0.131346
0.130837
0.130311
0.129769
0.129212
0.128644
0.128065
0.127479
0.126889
0.1263
0.125717
0.125145
0.124588
0.124051
0.123537
0.123051
0.122595
0.122173
0.121787
0.121439
0.121132
0.120867
0.120647
0.120472
0.120343
0.120261
0.120225
0.120236
0.120291
0.12039
0.120532
0.120714
0.120934
0.121193
0.121486
0.121811
0.122161
0.122529
0.12291
0.1233
0.123696
0.124096
0.124498
0.1249
0.125302
0.125701
0.126098
0.126491
0.126879
0.127262
0.127638
0.128009
0.128372
0.128729
0.129078
0.129419
0.129753
0.130078
0.130396
0.130705
0.131007
0.1313
0.131585
0.131862
0.132132
0.132393
0.132647
0.132893
0.133131
0.133362
0.133586
0.133803
0.134013
0.134216
0.134413
0.134603
0.134787
0.134965
0.135137
0.135303
0.135463
0.135618
0.135768
0.135912
0.136052
0.136186
0.136316
0.136441
0.136562
0.136678
0.13679
0.136898
0.137003
0.137103
0.137199
0.137292
0.137382
0.137468
0.13755
0.13763
0.139723
0.139197
0.138707
0.13825
0.137821
0.137419
0.137038
0.136675
0.136325
0.135984
0.135647
0.135306
0.134958
0.134597
0.13422
0.133827
0.133415
0.132984
0.132534
0.132064
0.131576
0.131068
0.130543
0.130002
0.129445
0.128875
0.128293
0.127703
0.127108
0.126511
0.125917
0.125332
0.124762
0.124211
0.123685
0.123186
0.122718
0.122285
0.121888
0.121531
0.121215
0.120943
0.120716
0.120536
0.120402
0.120317
0.12028
0.12029
0.120347
0.120448
0.120593
0.12078
0.121007
0.121272
0.121573
0.121906
0.122263
0.122637
0.123022
0.123416
0.123815
0.124219
0.124623
0.125029
0.125433
0.125835
0.126233
0.126628
0.127017
0.127401
0.127779
0.12815
0.128514
0.128871
0.129221
0.129562
0.129895
0.130221
0.130538
0.130846
0.131147
0.131439
0.131723
0.131998
0.132266
0.132526
0.132777
0.133021
0.133258
0.133487
0.133708
0.133922
0.13413
0.13433
0.134524
0.134711
0.134892
0.135067
0.135236
0.135398
0.135556
0.135707
0.135853
0.135994
0.13613
0.136261
0.136388
0.136509
0.136626
0.136739
0.136848
0.136952
0.137053
0.137149
0.137242
0.137332
0.137417
0.1375
0.137579
0.137655
0.139726
0.139211
0.138734
0.138291
0.137878
0.137493
0.13713
0.136786
0.136456
0.136133
0.135812
0.135485
0.135146
0.134793
0.134424
0.134036
0.13363
0.133203
0.132757
0.13229
0.131804
0.131299
0.130775
0.130234
0.129677
0.129106
0.128523
0.12793
0.12733
0.126727
0.126125
0.125528
0.124945
0.12438
0.12384
0.123328
0.122847
0.122402
0.121994
0.121627
0.121302
0.121022
0.120788
0.120601
0.120463
0.120375
0.120336
0.120345
0.120402
0.120505
0.120653
0.120844
0.121076
0.121348
0.121657
0.121998
0.12236
0.122738
0.123128
0.123525
0.123928
0.124334
0.124742
0.125149
0.125556
0.12596
0.12636
0.126756
0.127147
0.127533
0.127912
0.128284
0.128649
0.129006
0.129356
0.129697
0.13003
0.130355
0.130672
0.13098
0.131279
0.13157
0.131853
0.132127
0.132394
0.132651
0.132901
0.133143
0.133378
0.133604
0.133823
0.134035
0.13424
0.134438
0.134629
0.134813
0.134991
0.135163
0.135329
0.135489
0.135642
0.135791
0.135934
0.136072
0.136204
0.136332
0.136455
0.136573
0.136687
0.136796
0.136901
0.137002
0.137099
0.137192
0.137282
0.137367
0.13745
0.137529
0.137605
0.137677
0.139731
0.139227
0.138763
0.138335
0.13794
0.137573
0.13723
0.136906
0.136595
0.13629
0.135982
0.135666
0.135336
0.13499
0.134627
0.134244
0.133842
0.13342
0.132977
0.132513
0.132029
0.131526
0.131004
0.130464
0.129907
0.129336
0.128752
0.128157
0.127554
0.126945
0.126336
0.125731
0.125135
0.124557
0.124002
0.123476
0.122982
0.122524
0.122105
0.121727
0.121392
0.121103
0.120862
0.120669
0.120525
0.120433
0.120391
0.120399
0.120456
0.12056
0.120711
0.120906
0.121143
0.121421
0.121737
0.122083
0.122451
0.122833
0.123226
0.123627
0.124033
0.124442
0.124852
0.125262
0.125671
0.126077
0.126479
0.126877
0.12727
0.127657
0.128037
0.12841
0.128775
0.129133
0.129483
0.129825
0.130158
0.130483
0.130799
0.131106
0.131405
0.131695
0.131976
0.13225
0.132514
0.132771
0.133019
0.133259
0.133491
0.133716
0.133933
0.134142
0.134344
0.13454
0.134728
0.13491
0.135085
0.135254
0.135417
0.135573
0.135724
0.13587
0.136009
0.136144
0.136273
0.136398
0.136517
0.136632
0.136742
0.136848
0.13695
0.137048
0.137142
0.137231
0.137317
0.1374
0.137479
0.137555
0.137627
0.137696
0.139735
0.139244
0.138795
0.138384
0.138006
0.137659
0.137336
0.137033
0.136742
0.136451
0.136155
0.135847
0.135524
0.135185
0.134827
0.134449
0.134052
0.133633
0.133193
0.132732
0.132251
0.131749
0.131229
0.13069
0.130134
0.129563
0.128978
0.128381
0.127775
0.127164
0.126549
0.125936
0.125331
0.124739
0.12417
0.123629
0.123122
0.122651
0.122219
0.12183
0.121485
0.121187
0.120937
0.120737
0.120588
0.120491
0.120446
0.120452
0.120508
0.120614
0.120766
0.120964
0.121207
0.12149
0.121812
0.122163
0.122535
0.122921
0.123317
0.123721
0.12413
0.124542
0.124955
0.125368
0.125779
0.126187
0.126591
0.126991
0.127385
0.127773
0.128154
0.128528
0.128895
0.129253
0.129603
0.129945
0.130278
0.130603
0.130918
0.131225
0.131523
0.131813
0.132093
0.132365
0.132628
0.132883
0.13313
0.133368
0.133598
0.133821
0.134036
0.134243
0.134443
0.134636
0.134822
0.135001
0.135173
0.135339
0.135499
0.135653
0.135801
0.135943
0.13608
0.136212
0.136338
0.136459
0.136576
0.136687
0.136795
0.136897
0.136996
0.13709
0.137181
0.137267
0.13735
0.13743
0.137505
0.137578
0.137647
0.137713
0.13974
0.139263
0.138829
0.138436
0.138078
0.137751
0.13745
0.137168
0.136892
0.136614
0.136326
0.136026
0.13571
0.135377
0.135024
0.134651
0.134257
0.133842
0.133405
0.132947
0.132468
0.131968
0.131449
0.130911
0.130356
0.129785
0.129199
0.128602
0.127994
0.12738
0.126761
0.126142
0.125529
0.124926
0.124343
0.123787
0.123266
0.122781
0.122337
0.121936
0.12158
0.121272
0.121014
0.120806
0.120651
0.120549
0.1205
0.120504
0.120559
0.120665
0.120819
0.12102
0.121266
0.121555
0.121882
0.122237
0.122613
0.123002
0.123402
0.123809
0.12422
0.124635
0.12505
0.125465
0.125879
0.126289
0.126695
0.127096
0.127492
0.127882
0.128264
0.128639
0.129006
0.129366
0.129716
0.130058
0.130392
0.130716
0.131031
0.131338
0.131635
0.131924
0.132203
0.132474
0.132736
0.13299
0.133235
0.133471
0.1337
0.13392
0.134133
0.134338
0.134536
0.134727
0.13491
0.135087
0.135257
0.13542
0.135577
0.135729
0.135874
0.136013
0.136147
0.136275
0.136399
0.136517
0.13663
0.136739
0.136843
0.136943
0.137038
0.137129
0.137217
0.1373
0.13738
0.137456
0.137529
0.137598
0.137664
0.137727
0.139746
0.139283
0.138866
0.138492
0.138155
0.13785
0.137571
0.137306
0.137044
0.136775
0.136496
0.136203
0.135893
0.135565
0.135217
0.134848
0.134458
0.134046
0.133612
0.133156
0.13268
0.132182
0.131664
0.131128
0.130573
0.130002
0.129417
0.128818
0.128209
0.127592
0.126971
0.126347
0.125727
0.125115
0.12452
0.12395
0.123413
0.122914
0.122457
0.122044
0.121677
0.121359
0.121091
0.120876
0.120714
0.120606
0.120553
0.120554
0.120608
0.120713
0.120868
0.121071
0.121321
0.121614
0.121946
0.122305
0.122684
0.123076
0.123479
0.123889
0.124303
0.12472
0.125138
0.125556
0.125971
0.126383
0.126792
0.127195
0.127592
0.127983
0.128367
0.128743
0.129111
0.129471
0.129822
0.130165
0.130498
0.130822
0.131138
0.131444
0.131741
0.132029
0.132307
0.132577
0.132838
0.13309
0.133334
0.133569
0.133796
0.134015
0.134226
0.134429
0.134624
0.134813
0.134994
0.135168
0.135336
0.135497
0.135651
0.1358
0.135942
0.136079
0.13621
0.136335
0.136456
0.136571
0.136681
0.136787
0.136888
0.136985
0.137077
0.137166
0.13725
0.13733
0.137407
0.13748
0.13755
0.137616
0.137679
0.137739
0.139753
0.139305
0.138907
0.138552
0.138237
0.137955
0.137696
0.137446
0.137194
0.136935
0.136663
0.136376
0.136072
0.135749
0.135405
0.13504
0.134654
0.134245
0.133814
0.133361
0.132886
0.13239
0.131874
0.131339
0.130785
0.130215
0.129629
0.12903
0.12842
0.127801
0.127177
0.126549
0.125924
0.125305
0.124699
0.124115
0.123564
0.123051
0.12258
0.122154
0.121775
0.121447
0.12117
0.120946
0.120777
0.120663
0.120605
0.120602
0.120654
0.120758
0.120914
0.121119
0.121371
0.121668
0.122004
0.122366
0.122748
0.123143
0.123549
0.123961
0.124378
0.124798
0.125218
0.125638
0.126056
0.12647
0.126881
0.127286
0.127685
0.128077
0.128462
0.12884
0.129209
0.129569
0.129921
0.130264
0.130598
0.130922
0.131238
0.131544
0.13184
0.132127
0.132405
0.132674
0.132934
0.133185
0.133427
0.133661
0.133886
0.134104
0.134313
0.134514
0.134708
0.134894
0.135073
0.135245
0.13541
0.135568
0.135721
0.135866
0.136006
0.13614
0.136269
0.136392
0.136509
0.136622
0.136729
0.136832
0.13693
0.137024
0.137114
0.137199
0.13728
0.137358
0.137432
0.137502
0.137569
0.137632
0.137692
0.137749
0.13976
0.139329
0.13895
0.138617
0.138324
0.138065
0.137823
0.137585
0.137343
0.137092
0.136827
0.136546
0.136247
0.135928
0.135589
0.135228
0.134844
0.134439
0.13401
0.13356
0.133087
0.132593
0.132079
0.131544
0.130991
0.130421
0.129836
0.129237
0.128626
0.128005
0.127378
0.126748
0.126118
0.125493
0.124878
0.124283
0.123717
0.123189
0.122704
0.122265
0.121875
0.121535
0.121248
0.121015
0.120838
0.120718
0.120655
0.120649
0.120698
0.120801
0.120956
0.121162
0.121416
0.121716
0.122055
0.122421
0.122805
0.123203
0.123612
0.124027
0.124446
0.124869
0.125292
0.125714
0.126134
0.12655
0.126963
0.127369
0.12777
0.128164
0.128551
0.128929
0.1293
0.129661
0.130014
0.130357
0.130691
0.131016
0.131331
0.131637
0.131933
0.13222
0.132498
0.132766
0.133025
0.133275
0.133516
0.133748
0.133972
0.134188
0.134395
0.134595
0.134786
0.134971
0.135148
0.135317
0.13548
0.135636
0.135786
0.13593
0.136067
0.136198
0.136324
0.136444
0.136559
0.136669
0.136774
0.136874
0.136969
0.13706
0.137147
0.13723
0.137308
0.137383
0.137454
0.137521
0.137585
0.137646
0.137703
0.137757
0.139767
0.139354
0.138996
0.138686
0.138417
0.138178
0.13795
0.137723
0.137489
0.137245
0.136986
0.136711
0.136417
0.136103
0.135767
0.13541
0.13503
0.134627
0.134202
0.133753
0.133283
0.13279
0.132277
0.131744
0.131192
0.130623
0.130037
0.129438
0.128826
0.128204
0.127576
0.126942
0.126308
0.125678
0.125056
0.124451
0.123871
0.123329
0.12283
0.122377
0.121975
0.121624
0.121326
0.121084
0.120899
0.120772
0.120703
0.120692
0.120738
0.120839
0.120994
0.1212
0.121456
0.121759
0.1221
0.122469
0.122856
0.123257
0.123667
0.124085
0.124507
0.124932
0.125357
0.125782
0.126204
0.126623
0.127037
0.127446
0.127849
0.128244
0.128632
0.129012
0.129384
0.129746
0.1301
0.130444
0.130779
0.131104
0.131419
0.131725
0.132021
0.132307
0.132584
0.132852
0.13311
0.133359
0.133599
0.13383
0.134053
0.134267
0.134473
0.134671
0.134861
0.135043
0.135218
0.135386
0.135547
0.135701
0.135848
0.135989
0.136124
0.136253
0.136376
0.136494
0.136606
0.136714
0.136816
0.136913
0.137006
0.137094
0.137178
0.137258
0.137334
0.137405
0.137474
0.137538
0.137599
0.137657
0.137712
0.137763
0.139775
0.139382
0.139046
0.138759
0.138514
0.138291
0.138075
0.137857
0.137632
0.137394
0.137141
0.136871
0.136582
0.136273
0.135941
0.135587
0.13521
0.13481
0.134387
0.133941
0.133473
0.132982
0.13247
0.131938
0.131387
0.130818
0.130233
0.129633
0.129021
0.128398
0.127768
0.127132
0.126495
0.12586
0.125232
0.124618
0.124027
0.12347
0.122956
0.12249
0.122075
0.121712
0.121404
0.121152
0.120959
0.120824
0.120749
0.120733
0.120775
0.120874
0.121027
0.121233
0.12149
0.121795
0.122139
0.12251
0.122899
0.123303
0.123716
0.124136
0.124561
0.124988
0.125416
0.125843
0.126268
0.126689
0.127105
0.127516
0.12792
0.128318
0.128707
0.129089
0.129462
0.129825
0.13018
0.130525
0.13086
0.131185
0.131501
0.131807
0.132103
0.132389
0.132666
0.132933
0.13319
0.133439
0.133678
0.133908
0.134129
0.134342
0.134546
0.134743
0.134931
0.135112
0.135285
0.135451
0.135609
0.135761
0.135907
0.136045
0.136178
0.136305
0.136426
0.136541
0.136651
0.136755
0.136855
0.13695
0.13704
0.137125
0.137207
0.137284
0.137357
0.137426
0.137491
0.137553
0.137612
0.137667
0.137719
0.137767
0.139784
0.139412
0.139099
0.138837
0.138612
0.138403
0.138198
0.137989
0.13777
0.137539
0.137292
0.137027
0.136743
0.136437
0.13611
0.135759
0.135385
0.134988
0.134568
0.134124
0.133657
0.133168
0.132658
0.132127
0.131576
0.131008
0.130423
0.129823
0.12921
0.128587
0.127955
0.127317
0.126677
0.126038
0.125405
0.124783
0.124182
0.123611
0.123083
0.122603
0.122175
0.1218
0.121481
0.121219
0.121017
0.120874
0.120792
0.120771
0.120809
0.120904
0.121056
0.121262
0.121519
0.121826
0.122172
0.122544
0.122936
0.123342
0.123757
0.12418
0.124607
0.125037
0.125467
0.125897
0.126324
0.126747
0.127166
0.127579
0.127985
0.128385
0.128776
0.129159
0.129533
0.129898
0.130253
0.130599
0.130935
0.131261
0.131577
0.131884
0.13218
0.132466
0.132742
0.133009
0.133266
0.133513
0.133752
0.133981
0.134201
0.134413
0.134616
0.134811
0.134997
0.135176
0.135348
0.135512
0.135669
0.135819
0.135962
0.136099
0.136229
0.136353
0.136472
0.136585
0.136692
0.136794
0.136892
0.136984
0.137071
0.137154
0.137233
0.137307
0.137378
0.137444
0.137507
0.137566
0.137622
0.137675
0.137724
0.13777
0.139793
0.139443
0.139155
0.138918
0.13871
0.138513
0.138317
0.138116
0.137905
0.13768
0.137438
0.137179
0.136899
0.136597
0.136273
0.135926
0.135555
0.135161
0.134742
0.134301
0.133836
0.133348
0.132839
0.132309
0.13176
0.131192
0.130607
0.130007
0.129394
0.12877
0.128137
0.127497
0.126854
0.126212
0.125574
0.124946
0.124336
0.123753
0.12321
0.122716
0.122275
0.121888
0.121557
0.121285
0.121073
0.120922
0.120833
0.120806
0.120839
0.120931
0.12108
0.121285
0.121543
0.12185
0.122198
0.122572
0.122966