/*--------------------------------*- C++ -*----------------------------------*\
  =========                 |
  \\      /  F ield         | OpenFOAM: The Open Source CFD Toolbox
   \\    /   O peration     | Website:  https://openfoam.org
    \\  /    A nd           | Version:  9
     \\/     M anipulation  |
\*---------------------------------------------------------------------------*/
FoamFile
{
    format      ascii;
    class       volScalarField;
    location    "0.0025";
    object      alphat;
}
// * * * * * * * * * * * * * * * * * * * * * * * * * * * * * * * * * * * * * //

dimensions      [1 -1 -1 0 0 0 0];

internalField   nonuniform List<scalar> 
6127
(
1.89964e-07
2.88609e-07
5.56425e-07
7.10326e-07
9.48266e-07
1.72234e-06
6.01839e-07
7.15997e-07
1.22527e-06
1.354e-06
8.92536e-07
1.34583e-06
2.87382e-06
1.66089e-06
1.75051e-06
4.79803e-06
2.76352e-06
2.19384e-06
6.42369e-06
3.78195e-06
2.57225e-06
6.99831e-06
4.20224e-06
2.52214e-06
6.0509e-06
3.65382e-06
2.00887e-06
4.24088e-06
2.55234e-06
1.37106e-06
2.38575e-06
1.45859e-06
8.56112e-07
1.08722e-06
7.64321e-07
5.65627e-07
5.30073e-07
6.36292e-07
5.18868e-07
6.25958e-07
8.447e-07
9.08955e-07
1.89354e-07
2.70605e-07
5.63968e-07
0.0164047
0.0164566
0.0164091
0.0163596
0.016344
0.0162983
0.0162992
0.016284
0.0162665
0.0162255
0.0161596
0.016112
0.0160639
0.0164637
0.0164552
0.0164117
0.0163644
0.0163332
0.0162876
0.0162772
0.0162412
0.016235
0.0161933
0.0161466
0.0160923
0.0160372
0.0159855
0.015938
0.0158923
0.0158467
0.0158001
0.0157516
0.0157004
0.0156458
0.0155875
0.0155248
0.0154572
0.0153842
0.0153055
0.0152207
0.0151296
0.0150319
0.0149278
0.0148175
0.0147018
0.0145817
0.0144586
0.0143346
0.0142117
0.0140924
0.0139794
0.0138748
0.0137808
0.0136988
0.0136301
0.0135754
0.0135351
0.0135089
0.0134963
0.0134964
0.0135075
0.0135282
0.0135573
0.0135937
0.013636
0.0136834
0.0137348
0.0137896
0.0138473
0.0139075
0.0139699
0.0140343
0.0141007
0.0164634
0.0164601
0.0164179
0.0163685
0.0163368
0.0162866
0.0162782
0.0162395
0.0162365
0.0161907
0.0161424
0.016085
0.0160273
0.015974
0.0159256
0.0158785
0.0158311
0.015782
0.0157303
0.0156752
0.015616
0.015552
0.0154826
0.0154071
0.0153248
0.0152352
0.0151377
0.0150319
0.0149175
0.0147945
0.0146632
0.0145245
0.0143799
0.0142316
0.0140827
0.0139367
0.0137976
0.0136698
0.0135572
0.0134626
0.0133883
0.013336
0.0133062
0.0132987
0.0133122
0.0133446
0.0133936
0.0134563
0.0135303
0.0136132
0.0137029
0.0137971
0.0138942
0.0139929
0.014092
0.0141907
0.0142886
0.0143852
0.0144803
0.0145738
0.0164639
0.0164643
0.0164234
0.0163733
0.0163399
0.0162893
0.0162837
0.0162422
0.0162384
0.0161892
0.0161398
0.01608
0.016022
0.0159696
0.015921
0.0158729
0.0158238
0.0157724
0.0157177
0.0156589
0.0155952
0.0155256
0.0154495
0.0153659
0.0152741
0.0151731
0.0150622
0.0149407
0.0148082
0.0146643
0.0145096
0.0143451
0.0141732
0.0139969
0.013821
0.013651
0.0134935
0.0133555
0.0132417
0.0131572
0.0131052
0.0130874
0.0131034
0.0131506
0.0132253
0.013323
0.013439
0.0135684
0.013707
0.0138505
0.0139957
0.0141398
0.0142807
0.0144171
0.0145478
0.0146726
0.0147911
0.0149033
0.0150094
0.0151097
0.0164664
0.0164683
0.016428
0.0163763
0.0163426
0.0162917
0.0162855
0.0162452
0.0162402
0.0161879
0.0161377
0.0160757
0.0160181
0.0159668
0.0159178
0.0158687
0.015818
0.0157644
0.0157068
0.0156445
0.0155762
0.0155013
0.0154185
0.0153269
0.0152254
0.0151129
0.0149883
0.0148506
0.0146988
0.0145327
0.0143527
0.0141604
0.0139586
0.0137522
0.0135479
0.0133545
0.0131821
0.0130404
0.0129373
0.0128795
0.0128725
0.0129138
0.0130006
0.0131265
0.013284
0.0134646
0.0136599
0.0138624
0.0140659
0.0142652
0.0144566
0.0146374
0.0148061
0.0149617
0.0151041
0.0152336
0.0153508
0.0154564
0.0155514
0.015637
0.0164658
0.0164749
0.0164321
0.0163793
0.0163452
0.0162942
0.0162872
0.0162484
0.016242
0.016187
0.0161361
0.0160725
0.0160166
0.0159656
0.015916
0.0158659
0.0158137
0.015758
0.0156978
0.015632
0.0155595
0.0154793
0.0153901
0.0152907
0.0151796
0.0150556
0.014917
0.0147624
0.0145906
0.0144011
0.0141943
0.013972
0.0137384
0.0135
0.0132667
0.0130514
0.0128697
0.0127343
0.0126575
0.0126507
0.0127121
0.0128386
0.0130204
0.0132451
0.0134983
0.0137667
0.0140382
0.0143035
0.0145554
0.0147892
0.0150019
0.0151923
0.0153601
0.0155061
0.0156315
0.0157379
0.0158272
0.0159013
0.015962
0.0160113
0.0164639
0.0164781
0.016435
0.0163816
0.0163476
0.0162963
0.0162885
0.0162518
0.0162437
0.0161865
0.016135
0.016071
0.0160165
0.0159654
0.0159153
0.0158643
0.0158107
0.0157531
0.0156905
0.0156215
0.015545
0.0154598
0.0153644
0.0152573
0.015137
0.0150015
0.0148489
0.0146773
0.014485
0.0142711
0.0140362
0.0137826
0.0135155
0.0132436
0.0129809
0.0127462
0.0125616
0.012446
0.0124166
0.0124825
0.0126397
0.0128753
0.01317
0.0135015
0.0138485
0.0141928
0.0145206
0.0148223
0.0150921
0.0153272
0.0155274
0.0156936
0.0158283
0.0159343
0.0160148
0.0160731
0.0161119
0.0161344
0.0161436
0.0161424
0.0164611
0.01648
0.0164366
0.0163856
0.0163497
0.0162975
0.0162898
0.0162552
0.0162453
0.0161866
0.0161342
0.0160713
0.0160172
0.0159659
0.0159155
0.0158637
0.0158089
0.0157496
0.0156847
0.0156128
0.0155326
0.0154427
0.0153414
0.0152271
0.0150978
0.0149512
0.0147848
0.0145961
0.014383
0.0141445
0.0138807
0.0135946
0.0132926
0.0129862
0.0126941
0.0124438
0.0122636
0.0121823
0.0122224
0.0123872
0.0126633
0.0130243
0.0134369
0.0138684
0.014291
0.0146846
0.0150358
0.0153377
0.0155881
0.0157882
0.0159411
0.0160516
0.0161248
0.0161657
0.0161797
0.0161725
0.0161483
0.0161111
0.016064
0.0160095
0.0164578
0.0164809
0.0164373
0.0163865
0.0163517
0.0162981
0.0162909
0.0162587
0.0162467
0.0161873
0.0161339
0.0160722
0.0160184
0.0159672
0.0159164
0.015864
0.0158081
0.0157474
0.0156804
0.0156058
0.0155222
0.0154279
0.0153212
0.0152001
0.0150622
0.0149049
0.014725
0.0145195
0.0142859
0.0140225
0.0137296
0.0134104
0.0130727
0.0127307
0.012409
0.0121455
0.0119789
0.0119492
0.0120802
0.0123667
0.0127788
0.0132703
0.0137923
0.0143029
0.0147713
0.0151785
0.0155152
0.0157798
0.0159753
0.016108
0.0161855
0.0162161
0.0162089
0.0161721
0.0161125
0.016036
0.0159476
0.0158523
0.0157538
0.015655
0.0164541
0.0164811
0.0164371
0.0163862
0.0163557
0.0162981
0.0162921
0.0162621
0.0162481
0.0161888
0.0161339
0.0160736
0.0160201
0.0159689
0.015918
0.015865
0.0158083
0.0157462
0.0156774
0.0156004
0.0155137
0.0154155
0.0153038
0.0151763
0.0150303
0.0148628
0.0146699
0.0144482
0.0141944
0.0139065
0.0135846
0.0132322
0.0128582
0.01248
0.0121285
0.0118543
0.0117095
0.0117479
0.0119905
0.0124167
0.0129722
0.0135877
0.0141994
0.0147595
0.0152384
0.0156223
0.0159086
0.016103
0.0162153
0.0162569
0.0162413
0.0161815
0.0160884
0.0159718
0.0158408
0.0157026
0.0155628
0.0154256
0.015295
0.0151731
0.0164503
0.0164808
0.0164365
0.0163851
0.0163569
0.0163003
0.0162936
0.0162654
0.0162494
0.0161909
0.0161343
0.0160754
0.0160221
0.015971
0.01592
0.0158666
0.0158091
0.0157459
0.0156755
0.0155965
0.015507
0.0154052
0.0152889
0.0151555
0.0150022
0.014825
0.0146199
0.0143826
0.0141093
0.0137976
0.0134472
0.0130619
0.0126516
0.0122367
0.0118551
0.0115721
0.0114573
0.0115776
0.0119487
0.0125259
0.0132234
0.0139474
0.0146224
0.0151996
0.0156547
0.0159822
0.0161888
0.0162883
0.0162983
0.0162373
0.0161232
0.0159721
0.0157989
0.015615
0.01543
0.0152516
0.0150841
0.0149254
0.014774
0.0146293
0.0164464
0.0164801
0.0164355
0.0163834
0.0163571
0.0162997
0.0162954
0.0162685
0.0162506
0.0161932
0.0161351
0.0160774
0.0160244
0.0159734
0.0159223
0.0158686
0.0158106
0.0157464
0.0156747
0.0155938
0.0155019
0.0153969
0.0152764
0.0151378
0.0149775
0.0147915
0.0145748
0.0143228
0.014031
0.0136964
0.0133183
0.0129008
0.0124547
0.0120034
0.0115909
0.0112996
0.0112207
0.0114341
0.0119461
0.0126789
0.0135099
0.0143221
0.0150326
0.0155963
0.015998
0.0162431
0.0163486
0.0163384
0.0162378
0.0160717
0.0158637
0.0156334
0.0153976
0.0151697
0.0149535
0.0147458
0.0145445
0.0143488
0.0141584
0.0139737
0.0164426
0.016479
0.0164342
0.0163813
0.0163568
0.016299
0.016297
0.0162716
0.0162517
0.0161956
0.0161363
0.0160795
0.0160267
0.015976
0.015925
0.0158711
0.0158125
0.0157476
0.0156748
0.0155923
0.0154982
0.0153904
0.0152663
0.0151228
0.0149563
0.0147621
0.0145348
0.014269
0.0139598
0.0136033
0.0131989
0.0127502
0.0122692
0.011782
0.0113374
0.0110363
0.010997
0.0113112
0.0119719
0.0128595
0.0138113
0.0146902
0.0154107
0.0159353
0.0162608
0.0164049
0.0163966
0.0162698
0.0160584
0.0157947
0.0155066
0.0152175
0.0149427
0.0146766
0.014416
0.0141596
0.0139073
0.01366
0.0134189
0.0131857
0.0164388
0.0164778
0.0164328
0.016379
0.016356
0.0162988
0.0162983
0.0162744
0.0162526
0.016198
0.0161379
0.0160817
0.0160292
0.0159786
0.0159278
0.0158737
0.0158148
0.0157493
0.0156755
0.0155917
0.0154958
0.0153856
0.0152582
0.0151104
0.0149383
0.0147366
0.0144996
0.0142211
0.0138956
0.0135187
0.0130893
0.0126108
0.012096
0.0115743
0.0110961
0.0107814
0.0107832
0.0112011
0.0120141
0.0130521
0.0141113
0.0150373
0.0157467
0.0162127
0.0164461
0.0164774
0.0163487
0.0161055
0.0157909
0.015444
0.0150985
0.0147654
0.014438
0.0141132
0.0137903
0.0134709
0.0131573
0.0128523
0.0125588
0.0122793
0.0164352
0.0164765
0.0164313
0.0163766
0.016355
0.0162998
0.0162994
0.0162771
0.0162535
0.0162004
0.0161396
0.0160839
0.0160316
0.0159814
0.0159306
0.0158766
0.0158174
0.0157513
0.0156768
0.0155919
0.0154945
0.0153821
0.0152519
0.0151004
0.0149232
0.0147148
0.0144689
0.0141788
0.0138383
0.0134424
0.0129895
0.0124827
0.0119357
0.0113805
0.0108683
0.0105402
0.0105715
0.0110959
0.0120619
0.0132443
0.014398
0.0153553
0.0160377
0.0164316
0.0165624
0.016475
0.0162253
0.0158711
0.0154649
0.0150543
0.0146551
0.0142584
0.0138607
0.0134626
0.0130674
0.0126798
0.0123051
0.0119479
0.0116124
0.0113015
0.0164317
0.016475
0.0164298
0.0163744
0.0163537
0.0163014
0.0163004
0.0162796
0.0162544
0.0162026
0.0161414
0.016086
0.016034
0.0159841
0.0159335
0.0158795
0.0158201
0.0157537
0.0156786
0.0155928
0.0154941
0.0153799
0.0152471
0.0150924
0.0149107
0.0146963
0.0144424
0.0141419
0.0137876
0.0133742
0.0128994
0.0123661
0.0117886
0.0112011
0.0106544
0.0103068
0.010364
0.0109907
0.0121064
0.0134263
0.014664
0.0156411
0.0162862
0.0165997
0.0166216
0.0164146
0.0160478
0.0155901
0.0151074
0.0146368
0.0141656
0.0136891
0.0132086
0.0127299
0.0122611
0.0118108
0.0113867
0.0109952
0.0106403
0.0103242
0.0164284
0.0164736
0.0164283
0.0163725
0.0163525
0.0163029
0.0163013
0.0162819
0.0162551
0.0162048
0.0161431
0.0160881
0.0160363
0.0159868
0.0159364
0.0158824
0.015823
0.0157563
0.0156807
0.0155941
0.0154944
0.0153786
0.0152438
0.0150862
0.0149006
0.0146809
0.0144199
0.0141098
0.0137431
0.0133137
0.0128186
0.0122607
0.0116545
0.0110362
0.0104556
0.0100825
0.0101585
0.0108799
0.0121398
0.0135907
0.014905
0.0158949
0.0164974
0.0167275
0.0166403
0.0163146
0.0158339
0.0152814
0.0147352
0.0141869
0.0136283
0.0130604
0.0124914
0.0119335
0.0114004
0.0109043
0.0104549
0.0100581
0.00971607
0.00942779
0.0164253
0.0164721
0.0164268
0.0163707
0.0163514
0.0163041
0.0163022
0.0162841
0.0162559
0.0162068
0.0161447
0.0160901
0.0160385
0.0159894
0.0159392
0.0158854
0.0158259
0.015759
0.015683
0.0155959
0.0154952
0.0153782
0.0152416
0.0150815
0.0148925
0.0146681
0.0144008
0.0140822
0.0137043
0.0132603
0.0127467
0.0121659
0.011533
0.0108859
0.010273
0.00986878
0.00995342
0.0107598
0.0121564
0.0137328
0.0151191
0.0161191
0.0166772
0.0168239
0.016629
0.0161876
0.0156005
0.0149705
0.0143437
0.0137033
0.0130466
0.0123825
0.0117276
0.0111019
0.0105248
0.0100112
0.00957006
0.00920377
0.00890924
0.00867955
0.0164225
0.0164707
0.0164254
0.0163692
0.0163505
0.0163042
0.016303
0.0162861
0.0162565
0.0162087
0.0161461
0.016092
0.0160406
0.0159918
0.0159419
0.0158882
0.0158287
0.0157617
0.0156855
0.0155979
0.0154965
0.0153785
0.0152404
0.0150781
0.0148862
0.0146577
0.0143848
0.0140586
0.0136706
0.0132135
0.0126829
0.0120812
0.0114235
0.0107495
0.0101065
0.0096664
0.00974966
0.010628
0.0121523
0.0138495
0.015306
0.0163164
0.016833
0.0168973
0.016598
0.016044
0.0153527
0.0146471
0.0139298
0.0131889
0.0124301
0.0116724
0.0109432
0.010271
0.00967991
0.00918442
0.00878833
0.00848598
0.0082655
0.00811234
0.0164199
0.0164693
0.016424
0.0163679
0.0163497
0.0163043
0.016304
0.016288
0.0162571
0.0162105
0.0161475
0.0160937
0.0160426
0.0159942
0.0159445
0.0158909
0.0158315
0.0157645
0.015688
0.0156001
0.0154981
0.0153793
0.0152399
0.0150758
0.0148813
0.0146493
0.0143715
0.0140386
0.0136416
0.0131726
0.0126266
0.0120057
0.0113252
0.0106261
0.00995375
0.00947584
0.00954865
0.0104844
0.0121264
0.0139396
0.0154665
0.0164912
0.016972
0.0169595
0.0165602
0.0158978
0.0151071
0.0143186
0.0135022
0.0126553
0.0117949
0.0109529
0.0101688
0.00947932
0.00890957
0.00846794
0.00814706
0.00792913
0.00779236
0.00771594
0.0164176
0.016468
0.0164227
0.0163667
0.016349
0.0163044
0.0163054
0.0162897
0.0162577
0.0162121
0.0161487
0.0160954
0.0160445
0.0159964
0.015947
0.0158936
0.0158342
0.0157672
0.0156906
0.0156024
0.0155
0.0153804
0.01524
0.0150744
0.0148778
0.0146427
0.0143605
0.0140218
0.0136167
0.013137
0.0125771
0.0119386
0.0112372
0.0105148
0.00981469
0.00929797
0.00935257
0.0103309
0.0120781
0.0140024
0.0156016
0.016646
0.0170973
0.0170178
0.0165248
0.0157608
0.0148847
0.0139942
0.0130673
0.0121119
0.0111569
0.0102471
0.00943487
0.00876184
0.00824721
0.00788587
0.00765453
0.00752262
0.0074613
0.00745221
0.0164157
0.0164668
0.0164215
0.0163657
0.0163484
0.0163046
0.0163069
0.0162913
0.0162583
0.0162136
0.0161499
0.0160969
0.0160462
0.0159985
0.0159493
0.0158961
0.0158368
0.0157698
0.0156931
0.0156047
0.015502
0.0153818
0.0152406
0.0150737
0.0148752
0.0146375
0.0143516
0.0140076
0.0135953
0.0131061
0.0125335
0.0118791
0.0111585
0.0104148
0.00968904
0.00913334
0.0091636
0.0101688
0.0120079
0.0140383
0.0157126
0.0167841
0.0172152
0.0170761
0.016494
0.0156276
0.0146591
0.013663
0.0126221
0.0115665
0.010534
0.00958265
0.00877284
0.00814552
0.00770784
0.00743579
0.00728978
0.00723055
0.0072341
0.00726286
0.0164141
0.0164656
0.0164203
0.0163648
0.016348
0.0163047
0.0163075
0.0162927
0.0162588
0.016215
0.0161509
0.0160983
0.0160478
0.0160005
0.0159515
0.0158984
0.0158392
0.0157723
0.0156956
0.0156071
0.0155041
0.0153835
0.0152415
0.0150736
0.0148735
0.0146334
0.0143443
0.0139957
0.0135772
0.0130793
0.0124954
0.0118264
0.0110882
0.0103249
0.00957606
0.00898351
0.0089823
0.0100009
0.0119181
0.0140484
0.0158012
0.0169078
0.0173288
0.0171395
0.0164743
0.0155058
0.0144388
0.0133361
0.0122028
0.0110587
0.00995883
0.00897895
0.00818901
0.00762356
0.00726979
0.00708229
0.00700883
0.0070136
0.00704999
0.00710817
0.0164128
0.0164645
0.0164192
0.0163641
0.0163476
0.0163049
0.0163076
0.016293
0.0162593
0.0162163
0.0161519
0.0160996
0.0160493
0.0160023
0.0159535
0.0159006
0.0158415
0.0157746
0.015698
0.0156094
0.0155062
0.0153852
0.0152427
0.0150739
0.0148724
0.0146304
0.0143384
0.0139858
0.0135617
0.0130561
0.0124619
0.0117798
0.0110254
0.0102441
0.00947476
0.00884902
0.00881089
0.00983082
0.0118115
0.0140358
0.0158691
0.0170187
0.0174407
0.0172119
0.0164724
0.0154031
0.0142369
0.0130469
0.0118202
0.0105901
0.00943049
0.00843509
0.00767935
0.00718396
0.00691129
0.00679586
0.00678768
0.00682445
0.00688959
0.0069676
0.0164116
0.0164634
0.0164182
0.0163635
0.0163473
0.0163051
0.0163075
0.016293
0.0162598
0.0162175
0.0161527
0.0161008
0.0160507
0.0160039
0.0159554
0.0159026
0.0158437
0.0157769
0.0157003
0.0156116
0.0155083
0.015387
0.015244
0.0150745
0.0148719
0.0146282
0.0143338
0.0139776
0.0135486
0.0130361
0.0124327
0.0117385
0.0109694
0.0101716
0.0093841
0.00872637
0.00865375
0.00966189
0.0116917
0.0140032
0.0159177
0.0171177
0.017551
0.0172946
0.0164898
0.0153217
0.0140765
0.0127971
0.0114772
0.0101642
0.00895173
0.00795047
0.00723669
0.00681131
0.00661128
0.00655847
0.00658621
0.0066528
0.00673769
0.00682944
0.0164106
0.0164625
0.0164173
0.0163629
0.0163471
0.0163053
0.0163073
0.0162928
0.0162603
0.0162186
0.0161535
0.0161019
0.016052
0.0160055
0.0159571
0.0159045
0.0158457
0.015779
0.0157024
0.0156137
0.0155103
0.0153889
0.0152455
0.0150753
0.0148718
0.0146266
0.0143301
0.0139709
0.0135374
0.0130188
0.012407
0.011702
0.0109194
0.0101063
0.00930307
0.00861843
0.00851074
0.00949672
0.0115622
0.0139528
0.0159486
0.0172056
0.0176604
0.0173889
0.0165313
0.0152761
0.0139545
0.0125874
0.0111765
0.00978396
0.00852343
0.00752135
0.00685051
0.00648786
0.00634499
0.00634627
0.0064001
0.00648628
0.006585
0.00668672
0.0164098
0.0164616
0.0164165
0.0163625
0.0163472
0.0163054
0.016307
0.0162926
0.0162607
0.0162196
0.0161542
0.0161029
0.0160531
0.0160069
0.0159587
0.0159063
0.0158475
0.0157809
0.0157044
0.0156158
0.0155123
0.0153907
0.015247
0.0150763
0.014872
0.0146256
0.0143272
0.0139653
0.0135279
0.0130038
0.0123846
0.0116697
0.0108748
0.0100475
0.00923038
0.00852399
0.00838126
0.00933762
0.0114267
0.0138879
0.0159634
0.0172832
0.0177693
0.0174945
0.0165964
0.0152728
0.0138738
0.0124204
0.010921
0.00945142
0.00814496
0.00714249
0.00651082
0.00620285
0.00610955
0.00613738
0.00621506
0.00631665
0.00642608
0.0065357
0.0164091
0.0164608
0.0164157
0.016362
0.0163477
0.0163053
0.0163067
0.0162922
0.0162612
0.0162205
0.0161548
0.0161038
0.0160542
0.0160082
0.0159601
0.0159079
0.0158493
0.0157827
0.0157063
0.0156177
0.0155141
0.0153924
0.0152485
0.0150774
0.0148724
0.014625
0.014325
0.0139607
0.0135199
0.0129909
0.0123649
0.0116411
0.0108349
0.00999446
0.00916476
0.00843992
0.00826459
0.00918699
0.0112886
0.0138113
0.0159632
0.0173508
0.0178771
0.0176098
0.0166833
0.0153048
0.0138328
0.0122969
0.0107123
0.00916755
0.00781448
0.00680728
0.0062057
0.00593985
0.00588619
0.00593366
0.00602789
0.00614064
0.0062583
0.00637447
0.0164085
0.01646
0.0164149
0.0163617
0.0163482
0.0163051
0.0163063
0.0162918
0.0162619
0.0162214
0.0161554
0.0161047
0.0160552
0.0160094
0.0159615
0.0159093
0.0158508
0.0157844
0.0157081
0.0156195
0.0155159
0.0153941
0.01525
0.0150785
0.0148729
0.0146246
0.0143232
0.0139569
0.013513
0.0129797
0.0123476
0.0116158
0.0107992
0.00994668
0.00910543
0.00836509
0.00815946
0.0090461
0.0111508
0.0137261
0.015952
0.0174089
0.0179832
0.0177326
0.0167917
0.0153697
0.0138327
0.0122176
0.0105516
0.00893307
0.00753054
0.00651097
0.00592773
0.00568987
0.00566979
0.00573068
0.00583517
0.00595582
0.00607994
0.00620174
0.016408
0.0164593
0.0164143
0.0163614
0.0163484
0.0163049
0.0163059
0.0162914
0.0162626
0.0162222
0.0161559
0.0161054
0.016056
0.0160105
0.0159627
0.0159107
0.0158523
0.015786
0.0157097
0.0156211
0.0155176
0.0153957
0.0152515
0.0150797
0.0148736
0.0146246
0.014322
0.0139538
0.0135072
0.01297
0.0123325
0.0115934
0.0107674
0.00990362
0.00905173
0.00829847
0.00806477
0.0089157
0.0110155
0.0136345
0.0159301
0.0174572
0.0180841
0.0178598
0.0169178
0.0154626
0.0138641
0.0121806
0.0104391
0.00874843
0.00729213
0.00625047
0.00567368
0.00545345
0.00545297
0.00552286
0.00563455
0.00576086
0.00589004
0.00601668
0.0164075
0.0164587
0.0164137
0.0163611
0.0163484
0.0163046
0.0163055
0.016291
0.0162633
0.016223
0.0161564
0.0161061
0.0160568
0.0160115
0.0159638
0.0159119
0.0158536
0.0157874
0.0157112
0.0156227
0.0155192
0.0153973
0.0152529
0.0150808
0.0148743
0.0146247
0.014321
0.0139512
0.0135023
0.0129616
0.0123192
0.0115735
0.0107389
0.00986482
0.00900307
0.00823902
0.00797998
0.00879612
0.0108846
0.0135389
0.015899
0.017496
0.0181788
0.0179882
0.0170578
0.01558
0.0139264
0.0121867
0.0103755
0.00861419
0.00709851
0.00602297
0.00543932
0.00522636
0.00523339
0.00530948
0.00542582
0.00555558
0.00568832
0.00581882
0.0164071
0.0164582
0.0164131
0.0163609
0.0163482
0.0163043
0.0163051
0.0162906
0.0162639
0.0162236
0.0161568
0.0161068
0.0160576
0.0160124
0.0159649
0.0159131
0.0158549
0.0157887
0.0157126
0.0156241
0.0155206
0.0153987
0.0152542
0.015082
0.0148751
0.0146249
0.0143203
0.0139492
0.0134981
0.0129543
0.0123076
0.0115558
0.0107134
0.00982987
0.00895897
0.00818603
0.0079043
0.00868728
0.0107593
0.0134411
0.0158602
0.0175249
0.0182665
0.018116
0.0172079
0.0157169
0.0140144
0.0122262
0.0103608
0.00853098
0.00694979
0.0058272
0.00522217
0.00500513
0.00501347
0.0050912
0.00520891
0.0053405
0.00547501
0.00560798
0.0164068
0.0164578
0.0164126
0.0163607
0.0163481
0.0163039
0.0163047
0.0162901
0.0162645
0.0162242
0.0161571
0.0161073
0.0160582
0.0160132
0.0159658
0.0159141
0.015856
0.0157899
0.0157138
0.0156255
0.015522
0.0154
0.0152555
0.0150831
0.0148759
0.0146252
0.0143199
0.0139475
0.0134946
0.012948
0.0122973
0.0115402
0.0106907
0.0097984
0.008919
0.00813885
0.00783691
0.00858879
0.0106405
0.0133429
0.0158151
0.0175443
0.0183463
0.0182409
0.0173642
0.0158694
0.014123
0.0122973
0.0103885
0.00849943
0.00684679
0.00566363
0.00502246
0.00479022
0.00479316
0.00486928
0.00498466
0.00511541
0.00525034
0.00538433
0.0164065
0.0164574
0.0164121
0.0163606
0.0163479
0.0163036
0.0163043
0.0162897
0.016265
0.0162248
0.0161575
0.0161079
0.0160588
0.016014
0.0159666
0.015915
0.015857
0.015791
0.015715
0.0156267
0.0155232
0.0154013
0.0152567
0.0150841
0.0148767
0.0146256
0.0143196
0.0139461
0.0134915
0.0129425
0.0122883
0.0115263
0.0106704
0.00977005
0.00888278
0.00809686
0.00777705
0.0085001
0.0105288
0.0132455
0.0157652
0.0175549
0.0184167
0.0183607
0.0175232
0.0160337
0.0142467
0.0123962
0.0104551
0.00851715
0.00679047
0.00553382
0.00484187
0.00458406
0.00457286
0.00464501
0.00475487
0.00488202
0.00501498
0.00514862
0.0164063
0.0164572
0.0164117
0.0163605
0.0163477
0.0163032
0.016304
0.0162893
0.0162654
0.0162252
0.0161578
0.0161083
0.0160594
0.0160147
0.0159674
0.0159159
0.0158579
0.015792
0.0157161
0.0156278
0.0155244
0.0154024
0.0152578
0.0150851
0.0148775
0.014626
0.0143194
0.013945
0.0134889
0.0129377
0.0122803
0.011514
0.0106522
0.00974454
0.00884993
0.00805948
0.00772418
0.00842053
0.0104244
0.0131502
0.0157123
0.0175578
0.018479
0.0184752
0.0176806
0.016207
0.0143783
0.0125189
0.0105579
0.0085778
0.00678417
0.00544004
0.00468237
0.00438845
0.004355
0.00442047
0.00452211
0.00464255
0.00477057
0.00490096
0.016406
0.0164569
0.0164113
0.0163603
0.0163475
0.0163029
0.0163036
0.0162889
0.0162658
0.0162256
0.016158
0.0161088
0.0160599
0.0160153
0.0159681
0.0159167
0.0158588
0.0157929
0.015717
0.0156288
0.0155254
0.0154035
0.0152588
0.0150861
0.0148783
0.0146264
0.0143194
0.0139441
0.0134867
0.0129336
0.0122733
0.0115031
0.010636
0.00972158
0.00882016
0.00802623
0.00767949
0.00834929
0.0103272
0.0130577
0.0156574
0.0175552
0.0185318
0.0185868
0.0178349
0.0163847
0.0145102
0.0126622
0.010694
0.00867976
0.00682
0.00538411
0.00454634
0.00420501
0.00414263
0.00419767
0.00428976
0.0044
0.00451991
0.00464389
0.0164058
0.0164568
0.016411
0.0163602
0.0163473
0.0163026
0.0163033
0.0162885
0.0162661
0.0162258
0.0161583
0.0161092
0.0160603
0.0160158
0.0159687
0.0159174
0.0158595
0.0157938
0.0157179
0.0156298
0.0155264
0.0154045
0.0152598
0.015087
0.014879
0.0146269
0.0143194
0.0139434
0.0134848
0.0129299
0.0122672
0.0114934
0.0106215
0.00970091
0.00879314
0.00799681
0.00764087
0.00828556
0.0102373
0.0129689
0.0156019
0.0175492
0.0185837
0.0186911
0.0179841
0.0165645
0.0146444
0.0128256
0.0108585
0.00881957
0.0068994
0.00537238
0.00443719
0.00403559
0.00393915
0.00397958
0.00405881
0.00415755
0.00426634
0.00438029
0.0164057
0.0164566
0.0164107
0.0163602
0.016347
0.0163023
0.0163029
0.0162881
0.0162663
0.0162259
0.0161585
0.0161095
0.0160607
0.0160163
0.0159693
0.015918
0.0158602
0.0157945
0.0157187
0.0156306
0.0155273
0.0154054
0.0152607
0.0150878
0.0148797
0.0146273
0.0143195
0.0139428
0.0134832
0.0129268
0.0122617
0.0114847
0.0106085
0.00968231
0.00876866
0.0079707
0.00760681
0.00822866
0.0101542
0.012884
0.0155464
0.0175397
0.0186278
0.0187873
0.018127
0.0167464
0.0148157
0.0130081
0.0110449
0.00899102
0.00701944
0.00540071
0.00435854
0.00388487
0.00374886
0.00376903
0.00383228
0.00391665
0.00401219
0.00411415
0.0164055
0.0164565
0.0164104
0.0163601
0.0163468
0.0163019
0.0163026
0.0162878
0.0162664
0.0162259
0.0161587
0.0161098
0.0160611
0.0160168
0.0159698
0.0159186
0.0158609
0.0157952
0.0157195
0.0156314
0.0155281
0.0154062
0.0152615
0.0150886
0.0148804
0.0146278
0.0143196
0.0139423
0.0134818
0.012924
0.0122569
0.0114771
0.0105969
0.00966556
0.0087465
0.00794738
0.00757657
0.00817788
0.0100778
0.0128034
0.0154916
0.0175275
0.0186657
0.018875
0.0182621
0.0169262
0.0150107
0.0132011
0.0112443
0.00918653
0.0071761
0.00547025
0.00431645
0.00375642
0.0035735
0.00356745
0.00361321
0.00368103
0.00376047
0.00384697
0.0164054
0.0164565
0.0164101
0.0163601
0.0163466
0.0163016
0.0163023
0.0162874
0.0162665
0.0162259
0.0161589
0.0161101
0.0160615
0.0160172
0.0159703
0.0159191
0.0158615
0.0157958
0.0157201
0.0156321
0.0155288
0.015407
0.0152623
0.0150893
0.014881
0.0146282
0.0143197
0.013942
0.0134806
0.0129216
0.0122526
0.0114702
0.0105866
0.00965047
0.00872644
0.00792648
0.00754965
0.0081326
0.0100076
0.0127271
0.0154379
0.0175132
0.0186981
0.0189543
0.0183883
0.0170992
0.0152207
0.0133951
0.0114481
0.00939775
0.00736352
0.00558139
0.0043173
0.00365284
0.00341559
0.00337552
0.00340392
0.00345352
0.00351431
0.00358197
0.0164053
0.0164564
0.0164099
0.0163602
0.0163464
0.0163014
0.0163021
0.0162871
0.0162665
0.0162259
0.016159
0.0161104
0.0160618
0.0160176
0.0159707
0.0159196
0.015862
0.0157964
0.0157208
0.0156328
0.0155295
0.0154077
0.015263
0.01509
0.0148816
0.0146287
0.0143199
0.0139417
0.0134796
0.0129194
0.0122489
0.0114642
0.0105773
0.00963688
0.00870827
0.00790682
0.00752568
0.00809222
0.00994325
0.0126554
0.0153858
0.0174972
0.0187259
0.0190255
0.0185046
0.0172612
0.0154428
0.0135812
0.0116491
0.00961647
0.00757352
0.00572878
0.00435165
0.00357503
0.00327462
0.00319708
0.00320649
0.00323672
0.00327684
0.00332235
0.0164052
0.0164564
0.0164097
0.0163603
0.0163462
0.0163011
0.0163018
0.0162869
0.0162666
0.0162259
0.0161592
0.0161106
0.016062
0.0160179
0.0159711
0.01592
0.0158625
0.0157969
0.0157213
0.0156333
0.0155301
0.0154083
0.0152636
0.0150906
0.0148821
0.0146291
0.01432
0.0139414
0.0134787
0.0129176
0.0122455
0.0114588
0.010569
0.00962463
0.00869184
0.00788825
0.0075043
0.00805621
0.00988438
0.0125881
0.0153356
0.0174801
0.01875
0.0190901
0.0186107
0.0174107
0.0156459
0.0137492
0.0118381
0.00983517
0.00779752
0.00590685
0.00442374
0.00352724
0.00315143
0.00303416
0.00302139
0.00303273
0.003052
0.00307432
0.0164051
0.0164564
0.0164096
0.0163603
0.016346
0.0163009
0.0163016
0.0162866
0.0162666
0.0162259
0.0161593
0.0161109
0.0160623
0.0160183
0.0159715
0.0159204
0.0158629
0.0157974
0.0157218
0.0156339
0.0155307
0.0154089
0.0152642
0.0150911
0.0148826
0.0146295
0.0143202
0.0139413
0.0134779
0.0129159
0.0122426
0.011454
0.0105616
0.00961359
0.00867699
0.00787135
0.00748524
0.00802409
0.00983058
0.0125252
0.0152874
0.0174622
0.0187707
0.019149
0.0187071
0.0175471
0.0158266
0.0138962
0.0120136
0.0100445
0.00802775
0.00610847
0.00453315
0.00351675
0.00304593
0.00288773
0.00284869
0.0028409
0.00284011
0.00283921
0.0164051
0.0164564
0.0164095
0.0163603
0.0163458
0.0163006
0.0163014
0.0162863
0.0162666
0.0162258
0.0161594
0.016111
0.0160625
0.0160185
0.0159718
0.0159208
0.0158633
0.0157978
0.0157223
0.0156344
0.0155312
0.0154094
0.0152647
0.0150916
0.0148831
0.0146298
0.0143204
0.0139411
0.0134773
0.0129145
0.01224
0.0114497
0.010555
0.00960363
0.00866359
0.00785608
0.00746823
0.00799542
0.00978148
0.0124666
0.0152415
0.0174439
0.0187881
0.0192025
0.0187942
0.0176705
0.0159867
0.0140231
0.0121756
0.0102423
0.00825337
0.0063253
0.00467461
0.00353806
0.00296241
0.00275563
0.00268719
0.00265863
0.00263728
0.00261289
0.016405
0.0164564
0.0164094
0.0163603
0.0163457
0.0163004
0.0163012
0.0162861
0.0162666
0.0162258
0.0161596
0.0161112
0.0160627
0.0160188
0.0159721
0.0159211
0.0158636
0.0157982
0.0157227
0.0156348
0.0155317
0.0154099
0.0152652
0.0150921
0.0148835
0.0146302
0.0143205
0.013941
0.0134767
0.0129133
0.0122377
0.0114459
0.0105491
0.00959465
0.00865149
0.00784229
0.00745306
0.0079698
0.0097367
0.0124122
0.0151981
0.0174256
0.0188027
0.019251
0.0188725
0.017782
0.0161286
0.0141347
0.0123253
0.0104272
0.00846942
0.00654805
0.0048416
0.00359027
0.00290091
0.00263619
0.00253253
0.00247636
0.00242884
0.0023891
0.0164049
0.0164564
0.0164093
0.0163602
0.0163455
0.0163002
0.016301
0.0162859
0.0162666
0.0162258
0.0161597
0.0161114
0.0160629
0.016019
0.0159723
0.0159214
0.0158639
0.0157986
0.0157231
0.0156352
0.0155321
0.0154104
0.0152657
0.0150926
0.0148839
0.0146305
0.0143207
0.013941
0.0134763
0.0129122
0.0122357
0.0114425
0.0105439
0.00958655
0.00864058
0.00782985
0.00743955
0.00794691
0.0096959
0.0123617
0.015157
0.0174074
0.0188148
0.0192951
0.0189428
0.0178824
0.0162552
0.014247
0.012464
0.0105983
0.00867321
0.00676626
0.00502701
0.00367403
0.00286689
0.00253161
0.00239068
0.00231779
0.00225662
0.00219293
0.0164049
0.0164564
0.0164093
0.0163602
0.0163454
0.0163
0.0163008
0.0162857
0.0162666
0.0162257
0.0161597
0.0161115
0.0160631
0.0160192
0.0159726
0.0159216
0.0158642
0.0157989
0.0157234
0.0156356
0.0155325
0.0154108
0.0152661
0.015093
0.0148843
0.0146308
0.0143209
0.0139409
0.0134759
0.0129112
0.0122339
0.0114395
0.0105392
0.00957924
0.00863075
0.00781863
0.00742751
0.00792643
0.00965875
0.0123151
0.0151184
0.0173894
0.0188248
0.0193349
0.0190056
0.0179729
0.0163694
0.0143582
0.012592
0.0107556
0.00886312
0.00697604
0.00521856
0.00378612
0.00286918
0.0024438
0.00227594
0.00218365
0.00210219
0.00201089
0.0164049
0.0164564
0.0164092
0.0163601
0.0163452
0.0162998
0.0163006
0.0162855
0.0162666
0.0162257
0.0161598
0.0161117
0.0160632
0.0160194
0.0159728
0.0159219
0.0158645
0.0157992
0.0157237
0.0156359
0.0155329
0.0154111
0.0152664
0.0150933
0.0148846
0.0146311
0.0143211
0.0139409
0.0134755
0.0129104
0.0122323
0.0114369
0.010535
0.00957264
0.00862189
0.00780851
0.00741678
0.00790809
0.00962494
0.012272
0.0150822
0.017372
0.0188328
0.0193702
0.0190619
0.0180538
0.0164733
0.0144659
0.0127097
0.0108992
0.00903843
0.0071745
0.00540974
0.00391511
0.00289314
0.00238096
0.00217949
0.00206396
0.00195976
0.00183827
0.0164048
0.0164564
0.0164092
0.0163601
0.0163451
0.0162997
0.0163005
0.0162854
0.0162665
0.0162257
0.0161598
0.0161118
0.0160633
0.0160196
0.015973
0.0159221
0.0158647
0.0157994
0.015724
0.0156362
0.0155332
0.0154115
0.0152668
0.0150937
0.014885
0.0146314
0.0143212
0.013941
0.0134753
0.0129097
0.0122309