/*--------------------------------*- C++ -*----------------------------------*\
  =========                 |
  \\      /  F ield         | OpenFOAM: The Open Source CFD Toolbox
   \\    /   O peration     | Website:  https://openfoam.org
    \\  /    A nd           | Version:  9
     \\/     M anipulation  |
\*---------------------------------------------------------------------------*/
FoamFile
{
    format      ascii;
    class       volScalarField;
    location    "0.0025";
    object      alphat;
}
// * * * * * * * * * * * * * * * * * * * * * * * * * * * * * * * * * * * * * //

dimensions      [1 -1 -1 0 0 0 0];

internalField   nonuniform List<scalar> 
5373
(
0.0162991
0.0162652
0.0162652
0.0162651
0.0162651
0.0162237
0.0162237
0.0162237
0.0162236
0.0162236
0.0162236
0.0161835
0.0161835
0.0161835
0.0161835
0.0161836
0.0161836
0.0161836
0.0161836
0.0161388
0.0161388
0.0161388
0.0161388
0.0161388
0.0161388
0.0161388
0.0161389
0.0161389
0.0160928
0.0160928
0.0160928
0.0160928
0.0160928
0.0160928
0.0160929
0.0160929
0.0160929
0.0160929
0.016093
0.0160388
0.0160389
0.016039
0.016039
0.0160391
0.0160392
0.0160394
0.0160395
0.0160397
0.0160398
0.01604
0.0159744
0.0159746
0.0159749
0.0159751
0.0159754
0.0159756
0.0159759
0.0159761
0.0159764
0.0159766
0.0159769
0.0159771
0.0158981
0.0158984
0.0158988
0.0158991
0.0158995
0.0158998
0.0159001
0.0159004
0.0159008
0.0159011
0.0159014
0.0159018
0.0159021
0.0158077
0.0158082
0.0158086
0.015809
0.0158095
0.0158099
0.0158103
0.0158108
0.0158112
0.0158116
0.015812
0.0158124
0.0158128
0.0156998
0.0157004
0.0157009
0.0157015
0.0157021
0.0157026
0.0157032
0.0157037
0.0157042
0.0157048
0.0157053
0.0157058
0.0157064
0.0157069
0.0155715
0.0155723
0.015573
0.0155737
0.0155744
0.0155751
0.0155758
0.0155765
0.0155772
0.0155778
0.0155785
0.0155792
0.0155798
0.0155804
0.015417
0.0154179
0.0154188
0.0154197
0.0154206
0.0154214
0.0154223
0.0154232
0.015424
0.0154248
0.0154257
0.0154265
0.0154273
0.0154281
0.0154289
0.015232
0.0152331
0.0152343
0.0152354
0.0152364
0.0152375
0.0152386
0.0152396
0.0152406
0.0152416
0.0152426
0.0152436
0.0152446
0.0152456
0.0152465
0.0150093
0.0150106
0.0150119
0.0150132
0.0150145
0.0150157
0.015017
0.0150182
0.0150194
0.0150206
0.0150217
0.0150229
0.015024
0.0150251
0.0150262
0.0147406
0.0147421
0.0147436
0.014745
0.0147465
0.0147479
0.0147493
0.0147507
0.014752
0.0147533
0.0147546
0.0147559
0.0147572
0.0147584
0.0147596
0.0144171
0.0144188
0.0144204
0.014422
0.0144235
0.0144251
0.0144266
0.014428
0.0144295
0.0144309
0.0144322
0.0144336
0.0144349
0.0144362
0.0144374
0.014028
0.0140297
0.0140314
0.014033
0.0140346
0.0140362
0.0140377
0.0140392
0.0140406
0.014042
0.0140433
0.0140446
0.0140459
0.0140471
0.0140483
0.0140494
0.0135685
0.0135701
0.0135716
0.013573
0.0135744
0.0135758
0.013577
0.0135783
0.0135794
0.0135806
0.0135816
0.0135826
0.0135836
0.0135845
0.0135853
0.0135861
0.0130314
0.0130325
0.0130336
0.0130346
0.0130356
0.0130365
0.0130373
0.013038
0.0130386
0.0130392
0.0130396
0.01304
0.0130403
0.0130406
0.0130409
0.0130411
0.0124187
0.0124189
0.0124191
0.0124193
0.0124193
0.0124193
0.0124191
0.012419
0.0124187
0.0124184
0.0124179
0.0124172
0.0124164
0.0124156
0.0124147
0.0124137
0.0117442
0.0117433
0.0117422
0.0117411
0.0117399
0.0117386
0.0117371
0.0117355
0.0117337
0.0117317
0.0117296
0.0117273
0.0117249
0.0117224
0.0117197
0.011717
0.0110454
0.0110428
0.0110401
0.0110373
0.0110343
0.0110311
0.0110276
0.011024
0.0110203
0.0110164
0.0110123
0.0110081
0.0110038
0.0109992
0.0109945
0.0109897
0.010409
0.010405
0.0104008
0.0103965
0.010392
0.0103873
0.0103825
0.0103775
0.0103723
0.0103669
0.0103613
0.0103556
0.0103496
0.0103435
0.0103371
0.0103306
0.00999261
0.00999054
0.0099885
0.00998648
0.00998445
0.00998241
0.00998034
0.00997821
0.009976
0.00997366
0.00997116
0.00996846
0.00996551
0.00996228
0.00995876
0.00995501
0.00991834
0.00991484
0.00991089
0.00990651
0.00990171
0.00989669
0.00989154
0.00988627
0.00988088
0.00987539
0.00986981
0.00986414
0.0098584
0.00985258
0.00984658
0.00984047
0.0100295
0.0100292
0.0100291
0.0100292
0.0100296
0.0100302
0.0100308
0.0100313
0.0100316
0.0100318
0.0100318
0.0100317
0.0100314
0.010031
0.0100305
0.0100299
0.0103459
0.0103509
0.010356
0.010361
0.010366
0.0103711
0.0103761
0.010381
0.010386
0.0103909
0.0103958
0.0104007
0.0104056
0.0104105
0.0104154
0.0104204
0.0106668
0.0106765
0.0106862
0.0106959
0.0107055
0.0107152
0.0107248
0.0107345
0.0107442
0.0107539
0.0107637
0.0107735
0.0107834
0.0107934
0.0108034
0.0108136
0.0108359
0.0108491
0.0108622
0.0108752
0.0108882
0.0109011
0.0109141
0.0109271
0.0109401
0.010953
0.010966
0.0109791
0.0109921
0.0110051
0.0110182
0.0110314
0.0107525
0.0107675
0.0107823
0.010797
0.0108117
0.0108263
0.0108408
0.0108552
0.0108695
0.0108838
0.010898
0.0109121
0.0109261
0.0109401
0.0109539
0.0109677
0.010379
0.0103947
0.0104101
0.0104255
0.0104406
0.0104556
0.0104704
0.0104849
0.0104993
0.0105135
0.0105274
0.010541
0.0105543
0.0105673
0.01058
0.0105924
0.00971749
0.00973355
0.00974955
0.00976538
0.00978069
0.00979562
0.00981019
0.0098244
0.00983823
0.00985166
0.00986465
0.00987718
0.00988918
0.00990062
0.00991146
0.00992195
0.00880106
0.00881694
0.00883275
0.00884846
0.00886401
0.00887942
0.00889414
0.00890816
0.00892155
0.00893436
0.00894653
0.00895801
0.00896871
0.00897867
0.00898845
0.0089978
0.00768256
0.00769791
0.00771329
0.00772866
0.00774395
0.00775909
0.00777401
0.00778828
0.00780155
0.00781402
0.0078257
0.00783652
0.00784633
0.00785595
0.00786504
0.00787337
0.00645716
0.00647093
0.00648483
0.00649881
0.0065128
0.00652671
0.00654048
0.00655402
0.00656664
0.00657823
0.00658895
0.00659872
0.00660781
0.00661659
0.00662455
0.00663146
0.0052794
0.00529016
0.00530108
0.00531209
0.00532313
0.0053341
0.00534493
0.00535551
0.00536572
0.00537468
0.00538261
0.00538952
0.00539624
0.00540235
0.00540742
0.00541114
0.00423978
0.00424776
0.00425589
0.0042641
0.00427231
0.00428042
0.00428836
0.00429601
0.00430325
0.00430965
0.00431474
0.00431905
0.00432303
0.00432613
0.00432795
0.00432811
0.00334256
0.00334837
0.0033543
0.00336029
0.00336625
0.00337211
0.00337778
0.00338316
0.0033881
0.00339248
0.00339558
0.0033981
0.00340008
0.00340104
0.00340042
0.00339748
0.00257865
0.00258279
0.00258703
0.00259131
0.00259556
0.00259971
0.00260369
0.00260739
0.00261072
0.00261355
0.00261539
0.00261673
0.00261741
0.0026169
0.00261461
0.00261009
0.00193671
0.00193959
0.00194254
0.00194553
0.0019485
0.00195138
0.00195411
0.00195662
0.00195882
0.0019606
0.00196165
0.00196225
0.00196211
0.00196073
0.00195774
0.00195271
0.00140473
0.00140665
0.00140865
0.00141067
0.00141268
0.00141463
0.00141647
0.00141814
0.00141956
0.00142066
0.00142122
0.0014214
0.00142082
0.00141917
0.00141614
0.00141129
0.000970665
0.000971883
0.00097316
0.000974465
0.000975768
0.000977035
0.00097823
0.000979306
0.000980211
0.000980875
0.00098118
0.000981135
0.000980455
0.000978919
0.000976261
0.000972025
0.000622529
0.00062322
0.000623959
0.000624727
0.000625503
0.000626267
0.000626993
0.00062765
0.0006282
0.000628595
0.000628761
0.000628652
0.000628084
0.000626871
0.000624798
0.000621435
0.000346511
0.000346755
0.00034704
0.000347358
0.000347698
0.000348047
0.00034839
0.000348709
0.000348982
0.000349178
0.000349253
0.000349155
0.000348769
0.000347947
0.000346533
0.000344142
0.000144038
0.000142275
0.000140505
0.000138756
0.000137055
0.000135435
0.000133896
0.000132475
0.000131199
0.000130101
0.000129175
0.000128426
0.000127815
0.00012742
0.000127306
0.000126623
1.22053e-06
1.19505e-06
1.1681e-06
1.14022e-06
1.11165e-06
1.08304e-06
1.05478e-06
1.02698e-06
9.99785e-07
9.7358e-07
9.48649e-07
9.24964e-07
9.0237e-07
8.85389e-07
8.99887e-07
9.51289e-07
0.0163419
0.0163421
0.0163422
0.0163423
0.0163424
0.0163426
0.0163427
0.0163428
0.0163429
0.0163431
0.0163432
0.0163433
0.0163435
0.0163436
0.0163437
0.0163438
0.016344
0.0163441
0.0163442
0.0163444
0.0163445
0.0163446
0.0163447
0.0163449
0.016345
0.0163451
0.0163453
0.0163454
0.0163455
0.0163456
0.0163458
0.0163459
0.016346
0.0163462
0.0163463
0.0163464
0.0163466
0.0163467
0.0163468
0.016347
0.0163471
0.0163472
0.0163474
0.0163475
0.0163476
0.0163478
0.0163479
0.016348
0.0163481
0.0163504
0.0163503
0.0163501
0.0163499
0.0163498
0.0163496
0.0163494
0.0163492
0.0163491
0.0163489
0.0163487
0.0163485
0.0163483
0.016348
0.0163478
0.0163476
0.0163474
0.0163472
0.0163469
0.0163467
0.0163464
0.0163462
0.0163459
0.0163457
0.0163454
0.0163451
0.0163448
0.0163446
0.0163443
0.016344
0.0163437
0.0163434
0.0163431
0.0163428
0.0163425
0.0163421
0.0163418
0.0163415
0.0163411
0.0163408
0.0163404
0.0163401
0.0163397
0.0163393
0.016339
0.0163386
0.0163382
0.0163378
0.0163374
0.0163328
0.0163325
0.0163323
0.0163322
0.016332
0.0163318
0.0163317
0.0163315
0.0163314
0.0163312
0.0163311
0.0163309
0.0163308
0.0163306
0.0163304
0.0163303
0.0163301
0.01633
0.0163298
0.0163297
0.0163295
0.0163293
0.0163292
0.016329
0.0163289
0.0163287
0.0163286
0.0163284
0.0163282
0.0163281
0.0163279
0.0163278
0.0163276
0.0163274
0.0163273
0.0163271
0.0163269
0.0163268
0.0163266
0.0163264
0.0163263
0.0163261
0.0163259
0.0163258
0.0163256
0.0163254
0.0163253
0.0163251
0.0163249
0.0163247
0.0162991
0.016299
0.0162991
0.0162993
0.0162995
0.0162997
0.0163
0.0163002
0.0163003
0.0163003
0.0163002
0.0163001
0.0163
0.0162999
0.0162998
0.0162996
0.0162994
0.0162993
0.0162991
0.0162989
0.0162987
0.0162985
0.0162983
0.016298
0.0162978
0.0162976
0.0162974
0.0162971
0.0162969
0.0162967
0.0162964
0.0162962
0.0162959
0.0162957
0.0162954
0.0162952
0.0162949
0.0162947
0.0162944
0.0162941
0.0162939
0.0162936
0.0162933
0.0162931
0.0162928
0.0162926
0.0162923
0.016292
0.0162918
0.0162915
0.0162651
0.0162647
0.0162645
0.0162642
0.016264
0.0162637
0.0162635
0.0162633
0.0162631
0.0162629
0.0162627
0.0162626
0.0162624
0.0162623
0.0162622
0.0162622
0.0162622
0.0162624
0.0162626
0.0162629
0.0162632
0.0162634
0.0162637
0.016264
0.0162643
0.0162646
0.0162648
0.0162651
0.0162654
0.0162657
0.0162659
0.0162662
0.0162665
0.0162668
0.0162671
0.0162674
0.0162676
0.0162679
0.0162681
0.0162681
0.0162681
0.016268
0.0162679
0.0162678
0.0162677
0.0162676
0.0162674
0.0162672
0.016267
0.0162668
0.0162235
0.0162232
0.0162231
0.016223
0.0162229
0.0162231
0.0162234
0.0162238
0.0162241
0.0162245
0.0162249
0.0162252
0.0162256
0.016226
0.0162264
0.0162267
0.0162271
0.0162275
0.0162279
0.0162283
0.0162286
0.016229
0.0162294
0.0162298
0.0162299
0.0162299
0.0162299
0.0162297
0.0162296
0.0162294
0.0162292
0.0162291
0.0162289
0.0162288
0.0162288
0.0162291
0.0162295
0.0162298
0.0162302
0.0162306
0.016231
0.0162314
0.0162317
0.0162321
0.0162325
0.0162329
0.0162333
0.0162337
0.016234
0.0162344
0.0161836
0.0161839
0.0161844
0.0161848
0.0161853
0.0161858
0.0161863
0.0161868
0.0161873
0.0161877
0.0161878
0.0161882
0.0161886
0.0161891
0.0161896
0.0161901
0.0161906
0.0161911
0.0161916
0.0161921
0.0161926
0.0161931
0.0161936
0.016194
0.0161945
0.016195
0.0161956
0.0161961
0.0161962
0.0161963
0.0161962
0.016196
0.0161958
0.0161957
0.0161956
0.0161958
0.0161962
0.0161967
0.0161972
0.0161977
0.0161982
0.0161987
0.0161992
0.0161997
0.0162002
0.0162007
0.0162012
0.0162017
0.0162022
0.0162027
0.0161389
0.0161393
0.0161399
0.0161405
0.0161412
0.0161418
0.0161424
0.016143
0.0161436
0.0161439
0.0161445
0.016145
0.0161457
0.0161463
0.0161469
0.0161476
0.0161482
0.0161488
0.0161495
0.0161501
0.0161508
0.0161514
0.0161521
0.0161527
0.0161533
0.016154
0.0161546
0.0161553
0.0161559
0.0161566
0.0161572
0.0161579
0.0161586
0.0161592
0.0161599
0.0161605
0.0161612
0.0161619
0.0161625
0.0161632
0.0161639
0.0161645
0.0161652
0.0161659
0.0161665
0.0161672
0.0161679
0.0161686
0.0161692
0.0161699
0.0160931
0.0160938
0.0160945
0.0160953
0.0160961
0.0160969
0.0160977
0.0160986
0.0160994
0.0161002
0.016101
0.0161018
0.0161027
0.0161035
0.0161043
0.0161052
0.016106
0.0161068
0.0161077
0.0161085
0.0161093
0.0161102
0.016111
0.0161119
0.0161127
0.0161136
0.0161144
0.0161153
0.0161161
0.016117
0.0161178
0.0161187
0.0161196
0.0161204
0.0161213
0.0161221
0.016123
0.0161239
0.0161247
0.0161256
0.0161265
0.0161274
0.0161282
0.0161291
0.01613
0.0161308
0.0161317
0.0161326
0.0161335
0.0161344
0.0160403
0.0160412
0.0160422
0.0160432
0.0160443
0.0160453
0.0160464
0.0160474
0.0160485
0.0160496
0.0160506
0.0160517
0.0160528
0.0160538
0.0160549
0.016056
0.0160571
0.0160581
0.0160592
0.0160603
0.0160614
0.0160625
0.0160636
0.0160647
0.0160658
0.0160669
0.016068
0.0160691
0.0160702
0.0160713
0.0160725
0.0160736
0.0160747
0.0160758
0.016077
0.0160781
0.0160792
0.0160804
0.0160815
0.0160826
0.0160838
0.0160849
0.0160861
0.0160872
0.0160884
0.0160895
0.0160907
0.0160918
0.016093
0.0160941
0.0159776
0.0159787
0.01598
0.0159814
0.0159827
0.015984
0.0159854
0.0159868
0.0159881
0.0159895
0.0159909
0.0159922
0.0159936
0.015995
0.0159964
0.0159978
0.0159992
0.0160006
0.016002
0.0160034
0.0160048
0.0160062
0.0160077
0.0160091
0.0160105
0.016012
0.0160134
0.0160149
0.0160163
0.0160178
0.0160192
0.0160207
0.0160221
0.0160236
0.0160251
0.0160266
0.0160281
0.0160295
0.016031
0.0160325
0.016034
0.0160355
0.016037
0.0160385
0.0160401
0.0160416
0.0160431
0.0160446
0.0160461
0.0160477
0.0159027
0.0159042
0.0159058
0.0159075
0.0159092
0.015911
0.0159127
0.0159144
0.0159162
0.0159179
0.0159197
0.0159215
0.0159232
0.015925
0.0159268
0.0159286
0.0159304
0.0159322
0.0159341
0.0159359
0.0159377
0.0159396
0.0159414
0.0159433
0.0159451
0.015947
0.0159489
0.0159508
0.0159526
0.0159545
0.0159565
0.0159584
0.0159603
0.0159622
0.0159641
0.0159661
0.015968
0.01597
0.0159719
0.0159739
0.0159759
0.0159778
0.0159798
0.0159818
0.0159838
0.0159859
0.0159879
0.0159899
0.015992
0.015994
0.0158136
0.0158155
0.0158176
0.0158197
0.0158219
0.0158241
0.0158263
0.0158285
0.0158308
0.015833
0.0158352
0.0158375
0.0158398
0.0158421
0.0158444
0.0158467
0.015849
0.0158513
0.0158537
0.015856
0.0158584
0.0158608
0.0158632
0.0158656
0.015868
0.0158704
0.0158729
0.0158753
0.0158778
0.0158802
0.0158827
0.0158852
0.0158877
0.0158902
0.0158928
0.0158953
0.0158979
0.0159004
0.015903
0.0159056
0.0159082
0.0159109
0.0159135
0.0159162
0.0159188
0.0159215
0.0159242
0.0159269
0.0159296
0.0159323
0.0157078
0.0157102
0.0157128
0.0157155
0.0157182
0.015721
0.0157238
0.0157266
0.0157294
0.0157322
0.0157351
0.015738
0.0157409
0.0157438
0.0157467
0.0157497
0.0157526
0.0157556
0.0157586
0.0157617
0.0157647
0.0157678
0.0157708
0.0157739
0.0157771
0.0157802
0.0157834
0.0157865
0.0157897
0.0157929
0.0157962
0.0157994
0.0158027
0.015806
0.0158093
0.0158126
0.015816
0.0158194
0.0158228
0.0158263
0.0158297
0.0158332
0.0158367
0.0158402
0.0158438
0.0158473
0.0158509
0.0158545
0.0158581
0.0158616
0.0155816
0.0155845
0.0155878
0.0155911
0.0155946
0.015598
0.0156015
0.015605
0.0156085
0.0156121
0.0156157
0.0156193
0.0156229
0.0156266
0.0156303
0.0156341
0.0156379
0.0156417
0.0156455
0.0156494
0.0156532
0.0156572
0.0156611
0.0156651
0.0156691
0.0156732
0.0156772
0.0156814
0.0156855
0.0156896
0.0156938
0.0156981
0.0157024
0.0157067
0.0157111
0.0157155
0.01572
0.0157244
0.015729
0.0157335
0.0157381
0.0157427
0.0157473
0.015752
0.0157566
0.0157614
0.0157661
0.0157709
0.0157756
0.0157804
0.0154303
0.0154339
0.0154378
0.015442
0.0154461
0.0154504
0.0154547
0.015459
0.0154634
0.0154678
0.0154723
0.0154768
0.0154813
0.015486
0.0154906
0.0154953
0.0155001
0.0155049
0.0155098
0.0155147
0.0155196
0.0155246
0.0155297
0.0155348
0.0155399
0.0155451
0.0155504
0.0155557
0.015561
0.0155664
0.0155719
0.0155775
0.0155831
0.0155888
0.0155946
0.0156004
0.0156062
0.0156121
0.0156181
0.0156241
0.0156301
0.0156362
0.0156424
0.0156486
0.0156548
0.0156611
0.0156674
0.0156737
0.0156801
0.0156864
0.0152481
0.0152524
0.0152572
0.0152621
0.0152672
0.0152723
0.0152775
0.0152828
0.0152881
0.0152936
0.0152991
0.0153046
0.0153103
0.015316
0.0153218
0.0153277
0.0153337
0.0153397
0.0153458
0.015352
0.0153583
0.0153647
0.0153711
0.0153776
0.0153842
0.0153908
0.0153976
0.0154044
0.0154114
0.0154185
0.0154257
0.0154329
0.0154403
0.0154478
0.0154553
0.015463
0.0154707
0.0154785
0.0154864
0.0154944
0.0155024
0.0155105
0.0155187
0.015527
0.0155353
0.0155436
0.015552
0.0155605
0.015569
0.0155775
0.015028
0.015033
0.0150386
0.0150444
0.0150504
0.0150565
0.0150627
0.015069
0.0150754
0.0150819
0.0150886
0.0150954
0.0151023
0.0151093
0.0151165
0.0151237
0.0151311
0.0151387
0.0151463
0.0151541
0.015162
0.01517
0.0151781
0.0151864
0.0151948
0.0152033
0.015212
0.0152208
0.0152299
0.0152391
0.0152484
0.0152579
0.0152676
0.0152774
0.0152874
0.0152975
0.0153077
0.0153181
0.0153286
0.0153392
0.01535
0.0153608
0.0153717
0.0153828
0.0153939
0.0154051
0.0154164
0.0154278
0.0154393
0.0154507
0.0147616
0.0147672
0.0147735
0.0147801
0.0147869
0.0147939
0.0148011
0.0148084
0.014816
0.0148237
0.0148316
0.0148397
0.014848
0.0148565
0.0148652
0.014874
0.0148831
0.0148923
0.0149018
0.0149115
0.0149213
0.0149314
0.0149416
0.0149521
0.0149627
0.0149735
0.0149847
0.0149961
0.0150078
0.0150197
0.0150319
0.0150444
0.0150571
0.01507
0.0150832
0.0150965
0.0151102
0.015124
0.015138
0.0151522
0.0151666
0.0151811
0.0151958
0.0152107
0.0152257
0.0152408
0.015256
0.0152714
0.0152868
0.0153022
0.0144394
0.0144453
0.0144521
0.0144592
0.0144667
0.0144744
0.0144824
0.0144907
0.0144992
0.0145081
0.0145172
0.0145266
0.0145363
0.0145463
0.0145567
0.0145673
0.0145782
0.0145895
0.014601
0.0146128
0.014625
0.0146375
0.0146503
0.0146634
0.0146768
0.0146905
0.0147047
0.0147193
0.0147344
0.0147498
0.0147657
0.014782
0.0147986
0.0148157
0.0148331
0.0148509
0.014869
0.0148875
0.0149063
0.0149254
0.0149447
0.0149644
0.0149842
0.0150043
0.0150246
0.0150451
0.0150658
0.0150865
0.0151074
0.0151284
0.0140512
0.0140569
0.0140635
0.0140707
0.0140783
0.0140862
0.0140946
0.0141034
0.0141127
0.0141223
0.0141324
0.014143
0.014154
0.0141655
0.0141774
0.0141898
0.0142026
0.0142159
0.0142297
0.014244
0.0142588
0.014274
0.0142898
0.014306
0.0143227
0.01434
0.0143579
0.0143764
0.0143956
0.0144155
0.0144361
0.0144573
0.0144791
0.0145016
0.0145247
0.0145483
0.0145726
0.0145973
0.0146226
0.0146483
0.0146745
0.0147011
0.0147281
0.0147554
0.014783
0.0148109
0.014839
0.0148673
0.0148957
0.0149242
0.0135873
0.0135918
0.0135974
0.0136035
0.0136103
0.0136177
0.0136256
0.0136342
0.0136434
0.0136533
0.0136638
0.0136749
0.0136867
0.0136992
0.0137124
0.0137262
0.0137408
0.0137561
0.013772
0.0137888
0.0138062
0.0138244
0.0138434
0.0138631
0.0138836
0.0139048
0.013927
0.0139502
0.0139744
0.0139998
0.0140262
0.0140536
0.014082
0.0141115
0.014142
0.0141734
0.0142057
0.0142389
0.014273
0.0143078
0.0143433
0.0143795
0.0144162
0.0144535
0.0144912
0.0145293
0.0145677
0.0146064
0.0146452
0.0146841
0.0130412
0.013043
0.0130458
0.0130495
0.013054
0.0130593
0.0130655
0.0130726
0.0130805
0.0130893
0.0130991
0.0131097
0.0131213
0.0131338
0.0131473
0.0131619
0.0131774
0.0131939
0.0132116
0.0132303
0.0132501
0.013271
0.013293
0.0133162
0.0133406
0.0133661
0.0133929
0.0134212
0.0134511
0.0134827
0.013516
0.0135509
0.0135875
0.0136257
0.0136656
0.013707
0.01375
0.0137943
0.0138401
0.0138871
0.0139353
0.0139845
0.0140347
0.0140857
0.0141374
0.0141896
0.0142423
0.0142952
0.0143483
0.0144014
0.0124121
0.0124095
0.0124079
0.0124073
0.0124076
0.012409
0.0124114
0.0124149
0.0124197
0.0124257
0.0124328
0.0124412
0.0124508
0.0124617
0.012474
0.0124875
0.0125025
0.0125189
0.0125368
0.0125562
0.0125772
0.0125998
0.012624
0.01265
0.0126776
0.0127071
0.012738
0.0127711
0.0128067
0.0128447
0.0128854
0.0129287
0.0129746
0.0130231
0.0130743
0.013128
0.0131842
0.0132428
0.0133037
0.0133668
0.0134318
0.0134985
0.0135668
0.0136365
0.0137072
0.0137788
0.013851
0.0139236
0.0139963
0.0140689
0.011713
0.0117038
0.0116951
0.0116876
0.0116814
0.0116766
0.0116732
0.0116711
0.0116705
0.0116711
0.0116731
0.0116766
0.0116816
0.0116883
0.0116966
0.0117067
0.0117185
0.0117322
0.0117478
0.0117655
0.0117852
0.0118072
0.0118315
0.0118581
0.0118873
0.011919
0.0119527
0.0119892
0.012029
0.0120725
0.0121198
0.012171
0.0122263
0.0122856
0.0123491
0.0124167
0.0124884
0.012564
0.0126434
0.0127264
0.0128128
0.0129022
0.0129942
0.0130886
0.0131848
0.0132824
0.0133811
0.0134803
0.0135796
0.0136786
0.0109828
0.0109652
0.0109476
0.0109312
0.0109162
0.0109026
0.0108904
0.0108796
0.0108702
0.0108623
0.010856
0.0108514
0.0108484
0.0108473
0.0108479
0.0108502
0.0108546
0.0108612
0.0108703
0.0108818
0.010896
0.010913
0.010933
0.0109562
0.0109828
0.0110129
0.0110468
0.0110831
0.0111237
0.0111692
0.0112201
0.0112765
0.0113388
0.0114072
0.0114819
0.0115629
0.0116502
0.011744
0.0118439
0.0119499
0.0120614
0.0121782
0.0122997
0.0124252
0.0125541
0.0126856
0.0128189
0.0129533
0.013088
0.0132222
0.0103213
0.0102958
0.0102691
0.0102431
0.0102183
0.0101946
0.0101719
0.0101502
0.0101295
0.0101098
0.0100912
0.0100738
0.0100577
0.010043
0.0100297
0.0100182
0.0100085
0.0100009
0.00999561
0.00999309
0.00999338
0.00999658
0.0100034
0.0100142
0.0100292
0.0100489
0.0100736
0.0101029
0.0101361
0.0101754
0.0102215
0.0102752
0.0103372
0.010408
0.0104879
0.0105773
0.0106763
0.0107852
0.010904
0.0110325
0.0111705
0.0113172
0.0114721
0.0116342
0.0118025
0.0119758
0.0121528
0.0123321
0.0125123
0.0126921
0.00995017
0.00993664
0.00990536
0.00986959
0.00983658
0.00980798
0.00977877
0.00974844
0.00971717
0.00968513
0.0096525
0.00961942
0.00958608
0.00955262
0.00951925
0.00948614
0.00945351
0.00942156
0.00939052
0.00936066
0.00933246
0.00930638
0.00928295
0.00926269
0.00924596
0.00923328
0.00922532
0.009223
0.00922422
0.00923127
0.00924649
0.0092721
0.00931067
0.00936309
0.00943208
0.00951456
0.00961092
0.00972225
0.00984961
0.00999318
0.0101522
0.010326
0.0105138
0.0107143
0.0109261
0.0111472
0.0113757
0.0116094
0.011846
0.012083
0.00983194
0.00980611
0.00977485
0.00974687
0.00972037
0.00968918
0.0096535
0.00961377
0.00957035
0.00952353
0.00947353
0.00942057
0.00936492
0.00930687
0.00924681
0.00918517
0.00912249
0.00905943
0.00899673
0.00893519
0.00887395
0.00881315
0.00875344
0.00869578
0.00864181
0.00859292
0.00855019
0.00851451
0.0084867
0.00846376
0.00844802
0.00844087
0.00844377
0.00845499
0.00848084
0.0085219
0.00857898
0.00865441
0.00875671
0.00889147
0.0090528
0.00923834
0.00944848
0.00968126
0.00993413
0.0102045
0.0104891
0.0107845
0.011087
0.0113928
0.0100289
0.0100217
0.0100093
0.00999267
0.00997168
0.00994555
0.00991421
0.00987766
0.00983587
0.00978879
0.00973634
0.00967839
0.00961484
0.00954556
0.00947044
0.00938947
0.00930269
0.00921016
0.00911196
0.00900827
0.0088991
0.00878492
0.00866658
0.00854592
0.0084259
0.00830893
0.00819743
0.00809397
0.00800118
0.00792084
0.00785046
0.00778776
0.00773427
0.00769226
0.00766515
0.0076572
0.00767136
0.00770567
0.00776548
0.00785679
0.00797853
0.00813297
0.00833391
0.00857702
0.00885593
0.00916727
0.0095054
0.00986481
0.0102398
0.010624
0.0104272
0.0104422
0.0104532
0.0104593
0.01046
0.010456
0.0104467
0.0104317
0.0104108
0.0103838
0.0103506
0.0103108
0.0102638
0.0102094
0.010147
0.0100761
0.00999619
0.0099067
0.00980702
0.00969654
0.00957473
0.00944117
0.00929568
0.00913838
0.00896974
0.00879052
0.00860206
0.00840649
0.00820709
0.00800899
0.00781646
0.00763216
0.00746026
0.00730411
0.00716788
0.00705662
0.00697569
0.00692616
0.00691261
0.00693909
0.00700528
0.007118
0.00727781
0.00748328
0.00774789
0.00807499
0.00845176
0.00886822
0.00931592
0.00978463
0.0108283
0.0108656
0.0109008
0.0109321
0.0109589
0.0109812
0.0109988
0.0110114
0.0110187
0.0110199
0.0110157
0.0110055
0.0109882
0.0109635
0.010931
0.0108897
0.010839
0.0107781
0.0107059
0.0106215
0.0105237
0.0104112
0.0102827
0.0101365
0.00997137
0.00978566
0.00957814
0.00934794
0.00909496
0.00882023
0.00852641
0.00822194
0.00792181
0.00762396
0.0073333
0.00705656
0.00680128
0.00657536
0.00639778
0.0062787
0.00622415
0.00624067
0.0063252
0.00647647
0.00670128
0.0069924
0.00737294
0.00782412
0.00833478
0.00888771
0.0110513
0.0111036
0.011156
0.0112057
0.0112523
0.0112955
0.0113351
0.0113708
0.0114023
0.0114293
0.0114516
0.0114686
0.0114797
0.0114843
0.0114814
0.011471
0.0114515
0.0114223
0.0113823
0.0113304
0.0112652
0.0111852
0.0110888
0.010974
0.0108389
0.0106814
0.0104992
0.0102901
0.0100517
0.00978192
0.00947852
0.00914011
0.00876692
0.00837742
0.00797493
0.00756572
0.00715981
0.00676989
0.00641105
0.00609782
0.00584438
0.00566447
0.00558343
0.00561342
0.0057532
0.00599116
0.00633614
0.00677514
0.00732329
0.00795104
0.0109889
0.0110472
0.0111078
0.0111676
0.0112258
0.0112822
0.0113363
0.0113879
0.0114366
0.0114821
0.0115237
0.011561
0.0115933
0.0116201
0.0116404
0.0116538
0.011659
0.0116552
0.0116414
0.0116164
0.0115788
0.0115272
0.0114598
0.011375
0.0112708
0.011145
0.0109953
0.0108195
0.0106154
0.0103804
0.010112
0.00980763
0.00946454
0.00907971
0.00866126
0.00821356
0.00774147
0.00725403
0.00676456
0.00629087
0.00585497
0.005482
0.00519826
0.00502601
0.0049853
0.00510307
0.00537137
0.0057789
0.00631616
0.0069962
0.0106123
0.0106701
0.0107321
0.0107952
0.0108584
0.0109213
0.0109834
0.0110443
0.0111035
0.0111605
0.0112147
0.0112656
0.0113124
0.0113545
0.0113912
0.0114215
0.0114445
0.0114591
0.0114644
0.0114598
0.0114432
0.0114136
0.0113693
0.0113089
0.0112308
0.0111327
0.0110124
0.0108679
0.0106973
0.0104988
0.0102701
0.0100091
0.00971366
0.00938161
0.00901072
0.00860157
0.00815629
0.0076774
0.00716868
0.0066375
0.00609874
0.00557789
0.00511013
0.00473572
0.0044943
0.00441901
0.00453113
0.00485498
0.00535608
0.00604791
0.00993948
0.00999352
0.0100534
0.0101162
0.0101807
0.0102462
0.0103121
0.0103779
0.010443
0.0105069
0.010569
0.0106285
0.0106849
0.0107374
0.0107852
0.0108274
0.0108632
0.0108914
0.0109111
0.0109217
0.0109225
0.0109105
0.0108848
0.0108443
0.0107874
0.0107124
0.0106173
0.0105006
0.0103605
0.0101955
0.0100038
0.00978387
0.0095341
0.00925313
0.00893976
0.00859279
0.00820861
0.00778917
0.00733526
0.00684622
0.00632248
0.00577019
0.00520899
0.00468044
0.00424429
0.00396269
0.00388741
0.00405043
0.00447753
0.00513352
0.00901284
0.009063
0.00912023
0.00918165
0.00924592
0.00931221
0.00937984
0.00944818
0.00951663
0.0095846
0.00965147
0.0097166
0.00977929
0.00983883
0.00989444
0.00994529
0.00999045
0.010029
0.0100599
0.0100825
0.0100962
0.0100993
0.0100903
0.0100667
0.0100287
0.00997435
0.00990229
0.00981106
0.00969926
0.00956545
0.00940824
0.00922648
0.00901902
0.00878493
0.00852363
0.008235
0.00791725
0.00756616
0.0071845
0.00677094
0.00632247
0.0058346
0.00530272
0.00473576
0.00417798
0.00371128
0.00342995
0.00340873
0.00368991
0.00428355
0.00788649
0.00793506
0.00799011
0.00805015
0.00811377
0.00818001
0.00824818
0.00831763
0.00838777
0.00845801
0.00852776
0.00859641
0.00866331
0.00872778
0.00878908
0.00884642
0.00889895
0.00894578
0.00898599
0.00901885
0.00904388
0.00905966
0.00906504
0.00905836
0.00903823
0.00900332
0.00895314
0.00888629
0.00880154
0.00869764
0.00857335
0.00842796
0.00826053
0.00807038
0.00785721
0.00762135
0.00736426
0.00707863
0.00676751
0.00643025
0.00606481
0.00566817
0.00522932
0.00473312
0.0041787
0.00361122
0.00314791
0.00292063
0.00302928
0.00352153
0.00664224
0.00668825
0.00673978
0.00679673
0.0068576
0.00692146
0.00698768
0.00705569
0.00712488
0.00719473
0.0072647
0.00733424
0.00740279
0.00746972
0.00753438
0.00759603
0.00765389
0.00770716
0.00775503
0.00779685
0.00783203
0.00785944
0.007878
0.00788652
0.00788433
0.00786909
0.00784037
0.00779748
0.00773938
0.00766488
0.00757268
0.00746278
0.00733416
0.00718629
0.00701897
0.00683267
0.00662948
0.006405
0.00615944
0.00589238
0.00560271
0.00529275
0.00495312
0.00456507
0.00410965
0.00356686
0.00300342
0.00258656
0.00248996
0.00283194
0.00541529
0.00544979
0.0054909
0.00553813
0.00558983
0.00564509
0.00570322
0.00576365
0.00582586
0.00588936
0.00595371
0.00601844
0.00608307
0.00614711
0.00620999
0.00627108
0.00632968
0.00638514
0.0064368
0.00648407
0.00652633
0.00656265
0.00659213
0.0066138
0.00662688
0.00662999
0.00662213
0.00660262
0.00657035
0.00652476
0.00646472
0.00638983
0.00629936
0.00619274
0.00606974
0.0059307
0.00577697
0.00560827
0.00542213
0.00521915
0.0049997
0.00476652
0.00451538
0.00422759
0.00389468
0.00346658
0.00292558
0.00238414
0.00209249
0.00224186
0.00432528
0.00434528
0.00437263
0.00440594
0.00444371
0.00448508
0.00452938
0.0045761
0.00462479
0.00467504
0.00472651
0.00477883
0.00483167
0.00488464
0.00493737
0.00498939
0.0050402
0.00508931
0.0051363
0.00518071
0.00522206
0.00525964
0.0052928
0.00532078
0.00534284
0.00535787
0.00536521
0.00536443
0.00535422
0.00533406
0.00530287
0.00526021
0.00520541
0.0051378
0.00505697
0.00496296
0.00485656
0.00473885
0.00460745
0.00446258
0.00430513
0.00413787
0.00395972
0.00376167
0.00353992
0.00324438
0.00282494
0.00226578
0.00181747
0.00176966
0.00339104
0.00340104
0.00341793
0.00344012
0.00346631
0.00349572
0.00352775
0.00356191
0.0035978
0.00363509
0.00367348
0.00371265
0.00375234
0.00379223
0.00383201
0.00387136
0.00390985
0.00394711
0.00398291
0.00401697
0.00404898
0.0040785
0.00410519
0.00412843
0.00414796
0.0041632
0.00417379
0.00417951
0.00417972
0.00417383
0.00416107
0.00414098
0.00411286
0.00407606
0.00403008
0.00397463
0.00390993
0.00383716
0.00375466
0.00366193
0.00355972
0.00345044
0.00333463
0.00320879
0.00307228
0.00289863
0.00263581
0.0021702
0.00164015
0.0014179
0.00260213
0.00260593
0.00261569
0.00262994
0.00264759
0.00266798
0.00269058
0.00271496
0.00274079
0.00276779
0.0027957
0.00282427
0.00285326
0.00288243
0.0029115
0.00294026
0.00296829
0.00299529
0.00302114
0.00304564
0.00306858
0.00308945
0.00310801
0.00312395
0.00313703
0.00314692
0.00315342
0.00315648
0.00315586
0.00315127
0.00314246
0.00312936
0.00311187
0.00308981
0.00306289
0.00303099
0.00299416
0.00295335
0.00290754
0.00285574
0.00279836
0.00273725
0.00267361
0.00260692
0.00253844
0.00245539
0.00232828
0.00203015
0.00151619
0.00117548
0.00194444
0.00194464
0.00194975
0.00195847
0.00196998
0.0019837
0.00199922
0.00201618
0.00203429
0.00205334
0.00207313
0.00209344
0.00211408
0.00213487
0.00215558
0.00217607
0.00219597
0.00221501
0.00223318
0.0022504
0.00226624
0.00228044
0.00229284
0.00230323
0.0023114
0.00231711
0.00232022
0.0023207
0.00231839
0.00231311
0.00230463
0.00229295
0.00227812
0.00226018
0.00223914
0.0022152
0.0021888
0.00216148
0.00213313
0.00210294
0.00207152
0.00204058
0.0020119
0.00198701