/*--------------------------------*- C++ -*----------------------------------*\
  =========                 |
  \\      /  F ield         | OpenFOAM: The Open Source CFD Toolbox
   \\    /   O peration     | Website:  https://openfoam.org
    \\  /    A nd           | Version:  9
     \\/     M anipulation  |
\*---------------------------------------------------------------------------*/
FoamFile
{
    format      ascii;
    class       volScalarField;
    location    "0.0025";
    object      alphat;
}
// * * * * * * * * * * * * * * * * * * * * * * * * * * * * * * * * * * * * * //

dimensions      [1 -1 -1 0 0 0 0];

internalField   nonuniform List<scalar> 
10802
(
0.0164435
0.016458
0.0164379
0.0164244
0.0163753
0.0163324
0.0162877
0.0162531
0.0162263
0.0161873
0.0161496
0.0161085
0.016065
0.0160187
0.0159695
0.0159175
0.0158625
0.0158048
0.0157445
0.0156816
0.0156161
0.0155483
0.0154783
0.0154057
0.0153304
0.0152519
0.0151703
0.0150856
0.0149981
0.0149082
0.0148166
0.0147241
0.0146316
0.0145401
0.0144507
0.0143642
0.0142817
0.0142039
0.0141317
0.0140656
0.0140058
0.0139526
0.0139061
0.0138659
0.013832
0.0138039
0.013781
0.0137628
0.013749
0.0137388
0.0137319
0.0137278
0.013726
0.0137262
0.0137279
0.0137308
0.0137349
0.0137397
0.0137453
0.0137514
0.0137579
0.0137648
0.0137719
0.0137792
0.0137867
0.0137942
0.0138019
0.0138096
0.0138173
0.013825
0.0138327
0.0138404
0.013848
0.0138556
0.0138632
0.0138707
0.0138781
0.0138855
0.0138928
0.0139
0.01644
0.0164564
0.016441
0.0164243
0.0163785
0.0163322
0.0162872
0.0162549
0.0162253
0.0161838
0.0161453
0.0161026
0.0160572
0.0160088
0.0159572
0.0159022
0.015844
0.0157827
0.0157184
0.0156509
0.0155801
0.0155066
0.0154305
0.015351
0.0152676
0.01518
0.0150879
0.0149915
0.014891
0.0147872
0.0146809
0.0145733
0.0144657
0.0143597
0.0142567
0.0141582
0.0140655
0.0139796
0.0139017
0.0138325
0.0137724
0.0137218
0.0136807
0.0136488
0.0136256
0.0136101
0.0136016
0.0135995
0.0136023
0.0136094
0.0136201
0.0136336
0.0136491
0.013666
0.013684
0.0137027
0.0137216
0.0137405
0.0137592
0.0137776
0.0137957
0.0138134
0.0138308
0.0138478
0.0138644
0.0138806
0.0138965
0.0139121
0.0139274
0.0139424
0.0139571
0.0139717
0.013986
0.0140001
0.0140141
0.0140279
0.0140415
0.014055
0.0140684
0.0140816
0.016437
0.0164567
0.016441
0.0164243
0.0163797
0.0163314
0.0162867
0.0162545
0.0162254
0.0161811
0.0161418
0.0160971
0.0160499
0.0159994
0.0159453
0.0158877
0.0158264
0.0157618
0.0156938
0.0156225
0.0155479
0.0154698
0.0153876
0.015301
0.0152091
0.0151115
0.0150079
0.0148985
0.0147837
0.0146644
0.0145417
0.0144173
0.0142931
0.0141712
0.0140535
0.0139422
0.0138393
0.0137466
0.0136658
0.0135979
0.013544
0.0135042
0.0134776
0.0134635
0.013462
0.01347
0.0134868
0.0135111
0.0135411
0.0135758
0.0136139
0.0136544
0.013696
0.0137383
0.0137806
0.0138224
0.0138632
0.0139027
0.0139408
0.0139774
0.0140123
0.0140457
0.0140776
0.014108
0.0141371
0.014165
0.0141917
0.0142175
0.0142423
0.0142662
0.0142895
0.0143121
0.0143341
0.0143556
0.0143766
0.0143972
0.0144174
0.0144372
0.0144568
0.014476
0.0164347
0.0164572
0.0164403
0.0164245
0.0163801
0.0163307
0.0162873
0.0162544
0.0162253
0.0161784
0.0161385
0.0160919
0.016043
0.0159904
0.0159341
0.0158738
0.0158096
0.0157417
0.0156701
0.015595
0.0155164
0.015434
0.0153463
0.0152523
0.0151513
0.015043
0.0149271
0.0148037
0.0146733
0.0145371
0.0143965
0.0142536
0.0141113
0.0139725
0.0138399
0.0137168
0.0136061
0.0135108
0.0134336
0.013376
0.0133379
0.0133187
0.0133198
0.0133364
0.0133678
0.0134118
0.0134663
0.0135292
0.0135983
0.0136717
0.0137477
0.0138248
0.0139017
0.0139775
0.0140513
0.0141226
0.0141908
0.0142559
0.0143176
0.014376
0.0144311
0.014483
0.0145319
0.014578
0.0146215
0.0146626
0.0147016
0.0147386
0.0147738
0.0148075
0.0148397
0.0148707
0.0149005
0.0149293
0.0149571
0.0149842
0.0150104
0.015036
0.0150609
0.0150852
0.0164329
0.016459
0.0164395
0.0164247
0.0163798
0.01633
0.0162899
0.0162564
0.0162254
0.0161761
0.0161357
0.0160872
0.0160367
0.0159822
0.0159237
0.015861
0.0157941
0.0157233
0.0156487
0.0155708
0.015489
0.0154016
0.0153074
0.0152053
0.0150948
0.0149751
0.014846
0.0147076
0.0145605
0.014406
0.014246
0.0140834
0.0139219
0.0137656
0.0136187
0.0134857
0.0133716
0.0132808
0.0132164
0.0131791
0.013169
0.0131852
0.0132253
0.0132865
0.0133657
0.0134596
0.0135648
0.0136782
0.0137967
0.0139179
0.0140395
0.0141598
0.0142772
0.0143906
0.0144993
0.0146028
0.0147007
0.0147928
0.0148793
0.0149602
0.0150357
0.0151063
0.0151721
0.0152335
0.0152909
0.0153445
0.0153948
0.0154421
0.0154866
0.0155286
0.0155684
0.0156061
0.015642
0.0156763
0.0157092
0.0157406
0.0157708
0.0157999
0.015828
0.0158551
0.0164331
0.0164616
0.0164386
0.016425
0.0163794
0.0163293
0.0162914
0.0162585
0.0162255
0.0161741
0.0161333
0.0160828
0.016031
0.0159746
0.0159141
0.0158492
0.0157799
0.0157066
0.0156301
0.01555
0.0154642
0.0153714
0.0152703
0.0151599
0.0150394
0.0149079
0.014765
0.0146108
0.014446
0.014272
0.0140914
0.0139079
0.0137264
0.0135527
0.0133927
0.0132535
0.0131423
0.0130646
0.0130226
0.0130201
0.0130524
0.0131182
0.0132137
0.0133343
0.0134748
0.0136303
0.0137958
0.0139671
0.0141406
0.0143131
0.0144824
0.0146464
0.0148038
0.0149536
0.0150953
0.0152285
0.0153532
0.0154694
0.0155775
0.0156777
0.0157706
0.0158565
0.015936
0.0160096
0.0160776
0.0161408
0.0161993
0.0162538
0.0163045
0.0163518
0.0163961
0.0164376
0.0164766
0.0165133
0.0165479
0.0165807
0.0166118
0.0166412
0.0166692
0.0166958
0.0164316
0.0164627
0.0164376
0.0164253
0.016379
0.0163287
0.0162929
0.0162609
0.0162256
0.0161727
0.0161313
0.0160788
0.0160258
0.0159677
0.0159054
0.0158385
0.0157672
0.0156924
0.0156147
0.0155316
0.0154415
0.015343
0.015235
0.0151162
0.0149854
0.0148418
0.0146847
0.014514
0.0143304
0.0141358
0.0139334
0.0137279
0.013526
0.0133351
0.0131643
0.0130242
0.0129242
0.0128691
0.0128659
0.0129102
0.0130009
0.0131325
0.0132984
0.0134909
0.0137023
0.0139257
0.0141549
0.0143847
0.0146112
0.0148312
0.0150427
0.0152439
0.0154341
0.0156127
0.0157795
0.0159346
0.0160784
0.0162114
0.016334
0.0164469
0.0165506
0.016646
0.0167335
0.0168138
0.0168876
0.0169553
0.0170175
0.0170748
0.0171275
0.017176
0.0172208
0.0172622
0.0173005
0.0173359
0.0173687
0.0173992
0.0174275
0.0174537
0.0174781
0.0175008
0.0164296
0.0164632
0.0164365
0.0164257
0.0163784
0.0163281
0.0162938
0.0162635
0.0162258
0.016172
0.0161297
0.0160752
0.0160212
0.0159614
0.0158976
0.015829
0.0157565
0.0156812
0.0156015
0.015515
0.0154205
0.0153164
0.0152015
0.0150743
0.0149332
0.0147772
0.0146054
0.0144177
0.0142147
0.0139986
0.0137733
0.0135449
0.0133221
0.013115
0.0129369
0.0128022
0.0127223
0.012704
0.0127511
0.0128605
0.0130258
0.0132378
0.0134853
0.0137568
0.0140419
0.014332
0.0146199
0.0149004
0.0151698
0.0154257
0.0156667
0.0158921
0.0161018
0.016296
0.0164754
0.0166405
0.0167923
0.0169314
0.0170587
0.0171752
0.0172815
0.0173786
0.017467
0.0175476
0.017621
0.0176877
0.0177484
0.0178035
0.0178536
0.017899
0.0179402
0.0179775
0.0180113
0.0180417
0.0180692
0.0180939
0.0181161
0.0181359
0.0181536
0.0181692
0.0164273
0.0164633
0.0164353
0.0164262
0.0163779
0.0163276
0.0162954
0.0162662
0.0162259
0.0161721
0.0161283
0.016072
0.0160171
0.0159559
0.0158908
0.015821
0.0157482
0.0156721
0.01559
0.0155001
0.0154012
0.0152917
0.01517
0.0150343
0.014883
0.0147145
0.0145279
0.0143226
0.0140995
0.0138611
0.0136121
0.0133601
0.0131163
0.0128943
0.0127126
0.0125906
0.0125414
0.012574
0.0126887
0.0128791
0.0131335
0.013436
0.01377
0.0141202
0.0144739
0.0148211
0.015155
0.0154709
0.0157664
0.0160405
0.0162931
0.0165249
0.0167369
0.0169305
0.017107
0.0172678
0.0174141
0.0175471
0.017668
0.0177779
0.0178776
0.0179679
0.0180497
0.0181237
0.0181904
0.0182505
0.0183044
0.0183527
0.0183958
0.0184341
0.0184679
0.0184977
0.0185237
0.0185461
0.0185654
0.0185816
0.018595
0.0186058
0.0186142
0.0186203
0.0164248
0.0164631
0.016434
0.0164266
0.0163773
0.0163276
0.0162978
0.016269
0.016226
0.0161729
0.0161273
0.0160692
0.0160136
0.015951
0.015885
0.0158147
0.0157422
0.0156645
0.0155799
0.0154867
0.0153836
0.0152688
0.0151404
0.0149965
0.014835
0.0146541
0.0144524
0.0142294
0.0139858
0.0137244
0.0134509
0.0131748
0.01291
0.0126749
0.0124942
0.0123914
0.0123875
0.0124847
0.0126828
0.0129688
0.0133222
0.0137194
0.0141381
0.0145595
0.0149692
0.0153577
0.0157189
0.0160503
0.0163513
0.0166228
0.0168666
0.0170852
0.0172809
0.0174562
0.0176134
0.0177546
0.0178815
0.0179957
0.0180987
0.0181914
0.0182751
0.0183504
0.018418
0.0184786
0.0185326
0.0185805
0.0186227
0.0186597
0.0186917
0.0187193
0.0187426
0.0187619
0.0187775
0.0187895
0.0187983
0.018804
0.0188069
0.018807
0.0188046
0.0187999
0.0164221
0.0164626
0.0164326
0.0164265
0.0163767
0.0163298
0.0163004
0.0162717
0.0162262
0.016174
0.0161264
0.0160669
0.0160107
0.0159469
0.0158804
0.0158105
0.0157374
0.0156581
0.015571
0.0154747
0.0153675
0.0152476
0.0151129
0.0149609
0.0147894
0.0145961
0.0143795
0.0141386
0.0138742
0.0135895
0.013291
0.0129902
0.0127045
0.0124582
0.0122846
0.0122109
0.0122601
0.0124379
0.0127346
0.0131272
0.0135843
0.0140741
0.014569
0.0150478
0.0154962
0.0159061
0.0162738
0.0165992
0.0168844
0.0171326
0.0173478
0.0175341
0.0176955
0.0178356
0.0179577
0.0180645
0.0181583
0.0182412
0.0183146
0.0183798
0.0184377
0.0184893
0.018535
0.0185753
0.0186106
0.0186414
0.0186678
0.0186903
0.0187088
0.0187237
0.0187349
0.0187426
0.018747
0.018748
0.0187459
0.0187408
0.0187329
0.0187223
0.0187092
0.0186937
0.0164194
0.0164619
0.016431
0.0164261
0.016376
0.0163316
0.0163031
0.0162745
0.0162263
0.0161754
0.0161258
0.0160651
0.0160083
0.0159437
0.0158771
0.0158078
0.0157338
0.0156528
0.0155633
0.0154641
0.0153531
0.0152283
0.0150874
0.0149276
0.0147464
0.014541
0.0143095
0.0140508
0.0137656
0.0134572
0.0131333
0.0128076
0.0125009
0.0122447
0.0120817
0.0120463
0.0121635
0.0124354
0.0128424
0.0133474
0.0139072
0.0144816
0.0150391
0.015558
0.0160257
0.0164365
0.0167903
0.0170898
0.01734
0.0175467
0.0177161
0.017854
0.0179659
0.0180566
0.0181303
0.0181905
0.0182399
0.0182809
0.0183156
0.0183453
0.0183707
0.0183921
0.0184102
0.0184252
0.0184374
0.0184469
0.0184538
0.0184581
0.0184604
0.018461
0.0184581
0.018452
0.0184433
0.018432
0.0184181
0.0184017
0.0183829
0.0183618
0.0183385
0.018313
0.0164166
0.016461
0.0164293
0.0164254
0.0163753
0.0163316
0.0163055
0.0162772
0.0162266
0.016177
0.0161253
0.0160639
0.0160064
0.0159414
0.0158752
0.015806
0.0157309
0.0156483
0.0155568
0.0154547
0.0153401
0.0152108
0.015064
0.0148967
0.014706
0.0144887
0.0142426
0.0139663
0.0136603
0.0133283
0.0129788
0.0126279
0.0123004
0.0120358
0.0118871
0.0119001
0.0120969
0.0124751
0.0130002
0.0136188
0.0142751
0.0149219
0.0155258
0.0160664
0.0165341
0.0169272
0.017249
0.017506
0.0177058
0.017857
0.0179675
0.018045
0.0180963
0.0181273
0.0181434
0.0181487
0.0181474
0.018139
0.0181272
0.0181134
0.0180986
0.0180834
0.0180681
0.0180529
0.0180377
0.0180224
0.0180069
0.0179909
0.0179742
0.0179566
0.0179379
0.0179179
0.0178964
0.0178734
0.0178487
0.0178222
0.0177941
0.0177642
0.0177325
0.0176992
0.0164139
0.0164599
0.0164275
0.0164245
0.0163745
0.016331
0.0163079
0.0162798
0.0162269
0.0161788
0.0161251
0.0160633
0.016005
0.0159401
0.0158745
0.0158048
0.0157287
0.0156447
0.0155512
0.0154465
0.0153287
0.015195
0.0150426
0.0148682
0.0146683
0.0144396
0.0141793
0.0138856
0.0135591
0.0132035
0.0128283
0.0124521
0.0121039
0.0118327
0.0117037
0.0117697
0.0120577
0.0125521
0.0131997
0.0139289
0.0146718
0.0153766
0.0160098
0.0165543
0.0170048
0.0173642
0.0176398
0.0178415
0.01798
0.018066
0.0181094
0.0181188
0.0181027
0.0180679
0.0180197
0.0179628
0.0179008
0.0178368
0.0177726
0.0177101
0.01765
0.0175932
0.0175397
0.0174898
0.0174432
0.0173996
0.0173588
0.0173201
0.0172833
0.0172479
0.0172135
0.0171797
0.0171461
0.0171125
0.0170786
0.0170442
0.0170093
0.0169735
0.0169369
0.0168992
0.0164111
0.0164588
0.0164257
0.0164234
0.0163735
0.0163301
0.0163101
0.0162823
0.0162273
0.0161806
0.016125
0.0160633
0.0160042
0.0159397
0.0158744
0.0158042
0.0157272
0.0156418
0.0155465
0.0154395
0.0153185
0.0151808
0.0150231
0.0148419
0.0146333
0.0143936
0.0141194
0.0138089
0.0134622
0.0130833
0.0126826
0.0122811
0.0119122
0.0116351
0.0115286
0.0116561
0.0120437
0.0126609
0.0134315
0.0142648
0.0150825
0.01583
0.0164762
0.0170087
0.0174275
0.0177404
0.0179591
0.0180969
0.0181672
0.0181827
0.018155
0.0180948
0.0180105
0.0179094
0.0177976
0.0176799
0.0175602
0.0174413
0.0173255
0.0172143
0.0171088
0.0170095
0.0169167
0.0168305
0.0167505
0.0166764
0.0166079
0.0165445
0.0164855
0.0164303
0.0163784
0.016329
0.0162818
0.0162363
0.016192
0.0161489
0.0161065
0.0160648
0.0160235
0.0159827
0.0164085
0.0164576
0.0164238
0.0164222
0.0163724
0.0163291
0.0163123
0.0162838
0.0162279
0.0161825
0.0161253
0.0160637
0.0160038
0.01594
0.0158747
0.015804
0.0157262
0.0156396
0.0155427
0.0154336
0.0153097
0.0151682
0.0150056
0.014818
0.0146011
0.0143507
0.0140633
0.0137364
0.0133699
0.0129681
0.0125422
0.0121155
0.0117257
0.0114434
0.0113621
0.0115563
0.0120504
0.0127943
0.0136857
0.0146148
0.0154946
0.0162701
0.0169146
0.0174215
0.0177968
0.0180535
0.0182078
0.0182765
0.0182733
0.0182173
0.0181201
0.0179925
0.0178439
0.017682
0.0175131
0.017342
0.0171724
0.0170072
0.0168483
0.0166973
0.016555
0.0164225
0.0162986
0.016183
0.016075
0.0159743
0.0158803
0.0157925
0.0157105
0.0156339
0.0155622
0.015495
0.0154317
0.015372
0.0153154
0.0152618
0.0152107
0.0151619
0.0151153
0.0150707
0.0164062
0.0164563
0.016422
0.0164208
0.0163711
0.0163282
0.0163144
0.0162845
0.0162286
0.0161845
0.0161257
0.0160644
0.0160039
0.0159406
0.0158752
0.0158042
0.0157256
0.015638
0.0155397
0.0154285
0.0153021
0.0151571
0.0149899
0.0147962
0.0145714
0.014311
0.0140109
0.0136681
0.0132826
0.0128584
0.0124077
0.0119558
0.0115449
0.0112573
0.0112025
0.0114672
0.012073
0.0129452
0.0139532
0.0149687
0.0158982
0.0166886
0.0173188
0.0177889
0.0181112
0.0183041
0.0183882
0.018382
0.0183077
0.0181813
0.0180167
0.0178262
0.0176197
0.0174051
0.0171887
0.0169752
0.0167681
0.0165702
0.016382
0.016203
0.0160329
0.0158715
0.0157187
0.0155743
0.0154381
0.0153098
0.0151893
0.0150762
0.0149703
0.0148712
0.0147785
0.0146919
0.014611
0.0145355
0.0144651
0.0143993
0.014338
0.0142807
0.0142273
0.0141775
0.0164041
0.016455
0.0164202
0.0164194
0.0163698
0.0163275
0.0163165
0.0162848
0.0162294
0.0161864
0.0161263
0.0160654
0.0160044
0.0159415
0.0158761
0.0158047
0.0157255
0.0156369
0.0155373
0.0154244
0.0152955
0.0151473
0.0149758
0.0147765
0.0145444
0.0142744
0.0139621
0.0136042
0.0132002
0.0127544
0.0122794
0.0118027
0.0113703
0.0110746
0.0110478
0.0113857
0.0121064
0.0131067
0.0142259
0.0153184
0.0162865
0.0170806
0.0176863
0.0181108
0.0183729
0.0184968
0.0185052
0.0184256
0.0182789
0.0180835
0.0178552
0.0176071
0.0173496
0.0170908
0.0168368
0.0165927
0.0163579
0.016132
0.0159148
0.0157061
0.0155061
0.015315
0.0151327
0.0149594
0.0147951
0.0146397
0.0144932
0.0143553
0.014226
0.014105
0.013992
0.0138866
0.0137886
0.0136977
0.0136134
0.0135355
0.0134636
0.0133974
0.0133366
0.0132808
0.0164021
0.0164537
0.0164185
0.016418
0.0163686
0.016327
0.0163173
0.0162849
0.0162304
0.0161883
0.0161271
0.0160665
0.0160052
0.0159426
0.0158771
0.0158054
0.0157257
0.0156363
0.0155355
0.015421
0.01529
0.0151388
0.0149634
0.0147588
0.0145197
0.0142408
0.013917
0.0135446
0.0131229
0.0126562
0.0121576
0.0116565
0.0112025
0.0108969
0.0108969
0.0113088
0.0121459
0.0132725
0.0144971
0.0156579
0.0166551
0.0174438
0.0180169
0.0183891
0.0185859
0.0186368
0.0185698
0.0184152
0.0181965
0.0179346
0.0176468
0.0173471
0.0170466
0.0167534
0.0164699
0.0161951
0.0159286
0.0156704
0.0154208
0.0151801
0.0149487
0.0147269
0.0145149
0.0143131
0.0141215
0.0139402
0.0137692
0.0136084
0.0134576
0.0133166
0.013185
0.0130628
0.0129493
0.0128444
0.0127476
0.0126586
0.012577
0.0125023
0.0124342
0.0123723
0.0164004
0.0164524
0.0164168
0.0164165
0.0163674
0.0163267
0.0163175
0.0162848
0.0162315
0.0161902
0.016128
0.0160677
0.0160062
0.0159438
0.0158782
0.0158063
0.0157262
0.0156361
0.0155343
0.0154184
0.0152853
0.0151315
0.0149524
0.0147429
0.0144974
0.01421
0.0138753
0.0134892
0.0130506
0.0125638
0.0120423
0.0115173
0.011042
0.0107267
0.0107465
0.0112336
0.0121873
0.0134375
0.0147615
0.0159831
0.0170017
0.0177782
0.0183129
0.0186282
0.0187563
0.0187303
0.0185872
0.0183577
0.018069
0.017744
0.0174015
0.0170565
0.016721
0.0163942
0.0160754
0.0157642
0.0154611
0.0151666
0.0148814
0.0146062
0.0143417
0.0140884
0.0138467
0.013617
0.0133995
0.013194
0.0130007
0.0128194
0.0126498
0.0124916
0.0123445
0.0122081
0.012082
0.0119658
0.0118589
0.0117609
0.0116714
0.0115899
0.0115159
0.011449
0.0163989
0.0164512
0.0164151
0.016415
0.0163663
0.0163265
0.0163173
0.0162845
0.0162327
0.016192
0.016129
0.0160689
0.0160072
0.0159451
0.0158795
0.0158074
0.0157269
0.0156362
0.0155335
0.0154163
0.0152815
0.0151252
0.0149428
0.0147288
0.0144773
0.014182
0.013837
0.0134379
0.0129833
0.0124772
0.0119338
0.0113855
0.0108885
0.0105606
0.0105983
0.011159
0.0122271
0.013597
0.0150149
0.0162913
0.0173256
0.0180849
0.0185774
0.0188329
0.01889
0.0187877
0.018568
0.0182649
0.0179085
0.0175242
0.0171323
0.0167499
0.0163754
0.0160075
0.0156465
0.0152929
0.0149479
0.0146127
0.0142885
0.0139764
0.0136774
0.0133921
0.013121
0.0128645
0.0126227
0.0123956
0.0121829
0.0119843
0.0117995
0.011628
0.0114693
0.0113228
0.011188
0.0110642
0.010951
0.0108476
0.0107535
0.0106682
0.010591
0.0105215
0.0163975
0.0164499
0.0164135
0.0164136
0.0163652
0.0163265
0.016317
0.0162842
0.0162339
0.0161938
0.01613
0.0160701
0.0160084
0.0159464
0.0158808
0.0158086
0.0157277
0.0156366
0.0155331
0.0154148
0.0152784
0.0151199
0.0149344
0.0147163
0.0144592
0.0141565
0.0138019
0.0133905
0.0129206
0.0123963
0.0118318
0.0112609
0.0107422
0.0103985
0.0104525
0.0110831
0.0122619
0.0137474
0.0152543
0.0165807
0.0176269
0.0183662
0.0188145
0.0190089
0.0189921
0.0188145
0.0185191
0.0181443
0.0177237
0.0172854
0.0168519
0.0164254
0.0160042
0.0155883
0.0151788
0.0147774
0.0143861
0.0140066
0.013641
0.0132905
0.0129565
0.0126397
0.0123408
0.0120599
0.011797
0.0115519
0.0113241
0.0111131
0.0109183
0.0107388
0.0105739
0.0104229
0.0102848
0.0101589
0.0100444
0.00994059
0.00984663
0.00976185
0.00968558
0.00961718
0.0163963
0.0164487
0.016412
0.0164122
0.0163643
0.0163273
0.0163167
0.0162837
0.016235
0.0161955
0.0161309
0.0160713
0.0160095
0.0159477
0.0158822
0.0158099
0.0157288
0.0156372
0.0155331
0.0154138
0.0152759
0.0151154
0.0149271
0.0147052
0.014443
0.0141334
0.0137698
0.0133469
0.0128626
0.0123209
0.0117363
0.0111436
0.0106036
0.0102414
0.0103089
0.0110041
0.012289
0.0138857
0.0154775
0.0168508
0.0179067
0.0186248
0.0190285
0.0191622
0.0190737
0.01882
0.0184492
0.018004
0.017522
0.0170352
0.0165551
0.0160785
0.0156048
0.0151354
0.0146725
0.0142192
0.0137782
0.0133523
0.0129441
0.0125554
0.0121876
0.0118418
0.0115184
0.0112174
0.0109386
0.0106814
0.010445
0.0102284
0.0100306
0.00985036
0.00968661
0.00953817
0.0094039
0.00928271
0.00917355
0.00907543
0.00898742
0.00890866
0.00883834
0.00877572
0.0163952
0.0164475
0.0164106
0.0164108
0.0163634
0.0163284
0.0163162
0.0162832
0.0162362
0.0161971
0.0161319
0.0160724
0.0160107
0.015949
0.0158836
0.0158113
0.0157299
0.0156379
0.0155333
0.0154131
0.015274
0.0151117
0.0149209
0.0146955
0.0144285
0.0141126
0.0137405
0.0133067
0.0128089
0.0122507
0.0116471
0.0110335
0.0104728
0.0100903
0.0101674
0.010921
0.0123064
0.0140099
0.0156834
0.0171017
0.0181665
0.0188633
0.0192224
0.0192937
0.0191356
0.0188081
0.0183638
0.0178496
0.0173054
0.0167751
0.0162444
0.0157125
0.0151811
0.0146532
0.0141328
0.0136242
0.0131316
0.0126586
0.0122084
0.0117834
0.0113853
0.011015
0.0106729
0.0103587
0.0100716
0.00981056
0.00957421
0.00936099
0.00916926
0.00899731
0.00884349
0.00870617
0.00858381
0.00847497
0.00837829
0.00829256
0.00821664
0.00814951
0.00809025
0.00803801
0.0163942
0.0164464
0.0164092
0.0164094
0.0163626
0.0163292
0.0163158
0.0162826
0.0162373
0.0161987
0.0161328
0.0160736
0.0160118
0.0159504
0.0158851
0.0158127
0.0157311
0.0156389
0.0155337
0.0154128
0.0152726
0.0151086
0.0149155
0.014687
0.0144156
0.0140938
0.0137139
0.0132699
0.0127593
0.0121855
0.0115638
0.0109303
0.0103496
0.00994592
0.0100284
0.0108332
0.0123128
0.0141187
0.0158714
0.0173337
0.0184081
0.0190856
0.0194038
0.0194099
0.0191862
0.0187881
0.0182751
0.0177003
0.0171102
0.0165212
0.0159289
0.0153336
0.014738
0.0141468
0.0135655
0.0129998
0.0124551
0.0119361
0.0114468
0.01099
0.0105675
0.0101802
0.00982797
0.00951002
0.00922489
0.00897068
0.00874517
0.00854598
0.00837068
0.00821686
0.00808221
0.00796458
0.00786196
0.00777255
0.00769472
0.00762703
0.00756818
0.00751704
0.00747264
0.00743409
0.0163934
0.0164453
0.016408
0.0164081
0.0163618
0.0163293
0.0163152
0.0162819
0.0162384
0.0162001
0.0161336
0.0160746
0.0160129
0.0159517
0.0158865
0.0158141
0.0157324
0.0156399
0.0155343
0.0154128
0.0152716
0.0151061
0.014911
0.0146795
0.0144042
0.0140769
0.0136897
0.0132362
0.0127135
0.0121251
0.0114862
0.0108338
0.0102341
0.00980984
0.00989228
0.0107407
0.012308
0.0142118
0.0160413
0.0175477
0.0186329
0.0192922
0.0195684
0.0195244
0.0192324
0.0187625
0.0181792
0.0175403
0.0168985
0.0162513
0.0155964
0.0149357
0.0142742
0.0136183
0.0129756
0.0123536
0.0117591
0.0111982
0.0106754
0.0101941
0.00975613
0.00936201
0.00901099
0.00870127
0.00843029
0.00819496
0.00799188
0.00781757
0.0076686
0.00754175
0.00743401
0.00734269
0.00726541
0.00720006
0.00714483
0.00709817
0.00705873
0.00702539
0.00699718
0.00697329
0.0163926
0.0164443
0.0164068
0.0164069
0.0163611
0.016329
0.0163147
0.0162812
0.0162394
0.0162015
0.0161344
0.0160757
0.016014
0.015953
0.0158879
0.0158155
0.0157337
0.015641
0.0155351
0.015413
0.0152709
0.0151042
0.0149072
0.0146731
0.014394
0.0140617
0.0136677
0.0132054
0.0126714
0.0120691
0.011414
0.0107436
0.0101258
0.00968102
0.00975934
0.0106447
0.0122924
0.014289
0.0161936
0.0177448
0.0188434
0.0194886
0.0197296
0.0196308
0.019274
0.0187354
0.0180855
0.0173881
0.0166889
0.0159788
0.0152572
0.0145281
0.0137986
0.0130773
0.012374
0.0116981
0.0110581
0.0104613
0.0099132
0.00941737
0.00897543
0.00858709
0.00825039
0.00796201
0.00771775
0.00751284
0.00734239
0.00720161
0.00708602
0.0069916
0.0069148
0.00685256
0.00680227
0.00676176
0.00672921
0.00670312
0.00668225
0.00666561
0.00665238
0.00664186
0.0163919
0.0164433
0.0164056
0.0164057
0.0163605
0.0163287
0.0163141
0.0162805
0.0162404
0.0162028
0.0161351
0.0160767
0.016015
0.0159542
0.0158892
0.0158169
0.0157351
0.0156422
0.0155359
0.0154133
0.0152705
0.0151026
0.0149039
0.0146674
0.0143851
0.0140481
0.0136478
0.0131772
0.0126326
0.0120173
0.0113469
0.0106594
0.0100245
0.00955924
0.00963002
0.0105455
0.012266
0.0143506
0.0163287
0.0179259
0.0190405
0.0196744
0.0198821
0.0197335
0.0193153
0.0187095
0.0179944
0.0172416
0.0164803
0.0157038
0.014913
0.0141143
0.0133167
0.0125311
0.01177
0.0110452
0.0103668
0.00974305
0.00918027
0.00868208
0.00824937
0.0078804
0.00757125
0.00731636
0.00710926
0.0069432
0.00681161
0.00670847
0.00662844
0.006567
0.00652035
0.00648538
0.00645955
0.00644089
0.00642774
0.0064188
0.00641306
0.00641101
0.00641127
0.00641222
0.0163914
0.0164424
0.0164045
0.0164045
0.01636
0.0163282
0.0163135
0.0162798
0.0162413
0.016204
0.0161358
0.0160777
0.016016
0.0159554
0.0158906
0.0158183
0.0157364
0.0156434
0.0155369
0.0154139
0.0152704
0.0151015
0.0149013
0.0146626
0.0143771
0.0140359
0.0136298
0.0131514
0.0125969
0.0119694
0.0112844
0.0105809
0.00992976
0.00944453
0.00950486
0.0104438
0.0122297
0.0143972
0.0164475
0.018092
0.0192262
0.0198525
0.0200309
0.0198362
0.0193587
0.0186863
0.0179046
0.0170949
0.0162709
0.015427
0.0145652
0.0136981
0.0128365
0.0119926
0.0111803
0.0104131
0.0097036
0.00906196
0.00849527
0.00800684
0.00759604
0.0072587
0.00698789
0.00677508
0.00661113
0.00648722
0.00639536
0.00632868
0.0062815
0.00624922
0.00622829
0.00621581
0.00621071
0.00621159
0.00621436
0.00621846
0.00622379
0.00623007
0.00623683
0.00624374
0.0163908
0.0164416
0.0164035
0.0164034
0.0163595
0.0163278
0.0163129
0.016279
0.0162423
0.0162052
0.0161365
0.0160786
0.016017
0.0159566
0.0158918
0.0158196
0.0157377
0.0156446
0.0155379
0.0154145
0.0152704
0.0151006
0.014899
0.0146584
0.0143701
0.014025
0.0136135
0.0131279
0.0125641
0.011925
0.0112264
0.0105077
0.00984128
0.00933683
0.00938437
0.0103406
0.0121848
0.0144302
0.0165511
0.0182444
0.0194013
0.020025
0.020179
0.0199423
0.0194084
0.0186698
0.0178189
0.016953
0.0160659
0.0151563
0.0142326
0.0133027
0.0123792
0.011478
0.0106162
0.00981054
0.00907632
0.00842549
0.0078655
0.00739834
0.00702063
0.00672444
0.00649893
0.00633208
0.00621219
0.0061288
0.00607313
0.00603813
0.00601841
0.00601075
0.00601272
0.00601798
0.00602613
0.00603668
0.00604861
0.00606122
0.00607401
0.00608662
0.00609881
0.00611041
0.0163904
0.016441
0.0164026
0.0164024
0.016359
0.0163273
0.0163124
0.0162783
0.0162432
0.0162063
0.0161371
0.0160795
0.0160179
0.0159577
0.0158931
0.0158209
0.015739
0.0156458
0.0155389
0.0154152
0.0152706
0.0151
0.0148972
0.0146548
0.014364
0.0140152
0.0135987
0.0131065
0.0125339
0.011884
0.0111725
0.0104394
0.00975874
0.00923599
0.00926908
0.0102372
0.0121327
0.0144508
0.0166408
0.0183841
0.019567
0.0201927
0.0203274
0.0200541
0.0194685
0.0186657
0.017738
0.0168226
0.0158786
0.0149114
0.0139254
0.0129318
0.0119468
0.0109897
0.0100815
0.00924252
0.00849092
0.00784019
0.00729727
0.00686159
0.00652543
0.00627596
0.00609788
0.00597588
0.00589634
0.00584801
0.00582238
0.00581449
0.0058183
0.00582665
0.00583987
0.00585601
0.00587373
0.00589214
0.00591062
0.00592875
0.00594622
0.00596284
0.00597848
0.00599307
0.01639
0.0164404
0.0164017
0.0164014
0.0163587
0.0163267
0.0163118
0.0162776
0.016244
0.0162073
0.0161376
0.0160803
0.0160187
0.0159587
0.0158943
0.0158221
0.0157402
0.015647
0.01554
0.015416
0.015271
0.0150996
0.0148958
0.0146517
0.0143586
0.0140065
0.0135854
0.0130869
0.0125062
0.0118461
0.0111224
0.0103757
0.00968182
0.00914211
0.00915957
0.0101349
0.012075
0.0144605
0.0167177
0.018512
0.0197241
0.0203561
0.0204769
0.020173
0.019543
0.0186863
0.0177005
0.0167257
0.0157247
0.0146957
0.0136455
0.0125878
0.0115422
0.0105316
0.0095809
0.00871424
0.00795267
0.0073107
0.00679369
0.00639682
0.0061067
0.00590488
0.00577178
0.00568964
0.00564389
0.00562381
0.00562557
0.00563445
0.00565001
0.00567004
0.00569248
0.00571602
0.00573979
0.00576319
0.00578583
0.00580744
0.00582787
0.00584703
0.00586486
0.00588136
0.0163896
0.0164399
0.0164009
0.0164006
0.0163583
0.0163262
0.0163112
0.0162768
0.0162449
0.0162084
0.0161382
0.0160811
0.0160195
0.0159598
0.0158954
0.0158233
0.0157414
0.0156482
0.0155411
0.0154168
0.0152714
0.0150994
0.0148946
0.0146491
0.0143538
0.0139987
0.0135733
0.013069
0.0124808
0.011811
0.0110758
0.0103164
0.0096101
0.00905504
0.00905593
0.0100347
0.012013
0.0144605
0.0167832
0.018629
0.0198728
0.0205153
0.0206271
0.0202983
0.0196295
0.0187259
0.0176932
0.0166581
0.0155962
0.0145048
0.0133915
0.0122719
0.0111685
0.0101078
0.00911883
0.00822996
0.00746499
0.0068388
0.00635375
0.00599931
0.00575543
0.00559812
0.00550445
0.00545533
0.00543684
0.00544169
0.00545502
0.00547612
0.00550159
0.00552923
0.00555767
0.005586
0.00561363
0.00564017
0.00566541
0.00568919
0.00571147
0.0057322
0.00575142
0.00576915
0.0163893
0.0164394
0.0164001
0.0163998
0.016358
0.0163257
0.0163106
0.0162761
0.0162457
0.0162093
0.0161386
0.0160818
0.0160203
0.0159607
0.0158965
0.0158245
0.0157426
0.0156493
0.0155421
0.0154177
0.0152719
0.0150994
0.0148937
0.0146469
0.0143496
0.0139917
0.0135624
0.0130528
0.0124574
0.0117786
0.0110325
0.010261
0.00954319
0.00897481
0.00895805
0.00993727
0.0119483
0.0144535
0.0168384
0.0187357
0.0200137
0.0206702
0.0207776
0.0204287
0.0197251
0.0187758
0.0176927
0.0166039
0.0154864
0.0143374
0.0131652
0.0119876
0.0108299
0.00972264
0.00869938
0.00779272
0.00702921
0.00642324
0.00597286
0.00566061
0.00545953
0.00534084
0.00527942
0.00525662
0.00526186
0.00527737
0.00530191
0.00533131
0.00536305
0.00539554
0.00542775
0.00545906
0.00548907
0.00551755
0.00554438
0.00556951
0.00559293
0.00561467
0.00563478
0.0056533
0.016389
0.016439
0.0163994
0.016399
0.0163578
0.0163252
0.0163101
0.0162754
0.0162464
0.0162102
0.0161391
0.0160825
0.016021
0.0159616
0.0158975
0.0158256
0.0157437
0.0156504
0.0155431
0.0154186
0.0152725
0.0150995
0.014893
0.014645
0.014346
0.0139855
0.0135526
0.0130379
0.012436
0.0117487
0.0109924
0.0102094
0.00948069
0.00889998
0.00886649
0.00984336
0.0118818
0.01444
0.0168844
0.018833
0.020147
0.0208208
0.0209282
0.0205639
0.0198293
0.0188357
0.0177046
0.0165678
0.0153999
0.014198
0.0129714
0.0117396
0.010531
0.00938027
0.00832552
0.00740388
0.00664441
0.00606023
0.00564395
0.00537057
0.00520658
0.00511946
0.00508319
0.00508509
0.00509953
0.00512516
0.00515706
0.00519192
0.00522776
0.00526335
0.00529797
0.00533116
0.00536266
0.00539236
0.00542021
0.0054462
0.00547037
0.00549278
0.00551349
0.00553258
0.0163887
0.0164387
0.0163987
0.0163984
0.0163575
0.0163247
0.0163095
0.0162747
0.0162471
0.016211
0.0161395
0.0160832
0.0160216
0.0159625
0.0158984
0.0158266
0.0157448
0.0156515
0.0155442
0.0154194
0.0152731
0.0150997
0.0148924
0.0146433
0.0143427
0.0139799
0.0135437
0.0130244
0.0124163
0.0117211
0.0109551
0.0101613
0.0094223
0.00883024
0.008781
0.00975338
0.0118146
0.0144211
0.0169221
0.0189213
0.0202729
0.0209672
0.0210787
0.0207041
0.0199429
0.0189082
0.0177322
0.0165535
0.0153402
0.0140904
0.0128138
0.0115318
0.0102754
0.00908346
0.00799883
0.00706319
0.00630793
0.00574432
0.00535892
0.00511915
0.00498575
0.00492348
0.00490974
0.00492129
0.00494538
0.00497815
0.00501508
0.00505357
0.00509208
0.00512968
0.00516581
0.00520019
0.00523265
0.00526313
0.00529164
0.0053182
0.00534289
0.00536577
0.00538693
0.00540645
0.0163885
0.0164384
0.0163981
0.0163978
0.0163573
0.0163242
0.016309
0.016274
0.0162476
0.0162117
0.0161399
0.0160838
0.0160223
0.0159633
0.0158994
0.0158276
0.0157458
0.0156525
0.0155451
0.0154203
0.0152737
0.0150999
0.0148921
0.014642
0.0143399
0.013975
0.0135356
0.0130121
0.0123982
0.0116955
0.0109205
0.0101164
0.00936776
0.00876552
0.00870114
0.00966765
0.0117474
0.014398
0.0169525
0.0190012
0.0203914
0.0211091
0.021229
0.020849
0.0200663
0.0189943
0.0177738
0.0165611
0.015309
0.0140171
0.0126954