/*--------------------------------*- C++ -*----------------------------------*\
  =========                 |
  \\      /  F ield         | OpenFOAM: The Open Source CFD Toolbox
   \\    /   O peration     | Website:  https://openfoam.org
    \\  /    A nd           | Version:  9
     \\/     M anipulation  |
\*---------------------------------------------------------------------------*/
FoamFile
{
    format      ascii;
    class       volScalarField;
    location    "0.0025";
    object      nut;
}
// * * * * * * * * * * * * * * * * * * * * * * * * * * * * * * * * * * * * * //

dimensions      [0 2 -1 0 0 0 0];

internalField   nonuniform List<scalar> 
6127
(
1.42781e-07
2.27157e-07
4.51415e-07
5.30364e-07
7.39258e-07
1.37891e-06
4.4803e-07
5.554e-07
9.70594e-07
1.00735e-06
6.91491e-07
1.06038e-06
2.13787e-06
1.28704e-06
1.37295e-06
3.56926e-06
2.14216e-06
1.71598e-06
4.7787e-06
2.93197e-06
2.00991e-06
5.20643e-06
3.258e-06
1.96914e-06
4.50187e-06
2.83298e-06
1.56689e-06
3.15543e-06
1.97911e-06
1.0684e-06
1.77527e-06
1.13113e-06
6.6682e-07
8.09165e-07
5.92857e-07
4.40556e-07
3.9478e-07
4.94212e-07
4.04967e-07
4.67562e-07
6.59437e-07
7.1434e-07
1.42486e-07
2.13071e-07
4.49414e-07
0.0140637
0.0141085
0.014067
0.0140244
0.0140104
0.013971
0.0139712
0.013958
0.0139425
0.013907
0.0138501
0.0138091
0.0137675
0.0141149
0.0141077
0.0140703
0.0140298
0.014003
0.0139639
0.013955
0.0139241
0.0139188
0.013883
0.0138429
0.0137964
0.0137491
0.0137048
0.013664
0.0136248
0.0135858
0.0135458
0.0135042
0.0134603
0.0134135
0.0133635
0.0133097
0.0132518
0.0131892
0.0131217
0.013049
0.0129709
0.0128871
0.0127979
0.0127033
0.0126041
0.0125011
0.0123956
0.0122893
0.0121839
0.0120817
0.0119847
0.0118951
0.0118145
0.0117442
0.0116853
0.0116384
0.0116039
0.0115814
0.0115706
0.0115707
0.0115802
0.011598
0.0116231
0.0116542
0.0116906
0.0117312
0.0117753
0.0118223
0.0118718
0.0119235
0.011977
0.0120323
0.0120892
0.0141146
0.0141118
0.0140756
0.0140332
0.0140061
0.013963
0.0139557
0.0139225
0.0139199
0.0138807
0.0138392
0.01379
0.0137405
0.0136948
0.0136533
0.0136129
0.0135723
0.0135302
0.0134859
0.0134386
0.0133879
0.013333
0.0132735
0.0132088
0.0131383
0.0130614
0.0129779
0.0128872
0.0127891
0.0126837
0.0125711
0.0124522
0.0123282
0.0122011
0.0120735
0.0119483
0.0118291
0.0117195
0.011623
0.0115419
0.0114782
0.0114334
0.0114079
0.0114015
0.0114131
0.011441
0.011483
0.0115368
0.0116003
0.0116715
0.0117485
0.0118294
0.0119127
0.0119973
0.0120824
0.0121671
0.0122511
0.012334
0.0124156
0.0124958
0.014115
0.0141154
0.0140802
0.0140373
0.0140085
0.0139651
0.0139603
0.0139247
0.0139214
0.0138791
0.0138368
0.0137855
0.0137357
0.0136908
0.0136491
0.0136078
0.0135657
0.0135216
0.0134748
0.0134244
0.0133697
0.0133101
0.0132448
0.0131732
0.0130945
0.0130079
0.0129129
0.0128087
0.0126951
0.0125718
0.0124391
0.0122981
0.0121507
0.0119996
0.0118488
0.0117031
0.0115681
0.0114497
0.0113522
0.0112797
0.0112352
0.01122
0.0112338
0.0112743
0.0113385
0.0114223
0.0115219
0.0116329
0.0117519
0.0118751
0.0119996
0.0121233
0.0122442
0.0123612
0.0124734
0.0125804
0.0126821
0.0127784
0.0128694
0.0129555
0.0141171
0.0141188
0.0140841
0.0140397
0.0140107
0.013967
0.0139617
0.013927
0.0139227
0.0138778
0.0138347
0.0137815
0.0137321
0.0136882
0.0136461
0.013604
0.0135605
0.0135145
0.0134652
0.0134118
0.0133533
0.013289
0.0132181
0.0131396
0.0130526
0.0129562
0.0128493
0.0127312
0.0126012
0.0124588
0.0123045
0.0121396
0.0119666
0.0117897
0.0116146
0.0114488
0.011301
0.0111795
0.0110911
0.0110417
0.0110357
0.0110713
0.0111457
0.0112538
0.011389
0.0115439
0.0117115
0.0118854
0.0120599
0.012231
0.0123952
0.0125504
0.0126951
0.0128286
0.0129508
0.0130619
0.0131624
0.013253
0.0133345
0.0134079
0.0141166
0.0141244
0.0140875
0.0140422
0.0140128
0.013969
0.0139629
0.0139296
0.013924
0.0138768
0.0138331
0.0137786
0.0137307
0.0136869
0.0136444
0.0136014
0.0135566
0.0135089
0.0134573
0.0134008
0.0133387
0.0132699
0.0131935
0.0131083
0.0130131
0.0129067
0.012788
0.0126555
0.0125082
0.0123458
0.0121684
0.0119779
0.0117777
0.0115733
0.0113733
0.0111887
0.011033
0.010917
0.0108512
0.0108454
0.0108982
0.0110067
0.0111628
0.0113556
0.0115729
0.0118032
0.0120362
0.0122638
0.01248
0.0126806
0.0128631
0.0130264
0.0131704
0.0132956
0.0134032
0.0134945
0.0135711
0.0136346
0.0136867
0.013729
0.0141149
0.0141271
0.0140899
0.0140441
0.0140147
0.0139707
0.0139639
0.0139324
0.0139253
0.0138762
0.013832
0.0137771
0.0137303
0.0136864
0.0136435
0.0135997
0.0135538
0.0135044
0.0134507
0.0133916
0.013326
0.013253
0.0131712
0.0130795
0.0129763
0.0128602
0.0127294
0.0125823
0.0124174
0.0122342
0.0120328
0.0118154
0.0115864
0.0113534
0.0111281
0.0109269
0.0107687
0.0106697
0.0106446
0.0107012
0.0108361
0.0110383
0.0112912
0.0115757
0.0118734
0.0121689
0.0124501
0.012709
0.0129404
0.0131421
0.0133138
0.0134564
0.013572
0.0136629
0.013732
0.013782
0.0138153
0.0138345
0.0138425
0.0138415
0.0141125
0.0141287
0.0140913
0.0140474
0.0140165
0.0139716
0.0139648
0.0139351
0.0139265
0.0138761
0.0138311
0.0137771
0.0137306
0.0136867
0.0136434
0.013599
0.013552
0.0135012
0.0134455
0.0133839
0.0133151
0.0132381
0.0131513
0.0130533
0.0129425
0.0128168
0.0126742
0.0125124
0.0123298
0.0121253
0.0118993
0.0116541
0.0113952
0.0111325
0.0108821
0.0106676
0.0105132
0.0104435
0.010478
0.0106195
0.0108564
0.0111662
0.0115203
0.0118905
0.0122531
0.0125907
0.0128921
0.0131511
0.0133659
0.0135375
0.0136686
0.0137634
0.0138262
0.0138613
0.0138734
0.0138672
0.0138464
0.0138146
0.0137743
0.0137275
0.0141096
0.0141295
0.0140917
0.0140481
0.014018
0.013972
0.0139657
0.0139379
0.0139276
0.0138765
0.0138306
0.0137777
0.0137315
0.0136875
0.013644
0.013599
0.0135511
0.013499
0.0134415
0.0133776
0.013306
0.0132252
0.0131337
0.0130299
0.0129117
0.0127769
0.0126227
0.0124466
0.0122463
0.0120206
0.0117695
0.0114959
0.0112064
0.0109133
0.0106376
0.0104117
0.010269
0.0102436
0.0103561
0.010602
0.0109556
0.0113773
0.0118252
0.0122632
0.0126651
0.0130144
0.0133033
0.0135302
0.0136979
0.0138117
0.0138782
0.0139045
0.0138983
0.0138668
0.0138158
0.0137502
0.0136745
0.0135928
0.0135084
0.0134237
0.0141064
0.0141296
0.0140916
0.0140478
0.0140214
0.0139719
0.0139665
0.0139407
0.0139286
0.0138776
0.0138304
0.0137787
0.0137327
0.0136887
0.0136451
0.0135996
0.0135509
0.0134977
0.0134387
0.0133727
0.0132984
0.0132142
0.0131185
0.0130092
0.0128842
0.0127406
0.0125753
0.0123852
0.0121677
0.011921
0.011645
0.011343
0.0110224
0.0106982
0.0103969
0.0101619
0.0100379
0.010071
0.0102792
0.0106449
0.0111215
0.0116496
0.0121744
0.0126549
0.0130658
0.013395
0.0136406
0.0138073
0.0139036
0.0139393
0.013926
0.0138748
0.013795
0.0136951
0.0135829
0.0134645
0.0133446
0.0132272
0.0131152
0.0130108
0.0141031
0.0141293
0.0140909
0.0140468
0.0140223
0.0139737
0.0139677
0.0139434
0.0139295
0.0138792
0.0138306
0.01378
0.0137343
0.0136903
0.0136465
0.0136007
0.0135514
0.0134972
0.0134369
0.0133691
0.0132924
0.0132052
0.0131055
0.0129912
0.0128597
0.0127079
0.0125321
0.0123287
0.0120945
0.0118273
0.011527
0.0111968
0.0108451
0.0104895
0.0101624
0.00991988
0.00982156
0.00992486
0.0102434
0.0107386
0.011337
0.0119581
0.0125372
0.0130323
0.0134227
0.0137036
0.0138808
0.0139662
0.0139748
0.0139225
0.0138247
0.0136952
0.0135468
0.0133893
0.0132308
0.0130779
0.0129345
0.0127985
0.0126689
0.0125449
0.0140998
0.0141287
0.01409
0.0140453
0.0140224
0.0139731
0.0139691
0.013946
0.0139304
0.0138811
0.0138311
0.0137815
0.013736
0.0136922
0.0136483
0.0136023
0.0135524
0.0134974
0.0134359
0.0133666
0.0132878
0.0131978
0.0130946
0.0129757
0.0128384
0.0126789
0.0124933
0.0122773
0.0120272
0.0117403
0.0114164
0.0110585
0.0106761
0.0102893
0.00993573
0.00968609
0.00961865
0.00980181
0.0102411
0.0108698
0.0115827
0.0122795
0.012889
0.0133725
0.013717
0.0139272
0.0140178
0.014009
0.0139228
0.0137805
0.0136022
0.013405
0.0132029
0.0130077
0.0128225
0.0126445
0.0124721
0.0123044
0.0121413
0.011983
0.0140964
0.0141278
0.0140889
0.0140435
0.014022
0.0139724
0.0139704
0.0139485
0.0139312
0.013883
0.013832
0.0137832
0.0137378
0.0136942
0.0136504
0.0136041
0.0135539
0.0134982
0.0134357
0.013365
0.0132844
0.013192
0.0130856
0.0129626
0.0128199
0.0126535
0.0124587
0.0122309
0.0119659
0.0116604
0.0113138
0.0109292
0.0105169
0.0100993
0.00971826
0.00946023
0.00942671
0.00969634
0.0102632
0.0110246
0.0118412
0.0125952
0.0132132
0.0136631
0.0139423
0.0140659
0.0140588
0.0139501
0.013769
0.013543
0.0132962
0.0130485
0.0128131
0.0125852
0.0123619
0.0121422
0.011926
0.0117141
0.0115075
0.0113077
0.0140932
0.0141267
0.0140876
0.0140414
0.0140213
0.0139721
0.0139714
0.0139508
0.0139319
0.0138849
0.0138332
0.0137849
0.0137397
0.0136963
0.0136526
0.0136062
0.0135556
0.0134994
0.0134361
0.0133642
0.0132821
0.0131875
0.0130783
0.0129518
0.0128042
0.0126314
0.0124282
0.0121896
0.0119106
0.0115876
0.0112195
0.0108094
0.0103682
0.00992106
0.00951121
0.00924153
0.00924328
0.00960193
0.0102994
0.0111899
0.0120984
0.0128927
0.0135011
0.0139009
0.014101
0.0141278
0.0140176
0.0138092
0.0135396
0.0132424
0.0129464
0.0126611
0.0123806
0.0121023
0.0118256
0.0115519
0.0112831
0.0110217
0.0107701
0.0105305
0.01409
0.0141255
0.0140863
0.0140393
0.0140204
0.0139729
0.0139723
0.013953
0.0139325
0.0138868
0.0138345
0.0137866
0.0137416
0.0136984
0.0136548
0.0136084
0.0135576
0.0135009
0.013437
0.0133642
0.0132807
0.0131843
0.0130727
0.0129429
0.012791
0.0126124
0.0124017
0.0121531
0.0118612
0.011522
0.0111338
0.0106994
0.0102306
0.00975478
0.0093158
0.00903463
0.00906167
0.00951159
0.0103403
0.0113546
0.0123442
0.0131653
0.0137505
0.0140883
0.0142005
0.0141257
0.0139117
0.0136081
0.0132601
0.0129084
0.0125664
0.0122265
0.0118857
0.0115446
0.0112059
0.0108737
0.0105524
0.0102462
0.00995852
0.00969192
0.0140871
0.0141243
0.014085
0.0140374
0.0140192
0.0139743
0.0139731
0.0139551
0.0139331
0.0138886
0.0138359
0.0137883
0.0137435
0.0137006
0.0136571
0.0136107
0.0135598
0.0135027
0.0134383
0.0133647
0.01328
0.0131821
0.0130684
0.0129357
0.0127801
0.0125963
0.0123787
0.0121211
0.0118175
0.0114633
0.0110563
0.0105993
0.0101043
0.00960074
0.00913224
0.0088344
0.00888366
0.00942127
0.0103784
0.0115105
0.0125722
0.0134102
0.0139634
0.0142323
0.0142511
0.0140737
0.0137594
0.0133672
0.0129537
0.0125505
0.0121468
0.0117385
0.0113267
0.0109164
0.0105146
0.0101285
0.00976491
0.00942915
0.00912481
0.00885369
0.0140842
0.0141231
0.0140837
0.0140357
0.0140181
0.0139755
0.0139738
0.013957
0.0139337
0.0138903
0.0138372
0.0137899
0.0137453
0.0137027
0.0136594
0.0136131
0.013562
0.0135047
0.0134399
0.0133656
0.0132801
0.0131809
0.0130653
0.0129302
0.0127711
0.0125828
0.0123591
0.0120934
0.0117791
0.0114112
0.0109869
0.0105087
0.00998912
0.00945924
0.00896165
0.00864196
0.00870732
0.00932619
0.0104069
0.0116514
0.0127787
0.0136276
0.0141443
0.0143416
0.0142669
0.0139879
0.0135759
0.0131025
0.0126346
0.0121648
0.0116862
0.0111995
0.0107118
0.0102335
0.00977644
0.00935109
0.00896572
0.0086254
0.00833203
0.00808475
0.0140816
0.0141218
0.0140824
0.0140342
0.0140172
0.0139765
0.0139744
0.0139588
0.0139342
0.013892
0.0138385
0.0137915
0.0137471
0.0137048
0.0136617
0.0136154
0.0135643
0.0135069
0.0134416
0.0133669
0.0132806
0.0131803
0.0130632
0.0129259
0.0127639
0.0125717
0.0123425
0.0120695
0.0117456
0.0113652
0.010925
0.0104273
0.0098848
0.00933019
0.00880491
0.00845855
0.00853134
0.00922302
0.010421
0.0117731
0.0129621
0.0138196
0.0142982
0.014424
0.014257
0.0138788
0.0133757
0.0128359
0.0122989
0.0117502
0.0111874
0.0106182
0.0100568
0.0095204
0.00902551
0.00858507
0.00820672
0.00789255
0.00763991
0.00744287
0.0140791
0.0141206
0.0140811
0.0140328
0.0140163
0.0139765
0.0139751
0.0139604
0.0139347
0.0138935
0.0138396
0.013793
0.0137488
0.0137068
0.0136639
0.0136177
0.0135665
0.013509
0.0134436
0.0133684
0.0132815
0.0131803
0.0130619
0.0129228
0.0127583
0.0125625
0.0123286
0.0120491
0.0117165
0.0113248
0.0108701
0.0103544
0.00979076
0.00921307
0.00866202
0.0082849
0.00835651
0.00910991
0.0104173
0.011873
0.0131221
0.0139885
0.0144315
0.0144867
0.0142302
0.0137555
0.0131632
0.0125586
0.011944
0.0113092
0.0106588
0.0100093
0.0093841
0.00880777
0.00830084
0.00787588
0.00753616
0.00727681
0.00708767
0.00695627
0.0140769
0.0141194
0.0140799
0.0140317
0.0140156
0.0139765
0.0139758
0.0139619
0.0139352
0.0138949
0.0138407
0.0137944
0.0137504
0.0137087
0.0136659
0.0136199
0.0135688
0.0135112
0.0134456
0.0133701
0.0132827
0.0131807
0.0130613
0.0129206
0.0127539
0.0125551
0.012317
0.0120317
0.0116914
0.0112895
0.0108216
0.0102895
0.00970629
0.0091071
0.0085309
0.00812138
0.00818403
0.0089866
0.0103949
0.01195
0.0132595
0.0141381
0.0145504
0.0145397
0.0141976
0.01363
0.0129525
0.0122769
0.0115774
0.0108516
0.0101141
0.00939224
0.00871991
0.00812869
0.00764007
0.00726129
0.00698606
0.00679911
0.00668177
0.0066162
0.0140749
0.0141183
0.0140788
0.0140307
0.014015
0.0139766
0.013977
0.0139634
0.0139356
0.0138963
0.0138417
0.0137957
0.0137519
0.0137105
0.0136679
0.013622
0.0135709
0.0135133
0.0134476
0.0133719
0.0132841
0.0131815
0.0130612
0.0129192
0.0127506
0.0125492
0.0123074
0.012017
0.0116699
0.0112588
0.0107789
0.0102318
0.00963063
0.00901156
0.00841154
0.00796876
0.00801579
0.00885486
0.0103533
0.0120036
0.013375
0.0142705
0.0146575
0.0145894
0.014167
0.0135124
0.0127617
0.0119987
0.0112044
0.0103856
0.00956691
0.0087869
0.00809044
0.00751327
0.00707191
0.00676199
0.00656355
0.00645039
0.00639776
0.00638993
0.0140733
0.0141172
0.0140777
0.0140298
0.0140145
0.0139767
0.0139782
0.0139647
0.013936
0.0138975
0.0138426
0.0137969
0.0137532
0.0137122
0.0136698
0.013624
0.013573
0.0135154
0.0134496
0.0133738
0.0132856
0.0131826
0.0130615
0.0129184
0.0127482
0.0125445
0.0122995
0.0120047
0.0116514
0.0112321
0.0107414
0.0101806
0.00956299
0.00892563
0.00830368
0.00782749
0.00785365
0.00871573
0.010293
0.0120342
0.0134699
0.0143887
0.0147582
0.014639
0.0141403
0.0133979
0.0125681
0.0117146
0.0108226
0.00991786
0.00903272
0.00821701
0.00752259
0.00698462
0.00660925
0.0063759
0.00625065
0.00619983
0.00620285
0.0062275
0.0140719
0.0141162
0.0140767
0.014029
0.014014
0.0139768
0.0139787
0.0139658
0.0139364
0.0138987
0.0138434
0.0137981
0.0137545
0.0137137
0.0136715
0.0136259
0.013575
0.0135174
0.0134516
0.0133756
0.0132872
0.0131838
0.0130621
0.0129181
0.0127466
0.0125409
0.0122931
0.0119943
0.0116356
0.0112089
0.0107085
0.0101352
0.00950259
0.00884844
0.00820669
0.00769892
0.0076981
0.00857167
0.0102158
0.0120427
0.0135456
0.0144944
0.0148553
0.0146932
0.0141232
0.0132933
0.0123791
0.0114342
0.010463
0.00948233
0.00853939
0.00769921
0.00702183
0.00653691
0.0062335
0.00607268
0.00600966
0.00601373
0.00604493
0.00609482
0.0140708
0.0141152
0.0140758
0.0140284
0.0140137
0.0139769
0.0139788
0.0139661
0.0139368
0.0138997
0.0138441
0.0137991
0.0137557
0.0137152
0.0136732
0.0136276
0.0135768
0.0135193
0.0134535
0.0133774
0.0132889
0.0131851
0.0130629
0.0129182
0.0127455
0.0125381
0.0122879
0.0119857
0.0116222
0.0111889
0.0106797
0.0100951
0.00944867
0.00877909
0.00811974
0.00758352
0.00755103
0.00842569
0.0101243
0.0120316
0.0136036
0.0145892
0.0149509
0.0147549
0.0141213
0.0132051
0.0122058
0.0111862
0.0101349
0.00908039
0.00808623
0.00723274
0.00658468
0.00615985
0.00592601
0.005827
0.00581998
0.00585152
0.00590738
0.0059743
0.0140698
0.0141143
0.0140749
0.0140278
0.0140134
0.0139771
0.0139786
0.013966
0.0139371
0.0139007
0.0138448
0.0138001
0.0137568
0.0137166
0.0136747
0.0136293
0.0135786
0.0135211
0.0134553
0.0133792
0.0132905
0.0131866
0.0130639
0.0129186
0.0127449
0.012536
0.0122837
0.0119785
0.0116108
0.0111716
0.0106545
0.0100596
0.00940053
0.00871675
0.00804191
0.00747827
0.00741621
0.00828074
0.0100214
0.0120035
0.013645
0.0146737
0.0150451
0.0148255
0.0141359
0.0131351
0.0120681
0.0109719
0.00984063
0.0087151
0.0076756
0.00681708
0.00620502
0.00584023
0.0056687
0.00562342
0.00564722
0.00570434
0.00577716
0.00585588
0.0140689
0.0141135
0.0140741
0.0140273
0.0140133
0.0139772
0.0139784
0.0139658
0.0139375
0.0139016
0.0138454
0.0138009
0.0137579
0.0137178
0.0136761
0.0136308
0.0135802
0.0135228
0.013457
0.0133809
0.0132922
0.013188
0.013065
0.0129191
0.0127446
0.0125345
0.0122804
0.0119725
0.011601
0.0111566
0.0106324
0.0100282
0.00935755
0.00866068
0.00797234
0.00738565
0.00729353
0.00813903
0.00991018
0.0119601
0.0136713
0.0147489
0.0151387
0.0149061
0.0141713
0.0130958
0.0119634
0.0107919
0.00958268
0.00838898
0.00730826
0.00644904
0.00587381
0.00556284
0.00544034
0.00544146
0.00548765
0.0055616
0.0056463
0.00573358
0.0140682
0.0141127
0.0140734
0.0140269
0.0140133
0.0139773
0.0139782
0.0139656
0.0139379
0.0139024
0.013846
0.0138018
0.0137588
0.013719
0.0136774
0.0136322
0.0135817
0.0135244
0.0134587
0.0133826
0.0132937
0.0131894
0.0130662
0.0129198
0.0127447
0.0125335
0.0122778
0.0119676
0.0115928
0.0111437
0.010613
0.0100004
0.00931916
0.00861017
0.00790994
0.00730462
0.00718246
0.00800254
0.00979388
0.0119043
0.0136837
0.0148151
0.0152318
0.0149964
0.0142269
0.0130927
0.0118941
0.0106486
0.00936348
0.00810375
0.00698366
0.00612413
0.0055825
0.00531844
0.00523847
0.00526238
0.00532904
0.00541622
0.00551012
0.00560421
0.0140676
0.014112
0.0140727
0.0140266
0.0140137
0.0139772
0.0139779
0.0139653
0.0139383
0.0139032
0.0138465
0.0138025
0.0137597
0.01372
0.0136786
0.0136335
0.0135831
0.0135259
0.0134602
0.0133841
0.0132952
0.0131908
0.0130674
0.0129206
0.0127449
0.0125328
0.0122757
0.0119635
0.0115858
0.0111324
0.010596
0.00997577
0.00928487
0.00856466
0.00785362
0.00723248
0.00708238
0.00787334
0.00967541
0.0118385
0.0136835
0.0148729
0.015324
0.015095
0.0143012
0.0131201
0.0118587
0.0105427
0.00918448
0.00786029
0.00670025
0.00583667
0.00532086
0.00509294
0.00504697
0.00508774
0.00516863
0.0052654
0.00536639
0.00546612
0.014067
0.0141114
0.014072
0.0140263
0.0140141
0.013977
0.0139775
0.0139649
0.0139388
0.0139039
0.0138469
0.0138032
0.0137604
0.013721
0.0136796
0.0136347
0.0135844
0.0135273
0.0134616
0.0133855
0.0132966
0.0131921
0.0130685
0.0129215
0.0127452
0.0125324
0.0122741
0.0119601
0.0115798
0.0111227
0.0105811
0.00995397
0.00925422
0.00852363
0.00780271
0.00716829
0.00699222
0.0077525
0.00955718
0.0117653
0.0136737
0.0149226
0.0154148
0.0152001
0.0143939
0.0131755
0.0118586
0.0104746
0.00904666
0.00765919
0.00645676
0.00558258
0.00508252
0.00487861
0.00486147
0.00491377
0.00500348
0.00510705
0.00521361
0.0053182
0.0140666
0.0141108
0.0140715
0.014026
0.0140142
0.0139768
0.0139772
0.0139645
0.0139394
0.0139045
0.0138473
0.0138038
0.0137611
0.0137219
0.0136806
0.0136358
0.0135856
0.0135285
0.0134629
0.0133869
0.013298
0.0131934
0.0130697
0.0129224
0.0127457
0.0125322
0.0122729
0.0119574
0.0115747
0.0111143
0.0105681
0.00993465
0.00922683
0.00848666
0.00775662
0.00711113
0.006911
0.00764067
0.00944116
0.0116868
0.0136548
0.0149638
0.0155011
0.015309
0.0145019
0.0132551
0.0118854
0.0104428
0.00895015
0.00750085
0.00625232
0.00535923
0.00486471
0.00467595
0.00467563
0.00473567
0.00483157
0.00494003
0.00505096
0.00515974
0.0140662
0.0141103
0.0140709
0.0140258
0.0140142
0.0139765
0.0139768
0.0139641
0.0139399
0.0139051
0.0138477
0.0138044
0.0137618
0.0137227
0.0136815
0.0136368
0.0135866
0.0135297
0.0134641
0.0133881
0.0132992
0.0131946
0.0130708
0.0129233
0.0127462
0.0125322
0.012272
0.0119551
0.0115704
0.0111071
0.0105566
0.00991753
0.00920236
0.00845334
0.00771486
0.00706014
0.00683829
0.00753813
0.00932888
0.0116047
0.0136281
0.014997
0.0155822
0.015419
0.0146218
0.0133556
0.0119387
0.0104479
0.00889555
0.00738575
0.00608631
0.00516418
0.0046638
0.00448129
0.00448743
0.00455281
0.00465273
0.00476417
0.00487819
0.00499032
0.0140659
0.0141098
0.0140704
0.0140256
0.0140141
0.0139762
0.0139765
0.0139638
0.0139404
0.0139057
0.013848
0.0138049
0.0137624
0.0137234
0.0136824
0.0136378
0.0135876
0.0135307
0.0134653
0.0133893
0.0133004
0.0131958
0.0130719
0.0129242
0.0127468
0.0125323
0.0122713
0.0119532
0.0115667
0.0111007
0.0105465
0.00990235
0.00918049
0.00842334
0.00767702
0.00701469
0.0067734
0.0074448
0.00922146
0.0115209
0.0135947
0.0150217
0.0156574
0.0155285
0.0147504
0.0134729
0.0120141
0.0104817
0.00888296
0.00731441
0.00595882
0.00499635
0.00447765
0.00429165
0.00429894
0.00436576
0.00446688
0.00457992
0.00469551
0.0048098
0.0140656
0.0141095
0.01407
0.0140254
0.014014
0.0139759
0.0139761
0.0139634
0.0139409
0.0139062
0.0138483
0.0138053
0.0137629
0.0137241
0.0136831
0.0136386
0.0135885
0.0135317
0.0134663
0.0133904
0.0133015
0.0131969
0.0130729
0.012925
0.0127474
0.0125325
0.0122708
0.0119517
0.0115636
0.0110952
0.0105377
0.00988889
0.00916094
0.00839632
0.00764273
0.00697423
0.00671562
0.00736037
0.00911964
0.0114366
0.013556
0.0150383
0.0157258
0.0156355
0.0148844
0.0136036
0.0121072
0.0105427
0.00890675
0.00728737
0.00587055
0.00485615
0.00430647
0.00410745
0.00411013
0.00417558
0.00427473
0.00438709
0.00450307
0.00461829
0.0140653
0.0141092
0.0140696
0.0140253
0.0140138
0.0139756
0.0139758
0.013963
0.0139413
0.0139066
0.0138486
0.0138058
0.0137634
0.0137247
0.0136838
0.0136394
0.0135894
0.0135326
0.0134672
0.0133913
0.0133025
0.0131979
0.0130738
0.0129258
0.012748
0.0125328
0.0122705
0.0119505
0.0115609
0.0110905
0.0105299
0.00987695
0.00914348
0.00837199
0.00761166
0.00693821
0.00666429
0.00728433
0.00902386
0.0113531
0.0135133
0.0150474
0.0157861
0.0157382
0.0150207
0.0137445
0.0122133
0.0106275
0.00896385
0.00730261
0.00582231
0.00474491
0.00415168
0.00393075
0.00392132
0.00398339
0.00407783
0.00418714
0.00430148
0.00441644
0.0140651
0.0141089
0.0140692
0.0140252
0.0140136
0.0139753
0.0139754
0.0139626
0.0139417
0.013907
0.0138488
0.0138061
0.0137639
0.0137252
0.0136845
0.0136401
0.0135901
0.0135334
0.0134681
0.0133923
0.0133034
0.0131988
0.0130747
0.0129266
0.0127486
0.012533
0.0122703
0.0119494
0.0115586
0.0110863
0.010523
0.00986634
0.00912787
0.00835009
0.00758348
0.00690616
0.00661897
0.00721612
0.00893433
0.0112714
0.0134679
0.0150499
0.0158396
0.0158364
0.0151557
0.0138931
0.0123262
0.0107327
0.00905206
0.00735467
0.00581697
0.00466456
0.00401499
0.0037631
0.00373459
0.00379095
0.00387837
0.00398195
0.0040921
0.00420435
0.0140649
0.0141088
0.0140689
0.0140251
0.0140134
0.013975
0.0139751
0.0139623
0.0139421
0.0139073
0.013849
0.0138065
0.0137643
0.0137257
0.013685
0.0136407
0.0135908
0.0135342
0.0134689
0.0133931
0.0133043
0.0131997
0.0130756
0.0129274
0.0127492
0.0125334
0.0122702
0.0119486
0.0115566
0.0110827
0.0105169
0.00985693
0.00911392
0.00833038
0.00755794
0.00687765
0.00658066
0.00715506
0.00885106
0.0111922
0.013421
0.0150478
0.0158849
0.0159322
0.0152881
0.0140455
0.0124392
0.0108557
0.00916875
0.00744217
0.00584777
0.00461668
0.00389842
0.00360588
0.00355257
0.0036
0.00367926
0.00377411
0.00387735
0.00398416
0.0140648
0.0141086
0.0140686
0.014025
0.0140132
0.0139747
0.0139748
0.0139619
0.0139423
0.0139074
0.0138492
0.0138068
0.0137646
0.0137262
0.0136855
0.0136413
0.0135914
0.0135348
0.0134696
0.0133938
0.0133051
0.0132005
0.0130763
0.0129281
0.0127498
0.0125337
0.0122702
0.0119479
0.011555
0.0110795
0.0105116
0.00984856
0.00910145
0.00831265
0.00753477
0.00685242
0.00654755
0.00710044
0.00877396
0.0111161
0.0133734
0.0150426
0.0159294
0.0160217
0.0154161
0.0141997
0.0125544
0.0109958
0.00930996
0.00756214
0.00591595
0.00460671
0.0038049
0.00346067
0.00337816
0.00341308
0.00348131
0.00356633
0.00366007
0.00375835
0.0140646
0.0141085
0.0140683
0.0140249
0.014013
0.0139745
0.0139745
0.0139616
0.0139424
0.0139075
0.0138494
0.0138071
0.0137649
0.0137266
0.013686
0.0136418
0.013592
0.0135354
0.0134703
0.0133945
0.0133058
0.0132012
0.013077
0.0129288
0.0127503
0.012534
0.0122702
0.0119474
0.0115535
0.0110767
0.0105069
0.00984113
0.00909031
0.00829668
0.00751378
0.00683004
0.00651836
0.00705167
0.00870281
0.0110434
0.0133259
0.0150346
0.0159674
0.0161043
0.0155387
0.0143558
0.0127014
0.0111524
0.0094698
0.00770924
0.00601897
0.00463109
0.00373754
0.0033315
0.00321505
0.00323259
0.00328713
0.00335985
0.00344228
0.00353033
0.0140645
0.0141084
0.0140681
0.0140249
0.0140128
0.0139742
0.0139742
0.0139613
0.0139425
0.0139075
0.0138495
0.0138074
0.0137652
0.013727
0.0136864
0.0136423
0.0135925
0.013536
0.0134709
0.0133952
0.0133065
0.0132019
0.0130777
0.0129294
0.0127509
0.0125344
0.0122702
0.0119469
0.0115523
0.0110743
0.0105027
0.00983452
0.00908035
0.00828231
0.00749477
0.00681005
0.00649244
0.00700816
0.00863731
0.0109743
0.013279
0.0150243
0.016
0.0161796
0.0156547
0.0145101
0.0128687
0.011318
0.00964089
0.00787699
0.0061534
0.00469081
0.00370152
0.00322142
0.00306474
0.00305979
0.00309933
0.00315787
0.00322653
0.00330139
0.0140644
0.0141084
0.0140678
0.0140249
0.0140126
0.0139739
0.013974
0.013961
0.0139426
0.0139075
0.0138497
0.0138076
0.0137655
0.0137273
0.0136868
0.0136427
0.013593
0.0135365
0.0134714
0.0133957
0.0133071
0.0132025
0.0130783
0.01293
0.0127514
0.0125347
0.0122703
0.0119466
0.0115512
0.0110722
0.010499
0.00982864
0.00907145
0.00826936
0.00747757
0.00679213
0.00646938
0.00696935
0.00857716
0.010909
0.0132331
0.015012
0.0160279
0.0162477
0.0157629
0.0146585
0.0130489
0.0114845
0.00981582
0.00805822
0.00631422
0.00478622
0.00370234
0.00313265
0.00292938
0.00289526
0.0029199
0.00296282
0.00301552
0.00307427
0.0140643
0.0141083
0.0140677
0.0140249
0.0140125
0.0139737
0.0139737
0.0139607
0.0139426
0.0139075
0.0138498
0.0138078
0.0137658
0.0137276
0.0136872
0.0136431
0.0135934
0.013537
0.0134719
0.0133963
0.0133076
0.013203
0.0130789
0.0129305
0.0127518
0.012535
0.0122704
0.0119463
0.0115503
0.0110703
0.0104958
0.00982341
0.0090635
0.00825769
0.00746199
0.00677528
0.00644883
0.00693475
0.00852204
0.0108475
0.0131884
0.0149984
0.0160518
0.0163089
0.0158628
0.0147976
0.0132394
0.0116442
0.00998828
0.00824589
0.00649441
0.00491271
0.00373188
0.003066
0.00280853
0.00274226
0.00275062
0.00277692
0.00281192
0.00285175
0.0140642
0.0141083
0.0140675
0.014025
0.0140123
0.0139735
0.0139735
0.0139605
0.0139426
0.0139075
0.0138499
0.013808
0.013766
0.0137279
0.0136875
0.0136434
0.0135938
0.0135374
0.0134723
0.0133968
0.0133081
0.0132035
0.0130794
0.012931
0.0127522
0.0125353
0.0122705
0.011946
0.0115495
0.0110687
0.0104929
0.00981876
0.00905639
0.00824718
0.0074479
0.00675936
0.00643052
0.0069039
0.0084716
0.0107899
0.0131454
0.0149838
0.0160726
0.0163644
0.015954
0.0149259
0.0134137
0.0117883
0.0101505
0.00843354
0.00668661
0.00506551
0.00379378
0.00302507
0.00270293
0.00260257
0.0025919
0.00260199
0.00261912
0.00263912
0.0140641
0.0141083
0.0140674
0.014025
0.0140121
0.0139733
0.0139733
0.0139602
0.0139426
0.0139075
0.01385
0.0138082
0.0137662
0.0137282
0.0136878
0.0136437
0.0135941
0.0135378
0.0134728
0.0133972
0.0133086
0.013204
0.0130798
0.0129314
0.0127526
0.0125356
0.0122706
0.0119458
0.0115488
0.0110673
0.0104903
0.00981462
0.00905004
0.00823771
0.00743517
0.00674488
0.00641418
0.00687637
0.00842551
0.010736
0.0131042
0.0149686
0.0160904
0.016415
0.0160367
0.015043
0.0135688
0.0119146
0.010301
0.00861316
0.00688415
0.00523851
0.00388768
0.00301614
0.00261248
0.00247702
0.00244379
0.00243746
0.00243741
0.00243755
0.0140641
0.0141083
0.0140673
0.014025
0.014012
0.013973
0.0139731
0.01396
0.0139426
0.0139074
0.0138501
0.0138083
0.0137664
0.0137284
0.013688
0.013644
0.0135945
0.0135381
0.0134731
0.0133976
0.013309
0.0132044
0.0130803
0.0129318
0.012753
0.0125359
0.0122707
0.0119457
0.0115482
0.011066
0.0104881
0.00981093
0.00904436
0.00822916
0.00742368
0.00673179
0.0063996
0.0068518
0.00838345
0.0106858
0.0130649
0.0149531
0.0161055
0.0164611
0.0161115
0.015149
0.0137062
0.0120235
0.0104401
0.00878291
0.00707774
0.00542455
0.00400908
0.00303446
0.00254089
0.00236374
0.00230529
0.00228112
0.00226345
0.00224349
0.014064
0.0141083
0.0140672
0.014025
0.0140118
0.0139729
0.0139729
0.0139598
0.0139426
0.0139074
0.0138502
0.0138085
0.0137665
0.0137286
0.0136883
0.0136443
0.0135947
0.0135384
0.0134735
0.0133979
0.0133094
0.0132048
0.0130807
0.0129322
0.0127534
0.0125362
0.0122708
0.0119456
0.0115477
0.0110649
0.0104861
0.00980766
0.00903929
0.00822146
0.0074133
0.00671997
0.00638661
0.00682985
0.00834509
0.0106392
0.0130277
0.0149374
0.0161181
0.0165028
0.0161788
0.0152447
0.013828
0.0121193
0.0105686
0.00894155
0.00726312
0.00561566
0.00415236
0.00307929
0.00248817
0.00226132
0.00217264
0.00212476
0.00208462
0.00205157
0.014064
0.0141083
0.0140671
0.0140249
0.0140117
0.0139727
0.0139728
0.0139596
0.0139426
0.0139074
0.0138503
0.0138086
0.0137667
0.0137288
0.0136885
0.0136445
0.013595
0.0135387
0.0134738
0.0133983
0.0133097
0.0132052
0.013081
0.0129326
0.0127537
0.0125364
0.0122709
0.0119455
0.0115473
0.011064
0.0104843
0.00980474
0.00903476
0.00821451
0.00740395
0.00670931
0.00637503
0.00681024
0.00831014
0.010596
0.0129926
0.0149218
0.0161286
0.0165406
0.0162392
0.0153309
0.0139367
0.0122157
0.0106877
0.00908845
0.00743798
0.00580289
0.00431144
0.00315117
0.00245901
0.00217162
0.00205097
0.00198871
0.00193683
0.00188335
0.0140639
0.0141083
0.0140671
0.0140249
0.0140116
0.0139725
0.0139726
0.0139595
0.0139426
0.0139073
0.0138503
0.0138087
0.0137668
0.013729
0.0136887
0.0136447
0.0135952
0.013539
0.013474
0.0133986
0.01331
0.0132055
0.0130814
0.0129329
0.012754
0.0125367
0.0122711
0.0119455
0.0115469
0.0110632
0.0104828
0.00980216
0.00903073
0.00820823
0.00739552
0.00669969
0.00636472
0.00679269
0.00827831
0.010556
0.0129595
0.0149065
0.0161372
0.0165749
0.0162932
0.0154086
0.0140348
0.0123112
0.0107975
0.00922341
0.00760094
0.00598288
0.00447578
0.00324735
0.002461
0.0020963
0.00195254
0.00187359
0.00180427
0.00172723
0.0140639
0.0141083
0.0140671
0.0140248
0.0140115
0.0139724
0.0139725
0.0139593
0.0139426
0.0139073
0.0138504
0.0138088
0.0137669
0.0137291
0.0136888
0.0136449
0.0135954
0.0135392
0.0134743
0.0133988
0.0133103
0.0132058
0.0130817
0.0129332
0.0127543
0.0125369
0.0122712
0.0119454
0.0115466
0.0110624
0.0104814
0.00979986
0.00902712
0.00820257
0.00738793
0.00669102
0.00635552
0.00677698
0.00824935
0.0105192
0.0129286
0.0148916
0.0161442
0.0166052
0.0163416
0.0154781
0.0141239
0.0124037
0.0108986
0.00934668
0.00775138
0.00615316
0.0046398
0.00335802
0.00248157
0.00204239
0.00186979
0.00177087
0.00168192
0.00157915
0.0140639
0.0141083
0.014067
0.0140248
0.0140113
0.0139722
0.0139724
0.0139592
0.0139426
0.0139073
0.0138504
0.0138089
0.013767
0.0137293