/*--------------------------------*- C++ -*----------------------------------*\
  =========                 |
  \\      /  F ield         | OpenFOAM: The Open Source CFD Toolbox
   \\    /   O peration     | Website:  https://openfoam.org
    \\  /    A nd           | Version:  9
     \\/     M anipulation  |
\*---------------------------------------------------------------------------*/
FoamFile
{
    format      ascii;
    class       volScalarField;
    location    "0.0025";
    object      nuTilda;
}
// * * * * * * * * * * * * * * * * * * * * * * * * * * * * * * * * * * * * * //

dimensions      [0 2 -1 0 0 0 0];

internalField   nonuniform List<scalar> 
6127
(
1.90536e-05
2.21671e-05
2.69681e-05
2.64046e-05
2.96711e-05
3.55015e-05
2.52428e-05
2.74875e-05
3.21874e-05
3.10135e-05
2.90356e-05
3.27933e-05
3.76683e-05
3.40422e-05
3.49248e-05
4.31181e-05
3.88517e-05
3.69209e-05
4.66344e-05
4.21882e-05
3.84387e-05
4.77343e-05
4.33823e-05
3.82112e-05
4.58917e-05
4.18117e-05
3.59879e-05
4.17349e-05
3.80679e-05
3.2588e-05
3.58962e-05
3.29496e-05
2.88831e-05
2.93315e-05
2.79459e-05
2.5999e-05
2.44552e-05
2.67114e-05
2.54896e-05
2.55821e-05
2.88507e-05
2.95903e-05
1.90615e-05
2.18199e-05
2.65805e-05
0.0140637
0.0141085
0.014067
0.0140244
0.0140104
0.013971
0.0139713
0.013958
0.0139425
0.0139071
0.0138501
0.0138091
0.0137675
0.0141149
0.0141077
0.0140703
0.0140298
0.014003
0.0139639
0.013955
0.0139241
0.0139188
0.013883
0.0138429
0.0137964
0.0137492
0.0137048
0.013664
0.0136248
0.0135858
0.0135458
0.0135042
0.0134603
0.0134135
0.0133635
0.0133097
0.0132518
0.0131892
0.0131218
0.0130491
0.0129709
0.0128871
0.0127979
0.0127033
0.0126041
0.0125011
0.0123956
0.0122893
0.0121839
0.0120817
0.0119847
0.0118951
0.0118145
0.0117442
0.0116853
0.0116384
0.0116039
0.0115814
0.0115706
0.0115707
0.0115802
0.011598
0.0116231
0.0116542
0.0116906
0.0117312
0.0117753
0.0118223
0.0118718
0.0119235
0.011977
0.0120323
0.0120892
0.0141146
0.0141118
0.0140757
0.0140332
0.0140061
0.013963
0.0139557
0.0139225
0.0139199
0.0138807
0.0138393
0.01379
0.0137405
0.0136948
0.0136533
0.013613
0.0135723
0.0135302
0.0134859
0.0134386
0.0133879
0.0133331
0.0132735
0.0132088
0.0131383
0.0130614
0.0129779
0.0128872
0.0127891
0.0126837
0.0125711
0.0124522
0.0123282
0.0122012
0.0120735
0.0119483
0.0118291
0.0117195
0.011623
0.0115419
0.0114782
0.0114334
0.0114079
0.0114015
0.0114131
0.011441
0.011483
0.0115368
0.0116003
0.0116715
0.0117485
0.0118294
0.0119127
0.0119974
0.0120824
0.0121671
0.0122511
0.012334
0.0124156
0.0124958
0.014115
0.0141154
0.0140802
0.0140373
0.0140085
0.0139651
0.0139603
0.0139247
0.0139214
0.0138792
0.0138368
0.0137855
0.0137357
0.0136908
0.0136491
0.0136078
0.0135657
0.0135217
0.0134748
0.0134244
0.0133697
0.0133101
0.0132448
0.0131732
0.0130945
0.0130079
0.0129129
0.0128087
0.0126951
0.0125718
0.0124391
0.0122982
0.0121507
0.0119996
0.0118488
0.0117031
0.0115681
0.0114497
0.0113522
0.0112798
0.0112353
0.01122
0.0112338
0.0112743
0.0113385
0.0114224
0.0115219
0.011633
0.0117519
0.0118751
0.0119996
0.0121233
0.0122442
0.0123612
0.0124734
0.0125804
0.0126821
0.0127784
0.0128695
0.0129555
0.0141171
0.0141188
0.0140841
0.0140397
0.0140107
0.0139671
0.0139617
0.013927
0.0139227
0.0138779
0.0138347
0.0137815
0.0137321
0.0136882
0.0136461
0.013604
0.0135605
0.0135146
0.0134653
0.0134118
0.0133533
0.013289
0.0132181
0.0131396
0.0130526
0.0129562
0.0128493
0.0127313
0.0126012
0.0124588
0.0123045
0.0121396
0.0119666
0.0117897
0.0116146
0.0114488
0.011301
0.0111796
0.0110911
0.0110417
0.0110357
0.0110713
0.0111457
0.0112538
0.011389
0.0115439
0.0117115
0.0118854
0.01206
0.012231
0.0123952
0.0125504
0.0126951
0.0128286
0.0129508
0.0130619
0.0131624
0.013253
0.0133346
0.0134079
0.0141166
0.0141245
0.0140875
0.0140422
0.0140128
0.0139691
0.0139629
0.0139296
0.013924
0.0138768
0.0138331
0.0137786
0.0137307
0.0136869
0.0136444
0.0136014
0.0135566
0.0135089
0.0134573
0.0134009
0.0133387
0.01327
0.0131935
0.0131083
0.0130131
0.0129068
0.012788
0.0126555
0.0125082
0.0123458
0.0121684
0.011978
0.0117777
0.0115733
0.0113733
0.0111887
0.011033
0.010917
0.0108512
0.0108454
0.0108982
0.0110067
0.0111628
0.0113556
0.0115729
0.0118032
0.0120362
0.0122638
0.01248
0.0126806
0.0128631
0.0130264
0.0131704
0.0132956
0.0134032
0.0134945
0.0135711
0.0136346
0.0136867
0.013729
0.0141149
0.0141271
0.0140899
0.0140441
0.0140148
0.0139707
0.0139639
0.0139324
0.0139253
0.0138762
0.013832
0.0137771
0.0137303
0.0136864
0.0136435
0.0135998
0.0135538
0.0135044
0.0134507
0.0133916
0.013326
0.013253
0.0131712
0.0130795
0.0129763
0.0128602
0.0127294
0.0125823
0.0124174
0.0122342
0.0120328
0.0118154
0.0115864
0.0113534
0.0111282
0.0109269
0.0107687
0.0106697
0.0106446
0.0107012
0.0108361
0.0110383
0.0112912
0.0115757
0.0118734
0.0121689
0.0124501
0.012709
0.0129404
0.0131421
0.0133138
0.0134564
0.013572
0.0136629
0.013732
0.013782
0.0138153
0.0138345
0.0138425
0.0138415
0.0141125
0.0141287
0.0140913
0.0140474
0.0140165
0.0139716
0.0139649
0.0139351
0.0139265
0.0138761
0.0138311
0.0137771
0.0137306
0.0136867
0.0136434
0.013599
0.013552
0.0135012
0.0134455
0.0133839
0.0133151
0.0132381
0.0131513
0.0130533
0.0129425
0.0128168
0.0126742
0.0125125
0.0123298
0.0121254
0.0118993
0.0116541
0.0113952
0.0111325
0.0108822
0.0106676
0.0105132
0.0104435
0.010478
0.0106195
0.0108565
0.0111663
0.0115203
0.0118905
0.0122531
0.0125907
0.0128921
0.0131511
0.0133659
0.0135375
0.0136686
0.0137634
0.0138262
0.0138613
0.0138734
0.0138672
0.0138465
0.0138146
0.0137743
0.0137276
0.0141096
0.0141295
0.0140917
0.0140481
0.014018
0.013972
0.0139657
0.0139379
0.0139276
0.0138765
0.0138306
0.0137777
0.0137315
0.0136875
0.013644
0.013599
0.0135511
0.013499
0.0134416
0.0133776
0.013306
0.0132252
0.0131337
0.0130299
0.0129117
0.0127769
0.0126227
0.0124466
0.0122463
0.0120206
0.0117696
0.011496
0.0112065
0.0109133
0.0106376
0.0104117
0.010269
0.0102436
0.0103561
0.010602
0.0109556
0.0113773
0.0118252
0.0122633
0.0126651
0.0130144
0.0133033
0.0135302
0.0136979
0.0138117
0.0138783
0.0139045
0.0138983
0.0138668
0.0138158
0.0137502
0.0136745
0.0135928
0.0135084
0.0134237
0.0141065
0.0141296
0.0140916
0.0140478
0.0140214
0.0139719
0.0139666
0.0139407
0.0139286
0.0138776
0.0138304
0.0137787
0.0137327
0.0136888
0.0136451
0.0135996
0.0135509
0.0134977
0.0134387
0.0133727
0.0132984
0.0132143
0.0131185
0.0130092
0.0128842
0.0127406
0.0125753
0.0123852
0.0121677
0.011921
0.0116451
0.011343
0.0110224
0.0106982
0.010397
0.0101619
0.0100379
0.010071
0.0102792
0.010645
0.0111216
0.0116496
0.0121744
0.0126549
0.0130658
0.013395
0.0136406
0.0138073
0.0139036
0.0139393
0.013926
0.0138748
0.013795
0.0136951
0.0135829
0.0134645
0.0133446
0.0132272
0.0131152
0.0130108
0.0141031
0.0141293
0.0140909
0.0140468
0.0140223
0.0139737
0.0139677
0.0139434
0.0139295
0.0138792
0.0138306
0.01378
0.0137343
0.0136903
0.0136466
0.0136007
0.0135514
0.0134972
0.0134369
0.0133691
0.0132924
0.0132052
0.0131055
0.0129912
0.0128597
0.0127079
0.0125321
0.0123287
0.0120945
0.0118273
0.011527
0.0111968
0.0108451
0.0104895
0.0101624
0.0099199
0.00982157
0.00992488
0.0102434
0.0107386
0.011337
0.0119582
0.0125373
0.0130323
0.0134227
0.0137036
0.0138808
0.0139662
0.0139748
0.0139225
0.0138247
0.0136952
0.0135468
0.0133893
0.0132308
0.0130779
0.0129345
0.0127986
0.0126689
0.0125449
0.0140998
0.0141287
0.01409
0.0140453
0.0140224
0.0139731
0.0139691
0.013946
0.0139304
0.0138811
0.0138311
0.0137815
0.013736
0.0136922
0.0136484
0.0136023
0.0135524
0.0134974
0.0134359
0.0133666
0.0132878
0.0131978
0.0130946
0.0129757
0.0128384
0.0126789
0.0124933
0.0122773
0.0120272
0.0117404
0.0114164
0.0110585
0.0106761
0.0102893
0.00993574
0.0096861
0.00961866
0.00980183
0.0102411
0.0108699
0.0115827
0.0122795
0.012889
0.0133725
0.013717
0.0139272
0.0140178
0.014009
0.0139228
0.0137805
0.0136023
0.013405
0.0132029
0.0130077
0.0128225
0.0126445
0.0124721
0.0123044
0.0121413
0.0119831
0.0140965
0.0141278
0.0140889
0.0140435
0.014022
0.0139724
0.0139704
0.0139485
0.0139312
0.013883
0.013832
0.0137832
0.0137378
0.0136942
0.0136504
0.0136041
0.0135539
0.0134982
0.0134357
0.013365
0.0132844
0.013192
0.0130856
0.0129626
0.0128199
0.0126535
0.0124587
0.0122309
0.0119659
0.0116604
0.0113138
0.0109292
0.0105169
0.0100994
0.00971828
0.00946025
0.00942673
0.00969635
0.0102632
0.0110247
0.0118412
0.0125952
0.0132132
0.0136631
0.0139423
0.0140659
0.0140588
0.0139502
0.013769
0.013543
0.0132962
0.0130485
0.0128131
0.0125852
0.0123619
0.0121422
0.011926
0.0117141
0.0115076
0.0113077
0.0140932
0.0141267
0.0140876
0.0140414
0.0140213
0.0139721
0.0139714
0.0139508
0.0139319
0.0138849
0.0138332
0.0137849
0.0137397
0.0136963
0.0136526
0.0136062
0.0135556
0.0134994
0.0134361
0.0133642
0.0132821
0.0131875
0.0130784
0.0129518
0.0128042
0.0126314
0.0124282
0.0121896
0.0119106
0.0115876
0.0112195
0.0108094
0.0103682
0.00992108
0.00951122
0.00924155
0.0092433
0.00960194
0.0102994
0.0111899
0.0120984
0.0128928
0.0135011
0.0139009
0.014101
0.0141278
0.0140176
0.0138092
0.0135396
0.0132424
0.0129464
0.0126611
0.0123806
0.0121023
0.0118257
0.0115519
0.0112831
0.0110217
0.0107701
0.0105305
0.0140901
0.0141256
0.0140863
0.0140393
0.0140204
0.0139729
0.0139723
0.013953
0.0139325
0.0138868
0.0138345
0.0137866
0.0137416
0.0136984
0.0136548
0.0136084
0.0135576
0.0135009
0.013437
0.0133642
0.0132807
0.0131843
0.0130727
0.0129429
0.012791
0.0126124
0.0124017
0.0121531
0.0118613
0.011522
0.0111338
0.0106995
0.0102306
0.00975479
0.00931582
0.00903464
0.00906169
0.0095116
0.0103403
0.0113546
0.0123442
0.0131653
0.0137506
0.0140883
0.0142006
0.0141257
0.0139117
0.0136082
0.0132601
0.0129084
0.0125664
0.0122265
0.0118857
0.0115446
0.0112059
0.0108737
0.0105524
0.0102462
0.00995854
0.00969194
0.0140871
0.0141243
0.014085
0.0140374
0.0140192
0.0139743
0.0139731
0.0139551
0.0139331
0.0138886
0.0138359
0.0137883
0.0137435
0.0137006
0.0136571
0.0136107
0.0135598
0.0135028
0.0134383
0.0133647
0.0132801
0.0131822
0.0130684
0.0129357
0.0127801
0.0125963
0.0123787
0.0121211
0.0118176
0.0114633
0.0110563
0.0105993
0.0101043
0.00960075
0.00913225
0.00883442
0.00888367
0.00942129
0.0103784
0.0115105
0.0125722
0.0134102
0.0139634
0.0142323
0.0142511
0.0140737
0.0137594
0.0133672
0.0129537
0.0125505
0.0121468
0.0117385
0.0113267
0.0109165
0.0105146
0.0101285
0.00976493
0.00942917
0.00912482
0.0088537
0.0140842
0.0141231
0.0140837
0.0140357
0.0140181
0.0139755
0.0139738
0.013957
0.0139337
0.0138903
0.0138372
0.0137899
0.0137453
0.0137027
0.0136594
0.0136131
0.013562
0.0135048
0.0134399
0.0133656
0.0132801
0.0131809
0.0130653
0.0129302
0.0127711
0.0125828
0.0123592
0.0120934
0.0117791
0.0114112
0.0109869
0.0105087
0.00998914
0.00945925
0.00896166
0.00864198
0.00870734
0.00932621
0.0104069
0.0116514
0.0127787
0.0136276
0.0141443
0.0143416
0.0142669
0.0139879
0.0135759
0.0131025
0.0126346
0.0121648
0.0116862
0.0111995
0.0107118
0.0102336
0.00977646
0.00935111
0.00896573
0.00862542
0.00833205
0.00808477
0.0140816
0.0141218
0.0140824
0.0140342
0.0140172
0.0139765
0.0139744
0.0139588
0.0139342
0.013892
0.0138385
0.0137915
0.0137471
0.0137048
0.0136617
0.0136154
0.0135643
0.0135069
0.0134417
0.0133669
0.0132806
0.0131803
0.0130632
0.0129259
0.012764
0.0125717
0.0123426
0.0120695
0.0117456
0.0113652
0.010925
0.0104273
0.00988482
0.0093302
0.00880493
0.00845857
0.00853136
0.00922304
0.010421
0.0117731
0.0129621
0.0138196
0.0142982
0.014424
0.0142571
0.0138788
0.0133757
0.012836
0.0122989
0.0117502
0.0111874
0.0106182
0.0100568
0.00952041
0.00902553
0.00858509
0.00820674
0.00789258
0.00763993
0.00744289
0.0140791
0.0141206
0.0140811
0.0140328
0.0140163
0.0139765
0.0139751
0.0139604
0.0139347
0.0138935
0.0138396
0.013793
0.0137488
0.0137068
0.0136639
0.0136177
0.0135666
0.013509
0.0134436
0.0133684
0.0132815
0.0131803
0.0130619
0.0129228
0.0127583
0.0125625
0.0123286
0.0120491
0.0117165
0.0113248
0.0108701
0.0103544
0.00979077
0.00921309
0.00866204
0.00828492
0.00835653
0.00910993
0.0104173
0.011873
0.0131222
0.0139885
0.0144315
0.0144867
0.0142303
0.0137555
0.0131632
0.0125586
0.011944
0.0113092
0.0106588
0.0100093
0.00938412
0.00880778
0.00830086
0.00787591
0.00753618
0.00727683
0.00708769
0.0069563
0.0140769
0.0141194
0.0140799
0.0140317
0.0140156
0.0139765
0.0139758
0.013962
0.0139352
0.0138949
0.0138407
0.0137944
0.0137504
0.0137087
0.0136659
0.0136199
0.0135688
0.0135112
0.0134456
0.0133701
0.0132827
0.0131807
0.0130613
0.0129206
0.0127539
0.0125551
0.012317
0.0120317
0.0116914
0.0112895
0.0108216
0.0102895
0.0097063
0.00910711
0.00853092
0.0081214
0.00818405
0.00898661
0.0103949
0.01195
0.0132595
0.0141381
0.0145504
0.0145397
0.0141976
0.01363
0.0129525
0.0122769
0.0115774
0.0108516
0.0101141
0.00939225
0.00871993
0.00812871
0.00764009
0.00726132
0.00698609
0.00679914
0.0066818
0.00661623
0.0140749
0.0141183
0.0140788
0.0140307
0.014015
0.0139766
0.013977
0.0139634
0.0139356
0.0138963
0.0138417
0.0137957
0.0137519
0.0137105
0.0136679
0.013622
0.0135709
0.0135133
0.0134476
0.0133719
0.0132841
0.0131815
0.0130612
0.0129192
0.0127506
0.0125492
0.0123074
0.012017
0.0116699
0.0112588
0.0107789
0.0102318
0.00963064
0.00901157
0.00841156
0.00796878
0.00801581
0.00885488
0.0103533
0.0120037
0.013375
0.0142706
0.0146575
0.0145894
0.014167
0.0135124
0.0127617
0.0119987
0.0112045
0.0103856
0.00956692
0.00878691
0.00809046
0.0075133
0.00707194
0.00676202
0.00656359
0.00645042
0.00639779
0.00638997
0.0140733
0.0141172
0.0140777
0.0140298
0.0140145
0.0139767
0.0139782
0.0139647
0.013936
0.0138975
0.0138426
0.0137969
0.0137533
0.0137122
0.0136698
0.013624
0.013573
0.0135154
0.0134496
0.0133738
0.0132856
0.0131826
0.0130615
0.0129184
0.0127483
0.0125445
0.0122995
0.0120047
0.0116514
0.0112321
0.0107414
0.0101806
0.00956301
0.00892565
0.0083037
0.00782751
0.00785368
0.00871575
0.010293
0.0120342
0.0134699
0.0143887
0.0147582
0.0146391
0.0141403
0.0133979
0.0125681
0.0117146
0.0108226
0.00991787
0.00903273
0.00821703
0.00752262
0.00698465
0.00660928
0.00637594
0.00625069
0.00619987
0.00620289
0.00622753
0.0140719
0.0141162
0.0140767
0.014029
0.014014
0.0139768
0.0139787
0.0139658
0.0139364
0.0138987
0.0138434
0.0137981
0.0137545
0.0137137
0.0136715
0.0136259
0.013575
0.0135174
0.0134516
0.0133756
0.0132872
0.0131838
0.0130621
0.0129181
0.0127466
0.0125409
0.0122931
0.0119943
0.0116356
0.011209
0.0107086
0.0101353
0.00950261
0.00884846
0.00820671
0.00769895
0.00769812
0.00857169
0.0102158
0.0120427
0.0135456
0.0144944
0.0148553
0.0146932
0.0141232
0.0132933
0.0123791
0.0114342
0.010463
0.00948235
0.00853941
0.00769924
0.00702186
0.00653694
0.00623354
0.00607272
0.0060097
0.00601377
0.00604497
0.00609486
0.0140708
0.0141152
0.0140758
0.0140284
0.0140137
0.0139769
0.0139788
0.0139661
0.0139368
0.0138997
0.0138441
0.0137991
0.0137557
0.0137152
0.0136732
0.0136276
0.0135768
0.0135193
0.0134535
0.0133774
0.0132889
0.0131852
0.0130629
0.0129182
0.0127455
0.0125381
0.0122879
0.0119857
0.0116222
0.0111889
0.0106797
0.0100951
0.00944868
0.00877911
0.00811976
0.00758354
0.00755105
0.00842571
0.0101243
0.0120317
0.0136036
0.0145892
0.0149509
0.0147549
0.0141213
0.0132051
0.0122058
0.0111862
0.0101349
0.0090804
0.00808625
0.00723277
0.00658471
0.00615989
0.00592605
0.00582704
0.00582002
0.00585156
0.00590742
0.00597433
0.0140698
0.0141143
0.0140749
0.0140278
0.0140134
0.0139771
0.0139787
0.013966
0.0139372
0.0139007
0.0138448
0.0138001
0.0137569
0.0137166
0.0136747
0.0136293
0.0135786
0.0135211
0.0134553
0.0133792
0.0132905
0.0131866
0.0130639
0.0129186
0.0127449
0.012536
0.0122837
0.0119785
0.0116108
0.0111716
0.0106545
0.0100596
0.00940055
0.00871677
0.00804193
0.00747829
0.00741624
0.00828076
0.0100214
0.0120035
0.013645
0.0146737
0.0150451
0.0148255
0.0141359
0.0131351
0.0120682
0.0109719
0.00984065
0.00871512
0.00767562
0.00681711
0.00620505
0.00584027
0.00566874
0.00562346
0.00564726
0.00570438
0.0057772
0.00585592
0.0140689
0.0141135
0.0140741
0.0140273
0.0140133
0.0139772
0.0139784
0.0139658
0.0139375
0.0139016
0.0138454
0.0138009
0.0137579
0.0137178
0.0136761
0.0136308
0.0135802
0.0135228
0.0134571
0.0133809
0.0132922
0.013188
0.013065
0.0129191
0.0127446
0.0125345
0.0122804
0.0119725
0.011601
0.0111566
0.0106324
0.0100282
0.00935757
0.00866069
0.00797237
0.00738568
0.00729356
0.00813905
0.00991019
0.0119601
0.0136713
0.0147489
0.0151387
0.0149061
0.0141713
0.0130958
0.0119634
0.0107919
0.00958269
0.008389
0.00730828
0.00644908
0.00587385
0.00556289
0.00544039
0.00544151
0.0054877
0.00556164
0.00564634
0.00573362
0.0140682
0.0141128
0.0140734
0.0140269
0.0140133
0.0139773
0.0139782
0.0139656
0.0139379
0.0139024
0.013846
0.0138018
0.0137588
0.013719
0.0136774
0.0136322
0.0135817
0.0135244
0.0134587
0.0133826
0.0132937
0.0131894
0.0130662
0.0129198
0.0127447
0.0125335
0.0122778
0.0119676
0.0115928
0.0111437
0.010613
0.0100004
0.00931918
0.00861019
0.00790997
0.00730464
0.00718248
0.00800257
0.0097939
0.0119043
0.0136837
0.0148151
0.0152318
0.0149964
0.0142269
0.0130927
0.0118941
0.0106486
0.0093635
0.00810377
0.00698369
0.00612416
0.00558254
0.00531848
0.00523852
0.00526243
0.00532909
0.00541626
0.00551017
0.00560425
0.0140676
0.014112
0.0140727
0.0140266
0.0140137
0.0139772
0.0139779
0.0139653
0.0139383
0.0139032
0.0138465
0.0138025
0.0137597
0.01372
0.0136786
0.0136335
0.0135831
0.0135259
0.0134602
0.0133841
0.0132952
0.0131908
0.0130674
0.0129206
0.0127449
0.0125328
0.0122757
0.0119635
0.0115858
0.0111325
0.010596
0.00997579
0.00928488
0.00856467
0.00785365
0.00723251
0.00708241
0.00787336
0.00967542
0.0118385
0.0136835
0.0148729
0.015324
0.015095
0.0143012
0.0131201
0.0118588
0.0105427
0.00918449
0.00786031
0.00670028
0.00583671
0.00532091
0.00509299
0.00504703
0.0050878
0.00516868
0.00526545
0.00536644
0.00546617
0.014067
0.0141114
0.014072
0.0140263
0.0140142
0.013977
0.0139775
0.0139649
0.0139388
0.0139039
0.0138469
0.0138032
0.0137604
0.013721
0.0136796
0.0136347
0.0135844
0.0135273
0.0134616
0.0133855
0.0132967
0.0131922
0.0130685
0.0129215
0.0127452
0.0125324
0.0122741
0.0119602
0.0115798
0.0111228
0.0105811
0.00995398
0.00925424
0.00852365
0.00780273
0.00716831
0.00699224
0.00775252
0.00955719
0.0117653
0.0136737
0.0149226
0.0154148
0.0152001
0.0143939
0.0131755
0.0118586
0.0104746
0.00904667
0.00765922
0.00645679
0.00558262
0.00508257
0.00487867
0.00486153
0.00491383
0.00500353
0.0051071
0.00521366
0.00531825
0.0140666
0.0141108
0.0140715
0.014026
0.0140143
0.0139768
0.0139772
0.0139645
0.0139394
0.0139045
0.0138473
0.0138038
0.0137612
0.0137219
0.0136806
0.0136358
0.0135856
0.0135285
0.0134629
0.0133869
0.013298
0.0131934
0.0130697
0.0129224
0.0127457
0.0125323
0.0122729
0.0119574
0.0115747
0.0111143
0.0105681
0.00993467
0.00922685
0.00848668
0.00775664
0.00711116
0.00691103
0.00764069
0.00944118
0.0116868
0.0136548
0.0149638
0.0155011
0.015309
0.0145019
0.0132551
0.0118854
0.0104428
0.00895017
0.00750087
0.00625235
0.00535927
0.00486477
0.00467601
0.00467569
0.00473573
0.00483163
0.00494008
0.00505102
0.00515979
0.0140662
0.0141103
0.0140709
0.0140258
0.0140142
0.0139765
0.0139768
0.0139642
0.0139399
0.0139051
0.0138477
0.0138044
0.0137618
0.0137227
0.0136816
0.0136368
0.0135866
0.0135297
0.0134641
0.0133881
0.0132993
0.0131947
0.0130708
0.0129233
0.0127462
0.0125322
0.012272
0.0119551
0.0115704
0.0111071
0.0105566
0.00991755
0.00920238
0.00845336
0.00771488
0.00706017
0.00683832
0.00753816
0.0093289
0.0116047
0.0136281
0.014997
0.0155822
0.015419
0.0146218
0.0133556
0.0119388
0.010448
0.00889556
0.00738577
0.00608635
0.00516423
0.00466386
0.00448135
0.00448749
0.00455288
0.00465279
0.00476423
0.00487825
0.00499038
0.0140659
0.0141098
0.0140704
0.0140256
0.0140141
0.0139762
0.0139765
0.0139638
0.0139405
0.0139057
0.013848
0.0138049
0.0137624
0.0137234
0.0136824
0.0136378
0.0135876
0.0135307
0.0134653
0.0133893
0.0133004
0.0131958
0.0130719
0.0129242
0.0127468
0.0125323
0.0122713
0.0119533
0.0115667
0.0111007
0.0105465
0.00990237
0.00918051
0.00842336
0.00767704
0.00701472
0.00677343
0.00744483
0.00922148
0.0115209
0.0135947
0.0150218
0.0156574
0.0155285
0.0147504
0.0134729
0.0120141
0.0104817
0.00888298
0.00731443
0.00595886
0.00499641
0.00447772
0.00429173
0.00429902
0.00436583
0.00446694
0.00457999
0.00469557
0.00480986
0.0140656
0.0141095
0.01407
0.0140254
0.014014
0.0139759
0.0139761
0.0139634
0.0139409
0.0139062
0.0138483
0.0138053
0.0137629
0.0137241
0.0136831
0.0136386
0.0135885
0.0135317
0.0134663
0.0133904
0.0133015
0.0131969
0.0130729
0.012925
0.0127474
0.0125325
0.0122709
0.0119517
0.0115636
0.0110953
0.0105377
0.00988891
0.00916096
0.00839634
0.00764276
0.00697425
0.00671565
0.00736039
0.00911966
0.0114366
0.013556
0.0150383
0.0157258
0.0156355
0.0148844
0.0136036
0.0121072
0.0105427
0.00890676
0.0072874
0.00587058
0.00485621
0.00430654
0.00410753
0.00411021
0.00417566
0.0042748
0.00438716
0.00450314
0.00461835
0.0140653
0.0141092
0.0140696
0.0140253
0.0140138
0.0139756
0.0139758
0.013963
0.0139413
0.0139066
0.0138486
0.0138058
0.0137634
0.0137247
0.0136838
0.0136394
0.0135894
0.0135326
0.0134672
0.0133914
0.0133025
0.0131979
0.0130738
0.0129259
0.012748
0.0125328
0.0122705
0.0119505
0.0115609
0.0110905
0.0105299
0.00987696
0.00914349
0.00837201
0.00761168
0.00693824
0.00666433
0.00728436
0.00902388
0.0113532
0.0135133
0.0150474
0.0157861
0.0157382
0.0150207
0.0137445
0.0122133
0.0106275
0.00896386
0.00730263
0.00582235
0.00474497
0.00415176
0.00393084
0.00392141
0.00398348
0.00407791
0.00418721
0.00430155
0.00441651
0.0140651
0.0141089
0.0140692
0.0140252
0.0140136
0.0139753
0.0139754
0.0139626
0.0139417
0.013907
0.0138488
0.0138062
0.0137639
0.0137253
0.0136845
0.0136401
0.0135901
0.0135334
0.0134681
0.0133923
0.0133035
0.0131988
0.0130747
0.0129267
0.0127486
0.0125331
0.0122703
0.0119495
0.0115586
0.0110863
0.010523
0.00986636
0.00912788
0.00835011
0.00758351
0.00690619
0.00661901
0.00721615
0.00893435
0.0112715
0.0134679
0.0150499
0.0158396
0.0158364
0.0151557
0.0138931
0.0123262
0.0107327
0.00905208
0.00735469
0.00581701
0.00466462
0.00401507
0.0037632
0.00373469
0.00379105
0.00387846
0.00398204
0.00409218
0.00420442
0.0140649
0.0141088
0.0140689
0.0140251
0.0140134
0.013975
0.0139751
0.0139623
0.0139421
0.0139073
0.013849
0.0138065
0.0137643
0.0137258
0.013685
0.0136407
0.0135908
0.0135342
0.0134689
0.0133931
0.0133043
0.0131997
0.0130756
0.0129274
0.0127492
0.0125334
0.0122702
0.0119486
0.0115567
0.0110827
0.010517
0.00985694
0.00911393
0.0083304
0.00755797
0.00687768
0.00658069
0.00715509
0.00885108
0.0111922
0.013421
0.0150478
0.0158849
0.0159322
0.0152881
0.0140455
0.0124393
0.0108557
0.00916877
0.0074422
0.00584781
0.00461674
0.00389851
0.00360598
0.00355267
0.00360011
0.00367936
0.0037742
0.00387744
0.00398425
0.0140648
0.0141086
0.0140686
0.014025
0.0140132
0.0139748
0.0139748
0.0139619
0.0139423
0.0139074
0.0138492
0.0138068
0.0137646
0.0137262
0.0136855
0.0136413
0.0135914
0.0135348
0.0134696
0.0133939
0.0133051
0.0132005
0.0130763
0.0129281
0.0127498
0.0125337
0.0122702
0.0119479
0.011555
0.0110795
0.0105116
0.00984858
0.00910147
0.00831267
0.0075348
0.00685245
0.00654759
0.00710046
0.00877398
0.0111161
0.0133734
0.0150426
0.0159295
0.0160217
0.0154161
0.0141997
0.0125544
0.0109958
0.00930998
0.00756216
0.00591599
0.00460677
0.003805
0.00346079
0.00337828
0.0034132
0.00348142
0.00356643
0.00366018
0.00375844
0.0140646
0.0141085
0.0140683
0.0140249
0.014013
0.0139745
0.0139745
0.0139616
0.0139424
0.0139075
0.0138494
0.0138071
0.013765
0.0137266
0.013686
0.0136418
0.013592
0.0135355
0.0134703
0.0133945
0.0133058
0.0132012
0.013077
0.0129288
0.0127504
0.012534
0.0122702
0.0119474
0.0115535
0.0110768
0.0105069
0.00984114
0.00909033
0.0082967
0.0075138
0.00683007
0.0065184
0.0070517
0.00870282
0.0110434
0.0133259
0.0150346
0.0159674
0.0161043
0.0155387
0.0143558
0.0127014
0.0111524
0.00946981
0.00770926
0.00601901
0.00463115
0.00373763
0.00333162
0.00321518
0.00323272
0.00328726
0.00335997
0.00344239
0.00353044
0.0140645
0.0141084
0.0140681
0.0140249
0.0140128
0.0139742
0.0139742
0.0139613
0.0139425
0.0139076
0.0138495
0.0138074
0.0137653
0.013727
0.0136864
0.0136423
0.0135925
0.013536
0.0134709
0.0133952
0.0133065
0.0132019
0.0130777
0.0129294
0.0127509
0.0125344
0.0122702
0.0119469
0.0115523
0.0110743
0.0105027
0.00983453
0.00908037
0.00828233
0.0074948
0.00681008
0.00649247
0.00700818
0.00863733
0.0109743
0.013279
0.0150243
0.016
0.0161796
0.0156547
0.0145101
0.0128687
0.011318
0.0096409
0.00787701
0.00615344
0.00469087
0.00370162
0.00322155
0.00306488
0.00305994
0.00309948
0.003158
0.00322666
0.00330151
0.0140644
0.0141084
0.0140678
0.0140249
0.0140127
0.0139739
0.013974
0.013961
0.0139426
0.0139076
0.0138497
0.0138076
0.0137655
0.0137273
0.0136868
0.0136427
0.013593
0.0135365
0.0134714
0.0133958
0.0133071
0.0132025
0.0130783
0.01293
0.0127514
0.0125347
0.0122703
0.0119466
0.0115512
0.0110722
0.010499
0.00982865
0.00907147
0.00826938
0.00747759
0.00679216
0.00646941
0.00696938
0.00857718
0.010909
0.0132331
0.0150121
0.0160279
0.0162477
0.015763
0.0146585
0.0130489
0.0114845
0.00981583
0.00805824
0.00631425
0.00478628
0.00370244
0.00313279
0.00292953
0.00289542
0.00292006
0.00296297
0.00301567
0.00307442
0.0140643
0.0141083
0.0140677
0.0140249
0.0140125
0.0139737
0.0139737
0.0139607
0.0139426
0.0139075
0.0138498
0.0138078
0.0137658
0.0137277
0.0136872
0.0136431
0.0135934
0.013537
0.0134719
0.0133963
0.0133076
0.013203
0.0130789
0.0129305
0.0127518
0.012535
0.0122704
0.0119463
0.0115503
0.0110704
0.0104958
0.00982342
0.00906351
0.00825771
0.00746202
0.00677531
0.00644886
0.00693478
0.00852206
0.0108475
0.0131884
0.0149984
0.0160518
0.0163089
0.0158628
0.0147976
0.0132394
0.0116442
0.00998829
0.00824591
0.00649444
0.00491277
0.00373198
0.00306614
0.0028087
0.00274244
0.0027508
0.00277709
0.00281209
0.00285191
0.0140642
0.0141083
0.0140675
0.014025
0.0140123
0.0139735
0.0139735
0.0139605
0.0139426
0.0139075
0.0138499
0.013808
0.013766
0.0137279
0.0136875
0.0136434
0.0135938
0.0135374
0.0134724
0.0133968
0.0133081
0.0132035
0.0130794
0.012931
0.0127523
0.0125353
0.0122705
0.011946
0.0115495
0.0110687
0.0104929
0.00981877
0.00905641
0.0082472
0.00744793
0.00675939
0.00643055
0.00690392
0.00847162
0.0107899
0.0131454
0.0149838
0.0160726
0.0163644
0.015954
0.0149259
0.0134137
0.0117883
0.0101505
0.00843356
0.00668664
0.00506556
0.00379388
0.00302522
0.00270312
0.00260278
0.0025921
0.00260219
0.00261932
0.00263931
0.0140641
0.0141083
0.0140674
0.014025
0.0140121
0.0139733
0.0139733
0.0139603
0.0139426
0.0139075
0.01385
0.0138082
0.0137662
0.0137282
0.0136878
0.0136437
0.0135941
0.0135378
0.0134728
0.0133972
0.0133086
0.013204
0.0130799
0.0129314
0.0127527
0.0125356
0.0122706
0.0119459
0.0115488
0.0110673
0.0104904
0.00981463
0.00905005
0.00823773
0.0074352
0.00674491
0.00641421
0.0068764
0.00842553
0.010736
0.0131042
0.0149686
0.0160904
0.0164151
0.0160367
0.015043
0.0135688
0.0119146
0.0103011
0.00861318
0.00688418
0.00523855
0.00388777
0.00301629
0.00261268
0.00247724
0.00244402
0.00243769
0.00243764
0.00243777
0.0140641
0.0141083
0.0140673
0.014025
0.014012
0.0139731
0.0139731
0.01396
0.0139426
0.0139074
0.0138501
0.0138083
0.0137664
0.0137284
0.013688
0.013644
0.0135945
0.0135381
0.0134731
0.0133976
0.013309
0.0132044
0.0130803
0.0129318
0.012753
0.0125359
0.0122707
0.0119457
0.0115482
0.011066
0.0104881
0.00981095
0.00904438
0.00822918
0.0074237
0.00673182
0.00639964
0.00685183
0.00838347
0.0106858
0.013065
0.0149531
0.0161055
0.0164611
0.0161115
0.015149
0.0137062
0.0120235
0.0104401
0.00878293
0.00707777
0.00542459
0.00400917
0.00303461
0.0025411
0.00236399
0.00230554
0.00228138
0.00226372
0.00224376
0.014064
0.0141083
0.0140672
0.014025
0.0140118
0.0139729
0.013973
0.0139598
0.0139426
0.0139074
0.0138502
0.0138085
0.0137665
0.0137286
0.0136883
0.0136443
0.0135947
0.0135384
0.0134735
0.013398
0.0133094
0.0132048
0.0130807
0.0129322
0.0127534
0.0125362
0.0122708
0.0119456
0.0115477
0.011065
0.0104861
0.00980767
0.00903931
0.00822148
0.00741333
0.00672
0.00638664
0.00682988
0.00834511
0.0106392
0.0130277
0.0149374
0.0161181
0.0165028
0.0161788
0.0152447
0.013828
0.0121193
0.0105686
0.00894157
0.00726315
0.00561571
0.00415244
0.00307943
0.00248839
0.00226158
0.00217293
0.00212506
0.00208494
0.0020519
0.014064
0.0141083
0.0140672
0.0140249
0.0140117
0.0139727
0.0139728
0.0139597
0.0139426
0.0139074
0.0138503
0.0138086
0.0137667
0.0137288
0.0136885
0.0136445
0.013595
0.0135387
0.0134738
0.0133983
0.0133097
0.0132052
0.013081
0.0129326
0.0127537
0.0125364
0.012271
0.0119455
0.0115473
0.011064
0.0104843
0.00980476
0.00903478
0.00821453
0.00740398
0.00670934
0.00637506
0.00681027
0.00831016
0.010596
0.0129926
0.0149218
0.0161286
0.0165406
0.0162392
0.0153309
0.0139367
0.0122158
0.0106877
0.00908846
0.00743801
0.00580293
0.00431151
0.0031513
0.00245924
0.0021719
0.00205129
0.00198905
0.0019372
0.00188373
0.0140639
0.0141083
0.0140671
0.0140249
0.0140116
0.0139725
0.0139726
0.0139595
0.0139426
0.0139073
0.0138503
0.0138087
0.0137668
0.013729
0.0136887
0.0136447
0.0135952
0.013539
0.0134741
0.0133986
0.01331
0.0132055
0.0130814
0.0129329
0.012754
0.0125367
0.0122711
0.0119455
0.011547
0.0110632
0.0104828
0.00980217
0.00903074
0.00820825
0.00739555
0.00669972
0.00636475
0.00679272
0.00827833
0.010556
0.0129595
0.0149065
0.0161372
0.0165749
0.0162932
0.0154086
0.0140348
0.0123113
0.0107976
0.00922343
0.00760097
0.00598292
0.00447584
0.00324748
0.00246122
0.00209661
0.0019529
0.00187398
0.00180469
0.00172769
0.0140639
0.0141083
0.0140671
0.0140249
0.0140115
0.0139724
0.0139725
0.0139593
0.0139426
0.0139073
0.0138504
0.0138088
0.0137669
0.0137291
0.0136888
0.0136449
0.0135955
0.0135392
0.0134743
0.0133988
0.0133103
0.0132058
0.0130817
0.0129332
0.0127543
0.0125369
0.0122712
0.0119455
0.0115467
0.0110624
0.0104814
0.00979988
0.00902714
0.00820259
0.00738795
0.00669105
0.00635555
0.00677701
0.00824937
0.0105192
0.0129286
0.0148917
0.0161442
0.0166052
0.0163416
0.0154781
0.0141239
0.0124037
0.0108986
0.0093467
0.0077514
0.0061532
0.00463986
0.00335814
0.00248179
0.00204272
0.00187018
0.0017713
0.00168241
0.0015797
0.0140639
0.0141083
0.014067
0.0140248
0.0140113
0.0139722
0.0139724
0.0139592
0.0139426
0.0139073
0.0138504
0.0138089
0.013767