/*--------------------------------*- C++ -*----------------------------------*\
  =========                 |
  \\      /  F ield         | OpenFOAM: The Open Source CFD Toolbox
   \\    /   O peration     | Website:  https://openfoam.org
    \\  /    A nd           | Version:  9
     \\/     M anipulation  |
\*---------------------------------------------------------------------------*/
FoamFile
{
    format      ascii;
    class       volScalarField;
    location    "0.0025";
    object      nuTilda;
}
// * * * * * * * * * * * * * * * * * * * * * * * * * * * * * * * * * * * * * //

dimensions      [0 2 -1 0 0 0 0];

internalField   nonuniform List<scalar> 
5373
(
0.0139761
0.0139481
0.0139481
0.0139481
0.0139481
0.0139133
0.0139133
0.0139133
0.0139132
0.0139132
0.0139132
0.01388
0.01388
0.01388
0.01388
0.01388
0.01388
0.01388
0.01388
0.0138427
0.0138427
0.0138427
0.0138427
0.0138427
0.0138427
0.0138427
0.0138427
0.0138427
0.0138045
0.0138045
0.0138045
0.0138045
0.0138045
0.0138045
0.0138046
0.0138046
0.0138046
0.0138046
0.0138046
0.0137596
0.0137597
0.0137598
0.0137598
0.0137599
0.01376
0.0137601
0.0137602
0.0137603
0.0137605
0.0137606
0.013706
0.0137062
0.0137064
0.0137066
0.0137068
0.013707
0.0137073
0.0137075
0.0137077
0.0137079
0.0137081
0.0137083
0.0136423
0.0136426
0.0136429
0.0136432
0.0136435
0.0136438
0.0136441
0.0136444
0.0136447
0.0136449
0.0136452
0.0136455
0.0136458
0.0135668
0.0135672
0.0135676
0.013568
0.0135684
0.0135688
0.0135691
0.0135695
0.0135699
0.0135702
0.0135706
0.013571
0.0135713
0.0134765
0.013477
0.0134775
0.013478
0.0134785
0.013479
0.0134794
0.0134799
0.0134804
0.0134809
0.0134813
0.0134818
0.0134822
0.0134827
0.0133689
0.0133696
0.0133702
0.0133708
0.0133714
0.0133721
0.0133727
0.0133733
0.0133739
0.0133745
0.013375
0.0133756
0.0133762
0.0133768
0.0132389
0.0132397
0.0132405
0.0132413
0.0132421
0.0132429
0.0132436
0.0132444
0.0132452
0.0132459
0.0132466
0.0132474
0.0132481
0.0132488
0.0132495
0.013083
0.013084
0.013085
0.013086
0.0130869
0.0130879
0.0130888
0.0130898
0.0130907
0.0130916
0.0130925
0.0130934
0.0130942
0.0130951
0.013096
0.0128948
0.012896
0.0128971
0.0128983
0.0128994
0.0129006
0.0129017
0.0129028
0.0129038
0.0129049
0.012906
0.012907
0.012908
0.012909
0.01291
0.0126672
0.0126685
0.0126699
0.0126712
0.0126725
0.0126738
0.012675
0.0126763
0.0126775
0.0126787
0.0126799
0.012681
0.0126822
0.0126833
0.0126844
0.0123925
0.012394
0.0123955
0.0123969
0.0123983
0.0123997
0.0124011
0.0124024
0.0124037
0.012405
0.0124062
0.0124075
0.0124087
0.0124098
0.012411
0.0120613
0.0120629
0.0120644
0.0120659
0.0120674
0.0120688
0.0120702
0.0120715
0.0120728
0.0120741
0.0120753
0.0120765
0.0120777
0.0120788
0.0120799
0.012081
0.0116696
0.0116711
0.0116725
0.0116738
0.0116751
0.0116763
0.0116775
0.0116787
0.0116798
0.0116808
0.0116818
0.0116828
0.0116837
0.0116846
0.0116854
0.0116861
0.011211
0.0112121
0.0112131
0.0112141
0.011215
0.0112159
0.0112167
0.0112174
0.011218
0.0112186
0.0112191
0.0112195
0.0112199
0.0112202
0.0112205
0.0112208
0.0106872
0.0106875
0.0106878
0.010688
0.0106881
0.0106882
0.0106882
0.0106881
0.010688
0.0106878
0.0106874
0.010687
0.0106864
0.0106857
0.0106851
0.0106843
0.01011
0.0101093
0.0101085
0.0101076
0.0101066
0.0101056
0.0101044
0.0101031
0.0101016
0.0101
0.0100982
0.0100964
0.0100944
0.0100923
0.0100901
0.0100877
0.00951157
0.0095094
0.00950714
0.00950478
0.00950226
0.00949953
0.00949665
0.00949362
0.00949045
0.00948715
0.00948371
0.00948014
0.00947643
0.00947259
0.00946861
0.00946449
0.00896655
0.00896318
0.00895964
0.00895596
0.00895212
0.00894814
0.008944
0.00893971
0.00893527
0.00893067
0.0089259
0.00892098
0.00891588
0.00891062
0.00890518
0.00889957
0.00861111
0.00860934
0.0086076
0.00860587
0.00860413
0.00860238
0.0086006
0.00859878
0.00859688
0.00859488
0.00859273
0.00859041
0.00858787
0.00858509
0.00858207
0.00857885
0.00855074
0.00854772
0.00854431
0.00854053
0.00853638
0.00853205
0.0085276
0.00852304
0.00851838
0.00851363
0.00850881
0.00850391
0.00849895
0.00849392
0.00848873
0.00848344
0.00865095
0.00865061
0.00865047
0.00865054
0.0086508
0.0086513
0.00865177
0.00865213
0.00865236
0.00865246
0.00865242
0.00865227
0.00865201
0.00865163
0.00865115
0.00865057
0.00892873
0.00893302
0.0089373
0.00894158
0.00894586
0.00895013
0.00895438
0.00895861
0.00896281
0.00896699
0.00897116
0.00897533
0.0089795
0.00898368
0.00898789
0.00899213
0.00921078
0.00921907
0.00922731
0.00923552
0.00924372
0.00925193
0.00926014
0.00926838
0.00927664
0.00928494
0.00929328
0.00930166
0.0093101
0.00931861
0.0093272
0.00933588
0.00936111
0.00937229
0.00938339
0.00939445
0.00940549
0.00941652
0.00942755
0.00943858
0.00944962
0.00946067
0.00947174
0.00948283
0.00949394
0.00950508
0.00951625
0.00952749
0.00929227
0.00930493
0.00931748
0.00932996
0.00934238
0.00935473
0.00936703
0.00937927
0.00939144
0.00940356
0.00941561
0.00942759
0.0094395
0.00945134
0.00946312
0.00947484
0.00897164
0.00898486
0.00899793
0.00901087
0.00902366
0.0090363
0.00904879
0.00906112
0.00907327
0.00908523
0.00909698
0.00910851
0.00911979
0.00913081
0.00914154
0.00915199
0.00840118
0.00841472
0.0084282
0.00844155
0.00845446
0.00846704
0.00847932
0.00849129
0.00850294
0.00851426
0.0085252
0.00853575
0.00854585
0.00855548
0.00856459
0.00857337
0.00760968
0.00762305
0.00763636
0.0076496
0.00766271
0.00767569
0.0076881
0.0076999
0.00771117
0.00772194
0.00773217
0.00774181
0.00775078
0.00775913
0.00776732
0.00777511
0.00664302
0.00665595
0.00666891
0.00668186
0.00669476
0.00670754
0.00672013
0.00673216
0.00674334
0.00675384
0.00676365
0.00677273
0.00678095
0.00678901
0.00679662
0.00680355
0.00558367
0.00559526
0.00560698
0.00561877
0.00563057
0.00564231
0.00565394
0.00566538
0.00567602
0.00568578
0.0056948
0.005703
0.00571062
0.00571798
0.00572464
0.00573037
0.00456537
0.0045744
0.00458358
0.00459285
0.00460214
0.00461138
0.0046205
0.00462942
0.00463802
0.00464554
0.00465217
0.00465794
0.00466354
0.00466863
0.00467282
0.00467583
0.00366645
0.00367313
0.00367995
0.00368683
0.00369372
0.00370053
0.00370719
0.00371361
0.00371968
0.00372503
0.00372924
0.00373279
0.00373606
0.00373858
0.00373999
0.00373996
0.00289068
0.00289552
0.00290047
0.00290547
0.00291046
0.00291536
0.0029201
0.00292459
0.00292871
0.00293234
0.00293488
0.00293691
0.00293848
0.00293918
0.00293851
0.00293583
0.00223021
0.00223365
0.00223717
0.00224073
0.00224427
0.00224773
0.00225104
0.00225412
0.00225687
0.0022592
0.00226067
0.00226172
0.00226219
0.00226165
0.00225956
0.00225556
0.00167532
0.00167769
0.00168014
0.00168261
0.00168507
0.00168746
0.00168973
0.0016918
0.00169361
0.00169505
0.00169587
0.0016963
0.0016961
0.00169482
0.00169216
0.00168773
0.00121573
0.00121731
0.00121895
0.00122062
0.00122228
0.00122389
0.0012254
0.00122677
0.00122793
0.00122881
0.00122923
0.00122932
0.00122876
0.00122727
0.0012246
0.00122035
0.000841392
0.000842384
0.000843427
0.000844496
0.000845564
0.000846602
0.000847579
0.000848456
0.000849185
0.00084971
0.000849925
0.000849841
0.000849212
0.000847848
0.000845517
0.000841829
0.000543063
0.000543613
0.000544204
0.000544821
0.000545447
0.000546062
0.000546645
0.000547171
0.000547607
0.000547912
0.000548022
0.0005479
0.000547388
0.000546328
0.000544537
0.000541649
0.000313298
0.00031347
0.000313677
0.000313911
0.000314163
0.000314422
0.000314676
0.000314913
0.000315112
0.00031525
0.000315291
0.000315194
0.000314866
0.000314192
0.000313046
0.000311128
0.000164484
0.000163313
0.000162144
0.000160991
0.000159869
0.000158799
0.000157781
0.000156836
0.000155982
0.000155239
0.0001546
0.000154064
0.000153608
0.000153297
0.000153236
0.000153012
4.27275e-05
4.26651e-05
4.2566e-05
4.24174e-05
4.2185e-05
4.185e-05
4.14191e-05
4.09112e-05
4.0343e-05
3.97293e-05
3.90815e-05
3.83897e-05
3.75959e-05
3.66861e-05
3.61471e-05
3.87964e-05
0.0140109
0.0140111
0.0140112
0.0140113
0.0140114
0.0140115
0.0140116
0.0140117
0.0140118
0.0140119
0.014012
0.0140121
0.0140122
0.0140123
0.0140124
0.0140125
0.0140126
0.0140127
0.0140128
0.0140129
0.014013
0.0140131
0.0140132
0.0140133
0.0140134
0.0140135
0.0140136
0.0140137
0.0140138
0.0140139
0.014014
0.0140141
0.0140142
0.0140143
0.0140144
0.0140145
0.0140146
0.0140147
0.0140148
0.0140149
0.014015
0.0140151
0.0140152
0.0140153
0.0140154
0.0140155
0.0140156
0.0140157
0.0140158
0.0140182
0.0140181
0.014018
0.0140178
0.0140177
0.0140175
0.0140174
0.0140172
0.014017
0.0140169
0.0140167
0.0140165
0.0140163
0.0140161
0.014016
0.0140158
0.0140156
0.0140154
0.0140152
0.0140149
0.0140147
0.0140145
0.0140143
0.014014
0.0140138
0.0140136
0.0140133
0.0140131
0.0140128
0.0140126
0.0140123
0.0140121
0.0140118
0.0140115
0.0140112
0.0140109
0.0140107
0.0140104
0.0140101
0.0140098
0.0140095
0.0140091
0.0140088
0.0140085
0.0140082
0.0140078
0.0140075
0.0140071
0.0140068
0.0140046
0.0140044
0.0140042
0.0140041
0.014004
0.0140038
0.0140037
0.0140036
0.0140034
0.0140033
0.0140032
0.014003
0.0140029
0.0140028
0.0140026
0.0140025
0.0140024
0.0140022
0.0140021
0.014002
0.0140018
0.0140017
0.0140016
0.0140014
0.0140013
0.0140012
0.014001
0.0140009
0.0140008
0.0140006
0.0140005
0.0140004
0.0140002
0.0140001
0.014
0.0139998
0.0139997
0.0139995
0.0139994
0.0139993
0.0139991
0.013999
0.0139988
0.0139987
0.0139985
0.0139984
0.0139983
0.0139981
0.013998
0.0139978
0.0139761
0.013976
0.0139761
0.0139763
0.0139764
0.0139766
0.0139768
0.013977
0.0139771
0.0139771
0.013977
0.013977
0.0139769
0.0139768
0.0139766
0.0139765
0.0139763
0.0139762
0.013976
0.0139759
0.0139757
0.0139755
0.0139753
0.0139751
0.0139749
0.0139748
0.0139746
0.0139744
0.0139741
0.0139739
0.0139737
0.0139735
0.0139733
0.0139731
0.0139729
0.0139726
0.0139724
0.0139722
0.013972
0.0139717
0.0139715
0.0139713
0.0139711
0.0139708
0.0139706
0.0139704
0.0139701
0.0139699
0.0139697
0.0139694
0.013948
0.0139478
0.0139475
0.0139473
0.0139471
0.0139469
0.0139467
0.0139465
0.0139464
0.0139462
0.013946
0.0139459
0.0139458
0.0139457
0.0139456
0.0139455
0.0139456
0.0139457
0.013946
0.0139462
0.0139464
0.0139466
0.0139469
0.0139471
0.0139474
0.0139476
0.0139478
0.0139481
0.0139483
0.0139485
0.0139488
0.013949
0.0139493
0.0139495
0.0139497
0.01395
0.0139502
0.0139505
0.0139506
0.0139506
0.0139506
0.0139505
0.0139505
0.0139504
0.0139503
0.0139501
0.01395
0.0139498
0.0139497
0.0139495
0.0139131
0.0139129
0.0139128
0.0139127
0.0139126
0.0139128
0.0139131
0.0139134
0.0139137
0.013914
0.0139143
0.0139146
0.0139149
0.0139153
0.0139156
0.0139159
0.0139162
0.0139166
0.0139169
0.0139172
0.0139175
0.0139178
0.0139182
0.0139185
0.0139186
0.0139186
0.0139186
0.0139185
0.0139183
0.0139182
0.013918
0.0139179
0.0139177
0.0139176
0.0139177
0.0139179
0.0139182
0.0139185
0.0139188
0.0139191
0.0139195
0.0139198
0.0139201
0.0139204
0.0139207
0.0139211
0.0139214
0.0139217
0.013922
0.0139224
0.01388
0.0138803
0.0138807
0.0138811
0.0138815
0.0138819
0.0138823
0.0138828
0.0138832
0.0138836
0.0138837
0.013884
0.0138843
0.0138847
0.0138852
0.0138856
0.013886
0.0138864
0.0138869
0.0138873
0.0138877
0.0138881
0.0138886
0.013889
0.0138894
0.0138898
0.0138903
0.0138907
0.0138908
0.0138908
0.0138908
0.0138906
0.0138905
0.0138903
0.0138903
0.0138904
0.0138908
0.0138912
0.0138916
0.013892
0.0138924
0.0138929
0.0138933
0.0138937
0.0138941
0.0138946
0.013895
0.0138954
0.0138958
0.0138963
0.0138427
0.0138431
0.0138436
0.0138442
0.0138447
0.0138452
0.0138458
0.0138463
0.0138468
0.0138471
0.0138475
0.013848
0.0138486
0.0138491
0.0138497
0.0138502
0.0138508
0.0138513
0.0138518
0.0138524
0.0138529
0.0138535
0.013854
0.0138546
0.0138551
0.0138557
0.0138562
0.0138568
0.0138573
0.0138579
0.0138585
0.013859
0.0138596
0.0138601
0.0138607
0.0138612
0.0138618
0.0138624
0.0138629
0.0138635
0.013864
0.0138646
0.0138652
0.0138657
0.0138663
0.0138669
0.0138674
0.013868
0.0138685
0.0138691
0.0138048
0.0138053
0.013806
0.0138067
0.0138074
0.0138081
0.0138088
0.0138095
0.0138102
0.0138109
0.0138116
0.0138123
0.013813
0.0138137
0.0138145
0.0138152
0.0138159
0.0138166
0.0138173
0.013818
0.0138188
0.0138195
0.0138202
0.0138209
0.0138216
0.0138224
0.0138231
0.0138238
0.0138245
0.0138252
0.013826
0.0138267
0.0138274
0.0138282
0.0138289
0.0138296
0.0138303
0.0138311
0.0138318
0.0138325
0.0138333
0.013834
0.0138347
0.0138355
0.0138362
0.0138369
0.0138377
0.0138384
0.0138391
0.0138399
0.0137609
0.0137617
0.0137626
0.0137635
0.0137644
0.0137653
0.0137662
0.0137671
0.013768
0.0137689
0.0137699
0.0137708
0.0137717
0.0137726
0.0137735
0.0137745
0.0137754
0.0137763
0.0137772
0.0137782
0.0137791
0.01378
0.013781
0.0137819
0.0137829
0.0137838
0.0137847
0.0137857
0.0137866
0.0137876
0.0137885
0.0137895
0.0137904
0.0137914
0.0137923
0.0137933
0.0137942
0.0137952
0.0137961
0.0137971
0.013798
0.013799
0.0137999
0.0138009
0.0138019
0.0138028
0.0138038
0.0138048
0.0138057
0.0138067
0.0137088
0.0137098
0.0137109
0.013712
0.0137132
0.0137144
0.0137156
0.0137167
0.0137179
0.0137191
0.0137203
0.0137215
0.0137227
0.0137239
0.0137251
0.0137263
0.0137275
0.0137287
0.0137299
0.0137311
0.0137323
0.0137335
0.0137347
0.0137359
0.0137372
0.0137384
0.0137396
0.0137408
0.0137421
0.0137433
0.0137445
0.0137458
0.013747
0.0137482
0.0137495
0.0137507
0.013752
0.0137532
0.0137545
0.0137557
0.013757
0.0137582
0.0137595
0.0137607
0.013762
0.0137633
0.0137645
0.0137658
0.0137671
0.0137683
0.0136463
0.0136476
0.0136491
0.0136506
0.0136521
0.0136536
0.0136551
0.0136566
0.0136581
0.0136597
0.0136612
0.0136627
0.0136643
0.0136658
0.0136673
0.0136689
0.0136704
0.013672
0.0136736
0.0136751
0.0136767
0.0136783
0.0136798
0.0136814
0.013683
0.0136846
0.0136862
0.0136878
0.0136894
0.013691
0.0136926
0.0136942
0.0136958
0.0136975
0.0136991
0.0137007
0.0137023
0.013704
0.0137056
0.0137072
0.0137089
0.0137105
0.0137122
0.0137139
0.0137155
0.0137172
0.0137189
0.0137206
0.0137223
0.013724
0.013572
0.0135737
0.0135755
0.0135774
0.0135793
0.0135812
0.0135832
0.0135851
0.0135871
0.013589
0.013591
0.0135929
0.0135949
0.0135969
0.0135989
0.0136009
0.0136029
0.0136049
0.0136069
0.0136089
0.0136109
0.013613
0.013615
0.013617
0.0136191
0.0136212
0.0136232
0.0136253
0.0136274
0.0136295
0.0136316
0.0136337
0.0136358
0.0136379
0.01364
0.0136421
0.0136443
0.0136464
0.0136486
0.0136507
0.0136529
0.0136551
0.0136573
0.0136595
0.0136617
0.0136639
0.0136662
0.0136684
0.0136707
0.0136729
0.0134836
0.0134857
0.013488
0.0134904
0.0134928
0.0134952
0.0134977
0.0135001
0.0135026
0.0135051
0.0135076
0.0135101
0.0135126
0.0135151
0.0135176
0.0135202
0.0135227
0.0135253
0.0135279
0.0135305
0.0135331
0.0135357
0.0135384
0.013541
0.0135436
0.0135463
0.013549
0.0135517
0.0135544
0.0135571
0.0135598
0.0135625
0.0135653
0.013568
0.0135708
0.0135736
0.0135764
0.0135793
0.0135821
0.013585
0.0135879
0.0135908
0.0135937
0.0135966
0.0135995
0.0136025
0.0136054
0.0136084
0.0136113
0.0136143
0.0133778
0.0133804
0.0133833
0.0133863
0.0133893
0.0133924
0.0133955
0.0133985
0.0134016
0.0134048
0.0134079
0.0134111
0.0134142
0.0134174
0.0134207
0.0134239
0.0134272
0.0134304
0.0134337
0.0134371
0.0134404
0.0134437
0.0134471
0.0134505
0.0134539
0.0134574
0.0134608
0.0134643
0.0134678
0.0134713
0.0134748
0.0134784
0.013482
0.0134857
0.0134893
0.013493
0.0134967
0.0135005
0.0135042
0.013508
0.0135118
0.0135156
0.0135194
0.0135233
0.0135272
0.0135311
0.013535
0.0135389
0.0135428
0.0135468
0.0132508
0.013254
0.0132576
0.0132612
0.0132649
0.0132687
0.0132725
0.0132763
0.0132802
0.0132841
0.013288
0.0132919
0.0132959
0.0132999
0.013304
0.0133081
0.0133122
0.0133163
0.0133205
0.0133247
0.013329
0.0133333
0.0133376
0.0133419
0.0133463
0.0133507
0.0133552
0.0133597
0.0133642
0.0133688
0.0133734
0.0133781
0.0133828
0.0133876
0.0133924
0.0133972
0.0134021
0.013407
0.013412
0.013417
0.013422
0.0134271
0.0134322
0.0134373
0.0134424
0.0134476
0.0134528
0.013458
0.0134633
0.0134685
0.0130975
0.0131013
0.0131056
0.0131101
0.0131146
0.0131191
0.0131237
0.0131284
0.0131331
0.0131379
0.0131427
0.0131476
0.0131526
0.0131576
0.0131626
0.0131677
0.0131729
0.0131781
0.0131834
0.0131888
0.0131941
0.0131996
0.0132051
0.0132106
0.0132163
0.0132219
0.0132276
0.0132334
0.0132393
0.0132453
0.0132514
0.0132575
0.0132637
0.0132699
0.0132763
0.0132827
0.0132891
0.0132956
0.0133022
0.0133088
0.0133155
0.0133222
0.013329
0.0133358
0.0133427
0.0133496
0.0133566
0.0133635
0.0133706
0.0133776
0.0129117
0.0129162
0.0129213
0.0129265
0.0129318
0.0129373
0.0129428
0.0129484
0.0129541
0.0129599
0.0129657
0.0129717
0.0129777
0.0129839
0.0129901
0.0129965
0.0130029
0.0130094
0.013016
0.0130227
0.0130295
0.0130364
0.0130434
0.0130504
0.0130576
0.0130649
0.0130722
0.0130797
0.0130874
0.0130952
0.0131031
0.0131111
0.0131192
0.0131275
0.0131358
0.0131443
0.0131528
0.0131615
0.0131702
0.0131791
0.013188
0.013197
0.0132061
0.0132152
0.0132245
0.0132337
0.0132431
0.0132525
0.0132619
0.0132714
0.0126863
0.0126914
0.0126971
0.012703
0.0127092
0.0127154
0.0127218
0.0127284
0.0127351
0.0127419
0.0127489
0.012756
0.0127633
0.0127707
0.0127783
0.012786
0.0127939
0.012802
0.0128102
0.0128185
0.012827
0.0128356
0.0128444
0.0128534
0.0128625
0.0128718
0.0128812
0.012891
0.0129009
0.012911
0.0129213
0.0129318
0.0129425
0.0129534
0.0129645
0.0129757
0.0129871
0.0129987
0.0130104
0.0130222
0.0130342
0.0130463
0.0130585
0.0130709
0.0130833
0.0130959
0.0131085
0.0131212
0.0131339
0.0131467
0.0124129
0.0124184
0.0124245
0.012431
0.0124377
0.0124447
0.0124518
0.0124592
0.0124668
0.0124747
0.0124827
0.012491
0.0124996
0.0125084
0.0125174
0.0125267
0.0125362
0.012546
0.012556
0.0125663
0.0125768
0.0125875
0.0125985
0.0126098
0.0126213
0.012633
0.0126452
0.0126576
0.0126704
0.0126836
0.012697
0.0127108
0.0127249
0.0127393
0.012754
0.012769
0.0127842
0.0127997
0.0128155
0.0128314
0.0128476
0.012864
0.0128806
0.0128973
0.0129142
0.0129312
0.0129484
0.0129656
0.0129829
0.0130003
0.0120828
0.0120881
0.0120942
0.0121007
0.0121076
0.0121148
0.0121223
0.0121302
0.0121384
0.012147
0.012156
0.0121653
0.012175
0.0121851
0.0121955
0.0122064
0.0122176
0.0122292
0.0122412
0.0122536
0.0122664
0.0122796
0.0122931
0.0123071
0.0123215
0.0123363
0.0123516
0.0123675
0.012384
0.0124009
0.0124184
0.0124364
0.012455
0.012474
0.0124935
0.0125135
0.012534
0.0125548
0.0125761
0.0125977
0.0126197
0.012642
0.0126645
0.0126874
0.0127104
0.0127337
0.0127571
0.0127806
0.0128042
0.012828
0.0116875
0.0116918
0.011697
0.0117027
0.0117089
0.0117156
0.0117228
0.0117305
0.0117387
0.0117475
0.0117568
0.0117667
0.0117771
0.0117881
0.0117996
0.0118118
0.0118245
0.0118379
0.0118518
0.0118664
0.0118815
0.0118973
0.0119137
0.0119308
0.0119485
0.0119667
0.0119858
0.0120057
0.0120265
0.0120482
0.0120707
0.0120941
0.0121184
0.0121434
0.0121693
0.012196
0.0122233
0.0122514
0.0122802
0.0123095
0.0123395
0.0123699
0.0124008
0.0124321
0.0124637
0.0124956
0.0125277
0.0125599
0.0125923
0.0126248
0.0112212
0.0112232
0.011226
0.0112295
0.0112338
0.0112388
0.0112444
0.0112508
0.011258
0.0112659
0.0112746
0.011284
0.0112943
0.0113054
0.0113173
0.01133
0.0113437
0.0113582
0.0113736
0.0113899
0.0114071
0.0114253
0.0114445
0.0114646
0.0114857
0.0115078
0.0115309
0.0115553
0.011581
0.0116082
0.0116367
0.0116666
0.0116979
0.0117305
0.0117645
0.0117998
0.0118363
0.011874
0.0119128
0.0119526
0.0119933
0.0120349
0.0120773
0.0121202
0.0121637
0.0122076
0.0122518
0.0122962
0.0123407
0.0123852
0.0106832
0.0106814
0.0106803
0.0106802
0.0106808
0.0106823
0.0106847
0.0106881
0.0106925
0.0106979
0.0107044
0.0107119
0.0107205
0.0107302
0.010741
0.0107531
0.0107663
0.0107807
0.0107964
0.0108134
0.0108318
0.0108515
0.0108726
0.0108952
0.0109193
0.0109448
0.0109716
0.0110003
0.0110309
0.0110638
0.0110988
0.0111359
0.0111753
0.0112169
0.0112607
0.0113066
0.0113545
0.0114045
0.0114563
0.0115099
0.0115651
0.0116217
0.0116795
0.0117384
0.0117982
0.0118586
0.0119194
0.0119805
0.0120416
0.0121027
0.0100845
0.0100769
0.0100698
0.0100637
0.0100586
0.0100547
0.010052
0.0100505
0.0100503
0.0100511
0.0100531
0.0100564
0.010061
0.0100671
0.0100747
0.0100837
0.0100942
0.0101064
0.0101202
0.0101358
0.0101532
0.0101725
0.0101938
0.0102171
0.0102425
0.0102702
0.0102995
0.0103311
0.0103656
0.0104033
0.0104441
0.0104883
0.0105358
0.0105868
0.0106413
0.0106992
0.0107606
0.0108252
0.010893
0.0109638
0.0110374
0.0111134
0.0111916
0.0112717
0.0113533
0.0114359
0.0115194
0.0116031
0.0116869
0.0117704
0.00945874
0.00944376
0.00942885
0.00941495
0.00940222
0.0093907
0.00938039
0.00937131
0.00936349
0.00935697
0.00935179
0.0093481
0.00934591
0.00934527
0.00934612
0.00934854
0.00935272
0.00935888
0.00936711
0.0093775
0.00939018
0.00940529
0.00942299
0.00944344
0.00946679
0.0094932
0.00952282
0.00955443
0.00958974
0.00962926
0.00967329
0.00972208
0.00977585
0.00983479
0.00989902
0.00996861
0.0100436
0.0101239
0.0102095
0.0103001
0.0103954
0.010495
0.0105986
0.0107054
0.010815
0.0109267
0.0110399
0.0111538
0.0112678
0.0113813
0.00889169
0.00886982
0.00884691
0.00882464
0.00880338
0.00878313
0.00876374
0.00874519
0.00872752
0.00871078
0.00869502
0.00868033
0.00866676
0.00865441
0.0086434
0.00863386
0.00862596
0.00861988
0.00861582
0.00861418
0.00861496
0.00861826
0.00862469
0.00863453
0.00864804
0.00866554
0.00868738
0.0087131
0.00874222
0.00877645
0.00881654
0.00886313
0.00891676
0.00897789
0.00904685
0.00912378
0.00920892
0.00930245
0.00940438
0.00951457
0.00963268
0.00975822
0.00989059
0.010029
0.0101725
0.0103202
0.0104708
0.0106232
0.0107762
0.0109288
0.00857471
0.00856309
0.00853616
0.00850535
0.00847692
0.00845233
0.00842725
0.00840123
0.00837444
0.00834703
0.00831915
0.00829094
0.00826253
0.00823407
0.00820571
0.00817763
0.00815
0.00812298
0.00809677
0.00807161
0.00804788
0.00802601
0.00800643
0.00798958
0.00797578
0.00796546
0.00795919
0.00795775
0.00795932
0.00796588
0.00797944
0.00800189
0.00803544
0.00808085
0.00814047
0.0082116
0.0082946
0.00839038
0.00849984
0.00862312
0.00875955
0.00890851
0.00906933
0.00924092
0.00942195
0.00961084
0.00980583
0.010005
0.0102064
0.010408
0.00847601
0.00845364
0.0084266
0.00840241
0.00837956
0.00835269
0.008322
0.00828787
0.0082506
0.00821045
0.00816761
0.00812227
0.00807466
0.00802504
0.00797372
0.0079211
0.00786762
0.00781384
0.00776039
0.00770793
0.00765575
0.00760396
0.00755314
0.00750411
0.00745825
0.00741676
0.00738056
0.00735041
0.00732698
0.00730768
0.00729454
0.00728878
0.00729156
0.00730138
0.00732381
0.00735926
0.0074084
0.00747326
0.00756119
0.00767698
0.00781554
0.0079748
0.00815506
0.00835462
0.00857123
0.0088026
0.00904598
0.00929834
0.00955649
0.0098171
0.00864962
0.00864332
0.00863255
0.00861811
0.0086
0.00857752
0.00855059
0.00851922
0.0084834
0.00844309
0.00839819
0.00834862
0.00829428
0.00823505
0.00817085
0.00810163
0.00802746
0.00794836
0.0078644
0.0077757
0.00768229
0.00758454
0.0074832
0.00737985
0.007277
0.00717675
0.00708117
0.00699248
0.00691293
0.00684402
0.0067836
0.00672975
0.00668374
0.00664758
0.0066242
0.00661724
0.00662924
0.00665848
0.00670969
0.00678798
0.00689237
0.00702487
0.00719734
0.007406
0.00764527
0.00791222
0.00820191
0.00850954
0.00883015
0.0091583
0.00899789
0.00901059
0.00901992
0.00902508
0.00902569
0.00902226
0.00901442
0.00900163
0.00898391
0.00896105
0.00893286
0.00889903
0.00885915
0.0088129
0.00875985
0.00869956
0.00863156
0.00855532
0.00847033
0.00837604
0.00827197
0.00815777
0.00803325
0.00789849
0.00775387
0.00760002
0.00743809
0.00726989
0.0070982
0.00692746
0.00676139
0.00660228
0.0064537
0.00631858
0.00620053
0.00610391
0.0060334
0.00598998
0.00597753
0.00599959
0.00605594
0.00615233
0.00628929
0.00646552
0.00669262
0.00697343
0.00729672
0.00765378
0.00803725
0.00843823
0.00934833
0.00938016
0.00941032
0.00943712
0.00946021
0.00947952
0.00949484
0.00950593
0.00951256
0.0095141
0.009511
0.00950289
0.00948874
0.00946832
0.00944122
0.00940669
0.0093641
0.00931272
0.00925175
0.00918026
0.00909723
0.00900154
0.00889197
0.00876722
0.00862595
0.00846687
0.00828883
0.00809105
0.00787339
0.00763671
0.0073833
0.00712043
0.00686104
0.00660333
0.00635155
0.0061115
0.00588976
0.00569324
0.00553836
0.00543398
0.00538541
0.00539838
0.00547015
0.00559944
0.00579219
0.00604207
0.00636891
0.00675627
0.00719433
0.00766809
0.00954423
0.00958887
0.00963368
0.00967635
0.0097164
0.00975365
0.0097879
0.00981892
0.00984646
0.00987026
0.00989009
0.00990549
0.00991588
0.0099208
0.00991936
0.00991157
0.00989605
0.00987222
0.00983919
0.00979594
0.00974128
0.00967388
0.00959228
0.00949487
0.00937991
0.0092455
0.00908969
0.00891049
0.00870588
0.00847385
0.00821258
0.00792074
0.00759854
0.0072619
0.00691368
0.00655928
0.00620737
0.00586892
0.00555698
0.00528419
0.00506293
0.00490521
0.00483305
0.00485717
0.00497633
0.0051802
0.00547653
0.00585368
0.00632451
0.0068631
0.00949262
0.00954228
0.009594
0.00964519
0.0096952
0.00974373
0.0097905
0.00983521
0.00987755
0.00991717
0.00995368
0.00998657
0.0100153
0.0100394
0.010058
0.0100707
0.0100765
0.0100747
0.0100643
0.0100444
0.0100137
0.00997092
0.0099146
0.00984322
0.00975508
0.00964827
0.00952078
0.00937064
0.00919583
0.0089942
0.00876351
0.00850146
0.00820563
0.00787338
0.00751173
0.00712445
0.00671573
0.00629333
0.00586874
0.00545734
0.00507823
0.00475319
0.00450511
0.00435348
0.00431575
0.00441548
0.00464571
0.00499584
0.00545764
0.00604179
0.00916856
0.00921764
0.00927046
0.00932442
0.00937868
0.0094328
0.00948638
0.00953904
0.00959037
0.00963993
0.00968725
0.00973181
0.00977303
0.0098103
0.00984297
0.00987031
0.00989147
0.00990554
0.00991164
0.00990933
0.00989677
0.00987298
0.00983664
0.00978643
0.00972094
0.00963817
0.00953616
0.00941312
0.00926754
0.00909758
0.00890137
0.00867705
0.00842269
0.00813638
0.00781615
0.00746251
0.00707726
0.00666258
0.00622174
0.00576111
0.00529353
0.00484095
0.0044338
0.00410702
0.00389513
0.0038271
0.00392174
0.00419983
0.00463065
0.00522542
0.00858785
0.0086336
0.00868461
0.00873826
0.00879355
0.00884986
0.00890669
0.00896356
0.00901998
0.00907546
0.00912948
0.00918149
0.00923089
0.00927705
0.0093193
0.00935689
0.00938899
0.00941474
0.00943323
0.00944399
0.00944637
0.00943778
0.00941751
0.00938441
0.00933728
0.0092744
0.00919421
0.00909523
0.00897605
0.00883515
0.00867104
0.0084823
0.00826756
0.00802559
0.00775531
0.00745567
0.00712351
0.00676051
0.00636737
0.00594351
0.0054893
0.00501003
0.00452267
0.00406298
0.00368264
0.00343578
0.00336763
0.0035062
0.00387346
0.00443766
0.00778743
0.00782984
0.00787854
0.00793102
0.00798613
0.00804312
0.0081014
0.00816042
0.00821968
0.00827864
0.00833678
0.00839353
0.00844832
0.0085005
0.00854943
0.00859436
0.00863452
0.00866907
0.00869716
0.00871815
0.00873159
0.00873603
0.00872996
0.00871142
0.00868051
0.00863545
0.00857508
0.0084981
0.00840329
0.00828935
0.00815505
0.00799935
0.00782124
0.00761988
0.00739475
0.00714571
0.0068712
0.00656753
0.00623713
0.00587883
0.00549002
0.00506683
0.00460527
0.004113
0.00362811
0.00322131
0.00297457
0.00295324
0.00319405
0.00370489
0.00681424
0.00685533
0.0069022
0.00695355
0.00700811
0.00706508
0.00712382
0.00718379
0.00724448
0.00730536
0.00736593
0.00742567
0.00748401
0.00754037
0.00759411
0.00764455
0.00769095
0.00773254
0.00776854
0.00779829
0.00782137
0.00783656
0.00784285
0.00783877
0.00782313
0.00779474
0.00775315
0.00769713
0.00762559
0.00753741
0.0074315
0.00730721
0.0071637
0.00700034
0.00681687
0.00661355
0.00639162
0.00614474
0.00587555
0.00558349
0.00526678
0.00492283
0.00454209
0.00411143
0.00363006
0.00313683
0.00273289
0.00253303
0.00262431
0.00304738
0.0057391
0.0057781
0.00582201
0.00587074
0.00592298
0.00597792
0.006035
0.00609371
0.00615355
0.00621406
0.00627477
0.00633521
0.0063949
0.00645329
0.00650982
0.00656386
0.00661474
0.00666175
0.0067042
0.00674152
0.00677321
0.00679826
0.00681575
0.00682463
0.00682429
0.00681272
0.0067895
0.00675403
0.00670537
0.00664248
0.0065642
0.00647049
0.00636047
0.00623363
0.00608981
0.00592936
0.00575412
0.00556023
0.0053479
0.00511674
0.00486581
0.00459713
0.00430258
0.00396587
0.00357056
0.00309928
0.00260943
0.00224564
0.00215919
0.00245206
0.00467892
0.00470809
0.0047431
0.00478352
0.00482789
0.00487544
0.00492554
0.00497772
0.0050315
0.0050865
0.0051423
0.00519851
0.00525473
0.00531052
0.0053654
0.00541882
0.00547019
0.00551893
0.00556448
0.00560632
0.00564393
0.00567647
0.00570318
0.00572321
0.00573586
0.00573992
0.00573454
0.00571906
0.00569255
0.00565448
0.00560384
0.00554028
0.00546313
0.0053719
0.00526635
0.00514677
0.00501433
0.00486876
0.00470792
0.00453233
0.00434233
0.0041403
0.00392259
0.00367297
0.0033841
0.00301251
0.00254271
0.00207178
0.00181655
0.00194246
0.0037371
0.00375387
0.00377709
0.00380555
0.00383795
0.00387353
0.00391171
0.00395205
0.00399414
0.00403766
0.00408229
0.00412772
0.00417367
0.0042198
0.00426579
0.00431125
0.00435573
0.00439882
0.00444016
0.00447934
0.00451595
0.00454937
0.00457903
0.00460427
0.00462444
0.00463858
0.00464608
0.00464658
0.00463891
0.00462263
0.00459675
0.0045609
0.00451448
0.00445687
0.00438772
0.00430706
0.00421553
0.0041141
0.00400068
0.00387547
0.00373924
0.00359441
0.00344005
0.00326837
0.00307606
0.00281967
0.00245556
0.00196997
0.00157959
0.00153475
0.00292994
0.00293817
0.00295244
0.00297137
0.00299381
0.00301909
0.00304668
0.00307617
0.0031072
0.0031395
0.00317279
0.00320681
0.00324133
0.00327607
0.00331079
0.00334518
0.00337889
0.00341159
0.0034431
0.00347315
0.00350149
0.00352774
0.00355159
0.0035725
0.00359025
0.00360431
0.00361439
0.00362026
0.00362137
0.0036172
0.00360706
0.00359054
0.00356702
0.00353594
0.00349684
0.00344945
0.00339397
0.00333141
0.00326032
0.00318029
0.00309195
0.00299741
0.00289716
0.00278815
0.00266987
0.00251937
0.00229138
0.00188728
0.00142673
0.00123121
0.00224841
0.00225139
0.00225957
0.00227169
0.0022868
0.00230431
0.00232378
0.00234482
0.00236715
0.00239053
0.00241474
0.00243956
0.00246478
0.00249019
0.00251557
0.00254071
0.00256527
0.00258899
0.00261175
0.0026334
0.00265374
0.00267233
0.00268897
0.00270336
0.00271533
0.00272456
0.00273087
0.00273421
0.00273439
0.00273112
0.00272418
0.00271351
0.00269901
0.0026805
0.00265776
0.00263063
0.00259919
0.00256424
0.00252489
0.0024803
0.00243081
0.00237803
0.00232303
0.00226536
0.00220614
0.00213431
0.00202422
0.00176568
0.00131961
0.00102222
0.00168039
0.00168034
0.00168457
0.00169195
0.00170178
0.00171356
0.00172692
0.00174155
0.00175721
0.0017737
0.00179086
0.0018085