/*--------------------------------*- C++ -*----------------------------------*\
  =========                 |
  \\      /  F ield         | OpenFOAM: The Open Source CFD Toolbox
   \\    /   O peration     | Website:  https://openfoam.org
    \\  /    A nd           | Version:  9
     \\/     M anipulation  |
\*---------------------------------------------------------------------------*/
FoamFile
{
    format      ascii;
    class       volScalarField;
    location    "0.0025";
    object      T;
}
// * * * * * * * * * * * * * * * * * * * * * * * * * * * * * * * * * * * * * //

dimensions      [0 0 0 1 0 0 0];

internalField   nonuniform List<scalar> 
5373
(
297.978
297.971
297.971
297.971
297.971
297.964
297.964
297.964
297.964
297.964
297.964
297.956
297.956
297.956
297.956
297.956
297.956
297.956
297.956
297.947
297.947
297.947
297.947
297.947
297.947
297.947
297.947
297.947
297.936
297.936
297.936
297.936
297.936
297.936
297.936
297.936
297.936
297.936
297.936
297.924
297.924
297.924
297.924
297.924
297.924
297.924
297.924
297.924
297.924
297.924
297.91
297.91
297.91
297.91
297.91
297.91
297.91
297.91
297.91
297.91
297.91
297.91
297.895
297.895
297.895
297.895
297.894
297.894
297.894
297.894
297.894
297.894
297.894
297.894
297.894
297.877
297.877
297.877
297.877
297.876
297.876
297.876
297.876
297.876
297.876
297.876
297.876
297.876
297.857
297.857
297.857
297.857
297.856
297.856
297.856
297.856
297.856
297.856
297.855
297.855
297.855
297.855
297.835
297.835
297.834
297.834
297.834
297.834
297.833
297.833
297.833
297.833
297.833
297.832
297.832
297.832
297.811
297.81
297.81
297.81
297.809
297.809
297.809
297.808
297.808
297.808
297.808
297.807
297.807
297.807
297.806
297.784
297.784
297.783
297.783
297.782
297.782
297.782
297.781
297.781
297.78
297.78
297.78
297.779
297.779
297.778
297.756
297.755
297.755
297.754
297.753
297.753
297.752
297.752
297.751
297.751
297.75
297.75
297.749
297.749
297.748
297.725
297.725
297.724
297.723
297.723
297.722
297.721
297.721
297.72
297.719
297.719
297.718
297.717
297.717
297.716
297.694
297.693
297.692
297.691
297.69
297.69
297.689
297.688
297.687
297.686
297.686
297.685
297.684
297.683
297.682
297.662
297.661
297.66
297.659
297.658
297.657
297.656
297.655
297.654
297.653
297.652
297.651
297.65
297.649
297.648
297.648
297.628
297.627
297.626
297.625
297.624
297.623
297.622
297.62
297.619
297.618
297.617
297.616
297.615
297.614
297.613
297.612
297.594
297.592
297.591
297.59
297.589
297.588
297.587
297.586
297.585
297.583
297.582
297.581
297.58
297.579
297.578
297.577
297.559
297.558
297.557
297.556
297.554
297.553
297.552
297.551
297.55
297.549
297.548
297.547
297.546
297.545
297.544
297.543
297.525
297.524
297.523
297.522
297.521
297.52
297.518
297.517
297.516
297.515
297.515
297.514
297.513
297.512
297.511
297.51
297.492
297.491
297.49
297.489
297.488
297.487
297.487
297.486
297.485
297.484
297.484
297.483
297.482
297.481
297.481
297.48
297.462
297.461
297.461
297.46
297.46
297.459
297.459
297.458
297.458
297.458
297.457
297.457
297.457
297.456
297.456
297.456
297.444
297.444
297.444
297.444
297.445
297.445
297.445
297.446
297.446
297.446
297.447
297.447
297.447
297.448
297.448
297.449
297.447
297.448
297.449
297.45
297.451
297.452
297.453
297.454
297.455
297.457
297.458
297.459
297.46
297.461
297.463
297.464
297.478
297.48
297.483
297.485
297.487
297.489
297.492
297.494
297.497
297.5
297.502
297.505
297.508
297.51
297.513
297.516
297.537
297.541
297.545
297.549
297.554
297.558
297.562
297.566
297.57
297.575
297.579
297.583
297.588
297.592
297.596
297.601
297.608
297.613
297.618
297.623
297.629
297.634
297.639
297.644
297.65
297.655
297.66
297.665
297.671
297.676
297.681
297.687
297.665
297.671
297.677
297.684
297.69
297.696
297.702
297.707
297.713
297.719
297.725
297.731
297.737
297.742
297.748
297.754
297.704
297.711
297.717
297.724
297.73
297.737
297.743
297.749
297.755
297.762
297.768
297.774
297.78
297.786
297.791
297.797
297.725
297.732
297.739
297.746
297.752
297.759
297.766
297.772
297.779
297.785
297.791
297.797
297.803
297.809
297.815
297.821
297.733
297.741
297.748
297.755
297.762
297.769
297.775
297.782
297.789
297.795
297.801
297.808
297.814
297.82
297.826
297.831
297.734
297.742
297.749
297.757
297.764
297.771
297.778
297.785
297.791
297.798
297.804
297.81
297.817
297.823
297.829
297.835
297.732
297.739
297.747
297.754
297.762
297.769
297.776
297.783
297.79
297.797
297.803
297.81
297.816
297.822
297.828
297.834
297.727
297.735
297.743
297.751
297.758
297.766
297.773
297.78
297.787
297.794
297.801
297.807
297.814
297.82
297.826
297.832
297.722
297.73
297.738
297.746
297.754
297.762
297.769
297.776
297.784
297.791
297.797
297.804
297.811
297.817
297.823
297.83
297.717
297.726
297.734
297.742
297.75
297.758
297.765
297.773
297.78
297.787
297.794
297.801
297.808
297.815
297.821
297.827
297.713
297.722
297.73
297.738
297.746
297.754
297.762
297.77
297.777
297.784
297.792
297.799
297.806
297.812
297.819
297.826
297.71
297.718
297.727
297.735
297.743
297.751
297.759
297.767
297.775
297.782
297.789
297.797
297.804
297.811
297.817
297.824
297.707
297.716
297.725
297.733
297.741
297.749
297.757
297.765
297.773
297.781
297.788
297.795
297.803
297.81
297.817
297.823
297.706
297.715
297.724
297.732
297.74
297.749
297.757
297.764
297.772
297.78
297.787
297.795
297.802
297.809
297.816
297.824
297.707
297.715
297.724
297.733
297.741
297.749
297.757
297.765
297.773
297.781
297.788
297.796
297.803
297.81
297.817
297.825
297.71
297.719
297.727
297.735
297.744
297.752
297.76
297.768
297.775
297.783
297.791
297.798
297.805
297.813
297.82
297.827
297.717
297.726
297.734
297.742
297.75
297.758
297.766
297.773
297.781
297.788
297.796
297.803
297.81
297.817
297.825
297.832
297.732
297.74
297.748
297.756
297.763
297.771
297.778
297.785
297.792
297.799
297.806
297.813
297.82
297.827
297.834
297.841
297.764
297.771
297.778
297.785
297.791
297.798
297.804
297.811
297.817
297.823
297.829
297.835
297.841
297.847
297.854
297.861
298.009
298.009
298.009
298.009
298.009
298.01
298.01
298.01
298.01
298.01
298.01
298.01
298.01
298.01
298.01
298.01
298.01
298.01
298.011
298.011
298.011
298.011
298.011
298.011
298.011
298.011
298.011
298.011
298.011
298.012
298.012
298.012
298.012
298.012
298.012
298.012
298.012
298.012
298.012
298.013
298.013
298.013
298.013
298.013
298.013
298.013
298.013
298.014
298.014
297.988
297.988
297.988
297.988
297.988
297.988
297.988
297.988
297.988
297.988
297.988
297.988
297.988
297.988
297.988
297.988
297.988
297.988
297.988
297.988
297.988
297.988
297.988
297.988
297.988
297.988
297.988
297.989
297.989
297.989
297.989
297.989
297.989
297.989
297.989
297.989
297.989
297.989
297.989
297.989
297.989
297.989
297.989
297.989
297.989
297.989
297.989
297.989
297.989
297.984
297.984
297.984
297.984
297.984
297.984
297.984
297.984
297.984
297.984
297.984
297.984
297.984
297.984
297.984
297.984
297.984
297.984
297.984
297.984
297.984
297.984
297.984
297.984
297.984
297.984
297.984
297.984
297.984
297.984
297.984
297.984
297.984
297.984
297.984
297.984
297.984
297.984
297.984
297.984
297.984
297.984
297.984
297.984
297.984
297.984
297.984
297.984
297.983
297.983
297.978
297.978
297.978
297.978
297.978
297.978
297.978
297.978
297.978
297.978
297.978
297.978
297.978
297.978
297.978
297.978
297.978
297.978
297.979
297.979
297.979
297.979
297.979
297.979
297.979
297.979
297.979
297.979
297.979
297.979
297.979
297.979
297.979
297.979
297.979
297.979
297.979
297.979
297.979
297.979
297.979
297.979
297.979
297.979
297.979
297.979
297.979
297.979
297.979
297.979
297.971
297.971
297.971
297.971
297.971
297.971
297.971
297.971
297.971
297.971
297.971
297.971
297.971
297.971
297.971
297.971
297.971
297.971
297.971
297.971
297.971
297.971
297.971
297.971
297.971
297.971
297.971
297.971
297.971
297.971
297.971
297.971
297.971
297.971
297.971
297.971
297.971
297.971
297.971
297.971
297.971
297.971
297.971
297.971
297.971
297.971
297.971
297.971
297.971
297.971
297.964
297.964
297.964
297.964
297.964
297.964
297.964
297.964
297.964
297.964
297.964
297.964
297.964
297.964
297.964
297.964
297.964
297.964
297.964
297.964
297.964
297.964
297.964
297.964
297.964
297.964
297.964
297.964
297.964
297.964
297.964
297.964
297.964
297.964
297.964
297.964
297.965
297.965
297.965
297.965
297.965
297.965
297.965
297.965
297.965
297.965
297.965
297.965
297.965
297.965
297.956
297.956
297.956
297.956
297.956
297.956
297.956
297.956
297.955
297.955
297.955
297.955
297.955
297.955
297.955
297.955
297.955
297.955
297.955
297.955
297.955
297.955
297.955
297.955
297.955
297.955
297.955
297.955
297.956
297.956
297.956
297.956
297.956
297.956
297.956
297.956
297.956
297.956
297.956
297.956
297.956
297.956
297.956
297.956
297.956
297.956
297.956
297.956
297.957
297.957
297.947
297.946
297.946
297.946
297.946
297.946
297.946
297.946
297.946
297.946
297.946
297.946
297.946
297.946
297.946
297.946
297.946
297.946
297.946
297.946
297.946
297.946
297.946
297.946
297.946
297.946
297.946
297.946
297.946
297.946
297.946
297.946
297.946
297.947
297.947
297.947
297.947
297.947
297.947
297.947
297.947
297.947
297.947
297.947
297.947
297.948
297.948
297.948
297.948
297.948
297.936
297.936
297.936
297.935
297.935
297.935
297.935
297.935
297.935
297.935
297.935
297.935
297.935
297.935
297.935
297.935
297.935
297.935
297.935
297.935
297.935
297.935
297.935
297.935
297.935
297.935
297.935
297.935
297.935
297.935
297.935
297.935
297.936
297.936
297.936
297.936
297.936
297.936
297.936
297.936
297.936
297.936
297.937
297.937
297.937
297.937
297.937
297.937
297.938
297.938
297.924
297.923
297.923
297.923
297.923
297.923
297.923
297.923
297.923
297.923
297.923
297.923
297.922
297.922
297.922
297.922
297.922
297.922
297.922
297.922
297.922
297.922
297.922
297.922
297.923
297.923
297.923
297.923
297.923
297.923
297.923
297.923
297.923
297.923
297.924
297.924
297.924
297.924
297.924
297.924
297.924
297.925
297.925
297.925
297.925
297.925
297.926
297.926
297.926
297.926
297.91
297.909
297.909
297.909
297.909
297.909
297.909
297.908
297.908
297.908
297.908
297.908
297.908
297.908
297.908
297.908
297.908
297.908
297.908
297.908
297.908
297.908
297.908
297.908
297.908
297.908
297.908
297.908
297.908
297.908
297.909
297.909
297.909
297.909
297.909
297.909
297.91
297.91
297.91
297.91
297.911
297.911
297.911
297.912
297.912
297.912
297.913
297.913
297.913
297.914
297.894
297.893
297.893
297.893
297.892
297.892
297.892
297.892
297.892
297.891
297.891
297.891
297.891
297.891
297.891
297.891
297.891
297.891
297.891
297.891
297.891
297.891
297.891
297.891
297.891
297.891
297.891
297.891
297.891
297.892
297.892
297.892
297.892
297.893
297.893
297.893
297.894
297.894
297.894
297.895
297.895
297.895
297.896
297.896
297.897
297.897
297.898
297.898
297.899
297.899
297.875
297.875
297.874
297.874
297.874
297.873
297.873
297.872
297.872
297.872
297.872
297.871
297.871
297.871
297.871
297.871
297.871
297.871
297.871
297.871
297.871
297.871
297.871
297.871
297.871
297.871
297.871
297.872
297.872
297.872
297.873
297.873
297.873
297.874
297.874
297.874
297.875
297.875
297.876
297.876
297.877
297.878
297.878
297.879
297.879
297.88
297.881
297.882
297.882
297.883
297.855
297.854
297.853
297.853
297.852
297.851
297.851
297.85
297.85
297.85
297.849
297.849
297.849
297.848
297.848
297.848
297.848
297.848
297.848
297.848
297.848
297.848
297.848
297.848
297.848
297.849
297.849
297.849
297.849
297.85
297.85
297.851
297.851
297.852
297.852
297.853
297.854
297.854
297.855
297.856
297.857
297.857
297.858
297.859
297.86
297.861
297.862
297.863
297.864
297.865
297.831
297.83
297.829
297.828
297.828
297.827
297.826
297.825
297.825
297.824
297.824
297.823
297.823
297.822
297.822
297.822
297.822
297.822
297.821
297.821
297.821
297.822
297.822
297.822
297.822
297.822
297.823
297.823
297.824
297.824
297.825
297.825
297.826
297.827
297.828
297.829
297.83
297.83
297.832
297.833
297.834
297.835
297.836
297.837
297.839
297.84
297.841
297.843
297.844
297.845
297.805
297.804
297.803
297.802
297.8
297.799
297.798
297.797
297.796
297.796
297.795
297.794
297.794
297.793
297.793
297.792
297.792
297.792
297.792
297.792
297.792
297.792
297.792
297.792
297.792
297.793
297.793
297.794
297.794
297.795
297.796
297.797
297.798
297.799
297.8
297.801
297.802
297.804
297.805
297.807
297.808
297.81
297.811
297.813
297.815
297.817
297.818
297.82
297.822
297.824
297.777
297.775
297.774
297.772
297.77
297.769
297.768
297.766
297.765
297.764
297.763
297.762
297.761
297.76
297.76
297.759
297.759
297.758
297.758
297.758
297.758
297.758
297.758
297.759
297.759
297.759
297.76
297.761
297.762
297.763
297.764
297.765
297.766
297.767
297.769
297.77
297.772
297.774
297.776
297.778
297.78
297.782
297.784
297.786
297.789
297.791
297.793
297.796
297.799
297.801
297.747
297.744
297.742
297.74
297.738
297.736
297.734
297.732
297.731
297.729
297.728
297.727
297.726
297.725
297.724
297.723
297.722
297.722
297.721
297.721
297.721
297.721
297.721
297.722
297.722
297.723
297.723
297.724
297.725
297.726
297.728
297.729
297.731
297.732
297.734
297.736
297.738
297.741
297.743
297.745
297.748
297.751
297.754
297.757
297.76
297.763
297.766
297.77
297.773
297.777
297.714
297.711
297.708
297.706
297.703
297.701
297.698
297.696
297.694
297.692
297.691
297.689
297.688
297.686
297.685
297.684
297.683
297.682
297.682
297.681
297.681
297.681
297.681
297.681
297.682
297.682
297.683
297.684
297.685
297.686
297.688
297.69
297.692
297.694
297.696
297.698
297.701
297.704
297.707
297.71
297.714
297.717
297.721
297.725
297.729
297.733
297.737
297.742
297.746
297.751
297.68
297.677
297.673
297.67
297.667
297.664
297.661
297.659
297.656
297.654
297.651
297.649
297.648
297.646
297.644
297.643
297.642
297.641
297.64
297.639
297.638
297.638
297.638
297.638
297.638
297.639
297.64
297.64
297.642
297.643
297.645
297.647
297.649
297.651
297.654
297.657
297.66
297.664
297.668
297.672
297.676
297.68
297.685
297.69
297.695
297.7
297.706
297.712
297.718
297.723
297.645
297.641
297.637
297.633
297.63
297.626
297.623
297.62
297.617
297.614
297.612
297.609
297.607
297.605
297.603
297.601
297.599
297.598
297.596
297.595
297.594
297.594
297.593
297.593
297.593
297.593
297.594
297.594
297.595
297.597
297.599
297.601
297.603
297.606
297.609
297.612
297.616
297.62
297.625
297.629
297.635
297.64
297.646
297.652
297.659
297.665
297.672
297.679
297.687
297.694
297.609
297.605
297.601
297.596
297.593
297.589
297.585
297.582
297.579
297.575
297.572
297.57
297.567
297.564
297.562
297.559
297.557
297.555
297.553
297.551
297.55
297.549
297.548
297.547
297.546
297.546
297.546
297.546
297.547
297.548
297.55
297.552
297.554
297.557
297.56
297.564
297.568
297.573
297.578
297.584
297.59
297.596
297.604
297.611
297.619
297.627
297.636
297.645
297.654
297.664
297.574
297.569
297.565
297.561
297.557
297.553
297.549
297.545
297.542
297.539
297.535
297.532
297.529
297.526
297.523
297.52
297.517
297.514
297.511
297.509
297.507
297.505
297.503
297.501
297.5
297.499
297.498
297.497
297.497
297.498
297.499
297.501
297.503
297.505
297.508
297.512
297.517
297.522
297.528
297.534
297.541
297.549
297.557
297.566
297.576
297.586
297.597
297.608
297.619
297.631
297.54
297.535
297.531
297.527
297.523
297.519
297.516
297.512
297.509
297.505
297.501
297.498
297.494
297.491
297.487
297.484
297.48
297.476
297.473
297.469
297.466
297.463
297.46
297.457
297.454
297.452
297.45
297.449
297.448
297.447
297.447
297.448
297.449
297.451
297.454
297.458
297.462
297.468
297.474
297.481
297.489
297.498
297.508
297.518
297.53
297.542
297.555
297.568
297.582
297.597
297.507
297.503
297.5
297.496
297.493
297.49
297.486
297.483
297.48
297.476
297.473
297.469
297.465
297.461
297.457
297.452
297.448
297.444
297.439
297.434
297.43
297.425
297.421
297.416
297.412
297.408
297.405
297.402
297.399
297.397
297.396
297.395
297.396
297.397
297.399
297.402
297.406
297.411
297.418
297.425
297.434
297.444
297.455
297.467
297.48
297.495
297.51
297.526
297.543
297.561
297.478
297.475
297.473
297.47
297.468
297.465
297.463
297.46
297.457
297.454
297.45
297.446
297.442
297.438
297.433
297.428
297.422
297.417
297.411
297.405
297.399
297.393
297.386
297.38
297.374
297.369
297.363
297.358
297.354
297.35
297.347
297.344
297.343
297.343
297.343
297.346
297.349
297.353
297.36
297.367
297.376
297.387
297.399
297.413
297.428
297.444
297.462
297.481
297.502
297.523
297.455
297.454
297.453
297.453
297.452
297.45
297.449
297.447
297.444
297.441
297.438
297.434
297.43
297.425
297.419
297.413
297.407
297.4
297.393
297.385
297.377
297.369
297.361
297.352
297.344
297.335
297.327
297.32
297.313
297.306
297.301
297.296
297.293
297.291
297.29
297.29
297.292
297.296
297.301
297.308
297.317
297.328
297.341
297.356
297.373
297.392
297.412
297.434
297.458
297.483
297.449
297.451
297.453
297.454
297.455
297.455
297.455
297.454
297.452
297.45
297.448
297.444
297.44
297.434
297.428
297.422
297.414
297.405
297.396
297.386
297.375
297.365
297.353
297.342
297.33
297.319
297.307
297.296
297.285
297.275
297.266
297.257
297.25
297.244
297.24
297.238
297.238
297.24
297.244
297.251
297.259
297.27
297.283
297.299
297.317
297.337
297.36
297.385
297.413
297.442
297.468
297.473
297.479
297.483
297.488
297.491
297.494
297.495
297.496
297.496
297.495
297.492
297.489
297.484
297.478
297.471
297.463
297.454
297.443
297.432
297.419
297.405
297.391
297.376
297.36
297.344
297.328
297.311
297.293
297.276
297.26
297.245
297.232
297.22
297.21
297.202
297.196
297.193
297.194
297.197
297.204
297.214
297.227
297.243
297.261
297.283
297.307
297.335
297.366
297.399
297.524
297.536
297.547
297.558
297.567
297.576
297.583
297.589
297.594
297.597
297.599
297.6
297.599
297.597
297.593
297.588
297.581
297.573
297.562
297.551
297.537
297.522
297.505
297.486
297.465
297.443
297.42
297.396
297.371
297.346
297.32
297.295
297.27
297.246
297.225
297.205
297.189
297.176
297.167
297.162
297.16
297.165
297.175
297.19
297.208
297.23
297.255
297.285
297.318
297.356
297.612
297.631
297.648
297.664
297.678
297.691
297.703
297.713
297.722
297.729
297.735
297.74
297.743
297.745
297.746
297.745
297.743
297.739
297.733
297.726
297.716
297.705
297.692
297.677
297.659
297.639
297.616
297.59
297.561
297.528
297.492
297.454
297.412
297.369
297.326
297.284
297.244
297.211
297.184
297.162
297.149
297.141
297.139
297.146
297.159
297.18
297.206
297.236
297.271
297.312
297.701
297.723
297.744
297.762
297.78
297.795
297.809
297.822
297.833
297.843
297.851
297.858
297.864
297.868
297.871
297.872
297.872
297.87
297.866
297.861
297.854
297.846
297.836
297.824
297.81
297.795
297.778
297.759
297.738
297.714
297.687
297.657
297.623
297.585
297.541
297.491
297.432
297.369
297.304
297.243
297.193
297.155
297.137
297.127
297.127
297.139
297.161
297.19
297.226
297.269
297.769
297.793
297.815
297.835
297.853
297.869
297.883
297.896
297.908
297.918
297.926
297.933
297.938
297.942
297.944
297.945
297.944
297.942
297.937
297.932
297.924
297.915
297.905
297.893
297.879
297.865
297.849
297.832
297.815
297.797
297.778
297.76
297.74
297.718
297.693
297.663
297.627
297.58
297.522
297.451
297.367
297.278
297.202
297.147
297.124
297.117
297.126
297.148
297.183
297.227
297.813
297.837
297.859
297.878
297.896
297.912
297.925
297.938
297.948
297.957
297.964
297.97
297.974
297.977
297.978
297.977
297.975
297.971
297.965
297.958
297.949
297.938
297.926
297.913
297.898
297.883
297.867
297.85
297.833
297.815
297.798
297.782
297.766
297.751
297.736
297.723
297.71
297.694
297.67
297.633
297.575
297.493
297.39
297.276
297.182
297.123
297.111
297.117
297.144
297.187
297.837
297.86
297.882
297.901
297.917
297.932
297.945
297.957
297.966
297.974
297.981
297.985
297.988
297.99
297.99
297.988
297.984
297.979
297.972
297.963
297.953
297.942
297.929
297.915
297.9
297.884
297.867
297.85
297.833
297.816
297.799
297.783
297.768
297.755
297.743
297.732
297.723
297.716
297.71
297.704
297.692
297.66
297.594
297.487
297.352
297.217
297.128
297.106
297.114
297.15
297.847
297.871
297.892
297.91
297.926
297.941
297.953
297.964
297.972
297.98
297.985
297.989
297.991
297.992
297.991
297.989
297.984
297.978
297.971
297.962
297.952
297.94
297.927
297.912
297.897
297.881
297.865
297.848
297.831
297.815
297.799
297.784
297.769
297.757
297.745
297.736
297.728
297.722
297.718
297.716
297.717
297.719
297.711
297.666
297.559
297.397
297.23
297.119
297.098
297.119
297.85
297.874
297.895
297.913
297.929
297.943
297.954
297.965
297.973
297.98
297.985
297.988
297.99
297.991
297.989
297.986
297.982
297.976
297.968
297.959
297.949
297.937
297.924
297.91
297.895
297.88
297.864
297.847
297.831
297.815
297.8
297.785
297.772
297.76
297.75
297.741
297.734
297.729
297.726
297.725
297.726
297.73
297.738
297.744
297.718
297.606
297.409
297.207
297.095
297.095
297.85
297.874
297.894
297.912
297.928
297.942
297.953
297.963
297.971
297.978
297.983
297.986
297.988
297.988
297.987
297.984
297.979
297.973
297.966
297.957
297.947
297.935
297.923
297.909
297.894
297.879
297.864
297.848
297.832
297.817
297.803
297.789
297.776
297.765
297.755
297.748
297.742
297.737
297.735
297.735
297.737
297.74
297.747
297.758
297.774
297.755
297.619
297.371
297.152
297.081
297.848
297.872
297.893
297.911
297.926
297.94
297.952
297.961
297.969
297.976
297.981
297.984
297.986
297.986
297.985
297.982
297.977
297.971
297.964
297.955
297.945
297.934
297.922
297.909
297.895
297.88
297.865
297.85
297.835
297.82
297.806
297.793
297.781
297.77
297.761
297.754
297.748
297.745
297.744
297.744
297.747
297.752
297.759
297.768
297.782
297.803
297.775
297.569
297.257
297.091
297.846
297.87
297.891
297.909
297.925
297.938
297.95
297.959
297.967
297.974
297.979
297.982
297.984
297.984
297.983
297.98
297.976
297.97
297.963
297.955
297.945
297.934
297.922
297.909
297.895
297.881
297.867
297.852
297.837
297.823
297.809
297.797
297.785
297.775
297.766
297.76
297.755
297.752
297.751
297.752
297.756
297.761
297.768
297.777
297.79
297.809
297.834
297.757
297.425
297.127
297.844
297.868
297.889
297.907
297.923
297.936
297.948
297.958
297.966
297.972
297.977
297.98
297.982
297.983
297.982
297.979
297.975
297.969
297.963
297.954
297.945
297.934
297.923
297.91
297.897
297.883
297.869
297.854
297.84
297.826
297.813
297.8
297.789
297.779
297.771
297.765
297.76
297.758
297.757
297.759
297.762
297.768
297.776
297.785
297.797
297.814
297.842
297.857
297.623
297.209
297.843
297.867
297.888
297.906
297.922
297.935
297.947
297.956
297.964
297.971
297.976
297.979
297.981
297.982
297.981
297.978
297.974
297.969
297.962
297.954
297.945
297.935
297.923
297.911
297.898
297.885
297.871
297.857
297.843
297.829
297.816
297.804
297.793
297.783
297.776
297.769
297.765
297.763
297.762
297.764
297.768
297.774
297.781
297.791
297.802
297.818
297.843
297.885
297.793
297.342
297.841
297.866
297.887
297.905
297.921
297.934
297.946
297.955
297.963
297.97
297.975
297.979
297.981
297.981
297.98
297.978
297.974
297.969
297.963
297.955
297.946
297.936
297.924
297.912
297.9
297.886
297.873
297.859
297.845
297.832
297.819
297.807
297.797
297.787
297.78
297.774
297.769
297.767
297.767
297.769
297.773
297.779
297.786
297.795
297.806
297.819
297.84
297.877
297.894
297.516
297.841
297.865
297.886
297.904
297.92
297.933
297.945
297.955
297.963
297.969
297.974
297.978
297.98
297.981
297.98
297.978
297.974
297.969
297.963
297.955
297.946
297.936
297.925
297.914
297.901
297.888
297.875
297.861
297.848
297.835
297.822
297.811
297.8
297.791
297.783
297.778
297.774
297.772
297.772
297.774
297.778
297.783
297.79
297.799
297.808
297.82
297.836
297.866
297.92
297.726
297.841
297.866
297.886
297.904
297.92
297.933
297.945
297.954
297.962
297.969
297.974
297.978
297.98
297.981
297.98
297.978
297.974
297.969
297.963
297.956
297.947
297.937
297.927
297.915
297.903
297.89
297.877
297.863
297.85
297.837
297.825
297.814
297.803
297.795
297.787
297.782
297.778
297.776
297.776
297.778
297.782
297.787
297.794
297.802
297.811
297.821
297.833
297.856
297.901
297.906
297.842
297.866
297.887
297.905
297.92
297.933
297.945
297.954
297.962
297.969
297.974
297.978
297.98
297.98
297.98
297.978
297.974
297.97
297.963
297.956
297.948
297.938
297.928
297.916
297.904
297.892
297.879
297.866
297.853
297.84
297.828
297.817
297.807
297.798
297.791
297.786
297.782
297.78
297.78
297.782
297.786
297.791
297.798
297.805
297.813
297.821
297.83
297.847
297.879
297.958
297.845
297.868
297.888
297.906
297.921
297.934
297.945
297.955
297.963
297.969
297.974
297.978
297.98
297.98
297.98
297.978
297.974
297.97
297.964
297.957
297.949
297.939
297.929
297.918
297.906
297.894
297.881
297.868
297.856
297.843
297.832
297.821
297.811
297.802
297.796
297.79
297.787
297.785
297.785
297.787
297.79
297.795
297.801
297.808
297.814
297.821
297.827
297.839
297.856
297.928
297.849
297.872
297.891
297.908
297.923
297.936
297.946
297.956
297.963
297.969
297.974
297.978
297.98
297.98
297.98
297.978
297.975
297.97
297.964
297.958
297.949
297.94
297.93
297.92
297.908
297.896
297.884
297.871
297.859
297.847
297.836
297.825
297.816
297.808
297.801
297.796
297.792
297.79
297.79
297.792
297.795
297.799
297.804
297.81
297.815
297.821
297.824
297.832
297.835
297.909
297.857
297.879
297.897
297.913
297.927
297.938
297.949
297.957
297.964
297.97
297.975
297.978
297.98
297.98
297.98
297.978
297.975
297.971
297.965
297.959
297.951
297.942
297.933
297.922
297.911
297.9
297.888
297.876
297.865
297.853
297.842
297.832
297.823
297.815
297.808
297.803
297.799
297.797
297.796
297.797
297.799
297.803
297.807
297.812
297.816
297.821
297.821
297.825
297.817
297.874
297.873
297.893
297.909
297.923
297.934
297.944
297.953
297.961
297.967
297.972
297.976
297.978
297.98
297.98
297.98
297.978
297.975
297.972
297.967
297.961
297.954
297.946
297.937
297.928
297.918
297.908
297.897
297.886
297.875
297.865
297.855
297.845
297.837
297.829
297.822
297.817
297.812
297.809
297.806
297.805
297.805
297.806
297.808
297.81
297.813
297.816
297.816
297.817
297.807
297.844
298.011
298.006
298.001
297.997
297.994
297.992
297.99
297.988
297.987
297.986
297.985
297.985
297.984
297.984
297.984
297.985
297.985
297.985
297.986
297.986
297.987
297.988
297.988
297.989
297.99
297.99
297.991
297.992
297.993
297.993
297.994
297.995
297.996
297.996
297.997
297.998
297.999
297.999
298
298
298.001
298.001
298.002
298.002
298.003
298.004
298.004
298.005
298.005
298.005
297.99
297.99
297.991
297.991
297.991
297.992
297.992
297.992
297.992
297.992
297.991
297.991
297.991
297.991
297.991
297.991
297.991
297.991
297.991
297.991
297.992
297.992
297.992
297.992
297.993
297.993
297.993
297.994
297.994
297.995
297.995
297.996
297.996
297.997
297.997
297.998
297.998
297.999
297.999
298
298.001
298.001
298.002
298.003
298.003
298.004
298.005
298.005
298.006
298.007
297.983
297.983
297.983
297.983
297.984
297.984
297.984
297.984
297.984
297.985
297.985
297.985
297.985
297.986
297.986
297.987
297.987
297.987
297.988
297.989
297.989
297.99
297.99
297.991
297.991
297.992
297.992
297.993
297.993
297.994
297.994
297.995
297.996
297.996
297.997
297.997
297.998
297.998
297.999
298
298.001
298.001
298.002
298.002
298.003
298.004
298.004
298.005
298.005
298.006
297.979
297.98
297.98
297.98
297.98
297.98
297.98
297.98
297.981
297.981
297.981
297.982
297.982
297.982
297.983
297.983
297.984
297.984
297.985
297.985
297.986
297.987
297.987
297.988
297.989
297.989
297.99
297.99
297.991
297.992
297.993
297.993
297.994
297.995
297.996
297.996
297.997
297.998
297.999
298
298
298.001
298.002
298.002
298.003
298.004
298.004
298.005
298.006
298.006
297.971
297.972
297.972
297.973
297.973
297.973
297.974
297.975
297.975
297.976
297.976
297.977
297.977
297.978
297.979
297.979
297.98
297.981
297.981
297.982
297.983
297.984
297.984
297.985
297.986
297.987
297.987
297.988
297.989
297.99
297.991
297.992
297.993
297.994
297.994
297.995
297.996
297.997
297.998
297.999
298
298.001
298.002
298.002
298.003
298.004
298.005
298.006
298.007
298.008
297.965
297.966
297.966
297.967
297.967
297.968
297.968
297.969
297.969
297.97
297.971
297.972
297.972
297.973
297.974
297.975
297.976
297.976
297.977
297.978
297.979
297.98
297.981
297.982
297.983
297.984
297.985
297.986
297.987
297.988
297.989
297.99
297.991
297.992
297.993
297.994
297.995
297.997
297.998
297.999
298
298.001
298.002
298.003
298.004
298.005
298.006
298.007
298.008
298.009
297.957
297.958
297.958
297.959
297.96
297.96
297.961
297.962
297.963
297.964
297.965
297.965
297.966
297.967
297.968
297.969
297.97
297.972
297.973
297.974
297.975
297.976
297.977
297.978
297.979
297.981
297.982
297.983
297.984
297.986
297.987
297.988
297.989
297.991
297.992
297.993
297.994
297.996
297.997
297.998
297.999
298
298.002
298.003
298.004
298.005
298.006
298.007
298.009
298.01
297.948
297.949
297.95
297.951
297.952
297.953
297.954
297.955
297.956
297.957
297.958
297.959
297.96
297.961
297.962
297.964
297.965
297.966
297.968
297.969
297.97
297.972
297.973
297.974
297.976
297.977
297.979
297.98
297.982
297.983
297.985
297.986
297.987
297.989
297.99
297.992
297.993
297.995
297.996
297.997
297.999
298
298.002
298.003
298.004
298.006
298.007
298.009
298.01
298.011
297.938
297.939
297.94
297.941
297.942
297.944
297.945
297.946
297.947
297.949
297.95
297.952
297.953
297.954
297.956
297.957
297.959
297.96
297.962
297.964
297.965
297.967
297.968
297.97
297.972
297.973
297.975
297.977
297.979
297.98
297.982
297.984
297.985
297.987
297.989
297.99
297.992
297.994
297.995
297.997
297.998
298
298.002
298.003
298.005
298.007
298.008
298.01
298.011
298.013
297.927
297.928
297.93
297.931
297.932
297.934
297.935
297.937
297.939
297.94
297.942
297.943
297.945
297.947
297.949
297.95
297.952
297.954
297.956
297.958
297.96
297.962
297.964
297.965
297.967
297.969
297.971
297.973
297.975
297.977
297.979
297.981
297.983
297.985
297.987
297.989
297.991
297.993
297.994
297.996
297.998
298
298.002
298.004
298.006
298.008
298.009
298.011
298.013
298.015
297.915
297.916
297.918
297.919
297.921
297.923
297.925
297.927
297.929
297.93
297.932
297.934
297.937
297.939
297.941
297.943
297.945
297.947
297.949
297.951
297.954
297.956
297.958
297.96
297.963
297.965
297.967
297.969
297.971
297.974
297.976
297.978
297.98
297.983
297.985
297.987
297.989
297.991
297.994
297.996
297.998
298
298.002
298.004
298.007
298.009