/*--------------------------------*- C++ -*----------------------------------*\
  =========                 |
  \\      /  F ield         | OpenFOAM: The Open Source CFD Toolbox
   \\    /   O peration     | Website:  https://openfoam.org
    \\  /    A nd           | Version:  9
     \\/     M anipulation  |
\*---------------------------------------------------------------------------*/
FoamFile
{
    format      ascii;
    class       volVectorField;
    location    "0.0025";
    object      U;
}
// * * * * * * * * * * * * * * * * * * * * * * * * * * * * * * * * * * * * * //

dimensions      [0 1 -1 0 0 0 0];

internalField   nonuniform List<vector> 
10802
(
(24.9116 -2.94574 -8.42224e-16)
(24.6875 -2.9268 2.76118e-15)
(24.7956 -2.97671 -2.00362e-15)
(24.7379 -2.96162 2.19632e-15)
(24.8222 -3.02678 -2.3957e-15)
(24.7607 -3.01822 -5.2093e-15)
(24.7894 -3.07095 5.52191e-15)
(24.7746 -3.0842 0)
(24.7759 -3.12138 0)
(24.7751 -3.14575 0)
(24.7768 -3.1755 1.31332e-14)
(24.7786 -3.20175 -1.36402e-14)
(24.7808 -3.22769 0)
(24.7833 -3.2522 0)
(24.7859 -3.27536 0)
(24.7883 -3.29711 -1.54898e-14)
(24.7905 -3.31749 -2.97805e-21)
(24.7922 -3.33645 1.62488e-14)
(24.7934 -3.35405 0)
(24.7942 -3.37032 1.68544e-14)
(24.7947 -3.38534 -1.70911e-14)
(24.7949 -3.39917 0)
(24.7949 -3.41189 0)
(24.7947 -3.42356 -1.75078e-14)
(24.7945 -3.43424 1.75446e-14)
(24.7942 -3.44401 0)
(24.7939 -3.45292 -1.74643e-14)
(24.7937 -3.46103 -4.16029e-21)
(24.7934 -3.4684 -4.17667e-21)
(24.7933 -3.47508 1.69789e-14)
(24.7931 -3.48114 0)
(24.793 -3.48664 0)
(24.793 -3.4916 0)
(24.793 -3.49604 0)
(24.7931 -3.50003 1.53578e-14)
(24.7932 -3.50362 3.11265e-21)
(24.7934 -3.50685 -1.4497e-14)
(24.7937 -3.50976 0)
(24.7939 -3.51238 1.35548e-14)
(24.7942 -3.51475 2.05162e-21)
(24.7945 -3.51688 -1.25581e-14)
(24.7949 -3.51881 0)
(24.7953 -3.52056 0)
(24.7956 -3.52215 -1.10184e-14)
(24.796 -3.52361 1.05056e-14)
(24.7963 -3.52493 0)
(24.7966 -3.52615 0)
(24.7969 -3.52727 0)
(24.7971 -3.5283 8.52682e-15)
(24.7972 -3.52926 -8.06065e-15)
(24.7974 -3.53015 0)
(24.7975 -3.53099 7.17317e-15)
(24.7975 -3.53179 -6.75379e-15)
(24.7976 -3.53254 0)
(24.7977 -3.53327 5.96676e-15)
(24.7978 -3.53398 5.79818e-22)
(24.7979 -3.53466 5.5627e-22)
(24.798 -3.53532 -9.83682e-15)
(24.7982 -3.53597 -5.25779e-22)
(24.7984 -3.53661 -5.14797e-22)
(24.7987 -3.53724 -5.05345e-22)
(24.799 -3.53786 -4.97239e-22)
(24.7993 -3.53846 -4.90422e-22)
(24.7997 -3.53905 6.5493e-15)
(24.8001 -3.53962 -3.05375e-15)
(24.8005 -3.54017 0)
(24.8009 -3.5407 -2.65196e-15)
(24.8012 -3.5412 4.93959e-15)
(24.8016 -3.54167 -2.29927e-15)
(24.8019 -3.54211 0)
(24.8022 -3.54251 -1.9907e-15)
(24.8024 -3.54288 3.7029e-15)
(24.8025 -3.5432 -1.72146e-15)
(24.8026 -3.54349 -1.60019e-15)
(24.8026 -3.54373 1.4871e-15)
(24.8025 -3.54393 1.3817e-15)
(24.8024 -3.54409 4.63496e-22)
(24.8021 -3.54421 4.92962e-22)
(24.8018 -3.54425 4.05114e-22)
(24.8014 -3.54429 2.98914e-22)
(24.9256 -2.94067 4.10757e-16)
(24.6608 -2.90923 -1.3479e-15)
(24.7734 -2.97401 9.76753e-16)
(24.6902 -2.94551 2.13994e-15)
(24.7766 -3.02482 -2.33101e-15)
(24.7033 -3.00724 0)
(24.7252 -3.0674 5.38262e-15)
(24.7047 -3.07891 -5.65859e-15)
(24.7007 -3.12003 0)
(24.6968 -3.14445 0)
(24.6952 -3.17685 0)
(24.6947 -3.20442 0)
(24.6953 -3.23224 -1.40754e-14)
(24.6967 -3.2583 1.46056e-14)
(24.6987 -3.28282 -1.51184e-14)
(24.7008 -3.3059 1.56095e-14)
(24.7027 -3.32781 0)
(24.7046 -3.34815 1.65072e-14)
(24.7063 -3.36685 -3.38092e-14)
(24.7079 -3.38402 1.72619e-14)
(24.7093 -3.39974 0)
(24.7106 -3.41409 0)
(24.7119 -3.42715 -1.80561e-14)
(24.7132 -3.43902 1.82187e-14)
(24.7146 -3.44979 0)
(24.716 -3.45955 0)
(24.7175 -3.46839 -1.83809e-14)
(24.719 -3.4764 1.83268e-14)
(24.7206 -3.48365 -1.82204e-14)
(24.7222 -3.49014 1.80635e-14)
(24.724 -3.49591 0)
(24.7257 -3.50112 0)
(24.7275 -3.50589 0)
(24.7292 -3.51027 0)
(24.7309 -3.5143 0)
(24.7327 -3.51799 0)
(24.7344 -3.52139 0)
(24.7361 -3.52453 0)
(24.7377 -3.52742 0)
(24.7392 -3.53009 -1.43043e-14)
(24.7407 -3.53254 1.37791e-14)
(24.742 -3.5348 0)
(24.743 -3.53687 -1.26932e-14)
(24.7439 -3.53875 1.21401e-14)
(24.7444 -3.54044 0)
(24.7445 -3.54196 0)
(24.7442 -3.5433 0)
(24.7436 -3.54448 0)
(24.7425 -3.54551 9.41559e-15)
(24.741 -3.54639 -8.89999e-15)
(24.7391 -3.54714 0)
(24.737 -3.54779 0)
(24.7345 -3.54834 0)
(24.7319 -3.54883 0)
(24.7292 -3.54927 0)
(24.7264 -3.54968 -6.16781e-15)
(24.7236 -3.55007 5.77982e-15)
(24.7209 -3.55047 0)
(24.7183 -3.55088 0)
(24.7159 -3.5513 0)
(24.7135 -3.55174 0)
(24.7114 -3.55219 0)
(24.7094 -3.55265 0)
(24.7076 -3.55313 0)
(24.7059 -3.55362 0)
(24.7044 -3.55409 0)
(24.7029 -3.55455 0)
(24.7015 -3.55498 0)
(24.7002 -3.55539 0)
(24.6988 -3.55575 0)
(24.6975 -3.55607 0)
(24.6962 -3.55633 0)
(24.6947 -3.55652 -1.88074e-15)
(24.6933 -3.55666 1.74753e-15)
(24.6917 -3.55672 0)
(24.69 -3.5567 0)
(24.6882 -3.55662 0)
(24.6863 -3.55645 0)
(24.6842 -3.55617 0)
(24.6821 -3.55587 0)
(24.9406 -2.92906 0)
(24.6427 -2.89365 0)
(24.7628 -2.96302 0)
(24.6655 -2.93097 0)
(24.7541 -3.01631 0)
(24.6725 -2.9956 0)
(24.6931 -3.06078 0)
(24.6677 -3.07143 0)
(24.6619 -3.11535 0)
(24.6556 -3.14069 0)
(24.6526 -3.1751 0)
(24.6509 -3.20412 -6.76009e-15)
(24.6508 -3.23381 -4.52361e-21)
(24.6519 -3.26152 1.46848e-14)
(24.6537 -3.28773 -7.62523e-15)
(24.6559 -3.31259 0)
(24.6582 -3.33644 0)
(24.6605 -3.35867 0)
(24.6628 -3.37923 -1.72899e-14)
(24.665 -3.39823 1.77187e-14)
(24.6673 -3.41577 0)
(24.6696 -3.43192 -1.84457e-14)
(24.6719 -3.44677 3.74722e-14)
(24.6744 -3.46041 -1.89736e-14)
(24.6769 -3.47294 -1.91559e-14)
(24.6795 -3.48443 1.55731e-20)
(24.6822 -3.49498 1.93505e-14)
(24.6849 -3.50465 -1.93623e-14)
(24.6877 -3.51348 1.47221e-20)
(24.6905 -3.52156 3.8436e-14)
(24.6932 -3.52897 -1.90648e-14)
(24.6959 -3.53577 0)
(24.6987 -3.54201 0)
(24.7013 -3.54774 0)
(24.704 -3.553 -1.79587e-14)
(24.7066 -3.55784 1.75708e-14)
(24.7091 -3.56227 0)
(24.7116 -3.56633 0)
(24.7138 -3.57004 -1.61842e-14)
(24.7158 -3.57342 1.56586e-14)
(24.7174 -3.57646 -1.51075e-14)
(24.7186 -3.57918 1.45352e-14)
(24.7191 -3.58157 0)
(24.7188 -3.58362 0)
(24.7177 -3.58533 0)
(24.7156 -3.58671 1.21316e-14)
(24.7124 -3.58776 -2.90546e-21)
(24.7082 -3.58849 -2.52336e-21)
(24.703 -3.58893 -1.03397e-14)
(24.6969 -3.58911 0)
(24.6899 -3.58907 0)
(24.6823 -3.58883 -8.66897e-15)
(24.674 -3.58845 8.15021e-15)
(24.6654 -3.58795 0)
(24.6565 -3.58738 7.17758e-15)
(24.6475 -3.58677 -6.72487e-15)
(24.6386 -3.58615 -6.29483e-15)
(24.6297 -3.58555 5.88731e-15)
(24.6212 -3.585 0)
(24.613 -3.58451 0)
(24.6051 -3.58411 0)
(24.5977 -3.58379 4.47295e-15)
(24.5907 -3.58355 -4.1699e-15)
(24.5842 -3.58338 -3.88547e-15)
(24.5781 -3.58326 3.61879e-15)
(24.5724 -3.58318 0)
(24.5671 -3.58314 -3.13523e-15)
(24.562 -3.58311 5.83324e-15)
(24.5572 -3.58309 -2.71234e-15)
(24.5527 -3.58304 -2.52158e-15)
(24.5483 -3.58297 2.34356e-15)
(24.544 -3.58286 0)
(24.5397 -3.58269 2.02272e-15)
(24.5355 -3.58246 -1.87849e-15)
(24.5314 -3.58215 1.74418e-15)
(24.5272 -3.58177 -1.61913e-15)
(24.5229 -3.5813 0)
(24.5186 -3.58074 0)
(24.5142 -3.58006 0)
(24.5097 -3.57934 -2.30397e-15)
(24.9566 -2.9137 0)
(24.6233 -2.87221 -8.75658e-16)
(24.7495 -2.9491 1.89912e-15)
(24.6356 -2.9107 1.03951e-15)
(24.7254 -3.0015 1.16936e-20)
(24.6343 -2.97875 -2.45489e-15)
(24.653 -3.05006 0)
(24.6212 -3.05903 0)
(24.613 -3.10682 0)
(24.6033 -3.1339 0)
(24.5984 -3.17092 0)
(24.5949 -3.20189 0)
(24.5935 -3.23409 -7.06502e-15)
(24.5938 -3.26396 1.47534e-14)
(24.5952 -3.29246 -1.53691e-14)
(24.5971 -3.3197 7.98621e-15)
(24.5993 -3.34601 8.27907e-15)
(24.6017 -3.37052 -1.71209e-14)
(24.6042 -3.39324 8.82754e-15)
(24.6069 -3.41429 9.0776e-15)
(24.6097 -3.43374 -1.86159e-14)
(24.6127 -3.45169 9.51611e-15)
(24.6158 -3.4682 9.69988e-15)
(24.6191 -3.48337 -9.85748e-15)
(24.6225 -3.4973 1.99747e-14)
(24.626 -3.51007 -2.0177e-14)
(24.6296 -3.52177 2.03202e-14)
(24.6333 -3.53243 -2.04039e-14)
(24.6369 -3.54205 0)
(24.6406 -3.55077 0)
(24.6442 -3.55877 0)
(24.6478 -3.56612 0)
(24.6513 -3.57288 -1.99444e-14)
(24.6547 -3.57908 3.93693e-14)
(24.6581 -3.58479 -1.93724e-14)
(24.6614 -3.59005 0)
(24.6645 -3.59486 0)
(24.6673 -3.59926 1.81373e-14)
(24.6696 -3.60325 -1.76334e-14)
(24.6713 -3.60681 1.70884e-14)
(24.6721 -3.60991 -1.65072e-14)
(24.6717 -3.61253 -1.58948e-14)
(24.6696 -3.61462 8.69002e-21)
(24.6658 -3.61616 1.46004e-14)
(24.6599 -3.61713 1.39321e-14)
(24.6518 -3.61752 -2.65164e-14)
(24.6416 -3.61736 1.25848e-14)
(24.6292 -3.61668 0)
(24.6149 -3.61552 1.12613e-14)
(24.5988 -3.61394 -1.06204e-14)
(24.5811 -3.61201 0)
(24.5623 -3.60981 9.39769e-15)
(24.5426 -3.60741 -1.76415e-14)
(24.5224 -3.60489 8.26886e-15)
(24.5019 -3.60231 0)
(24.4814 -3.59975 7.24314e-15)
(24.4612 -3.59727 -6.76973e-15)
(24.4416 -3.59487 0)
(24.4226 -3.59264 -5.90036e-15)
(24.4043 -3.59055 5.50312e-15)
(24.387 -3.58865 0)
(24.3706 -3.58696 4.77924e-15)
(24.3551 -3.58543 -4.45063e-15)
(24.3406 -3.58406 0)
(24.327 -3.58286 3.85487e-15)
(24.3142 -3.58179 -7.17123e-15)
(24.3022 -3.58081 6.66812e-15)
(24.2909 -3.57991 -3.0992e-15)
(24.2802 -3.57907 0)
(24.27 -3.57827 -2.67571e-15)
(24.2604 -3.57747 2.48524e-15)
(24.2511 -3.57667 -2.3078e-15)
(24.2422 -3.57583 -4.44274e-22)
(24.2335 -3.57495 3.97755e-15)
(24.225 -3.57401 -3.69135e-15)
(24.2167 -3.573 1.71258e-15)
(24.2086 -3.57191 0)
(24.2005 -3.57073 0)
(24.1924 -3.56942 0)
(24.1844 -3.56808 0)
(24.9731 -2.8944 -3.94208e-16)
(24.6046 -2.84748 -4.32733e-16)
(24.7381 -2.93152 9.37492e-16)
(24.6092 -2.88751 0)
(24.6994 -2.98448 0)
(24.5998 -2.95935 0)
(24.6165 -3.03504 0)
(24.5781 -3.04441 -2.73054e-15)
(24.5681 -3.09594 2.88509e-15)
(24.5548 -3.12497 0)
(24.5481 -3.16507 0)
(24.5427 -3.19835 0)
(24.5402 -3.23353 0)
(24.5396 -3.26604 7.4053e-15)
(24.5405 -3.29737 -7.7366e-15)
(24.5422 -3.32742 -8.06429e-15)
(24.5442 -3.35664 1.67716e-14)
(24.5467 -3.38397 -8.69822e-15)
(24.5496 -3.40941 8.99867e-15)
(24.5527 -3.4331 -9.28414e-15)
(24.5562 -3.45509 -9.55167e-15)
(24.56 -3.47545 1.95971e-14)
(24.564 -3.49427 -1.54835e-20)
(24.5684 -3.51163 -1.02205e-14)
(24.5729 -3.52764 0)
(24.5776 -3.54234 0)
(24.5824 -3.55575 0)
(24.5873 -3.56791 0)
(24.5922 -3.57897 0)
(24.5971 -3.58913 0)
(24.6019 -3.59848 0)
(24.6067 -3.60706 -1.07436e-14)
(24.6115 -3.61495 1.06703e-14)
(24.6161 -3.62219 -1.05661e-14)
(24.6207 -3.62884 1.04312e-14)
(24.6251 -3.63492 -1.02654e-14)
(24.6291 -3.64044 1.00688e-14)
(24.6324 -3.64539 0)
(24.6348 -3.64973 0)
(24.6356 -3.65341 0)
(24.6343 -3.65632 -8.99039e-15)
(24.6302 -3.6584 6.79753e-21)
(24.6227 -3.65955 8.30945e-15)
(24.6115 -3.65973 0)
(24.5963 -3.65893 -1.51496e-14)
(24.577 -3.65716 1.43968e-14)
(24.5537 -3.65447 0)
(24.5266 -3.65095 0)
(24.4963 -3.6467 0)
(24.4632 -3.64185 0)
(24.4279 -3.63653 -1.07541e-14)
(24.3909 -3.63089 3.49634e-21)
(24.353 -3.62504 2.96182e-21)
(24.3147 -3.61913 8.84111e-15)
(24.2764 -3.61325 0)
(24.2386 -3.6075 -7.71648e-15)
(24.2017 -3.60196 1.44003e-14)
(24.166 -3.59669 -6.71378e-15)
(24.1316 -3.59177 0)
(24.0989 -3.58713 0)
(24.0678 -3.58286 0)
(24.0384 -3.57895 0)
(24.0108 -3.57539 0)
(23.9848 -3.57214 0)
(23.9606 -3.56919 0)
(23.9378 -3.56652 0)
(23.9165 -3.56409 0)
(23.8965 -3.56184 0)
(23.8778 -3.55975 0)
(23.8601 -3.55779 0)
(23.8434 -3.55592 2.60662e-15)
(23.8275 -3.55411 -2.41933e-15)
(23.8124 -3.55233 2.24512e-15)
(23.798 -3.55056 -2.08313e-15)
(23.7841 -3.54878 0)
(23.7707 -3.54697 1.7926e-15)
(23.7577 -3.54512 -1.66259e-15)
(23.745 -3.5432 -1.54182e-15)
(23.7327 -3.54119 1.42968e-15)
(23.7206 -3.53918 2.52502e-15)
(24.9899 -2.87229 3.89416e-16)
(24.5863 -2.81997 -4.27961e-16)
(24.727 -2.91122 0)
(24.5835 -2.86161 0)
(24.6736 -2.96484 0)
(24.5661 -2.93745 2.38761e-15)
(24.5801 -3.01772 -5.09046e-15)
(24.5349 -3.02699 -1.45681e-20)
(24.523 -3.08302 2.86014e-15)
(24.5057 -3.11399 -3.02458e-15)
(24.4969 -3.15755 9.57778e-15)
(24.4894 -3.1934 1.34063e-20)
(24.4854 -3.23196 -7.07712e-15)
(24.4837 -3.26748 0)
(24.4838 -3.30202 0)
(24.485 -3.33519 8.13466e-15)
(24.4867 -3.36767 -8.4835e-15)
(24.489 -3.39821 0)
(24.492 -3.42673 -9.15886e-15)
(24.4954 -3.4534 1.89584e-14)
(24.4994 -3.47825 -1.64116e-20)
(24.5038 -3.50135 -1.00698e-14)
(24.5087 -3.52275 0)
(24.5139 -3.54257 -1.05744e-14)
(24.5195 -3.56088 2.19922e-20)
(24.5253 -3.57756 1.09737e-14)
(24.5313 -3.59264 0)
(24.5373 -3.60646 0)
(24.5434 -3.61918 0)
(24.5495 -3.63088 0)
(24.5556 -3.64163 0)
(24.5616 -3.65152 0)
(24.5676 -3.66061 1.13926e-14)
(24.5735 -3.66896 -1.13193e-14)
(24.5792 -3.67663 0)
(24.5846 -3.6836 0)
(24.5892 -3.68986 1.08784e-14)
(24.5924 -3.69534 -1.43694e-20)
(24.5935 -3.6999 -1.32208e-20)
(24.5913 -3.70339 -1.20853e-20)
(24.5847 -3.70559 -1.09798e-20)
(24.5727 -3.70636 -9.39238e-15)
(24.5543 -3.70559 9.00539e-15)
(24.5292 -3.70322 -1.72014e-14)
(24.4971 -3.69928 1.63689e-14)
(24.4583 -3.69385 -7.76262e-15)
(24.4132 -3.68708 0)
(24.3626 -3.67915 0)
(24.3075 -3.67029 0)
(24.2489 -3.66073 0)
(24.1879 -3.65068 0)
(24.1254 -3.64036 0)
(24.0624 -3.62995 0)
(23.9996 -3.61964 0)
(23.9377 -3.60956 0)
(23.8773 -3.59982 0)
(23.819 -3.59053 0)
(23.7629 -3.58174 3.5381e-15)
(23.7094 -3.57349 -3.29298e-15)
(23.6587 -3.56582 0)
(23.6107 -3.55872 0)
(23.5656 -3.55219 0)
(23.5233 -3.5462 0)
(23.4837 -3.54073 -2.28738e-15)
(23.4466 -3.53573 9.41095e-23)
(23.412 -3.53115 4.32355e-23)
(23.3798 -3.52697 3.66511e-15)
(23.3496 -3.52313 -1.70137e-15)
(23.3214 -3.51958 1.57932e-15)
(23.2949 -3.51627 1.25533e-22)
(23.2701 -3.51316 1.53067e-22)
(23.2468 -3.51021 -2.52426e-15)
(23.2247 -3.50739 2.34189e-15)
(23.2038 -3.50466 -2.17245e-15)
(23.184 -3.50199 2.01506e-15)
(23.165 -3.49936 -1.86889e-15)
(23.1469 -3.49676 -2.65067e-22)
(23.1296 -3.49415 1.60716e-15)
(23.1129 -3.49151 -1.49021e-15)
(23.0968 -3.48893 2.62097e-15)
(25.0067 -2.84809 0)
(24.5686 -2.79056 0)
(24.7166 -2.8889 0)
(24.5592 -2.83381 -1.00182e-15)
(24.6489 -2.94302 1.08617e-15)
(24.5337 -2.91355 -2.35749e-15)
(24.5446 -2.99795 2.51462e-15)
(24.4929 -3.00758 2.67406e-15)
(24.4788 -3.06829 -2.8363e-15)
(24.4574 -3.10119 0)
(24.4462 -3.14852 -3.17896e-15)
(24.4362 -3.18715 -8.28511e-21)
(24.4306 -3.22942 7.07854e-15)
(24.4275 -3.26822 3.72421e-15)
(24.4266 -3.30635 -7.82217e-15)
(24.4271 -3.34291 0)
(24.4282 -3.37891 0)
(24.4302 -3.41303 -8.94373e-15)
(24.4331 -3.44503 9.3082e-15)
(24.4367 -3.47507 -9.66276e-15)
(24.4411 -3.50319 1.00042e-14)
(24.4461 -3.52943 1.03293e-14)
(24.4517 -3.55385 -2.127e-14)
(24.4579 -3.57655 1.09183e-14)
(24.4644 -3.59752 0)
(24.4714 -3.61659 -1.14076e-14)
(24.4786 -3.63396 2.32189e-14)
(24.4859 -3.65002 -2.90104e-20)
(24.4933 -3.66484 -1.19203e-14)
(24.5007 -3.67849 0)
(24.5082 -3.69107 0)
(24.5156 -3.70266 0)
(24.523 -3.71335 1.214e-14)
(24.5304 -3.72318 -1.21028e-14)
(24.5374 -3.73219 0)
(24.5437 -3.74032 -1.18998e-14)
(24.5485 -3.74747 2.34547e-14)
(24.5506 -3.75347 -1.15045e-14)
(24.5484 -3.75797 -1.1231e-14)
(24.5399 -3.76069 2.18187e-14)
(24.5233 -3.76127 -1.05441e-14)
(24.497 -3.75952 0)
(24.4601 -3.75531 0)
(24.4123 -3.74868 0)
(24.3538 -3.73975 0)
(24.2856 -3.72879 8.31841e-15)
(24.209 -3.71613 -7.84891e-15)
(24.1258 -3.70213 0)
(24.0376 -3.68715 0)
(23.9461 -3.67155 0)
(23.8527 -3.65564 -6.08403e-15)
(23.759 -3.6397 5.68579e-15)
(23.666 -3.62397 0)
(23.5747 -3.60863 0)
(23.4859 -3.59385 4.61279e-15)
(23.4003 -3.57972 -4.29571e-15)
(23.3183 -3.56634 0)
(23.2402 -3.55377 0)
(23.1661 -3.54202 0)
(23.0962 -3.5311 0)
(23.0305 -3.52101 0)
(22.969 -3.51172 0)
(22.9114 -3.50319 0)
(22.8577 -3.49537 2.39522e-15)
(22.8076 -3.48822 -2.05475e-22)
(22.761 -3.48168 -2.06491e-15)
(22.7176 -3.47569 -1.91683e-15)
(22.6772 -3.47018 2.09362e-23)
(22.6396 -3.46512 -3.32942e-23)
(22.6045 -3.46045 1.53221e-15)
(22.5718 -3.4561 0)
(22.5412 -3.45203 -1.31903e-15)
(22.5125 -3.4482 1.22368e-15)
(22.4856 -3.44457 1.13513e-15)
(22.4602 -3.44112 -2.10584e-15)
(22.4364 -3.4378 9.76597e-16)
(22.4138 -3.43459 -9.05755e-16)
(22.3925 -3.43147 1.68001e-15)
(22.3722 -3.4284 1.84304e-22)
(22.3529 -3.42546 -1.36399e-15)
(25.0233 -2.8224 1.90313e-16)
(24.5515 -2.75987 -2.09617e-16)
(24.7066 -2.86506 0)
(24.5359 -2.80464 0)
(24.6247 -2.91956 1.07354e-15)
(24.5022 -2.88806 -1.16463e-15)
(24.5099 -2.97675 0)
(24.4517 -2.9865 0)
(24.4354 -3.052 0)
(24.4094 -3.08665 0)
(24.3956 -3.13802 3.16525e-15)
(24.3828 -3.17963 1.00206e-20)
(24.3754 -3.22578 7.73246e-21)
(24.3705 -3.26807 4.74347e-21)
(24.3683 -3.31014 -3.92821e-15)
(24.3679 -3.35029 0)
(24.3682 -3.38995 0)
(24.3696 -3.42794 0)
(24.3722 -3.46375 0)
(24.3758 -3.49749 -9.83479e-15)
(24.3803 -3.52921 1.02126e-14)
(24.3857 -3.55895 1.05767e-14)
(24.392 -3.58673 -1.09239e-14)
(24.3989 -3.61263 0)
(24.4063 -3.63662 -1.1555e-14)
(24.4143 -3.65852 1.18334e-14)
(24.4227 -3.67858 0)
(24.4312 -3.69718 0)
(24.4398 -3.7144 -1.24947e-14)
(24.4486 -3.73031 2.53038e-14)
(24.4574 -3.74501 -1.27749e-14)
(24.4662 -3.7586 1.28617e-14)
(24.475 -3.77116 -2.58188e-14)
(24.4838 -3.78273 1.29139e-14)
(24.492 -3.7933 1.28699e-14)
(24.4988 -3.80272 -1.2771e-14)
(24.5029 -3.81079 0)
(24.502 -3.81696 0)
(24.4931 -3.82082 1.21009e-14)
(24.4731 -3.82175 -1.17518e-14)
(24.4395 -3.81934 0)
(24.3903 -3.81336 -1.08987e-14)
(24.3249 -3.80379 1.04152e-14)
(24.2437 -3.79087 0)
(24.1483 -3.77502 0)
(24.0408 -3.75677 0)
(23.924 -3.73671 0)
(23.8005 -3.71542 0)
(23.6729 -3.69341 -7.35818e-15)
(23.5434 -3.67115 6.88776e-15)
(23.4141 -3.64901 0)
(23.2866 -3.62731 0)
(23.1621 -3.60626 0)
(23.0417 -3.58605 0)
(22.926 -3.5668 0)
(22.8156 -3.5486 0)
(22.7108 -3.53149 0)
(22.6117 -3.51549 0)
(22.5184 -3.50061 0)
(22.4308 -3.48681 0)
(22.3489 -3.47407 0)
(22.2724 -3.46235 0)
(22.2012 -3.45157 0)
(22.1349 -3.4417 0)
(22.0733 -3.43266 0)
(22.0162 -3.42439 0)
(21.9631 -3.41682 0)
(21.914 -3.40989 0)
(21.8683 -3.40354 1.73709e-15)
(21.826 -3.3977 -1.61205e-15)
(21.7867 -3.39233 0)
(21.7502 -3.38737 0)
(21.7163 -3.38277 -1.28788e-15)
(21.6847 -3.3785 1.1949e-15)
(21.6553 -3.3745 0)
(21.6279 -3.37076 -1.02845e-15)
(21.6022 -3.36724 1.90818e-15)
(21.5783 -3.3639 -8.85075e-16)
(21.5559 -3.36072 8.21032e-16)
(21.5349 -3.35776 -2.86112e-15)
(25.0395 -2.79577 0)
(24.5351 -2.72839 0)
(24.6969 -2.84005 0)
(24.5142 -2.77457 -9.80307e-16)
(24.6013 -2.89489 1.0616e-15)
(24.4725 -2.8614 -1.15136e-15)
(24.476 -2.95432 2.45894e-15)
(24.4116 -2.96415 -1.31173e-15)
(24.3928 -3.03433 2.79156e-15)
(24.362 -3.07047 -5.93718e-15)
(24.3454 -3.12614 3.15142e-15)
(24.3295 -3.17088 0)
(24.32 -3.22099 0)
(24.313 -3.2669 0)
(24.3093 -3.31312 -3.94266e-15)
(24.3075 -3.357 4.15148e-15)
(24.3068 -3.40047 0)
(24.3074 -3.44255 0)
(24.3094 -3.48244 0)
(24.3127 -3.52017 0)
(24.3172 -3.5558 0)
(24.3229 -3.58934 0)
(24.3295 -3.6208 0)
(24.337 -3.65023 0)
(24.3452 -3.67767 -5.96098e-15)
(24.3541 -3.70285 6.12468e-15)
(24.3634 -3.72595 -6.27539e-15)
(24.3731 -3.74745 2.15295e-20)
(24.3829 -3.76742 6.53395e-15)
(24.3929 -3.78593 0)
(24.403 -3.80309 0)
(24.4132 -3.81901 0)
(24.4235 -3.83376 0)
(24.4336 -3.84736 0)
(24.4428 -3.85972 0)
(24.4497 -3.87057 0)
(24.4517 -3.87935 0)
(24.4448 -3.8853 0)
(24.4243 -3.88753 0)
(24.386 -3.88529 0)
(24.3264 -3.87808 0)
(24.244 -3.8658 0)
(24.1391 -3.84874 0)
(24.0139 -3.82755 0)
(23.8719 -3.80307 0)
(23.7171 -3.7762 0)
(23.5537 -3.74784 8.86573e-15)
(23.3855 -3.71875 -8.32228e-15)
(23.2158 -3.68959 0)
(23.0474 -3.66085 0)
(22.8825 -3.63292 0)
(22.7225 -3.60607 -6.36652e-15)
(22.5688 -3.58048 5.93859e-15)
(22.422 -3.55625 5.53531e-15)
(22.2827 -3.53345 -5.15614e-15)
(22.151 -3.51209 0)
(22.0272 -3.49217 0)
(21.911 -3.47364 0)
(21.8024 -3.45648 0)
(21.701 -3.44061 3.59138e-15)
(21.6066 -3.42598 -3.33755e-15)
(21.5188 -3.41252 -3.10097e-15)
(21.4374 -3.40016 2.8806e-15)
(21.3619 -3.38883 0)
(21.2919 -3.37846 0)
(21.2273 -3.36897 0)
(21.1675 -3.36031 -2.14197e-15)
(21.1123 -3.3524 3.97707e-15)
(21.0613 -3.34518 -1.84596e-15)
(21.0142 -3.3386 -1.7135e-15)
(20.9708 -3.33259 1.59047e-15)
(20.9307 -3.32711 1.4762e-15)
(20.8937 -3.32211 -1.37009e-15)
(20.8596 -3.31754 -1.27158e-15)
(20.8282 -3.31337 1.18011e-15)
(20.7992 -3.30956 0)
(20.7724 -3.30608 0)
(20.7478 -3.30289 0)
(20.7251 -3.29995 0)
(20.7041 -3.29733 1.51692e-15)
(25.0553 -2.76861 0)
(24.5195 -2.69652 0)
(24.6878 -2.81419 0)
(24.4943 -2.74402 9.70296e-16)
(24.5787 -2.86942 -1.05027e-15)
(24.4443 -2.83393 1.13878e-15)
(24.4431 -2.93124 -1.21669e-15)
(24.3726 -2.9408 1.29997e-15)
(24.3511 -3.01546 1.20971e-20)
(24.3154 -3.05292 1.47537e-15)
(24.296 -3.11298 -3.13744e-15)
(24.2766 -3.16086 -3.33215e-15)
(24.2647 -3.21495 3.53334e-15)
(24.2552 -3.26455 3.74111e-15)
(24.2496 -3.31504 -7.90902e-15)
(24.2461 -3.3628 4.17282e-15)
(24.2443 -3.41023 4.395e-15)
(24.2437 -3.45646 -4.61988e-15)
(24.2448 -3.50066 4.84601e-15)
(24.2475 -3.54261 -5.07191e-15)
(24.2518 -3.58238 0)
(24.2574 -3.61997 -5.5162e-15)
(24.2643 -3.65539 1.8411e-20)
(24.2722 -3.68864 5.93895e-15)
(24.2809 -3.71983 6.13796e-15)
(24.2903 -3.74866 -2.33312e-20)
(24.3005 -3.77516 -6.5038e-15)
(24.3111 -3.79983 0)
(24.322 -3.82285 -6.81835e-15)
(24.3331 -3.84426 6.95367e-15)
(24.3444 -3.86417 -7.07249e-15)
(24.356 -3.88269 7.17286e-15)
(24.3676 -3.8999 7.25153e-15)
(24.379 -3.91578 -7.30391e-15)
(24.3889 -3.93011 -7.32346e-15)
(24.3949 -3.94238 7.30291e-15)
(24.3926 -3.95158 0)
(24.3757 -3.95649 0)
(24.3375 -3.95579 0)
(24.2722 -3.94856 0)
(24.1762 -3.9344 6.49176e-15)
(24.0494 -3.91361 -1.24287e-14)
(23.8944 -3.88705 1.19196e-20)
(23.716 -3.85596 1.04638e-20)
(23.5203 -3.82172 5.30535e-15)
(23.3134 -3.78565 0)
(23.1008 -3.74889 0)
(22.8874 -3.71236 0)
(22.6768 -3.67674 4.13847e-15)
(22.472 -3.64251 -7.74905e-15)
(22.2751 -3.60998 3.62358e-15)
(22.0873 -3.57932 -3.38579e-15)
(21.9095 -3.5506 3.16106e-15)
(21.742 -3.52382 -2.94915e-15)
(21.5849 -3.49895 5.49938e-15)
(21.4381 -3.4759 -2.56226e-15)
(21.3013 -3.45458 0)
(21.174 -3.43491 -2.22158e-15)
(21.0558 -3.41677 2.06732e-15)
(20.9463 -3.40006 -1.92307e-15)
(20.8449 -3.3847 1.78833e-15)
(20.7511 -3.3706 0)
(20.6644 -3.35766 -1.5453e-15)
(20.5845 -3.34581 2.872e-15)
(20.5107 -3.33498 -3.27579e-22)
(20.4428 -3.32508 -2.62209e-22)
(20.3803 -3.31607 -2.3026e-15)
(20.3228 -3.30788 1.0693e-15)
(20.27 -3.30044 0)
(20.2215 -3.29371 0)
(20.1771 -3.28762 0)
(20.1364 -3.28215 -7.9516e-16)
(20.0993 -3.27723 1.16003e-23)
(20.0653 -3.27285 1.37106e-15)
(20.0343 -3.26895 2.80378e-23)
(20.0062 -3.26549 -1.18196e-15)
(19.9805 -3.26245 1.09741e-15)
(19.9573 -3.25979 -1.01892e-15)
(19.9363 -3.25748 -2.64379e-23)
(19.9173 -3.25556 8.14758e-16)
(25.0706 -2.74131 0)
(24.5046 -2.66459 0)
(24.6795 -2.78795 0)
(24.4752 -2.71342 4.80337e-16)
(24.5571 -2.84348 -5.19719e-16)
(24.4172 -2.80598 -1.1268e-15)
(24.4114 -2.90743 1.20452e-15)
(24.3349 -2.91665 1.28867e-15)
(24.3105 -2.9956 1.35489e-20)
(24.2699 -3.03424 -1.46651e-15)
(24.2474 -3.09864 1.56162e-15)
(24.2242 -3.14954 -1.66117e-15)
(24.2097 -3.20764 0)
(24.1974 -3.26092 0)
(24.1896 -3.31568 0)
(24.1839 -3.36751 0)
(24.1807 -3.41901 -4.42329e-15)
(24.1787 -3.46932 4.65988e-15)
(24.1787 -3.51798 0)
(24.1806 -3.56433 5.14025e-15)
(24.1843 -3.60843 -5.38098e-15)
(24.1897 -3.65029 -5.61981e-15)
(24.1964 -3.68987 5.85505e-15)
(24.2044 -3.72719 -6.08488e-15)
(24.2135 -3.76227 2.424e-20)
(24.2233 -3.79505 2.60479e-20)
(24.2341 -3.82538 2.76509e-20)
(24.2454 -3.85349 6.91876e-15)
(24.2572 -3.87977 0)
(24.2692 -3.90433 0)
(24.2817 -3.92724 0)
(24.2944 -3.94861 0)
(24.3074 -3.96851 7.65962e-15)
(24.3198 -3.98686 -2.85438e-20)
(24.3301 -4.00327 -7.78441e-15)
(24.334 -4.0168 0)
(24.3247 -4.02592 0)
(24.2928 -4.02868 0)
(24.2292 -4.02338 -7.41518e-15)
(24.127 -4.00902 7.18172e-15)
(23.9838 -3.98564 0)
(23.8022 -3.95425 6.60385e-15)
(23.5884 -3.91655 -1.25672e-14)
(23.3505 -3.87453 5.95613e-15)
(23.0974 -3.83012 0)
(22.8371 -3.78501 0)
(22.5764 -3.74051 4.99487e-15)
(22.3206 -3.69758 -4.69389e-15)
(22.0735 -3.65684 0)
(21.8379 -3.61866 4.13071e-15)
(21.6152 -3.58321 -4.32114e-21)
(21.4065 -3.55052 -3.62149e-15)
(21.2118 -3.52051 0)
(21.0311 -3.49303 0)
(20.8638 -3.46792 0)
(20.7094 -3.44498 -2.75883e-15)
(20.5671 -3.42403 5.14667e-15)
(20.436 -3.4049 -4.79801e-15)
(20.3155 -3.38741 2.23536e-15)
(20.2046 -3.37142 0)
(20.1028 -3.35679 0)
(20.0093 -3.34342 0)
(19.9235 -3.3312 0)
(19.8448 -3.32004 0)
(19.7726 -3.30987 -1.45135e-15)
(19.7065 -3.30062 1.34926e-15)
(19.646 -3.29223 0)
(19.5908 -3.28465 0)
(19.5404 -3.27783 0)
(19.4945 -3.27171 1.0063e-15)
(19.4528 -3.26626 -9.34924e-16)
(19.415 -3.26145 0)
(19.3807 -3.25722 0)
(19.3499 -3.25355 7.49538e-16)
(19.3221 -3.2504 -1.74657e-23)
(19.2973 -3.24774 -6.46786e-16)
(19.2751 -3.24555 0)
(19.2554 -3.24382 0)
(19.2381 -3.24244 0)
(19.2229 -3.24151 0)
(25.0853 -2.71418 0)
(24.4906 -2.63297 0)
(24.6714 -2.76172 4.35017e-16)
(24.4573 -2.68301 -9.5136e-16)
(24.5363 -2.8173 5.14502e-16)
(24.3914 -2.77788 0)
(24.381 -2.88329 1.19289e-15)
(24.2987 -2.8919 1.56359e-20)
(24.2711 -2.97494 -1.36485e-15)
(24.2256 -3.01463 0)
(24.2 -3.08321 -1.55435e-15)
(24.1726 -3.13697 1.65588e-15)
(24.1553 -3.19903 0)
(24.1399 -3.25591 0)
(24.1295 -3.31493 -1.98533e-15)
(24.1215 -3.37094 2.10295e-15)
(24.1165 -3.4266 0)
(24.1129 -3.48087 0)
(24.1114 -3.53406 0)
(24.1122 -3.58493 0)
(24.115 -3.63349 0)
(24.1198 -3.67975 5.71621e-15)
(24.1263 -3.72366 -2.11618e-20)
(24.1341 -3.7652 -2.39272e-20)
(24.1432 -3.80438 -6.46941e-15)
(24.1532 -3.84127 0)
(24.1642 -3.87565 0)
(24.1761 -3.9075 7.16282e-15)
(24.1885 -3.93725 -7.37418e-15)
(24.2014 -3.96515 0)
(24.2148 -3.99126 0)
(24.2286 -4.01568 7.92609e-15)
(24.2427 -4.03846 -1.61421e-14)
(24.2562 -4.05945 3.31004e-20)
(24.2663 -4.07798 3.22564e-20)
(24.2667 -4.09254 3.11151e-20)
(24.2469 -4.10078 8.20925e-15)
(24.1942 -4.09999 0)
(24.0966 -4.08813 0)
(23.9474 -4.06442 -7.62748e-15)
(23.747 -4.02968 1.46581e-14)
(23.5021 -3.986 -7.00284e-15)
(23.2234 -3.93612 0)
(22.923 -3.88283 -6.31671e-15)
(22.6121 -3.82857 5.97443e-15)
(22.3006 -3.77526 0)
(21.9957 -3.72426 0)
(21.7029 -3.67647 5.00535e-15)
(21.4259 -3.63236 -4.70776e-15)
(21.1665 -3.59213 0)
(20.926 -3.55574 4.1536e-15)
(20.7043 -3.52304 -3.89675e-15)
(20.501 -3.49376 0)
(20.3154 -3.46762 0)
(20.1462 -3.44428 -3.20285e-15)
(19.9924 -3.42343 2.99576e-15)
(19.8526 -3.40479 0)
(19.7257 -3.38809 0)
(19.6105 -3.37307 0)
(19.5059 -3.35956 2.27755e-15)
(19.4108 -3.34735 -4.2471e-15)
(19.3245 -3.33631 1.979e-15)
(19.2461 -3.32631 0)
(19.1748 -3.31724 0)
(19.1101 -3.30908 -1.59788e-15)
(19.0514 -3.30171 1.48694e-15)
(18.9982 -3.2951 0)
(18.9502 -3.28919 1.28668e-15)
(18.9068 -3.28398 -1.75959e-22)
(18.8678 -3.27941 -1.11249e-15)
(18.8328 -3.27544 0)
(18.8014 -3.27204 0)
(18.7735 -3.26919 0)
(18.7488 -3.26686 0)
(18.727 -3.26503 0)
(18.7081 -3.26368 0)
(18.6917 -3.26278 0)
(18.6776 -3.26231 0)
(18.6658 -3.26224 0)
(18.6561 -3.26261 0)
(25.0993 -2.68747 0)
(24.4775 -2.60193 0)
(24.6639 -2.73577 4.3091e-16)
(24.4404 -2.65292 -4.71149e-16)
(24.5169 -2.79108 0)
(24.3667 -2.74993 0)
(24.3517 -2.85893 0)
(24.264 -2.86683 0)
(24.2332 -2.95367 -1.35498e-15)
(24.1826 -2.99428 1.44892e-15)
(24.1539 -3.06685 0)
(24.1222 -3.12322 0)
(24.1018 -3.18917 0)
(24.083 -3.24951 0)
(24.0698 -3.31276 0)
(24.0591 -3.37289 0)
(24.0518 -3.43279 0)
(24.0465 -3.49103 0)
(24.0433 -3.54863 0)
(24.0426 -3.60407 0)
(24.0444 -3.65718 0)
(24.0483 -3.70793 0)
(24.0541 -3.75627 0)
(24.0616 -3.80216 0)
(24.0705 -3.84559 0)
(24.0805 -3.88657 0)
(24.0915 -3.92513 0)
(24.1035 -3.96108 0)
(24.1165 -3.99453 0)
(24.13 -4.0259 0)
(24.1442 -4.05536 0)
(24.159 -4.08299 0)
(24.1741 -4.10882 0)
(24.1884 -4.13258 0)
(24.1978 -4.15322 0)
(24.1931 -4.16846 0)
(24.1592 -4.17488 0)
(24.079 -4.16893 0)
(23.9386 -4.14835 0)
(23.7329 -4.11306 0)
(23.4667 -4.06512 0)
(23.1525 -4.00799 0)
(22.806 -3.94554 0)
(22.443 -3.88129 -6.70118e-15)
(22.0769 -3.81806 6.34829e-15)
(21.7186 -3.75788 0)
(21.3755 -3.70202 0)
(21.0528 -3.6512 0)
(20.7534 -3.60567 5.0503e-15)
(20.4785 -3.5654 -4.75914e-15)
(20.2284 -3.53012 4.48129e-15)
(20.0023 -3.49946 -4.21639e-15)
(19.7989 -3.47296 0)
(19.6168 -3.45016 0)
(19.4541 -3.43058 3.49496e-15)
(19.309 -3.41379 -3.27749e-15)
(19.1799 -3.39938 3.07096e-15)
(19.065 -3.38698 -5.75045e-15)
(18.9628 -3.37634 2.68993e-15)
(18.8718 -3.36704 0)
(18.7908 -3.35902 2.34928e-15)
(18.7186 -3.35203 -2.19331e-15)
(18.6542 -3.34589 0)
(18.5968 -3.34052 0)
(18.5456 -3.33582 0)
(18.5 -3.33173 1.65748e-15)
(18.4595 -3.32819 -4.74452e-22)
(18.4234 -3.32515 -2.87472e-15)
(18.3915 -3.3226 2.67588e-15)
(18.3634 -3.32051 -2.84368e-22)
(18.3387 -3.31887 -2.31701e-15)
(18.3173 -3.31766 1.07775e-15)
(18.2988 -3.31687 1.0025e-15)
(18.2831 -3.3165 -1.86482e-15)
(18.2699 -3.31653 1.73431e-15)
(18.259 -3.31695 -8.22595e-23)
(18.2504 -3.31774 -7.49903e-16)
(18.2438 -3.31889 0)
(18.2391 -3.32038 0)
(18.2361 -3.32225 0)
(25.1128 -2.66142 8.95699e-17)
(24.4652 -2.57168 -9.91952e-17)
(24.6568 -2.71032 2.13445e-16)
(24.4247 -2.62329 -2.3336e-16)
(24.499 -2.76501 5.04398e-16)
(24.3432 -2.72223 1.00269e-20)
(24.3238 -2.83468 -5.85371e-16)
(24.2308 -2.84199 0)
(24.1969 -2.932 0)
(24.1412 -2.97339 0)
(24.1093 -3.04967 -1.53918e-15)
(24.073 -3.10839 1.64404e-15)
(24.0494 -3.17813 0)
(24.0269 -3.24175 -1.86861e-15)
(24.0108 -3.30914 1.98845e-15)
(23.9971 -3.37323 0)
(23.9871 -3.4375 0)
(23.9799 -3.49971 2.37628e-15)
(23.9749 -3.56151 -5.02759e-15)
(23.9724 -3.6215 4.63873e-21)
(23.9727 -3.67919 2.798e-15)
(23.9755 -3.73447 -2.94331e-15)
(23.9805 -3.7873 3.08981e-15)
(23.9873 -3.83761 0)
(23.9957 -3.88536 0)
(24.0055 -3.93056 0)
(24.0164 -3.97324 -3.67191e-15)
(24.0283 -4.01338 3.81294e-15)
(24.0414 -4.05086 3.95084e-15)
(24.0554 -4.08588 -4.08496e-15)
(24.0702 -4.11881 -4.21403e-15)
(24.0859 -4.1498 8.6719e-15)
(24.102 -4.17883 -8.89323e-15)
(24.117 -4.20548 2.13003e-20)
(24.1252 -4.22821 2.09933e-20)
(24.1135 -4.24373 4.62589e-15)
(24.0614 -4.24728 4.60239e-15)
(23.947 -4.23444 -4.53066e-15)
(23.7553 -4.20306 8.83307e-15)
(23.4847 -4.15423 -8.54056e-15)
(23.1465 -4.0917 8.20578e-15)
(22.7596 -4.02051 -7.84788e-15)
(22.3451 -3.94565 7.48102e-15)
(21.9218 -3.87126 -7.115e-15)
(21.5051 -3.80038 0)
(21.106 -3.73497 0)
(20.7319 -3.67613 -6.07085e-15)
(20.387 -3.62429 5.74763e-15)
(20.0735 -3.57942 0)
(19.7915 -3.5412 0)
(19.5403 -3.50911 0)
(19.3182 -3.48253 0)
(19.1231 -3.46082 0)
(18.9526 -3.44332 0)
(18.8044 -3.4294 3.8365e-15)
(18.6759 -3.41851 -3.6089e-15)
(18.5649 -3.41011 -3.39164e-15)
(18.4693 -3.40376 3.18451e-15)