/*--------------------------------*- C++ -*----------------------------------*\
  =========                 |
  \\      /  F ield         | OpenFOAM: The Open Source CFD Toolbox
   \\    /   O peration     | Website:  https://openfoam.org
    \\  /    A nd           | Version:  9
     \\/     M anipulation  |
\*---------------------------------------------------------------------------*/
FoamFile
{
    format      ascii;
    class       volVectorField;
    location    "0.0025";
    object      U;
}
// * * * * * * * * * * * * * * * * * * * * * * * * * * * * * * * * * * * * * //

dimensions      [0 1 -1 0 0 0 0];

internalField   nonuniform List<vector> 
6127
(
(81.2643 7.59925 -7.975e-17)
(85.6716 4.75116 0)
(93.5181 0.378197 1.42119e-17)
(113.788 15.6291 7.00055e-17)
(133.189 12.6167 0)
(161.5 2.92068 6.94562e-21)
(118.405 13.413 -6.75497e-17)
(142.36 11.587 1.12378e-19)
(173.887 0.760701 -1.00577e-17)
(119.069 12.6894 6.58739e-17)
(142.563 10.8764 0)
(178.136 -0.0798128 4.75211e-18)
(119.659 11.3531 -3.22615e-17)
(141.25 9.69239 1.11302e-19)
(183.511 -1.05375 -4.51379e-18)
(120.075 10.2618 3.12339e-17)
(140.307 8.57541 0)
(186.527 -2.13576 0)
(120.347 9.02354 1.15416e-19)
(140.064 7.36293 -1.13947e-19)
(186.81 -3.24993 0)
(120.573 7.80179 -3.00836e-17)
(139.948 6.17952 1.16338e-19)
(186.982 -4.08234 0)
(120.795 6.53859 2.97968e-17)
(139.782 4.98417 0)
(187.354 -4.7648 0)
(121.011 5.26993 -1.15723e-19)
(139.549 3.79935 -1.45714e-17)
(187.925 -5.14796 2.08722e-18)
(121.219 4.04305 0)
(139.329 2.64649 1.45193e-17)
(188.721 -5.15586 -2.17143e-18)
(121.447 2.76418 -1.56918e-17)
(139.403 1.46859 1.69807e-19)
(188.853 -4.81891 -3.72067e-20)
(121.542 1.60601 2.35741e-17)
(138.788 0.465194 0)
(187.982 -3.72925 1.3376e-18)
(117.197 0.468995 -4.2448e-18)
(130.02 -0.431837 2.0398e-18)
(175.379 -1.885 -1.75684e-18)
(84.2001 -2.21124 -5.18704e-18)
(83.8933 -2.29915 -2.33792e-18)
(104.516 -1.30062 0)
(25.1183 -2.44892 0)
(24.4309 -2.31386 0)
(24.5567 -2.47245 0)
(24.2828 -2.33688 0)
(24.213 -2.47657 0)
(24.0208 -2.40387 0)
(23.9089 -2.51211 0)
(23.7611 -2.49459 0)
(23.6421 -2.58569 0)
(23.5054 -2.60535 0)
(23.3804 -2.69164 0)
(23.2477 -2.73943 0)
(23.1182 -2.82753 0)
(24.8208 -3.26484 0)
(24.7255 -3.26189 0)
(24.7684 -3.28942 0)
(24.7346 -3.29284 0)
(24.7516 -3.3332 0)
(24.72 -3.33994 0)
(24.74 -3.38474 0)
(24.7234 -3.40074 0)
(24.7309 -3.43981 0)
(24.7306 -3.4652 0)
(24.732 -3.49792 0)
(24.7322 -3.52648 0)
(24.7317 -3.55556 0)
(24.7302 -3.58322 0)
(24.7279 -3.60991 0)
(24.7252 -3.63545 0)
(24.7221 -3.65983 2.9894e-14)
(24.719 -3.68307 -6.05169e-14)
(24.716 -3.70514 3.05634e-14)
(24.7132 -3.72605 3.08065e-14)
(24.7105 -3.74581 -3.09862e-14)
(24.708 -3.76444 3.11015e-14)
(24.7057 -3.78195 -6.23046e-14)
(24.7036 -3.79836 6.22781e-14)
(24.7016 -3.81368 -3.10629e-14)
(24.6997 -3.82794 3.09257e-14)
(24.6978 -3.84118 -3.07298e-14)
(24.6961 -3.85344 0)
(24.6943 -3.86475 0)
(24.6927 -3.87515 0)
(24.6911 -3.88472 0)
(24.6896 -3.89348 0)
(24.6881 -3.90152 0)
(24.6867 -3.90891 0)
(24.6854 -3.91569 0)
(24.6842 -3.92185 0)
(24.683 -3.92747 0)
(24.682 -3.93262 2.55816e-14)
(24.681 -3.93729 -4.98178e-14)
(24.68 -3.94158 2.42097e-14)
(24.6791 -3.94547 0)
(24.678 -3.94901 0)
(24.6767 -3.95222 -2.19741e-14)
(24.6751 -3.95509 2.1192e-14)
(24.6729 -3.95762 0)
(24.67 -3.95982 1.9594e-14)
(24.6662 -3.96167 -1.87867e-14)
(24.6612 -3.96314 1.79798e-14)
(24.6549 -3.96425 1.7467e-21)
(24.6473 -3.96496 1.83452e-21)
(24.6381 -3.96526 1.99397e-21)
(24.6275 -3.96516 1.96176e-21)
(24.6155 -3.96465 -2.8183e-14)
(24.6021 -3.96376 2.67302e-14)
(24.5874 -3.96251 -1.2661e-14)
(24.5715 -3.9609 0)
(24.5545 -3.95895 0)
(24.5365 -3.95669 1.06942e-14)
(24.5175 -3.95402 -1.00893e-14)
(24.4978 -3.95093 -1.44489e-14)
(24.8288 -3.24718 0)
(24.6939 -3.23619 0)
(24.7358 -3.27233 0)
(24.6762 -3.26687 0)
(24.6887 -3.31713 -4.76378e-15)
(24.6373 -3.31708 1.03463e-14)
(24.6508 -3.3728 5.60653e-15)
(24.6232 -3.38471 -1.1943e-14)
(24.6231 -3.42905 -1.23976e-14)
(24.6161 -3.45466 2.56158e-14)
(24.6115 -3.49059 1.81393e-20)
(24.6066 -3.52096 1.45382e-20)
(24.6015 -3.55257 -1.39798e-14)
(24.5962 -3.58221 0)
(24.5907 -3.61092 0)
(24.5853 -3.63821 0)
(24.5804 -3.66415 1.52976e-14)
(24.576 -3.68879 1.16008e-22)
(24.5721 -3.71231 -1.58018e-14)
(24.5687 -3.7348 -3.20151e-14)
(24.5661 -3.75599 6.47213e-14)
(24.564 -3.77577 -3.2638e-14)
(24.5625 -3.7942 0)
(24.5615 -3.81132 3.29834e-14)
(24.5607 -3.82721 -2.37135e-20)
(24.5603 -3.8419 -3.30503e-14)
(24.56 -3.85547 3.29826e-14)
(24.5599 -3.86799 -3.28505e-14)
(24.5599 -3.87953 3.26572e-14)
(24.5599 -3.89014 -3.24061e-14)
(24.56 -3.89987 0)
(24.5601 -3.90881 3.17441e-14)
(24.5603 -3.91707 -3.13395e-14)
(24.5606 -3.92461 0)
(24.5609 -3.93148 -3.03942e-14)
(24.5614 -3.93789 2.52822e-20)
(24.5619 -3.94388 2.92729e-14)
(24.5625 -3.94945 0)
(24.5629 -3.9546 0)
(24.563 -3.95932 0)
(24.5624 -3.96358 2.64954e-14)
(24.5606 -3.9673 -2.56935e-14)
(24.5571 -3.9704 0)
(24.5513 -3.97277 -2.39816e-14)
(24.5423 -3.97428 4.61654e-14)
(24.5297 -3.97483 -2.21642e-14)
(24.5131 -3.97444 0)
(24.492 -3.97302 -2.02985e-14)
(24.4664 -3.97044 1.93656e-14)
(24.4366 -3.96689 0)
(24.4026 -3.96266 0)
(24.3646 -3.95726 1.66407e-14)
(24.3232 -3.95111 -1.57731e-14)
(24.2787 -3.94429 0)
(24.2319 -3.93686 0)
(24.1832 -3.92896 0)
(24.1331 -3.92073 0)
(24.082 -3.91218 -1.18655e-14)
(24.0303 -3.90331 1.11781e-14)
(23.978 -3.89422 0)
(24.8395 -3.22632 0)
(24.6766 -3.21078 0)
(24.7218 -3.25206 0)
(24.6472 -3.24138 -4.34744e-15)
(24.6585 -3.29732 4.70182e-15)
(24.5958 -3.29406 0)
(24.6063 -3.3535 0)
(24.5714 -3.36599 -5.88164e-15)
(24.5678 -3.41453 -6.12336e-15)
(24.5559 -3.44226 1.2706e-14)
(24.5486 -3.48075 -1.3161e-14)
(24.5408 -3.51313 -2.70698e-20)
(24.5334 -3.54747 1.40509e-14)
(24.5261 -3.57959 0)
(24.5192 -3.61098 0)
(24.5129 -3.64098 0)
(24.5073 -3.66984 1.56562e-14)
(24.5028 -3.69717 -1.60028e-14)
(24.4991 -3.72335 0)
(24.4962 -3.7489 0)
(24.4942 -3.77329 0)
(24.493 -3.79624 0)
(24.4925 -3.8178 0)
(24.4925 -3.83803 0)
(24.493 -3.85697 0)
(24.4938 -3.87466 0)
(24.4948 -3.89115 0)
(24.4959 -3.9065 0)
(24.4972 -3.92077 0)
(24.4985 -3.93402 0)
(24.4999 -3.94632 0)
(24.5013 -3.95774 0)
(24.5029 -3.96833 0)
(24.5045 -3.97814 0)
(24.5062 -3.98721 0)
(24.508 -3.99562 0)
(24.5097 -4.00338 0)
(24.5111 -4.01049 0)
(24.5118 -4.0169 0)
(24.5112 -4.02251 0)
(24.5083 -4.02716 0)
(24.5018 -4.03064 0)
(24.4903 -4.0327 0)
(24.4727 -4.03311 0)
(24.4476 -4.03168 0)
(24.4141 -4.02834 0)
(24.372 -4.02288 0)
(24.3216 -4.01532 0)
(24.2631 -4.0066 0)
(24.1973 -3.99587 0)
(24.1252 -3.98379 0)
(24.0481 -3.97063 0)
(23.9672 -3.95667 0)
(23.8837 -3.94215 0)
(23.7986 -3.92719 0)
(23.7129 -3.91205 0)
(23.6275 -3.89696 0)
(23.5429 -3.88195 0)
(23.4598 -3.8671 0)
(23.3786 -3.85263 0)
(24.8513 -3.19532 0)
(24.657 -3.17463 0)
(24.7041 -3.22262 -1.98384e-15)
(24.6118 -3.20561 2.15047e-15)
(24.6209 -3.26847 0)
(24.5452 -3.26169 0)
(24.5511 -3.3272 5.44381e-15)
(24.5076 -3.33861 3.24304e-20)
(24.4998 -3.39241 -6.05158e-15)
(24.4813 -3.42202 0)
(24.4697 -3.46425 0)
(24.4579 -3.49918 0)
(24.4472 -3.53687 0)
(24.4369 -3.57217 0)
(24.4276 -3.60687 0)
(24.4193 -3.64008 0)
(24.4123 -3.67218 0)
(24.4068 -3.70256 1.64048e-14)
(24.4023 -3.73218 -3.36087e-14)
(24.399 -3.76141 3.43524e-14)
(24.3968 -3.78909 -1.75175e-14)
(24.3957 -3.81514 1.78257e-14)
(24.3955 -3.83967 -1.80987e-14)
(24.3959 -3.86271 -1.83349e-14)
(24.3969 -3.88429 3.70667e-14)
(24.3983 -3.90444 -1.86934e-14)
(24.3999 -3.92323 1.88151e-14)
(24.4017 -3.94071 -1.88991e-14)
(24.4036 -3.95696 0)
(24.4057 -3.97204 0)
(24.4078 -3.98605 1.89361e-14)
(24.4101 -3.99907 -1.88815e-14)
(24.4125 -4.01112 1.87947e-14)
(24.4151 -4.02218 -3.73513e-14)
(24.4178 -4.03235 2.58766e-20)
(24.4206 -4.0418 3.66641e-14)
(24.423 -4.05051 -1.80998e-14)
(24.4245 -4.05837 0)
(24.424 -4.06516 0)
(24.4198 -4.07057 0)
(24.4096 -4.07415 0)
(24.3907 -4.07542 -1.61767e-14)
(24.3606 -4.07392 1.56395e-14)
(24.3172 -4.06928 0)
(24.2591 -4.06132 0)
(24.1859 -4.05004 -1.38379e-14)
(24.0983 -4.03565 1.32068e-14)
(23.9975 -4.01851 1.25755e-14)
(23.8857 -3.99908 -8.01828e-21)
(23.7651 -3.97791 -1.13392e-14)
(23.6382 -3.95551 0)
(23.5073 -3.93237 1.01691e-14)
(23.3745 -3.90894 -9.61575e-15)
(23.2416 -3.88558 9.08542e-15)
(23.1104 -3.86259 -1.71572e-14)
(22.9819 -3.84022 3.32179e-21)
(22.8572 -3.81863 7.6354e-15)
(22.7371 -3.79794 0)
(22.622 -3.77823 0)
(22.5123 -3.75969 0)
(24.8643 -3.15943 0)
(24.6382 -3.13352 0)
(24.69 -3.18863 0)
(24.5808 -3.1654 -2.12893e-15)
(24.5879 -3.23482 2.29737e-15)
(24.5002 -3.22469 0)
(24.5015 -3.29582 -5.373e-15)
(24.4504 -3.30717 1.14459e-14)
(24.4382 -3.36561 -5.98416e-15)
(24.4134 -3.39682 6.25332e-15)
(24.3975 -3.44397 3.0127e-20)
(24.3814 -3.48235 -1.35947e-14)
(24.3675 -3.52371 7.07078e-15)
(24.3542 -3.56267 0)
(24.3424 -3.60139 0)
(24.3322 -3.63853 0)
(24.3238 -3.67468 0)
(24.3173 -3.7091 1.67698e-14)
(24.3123 -3.74281 -1.72486e-14)
(24.3086 -3.77623 -1.77034e-14)
(24.3064 -3.80814 1.81308e-14)
(24.3055 -3.8383 -1.85275e-14)
(24.3057 -3.86682 1.88909e-14)
(24.3068 -3.89371 -1.92186e-14)
(24.3085 -3.919 3.90179e-14)
(24.3108 -3.94271 -1.97608e-14)
(24.3134 -3.96489 0)
(24.3163 -3.98559 0)
(24.3194 -4.00488 0)
(24.3227 -4.02287 0)
(24.3262 -4.03958 0)
(24.3299 -4.05506 0)
(24.3338 -4.0693 -2.04661e-14)
(24.338 -4.08242 4.08453e-14)
(24.3424 -4.09463 -2.03386e-14)
(24.3467 -4.10593 2.02071e-14)
(24.3502 -4.11619 -2.00193e-14)
(24.3514 -4.12509 1.97658e-14)
(24.3477 -4.13211 -3.04402e-20)
(24.3355 -4.13649 -3.80594e-14)
(24.3102 -4.13733 3.70842e-14)
(24.2673 -4.13381 -2.45957e-20)
(24.2029 -4.12528 -1.73589e-14)
(24.1149 -4.11144 -1.66891e-14)
(24.0028 -4.09242 1.83502e-20)
(23.8685 -4.06875 1.52699e-14)
(23.7149 -4.04121 -1.45486e-14)
(23.5461 -4.01074 1.29974e-20)
(23.3664 -3.97832 1.15142e-20)
(23.1802 -3.94485 1.24559e-14)
(22.9913 -3.91114 0)
(22.803 -3.87786 0)
(22.6182 -3.84552 -1.0571e-14)
(22.4389 -3.81452 6.17276e-21)
(22.2668 -3.78514 5.44445e-21)
(22.1031 -3.75756 8.93073e-15)
(21.9484 -3.73188 -8.43651e-15)
(21.8033 -3.70815 1.5934e-14)
(21.668 -3.68633 -3.48773e-21)
(21.5422 -3.66661 -1.01012e-14)
(24.8781 -3.1199 -4.18535e-16)
(24.6199 -3.08853 4.52441e-16)
(24.6767 -3.15086 -9.73318e-16)
(24.5519 -3.12179 1.05429e-15)
(24.5559 -3.19774 2.27346e-15)
(24.4568 -3.184 -2.46125e-15)
(24.4531 -3.26057 -2.65149e-15)
(24.3942 -3.27198 8.47019e-15)
(24.3774 -3.33497 4.69809e-20)
(24.3462 -3.36788 -1.24115e-14)
(24.326 -3.41999 -3.80646e-20)
(24.3047 -3.46204 -3.19044e-20)
(24.2871 -3.50756 1.41664e-14)
(24.2702 -3.55038 2.23955e-20)
(24.2555 -3.59358 -7.6779e-15)
(24.2429 -3.63508 0)
(24.2326 -3.67569 0)
(24.2245 -3.71468 0)
(24.2186 -3.75286 0)
(24.2141 -3.79074 0)
(24.2114 -3.82732 -9.35243e-15)
(24.2102 -3.86205 9.59545e-15)
(24.2105 -3.89498 0)
(24.2118 -3.92614 0)
(24.2139 -3.95555 0)
(24.2167 -3.9832 -2.0806e-14)
(24.22 -4.00914 4.82307e-20)
(24.2237 -4.03342 2.13903e-14)
(24.2277 -4.05611 -2.1625e-14)
(24.2321 -4.07733 2.18224e-14)
(24.2368 -4.09689 0)
(24.2419 -4.11483 0)
(24.2474 -4.13153 0)
(24.2532 -4.14716 0)
(24.2593 -4.16173 0)
(24.265 -4.17514 2.21901e-14)
(24.2688 -4.18706 -4.41141e-14)
(24.2678 -4.19679 2.18324e-14)
(24.2566 -4.20321 0)
(24.2282 -4.20485 2.10591e-14)
(24.1752 -4.20023 -2.05075e-14)
(24.0907 -4.18819 0)
(23.9708 -4.16824 1.91404e-14)
(23.8153 -4.14064 -1.83695e-14)
(23.6273 -4.10641 -1.75707e-14)
(23.4124 -4.06699 2.32912e-20)
(23.1778 -4.02405 3.19258e-14)
(22.9308 -3.97921 -1.51793e-14)
(22.6784 -3.93394 -1.44198e-14)
(22.4264 -3.88941 1.36886e-14)
(22.1798 -3.84655 0)
(21.9422 -3.80602 -1.23183e-14)
(21.7164 -3.76826 1.16795e-14)
(21.5042 -3.73352 0)
(21.3066 -3.70193 -1.0491e-14)
(21.1242 -3.67349 9.93893e-15)
(20.9571 -3.64812 9.4133e-15)
(20.805 -3.62574 -8.9128e-15)
(20.6675 -3.60614 0)
(20.5437 -3.58939 1.11392e-14)
(24.8923 -3.07845 0)
(24.6025 -3.04154 -4.4887e-16)
(24.6642 -3.11088 4.8231e-16)
(24.5254 -3.07626 0)
(24.5259 -3.15879 -2.25076e-15)
(24.4162 -3.14124 4.87107e-15)
(24.4073 -3.22269 3.09395e-20)
(24.3409 -3.23425 2.94763e-20)
(24.3192 -3.30166 -5.8618e-15)
(24.2815 -3.33626 -2.50636e-20)
(24.257 -3.39303 3.23158e-15)
(24.23 -3.43871 0)
(24.2083 -3.48896 0)
(24.1875 -3.5357 0)
(24.1694 -3.58364 0)
(24.1539 -3.62983 8.05649e-15)
(24.1413 -3.6753 -8.37895e-15)
(24.1314 -3.71933 -8.6985e-15)
(24.1241 -3.76231 -9.69102e-23)
(24.1186 -3.80489 9.32071e-15)
(24.115 -3.84661 0)
(24.1133 -3.88646 0)
(24.1133 -3.92436 -1.01816e-14)
(24.1146 -3.96039 2.17396e-20)
(24.117 -3.99452 2.50349e-20)
(24.1202 -4.02673 1.09119e-14)
(24.1241 -4.05706 0)
(24.1286 -4.08556 0)
(24.1336 -4.11229 0)
(24.139 -4.13732 0)
(24.1451 -4.16038 0)
(24.1517 -4.18163 1.18912e-14)
(24.1589 -4.20158 -1.19917e-14)
(24.1666 -4.22031 1.2071e-14)
(24.1746 -4.23777 -2.42465e-14)
(24.1818 -4.25373 1.21386e-14)
(24.1854 -4.2675 0)
(24.1794 -4.27769 0)
(24.1545 -4.28218 0)
(24.0989 -4.27853 0)
(24.0014 -4.26467 -1.12786e-14)
(23.8545 -4.23953 1.09077e-14)
(23.6569 -4.20343 0)
(23.4132 -4.15797 0)
(23.1326 -4.10556 -9.6232e-15)
(22.8267 -4.04891 9.18401e-15)
(22.5069 -3.99061 0)
(22.1838 -3.93286 0)
(21.8662 -3.87736 0)
(21.5608 -3.82534 0)
(21.2724 -3.77759 7.18936e-15)
(21.0043 -3.73457 -6.84013e-15)
(20.7584 -3.69644 -6.50676e-15)
(20.5354 -3.66319 6.18842e-15)
(20.3355 -3.63464 0)
(20.1579 -3.6106 5.59291e-15)
(20.0018 -3.59061 -1.0628e-14)
(19.8659 -3.57462 5.04668e-15)
(19.7487 -3.56195 0)
(19.6485 -3.55258 -6.21007e-15)
(24.9067 -3.03625 0)
(24.5861 -2.99384 4.45364e-16)
(24.6529 -3.06985 -4.78096e-16)
(24.5002 -3.02965 0)
(24.4988 -3.11862 0)
(24.3778 -3.09762 0)
(24.3638 -3.18331 0)
(24.2901 -3.19487 2.7558e-15)
(24.2635 -3.26645 3.20858e-20)
(24.2192 -3.30261 -3.05777e-15)
(24.1901 -3.36374 0)
(24.1575 -3.41263 -3.37929e-15)
(24.1308 -3.46785 7.09218e-15)
(24.1058 -3.51869 -3.71637e-15)
(24.084 -3.57139 -7.77845e-15)
(24.065 -3.62244 -2.19576e-20)
(24.0496 -3.67303 -1.52415e-20)
(24.0373 -3.72231 8.83065e-15)
(24.0281 -3.77036 0)
(24.0213 -3.81785 0)
(24.0164 -3.86492 -9.86553e-15)
(24.0138 -3.91028 1.01971e-14)
(24.0131 -3.95357 1.05183e-14)
(24.0141 -3.99488 -1.08275e-14)
(24.0163 -4.03417 -1.11228e-14)
(24.0196 -4.07142 3.31571e-20)
(24.0239 -4.10662 2.33337e-14)
(24.0289 -4.13982 -1.19141e-14)
(24.0346 -4.17107 0)
(24.041 -4.20043 0)
(24.0482 -4.22758 -1.2557e-14)
(24.0563 -4.25271 1.27391e-14)
(24.0652 -4.27637 1.29037e-14)
(24.0748 -4.29866 -1.3047e-14)
(24.0848 -4.31945 0)
(24.0933 -4.33831 1.32276e-14)
(24.0953 -4.35393 -1.32313e-14)
(24.0806 -4.36382 -1.31511e-14)
(24.0335 -4.36442 1.29742e-14)
(23.9363 -4.35214 0)
(23.7751 -4.32464 0)
(23.5444 -4.28175 0)
(23.2494 -4.22558 1.14729e-14)
(22.9031 -4.15974 -2.54667e-20)
(22.5227 -4.08844 -2.24429e-20)
(22.1258 -4.01563 -1.97015e-20)
(21.7278 -3.94461 -1.92494e-14)
(21.3415 -3.8778 1.8393e-14)
(20.9761 -3.81686 -1.32526e-20)
(20.638 -3.76276 -1.67915e-14)
(20.3312 -3.71592 8.02175e-15)
(20.0576 -3.67641 0)
(19.8175 -3.64394 0)
(19.6102 -3.61824 6.98921e-15)
(19.4343 -3.59872 -6.88701e-21)
(19.2875 -3.58459 -6.36267e-15)
(19.1674 -3.57543 6.06529e-15)
(19.072 -3.57047 -3.89126e-21)
(18.9989 -3.56958 -3.38561e-21)
(18.9449 -3.57206 -6.98684e-15)
(24.9209 -2.99428 0)
(24.5708 -2.94645 0)
(24.6425 -3.0288 0)
(24.4768 -2.98294 0)
(24.4727 -3.07769 0)
(24.3436 -3.05385 -1.19368e-15)
(24.3228 -3.14359 1.28022e-15)
(24.2423 -3.15471 -2.72543e-15)
(24.2107 -3.23004 5.75301e-15)
(24.1598 -3.26751 -3.03618e-15)
(24.1259 -3.33277 -3.20004e-15)
(24.0875 -3.38423 3.37013e-15)
(24.0557 -3.44435 0)
(24.0257 -3.49957 -3.72421e-15)
(23.9999 -3.55686 3.90741e-15)
(23.9771 -3.61275 -4.09397e-15)
(23.9583 -3.66858 -1.04098e-20)
(23.9431 -3.72315 4.47349e-15)
(23.9315 -3.77664 0)
(23.9229 -3.82923 4.85562e-15)
(23.9165 -3.8816 -5.0452e-15)
(23.9124 -3.93271 0)
(23.9106 -3.98176 1.08319e-14)
(23.9108 -4.02871 -1.11902e-14)
(23.9126 -4.07356 1.15374e-14)
(23.9157 -4.11626 -1.18724e-14)
(23.9199 -4.15679 -1.21937e-14)
(23.9252 -4.19517 1.2501e-14)
(23.9315 -4.23143 0)
(23.9386 -4.26568 0)
(23.9469 -4.29758 1.33386e-14)
(23.9563 -4.32715 -1.35905e-14)
(23.9669 -4.35503 0)
(23.9785 -4.38138 0)
(23.9905 -4.40602 -1.42259e-14)
(24.0002 -4.42815 2.87092e-14)
(23.9993 -4.4456 -5.72179e-20)
(23.9711 -4.45419 -1.43387e-14)
(23.8918 -4.44846 0)
(23.7371 -4.42372 0)
(23.4927 -4.3781 -1.34542e-14)
(23.1599 -4.31351 4.0994e-20)
(22.7544 -4.23478 1.2514e-14)
(22.3 -4.14807 0)
(21.8223 -4.05934 0)
(21.344 -3.97352 0)
(20.8835 -3.89419 0)
(20.454 -3.82367 0)
(20.0642 -3.76321 0)
(19.7191 -3.71326 9.39778e-15)
(19.4208 -3.67368 -9.02215e-15)
(19.1693 -3.6443 -8.65918e-15)
(18.9627 -3.62383 1.6614e-14)
(18.7985 -3.61135 -7.96403e-15)
(18.6738 -3.60651 0)
(18.5842 -3.6082 -7.30066e-15)
(18.5255 -3.61509 6.97887e-15)
(18.4939 -3.62645 0)
(18.4859 -3.64159 0)
(18.4976 -3.66001 0)
(24.9348 -2.95324 0)
(24.5566 -2.90015 -4.38421e-16)
(24.6333 -2.98847 9.39747e-16)
(24.4554 -2.93695 -1.52563e-15)
(24.449 -3.03686 1.09366e-15)
(24.3117 -3.01049 -1.18215e-15)
(24.2846 -3.10402 -2.12589e-20)
(24.1976 -3.11439 1.34835e-15)
(24.161 -3.19299 1.42555e-15)
(24.1035 -3.23147 -1.50747e-15)
(24.0647 -3.30046 0)
(24.0203 -3.35421 0)
(23.9836 -3.41894 0)
(23.948 -3.47826 0)
(23.9178 -3.54008 0)
(23.8906 -3.60064 0)
(23.8681 -3.6617 0)
(23.8495 -3.72153 0)
(23.8349 -3.7807 0)
(23.8239 -3.83857 -4.93842e-15)
(23.8156 -3.8961 5.14679e-15)
(23.8096 -3.953 0)
(23.8063 -4.00805 0)
(23.8052 -4.06091 0)
(23.8061 -4.11161 5.96335e-15)
(23.8086 -4.1601 -6.15842e-15)
(23.8125 -4.20632 6.34838e-15)
(23.8177 -4.25026 -6.53297e-15)
(23.8242 -4.29195 -6.71205e-15)
(23.8318 -4.33146 6.88592e-15)
(23.8408 -4.36867 7.05473e-15)
(23.8513 -4.4034 -3.4008e-20)
(23.8634 -4.43599 -7.37637e-15)
(23.877 -4.4669 0)
(23.8911 -4.4959 0)
(23.9016 -4.52174 0)
(23.8962 -4.54096 -7.80283e-15)
(23.8494 -4.5471 7.78171e-15)
(23.7268 -4.53235 0)
(23.4986 -4.49124 0)
(23.154 -4.42357 0)
(22.706 -4.33457 0)
(22.1842 -4.23257 0)
(21.6241 -4.12637 0)
(21.0588 -4.0234 0)
(20.5151 -3.92913 0)
(20.0123 -3.84703 -1.17798e-14)
(19.563 -3.77889 1.13671e-14)
(19.1743 -3.72538 0)
(18.8489 -3.6863 1.05899e-14)
(18.5863 -3.66095 -1.02181e-14)
(18.3846 -3.64699 9.853e-15)
(18.2393 -3.64528 -1.89837e-14)
(18.1443 -3.65241 1.82653e-14)
(18.0941 -3.66735 -1.75483e-14)
(18.083 -3.68897 8.41589e-15)
(18.1046 -3.71573 0)
(18.1526 -3.74625 -7.70516e-15)
(18.2213 -3.77928 8.26567e-21)
(18.3056 -3.81409 8.93575e-15)
(24.9482 -2.91365 0)
(24.5436 -2.85549 -2.17461e-16)
(24.625 -2.94939 2.32892e-16)
(24.4359 -2.89233 0)
(24.4269 -2.997 -1.08352e-15)
(24.2816 -2.96817 -2.34509e-20)
(24.2494 -3.06475 1.25356e-15)
(24.1562 -3.07437 0)
(24.1146 -3.15578 1.41322e-15)
(24.0506 -3.19499 2.10554e-20)
(24.0069 -3.26734 -3.16669e-15)
(23.9563 -3.32308 1.67394e-15)
(23.9147 -3.39188 0)
(23.8731 -3.45496 0)
(23.8382 -3.52129 -3.93096e-15)
(23.8064 -3.5862 4.13781e-15)
(23.7796 -3.65235 -4.34995e-15)
(23.7571 -3.71736 9.13358e-15)
(23.7391 -3.78208 -4.78754e-15)
(23.7251 -3.84545 5.01141e-15)
(23.7146 -3.90823 -9.24377e-22)
(23.7065 -3.97063 -4.81356e-21)
(23.701 -4.03173 -1.13846e-14)
(23.6982 -4.0907 5.91908e-15)
(23.6977 -4.14744 6.14409e-15)
(23.6991 -4.20192 -6.36663e-15)
(23.7022 -4.25409 0)
(23.707 -4.30391 6.80205e-15)
(23.7133 -4.35136 -7.0147e-15)
(23.7211 -4.3965 7.22417e-15)
(23.7305 -4.43943 -7.43095e-15)
(23.7417 -4.47985 0)
(23.7551 -4.51774 0)
(23.7703 -4.55367 8.02824e-15)
(23.7864 -4.58753 -1.64068e-14)
(23.7977 -4.61752 8.34169e-15)
(23.7862 -4.63849 0)
(23.7154 -4.64096 -8.4087e-15)
(23.5389 -4.61442 4.13204e-20)
(23.2228 -4.55329 8.13821e-15)
(22.7648 -4.46045 0)
(22.1943 -4.34561 0)
(21.5567 -4.22103 0)
(20.8988 -4.09794 0)
(20.26 -3.98487 6.97159e-15)
(19.6693 -3.88733 -6.75926e-15)
(19.1458 -3.8083 -6.55837e-15)
(18.7006 -3.74886 6.36657e-15)
(18.338 -3.70934 0)
(18.0586 -3.68689 0)
(17.8585 -3.68211 -5.81646e-15)
(17.7313 -3.6912 1.12649e-14)
(17.6699 -3.71256 -8.91973e-21)
(17.6665 -3.74427 -1.05043e-14)
(17.7112 -3.7838 5.05623e-15)
(17.7941 -3.82881 0)
(17.9065 -3.87757 4.66287e-15)
(18.0411 -3.92853 -6.30524e-21)
(18.1914 -3.98041 -8.55739e-15)
(18.3518 -4.03233 1.01606e-14)
(24.961 -2.87589 0)
(24.5317 -2.81286 2.15685e-16)
(24.6176 -2.91195 2.3085e-16)
(24.4182 -2.84953 -4.99551e-16)
(24.4067 -2.9586 0)
(24.254 -2.92727 0)
(24.2172 -3.02617 0)
(24.1179 -3.03506 -1.32144e-15)
(24.0715 -3.11889 1.40108e-15)
(24.0012 -3.15853 1.48631e-15)
(23.9525 -3.23387 -1.57447e-15)
(23.8959 -3.29128 0)
(23.8492 -3.36357 0)
(23.8018 -3.42996 0)
(23.7617 -3.50072 -1.96827e-15)
(23.725 -3.56963 2.07598e-15)
(23.6937 -3.64059 -2.18701e-15)
(23.6669 -3.71057 -2.30115e-15)
(23.645 -3.78063 4.836e-15)
(23.6274 -3.84962 5.07458e-15)
(23.614 -3.91775 -5.31713e-15)
(23.6035 -3.98531 0)
(23.5956 -4.05228 0)
(23.5906 -4.11742 -6.06024e-15)
(23.5882 -4.18029 6.31001e-15)
(23.588 -4.24089 6.55944e-15)
(23.59 -4.29917 -6.80808e-15)
(23.5938 -4.35504 0)
(23.5995 -4.40849 0)
(23.6071 -4.45954 -7.54813e-15)
(23.6166 -4.50825 4.13653e-20)
(23.6281 -4.55469 8.04034e-15)
(23.6421 -4.5986 -8.28574e-15)
(23.6588 -4.64006 8.52618e-15)
(23.6768 -4.67919 -8.74949e-15)
(23.6886 -4.71375 5.20393e-20)
(23.6697 -4.73651 9.0391e-15)
(23.5703 -4.73414 9.04628e-15)
(23.3303 -4.69318 -4.96212e-20)
(22.9145 -4.60887 -8.77854e-15)
(22.3345 -4.48863 0)
(21.639 -4.34757 -8.33147e-15)
(20.8904 -4.20201 8.10437e-15)
(20.1455 -4.06532 0)
(19.4485 -3.94661 0)
(18.8293 -3.85111 0)
(18.3058 -3.78108 7.32771e-15)
(17.8868 -3.73692 -7.15843e-15)
(17.574 -3.71627 6.99075e-15)
(17.3635 -3.71836 -6.82009e-15)
(17.2474 -3.73925 0)
(17.217 -3.77653 -6.45374e-15)
(17.2601 -3.82679 6.25481e-15)
(17.362 -3.88628 -6.04867e-15)
(17.5095 -3.95215 5.83932e-15)
(17.6911 -4.02182 -5.62949e-15)
(17.8966 -4.09321 1.08421e-14)
(18.1172 -4.16462 -1.04302e-14)
(18.3458 -4.23468 1.00246e-14)
(18.5762 -4.30252 -5.82109e-15)
(24.9732 -2.84019 0)
(24.5209 -2.7725 2.13871e-16)
(24.6111 -2.87643 -2.2876e-16)
(24.4024 -2.80884 4.95016e-16)
(24.3882 -2.92183 -5.31594e-16)
(24.229 -2.88807 0)
(24.1877 -2.98871 0)
(24.0828 -2.99681 6.54246e-16)
(24.0316 -3.08271 -6.94521e-16)
(23.9553 -3.12251 0)
(23.9018 -3.20045 0)
(23.8392 -3.25916 -1.65987e-15)
(23.7875 -3.33458 1.75845e-15)
(23.7343 -3.40368 0)
(23.6886 -3.47854 0)
(23.6469 -3.55124 -2.08055e-15)
(23.6109 -3.62661 -1.36007e-20)
(23.5795 -3.70127 4.63048e-15)
(23.5533 -3.77644 -2.438e-15)
(23.5318 -3.85077 0)
(23.5148 -3.92441 2.69294e-15)
(23.5016 -3.9971 -2.8244e-15)
(23.4911 -4.06945 0)
(23.4833 -4.14062 3.09342e-15)
(23.4786 -4.20963 -8.34131e-21)
(23.4764 -4.27635 -3.36792e-15)
(23.4766 -4.34075 0)
(23.4791 -4.40275 0)
(23.4838 -4.4623 0)
(23.4907 -4.51941 0)
(23.4998 -4.57411 -8.14063e-15)
(23.5113 -4.62648 1.68603e-14)
(23.5254 -4.67664 -8.7224e-15)
(23.5428 -4.72437 -9.0128e-15)
(23.5624 -4.76928 9.28806e-15)
(23.5749 -4.80881 0)
(23.548 -4.83345 9.66197e-15)
(23.4162 -4.82534 -6.06103e-20)
(23.1049 -4.76771 -9.60502e-15)
(22.5809 -4.65767 0)
(21.8738 -4.50857 9.24013e-15)
(21.0544 -4.34165 -9.03302e-15)
(20.2013 -4.17723 0)
(19.3807 -4.03044 0)
(18.6399 -3.91059 0)
(18.0088 -3.82241 0)
(17.5037 -3.76721 -8.20761e-15)
(17.131 -3.74345 8.0695e-15)
(16.8876 -3.74917 -7.92547e-15)
(16.7653 -3.78029 7.76821e-15)
(16.7537 -3.83331 -7.59263e-15)
(16.8357 -3.903 7.39977e-15)
(16.9915 -3.98452 0)
(17.2036 -4.07374 0)
(17.4562 -4.16708 0)
(17.7354 -4.2616 0)
(18.0293 -4.355 0)
(18.3282 -4.44551 0)
(18.6244 -4.53179 0)
(18.912 -4.61313 0)
(24.9846 -2.80668 0)
(24.5112 -2.73456 1.06003e-16)
(24.6053 -2.84301 -1.13322e-16)
(24.3881 -2.77049 0)
(24.3714 -2.88682 0)
(24.2064 -2.85073 0)
(24.1609 -2.9527 0)
(24.0506 -2.9599 0)
(23.9949 -3.04755 0)
(23.9129 -3.08726 0)
(23.8546 -3.16744 7.7763e-16)
(23.7863 -3.22712 -8.25764e-16)
(23.7296 -3.30532 1.75205e-15)
(23.6708 -3.3765 -3.71529e-15)
(23.6197 -3.45508 -2.08517e-20)
(23.5726 -3.53136 2.08259e-15)
(23.5317 -3.61072 2.20195e-15)
(23.4954 -3.68968 1.34983e-20)
(23.4648 -3.76965 -4.90768e-15)
(23.439 -3.84899 -7.68141e-21)
(23.418 -3.92804 2.72185e-15)
(23.4013 -4.00591 0)
(23.3881 -4.08331 -3.00382e-15)
(23.3774 -4.16007 4.05987e-21)
(23.3698 -4.23509 7.23902e-21)
(23.3652 -4.30784 3.44745e-15)
(23.3633 -4.37828 -3.59979e-15)
(23.364 -4.44635 1.61566e-20)
(23.3672 -4.51198 3.91116e-15)
(23.3728 -4.57514 0)
(23.3811 -4.63587 0)
(23.3921 -4.69423 0)
(23.4061 -4.75041 -4.57027e-15)
(23.4237 -4.80456 4.74139e-15)
(23.4442 -4.856 4.90618e-15)
(23.4572 -4.90103 -5.0473e-15)
(23.4221 -4.92774 0)
(23.2556 -4.91325 5.16745e-15)
(22.868 -4.83713 -5.13391e-15)
(22.2302 -4.69939 -5.06203e-15)
(21.3937 -4.52053 2.66783e-20)
(20.4528 -4.32843 4.89149e-15)
(19.5021 -4.14726 4.81599e-15)
(18.6155 -3.99361 -9.50289e-15)
(17.8431 -3.87685 4.69671e-15)
(17.214 -3.80116 0)
(16.7434 -3.76478 0)
(16.4326 -3.76854 0)
(16.2743 -3.80553 0)
(16.258 -3.87196 0)
(16.3627 -3.96088 -4.34199e-15)
(16.5627 -4.06572 1.1593e-20)
(16.8347 -4.18066 4.15019e-15)
(17.1571 -4.30059 0)
(17.511 -4.42139 0)
(17.8801 -4.53984 0)
(18.2513 -4.65354 3.73994e-15)
(18.6143 -4.76077 -3.63491e-15)
(18.9617 -4.8604 0)
(19.2882 -4.95208 3.92522e-15)
(24.9954 -2.77542 -4.82046e-17)
(24.5024 -2.6991 5.25181e-17)
(24.6001 -2.81176 0)
(24.3754 -2.73461 -2.42821e-16)
(24.3558 -2.85375 2.60604e-16)
(24.1863 -2.81532 0)
(24.1365 -2.91834 0)
(24.0214 -2.92456 -6.41399e-16)
(23.9613 -3.01369 6.82298e-16)
(23.8739 -3.05309 7.26403e-16)
(23.8111 -3.13516 -7.72326e-16)
(23.7372 -3.1955 8.21137e-16)
(23.6756 -3.27609 -1.74434e-15)
(23.6112 -3.34894 9.25962e-16)
(23.5551 -3.43079 -9.82217e-16)
(23.5023 -3.51024 -1.0411e-15)
(23.4566 -3.59323 2.20491e-15)
(23.4153 -3.67609 -2.3328e-15)
(23.38 -3.7605 2.46555e-15)
(23.3496 -3.8445 0)
(23.3244 -3.92858 2.74536e-15)
(23.3037 -4.01171 -2.89198e-15)
(23.2872 -4.09408 -3.04277e-15)
(23.2736 -4.17579 3.19753e-15)
(23.2629 -4.2565 3.356e-15)
(23.2554 -4.33511 -7.03601e-15)
(23.251 -4.41142 3.68349e-15)
(23.2495 -4.48539 -3.85255e-15)
(23.2507 -4.55694 4.02556e-15)
(23.2547 -4.62604 0)
(23.2617 -4.6927 0)
(23.2716 -4.75698 -4.57402e-15)
(23.2849 -4.8191 2.94272e-20)
(23.3025 -4.87921 4.96545e-15)
(23.3236 -4.93726 -5.15845e-15)
(23.3367 -4.98856 5.32739e-15)
(23.2935 -5.0179 5.44351e-15)
(23.0917 -4.99687 -5.48741e-15)
(22.625 -4.90091 0)
(21.8704 -4.73396 5.4118e-15)
(20.9039 -4.52465 -1.06949e-14)
(19.8441 -4.30783 5.28991e-15)
(18.8012 -4.11145 0)
(17.8564 -3.95351 -5.21419e-15)
(17.0618 -3.84369 5.19413e-15)
(16.4462 -3.78408 0)
(16.0211 -3.77438 5.16576e-15)
(15.7837 -3.80907 -5.14283e-15)
(15.7251 -3.88379 -5.10315e-15)
(15.8245 -3.9898 5.04439e-15)
(16.0498 -4.11778 -4.97138e-15)
(16.3703 -4.26014 9.78059e-15)
(16.7573 -4.40968 -1.61319e-20)
(17.1848 -4.56047 -4.7174e-15)
(17.6306 -4.70787 0)
(18.0766 -4.84849 0)
(18.5089 -4.97998 -4.43933e-15)
(18.9174 -5.1009 4.33764e-15)
(19.2957 -5.21052 0)
(19.6403 -5.30915 0)
(25.0054 -2.74641 -4.7724e-17)
(24.4945 -2.6661 5.20179e-17)
(24.5955 -2.78267 -1.11124e-16)
(24.3642 -2.70116 1.20185e-16)
(24.3418 -2.82268 2.57926e-16)
(24.1682 -2.78194 -2.78232e-16)
(24.1143 -2.88579 0)
(23.9948 -2.89096 0)
(23.9306 -2.98131 -6.7598e-16)
(23.8382 -3.02021 -1.51461e-20)
(23.771 -3.10387 7.66648e-16)
(23.6919 -3.16458 -8.15976e-16)
(23.6255 -3.2472 1.7353e-15)
(23.5558 -3.32141 -9.22264e-16)
(23.4947 -3.40601 0)
(23.4363 -3.4882 0)
(23.3857 -3.57454 0)
(23.3393 -3.66086 0)
(23.2992 -3.74933 0)
(23.2642 -3.8376 -1.30783e-15)
(23.2345 -3.92638 2.7635e-15)
(23.2096 -4.01444 3.03945e-21)
(23.1893 -4.10174 -1.53747e-15)
(23.1726 -4.18816 3.23822e-15)
(23.1588 -4.27396 -3.92838e-21)
(23.1481 -4.35811 -3.57939e-15)
(23.1408 -4.44005 0)
(23.1367 -4.51963 3.94012e-15)
(23.1356 -4.59684 -8.25713e-15)
(23.1375 -4.67163 4.32325e-15)
(23.1426 -4.74399 0)
(23.1511 -4.81396 0)
(23.1632 -4.88184 4.95259e-15)
(23.1802 -4.94776 -5.17627e-15)
(23.2016 -5.01194 0)
(23.2152 -5.06921 0)
(23.1642 -5.10209 0)
(22.9278 -5.07519 0)
(22.3815 -4.95849 5.79988e-15)
(21.5088 -4.7608 -1.15343e-14)
(20.4122 -4.51979 1.14643e-14)
(19.2358 -4.27806 -1.14197e-14)
(18.1045 -4.06808 1.14097e-14)
(17.1065 -3.90891 -5.7163e-15)
(16.2956 -3.80924 0)
(15.7 -3.77046 0)
(15.3282 -3.79025 0)
(15.1749 -3.86272 0)
(15.225 -3.97992 0)
(15.4428 -4.12866 0)
(15.7903 -4.29871 5.70026e-15)
(16.2297 -4.48034 -1.12876e-14)
(16.7261 -4.66515 1.11683e-14)
(17.249 -4.84635 -5.52164e-15)
(17.7732 -5.01892 0)
(18.279 -5.17943 -5.37987e-15)
(18.7527 -5.32584 5.29431e-15)
(19.1856 -5.45729 0)
(19.5738 -5.57376 5.07946e-15)
(19.9168 -5.67659 -5.40785e-15)
(25.0147 -2.71963 -4.72278e-17)
(24.4874 -2.63552 1.54492e-16)
(24.5915 -2.75571 -2.19931e-16)
(24.3543 -2.67007 1.1892e-16)
(24.329 -2.79361 0)
(24.1521 -2.75062 0)
(24.0943 -2.85516 -2.94091e-16)
(23.9707 -2.85919 6.28204e-16)
(23.9026 -2.95055 8.07303e-21)
(23.8057 -2.98881 -3.56972e-16)
(23.7343 -3.07377 -7.60547e-16)
(23.6502 -3.13462 8.10233e-16)
(23.5793 -3.21894 0)
(23.5044 -3.29423 0)
(23.4386 -3.38109 0)
(23.3747 -3.46559 1.0369e-15)
(23.3191 -3.55501 1.20762e-20)
(23.2678 -3.64436 -1.16817e-15)
(23.2229 -3.7365 -1.23842e-15)
(23.1831 -3.82865 1.31175e-15)
(23.1489 -3.92173 0)
(23.1197 -4.0143 -1.46764e-15)
(23.0952 -4.10645 1.55014e-15)
(23.075 -4.19746 0)
(23.0581 -4.28777 0)
(23.0441 -4.37697 0)
(23.0336 -4.46421 0)
(23.0266 -4.54909 2.00832e-15)
(23.0229 -4.63159 -4.21969e-15)
(23.0224 -4.7117 1.00811e-20)
(23.0253 -4.7894 4.651e-15)
(23.0317 -4.8647 -2.44074e-15)
(23.0421 -4.93796 0)
(23.0579 -5.00936 -2.68591e-15)
(23.0792 -5.07951 2.81111e-15)
(23.0934 -5.14221 -2.9252e-15)
(23.0356 -5.17873 3.01e-15)
(22.7671 -5.14654 0)
(22.1427 -5.00852 -3.06405e-15)
(21.1517 -4.77842 1.79831e-20)
(19.9251 -4.50511 3.06352e-15)
(18.633 -4.2395 0)
(17.4153 -4.01749 0)
(16.3666 -3.85908 -3.12844e-15)
(15.5426 -3.77242 8.52045e-21)
(14.9709 -3.75801 9.62846e-15)
(14.6569 -3.81164 -1.2986e-14)
(14.594 -3.92602 6.54178e-15)
(14.7539 -4.08853 0)
(15.0911 -4.28393 6.55878e-15)
(15.5592 -4.49863 -6.54683e-15)
(16.1125 -4.72096 0)
(16.7095 -4.94133 0)
(17.3149 -5.15214 0)
(17.9008 -5.34811 0)
(18.4469 -5.52609 0)
(18.9414 -5.68472 0)
(19.3789 -5.82414 0)
(19.7597 -5.9454 0)
(20.0873 -6.05115 0)
(25.0234 -2.69516 0)
(24.4811 -2.60727 0)
(24.5878 -2.73079 1.08765e-16)