/*--------------------------------*- C++ -*----------------------------------*\
  =========                 |
  \\      /  F ield         | OpenFOAM: The Open Source CFD Toolbox
   \\    /   O peration     | Website:  https://openfoam.org
    \\  /    A nd           | Version:  8
     \\/     M anipulation  |
\*---------------------------------------------------------------------------*/
FoamFile
{
    version     2.0;
    format      ascii;
    class       volScalarField;
    location    "11";
    object      nut;
}
// * * * * * * * * * * * * * * * * * * * * * * * * * * * * * * * * * * * * * //

dimensions      [0 2 -1 0 0 0 0];

internalField   nonuniform List<scalar> 
277560
(
0.139672
0.139019
0.138374
0.137738
0.137111
0.136492
0.135883
0.135284
0.134693
0.134112
0.133539
0.132975
0.132419
0.131869
0.131326
0.130789
0.130258
0.129732
0.129211
0.128694
0.128183
0.127678
0.127178
0.126685
0.1262
0.125723
0.125257
0.124801
0.124358
0.123928
0.123515
0.123119
0.122741
0.122384
0.122049
0.121737
0.12145
0.121189
0.120955
0.120748
0.120571
0.120422
0.120303
0.120213
0.120153
0.120121
0.120119
0.120144
0.120196
0.120275
0.120378
0.120506
0.120655
0.120826
0.121016
0.121224
0.121448
0.121688
0.121941
0.122207
0.122483
0.122768
0.123061
0.123361
0.123666
0.123976
0.124289
0.124604
0.12492
0.125237
0.125554
0.12587
0.126185
0.126497
0.126807
0.127114
0.127418
0.127718
0.128014
0.128306
0.128594
0.128877
0.129156
0.129429
0.129699
0.129963
0.130223
0.130477
0.130727
0.130972
0.131213
0.131449
0.13168
0.131906
0.132129
0.132346
0.13256
0.132769
0.132974
0.133175
0.133373
0.133566
0.133756
0.133942
0.134124
0.134303
0.134479
0.134652
0.134821
0.134987
0.13515
0.135311
0.135468
0.135623
0.135775
0.135924
0.13607
0.136215
0.136356
0.136496
0.139672
0.139019
0.138374
0.137738
0.137111
0.136493
0.135884
0.135285
0.134695
0.134114
0.133542
0.132978
0.132422
0.131873
0.131331
0.130795
0.130264
0.129738
0.129217
0.128701
0.128191
0.127685
0.127186
0.126693
0.126208
0.125731
0.125264
0.124808
0.124365
0.123935
0.123521
0.123125
0.122747
0.122389
0.122053
0.121741
0.121454
0.121192
0.120957
0.120751
0.120573
0.120424
0.120304
0.120215
0.120154
0.120123
0.120121
0.120146
0.120199
0.120278
0.120382
0.12051
0.120661
0.120832
0.121024
0.121233
0.121459
0.1217
0.121955
0.122221
0.122499
0.122786
0.12308
0.123382
0.123689
0.124
0.124314
0.124631
0.124949
0.125268
0.125586
0.125904
0.126219
0.126533
0.126845
0.127153
0.127458
0.127759
0.128056
0.128349
0.128637
0.128921
0.129201
0.129475
0.129745
0.13001
0.13027
0.130525
0.130775
0.13102
0.131261
0.131496
0.131728
0.131954
0.132176
0.132393
0.132607
0.132815
0.13302
0.133221
0.133417
0.13361
0.133799
0.133984
0.134166
0.134344
0.134519
0.13469
0.134859
0.135024
0.135186
0.135345
0.135501
0.135654
0.135805
0.135953
0.136098
0.136241
0.136381
0.136519
0.139672
0.139019
0.138375
0.137739
0.137112
0.136494
0.135885
0.135287
0.134697
0.134117
0.133546
0.132983
0.132428
0.13188
0.131339
0.130803
0.130273
0.129749
0.129229
0.128713
0.128203
0.127698
0.127199
0.126707
0.126221
0.125744
0.125277
0.124821
0.124377
0.123947
0.123532
0.123135
0.122756
0.122397
0.122061
0.121748
0.12146
0.121197
0.120962
0.120755
0.120576
0.120427
0.120307
0.120218
0.120157
0.120127
0.120125
0.120151
0.120205
0.120285
0.120391
0.120521
0.120673
0.120847
0.12104
0.121252
0.12148
0.121724
0.121982
0.122251
0.122532
0.122822
0.12312
0.123424
0.123734
0.124048
0.124366
0.124686
0.125007
0.125329
0.12565
0.12597
0.126289
0.126606
0.126919
0.12723
0.127537
0.12784
0.128139
0.128434
0.128724
0.12901
0.12929
0.129566
0.129837
0.130103
0.130363
0.130619
0.13087
0.131115
0.131356
0.131592
0.131822
0.132049
0.13227
0.132487
0.1327
0.132908
0.133111
0.133311
0.133506
0.133698
0.133885
0.134069
0.134249
0.134425
0.134598
0.134768
0.134934
0.135097
0.135256
0.135413
0.135567
0.135717
0.135865
0.136011
0.136153
0.136293
0.136431
0.136566
0.139672
0.13902
0.138376
0.13774
0.137113
0.136496
0.135888
0.13529
0.134701
0.134122
0.133552
0.13299
0.132437
0.13189
0.13135
0.130816
0.130288
0.129764
0.129245
0.128731
0.128222
0.127717
0.127219
0.126726
0.126241
0.125764
0.125296
0.124839
0.124394
0.123963
0.123548
0.123149
0.12277
0.12241
0.122072
0.121758
0.121469
0.121205
0.120969
0.120761
0.120582
0.120432
0.120312
0.120223
0.120163
0.120133
0.120132
0.120159
0.120215
0.120297
0.120405
0.120537
0.120692
0.120869
0.121066
0.121281
0.121513
0.121761
0.122022
0.122296
0.122581
0.122876
0.123178
0.123487
0.123802
0.124121
0.124443
0.124768
0.125094
0.12542
0.125745
0.12607
0.126393
0.126713
0.127031
0.127345
0.127655
0.127961
0.128264
0.128561
0.128854
0.129141
0.129424
0.129702
0.129974
0.130241
0.130503
0.130759
0.131011
0.131257
0.131497
0.131733
0.131964
0.13219
0.132411
0.132627
0.132838
0.133045
0.133248
0.133446
0.133639
0.133829
0.134014
0.134196
0.134374
0.134547
0.134718
0.134884
0.135047
0.135207
0.135364
0.135517
0.135667
0.135814
0.135958
0.136099
0.136238
0.136373
0.136507
0.136637
0.139673
0.139021
0.138378
0.137743
0.137116
0.136499
0.135892
0.135295
0.134707
0.134129
0.133561
0.133001
0.132449
0.131904
0.131366
0.130834
0.130307
0.129785
0.129268
0.128755
0.128246
0.127743
0.127244
0.126752
0.126267
0.125789
0.125321
0.124864
0.124418
0.123986
0.123569
0.12317
0.122788
0.122427
0.122088
0.121772
0.121482
0.121217
0.120979
0.12077
0.120591
0.12044
0.12032
0.120231
0.120171
0.120142
0.120143
0.120172
0.12023
0.120314
0.120425
0.12056
0.120719
0.120899
0.1211
0.12132
0.121557
0.12181
0.122077
0.122356
0.122647
0.122947
0.123256
0.123571
0.123892
0.124217
0.124546
0.124876
0.125208
0.12554
0.125872
0.126202
0.12653
0.126856
0.127178
0.127497
0.127812
0.128122
0.128428
0.128729
0.129025
0.129316
0.129601
0.129881
0.130156
0.130424
0.130688
0.130945
0.131198
0.131444
0.131685
0.131921
0.132151
0.132377
0.132597
0.132812
0.133022
0.133227
0.133428
0.133624
0.133815
0.134002
0.134185
0.134364
0.134539
0.13471
0.134876
0.13504
0.135199
0.135355
0.135507
0.135656
0.135802
0.135944
0.136084
0.13622
0.136353
0.136484
0.136611
0.136736
0.139674
0.139023
0.138381
0.137746
0.137121
0.136504
0.135898
0.135302
0.134716
0.134139
0.133572
0.133014
0.132465
0.131922
0.131387
0.130857
0.130332
0.129812
0.129296
0.128785
0.128278
0.127775
0.127277
0.126785
0.1263
0.125822
0.125354
0.124895
0.124449
0.124015
0.123597
0.123196
0.122813
0.12245
0.122109
0.121791
0.121499
0.121233
0.120994
0.120784
0.120603
0.120452
0.120332
0.120242
0.120183
0.120155
0.120157
0.120189
0.120249
0.120336
0.12045
0.120589
0.120752
0.120938
0.121144
0.121369
0.121612
0.121871
0.122144
0.12243
0.122728
0.123036
0.123352
0.123675
0.124003
0.124336
0.124673
0.125011
0.125351
0.12569
0.126029
0.126366
0.126701
0.127033
0.127362
0.127686
0.128007
0.128322
0.128631
0.128936
0.129234
0.129527
0.129814
0.130095
0.13037
0.130639
0.130902
0.131159
0.13141
0.131656
0.131896
0.13213
0.132359
0.132582
0.1328
0.133013
0.133221
0.133423
0.133621
0.133815
0.134003
0.134187
0.134367
0.134542
0.134713
0.13488
0.135043
0.135202
0.135357
0.135509
0.135657
0.135802
0.135943
0.13608
0.136215
0.136346
0.136474
0.136599
0.136721
0.136841
0.139675
0.139026
0.138385
0.137751
0.137126
0.136511
0.135906
0.135311
0.134727
0.134152
0.133587
0.133032
0.132485
0.131945
0.131412
0.130885
0.130363
0.129845
0.129332
0.128822
0.128316
0.127815
0.127318
0.126826
0.126341
0.125863
0.125394
0.124934
0.124486
0.124051
0.123631
0.123228
0.122843
0.122478
0.122135
0.121816
0.121521
0.121253
0.121012
0.120801
0.120619
0.120467
0.120347
0.120257
0.1202
0.120173
0.120177
0.12021
0.120273
0.120364
0.120482
0.120625
0.120793
0.120984
0.121195
0.121427
0.121677
0.121943
0.122224
0.122519
0.122825
0.123141
0.123466
0.123798
0.124136
0.124478
0.124824
0.125172
0.12552
0.125869
0.126216
0.126561
0.126903
0.12724
0.127574
0.127902
0.128225
0.128542
0.128853
0.129159
0.129458
0.129751
0.130038
0.130318
0.130593
0.130861
0.131123
0.131378
0.131628
0.131872
0.13211
0.132342
0.132568
0.132789
0.133004
0.133214
0.133419
0.133619
0.133813
0.134003
0.134188
0.134369
0.134545
0.134716
0.134883
0.135046
0.135205
0.13536
0.135511
0.135658
0.135801
0.135941
0.136077
0.13621
0.136339
0.136466
0.136589
0.136708
0.136825
0.136939
0.139676
0.13903
0.138389
0.137757
0.137133
0.136519
0.135915
0.135322
0.13474
0.134168
0.133606
0.133053
0.13251
0.131973
0.131444
0.13092
0.130401
0.129886
0.129374
0.128867
0.128363
0.127862
0.127366
0.126875
0.12639
0.125911
0.125441
0.124981
0.124531
0.124095
0.123673
0.123267
0.12288
0.122513
0.122167
0.121845
0.121548
0.121278
0.121036
0.120822
0.120639
0.120487
0.120366
0.120277
0.12022
0.120194
0.1202
0.120236
0.120302
0.120396
0.120519
0.120667
0.12084
0.121037
0.121255
0.121494
0.121752
0.122026
0.122316
0.12262
0.122936
0.123262
0.123598
0.12394
0.124289
0.124642
0.124999
0.125356
0.125714
0.12607
0.126423
0.126773
0.127118
0.127459
0.127795
0.128125
0.128449
0.128767
0.129079
0.129384
0.129683
0.129976
0.130262
0.130542
0.130815
0.131081
0.131341
0.131595
0.131843
0.132084
0.13232
0.132549
0.132773
0.132991
0.133203
0.13341
0.133612
0.133808
0.133999
0.134185
0.134367
0.134543
0.134715
0.134882
0.135045
0.135204
0.135358
0.135509
0.135655
0.135797
0.135936
0.136071
0.136203
0.13633
0.136455
0.136576
0.136694
0.136809
0.136921
0.137029
0.139679
0.139035
0.138395
0.137763
0.137141
0.136528
0.135927
0.135336
0.134757
0.134188
0.133629
0.13308
0.132539
0.132007
0.131481
0.13096
0.130445
0.129933
0.129424
0.128919
0.128417
0.127918
0.127423
0.126932
0.126447
0.125968
0.125497
0.125035
0.124584
0.124146
0.123722
0.123314
0.122924
0.122554
0.122205
0.121881
0.121581
0.121309
0.121064
0.120849
0.120664
0.120511
0.120389
0.120301
0.120244
0.12022
0.120228
0.120266
0.120335
0.120434
0.120561
0.120714
0.120894
0.121097
0.121323
0.12157
0.121836
0.12212
0.12242
0.122734
0.123061
0.123399
0.123746
0.1241
0.124461
0.124825
0.12519
0.125555
0.125918
0.126279
0.126636
0.126989
0.127337
0.127679
0.128016
0.128347
0.128672
0.12899
0.129302
0.129607
0.129906
0.130197
0.130482
0.13076
0.131032
0.131297
0.131555
0.131807
0.132052
0.132291
0.132524
0.132751
0.132971
0.133186
0.133395
0.133599
0.133797
0.133989
0.134177
0.134359
0.134537
0.134709
0.134877
0.13504
0.135199
0.135353
0.135503
0.135649
0.13579
0.135928
0.136062
0.136192
0.136319
0.136442
0.136562
0.136678
0.136791
0.136901
0.137007
0.137111
0.139683
0.139041
0.138403
0.137771
0.13715
0.136539
0.13594
0.135352
0.134776
0.134211
0.133656
0.13311
0.132574
0.132046
0.131524
0.131008
0.130496
0.129988
0.129482
0.12898
0.12848
0.127982
0.127488
0.126998
0.126513
0.126034
0.125562
0.125098
0.124646
0.124205
0.123778
0.123367
0.122975
0.122602
0.12225
0.121923
0.12162
0.121345
0.121098
0.12088
0.120694
0.120539
0.120417
0.120329
0.120273
0.12025
0.120259
0.120301
0.120373
0.120476
0.120608
0.120767
0.120953
0.121164
0.121397
0.121653
0.121929
0.122223
0.122534
0.122859
0.123198
0.123549
0.123908
0.124274
0.124644
0.125016
0.125387
0.125757
0.126125
0.126489
0.126848
0.127203
0.127553
0.127897
0.128235
0.128566
0.128891
0.129209
0.12952
0.129825
0.130122
0.130413
0.130696
0.130973
0.131243
0.131506
0.131762
0.132011
0.132254
0.13249
0.13272
0.132944
0.133162
0.133373
0.133579
0.133779
0.133974
0.134163
0.134346
0.134525
0.134698
0.134866
0.13503
0.135189
0.135343
0.135493
0.135638
0.13578
0.135917
0.13605
0.136179
0.136305
0.136427
0.136545
0.13666
0.136771
0.13688
0.136985
0.137087
0.137186
0.139689
0.139049
0.138411
0.137781
0.137161
0.136552
0.135956
0.135371
0.134798
0.134237
0.133686
0.133146
0.132614
0.132091
0.131574
0.131063
0.130555
0.130051
0.129549
0.129049
0.128551
0.128056
0.127563
0.127073
0.126588
0.126108
0.125635
0.12517
0.124715
0.124272
0.123843
0.123429
0.123033
0.122657
0.122302
0.121971
0.121665
0.121386
0.121137
0.120917
0.120728
0.120572
0.12045
0.120361
0.120305
0.120284
0.120295
0.120339
0.120415
0.120522
0.120659
0.120825
0.121017
0.121236
0.121478
0.121743
0.122029
0.122334
0.122657
0.122995
0.123347
0.123709
0.124079
0.124454
0.124831
0.125208
0.125584
0.125958
0.126329
0.126695
0.127057
0.127413
0.127764
0.128109
0.128447
0.128779
0.129104
0.129421
0.129732
0.130036
0.130332
0.130621
0.130903
0.131178
0.131446
0.131707
0.131961
0.132208
0.132448
0.132682
0.132909
0.13313
0.133344
0.133552
0.133755
0.133951
0.134142
0.134327
0.134507
0.134681
0.134851
0.135015
0.135174
0.135329
0.135479
0.135625
0.135766
0.135902
0.136035
0.136164
0.136288
0.136409
0.136527
0.13664
0.136751
0.136857
0.136961
0.137061
0.137159
0.137253
0.139696
0.139059
0.138421
0.137791
0.137172
0.136566
0.135973
0.135392
0.134824
0.134267
0.133722
0.133187
0.132661
0.132143
0.131631
0.131125
0.130622
0.130122
0.129623
0.129127
0.128632
0.128138
0.127647
0.127158
0.126673
0.126192
0.125718
0.125251
0.124794
0.124349
0.123916
0.123499
0.123099
0.122719
0.122361
0.122026
0.121716
0.121434
0.121181
0.120959
0.120768
0.12061
0.120486
0.120397
0.120342
0.120321
0.120335
0.120382
0.120461
0.120573
0.120715
0.120887
0.121086
0.121313
0.121564
0.121839
0.122136
0.122453
0.122788
0.123139
0.123502
0.123875
0.124253
0.124634
0.125017
0.125398
0.125778
0.126155
0.126528
0.126896
0.12726
0.127618
0.127969
0.128315
0.128653
0.128985
0.129309
0.129627
0.129937
0.13024
0.130535
0.130823
0.131103
0.131376
0.131642
0.131901
0.132152
0.132397
0.132634
0.132865
0.133089
0.133307
0.133518
0.133723
0.133922
0.134115
0.134302
0.134484
0.13466
0.13483
0.134996
0.135156
0.135311
0.135461
0.135607
0.135748
0.135885
0.136018
0.136146
0.13627
0.13639
0.136507
0.136619
0.136729
0.136834
0.136937
0.137036
0.137132
0.137225
0.137315
0.139702
0.139071
0.138432
0.137802
0.137185
0.136582
0.135993
0.135416
0.134853
0.134302
0.133762
0.133233
0.132713
0.132201
0.131696
0.131195
0.130697
0.130201
0.129707
0.129214
0.128722
0.128231
0.127741
0.127253
0.126767
0.126286
0.125811
0.125342
0.124882
0.124434
0.123998
0.123577
0.123173
0.122789
0.122427
0.122087
0.121774
0.121488
0.121232
0.121006
0.120813
0.120653
0.120528
0.120437
0.120383
0.120363
0.120378
0.120427
0.120511
0.120626
0.120774
0.120952
0.121159
0.121394
0.121655
0.12194
0.122248
0.122577
0.122924
0.123287
0.12366
0.124041
0.124425
0.124812
0.125198
0.125584
0.125966
0.126346
0.126721
0.127091
0.127456
0.127815
0.128168
0.128513
0.128852
0.129184
0.129508
0.129825
0.130134
0.130436
0.13073
0.131016
0.131295
0.131567
0.13183
0.132087
0.132336
0.132578
0.132813
0.133041
0.133262
0.133477
0.133685
0.133887
0.134082
0.134272
0.134455
0.134633
0.134805
0.134972
0.135133
0.135289
0.13544
0.135587
0.135728
0.135865
0.135997
0.136126
0.13625
0.136369
0.136485
0.136597
0.136706
0.136811
0.136912
0.13701
0.137105
0.137196
0.137285
0.137371
0.139708
0.139082
0.138443
0.137814
0.1372
0.1366
0.136014
0.135443
0.134885
0.13434
0.133807
0.133285
0.132772
0.132267
0.131768
0.131273
0.130781
0.13029
0.129801
0.129311
0.128822
0.128333
0.127845
0.127357
0.126872
0.12639
0.125913
0.125442
0.12498
0.124528
0.124089
0.123664
0.123256
0.122867
0.1225
0.122156
0.121838
0.121548
0.121288
0.121059
0.120862
0.1207
0.120573
0.120482
0.120427
0.120408
0.120424
0.120476
0.120563
0.120683
0.120836
0.12102
0.121235
0.121478
0.121748
0.122044
0.122363
0.122704
0.123063
0.123436
0.123817
0.124204
0.124594
0.124984
0.125375
0.125763
0.126149
0.126531
0.126908
0.12728
0.127646
0.128005
0.128359
0.128705
0.129044
0.129375
0.129699
0.130016
0.130324
0.130625
0.130918
0.131203
0.13148
0.131749
0.132011
0.132265
0.132512
0.132752
0.132984
0.133209
0.133428
0.133639
0.133844
0.134043
0.134235
0.134421
0.134601
0.134775
0.134943
0.135106
0.135263
0.135415
0.135563
0.135705
0.135842
0.135975
0.136103
0.136227
0.136347
0.136463
0.136574
0.136682
0.136786
0.136887
0.136984
0.137078
0.137168
0.137256
0.13734
0.137422
0.139713
0.139093
0.138455
0.137827
0.137215
0.136619
0.136038
0.135473
0.134921
0.134383
0.133857
0.133342
0.132837
0.13234
0.131848
0.131359
0.130873
0.130389
0.129904
0.129419
0.128933
0.128446
0.127959
0.127473
0.126987
0.126504
0.126026
0.125553
0.125088
0.124632
0.124189
0.123759
0.123347
0.122953
0.122581
0.122232
0.12191
0.121615
0.12135
0.121117
0.120917
0.120752
0.120623
0.12053
0.120475
0.120456
0.120474
0.120528
0.120618
0.120742
0.120901
0.121091
0.121313
0.121565
0.121844
0.122151
0.122482
0.122834
0.123203
0.123583
0.12397
0.124363
0.124757
0.125152
0.125545
0.125936
0.126325
0.126708
0.127087
0.127461
0.127828
0.128189
0.128542
0.128889
0.129228
0.12956
0.129883
0.130199
0.130507
0.130806
0.131098
0.131381
0.131657
0.131925
0.132185
0.132437
0.132681
0.132918
0.133148
0.133371
0.133586
0.133795
0.133996
0.134192
0.13438
0.134563
0.134739
0.13491
0.135074
0.135233
0.135387
0.135535
0.135678
0.135817
0.13595
0.136079
0.136203
0.136323
0.136439
0.13655
0.136658
0.136761
0.136861
0.136958
0.137051
0.137141
0.137227
0.13731
0.137391
0.137468
0.139718
0.139103
0.138467
0.13784
0.137231
0.13664
0.136065
0.135506
0.134962
0.134431
0.133913
0.133406
0.13291
0.13242
0.131936
0.131455
0.130975
0.130496
0.130017
0.129536
0.129054
0.12857
0.128085
0.127599
0.127113
0.12663
0.126149
0.125674
0.125205
0.124746
0.124298
0.123864
0.123446
0.123047
0.12267
0.122316
0.121987
0.121687
0.121418
0.12118
0.120976
0.120808
0.120676
0.120582
0.120526
0.120507
0.120526
0.120582
0.120675
0.120803
0.120967
0.121164
0.121393
0.121653
0.121942
0.122259
0.122601
0.122963
0.12334
0.123726
0.124119
0.124516
0.124914
0.125312
0.125709
0.126103
0.126493
0.126879
0.12726
0.127635
0.128003
0.128365
0.128719
0.129066
0.129405
0.129737
0.13006
0.130375
0.130682
0.130981
0.131271
0.131553
0.131827
0.132093
0.132351
0.132601
0.132844
0.133078
0.133305
0.133525
0.133738
0.133943
0.134142
0.134334
0.13452
0.134699
0.134872
0.135038
0.135199
0.135355
0.135505
0.135649
0.135789
0.135923
0.136052
0.136177
0.136297
0.136413
0.136525
0.136632
0.136736
0.136836
0.136932
0.137024
0.137113
0.137199
0.137281
0.137361
0.137437
0.137511
0.139721
0.139112
0.138478
0.137854
0.137249
0.136663
0.136094
0.135542
0.135006
0.134484
0.133975
0.133477
0.132989
0.132509
0.132032
0.131559
0.131087
0.130614
0.13014
0.129664
0.129186
0.128704
0.128221
0.127736
0.127251
0.126766
0.126283
0.125805
0.125333
0.124869
0.124417
0.123978
0.123555
0.12315
0.122766
0.122406
0.122072
0.121767
0.121492
0.121249
0.121041
0.120869
0.120734
0.120638
0.12058
0.120561
0.12058
0.120638
0.120734
0.120866
0.121034
0.121237
0.121473
0.121741
0.12204
0.122367
0.122719
0.123089
0.123473
0.123865
0.124263
0.124664
0.125065
0.125467
0.125866
0.126263
0.126655
0.127043
0.127425
0.127801
0.128171
0.128533
0.128888
0.129236
0.129575
0.129906
0.130229
0.130544
0.13085
0.131148
0.131437
0.131718
0.131991
0.132255
0.132511
0.132759
0.132999
0.133231
0.133456
0.133673
0.133883
0.134086
0.134281
0.13447
0.134653
0.134828
0.134998
0.135161
0.135319
0.135471
0.135617
0.135758
0.135893
0.136024
0.136149
0.13627
0.136387
0.136499
0.136606
0.13671
0.136809
0.136905
0.136997
0.137086
0.137171
0.137253
0.137332
0.137407
0.13748
0.13755
0.139724
0.139119
0.138488
0.137867
0.137267
0.136687
0.136126
0.135582
0.135054
0.134542
0.134042
0.133555
0.133077
0.132605
0.132138
0.131673
0.131208
0.130743
0.130275
0.129803
0.129329
0.128851
0.128369
0.127885
0.127399
0.126913
0.126428
0.125947
0.125471
0.125003
0.124546
0.124101
0.123672
0.123261
0.122871
0.122504
0.122164
0.121852
0.121571
0.121323
0.12111
0.120934
0.120796
0.120697
0.120637
0.120617
0.120637
0.120696
0.120794
0.12093
0.121102
0.121311
0.121554
0.12183
0.122137
0.122474
0.122834
0.123212
0.123601
0.123998
0.1244
0.124805
0.12521
0.125614
0.126017
0.126416
0.12681
0.1272
0.127584
0.127961
0.128332
0.128695
0.129051
0.129399
0.129738
0.130069
0.130392
0.130706
0.131012
0.131309
0.131597
0.131876
0.132148
0.13241
0.132664
0.132911
0.133148
0.133378
0.133601
0.133815
0.134022
0.134222
0.134415
0.134601
0.13478
0.134953
0.135119
0.135279
0.135433
0.135581
0.135724
0.135861
0.135993
0.13612
0.136241
0.136359
0.136471
0.136579
0.136683
0.136783
0.136879
0.136971
0.137059
0.137144
0.137225
0.137303
0.137378
0.13745
0.137519
0.137586
0.139726
0.139124
0.138497
0.137881
0.137287
0.136714
0.136161
0.135626
0.135108
0.134605
0.134117
0.13364
0.133172
0.13271
0.132253
0.131797
0.13134
0.130882
0.13042
0.129954
0.129484
0.129009
0.128529
0.128046
0.12756
0.127072
0.126585
0.1261
0.12562
0.125147
0.124684
0.124233
0.123798
0.12338
0.122983
0.12261
0.122263
0.121944
0.121657
0.121403
0.121185
0.121004
0.120861
0.120759
0.120697
0.120676
0.120696
0.120755
0.120855
0.120994
0.121171
0.121384
0.121634
0.121917
0.122233
0.122578
0.122946
0.12333
0.123724
0.124126
0.124532
0.12494
0.125348
0.125755
0.12616
0.126561
0.126958
0.12735
0.127735
0.128114
0.128486
0.12885
0.129207
0.129555
0.129895
0.130226
0.130548
0.130862
0.131167
0.131463
0.13175
0.132029
0.132298
0.132559
0.132812
0.133056
0.133292
0.13352
0.13374
0.133952
0.134156
0.134353
0.134543
0.134726
0.134902
0.135072
0.135235
0.135391
0.135542
0.135687
0.135826
0.135959
0.136088
0.136211
0.136329
0.136443
0.136552
0.136656
0.136756
0.136852
0.136944
0.137032
0.137117
0.137198
0.137276
0.13735
0.137422
0.13749
0.137555
0.137618
0.139727
0.139129
0.138505
0.137895
0.137308
0.136743
0.136199
0.135673
0.135166
0.134675
0.134198
0.133732
0.133275
0.132825
0.132377
0.13193
0.131482
0.131031
0.130576
0.130116
0.12965
0.129178
0.128701
0.128218
0.127732
0.127243
0.126753
0.126265
0.12578
0.125302
0.124833
0.124376
0.123933
0.123508
0.123104
0.122723
0.122368
0.122043
0.121749
0.121488
0.121264
0.121077
0.120931
0.120824
0.12076
0.120737
0.120756
0.120816
0.120917
0.121058
0.121238
0.121457
0.121712
0.122003
0.122327
0.122679
0.123054
0.123443
0.123842
0.124247
0.124657
0.125068
0.12548
0.12589
0.126297
0.126701
0.127099
0.127493
0.12788
0.12826
0.128633
0.128998
0.129356
0.129704
0.130044
0.130376
0.130698
0.131012
0.131316
0.131611
0.131897
0.132175
0.132443
0.132703
0.132954
0.133196
0.13343
0.133655
0.133873
0.134083
0.134285
0.134479
0.134666
0.134846
0.135019
0.135186
0.135346
0.135499
0.135646
0.135788
0.135923
0.136054
0.136178
0.136298
0.136413
0.136523
0.136628
0.136729
0.136825
0.136918
0.137006
0.137091
0.137172
0.137249
0.137323
0.137394
0.137462
0.137527
0.137589
0.137648
0.139728
0.139132
0.138512
0.137909
0.13733
0.136774
0.13624
0.135726
0.13523
0.13475
0.134286
0.133832
0.133387
0.132948
0.132511
0.132074
0.131635
0.131193
0.130745
0.13029
0.129829
0.129361
0.128885
0.128403
0.127916
0.127426
0.126933
0.126441
0.125951
0.125467
0.124992
0.124527
0.124077
0.123645
0.123232
0.122844
0.122481
0.122148
0.121846
0.121579
0.121348
0.121155
0.121003
0.120893
0.120825
0.120799
0.120817
0.120877
0.120979
0.121122
0.121306
0.121528
0.121789
0.122086
0.122417
0.122777
0.123156
0.12355
0.123953
0.124363
0.124776
0.12519
0.125605
0.126017
0.126427
0.126833
0.127234
0.127629
0.128018
0.1284
0.128774
0.12914
0.129498
0.129848
0.130188
0.13052
0.130842
0.131155
0.131459
0.131754
0.132039
0.132315
0.132582
0.132841
0.13309
0.13333
0.133562
0.133786
0.134001
0.134209
0.134408
0.1346
0.134785
0.134962
0.135132
0.135295
0.135452
0.135602
0.135747
0.135885
0.136017
0.136144
0.136265
0.136381
0.136493
0.136599
0.136701
0.136798
0.136891
0.13698
0.137065
0.137146
0.137223
0.137297
0.137368
0.137435
0.137499
0.137561
0.137619
0.137675
0.139728
0.139133
0.138519
0.137924
0.137354
0.136808
0.136285
0.135782
0.135299
0.134833
0.134381
0.133941
0.133508
0.13308
0.132655
0.132228
0.131799
0.131365
0.130925
0.130477
0.130021
0.129556
0.129082
0.128601
0.128114
0.127621
0.127125
0.126628
0.126134
0.125644
0.125161
0.124689
0.124231
0.12379
0.123369
0.122972
0.122601
0.122259
0.121949
0.121674
0.121436
0.121237
0.121079
0.120964
0.120892
0.120864
0.120879
0.120938
0.12104
0.121185
0.121371
0.121598
0.121864
0.122166
0.122504
0.122869
0.123254
0.123652
0.124059
0.124472
0.124888
0.125306
0.125723
0.126138
0.126551
0.126959
0.127362
0.127759
0.12815
0.128533
0.128908
0.129276
0.129635
0.129985
0.130326
0.130657
0.13098
0.131293
0.131596
0.13189
0.132175
0.13245
0.132716
0.132973
0.133221
0.13346
0.13369
0.133912
0.134125
0.13433
0.134527
0.134717
0.134899
0.135073
0.13524
0.135401
0.135555
0.135702
0.135843
0.135978
0.136107
0.136231
0.136349
0.136461
0.136569
0.136672
0.13677
0.136864
0.136953
0.137039
0.13712
0.137198
0.137272
0.137342
0.137409
0.137473
0.137534
0.137592
0.137647
0.1377
0.139728
0.139134
0.138526
0.137941
0.137381
0.136846
0.136334
0.135844
0.135374
0.134922
0.134484
0.134057
0.133638
0.133223
0.132809
0.132394
0.131975
0.13155
0.131117
0.130676
0.130225
0.129763
0.129292
0.128812
0.128323
0.127829
0.127329
0.126828
0.126327
0.12583
0.12534
0.12486
0.124394
0.123944
0.123514
0.123107
0.122727
0.122376
0.122058
0.121775
0.121529
0.121323
0.121158
0.121037
0.120961
0.120929
0.120942
0.121
0.121102
0.121248
0.121436
0.121666
0.121935
0.122244
0.122587
0.122957
0.123346
0.123748
0.124159
0.124575
0.124994
0.125415
0.125835
0.126253
0.126668
0.127078
0.127483
0.127883
0.128275
0.12866
0.129037
0.129405
0.129765
0.130116
0.130457
0.130789
0.131112
0.131425
0.131728
0.132022
0.132306
0.13258
0.132845
0.133101
0.133347
0.133585
0.133813
0.134033
0.134244
0.134447
0.134642
0.134829
0.135009
0.13518
0.135345
0.135503
0.135654
0.135798
0.135936
0.136068
0.136194
0.136314
0.136429
0.136538
0.136642
0.136742
0.136837
0.136927
0.137013
0.137095
0.137173
0.137247
0.137318
0.137385
0.137448
0.137509
0.137566
0.137621
0.137673
0.137722
0.139728
0.139134
0.138534
0.137959
0.13741
0.136886
0.136387
0.135911
0.135455
0.135018
0.134595
0.134182
0.133777
0.133375
0.132974
0.13257
0.132162
0.131746
0.131322
0.130888
0.130442
0.129985
0.129516
0.129036
0.128546
0.128049
0.127546
0.127039
0.126532
0.126028
0.12553
0.125041
0.124566
0.124106
0.123667
0.12325
0.12286
0.1225
0.122172
0.12188
0.121626
0.121412
0.121241
0.121114
0.121032
0.120996
0.121006
0.121062
0.121163
0.121309
0.121498
0.121731
0.122004
0.122317
0.122665
0.12304
0.123433
0.123838
0.124252
0.124672
0.125094
0.125517
0.12594
0.126361
0.126778
0.127191
0.127599
0.128
0.128394
0.12878
0.129159
0.129529
0.12989
0.130241
0.130583
0.130916
0.131239
0.131552
0.131855
0.132148
0.132432
0.132705
0.132969
0.133224
0.133469
0.133705
0.133932
0.13415
0.134359
0.13456
0.134753
0.134938
0.135115
0.135284
0.135446
0.135601
0.135749
0.13589
0.136025
0.136154
0.136277
0.136394
0.136506
0.136612
0.136713
0.136809
0.136901
0.136988
0.13707
0.137149
0.137223
0.137294
0.137361
0.137425
0.137485
0.137542
0.137596
0.137648
0.137696
0.137742
0.139727
0.139134
0.138543
0.137978
0.137441
0.13693
0.136445
0.135984
0.135544
0.135122
0.134714
0.134316
0.133925
0.133537
0.133149
0.132758
0.132361
0.131955
0.13154
0.131113
0.130673
0.130219
0.129752
0.129273
0.128782
0.128282
0.127775
0.127262
0.126749
0.126237
0.12573
0.125232
0.124747
0.124277
0.123827
0.1234
0.123
0.12263
0.122292
0.12199
0.121727
0.121505
0.121326
0.121192
0.121104
0.121064
0.12107
0.121123
0.121223
0.121368
0.121559
0.121793
0.122069
0.122386
0.122739
0.123117
0.123514
0.123922
0.12434
0.124762
0.125187
0.125614
0.126039
0.126463
0.126883
0.127298
0.127708
0.128111
0.128507
0.128895
0.129275
0.129646
0.130009
0.130361
0.130704
0.131037
0.13136
0.131674
0.131977
0.13227
0.132553
0.132826
0.133089
0.133343
0.133587
0.133821
0.134047
0.134263
0.134471
0.13467
0.13486
0.135043
0.135217
0.135384
0.135544
0.135696
0.135841
0.13598
0.136112
0.136238
0.136357
0.136471
0.13658
0.136683
0.136781
0.136874
0.136962
0.137046
0.137125
0.1372
0.137271
0.137339
0.137402
0.137463
0.13752
0.137574
0.137625
0.137673
0.137718
0.137761
0.139725
0.139134
0.138553
0.138
0.137475
0.136978
0.136508
0.136062
0.135639
0.135233
0.134841
0.134459
0.134083
0.13371
0.133335
0.132957
0.132572
0.132177
0.131771
0.131351
0.130917
0.130468
0.130003
0.129524
0.129032
0.128529
0.128016
0.127498
0.126977
0.126456
0.12594
0.125433
0.124937
0.124456
0.123996
0.123558
0.123147
0.122765
0.122417
0.122106
0.121833
0.121601
0.121414
0.121273
0.121179
0.121132
0.121134
0.121184
0.121282
0.121426
0.121617
0.121852
0.122131
0.122451
0.122808
0.123189
0.123589
0.124001
0.124421
0.124846
0.125275
0.125704
0.126132
0.126558
0.126981
0.127399
0.127811
0.128216
0.128614
0.129004
0.129386
0.129759
0.130122
0.130476
0.13082
0.131153
0.131477
0.131791
0.132094
0.132387
0.132669
0.132942
0.133205
0.133457
0.1337
0.133934
0.134158
0.134372
0.134578
0.134776
0.134964
0.135145
0.135317
0.135481
0.135638
0.135788
0.135931
0.136067
0.136196
0.136319
0.136435
0.136546
0.136652
0.136752
0.136846
0.136936
0.137021
0.137101
0.137178
0.137249
0.137317
0.137381
0.137442
0.137499
0.137553
0.137603
0.137651
0.137696
0.137738
0.137777
0.139723
0.139135
0.138565
0.138024
0.137513
0.137031
0.136576
0.136147
0.135741
0.135352
0.134977
0.134611
0.134251
0.133893
0.133533
0.133168
0.132795
0.132411
0.132015
0.131603
0.131175
0.13073
0.130268
0.129789
0.129295
0.128788
0.12827
0.127745
0.127216
0.126687
0.126161
0.125643
0.125136
0.124644
0.124172
0.123722
0.1233
0.122907
0.122548
0.122225
0.121942
0.121701
0.121505
0.121355
0.121254
0.121202
0.121199
0.121245
0.121339
0.121482
0.121672
0.121908
0.122189
0.122512
0.122871
0.123256
0.123658
0.124073
0.124496
0.124925
0.125356
0.125788
0.126219
0.126648
0.127073
0.127493
0.127908
0.128315
0.128715
0.129108
0.129491
0.129865
0.13023
0.130585
0.13093
0.131265
0.131589
0.131903
0.132206
0.132499
0.132782
0.133054
0.133316
0.133568
0.13381
0.134042
0.134265
0.134478
0.134683
0.134878
0.135065
0.135243
0.135413
0.135576
0.13573
0.135878
0.136018
0.136151
0.136277
0.136397
0.136511
0.136619
0.136722
0.136818
0.13691
0.136997
0.137078
0.137156
0.137228
0.137297
0.137362
0.137422
0.13748
0.137533
0.137584
0.137631
0.137676
0.137717
0.137756
0.137793
0.139721
0.139138
0.138579
0.138051
0.137554
0.137088
0.13665
0.136239
0.13585
0.135479
0.135121
0.134772
0.134429
0.134086
0.133742
0.133391
0.133031
0.132659
0.132272
0.131868
0.131446
0.131005
0.130545
0.130067
0.129571
0.12906
0.128537
0.128005
0.127467
0.126928
0.126392
0.125862
0.125343
0.12484
0.124355
0.123894
0.123459
0.123054
0.122683
0.122349
0.122055
0.121804
0.121598
0.12144
0.121331
0.121272
0.121263
0.121304
0.121396
0.121536
0.121725
0.121961
0.122243
0.122568
0.12293