/*--------------------------------*- C++ -*----------------------------------*\
  =========                 |
  \\      /  F ield         | OpenFOAM: The Open Source CFD Toolbox
   \\    /   O peration     | Website:  https://openfoam.org
    \\  /    A nd           | Version:  8
     \\/     M anipulation  |
\*---------------------------------------------------------------------------*/
FoamFile
{
    version     2.0;
    format      ascii;
    class       surfaceScalarField;
    location    "0.02436";
    object      phi;
}
// * * * * * * * * * * * * * * * * * * * * * * * * * * * * * * * * * * * * * //

dimensions      [0 3 -1 0 0 0 0];

internalField   nonuniform List<scalar> 
214817
(
-0.00359982
0.0263998
-0.00840012
0.0708003
-0.0119998
0.1152
-0.0167994
0.1596
-0.0215989
0.204
-0.0251986
0.2484
-0.0287983
0.2916
-0.0323979
0.336
-0.0359976
0.3792
-0.0395972
0.4248
-0.0419969
0.4668
-0.0455965
0.5112
-0.0491961
0.5556
-0.0527958
0.5976
-0.0539954
0.6408
-0.057595
0.6852
-0.0611946
0.7272
-0.0635942
0.7704
-0.0659938
0.8124
-0.0671935
0.8544
-0.070793
0.8976
-0.0719927
0.9384
-0.0743923
0.9804
-0.0755919
1.0224
-0.0779915
1.0632
-0.0791911
1.104
-0.0815907
1.146
-0.0827903
1.1844
-0.0839899
1.2252
-0.0863894
1.266
-0.0875891
1.3044
-0.0887886
1.344
-0.0899883
1.3824
-0.0899879
1.4208
-0.0911875
1.4592
-0.0911871
1.4964
-0.0923867
1.5348
-0.0935863
1.572
-0.0935859
1.608
-0.0947855
1.644
-0.0947851
1.68
-0.0947847
1.716
-0.0947844
1.7496
-0.094784
1.7856
-0.0947836
1.8192
-0.0947833
1.8528
-0.0947829
1.8864
-0.0935825
1.9188
-0.0935822
1.9512
-0.0935818
1.9836
-0.0923815
2.0136
-0.0923811
2.046
-0.0911808
2.0748
-0.0905804
2.10564
-0.0897401
2.13468
-0.0887798
2.16336
-0.0878195
2.19168
-0.0868591
2.2194
-0.0856588
2.24652
-0.0844585
2.27304
-0.0832582
2.2992
-0.0819379
2.32464
-0.0804976
2.34948
-0.0790574
2.37384
-0.0776171
2.3976
-0.0760568
2.42076
-0.0743765
2.4432
-0.0728163
2.46528
-0.071136
2.48664
-0.0693358
2.50728
-0.0675355
2.52744
-0.0656153
2.54688
-0.0636951
2.56572
-0.0616548
2.58396
-0.0596146
2.6016
-0.0576944
2.61864
-0.0555342
2.63484
-0.053374
2.65044
-0.0512138
2.66556
-0.0489336
2.67984
-0.0467734
2.69364
-0.0446132
2.7066
-0.0422131
2.71884
-0.0399329
2.73072
-0.0375328
2.74164
-0.0351326
2.75196
-0.0327325
2.76168
-0.0303324
2.77068
-0.0279322
2.77896
-0.0254121
2.78652
-0.022892
2.79348
-0.0203719
2.79972
-0.0178518
2.80536
-0.0152117
2.81004
-0.0128116
2.81436
-0.0102315
2.8178
-0.00767548
2.82058
-0.0051074
2.82266
-0.00253937
2.82404
2.86946e-05
2.82475
0.00259671
2.82475
0.00516477
2.82404
0.00773278
2.82266
0.0102888
2.82058
0.0128688
2.8178
0.0152688
2.81436
0.0179088
2.81004
0.0204288
2.80536
0.0229488
2.79972
0.0254687
2.79348
0.0279887
2.78652
0.0303887
2.77896
0.0327886
2.77068
0.0351886
2.76168
0.0375885
2.75196
0.0399884
2.74164
0.0422683
2.73072
0.0446682
2.71884
0.0468281
2.7066
0.048988
2.69364
0.0512679
2.67984
0.0534278
2.66556
0.0555877
2.65044
0.0577475
2.63484
0.0596674
2.61864
0.0617073
2.6016
0.0637471
2.58396
0.0656669
2.56572
0.0675868
2.54688
0.0693866
2.52744
0.0711864
2.50728
0.0728662
2.48664
0.074426
2.46528
0.0761058
2.4432
0.0776656
2.42076
0.0791053
2.3976
0.0805451
2.37384
0.0819848
2.34948
0.0833046
2.32464
0.0845043
2.2992
0.0857041
2.27304
0.0869038
2.24652
0.0878635
2.2194
0.0888232
2.19168
0.0897829
2.16336
0.0906227
2.13468
0.0912223
2.10564
0.092422
2.0748
0.0924217
2.046
0.0936214
2.0136
0.093621
1.9836
0.0936207
1.9512
0.0948203
1.9188
0.09482
1.8864
0.0948196
1.8528
0.0948192
1.8192
0.0948189
1.7856
0.0948185
1.7496
0.0948181
1.716
0.0948177
1.68
0.0936173
1.644
0.0936169
1.608
0.0924165
1.572
0.091216
1.5348
0.0912156
1.4964
0.0900152
1.4592
0.0900148
1.4208
0.0888144
1.3824
0.0876139
1.344
0.0864135
1.3044
0.084013
1.266
0.0828125
1.2252
0.0816121
1.1844
0.0792116
1.146
0.0780112
1.104
0.0756107
1.0632
0.0744102
1.0224
0.0720098
0.9804
0.0708093
0.9384
0.0672088
0.8976
0.0660084
0.8544
0.0636079
0.8124
0.0612074
0.7704
0.0576069
0.7272
0.0540064
0.6852
0.0528059
0.6408
0.0492055
0.5976
0.0456049
0.555601
0.0420045
0.5112
0.039604
0.4668
0.0360035
0.424801
0.032403
0.3792
0.0288025
0.336
0.0252021
0.2916
0.0216016
0.248401
0.0168009
0.204001
0.0120002
0.159601
0.00839979
0.1152
0.00360027
0.0707995
0.0264003
-0.00479896
0.0311988
-0.00959917
0.0756005
-0.0131994
0.1188
-0.0179988
0.164399
-0.0215977
0.207598
-0.0239965
0.250798
-0.0287954
0.296399
-0.0323944
0.339599
-0.0359934
0.382799
-0.0395923
0.428399
-0.0431912
0.470399
-0.0467901
0.514799
-0.0479891
0.556799
-0.0515879
0.601198
-0.0551868
0.644398
-0.0575856
0.687598
-0.0599845
0.729598
-0.0623833
0.772798
-0.0647821
0.814798
-0.0683809
0.857998
-0.0695797
0.898798
-0.0731784
0.941998
-0.0743773
0.981598
-0.076776
1.0248
-0.0779748
1.0644
-0.0803736
1.1064
-0.0815724
1.1472
-0.0839711
1.1868
-0.0851699
1.2264
-0.0851687
1.266
-0.0863675
1.3056
-0.0875663
1.3452
-0.088765
1.3836
-0.0899638
1.422
-0.0911626
1.4604
-0.0923614
1.4976
-0.0923602
1.5348
-0.092359
1.572
-0.0935578
1.6092
-0.0935567
1.644
-0.0947555
1.6812
-0.0935543
1.7148
-0.0947531
1.7508
-0.094752
1.7856
-0.0947509
1.8192
-0.0947497
1.8528
-0.0947486
1.8864
-0.0935476
1.9176
-0.0935465
1.9512
-0.0923454
1.9824
-0.0935443
2.0148
-0.0911433
2.0436
-0.0911422
2.0748
-0.0905412
2.10504
-0.0897002
2.13384
-0.0888592
2.16252
-0.0877782
2.1906
-0.0866973
2.21832
-0.0856163
2.24544
-0.0845354
2.27196
-0.0832145
2.29788
-0.0818936
2.32332
-0.0804527
2.34804
-0.0791318
2.37252
-0.077571
2.39604
-0.0760101
2.4192
-0.0744493
2.44164
-0.0727685
2.4636
-0.0709677
2.48484
-0.069167
2.50548
-0.0673663
2.52564
-0.0654455
2.54496
-0.0636448
2.56392
-0.0617241
2.58204
-0.0596835
2.59956
-0.0575228
2.61648
-0.0554822
2.6328
-0.0534415
2.6484
-0.051161
2.66328
-0.0490004
2.67768
-0.0467198
2.69136
-0.0444393
2.70432
-0.0421588
2.71656
-0.0397583
2.72832
-0.0374779
2.73936
-0.0350774
2.74956
-0.032677
2.75928
-0.0301566
2.76816
-0.0277562
2.77656
-0.0253558
2.78412
-0.0228355
2.79096
-0.0203152
2.7972
-0.0177949
2.80284
-0.0152746
2.80752
-0.0127544
2.81184
-0.0101621
2.81521
-0.00760591
2.81802
-0.00503773
2.8201
-0.00248159
2.82149
8.65599e-05
2.82218
0.00265467
2.82218
0.00521079
2.82149
0.00777887
2.8201
0.0103349
2.81802
0.0129269
2.81521
0.0154469
2.81184
0.0179669
2.80752
0.0204869
2.80284
0.0230068
2.7972
0.0255268
2.79096
0.0279266
2.78412
0.0303265
2.77656
0.0328463
2.76816
0.0352462
2.75928
0.037646
2.74956
0.0399257
2.73936
0.0423255
2.72832
0.0446052
2.71656
0.046885
2.70432
0.0491646
2.69136
0.0513243
2.67768
0.0536039
2.66328
0.0556435
2.6484
0.0576831
2.6328
0.0598427
2.61648
0.0618822
2.59956
0.0638017
2.58204
0.0656013
2.56392
0.0675207
2.54496
0.0693201
2.52564
0.0711196
2.50548
0.0729189
2.48484
0.0745984
2.4636
0.0761577
2.44164
0.077717
2.4192
0.0792763
2.39604
0.0805956
2.37252
0.0820349
2.34804
0.0833541
2.32332
0.0846733
2.29788
0.0857525
2.27196
0.0868317
2.24544
0.0879109
2.21832
0.08899
2.1906
0.0898291
2.16252
0.0906682
2.13384
0.0912672
2.10504
0.0912662
2.0748
0.0936653
2.0436
0.0924642
2.0148
0.0936633
1.9824
0.0936622
1.9512
0.0948612
1.9176
0.0948601
1.8864
0.094859
1.8528
0.0948578
1.8192
0.0948567
1.7856
0.0936555
1.7508
0.0948543
1.7148
0.0936531
1.6812
0.0936519
1.644
0.0924506
1.6092
0.0924494
1.572
0.0924482
1.5348
0.0912469
1.4976
0.0900455
1.4604
0.0888442
1.422
0.0876429
1.3836
0.0864415
1.3452
0.0852402
1.3056
0.0852388
1.266
0.0840374
1.2264
0.081636
1.1868
0.0804346
1.1472
0.0780332
1.1064
0.0768318
1.0644
0.0744303
1.0248
0.0732289
0.981602
0.0696274
0.942002
0.068426
0.898802
0.0648245
0.858002
0.062423
0.814802
0.0600215
0.772802
0.0576201
0.729602
0.0552186
0.687602
0.0516171
0.644402
0.0480156
0.601202
0.0468142
0.556802
0.0432127
0.514802
0.0396112
0.470402
0.0360097
0.428402
0.0324083
0.382802
0.0288069
0.339602
0.0240053
0.296402
0.0216035
0.250802
0.0180018
0.207602
0.0132009
0.164402
0.0096013
0.1188
0.00480165
0.0755992
0.0312019
-0.00479845
0.0359972
-0.00839766
0.0791997
-0.0131981
0.1236
-0.0167981
0.167999
-0.0203968
0.211197
-0.0251948
0.255596
-0.0287929
0.299997
-0.0323911
0.343197
-0.0359895
0.386397
-0.0383877
0.430797
-0.0431859
0.475197
-0.0455841
0.517197
-0.0491822
0.560397
-0.0527803
0.604797
-0.0551784
0.646797
-0.0575765
0.689997
-0.0611745
0.733196
-0.0635726
0.775196
-0.0659706
0.817196
-0.0671687
0.859196
-0.0707666
0.902396
-0.0719646
0.943196
-0.0755626
0.985196
-0.0767605
1.026
-0.0791585
1.0668
-0.0803565
1.1076
-0.0815544
1.1484
-0.0827524
1.188
-0.0839504
1.2276
-0.0863483
1.2684
-0.0875462
1.3068
-0.0887441
1.3464
-0.0899421
1.3848
-0.0911401
1.4232
-0.0911381
1.4604
-0.092336
1.4988
-0.092334
1.5348
-0.093532
1.5732
-0.09353
1.6092
-0.094728
1.6452
-0.0935261
1.68
-0.0947241
1.716
-0.0947222
1.7508
-0.0947202
1.7856
-0.0947183
1.8192
-0.0947164
1.8528
-0.0935146
1.8852
-0.0947127
1.9188
-0.0935109
1.95
-0.093509
1.9824
-0.0923073
2.0136
-0.0923054
2.0436
-0.0923037
2.0748
-0.090502
2.10324
-0.0896602
2.133
-0.0886986
2.16156
-0.087737
2.18964
-0.0867753
2.21736
-0.0855737
2.24424
-0.0843721
2.27076
-0.0830506
2.29656
-0.0817291
2.322
-0.0805276
2.34684
-0.0789661
2.37096
-0.0775246
2.3946
-0.0759632
2.41764
-0.0742819
2.43996
-0.0726005
2.46192
-0.0709192
2.48316
-0.0692379
2.5038
-0.0673166
2.52372
-0.0655154
2.54316
-0.0634742
2.56188
-0.0615531
2.58012
-0.0596319
2.59764
-0.0575908
2.61444
-0.0554297
2.63064
-0.0532688
2.64624
-0.0511077
2.66112
-0.0489468
2.67552
-0.0466658
2.68908
-0.0443849
2.70204
-0.042104
2.71428
-0.0398232
2.72604
-0.0374225
2.73696
-0.0350217
2.74716
-0.032621
2.75688
-0.0302203
2.76576
-0.0276996
2.77404
-0.025179
2.7816
-0.0227784
2.78856
-0.0202579
2.79468
-0.0177374
2.80032
-0.0152169
2.805
-0.0126965
2.80932
-0.0101161
2.81263
-0.00755978
2.81546
-0.00499148
2.81753
-0.00242314
2.81892
0.000145103
2.81962
0.0027133
2.81962
0.0052814
2.81892
0.00784955
2.81753
0.0104057
2.81546
0.0129858
2.81263
0.0155058
2.80932
0.0180257
2.805
0.0205457
2.80032
0.0230655
2.79468
0.0254654
2.78856
0.0279853
2.7816
0.030505
2.77404
0.0329047
2.76576
0.0353044
2.75688
0.037704
2.74716
0.0401037
2.73696
0.0423833
2.72604
0.0446628
2.71428
0.0469423
2.70204
0.0492217
2.68908
0.0513812
2.67552
0.0535405
2.66112
0.0556999
2.64624
0.0578592
2.63064
0.0598984
2.61444
0.0618177
2.59764
0.0637369
2.58012
0.065776
2.56188
0.0675751
2.54316
0.0694941
2.52372
0.0711731
2.5038
0.0728522
2.48316
0.074531
2.46192
0.07621
2.43996
0.0777689
2.41764
0.0792077
2.3946
0.0807665
2.37096
0.0819652
2.34684
0.0832839
2.322
0.0846027
2.29656
0.0858012
2.27076
0.0869999
2.24424
0.0879583
2.21736
0.0889169
2.18964
0.0898754
2.16156
0.0907138
2.133
0.0925123
2.10324
0.0925107
2.0748
0.0925089
2.0436
0.0937072
2.0136
0.0937055
1.9824
0.0949038
1.95
0.0937019
1.9188
0.0949001
1.8852
0.0948982
1.8528
0.0948964
1.8192
0.0948944
1.7856
0.0948924
1.7508
0.0936904
1.716
0.0948884
1.68
0.0936863
1.6452
0.0936843
1.6092
0.0924821
1.5732
0.09248
1.5348
0.0912778
1.4988
0.0912756
1.4604
0.0900734
1.4232
0.0888712
1.3848
0.0876689
1.3464
0.0864666
1.3068
0.0840642
1.2684
0.0828619
1.2276
0.0816596
1.188
0.0804573
1.1484
0.0792549
1.1076
0.0768525
1.0668
0.0756501
1.026
0.0720476
0.985204
0.0708453
0.943204
0.0672427
0.902404
0.0660404
0.859204
0.0636379
0.817204
0.0612354
0.775204
0.0576329
0.733204
0.0552305
0.690004
0.052828
0.646804
0.0492255
0.604805
0.045623
0.560404
0.0432206
0.517204
0.038418
0.475205
0.0360156
0.430804
0.0324133
0.386404
0.0288108
0.343204
0.0252079
0.300005
0.0204049
0.255605
0.016803
0.211204
0.0132029
0.168002
0.00840373
0.123599
0.00480249
0.0792004
0.0360044
-0.00359842
0.0395957
-0.00839637
0.0839977
-0.0131963
0.1284
-0.0167968
0.171599
-0.0215959
0.215996
-0.0251937
0.259194
-0.0287909
0.303594
-0.0323883
0.346794
-0.0359859
0.389995
-0.0395834
0.434394
-0.041981
0.477594
-0.0455784
0.520794
-0.0491758
0.563994
-0.0515732
0.607194
-0.0551705
0.650394
-0.0575678
0.692394
-0.0599651
0.735594
-0.0623624
0.777594
-0.0659596
0.820794
-0.0683568
0.861594
-0.069554
0.903594
-0.0719512
0.945594
-0.0743483
0.987593
-0.0755455
1.02719
-0.0779426
1.06919
-0.0791398
1.10879
-0.0815368
1.15079
-0.082734
1.18919
-0.085131
1.22999
-0.0863282
1.26959
-0.0875253
1.30799
-0.0875224
1.34639
-0.0887196
1.38599
-0.0899167
1.42439
-0.0911138
1.46159
-0.091111
1.49879
-0.093508
1.53719
-0.0935052
1.57319
-0.0935024
1.60919
-0.0934996
1.64519
-0.0946967
1.68119
-0.094694
1.71599
-0.0946913
1.75079
-0.0946886
1.78559
-0.0946858
1.81919
-0.0946832
1.85279
-0.0946805
1.88519
-0.0934779
1.91759
-0.0934753
1.94999
-0.0934726
1.98239
-0.0922702
2.01239
-0.0922677
2.04359
-0.0910651
2.07359
-0.0904627
2.10263
-0.0896203
2.13215
-0.0886579
2.16059
-0.0878155
2.18879
-0.0866133
2.21615
-0.0855309
2.24315
-0.0843287
2.26955
-0.0831265
2.29536
-0.0818043
2.32068
-0.0803621
2.3454
-0.0789202
2.36952
-0.077478
2.39316
-0.075796
2.41596
-0.0743541
2.43852
-0.0726722
2.46024
-0.0708702
2.48136
-0.0690683
2.502
-0.0672666
2.52192
-0.0654649
2.54136
-0.0635432
2.55996
-0.0615015
2.57808
-0.0594599
2.5956
-0.0574184
2.6124
-0.0553768
2.6286
-0.0532153
2.64408
-0.051174
2.65908
-0.0488925
2.67324
-0.0466112
2.6868
-0.04433
2.69976
-0.0421688
2.71212
-0.0397675
2.72364
-0.0373664
2.73456
-0.0349653
2.74476
-0.0325643
2.75448
-0.0301633
2.76336
-0.0276424
2.77152
-0.0252415
2.7792
-0.0227207
2.78604
-0.0201999
2.79216
-0.0176791
2.7978
-0.0151586
2.80248
-0.0125179
2.80668
-0.0100574
2.81017
-0.00748879
2.81289
-0.00493238
2.81497
-0.002364
2.81635
0.00020435
2.81705
0.00277263
2.81705
0.00534089
2.81635
0.0078971
2.81497
0.0104652
2.8129
0.0129253
2.81017
0.0155652
2.80668
0.0180853
2.80248
0.0206051
2.7978
0.0231249
2.79216
0.0256447
2.78604
0.0280444
2.7792
0.0305641
2.77152
0.0329638
2.76336
0.0353633
2.75448
0.0377629
2.74476
0.0401623
2.73456
0.0425616
2.72364
0.044721
2.71212
0.0470004
2.69976
0.0492796
2.6868
0.0515586
2.67324
0.0535979
2.65908
0.0557569
2.64408
0.0577958
2.6286
0.0598349
2.6124
0.0618737
2.5956
0.0639126
2.57808
0.0658313
2.55996
0.0676301
2.54136
0.0694288
2.52192
0.0712273
2.502
0.0730258
2.48136
0.0747043
2.46024
0.0761428
2.43852
0.0778212
2.41596
0.0792594
2.39316
0.0806978
2.36952
0.082136
2.3454
0.0834541
2.32068
0.0846522
2.29536
0.0858503
2.26956
0.0869282
2.24316
0.0881262
2.21616
0.0889641
2.1888
0.0899219
2.1606
0.0907598
2.13216
0.0913575
2.10265
0.0925551
2.07361
0.0925527
2.04361
0.0937504
2.01241
0.0937479
1.98241
0.0937454
1.95001
0.0949429
1.91761
0.0949402
1.88521
0.0949376
1.85281
0.0949348
1.81921
0.094932
1.78561
0.0949293
1.75081
0.0949265
1.71601
0.0937236
1.68121
0.0937207
1.64521
0.0937178
1.60921
0.0937148
1.57321
0.0913116
1.53721
0.0913086
1.49881
0.0901055
1.46161
0.0889022
1.42441
0.0876991
1.38601
0.087696
1.34641
0.0864928
1.30801
0.0852895
1.26961
0.0828862
1.23001
0.0816829
1.18921
0.0792795
1.15081
0.0780762
1.10881
0.0756728
1.06921
0.0744695
1.02721
0.072066
0.987608
0.0696625
0.945608
0.0684592
0.903608
0.0660558
0.861608
0.0624522
0.820808
0.0600488
0.777608
0.0576453
0.735608
0.0552419
0.692408
0.0516383
0.650408
0.0492349
0.607208
0.0456314
0.564008
0.0420279
0.520808
0.0396245
0.477608
0.0360211
0.434408
0.0324177
0.390008
0.0288138
0.346808
0.0252096
0.303609
0.0216062
0.259209
0.0168051
0.216006
0.0132059
0.171601
0.00840581
0.128399
0.00360254
0.0840037
0.039607
-0.00479828
0.0443939
-0.00959543
0.0887948
-0.0131943
0.131999
-0.0167947
0.1752
-0.0203947
0.219596
-0.0251928
0.263992
-0.0287895
0.307191
-0.032386
0.350391
-0.0359827
0.393591
-0.0395795
0.437991
-0.0431763
0.481191
-0.046773
0.524391
-0.0491698
0.566391
-0.0527663
0.610791
-0.055163
0.652791
-0.0587594
0.69599
-0.061156
0.73799
-0.0635525
0.77999
-0.064749
0.82199
-0.0683453
0.86519
-0.0707417
0.90599
-0.073138
0.94799
-0.0743344
0.98879
-0.0767307
1.02959
-0.0779271
1.07039
-0.0803234
1.11119
-0.0815196
1.15199
-0.082716
1.19039
-0.0839122
1.23119
-0.0851085
1.27079
-0.0863047
1.30919
-0.088701
1.34879
-0.0898972
1.38719
-0.0898935
1.42439
-0.0910898
1.46279
-0.092286
1.49999
-0.0922824
1.53719
-0.0922788
1.57319
-0.0934751
1.61039
-0.0934715
1.64519
-0.0934679
1.68119
-0.0946642
1.71719
-0.0946606
1.75079
-0.0946571
1.78559
-0.0946535
1.81919
-0.0934501
1.85159
-0.0934467
1.88519
-0.0946432
1.91879
-0.0934398
1.94879
-0.0922365
1.98119
-0.0922331
2.01239
-0.0910298
2.04239
-0.0910266
2.07359
-0.0904234
2.10203
-0.0895802
2.13131
-0.0887371
2.15975
-0.087654
2.18771
-0.0865711
2.21507
-0.085488
2.24207
-0.0842852
2.26835
-0.0830822
2.29415
-0.0817594
2.31935
-0.0803167
2.34395
-0.0789938
2.36819
-0.0774312
2.39159
-0.0758685
2.41439
-0.074186
2.43683
-0.0725034
2.45855
-0.0708211
2.47967
-0.0691386
2.50031
-0.0673362
2.52011
-0.065294
2.53931
-0.0634918
2.55815
-0.0615695
2.57615
-0.0595275
2.59355
-0.0574854
2.61035
-0.0553235
2.62643
-0.0531615
2.64191
-0.0509996
2.65691
-0.0488378
2.67108
-0.0465561
2.68452
-0.0442744
2.69748
-0.0419927
2.70984
-0.0395911
2.72124
-0.0373097
2.73228
-0.0349083
2.74236
-0.0325069
2.75208
-0.0299856
2.76084
-0.0277044
2.76924
-0.0250632
2.77656
-0.0226622
2.78364
-0.0201413
2.78964
-0.0176203
2.79528
-0.0150995
2.79996
-0.0125786
2.80416
-0.00998594
2.80758
-0.00744133
2.81035
-0.00487263
2.8124
-0.00230413
2.81378
0.00026432
2.81448
0.0028327
2.81448
0.00540103
2.81378
0.00796914
2.8124
0.0105134
2.81035
0.0131055
2.80758
0.0156255
2.80416
0.0181455
2.79996
0.0206653
2.79528
0.0231852
2.78964
0.0255849
2.78364
0.0282246
2.77656
0.0305042
2.76924
0.0330237
2.76084
0.035423
2.75208
0.0378224
2.74236
0.0401017
2.73228
0.0425009
2.72124
0.0447799
2.70984
0.047059
2.69748
0.0493381
2.68452
0.0514969
2.67108
0.0536558
2.65692
0.0558144
2.64192
0.0579732
2.62644
0.0600117
2.61036
0.0620505
2.59356
0.0639687
2.57616
0.0657671
2.55816
0.0678055
2.53932
0.0696037
2.52012
0.0712818
2.50033
0.07296
2.47969
0.074638
2.45857
0.076316
2.43685
0.0778739
2.41441
0.0794317
2.39161
0.0807493
2.36821
0.082187
2.34397
0.0835047
2.31937
0.0847021
2.29417
0.0858996
2.26837
0.0869769
2.24209
0.0880543
2.21509
0.0891315
2.18773
0.0899687
2.15977
0.0908058
2.13133
0.0914028
2.10205
0.0913998
2.07361
0.0925968
2.04241
0.0925935
2.01241
0.0937903
1.98121
0.0949871
1.94881
0.0937836
1.91881
0.0937802
1.88521
0.0949769
1.85161
0.0949733
1.81921
0.0949698
1.78561
0.0949661
1.75081
0.0937623
1.71721
0.0937586
1.68121
0.0937548
1.64521
0.0925508
1.61041
0.0925471
1.57321
0.0925432
1.53721
0.0913392
1.50001
0.0901351
1.46281
0.0901311
1.42441
0.0889269
1.38721
0.0865227
1.34881
0.0853185
1.30921
0.0841143
1.27081
0.08291
1.23121
0.0817058
1.19041
0.0805015
1.15201
0.0780971
1.11121
0.0768928
1.07041
0.0744884
1.02961
0.0732841
0.988812
0.0708797
0.948012
0.0684752
0.906012
0.0648706
0.865212
0.0636662
0.822012
0.0612618
0.780012
0.0588574
0.738012
0.0552528
0.696012
0.0528484
0.652812
0.0492438
0.610813
0.0468394
0.566412
0.0432349
0.524412
0.0396305
0.481212
0.036026
0.438012
0.0324213
0.393612
0.028816
0.350413
0.0252111
0.307214
0.0204082
0.264012
0.0168083
0.219605
0.0132092
0.1752
0.00960735
0.132001
0.0048028
0.0888082
0.0444097
-0.00479821
0.0491921
-0.00839512
0.0923917
-0.0131925
0.136797
-0.0179922
0.18
-0.0215927
0.223197
-0.0251916
0.267591
-0.0287884
0.310787
-0.0323842
0.353987
-0.0371799
0.398387
-0.039576
0.440387
-0.0431721
0.484787
-0.0455682
0.526787
-0.0491641
0.569987
-0.0515601
0.613186
-0.0551559
0.656386
-0.0575517
0.698386
-0.0599474
0.740386
-0.063543
0.783586
-0.0659387
0.824386
-0.0671344
0.866386
-0.06953
0.908386
-0.0719255
0.950385
-0.074321
0.991185
-0.0767164
1.03199
-0.0779119
1.07159
-0.0803073
1.11359
-0.0815028
1.15319
-0.0838981
1.19279
-0.0850936
1.23239
-0.086289
1.27199
-0.0874844
1.31039
-0.0886798
1.34999
-0.0886753
1.38719
-0.0898707
1.42559
-0.0910661
1.46399
-0.0922615
1.50119
-0.092257
1.53719
-0.0934524
1.57439
-0.0934479
1.61039
-0.0946433
1.64639
-0.0946389
1.68119
-0.0946345
1.71719
-0.0946301
1.75079
-0.0946257
1.78559
-0.0946214
1.81919
-0.094617
1.85159
-0.0946128
1.88519
-0.0934085
1.91759
-0.0934043
1.94879
-0.0934002
1.98119
-0.0921961
2.01119
-0.092192
2.04239
-0.0909879
2.07239
-0.0903841
2.10143
-0.0895401
2.13047
-0.0885762
2.15879
-0.0876125
2.18675
-0.0866486
2.21411
-0.085445
2.24087
-0.0842413
2.26715
-0.0830379
2.29295
-0.0817143
2.31803
-0.0803908
2.34263
-0.0788273
2.36663
-0.0772642
2.39003
-0.0758209
2.41295
-0.0742576
2.43527
-0.0725744
2.45687
-0.0708913
2.47799
-0.0689684
2.49839
-0.0671656
2.51831
-0.0653625
2.53751
-0.0634398
2.55623
-0.0613972
2.57411
-0.0593544
2.59151
-0.0573119
2.60831
-0.0552695
2.62439
-0.0532271
2.63987
-0.0509447
2.65463
-0.0486626
2.66879
-0.0465003
2.68235
-0.0443381
2.69531
-0.0419362
2.70743
-0.0396544
2.71895
-0.0371326
2.72975
-0.0348507
2.74007
-0.0324491
2.74967
-0.0300475
2.75843
-0.027526
2.76672
-0.0251246
2.77416
-0.0224832
2.781
-0.0200819
2.78724
-0.0175609
2.79276
-0.0150395
2.79744
-0.0125188
2.80164
-0.0099376
2.805
-0.00736884
2.80778
-0.00481214
2.80985
-0.00224353
2.81121
0.00032503
2.81191
0.0028935
2.81191
0.00546191
2.81121
0.00801824
2.80985
0.0105865
2.80778
0.0131663
2.805
0.0156866
2.80164
0.0182063
2.79744
0.0207263
2.79276
0.023126
2.78724
0.0257656
2.781
0.0281651
2.77416
0.0306846
2.76672
0.033084
2.75844
0.0354833
2.74968
0.0377624
2.74008
0.0402816
2.72976
0.0425607
2.71896
0.0449597
2.70744
0.0471185
2.69532
0.049277
2.68236
0.0515558
2.6688
0.0538343
2.65464
0.0558728
2.63988
0.0579112
2.62441
0.0599495
2.60833
0.0619875
2.59153
0.0640257
2.57413
0.0659437
2.55625
0.0677414
2.53753
0.0695393
2.51833
0.0714571
2.49841
0.0731347
2.47801
0.0748122
2.45689
0.0763695
2.43529
0.0778069
2.41297
0.0793643
2.39005
0.0809214
2.36665
0.0822385
2.34265
0.0835554
2.31805
0.0847525
2.29297
0.0859493
2.26717
0.0871461
2.24089
0.0881025
2.21413
0.0890592
2.18677
0.0900157
2.15881
0.0908521
2.13049
0.0914485
2.10145
0.0926446
2.07241
0.0926407
2.04241
0.0938369
2.01121
0.0938329
1.98121
0.0938288
1.94881
0.0950247
1.91761
0.0950205
1.88521
0.0950161
1.85161
0.0950118
1.81921
0.0950073
1.78561
0.0950029
1.75081
0.0949983
1.71721
0.0949938
1.68121
0.093789
1.64642
0.0937842
1.61042
0.0925793
1.57442
0.0925745
1.53722
0.0913695
1.50122
0.0901645
1.46402
0.0889594
1.42562
0.0889545
1.38722
0.0877493
1.35002
0.0865442
1.31042
0.085339
1.27202
0.0841338
1.23242
0.0817284
1.19282
0.0805231
1.15322
0.0781177
1.11362
0.0769124
1.07162
0.0745069
1.03202
0.0721015
0.991218
0.069696
0.950418
0.0672905
0.908418
0.0660852
0.866418
0.0636798
0.824418
0.0600741
0.783618
0.0576687
0.740418
0.0552632
0.698418
0.0516576
0.656418
0.0492522
0.613218
0.0456467
0.570018
0.0432413
0.526818
0.0396359
0.484818
0.0372304
0.440418
0.0324241
0.398419
0.0288178
0.35402
0.025213
0.310819
0.0216116
0.267613
0.0180125
0.223204
0.013212
0.18
0.0084079
0.136805
0.00480294
0.0924132
0.0492127
-0.00359833
0.0527905
-0.00839499
0.0971884
-0.0119914
0.140393
-0.0167898
0.184798
-0.02159
0.227997
-0.0251898
0.271191
-0.0287873
0.314385
-0.0323828
0.357582
-0.0359778
0.401982
-0.039573
0.443983
-0.0419684
0.487183
-0.0455637
0.530382
-0.0491589
0.573582
-0.052754
0.616782
-0.0551491
0.658781
-0.0575442
0.700781
-0.0611391
0.743981
-0.0623341
0.784781
-0.0659289
0.827981
-0.0683237
0.86878
-0.0707184
0.91078
-0.0719133
0.95158
-0.0743079
0.99358
-0.0755027
1.03318
-0.0790971
1.07518
-0.0790919
1.11358
-0.0814864
1.15558
-0.082681
1.19398
-0.0838756
1.23358
-0.0850702
1.27318
-0.0874645
1.31278
-0.0874592
1.34998
-0.0898535
1.38958
-0.091048
1.42678
-0.0910427
1.46398
-0.0910374
1.50118
-0.0922319
1.53838
-0.0934264
1.57558
-0.093421
1.61038
-0.0934158
1.64638
-0.0946103
1.68238
-0.0934051
1.71598
-0.0945997
1.75198
-0.0945945
1.78558
-0.0933894
1.81798
-0.0945841
1.85278
-0.0945789
1.88518
-0.093374
1.91638
-0.093369
1.94878
-0.0933639
1.98118
-0.093359
2.01118
-0.0921542
2.04118
-0.0909494
2.07118
-0.0903447
2.10082
-0.08938
2.1295
-0.0885353
2.15794
-0.0875707
2.18578
-0.0864863
2.21302
-0.0854019
2.23978
-0.0841975
2.26594
-0.0829931
2.29174
-0.0816689
2.3167
-0.0802246
2.34118
-0.0787808
2.36519
-0.0773366
2.38859
-0.0757727
2.41139
-0.074089
2.43359
-0.0725252
2.45531
-0.0707215
2.47619
-0.0690379
2.49671
-0.0671143
2.51639
-0.065311
2.53571
-0.0632675
2.55419
-0.0613443
2.57219
-0.0594212
2.58959
-0.0572582
2.60615
-0.055215
2.62235
-0.0530522
2.63771
-0.0508893
2.65247
-0.0487266
2.66663
-0.0465642
2.68019
-0.0441616
2.69291
-0.0418793
2.70515
-0.0394769
2.71655
-0.0371945
2.72747
-0.0347925
2.73767
-0.0323905
2.74727
-0.0299886
2.75603
-0.0274666
2.76419
-0.0250651
2.77175
-0.0225434
2.77847
-0.0200219
2.78471
-0.0175004
2.79023
-0.0149792
2.79492
-0.0123379
2.799
-0.00987688
2.80254
-0.00731974
2.80522
-0.00475091
2.80728
-0.00218217
2.80865
0.000386497
2.80934
0.00295506
2.80934
0.00552356
2.80865
0.00809196
2.80728
0.0106481
2.80523
0.0131083
2.80254
0.0157482
2.799
0.0182682
2.79492
0.0207879
2.79024
0.0233076
2.78472
0.0258271
2.77848
0.0282268
2.77176
0.030746
2.7642
0.0331453
2.75604
0.0355444
2.74728
0.0379435
2.73768
0.0402223
2.72748
0.042621
2.71656
0.0448998
2.70516
0.0472984
2.69293
0.049457
2.68021
0.0516153
2.66665
0.0537735
2.65249
0.0559317
2.63773
0.0579695
2.62237
0.0601275
2.60617
0.0620453
2.58961
0.0639631
2.57221
0.0660005
2.55421
0.0677981
2.53573
0.0697154
2.51641
0.0713926
2.49673
0.0731897
2.47621
0.0747467
2.45533
0.0764238
2.43361
0.0779806
2.41141
0.0794172
2.38861
0.080854
2.36521
0.0822903
2.34121
0.0836068
2.31673
0.084803
2.29177
0.0859991
2.26597
0.0870752
2.23981
0.0881513
2.21305
0.0891072
2.18581
0.0899429
2.15798
0.0908986
2.12954
0.0914941
2.10086
0.0926897
2.07122
0.0938851
2.04122
0.0938804
2.01122
0.0938755
1.98122
0.0938706
1.94882
0.0950658
1.91642
0.0950606
1.88522
0.0938554
1.85282
0.0950502
1.81802
0.095045
1.78562
0.0938394
1.75202
0.0950341
1.71602
0.0938284
1.68242
0.0938229
1.64642
0.0938173
1.61042
0.0926114
1.57562
0.0914055
1.53842
0.0913997
1.50122
0.0913939
1.46402
0.0901878
1.42682
0.0877815
1.38962
0.0877756
1.35002
0.0853692
1.31282
0.084163
1.27322
0.0829568
1.23362
0.0817506
1.19402
0.0793441
1.15562
0.079338
1.11362
0.0757313
1.07522
0.0745251
1.03322
0.0721185
0.993624
0.0709123
0.951624
0.0685058
0.910824
0.0660993
0.868824
0.0624926
0.828024
0.0612863
0.784824
0.0576796
0.744025
0.0552732
0.700824
0.0528668
0.658824
0.0492602
0.616825
0.0456536
0.573624
0.0420471
0.530424
0.0396407
0.487224
0.0360338
0.444025
0.0324263
0.402026
0.0288197
0.357626
0.025216
0.314423
0.0216159
0.271213
0.0168164
0.228004
0.0120139
0.184803
0.00840817
0.140411
0.00360277
0.0972186
0.0528155
-0.00479801
0.0575885
-0.00959475
0.101985
-0.0131906
0.143989
-0.0167876
0.188395
-0.0203871
0.231597
-0.0239874
0.274791
-0.0287857
0.319183
-0.0323816
0.361178
-0.0359761
0.405576
-0.0395704
0.447577
-0.0431649
0.490777
-0.0467595
0.533977
-0.0491541
0.575977
-0.0515486
0.619176
-0.0551428
0.662376
-0.0575372
0.703176
-0.0599314
0.746375
-0.0635254
0.788375
-0.0647197
0.829175
-0.0683135
0.872374
-0.0695076
0.911974
-0.0731012
0.955174
-0.0742953
0.994774
-0.076689
1.03557
-0.0778829
1.07637
-0.0802766
1.11597
-0.0814704
1.15677
-0.0826642
1.19517
-0.0850576
1.23597
-0.0862514
1.27437
-0.0862452
1.31277
-0.0886387
1.35237
-0.0886324
1.38957
-0.089826
1.42797
-0.0910196
1.46517
-0.0922134
1.50237
-0.092207
1.53837
-0.0922008
1.57557
-0.0933945
1.61157
-0.094588
1.64757
-0.0933821
1.68117
-0.0945757
1.71717
-0.0945697
1.75197
-0.0945635
1.78557
-0.0945575
1.81797
-0.0945514
1.85277
-0.0933456
1.88398
-0.0945394
1.91758
-0.0933337
1.94758
-0.092128
1.97998
-0.0921222
2.01118
-0.0921162
2.04118
-0.0909108
2.06998
-0.0903051
2.10022
-0.0894597
2.12866
-0.0886142
2.1571
-0.0875288
2.1847
-0.0865637
2.21206
-0.0853584
2.23858
-0.0842732
2.26486
-0.0828282
2.2903
-0.0815034
2.31538
-0.0801785
2.33986
-0.0788536
2.36386
-0.0772889
2.38702
-0.0757243
2.40982
-0.0741598
2.43202
-0.0723554
2.4535
-0.0706712
2.4745
-0.0688669
2.4949
-0.0670627
2.51458
-0.0651388
2.53378
-0.0633348
2.55238
-0.061411
2.57026
-0.0592472
2.58742
-0.0573236
2.60423
-0.0551601
2.62019
-0.0529967
2.63555
-0.0508336
2.65031
-0.0486702
2.66447
-0.0463873
2.67791
-0.0441043
2.69063
-0.0418214
2.70287
-0.0395387
2.71427
-0.037136
2.72507
-0.0347336
2.73527
-0.0323312
2.74487
-0.0298088
2.75351
-0.0274069
2.76179
-0.0248846
2.76923
-0.0224827
2.77607
-0.0199611
2.78219
-0.0174393
2.78771
-0.014918
2.79239
-0.0123964
2.79647
-0.00980324
2.79994
-0.00724615
2.80267
-0.00468891
2.80472
-0.00212004
2.80608
0.000448739
2.80677
0.00301741
2.80677
0.00558599
2.80608
0.0081422
2.80472
0.0106986
2.80267
0.0132908
2.79995
0.0158107
2.79648
0.0183308
2.7924
0.0208504
2.78772
0.0233703
2.7822
0.0257697
2.77608
0.0282888
2.76924
0.0306883
2.7618
0.0332072
2.75352
0.0356063
2.74488
0.0380052
2.73528
0.0404038
2.72509
0.0426825
2.71429
0.0449608
2.70289
0.0472391
2.69065
0.0495175
2.67793
0.0516752
2.66449
0.0538334
2.65033
0.0559912
2.63557
0.0581489
2.62021
0.0600665
2.60425
0.0622237
2.58745
0.0641411
2.57029
0.0659381
2.55241
0.0678553
2.53381
0.0696521
2.51461
0.0714487
2.49493
0.0731256
2.47453
0.074922
2.45353
0.0764784
2.43205
0.0780347
2.40986
0.0795908
2.38706
0.0809066
2.3639
0.0822226
2.3399
0.0835384
2.31542
0.0849742
2.29034
0.0860495
2.2649
0.0872449
2.23862
0.0882003
2.2121
0.0892754
2.18474
0.0901103
2.15714
0.0909455
2.1287
0.09154
2.10026
0.092735
2.07002
0.0927293
2.04122
0.0927237
2.01122
0.0939183
1.98002
0.0951127
1.94762
0.0939065
1.91762
0.0951008
1.88402
0.0950947
1.85283
0.0950886
1.81803
0.0950824
1.78563
0.0950762
1.75203
0.0938695
1.71723
0.0950634
1.68123
0.0938565
1.64763
0.0926499
1.61163
0.0926432
1.57563
0.0926364
1.53843
0.0914296
1.50243
0.0902226
1.46523
0.0890155
1.42803
0.0890085
1.38963
0.0866012
1.35243
0.0865943
1.31283
0.0853871
1.27443
0.0829796
1.23603
0.0817724
1.19523
0.0805651
1.15683
0.0781576
1.11603
0.0769503
1.07643
0.0745427
1.03563
0.0733355
0.994831
0.0697276
0.955232
0.0685204
0.912031
0.0649126
0.872432
0.0637053
0.829232
0.0600976
0.788432
0.0576902
0.746432
0.0552827
0.703232
0.051675
0.662432
0.0492676
0.619232
0.0468603
0.576032
0.0432527
0.534032
0.0396449
0.490832
0.0360366
0.447633
0.0324284
0.405634
0.0288223
0.361232
0.0240199
0.319225