/*--------------------------------*- C++ -*----------------------------------*\
  =========                 |
  \\      /  F ield         | OpenFOAM: The Open Source CFD Toolbox
   \\    /   O peration     | Website:  https://openfoam.org
    \\  /    A nd           | Version:  8
     \\/     M anipulation  |
\*---------------------------------------------------------------------------*/
FoamFile
{
    version     2.0;
    format      ascii;
    class       volScalarField;
    location    "2";
    object      nut;
}
// * * * * * * * * * * * * * * * * * * * * * * * * * * * * * * * * * * * * * //

dimensions      [0 2 -1 0 0 0 0];

internalField   nonuniform List<scalar> 
173000
(
7.68026e-05
8.31639e-05
8.86342e-05
9.32856e-05
9.72817e-05
0.00010073
0.000103717
0.000106309
0.000108559
0.000110511
0.000112201
0.00011366
0.000114919
0.000116009
0.000116963
0.000117816
0.000118605
0.000119364
0.000120114
0.000120854
0.000121556
0.000122183
0.000122703
0.000123089
0.00012332
0.000123389
0.00012337
0.000123269
0.000123089
0.000122833
0.000122501
0.000122095
0.000121617
0.000121067
0.000120446
0.000119755
0.000118996
0.000118168
0.000117272
0.000116308
0.000115276
0.000114177
0.000113011
0.000111776
0.000110474
0.000109103
0.000107664
0.000106154
0.000104573
0.00010292
0.000101193
9.93913e-05
9.75114e-05
9.55513e-05
9.35078e-05
9.13775e-05
8.9156e-05
8.68382e-05
8.44181e-05
8.18883e-05
7.92398e-05
7.64616e-05
7.35395e-05
7.04554e-05
6.71847e-05
6.36924e-05
5.99257e-05
5.5803e-05
5.11979e-05
4.59348e-05
3.98335e-05
3.28804e-05
2.55413e-05
1.88951e-05
1.4e-05
1.09957e-05
9.46606e-06
9.02804e-06
8.95859e-06
8.9635e-06
8.97919e-06
8.99082e-06
8.99911e-06
9.00388e-06
9.00508e-06
9.00268e-06
8.99667e-06
8.98704e-06
8.97382e-06
8.957e-06
8.93663e-06
8.91275e-06
8.88543e-06
8.85474e-06
8.82076e-06
8.78344e-06
8.74233e-06
8.69646e-06
8.64321e-06
8.57134e-06
0.000151959
0.000152552
0.000152881
0.000152914
0.000152703
0.000152268
0.000151624
0.000150782
0.000149748
0.00014853
0.000147137
0.00014558
0.000143881
0.00014207
0.000140202
0.000138363
0.000136686
0.000135357
0.000134596
0.000134574
0.000135289
0.000136527
0.000138044
0.000139698
0.000141415
0.000143175
0.000144906
0.000146605
0.000148273
0.000149911
0.000151521
0.000153102
0.000154657
0.000156185
0.000157688
0.000159166
0.00016062
0.00016205
0.000163457
0.000164841
0.000166203
0.000167544
0.000168862
0.000170159
0.000171435
0.000172689
0.000173923
0.000175137
0.00017633
0.000177503
0.000178657
0.000179791
0.000180905
0.000182001
0.000183077
0.000184135
0.000185174
0.000186194
0.000187197
0.000188182
0.00018915
0.000190101
0.000191035
0.000191955
0.000192861
0.000193756
0.000194645
0.000195533
0.000196431
0.000197351
0.000198305
0.000199294
0.000200299
0.000201274
0.000202163
0.000202939
0.000203604
0.000204183
0.000204722
0.000205239
0.000205733
0.000206205
0.000206652
0.000207074
0.000207472
0.000207844
0.00020819
0.000208511
0.000208806
0.000209075
0.000209318
0.000209536
0.000209727
0.000209893
0.000210034
0.000210149
0.000210237
0.000210295
0.000210314
0.000210264
0.000204401
0.000209123
0.000214638
0.000219978
0.000225175
0.000230235
0.000235172
0.00024
0.000244733
0.000249381
0.000253958
0.000258472
0.000262934
0.000267352
0.000271733
0.00027608
0.000280398
0.000284682
0.000288927
0.000293121
0.000297249
0.000301298
0.000305257
0.000309122
0.000312916
0.000316647
0.00032032
0.000323935
0.000327495
0.000331002
0.000334456
0.000337859
0.000341211
0.000344514
0.000347768
0.000350973
0.000354131
0.00035724
0.000360303
0.000363318
0.000366287
0.00036921
0.000372086
0.000374916
0.000377699
0.000380435
0.000383125
0.000385767
0.000388361
0.000390909
0.00039341
0.000395863
0.000398269
0.000400628
0.000402939
0.000405202
0.000407417
0.000409585
0.000411705
0.000413776
0.000415799
0.000417774
0.000419701
0.000421579
0.00042341
0.000425193
0.00042693
0.000428621
0.000430267
0.000431869
0.000433426
0.000434936
0.000436394
0.000437795
0.000439135
0.000440417
0.000441645
0.000442822
0.000443952
0.000445036
0.000446073
0.00044706
0.000447998
0.000448885
0.000449721
0.000450507
0.00045124
0.000451922
0.000452552
0.00045313
0.000453656
0.00045413
0.000454552
0.000454923
0.000455242
0.000455509
0.000455723
0.000455884
0.00045599
0.00045603
0.000326468
0.000337405
0.000347884
0.000357887
0.000367478
0.000376708
0.000385617
0.000394242
0.000402614
0.000410758
0.000418695
0.000426444
0.00043402
0.000441434
0.000448699
0.000455821
0.000462809
0.000469669
0.000476405
0.000483022
0.000489526
0.000495919
0.000502207
0.000508395
0.000514489
0.000520492
0.000526404
0.000532228
0.000537965
0.000543619
0.000549189
0.000554678
0.000560087
0.000565417
0.000570668
0.000575841
0.000580937
0.000585956
0.000590898
0.000595766
0.000600557
0.000605275
0.000609918
0.000614487
0.000618981
0.0006234
0.000627742
0.000632008
0.000636197
0.000640311
0.000644347
0.000648308
0.000652191
0.000655998
0.000659727
0.00066338
0.000666955
0.000670452
0.000673872
0.000677214
0.000680478
0.000683663
0.000686771
0.0006898
0.000692751
0.000695624
0.00069842
0.000701139
0.000703782
0.000706349
0.000708838
0.000711248
0.000713575
0.000715815
0.000717966
0.000720031
0.000722014
0.000723916
0.000725739
0.000727482
0.000729147
0.000730732
0.000732235
0.000733658
0.000734998
0.000736256
0.000737431
0.000738523
0.000739532
0.000740458
0.000741301
0.00074206
0.000742737
0.00074333
0.00074384
0.000744267
0.00074461
0.000744868
0.000745037
0.000745116
0.000481008
0.000496173
0.000510645
0.000524511
0.000537845
0.000550709
0.000563154
0.000575227
0.000586964
0.000598398
0.000609557
0.000620462
0.000631135
0.00064159
0.000651842
0.000661903
0.000671783
0.000681492
0.000691038
0.000700428
0.000709669
0.000718766
0.000727724
0.00073655
0.000745246
0.000753815
0.000762258
0.000770575
0.000778771
0.000786847
0.000794804
0.000802645
0.000810371
0.000817984
0.000825484
0.000832872
0.000840149
0.000847315
0.000854372
0.00086132
0.000868159
0.00087489
0.000881514
0.000888033
0.000894448
0.000900754
0.000906951
0.000913038
0.000919016
0.000924884
0.000930642
0.000936291
0.000941829
0.000947256
0.000952574
0.00095778
0.000962876
0.000967861
0.000972734
0.000977496
0.000982146
0.000986684
0.00099111
0.000995423
0.000999625
0.00100371
0.00100769
0.00101156
0.00101531
0.00101896
0.00102249
0.0010259
0.0010292
0.00103238
0.00103544
0.00103837
0.00104119
0.00104389
0.00104648
0.00104895
0.00105131
0.00105355
0.00105568
0.00105769
0.00105959
0.00106137
0.00106303
0.00106457
0.00106599
0.0010673
0.00106849
0.00106956
0.00107051
0.00107135
0.00107206
0.00107266
0.00107314
0.0010735
0.00107373
0.00107385
0.000656871
0.000676176
0.000694705
0.000712558
0.000729805
0.000746508
0.00076272
0.000778489
0.000793855
0.000808853
0.000823513
0.000837862
0.000851922
0.000865712
0.000879247
0.000892541
0.000905605
0.000918451
0.000931088
0.000943526
0.00095577
0.000967828
0.000979707
0.000991412
0.00100295
0.00101432
0.00102553
0.00103657
0.00104745
0.00105817
0.00106874
0.00107915
0.00108941
0.00109951
0.00110947
0.00111927
0.00112893
0.00113844
0.0011478
0.00115702
0.00116609
0.00117502
0.0011838
0.00119244
0.00120093
0.00120928
0.00121748
0.00122554
0.00123346
0.00124122
0.00124884
0.00125632
0.00126365
0.00127083
0.00127787
0.00128476
0.00129151
0.0012981
0.00130455
0.00131085
0.00131701
0.00132301
0.00132887
0.00133457
0.00134013
0.00134554
0.0013508
0.00135592
0.00136088
0.00136569
0.00137036
0.00137487
0.00137922
0.00138342
0.00138747
0.00139135
0.00139508
0.00139866
0.00140208
0.00140535
0.00140847
0.00141143
0.00141424
0.0014169
0.0014194
0.00142175
0.00142394
0.00142597
0.00142785
0.00142958
0.00143114
0.00143255
0.00143381
0.00143491
0.00143585
0.00143663
0.00143726
0.00143773
0.00143804
0.0014382
0.000852314
0.000875943
0.00089873
0.000920783
0.000942168
0.000962944
0.000983164
0.00100288
0.00102212
0.00104093
0.00105934
0.00107737
0.00109507
0.00111243
0.0011295
0.00114627
0.00116275
0.00117897
0.00119493
0.00121064
0.00122611
0.00124135
0.00125636
0.00127115
0.00128572
0.00130009
0.00131424
0.00132818
0.00134193
0.00135547
0.00136882
0.00138197
0.00139493
0.0014077
0.00142027
0.00143266
0.00144486
0.00145688
0.00146871
0.00148036
0.00149182
0.00150309
0.00151419
0.0015251
0.00153582
0.00154637
0.00155672
0.0015669
0.00157689
0.0015867
0.00159633
0.00160577
0.00161502
0.00162409
0.00163298
0.00164168
0.00165019
0.00165852
0.00166666
0.00167462
0.00168238
0.00168996
0.00169736
0.00170456
0.00171158
0.00171841
0.00172504
0.00173149
0.00173776
0.00174383
0.00174971
0.00175539
0.00176089
0.00176619
0.00177129
0.00177619
0.0017809
0.00178542
0.00178974
0.00179386
0.0017978
0.00180154
0.00180508
0.00180843
0.00181158
0.00181454
0.0018173
0.00181987
0.00182223
0.00182441
0.00182638
0.00182816
0.00182974
0.00183112
0.0018323
0.00183329
0.00183408
0.00183467
0.00183506
0.00183526
0.00106677
0.00109489
0.00112211
0.00114854
0.00117424
0.00119928
0.00122371
0.00124757
0.00127089
0.00129372
0.00131609
0.00133802
0.00135955
0.00138069
0.00140147
0.00142189
0.00144199
0.00146176
0.00148122
0.00150038
0.00151926
0.00153785
0.00155617
0.00157422
0.00159201
0.00160954
0.00162682
0.00164385
0.00166063
0.00167717
0.00169347
0.00170954
0.00172536
0.00174096
0.00175632
0.00177146
0.00178636
0.00180104
0.00181549
0.00182971
0.00184371
0.00185748
0.00187103
0.00188436
0.00189746
0.00191033
0.00192299
0.00193541
0.00194762
0.00195959
0.00197135
0.00198287
0.00199417
0.00200525
0.0020161
0.00202672
0.00203712
0.00204729
0.00205723
0.00206694
0.00207642
0.00208567
0.0020947
0.00210349
0.00211206
0.00212039
0.00212849
0.00213636
0.002144
0.00215141
0.00215858
0.00216551
0.00217221
0.00217868
0.0021849
0.00219089
0.00219664
0.00220215
0.00220742
0.00221246
0.00221726
0.00222182
0.00222614
0.00223022
0.00223407
0.00223767
0.00224104
0.00224417
0.00224705
0.0022497
0.00225211
0.00225427
0.00225619
0.00225788
0.00225932
0.00226052
0.00226148
0.0022622
0.00226268
0.00226292
0.00129986
0.0013326
0.00136438
0.00139534
0.00142552
0.00145498
0.00148377
0.00151192
0.00153949
0.0015665
0.00159299
0.00161898
0.00164451
0.0016696
0.00169427
0.00171853
0.00174241
0.00176591
0.00178905
0.00181184
0.0018343
0.00185642
0.00187822
0.0018997
0.00192088
0.00194175
0.00196232
0.0019826
0.00200258
0.00202228
0.00204169
0.00206082
0.00207967
0.00209825
0.00211655
0.00213457
0.00215233
0.00216981
0.00218702
0.00220396
0.00222064
0.00223704
0.00225318
0.00226905
0.00228465
0.00229998
0.00231505
0.00232985
0.00234438
0.00235865
0.00237264
0.00238637
0.00239982
0.00241301
0.00242593
0.00243858
0.00245095
0.00246306
0.00247489
0.00248645
0.00249774
0.00250875
0.0025195
0.00252996
0.00254015
0.00255007
0.00255971
0.00256908
0.00257816
0.00258697
0.00259551
0.00260376
0.00261173
0.00261942
0.00262682
0.00263395
0.00264078
0.00264734
0.00265362
0.00265961
0.00266531
0.00267074
0.00267588
0.00268074
0.00268531
0.00268959
0.0026936
0.00269731
0.00270074
0.00270389
0.00270675
0.00270932
0.0027116
0.0027136
0.00271532
0.00271674
0.00271788
0.00271874
0.0027193
0.00271959
0.00155128
0.00158876
0.00162522
0.00166082
0.0016956
0.00172961
0.00176289
0.00179549
0.00182744
0.00185879
0.00188955
0.00191977
0.00194947
0.00197867
0.00200739
0.00203565
0.00206348
0.00209087
0.00211786
0.00214444
0.00217064
0.00219645
0.00222189
0.00224696
0.00227168
0.00229605
0.00232006
0.00234374
0.00236708
0.00239008
0.00241275
0.00243509
0.00245711
0.0024788
0.00250018
0.00252123
0.00254196
0.00256238
0.00258249
0.00260227
0.00262175
0.0026409
0.00265975
0.00267828
0.0026965
0.00271441
0.00273201
0.00274929
0.00276625
0.00278291
0.00279925
0.00281528
0.00283099
0.00284638
0.00286146
0.00287623
0.00289068
0.00290481
0.00291862
0.00293211
0.00294529
0.00295814
0.00297068
0.00298289
0.00299479
0.00300636
0.00301761
0.00302853
0.00303914
0.00304941
0.00305936
0.00306899
0.00307829
0.00308725
0.00309589
0.0031042
0.00311218
0.00311983
0.00312715
0.00313413
0.00314079
0.00314712
0.00315311
0.00315877
0.0031641
0.0031691
0.00317376
0.00317809
0.00318209
0.00318576
0.00318909
0.00319208
0.00319474
0.00319707
0.00319907
0.00320073
0.00320205
0.00320305
0.00320371
0.00320404
0.00182087
0.00186319
0.00190444
0.00194478
0.00198427
0.00202295
0.00206086
0.00209803
0.00213451
0.00217033
0.00220552
0.00224011
0.00227412
0.00230758
0.00234051
0.00237293
0.00240485
0.00243629
0.00246727
0.00249779
0.00252788
0.00255753
0.00258675
0.00261557
0.00264397
0.00267197
0.00269957
0.00272679
0.00275361
0.00278005
0.00280612
0.0028318
0.00285711
0.00288206
0.00290663
0.00293083
0.00295467
0.00297815
0.00300126
0.00302401
0.00304639
0.00306842
0.00309008
0.00311139
0.00313233
0.00315292
0.00317314
0.003193
0.00321251
0.00323165
0.00325043
0.00326885
0.0032869
0.0033046
0.00332193
0.00333889
0.00335549
0.00337173
0.0033876
0.0034031
0.00341824
0.00343301
0.00344741
0.00346144
0.0034751
0.00348839
0.00350131
0.00351386
0.00352604
0.00353784
0.00354926
0.00356031
0.00357099
0.00358129
0.0035912
0.00360074
0.00360991
0.00361869
0.00362709
0.00363511
0.00364275
0.00365001
0.00365689
0.00366339
0.0036695
0.00367524
0.00368059
0.00368555
0.00369014
0.00369434
0.00369816
0.00370159
0.00370464
0.00370731
0.00370959
0.0037115
0.00371302
0.00371415
0.00371491
0.00371529
0.00210854
0.00215579
0.00220194
0.00224715
0.00229146
0.00233493
0.00237758
0.00241946
0.00246059
0.00250102
0.00254076
0.00257985
0.00261831
0.00265617
0.00269344
0.00273014
0.0027663
0.00280193
0.00283703
0.00287164
0.00290574
0.00293936
0.00297251
0.00300519
0.00303741
0.00306918
0.0031005
0.00313137
0.00316181
0.00319182
0.00322139
0.00325054
0.00327927
0.00330758
0.00333546
0.00336293
0.00338999
0.00341663
0.00344286
0.00346867
0.00349408
0.00351907
0.00354366
0.00356783
0.0035916
0.00361496
0.0036379
0.00366044
0.00368257
0.00370428
0.00372559
0.00374648
0.00376697
0.00378704
0.0038067
0.00382594
0.00384477
0.00386318
0.00388118
0.00389877
0.00391593
0.00393268
0.00394901
0.00396492
0.00398041
0.00399548
0.00401012
0.00402435
0.00403815
0.00405153
0.00406448
0.004077
0.0040891
0.00410077
0.00411201
0.00412282
0.0041332
0.00414316
0.00415268
0.00416177
0.00417042
0.00417865
0.00418644
0.0041938
0.00420073
0.00420722
0.00421328
0.0042189
0.00422409
0.00422885
0.00423317
0.00423706
0.00424051
0.00424352
0.00424611
0.00424826
0.00424998
0.00425126
0.00425212
0.00425254
0.00241424
0.00246652
0.00251767
0.00256784
0.00261708
0.00266545
0.00271295
0.00275965
0.00280555
0.00285069
0.00289511
0.00293882
0.00298185
0.00302423
0.00306596
0.00310708
0.0031476
0.00318753
0.00322689
0.00326569
0.00330395
0.00334166
0.00337885
0.00341552
0.00345168
0.00348733
0.00352248
0.00355713
0.0035913
0.00362498
0.00365819
0.00369091
0.00372316
0.00375493
0.00378624
0.00381708
0.00384745
0.00387736
0.00390681
0.00393579
0.00396431
0.00399237
0.00401997
0.0040471
0.00407378
0.0041
0.00412575
0.00415105
0.00417588
0.00420026
0.00422417
0.00424762
0.0042706
0.00429313
0.00431519
0.00433678
0.00435791
0.00437857
0.00439876
0.00441849
0.00443775
0.00445654
0.00447486
0.0044927
0.00451008
0.00452698
0.00454341
0.00455936
0.00457484
0.00458984
0.00460436
0.00461841
0.00463197
0.00464506
0.00465766
0.00466978
0.00468142
0.00469258
0.00470325
0.00471344
0.00472315
0.00473237
0.0047411
0.00474935
0.00475711
0.00476439
0.00477117
0.00477748
0.00478329
0.00478862
0.00479346
0.00479781
0.00480167
0.00480505
0.00480794
0.00481034
0.00481227
0.0048137
0.00481466
0.00481513
0.00273798
0.00279538
0.00285162
0.00290684
0.00296111
0.00301446
0.00306692
0.00311853
0.0031693
0.00321927
0.00326847
0.00331691
0.00336462
0.00341163
0.00345794
0.00350359
0.00354858
0.00359293
0.00363665
0.00367977
0.00372228
0.0037642
0.00380554
0.00384631
0.00388651
0.00392615
0.00396524
0.00400379
0.00404179
0.00407925
0.00411618
0.00415258
0.00418845
0.0042238
0.00425863
0.00429293
0.00432672
0.00435999
0.00439274
0.00442498
0.0044567
0.00448792
0.00451861
0.0045488
0.00457847
0.00460763
0.00463628
0.00466441
0.00469203
0.00471914
0.00474573
0.0047718
0.00479736
0.00482241
0.00484694
0.00487095
0.00489444
0.00491741
0.00493986
0.0049618
0.00498321
0.00500409
0.00502446
0.00504429
0.00506361
0.00508239
0.00510065
0.00511838
0.00513558
0.00515225
0.00516839
0.005184
0.00519908
0.00521361
0.00522762
0.00524109
0.00525402
0.00526642
0.00527827
0.00528959
0.00530037
0.00531062
0.00532032
0.00532948
0.0053381
0.00534618
0.00535372
0.00536071
0.00536717
0.00537308
0.00537845
0.00538328
0.00538757
0.00539132
0.00539453
0.00539719
0.00539932
0.00540092
0.00540198
0.00540251
0.0030798
0.00314241
0.00320381
0.00326418
0.00332356
0.00338198
0.00343949
0.0034961
0.00355183
0.00360673
0.0036608
0.00371407
0.00376656
0.00381829
0.00386928
0.00391956
0.00396912
0.004018
0.00406619
0.00411372
0.00416059
0.00420682
0.00425242
0.00429739
0.00434174
0.00438547
0.0044286
0.00447113
0.00451306
0.0045544
0.00459516
0.00463533
0.00467492
0.00471393
0.00475236
0.00479022
0.00482751
0.00486423
0.00490038
0.00493596
0.00497097
0.00500541
0.00503929
0.0050726
0.00510535
0.00513752
0.00516913
0.00520018
0.00523066
0.00526057
0.00528991
0.00531868
0.00534688
0.00537451
0.00540157
0.00542806
0.00545398
0.00547932
0.00550409
0.00552828
0.0055519
0.00557493
0.00559739
0.00561928
0.00564058
0.00566129
0.00568143
0.00570098
0.00571995
0.00573834
0.00575613
0.00577334
0.00578996
0.00580599
0.00582143
0.00583628
0.00585054
0.00586421
0.00587728
0.00588976
0.00590164
0.00591293
0.00592362
0.00593372
0.00594322
0.00595212
0.00596043
0.00596814
0.00597525
0.00598177
0.00598769
0.00599301
0.00599773
0.00600186
0.00600539
0.00600833
0.00601067
0.00601243
0.00601359
0.00601417
0.00343976
0.00350765
0.00357431
0.0036399
0.00370446
0.00376805
0.00383068
0.00389237
0.00395316
0.00401306
0.00407209
0.00413028
0.00418764
0.00424419
0.00429996
0.00435495
0.00440918
0.00446267
0.00451543
0.00456747
0.0046188
0.00466944
0.00471938
0.00476864
0.00481723
0.00486515
0.00491241
0.00495901
0.00500497
0.00505028
0.00509494
0.00513897
0.00518236
0.00522512
0.00526724
0.00530874
0.00534961
0.00538986
0.00542948
0.00546848
0.00550686
0.00554461
0.00558174
0.00561825
0.00565414
0.00568941
0.00572405
0.00575808
0.00579148
0.00582426
0.00585641
0.00588794
0.00591884
0.00594912
0.00597878
0.0060078
0.0060362
0.00606396
0.0060911
0.00611761
0.00614348
0.00616872
0.00619332
0.00621729
0.00624063
0.00626332
0.00628538
0.00630679
0.00632757
0.00634771
0.0063672
0.00638604
0.00640425
0.0064218
0.00643871
0.00645497
0.00647059
0.00648555
0.00649986
0.00651353
0.00652654
0.0065389
0.00655061
0.00656166
0.00657206
0.00658181
0.0065909
0.00659934
0.00660713
0.00661426
0.00662073
0.00662656
0.00663173
0.00663624
0.00664011
0.00664332
0.00664589
0.00664781
0.00664908
0.00664972
0.00381796
0.00389121
0.0039632
0.00403407
0.00410391
0.00417272
0.00424055
0.00430741
0.00437333
0.00443831
0.00450238
0.00456557
0.00462788
0.00468934
0.00474996
0.00480976
0.00486874
0.00492694
0.00498434
0.00504098
0.00509685
0.00515197
0.00520635
0.00525999
0.0053129
0.00536509
0.00541656
0.00546733
0.00551739
0.00556674
0.0056154
0.00566336
0.00571064
0.00575722
0.00580312
0.00584833
0.00589286
0.00593671
0.00597988
0.00602237
0.00606418
0.00610531
0.00614576
0.00618554
0.00622464
0.00626306
0.0063008
0.00633787
0.00637425
0.00640996
0.00644499
0.00647933
0.006513
0.00654598
0.00657827
0.00660989
0.00664082
0.00667106
0.00670061
0.00672948
0.00675766
0.00678514
0.00681194
0.00683804
0.00686345
0.00688816
0.00691218
0.00693549
0.00695812
0.00698004
0.00700126
0.00702178
0.00704159
0.00706071
0.00707911
0.00709682
0.00711381
0.0071301
0.00714568
0.00716056
0.00717472
0.00718817
0.00720091
0.00721295
0.00722427
0.00723487
0.00724477
0.00725395
0.00726243
0.00727018
0.00727723
0.00728357
0.00728919
0.0072941
0.00729831
0.00730181
0.0073046
0.00730668
0.00730807
0.00730876
0.00421451
0.00429318
0.00437056
0.0044468
0.00452197
0.00459609
0.00466919
0.00474128
0.00481239
0.00488254
0.00495173
0.00501998
0.00508732
0.00515376
0.00521931
0.00528399
0.00534781
0.00541078
0.00547291
0.00553422
0.00559471
0.0056544
0.00571329
0.00577138
0.0058287
0.00588523
0.005941
0.005996
0.00605023
0.00610371
0.00615644
0.00620841
0.00625964
0.00631012
0.00635986
0.00640885
0.00645711
0.00650463
0.00655141
0.00659746
0.00664277
0.00668734
0.00673118
0.00677429
0.00681666
0.00685829
0.00689919
0.00693935
0.00697878
0.00701747
0.00705542
0.00709263
0.00712911
0.00716484
0.00719984
0.00723409
0.00726759
0.00730036
0.00733237
0.00736364
0.00739417
0.00742394
0.00745297
0.00748124
0.00750876
0.00753553
0.00756154
0.0075868
0.0076113
0.00763504
0.00765802
0.00768024
0.0077017
0.0077224
0.00774234
0.00776151
0.00777991
0.00779755
0.00781442
0.00783052
0.00784586
0.00786043
0.00787422
0.00788725
0.0078995
0.00791099
0.0079217
0.00793165
0.00794082
0.00794922
0.00795684
0.0079637
0.00796979
0.00797511
0.00797966
0.00798345
0.00798647
0.00798873
0.00799023
0.00799098
0.00462951
0.00471367
0.00479652
0.00487819
0.00495876
0.00503825
0.00511668
0.00519407
0.00527045
0.00534581
0.00542018
0.00549358
0.00556601
0.0056375
0.00570805
0.00577768
0.0058464
0.00591422
0.00598115
0.0060472
0.00611238
0.00617671
0.00624018
0.0063028
0.00636459
0.00642554
0.00648567
0.00654497
0.00660345
0.00666112
0.00671798
0.00677403
0.00682928
0.00688372
0.00693736
0.00699021
0.00704225
0.0070935
0.00714396
0.00719362
0.00724249
0.00729056
0.00733785
0.00738433
0.00743003
0.00747493
0.00751904
0.00756235
0.00760487
0.0076466
0.00768752
0.00772765
0.00776698
0.00780552
0.00784325
0.00788018
0.00791631
0.00795164
0.00798616
0.00801987
0.00805278
0.00808488
0.00811617
0.00814665
0.00817632
0.00820518
0.00823322
0.00826045
0.00828686
0.00831245
0.00833722
0.00836117
0.0083843
0.00840661
0.0084281
0.00844876
0.0084686
0.00848761
0.00850579
0.00852315
0.00853967
0.00855537
0.00857024
0.00858428
0.00859748
0.00860986
0.0086214
0.00863212
0.008642
0.00865105
0.00865927
0.00866666
0.00867322
0.00867895
0.00868386
0.00868794
0.00869119
0.00869363
0.00869524
0.00869605
0.0050631
0.00515281
0.00524118
0.00532835
0.00541438
0.00549929
0.00558312
0.00566588
0.00574757
0.00582822
0.00590784
0.00598643
0.00606402
0.00614062
0.00621623
0.00629087
0.00636456
0.00643729
0.00650908
0.00657994
0.00664988
0.0067189
0.00678702
0.00685423
0.00692055
0.00698599
0.00705053
0.0071142
0.00717699
0.00723891
0.00729997
0.00736015
0.00741948
0.00747794
0.00753555
0.0075923
0.00764819
0.00770323
0.00775741
0.00781075
0.00786323
0.00791485
0.00796563
0.00801555
0.00806462
0.00811284
0.00816021
0.00820672
0.00825238
0.00829718
0.00834112
0.00838421
0.00842645
0.00846782
0.00850833
0.00854798
0.00858677
0.0086247
0.00866176
0.00869796
0.00873329
0.00876775
0.00880134
0.00883406
0.00886591
0.00889688
0.00892698
0.00895621
0.00898456
0.00901203
0.00903861
0.00906432
0.00908915
0.00911309
0.00913615
0.00915833
0.00917962
0.00920002
0.00921953
0.00923816
0.00925589
0.00927274
0.00928869
0.00930376
0.00931793
0.00933121
0.0093436
0.0093551
0.0093657
0.00937541
0.00938423
0.00939216
0.0093992
0.00940535
0.00941062
0.00941499
0.00941849
0.0094211
0.00942284
0.0094237
0.0055154
0.00561073
0.00570468
0.0057974
0.00588895
0.00597935
0.00606863
0.00615679
0.00624387
0.00632985
0.00641477
0.00649862
0.00658142
0.00666318
0.00674392
0.00682363
0.00690233
0.00698003
0.00705674
0.00713247
0.00720722
0.007281
0.00735382
0.00742568
0.00749659
0.00756656
0.00763558
0.00770367
0.00777083
0.00783706
0.00790236
0.00796674
0.00803019
0.00809273
0.00815435
0.00821506
0.00827485
0.00833372
0.00839169
0.00844874
0.00850488
0.0085601
0.00861442
0.00866782
0.00872031
0.00877189
0.00882256
0.00887231
0.00892115
0.00896907
0.00901607
0.00906216
0.00910733
0.00915158
0.00919491
0.00923732
0.00927881
0.00931937
0.009359
0.00939771
0.00943549
0.00947235
0.00950827
0.00954326
0.00957731
0.00961043
0.00964262
0.00967387
0.00970418
0.00973355
0.00976198
0.00978946
0.00981601
0.00984161
0.00986626
0.00988997
0.00991273
0.00993454
0.0099554
0.00997531
0.00999427
0.0100123
0.0100293
0.0100454
0.0100606
0.0100748
0.010088
0.0101003
0.0101117
0.010122
0.0101315
0.0101399
0.0101475
0.010154
0.0101597
0.0101644
0.0101681
0.0101709
0.0101727
0.0101737
0.00598656
0.00608755
0.00618715
0.00628547
0.00638258
0.00647852
0.0065733
0.00666693
0.00675944
0.00685081
0.00694107
0.00703023
0.0071183
0.00720527
0.00729117
0.00737601
0.00745978
0.0075425
0.00762418
0.00770482
0.00778443
0.00786302
0.00794059
0.00801715
0.00809271
0.00816726
0.00824081
0.00831337
0.00838494
0.00845553
0.00852512
0.00859374
0.00866138
0.00872803
0.00879372
0.00885842
0.00892215
0.00898491
0.0090467
0.00910751
0.00916735
0.00922622
0.00928412
0.00934104
0.00939699
0.00945197
0.00950597
0.009559
0.00961106
0.00966213
0.00971223
0.00976135
0.00980949
0.00985666
0.00990284
0.00994803
0.00999224
0.0100355
0.0100777
0.010119
0.0101592
0.0101985
0.0102368
0.0102741
0.0103103
0.0103456
0.0103799
0.0104132
0.0104455
0.0104768
0.0105071
0.0105364
0.0105647
0.0105919
0.0106182
0.0106435
0.0106677
0.0106909
0.0107132
0.0107344
0.0107546
0.0107738
0.0107919
0.0108091
0.0108252
0.0108403
0.0108545
0.0108675
0.0108796
0.0108907
0.0109007
0.0109098
0.0109178
0.0109248
0.0109308
0.0109358
0.0109397
0.0109427
0.0109447
0.0109457
0.00647669
0.00658341
0.00668869
0.00679267
0.00689541
0.00699693
0.00709726
0.0071964
0.00729438
0.00739119
0.00748684
0.00758135
0.00767472
0.00776696
0.00785807
0.00794807
0.00803696
0.00812475
0.00821144
0.00829704
0.00838156
0.008465
0.00854737
0.00862867
0.00870891
0.00878809
0.00886622
0.00894329
0.00901932
0.0090943
0.00916824
0.00924113
0.00931299
0.00938381
0.00945359
0.00952234
0.00959005
0.00965673
0.00972238
0.00978699
0.00985057
0.00991311
0.00997463
0.0100351
0.0100946
0.010153
0.0102103
0.0102667
0.010322
0.0103762
0.0104295
0.0104817
0.0105328
0.0105829
0.010632
0.01068
0.0107269
0.0107728
0.0108177
0.0108615
0.0109043
0.010946
0.0109867
0.0110263
0.0110648
0.0111023
0.0111387
0.0111741
0.0112084
0.0112416
0.0112738
0.0113049
0.0113349
0.0113639
0.0113918
0.0114186
0.0114443
0.011469
0.0114926
0.0115151
0.0115366
0.0115569
0.0115762
0.0115945
0.0116116
0.0116277
0.0116426
0.0116565
0.0116694
0.0116811
0.0116918
0.0117014
0.0117099
0.0117173
0.0117237
0.011729
0.0117332
0.0117364
0.0117385
0.0117395
0.00698595
0.00709843
0.00720945
0.00731913
0.00742753
0.00753469
0.00764061
0.00774531
0.0078488
0.00795108
0.00805217
0.00815207
0.00825079
0.00834832
0.00844469
0.00853989
0.00863393
0.00872682
0.00881857
0.00890917
0.00899863
0.00908697
0.00917417
0.00926025
0.00934522
0.00942907
0.0095118
0.00959343
0.00967395
0.00975336
0.00983167
0.00990889
0.009985
0.01006
0.0101339
0.0102068
0.0102785
0.0103491
0.0104187
0.0104871
0.0105545
0.0106207
0.0106859
0.0107499
0.0108129
0.0108748
0.0109356
0.0109952
0.0110538
0.0111113
0.0111677
0.0112229
0.0112771
0.0113302
0.0113821
0.011433
0.0114827
0.0115313
0.0115789
0.0116253
0.0116705
0.0117147
0.0117578
0.0117997
0.0118405
0.0118802
0.0119188
0.0119562
0.0119925
0.0120277
0.0120618
0.0120947
0.0121265
0.0121572
0.0121867
0.0122151
0.0122424
0.0122685
0.0122935
0.0123173
0.0123401
0.0123616
0.0123821
0.0124013
0.0124195
0.0124365
0.0124523
0.0124671
0.0124806
0.0124931
0.0125044
0.0125145
0.0125235
0.0125314
0.0125382
0.0125438
0.0125483
0.0125516
0.0125538
0.0125549
0.00751444
0.00763275
0.00774955
0.00786498
0.00797908
0.0080919
0.00820345
0.00831375
0.00842279
0.00853059
0.00863715
0.00874247
0.00884657
0.00894944
0.00905109
0.00915153
0.00925076
0.00934879
0.00944562
0.00954125
0.0096357
0.00972895
0.00982103
0.00991192
0.0100016
0.0100902
0.0101776
0.0102638
0.0103488
0.0104327
0.0105154
0.010597
0.0106774
0.0107566
0.0108347
0.0109116
0.0109874
0.011062
0.0111355
0.0112078
0.0112789
0.0113489
0.0114178
0.0114854
0.0115519
0.0116173
0.0116815
0.0117445
0.0118064
0.0118671
0.0119267
0.0119851
0.0120423
0.0120983
0.0121532
0.0122069
0.0122594
0.0123108
0.012361
0.01241
0.0124578
0.0125045
0.0125499
0.0125942
0.0126373
0.0126793
0.01272
0.0127595
0.0127979
0.012835
0.012871
0.0129058
0.0129393
0.0129717
0.0130029
0.0130329
0.0130617
0.0130893
0.0131156
0.0131408
0.0131648
0.0131876
0.0132091
0.0132295
0.0132487
0.0132666
0.0132834
0.0132989
0.0133133
0.0133264
0.0133383
0.013349
0.0133586
0.0133669
0.013374
0.0133799
0.0133846
0.0133882
0.0133905
0.0133917
0.00806231
0.00818647
0.0083091
0.00843031
0.00855016
0.00866869
0.00878591
0.00890183
0.00901645
0.00912979
0.00924185
0.00935263
0.00946214
0.00957038
0.00967735
0.00978305
0.0098875
0.00999069
0.0100926
0.0101933
0.0102928
0.010391
0.010488
0.0105837
0.0106782
0.0107715
0.0108635
0.0109543
0.0110439
0.0111323
0.0112194
0.0113054
0.0113901
0.0114736
0.0115559
0.0116369
0.0117167
0.0117954
0.0118728
0.011949
0.0120239
0.0120977
0.0121702
0.0122415
0.0123116
0.0123805
0.0124481
0.0125145
0.0125797
0.0126437
0.0127064
0.0127679
0.0128282
0.0128873
0.0129451
0.0130017
0.013057
0.0131111
0.013164
0.0132156
0.013266
0.0133151
0.013363
0.0134097
0.0134551
0.0134992
0.0135421
0.0135838
0.0136242
0.0136633
0.0137012
0.0137378
0.0137732
0.0138073
0.0138401
0.0138717
0.013902
0.0139311
0.0139588
0.0139854
0.0140106
0.0140346
0.0140573
0.0140788
0.0140989
0.0141178
0.0141355
0.0141519
0.014167
0.0141808
0.0141933
0.0142046
0.0142147
0.0142234
0.0142309
0.0142372
0.0142422
0.0142459
0.0142484
0.0142496
0.00862967
0.00875973
0.00888822
0.00901525
0.00914088
0.00926514
0.00938806
0.00950963
0.00962988
0.00974879
0.00986638
0.00998264
0.0100976
0.0102112
0.0103235
0.0104345
0.0105442
0.0106526
0.0107597
0.0108654
0.0109699
0.0110731
0.011175
0.0112756
0.0113749
0.0114729
0.0115696
0.0116651
0.0117593
0.0118521
0.0119437
0.0120341
0.0121231
0.0122109
0.0122973
0.0123826
0.0124665
0.0125491
0.0126305
0.0127106
0.0127894
0.0128669
0.0129431
0.0130181
0.0130918
0.0131641
0.0132352
0.0133051
0.0133736
0.0134408
0.0135068
0.0135714
0.0136348
0.0136968
0.0137576
0.013817
0.0138752
0.0139321
0.0139876
0.0140419
0.0140948
0.0141465
0.0141968
0.0142458
0.0142935
0.0143399
0.014385
0.0144288
0.0144712
0.0145123
0.0145521
0.0145906
0.0146278
0.0146636
0.0146981
0.0147313
0.0147632
0.0147937
0.0148229
0.0148507
0.0148773
0.0149025