/*--------------------------------*- C++ -*----------------------------------*\
  =========                 |
  \\      /  F ield         | OpenFOAM: The Open Source CFD Toolbox
   \\    /   O peration     | Website:  https://openfoam.org
    \\  /    A nd           | Version:  8
     \\/     M anipulation  |
\*---------------------------------------------------------------------------*/
FoamFile
{
    version     2.0;
    format      ascii;
    class       volScalarField;
    location    "2";
    object      p;
}
// * * * * * * * * * * * * * * * * * * * * * * * * * * * * * * * * * * * * * //

dimensions      [0 2 -2 0 0 0 0];

internalField   nonuniform List<scalar> 
277560
(
-0.393968
-0.394152
-0.394624
-0.395329
-0.396241
-0.397355
-0.398662
-0.400151
-0.40181
-0.403627
-0.405594
-0.407699
-0.409935
-0.412291
-0.414758
-0.417329
-0.419996
-0.42275
-0.425585
-0.428492
-0.431467
-0.434501
-0.437589
-0.440726
-0.443904
-0.447121
-0.450369
-0.453645
-0.456943
-0.46026
-0.463592
-0.466935
-0.470284
-0.473637
-0.476991
-0.480342
-0.483687
-0.487024
-0.490351
-0.493665
-0.496963
-0.500245
-0.503507
-0.506748
-0.509967
-0.513162
-0.516331
-0.519474
-0.522589
-0.525674
-0.52873
-0.531756
-0.534749
-0.53771
-0.540639
-0.543533
-0.546394
-0.54922
-0.552012
-0.554768
-0.557489
-0.560175
-0.562824
-0.565438
-0.568016
-0.570558
-0.573064
-0.575535
-0.577969
-0.580368
-0.582731
-0.585059
-0.587352
-0.58961
-0.591833
-0.594021
-0.596176
-0.598296
-0.600383
-0.602436
-0.604457
-0.606445
-0.6084
-0.610324
-0.612216
-0.614077
-0.615907
-0.617707
-0.619476
-0.621216
-0.622927
-0.624609
-0.626262
-0.627887
-0.629485
-0.631055
-0.632599
-0.634115
-0.635606
-0.637072
-0.638511
-0.639926
-0.641317
-0.642683
-0.644026
-0.645345
-0.646642
-0.647916
-0.649167
-0.650397
-0.651605
-0.652793
-0.653959
-0.655105
-0.656231
-0.657338
-0.658425
-0.659493
-0.660543
-0.661573
-0.393788
-0.393965
-0.39443
-0.395134
-0.396044
-0.397156
-0.398463
-0.399951
-0.401608
-0.403425
-0.405391
-0.407496
-0.409731
-0.412087
-0.414555
-0.417126
-0.419793
-0.422547
-0.425383
-0.428291
-0.431266
-0.434301
-0.43739
-0.440528
-0.443708
-0.446925
-0.450175
-0.453452
-0.456753
-0.460072
-0.463405
-0.46675
-0.470101
-0.473456
-0.476812
-0.480165
-0.483513
-0.486853
-0.490182
-0.493498
-0.496799
-0.500083
-0.503348
-0.506592
-0.509814
-0.513011
-0.516184
-0.519329
-0.522447
-0.525536
-0.528595
-0.531623
-0.53462
-0.537584
-0.540515
-0.543413
-0.546277
-0.549107
-0.551901
-0.554661
-0.557385
-0.560073
-0.562726
-0.565343
-0.567924
-0.57047
-0.572979
-0.575452
-0.57789
-0.580292
-0.582658
-0.584989
-0.587285
-0.589546
-0.591772
-0.593964
-0.596121
-0.598245
-0.600334
-0.602391
-0.604414
-0.606405
-0.608364
-0.61029
-0.612185
-0.614049
-0.615882
-0.617684
-0.619457
-0.621199
-0.622913
-0.624597
-0.626253
-0.627881
-0.629481
-0.631054
-0.6326
-0.634119
-0.635612
-0.63708
-0.638522
-0.63994
-0.641332
-0.642701
-0.644046
-0.645368
-0.646666
-0.647942
-0.649196
-0.650428
-0.651638
-0.652827
-0.653995
-0.655143
-0.656271
-0.65738
-0.658468
-0.659538
-0.660589
-0.661621
-0.393457
-0.393634
-0.3941
-0.394801
-0.395711
-0.396822
-0.398127
-0.399614
-0.401271
-0.403087
-0.405053
-0.407158
-0.409393
-0.41175
-0.414218
-0.41679
-0.419458
-0.422214
-0.425051
-0.427961
-0.430938
-0.433975
-0.437067
-0.440207
-0.44339
-0.44661
-0.449863
-0.453144
-0.456447
-0.45977
-0.463107
-0.466455
-0.469811
-0.47317
-0.47653
-0.479887
-0.48324
-0.486584
-0.489918
-0.493239
-0.496544
-0.499833
-0.503103
-0.506352
-0.509579
-0.512781
-0.515959
-0.519109
-0.522232
-0.525326
-0.52839
-0.531424
-0.534426
-0.537395
-0.540332
-0.543235
-0.546104
-0.548938
-0.551738
-0.554503
-0.557232
-0.559926
-0.562584
-0.565206
-0.567792
-0.570342
-0.572857
-0.575335
-0.577777
-0.580184
-0.582555
-0.584891
-0.587192
-0.589457
-0.591688
-0.593884
-0.596046
-0.598174
-0.600268
-0.602329
-0.604357
-0.606352
-0.608314
-0.610245
-0.612144
-0.614012
-0.615848
-0.617655
-0.619431
-0.621177
-0.622894
-0.624582
-0.626242
-0.627873
-0.629477
-0.631053
-0.632603
-0.634125
-0.635622
-0.637093
-0.638538
-0.639959
-0.641355
-0.642727
-0.644074
-0.645399
-0.646701
-0.647979
-0.649236
-0.650471
-0.651684
-0.652876
-0.654047
-0.655198
-0.656328
-0.657439
-0.658531
-0.659603
-0.660657
-0.661691
-0.39297
-0.393143
-0.393604
-0.394302
-0.395207
-0.396316
-0.397618
-0.399103
-0.400759
-0.402574
-0.404539
-0.406643
-0.408879
-0.411235
-0.413704
-0.416277
-0.418946
-0.421704
-0.424542
-0.427455
-0.430434
-0.433474
-0.436569
-0.439712
-0.442899
-0.446123
-0.44938
-0.452665
-0.455973
-0.459301
-0.462643
-0.465997
-0.469358
-0.472723
-0.476088
-0.479452
-0.48281
-0.486161
-0.489501
-0.492829
-0.496142
-0.499437
-0.502714
-0.50597
-0.509204
-0.512414
-0.515599
-0.518757
-0.521888
-0.524989
-0.528061
-0.531102
-0.534112
-0.537089
-0.540034
-0.542944
-0.545821
-0.548664
-0.551472
-0.554244
-0.556981
-0.559683
-0.562349
-0.564978
-0.567572
-0.57013
-0.572652
-0.575138
-0.577588
-0.580003
-0.582382
-0.584725
-0.587033
-0.589306
-0.591544
-0.593747
-0.595916
-0.598052
-0.600153
-0.602221
-0.604256
-0.606258
-0.608227
-0.610165
-0.61207
-0.613945
-0.615788
-0.617601
-0.619384
-0.621137
-0.62286
-0.624554
-0.62622
-0.627858
-0.629467
-0.63105
-0.632605
-0.634133
-0.635636
-0.637112
-0.638563
-0.639989
-0.641391
-0.642768
-0.644121
-0.645451
-0.646757
-0.648041
-0.649302
-0.650542
-0.65176
-0.652957
-0.654132
-0.655288
-0.656423
-0.657538
-0.658634
-0.65971
-0.660768
-0.661806
-0.392329
-0.392496
-0.392952
-0.393646
-0.394548
-0.395653
-0.396953
-0.398435
-0.400089
-0.401902
-0.403866
-0.405971
-0.408206
-0.410563
-0.413033
-0.415607
-0.418278
-0.421038
-0.423879
-0.426795
-0.429778
-0.432822
-0.435921
-0.439069
-0.44226
-0.44549
-0.448753
-0.452043
-0.455358
-0.458692
-0.462041
-0.465402
-0.468771
-0.472143
-0.475517
-0.478889
-0.482256
-0.485615
-0.488964
-0.492301
-0.495623
-0.498928
-0.502214
-0.50548
-0.508723
-0.511943
-0.515138
-0.518306
-0.521447
-0.524558
-0.52764
-0.530692
-0.533712
-0.536699
-0.539654
-0.542575
-0.545463
-0.548316
-0.551134
-0.553916
-0.556664
-0.559376
-0.562052
-0.564692
-0.567296
-0.569864
-0.572396
-0.574892
-0.577352
-0.579776
-0.582165
-0.584518
-0.586835
-0.589118
-0.591365
-0.593578
-0.595757
-0.597901
-0.600011
-0.602088
-0.604132
-0.606143
-0.608121
-0.610067
-0.611981
-0.613864
-0.615716
-0.617537
-0.619328
-0.621088
-0.62282
-0.624522
-0.626195
-0.62784
-0.629457
-0.631047
-0.632609
-0.634145
-0.635654
-0.637138
-0.638596
-0.640028
-0.641436
-0.64282
-0.64418
-0.645516
-0.646829
-0.648119
-0.649386
-0.650632
-0.651856
-0.653058
-0.65424
-0.655401
-0.656541
-0.657662
-0.658763
-0.659845
-0.660908
-0.661951
-0.391541
-0.391701
-0.392151
-0.392839
-0.393736
-0.394836
-0.396133
-0.397612
-0.399263
-0.401075
-0.403038
-0.405141
-0.407377
-0.409734
-0.412205
-0.414781
-0.417454
-0.420217
-0.423061
-0.42598
-0.428967
-0.432016
-0.43512
-0.438274
-0.441471
-0.444707
-0.447977
-0.451275
-0.454597
-0.457939
-0.461297
-0.464666
-0.468044
-0.471426
-0.474809
-0.478191
-0.481568
-0.484938
-0.488298
-0.491645
-0.494978
-0.498295
-0.501592
-0.50487
-0.508125
-0.511357
-0.514564
-0.517744
-0.520897
-0.524021
-0.527116
-0.53018
-0.533212
-0.536212
-0.53918
-0.542114
-0.545013
-0.547879
-0.55071
-0.553505
-0.556265
-0.55899
-0.561678
-0.564331
-0.566948
-0.569528
-0.572072
-0.574581
-0.577053
-0.57949
-0.58189
-0.584255
-0.586585
-0.588879
-0.591138
-0.593363
-0.595553
-0.597709
-0.59983
-0.601918
-0.603973
-0.605995
-0.607984
-0.609941
-0.611866
-0.613759
-0.615622
-0.617453
-0.619254
-0.621025
-0.622766
-0.624478
-0.626161
-0.627816
-0.629442
-0.631041
-0.632613
-0.634158
-0.635676
-0.637168
-0.638635
-0.640076
-0.641493
-0.642885
-0.644252
-0.645597
-0.646918
-0.648215
-0.649491
-0.650744
-0.651975
-0.653185
-0.654374
-0.655542
-0.65669
-0.657817
-0.658925
-0.660014
-0.661084
-0.662133
-0.390608
-0.39076
-0.391203
-0.391884
-0.392776
-0.393871
-0.395163
-0.396639
-0.398287
-0.400097
-0.402058
-0.404161
-0.406396
-0.408754
-0.411226
-0.413804
-0.41648
-0.419245
-0.422093
-0.425017
-0.428009
-0.431063
-0.434173
-0.437333
-0.440538
-0.443782
-0.447059
-0.450366
-0.453697
-0.457049
-0.460417
-0.463796
-0.467185
-0.470578
-0.473973
-0.477366
-0.480755
-0.484138
-0.48751
-0.490871
-0.494217
-0.497547
-0.500858
-0.504149
-0.507419
-0.510665
-0.513886
-0.517081
-0.520248
-0.523387
-0.526496
-0.529575
-0.532623
-0.535638
-0.53862
-0.541569
-0.544484
-0.547365
-0.550211
-0.553021
-0.555796
-0.558536
-0.561239
-0.563907
-0.566538
-0.569134
-0.571693
-0.574216
-0.576703
-0.579153
-0.581568
-0.583948
-0.586291
-0.5886
-0.590873
-0.593111
-0.595315
-0.597484
-0.599619
-0.60172
-0.603788
-0.605823
-0.607825
-0.609795
-0.611732
-0.613638
-0.615512
-0.617356
-0.619169
-0.620951
-0.622704
-0.624428
-0.626122
-0.627788
-0.629425
-0.631035
-0.632618
-0.634173
-0.635702
-0.637204
-0.638681
-0.640133
-0.641559
-0.642961
-0.644338
-0.645692
-0.647022
-0.648329
-0.649614
-0.650876
-0.652116
-0.653334
-0.654532
-0.655708
-0.656864
-0.658
-0.659116
-0.660212
-0.66129
-0.662347
-0.389536
-0.389678
-0.390113
-0.390787
-0.391671
-0.392761
-0.394048
-0.39552
-0.397165
-0.398972
-0.400931
-0.403033
-0.405268
-0.407627
-0.4101
-0.41268
-0.415359
-0.418128
-0.42098
-0.423908
-0.426906
-0.429966
-0.433083
-0.436251
-0.439464
-0.442716
-0.446003
-0.44932
-0.452661
-0.456024
-0.459403
-0.462794
-0.466195
-0.469601
-0.473009
-0.476416
-0.479819
-0.483215
-0.486602
-0.489978
-0.493339
-0.496684
-0.500011
-0.503319
-0.506604
-0.509866
-0.513104
-0.516315
-0.5195
-0.522655
-0.525782
-0.528877
-0.531942
-0.534974
-0.537974
-0.54094
-0.543873
-0.54677
-0.549633
-0.552461
-0.555254
-0.55801
-0.560731
-0.563416
-0.566064
-0.568676
-0.571252
-0.573792
-0.576296
-0.578763
-0.581194
-0.58359
-0.58595
-0.588274
-0.590564
-0.592818
-0.595037
-0.597222
-0.599372
-0.601489
-0.603572
-0.605622
-0.607639
-0.609623
-0.611575
-0.613495
-0.615384
-0.617241
-0.619068
-0.620864
-0.62263
-0.624367
-0.626075
-0.627754
-0.629404
-0.631027
-0.632622
-0.634189
-0.63573
-0.637245
-0.638734
-0.640197
-0.641634
-0.643048
-0.644436
-0.645801
-0.647142
-0.64846
-0.649755
-0.651027
-0.652277
-0.653506
-0.654713
-0.655899
-0.657065
-0.65821
-0.659335
-0.660441
-0.661527
-0.662593
-0.388329
-0.38846
-0.388885
-0.389551
-0.390428
-0.391511
-0.392792
-0.394259
-0.3959
-0.397705
-0.399662
-0.401763
-0.403998
-0.406357
-0.408832
-0.411414
-0.414095
-0.416868
-0.419725
-0.422659
-0.425663
-0.42873
-0.431855
-0.435031
-0.438253
-0.441515
-0.444812
-0.44814
-0.451493
-0.454868
-0.458259
-0.461664
-0.465079
-0.468499
-0.471921
-0.475344
-0.478762
-0.482175
-0.485578
-0.48897
-0.492349
-0.495711
-0.499056
-0.502381
-0.505684
-0.508965
-0.512221
-0.515451
-0.518654
-0.521829
-0.524975
-0.52809
-0.531173
-0.534225
-0.537244
-0.54023
-0.543182
-0.546099
-0.548982
-0.551829
-0.554641
-0.557417
-0.560157
-0.562861
-0.565529
-0.56816
-0.570755
-0.573314
-0.575837
-0.578323
-0.580773
-0.583187
-0.585565
-0.587908
-0.590215
-0.592487
-0.594724
-0.596927
-0.599095
-0.601228
-0.603329
-0.605395
-0.607429
-0.609429
-0.611398
-0.613334
-0.615239
-0.617112
-0.618954
-0.620766
-0.622548
-0.624299
-0.626022
-0.627715
-0.62938
-0.631017
-0.632626
-0.634208
-0.635762
-0.63729
-0.638792
-0.640268
-0.641719
-0.643145
-0.644546
-0.645923
-0.647277
-0.648606
-0.649913
-0.651197
-0.652459
-0.653699
-0.654917
-0.656114
-0.657291
-0.658447
-0.659582
-0.660698
-0.661795
-0.66287
-0.38699
-0.38711
-0.387524
-0.38818
-0.389049
-0.390125
-0.3914
-0.392861
-0.394498
-0.396299
-0.398254
-0.400354
-0.402588
-0.404948
-0.407424
-0.410009
-0.412694
-0.415471
-0.418333
-0.421273
-0.424283
-0.427358
-0.430491
-0.433677
-0.436908
-0.440181
-0.44349
-0.446829
-0.450196
-0.453584
-0.456989
-0.460409
-0.463838
-0.467274
-0.470713
-0.474152
-0.477588
-0.481018
-0.48444
-0.48785
-0.491247
-0.494629
-0.497993
-0.501338
-0.504662
-0.507963
-0.511239
-0.51449
-0.517714
-0.52091
-0.524077
-0.527213
-0.530318
-0.533391
-0.536432
-0.539439
-0.542413
-0.545352
-0.548256
-0.551125
-0.553959
-0.556756
-0.559518
-0.562243
-0.564932
-0.567585
-0.570201
-0.572781
-0.575324
-0.577831
-0.580302
-0.582737
-0.585135
-0.587498
-0.589825
-0.592117
-0.594374
-0.596596
-0.598783
-0.600937
-0.603056
-0.605141
-0.607193
-0.609212
-0.611199
-0.613153
-0.615075
-0.616966
-0.618826
-0.620655
-0.622453
-0.624222
-0.625961
-0.627671
-0.629352
-0.631005
-0.632629
-0.634226
-0.635796
-0.637339
-0.638856
-0.640347
-0.641812
-0.643252
-0.644667
-0.646058
-0.647425
-0.648768
-0.650088
-0.651385
-0.65266
-0.653912
-0.655143
-0.656353
-0.657541
-0.658709
-0.659856
-0.660984
-0.662091
-0.663177
-0.385524
-0.38563
-0.386034
-0.386679
-0.387538
-0.388606
-0.389874
-0.39133
-0.392962
-0.394759
-0.396712
-0.39881
-0.401043
-0.403404
-0.405882
-0.408469
-0.411157
-0.413939
-0.416806
-0.419753
-0.42277
-0.425854
-0.428996
-0.432191
-0.435434
-0.438718
-0.442039
-0.445392
-0.448772
-0.452175
-0.455596
-0.459031
-0.462477
-0.46593
-0.469387
-0.472844
-0.476299
-0.479748
-0.483189
-0.48662
-0.490038
-0.493441
-0.496826
-0.500193
-0.503538
-0.506861
-0.51016
-0.513434
-0.516681
-0.5199
-0.523089
-0.526249
-0.529378
-0.532475
-0.535539
-0.53857
-0.541567
-0.54453
-0.547458
-0.550351
-0.553208
-0.556029
-0.558814
-0.561563
-0.564276
-0.566952
-0.569591
-0.572194
-0.574761
-0.57729
-0.579784
-0.582241
-0.584662
-0.587047
-0.589396
-0.59171
-0.593989
-0.596232
-0.598441
-0.600615
-0.602755
-0.604861
-0.606934
-0.608973
-0.610979
-0.612953
-0.614895
-0.616805
-0.618684
-0.620532
-0.622349
-0.624136
-0.625893
-0.627621
-0.62932
-0.63099
-0.632632
-0.634246
-0.635833
-0.637392
-0.638925
-0.640432
-0.641913
-0.643369
-0.644799
-0.646205
-0.647587
-0.648945
-0.65028
-0.651591
-0.65288
-0.654146
-0.65539
-0.656613
-0.657815
-0.658996
-0.660156
-0.661296
-0.662416
-0.663513
-0.383934
-0.384026
-0.384417
-0.385051
-0.3859
-0.386959
-0.388219
-0.389669
-0.391296
-0.393089
-0.395038
-0.397135
-0.399368
-0.401728
-0.404208
-0.406798
-0.40949
-0.412276
-0.415149
-0.418102
-0.421128
-0.42422
-0.427372
-0.430578
-0.433832
-0.437129
-0.440463
-0.44383
-0.447225
-0.450644
-0.454081
-0.457534
-0.460998
-0.464469
-0.467945
-0.471422
-0.474897
-0.478367
-0.48183
-0.485282
-0.488722
-0.492148
-0.495556
-0.498946
-0.502316
-0.505663
-0.508986
-0.512284
-0.515556
-0.5188
-0.522015
-0.5252
-0.528354
-0.531476
-0.534566
-0.537623
-0.540646
-0.543635
-0.546588
-0.549507
-0.55239
-0.555237
-0.558048
-0.560822
-0.56356
-0.566261
-0.568926
-0.571554
-0.574145
-0.5767
-0.579218
-0.5817
-0.584145
-0.586554
-0.588928
-0.591265
-0.593567
-0.595834
-0.598066
-0.600263
-0.602426
-0.604554
-0.606649
-0.60871
-0.610739
-0.612734
-0.614697
-0.616628
-0.618528
-0.620396
-0.622234
-0.624041
-0.625818
-0.627565
-0.629283
-0.630972
-0.632633
-0.634265
-0.63587
-0.637448
-0.638999
-0.640523
-0.642021
-0.643494
-0.644942
-0.646364
-0.647762
-0.649136
-0.650486
-0.651813
-0.653117
-0.654399
-0.655658
-0.656896
-0.658112
-0.659306
-0.660481
-0.661635
-0.662768
-0.663878
-0.382224
-0.382301
-0.382678
-0.3833
-0.384138
-0.385187
-0.386439
-0.387882
-0.389503
-0.391291
-0.393238
-0.395332
-0.397564
-0.399925
-0.402406
-0.404999
-0.407695
-0.410486
-0.413365
-0.416326
-0.41936
-0.422461
-0.425623
-0.42884
-0.432107
-0.435417
-0.438765
-0.442147
-0.445558
-0.448993
-0.452448
-0.455919
-0.459402
-0.462894
-0.46639
-0.469888
-0.473385
-0.476877
-0.480363
-0.483839
-0.487303
-0.490752
-0.494186
-0.497601
-0.500996
-0.504369
-0.507718
-0.511043
-0.514341
-0.517612
-0.520854
-0.524066
-0.527248
-0.530398
-0.533515
-0.5366
-0.53965
-0.542667
-0.545648
-0.548594
-0.551505
-0.55438
-0.557218
-0.56002
-0.562785
-0.565514
-0.568206
-0.570861
-0.573479
-0.576061
-0.578606
-0.581114
-0.583585
-0.586021
-0.58842
-0.590783
-0.593111
-0.595403
-0.597659
-0.599881
-0.602068
-0.604221
-0.60634
-0.608425
-0.610477
-0.612496
-0.614482
-0.616436
-0.618358
-0.620248
-0.622107
-0.623936
-0.625734
-0.627503
-0.629242
-0.630951
-0.632632
-0.634285
-0.635909
-0.637507
-0.639077
-0.64062
-0.642137
-0.643628
-0.645093
-0.646534
-0.647949
-0.649341
-0.650708
-0.652052
-0.653372
-0.65467
-0.655946
-0.657199
-0.65843
-0.659641
-0.66083
-0.661999
-0.663147
-0.664271
-0.380397
-0.380457
-0.380821
-0.38143
-0.382256
-0.383294
-0.384538
-0.385972
-0.387587
-0.389371
-0.391313
-0.393405
-0.395636
-0.397998
-0.40048
-0.403075
-0.405775
-0.408572
-0.411457
-0.414425
-0.417468
-0.420579
-0.423752
-0.426981
-0.43026
-0.433584
-0.436948
-0.440346
-0.443774
-0.447226
-0.4507
-0.454191
-0.457694
-0.461206
-0.464724
-0.468245
-0.471765
-0.475281
-0.478791
-0.482292
-0.485781
-0.489257
-0.492716
-0.496158
-0.49958
-0.502981
-0.506358
-0.509711
-0.513038
-0.516337
-0.519608
-0.522849
-0.52606
-0.52924
-0.532387
-0.535501
-0.538581
-0.541627
-0.544638
-0.547614
-0.550554
-0.553459
-0.556327
-0.559158
-0.561953
-0.564711
-0.567432
-0.570116
-0.572763
-0.575373
-0.577947
-0.580483
-0.582983
-0.585446
-0.587873
-0.590264
-0.592618
-0.594937
-0.597221
-0.599469
-0.601683
-0.603862
-0.606006
-0.608117
-0.610194
-0.612237
-0.614248
-0.616226
-0.618173
-0.620087
-0.62197
-0.623821
-0.625643
-0.627434
-0.629195
-0.630927
-0.632629
-0.634303
-0.635949
-0.637567
-0.639158
-0.640721
-0.642258
-0.643769
-0.645254
-0.646714
-0.648148
-0.649558
-0.650944
-0.652306
-0.653644
-0.65496
-0.656252
-0.657522
-0.658771
-0.659997
-0.661203
-0.662388
-0.663551
-0.664691
-0.378457
-0.3785
-0.378848
-0.379443
-0.380256
-0.381284
-0.382517
-0.383944
-0.385552
-0.38733
-0.389269
-0.391358
-0.393588
-0.395949
-0.398433
-0.401031
-0.403735
-0.406536
-0.409429
-0.412404
-0.415456
-0.418577
-0.421761
-0.425003
-0.428296
-0.431634
-0.435014
-0.438428
-0.441874
-0.445345
-0.448839
-0.45235
-0.455874
-0.459409
-0.46295
-0.466494
-0.470038
-0.47358
-0.477115
-0.480642
-0.484159
-0.487662
-0.491149
-0.49462
-0.49807
-0.5015
-0.504907
-0.50829
-0.511647
-0.514977
-0.518278
-0.521551
-0.524793
-0.528003
-0.531181
-0.534327
-0.537439
-0.540516
-0.543559
-0.546567
-0.549538
-0.552474
-0.555374
-0.558237
-0.561063
-0.563852
-0.566604
-0.569319
-0.571997
-0.574638
-0.577241
-0.579808
-0.582338
-0.584831
-0.587287
-0.589707
-0.592091
-0.594439
-0.596751
-0.599028
-0.601269
-0.603476
-0.605648
-0.607785
-0.609889
-0.61196
-0.613997
-0.616001
-0.617973
-0.619912
-0.62182
-0.623697
-0.625543
-0.627358
-0.629143
-0.630898
-0.632624
-0.634321
-0.635989
-0.63763
-0.639242
-0.640828
-0.642386
-0.643918
-0.645424
-0.646904
-0.648358
-0.649788
-0.651193
-0.652575
-0.653932
-0.655266
-0.656577
-0.657866
-0.659132
-0.660376
-0.661599
-0.662801
-0.663981
-0.665136
-0.376407
-0.376432
-0.376763
-0.377343
-0.378143
-0.379159
-0.380382
-0.3818
-0.3834
-0.385173
-0.387107
-0.389193
-0.391422
-0.393783
-0.396268
-0.398868
-0.401576
-0.404383
-0.407282
-0.410265
-0.413326
-0.416458
-0.419654
-0.422909
-0.426216
-0.42957
-0.432965
-0.436397
-0.439861
-0.443352
-0.446866
-0.450399
-0.453946
-0.457503
-0.461069
-0.464638
-0.468208
-0.471775
-0.475338
-0.478893
-0.482437
-0.485969
-0.489486
-0.492987
-0.496468
-0.499929
-0.503367
-0.506781
-0.51017
-0.513532
-0.516866
-0.520171
-0.523446
-0.526689
-0.529901
-0.533079
-0.536224
-0.539335
-0.542412
-0.545453
-0.548458
-0.551427
-0.55436
-0.557256
-0.560115
-0.562937
-0.565722
-0.56847
-0.571181
-0.573854
-0.57649
-0.579088
-0.58165
-0.584175
-0.586662
-0.589113
-0.591528
-0.593907
-0.596249
-0.598556
-0.600827
-0.603063
-0.605264
-0.607431
-0.609563
-0.611662
-0.613727
-0.615758
-0.617757
-0.619724
-0.621659
-0.623562
-0.625433
-0.627274
-0.629084
-0.630865
-0.632615
-0.634337
-0.636029
-0.637693
-0.639329
-0.640938
-0.642519
-0.644073
-0.645601
-0.647103
-0.648579
-0.65003
-0.651456
-0.652858
-0.654235
-0.655589
-0.65692
-0.658228
-0.659513
-0.660776
-0.662017
-0.663237
-0.664435
-0.665607
-0.37425
-0.374255
-0.37457
-0.375134
-0.37592
-0.376923
-0.378135
-0.379544
-0.381136
-0.382902
-0.384832
-0.386914
-0.389141
-0.391502
-0.393988
-0.396591
-0.399303
-0.402115
-0.405021
-0.408012
-0.411082
-0.414225
-0.417433
-0.420701
-0.424022
-0.427392
-0.430805
-0.434255
-0.437738
-0.44125
-0.444785
-0.44834
-0.45191
-0.455492
-0.459083
-0.462678
-0.466275
-0.46987
-0.473461
-0.477045
-0.480619
-0.484181
-0.487729
-0.491261
-0.494774
-0.498267
-0.501738
-0.505185
-0.508608
-0.512003
-0.515372
-0.518711
-0.52202
-0.525298
-0.528545
-0.531759
-0.534939
-0.538085
-0.541196
-0.544273
-0.547313
-0.550317
-0.553285
-0.556216
-0.559111
-0.561968
-0.564787
-0.56757
-0.570315
-0.573022
-0.575692
-0.578325
-0.58092
-0.583478
-0.585999
-0.588483
-0.59093
-0.593341
-0.595715
-0.598053
-0.600356
-0.602623
-0.604855
-0.607052
-0.609215
-0.611343
-0.613438
-0.615499
-0.617527
-0.619522
-0.621485
-0.623416
-0.625315
-0.627183
-0.62902
-0.630827
-0.632603
-0.63435
-0.636068
-0.637758
-0.639418
-0.641051
-0.642656
-0.644234
-0.645785
-0.64731
-0.648809
-0.650283
-0.651731
-0.653154
-0.654553
-0.655928
-0.65728
-0.658608
-0.659913
-0.661196
-0.662457
-0.663696
-0.664913
-0.666103
-0.37199
-0.371975
-0.372271
-0.372819
-0.37359
-0.374579
-0.37578
-0.377178
-0.378762
-0.380521
-0.382446
-0.384525
-0.386749
-0.389109
-0.391596
-0.394201
-0.396917
-0.399735
-0.402647
-0.405647
-0.408727
-0.41188
-0.415101
-0.418382
-0.421719
-0.425105
-0.428535
-0.432004
-0.435507
-0.43904
-0.442597
-0.446175
-0.44977
-0.453377
-0.456994
-0.460616
-0.464241
-0.467865
-0.471485
-0.475099
-0.478704
-0.482298
-0.485879
-0.489443
-0.492989
-0.496516
-0.500021
-0.503504
-0.506961
-0.510392
-0.513796
-0.517171
-0.520517
-0.523832
-0.527115
-0.530365
-0.533582
-0.536765
-0.539914
-0.543027
-0.546104
-0.549146
-0.55215
-0.555119
-0.558049
-0.560943
-0.563799
-0.566618
-0.569399
-0.572143
-0.574848
-0.577516
-0.580147
-0.58274
-0.585296
-0.587814
-0.590296
-0.592741
-0.595149
-0.597521
-0.599857
-0.602157
-0.604421
-0.60665
-0.608845
-0.611005
-0.61313
-0.615222
-0.61728
-0.619306
-0.621298
-0.623258
-0.625186
-0.627083
-0.628948
-0.630783
-0.632587
-0.634362
-0.636106
-0.637822
-0.639509
-0.641167
-0.642798
-0.644401
-0.645977
-0.647526
-0.649049
-0.650546
-0.652017
-0.653464
-0.654885
-0.656283
-0.657656
-0.659006
-0.660332
-0.661636
-0.662917
-0.664177
-0.665414
-0.666623
-0.369629
-0.369592
-0.369869
-0.3704
-0.371155
-0.372131
-0.373319
-0.374707
-0.376282
-0.378033
-0.379952
-0.382026
-0.384248
-0.386607
-0.389095
-0.391703
-0.394422
-0.397245
-0.400164
-0.403172
-0.406261
-0.409426
-0.412659
-0.415955
-0.419307
-0.42271
-0.426158
-0.429646
-0.43317
-0.436724
-0.440304
-0.443906
-0.447526
-0.451159
-0.454803
-0.458453
-0.462107
-0.465761
-0.469412
-0.473058
-0.476695
-0.480322
-0.483936
-0.487534
-0.491116
-0.494678
-0.498219
-0.501737
-0.505231
-0.508699
-0.51214
-0.515553
-0.518937
-0.522289
-0.525611
-0.5289
-0.532155
-0.535377
-0.538564
-0.541716
-0.544832
-0.547912
-0.550956
-0.553962
-0.556932
-0.559864
-0.562758
-0.565615
-0.568434
-0.571215
-0.573959
-0.576664
-0.579332
-0.581962
-0.584554
-0.587109
-0.589626
-0.592107
-0.59455
-0.596957
-0.599328
-0.601662
-0.603961
-0.606224
-0.608452
-0.610645
-0.612803
-0.614927
-0.617018
-0.619074
-0.621098
-0.623089
-0.625048
-0.626975
-0.62887
-0.630734
-0.632567
-0.63437
-0.636143
-0.637886
-0.6396
-0.641286
-0.642943
-0.644573
-0.646174
-0.647749
-0.649297
-0.650819
-0.652315
-0.653786
-0.655231
-0.656652
-0.658048
-0.65942
-0.660769
-0.662095
-0.663398
-0.664679
-0.665937
-0.667166
-0.367171
-0.367112
-0.367369
-0.367881
-0.368619
-0.36958
-0.370755
-0.372132
-0.373697
-0.375441
-0.377353
-0.379423
-0.381642
-0.384
-0.386488
-0.389097
-0.39182
-0.394648
-0.397574
-0.40059
-0.40369
-0.406866
-0.410112
-0.413421
-0.416789
-0.420209
-0.423676
-0.427184
-0.430728
-0.434305
-0.437909
-0.441535
-0.445181
-0.448841
-0.452513
-0.456192
-0.459876
-0.463561
-0.467244
-0.470922
-0.474593
-0.478253
-0.481902
-0.485536
-0.489153
-0.492752
-0.49633
-0.499886
-0.503418
-0.506925
-0.510405
-0.513857
-0.51728
-0.520672
-0.524033
-0.527362
-0.530658
-0.53392
-0.537147
-0.54034
-0.543496
-0.546617
-0.549701
-0.552748
-0.555757
-0.55873
-0.561664
-0.564561
-0.567419
-0.57024
-0.573023
-0.575767
-0.578473
-0.581142
-0.583773
-0.586365
-0.588921
-0.591439
-0.593919
-0.596363
-0.59877
-0.60114
-0.603475
-0.605773
-0.608036
-0.610264
-0.612456
-0.614614
-0.616738
-0.618828
-0.620885
-0.622908
-0.624899
-0.626857
-0.628783
-0.630678
-0.632541
-0.634374
-0.636177
-0.637949
-0.639692
-0.641406
-0.643092
-0.644749
-0.646378
-0.647979
-0.649554
-0.651102
-0.652623
-0.654119
-0.655589
-0.657035
-0.658455
-0.659852
-0.661224
-0.662573
-0.663899
-0.665202
-0.666481
-0.667731
-0.364618
-0.364535
-0.364771
-0.365264
-0.365985
-0.366931
-0.368092
-0.369457
-0.371012
-0.372747
-0.374652
-0.376718
-0.378933
-0.381289
-0.383777
-0.386388
-0.389114
-0.391947
-0.39488
-0.397904
-0.401013
-0.404201
-0.40746
-0.410784
-0.414167
-0.417605
-0.42109
-0.424618
-0.428184
-0.431784
-0.435412
-0.439064
-0.442736
-0.446424
-0.450124
-0.453834
-0.457548
-0.461265
-0.46498
-0.468692
-0.472398
-0.476094
-0.479778
-0.483449
-0.487104
-0.49074
-0.494357
-0.497952
-0.501523
-0.50507
-0.50859
-0.512083
-0.515547
-0.51898
-0.522383
-0.525753
-0.529091
-0.532395
-0.535664
-0.538899
-0.542097
-0.54526
-0.548386
-0.551475
-0.554526
-0.55754
-0.560517
-0.563455
-0.566355
-0.569217
-0.57204
-0.574825
-0.577572
-0.580281
-0.582952
-0.585584
-0.588179
-0.590736
-0.593255
-0.595737
-0.598182
-0.60059
-0.602962
-0.605297
-0.607597
-0.609861
-0.612089
-0.614283
-0.616441
-0.618566
-0.620657
-0.622714
-0.624738
-0.626729
-0.628688
-0.630615
-0.63251
-0.634375
-0.636208
-0.638011
-0.639784
-0.641528
-0.643243
-0.644928
-0.646586
-0.648216
-0.649818
-0.651393
-0.652942
-0.654464
-0.65596
-0.657431
-0.658877
-0.660298
-0.661695
-0.663068
-0.664418
-0.665745
-0.667047
-0.668319
-0.361973
-0.361866
-0.36208
-0.362554
-0.363256
-0.364186
-0.365333
-0.366684
-0.368228
-0.369955
-0.371853
-0.373912
-0.376124
-0.378478
-0.380965
-0.383578
-0.386307
-0.389145
-0.392084
-0.395116
-0.398235
-0.401434
-0.404706
-0.408044
-0.411444
-0.414899
-0.418403
-0.421952
-0.42554
-0.429163
-0.432815
-0.436493
-0.440192
-0.443909
-0.447639
-0.451379
-0.455125
-0.458874
-0.462624
-0.46637
-0.470111
-0.473844
-0.477565
-0.481274
-0.484967
-0.488643
-0.492299
-0.495935
-0.499547
-0.503135
-0.506697
-0.510232
-0.513738
-0.517214
-0.52066
-0.524073
-0.527454
-0.530802
-0.534115
-0.537393
-0.540635
-0.543841
-0.547011
-0.550144
-0.553239
-0.556296
-0.559316
-0.562297
-0.56524
-0.568145
-0.571011
-0.573839
-0.576628
-0.579379
-0.582091
-0.584765
-0.5874
-0.589998
-0.592558
-0.59508
-0.597564
-0.600012
-0.602422
-0.604796
-0.607134
-0.609436
-0.611701
-0.613932
-0.616127
-0.618288
-0.620414
-0.622507
-0.624566
-0.626591
-0.628584
-0.630545
-0.632473
-0.63437
-0.636236
-0.638071
-0.639876
-0.64165
-0.643396
-0.645112
-0.646799
-0.648458
-0.650089
-0.651693
-0.653269
-0.654819
-0.656343
-0.657841
-0.659313
-0.66076
-0.662183
-0.663581
-0.664956
-0.666307
-0.667633
-0.668928
-0.359238
-0.359106
-0.359299
-0.359751
-0.360435
-0.361347
-0.362479
-0.363817
-0.36535
-0.367066
-0.368956
-0.37101
-0.373217
-0.375568
-0.378055
-0.380669
-0.383401
-0.386243
-0.389188
-0.392229
-0.395357
-0.398567
-0.401852
-0.405205
-0.408621
-0.412094
-0.415617
-0.419187
-0.422797
-0.426443
-0.430121
-0.433825
-0.437552
-0.441298
-0.445058
-0.448829
-0.452608
-0.456391
-0.460175
-0.463957
-0.467734
-0.471504
-0.475264
-0.479012
-0.482745
-0.486461
-0.490158
-0.493835
-0.49749
-0.50112
-0.504725
-0.508304
-0.511854
-0.515374
-0.518864
-0.522322
-0.525748
-0.529141
-0.532499
-0.535822
-0.53911
-0.542361
-0.545576
-0.548754
-0.551895
-0.554997
-0.558062
-0.561088
-0.564076
-0.567025
-0.569935
-0.572807
-0.57564
-0.578434
-0.58119
-0.583906
-0.586585
-0.589225
-0.591826
-0.59439
-0.596916
-0.599404
-0.601855
-0.604269
-0.606647
-0.608988
-0.611292
-0.613561
-0.615795
-0.617993
-0.620157
-0.622286
-0.624381
-0.626443
-0.628471
-0.630466
-0.63243
-0.634361
-0.63626
-0.638128
-0.639966
-0.641773
-0.64355
-0.645297
-0.647016
-0.648705
-0.650366
-0.652
-0.653606
-0.655184
-0.656736
-0.658262
-0.659762
-0.661237
-0.662686
-0.664111
-0.665511
-0.666888
-0.668239
-0.669558
-0.356418
-0.35626
-0.356428
-0.356859
-0.357524
-0.358418
-0.359534
-0.360858
-0.362379
-0.364085
-0.365966
-0.368013
-0.370215
-0.372564
-0.37505
-0.377664
-0.380398
-0.383245
-0.386196
-0.389244
-0.392382
-0.395603
-0.3989
-0.402268
-0.4057
-0.409191
-0.412734
-0.416324
-0.419957
-0.423627
-0.42733
-0.431062
-0.434817
-0.438592
-0.442383
-0.446186
-0.449998
-0.453815
-0.457635
-0.461453
-0.465268
-0.469076
-0.472875
-0.476663
-0.480437
-0.484194
-0.487934
-0.491654
-0.495352
-0.499026
-0.502676
-0.506299
-0.509894
-0.51346
-0.516996
-0.5205
-0.523973
-0.527412
-0.530816
-0.534186
-0.537521
-0.54082
-0.544081
-0.547306
-0.550493
-0.553643
-0.556754
-0.559827
-0.562861
-0.565856
-0.568812
-0.57173
-0.574608
-0.577447
-0.580248
-0.583009
-0.585732
-0.588415
-0.591061
-0.593668
-0.596236
-0.598767
-0.60126
-0.603716
-0.606135
-0.608516
-0.610862
-0.61317
-0.615443
-0.617681
-0.619883
-0.622051
-0.624184
-0.626282
-0.628348
-0.63038
-0.632379
-0.634345
-0.63628
-0.638182
-0.640054
-0.641895
-0.643705
-0.645485
-0.647236
-0.648957
-0.65065
-0.652314
-0.65395
-0.655559
-0.657141
-0.658696
-0.660224
-0.661727
-0.663204
-0.664656
-0.666084
-0.667487
-0.668865
-0.670208
-0.353513
-0.353328
-0.353473
-0.353881
-0.354525
-0.355401
-0.3565
-0.35781
-0.359317
-0.361013
-0.362885
-0.364925
-0.367121
-0.369466
-0.37195
-0.374565
-0.377301
-0.380151
-0.383108
-0.386163
-0.389311
-0.392543
-0.395853
-0.399235
-0.402684
-0.406192
-0.409754
-0.413366
-0.417022
-0.420716
-0.424445
-0.428203
-0.431987
-0.435792
-0.439615
-0.44345
-0.447296
-0.451149
-0.455004
-0.45886
-0.462713
-0.46656
-0.4704
-0.474228
-0.478044
-0.481844
-0.485627
-0.489391
-0.493134
-0.496853
-0.500548
-0.504218
-0.507859
-0.511472
-0.515056
-0.518608
-0.522128
-0.525614
-0.529068
-0.532486
-0.535869
-0.539216
-0.542526
-0.545799
-0.549035
-0.552233
-0.555392
-0.558513
-0.561595
-0.564638
-0.567642
-0.570606
-0.573532
-0.576418
-0.579265
-0.582072
-0.584841
-0.58757
-0.59026
-0.592912
-0.595525
-0.5981
-0.600637
-0.603136