/*--------------------------------*- C++ -*----------------------------------*\
  =========                 |
  \\      /  F ield         | OpenFOAM: The Open Source CFD Toolbox
   \\    /   O peration     | Website:  https://openfoam.org
    \\  /    A nd           | Version:  8
     \\/     M anipulation  |
\*---------------------------------------------------------------------------*/
FoamFile
{
    version     2.0;
    format      ascii;
    class       volScalarField;
    location    "2";
    object      p;
}
// * * * * * * * * * * * * * * * * * * * * * * * * * * * * * * * * * * * * * //

dimensions      [0 2 -2 0 0 0 0];

internalField   nonuniform List<scalar> 
277560
(
-0.00630637
-0.00707789
-0.00899171
-0.0118133
-0.0154376
-0.0198502
-0.0250213
-0.0309017
-0.0374441
-0.0446073
-0.0523523
-0.0606403
-0.0694341
-0.078698
-0.0883976
-0.0985
-0.108974
-0.119789
-0.130916
-0.142327
-0.153996
-0.165899
-0.17801
-0.190307
-0.202768
-0.215372
-0.2281
-0.240932
-0.253852
-0.266842
-0.279886
-0.29297
-0.306079
-0.3192
-0.33232
-0.345427
-0.358511
-0.37156
-0.384565
-0.397517
-0.410408
-0.423229
-0.435972
-0.448632
-0.461202
-0.473676
-0.486048
-0.498313
-0.510468
-0.522507
-0.534427
-0.546225
-0.557898
-0.569442
-0.580855
-0.592136
-0.603282
-0.614291
-0.625163
-0.635895
-0.646488
-0.65694
-0.667251
-0.677421
-0.687448
-0.697334
-0.707078
-0.71668
-0.726141
-0.735461
-0.744642
-0.753682
-0.762584
-0.771349
-0.779976
-0.788467
-0.796824
-0.805046
-0.813137
-0.821096
-0.828925
-0.836626
-0.844199
-0.851647
-0.85897
-0.86617
-0.873249
-0.880208
-0.887048
-0.893772
-0.900381
-0.906875
-0.913258
-0.91953
-0.925692
-0.931748
-0.937697
-0.943542
-0.949284
-0.954925
-0.960466
-0.965909
-0.971255
-0.976506
-0.981664
-0.98673
-0.991704
-0.99659
-1.00139
-1.0061
-1.01073
-1.01527
-1.01973
-1.02411
-1.02841
-1.03264
-1.03678
-1.04086
-1.04485
-1.04878
-0.00588479
-0.00663279
-0.00853039
-0.0113471
-0.0149684
-0.0193773
-0.0245454
-0.0304235
-0.036964
-0.0441256
-0.0518693
-0.0601565
-0.0689498
-0.0782134
-0.0879132
-0.0980161
-0.108491
-0.119306
-0.130435
-0.141848
-0.153519
-0.165424
-0.177538
-0.189837
-0.202301
-0.214909
-0.22764
-0.240477
-0.253401
-0.266395
-0.279444
-0.292533
-0.305647
-0.318773
-0.331898
-0.345011
-0.3581
-0.371155
-0.384167
-0.397125
-0.410022
-0.422849
-0.4356
-0.448267
-0.460843
-0.473324
-0.485703
-0.497976
-0.510137
-0.522184
-0.534111
-0.545917
-0.557597
-0.569148
-0.580569
-0.591858
-0.603011
-0.614028
-0.624907
-0.635648
-0.646248
-0.656708
-0.667027
-0.677204
-0.687239
-0.697132
-0.706884
-0.716494
-0.725963
-0.735291
-0.744478
-0.753527
-0.762436
-0.771208
-0.779842
-0.788341
-0.796705
-0.804935
-0.813033
-0.820999
-0.828835
-0.836543
-0.844123
-0.851578
-0.858908
-0.866115
-0.873201
-0.880166
-0.887014
-0.893744
-0.900359
-0.90686
-0.913249
-0.919527
-0.925696
-0.931757
-0.937713
-0.943564
-0.949312
-0.954959
-0.960505
-0.965954
-0.971306
-0.976563
-0.981726
-0.986797
-0.991777
-0.996668
-1.00147
-1.00619
-1.01082
-1.01537
-1.01983
-1.02422
-1.02852
-1.03275
-1.0369
-1.04098
-1.04498
-1.04891
-0.00509298
-0.00584284
-0.00773923
-0.0105543
-0.014173
-0.0185788
-0.0237441
-0.0296202
-0.0361592
-0.0433199
-0.0510632
-0.0593506
-0.0681446
-0.0774096
-0.0871112
-0.0972166
-0.107694
-0.118513
-0.129646
-0.141063
-0.15274
-0.16465
-0.17677
-0.189076
-0.201547
-0.214162
-0.226901
-0.239745
-0.252677
-0.265681
-0.278739
-0.291837
-0.30496
-0.318096
-0.331232
-0.344355
-0.357456
-0.370522
-0.383545
-0.396514
-0.409423
-0.422262
-0.435025
-0.447703
-0.460292
-0.472785
-0.485176
-0.497462
-0.509636
-0.521695
-0.533635
-0.545453
-0.557146
-0.56871
-0.580144
-0.591445
-0.602611
-0.613641
-0.624533
-0.635286
-0.645899
-0.656371
-0.666702
-0.676892
-0.686939
-0.696845
-0.706608
-0.71623
-0.725711
-0.735051
-0.74425
-0.75331
-0.762231
-0.771014
-0.77966
-0.788169
-0.796544
-0.804785
-0.812893
-0.82087
-0.828717
-0.836435
-0.844025
-0.85149
-0.85883
-0.866047
-0.873142
-0.880117
-0.886974
-0.893713
-0.900337
-0.906847
-0.913245
-0.919532
-0.925709
-0.931779
-0.937743
-0.943602
-0.949358
-0.955013
-0.960567
-0.966024
-0.971383
-0.976648
-0.981818
-0.986896
-0.991884
-0.996782
-1.00159
-1.00632
-1.01095
-1.01551
-1.01998
-1.02437
-1.02869
-1.03292
-1.03708
-1.04116
-1.04517
-1.0491
-0.00392163
-0.00466253
-0.00654862
-0.0093539
-0.0129644
-0.0173633
-0.022523
-0.0283944
-0.0349297
-0.0420877
-0.0498291
-0.0581156
-0.0669096
-0.0761754
-0.0858786
-0.0959864
-0.106467
-0.117291
-0.128428
-0.139851
-0.151534
-0.163451
-0.175578
-0.187893
-0.200373
-0.212998
-0.225747
-0.238603
-0.251547
-0.264562
-0.277633
-0.290744
-0.303882
-0.317032
-0.330182
-0.343321
-0.356436
-0.369519
-0.382558
-0.395544
-0.408469
-0.421326
-0.434106
-0.446802
-0.459409
-0.47192
-0.48433
-0.496633
-0.508826
-0.520904
-0.532864
-0.544701
-0.556412
-0.567996
-0.579449
-0.590769
-0.601955
-0.613004
-0.623915
-0.634687
-0.64532
-0.655811
-0.666161
-0.67637
-0.686437
-0.696361
-0.706144
-0.715784
-0.725284
-0.734642
-0.74386
-0.752938
-0.761878
-0.770679
-0.779343
-0.78787
-0.796263
-0.804522
-0.812647
-0.820642
-0.828505
-0.83624
-0.843848
-0.851329
-0.858686
-0.865919
-0.87303
-0.880021
-0.886894
-0.893649
-0.900289
-0.906814
-0.913227
-0.919529
-0.925721
-0.931805
-0.937783
-0.943657
-0.949427
-0.955095
-0.960664
-0.966134
-0.971507
-0.976784
-0.981967
-0.987058
-0.992058
-0.996968
-1.00179
-1.00653
-1.01118
-1.01574
-1.02023
-1.02463
-1.02895
-1.0332
-1.03737
-1.04146
-1.04548
-1.04942
-0.00237535
-0.00310259
-0.0049769
-0.00777162
-0.0113731
-0.0157643
-0.0209174
-0.0267834
-0.0333145
-0.0404695
-0.0482091
-0.0564949
-0.0652893
-0.0745567
-0.0842627
-0.0943743
-0.10486
-0.115689
-0.126834
-0.138265
-0.149957
-0.161884
-0.174022
-0.186348
-0.198841
-0.211479
-0.224243
-0.237114
-0.250074
-0.263106
-0.276194
-0.289323
-0.30248
-0.315649
-0.328819
-0.341978
-0.355115
-0.368219
-0.38128
-0.394288
-0.407237
-0.420116
-0.432919
-0.44564
-0.458271
-0.470806
-0.48324
-0.495569
-0.507787
-0.51989
-0.531874
-0.543737
-0.555474
-0.567083
-0.578562
-0.589907
-0.601118
-0.612193
-0.62313
-0.633928
-0.644586
-0.655102
-0.665478
-0.675712
-0.685803
-0.695753
-0.70556
-0.715225
-0.724749
-0.734132
-0.743374
-0.752476
-0.761439
-0.770264
-0.778951
-0.787502
-0.795917
-0.804198
-0.812347
-0.820363
-0.828249
-0.836005
-0.843634
-0.851137
-0.858514
-0.865768
-0.8729
-0.879911
-0.886803
-0.893578
-0.900237
-0.906781
-0.913213
-0.919533
-0.925744
-0.931846
-0.937842
-0.943733
-0.949521
-0.955206
-0.960792
-0.966278
-0.971667
-0.976961
-0.98216
-0.987266
-0.992282
-0.997207
-1.00204
-1.00679
-1.01146
-1.01604
-1.02054
-1.02496
-1.02929
-1.03355
-1.03773
-1.04184
-1.04587
-1.04983
-0.000461785
-0.00117215
-0.00303215
-0.00581372
-0.00940348
-0.0137846
-0.0189292
-0.0247882
-0.0313138
-0.0384647
-0.0462018
-0.0544864
-0.0632812
-0.0725503
-0.0822593
-0.0923753
-0.102867
-0.113703
-0.124856
-0.136297
-0.147999
-0.159938
-0.17209
-0.18443
-0.196938
-0.209593
-0.222374
-0.235263
-0.248243
-0.261295
-0.274404
-0.287556
-0.300735
-0.313928
-0.327122
-0.340306
-0.353468
-0.366598
-0.379686
-0.392722
-0.405698
-0.418606
-0.431438
-0.444187
-0.456848
-0.469413
-0.481877
-0.494236
-0.506485
-0.518619
-0.530634
-0.542528
-0.554296
-0.565937
-0.577446
-0.588824
-0.600066
-0.611172
-0.622141
-0.63297
-0.643659
-0.654207
-0.664614
-0.674879
-0.685001
-0.694982
-0.70482
-0.714515
-0.72407
-0.733482
-0.742754
-0.751886
-0.760879
-0.769733
-0.778449
-0.787028
-0.795472
-0.803782
-0.811958
-0.820002
-0.827915
-0.835699
-0.843355
-0.850884
-0.858288
-0.865568
-0.872725
-0.879762
-0.88668
-0.893479
-0.900163
-0.906731
-0.913187
-0.919531
-0.925765
-0.931891
-0.93791
-0.943823
-0.949633
-0.95534
-0.960947
-0.966455
-0.971865
-0.977179
-0.982399
-0.987526
-0.992561
-0.997506
-1.00236
-1.00713
-1.01182
-1.01641
-1.02093
-1.02537
-1.02972
-1.034
-1.0382
-1.04232
-1.04636
-1.05034
0.00181171
0.0011214
-0.000721456
-0.00348735
-0.00706314
-0.0114324
-0.0165669
-0.0224176
-0.0289367
-0.0360829
-0.043817
-0.0521003
-0.0608955
-0.0701666
-0.0798793
-0.0900007
-0.100499
-0.111344
-0.122506
-0.133958
-0.145674
-0.157627
-0.169794
-0.182152
-0.194678
-0.207353
-0.220155
-0.233066
-0.246068
-0.259145
-0.272279
-0.285457
-0.298663
-0.311884
-0.325108
-0.338321
-0.351514
-0.364675
-0.377795
-0.390864
-0.403873
-0.416815
-0.429681
-0.442465
-0.455161
-0.467762
-0.480262
-0.492657
-0.504942
-0.517113
-0.529165
-0.541096
-0.552902
-0.56458
-0.576127
-0.587542
-0.598822
-0.609966
-0.620972
-0.631839
-0.642565
-0.653151
-0.663595
-0.673896
-0.684056
-0.694073
-0.703947
-0.71368
-0.72327
-0.732719
-0.742026
-0.751194
-0.760221
-0.76911
-0.77786
-0.786474
-0.794952
-0.803295
-0.811505
-0.819582
-0.827527
-0.835344
-0.843031
-0.850592
-0.858026
-0.865337
-0.872525
-0.879592
-0.886539
-0.893368
-0.90008
-0.906678
-0.913162
-0.919534
-0.925795
-0.931948
-0.937993
-0.943933
-0.949769
-0.955502
-0.961134
-0.966667
-0.972101
-0.97744
-0.982683
-0.987834
-0.992892
-0.99786
-1.00274
-1.00753
-1.01224
-1.01686
-1.02139
-1.02585
-1.03023
-1.03452
-1.03874
-1.04288
-1.04695
-1.05094
0.00443803
0.00377092
0.00194798
-0.000799819
-0.00435948
-0.00871486
-0.0138377
-0.0196788
-0.0261903
-0.0333309
-0.0410615
-0.0493432
-0.0581387
-0.0674121
-0.077129
-0.0872563
-0.0977624
-0.108617
-0.119791
-0.131256
-0.142986
-0.154956
-0.167141
-0.179518
-0.192065
-0.204762
-0.217588
-0.230524
-0.243553
-0.256658
-0.269821
-0.283029
-0.296266
-0.30952
-0.322777
-0.336025
-0.349253
-0.36245
-0.375606
-0.388713
-0.40176
-0.414741
-0.427647
-0.440471
-0.453207
-0.465849
-0.478391
-0.490828
-0.503155
-0.515368
-0.527463
-0.539436
-0.551285
-0.563006
-0.574597
-0.586055
-0.597378
-0.608565
-0.619614
-0.630524
-0.641294
-0.651923
-0.66241
-0.672754
-0.682956
-0.693016
-0.702932
-0.712707
-0.722339
-0.731829
-0.741177
-0.750385
-0.759454
-0.768382
-0.777173
-0.785826
-0.794343
-0.802725
-0.810973
-0.819088
-0.827072
-0.834925
-0.84265
-0.850247
-0.857718
-0.865064
-0.872287
-0.879389
-0.886371
-0.893234
-0.89998
-0.90661
-0.913127
-0.919531
-0.925825
-0.932009
-0.938086
-0.944056
-0.949922
-0.955685
-0.961347
-0.966909
-0.972372
-0.977739
-0.98301
-0.988188
-0.993273
-0.998268
-1.00317
-1.00799
-1.01272
-1.01737
-1.02193
-1.02641
-1.03081
-1.03513
-1.03937
-1.04354
-1.04762
-1.05164
0.00741029
0.00676944
0.00496913
0.00224184
-0.00129953
-0.00563919
-0.0107488
-0.0165789
-0.0230818
-0.030216
-0.0379424
-0.0462223
-0.0550181
-0.0642939
-0.0740154
-0.0841494
-0.0946642
-0.105529
-0.116716
-0.128196
-0.139943
-0.151931
-0.164136
-0.176535
-0.189106
-0.201828
-0.214681
-0.227646
-0.240705
-0.253841
-0.267037
-0.280279
-0.293551
-0.306842
-0.320136
-0.333423
-0.346691
-0.359929
-0.373127
-0.386276
-0.399366
-0.412391
-0.425342
-0.438211
-0.450993
-0.463681
-0.47627
-0.488754
-0.501129
-0.51339
-0.525534
-0.537556
-0.549453
-0.561223
-0.572863
-0.58437
-0.595743
-0.606979
-0.618077
-0.629036
-0.639855
-0.650532
-0.661068
-0.671461
-0.681711
-0.691819
-0.701783
-0.711605
-0.721284
-0.730821
-0.740217
-0.749471
-0.758585
-0.76756
-0.776396
-0.785094
-0.793655
-0.802081
-0.810373
-0.818531
-0.826557
-0.834453
-0.842219
-0.849857
-0.857369
-0.864756
-0.87202
-0.879161
-0.886182
-0.893083
-0.899867
-0.906535
-0.913089
-0.91953
-0.92586
-0.93208
-0.938192
-0.944197
-0.950097
-0.955894
-0.961589
-0.967183
-0.972679
-0.978078
-0.983381
-0.988589
-0.993705
-0.99873
-1.00366
-1.00851
-1.01327
-1.01795
-1.02254
-1.02704
-1.03147
-1.03582
-1.04008
-1.04427
-1.04839
-1.05243
0.0107218
0.0101102
0.00833517
0.00563078
0.00210984
-0.00221224
-0.00730697
-0.0131248
-0.0196179
-0.0267449
-0.0344666
-0.0427442
-0.0515403
-0.0608187
-0.0705452
-0.0806865
-0.0912109
-0.102088
-0.113288
-0.124785
-0.13655
-0.148558
-0.160786
-0.173209
-0.185807
-0.198557
-0.211439
-0.224436
-0.237528
-0.250699
-0.263931
-0.277211
-0.290523
-0.303854
-0.31719
-0.33052
-0.343832
-0.357115
-0.37036
-0.383556
-0.396695
-0.409768
-0.422769
-0.435689
-0.448522
-0.461262
-0.473903
-0.48644
-0.498868
-0.511182
-0.523379
-0.535455
-0.547407
-0.559231
-0.570926
-0.582488
-0.593915
-0.605206
-0.616359
-0.627372
-0.638246
-0.648977
-0.659567
-0.670014
-0.680319
-0.69048
-0.700497
-0.710372
-0.720104
-0.729694
-0.739141
-0.748447
-0.757613
-0.766638
-0.775524
-0.784272
-0.792883
-0.801358
-0.809698
-0.817905
-0.825979
-0.833922
-0.841735
-0.849419
-0.856977
-0.864409
-0.871717
-0.878902
-0.885967
-0.892911
-0.899738
-0.906448
-0.913043
-0.919525
-0.925895
-0.932155
-0.938306
-0.94435
-0.950289
-0.956123
-0.961856
-0.967487
-0.973019
-0.978453
-0.983791
-0.989035
-0.994185
-0.999243
-1.00421
-1.00909
-1.01388
-1.01859
-1.02321
-1.02775
-1.03221
-1.03658
-1.04088
-1.0451
-1.04924
-1.05331
0.0143659
0.0137866
0.0120395
0.00936036
0.00586196
0.00155933
-0.00351893
-0.00932308
-0.0158053
-0.0229243
-0.0306407
-0.0389157
-0.0477118
-0.056993
-0.0667247
-0.0768739
-0.0874087
-0.0982986
-0.109514
-0.121028
-0.132813
-0.144844
-0.157096
-0.169546
-0.182172
-0.194953
-0.207869
-0.2209
-0.234028
-0.247237
-0.26051
-0.273831
-0.287186
-0.300561
-0.313943
-0.327321
-0.340681
-0.354014
-0.36731
-0.380558
-0.39375
-0.406877
-0.419932
-0.432908
-0.445797
-0.458594
-0.471292
-0.483887
-0.496373
-0.508747
-0.521003
-0.533139
-0.54515
-0.557035
-0.568789
-0.580411
-0.591898
-0.60325
-0.614463
-0.625537
-0.63647
-0.647262
-0.657911
-0.668418
-0.678782
-0.689002
-0.699078
-0.709012
-0.718802
-0.728449
-0.737954
-0.747317
-0.756539
-0.76562
-0.774562
-0.783365
-0.792031
-0.80056
-0.808954
-0.817213
-0.82534
-0.833335
-0.841199
-0.848935
-0.856543
-0.864025
-0.871382
-0.878616
-0.885728
-0.892721
-0.899594
-0.906351
-0.912992
-0.919519
-0.925933
-0.932237
-0.938432
-0.944519
-0.950499
-0.956376
-0.962149
-0.967821
-0.973393
-0.978866
-0.984243
-0.989525
-0.994712
-0.999808
-1.00481
-1.00973
-1.01456
-1.0193
-1.02395
-1.02853
-1.03302
-1.03742
-1.04175
-1.04601
-1.05018
-1.05428
0.0183364
0.0177922
0.0160756
0.0134241
0.00995034
0.00566901
0.000608821
-0.00518032
-0.0116506
-0.0187606
-0.0264711
-0.0347431
-0.0435391
-0.052823
-0.0625604
-0.0727179
-0.0832638
-0.0941676
-0.1054
-0.116933
-0.128739
-0.140794
-0.153073
-0.165551
-0.178208
-0.191023
-0.203973
-0.217042
-0.23021
-0.24346
-0.256776
-0.270143
-0.283545
-0.296968
-0.3104
-0.323829
-0.337242
-0.35063
-0.36398
-0.377285
-0.390534
-0.40372
-0.416835
-0.429871
-0.442821
-0.45568
-0.468441
-0.481099
-0.493649
-0.506086
-0.518407
-0.530608
-0.542684
-0.554634
-0.566454
-0.578141
-0.589695
-0.601112
-0.612391
-0.62353
-0.634529
-0.645386
-0.656101
-0.666672
-0.677101
-0.687385
-0.697526
-0.707523
-0.717377
-0.727087
-0.736654
-0.746079
-0.755363
-0.764506
-0.773508
-0.782372
-0.791097
-0.799685
-0.808138
-0.816455
-0.824639
-0.832691
-0.840612
-0.848403
-0.856066
-0.863602
-0.871013
-0.8783
-0.885465
-0.892509
-0.899434
-0.906241
-0.912932
-0.919508
-0.925971
-0.932323
-0.938565
-0.944699
-0.950726
-0.956648
-0.962466
-0.968182
-0.973798
-0.979314
-0.984733
-0.990057
-0.995286
-1.00042
-1.00547
-1.01042
-1.01529
-1.02007
-1.02476
-1.02937
-1.0339
-1.03834
-1.04271
-1.04699
-1.0512
-1.05533
0.022627
0.0221208
0.0204373
0.0178157
0.0143687
0.0101105
0.00506997
-0.000702801
-0.00715995
-0.0142601
-0.021964
-0.0302326
-0.0390282
-0.048315
-0.0580581
-0.0682245
-0.0787821
-0.0897005
-0.10095
-0.112503
-0.124333
-0.136414
-0.14872
-0.16123
-0.173921
-0.18677
-0.199759
-0.212868
-0.226079
-0.239374
-0.252736
-0.266151
-0.279603
-0.293079
-0.306565
-0.320049
-0.333519
-0.346965
-0.360375
-0.373741
-0.387052
-0.400302
-0.41348
-0.426581
-0.439598
-0.452523
-0.465352
-0.478078
-0.490697
-0.503204
-0.515594
-0.527865
-0.540012
-0.552032
-0.563923
-0.575681
-0.587306
-0.598794
-0.610144
-0.621354
-0.632424
-0.643352
-0.654137
-0.664779
-0.675277
-0.685632
-0.695842
-0.705908
-0.71583
-0.725609
-0.735244
-0.744736
-0.754086
-0.763295
-0.772364
-0.781293
-0.790082
-0.798735
-0.80725
-0.815631
-0.823877
-0.83199
-0.839972
-0.847823
-0.855546
-0.863141
-0.87061
-0.877955
-0.885177
-0.892277
-0.899257
-0.906119
-0.912864
-0.919494
-0.92601
-0.932414
-0.938708
-0.944892
-0.950969
-0.95694
-0.962807
-0.968571
-0.974234
-0.979797
-0.985262
-0.990631
-0.995905
-1.00108
-1.00617
-1.01117
-1.01608
-1.0209
-1.02563
-1.03028
-1.03485
-1.03933
-1.04374
-1.04806
-1.05231
-1.05647
0.0272317
0.0267663
0.0251184
0.0225291
0.0191108
0.0148776
0.00985835
0.00410334
-0.00233955
-0.00942895
-0.0171255
-0.0253901
-0.0341852
-0.0434746
-0.0532237
-0.0633993
-0.0739693
-0.0849032
-0.0961715
-0.107746
-0.1196
-0.131708
-0.144045
-0.156588
-0.169313
-0.182201
-0.195231
-0.208383
-0.221639
-0.234981
-0.248393
-0.26186
-0.275366
-0.288898
-0.302441
-0.315985
-0.329516
-0.343024
-0.356498
-0.369929
-0.383307
-0.396624
-0.409871
-0.423042
-0.43613
-0.449127
-0.462028
-0.474827
-0.48752
-0.500101
-0.512566
-0.524912
-0.537134
-0.549231
-0.561197
-0.573032
-0.584733
-0.596297
-0.607723
-0.61901
-0.630156
-0.64116
-0.652021
-0.662738
-0.673312
-0.683741
-0.694026
-0.704166
-0.714162
-0.724014
-0.733722
-0.743287
-0.752709
-0.761989
-0.771129
-0.780127
-0.788987
-0.797708
-0.806292
-0.81474
-0.823053
-0.831232
-0.83928
-0.847196
-0.854983
-0.862641
-0.870173
-0.87758
-0.884863
-0.892024
-0.899064
-0.905985
-0.912788
-0.919475
-0.926048
-0.932508
-0.938857
-0.945096
-0.951227
-0.957251
-0.96317
-0.968986
-0.9747
-0.980313
-0.985828
-0.991245
-0.996567
-1.00179
-1.00693
-1.01197
-1.01693
-1.02179
-1.02657
-1.03126
-1.03587
-1.0404
-1.04484
-1.04921
-1.05349
-1.0577
0.0321445
0.0317228
0.030113
0.0275582
0.0241708
0.0199644
0.014968
0.00923215
0.0028047
-0.00427297
-0.0119614
-0.0202216
-0.0290158
-0.0383078
-0.048063
-0.058248
-0.0688309
-0.0797809
-0.0910686
-0.102666
-0.114546
-0.126682
-0.139051
-0.151628
-0.164392
-0.17732
-0.190393
-0.20359
-0.216894
-0.230287
-0.243752
-0.257274
-0.270837
-0.284428
-0.298033
-0.311639
-0.325235
-0.338809
-0.352352
-0.365852
-0.379301
-0.39269
-0.406011
-0.419256
-0.432419
-0.445493
-0.458471
-0.471348
-0.484119
-0.49678
-0.509325
-0.521751
-0.534054
-0.546231
-0.558279
-0.570195
-0.581977
-0.593623
-0.605131
-0.616499
-0.627726
-0.638811
-0.649753
-0.660552
-0.671206
-0.681715
-0.69208
-0.702299
-0.712374
-0.722305
-0.732091
-0.741733
-0.751232
-0.760588
-0.769803
-0.778877
-0.787811
-0.796605
-0.805262
-0.813783
-0.822167
-0.830418
-0.838535
-0.846521
-0.854376
-0.862102
-0.869701
-0.877174
-0.884523
-0.891748
-0.898852
-0.905836
-0.912702
-0.919451
-0.926085
-0.932605
-0.939013
-0.94531
-0.951499
-0.95758
-0.963555
-0.969426
-0.975194
-0.980861
-0.986429
-0.991899
-0.997272
-1.00255
-1.00773
-1.01283
-1.01783
-1.02274
-1.02757
-1.03231
-1.03696
-1.04153
-1.04602
-1.05043
-1.05476
-1.05901
0.0373598
0.0369844
0.0354153
0.0328972
0.0295427
0.0253649
0.0203931
0.0146778
0.00826699
0.00120205
-0.00647752
-0.0147326
-0.0235255
-0.03282
-0.0425813
-0.052776
-0.0633722
-0.074339
-0.0856469
-0.0972678
-0.109175
-0.121341
-0.133744
-0.146357
-0.15916
-0.172131
-0.185249
-0.198494
-0.211849
-0.225295
-0.238816
-0.252396
-0.26602
-0.279673
-0.293343
-0.307016
-0.32068
-0.334325
-0.347939
-0.361513
-0.375037
-0.388502
-0.401901
-0.415226
-0.428468
-0.441623
-0.454683
-0.467643
-0.480498
-0.493242
-0.505872
-0.518383
-0.530772
-0.543035
-0.555169
-0.567172
-0.57904
-0.590773
-0.602367
-0.613822
-0.625136
-0.636307
-0.647335
-0.65822
-0.668959
-0.679554
-0.690003
-0.700307
-0.710466
-0.72048
-0.730349
-0.740073
-0.749654
-0.759091
-0.768387
-0.77754
-0.786553
-0.795426
-0.804161
-0.812758
-0.821219
-0.829545
-0.837737
-0.845796
-0.853725
-0.861524
-0.869194
-0.876738
-0.884156
-0.89145
-0.898623
-0.905674
-0.912606
-0.919421
-0.926119
-0.932703
-0.939174
-0.945534
-0.951784
-0.957925
-0.96396
-0.96989
-0.975717
-0.981441
-0.987065
-0.992591
-0.998019
-1.00335
-1.00859
-1.01373
-1.01879
-1.02375
-1.02863
-1.03342
-1.03812
-1.04274
-1.04728
-1.05173
-1.05611
-1.0604
0.042872
0.0425457
0.0410195
0.0385405
0.0352209
0.0310736
0.0261279
0.0204346
0.0140417
0.00699052
-0.000679354
-0.00892879
-0.0177199
-0.0270166
-0.0367839
-0.0469885
-0.0575983
-0.0685825
-0.0799114
-0.0915569
-0.103492
-0.11569
-0.128127
-0.140779
-0.153623
-0.166638
-0.179804
-0.1931
-0.206507
-0.22001
-0.233589
-0.24723
-0.260917
-0.274637
-0.288374
-0.302117
-0.315854
-0.329573
-0.343263
-0.356915
-0.370518
-0.384064
-0.397545
-0.410952
-0.424279
-0.437519
-0.450666
-0.463714
-0.476656
-0.48949
-0.502209
-0.514811
-0.52729
-0.539644
-0.551869
-0.563963
-0.575923
-0.587747
-0.599433
-0.61098
-0.622385
-0.633648
-0.644767
-0.655742
-0.666572
-0.677257
-0.687796
-0.69819
-0.708438
-0.71854
-0.728496
-0.738308
-0.747975
-0.757499
-0.766879
-0.776118
-0.785215
-0.794171
-0.802988
-0.811667
-0.820208
-0.828614
-0.836885
-0.845023
-0.853029
-0.860905
-0.868651
-0.876269
-0.883762
-0.891129
-0.898374
-0.905496
-0.912499
-0.919383
-0.92615
-0.932802
-0.93934
-0.945766
-0.952081
-0.958287
-0.964385
-0.970377
-0.976265
-0.982051
-0.987735
-0.993319
-0.998805
-1.0042
-1.00949
-1.01469
-1.0198
-1.02482
-1.02975
-1.03459
-1.03934
-1.04401
-1.0486
-1.0531
-1.05753
-1.06187
0.0486755
0.0484009
0.0469202
0.0444824
0.0411999
0.0370849
0.032167
0.0264971
0.0201233
0.013087
0.00542767
-0.00281539
-0.0116043
-0.0209028
-0.0306761
-0.0408907
-0.0515144
-0.0625163
-0.0738669
-0.0855377
-0.0975016
-0.109733
-0.122206
-0.134897
-0.147785
-0.160846
-0.174061
-0.18741
-0.200873
-0.214434
-0.228075
-0.24178
-0.255534
-0.269322
-0.283131
-0.296948
-0.31076
-0.324557
-0.338326
-0.352059
-0.365746
-0.379376
-0.392943
-0.406438
-0.419854
-0.433184
-0.446422
-0.459561
-0.472597
-0.485524
-0.498338
-0.511034
-0.523608
-0.536058
-0.548379
-0.56057
-0.572626
-0.584547
-0.59633
-0.607973
-0.619474
-0.630834
-0.642049
-0.65312
-0.664046
-0.674826
-0.68546
-0.695948
-0.706289
-0.716484
-0.726534
-0.736438
-0.746197
-0.755811
-0.765281
-0.774609
-0.783794
-0.792839
-0.801743
-0.810508
-0.819135
-0.827625
-0.83598
-0.8442
-0.852288
-0.860244
-0.868071
-0.875768
-0.883339
-0.890784
-0.898105
-0.905303
-0.91238
-0.919338
-0.926177
-0.932901
-0.939509
-0.946005
-0.952389
-0.958663
-0.964828
-0.970887
-0.97684
-0.98269
-0.988437
-0.994084
-0.999632
-1.00508
-1.01044
-1.0157
-1.02086
-1.02594
-1.03092
-1.03582
-1.04063
-1.04535
-1.04999
-1.05455
-1.05902
-1.06341
0.0547649
0.0545448
0.053112
0.0507176
0.0474741
0.0433933
0.0385049
0.0328599
0.0265065
0.0194861
0.0118383
0.00360235
-0.0051838
-0.0144838
-0.0242629
-0.0344874
-0.0451252
-0.0561452
-0.067518
-0.0792149
-0.0912088
-0.103474
-0.115984
-0.128717
-0.141649
-0.154759
-0.168025
-0.181428
-0.19495
-0.208571
-0.222276
-0.236048
-0.249871
-0.263731
-0.277615
-0.291509
-0.3054
-0.319278
-0.333131
-0.346949
-0.360723
-0.374442
-0.388099
-0.401686
-0.415195
-0.428619
-0.441952
-0.455188
-0.468321
-0.481346
-0.494259
-0.507054
-0.519729
-0.532279
-0.544701
-0.556993
-0.569151
-0.581173
-0.593057
-0.604802
-0.616405
-0.627865
-0.639182
-0.650354
-0.66138
-0.67226
-0.682993
-0.69358
-0.704021
-0.714314
-0.724461
-0.734462
-0.744317
-0.754027
-0.763592
-0.773014
-0.782292
-0.791429
-0.800424
-0.80928
-0.817997
-0.826576
-0.835019
-0.843327
-0.851501
-0.859543
-0.867453
-0.875234
-0.882887
-0.890413
-0.897815
-0.905092
-0.912248
-0.919283
-0.926199
-0.932998
-0.939681
-0.94625
-0.952707
-0.959052
-0.965288
-0.971417
-0.977439
-0.983356
-0.98917
-0.994883
-1.0005
-1.00601
-1.01143
-1.01675
-1.02198
-1.02711
-1.03216
-1.03711
-1.04198
-1.04676
-1.05146
-1.05607
-1.0606
-1.06504
0.0611352
0.060972
0.0595895
0.0572408
0.0540383
0.0499936
0.0451362
0.0395177
0.0331861
0.0261827
0.0185474
0.0103193
0.00153658
-0.00776452
-0.0175491
-0.0277834
-0.0384354
-0.0494739
-0.0608692
-0.0725929
-0.0846176
-0.0969171
-0.109466
-0.122242
-0.13522
-0.148379
-0.161699
-0.175159
-0.18874
-0.202425
-0.216196
-0.230038
-0.243933
-0.257868
-0.271829
-0.285803
-0.299777
-0.31374
-0.32768
-0.341587
-0.355451
-0.369263
-0.383014
-0.396697
-0.410303
-0.423825
-0.437258
-0.450595
-0.463829
-0.476957
-0.489973
-0.502873
-0.515652
-0.528307
-0.540835
-0.553232
-0.565496
-0.577625
-0.589615
-0.601466
-0.613176
-0.624742
-0.636165
-0.647442
-0.658574
-0.669559
-0.680397
-0.691088
-0.701632
-0.712028
-0.722277
-0.73238
-0.742336
-0.752146
-0.761811
-0.771331
-0.780707
-0.789941
-0.799033
-0.807984
-0.816795
-0.825468
-0.834003
-0.842402
-0.850667
-0.858798
-0.866797
-0.874666
-0.882405
-0.890017
-0.897503
-0.904864
-0.912102
-0.919219
-0.926215
-0.933093
-0.939855
-0.946501
-0.953034
-0.959455
-0.965765
-0.971967
-0.978061
-0.984049
-0.989934
-0.995715
-1.0014
-1.00698
-1.01246
-1.01785
-1.02314
-1.02834
-1.03345
-1.03846
-1.04339
-1.04823
-1.05299
-1.05766
-1.06224
-1.06674
0.067781
0.0676774
0.0663475
0.0640467
0.0608874
0.0568805
0.052056
0.0464654
0.0401568
0.0331718
0.0255499
0.0173306
0.00855194
-0.00074972
-0.0105394
-0.0207835
-0.0314496
-0.0425067
-0.053925
-0.0656759
-0.0777321
-0.0900673
-0.102656
-0.115475
-0.128501
-0.141712
-0.155086
-0.168605
-0.182249
-0.195999
-0.209839
-0.223752
-0.237722
-0.251735
-0.265777
-0.279833
-0.293893
-0.307944
-0.321974
-0.335973
-0.349932
-0.36384
-0.377689
-0.391472
-0.405179
-0.418804
-0.432341
-0.445782
-0.459123
-0.472358
-0.485482
-0.49849
-0.511378
-0.524143
-0.536781
-0.549289
-0.561664
-0.573904
-0.586005
-0.597967
-0.609788
-0.621465
-0.632999
-0.644386
-0.655628
-0.666723
-0.67767
-0.68847
-0.699122
-0.709626
-0.719983
-0.730191
-0.740253
-0.750168
-0.759937
-0.76956
-0.779039
-0.788375
-0.797567
-0.806618
-0.815528
-0.824298
-0.832931
-0.841426
-0.849785
-0.85801
-0.866102
-0.874062
-0.881892
-0.889594
-0.897168
-0.904617
-0.911941
-0.919143
-0.926224
-0.933185
-0.940029
-0.946756
-0.953369
-0.959869
-0.966257
-0.972535
-0.978705
-0.984768
-0.990726
-0.99658
-1.00233
-1.00798
-1.01354
-1.01899
-1.02435
-1.02962
-1.03479
-1.03987
-1.04486
-1.04977
-1.05458
-1.05931
-1.06396
-1.06851
0.0746975
0.074656
0.0733811
0.0711304
0.0680161
0.064049
0.059259
0.0536979
0.0474139
0.0404483
0.032841
0.0246314
0.0158575
0.00655588
-0.00323855
-0.0134921
-0.0241723
-0.0352481
-0.0466896
-0.0584682
-0.0705564
-0.082928
-0.0955577
-0.108421
-0.121496
-0.134759
-0.148191
-0.16177
-0.175477
-0.189295
-0.203206
-0.217193
-0.231241
-0.245334
-0.259459
-0.273602
-0.28775
-0.301892
-0.316016
-0.330111
-0.344167
-0.358175
-0.372127
-0.386012
-0.399825
-0.413557
-0.427201
-0.440752
-0.454203
-0.467549
-0.480785
-0.493907
-0.506909
-0.519788
-0.532541
-0.545164
-0.557654
-0.570009
-0.582227
-0.594305
-0.606241
-0.618034
-0.629683
-0.641186
-0.652542
-0.663752
-0.674813
-0.685727
-0.696491
-0.707108
-0.717576
-0.727896
-0.738068
-0.748092
-0.75797
-0.767701
-0.777287
-0.786729
-0.796026
-0.805181
-0.814195
-0.823067
-0.831801
-0.840396
-0.848855
-0.857178
-0.865366
-0.873423
-0.881348
-0.889143
-0.89681
-0.90435
-0.911765
-0.919056
-0.926225
-0.933273
-0.940203
-0.947015
-0.953711
-0.960293
-0.966762
-0.973121
-0.97937
-0.985511
-0.991546
-0.997476
-1.0033
-1.00903
-1.01465
-1.02018
-1.02561
-1.03095
-1.03619
-1.04134
-1.04639
-1.05136
-1.05624
-1.06104
-1.06574
-1.07036
0.0818796
0.0819028
0.0806852
0.0784867
0.0754196
0.0714941
0.0667404
0.0612104
0.0549523
0.0480075
0.0404158
0.0322169
0.0234487
0.0141477
0.00434904
-0.00591357
-0.0166077
-0.0277022
-0.039167
-0.0509737
-0.0630945
-0.0755031
-0.0881742
-0.101084
-0.114208
-0.127526
-0.141015
-0.154656
-0.168429
-0.182317
-0.1963
-0.210364
-0.224491
-0.238668
-0.252878
-0.26711
-0.28135
-0.295586
-0.309807
-0.324001
-0.338159
-0.35227
-0.366327
-0.38032
-0.394241
-0.408084
-0.42184
-0.435504
-0.44907
-0.462532
-0.475884
-0.489123
-0.502243
-0.515241
-0.528113
-0.540856
-0.553466
-0.565942
-0.578279
-0.590478
-0.602534
-0.614448
-0.626217
-0.63784
-0.649316
-0.660645
-0.671825
-0.682856
-0.693739
-0.704473
-0.715057
-0.725493
-0.73578
-0.745918
-0.755909
-0.765753
-0.775451
-0.785003
-0.79441
-0.803674
-0.812794
-0.821774
-0.830613
-0.839313
-0.847874
-0.8563
-0.86459
-0.872746
-0.88077
-0.888663
-0.896426
-0.904062
-0.911571
-0.918955
-0.926216
-0.933356
-0.940375
-0.947275
-0.954059
-0.960727
-0.967281
-0.973723
-0.980055
-0.986278
-0.992393
-0.998402
-1.00431
-1.01011
-1.01581
-1.02141
-1.02692
-1.03232
-1.03764
-1.04286
-1.04798
-1.05302
-1.05797
-1.06283
-1.0676
-1.07228
0.0893226
0.0894129
0.0882549
0.0861108
0.083093
0.079211
0.0744953
0.068998
0.0627672
0.0558445
0.0482698
0.0400825
0.0313208
0.0220213
0.012219
0.00194767
-0.00876009
-0.0198731
-0.0313614
-0.0431962
-0.0553499
-0.0677961
-0.0805093
-0.0934653
-0.106641
-0.120014
-0.133562
-0.147267
-0.161108
-0.175066
-0.189125
-0.203267
-0.217477
-0.231738
-0.246037
-0.260361
-0.274695
-0.289028
-0.303349
-0.317645
-0.331908
-0.346126
-0.360292
-0.374396
-0.38843
-0.402387
-0.416259
-0.43004
-0.443724
-0.457306
-0.470779
-0.484139
-0.497382
-0.510503
-0.523499
-0.536366
-0.5491
-0.561701
-0.574163
-0.586487
-0.598668
-0.610707
-0.622601
-0.634348
-0.645949
-0.657401
-0.668705
-0.679859
-0.690864
-0.70172
-0.712425
-0.722981
-0.733387
-0.743645
-0.753754
-0.763715
-0.773528
-0.783195
-0.792717
-0.802093
-0.811326
-0.820417
-0.829366
-0.838174
-0.846844
-0.855376
-0.863771
-0.872031
-0.880158
-0.888153
-0.896017
-0.903752
-0.911359
-0.918841
-0.926197
-0.933431
-0.940544
-0.947536
-0.954411
-0.961169
-0.967811
-0.974341
-0.980759
-0.987066
-0.993265
-0.999357
-1.00534
-1.01123
-1.01701
-1.02269
-1.02827
-1.03375
-1.03914
-1.04443
-1.04963
-1.05474
-1.05976
-1.06468
-1.06952
-1.07427
0.0970217
0.0971817
0.0960855
0.0939981
0.0910314
0.0871948
0.0825189
0.077056
0.0708541
0.0639549
0.0563983
0.0482237
0.0394695
0.0301722
0.0203669
0.0100875
-0.000633536
-0.0117649
-0.0232765
-0.0351397
-0.0473266
-0.0598107
-0.0725666
-0.0855699
-0.0987973
-0.112226
-0.125836
-0.139605
-0.153515
-0.167547
-0.181682
-0.195905
-0.210198
-0.224547
-0.238938
-0.253355
-0.267787
-0.28222
-0.296643
-0.311045
-0.325415
-0.339744
-0.354022
-0.36824
-0.382391
-0.396465
-0.410457
-0.42436
-0.438167
-0.451872
-0.46547
-0.478956
-0.492325
-0.505574
-0.518697
-0.531693
-0.544557
-0.557286
-0.569878
-0.582331
-0.594642
-0.60681
-0.618833
-0.63071
-0.64244
-0.65402
-0.665452
-0.676734
-0.687866
-0.698848
-0.709679
-0.72036
-0.73089
-0.741271