/*--------------------------------*- C++ -*----------------------------------*\
  =========                 |
  \\      /  F ield         | OpenFOAM: The Open Source CFD Toolbox
   \\    /   O peration     | Website:  https://openfoam.org
    \\  /    A nd           | Version:  8
     \\/     M anipulation  |
\*---------------------------------------------------------------------------*/
FoamFile
{
    version     2.0;
    format      ascii;
    class       volScalarField;
    location    "4";
    object      p;
}
// * * * * * * * * * * * * * * * * * * * * * * * * * * * * * * * * * * * * * //

dimensions      [0 2 -2 0 0 0 0];

internalField   nonuniform List<scalar> 
262620
(
-1.35399
-1.3542
-1.35487
-1.35587
-1.35719
-1.35881
-1.36071
-1.36289
-1.36531
-1.36797
-1.37085
-1.37394
-1.37721
-1.38066
-1.38426
-1.38802
-1.39191
-1.39592
-1.40005
-1.40427
-1.40859
-1.41299
-1.41746
-1.42199
-1.42657
-1.4312
-1.43587
-1.44057
-1.44529
-1.45004
-1.45479
-1.45955
-1.46432
-1.46907
-1.47382
-1.47856
-1.48328
-1.48798
-1.49266
-1.49731
-1.50193
-1.50652
-1.51107
-1.51559
-1.52006
-1.52449
-1.52888
-1.53323
-1.53753
-1.54178
-1.54598
-1.55013
-1.55423
-1.55828
-1.56228
-1.56623
-1.57012
-1.57396
-1.57775
-1.58148
-1.58516
-1.58878
-1.59235
-1.59587
-1.59933
-1.60274
-1.60609
-1.60939
-1.61264
-1.61584
-1.61898
-1.62208
-1.62512
-1.62811
-1.63105
-1.63394
-1.63679
-1.63958
-1.64233
-1.64502
-1.64768
-1.65028
-1.65284
-1.65536
-1.65783
-1.66025
-1.66264
-1.66498
-1.66728
-1.66954
-1.67176
-1.67393
-1.67607
-1.67817
-1.68024
-1.68226
-1.68425
-1.6862
-1.68812
-1.69
-1.69185
-1.69367
-1.69545
-1.6972
-1.69891
-1.7006
-1.70225
-1.70388
-1.70548
-1.70704
-1.70858
-1.71009
-1.71157
-1.71303
-1.71446
-1.71586
-1.71724
-1.7186
-1.71993
-1.72123
-1.35386
-1.35407
-1.35473
-1.35574
-1.35705
-1.35867
-1.36057
-1.36275
-1.36517
-1.36783
-1.37071
-1.37379
-1.37707
-1.38051
-1.38412
-1.38788
-1.39177
-1.39578
-1.39991
-1.40413
-1.40845
-1.41285
-1.41732
-1.42185
-1.42644
-1.43107
-1.43574
-1.44044
-1.44517
-1.44991
-1.45467
-1.45943
-1.4642
-1.46896
-1.47371
-1.47845
-1.48318
-1.48788
-1.49256
-1.49721
-1.50183
-1.50642
-1.51098
-1.5155
-1.51997
-1.52441
-1.5288
-1.53315
-1.53745
-1.5417
-1.54591
-1.55007
-1.55417
-1.55822
-1.56222
-1.56617
-1.57007
-1.57391
-1.5777
-1.58143
-1.58511
-1.58874
-1.59231
-1.59583
-1.5993
-1.60271
-1.60607
-1.60937
-1.61262
-1.61582
-1.61897
-1.62207
-1.62511
-1.62811
-1.63105
-1.63395
-1.63679
-1.63959
-1.64234
-1.64504
-1.64769
-1.6503
-1.65286
-1.65538
-1.65785
-1.66028
-1.66267
-1.66501
-1.66731
-1.66958
-1.6718
-1.67398
-1.67612
-1.67822
-1.68029
-1.68231
-1.6843
-1.68626
-1.68818
-1.69006
-1.69191
-1.69373
-1.69551
-1.69727
-1.69898
-1.70067
-1.70233
-1.70396
-1.70555
-1.70712
-1.70866
-1.71018
-1.71166
-1.71312
-1.71455
-1.71595
-1.71734
-1.71869
-1.72002
-1.72133
-1.35363
-1.35384
-1.3545
-1.3555
-1.35681
-1.35842
-1.36033
-1.3625
-1.36492
-1.36758
-1.37046
-1.37354
-1.37682
-1.38026
-1.38387
-1.38763
-1.39152
-1.39553
-1.39966
-1.40389
-1.40821
-1.41261
-1.41708
-1.42162
-1.42621
-1.43084
-1.43552
-1.44022
-1.44495
-1.4497
-1.45446
-1.45923
-1.46399
-1.46876
-1.47352
-1.47826
-1.48299
-1.4877
-1.49238
-1.49704
-1.50167
-1.50626
-1.51082
-1.51534
-1.51983
-1.52427
-1.52866
-1.53302
-1.53732
-1.54158
-1.54579
-1.54995
-1.55406
-1.55812
-1.56213
-1.56608
-1.56998
-1.57383
-1.57762
-1.58136
-1.58505
-1.58868
-1.59226
-1.59578
-1.59925
-1.60267
-1.60603
-1.60934
-1.61259
-1.6158
-1.61895
-1.62205
-1.6251
-1.6281
-1.63105
-1.63395
-1.6368
-1.6396
-1.64235
-1.64505
-1.64771
-1.65032
-1.65289
-1.65541
-1.65789
-1.66032
-1.66271
-1.66506
-1.66737
-1.66963
-1.67185
-1.67404
-1.67618
-1.67829
-1.68036
-1.68239
-1.68438
-1.68634
-1.68826
-1.69015
-1.692
-1.69382
-1.69561
-1.69736
-1.69909
-1.70078
-1.70244
-1.70407
-1.70567
-1.70724
-1.70878
-1.7103
-1.71178
-1.71324
-1.71468
-1.71609
-1.71747
-1.71883
-1.72016
-1.72147
-1.35329
-1.35349
-1.35414
-1.35514
-1.35645
-1.35806
-1.35996
-1.36213
-1.36455
-1.36721
-1.37009
-1.37317
-1.37644
-1.37989
-1.3835
-1.38725
-1.39115
-1.39516
-1.39929
-1.40353
-1.40785
-1.41225
-1.41673
-1.42127
-1.42586
-1.4305
-1.43518
-1.43989
-1.44462
-1.44938
-1.45414
-1.45891
-1.46369
-1.46846
-1.47322
-1.47797
-1.48271
-1.48742
-1.49211
-1.49678
-1.50141
-1.50601
-1.51058
-1.51511
-1.5196
-1.52405
-1.52845
-1.53281
-1.53713
-1.54139
-1.54561
-1.54978
-1.5539
-1.55796
-1.56198
-1.56594
-1.56985
-1.5737
-1.5775
-1.58125
-1.58494
-1.58858
-1.59217
-1.5957
-1.59917
-1.6026
-1.60597
-1.60928
-1.61255
-1.61576
-1.61892
-1.62203
-1.62508
-1.62809
-1.63104
-1.63395
-1.6368
-1.63961
-1.64237
-1.64508
-1.64775
-1.65037
-1.65294
-1.65547
-1.65795
-1.66039
-1.66278
-1.66514
-1.66745
-1.66972
-1.67195
-1.67414
-1.67629
-1.6784
-1.68048
-1.68251
-1.68451
-1.68647
-1.6884
-1.6903
-1.69215
-1.69398
-1.69577
-1.69753
-1.69926
-1.70095
-1.70262
-1.70425
-1.70585
-1.70743
-1.70898
-1.7105
-1.71199
-1.71345
-1.71489
-1.7163
-1.71769
-1.71905
-1.72039
-1.7217
-1.35283
-1.35303
-1.35368
-1.35467
-1.35597
-1.35758
-1.35948
-1.36164
-1.36406
-1.36672
-1.36959
-1.37268
-1.37595
-1.37939
-1.383
-1.38676
-1.39066
-1.39468
-1.39881
-1.40304
-1.40737
-1.41178
-1.41626
-1.4208
-1.4254
-1.43005
-1.43473
-1.43945
-1.44419
-1.44895
-1.45372
-1.4585
-1.46328
-1.46806
-1.47283
-1.47759
-1.48234
-1.48706
-1.49176
-1.49643
-1.50108
-1.50569
-1.51026
-1.5148
-1.5193
-1.52376
-1.52818
-1.53255
-1.53687
-1.54115
-1.54537
-1.54955
-1.55368
-1.55775
-1.56178
-1.56575
-1.56967
-1.57353
-1.57734
-1.5811
-1.5848
-1.58845
-1.59205
-1.59559
-1.59907
-1.60251
-1.60589
-1.60921
-1.61249
-1.61571
-1.61888
-1.62199
-1.62506
-1.62807
-1.63104
-1.63395
-1.63681
-1.63963
-1.6424
-1.64512
-1.64779
-1.65042
-1.653
-1.65553
-1.65803
-1.66047
-1.66288
-1.66524
-1.66756
-1.66983
-1.67207
-1.67427
-1.67643
-1.67854
-1.68063
-1.68267
-1.68467
-1.68664
-1.68858
-1.69048
-1.69234
-1.69417
-1.69597
-1.69774
-1.69947
-1.70117
-1.70284
-1.70448
-1.70609
-1.70767
-1.70923
-1.71075
-1.71225
-1.71372
-1.71516
-1.71658
-1.71797
-1.71934
-1.72068
-1.72199
-1.35227
-1.35246
-1.3531
-1.35408
-1.35538
-1.35698
-1.35888
-1.36104
-1.36346
-1.36611
-1.36898
-1.37206
-1.37533
-1.37878
-1.38239
-1.38615
-1.39005
-1.39407
-1.39821
-1.40245
-1.40678
-1.41119
-1.41568
-1.42023
-1.42483
-1.42948
-1.43418
-1.4389
-1.44365
-1.44842
-1.4532
-1.45799
-1.46278
-1.46757
-1.47235
-1.47712
-1.48188
-1.48661
-1.49132
-1.49601
-1.50066
-1.50529
-1.50987
-1.51442
-1.51894
-1.52341
-1.52783
-1.53221
-1.53655
-1.54084
-1.54508
-1.54927
-1.55341
-1.5575
-1.56153
-1.56552
-1.56945
-1.57332
-1.57715
-1.58092
-1.58463
-1.58829
-1.5919
-1.59545
-1.59895
-1.6024
-1.60579
-1.60913
-1.61241
-1.61564
-1.61882
-1.62195
-1.62503
-1.62805
-1.63103
-1.63395
-1.63683
-1.63965
-1.64243
-1.64516
-1.64785
-1.65048
-1.65307
-1.65562
-1.65812
-1.66058
-1.66299
-1.66536
-1.66769
-1.66998
-1.67222
-1.67443
-1.6766
-1.67873
-1.68081
-1.68287
-1.68488
-1.68686
-1.6888
-1.69071
-1.69258
-1.69442
-1.69623
-1.698
-1.69974
-1.70145
-1.70313
-1.70477
-1.70639
-1.70798
-1.70954
-1.71107
-1.71257
-1.71405
-1.7155
-1.71692
-1.71832
-1.71969
-1.72104
-1.72236
-1.35161
-1.35178
-1.35241
-1.35339
-1.35468
-1.35627
-1.35816
-1.36032
-1.36273
-1.36538
-1.36826
-1.37134
-1.37461
-1.37806
-1.38167
-1.38543
-1.38933
-1.39336
-1.3975
-1.40174
-1.40608
-1.41049
-1.41499
-1.41954
-1.42416
-1.42882
-1.43352
-1.43825
-1.44301
-1.44779
-1.45258
-1.45738
-1.46219
-1.46699
-1.47178
-1.47656
-1.48133
-1.48608
-1.4908
-1.4955
-1.50017
-1.50481
-1.50941
-1.51397
-1.5185
-1.52298
-1.52742
-1.53182
-1.53617
-1.54047
-1.54473
-1.54893
-1.55309
-1.55719
-1.56124
-1.56524
-1.56919
-1.57308
-1.57692
-1.5807
-1.58443
-1.5881
-1.59173
-1.59529
-1.59881
-1.60226
-1.60567
-1.60902
-1.61232
-1.61557
-1.61876
-1.6219
-1.62499
-1.62803
-1.63102
-1.63396
-1.63684
-1.63968
-1.64247
-1.64522
-1.64791
-1.65056
-1.65316
-1.65572
-1.65824
-1.6607
-1.66313
-1.66551
-1.66785
-1.67015
-1.67241
-1.67462
-1.6768
-1.67894
-1.68104
-1.6831
-1.68512
-1.68711
-1.68906
-1.69098
-1.69286
-1.69471
-1.69653
-1.69831
-1.70006
-1.70178
-1.70346
-1.70512
-1.70674
-1.70834
-1.70991
-1.71145
-1.71296
-1.71444
-1.7159
-1.71733
-1.71874
-1.72012
-1.72147
-1.7228
-1.35084
-1.351
-1.35162
-1.35259
-1.35387
-1.35546
-1.35734
-1.35949
-1.3619
-1.36455
-1.36742
-1.3705
-1.37377
-1.37721
-1.38083
-1.38459
-1.3885
-1.39253
-1.39667
-1.40092
-1.40526
-1.40969
-1.41419
-1.41875
-1.42338
-1.42805
-1.43276
-1.4375
-1.44227
-1.44706
-1.45187
-1.45668
-1.4615
-1.46631
-1.47112
-1.47592
-1.4807
-1.48546
-1.4902
-1.49491
-1.4996
-1.50425
-1.50887
-1.51345
-1.51799
-1.52249
-1.52695
-1.53136
-1.53573
-1.54005
-1.54432
-1.54855
-1.55272
-1.55684
-1.56091
-1.56492
-1.56888
-1.57279
-1.57665
-1.58045
-1.58419
-1.58789
-1.59152
-1.59511
-1.59864
-1.60211
-1.60553
-1.6089
-1.61222
-1.61548
-1.61869
-1.62184
-1.62495
-1.628
-1.63101
-1.63396
-1.63686
-1.63972
-1.64252
-1.64528
-1.64799
-1.65065
-1.65327
-1.65584
-1.65837
-1.66085
-1.66329
-1.66568
-1.66803
-1.67035
-1.67262
-1.67484
-1.67703
-1.67918
-1.6813
-1.68337
-1.68541
-1.68741
-1.68937
-1.6913
-1.69319
-1.69505
-1.69687
-1.69867
-1.70043
-1.70216
-1.70385
-1.70552
-1.70715
-1.70876
-1.71034
-1.71189
-1.71341
-1.7149
-1.71637
-1.71781
-1.71922
-1.72061
-1.72197
-1.72331
-1.34997
-1.35012
-1.35072
-1.35168
-1.35295
-1.35453
-1.3564
-1.35855
-1.36096
-1.3636
-1.36647
-1.36954
-1.37281
-1.37626
-1.37988
-1.38364
-1.38755
-1.39159
-1.39574
-1.39999
-1.40434
-1.40878
-1.41329
-1.41786
-1.42249
-1.42717
-1.4319
-1.43665
-1.44144
-1.44624
-1.45106
-1.45589
-1.46072
-1.46555
-1.47037
-1.47519
-1.47998
-1.48476
-1.48952
-1.49425
-1.49895
-1.50362
-1.50826
-1.51286
-1.51742
-1.52194
-1.52642
-1.53085
-1.53524
-1.53957
-1.54387
-1.54811
-1.5523
-1.55644
-1.56052
-1.56456
-1.56854
-1.57247
-1.57634
-1.58016
-1.58393
-1.58764
-1.59129
-1.5949
-1.59844
-1.60194
-1.60538
-1.60876
-1.6121
-1.61538
-1.6186
-1.62178
-1.6249
-1.62797
-1.63099
-1.63396
-1.63688
-1.63975
-1.64258
-1.64535
-1.64808
-1.65075
-1.65339
-1.65597
-1.65852
-1.66101
-1.66347
-1.66588
-1.66824
-1.67057
-1.67285
-1.6751
-1.6773
-1.67946
-1.68159
-1.68368
-1.68573
-1.68774
-1.68971
-1.69165
-1.69356
-1.69543
-1.69727
-1.69907
-1.70085
-1.70259
-1.70429
-1.70597
-1.70762
-1.70924
-1.71082
-1.71238
-1.71391
-1.71542
-1.71689
-1.71834
-1.71977
-1.72117
-1.72254
-1.72388
-1.349
-1.34913
-1.34973
-1.35067
-1.35193
-1.3535
-1.35536
-1.35751
-1.3599
-1.36254
-1.36541
-1.36848
-1.37175
-1.3752
-1.37882
-1.38259
-1.3865
-1.39054
-1.3947
-1.39896
-1.40332
-1.40776
-1.41228
-1.41686
-1.42151
-1.4262
-1.43094
-1.43571
-1.4405
-1.44532
-1.45016
-1.455
-1.45985
-1.4647
-1.46954
-1.47437
-1.47919
-1.48398
-1.48876
-1.49351
-1.49823
-1.50292
-1.50758
-1.5122
-1.51678
-1.52132
-1.52582
-1.53027
-1.53468
-1.53904
-1.54335
-1.54762
-1.55183
-1.55599
-1.5601
-1.56415
-1.56816
-1.57211
-1.576
-1.57984
-1.58363
-1.58736
-1.59104
-1.59466
-1.59823
-1.60174
-1.6052
-1.60861
-1.61196
-1.61526
-1.61851
-1.62171
-1.62485
-1.62794
-1.63098
-1.63397
-1.63691
-1.6398
-1.64264
-1.64543
-1.64817
-1.65087
-1.65352
-1.65612
-1.65868
-1.6612
-1.66367
-1.66609
-1.66848
-1.67082
-1.67312
-1.67538
-1.6776
-1.67978
-1.68192
-1.68402
-1.68608
-1.68811
-1.6901
-1.69205
-1.69397
-1.69586
-1.69771
-1.69953
-1.70131
-1.70307
-1.70479
-1.70648
-1.70814
-1.70977
-1.71137
-1.71294
-1.71448
-1.716
-1.71748
-1.71894
-1.72038
-1.72179
-1.72317
-1.72452
-1.34793
-1.34805
-1.34863
-1.34956
-1.3508
-1.35236
-1.35422
-1.35635
-1.35874
-1.36138
-1.36424
-1.36731
-1.37058
-1.37403
-1.37765
-1.38143
-1.38534
-1.38939
-1.39355
-1.39782
-1.40219
-1.40664
-1.41117
-1.41577
-1.42042
-1.42513
-1.42988
-1.43466
-1.43948
-1.44431
-1.44917
-1.45403
-1.45889
-1.46376
-1.46862
-1.47347
-1.47831
-1.48313
-1.48792
-1.49269
-1.49744
-1.50215
-1.50683
-1.51147
-1.51608
-1.52064
-1.52516
-1.52964
-1.53407
-1.53845
-1.54279
-1.54708
-1.55131
-1.5555
-1.55963
-1.56371
-1.56773
-1.57171
-1.57563
-1.57949
-1.5833
-1.58706
-1.59076
-1.5944
-1.59799
-1.60153
-1.60501
-1.60844
-1.61182
-1.61514
-1.61841
-1.62162
-1.62479
-1.6279
-1.63096
-1.63397
-1.63693
-1.63984
-1.6427
-1.64551
-1.64828
-1.65099
-1.65366
-1.65629
-1.65887
-1.6614
-1.66389
-1.66633
-1.66873
-1.67109
-1.67341
-1.67569
-1.67792
-1.68012
-1.68228
-1.68439
-1.68647
-1.68852
-1.69052
-1.69249
-1.69443
-1.69633
-1.6982
-1.70003
-1.70183
-1.70359
-1.70533
-1.70703
-1.70871
-1.71035
-1.71196
-1.71355
-1.7151
-1.71663
-1.71813
-1.71961
-1.72105
-1.72248
-1.72387
-1.72523
-1.34676
-1.34686
-1.34743
-1.34834
-1.34958
-1.35112
-1.35297
-1.3551
-1.35748
-1.36011
-1.36297
-1.36604
-1.36931
-1.37276
-1.37638
-1.38016
-1.38408
-1.38813
-1.3923
-1.39658
-1.40095
-1.40542
-1.40996
-1.41457
-1.41924
-1.42396
-1.42872
-1.43353
-1.43836
-1.44321
-1.44808
-1.45296
-1.45785
-1.46274
-1.46762
-1.47249
-1.47735
-1.48219
-1.48701
-1.4918
-1.49657
-1.50131
-1.50601
-1.51068
-1.51531
-1.5199
-1.52444
-1.52895
-1.5334
-1.53781
-1.54217
-1.54649
-1.55075
-1.55496
-1.55912
-1.56322
-1.56727
-1.57127
-1.57522
-1.57911
-1.58294
-1.58672
-1.59045
-1.59412
-1.59774
-1.6013
-1.60481
-1.60826
-1.61166
-1.615
-1.6183
-1.62154
-1.62472
-1.62786
-1.63094
-1.63398
-1.63696
-1.63989
-1.64277
-1.64561
-1.64839
-1.65113
-1.65382
-1.65647
-1.65907
-1.66162
-1.66413
-1.66659
-1.66901
-1.67139
-1.67373
-1.67602
-1.67828
-1.68049
-1.68267
-1.68481
-1.6869
-1.68896
-1.69099
-1.69298
-1.69493
-1.69684
-1.69873
-1.70058
-1.70239
-1.70417
-1.70592
-1.70764
-1.70933
-1.71099
-1.71262
-1.71422
-1.71579
-1.71733
-1.71884
-1.72033
-1.72179
-1.72322
-1.72463
-1.726
-1.3455
-1.34558
-1.34613
-1.34703
-1.34825
-1.34979
-1.35162
-1.35374
-1.35612
-1.35874
-1.36159
-1.36466
-1.36793
-1.37138
-1.37501
-1.37879
-1.38271
-1.38677
-1.39095
-1.39523
-1.39962
-1.4041
-1.40865
-1.41327
-1.41796
-1.42269
-1.42748
-1.4323
-1.43715
-1.44202
-1.44691
-1.45181
-1.45672
-1.46163
-1.46653
-1.47143
-1.47631
-1.48118
-1.48602
-1.49084
-1.49563
-1.5004
-1.50513
-1.50982
-1.51448
-1.51909
-1.52367
-1.5282
-1.53268
-1.53712
-1.54151
-1.54585
-1.55014
-1.55438
-1.55856
-1.56269
-1.56677
-1.5708
-1.57477
-1.57869
-1.58255
-1.58636
-1.59012
-1.59381
-1.59746
-1.60105
-1.60458
-1.60806
-1.61149
-1.61486
-1.61818
-1.62144
-1.62466
-1.62782
-1.63092
-1.63398
-1.63699
-1.63995
-1.64285
-1.64571
-1.64852
-1.65128
-1.65399
-1.65666
-1.65928
-1.66186
-1.66439
-1.66687
-1.66932
-1.67172
-1.67408
-1.67639
-1.67867
-1.6809
-1.6831
-1.68525
-1.68737
-1.68945
-1.69149
-1.6935
-1.69547
-1.6974
-1.6993
-1.70117
-1.703
-1.7048
-1.70657
-1.7083
-1.71001
-1.71168
-1.71332
-1.71494
-1.71652
-1.71808
-1.71961
-1.72111
-1.72259
-1.72404
-1.72546
-1.72684
-1.34415
-1.34421
-1.34474
-1.34562
-1.34683
-1.34835
-1.35017
-1.35228
-1.35465
-1.35727
-1.36012
-1.36318
-1.36645
-1.3699
-1.37353
-1.37731
-1.38124
-1.38531
-1.38949
-1.39379
-1.39819
-1.40268
-1.40724
-1.41188
-1.41658
-1.42134
-1.42614
-1.43097
-1.43584
-1.44074
-1.44565
-1.45057
-1.4555
-1.46044
-1.46537
-1.47029
-1.47519
-1.48009
-1.48496
-1.48981
-1.49463
-1.49942
-1.50417
-1.5089
-1.51358
-1.51823
-1.52283
-1.52739
-1.5319
-1.53637
-1.54079
-1.54516
-1.54948
-1.55375
-1.55796
-1.56213
-1.56624
-1.57029
-1.5743
-1.57824
-1.58214
-1.58597
-1.58976
-1.59349
-1.59716
-1.60078
-1.60434
-1.60785
-1.6113
-1.6147
-1.61805
-1.62134
-1.62458
-1.62777
-1.6309
-1.63399
-1.63702
-1.64
-1.64294
-1.64582
-1.64865
-1.65144
-1.65418
-1.65687
-1.65952
-1.66211
-1.66467
-1.66718
-1.66964
-1.67207
-1.67445
-1.67678
-1.67908
-1.68134
-1.68355
-1.68573
-1.68787
-1.68997
-1.69203
-1.69406
-1.69605
-1.698
-1.69992
-1.7018
-1.70365
-1.70547
-1.70726
-1.70901
-1.71073
-1.71242
-1.71408
-1.71572
-1.71732
-1.71889
-1.72044
-1.72195
-1.72344
-1.72491
-1.72634
-1.72774
-1.34271
-1.34275
-1.34325
-1.34412
-1.34531
-1.34682
-1.34863
-1.35072
-1.35309
-1.3557
-1.35854
-1.36161
-1.36487
-1.36832
-1.37195
-1.37574
-1.37968
-1.38375
-1.38794
-1.39225
-1.39666
-1.40116
-1.40574
-1.41039
-1.41511
-1.41988
-1.4247
-1.42956
-1.43445
-1.43937
-1.4443
-1.44925
-1.45421
-1.45916
-1.46412
-1.46907
-1.474
-1.47892
-1.48382
-1.4887
-1.49355
-1.49837
-1.50316
-1.50791
-1.51263
-1.5173
-1.52194
-1.52653
-1.53107
-1.53557
-1.54002
-1.54443
-1.54878
-1.55308
-1.55733
-1.56152
-1.56566
-1.56975
-1.57379
-1.57777
-1.58169
-1.58556
-1.58937
-1.59313
-1.59684
-1.60049
-1.60408
-1.60762
-1.6111
-1.61453
-1.61791
-1.62123
-1.6245
-1.62772
-1.63088
-1.63399
-1.63706
-1.64007
-1.64303
-1.64594
-1.6488
-1.65161
-1.65438
-1.65709
-1.65976
-1.66239
-1.66497
-1.6675
-1.66999
-1.67244
-1.67484
-1.67721
-1.67953
-1.68181
-1.68404
-1.68624
-1.6884
-1.69053
-1.69261
-1.69466
-1.69667
-1.69864
-1.70058
-1.70249
-1.70436
-1.70619
-1.708
-1.70977
-1.71151
-1.71322
-1.7149
-1.71655
-1.71817
-1.71976
-1.72132
-1.72285
-1.72436
-1.72584
-1.72729
-1.7287
-1.34118
-1.34119
-1.34168
-1.34252
-1.34369
-1.34519
-1.34699
-1.34907
-1.35142
-1.35403
-1.35687
-1.35993
-1.36319
-1.36665
-1.37028
-1.37407
-1.37801
-1.38209
-1.38629
-1.39061
-1.39503
-1.39955
-1.40414
-1.40881
-1.41355
-1.41834
-1.42318
-1.42806
-1.43297
-1.43791
-1.44287
-1.44784
-1.45283
-1.45781
-1.46279
-1.46777
-1.47273
-1.47768
-1.48261
-1.48752
-1.4924
-1.49726
-1.50208
-1.50686
-1.51161
-1.51632
-1.52099
-1.52561
-1.53019
-1.53472
-1.53921
-1.54365
-1.54803
-1.55237
-1.55665
-1.56088
-1.56505
-1.56918
-1.57324
-1.57726
-1.58122
-1.58512
-1.58897
-1.59276
-1.5965
-1.60018
-1.6038
-1.60737
-1.61089
-1.61435
-1.61776
-1.62111
-1.62442
-1.62766
-1.63086
-1.634
-1.63709
-1.64013
-1.64312
-1.64606
-1.64895
-1.65179
-1.65459
-1.65733
-1.66003
-1.66268
-1.66529
-1.66785
-1.67037
-1.67284
-1.67527
-1.67765
-1.68
-1.6823
-1.68457
-1.68679
-1.68897
-1.69112
-1.69322
-1.69529
-1.69733
-1.69932
-1.70128
-1.70321
-1.7051
-1.70696
-1.70879
-1.71058
-1.71234
-1.71407
-1.71577
-1.71743
-1.71907
-1.72068
-1.72226
-1.72381
-1.72534
-1.72684
-1.7283
-1.72973
-1.33956
-1.33954
-1.34001
-1.34083
-1.34198
-1.34346
-1.34525
-1.34732
-1.34967
-1.35226
-1.3551
-1.35815
-1.36142
-1.36487
-1.3685
-1.3723
-1.37625
-1.38034
-1.38455
-1.38888
-1.39331
-1.39784
-1.40246
-1.40714
-1.4119
-1.41671
-1.42157
-1.42647
-1.43141
-1.43637
-1.44136
-1.44636
-1.45137
-1.45638
-1.46139
-1.4664
-1.47139
-1.47637
-1.48133
-1.48627
-1.49119
-1.49608
-1.50093
-1.50575
-1.51053
-1.51528
-1.51998
-1.52464
-1.52926
-1.53382
-1.53835
-1.54282
-1.54724
-1.55161
-1.55593
-1.5602
-1.56441
-1.56857
-1.57267
-1.57672
-1.58071
-1.58465
-1.58853
-1.59236
-1.59613
-1.59985
-1.60351
-1.60712
-1.61067
-1.61416
-1.6176
-1.62099
-1.62433
-1.62761
-1.63083
-1.63401
-1.63713
-1.6402
-1.64322
-1.64619
-1.64911
-1.65199
-1.65481
-1.65758
-1.66031
-1.66299
-1.66563
-1.66822
-1.67076
-1.67326
-1.67572
-1.67813
-1.6805
-1.68283
-1.68512
-1.68737
-1.68958
-1.69175
-1.69388
-1.69597
-1.69803
-1.70005
-1.70203
-1.70398
-1.70589
-1.70777
-1.70962
-1.71143
-1.71322
-1.71497
-1.71668
-1.71837
-1.72003
-1.72166
-1.72326
-1.72483
-1.72637
-1.72789
-1.72938
-1.73081
-1.33785
-1.33781
-1.33825
-1.33905
-1.34019
-1.34165
-1.34342
-1.34548
-1.34781
-1.3504
-1.35323
-1.35628
-1.35955
-1.363
-1.36664
-1.37044
-1.37439
-1.37849
-1.38271
-1.38705
-1.3915
-1.39604
-1.40067
-1.40538
-1.41015
-1.41499
-1.41987
-1.42479
-1.42976
-1.43475
-1.43976
-1.44479
-1.44982
-1.45487
-1.45991
-1.46495
-1.46998
-1.47499
-1.47999
-1.48496
-1.48991
-1.49483
-1.49972
-1.50458
-1.5094
-1.51418
-1.51892
-1.52362
-1.52827
-1.53287
-1.53743
-1.54194
-1.5464
-1.55081
-1.55517
-1.55947
-1.56372
-1.56792
-1.57206
-1.57615
-1.58018
-1.58416
-1.58808
-1.59194
-1.59575
-1.5995
-1.6032
-1.60684
-1.61043
-1.61396
-1.61744
-1.62086
-1.62423
-1.62754
-1.63081
-1.63401
-1.63717
-1.64028
-1.64333
-1.64633
-1.64929
-1.65219
-1.65504
-1.65785
-1.66061
-1.66332
-1.66598
-1.6686
-1.67118
-1.6737
-1.67619
-1.67863
-1.68103
-1.68339
-1.6857
-1.68798
-1.69021
-1.69241
-1.69457
-1.69669
-1.69877
-1.70081
-1.70282
-1.70479
-1.70673
-1.70863
-1.7105
-1.71234
-1.71414
-1.71591
-1.71765
-1.71936
-1.72104
-1.72269
-1.72431
-1.7259
-1.72747
-1.729
-1.73051
-1.73196
-1.33606
-1.33599
-1.33641
-1.33719
-1.3383
-1.33974
-1.3415
-1.34355
-1.34587
-1.34845
-1.35127
-1.35432
-1.35758
-1.36104
-1.36467
-1.36848
-1.37244
-1.37655
-1.38078
-1.38513
-1.3896
-1.39416
-1.3988
-1.40353
-1.40832
-1.41318
-1.41808
-1.42303
-1.42802
-1.43304
-1.43808
-1.44314
-1.4482
-1.45328
-1.45835
-1.46342
-1.46849
-1.47354
-1.47857
-1.48358
-1.48856
-1.49352
-1.49845
-1.50334
-1.5082
-1.51302
-1.5178
-1.52254
-1.52723
-1.53188
-1.53647
-1.54103
-1.54553
-1.54997
-1.55437
-1.55872
-1.56301
-1.56724
-1.57142
-1.57555
-1.57962
-1.58364
-1.5876
-1.5915
-1.59535
-1.59914
-1.60288
-1.60656
-1.61018
-1.61375
-1.61726
-1.62072
-1.62413
-1.62748
-1.63078
-1.63402
-1.63721
-1.64035
-1.64344
-1.64648
-1.64947
-1.6524
-1.65529
-1.65813
-1.66092
-1.66366
-1.66636
-1.66901
-1.67161
-1.67417
-1.67669
-1.67916
-1.68159
-1.68397
-1.68632
-1.68862
-1.69089
-1.69311
-1.69529
-1.69744
-1.69955
-1.70162
-1.70365
-1.70565
-1.70761
-1.70954
-1.71143
-1.71329
-1.71512
-1.71691
-1.71868
-1.72041
-1.72211
-1.72378
-1.72542
-1.72703
-1.72862
-1.73018
-1.7317
-1.73317
-1.33419
-1.33409
-1.33448
-1.33523
-1.33632
-1.33775
-1.33949
-1.34152
-1.34383
-1.3464
-1.34922
-1.35227
-1.35552
-1.35898
-1.36262
-1.36643
-1.3704
-1.37451
-1.37876
-1.38313
-1.3876
-1.39218
-1.39684
-1.40159
-1.4064
-1.41128
-1.41621
-1.42119
-1.4262
-1.43125
-1.43632
-1.44141
-1.44651
-1.45161
-1.45672
-1.46183
-1.46693
-1.47201
-1.47708
-1.48213
-1.48715
-1.49215
-1.49712
-1.50205
-1.50695
-1.51181
-1.51663
-1.52141
-1.52614
-1.53083
-1.53547
-1.54006
-1.5446
-1.54909
-1.55353
-1.55792
-1.56225
-1.56653
-1.57075
-1.57492
-1.57904
-1.58309
-1.58709
-1.59104
-1.59493
-1.59876
-1.60253
-1.60625
-1.60992
-1.61353
-1.61708
-1.62058
-1.62402
-1.62741
-1.63075
-1.63403
-1.63726
-1.64044
-1.64356
-1.64663
-1.64966
-1.65263
-1.65555
-1.65842
-1.66125
-1.66403
-1.66675
-1.66944
-1.67207
-1.67467
-1.67721
-1.67971
-1.68217
-1.68459
-1.68696
-1.6893
-1.69159
-1.69384
-1.69605
-1.69823
-1.70036
-1.70246
-1.70452
-1.70655
-1.70853
-1.71049
-1.71241
-1.71429
-1.71614
-1.71796
-1.71975
-1.7215
-1.72323
-1.72492
-1.72659
-1.72822
-1.72983
-1.73141
-1.73295
-1.73444
-1.33223
-1.3321
-1.33246
-1.33319
-1.33426
-1.33566
-1.33739
-1.33941
-1.34171
-1.34427
-1.34708
-1.35012
-1.35337
-1.35683
-1.36047
-1.36429
-1.36827
-1.37239
-1.37665
-1.38103
-1.38552
-1.39011
-1.39479
-1.39956
-1.4044
-1.4093
-1.41425
-1.41926
-1.4243
-1.42938
-1.43448
-1.4396
-1.44473
-1.44987
-1.45502
-1.46016
-1.46529
-1.47042
-1.47552
-1.48061
-1.48567
-1.49071
-1.49572
-1.5007
-1.50564
-1.51054
-1.5154
-1.52022
-1.525
-1.52973
-1.53442
-1.53905
-1.54364
-1.54817
-1.55266
-1.55709
-1.56146
-1.56579
-1.57005
-1.57426
-1.57842
-1.58252
-1.58657
-1.59055
-1.59448
-1.59836
-1.60218
-1.60594
-1.60965
-1.6133
-1.61689
-1.62043
-1.62391
-1.62734
-1.63072
-1.63404
-1.63731
-1.64052
-1.64368
-1.64679
-1.64985
-1.65286
-1.65582
-1.65873
-1.66159
-1.6644
-1.66717
-1.66988
-1.67256
-1.67518
-1.67776
-1.6803
-1.68279
-1.68524
-1.68764
-1.69
-1.69233
-1.69461
-1.69685
-1.69905
-1.70122
-1.70334
-1.70543
-1.70749
-1.7095
-1.71148
-1.71343
-1.71534
-1.71722
-1.71906
-1.72087
-1.72265
-1.7244
-1.72612
-1.72781
-1.72946
-1.73109
-1.7327
-1.73426
-1.73577
-1.33019
-1.33003
-1.33036
-1.33107
-1.33211
-1.33349
-1.3352
-1.3372
-1.33949
-1.34204
-1.34485
-1.34788
-1.35114
-1.35459
-1.35824
-1.36206
-1.36604
-1.37017
-1.37444
-1.37884
-1.38334
-1.38796
-1.39266
-1.39745
-1.40231
-1.40723
-1.41221
-1.41725
-1.42232
-1.42742
-1.43256
-1.43771
-1.44288
-1.44806
-1.45324
-1.45842
-1.46359
-1.46875
-1.4739
-1.47903
-1.48413
-1.48921
-1.49426
-1.49928
-1.50427
-1.50921
-1.51412
-1.51899
-1.52381
-1.52859
-1.53332
-1.538
-1.54263
-1.54721
-1.55174
-1.55622
-1.56064
-1.56501
-1.56932
-1.57358
-1.57778
-1.58192
-1.58601
-1.59005
-1.59402
-1.59794
-1.6018
-1.60561
-1.60936
-1.61305
-1.61669
-1.62027
-1.6238
-1.62727
-1.63068
-1.63405
-1.63736
-1.64061
-1.64381
-1.64696
-1.65006
-1.65311
-1.65611
-1.65905
-1.66195
-1.6648
-1.6676
-1.67035
-1.67306
-1.67572
-1.67833
-1.6809
-1.68343
-1.68591
-1.68835
-1.69074
-1.6931
-1.69541
-1.69768
-1.69992
-1.70211
-1.70427
-1.70639
-1.70847
-1.71051
-1.71252
-1.71449
-1.71643
-1.71834
-1.72021
-1.72205
-1.72385
-1.72563
-1.72737
-1.72908
-1.73076
-1.73242
-1.73404
-1.73563
-1.73716
-1.32807
-1.32788
-1.32818
-1.32886
-1.32988
-1.33124
-1.33293
-1.33491
-1.33719
-1.33973
-1.34253
-1.34556
-1.34881
-1.35227
-1.35591
-1.35974
-1.36373
-1.36787
-1.37215
-1.37656
-1.38108
-1.38571
-1.39044
-1.39525
-1.40013
-1.40508
-1.41009
-1.41515
-1.42026
-1.42539
-1.43056
-1.43575
-1.44095
-1.44617
-1.45139
-1.4566
-1.46182
-1.46702
-1.47221
-1.47738
-1.48253
-1.48765
-1.49275
-1.49781
-1.50284
-1.50784
-1.51279
-1.5177
-1.52257
-1.52739
-1.53217
-1.5369
-1.54158
-1.54621
-1.55079
-1.55531
-1.55978
-1.5642
-1.56856
-1.57286
-1.57711
-1.5813
-1.58544
-1.58952
-1.59354
-1.59751
-1.60141
-1.60527
-1.60906
-1.6128
-1.61648
-1.62011
-1.62368
-1.62719
-1.63065
-1.63405
-1.63741
-1.6407
-1.64395
-1.64714
-1.65028
-1.65336
-1.6564
-1.65939
-1.66232
-1.66521
-1.66805
-1.67084
-1.67358
-1.67628
-1.67893
-1.68153
-1.68409
-1.68661
-1.68908
-1.69151
-1.6939
-1.69625
-1.69855
-1.70082
-1.70304
-1.70523
-1.70738
-1.70949
-1.71156
-1.7136
-1.7156
-1.71757
-1.7195
-1.7214
-1.72327
-1.7251
-1.7269
-1.72867
-1.73041
-1.73212
-1.7338
-1.73545
-1.73706
-1.73861
-1.32588
-1.32565
-1.32592
-1.32657
-1.32756
-1.3289
-1.33057
-1.33254
-1.3348
-1.33733
-1.34012
-1.34315
-1.34639
-1.34985
-1.3535
-1.35733
-1.36133
-1.36548
-1.36978
-1.3742
-1.37874
-1.38339
-1.38813
-1.39296
-1.39787
-1.40285
-1.40789
-1.41298
-1.41811
-1.42328
-1.42849
-1.43371
-1.43895
-1.4442
-1.44946
-1.45472
-1.45997
-1.46522
-1.47045
-1.47567
-1.48086
-1.48603
-1.49117
-1.49628
-1.50136
-1.5064
-1.5114
-1.51636
-1.52128
-1.52615
-1.53098
-1.53576
-1.54049
-1.54517
-1.54979
-1.55437
-1.55889
-1.56335
-1.56776
-1.57212
-1.57641
-1.58066
-1.58484
-1.58897
-1.59304
-1.59705
-1.60101
-1.60491
-1.60875
-1.61253
-1.61626
-1.61993
-1.62355
-1.62711
-1.63061
-1.63406
-1.63746
-1.6408
-1.64409
-1.64732
-1.6505
-1.65363
-1.65671
-1.65973
-1.66271
-1.66564
-1.66852
-1.67134
-1.67413
-1.67686
-1.67955
-1.68219
-1.68479
-1.68734
-1.68985
-1.69231
-1.69474
-1.69712
-1.69946
-1.70175
-1.70401
-1.70623
-1.70841
-1.71056
-1.71266
-1.71473
-1.71676
-1.71876
-1.72072
-1.72265
-1.72454
-1.7264
-1.72823
-1.73003
-1.73179
-1.73353
-1.73523
-1.73691
-1.73854
-1.74011
-1.32361
-1.32334
-1.32358
-1.3242
-1.32516
-1.32648
-1.32813
-1.33008
-1.33233
-1.33485
-1.33763
-1.34065
-1.34389
-1.34735
-1.351
-1.35484
-1.35885
-1.36301
-1.36731
-1.37175
-1.37631
-1.38098
-1.38574
-1.3906
-1.39553
-1.40054
-1.4056
-1.41073
-1.41589
-1.4211
-1.42633
-1.43159
-1.43687
-1.44217
-1.44747
-1.45277
-1.45806
-1.46335
-1.46863
-1.47389
-1.47913
-1.48435
-1.48954
-1.4947
-1.49982
-1.50491
-1.50996
-1.51498
-1.51994
-1.52487
-1.52975
-1.53457
-1.53935
-1.54408
-1.54876
-1.55339
-1.55796
-1.56247
-1.56694
-1.57134
-1.57569
-1.57998
-1.58422
-1.5884
-1.59252
-1.59658
-1.60059
-1.60453
-1.60842
-1.61226
-1.61603
-1.61975
-1.62342
-1.62702
-1.63057
-1.63407
-1.63751
-1.6409
-1.64423
-1.64751
-1.65073
-1.6539
-1.65703
-1.66009
-1.66311
-1.66608
-1.669
-1.67187
-1.67469
-1.67747
-1.68019
-1.68287
-1.68551
-1.6881
-1.69064
-1.69314
-1.6956
-1.69802
-1.70039
-1.70273
-1.70502
-1.70727
-1.70949
-1.71166
-1.7138
-1.7159
-1.71796
-1.71999
-1.72198
-1.72394
-1.72586
-1.72775
-1.72961
-1.73144
-1.73323
-1.73499
-1.73672
-1.73842
-1.74009
-1.74168
-1.32126
-1.32095
-1.32116
-1.32175
-1.32269
-1.32398
-1.3256
-1.32754
-1.32977
-1.33228
-1.33505
-1.33806
-1.34131
-1.34476
-1.34842
-1.35226
-1.35628
-1.36045
-1.36477
-1.36922
-1.37379
-1.37848
-1.38327
-1.38815
-1.39311
-1.39814
-1.40324
-1.40839
-1.41359
-1.41883
-1.42411
-1.42941
-1.43473
-1.44006
-1.4454
-1.45074
-1.45608
-1.46142
-1.46674
-1.47205
-1.47734
-1.4826
-1.48784
-1.49305
-1.49823
-1.50337
-1.50847
-1.51354
-1.51856
-1.52353
-1.52846
-1.53335
-1.53818
-1.54296
-1.54769
-1.55237
-1.557
-1.56157
-1.56608
-1.57054
-1.57494
-1.57929
-1.58357
-1.5878
-1.59198
-1.59609
-1.60015
-1.60415
-1.60809
-1.61197
-1.6158
-1.61957
-1.62328
-1.62694
-1.63053
-1.63408
-1.63757
-1.641
-1.64438
-1.6477
-1.65097
-1.65419
-1.65735
-1.66047
-1.66353
-1.66654
-1.6695
-1.67241
-1.67528
-1.67809
-1.68086
-1.68358
-1.68625
-1.68888
-1.69147
-1.69401
-1.6965
-1.69896
-1.70137
-1.70373
-1.70606
-1.70835
-1.7106
-1.71281
-1.71498
-1.71711
-1.71921
-1.72127
-1.72329
-1.72528
-1.72724
-1.72916
-1.73104
-1.7329
-1.73472
-1.73651
-1.73827
-1.74
-1.74169
-1.7433
-1.31884
-1.31849
-1.31866
-1.31922
-1.32013
-1.3214
-1.323
-1.32492
-1.32713
-1.32963
-1.33239
-1.3354
-1.33864
-1.34209
-1.34575
-1.3496
-1.35362
-1.3578
-1.36214
-1.3666
-1.3712
-1.3759
-1.38072
-1.38562
-1.39061
-1.39567
-1.4008
-1.40598
-1.41122
-1.41649
-1.4218
-1.42714
-1.4325
-1.43788
-1.44326
-1.44865
-1.45404
-1.45942
-1.46479
-1.47015
-1.47549
-1.4808
-1.48609
-1.49135
-1.49658
-1.50177
-1.50693
-1.51205
-1.51712
-1.52215
-1.52714
-1.53207
-1.53696
-1.5418
-1.54659
-1.55132
-1.556
-1.56062
-1.56519
-1.56971
-1.57416
-1.57856
-1.5829
-1.58719
-1.59142
-1.59558
-1.59969
-1.60375
-1.60774
-1.61168
-1.61555
-1.61937
-1.62314
-1.62684
-1.63049
-1.63409
-1.63762
-1.6411
-1.64453
-1.6479
-1.65122
-1.65448
-1.6577
-1.66085
-1.66396
-1.66702
-1.67002
-1.67298
-1.67588
-1.67874
-1.68155
-1.68431
-1.68703
-1.6897
-1.69232
-1.6949
-1.69743
-1.69992
-1.70237
-1.70478
-1.70714
-1.70947
-1.71175
-1.714
-1.7162
-1.71837
-1.7205
-1.72259
-1.72465
-1.72667
-1.72866
-1.73061
-1.73253
-1.73441
-1.73626
-1.73808
-1.73987
-1.74163
-1.74334
-1.74498
-1.31634
-1.31595
-1.31609
-1.31661
-1.3175
-1.31874
-1.32032
-1.32222
-1.32442
-1.3269
-1.32965
-1.33265
-1.33589
-1.33934
-1.343
-1.34686
-1.35088
-1.35508
-1.35942
-1.36391
-1.36852
-1.37325
-1.37808
-1.38301
-1.38803
-1.39312
-1.39828
-1.4035
-1.40877
-1.41408
-1.41943
-1.42481
-1.43021
-1.43563
-1.44106
-1.44649
-1.45192
-1.45735
-1.46277
-1.46818
-1.47357
-1.47894
-1.48428
-1.48959
-1.49488
-1.50012
-1.50534
-1.51051
-1.51564
-1.52072
-1.52577
-1.53076
-1.5357
-1.5406
-1.54544
-1.55023
-1.55497
-1.55965