/*--------------------------------*- C++ -*----------------------------------*\
  =========                 |
  \\      /  F ield         | OpenFOAM: The Open Source CFD Toolbox
   \\    /   O peration     | Website:  https://openfoam.org
    \\  /    A nd           | Version:  8
     \\/     M anipulation  |
\*---------------------------------------------------------------------------*/
FoamFile
{
    version     2.0;
    format      ascii;
    class       volScalarField;
    location    "0.25";
    object      nut;
}
// * * * * * * * * * * * * * * * * * * * * * * * * * * * * * * * * * * * * * //

dimensions      [0 2 -1 0 0 0 0];

internalField   nonuniform List<scalar> 
115200
(
0.000208768
0.000214994
0.00022082
0.000226314
0.000231542
0.000236557
0.000241397
0.000246065
0.000250517
0.000254687
0.000258556
0.000262137
0.000265444
0.000268491
0.000271291
0.000273856
0.000276196
0.000278321
0.000280239
0.000281957
0.000283478
0.000284804
0.000285933
0.00028686
0.000287571
0.000288051
0.000288298
0.0002884
0.0002884
0.000288301
0.000288108
0.000287826
0.000287456
0.000287002
0.000286466
0.000285848
0.000285152
0.000284377
0.000283526
0.000282599
0.000281598
0.000280522
0.000279374
0.000278153
0.000276861
0.000275498
0.000274064
0.00027256
0.000270986
0.000269343
0.000267631
0.000265851
0.000264001
0.000262084
0.000260097
0.000258042
0.000255918
0.000253724
0.000251461
0.000249129
0.000246725
0.00024425
0.000241703
0.000239083
0.000236389
0.00023362
0.000230773
0.000227849
0.000224844
0.000221757
0.000218585
0.000215326
0.000211974
0.000208527
0.00020498
0.00020133
0.00019757
0.000193696
0.0001897
0.000185575
0.000181312
0.000176902
0.000172333
0.000167592
0.000162663
0.000157528
0.000152167
0.000146555
0.000140671
0.000134497
0.000128053
0.000121456
0.000115073
0.000109683
0.000106234
0.000104721
0.000104038
0.000103514
0.000103003
0.000102484
0.000332932
0.000330867
0.000328343
0.00032552
0.000322665
0.000320209
0.000318834
0.000319434
0.000322429
0.00032653
0.00033067
0.00033476
0.000338807
0.00034282
0.000346808
0.000350779
0.000354743
0.000358709
0.000362685
0.000366683
0.000370714
0.00037479
0.000378927
0.00038313
0.00038737
0.000391661
0.000395997
0.000400296
0.000404523
0.000408682
0.000412779
0.000416814
0.000420791
0.000424711
0.000428574
0.000432383
0.000436137
0.000439838
0.000443487
0.000447083
0.000450627
0.000454119
0.00045756
0.00046095
0.000464288
0.000467575
0.000470812
0.000473997
0.000477131
0.000480214
0.000483246
0.000486227
0.000489157
0.000492035
0.000494862
0.000497638
0.000500362
0.000503035
0.000505656
0.000508226
0.000510744
0.00051321
0.000515624
0.000517987
0.000520299
0.000522559
0.000524769
0.000526929
0.000529041
0.000531106
0.000533128
0.000535107
0.000537035
0.000538909
0.000540732
0.000542502
0.000544221
0.000545888
0.000547505
0.000549071
0.000550589
0.000552057
0.000553479
0.000554854
0.000556184
0.00055747
0.000558713
0.000559913
0.000561068
0.000562172
0.000563216
0.000564179
0.000565029
0.000565731
0.000566263
0.000566645
0.000566926
0.000567138
0.000567293
0.000567393
0.000534119
0.00054711
0.000560061
0.000572987
0.000585886
0.000598745
0.000611541
0.000624226
0.000636739
0.000649019
0.000661051
0.000672843
0.000684407
0.000695751
0.000706886
0.000717821
0.000728564
0.000739121
0.000749498
0.0007597
0.000769729
0.000779585
0.000789266
0.000798775
0.000808153
0.000817405
0.000826531
0.000835528
0.000844393
0.000853127
0.000861731
0.000870206
0.000878555
0.000886777
0.000894876
0.000902853
0.000910707
0.000918441
0.000926056
0.000933551
0.000940927
0.000948186
0.000955327
0.00096235
0.000969255
0.000976044
0.000982716
0.00098927
0.000995707
0.00100203
0.00100823
0.00101431
0.00102028
0.00102613
0.00103186
0.00103748
0.00104297
0.00104835
0.00105361
0.00105875
0.00106377
0.00106867
0.00107345
0.00107811
0.00108265
0.00108706
0.00109136
0.00109554
0.0010996
0.00110353
0.00110734
0.00111104
0.00111461
0.00111805
0.00112138
0.00112459
0.00112767
0.00113063
0.00113347
0.00113619
0.00113878
0.00114125
0.0011436
0.00114582
0.00114792
0.0011499
0.00115175
0.00115348
0.00115508
0.00115655
0.00115789
0.00115911
0.00116019
0.00116113
0.00116194
0.00116261
0.00116315
0.00116356
0.00116385
0.00116401
0.000877326
0.000899067
0.00092034
0.000941174
0.00096158
0.00098157
0.00100116
0.00102035
0.00103918
0.00105767
0.00107583
0.00109368
0.00111122
0.00112848
0.00114545
0.00116216
0.0011786
0.00119479
0.00121074
0.00122645
0.00124193
0.00125718
0.00127222
0.00128705
0.00130166
0.00131607
0.00133028
0.00134429
0.0013581
0.00137171
0.00138512
0.00139833
0.00141136
0.00142419
0.00143683
0.00144928
0.00146155
0.00147363
0.00148552
0.00149723
0.00150875
0.00152009
0.00153125
0.00154222
0.00155301
0.00156362
0.00157404
0.00158428
0.00159434
0.00160421
0.0016139
0.0016234
0.00163272
0.00164186
0.00165081
0.00165957
0.00166815
0.00167655
0.00168476
0.00169278
0.00170061
0.00170826
0.00171572
0.00172299
0.00173007
0.00173696
0.00174367
0.00175018
0.0017565
0.00176264
0.00176858
0.00177433
0.00177989
0.00178526
0.00179043
0.00179542
0.00180022
0.00180482
0.00180923
0.00181346
0.00181748
0.00182131
0.00182495
0.0018284
0.00183164
0.00183469
0.00183755
0.0018402
0.00184266
0.00184492
0.00184698
0.00184883
0.00185048
0.00185193
0.00185317
0.00185421
0.00185505
0.00185568
0.00185612
0.00185636
0.00128102
0.00130969
0.00133784
0.00136551
0.00139271
0.00141947
0.0014458
0.0014717
0.0014972
0.0015223
0.00154702
0.00157136
0.00159534
0.00161896
0.00164224
0.00166518
0.00168779
0.00171007
0.00173204
0.0017537
0.00177506
0.00179611
0.00181688
0.00183736
0.00185755
0.00187746
0.0018971
0.00191647
0.00193557
0.0019544
0.00197296
0.00199126
0.00200929
0.00202707
0.00204458
0.00206184
0.00207884
0.00209558
0.00211207
0.0021283
0.00214427
0.00215999
0.00217546
0.00219067
0.00220563
0.00222034
0.00223479
0.00224898
0.00226292
0.00227661
0.00229004
0.00230322
0.00231614
0.0023288
0.0023412
0.00235335
0.00236524
0.00237688
0.00238825
0.00239937
0.00241022
0.00242081
0.00243115
0.00244122
0.00245102
0.00246057
0.00246985
0.00247887
0.00248763
0.00249611
0.00250434
0.0025123
0.00251999
0.00252741
0.00253457
0.00254146
0.00254808
0.00255443
0.00256052
0.00256633
0.00257188
0.00257715
0.00258215
0.00258688
0.00259134
0.00259553
0.00259944
0.00260308
0.00260644
0.00260953
0.00261234
0.00261487
0.00261712
0.0026191
0.0026208
0.00262222
0.00262336
0.00262423
0.00262482
0.00262513
0.00173343
0.00176931
0.00180465
0.00183948
0.00187381
0.00190765
0.001941
0.00197387
0.00200628
0.00203823
0.00206973
0.0021008
0.00213143
0.00216164
0.00219144
0.00222083
0.00224983
0.00227843
0.00230664
0.00233448
0.00236194
0.00238903
0.00241576
0.00244213
0.00246815
0.00249381
0.00251913
0.0025441
0.00256873
0.00259302
0.00261698
0.0026406
0.00266388
0.00268683
0.00270944
0.00273173
0.00275369
0.00277531
0.00279661
0.00281758
0.00283822
0.00285853
0.00287851
0.00289817
0.00291749
0.00293649
0.00295516
0.0029735
0.00299152
0.0030092
0.00302655
0.00304357
0.00306026
0.00307662
0.00309264
0.00310833
0.00312369
0.00313871
0.0031534
0.00316775
0.00318176
0.00319544
0.00320878
0.00322178
0.00323444
0.00324676
0.00325874
0.00327037
0.00328167
0.00329262
0.00330323
0.00331349
0.00332341
0.00333298
0.00334221
0.00335109
0.00335962
0.0033678
0.00337563
0.00338312
0.00339025
0.00339704
0.00340347
0.00340955
0.00341528
0.00342066
0.00342568
0.00343035
0.00343466
0.00343862
0.00344222
0.00344547
0.00344836
0.00345089
0.00345306
0.00345488
0.00345634
0.00345744
0.00345819
0.00345858
0.00223254
0.00227571
0.00231829
0.00236031
0.00240178
0.00244272
0.00248314
0.00252304
0.00256242
0.00260131
0.00263969
0.00267758
0.00271499
0.00275192
0.00278838
0.00282437
0.0028599
0.00289497
0.0029296
0.00296378
0.00299751
0.00303082
0.00306369
0.00309613
0.00312815
0.00315974
0.00319092
0.00322168
0.00325203
0.00328196
0.00331148
0.0033406
0.0033693
0.0033976
0.00342549
0.00345298
0.00348006
0.00350674
0.00353301
0.00355888
0.00358434
0.00360941
0.00363406
0.00365831
0.00368216
0.0037056
0.00372864
0.00375127
0.00377349
0.00379531
0.00381672
0.00383771
0.0038583
0.00387848
0.00389825
0.00391761
0.00393655
0.00395508
0.0039732
0.0039909
0.00400818
0.00402505
0.00404149
0.00405752
0.00407313
0.00408832
0.00410309
0.00411743
0.00413135
0.00414485
0.00415792
0.00417057
0.00418279
0.00419458
0.00420595
0.00421688
0.00422739
0.00423746
0.00424711
0.00425632
0.0042651
0.00427345
0.00428136
0.00428884
0.00429588
0.00430249
0.00430867
0.0043144
0.0043197
0.00432456
0.00432898
0.00433297
0.00433651
0.00433962
0.00434228
0.00434451
0.00434629
0.00434764
0.00434855
0.00434902
0.00277541
0.00282592
0.00287579
0.00292506
0.00297376
0.00302189
0.00306946
0.00311647
0.00316292
0.00320883
0.00325419
0.00329901
0.00334329
0.00338705
0.00343027
0.00347297
0.00351515
0.00355681
0.00359796
0.0036386
0.00367873
0.00371837
0.0037575
0.00379614
0.00383428
0.00387193
0.00390909
0.00394577
0.00398195
0.00401766
0.00405287
0.00408761
0.00412186
0.00415563
0.00418892
0.00422173
0.00425406
0.00428591
0.00431727
0.00434816
0.00437856
0.00440849
0.00443793
0.00446689
0.00449537
0.00452336
0.00455087
0.00457789
0.00460443
0.00463048
0.00465605
0.00468112
0.00470571
0.00472981
0.00475341
0.00477652
0.00479914
0.00482126
0.00484289
0.00486402
0.00488465
0.00490479
0.00492442
0.00494356
0.00496219
0.00498032
0.00499794
0.00501506
0.00503167
0.00504778
0.00506337
0.00507846
0.00509304
0.00510711
0.00512066
0.0051337
0.00514623
0.00515825
0.00516975
0.00518073
0.0051912
0.00520115
0.00521058
0.00521949
0.00522788
0.00523576
0.00524311
0.00524994
0.00525625
0.00526204
0.0052673
0.00527204
0.00527626
0.00527995
0.00528312
0.00528577
0.00528789
0.00528949
0.00529056
0.00529111
0.00336016
0.00341808
0.00347533
0.00353195
0.00358795
0.00364334
0.00369814
0.00375233
0.00380593
0.00385893
0.00391135
0.00396317
0.0040144
0.00406505
0.00411512
0.0041646
0.00421351
0.00426184
0.0043096
0.00435679
0.0044034
0.00444945
0.00449493
0.00453985
0.00458421
0.004628
0.00467124
0.00471391
0.00475603
0.00479759
0.00483859
0.00487903
0.00491892
0.00495825
0.00499703
0.00503525
0.00507291
0.00511001
0.00514656
0.00518255
0.00521798
0.00525285
0.00528716
0.00532091
0.00535409
0.00538672
0.00541877
0.00545027
0.0054812
0.00551156
0.00554135
0.00557057
0.00559923
0.00562731
0.00565481
0.00568175
0.0057081
0.00573388
0.00575908
0.0057837
0.00580775
0.0058312
0.00585408
0.00587637
0.00589808
0.00591919
0.00593972
0.00595967
0.00597902
0.00599777
0.00601594
0.00603351
0.00605049
0.00606687
0.00608266
0.00609784
0.00611243
0.00612642
0.00613981
0.00615259
0.00616477
0.00617635
0.00618733
0.0061977
0.00620747
0.00621663
0.00622518
0.00623313
0.00624047
0.0062472
0.00625332
0.00625883
0.00626374
0.00626803
0.00627171
0.00627478
0.00627725
0.0062791
0.00628034
0.00628098
0.00398562
0.00405104
0.00411574
0.00417977
0.00424314
0.00430586
0.00436794
0.00442938
0.00449017
0.00455033
0.00460985
0.00466873
0.00472697
0.00478457
0.00484153
0.00489786
0.00495355
0.00500861
0.00506303
0.00511682
0.00516997
0.00522249
0.00527438
0.00532564
0.00537627
0.00542627
0.00547563
0.00552437
0.00557248
0.00561995
0.0056668
0.00571301
0.0057586
0.00580355
0.00584787
0.00589156
0.00593461
0.00597703
0.00601882
0.00605997
0.00610048
0.00614035
0.00617958
0.00621818
0.00625613
0.00629343
0.0063301
0.00636611
0.00640148
0.0064362
0.00647027
0.00650369
0.00653646
0.00656857
0.00660003
0.00663083
0.00666097
0.00669044
0.00671926
0.00674742
0.0067749
0.00680173
0.00682788
0.00685337
0.00687819
0.00690233
0.0069258
0.0069486
0.00697072
0.00699216
0.00701293
0.00703301
0.00705242
0.00707114
0.00708918
0.00710654
0.00712321
0.00713919
0.00715449
0.0071691
0.00718302
0.00719625
0.00720879
0.00722064
0.0072318
0.00724226
0.00725203
0.00726111
0.00726949
0.00727717
0.00728416
0.00729046
0.00729605
0.00730096
0.00730516
0.00730867
0.00731148
0.00731359
0.007315
0.00731572
0.00465094
0.00472391
0.00479613
0.00486762
0.00493841
0.00500852
0.00507793
0.00514666
0.0052147
0.00528205
0.00534872
0.00541469
0.00547998
0.00554457
0.00560847
0.00567168
0.00573419
0.00579601
0.00585713
0.00591756
0.00597729
0.00603632
0.00609466
0.00615229
0.00620923
0.00626547
0.00632101
0.00637584
0.00642998
0.00648341
0.00653614
0.00658817
0.00663949
0.0066901
0.00674
0.0067892
0.00683768
0.00688546
0.00693252
0.00697886
0.00702449
0.00706941
0.0071136
0.00715707
0.00719982
0.00724185
0.00728315
0.00732372
0.00736356
0.00740268
0.00744106
0.00747871
0.00751562
0.00755179
0.00758723
0.00762192
0.00765587
0.00768908
0.00772154
0.00775325
0.00778421
0.00781442
0.00784388
0.00787259
0.00790054
0.00792773
0.00795417
0.00797984
0.00800475
0.0080289
0.00805228
0.0080749
0.00809675
0.00811783
0.00813815
0.00815769
0.00817646
0.00819445
0.00821168
0.00822812
0.0082438
0.00825869
0.00827281
0.00828614
0.0082987
0.00831048
0.00832148
0.00833169
0.00834112
0.00834977
0.00835764
0.00836472
0.00837102
0.00837653
0.00838126
0.00838521
0.00838837
0.00839074
0.00839233
0.00839314
0.00535545
0.00543604
0.00551582
0.00559484
0.0056731
0.00575063
0.00582742
0.00590347
0.00597879
0.00605338
0.00612722
0.00620033
0.00627268
0.0063443
0.00641516
0.00648527
0.00655463
0.00662324
0.00669108
0.00675817
0.0068245
0.00689007
0.00695487
0.00701891
0.00708218
0.00714468
0.00720641
0.00726737
0.00732756
0.00738697
0.00744561
0.00750346
0.00756054
0.00761683
0.00767234
0.00772707
0.00778101
0.00783415
0.00788651
0.00793807
0.00798884
0.00803882
0.00808799
0.00813636
0.00818393
0.00823069
0.00827665
0.0083218
0.00836614
0.00840966
0.00845237
0.00849426
0.00853533
0.00857559
0.00861501
0.00865362
0.0086914
0.00872835
0.00876446
0.00879975
0.0088342
0.00886781
0.00890059
0.00893253
0.00896362
0.00899388
0.00902329
0.00905185
0.00907956
0.00910642
0.00913244
0.0091576
0.0091819
0.00920535
0.00922795
0.00924968
0.00927056
0.00929058
0.00930973
0.00932803
0.00934545
0.00936202
0.00937772
0.00939255
0.00940651
0.00941961
0.00943184
0.0094432
0.00945368
0.0094633
0.00947205
0.00947992
0.00948693
0.00949306
0.00949831
0.0095027
0.00950621
0.00950885
0.00951062
0.00951151
0.00609866
0.00618692
0.00627432
0.0063609
0.00644668
0.00653167
0.00661587
0.00669929
0.00678192
0.00686376
0.00694481
0.00702506
0.00710451
0.00718316
0.00726101
0.00733804
0.00741426
0.00748967
0.00756426
0.00763802
0.00771096
0.00778307
0.00785436
0.00792481
0.00799442
0.0080632
0.00813113
0.00819822
0.00826447
0.00832987
0.00839442
0.00845812
0.00852096
0.00858294
0.00864407
0.00870433
0.00876373
0.00882226
0.00887992
0.00893671
0.00899263
0.00904766
0.00910182
0.0091551
0.0092075
0.00925901
0.00930963
0.00935935
0.00940819
0.00945613
0.00950317
0.00954932
0.00959456
0.00963889
0.00968232
0.00972484
0.00976645
0.00980714
0.00984692
0.00988579
0.00992373
0.00996075
0.00999685
0.010032
0.0100663
0.0100996
0.010132
0.0101634
0.0101939
0.0102235
0.0102522
0.0102799
0.0103066
0.0103325
0.0103573
0.0103813
0.0104043
0.0104263
0.0104474
0.0104675
0.0104867
0.0105049
0.0105222
0.0105386
0.0105539
0.0105683
0.0105818
0.0105943
0.0106059
0.0106164
0.0106261
0.0106347
0.0106424
0.0106492
0.010655
0.0106598
0.0106637
0.0106666
0.0106685
0.0106695
0.00688021
0.00697619
0.00707125
0.00716543
0.00725876
0.00735124
0.00744288
0.00753369
0.00762365
0.00771277
0.00780105
0.00788847
0.00797503
0.00806073
0.00814557
0.00822954
0.00831263
0.00839485
0.00847618
0.00855662
0.00863618
0.00871484
0.0087926
0.00886947
0.00894542
0.00902048
0.00909462
0.00916784
0.00924015
0.00931153
0.009382
0.00945153
0.00952014
0.00958781
0.00965455
0.00972035
0.0097852
0.00984911
0.00991207
0.00997409
0.0100351
0.0100952
0.0101544
0.0102126
0.0102698
0.010326
0.0103813
0.0104356
0.010489
0.0105413
0.0105927
0.0106431
0.0106925
0.0107409
0.0107883
0.0108347
0.0108802
0.0109246
0.010968
0.0110105
0.0110519
0.0110923
0.0111318
0.0111702
0.0112075
0.0112439
0.0112793
0.0113136
0.0113469
0.0113792
0.0114105
0.0114407
0.01147
0.0114982
0.0115253
0.0115514
0.0115765
0.0116006
0.0116236
0.0116456
0.0116665
0.0116864
0.0117053
0.0117231
0.0117399
0.0117556
0.0117703
0.011784
0.0117966
0.0118081
0.0118186
0.0118281
0.0118365
0.0118439
0.0118502
0.0118555
0.0118597
0.0118628
0.011865
0.011866
0.00769982
0.00780355
0.0079063
0.00800813
0.00810904
0.00820905
0.00830816
0.00840638
0.00850369
0.00860011
0.00869562
0.00879022
0.00888391
0.00897667
0.00906851
0.00915941
0.00924938
0.0093384
0.00942648
0.00951361
0.00959977
0.00968498
0.00976922
0.00985249
0.00993479
0.0100161
0.0100964
0.0101758
0.0102542
0.0103315
0.0104079
0.0104833
0.0105576
0.010631
0.0107033
0.0107746
0.0108449
0.0109142
0.0109825
0.0110497
0.0111159
0.011181
0.0112451
0.0113082
0.0113702
0.0114312
0.0114911
0.01155
0.0116078
0.0116646
0.0117203
0.0117749
0.0118284
0.0118809
0.0119323
0.0119827
0.0120319
0.0120801
0.0121272
0.0121731
0.0122181
0.0122619
0.0123046
0.0123462
0.0123867
0.0124262
0.0124645
0.0125017
0.0125378
0.0125728
0.0126067
0.0126395
0.0126711
0.0127017
0.0127311
0.0127594
0.0127866
0.0128127
0.0128376
0.0128614
0.0128841
0.0129057
0.0129261
0.0129454
0.0129636
0.0129807
0.0129966
0.0130114
0.013025
0.0130375
0.0130489
0.0130592
0.0130683
0.0130763
0.0130831
0.0130888
0.0130934
0.0130968
0.0130991
0.0131003
0.00855726
0.00866879
0.00877928
0.00888878
0.0089973
0.00910486
0.00921146
0.00931711
0.0094218
0.00952553
0.00962829
0.00973008
0.00983089
0.00993072
0.0100296
0.0101274
0.0102242
0.0103201
0.0104149
0.0105087
0.0106015
0.0106932
0.0107839
0.0108736
0.0109622
0.0110498
0.0111363
0.0112218
0.0113062
0.0113895
0.0114717
0.0115529
0.011633
0.011712
0.0117899
0.0118668
0.0119425
0.0120171
0.0120906
0.0121631
0.0122344
0.0123046
0.0123736
0.0124416
0.0125084
0.0125741
0.0126386
0.012702
0.0127643
0.0128254
0.0128854
0.0129443
0.0130019
0.0130585
0.0131138
0.0131681
0.0132211
0.013273
0.0133237
0.0133732
0.0134216
0.0134688
0.0135148
0.0135596
0.0136032
0.0136457
0.013687
0.013727
0.0137659
0.0138036
0.0138401
0.0138754
0.0139095
0.0139424
0.0139741
0.0140045
0.0140338
0.0140619
0.0140887
0.0141144
0.0141388
0.014162
0.014184
0.0142048
0.0142244
0.0142427
0.0142599
0.0142758
0.0142905
0.014304
0.0143162
0.0143272
0.0143371
0.0143456
0.014353
0.0143592
0.0143641
0.0143678
0.0143702
0.0143715
0.0094524
0.00957176
0.00969002
0.00980721
0.00992337
0.0100385
0.0101526
0.0102657
0.0103778
0.0104888
0.0105989
0.0107078
0.0108158
0.0109227
0.0110285
0.0111333
0.011237
0.0113396
0.0114412
0.0115416
0.011641
0.0117393
0.0118364
0.0119325
0.0120274
0.0121212
0.0122139
0.0123055
0.0123959
0.0124851
0.0125733
0.0126602
0.012746
0.0128307
0.0129142
0.0129965
0.0130776
0.0131576
0.0132363
0.0133139
0.0133903
0.0134655
0.0135395
0.0136123
0.0136839
0.0137542
0.0138234
0.0138913
0.013958
0.0140235
0.0140878
0.0141508
0.0142126
0.0142731
0.0143324
0.0143905
0.0144473
0.0145029
0.0145572
0.0146103
0.0146621
0.0147126
0.0147619
0.0148099
0.0148566
0.0149021
0.0149463
0.0149892
0.0150308
0.0150712
0.0151102
0.015148
0.0151845
0.0152197
0.0152537
0.0152863
0.0153176
0.0153477
0.0153764
0.0154039
0.0154301
0.0154549
0.0154785
0.0155007
0.0155217
0.0155413
0.0155597
0.0155767
0.0155924
0.0156069
0.01562
0.0156318
0.0156423
0.0156515
0.0156594
0.0156659
0.0156712
0.0156752
0.0156778
0.0156791
0.0103851
0.0105123
0.0106384
0.0107633
0.0108871
0.0110099
0.0111315
0.0112521
0.0113715
0.0114899
0.0116072
0.0117234
0.0118384
0.0119524
0.0120652
0.0121769
0.0122875
0.0123969
0.0125052
0.0126123
0.0127182
0.012823
0.0129266
0.013029
0.0131302
0.0132303
0.0133291
0.0134267
0.0135231
0.0136183
0.0137123
0.013805
0.0138965
0.0139867
0.0140758
0.0141635
0.01425
0.0143353
0.0144193
0.014502
0.0145834
0.0146636
0.0147425
0.0148201
0.0148964
0.0149714
0.0150451
0.0151175
0.0151887
0.0152585
0.015327
0.0153941
0.01546
0.0155246
0.0155878
0.0156497
0.0157102
0.0157694
0.0158273
0.0158839
0.0159391
0.0159929
0.0160454
0.0160966
0.0161464
0.0161948
0.0162419
0.0162877
0.016332
0.016375
0.0164167
0.0164569
0.0164958
0.0165333
0.0165695
0.0166043
0.0166377
0.0166697
0.0167003
0.0167295
0.0167574
0.0167839
0.016809
0.0168327
0.016855
0.0168759
0.0168955
0.0169136
0.0169304
0.0169457
0.0169597
0.0169723
0.0169835
0.0169933
0.0170017
0.0170087
0.0170143
0.0170185
0.0170213
0.0170227
0.0113553
0.0114905
0.0116243
0.011757
0.0118885
0.0120188
0.012148
0.012276
0.0124029
0.0125286
0.0126532
0.0127765
0.0128987
0.0130197
0.0131396
0.0132582
0.0133756
0.0134918
0.0136068
0.0137205
0.013833
0.0139443
0.0140543
0.014163
0.0142705
0.0143767
0.0144817
0.0145853
0.0146877
0.0147888
0.0148885
0.014987
0.0150841
0.01518
0.0152745
0.0153676
0.0154595
0.01555
0.0156392
0.015727
0.0158134
0.0158985
0.0159823
0.0160647
0.0161457
0.0162253
0.0163036
0.0163804
0.0164559
0.01653
0.0166027
0.016674
0.0167439
0.0168124
0.0168795
0.0169452
0.0170095
0.0170723
0.0171337
0.0171937
0.0172523
0.0173095
0.0173652
0.0174195
0.0174723
0.0175237
0.0175737
0.0176222
0.0176692
0.0177149
0.017759
0.0178017
0.017843
0.0178828
0.0179211
0.017958
0.0179934
0.0180274
0.0180599
0.0180909
0.0181205
0.0181485
0.0181752
0.0182003
0.018224
0.0182462
0.0182669
0.0182861
0.0183039
0.0183202
0.018335
0.0183483
0.0183602
0.0183706
0.0183795
0.0183869
0.0183928
0.0183973
0.0184003
0.0184018
0.012363
0.012506
0.0126477
0.0127882
0.0129274
0.0130653
0.013202
0.0133375
0.0134718
0.0136049
0.0137367
0.0138672
0.0139966
0.0141246
0.0142514
0.0143769
0.0145012
0.0146241
0.0147458
0.0148661
0.0149852
0.0151029
0.0152193
0.0153343
0.0154481
0.0155604
0.0156715
0.0157811
0.0158894
0.0159963
0.0161019
0.016206
0.0163088
0.0164102
0.0165101
0.0166087
0.0167058
0.0168016
0.0168959
0.0169887
0.0170802
0.0171702
0.0172588
0.0173459
0.0174315
0.0175157
0.0175985
0.0176798
0.0177596
0.0178379
0.0179148
0.0179902
0.0180641
0.0181365
0.0182074
0.0182769
0.0183448
0.0184112
0.0184762
0.0185396
0.0186015
0.0186619
0.0187208
0.0187781
0.018834
0.0188883
0.0189411
0.0189924
0.0190421
0.0190903
0.019137
0.0191821
0.0192257
0.0192678
0.0193083
0.0193472
0.0193847
0.0194205
0.0194549
0.0194876
0.0195188
0.0195485
0.0195766
0.0196032
0.0196282
0.0196516
0.0196735
0.0196938
0.0197126
0.0197298
0.0197455
0.0197595
0.0197721
0.019783
0.0197924
0.0198002
0.0198065
0.0198112
0.0198144
0.019816
0.0134081
0.013559
0.0137086
0.0138568
0.0140037
0.0141493
0.0142936
0.0144365
0.0145782
0.0147186
0.0148577
0.0149954
0.0151318
0.0152669
0.0154007
0.0155331
0.0156641
0.0157938
0.0159221
0.0160491
0.0161746
0.0162988
0.0164215
0.0165429
0.0166628
0.0167813
0.0168984
0.017014
0.0171282
0.0172409
0.0173522
0.017462
0.0175703
0.0176772
0.0177826
0.0178865
0.0179889
0.0180898
0.0181892
0.0182871
0.0183834
0.0184783
0.0185716
0.0186634
0.0187537
0.0188425
0.0189297
0.0190153
0.0190994
0.0191819
0.0192629
0.0193424
0.0194202
0.0194965
0.0195712
0.0196444
0.0197159
0.0197859
0.0198543
0.0199211
0.0199863
0.0200499
0.0201119
0.0201723
0.0202312
0.0202884
0.020344
0.0203979
0.0204503
0.0205011
0.0205502
0.0205977
0.0206436
0.0206879
0.0207306
0.0207716
0.020811
0.0208487
0.0208849
0.0209194
0.0209522
0.0209834
0.021013
0.021041
0.0210673
0.021092
0.021115
0.0211364
0.0211561
0.0211743
0.0211907
0.0212055
0.0212187
0.0212302
0.0212401
0.0212484
0.021255
0.0212599
0.0212632
0.0212649
0.0144905
0.0146494
0.0148069
0.0149629
0.0151174
0.0152707
0.0154225
0.0155729
0.015722
0.0158697
0.016016
0.0161609
0.0163044
0.0164466
0.0165872
0.0167265
0.0168644
0.0170008
0.0171357
0.0172692
0.0174012
0.0175318
0.0176609
0.0177884
0.0179145
0.0180391
0.0181622
0.0182837
0.0184038
0.0185223
0.0186392
0.0187547
0.0188685
0.0189809
0.0190916
0.0192008
0.0193084
0.0194144
0.0195189
0.0196217
0.019723
0.0198227
0.0199207
0.0200172
0.020112
0.0202052
0.0202968
0.0203868
0.0204751
0.0205618
0.0206469
0.0207303
0.0208121
0.0208922
0.0209706
0.0210474
0.0211226
0.0211961
0.0212679
0.021338
0.0214065
0.0214732
0.0215383
0.0216018
0.0216635
0.0217235
0.0217819
0.0218386
0.0218935
0.0219468
0.0219984
0.0220483
0.0220964
0.0221429
0.0221876
0.0222307
0.022272
0.0223117
0.0223496
0.0223858
0.0224202
0.022453
0.022484
0.0225134
0.022541
0.0225669
0.022591
0.0226134
0.0226342
0.0226532
0.0226704
0.022686
0.0226998
0.0227119
0.0227222
0.0227309
0.0227378
0.0227429
0.0227464
0.0227481
0.0156103
0.0157772
0.0159425
0.0161062
0.0162685
0.0164294
0.0165887
0.0167467
0.0169031
0.0170581
0.0172117
0.0173637
0.0175143
0.0176634
0.017811
0.0179572
0.0181017
0.0182448
0.0183864
0.0185264
0.0186649
0.0188018
0.0189371
0.0190709
0.0192031
0.0193338
0.0194628
0.0195902
0.0197161
0.0198403
0.0199629
0.0200839
0.0202033
0.020321
0.020437
0.0205515
0.0206642
0.0207753
0.0208848
0.0209926
0.0210987
0.0212031
0.0213058
0.0214068
0.0215062
0.0216038
0.0216998
0.021794
0.0218865
0.0219773
0.0220664
0.0221537
0.0222394
0.0223232
0.0224054
0.0224858
0.0225645
0.0226414
0.0227166
0.02279
0.0228617
0.0229316
0.0229997
0.0230661
0.0231307
0.0231936
0.0232546
0.0233139
0.0233715
0.0234272
0.0234812
0.0235334
0.0235838
0.0236324
0.0236792
0.0237242
0.0237675
0.0238089
0.0238486
0.0238865
0.0239225
0.0239568
0.0239893
0.0240199
0.0240488
0.0240759
0.0241012
0.0241246
0.0241463
0.0241661
0.0241842
0.0242004
0.0242149
0.0242275
0.0242383
0.0242474
0.0242546
0.02426
0.0242636
0.0242654
0.0167674
0.0169422
0.0171153
0.0172869
0.0174569
0.0176254
0.0177923
0.0179576
0.0181215
0.0182838
0.0184445
0.0186037
0.0187614
0.0189174
0.0190719
0.0192248
0.0193762
0.0195259
0.019674
0.0198205
0.0199654
0.0201086
0.0202502
0.0203901
0.0205284
0.0206651
0.0208
0.0209333
0.0210649
0.0211948
0.021323
0.0214495
0.0215743
0.0216973
0.0218187
0.0219383
0.0220561
0.0221723
0.0222866
0.0223993
0.0225101
0.0226193
0.0227266
0.0228322
0.022936
0.023038
0.0231382
0.0232366
0.0233333
0.0234281
0.0235211
0.0236124
0.0237018
0.0237894
0.0238752
0.0239592
0.0240413
0.0241216
0.0242001
0.0242768
0.0243516
0.0244246
0.0244957
0.024565
0.0246325
0.0246981
0.0247618
0.0248237
0.0248837
0.0249419
0.0249982
0.0250527
0.0251053
0.025156
0.0252049
0.0252519
0.025297
0.0253402
0.0253816
0.0254211
0.0254587
0.0254945
0.0255284
0.0255603
0.0255905
0.0256187
0.025645
0.0256695
0.0256921
0.0257128
0.0257316
0.0257486
0.0257636
0.0257768
0.0257881
0.0257974
0.025805
0.0258106
0.0258143
0.0258162
0.0179617
0.0181444
0.0183254
0.0185048
0.0186825
0.0188585
0.019033
0.0192058
0.019377
0.0195465
0.0197145
0.0198808
0.0200454
0.0202084
0.0203698
0.0205294
0.0206875
0.0208438
0.0209984
0.0211514
0.0213026
0.0214521
0.0215999
0.0217459
0.0218903
0.0220328
0.0221736
0.0223127
0.02245
0.0225855
0.0227192
0.0228512
0.0229813
0.0231097
0.0232362
0.0233609
0.0234838
0.0236049
0.0237242
0.0238416
0.0239572
0.0240709
0.0241828
0.0242929
0.024401
0.0245074
0.0246118
0.0247144
0.0248151
0.0249139
0.0250109
0.0251059
0.0251991
0.0252903
0.0253797
0.0254672
0.0255527
0.0256364
0.0257181
0.025798
0.0258759
0.0259519
0.026026
0.0260981
0.0261684
0.0262367
0.026303
0.0263675
0.02643
0.0264905
0.0265492
0.0266058
0.0266606
0.0267134
0.0267642
0.0268131
0.0268601
0.0269051
0.0269482
0.0269893
0.0270284
0.0270656
0.0271008
0.0271341
0.0271655
0.0271948
0.0272222
0.0272477
0.0272712
0.0272927
0.0273123
0.0273299
0.0273455
0.0273592
0.0273709
0.0273807
0.0273885
0.0273943
0.0273982
0.0274001
0.0191931
0.0193838
0.0195727
0.0197598
0.0199451
0.0201288
0.0203107
0.0204909
0.0206694
0.0208462
0.0210213
0.0211947
0.0213663
0.0215362
0.0217044
0.0218708
0.0220354
0.0221983
0.0223594
0.0225188
0.0226763
0.022832
0.0229859
0.0231381
0.0232883
0.0234368
0.0235834
0.0237282
0.0238711
0.0240122
0.0241514
0.0242887
0.0244242
0.0245577
0.0246894
0.0248192
0.0249471
0.0250731
0.0251971
0.0253193
0.0254395
0.0255578
0.0256742
0.0257886
0.0259011
0.0260117
0.0261203
0.0262269
0.0263316
0.0264344
0.0265351
0.0266339
0.0267308
0.0268256
0.0269185
0.0270094
0.0270984
0.0271853
0.0272702
0.0273532
0.0274341
0.0275131
0.0275901
0.027665
0.027738
0.0278089
0.0278779
0.0279448
0.0280097
0.0280726
0.0281335
0.0281924
0.0282492
0.028304
0.0283568
0.0284076
0.0284564
0.0285031
0.0285478
0.0285905
0.0286311
0.0286697
0.0287063
0.0287408
0.0287733
0.0288038
0.0288323
0.0288587
0.028883
0.0289054
0.0289257
0.0289439
0.0289602
0.0289743
0.0289865
0.0289966
0.0290047
0.0290107
0.0290147
0.0290167
0.0204616
0.0206602
0.0208569
0.0210518
0.0212448
0.021436
0.0216254
0.0218129
0.0219987
0.0221827
0.0223649
0.0225453
0.0227239
0.0229007
0.0230756
0.0232487
0.0234199
0.0235893
0.0237568
0.0239225
0.0240862
0.0242481
0.0244081
0.0245662
0.0247224
0.0248767
0.0250291
0.0251795
0.025328
0.0254745
0.0256191
0.0257618
0.0259025
0.0260412
0.0261779
0.0263127
0.0264455
0.0265763
0.0267051
0.0268319
0.0269567
0.0270795
0.0272003
0.027319
0.0274358
0.0275505
0.0276632
0.0277738
0.0278825
0.027989
0.0280936
0.0281961
0.0282965
0.0283949
0.0284912
0.0285855
0.0286777
0.0287679
0.0288559
0.0289419
0.0290259
0.0291077
0.0291875
0.0292652
0.0293408
0.0294144
0.0294858
0.0295552
0.0296225
0.0296876
0.0297507
0.0298117
0.0298706
0.0299274
0.0299821
0.0300348
0.0300853
0.0301337
0.03018
0.0302242
0.0302663
0.0303062
0.0303441
0.0303799
0.0304136
0.0304451
0.0304746
0.0305019
0.0305271
0.0305503
0.0305713
0.0305902
0.0306069
0.0306216
0.0306342
0.0306446
0.030653
0.0306592
0.0306634
0.0306654
0.021767
0.0219735
0.022178
0.0223806
0.0225812
0.0227799
0.0229767
0.0231716
0.0233647
0.0235558
0.0237451
0.0239325
0.0241179
0.0243015
0.0244831
0.0246628
0.0248406
0.0250164
0.0251903
0.0253622
0.0255322
0.0257001
0.0258662
0.0260302
0.0261922
0.0263522
0.0265102
0.0266662
0.0268202
0.0269722
0.0271221
0.02727
0.0274158
0.0275596
0.0277014
0.027841
0.0279786
0.0281142
0.0282476
0.028379
0.0285083
0.0286355
0.0287606
0.0288836
0.0290046
0.0291234
0.0292401
0.0293546
0.0294671
0.0295775
0.0296857
0.0297918
0.0298958
0.0299976
0.0300973
0.0301949
0.0302903
0.0303836
0.0304747
0.0305637
0.0306506
0.0307353
0.0308178
0.0308982
0.0309764
0.0310525
0.0311264
0.0311981
0.0312677
0.0313351
0.0314003
0.0314634
0.0315243
0.031583
0.0316396
0.031694
0.0317462
0.0317962
0.0318441
0.0318898
0.0319333
0.0319746
0.0320138
0.0320507
0.0320855
0.0321181
0.0321486
0.0321768
0.0322029
0.0322267
0.0322484
0.0322679
0.0322853
0.0323004
0.0323134
0.0323242
0.0323328
0.0323392
0.0323434