/*--------------------------------*- C++ -*----------------------------------*\
  =========                 |
  \\      /  F ield         | OpenFOAM: The Open Source CFD Toolbox
   \\    /   O peration     | Website:  https://openfoam.org
    \\  /    A nd           | Version:  8
     \\/     M anipulation  |
\*---------------------------------------------------------------------------*/
FoamFile
{
    version     2.0;
    format      ascii;
    class       volVectorField;
    location    "0.25";
    object      U;
}
// * * * * * * * * * * * * * * * * * * * * * * * * * * * * * * * * * * * * * //

dimensions      [0 1 -1 0 0 0 0];

internalField   nonuniform List<vector> 
115200
(
(5.20825 -0.570333 1.55184e-18)
(5.4343 -0.669446 -3.2828e-19)
(5.64926 -0.77452 -6.9139e-19)
(5.8505 -0.884009 -2.10124e-18)
(6.03812 -0.997534 -2.25103e-18)
(6.21205 -1.11458 2.26999e-18)
(6.37241 -1.23464 1.74091e-18)
(6.51938 -1.35722 5.97966e-19)
(6.65315 -1.48181 1.23735e-19)
(6.77395 -1.60792 -3.63082e-19)
(6.88202 -1.73507 1.36278e-19)
(6.97763 -1.86285 2.69088e-19)
(7.06109 -1.99084 3.55126e-19)
(7.13273 -2.11865 1.30691e-19)
(7.19286 -2.24589 9.03532e-22)
(7.24184 -2.37222 -3.4416e-19)
(7.27998 -2.49728 1.77264e-19)
(7.30762 -2.62078 1.92173e-21)
(7.32508 -2.74241 5.79362e-20)
(7.33269 -2.86194 -2.6005e-19)
(7.33075 -2.97915 -2.38488e-19)
(7.31958 -3.09386 -3.03772e-19)
(7.2995 -3.20593 -2.69519e-19)
(7.27088 -3.31532 1.01172e-18)
(7.23415 -3.42208 8.16959e-19)
(7.18952 -3.52625 -9.57433e-20)
(7.13694 -3.62777 -1.07629e-18)
(7.07779 -3.72717 -7.49964e-19)
(7.01296 -3.82438 3.19628e-20)
(6.94293 -3.91903 -8.37475e-21)
(6.8682 -4.01094 3.8651e-19)
(6.78914 -4.09994 -8.40737e-19)
(6.70603 -4.18589 1.44314e-19)
(6.61911 -4.26867 1.11811e-18)
(6.52861 -4.34817 9.97188e-19)
(6.4347 -4.42429 4.0492e-19)
(6.33758 -4.49694 -7.02245e-19)
(6.23741 -4.56603 -1.25542e-20)
(6.13436 -4.63147 1.27608e-18)
(6.02859 -4.6932 5.75735e-19)
(5.92025 -4.75112 -1.92642e-18)
(5.80952 -4.80519 5.02061e-21)
(5.69653 -4.85533 1.33519e-18)
(5.58145 -4.90148 -1.95403e-18)
(5.46444 -4.9436 -1.4318e-18)
(5.34564 -4.98164 4.55069e-19)
(5.22522 -5.01554 -8.7174e-19)
(5.10333 -5.04528 -1.02848e-18)
(4.98012 -5.07081 7.99896e-19)
(4.85574 -5.09212 2.40247e-20)
(4.73036 -5.10917 -2.42294e-20)
(4.60412 -5.12195 -2.48365e-18)
(4.47718 -5.13044 3.57457e-19)
(4.34968 -5.13463 2.38742e-18)
(4.22179 -5.13451 -1.13677e-18)
(4.09365 -5.1301 1.10956e-19)
(3.96541 -5.12138 1.26902e-18)
(3.83722 -5.10837 2.8704e-18)
(3.70923 -5.09109 -6.04714e-19)
(3.58159 -5.06954 -2.86255e-18)
(3.45443 -5.04377 0)
(3.32792 -5.01378 -1.92774e-19)
(3.20218 -4.97962 8.22382e-19)
(3.07735 -4.94132 -9.18457e-19)
(2.95359 -4.89892 9.80583e-19)
(2.83102 -4.85247 8.65025e-19)
(2.70978 -4.80202 -9.88244e-19)
(2.59 -4.74762 -8.32008e-20)
(2.47182 -4.68932 -1.12362e-18)
(2.35535 -4.6272 1.55005e-19)
(2.24074 -4.56132 -9.6757e-19)
(2.12809 -4.49174 -1.98742e-18)
(2.01754 -4.41855 1.1878e-18)
(1.9092 -4.34181 2.03789e-18)
(1.80319 -4.26161 2.28532e-18)
(1.69962 -4.17803 9.70105e-19)
(1.59861 -4.09116 -2.2538e-18)
(1.50025 -4.00109 -1.10819e-19)
(1.40467 -3.90791 -1.91078e-19)
(1.31197 -3.81171 -1.21029e-18)
(1.22225 -3.71259 1.12877e-18)
(1.13561 -3.61064 2.15645e-18)
(1.05218 -3.50596 1.03049e-18)
(0.972053 -3.39864 -2.34106e-18)
(0.895354 -3.28878 -2.17993e-18)
(0.822209 -3.17646 3.23344e-20)
(0.752761 -3.06176 2.26125e-18)
(0.687169 -2.94474 -1.19413e-18)
(0.625616 -2.82547 -3.42593e-18)
(0.568301 -2.70398 1.18956e-18)
(0.515411 -2.58032 1.14818e-18)
(0.467038 -2.45454 1.14869e-18)
(0.423005 -2.32675 -2.32392e-18)
(0.382687 -2.19721 1.09909e-18)
(0.345156 -2.06643 2.36653e-18)
(0.310019 -1.93492 -3.32432e-18)
(0.277957 -1.80293 7.86556e-22)
(0.249856 -1.67047 1.15826e-18)
(0.226025 -1.53756 2.0807e-18)
(0.206474 -1.40425 9.15391e-19)
(7.81535 -0.685343 9.88761e-19)
(7.9018 -0.751673 8.41086e-19)
(7.97435 -0.821723 -1.18837e-18)
(8.03347 -0.894626 -1.61772e-18)
(8.08043 -0.970362 -1.74443e-18)
(8.1162 -1.04876 -9.51249e-19)
(8.14175 -1.12966 4.71335e-19)
(8.15796 -1.21288 8.52564e-19)
(8.16567 -1.29819 5.18129e-19)
(8.16573 -1.38534 1.38848e-19)
(8.15887 -1.47408 2.3815e-19)
(8.14573 -1.56426 5.38834e-19)
(8.1269 -1.65572 1.63074e-19)
(8.1029 -1.74829 1.48767e-19)
(8.07418 -1.84183 1.48277e-19)
(8.04118 -1.93619 -3.32283e-19)
(8.00427 -2.03125 5.17595e-19)
(7.96382 -2.12689 -6.96253e-19)
(7.92012 -2.22301 5.13791e-20)
(7.87345 -2.31956 -1.11478e-18)
(7.82404 -2.41647 -5.79633e-19)
(7.77208 -2.51373 5.47548e-19)
(7.71768 -2.61132 7.56062e-19)
(7.66089 -2.70918 1.71189e-19)
(7.60186 -2.80713 -1.13303e-18)
(7.54062 -2.90539 -6.64142e-19)
(7.4774 -3.00415 -9.82449e-19)
(7.41118 -3.10243 -2.04466e-19)
(7.34153 -3.19942 3.12371e-19)
(7.26838 -3.29468 5.27168e-21)
(7.19165 -3.38785 8.89089e-19)
(7.11134 -3.47863 2.76615e-19)
(7.02753 -3.56682 1.76783e-19)
(6.94032 -3.65222 -3.22189e-19)
(6.84981 -3.7347 0)
(6.75613 -3.81411 -5.84365e-19)
(6.65942 -3.89034 -2.35409e-19)
(6.5598 -3.96329 8.44476e-19)
(6.45743 -4.03286 7.20871e-19)
(6.35243 -4.09896 -2.64763e-18)
(6.24495 -4.1615 -1.29203e-18)
(6.13513 -4.22042 2.97107e-18)
(6.02312 -4.27564 -1.38858e-18)
(5.90905 -4.3271 -1.74229e-18)
(5.79308 -4.37473 -2.49848e-19)
(5.67534 -4.41849 1.35388e-19)
(5.55599 -4.45833 -1.03066e-18)
(5.43516 -4.4942 -4.78307e-19)
(5.31301 -4.52606 2.02605e-18)
(5.18968 -4.55388 0)
(5.06531 -4.57763 -2.75682e-19)
(4.94005 -4.59729 -3.222e-20)
(4.81405 -4.61283 -9.47725e-19)
(4.68745 -4.62423 -9.85826e-19)
(4.5604 -4.6315 1.19611e-18)
(4.43305 -4.63462 3.3364e-18)
(4.30553 -4.6336 8.66761e-19)
(4.17799 -4.62843 -3.8425e-18)
(4.05057 -4.61913 -9.7943e-19)
(3.92342 -4.6057 2.09573e-18)
(3.79668 -4.58817 -1.55887e-18)
(3.67049 -4.56656 -1.88692e-18)
(3.54498 -4.5409 2.44751e-18)
(3.42029 -4.5112 1.02496e-18)
(3.29657 -4.47752 -1.24809e-18)
(3.17393 -4.43989 5.14918e-19)
(3.05252 -4.39836 -3.43589e-19)
(2.93247 -4.35296 -1.08318e-19)
(2.8139 -4.30376 1.50889e-18)
(2.69694 -4.2508 7.25363e-19)
(2.58172 -4.19416 -6.92854e-19)
(2.46836 -4.13388 -6.10873e-19)
(2.35697 -4.07004 -1.98713e-18)
(2.24767 -4.00271 1.32593e-18)
(2.14058 -3.93197 7.21059e-19)
(2.03581 -3.85788 -1.47465e-18)
(1.93347 -3.78053 -7.82401e-19)
(1.83366 -3.70001 -1.98095e-18)
(1.73649 -3.61639 6.16877e-19)
(1.64205 -3.52978 2.00932e-18)
(1.55044 -3.44026 1.63909e-19)
(1.46175 -3.34793 -3.19272e-20)
(1.37608 -3.25288 5.31372e-19)
(1.29351 -3.15523 7.48045e-21)
(1.21412 -3.05509 2.67551e-20)
(1.13799 -2.95256 1.24624e-18)
(1.06519 -2.84779 6.11839e-19)
(0.995791 -2.7409 -1.23361e-18)
(0.929844 -2.63205 -6.34473e-19)
(0.867397 -2.52143 -3.09524e-20)
(0.808479 -2.40925 1.27391e-21)
(0.7531 -2.29572 0)
(0.701259 -2.18107 -4.57084e-19)
(0.65297 -2.06539 -1.08879e-18)
(0.608314 -1.94863 1.04532e-18)
(0.567459 -1.83064 4.57437e-19)
(0.530591 -1.71137 -1.88372e-18)
(0.497817 -1.59093 5.61169e-19)
(0.469157 -1.46955 2.45547e-18)
(0.444602 -1.34745 8.89237e-19)
(7.57728 -0.861554 -6.18396e-20)
(7.58977 -0.923663 2.82245e-20)
(7.59993 -0.990221 1.56521e-19)
(7.60789 -1.0609 4.93241e-19)
(7.61389 -1.13548 -5.76538e-20)
(7.61799 -1.2137 -5.56403e-19)
(7.62019 -1.29531 -7.06251e-19)
(7.62042 -1.38 -1.49764e-20)
(7.61854 -1.46747 1.58652e-19)
(7.61443 -1.5574 -2.7941e-20)
(7.60791 -1.64945 -4.35081e-19)
(7.59886 -1.7433 1.2374e-19)
(7.58713 -1.83866 4.39216e-19)
(7.57258 -1.93522 5.91352e-21)
(7.55509 -2.03271 -4.57648e-20)
(7.53454 -2.13087 3.07812e-19)
(7.51084 -2.22942 5.02849e-20)
(7.4839 -2.32811 -8.38851e-20)
(7.45366 -2.42667 2.07401e-19)
(7.42006 -2.52483 -2.65567e-19)
(7.38308 -2.6223 -3.24478e-20)
(7.3427 -2.7188 1.83506e-19)
(7.29891 -2.81404 -8.35976e-19)
(7.25163 -2.90789 1.54681e-19)
(7.20067 -3.0002 6.95519e-20)
(7.14601 -3.0905 3.7988e-19)
(7.08766 -3.17842 -1.78479e-19)
(7.0257 -3.26383 2.31813e-19)
(6.96024 -3.34685 2.31524e-19)
(6.89137 -3.42752 7.78397e-19)
(6.81918 -3.50582 -2.55787e-19)
(6.74378 -3.5817 -1.33672e-18)
(6.66529 -3.65505 6.28056e-19)
(6.58382 -3.72581 5.81828e-19)
(6.49949 -3.79386 -8.43861e-19)
(6.41242 -3.85912 -2.39147e-20)
(6.32274 -3.9215 4.54856e-19)
(6.23055 -3.98091 -3.00479e-19)
(6.136 -4.03727 -4.25401e-19)
(6.03921 -4.09051 2.04946e-19)
(5.94029 -4.14055 1.30586e-18)
(5.83938 -4.18733 -3.55373e-19)
(5.7366 -4.23079 -1.73344e-18)
(5.63209 -4.27087 -5.26879e-19)
(5.52597 -4.30752 6.95084e-19)
(5.41836 -4.3407 8.9987e-20)
(5.3094 -4.37035 -2.10568e-18)
(5.19922 -4.39645 2.16749e-18)
(5.08795 -4.41897 1.84139e-18)
(4.97571 -4.43786 -1.6029e-18)
(4.86263 -4.45311 -1.561e-20)
(4.74885 -4.4647 7.37677e-21)
(4.6345 -4.47261 9.0012e-19)
(4.51969 -4.47684 1.00715e-18)
(4.40457 -4.47736 -8.07564e-19)
(4.28926 -4.47419 4.37387e-19)
(4.17388 -4.46732 -2.52872e-19)
(4.05857 -4.45676 3.67941e-19)
(3.94345 -4.44252 6.03513e-19)
(3.82864 -4.42461 -2.05798e-18)
(3.71427 -4.40305 -2.42112e-18)
(3.60046 -4.37786 -3.02625e-20)
(3.48734 -4.34907 3.37519e-18)
(3.37502 -4.3167 9.47287e-19)
(3.26363 -4.2808 -8.58034e-19)
(3.15328 -4.24139 -1.88977e-18)
(3.04409 -4.19851 -5.14843e-19)
(2.93616 -4.15222 2.44056e-18)
(2.82963 -4.10257 2.2331e-21)
(2.72458 -4.04959 -4.89916e-19)
(2.62115 -3.99335 -2.11001e-20)
(2.51942 -3.9339 -4.23467e-20)
(2.41951 -3.87131 2.77731e-20)
(2.32151 -3.80564 1.79916e-20)
(2.22554 -3.73696 -5.36071e-21)
(2.13168 -3.66535 1.92535e-21)
(2.04004 -3.59087 4.56776e-19)
(1.9507 -3.5136 -3.94001e-20)
(1.86376 -3.43363 -2.85287e-20)
(1.7793 -3.35103 1.30738e-18)
(1.69742 -3.2659 -4.19402e-19)
(1.61819 -3.17833 -2.13615e-18)
(1.5417 -3.0884 3.27047e-20)
(1.46803 -2.99621 2.0846e-18)
(1.39725 -2.90187 -4.29529e-21)
(1.32944 -2.80547 -1.14394e-18)
(1.26466 -2.70713 8.13834e-19)
(1.20298 -2.60696 1.54097e-18)
(1.14445 -2.50506 -3.77172e-19)
(1.08912 -2.40157 -1.41949e-18)
(1.03703 -2.29658 -3.1319e-19)
(0.988196 -2.19023 -3.04482e-19)
(0.94261 -2.08262 8.72745e-20)
(0.900259 -1.97384 5.60594e-19)
(0.86113 -1.86395 -1.75104e-19)
(0.825248 -1.75302 4.43979e-20)
(0.792677 -1.64113 -5.65196e-19)
(0.763492 -1.52841 -6.33742e-19)
(0.737751 -1.41497 4.64657e-19)
(0.715489 -1.30096 -5.85275e-19)
(7.24374 -0.820189 6.86236e-19)
(7.26312 -0.874252 -5.60527e-20)
(7.28225 -0.932318 -5.39676e-19)
(7.30083 -0.994143 -5.08759e-19)
(7.3184 -1.05946 -1.74356e-19)
(7.33456 -1.12799 2.30398e-19)
(7.34892 -1.19946 -3.76798e-19)
(7.36113 -1.2736 -4.14431e-19)
(7.37087 -1.35013 -1.14117e-19)
(7.37788 -1.42879 2.68758e-19)
(7.38193 -1.50933 -1.8962e-19)
(7.38282 -1.5915 -3.86552e-19)
(7.3804 -1.67507 -1.73564e-19)
(7.37451 -1.75981 -1.13134e-21)
(7.36507 -1.84549 2.87658e-20)
(7.35196 -1.93192 2.61209e-19)
(7.33514 -2.01887 1.4779e-19)
(7.31453 -2.10615 9.39612e-19)
(7.29009 -2.19359 1.97726e-19)
(7.26181 -2.28101 -1.3152e-19)
(7.22966 -2.36827 -2.93246e-20)
(7.19364 -2.4552 1.78796e-19)
(7.15379 -2.5416 7.42857e-19)
(7.11025 -2.62716 6.03157e-19)
(7.06307 -2.71168 -5.93304e-19)
(7.01233 -2.79501 1.78696e-19)
(6.95813 -2.87698 -5.98236e-19)
(6.90062 -2.95742 -1.30772e-20)
(6.83989 -3.03619 -1.63448e-19)
(6.77602 -3.11312 -6.43831e-20)
(6.7091 -3.18809 -3.12948e-19)
(6.63921 -3.26096 6.72976e-19)
(6.56645 -3.33161 1.86586e-19)
(6.4909 -3.39993 1.05274e-19)
(6.41266 -3.4658 -1.31668e-19)
(6.33184 -3.52914 -6.73227e-19)
(6.24854 -3.58984 -1.33131e-18)
(6.16286 -3.64782 -2.20313e-19)
(6.07492 -3.70299 1.12745e-18)
(5.98484 -3.75528 1.60652e-18)
(5.89271 -3.80461 -8.26899e-20)
(5.79867 -3.85092 -3.11493e-19)
(5.70283 -3.89414 3.37768e-19)
(5.6053 -3.93423 -1.45155e-19)
(5.50621 -3.97112 -2.68501e-19)
(5.40567 -4.00476 2.18133e-19)
(5.30381 -4.03512 1.80663e-18)
(5.20074 -4.06216 1.39663e-18)
(5.0966 -4.08583 -9.93683e-19)
(4.99149 -4.10611 -8.58694e-19)
(4.88555 -4.12298 -7.768e-19)
(4.77889 -4.13641 0)
(4.67164 -4.14638 7.0072e-20)
(4.56391 -4.15288 1.77576e-19)
(4.45584 -4.15591 -1.13633e-19)
(4.34754 -4.15545 -1.68904e-18)
(4.23914 -4.1515 -6.86004e-19)
(4.13075 -4.14407 1.25501e-18)
(4.02249 -4.13317 -1.30753e-18)
(3.91448 -4.1188 -3.99895e-19)
(3.80685 -4.10098 1.2397e-18)
(3.69971 -4.07973 5.08771e-20)
(3.59317 -4.05507 4.50462e-19)
(3.48735 -4.02703 1.77196e-18)
(3.38237 -3.99563 1.26914e-18)
(3.27833 -3.96092 -2.53342e-18)
(3.17535 -3.92293 4.63963e-20)
(3.07354 -3.88169 9.52866e-19)
(2.973 -3.83726 -2.18636e-18)
(2.87384 -3.78967 -3.43884e-19)
(2.77616 -3.739 1.18859e-18)
(2.68007 -3.68527 1.80778e-18)
(2.58567 -3.62856 6.28568e-19)
(2.49305 -3.56893 -1.49011e-18)
(2.40231 -3.50643 5.96371e-19)
(2.31354 -3.44114 1.19177e-20)
(2.22683 -3.37313 -1.15818e-18)
(2.14228 -3.30247 6.11352e-19)
(2.05996 -3.22924 1.00322e-21)
(1.97996 -3.1535 -1.1601e-18)
(1.90236 -3.07536 4.25032e-21)
(1.82724 -2.99489 5.43835e-19)
(1.75467 -2.91217 -8.11251e-19)
(1.68472 -2.82731 -4.97384e-19)
(1.61746 -2.74039 7.81808e-19)
(1.55295 -2.65151 4.55677e-19)
(1.49125 -2.56077 -7.30721e-19)
(1.43243 -2.46827 -1.73877e-19)
(1.37652 -2.37411 9.6501e-19)
(1.32358 -2.27841 2.33309e-19)
(1.27364 -2.18125 -1.5898e-19)
(1.22674 -2.08275 -6.52317e-19)
(1.18291 -1.98301 -1.47842e-20)
(1.14218 -1.88212 1.08185e-18)
(1.10459 -1.78015 -7.02034e-20)
(1.07016 -1.67721 -4.84584e-19)
(1.03894 -1.57338 1.78532e-19)
(1.01096 -1.46876 -5.97726e-20)
(0.986254 -1.36348 2.44632e-19)
(0.964837 -1.25763 3.31352e-20)
(7.03207 -0.905218 2.95879e-19)
(7.05295 -0.960964 7.35521e-19)
(7.07298 -1.0197 -3.36054e-21)
(7.09179 -1.0813 -1.29695e-20)
(7.10898 -1.14559 -4.12102e-19)
(7.1242 -1.21237 7.08439e-20)
(7.13717 -1.28144 1.46652e-19)
(7.14767 -1.35259 -4.26951e-19)
(7.15547 -1.42562 -2.31624e-19)
(7.16042 -1.50031 -2.51585e-19)
(7.16238 -1.57646 2.65352e-19)
(7.16123 -1.65386 1.43807e-19)
(7.15689 -1.7323 -1.96232e-19)
(7.14928 -1.81157 -2.49787e-20)
(7.13835 -1.89147 -1.10232e-19)
(7.12406 -1.97181 4.79014e-20)
(7.10639 -2.05237 9.10457e-20)
(7.08533 -2.13296 -1.67562e-20)
(7.06087 -2.21337 -2.06079e-19)
(7.03304 -2.2934 -3.84689e-20)
(7.00186 -2.37284 5.48723e-19)
(6.96736 -2.45149 -1.62208e-19)
(6.92953 -2.52926 2.29844e-20)
(6.8884 -2.60603 -7.48044e-19)
(6.84403 -2.68167 1.55036e-20)
(6.79649 -2.75601 -1.1979e-19)
(6.74585 -2.82895 -4.62747e-19)
(6.69219 -2.90035 3.16824e-19)
(6.63558 -2.97012 2.99628e-19)
(6.57611 -3.03815 0)
(6.51387 -3.10436 5.83286e-19)
(6.44892 -3.16864 6.73151e-20)
(6.38136 -3.2309 -4.60174e-19)
(6.31127 -3.29105 -3.49822e-19)
(6.23875 -3.34899 -5.84647e-20)
(6.16389 -3.40464 -1.49986e-19)
(6.08678 -3.45792 6.84512e-19)
(6.00752 -3.50875 8.94063e-19)
(5.92621 -3.55705 6.25246e-19)
(5.84295 -3.60275 3.53291e-20)
(5.75784 -3.64579 -4.98502e-19)
(5.671 -3.68609 -5.06408e-19)
(5.58251 -3.72362 -6.40522e-19)
(5.4925 -3.7583 1.14809e-18)
(5.40106 -3.79009 8.32689e-20)
(5.30831 -3.81895 -6.83117e-19)
(5.21435 -3.84484 -7.15596e-20)
(5.1193 -3.86771 -2.20047e-19)
(5.02326 -3.88753 1.67986e-19)
(4.92635 -3.90428 -8.64896e-20)
(4.82867 -3.91793 0)
(4.73033 -3.92845 -2.1216e-19)
(4.63146 -3.93583 -4.40457e-20)
(4.53215 -3.94007 -4.66164e-19)
(4.43253 -3.94113 -9.36185e-19)
(4.33269 -3.93903 7.14807e-19)
(4.23275 -3.93376 1.01775e-18)
(4.13283 -3.92531 2.57569e-19)
(4.03302 -3.9137 3.14974e-20)
(3.93345 -3.89894 -1.03861e-18)
(3.83421 -3.88103 -9.12194e-19)
(3.73541 -3.85999 1.35406e-18)
(3.63717 -3.83585 9.18647e-19)
(3.53958 -3.80862 -4.67057e-19)
(3.44274 -3.77834 -2.84518e-20)
(3.34677 -3.74502 -5.01647e-19)
(3.25177 -3.70871 9.07814e-21)
(3.15782 -3.66944 4.4793e-19)
(3.06504 -3.62725 -2.72908e-19)
(2.97352 -3.58219 -4.47087e-19)
(2.88335 -3.5343 -2.02737e-19)
(2.79463 -3.48362 4.5395e-19)
(2.70745 -3.43022 4.45369e-19)
(2.6219 -3.37415 4.42347e-19)
(2.53806 -3.31546 4.03977e-19)
(2.45603 -3.25421 4.03277e-21)
(2.37588 -3.19048 8.48025e-19)
(2.2977 -3.12432 -1.21497e-18)
(2.22156 -3.0558 1.90697e-20)
(2.14754 -2.985 1.3522e-18)
(2.07573 -2.91199 -1.1556e-18)
(2.00617 -2.83685 -1.90433e-19)
(1.93896 -2.75966 -3.19253e-21)
(1.87414 -2.68049 -4.00531e-19)
(1.81178 -2.59944 2.66993e-19)
(1.75195 -2.51659 3.76014e-19)
(1.69469 -2.43202 -2.69245e-19)
(1.64006 -2.34582 -3.71394e-19)
(1.5881 -2.25809 -2.11394e-19)
(1.53886 -2.16892 -4.25141e-19)
(1.49238 -2.0784 5.93384e-19)
(1.4487 -1.98662 3.97284e-19)
(1.40783 -1.89367 -4.68976e-19)
(1.36983 -1.79965 4.58864e-19)
(1.3347 -1.70464 3.62328e-20)
(1.30249 -1.60873 -4.34719e-19)
(1.27322 -1.51202 -7.04609e-20)
(1.24692 -1.4146 -1.53748e-20)
(1.22361 -1.31657 -1.47005e-19)
(1.20331 -1.21804 8.30186e-20)
(6.89853 -0.939794 -1.38582e-19)
(6.91774 -0.991673 8.21112e-20)
(6.93555 -1.04573 7.52045e-20)
(6.9518 -1.10195 2.286e-19)
(6.96624 -1.16024 1.98545e-19)
(6.9787 -1.22049 8.44787e-20)
(6.98898 -1.28258 1.49705e-19)
(6.99692 -1.34636 1.04536e-19)
(7.00238 -1.41169 1.07288e-19)
(7.00525 -1.47842 -1.25434e-19)
(7.00541 -1.54641 -3.3512e-20)
(7.00277 -1.61547 -7.47755e-20)
(6.99726 -1.68547 2.88791e-20)
(6.98881 -1.75624 0)
(6.97736 -1.82762 1.06739e-19)
(6.96289 -1.89946 -1.04728e-19)
(6.94535 -1.9716 -9.52148e-20)
(6.92473 -2.04389 -1.08731e-19)
(6.90103 -2.11618 -2.74898e-20)
(6.87423 -2.18834 7.72349e-20)
(6.84436 -2.26024 -2.20335e-19)
(6.81144 -2.33172 -3.24846e-19)
(6.77552 -2.4026 2.29095e-19)
(6.73663 -2.47272 -3.36672e-19)
(6.69483 -2.54194 2.31953e-19)
(6.65015 -2.61012 2.30132e-21)
(6.60266 -2.67713 2.50839e-20)
(6.55242 -2.74285 -3.34233e-19)
(6.49949 -2.80716 1.83373e-19)
(6.44393 -2.86994 3.04932e-19)
(6.38583 -2.9311 1.13862e-19)
(6.32525 -2.99053 2.0292e-19)
(6.26226 -3.04813 -3.592e-19)
(6.19695 -3.10381 -4.71553e-19)
(6.12939 -3.15747 1.94117e-19)
(6.05967 -3.20905 -2.8222e-19)
(5.98787 -3.25844 5.94542e-19)
(5.91408 -3.30559 5.49738e-19)
(5.83839 -3.35041 -5.29061e-19)
(5.76089 -3.39285 -1.85088e-19)
(5.68168 -3.43283 3.05007e-19)
(5.60085 -3.47029 -8.21899e-19)
(5.51849 -3.50519 -2.2288e-19)
(5.43471 -3.53746 3.12446e-19)
(5.3496 -3.56707 -3.7385e-19)
(5.26326 -3.59396 7.33866e-19)
(5.1758 -3.6181 1.25854e-19)
(5.0873 -3.63945 -2.72111e-19)
(4.99789 -3.65798 2.26435e-19)
(4.90765 -3.67367 -3.69826e-19)
(4.81669 -3.68647 0)
(4.72512 -3.69639 -3.23534e-19)
(4.63303 -3.70339 -3.59386e-20)
(4.54053 -3.70746 2.86072e-19)
(4.44772 -3.7086 2.43086e-19)
(4.35471 -3.7068 1.95213e-19)
(4.2616 -3.70205 -2.66747e-19)
(4.16849 -3.69436 2.22437e-19)
(4.07548 -3.68372 2.52867e-20)
(3.98267 -3.67016 -3.5293e-19)
(3.89016 -3.65367 -9.70852e-19)
(3.79806 -3.63427 -3.47588e-19)
(3.70647 -3.61198 1.02318e-18)
(3.61547 -3.58683 8.27393e-19)
(3.52517 -3.55883 2.41592e-20)
(3.43566 -3.52801 -8.27041e-19)
(3.34704 -3.4944 2.70253e-20)
(3.2594 -3.45804 -4.6664e-19)
(3.17283 -3.41896 -1.58088e-19)
(3.08742 -3.37721 1.10729e-18)
(3.00327 -3.33282 3.06313e-19)
(2.92045 -3.28585 1.80888e-19)
(2.83905 -3.23633 4.72874e-19)
(2.75917 -3.18432 -7.8895e-19)
(2.68087 -3.12988 -1.41484e-19)
(2.60423 -3.07305 3.05173e-19)
(2.52935 -3.01391 -7.40398e-19)
(2.45628 -2.95251 3.69255e-20)
(2.38511 -2.88891 2.61727e-19)
(2.3159 -2.82318 -2.563e-19)
(2.24872 -2.7554 2.96646e-19)
(2.18364 -2.68562 2.97167e-19)
(2.12071 -2.61393 -2.41344e-19)
(2.06001 -2.5404 4.72307e-19)
(2.00159 -2.4651 -3.80971e-19)
(1.9455 -2.38813 -9.29157e-19)
(1.89179 -2.30954 3.54248e-19)
(1.84052 -2.22944 8.94181e-19)
(1.79172 -2.1479 3.12956e-20)
(1.74544 -2.065 -4.26031e-19)
(1.70172 -1.98083 -4.22655e-20)
(1.66059 -1.89548 9.15228e-20)
(1.62209 -1.80903 1.67295e-19)
(1.58625 -1.72157 2.9861e-20)
(1.5531 -1.63318 -5.75104e-20)
(1.52265 -1.54396 2.38413e-19)
(1.49495 -1.45398 1.96948e-19)
(1.47 -1.36334 -3.77151e-19)
(1.44783 -1.27214 -1.24855e-19)
(1.42846 -1.18045 3.71645e-20)
(6.78394 -0.9888 -6.50536e-20)
(6.79881 -1.03833 -5.05027e-20)
(6.81228 -1.08963 -2.30162e-19)
(6.82425 -1.14269 -1.27304e-19)
(6.83454 -1.19742 1.36199e-19)
(6.84301 -1.25376 1.05191e-19)
(6.84951 -1.31159 -9.04191e-20)
(6.85391 -1.37081 -2.53431e-20)
(6.85611 -1.4313 -1.22918e-20)
(6.85601 -1.49293 4.17188e-20)
(6.85351 -1.55557 -6.13273e-20)
(6.84854 -1.6191 -6.57204e-20)
(6.84104 -1.68337 -5.75212e-20)
(6.83095 -1.74825 7.26416e-21)
(6.81822 -1.81359 -1.41423e-19)
(6.80283 -1.87926 -5.35872e-22)
(6.78475 -1.9451 3.3115e-20)
(6.76396 -2.01099 1.4918e-19)
(6.74045 -2.07677 -1.59819e-19)
(6.71423 -2.14231 1.18571e-19)
(6.68531 -2.20745 -2.4728e-19)
(6.65368 -2.27209 1.55216e-19)
(6.61936 -2.33611 5.16513e-20)
(6.58238 -2.3994 -5.22391e-20)
(6.54278 -2.46183 -2.51186e-19)
(6.50059 -2.52329 2.12683e-19)
(6.45587 -2.58367 3.18708e-19)
(6.40866 -2.64287 1.35743e-19)
(6.35902 -2.70079 3.56981e-19)
(6.30701 -2.75732 1.36312e-19)
(6.25267 -2.81237 -4.11602e-19)
(6.19609 -2.86586 -4.11432e-19)
(6.13732 -2.91769 1.8976e-20)
(6.07643 -2.96777 4.78164e-19)
(6.0135 -3.01604 4.31254e-19)
(5.9486 -3.06241 1.07851e-20)
(5.8818 -3.1068 -1.66176e-19)
(5.81319 -3.14915 -8.7878e-20)
(5.74284 -3.18939 -4.59727e-19)
(5.67084 -3.22746 -7.55451e-20)
(5.59727 -3.2633 3.78435e-19)
(5.52222 -3.29685 -7.40938e-21)
(5.44577 -3.32806 3.98141e-20)
(5.36802 -3.35688 -2.85114e-20)
(5.28904 -3.38326 7.19934e-19)
(5.20894 -3.40717 7.42253e-20)
(5.1278 -3.42857 -8.3943e-19)
(5.04571 -3.44741 1.57992e-19)
(4.96278 -3.46368 -9.81692e-20)
(4.87908 -3.47734 -1.4481e-19)
(4.79472 -3.48837 2.37214e-19)
(4.7098 -3.49675 -3.38714e-19)
(4.62439 -3.50246 -5.85581e-19)
(4.5386 -3.50549 -7.51138e-19)
(4.45253 -3.50583 -1.16706e-20)
(4.36626 -3.50346 1.63099e-18)
(4.27989 -3.49839 1.05254e-18)
(4.19352 -3.49062 -1.20609e-19)
(4.10724 -3.48015 -4.76266e-19)
(4.02114 -3.46698 -3.92355e-19)
(3.93532 -3.45113 -8.80597e-19)
(3.84986 -3.4326 4.09792e-19)
(3.76485 -3.41142 9.13813e-19)
(3.6804 -3.38759 -9.57645e-21)
(3.59658 -3.36115 4.93673e-19)
(3.51349 -3.33212 1.28614e-21)
(3.43121 -3.30051 -4.96541e-19)
(3.34983 -3.26637 -3.80801e-19)
(3.26943 -3.22973 7.34249e-21)
(3.19009 -3.19062 -2.3008e-19)
(3.11191 -3.14908 -1.14564e-19)
(3.03495 -3.10516 -2.04993e-20)
(2.9593 -3.05889 1.17161e-19)
(2.88504 -3.01033 2.49645e-19)
(2.81223 -2.95952 6.63911e-19)
(2.74096 -2.90651 -3.26057e-19)
(2.67129 -2.85136 -1.08926e-18)
(2.6033 -2.79412 7.5003e-19)
(2.53704 -2.73486 4.05601e-19)
(2.4726 -2.67362 -2.24717e-19)
(2.41002 -2.61049 -4.21816e-19)
(2.34938 -2.54551 -3.48893e-19)
(2.29072 -2.47877 8.80209e-19)
(2.23411 -2.41032 1.83977e-19)
(2.17959 -2.34023 -4.04854e-19)
(2.12723 -2.26859 2.58943e-19)
(2.07706 -2.19545 -4.04176e-20)
(2.02913 -2.1209 -6.15754e-19)
(1.98349 -2.04502 1.63077e-20)
(1.94017 -1.96788 2.90402e-19)
(1.89921 -1.88955 -2.97911e-19)
(1.86065 -1.81012 1.56692e-19)
(1.82451 -1.72967 5.72683e-19)
(1.79083 -1.64827 -3.74659e-19)
(1.75963 -1.56601 -2.15469e-19)
(1.73094 -1.48297 -4.43454e-21)
(1.70478 -1.39923 -1.51999e-19)
(1.68117 -1.31488 2.34082e-19)
(1.66012 -1.22999 2.78158e-19)
(1.64165 -1.14466 2.54391e-19)
(6.68289 -1.01916 6.74113e-20)
(6.69432 -1.06559 -1.34971e-19)
(6.70437 -1.11341 -1.89237e-19)
(6.71297 -1.16263 -1.3009e-20)
(6.72001 -1.21318 -8.09398e-20)
(6.72538 -1.26503 -5.94531e-22)
(6.72897 -1.31808 4.93359e-20)
(6.73067 -1.37226 -2.21064e-19)
(6.7304 -1.42747 -8.77752e-20)
(6.72808 -1.48362 -3.72246e-20)
(6.72362 -1.5406 -3.04914e-20)
(6.71697 -1.59831 -1.54953e-20)
(6.70807 -1.65664 1.36177e-19)
(6.69686 -1.71547 -1.01896e-19)
(6.6833 -1.7747 -3.6989e-20)
(6.66736 -1.83419 1.16013e-19)
(6.64902 -1.89385 7.55846e-20)
(6.62825 -1.95354 -3.07531e-20)
(6.60505 -2.01317 -6.0731e-20)
(6.5794 -2.07261 5.14922e-20)
(6.55132 -2.13176 -2.16055e-19)
(6.52082 -2.19048 -2.01975e-20)
(6.48791 -2.24867 9.77097e-20)
(6.45263 -2.30622 1.72099e-19)
(6.41498 -2.363 -3.70322e-19)
(6.37501 -2.41893 3.80555e-19)
(6.33275 -2.47388 4.48003e-19)
(6.28824 -2.52778 -1.26739e-19)
(6.24153 -2.58051 1.40607e-19)
(6.19267 -2.632 -2.84967e-19)
(6.1417 -2.68214 -2.15803e-19)
(6.08869 -2.73086 -1.89252e-19)
(6.03369 -2.77806 -5.1825e-20)
(5.97676 -2.82369 6.7354e-19)
(5.91796 -2.86765 5.12259e-20)
(5.85737 -2.90987 -3.10773e-19)
(5.79505 -2.95029 -1.57611e-20)
(5.73106 -2.98884 -3.29788e-19)
(5.66549 -3.02546 -3.90637e-19)
(5.59841 -3.06009 7.89497e-20)
(5.52989 -3.09268 5.91154e-19)
(5.46 -3.12316 5.17566e-21)
(5.38884 -3.1515 -3.71802e-19)
(5.31648 -3.17764 -4.89834e-20)
(5.24299 -3.20155 3.73339e-19)
(5.16847 -3.22318 -2.17618e-19)
(5.09299 -3.2425 -1.22676e-19)
(5.01665 -3.25948 5.53409e-19)
(4.93952 -3.27409 -5.79522e-21)
(4.86169 -3.28629 -3.83903e-19)
(4.78325 -3.29608 3.67265e-19)
(4.70428 -3.30342 1.79353e-19)
(4.62487 -3.30831 -3.31602e-19)
(4.54511 -3.31072 -1.51042e-19)
(4.46508 -3.31065 -2.29949e-20)
(4.38487 -3.30809 4.21519e-19)
(4.30457 -3.30304 -2.36395e-20)
(4.22426 -3.29549 3.25341e-19)
(4.14403 -3.28546 1.05628e-20)
(4.06397 -3.27293 -4.01438e-19)
(3.98416 -3.25792 -2.14513e-19)
(3.90468 -3.24045 -3.49695e-19)
(3.82563 -3.22052 -1.08587e-20)
(3.74708 -3.19815 -6.52292e-21)
(3.66911 -3.17337 1.85473e-19)
(3.59181 -3.14618 -2.07868e-19)
(3.51525 -3.11663 -1.96461e-19)
(3.43953 -3.08473 1.99224e-19)
(3.36471 -3.05051 1.87635e-19)
(3.29087 -3.01402 -4.36632e-22)
(3.21809 -2.97527 -5.69166e-19)
(3.14644 -2.93432 -1.91198e-19)
(3.076 -2.89121 5.53522e-19)
(3.00683 -2.84596 3.71928e-19)
(2.93901 -2.79864 -3.72083e-19)
(2.8726 -2.74928 -1.61586e-19)
(2.80767 -2.69794 5.0779e-19)
(2.74429 -2.64467 3.19716e-19)
(2.68251 -2.58951 3.15432e-20)
(2.6224 -2.53254 -3.24506e-19)
(2.56401 -2.4738 -3.30029e-19)
(2.50741 -2.41335 -1.96038e-19)
(2.45264 -2.35127 5.56399e-21)
(2.39975 -2.2876 3.32804e-20)
(2.34881 -2.22241 -2.69132e-20)
(2.29984 -2.15577 1.43689e-19)
(2.25291 -2.08775 3.9672e-19)
(2.20804 -2.01842 2.60245e-19)
(2.16529 -1.94784 -1.26147e-19)
(2.12468 -1.87609 -2.42856e-19)
(2.08625 -1.80323 -1.11508e-19)
(2.05004 -1.72935 -2.46928e-19)
(2.01607 -1.65451 -1.823e-20)
(1.98438 -1.5788 2.56725e-19)
(1.95498 -1.50228 -3.98874e-20)
(1.9279 -1.42503 1.8139e-19)
(1.90316 -1.34712 -8.1063e-20)
(1.88078 -1.26865 -2.68665e-19)
(1.86077 -1.18967 -1.25658e-19)
(1.84315 -1.11028 2.78009e-19)
(6.58968 -1.0459 2.42041e-19)
(6.59783 -1.08962 2.56095e-19)
(6.60468 -1.1345 -1.52834e-19)
(6.61018 -1.18052 -1.00083e-19)
(6.61425 -1.22765 -3.24e-20)
(6.61679 -1.27582 -1.99548e-20)
(6.61771 -1.32498 3.7012e-20)
(6.61694 -1.37506 1.31262e-19)
(6.61439 -1.42598 -4.1027e-20)
(6.61001 -1.47765 4.09229e-20)
(6.60372 -1.52999 -4.2354e-20)
(6.59547 -1.58291 9.8453e-20)
(6.58522 -1.63632 2.51671e-20)
(6.57292 -1.69011 -9.91303e-20)
(6.55853 -1.7442 1.0985e-19)
(6.54203 -1.79847 -3.39365e-20)
(6.52339 -1.85282 4.30019e-20)
(6.5026 -1.90716 -8.89844e-20)
(6.47964 -1.96138 1.88387e-20)
(6.45451 -2.01538 -1.39824e-19)
(6.42721 -2.06905 -1.87708e-19)
(6.39774 -2.12231 -8.03402e-20)
(6.36612 -2.17505 2.22041e-19)
(6.33236 -2.22718 1.94568e-19)
(6.29649 -2.2786 -1.55698e-19)
(6.25852 -2.32922 6.17701e-20)
(6.2185 -2.37896 -7.07125e-20)
(6.17645 -2.42772 -5.69102e-20)
(6.13241 -2.47543 -1.21404e-19)
(6.08643 -2.52198 1.30095e-19)
(6.03854 -2.56732 -2.50118e-19)
(5.98881 -2.61136 -2.57376e-19)
(5.93727 -2.65402 1.20552e-19)
(5.88399 -2.69523 1.24143e-19)
(5.82902 -2.73493 3.32714e-19)
(5.77241 -2.77305 -2.53598e-19)
(5.71422 -2.80952 -2.67685e-19)
(5.65453 -2.84428 -2.49989e-19)
(5.5934 -2.87729 1.35691e-19)
(5.53088 -2.90847 8.41309e-19)
(5.46706 -2.93779 -1.25585e-19)
(5.40199 -2.96519 -4.92837e-19)
(5.33576 -2.99062 -3.00931e-19)
(5.26843 -3.01405 1.62031e-19)
(5.20008 -3.03543 5.93017e-19)
(5.13078 -3.05473 2.62032e-19)
(5.0606 -3.07191 -4.76367e-19)
(4.98964 -3.08695 -4.49092e-19)
(4.91795 -3.09981 1.4221e-19)
(4.84562 -3.11047 -1.49969e-19)
(4.77273 -3.11891 4.05736e-20)
(4.69936 -3.12511 4.09285e-19)
(4.62558 -3.12906 -7.85776e-21)
(4.55148 -3.13073 -1.2198e-18)
(4.47714 -3.13012 -1.64026e-19)
(4.40263 -3.12723 9.20717e-19)
(4.32803 -3.12205 -4.72337e-19)
(4.25343 -3.11457 1.52685e-20)
(4.1789 -3.1048 9.00727e-19)
(4.10452 -3.09274 -1.86907e-20)
(4.03038 -3.0784 -4.74329e-19)
(3.95654 -3.06179 9.22135e-22)
(3.88308 -3.04292 3.18984e-19)
(3.81009 -3.0218 -7.40393e-19)
(3.73764 -2.99845 -4.69116e-21)
(3.6658 -2.9729 7.3582e-19)
(3.59464 -2.94516 -1.49744e-19)
(3.52425 -2.91526 -1.12391e-21)
(3.45469 -2.88322 -2.92657e-19)
(3.38603 -2.84909 -5.64203e-19)
(3.31835 -2.81288 2.85767e-19)
(3.2517 -2.77463 5.33023e-19)
(3.18617 -2.73438 -1.05864e-20)
(3.12181 -2.69217 5.25147e-19)
(3.05869 -2.64805 2.03223e-21)
(2.99687 -2.60204 -6.47411e-19)
(2.93642 -2.5542 -1.17596e-19)
(2.87738 -2.50457 -3.65428e-19)
(2.81983 -2.45321 2.81311e-19)
(2.76381 -2.40017 9.67271e-19)
(2.70938 -2.34549 1.02226e-19)
(2.65659 -2.28924 -4.65393e-19)
(2.60549 -2.23146 -3.39004e-19)
(2.55613 -2.17222 2.22751e-19)
(2.50856 -2.11158 7.6884e-20)
(2.46281 -2.04959 -1.14666e-19)
(2.41893 -1.98632 -8.83602e-20)
(2.37697 -1.92183 -2.61561e-19)
(2.33694 -1.85618 2.07988e-19)
(2.2989 -1.78945 1.551e-19)
(2.26288 -1.72169 -9.13542e-20)
(2.22889 -1.65297 2.73874e-19)
(2.19698 -1.58337 -1.62096e-19)
(2.16717 -1.51295 -2.30419e-19)
(2.13948 -1.44178 1.29131e-19)
(2.11393 -1.36993 1.36066e-19)
(2.09054 -1.29747 2.8841e-20)
(2.06933 -1.22447 -2.0528e-19)
(2.05031 -1.15101 -1.0981e-19)
(2.03349 -1.07715 -8.05585e-20)
(6.50364 -1.06367 -1.20195e-19)
(6.50912 -1.1047 8.15514e-20)
(6.51335 -1.14666 2.10949e-19)
(6.51633 -1.18955 1.13587e-20)
(6.51797 -1.23333 -1.08354e-20)
(6.5182 -1.27796 7.30825e-20)
(6.51696 -1.32338 3.6064e-21)
(6.51418 -1.36954 8.89557e-20)
(6.5098 -1.41638 1.12756e-19)
(6.50376 -1.46381 5.09199e-21)
(6.49601 -1.51178 2.87922e-20)
(6.4865 -1.56021 9.53752e-20)
(6.47519 -1.60901 -5.49412e-20)
(6.46205 -1.65811 -1.74407e-20)
(6.44704 -1.70743 1.18528e-19)
(6.43014 -1.75687 8.6828e-20)
(6.41133 -1.80635 0)
(6.39059 -1.85578 8.6603e-20)
(6.3679 -1.90508 4.69843e-20)
(6.34327 -1.95417 -1.78841e-19)
(6.3167 -2.00294 1.2054e-19)
(6.28819 -2.05132 1.24325e-19)
(6.25775 -2.09922 -1.29713e-19)
(6.22539 -2.14654 4.14827e-21)
(6.19113 -2.19321 2.76548e-20)
(6.155 -2.23915 1.1534e-19)
(6.11701 -2.28427 3.37653e-21)
(6.0772 -2.3285 -3.06665e-19)
(6.03559 -2.37175 6.21944e-20)
(5.99223 -2.41396 3.4056e-19)
(5.94716 -2.45504 -1.15063e-19)
(5.90041 -2.49494 -1.96119e-19)
(5.85204 -2.53357 1.40408e-19)
(5.80208 -2.57089 -5.34452e-20)
(5.75059 -2.60681 -2.2399e-19)
(5.69761 -2.64129 3.85251e-19)
(5.64321 -2.67426 1.24337e-19)
(5.58744 -2.70567 -9.76483e-20)
(5.53036 -2.73547 5.43064e-20)
(5.47203 -2.7636 -1.11325e-19)
(5.4125 -2.79002 -3.26176e-19)