/*--------------------------------*- C++ -*----------------------------------*\
  =========                 |
  \\      /  F ield         | OpenFOAM: The Open Source CFD Toolbox
   \\    /   O peration     | Website:  https://openfoam.org
    \\  /    A nd           | Version:  8
     \\/     M anipulation  |
\*---------------------------------------------------------------------------*/
FoamFile
{
    version     2.0;
    format      ascii;
    class       surfaceScalarField;
    location    "0.2";
    object      phi;
}
// * * * * * * * * * * * * * * * * * * * * * * * * * * * * * * * * * * * * * //

dimensions      [0 3 -1 0 0 0 0];

internalField   nonuniform List<scalar> 
225392
(
-0.00359954
0.0263995
-0.00840024
0.0708007
-0.0119997
0.115199
-0.016799
0.159599
-0.0215984
0.203999
-0.0251978
0.248399
-0.0287973
0.291599
-0.0323967
0.335999
-0.035996
0.379199
-0.0395952
0.424799
-0.0419944
0.466799
-0.0455935
0.511199
-0.0491926
0.555599
-0.0527916
0.597599
-0.0539907
0.640799
-0.0575897
0.685199
-0.0611886
0.727199
-0.0635876
0.770399
-0.0659865
0.812399
-0.0671855
0.854399
-0.0707844
0.897599
-0.0719833
0.938399
-0.0743823
0.980399
-0.0755812
1.0224
-0.0779801
1.0632
-0.079179
1.104
-0.0815779
1.146
-0.0827768
1.1844
-0.0839757
1.2252
-0.0863745
1.266
-0.0875735
1.3044
-0.0887723
1.344
-0.0899713
1.3824
-0.0899702
1.4208
-0.0911692
1.4592
-0.0911681
1.4964
-0.0923671
1.5348
-0.093566
1.572
-0.0935649
1.608
-0.0947638
1.644
-0.0947629
1.68
-0.0947618
1.716
-0.0947609
1.7496
-0.0947598
1.7856
-0.0947589
1.8192
-0.0947579
1.8528
-0.0947569
1.8864
-0.093556
1.9188
-0.093555
1.9512
-0.0935541
1.9836
-0.0923532
2.0136
-0.0923523
2.046
-0.0911514
2.0748
-0.0905505
2.10564
-0.0897097
2.13468
-0.0887488
2.16336
-0.087788
2.19168
-0.0868272
2.2194
-0.0856264
2.24652
-0.0844256
2.27304
-0.0832248
2.2992
-0.0819041
2.32464
-0.0804633
2.34948
-0.0790226
2.37384
-0.0775819
2.3976
-0.0760212
2.42076
-0.0743405
2.4432
-0.0727798
2.46528
-0.0710992
2.48664
-0.0692986
2.50728
-0.0674979
2.52744
-0.0655774
2.54688
-0.0636568
2.56572
-0.0616163
2.58396
-0.0595757
2.6016
-0.0576552
2.61864
-0.0554947
2.63484
-0.0533342
2.65044
-0.0511737
2.66556
-0.0488933
2.67984
-0.0467329
2.69364
-0.0445724
2.7066
-0.042172
2.71884
-0.0398916
2.73072
-0.0374913
2.74164
-0.035091
2.75196
-0.0326906
2.76168
-0.0302903
2.77068
-0.02789
2.77896
-0.0253698
2.78652
-0.0228495
2.79348
-0.0203293
2.79972
-0.017809
2.80536
-0.0151689
2.81004
-0.0127687
2.81436
-0.0101886
2.8178
-0.00763245
2.82058
-0.00506429
2.82266
-0.00249627
2.82404
7.18662e-05
2.82475
0.00263986
2.82475
0.00520797
2.82404
0.00777595
2.82266
0.010332
2.82058
0.012912
2.8178
0.0153119
2.81436
0.0179519
2.81004
0.0204718
2.80536
0.0229917
2.79972
0.0255116
2.79348
0.0280314
2.78652
0.0304312
2.77896
0.0328311
2.77068
0.0352309
2.76168
0.0376307
2.75196
0.0400304
2.74164
0.0423102
2.73072
0.0447099
2.71884
0.0468696
2.7066
0.0490293
2.69364
0.051309
2.67984
0.0534686
2.66556
0.0556282
2.65044
0.0577878
2.63484
0.0597075
2.61864
0.061747
2.6016
0.0637865
2.58396
0.0657061
2.56572
0.0676256
2.54688
0.0694251
2.52744
0.0712246
2.50728
0.072904
2.48664
0.0744634
2.46528
0.0761428
2.4432
0.0777022
2.42076
0.0791416
2.3976
0.0805809
2.37384
0.0820203
2.34948
0.0833396
2.32464
0.0845389
2.2992
0.0857382
2.27304
0.0869374
2.24652
0.0878967
2.2194
0.0888559
2.19168
0.0898151
2.16336
0.0906543
2.13468
0.0912535
2.10564
0.0924526
2.0748
0.0924517
2.046
0.0936509
2.0136
0.09365
1.9836
0.0936491
1.9512
0.0948482
1.9188
0.0948472
1.8864
0.0948462
1.8528
0.0948452
1.8192
0.0948442
1.7856
0.0948432
1.7496
0.0948422
1.716
0.0948412
1.68
0.0936401
1.644
0.093639
1.608
0.0924378
1.572
0.0912367
1.5348
0.0912357
1.4964
0.0900345
1.4592
0.0900334
1.4208
0.0888323
1.3824
0.0876311
1.344
0.0864299
1.3044
0.0840287
1.266
0.0828275
1.2252
0.0816263
1.1844
0.0792251
1.146
0.0780239
1.104
0.0756226
1.0632
0.0744214
1.0224
0.0720202
0.980401
0.070819
0.938401
0.0672177
0.897601
0.0660165
0.854401
0.0636153
0.812401
0.0612141
0.770401
0.0576129
0.727201
0.0540116
0.685201
0.0528105
0.640801
0.0492094
0.597601
0.0456082
0.555601
0.0420071
0.511201
0.0396062
0.466801
0.0360052
0.424801
0.0324043
0.379201
0.0288035
0.336001
0.0252028
0.291601
0.0216021
0.248401
0.0168012
0.204001
0.0120003
0.159601
0.0083996
0.115201
0.00360062
0.070799
0.0264006
-0.0047968
0.0311963
-0.00959718
0.0756011
-0.0131974
0.1188
-0.0179956
0.164397
-0.0215928
0.207597
-0.0239903
0.250797
-0.028788
0.296397
-0.0323858
0.339597
-0.0359835
0.382797
-0.039581
0.428397
-0.0431785
0.470397
-0.0467759
0.514797
-0.0479733
0.556796
-0.0515705
0.601196
-0.0551676
0.644396
-0.0575646
0.687596
-0.0599617
0.729596
-0.0623586
0.772796
-0.0647555
0.814796
-0.0683523
0.857996
-0.0695492
0.898796
-0.0731459
0.941996
-0.0743428
0.981596
-0.0767395
1.0248
-0.0779364
1.0644
-0.0803331
1.1064
-0.0815298
1.1472
-0.0839265
1.1868
-0.0851233
1.2264
-0.0851201
1.266
-0.0863169
1.3056
-0.0875137
1.3452
-0.0887104
1.3836
-0.0899072
1.422
-0.091104
1.4604
-0.0923008
1.4976
-0.0922977
1.5348
-0.0922945
1.572
-0.0934914
1.6092
-0.0934883
1.644
-0.0946852
1.6812
-0.0934822
1.7148
-0.0946791
1.7508
-0.0946762
1.7856
-0.0946732
1.8192
-0.0946703
1.8528
-0.0946674
1.8864
-0.0934647
1.9176
-0.0934618
1.9512
-0.0922591
1.9824
-0.0934562
2.0148
-0.0910537
2.0436
-0.091051
2.0748
-0.0904483
2.10504
-0.0896058
2.13384
-0.0887632
2.16252
-0.0876807
2.1906
-0.0865983
2.21832
-0.0855159
2.24544
-0.0844335
2.27196
-0.0831112
2.29788
-0.081789
2.32332
-0.0803467
2.34804
-0.0790245
2.37252
-0.0774625
2.39604
-0.0759003
2.4192
-0.0743383
2.44164
-0.0726564
2.4636
-0.0708544
2.48484
-0.0690525
2.50548
-0.0672508
2.52564
-0.0653288
2.54496
-0.0635272
2.56392
-0.0616055
2.58204
-0.0595639
2.59956
-0.0574023
2.61648
-0.0553607
2.6328
-0.0533193
2.6484
-0.0510379
2.66328
-0.0488765
2.67768
-0.0465952
2.69136
-0.044314
2.70432
-0.0420327
2.71656
-0.0396317
2.72832
-0.0373505
2.73936
-0.0349495
2.74956
-0.0325486
2.75928
-0.0300276
2.76816
-0.0276268
2.77656
-0.0252259
2.78412
-0.0227052
2.79096
-0.0201845
2.7972
-0.017664
2.80284
-0.0151434
2.80752
-0.0126228
2.81184
-0.0100302
2.81521
-0.00747385
2.81802
-0.00490552
2.8201
-0.0023493
2.82149
0.000218967
2.82218
0.00278711
2.82218
0.0053433
2.82149
0.00791138
2.8201
0.0104674
2.81802
0.0130593
2.81521
0.0155791
2.81184
0.0180989
2.80752
0.0206188
2.80284
0.0231384
2.7972
0.0256582
2.79096
0.0280576
2.78412
0.0304573
2.77656
0.0329767
2.76816
0.0353761
2.75928
0.0377755
2.74956
0.0400547
2.73936
0.0424541
2.72832
0.0447332
2.71656
0.0470124
2.70432
0.0492914
2.69136
0.0514504
2.67768
0.0537294
2.66328
0.0557682
2.6484
0.0578071
2.6328
0.0599658
2.61648
0.0620045
2.59956
0.0639232
2.58204
0.0657218
2.56392
0.0676402
2.54496
0.0694387
2.52564
0.0712371
2.50548
0.0730355
2.48484
0.0747139
2.4636
0.0762721
2.44164
0.0778302
2.4192
0.0793884
2.39604
0.0807065
2.37252
0.0821445
2.34804
0.0834625
2.32332
0.0847803
2.29788
0.0858582
2.27196
0.086936
2.24544
0.0880138
2.21832
0.0890914
2.1906
0.089929
2.16252
0.0907666
2.13384
0.0913641
2.10504
0.0913615
2.0748
0.0937592
2.0436
0.0925563
2.0148
0.0937537
1.9824
0.0937509
1.9512
0.0949483
1.9176
0.0949454
1.8864
0.0949426
1.8528
0.0949396
1.8192
0.0949367
1.7856
0.0937336
1.7508
0.0949306
1.7148
0.0937274
1.6812
0.0937243
1.644
0.0925211
1.6092
0.0925178
1.572
0.0925146
1.5348
0.0913113
1.4976
0.090108
1.4604
0.0889046
1.422
0.0877011
1.3836
0.0864977
1.3452
0.0852942
1.3056
0.0852909
1.266
0.0840873
1.2264
0.0816838
1.1868
0.0804802
1.1472
0.0780766
1.1064
0.0768731
1.0644
0.0744695
1.0248
0.073266
0.981605
0.0696622
0.942005
0.0684587
0.898805
0.064855
0.858005
0.0624515
0.814805
0.060048
0.772805
0.0576445
0.729605
0.0552411
0.687605
0.0516376
0.644405
0.0480342
0.601205
0.0468311
0.556804
0.0432279
0.514804
0.0396248
0.470404
0.0360217
0.428404
0.0324188
0.382804
0.0288159
0.339604
0.024013
0.296404
0.0216097
0.250804
0.0180059
0.207605
0.0132034
0.164403
0.00960389
0.1188
0.0048045
0.0755984
0.0312051
-0.00479625
0.0359926
-0.00839349
0.0791983
-0.0131939
0.1236
-0.0167929
0.167996
-0.0203891
0.211193
-0.0251843
0.255592
-0.02878
0.299993
-0.0323759
0.343193
-0.0359718
0.386393
-0.0383676
0.430793
-0.0431631
0.475192
-0.0455587
0.517192
-0.0491541
0.560392
-0.0527493
0.604791
-0.0551445
0.646791
-0.0575396
0.689991
-0.0611345
0.733191
-0.0635295
0.775191
-0.0659243
0.817191
-0.0671193
0.859191
-0.0707138
0.90239
-0.0719087
0.94319
-0.0755032
0.98519
-0.0766979
1.02599
-0.0790924
1.06679
-0.0802871
1.10759
-0.0814817
1.14839
-0.0826764
1.18799
-0.083871
1.22759
-0.0862655
1.26839
-0.0874601
1.30679
-0.0886547
1.34639
-0.0898493
1.38479
-0.091044
1.42319
-0.0910387
1.46039
-0.0922333
1.49879
-0.0922282
1.53479
-0.0934228
1.57319
-0.0934176
1.60919
-0.0946124
1.64519
-0.0934075
1.67999
-0.0946023
1.71599
-0.0945973
1.75079
-0.0945921
1.78559
-0.0945873
1.81919
-0.0945824
1.85279
-0.0933777
1.88519
-0.0945727
1.91879
-0.0933681
1.94999
-0.0933634
1.98239
-0.0921588
2.01359
-0.0921541
2.04359
-0.0921497
2.07479
-0.0903454
2.10323
-0.0895009
2.13299
-0.0885367
2.16155
-0.0875727
2.18963
-0.0866083
2.21735
-0.0854043
2.24423
-0.0842003
2.27075
-0.0828765
2.29655
-0.0815527
2.32199
-0.080349
2.34683
-0.0787852
2.37095
-0.0773416
2.39459
-0.0757781
2.41763
-0.0740948
2.43995
-0.0724113
2.46191
-0.0707281
2.48315
-0.0690449
2.50379
-0.0671218
2.52371
-0.0653188
2.54315
-0.0632758
2.56187
-0.0613531
2.58012
-0.0594303
2.59764
-0.0573875
2.61444
-0.055225
2.63064
-0.0530627
2.64624
-0.0509001
2.66112
-0.048738
2.67552
-0.0464557
2.68908
-0.0441735
2.70204
-0.0418914
2.71428
-0.0396096
2.72604
-0.0372078
2.73696
-0.034806
2.74716
-0.0324043
2.75688
-0.0300028
2.76576
-0.0274812
2.77404
-0.02496
2.7816
-0.0225587
2.78856
-0.0200375
2.79468
-0.0175163
2.80032
-0.0149953
2.805
-0.0124745
2.80932
-0.00989374
2.81263
-0.00733714
2.81546
-0.0047686
2.81753
-0.00219995
2.81892
0.000368468
2.81962
0.00293675
2.81962
0.0055048
2.81892
0.00807296
2.81753
0.0106291
2.81546
0.013209
2.81263
0.0157289
2.80932
0.0182486
2.805
0.0207681
2.80032
0.0232876
2.79468
0.025687
2.78856
0.0282064
2.7816
0.0307255
2.77404
0.0331246
2.76576
0.0355236
2.75688
0.0379224
2.74716
0.0403213
2.73696
0.0426002
2.72604
0.0448787
2.71428
0.0471571
2.70204
0.0494355
2.68908
0.051594
2.67552
0.053752
2.66112
0.0559103
2.64624
0.0580684
2.63064
0.0601061
2.61444
0.0620239
2.59764
0.0639418
2.58012
0.0659793
2.56188
0.0677769
2.54316
0.0696942
2.52372
0.0713715
2.5038
0.0730489
2.48316
0.0747258
2.46193
0.076403
2.43997
0.07796
2.41765
0.0793968
2.39461
0.0809535
2.37097
0.0821501
2.34685
0.0834668
2.32201
0.0847833
2.29657
0.0859796
2.27077
0.087176
2.24425
0.0881319
2.21737
0.0890882
2.18965
0.0900443
2.16157
0.09088
2.13301
0.092676
2.10325
0.0926718
2.07481
0.0926673
2.04361
0.0938629
2.01361
0.0938584
1.98241
0.095054
1.95001
0.093849
1.91881
0.0950444
1.88521
0.0950395
1.85281
0.0950348
1.81921
0.0950296
1.78561
0.0950245
1.75081
0.0938194
1.71601
0.0950143
1.68001
0.0938091
1.64521
0.0938038
1.60921
0.0925983
1.57321
0.0925929
1.53481
0.0913874
1.49881
0.0913818
1.46041
0.0901763
1.42321
0.0889706
1.38481
0.0877648
1.34641
0.086559
1.30681
0.0841531
1.26841
0.0829473
1.22761
0.0817416
1.18801
0.0805357
1.14841
0.0793298
1.10761
0.0769238
1.06681
0.0757179
1.02601
0.0721118
0.985211
0.070906
0.943211
0.0672998
0.902411
0.0660941
0.859211
0.0636881
0.817211
0.0612823
0.775211
0.0576763
0.733211
0.0552706
0.69001
0.0528649
0.64681
0.0492592
0.60481
0.0456536
0.56041
0.0432482
0.51721
0.0384426
0.47521
0.0360374
0.430809
0.0324322
0.386409
0.028827
0.343209
0.0252213
0.300009
0.0204148
0.25561
0.0168097
0.21121
0.0132084
0.168005
0.0084092
0.123599
0.00480535
0.0792022
0.0360105
-0.00359628
0.0395889
-0.00839077
0.0839928
-0.0131896
0.128399
-0.0167894
0.171596
-0.0215858
0.215989
-0.0251797
0.259186
-0.0287731
0.303586
-0.0323671
0.346787
-0.0359611
0.389987
-0.039555
0.434386
-0.0419489
0.477586
-0.0455425
0.520786
-0.0491359
0.563985
-0.0515293
0.607185
-0.0551224
0.650385
-0.0575155
0.692384
-0.0599086
0.735584
-0.0623015
0.777584
-0.0658941
0.820783
-0.0682868
0.861583
-0.0694796
0.903583
-0.0718721
0.945583
-0.0742645
0.987583
-0.0754571
1.02718
-0.0778495
1.06918
-0.0790421
1.10878
-0.0814344
1.15078
-0.0826268
1.18918
-0.0850191
1.22998
-0.0862115
1.26958
-0.087404
1.30798
-0.0873965
1.34638
-0.0885891
1.38598
-0.0897814
1.42438
-0.0909738
1.46158
-0.0909665
1.49878
-0.0933587
1.53718
-0.0933514
1.57318
-0.0933441
1.60918
-0.0933369
1.64518
-0.0945295
1.68118
-0.0945224
1.71598
-0.0945154
1.75078
-0.0945083
1.78558
-0.0945012
1.81918
-0.0944944
1.85278
-0.0944874
1.88518
-0.0932808
1.91758
-0.0932741
1.94998
-0.0932673
1.98238
-0.0920611
2.01239
-0.0920546
2.04359
-0.0908481
2.07359
-0.0902418
2.10263
-0.0893958
2.13215
-0.0884298
2.16059
-0.0875837
2.18879
-0.086378
2.21615
-0.0852922
2.24315
-0.0840866
2.26955
-0.082881
2.29535
-0.0815554
2.32067
-0.0801101
2.34539
-0.0786652
2.36951
-0.0772199
2.39315
-0.0755349
2.41595
-0.07409
2.43851
-0.0724054
2.46023
-0.0706005
2.48135
-0.0687959
2.50199
-0.0669916
2.52191
-0.0651875
2.54135
-0.0632632
2.55995
-0.0612193
2.57807
-0.0591752
2.59559
-0.0571317
2.61239
-0.0550877
2.62859
-0.0529242
2.64407
-0.0508811
2.65907
-0.0485975
2.67323
-0.0463143
2.68679
-0.0440315
2.69975
-0.0418687
2.71211
-0.0394658
2.72363
-0.0370631
2.73455
-0.0346607
2.74475
-0.0322584
2.75447
-0.0298562
2.76335
-0.0273341
2.77152
-0.0249321
2.7792
-0.0224103
2.78604
-0.0198885
2.79216
-0.0173669
2.7978
-0.0148457
2.80248
-0.0122043
2.80668
-0.00974325
2.81017
-0.00717408
2.81289
-0.00461732
2.81497
-0.00204866
2.81635
0.000519924
2.81705
0.00308834
2.81705
0.00565667
2.81635
0.00821291
2.81497
0.0107807
2.8129
0.0132407
2.81017
0.0158803
2.80668
0.0184001
2.80248
0.0209194
2.7978
0.0234386
2.79216
0.0259577
2.78604
0.0283568
2.7792
0.0308756
2.77152
0.0332744
2.76336
0.035673
2.75448
0.0380716
2.74476
0.0404697
2.73456
0.0428678
2.72364
0.0450259
2.71212
0.047304
2.69976
0.0495817
2.68681
0.051859
2.67325
0.0538967
2.65909
0.056054
2.64409
0.058091
2.62861
0.0601283
2.61241
0.062165
2.59561
0.0642019
2.57809
0.0661183
2.55997
0.0679149
2.54137
0.0697114
2.52193
0.0715075
2.50201
0.0733033
2.48137
0.0749794
2.46025
0.0764152
2.43853
0.0780909
2.41597
0.0795261
2.39317
0.0809618
2.36953
0.0823972
2.34541
0.0837121
2.32069
0.0849069
2.29537
0.0861019
2.26957
0.0871765
2.24317
0.0883713
2.21617
0.0892057
2.18881
0.09016
2.16061
0.0909944
2.13217
0.0915884
2.10265
0.0927823
2.07361
0.092776
2.04361
0.0939701
2.01241
0.0939635
1.98241
0.093957
1.95001
0.0951506
1.91761
0.0951437
1.88522
0.095137
1.85282
0.0951299
1.81922
0.0951228
1.78562
0.0951158
1.75082
0.0951087
1.71602
0.0939012
1.68122
0.0938938
1.64522
0.0938863
1.60922
0.0938788
1.57322
0.0914708
1.53722
0.0914632
1.49882
0.0902553
1.46162
0.0890471
1.42442
0.0878393
1.38602
0.0878314
1.34642
0.0866233
1.30802
0.0854152
1.26962
0.0830068
1.23002
0.0817986
1.18922
0.0793902
1.15082
0.0781821
1.10882
0.0757737
1.06922
0.0745654
1.02722
0.0721569
0.987619
0.0697484
0.945619
0.0685404
0.903619
0.066132
0.861619
0.0625235
0.820819
0.0601153
0.777619
0.0577072
0.735619
0.055299
0.692419
0.0516908
0.650418
0.0492829
0.607218
0.0456749
0.564018
0.0420671
0.520818
0.0396595
0.477617
0.0360518
0.434417
0.0324442
0.390017
0.0288364
0.346817
0.0252277
0.303618
0.0216195
0.259219
0.0168147
0.216014
0.0132146
0.171605
0.00841312
0.128401
0.00360534
0.08401
0.0396158
-0.00479596
0.0443848
-0.00958887
0.0887857
-0.0131852
0.131995
-0.0167848
0.175196
-0.0203823
0.219587
-0.0251757
0.263979
-0.0287674
0.307178
-0.0323593
0.350379
-0.0359514
0.393579
-0.0395434
0.437978
-0.0431353
0.481178
-0.0467269
0.524377
-0.0491187
0.566377
-0.0527099
0.610776
-0.0551013
0.652776
-0.0586922
0.695975
-0.0610832
0.737975
-0.0634742
0.779975
-0.0646651
0.821974
-0.0682554
0.865174
-0.0706459
0.905974
-0.0730363
0.947973
-0.0742268
0.988773
-0.0766171
1.02957
-0.0778076
1.07037
-0.0801977
1.11117
-0.081388
1.15197
-0.0825783
1.19037
-0.0837685
1.23117
-0.0849586
1.27077
-0.0861488
1.30917
-0.0885389
1.34877
-0.0897289
1.38717
-0.0897194
1.42437
-0.0909096
1.46277
-0.0920999
1.49997
-0.0920904
1.53717
-0.0920811
1.57317
-0.0932714
1.61037
-0.093262
1.64517
-0.0932526
1.68117
-0.094443
1.71717
-0.0944337
1.75077
-0.0944246
1.78557
-0.0944155
1.81918
-0.0932068
1.85158
-0.093198
1.88518
-0.0943889
1.91878
-0.0931803
1.94878
-0.0919718
1.98118
-0.091963
2.01238
-0.0907548
2.04238
-0.0907466
2.07358
-0.0901385
2.10202
-0.0892904
2.1313
-0.0884424
2.15974
-0.0873546
2.1877
-0.0862672
2.21506
-0.0851795
2.24206
-0.0839723
2.26834
-0.0827649
2.29414
-0.0814379
2.31934
-0.079991
2.34394
-0.0786639
2.36818
-0.0770973
2.39158
-0.0755308
2.41438
-0.0738444
2.43682
-0.0721582
2.45854
-0.0704723
2.47966
-0.0687863
2.5003
-0.0669804
2.5201
-0.064935
2.53931
-0.0631297
2.55815
-0.0612039
2.57615
-0.0591592
2.59355
-0.0571139
2.61035
-0.0549495
2.62643
-0.0527846
2.64191
-0.0506201
2.65691
-0.0484557
2.67107
-0.0461719
2.68451
-0.0438879
2.69747
-0.0416039
2.70983
-0.0392001
2.72123
-0.0369168
2.73227
-0.0345137
2.74235
-0.0321103
2.75207
-0.0295875
2.76083
-0.0273047
2.76923
-0.0246622
2.77655
-0.0222597
2.78363
-0.0197378
2.78963
-0.0172157
2.79527
-0.0146941
2.79996
-0.0121722
2.80416
-0.00957892
2.80758
-0.00703376
2.81035
-0.00446435
2.8124
-0.00189549
2.81378
0.000673266
2.81448
0.00324182
2.81448
0.00581027
2.81378
0.00837816
2.8124
0.0109223
2.81035
0.0135143
2.80758
0.0160337
2.80416
0.0185534
2.79996
0.0210726
2.79528
0.0235919
2.78964
0.0259908
2.78364
0.0286295
2.77656
0.030908
2.76924
0.0334264
2.76084
0.0358242
2.75209
0.0382224
2.74237
0.0405003
2.73229
0.0428977
2.72125
0.0451749
2.70985
0.047452
2.69749
0.0497294
2.68453
0.0518861
2.67109
0.0540428
2.65693
0.0561989
2.64193
0.0583556
2.62645
0.0603914
2.61037
0.0624279
2.59357
0.064343
2.57617
0.0661387
2.55817
0.0681743
2.53933
0.0699694
2.52013
0.0716443
2.50033
0.0733194
2.47969
0.074994
2.45857
0.0766685
2.43685
0.0782228
2.41442
0.079777
2.39162
0.0810907
2.36822
0.0825246
2.34398
0.0838383
2.31938
0.0850316
2.29418
0.086225
2.26838
0.087298
2.2421
0.0883711
2.2151
0.0894438
2.18774
0.0902764
2.15978
0.0911088
2.13134
0.091701
2.10206
0.0916933
2.07362
0.0928854
2.04242
0.0928769
2.01242
0.0940688
1.98122
0.0952604
1.94882
0.0940515
1.91882
0.0940428
1.88522
0.0952343
1.85162
0.0952251
1.81922
0.0952161
1.78563
0.0952068
1.75083
0.093997
1.71723
0.0939875
1.68123
0.0939779
1.64523
0.092768
1.61043
0.0927584
1.57323
0.0927487
1.53723
0.0915385
1.50003
0.0903282
1.46283
0.0903182
1.42443
0.0891077
1.38723
0.0866971
1.34883
0.0854867
1.30923
0.0842761
1.27083
0.0830654
1.23123
0.0818549
1.19043
0.0806443
1.15203
0.0782334
1.11123
0.0770229
1.07043
0.0746121
1.02963
0.0734015
0.98883
0.0709907
0.94803
0.0685798
0.90603
0.0649686
0.86523
0.0637583
0.82203
0.0613477
0.780029
0.0589372
0.738029
0.0553265
0.696029
0.0529162
0.652829
0.0493056
0.610829
0.0468956
0.566428
0.0432853
0.524428
0.0396752
0.481227
0.0360651
0.438027
0.032455
0.393627
0.0288444
0.350427
0.0252333
0.307229
0.0204244
0.264028
0.0168213
0.219618
0.0132209
0.175205
0.0096159
0.132006
0.00480583
0.0888201
0.0444216
-0.00479573
0.0491806
-0.00838836
0.0923783
-0.0131816
0.136789
-0.0179793
0.179993
-0.0215777
0.223185
-0.0251719
0.267574
-0.0287626
0.310769
-0.0323525
0.353969
-0.0371423
0.398369
-0.0395328
0.440369
-0.0431228
0.484768
-0.0455129
0.526767
-0.0491025
0.569967
-0.0514922
0.613166
-0.0550813
0.656365
-0.0574704
0.698364
-0.0598595
0.740364
-0.0634479
0.783563
-0.0658366
0.824363
-0.0670255
0.866363
-0.0694139
0.908362
-0.0718021
0.950362
-0.0741902
0.991161
-0.0765782
1.03196
-0.0777664
1.07156
-0.0801543
1.11356
-0.0813423
1.15316
-0.0837301
1.19276
-0.0849182
1.23236
-0.0861062
1.27196
-0.0872942
1.31036
-0.088482
1.34996
-0.0884703
1.38716
-0.0896583
1.42556
-0.0908462
1.46396
-0.0920341
1.50116
-0.0920225
1.53716
-0.0932105
1.57436
-0.0931988
1.61036
-0.0943869
1.64636
-0.0943756
1.68116
-0.094364
1.71716
-0.0943528
1.75076
-0.0943413
1.78556
-0.0943303
1.81916
-0.094319
1.85156
-0.0943081
1.88516
-0.0930972
1.91756
-0.0930864
1.94877
-0.0930757
1.98117
-0.0918655
2.01117
-0.0918549
2.04237
-0.0906445
2.07237
-0.0900347
2.10141
-0.0891847
2.13045
-0.0882148
2.15877
-0.0872455
2.18673
-0.0862755
2.21409
-0.0850664
2.24085
-0.0838571
2.26713
-0.0826486
2.29293
-0.0813195
2.31801
-0.079991
2.34261
-0.0784222
2.36661
-0.0768544
2.39001
-0.0754063
2.41293
-0.0738379
2.43525
-0.0721501
2.45686
-0.0704625
2.47798
-0.0685354
2.49838
-0.0667285
2.5183
-0.064921
2.5375
-0.0629944
2.55622
-0.060948
2.5741
-0.0589013
2.5915
-0.0568552
2.6083
-0.0548093
2.62438
-0.0527635
2.63986
-0.050478
2.65462
-0.048193
2.66878
-0.0460273
2.68234
-0.0438622
2.6953
-0.0414578
2.70743
-0.0391735
2.71895
-0.0366494
2.72975
-0.0343651
2.74007
-0.0319613
2.74967
-0.0295577
2.75843
-0.0270344
2.76671
-0.0246312
2.77415
-0.0219881
2.78099
-0.0195853
2.78723
-0.0170631
2.79275
-0.0145402
2.79743
-0.0120188
2.80163
-0.00943622
2.80499
-0.00686678
2.80778
-0.00430949
2.80984
-0.00174042
2.81121
0.000828508
2.81191
0.00339721
2.81191
0.00596576
2.81121
0.0085221
2.80985
0.0110903
2.80778
0.0136693
2.805
0.0161896
2.80164
0.0187082
2.79744
0.0212276
2.79276
0.0236264
2.78724
0.0262649
2.781
0.0286633
2.77417
0.0311815
2.76673
0.0335795
2.75845
0.0359772
2.74969
0.0382544
2.74009
0.0407719
2.72977
0.0430491
2.71897
0.0454461
2.70745
0.0476025
2.69533
0.0497582
2.68237
0.0520347
2.66881
0.0543105
2.65465
0.0563461
2.63989
0.0583816
2.62441
0.0604168
2.60834
0.0624514
2.59154
0.0644863
2.57414
0.066401
2.55626
0.0681946
2.53754
0.0699889
2.51834
0.071903
2.49842
0.0735765
2.47802
0.0752498
2.4569
0.0768025
2.4353
0.0782354
2.41298
0.0797886
2.39006
0.0813408
2.36666
0.0826532
2.34266
0.083965
2.31807
0.0851574
2.29299
0.0863488
2.26719
0.0875405
2.24091
0.0884912
2.21415
0.0894425
2.18679
0.0903933
2.15883
0.0912239
2.13051
0.0918146
2.10147
0.0930046
2.07243
0.0929946
2.04243
0.0941847
2.01123
0.0941743
1.98123
0.0941638
1.94883
0.0953532
1.91763
0.0953424
1.88523
0.0953313
1.85164
0.0953203
1.81924
0.0953088
1.78564
0.0952975
1.75084
0.0952859
1.71724
0.0952744
1.68124
0.0940622
1.64644
0.0940502
1.61044
0.0928379
1.57444
0.0928258
1.53724
0.0916132
1.50124
0.0904005
1.46404
0.0891878
1.42564
0.0891755
1.38724
0.0879625
1.35004
0.0867497
1.31044
0.0855368
1.27204
0.0843239
1.23244
0.0819106
1.19284
0.0806974
1.15324
0.0782841
1.11364
0.0770711
1.07164
0.0746576
1.03204
0.0722443
0.991243
0.0698309
0.950443
0.0674177
0.908443
0.066205
0.866443
0.0637919
0.824443
0.0601784
0.783643
0.0577655
0.740442
0.0553527
0.698442
0.0517396
0.656442
0.0493272
0.613241
0.0457145
0.570041
0.0433022
0.52684
0.0396897
0.48484
0.0372777
0.440439
0.0324645
0.39844
0.0288512
0.354041
0.0252388
0.310841
0.0216312
0.267635
0.0180292
0.22322
0.0132263
0.180008
0.00841673
0.136816
0.0048062
0.0924306
0.0492278
-0.003596
0.0527766
-0.00838812
0.0971705
-0.0119794
0.14038
-0.0167745
0.184789
-0.0215723
0.227983
-0.0251676
0.271169
-0.0287583
0.314359
-0.0323468
0.357557
-0.0359349
0.401957
-0.0395232
0.443957
-0.0419117
0.487156
-0.0454996
0.530355
-0.0490873
0.573554
-0.0526747
0.616753
-0.0550621
0.658752
-0.0574495
0.700752
-0.0610361
0.743951
-0.0622233
0.78475
-0.0658095
0.827949
-0.0681959
0.868749
-0.0705821
0.910748
-0.0717687
0.951548
-0.0741545
0.993547
-0.0753408
1.03315
-0.0789261
1.07515
-0.0789125
1.11355
-0.081298
1.15555
-0.0824837
1.19395
-0.0836696
1.23355
-0.0848554
1.27315
-0.0872404
1.31275
-0.0872266
1.34995
-0.0896118
1.38955
-0.0907975
1.42675
-0.0907835
1.46395
-0.0907696
1.50115
-0.0919553
1.53835
-0.0931409
1.57555
-0.093127
1.61035
-0.0931135
1.64635
-0.0942993
1.68235
-0.0930859
1.71595
-0.0942718
1.75195
-0.0942584
1.78555
-0.0930453
1.81795
-0.0942317
1.85275
-0.0942183
1.88515
-0.0930056
1.91635
-0.0929927
1.94875
-0.0929799
1.98115
-0.0929672
2.01115
-0.091755
2.04115
-0.0905429
2.07115
-0.0899308
2.1008
-0.0889588
2.12948
-0.088107
2.15792
-0.0871353
2.18576
-0.0860442
2.213
-0.0849533
2.23976
-0.083742
2.26592
-0.082531
2.29172
-0.0812006
2.31668
-0.0797499
2.34116
-0.0783002
2.36516
-0.0768499
2.38856
-0.0752802
2.41136
-0.0735911
2.43357
-0.0720217
2.45529
-0.0702125
2.47617
-0.0685235
2.49669
-0.0665948
2.51637
-0.0647866
2.53569
-0.0627382
2.55417
-0.0608105
2.57217
-0.058883
2.58957
-0.0567156
2.60613
-0.054668
2.62233
-0.0525011
2.63769
-0.0503344
2.65246
-0.0481679
2.66662
-0.046002
2.68018
-0.0435959
2.6929
-0.0413106
2.70514
-0.0389049
2.71654
-0.0366195
2.72746
-0.0342148
2.73766
-0.0318102
2.74726
-0.029406
2.75602
-0.0268813
2.76418
-0.024478
2.77175
-0.0219544
2.77847
-0.019431
2.78471
-0.0169078
2.79023
-0.0143853
2.79491
-0.0117426
2.79899
-0.00928055
2.80253
-0.00672224
2.80522
-0.0041527
2.80727
-0.00158342
2.80864
0.000985688
2.80934
0.00355454
2.80934
0.00612321
2.80865
0.00869163
2.80728
0.0112473
2.80523
0.0137072
2.80254
0.0163464
2.799
0.0188659
2.79492
0.0213846
2.79024
0.0239031
2.78473
0.0264213
2.77849
0.02882
2.77177
0.0313372
2.76421
0.0337348
2.75605
0.0361321
2.74729
0.0385292
2.73769
0.0408055
2.72749
0.0432017
2.71657
0.0454781
2.70517
0.0478737
2.69294
0.0500297
2.68022
0.0521849
2.66666
0.0543398
2.6525
0.0564946
2.63774
0.0585285
2.62238
0.0606828
2.60618
0.0625968
2.58962
0.0645106
2.57222
0.0665437
2.55422
0.0683371
2.53575
0.0702497
2.51643
0.0719221
2.49675
0.0737143
2.47623
0.0752662
2.45535
0.0769384
2.43363
0.0784899
2.41143
0.0799207
2.38863
0.0813522
2.36523
0.0827826
2.34123
0.0840933
2.31675
0.0852832
2.2918
0.0864729
2.266
0.0875429
2.23984
0.0886127
2.21308
0.0895618
2.18584
0.0903907
2.158
0.0913394
2.12956
0.0919279
2.10088
0.0931164
2.07124
0.0943047
2.04124
0.0942924
2.01124
0.09428
1.98125
0.0942674
1.94885
0.0954551
1.91645
0.0954418
1.88525
0.0942283
1.85285
0.0954152
1.81805
0.0954019
1.78565
0.0941876
1.75205
0.0953741
1.71605
0.0941596
1.68245
0.0941458
1.64645
0.0941316
1.61045
0.0929168
1.57565
0.0917019
1.53845
0.0916873
1.50125
0.0916728
1.46406
0.0904576
1.42686
0.0880419
1.38966
0.0880272
1.35006
0.0856111
1.31286
0.0843958
1.27326
0.0831805
1.23366
0.0819649
1.19406
0.079549
1.15566
0.079534
1.11366
0.0759176
1.07526
0.0747023
1.03326
0.0722864
0.993659
0.0710712
0.951659
0.0686554
0.910859
0.0662397
0.868858
0.0626238
0.828059
0.0614089
0.784858
0.057793
0.744058
0.055378
0.700857
0.052963
0.658857
0.0493477
0.616857
0.0457326
0.573656
0.0421176
0.530455
0.039703
0.487254
0.0360881
0.444054
0.0324727
0.402055
0.0288574
0.357656
0.0252451
0.314454
0.021639
0.271241
0.0168363
0.228022
0.0120295
0.184815
0.0084172
0.140428
0.00360587
0.0972419
0.0528337
-0.00479518
0.0575717
-0.00958751
0.101963
-0.0131776
0.14397
-0.0167702
0.188381
-0.0203669
0.23158
-0.0239631
0.274765
-0.0287541
0.31915
-0.0323418
0.361145
-0.0359282
0.405543
-0.0395146
0.447544
-0.0431009
0.490743
-0.046687
0.533941
-0.0490732
0.575941
-0.0514591
0.619139
-0.0550442
0.662338
-0.0574295
0.703137
-0.0598146
0.746336
-0.063399
0.788335
-0.064584
0.829134
-0.0681678
0.872333
-0.0693525
0.911933
-0.0729357
0.955131
-0.0741201
0.994732
-0.0765036
1.03553
-0.0776874
1.07633
-0.0800708
1.11593
-0.0812546
1.15673
-0.0824383
1.19513
-0.0848211
1.23593
-0.0860046
1.27433
-0.0859886
1.31273
-0.0883714
1.35233
-0.088355
1.38953
-0.0895383
1.42793
-0.0907216
1.46513
-0.0919053
1.50233
-0.0918888
1.53833
-0.0918726
1.57553
-0.0930562
1.61153
-0.0942393
1.64753
-0.093024
1.68113
-0.0942075
1.71713
-0.0941919
1.75193
-0.0941759
1.78553
-0.0941605
1.81794
-0.0941447
1.85274
-0.0929299
1.88394
-0.0941138
1.91754
-0.0928992
1.94754
-0.0916847
1.97994
-0.0916698
2.01114
-0.0916546
2.04114
-0.0904409
2.06994
-0.0898262
2.10018
-0.0889727
2.12862
-0.0881188
2.15706
-0.0870251
2.18466
-0.0860521
2.21203
-0.0848388
2.23855
-0.0837457
2.26483
-0.0822933
2.29027
-0.0809611
2.31535
-0.079629
2.33983
-0.0782966
2.36383
-0.076725
2.38699
-0.0751536
2.40979
-0.0735824
2.43199
-0.0717714
2.45347
-0.0700812
2.47448
-0.0682706
2.49488
-0.0664603
2.51456
-0.0645308
2.53376
-0.0627208
2.55236
-0.0607918
2.57024
-0.0586224
2.5874
-0.0566937
2.6042
-0.0545253
2.62017
-0.0523572
2.63553
-0.0501899
2.65029
-0.0480216
2.66445
-0.0457349
2.67789
-0.0434477
2.69061
-0.0411608
2.70285
-0.0388747
2.71425
-0.0364683
2.72505
-0.0340627
2.73526
-0.0316574
2.74486
-0.0291317
2.7535
-0.0267276
2.76178
-0.0242024
2.76922
-0.0217981
2.77606
-0.0192747
2.78218
-0.016751
2.78771
-0.0142281
2.79239
-0.0117049
2.79647
-0.00911051
2.79994
-0.00655243
2.80266
-0.00399395
2.80472
-0.00142444
2.80607
0.00114485
2.80677
0.00371386
2.80677
0.00628264
2.80608
0.00883846
2.80472
0.0113947
2.80267
0.0139866
2.79995
0.0165056
2.79648
0.0190251
2.7924
0.0215435
2.78773
0.0240624
2.78221
0.0264603
2.77609
0.0289774
2.76925
0.0313754
2.76181
0.0338919
2.75353
0.0362888
2.74489
0.0386854
2.73529
0.0410811
2.7251
0.0433571
2.7143
0.0456323
2.7029
0.0479071
2.69066
0.0501824
2.67794
0.0523361
2.6645
0.0544908
2.65034
0.0566446
2.63559
0.0587981
2.62023
0.0607114
2.60427
0.0628638
2.58747
0.0647765
2.57031
0.0665683
2.55243
0.0684805
2.53383
0.0702718
2.51463
0.0720628
2.49496
0.0737342
2.47456
0.0755248
2.45356
0.0770751
2.43208
0.0786251
2.40988
0.0801748
2.38708
0.0814838
2.36392
0.082793
2.33992
0.084102
2.31545
0.0855308
2.29037
0.0865987
2.26493
0.0877864
2.23865
0.0887344
2.21213
0.0898017
2.18477
0.0906286
2.15717
0.0914559
2.12873
0.0920419
2.1003
0.0932289
2.07006
0.0932142
2.04126
0.0931998
2.01126
0.0943858
1.98006
0.0955716
1.94766
0.0943557
1.91766
0.0955411
1.88406
0.0955254
1.85286
0.0955101
1.81806
0.0954941
1.78567
0.0954783
1.75207
0.0942615
1.71727
0.0954461
1.68127
0.0942287
1.64767
0.0930119
1.61167
0.0929951
1.57567
0.092978
1.53847
0.0917609
1.50247
0.0905433
1.46527
0.0893257
1.42807
0.0893082
1.38967
0.0868899
1.35248
0.0868727
1.31287
0.0856549
1.27448
0.0832362
1.23608
0.0820185
1.19528
0.0808006
1.15688
0.0783822
1.11608
0.0771642
1.07648
0.0747457
1.03568
0.0735282
0.994877
0.069909
0.955278
0.0686916
0.912076
0.0650728
0.872477
0.0638554
0.829276
0.0602371
0.788476
0.0578195
0.746476
0.0554021