/*--------------------------------*- C++ -*----------------------------------*\
  =========                 |
  \\      /  F ield         | OpenFOAM: The Open Source CFD Toolbox
   \\    /   O peration     | Website:  https://openfoam.org
    \\  /    A nd           | Version:  8
     \\/     M anipulation  |
\*---------------------------------------------------------------------------*/
FoamFile
{
    version     2.0;
    format      ascii;
    class       volVectorField;
    location    "0.2";
    object      U;
}
// * * * * * * * * * * * * * * * * * * * * * * * * * * * * * * * * * * * * * //

dimensions      [0 1 -1 0 0 0 0];

internalField   nonuniform List<vector> 
112797
(
(14.9999 6.82757e-08 -4.15689e-24)
(15 1.04024e-06 -1.08373e-22)
(14.9999 2.6682e-06 -6.48002e-22)
(14.9999 6.29352e-06 2.04901e-22)
(14.9998 9.94403e-06 3.70452e-21)
(14.9998 1.34698e-05 -3.85971e-21)
(14.9998 1.72263e-05 -1.48462e-22)
(14.9998 2.18133e-05 1.55347e-21)
(14.9998 2.69178e-05 4.96772e-21)
(14.9998 3.27796e-05 -8.26664e-21)
(14.9998 3.87468e-05 -2.21205e-22)
(14.9997 4.51881e-05 1.46725e-20)
(14.9997 5.22626e-05 9.73902e-21)
(14.9997 5.93143e-05 1.03819e-20)
(14.9997 6.68611e-05 9.40477e-21)
(14.9997 7.435e-05 1.58998e-20)
(14.9997 8.20444e-05 -1.20047e-20)
(14.9997 9.02386e-05 2.14264e-20)
(14.9997 9.80922e-05 -1.60151e-20)
(14.9997 0.000106038 -2.39662e-20)
(14.9997 0.000114052 -4.34248e-20)
(14.9997 0.000122338 -1.8637e-20)
(14.9996 0.000130254 -1.93657e-20)
(14.9996 0.000138526 -1.11858e-20)
(14.9996 0.00014647 9.62666e-21)
(14.9996 0.000154822 2.13423e-20)
(14.9996 0.000162883 -3.3628e-20)
(14.9996 0.000170826 4.50381e-20)
(14.9996 0.000178956 -3.12037e-22)
(14.9996 0.000187015 2.35149e-20)
(14.9996 0.000195142 2.32833e-20)
(14.9996 0.000202935 2.86144e-22)
(14.9996 0.000210795 2.38532e-20)
(14.9996 0.000218693 2.46162e-20)
(14.9996 0.000226128 -2.47767e-20)
(14.9996 0.000233894 2.77762e-22)
(14.9996 0.000241391 -3.85613e-20)
(14.9996 0.000248907 2.4798e-20)
(14.9996 0.000256669 -1.06946e-20)
(14.9996 0.000263849 4.99543e-20)
(14.9996 0.000271328 -4.98971e-20)
(14.9996 0.000278494 3.9902e-20)
(14.9996 0.00028543 9.5293e-21)
(14.9996 0.000292458 -2.38149e-22)
(14.9996 0.000299508 2.46496e-20)
(14.9996 0.000306215 8.21603e-21)
(14.9997 0.000313242 2.40917e-20)
(14.9997 0.000319971 -4.01567e-20)
(14.9997 0.000326297 -2.39151e-20)
(14.9997 0.000332923 5.69396e-20)
(14.9997 0.000339165 1.70199e-20)
(14.9997 0.000345564 4.58588e-20)
(14.9997 0.000351646 4.53161e-20)
(14.9997 0.000357954 -1.73656e-20)
(14.9997 0.000363866 -1.77173e-20)
(14.9997 0.000369657 -2.17123e-20)
(14.9997 0.000375411 -4.27642e-20)
(14.9997 0.000381199 1.79888e-20)
(14.9997 0.000386562 2.08394e-20)
(14.9997 0.000392145 -2.04608e-20)
(14.9997 0.000397529 2.00879e-20)
(14.9997 0.000402508 -1.48865e-22)
(14.9997 0.000407736 1.9272e-20)
(14.9997 0.000412656 -1.51101e-22)
(14.9997 0.000417612 1.84237e-20)
(14.9997 0.000422444 -3.70857e-20)
(14.9998 0.000426949 0)
(14.9998 0.000431768 -1.69879e-20)
(14.9998 0.000436196 1.65471e-20)
(14.9998 0.000440459 1.60828e-20)
(14.9998 0.000444621 3.52687e-20)
(14.9998 0.000448671 -1.96276e-20)
(14.9998 0.000452542 -2.9553e-20)
(14.9998 0.000456323 3.4337e-20)
(14.9998 0.00046022 -4.02139e-20)
(14.9998 0.000463858 2.00153e-20)
(14.9998 0.000467102 4.58466e-20)
(14.9998 0.000470714 -8.20637e-21)
(14.9998 0.000473879 0)
(14.9998 0.000476992 0)
(14.9998 0.000479791 0)
(14.9999 0.000482783 -1.01684e-20)
(14.9999 0.000485551 0)
(14.9999 0.000488293 -1.16914e-20)
(14.9999 0.000490663 4.16611e-20)
(14.9999 0.000492917 1.6289e-20)
(14.9999 0.000495358 -7.07287e-20)
(14.9999 0.000497402 1.40898e-20)
(14.9999 0.000499401 1.47453e-20)
(14.9999 0.000501261 -2.11973e-20)
(14.9999 0.000503107 -5.38319e-21)
(14.9999 0.000504827 4.83568e-21)
(14.9999 0.000506274 4.22252e-21)
(14.9999 0.000507619 3.92166e-20)
(15 0.000508771 4.61272e-20)
(15 0.000509914 -1.89547e-20)
(15 0.00051084 -4.31829e-20)
(15 0.000511778 0)
(15 0.000512431 8.55407e-22)
(15 0.000513012 2.17138e-20)
(15 0.000513487 -2.74024e-22)
(15 0.000513858 -2.08738e-20)
(15 0.000514154 0)
(15 0.000514165 4.34627e-20)
(15 0.000514187 -1.02981e-20)
(15 0.000513988 -1.85414e-20)
(15.0001 0.00051378 -7.46255e-21)
(15.0001 0.000513373 -2.16895e-20)
(15.0001 0.000512863 -2.65666e-20)
(15.0001 0.000512071 1.09065e-20)
(15.0001 0.000511149 5.95179e-21)
(15.0001 0.000510209 2.16902e-20)
(15.0001 0.000509124 -7.24384e-21)
(15.0001 0.000507991 2.17297e-20)
(15.0001 0.000506444 -1.67091e-20)
(15.0001 0.000505087 -1.25078e-20)
(15.0001 0.000503607 -3.10708e-20)
(15.0001 0.000501737 1.01676e-20)
(15.0001 0.000499835 5.36208e-20)
(15.0002 0.000497697 -3.2487e-20)
(15.0002 0.000495753 -2.12898e-20)
(15.0002 0.000493476 2.4383e-20)
(15.0002 0.000491139 2.13074e-20)
(15.0002 0.000488328 7.8596e-21)
(15.0002 0.000485897 -7.00856e-20)
(15.0002 0.000483044 1.45825e-20)
(15.0002 0.000479911 5.95421e-21)
(15.0002 0.000476893 -4.19378e-20)
(15.0002 0.000473771 5.30898e-20)
(15.0002 0.000470452 4.15581e-21)
(15.0002 0.000467004 -2.07201e-20)
(15.0003 0.000463441 -1.43545e-20)
(15.0003 0.000459691 3.8659e-20)
(15.0003 0.000455515 -3.92038e-20)
(15.0003 0.000451663 1.77967e-20)
(15.0003 0.000447449 2.04601e-20)
(15.0003 0.00044309 2.0209e-20)
(15.0003 0.000438758 -4.08589e-20)
(15.0003 0.000434081 -6.12476e-20)
(15.0003 0.000429661 1.9529e-22)
(15.0003 0.000424788 1.98285e-20)
(15.0003 0.000419686 0)
(15.0003 0.000414807 2.28818e-20)
(15.0003 0.000409451 0)
(15.0003 0.000404116 -1.95357e-20)
(15.0003 0.000398724 2.4384e-20)
(15.0004 0.000393182 -5.48992e-21)
(15.0004 0.000387186 2.49567e-20)
(15.0004 0.000381422 1.89997e-20)
(15.0004 0.000375288 -5.15634e-20)
(15.0004 0.000369308 -1.11247e-20)
(15.0004 0.000362881 8.07769e-21)
(15.0004 0.000356766 4.50545e-20)
(15.0004 0.000350181 -9.00208e-21)
(15.0004 0.000343238 0)
(15.0004 0.000336629 9.6498e-21)
(15.0004 0.00032961 4.5571e-20)
(15.0004 0.00032259 4.47142e-20)
(15.0004 0.000315648 -4.49931e-20)
(15.0004 0.000308418 1.12531e-20)
(15.0004 0.000300803 2.93033e-22)
(15.0004 0.000293498 1.61879e-20)
(15.0004 0.000285496 -1.62032e-20)
(15.0004 0.000277743 3.22167e-20)
(15.0004 0.000269979 1.92055e-21)
(15.0004 0.000261868 -5.88208e-20)
(15.0004 0.000254104 -1.47402e-20)
(15.0004 0.000245764 -1.3435e-20)
(15.0004 0.000237428 -3.35274e-22)
(15.0004 0.000229131 3.632e-22)
(15.0004 0.000220396 1.3355e-20)
(15.0004 0.000211695 4.51421e-25)
(15.0004 0.00020286 -7.90246e-20)
(15.0004 0.0001942 4.05362e-20)
(15.0004 0.000185348 -3.95136e-20)
(15.0004 0.000176089 3.65731e-20)
(15.0004 0.000167265 -3.58144e-20)
(15.0004 0.000157984 3.02222e-21)
(15.0004 0.000149073 3.29221e-20)
(15.0004 0.000139644 -2.97599e-21)
(15.0004 0.000130477 -2.12471e-20)
(15.0004 0.000121323 2.02393e-20)
(15.0004 0.000112206 7.59232e-21)
(15.0004 0.000102582 -1.01733e-20)
(15.0004 9.34981e-05 -3.95968e-20)
(15.0004 8.45837e-05 1.83151e-20)
(15.0004 7.55034e-05 -1.36109e-20)
(15.0003 6.69569e-05 7.28311e-21)
(15.0003 5.8279e-05 1.5351e-20)
(15.0003 5.03189e-05 -6.2184e-21)
(15.0003 4.28732e-05 1.96348e-21)
(15.0003 3.54615e-05 6.85464e-21)
(15.0003 2.89461e-05 -7.63552e-21)
(15.0002 2.30284e-05 4.52628e-21)
(15.0002 1.81489e-05 2.04418e-21)
(15.0002 1.35057e-05 2.90215e-21)
(15.0002 8.54315e-06 -1.39499e-21)
(15.0001 3.6267e-06 -9.20032e-22)
(15 1.34692e-06 4.59698e-22)
(15.0001 1.58496e-07 -5.42082e-23)
(14.9982 1.06122e-05 7.80307e-23)
(14.9993 2.60098e-05 -8.83801e-22)
(14.9996 1.50104e-05 -2.2007e-22)
(14.9994 2.50595e-05 -3.68348e-21)
(14.9993 4.59049e-05 5.24819e-21)
(14.9992 6.62683e-05 -3.92957e-21)
(14.9992 8.30488e-05 -8.47948e-21)
(14.9991 9.93283e-05 3.19106e-22)
(14.9991 0.000116252 2.90855e-21)
(14.9991 0.000134525 6.82854e-22)
(14.999 0.000153072 -9.83046e-21)
(14.999 0.000172132 5.26673e-21)
(14.999 0.000192098 1.59083e-20)
(14.999 0.000212396 -1.07311e-20)
(14.999 0.000233643 4.43552e-20)
(14.9989 0.000255204 3.88302e-21)
(14.9989 0.000277066 -2.92857e-20)
(14.9989 0.000299751 -4.06333e-21)
(14.9989 0.00032235 1.94021e-20)
(14.9989 0.000345249 -8.45416e-23)
(14.9989 0.000368298 -1.03922e-20)
(14.9989 0.000391851 -3.63762e-20)
(14.9988 0.000415027 -2.58642e-20)
(14.9988 0.000438696 -8.02365e-23)
(14.9988 0.000462012 -1.20187e-20)
(14.9988 0.00048584 2.45197e-20)
(14.9988 0.000509573 1.02757e-21)
(14.9988 0.000533081 7.58464e-22)
(14.9988 0.000556621 -1.44649e-20)
(14.9988 0.000580168 -1.37614e-20)
(14.9988 0.000603682 1.38019e-20)
(14.9988 0.0006269 7.15173e-22)
(14.9988 0.000650204 -4.42429e-20)
(14.9988 0.000673439 1.17378e-19)
(14.9988 0.000696072 1.55589e-20)
(14.9988 0.000718965 2.9018e-20)
(14.9988 0.000741347 -3.16453e-20)
(14.9988 0.000763728 -5.62095e-22)
(14.9988 0.000786444 2.93877e-20)
(14.9989 0.000808209 7.32634e-20)
(14.9989 0.000830315 4.60768e-20)
(14.9989 0.000851863 -6.04886e-21)
(14.9989 0.000873031 2.81881e-20)
(14.9989 0.000894138 0)
(14.9989 0.000915152 1.01882e-20)
(14.9989 0.000935609 -1.79613e-20)
(14.9989 0.000956377 6.29852e-20)
(14.9989 0.000976403 -3.51332e-20)
(14.9989 0.000995862 -6.33298e-20)
(14.999 0.00101561 1.8215e-20)
(14.999 0.00103488 2.63296e-20)
(14.999 0.0010539 1.31523e-20)
(14.999 0.00107237 8.81533e-20)
(14.999 0.00109116 4.42842e-20)
(14.999 0.00110912 -2.06953e-22)
(14.999 0.00112685 1.48912e-20)
(14.9991 0.0011444 -1.93439e-20)
(14.9991 0.00116158 -3.96614e-20)
(14.9991 0.00117819 6.52545e-20)
(14.9991 0.00119493 4.4753e-20)
(14.9991 0.00121108 1.67549e-21)
(14.9991 0.00122667 0)
(14.9992 0.00124237 2.09562e-20)
(14.9992 0.00125746 -2.04656e-20)
(14.9992 0.00127233 4.04851e-20)
(14.9992 0.00128682 1.16881e-22)
(14.9992 0.00130096 -1.49573e-22)
(14.9993 0.00131507 -3.91807e-20)
(14.9993 0.00132851 -4.21167e-20)
(14.9993 0.00134155 8.83566e-24)
(14.9993 0.00135421 4.22607e-20)
(14.9993 0.0013667 4.271e-20)
(14.9994 0.00137868 -2.13761e-20)
(14.9994 0.00139019 9.26933e-21)
(14.9994 0.00140178 -2.15074e-20)
(14.9994 0.00141277 -3.60386e-20)
(14.9994 0.00142315 1.38151e-20)
(14.9995 0.00143375 2.1787e-20)
(14.9995 0.00144353 3.46489e-20)
(14.9995 0.00145299 -1.21316e-20)
(14.9995 0.00146185 3.36142e-20)
(14.9996 0.00147073 1.10842e-20)
(14.9996 0.00147915 -5.48701e-20)
(14.9996 0.00148731 -2.23204e-20)
(14.9996 0.00149474 2.23263e-20)
(14.9996 0.00150184 3.99209e-20)
(14.9997 0.00150888 -5.12039e-24)
(14.9997 0.0015154 2.25363e-20)
(14.9997 0.00152143 5.56403e-23)
(14.9997 0.00152713 -2.9078e-20)
(14.9998 0.00153275 -2.85064e-20)
(14.9998 0.00153773 -5.0764e-20)
(14.9998 0.00154218 4.09983e-20)
(14.9998 0.00154626 4.58084e-20)
(14.9999 0.00155002 1.01745e-20)
(14.9999 0.00155368 8.39041e-21)
(14.9999 0.00155659 -2.52577e-20)
(14.9999 0.00155935 -2.30973e-20)
(15 0.00156135 -7.59041e-24)
(15 0.00156316 2.28362e-20)
(15 0.00156463 2.29333e-20)
(15 0.00156576 -6.95842e-24)
(15.0001 0.0015667 -2.32034e-20)
(15.0001 0.00156687 -4.64478e-20)
(15.0001 0.00156688 1.77759e-20)
(15.0001 0.00156615 1.97804e-20)
(15.0002 0.0015653 -2.70962e-20)
(15.0002 0.00156413 -4.30471e-23)
(15.0002 0.00156256 1.79992e-20)
(15.0002 0.00156047 4.62553e-20)
(15.0003 0.0015577 -5.27221e-20)
(15.0003 0.00155485 -2.30075e-20)
(15.0003 0.00155165 -4.34661e-23)
(15.0003 0.00154793 8.33074e-21)
(15.0004 0.00154367 5.22884e-21)
(15.0004 0.00153933 1.9e-20)
(15.0004 0.00153466 -2.30428e-20)
(15.0004 0.0015292 1.07924e-20)
(15.0005 0.00152346 2.40598e-22)
(15.0005 0.00151723 -1.19464e-20)
(15.0005 0.00151101 5.83755e-20)
(15.0005 0.00150413 -1.80206e-22)
(15.0006 0.00149691 -4.54868e-20)
(15.0006 0.00148881 -3.71718e-20)
(15.0006 0.00148093 8.10817e-23)
(15.0006 0.00147237 5.3673e-20)
(15.0007 0.00146317 -1.61493e-20)
(15.0007 0.00145403 2.26478e-20)
(15.0007 0.00144435 3.45454e-20)
(15.0007 0.00143412 -4.02799e-20)
(15.0007 0.00142369 -4.49276e-20)
(15.0008 0.00141281 6.41358e-20)
(15.0008 0.00140148 4.40604e-20)
(15.0008 0.0013894 -1.99259e-20)
(15.0008 0.00137726 -2.49076e-22)
(15.0009 0.00136471 -4.39729e-22)
(15.0009 0.00135171 -2.21079e-20)
(15.0009 0.00133845 -6.63757e-20)
(15.0009 0.00132448 1.24839e-21)
(15.0009 0.00131059 6.89961e-20)
(15.001 0.00129606 4.56827e-20)
(15.001 0.00128085 -2.95364e-21)
(15.001 0.00126572 -1.97171e-22)
(15.001 0.00124993 4.40196e-21)
(15.001 0.0012337 0)
(15.0011 0.00121721 5.43568e-21)
(15.0011 0.00120042 2.14313e-20)
(15.0011 0.00118266 2.06372e-20)
(15.0011 0.00116519 -4.17393e-20)
(15.0011 0.00114706 -7.58465e-21)
(15.0012 0.00112859 2.02446e-20)
(15.0012 0.00110953 9.2153e-21)
(15.0012 0.00109073 3.94214e-20)
(15.0012 0.00107122 -3.00915e-20)
(15.0012 0.00105082 4.01228e-20)
(15.0012 0.00103069 -3.13505e-20)
(15.0013 0.00100986 5.17862e-20)
(15.0013 0.000988842 -5.21886e-20)
(15.0013 0.000967677 1.35074e-20)
(15.0013 0.000945998 3.18252e-20)
(15.0013 0.000923596 4.69042e-20)
(15.0013 0.000901494 1.86445e-20)
(15.0013 0.000878207 1.43916e-20)
(15.0013 0.000855206 1.89631e-20)
(15.0014 0.000832104 1.75361e-20)
(15.0014 0.000808304 -5.14918e-20)
(15.0014 0.000784697 -5.16389e-20)
(15.0014 0.000760277 1.79254e-20)
(15.0014 0.000735653 -1.72896e-20)
(15.0014 0.00071101 4.25663e-22)
(15.0014 0.000685888 -1.73853e-20)
(15.0014 0.000660592 -1.00097e-19)
(15.0014 0.000635165 7.43001e-22)
(15.0014 0.000609629 4.97564e-20)
(15.0014 0.000583673 3.39835e-20)
(15.0014 0.00055744 2.86285e-20)
(15.0014 0.000531659 -7.81273e-20)
(15.0014 0.000505276 3.14953e-20)
(15.0014 0.000479316 1.71621e-20)
(15.0014 0.0004527 3.04801e-20)
(15.0014 0.00042651 2.46997e-20)
(15.0014 0.000400293 -1.65546e-20)
(15.0014 0.000374232 -1.15225e-20)
(15.0014 0.000347841 -3.63745e-20)
(15.0013 0.000322237 -2.90364e-20)
(15.0013 0.000296777 -1.04585e-20)
(15.0013 0.000271455 -2.88708e-20)
(15.0013 0.000247067 7.05512e-21)
(15.0013 0.000222849 -6.67465e-21)
(15.0012 0.000199525 6.36446e-21)
(15.0012 0.000176559 -4.17404e-22)
(15.0012 0.00015366 -9.00764e-21)
(15.0012 0.000132251 6.4988e-21)
(15.0011 0.000111438 1.92007e-20)
(15.0011 8.95469e-05 -1.65566e-21)
(15.001 6.22486e-05 -2.86067e-22)
(15.0008 3.37457e-05 -4.97538e-21)
(15.0006 2.06341e-05 2.58863e-21)
(15.001 3.64898e-05 -4.2211e-22)
(15.0026 1.5482e-05 -3.78657e-22)
(14.9967 5.96651e-06 1.48371e-22)
(14.9984 4.97559e-05 1.39551e-22)
(14.9991 4.38362e-05 6.97021e-22)
(14.999 4.27951e-05 -2.13577e-21)
(14.9987 6.61947e-05 -2.17603e-21)
(14.9986 0.000102399 9.26771e-21)
(14.9985 0.000136469 -2.4038e-21)
(14.9984 0.000167136 0)
(14.9984 0.000197304 -1.83771e-20)
(14.9983 0.000229103 2.85508e-20)
(14.9983 0.000261686 -2.52262e-20)
(14.9983 0.00029484 5.57284e-21)
(14.9982 0.000328671 5.83415e-21)
(14.9982 0.000363167 -2.319e-20)
(14.9982 0.000398873 1.75888e-20)
(14.9981 0.000435084 8.49738e-21)
(14.9981 0.000471657 -4.19313e-20)
(14.9981 0.000509168 -4.33082e-20)
(14.9981 0.00054677 1.31095e-20)
(14.9981 0.000584861 1.38833e-20)
(14.998 0.00062332 4.86917e-20)
(14.998 0.000662151 1.12218e-20)
(14.998 0.000701001 1.46516e-20)
(14.998 0.000740224 -2.683e-20)
(14.998 0.000779099 1.24739e-20)
(14.998 0.000818452 -5.49937e-20)
(14.998 0.000857865 5.58511e-20)
(14.998 0.000896924 1.31511e-20)
(14.998 0.000935961 1.38646e-20)
(14.998 0.00097515 -1.39354e-20)
(14.998 0.00101408 -2.93637e-20)
(14.998 0.00105293 4.39585e-20)
(14.998 0.00109177 -7.37194e-20)
(14.998 0.00113044 -4.53561e-20)
(14.998 0.00116845 6.07025e-20)
(14.998 0.00120671 5.86111e-20)
(14.998 0.00124423 2.92935e-20)
(14.998 0.00128162 -1.62004e-20)
(14.998 0.00131923 1.25471e-20)
(14.9981 0.0013559 -5.79556e-20)
(14.9981 0.00139252 7.46742e-20)
(14.9981 0.0014288 1.73315e-20)
(14.9981 0.00146444 2.84585e-20)
(14.9981 0.00150011 2.827e-20)
(14.9981 0.00153532 0)
(14.9982 0.00156971 -1.79077e-20)
(14.9982 0.00160421 8.32994e-21)
(14.9982 0.00163794 4.6146e-20)
(14.9982 0.00167105 -3.73509e-20)
(14.9982 0.00170404 -2.6639e-20)
(14.9983 0.00173658 3.37903e-20)
(14.9983 0.00176874 -4.5067e-20)
(14.9983 0.00179983 -3.20408e-20)
(14.9983 0.00183114 6.98187e-20)
(14.9984 0.00186158 1.94059e-20)
(14.9984 0.00189169 2.46226e-20)
(14.9984 0.00192108 5.20998e-20)
(14.9984 0.00195005 3.72878e-21)
(14.9985 0.0019784 -4.01189e-20)
(14.9985 0.00200643 4.2701e-20)
(14.9985 0.00203376 6.31057e-20)
(14.9986 0.00206028 2.1783e-20)
(14.9986 0.00208664 2.0472e-20)
(14.9986 0.00211237 1.46019e-22)
(14.9986 0.00213742 -6.16464e-20)
(14.9987 0.00216186 3.97871e-20)
(14.9987 0.00218586 2.09387e-20)
(14.9987 0.00220936 1.90159e-20)
(14.9988 0.00223213 -3.97159e-20)
(14.9988 0.00225424 -2.52637e-23)
(14.9988 0.00227579 4.03391e-21)
(14.9989 0.00229699 -2.13369e-20)
(14.9989 0.00231748 -2.71064e-20)
(14.999 0.00233705 3.74281e-20)
(14.999 0.00235625 3.70705e-20)
(14.999 0.00237503 -1.46613e-20)
(14.9991 0.00239299 -1.41103e-20)
(14.9991 0.00241044 -4.91059e-20)
(14.9991 0.00242712 9.0627e-21)
(14.9992 0.00244327 -1.22066e-20)
(14.9992 0.00245845 -4.47142e-20)
(14.9992 0.00247341 5.60077e-20)
(14.9993 0.00248772 1.20129e-21)
(14.9993 0.00250147 -4.51302e-20)
(14.9994 0.0025141 -7.52562e-23)
(14.9994 0.00252632 5.52729e-23)
(14.9994 0.00253807 -3.11424e-20)
(14.9995 0.00254926 2.28012e-20)
(14.9995 0.0025596 3.86381e-20)
(14.9996 0.00256933 6.60662e-21)
(14.9996 0.00257855 5.91116e-21)
(14.9996 0.0025869 3.08077e-23)
(14.9997 0.00259464 -2.7892e-20)
(14.9997 0.00260169 -4.22563e-20)
(14.9998 0.00260821 -2.32912e-20)
(14.9998 0.00261429 6.98735e-20)
(14.9999 0.00261928 2.1097e-20)
(14.9999 0.00262373 -2.3381e-20)
(14.9999 0.00262731 2.24136e-20)
(15 0.00263057 3.91271e-22)
(15 0.00263308 -2.37398e-20)
(15.0001 0.00263482 8.82563e-22)
(15.0001 0.00263624 0)
(15.0001 0.00263678 2.13152e-21)
(15.0002 0.00263679 -2.07301e-20)
(15.0002 0.00263567 -3.37526e-21)
(15.0003 0.00263412 2.75057e-20)
(15.0003 0.002632 -3.27931e-20)
(15.0004 0.00262919 -2.34271e-20)
(15.0004 0.00262574 1.51742e-24)
(15.0004 0.00262139 -1.99373e-23)
(15.0005 0.0026165 4.68513e-20)
(15.0005 0.00261098 2.32881e-20)
(15.0006 0.00260457 -2.33203e-20)
(15.0006 0.00259755 2.33563e-20)
(15.0006 0.00259003 3.29384e-20)
(15.0007 0.00258207 -4.66475e-20)
(15.0007 0.00257293 -3.55151e-20)
(15.0008 0.00256319 1.17151e-20)
(15.0008 0.00255274 5.8495e-20)
(15.0009 0.00254204 1.26716e-20)
(15.0009 0.00253028 -3.64588e-20)
(15.0009 0.00251795 0)
(15.001 0.00250478 2.3098e-20)
(15.001 0.00249104 3.81795e-20)
(15.0011 0.0024764 -2.29748e-20)
(15.0011 0.00246127 -2.28263e-20)
(15.0011 0.00244572 2.29003e-20)
(15.0012 0.00242915 -3.54223e-20)
(15.0012 0.00241178 -2.26628e-20)
(15.0013 0.002394 2.27308e-20)
(15.0013 0.00237556 4.20125e-20)
(15.0013 0.00235637 -6.26396e-20)
(15.0014 0.00233636 -1.79838e-21)
(15.0014 0.00231575 -1.98901e-20)
(15.0014 0.0022946 2.15867e-20)
(15.0015 0.00227274 -4.4494e-20)
(15.0015 0.00225009 2.22646e-20)
(15.0016 0.00222669 4.54753e-20)
(15.0016 0.00220305 2.40313e-20)
(15.0016 0.00217846 -1.95052e-20)
(15.0017 0.00215304 -2.15337e-20)
(15.0017 0.00212719 6.90207e-20)
(15.0017 0.00210058 -2.09293e-22)
(15.0018 0.00207343 -2.14241e-20)
(15.0018 0.00204541 0)
(15.0018 0.00201693 5.52568e-20)
(15.0019 0.00198741 -5.62703e-20)
(15.0019 0.00195803 0)
(15.0019 0.00192736 2.90752e-20)
(15.002 0.00189618 -2.95382e-20)
(15.002 0.00186439 2.08347e-20)
(15.002 0.00183235 9.44631e-21)
(15.002 0.00179951 4.15352e-20)
(15.0021 0.00176568 -2.86447e-22)
(15.0021 0.00173185 -6.27927e-20)
(15.0021 0.00169697 1.97807e-20)
(15.0021 0.00166145 -7.68082e-20)
(15.0022 0.00162581 5.19849e-20)
(15.0022 0.00158931 -3.27954e-20)
(15.0022 0.00155227 -1.92475e-20)
(15.0022 0.00151503 -3.29833e-20)
(15.0023 0.00147654 1.42773e-20)
(15.0023 0.00143815 5.32084e-20)
(15.0023 0.00139943 -1.64775e-20)
(15.0023 0.00135968 -8.79833e-20)
(15.0023 0.00132003 -6.78535e-20)
(15.0023 0.00127942 5.15652e-20)
(15.0024 0.00123843 -6.83794e-20)
(15.0024 0.00119719 0)
(15.0024 0.00115566 -5.09315e-20)
(15.0024 0.0011136 -1.69159e-20)
(15.0024 0.00107148 6.53152e-20)
(15.0024 0.00102909 -3.33873e-20)
(15.0024 0.000986028 5.07883e-20)
(15.0024 0.00094277 -6.24499e-20)
(15.0024 0.000899809 3.25867e-20)
(15.0024 0.000856146 4.5307e-20)
(15.0024 0.000812629 4.47458e-20)
(15.0024 0.000768826 4.31238e-20)
(15.0024 0.000725141 3.90497e-21)
(15.0024 0.000681571 7.98924e-22)
(15.0024 0.000638251 -1.68487e-20)
(15.0024 0.000594674 1.56967e-20)
(15.0023 0.000551862 0)
(15.0023 0.000509111 -3.31817e-20)
(15.0023 0.000466568 4.42063e-20)
(15.0023 0.000425113 -2.06886e-20)
(15.0022 0.00038405 -1.05002e-20)
(15.0022 0.000343388 5.54869e-21)
(15.0022 0.000302894 -3.96409e-20)
(15.0021 0.000262943 5.23132e-21)
(15.0021 0.000224604 1.35024e-20)
(15.002 0.000184955 2.22029e-21)
(15.0019 0.000139822 2.86421e-22)
(15.0017 9.08443e-05 -3.04749e-21)
(15.0014 5.91876e-05 1.22623e-21)
(15.0013 6.2215e-05 -1.68856e-22)
(15.0023 7.09069e-05 -1.81654e-21)
(15.0047 8.92513e-06 1.3685e-22)
(14.9956 9.58516e-06 -1.30243e-22)
(14.9973 5.65318e-05 6.76009e-22)
(14.9983 7.72047e-05 0)
(14.9985 7.12694e-05 0)
(14.9983 8.45873e-05 -1.10763e-21)
(14.998 0.000127421 -1.79057e-21)
(14.9979 0.000178535 -3.95942e-21)
(14.9978 0.000225396 -1.95132e-21)
(14.9977 0.00026946 -6.26425e-21)
(14.9976 0.000314713 9.85105e-21)
(14.9976 0.000361146 -6.8545e-21)
(14.9975 0.000408461 -5.95825e-21)
(14.9975 0.000456504 -9.23287e-21)
(14.9974 0.00050556 5.58805e-23)
(14.9974 0.000555819 -3.66456e-20)
(14.9974 0.000606754 2.73415e-20)
(14.9973 0.000658284 8.64943e-21)
(14.9973 0.000710812 1.29693e-20)
(14.9973 0.00076377 -3.26152e-20)
(14.9972 0.000817254 1.38737e-20)
(14.9972 0.00087101 -4.95151e-20)
(14.9972 0.000925397 4.17959e-22)
(14.9972 0.000979968 1.09493e-20)
(14.9972 0.00103506 -1.41688e-20)
(14.9972 0.00108971 2.66982e-20)
(14.9972 0.00114483 3.81598e-22)
(14.9972 0.00120001 -5.41584e-20)
(14.9971 0.00125498 -2.86733e-20)
(14.9971 0.00130974 1.40317e-20)
(14.9971 0.00136488 5.3807e-23)
(14.9972 0.00141971 0)
(14.9972 0.00147431 2.93219e-20)
(14.9972 0.00152877 4.42829e-20)
(14.9972 0.00158309 -2.93362e-20)
(14.9972 0.00163685 -3.12292e-20)
(14.9972 0.00169057 -2.98272e-20)
(14.9972 0.00174369 -2.92146e-20)
(14.9972 0.00179658 -2.97951e-20)
(14.9972 0.00184937 3.82393e-21)
(14.9973 0.00190113 -5.83996e-20)
(14.9973 0.00195281 -4.64829e-20)
(14.9973 0.00200388 1.18493e-20)
(14.9973 0.00205432 1.11944e-20)
(14.9973 0.00210472 1.76422e-20)
(14.9974 0.00215454 2.86799e-20)
(14.9974 0.00220325 -2.42071e-22)
(14.9974 0.00225192 1.84317e-20)
(14.9974 0.00229967 5.53238e-20)
(14.9975 0.00234684 2.73191e-20)
(14.9975 0.00239346 -1.87657e-20)
(14.9975 0.00243953 2.64511e-20)
(14.9976 0.00248488 -1.42778e-20)
(14.9976 0.00252943 -1.91084e-20)
(14.9976 0.00257363 -1.98567e-20)
(14.9977 0.0026168 1.98097e-20)
(14.9977 0.0026595 2.99272e-20)
(14.9977 0.00270109 -2.00516e-20)
(14.9978 0.00274228 4.40239e-20)
(14.9978 0.00278269 -3.21836e-21)
(14.9979 0.00282238 -6.65527e-20)
(14.9979 0.00286124 -2.05984e-20)
(14.998 0.00289917 2.06099e-20)
(14.998 0.00293656 2.0895e-20)
(14.998 0.00297302 6.29041e-20)
(14.9981 0.0030087 -2.06819e-20)
(14.9981 0.00304366 -4.26217e-20)
(14.9982 0.00307767 1.56109e-21)
(14.9982 0.00311092 1.9291e-20)
(14.9983 0.00314346 -2.14155e-20)
(14.9983 0.00317513 1.81244e-20)
(14.9984 0.00320592 4.34192e-20)
(14.9984 0.00323583 3.44903e-20)
(14.9985 0.00326503 -6.04384e-20)
(14.9985 0.00329308 -3.8152e-20)
(14.9986 0.00332032 2.20532e-20)
(14.9986 0.00334706 7.26524e-21)
(14.9987 0.00337277 2.22156e-20)
(14.9987 0.00339745 8.54351e-21)
(14.9988 0.00342117 -2.65912e-20)
(14.9988 0.00344425 2.93887e-21)
(14.9989 0.00346619 -4.69496e-20)
(14.9989 0.00348744 3.37354e-20)
(14.999 0.00350773 -1.15885e-20)
(14.999 0.00352726 -6.85826e-20)
(14.9991 0.00354548 1.31182e-20)
(14.9992 0.00356304 4.59859e-20)
(14.9992 0.00357969 4.54541e-23)
(14.9993 0.00359554 1.5067e-20)
(14.9993 0.00361039 -2.30608e-20)
(14.9994 0.00362432 -6.30707e-20)
(14.9994 0.00363723 6.12218e-21)
(14.9995 0.0036493 4.83243e-24)
(14.9996 0.00366059 2.3427e-20)
(14.9996 0.00367075 2.35093e-20)
(14.9997 0.00367997 1.26854e-20)
(14.9997 0.00368842 1.76452e-20)
(14.9998 0.00369556 -2.12949e-20)
(14.9998 0.00370192 -2.3715e-20)
(14.9999 0.00370715 -2.37425e-20)
(15 0.00371191 -2.3363e-20)
(15 0.00371549 7.12028e-20)
(15.0001 0.00371787 2.37962e-20)
(15.0001 0.00371978 -2.5297e-20)
(15.0002 0.00372055 -2.3814e-20)
(15.0003 0.00372053 -2.65504e-20)
(15.0003 0.00371918 2.72228e-20)
(15.0004 0.00371703 -5.57687e-20)
(15.0004 0.00371393 -2.37352e-20)
(15.0005 0.00370966 7.66436e-20)
(15.0006 0.00370458 4.74337e-20)
(15.0006 0.00369862 -4.08103e-20)
(15.0007 0.0036916 -9.00829e-21)
(15.0007 0.00368361 -6.77744e-23)
(15.0008 0.00367458 5.5526e-23)
(15.0009 0.00366469 4.72847e-20)
(15.0009 0.00365383 -9.92492e-21)
(15.001 0.00364227 -3.40315e-20)
(15.001 0.00362931 -1.24439e-20)
(15.0011 0.00361553 3.54382e-20)
(15.0012 0.0036007 4.69111e-20)
(15.0012 0.00358513 0)
(15.0013 0.00356833 -2.3434e-20)
(15.0013 0.0035508 -9.0249e-21)
(15.0014 0.00353222 0)
(15.0014 0.00351251 -1.55399e-20)
(15.0015 0.00349166 -1.6162e-20)
(15.0016 0.00347022 -1.67619e-20)
(15.0016 0.00344788 -2.31784e-20)
(15.0017 0.00342426 -1.78609e-20)
(15.0017 0.00339981 2.2941e-20)
(15.0018 0.00337437 -2.30366e-20)
(15.0018 0.00334791 1.07305e-22)
(15.0019 0.00332044 2.52014e-20)
(15.0019 0.00329215 2.08358e-20)
(15.002 0.00326296 1.76465e-22)
(15.0021 0.00323266 -4.44319e-20)
(15.0021 0.00320151 -2.24085e-20)
(15.0022 0.00316942 0)
(15.0022 0.00313623 -2.65298e-23)
(15.0023 0.00310235 -2.06965e-21)
(15.0023 0.00306737 -5.01159e-20)
(15.0024 0.00303137 7.33826e-20)
(15.0024 0.00299449 2.56129e-20)
(15.0025 0.00295663 -9.66619e-20)
(15.0025 0.00291821 0)
(15.0025 0.00287845 2.17868e-20)
(15.0026 0.00283806 6.18745e-21)
(15.0026 0.00279638 7.46456e-21)
(15.0027 0.00275419 2.11439e-20)
(15.0027 0.00271097 -2.94946e-20)
(15.0028 0.0026668 0)
(15.0028 0.00262186 2.10283e-20)
(15.0029 0.00257615 -1.01977e-20)
(15.0029 0.00252964 1.05439e-20)
(15.0029 0.00248191 -7.24734e-20)
(15.003 0.00243396 3.22656e-20)
(15.003 0.00238458 -3.19031e-22)
(15.003 0.00233435 -3.23448e-20)
(15.0031 0.00228389 1.95198e-20)
(15.0031 0.00223249 -1.97662e-20)
(15.0031 0.0021802 -1.92565e-20)
(15.0032 0.00212759 7.2363e-20)
(15.0032 0.00207357 1.83741e-20)
(15.0032 0.00201921 1.5655e-20)
(15.0032 0.00196434 -5.3005e-20)
(15.0033 0.00190851 -7.0807e-20)
(15.0033 0.00185237 5.28414e-20)
(15.0033 0.00179531 -1.74322e-20)
(15.0033 0.00173779 3.56228e-22)
(15.0034 0.00167983 1.68682e-20)
(15.0034 0.00162128 0)
(15.0034 0.00156205 6.83244e-20)
(15.0034 0.00150292 -3.3946e-20)
(15.0034 0.00144321 -3.36617e-20)
(15.0034 0.00138289 -6.65439e-20)
(15.0034 0.00132227 -1.76407e-20)
(15.0034 0.00126181 4.67539e-20)
(15.0034 0.00120041 -3.1664e-20)
(15.0034 0.00113922 -1.37177e-20)
(15.0034 0.0010778 -2.98849e-20)
(15.0034 0.00101669 -4.67462e-20)
(15.0034 0.000955434 4.49277e-20)
(15.0034 0.000894311 4.52178e-22)
(15.0034 0.00083319 -4.70989e-22)
(15.0033 0.000772745 2.54484e-20)
(15.0033 0.000712487 3.26665e-20)
(15.0033 0.000652442 1.31031e-20)
(15.0033 0.00059329 4.38304e-21)
(15.0032 0.000534762 -1.78277e-20)
(15.0032 0.000476436 -1.7071e-20)
(15.0031 0.000418486 4.25618e-22)
(15.0031 0.000361333 1.69183e-20)
(15.003 0.000304878 -2.082e-20)
(15.0029 0.000243537 8.3961e-21)
(15.0027 0.000175108 3.1786e-23)
(15.0024 0.000117213 0)
(15.0021 0.000100138 -1.27356e-21)
(15.0023 0.0001103 -1.59542e-21)
(15.0038 8.09605e-05 2.82359e-22)
(15.0063 1.42255e-05 2.02247e-22)
(14.9947 9.60547e-06 -2.11699e-22)
(14.9963 5.92942e-05 -1.00851e-21)
(14.9975 0.00010594 0)
(14.9979 0.000109703 2.21387e-21)
(14.9978 0.000110646 1.1405e-21)
(14.9974 0.000148276 -2.94703e-21)
(14.9972 0.000210686 -6.26507e-21)
(14.9971 0.000274465 -2.74265e-21)
(14.997 0.000333607 2.34303e-21)
(14.9969 0.000392551 -1.13298e-20)
(14.9968 0.000452706 1.75547e-20)
(14.9968 0.000513957 -8.89236e-21)
(14.9967 0.000576117 2.1802e-20)
(14.9967 0.000639551 -6.34647e-23)
(14.9966 0.000704186 1.11785e-20)
(14.9966 0.000769921 -8.15437e-21)
(14.9965 0.000836394 4.16826e-20)
(14.9965 0.000903742 3.07805e-20)
(14.9965 0.000971844 -9.01461e-21)
(14.9964 0.0010409 -7.76357e-22)
(14.9964 0.00111029 -1.35331e-20)
(14.9964 0.00118014 -1.12788e-20)
(14.9964 0.00125055 -2.61425e-20)
(14.9963 0.00132139 -1.16718e-20)
(14.9963 0.00139193 -2.75823e-20)
(14.9963 0.00146288 5.3214e-20)
(14.9963 0.00153411 -1.4912e-20)
(14.9963 0.00160517 -2.86303e-20)
(14.9963 0.00167595 -2.88833e-20)
(14.9963 0.0017473 -4.3159e-20)
(14.9963 0.00181812 -1.46927e-20)
(14.9963 0.00188875 0)
(14.9963 0.00195921 -4.46031e-20)
(14.9963 0.00202944 -2.99793e-20)
(14.9963 0.00209921 1.58806e-21)
(14.9964 0.00216884 -1.38117e-20)
(14.9964 0.00223774 -2.98966e-20)
(14.9964 0.00230636 -4.61522e-20)
(14.9964 0.00237457 -3.00215e-20)
(14.9964 0.00244187 5.95134e-20)
(14.9965 0.00250893 -4.92557e-21)
(14.9965 0.00257551 -4.69203e-20)
(14.9965 0.00264112 -1.16734e-20)
(14.9965 0.00270647 2.63884e-22)
(14.9966 0.00277126 -2.36272e-22)
(14.9966 0.00283463 -2.83042e-20)
(14.9966 0.00289774 2.80254e-20)
(14.9967 0.00296013 -2.77508e-20)
(14.9967 0.00302146 2.75052e-20)
(14.9968 0.00308223 2.62473e-22)
(14.9968 0.00314231 1.88611e-20)
(14.9968 0.00320126 2.72128e-20)
(14.9969 0.0032595 6.51694e-21)
(14.9969 0.00331704 -6.22099e-21)
(14.997 0.00337337 5.88708e-21)
(14.997 0.00342902 2.50526e-20)
(14.9971 0.0034835 -2.4652e-20)
(14.9971 0.00353715 -2.46301e-20)
(14.9972 0.00358988 4.45349e-20)
(14.9972 0.00364166 0)
(14.9973 0.00369244 -2.31087e-20)
(14.9973 0.0037423 -4.52766e-20)
(14.9974 0.00379109 2.21551e-20)
(14.9974 0.00383862 -2.16768e-20)
(14.9975 0.00388538 4.24205e-20)
(14.9976 0.00393119 2.12926e-20)
(14.9976 0.00397566 2.03396e-20)
(14.9977 0.0040191 -2.0269e-21)
(14.9977 0.0040616 -2.1644e-20)
(14.9978 0.00410321 -3.73778e-20)
(14.9979 0.00414359 1.82337e-20)
(14.9979 0.00418248 1.74375e-20)
(14.998 0.0042206 5.21839e-21)
(14.9981 0.00425761 -1.64602e-20)
(14.9981 0.00429339 -9.50068e-21)
(14.9982 0.00432818 -1.5229e-20)
(14.9983 0.00436179 -1.48757e-20)
(14.9983 0.00439419 3.68436e-20)
(14.9984 0.00442536 -4.53443e-20)
(14.9985 0.00445561 -1.72868e-22)
(14.9985 0.00448459 2.30379e-20)
(14.9986 0.00451222 -2.30054e-20)
(14.9987 0.00453874 2.24593e-20)
(14.9988 0.00456443 -2.12589e-20)