/*--------------------------------*- C++ -*----------------------------------*\
  =========                 |
  \\      /  F ield         | OpenFOAM: The Open Source CFD Toolbox
   \\    /   O peration     | Website:  https://openfoam.org
    \\  /    A nd           | Version:  8
     \\/     M anipulation  |
\*---------------------------------------------------------------------------*/
FoamFile
{
    version     2.0;
    format      ascii;
    class       volScalarField;
    location    "1.25";
    object      nut;
}
// * * * * * * * * * * * * * * * * * * * * * * * * * * * * * * * * * * * * * //

dimensions      [0 2 -1 0 0 0 0];

internalField   nonuniform List<scalar> 
115200
(
0.000213395
0.000219988
0.000226138
0.000231903
0.000237342
0.00024251
0.000247462
0.000252238
0.000256856
0.000261289
0.000265479
0.00026938
0.000272999
0.000276348
0.000279441
0.00028229
0.000284906
0.000287299
0.000289478
0.000291452
0.000293227
0.000294808
0.000296197
0.000297393
0.000298393
0.000299188
0.000299762
0.0003001
0.000300223
0.000300249
0.000300173
0.000300002
0.000299741
0.000299391
0.000298957
0.00029844
0.000297842
0.000297165
0.000296409
0.000295577
0.00029467
0.000293688
0.000292633
0.000291505
0.000290305
0.000289035
0.000287694
0.000286284
0.000284804
0.000283257
0.000281641
0.000279959
0.000278209
0.000276392
0.000274509
0.00027256
0.000270545
0.000268463
0.000266316
0.000264103
0.000261823
0.000259477
0.000257064
0.000254583
0.000252035
0.000249418
0.000246732
0.000243975
0.000241147
0.000238246
0.000235272
0.000232222
0.000229094
0.000225887
0.000222599
0.000219226
0.000215767
0.000212217
0.000208572
0.000204828
0.00020098
0.000197021
0.000192947
0.00018875
0.000184421
0.000179952
0.000175331
0.000170547
0.000165584
0.000160425
0.000155051
0.00014944
0.000143566
0.00013741
0.000130973
0.000124322
0.000117709
0.00011175
0.000107422
0.00010522
0.000344443
0.000342754
0.000340533
0.000337863
0.000334883
0.000331809
0.000328988
0.000326975
0.000326565
0.000328465
0.000332131
0.000336115
0.000340065
0.000343976
0.000347854
0.000351709
0.00035555
0.000359383
0.000363218
0.000367063
0.000370928
0.000374825
0.000378764
0.000382759
0.00038682
0.000390934
0.000395096
0.000399313
0.000403562
0.000407732
0.000411836
0.000415876
0.000419855
0.000423774
0.000427636
0.000431442
0.000435193
0.00043889
0.000442533
0.000446123
0.00044966
0.000453146
0.000456579
0.000459961
0.000463291
0.00046657
0.000469798
0.000472974
0.000476099
0.000479173
0.000482195
0.000485166
0.000488086
0.000490955
0.000493772
0.000496538
0.000499251
0.000501914
0.000504524
0.000507083
0.00050959
0.000512044
0.000514446
0.000516796
0.000519093
0.000521337
0.000523529
0.000525668
0.000527755
0.000529789
0.00053177
0.000533699
0.000535576
0.000537401
0.000539175
0.0005409
0.000542578
0.00054421
0.000545798
0.000547333
0.000548816
0.000550246
0.000551625
0.000552954
0.000554232
0.000555463
0.000556646
0.000557783
0.000558877
0.000559927
0.000560934
0.000561898
0.000562816
0.000563686
0.000564498
0.000565235
0.00056587
0.000566368
0.0005667
0.000566872
0.000530583
0.000543294
0.000555973
0.000568635
0.000581281
0.000593908
0.000606509
0.000619063
0.000631534
0.000643867
0.000656002
0.000667905
0.000679577
0.000691027
0.000702265
0.0007133
0.00072414
0.000734791
0.000745261
0.000755556
0.000765678
0.000775632
0.000785416
0.000795031
0.000804476
0.000813773
0.000822944
0.000831992
0.000840914
0.000849707
0.000858369
0.0008669
0.000875304
0.000883579
0.000891729
0.000899755
0.000907657
0.000915437
0.000923096
0.000930635
0.000938053
0.000945353
0.000952534
0.000959596
0.00096654
0.000973366
0.000980074
0.000986665
0.000993137
0.000999492
0.00100573
0.00101185
0.00101785
0.00102373
0.0010295
0.00103514
0.00104067
0.00104608
0.00105137
0.00105655
0.0010616
0.00106653
0.00107135
0.00107604
0.00108061
0.00108507
0.0010894
0.00109361
0.00109769
0.00110166
0.0011055
0.00110922
0.00111282
0.0011163
0.00111965
0.00112288
0.00112599
0.00112897
0.00113183
0.00113457
0.00113718
0.00113967
0.00114203
0.00114427
0.00114639
0.00114839
0.00115026
0.00115201
0.00115364
0.00115516
0.00115655
0.00115782
0.00115896
0.00115997
0.00116086
0.0011616
0.00116221
0.00116268
0.00116302
0.00116321
0.00086841
0.000890277
0.000911692
0.000932684
0.000953261
0.000973432
0.000993205
0.00101259
0.00103161
0.00105026
0.00106858
0.00108659
0.00110428
0.00112169
0.00113881
0.00115566
0.00117223
0.00118855
0.00120462
0.00122044
0.00123603
0.00125139
0.00126652
0.00128144
0.00129615
0.00131065
0.00132495
0.00133904
0.00135293
0.00136663
0.00138012
0.00139342
0.00140652
0.00141943
0.00143215
0.00144468
0.00145701
0.00146916
0.00148112
0.0014929
0.00150449
0.00151589
0.00152711
0.00153814
0.00154899
0.00155965
0.00157013
0.00158043
0.00159054
0.00160046
0.00161021
0.00161976
0.00162914
0.00163832
0.00164732
0.00165614
0.00166477
0.00167321
0.00168147
0.00168954
0.00169743
0.00170513
0.00171264
0.00171997
0.0017271
0.00173405
0.0017408
0.00174737
0.00175375
0.00175993
0.00176592
0.00177172
0.00177733
0.00178275
0.00178797
0.001793
0.00179784
0.00180248
0.00180693
0.00181119
0.00181525
0.00181912
0.00182279
0.00182626
0.00182955
0.00183263
0.00183552
0.00183822
0.00184072
0.00184302
0.00184513
0.00184704
0.00184874
0.00185025
0.00185156
0.00185266
0.00185356
0.00185426
0.00185475
0.00185504
0.0012697
0.00129855
0.00132689
0.00135475
0.00138214
0.00140909
0.0014356
0.0014617
0.00148738
0.00151266
0.00153757
0.00156209
0.00158626
0.00161007
0.00163353
0.00165666
0.00167945
0.0017019
0.00172403
0.00174584
0.00176734
0.00178854
0.00180943
0.00183004
0.00185035
0.00187039
0.00189015
0.00190963
0.00192883
0.00194777
0.00196644
0.00198484
0.00200298
0.00202085
0.00203847
0.00205582
0.00207291
0.00208974
0.00210632
0.00212263
0.0021387
0.0021545
0.00217005
0.00218534
0.00220038
0.00221516
0.00222969
0.00224396
0.00225798
0.00227173
0.00228524
0.00229848
0.00231147
0.0023242
0.00233668
0.00234889
0.00236085
0.00237255
0.00238398
0.00239516
0.00240608
0.00241673
0.00242713
0.00243726
0.00244713
0.00245673
0.00246608
0.00247515
0.00248396
0.00249251
0.00250079
0.0025088
0.00251655
0.00252403
0.00253124
0.00253818
0.00254486
0.00255126
0.0025574
0.00256326
0.00256886
0.00257418
0.00257923
0.00258401
0.00258852
0.00259276
0.00259673
0.00260042
0.00260384
0.00260698
0.00260985
0.00261245
0.00261477
0.00261682
0.00261858
0.00262007
0.00262129
0.00262222
0.00262287
0.00262325
0.0017197
0.00175579
0.00179136
0.00182641
0.00186096
0.00189501
0.00192857
0.00196165
0.00199427
0.00202642
0.00205813
0.0020894
0.00212024
0.00215065
0.00218064
0.00221022
0.0022394
0.00226818
0.00229657
0.00232457
0.0023522
0.00237946
0.00240634
0.00243286
0.00245903
0.00248484
0.0025103
0.00253541
0.00256017
0.0025846
0.00260868
0.00263243
0.00265583
0.00267891
0.00270164
0.00272405
0.00274612
0.00276786
0.00278926
0.00281034
0.00283109
0.00285151
0.00287159
0.00289135
0.00291077
0.00292987
0.00294864
0.00296707
0.00298518
0.00300295
0.00302039
0.0030375
0.00305428
0.00307072
0.00308683
0.00310261
0.00311805
0.00313315
0.00314792
0.00316235
0.00317644
0.0031902
0.00320361
0.00321669
0.00322942
0.00324182
0.00325387
0.00326558
0.00327695
0.00328797
0.00329865
0.00330898
0.00331897
0.00332861
0.0033379
0.00334685
0.00335545
0.0033637
0.0033716
0.00337915
0.00338635
0.0033932
0.0033997
0.00340585
0.00341164
0.00341709
0.00342218
0.00342692
0.0034313
0.00343533
0.00343901
0.00344233
0.0034453
0.00344791
0.00345016
0.00345206
0.0034536
0.00345478
0.0034556
0.00345607
0.00221635
0.00225974
0.00230254
0.00234479
0.00238649
0.00242765
0.0024683
0.00250842
0.00254803
0.00258714
0.00262574
0.00266385
0.00270148
0.00273862
0.00277529
0.00281149
0.00284722
0.0028825
0.00291732
0.00295169
0.00298561
0.0030191
0.00305215
0.00308477
0.00311696
0.00314873
0.00318007
0.003211
0.00324151
0.0032716
0.00330128
0.00333054
0.0033594
0.00338784
0.00341588
0.0034435
0.00347072
0.00349754
0.00352394
0.00354994
0.00357554
0.00360072
0.00362551
0.00364988
0.00367385
0.00369741
0.00372056
0.00374331
0.00376564
0.00378757
0.00380909
0.00383019
0.00385089
0.00387117
0.00389105
0.00391051
0.00392955
0.00394818
0.00396639
0.00398419
0.00400157
0.00401853
0.00403507
0.00405119
0.00406689
0.00408217
0.00409703
0.00411146
0.00412547
0.00413906
0.00415222
0.00416495
0.00417725
0.00418913
0.00420058
0.0042116
0.00422219
0.00423234
0.00424207
0.00425137
0.00426023
0.00426866
0.00427666
0.00428422
0.00429135
0.00429804
0.0043043
0.00431012
0.0043155
0.00432045
0.00432496
0.00432903
0.00433267
0.00433586
0.00433862
0.00434094
0.00434282
0.00434426
0.00434526
0.00434582
0.00275658
0.00280733
0.00285744
0.00290695
0.00295589
0.00300427
0.00305208
0.00309933
0.00314603
0.00319218
0.00323778
0.00328284
0.00332736
0.00337134
0.0034148
0.00345772
0.00350013
0.00354201
0.00358338
0.00362424
0.00366459
0.00370443
0.00374377
0.00378261
0.00382095
0.0038588
0.00389615
0.00393301
0.00396938
0.00400527
0.00404066
0.00407557
0.00411
0.00414394
0.0041774
0.00421037
0.00424286
0.00427487
0.00430639
0.00433743
0.00436799
0.00439806
0.00442765
0.00445675
0.00448537
0.0045135
0.00454115
0.00456831
0.00459498
0.00462117
0.00464686
0.00467206
0.00469677
0.00472099
0.00474472
0.00476795
0.00479069
0.00481293
0.00483468
0.00485592
0.00487667
0.00489691
0.00491666
0.0049359
0.00495464
0.00497288
0.00499061
0.00500783
0.00502455
0.00504076
0.00505646
0.00507165
0.00508633
0.0051005
0.00511415
0.00512729
0.00513992
0.00515204
0.00516363
0.00517472
0.00518528
0.00519533
0.00520486
0.00521387
0.00522236
0.00523034
0.00523779
0.00524472
0.00525113
0.00525702
0.00526238
0.00526723
0.00527155
0.00527535
0.00527862
0.00528137
0.0052836
0.00528531
0.00528649
0.00528714
0.00333857
0.00339675
0.00345426
0.00351114
0.0035674
0.00362306
0.00367812
0.00373258
0.00378644
0.00383971
0.00389238
0.00394446
0.00399596
0.00404686
0.00409718
0.00414692
0.00419608
0.00424465
0.00429266
0.00434008
0.00438693
0.00443322
0.00447893
0.00452407
0.00456865
0.00461267
0.00465612
0.00469901
0.00474133
0.0047831
0.0048243
0.00486495
0.00490503
0.00494456
0.00498352
0.00502193
0.00505978
0.00509706
0.00513379
0.00516995
0.00520555
0.00524059
0.00527507
0.00530899
0.00534234
0.00537512
0.00540734
0.00543899
0.00547007
0.00550058
0.00553052
0.00555989
0.00558869
0.00561691
0.00564456
0.00567163
0.00569813
0.00572404
0.00574938
0.00577413
0.00579831
0.0058219
0.0058449
0.00586732
0.00588915
0.00591039
0.00593105
0.00595111
0.00597058
0.00598946
0.00600774
0.00602544
0.00604253
0.00605903
0.00607493
0.00609023
0.00610494
0.00611904
0.00613254
0.00614544
0.00615774
0.00616943
0.00618052
0.00619101
0.00620089
0.00621017
0.00621883
0.0062269
0.00623435
0.0062412
0.00624744
0.00625307
0.00625809
0.0062625
0.0062663
0.0062695
0.00627208
0.00627405
0.00627542
0.00627617
0.00396118
0.00402688
0.00409186
0.00415617
0.00421982
0.00428283
0.0043452
0.00440693
0.00446801
0.00452846
0.00458826
0.00464742
0.00470595
0.00476383
0.00482107
0.00487767
0.00493364
0.00498896
0.00504365
0.0050977
0.00515112
0.0052039
0.00525604
0.00530755
0.00535843
0.00540867
0.00545828
0.00550725
0.00555559
0.0056033
0.00565037
0.00569681
0.00574261
0.00578778
0.00583232
0.00587622
0.00591948
0.0059621
0.00600409
0.00604543
0.00608614
0.0061262
0.00616563
0.00620441
0.00624254
0.00628003
0.00631687
0.00635306
0.00638861
0.0064235
0.00645774
0.00649133
0.00652426
0.00655653
0.00658815
0.0066191
0.0066494
0.00667903
0.006708
0.00673631
0.00676395
0.00679092
0.00681722
0.00684285
0.00686781
0.00689209
0.0069157
0.00693864
0.0069609
0.00698248
0.00700338
0.0070236
0.00704314
0.007062
0.00708017
0.00709766
0.00711446
0.00713058
0.007146
0.00716074
0.00717479
0.00718815
0.00720082
0.0072128
0.00722409
0.00723468
0.00724458
0.00725379
0.0072623
0.00727012
0.00727724
0.00728367
0.0072894
0.00729443
0.00729877
0.00730241
0.00730536
0.00730761
0.00730916
0.00731002
0.00462356
0.00469684
0.00476936
0.00484117
0.00491227
0.00498269
0.00505241
0.00512145
0.00518981
0.00525747
0.00532445
0.00539073
0.00545633
0.00552122
0.00558543
0.00564893
0.00571174
0.00577386
0.00583527
0.00589599
0.005956
0.00601532
0.00607393
0.00613184
0.00618905
0.00624556
0.00630136
0.00635646
0.00641085
0.00646454
0.00651752
0.00656979
0.00662135
0.00667221
0.00672235
0.00677178
0.00682049
0.00686849
0.00691577
0.00696234
0.00700819
0.00705331
0.00709772
0.0071414
0.00718435
0.00722658
0.00726808
0.00730885
0.00734889
0.00738819
0.00742676
0.00746459
0.00750169
0.00753804
0.00757366
0.00760853
0.00764265
0.00767603
0.00770866
0.00774054
0.00777167
0.00780205
0.00783167
0.00786054
0.00788865
0.007916
0.00794259
0.00796842
0.00799349
0.00801779
0.00804133
0.00806409
0.0080861
0.00810733
0.00812779
0.00814748
0.0081664
0.00818454
0.00820191
0.0082185
0.00823432
0.00824936
0.00826362
0.0082771
0.0082898
0.00830173
0.00831287
0.00832323
0.00833281
0.0083416
0.00834961
0.00835684
0.00836329
0.00836895
0.00837383
0.00837793
0.00838124
0.00838376
0.00838551
0.00838646
0.00532508
0.00540601
0.00548612
0.00556547
0.00564408
0.00572194
0.00579907
0.00587547
0.00595113
0.00602605
0.00610023
0.00617366
0.00624636
0.0063183
0.00638949
0.00645993
0.00652961
0.00659853
0.0066667
0.0067341
0.00680074
0.00686661
0.00693172
0.00699605
0.00705962
0.00712241
0.00718443
0.00724568
0.00730615
0.00736584
0.00742475
0.00748287
0.00754021
0.00759677
0.00765254
0.00770752
0.00776171
0.00781511
0.00786771
0.00791951
0.00797052
0.00802073
0.00807013
0.00811873
0.00816653
0.00821351
0.00825969
0.00830505
0.0083496
0.00839334
0.00843626
0.00847835
0.00851963
0.00856008
0.00859971
0.00863851
0.00867648
0.00871362
0.00874992
0.00878539
0.00882003
0.00885383
0.00888678
0.0089189
0.00895017
0.0089806
0.00901018
0.00903892
0.0090668
0.00909383
0.00912001
0.00914534
0.00916981
0.00919343
0.00921619
0.00923809
0.00925913
0.00927931
0.00929862
0.00931708
0.00933467
0.00935139
0.00936725
0.00938224
0.00939637
0.00940962
0.00942201
0.00943353
0.00944418
0.00945396
0.00946286
0.0094709
0.00947806
0.00948436
0.00948978
0.00949433
0.00949801
0.00950081
0.00950275
0.00950381
0.00606526
0.00615388
0.00624165
0.00632859
0.00641473
0.00650009
0.00658466
0.00666844
0.00675143
0.00683364
0.00691505
0.00699567
0.00707548
0.00715448
0.00723268
0.00731007
0.00738664
0.00746239
0.00753731
0.00761142
0.00768469
0.00775714
0.00782874
0.00789952
0.00796945
0.00803854
0.00810679
0.00817419
0.00824074
0.00830644
0.00837129
0.00843528
0.00849841
0.00856068
0.00862209
0.00868263
0.0087423
0.0088011
0.00885903
0.00891608
0.00897225
0.00902755
0.00908196
0.00913549
0.00918813
0.00923988
0.00929074
0.0093407
0.00938977
0.00943794
0.00948521
0.00953158
0.00957704
0.00962159
0.00966523
0.00970797
0.00974979
0.00979069
0.00983068
0.00986974
0.00990789
0.00994511
0.0099814
0.0100168
0.0100512
0.0100847
0.0101173
0.0101489
0.0101796
0.0102094
0.0102382
0.0102661
0.0102931
0.0103191
0.0103441
0.0103682
0.0103914
0.0104136
0.0104349
0.0104552
0.0104746
0.010493
0.0105104
0.0105269
0.0105425
0.0105571
0.0105707
0.0105834
0.0105951
0.0106059
0.0106157
0.0106245
0.0106324
0.0106393
0.0106453
0.0106503
0.0106543
0.0106574
0.0106595
0.0106607
0.00684374
0.00694011
0.00703556
0.00713014
0.00722386
0.00731674
0.00740878
0.00749998
0.00759034
0.00767985
0.00776851
0.00785632
0.00794327
0.00802935
0.00811457
0.00819891
0.00828238
0.00836496
0.00844666
0.00852747
0.00860738
0.0086864
0.00876452
0.00884173
0.00891803
0.00899342
0.00906789
0.00914145
0.00921409
0.0092858
0.00935658
0.00942643
0.00949535
0.00956333
0.00963037
0.00969646
0.00976161
0.00982581
0.00988906
0.00995136
0.0100127
0.0100731
0.0101325
0.0101909
0.0102484
0.0103049
0.0103605
0.010415
0.0104686
0.0105212
0.0105728
0.0106235
0.0106731
0.0107218
0.0107694
0.0108161
0.0108617
0.0109064
0.0109501
0.0109927
0.0110344
0.011075
0.0111146
0.0111532
0.0111908
0.0112274
0.011263
0.0112975
0.011331
0.0113635
0.011395
0.0114255
0.0114549
0.0114833
0.0115106
0.0115369
0.0115622
0.0115865
0.0116097
0.0116318
0.011653
0.0116731
0.0116921
0.0117101
0.0117271
0.011743
0.0117579
0.0117717
0.0117845
0.0117963
0.011807
0.0118166
0.0118252
0.0118328
0.0118393
0.0118447
0.0118492
0.0118525
0.0118548
0.0118561
0.00766026
0.00776442
0.0078676
0.00796985
0.00807119
0.00817162
0.00827116
0.0083698
0.00846754
0.00856438
0.0086603
0.00875532
0.00884941
0.00894259
0.00903483
0.00912613
0.0092165
0.00930592
0.00939439
0.0094819
0.00956845
0.00965404
0.00973866
0.0098223
0.00990496
0.00998664
0.0100673
0.010147
0.0102258
0.0103035
0.0103802
0.0104559
0.0105306
0.0106042
0.0106769
0.0107485
0.0108192
0.0108888
0.0109573
0.0110248
0.0110913
0.0111568
0.0112212
0.0112845
0.0113469
0.0114081
0.0114683
0.0115275
0.0115855
0.0116426
0.0116985
0.0117534
0.0118072
0.0118599
0.0119116
0.0119622
0.0120117
0.0120601
0.0121074
0.0121536
0.0121988
0.0122428
0.0122858
0.0123276
0.0123684
0.012408
0.0124465
0.012484
0.0125203
0.0125555
0.0125896
0.0126226
0.0126545
0.0126852
0.0127149
0.0127434
0.0127708
0.0127971
0.0128222
0.0128462
0.0128691
0.0128909
0.0129115
0.012931
0.0129494
0.0129667
0.0129828
0.0129978
0.0130116
0.0130244
0.0130359
0.0130464
0.0130557
0.0130639
0.0130709
0.0130769
0.0130816
0.0130853
0.0130878
0.0130892
0.00851461
0.00862661
0.00873756
0.00884751
0.00895649
0.00906451
0.00917157
0.00927767
0.00938281
0.00948698
0.00959019
0.00969242
0.00979367
0.00989393
0.0099932
0.0100915
0.0101887
0.010285
0.0103802
0.0104744
0.0105676
0.0106598
0.0107509
0.0108409
0.01093
0.0110179
0.0111048
0.0111906
0.0112754
0.0113591
0.0114417
0.0115233
0.0116037
0.0116831
0.0117613
0.0118385
0.0119146
0.0119895
0.0120634
0.0121361
0.0122077
0.0122782
0.0123476
0.0124159
0.012483
0.012549
0.0126138
0.0126775
0.0127401
0.0128015
0.0128618
0.0129209
0.0129788
0.0130356
0.0130913
0.0131457
0.013199
0.0132512
0.0133021
0.0133519
0.0134005
0.013448
0.0134942
0.0135393
0.0135832
0.0136259
0.0136674
0.0137077
0.0137468
0.0137847
0.0138214
0.0138569
0.0138913
0.0139244
0.0139563
0.013987
0.0140165
0.0140448
0.0140718
0.0140977
0.0141223
0.0141458
0.014168
0.014189
0.0142088
0.0142273
0.0142447
0.0142608
0.0142757
0.0142894
0.0143019
0.0143132
0.0143232
0.014332
0.0143396
0.0143459
0.0143511
0.014355
0.0143577
0.0143592
0.00940667
0.00952653
0.00964529
0.00976298
0.00987963
0.00999525
0.0101099
0.0102234
0.010336
0.0104475
0.010558
0.0106675
0.0107759
0.0108832
0.0109895
0.0110947
0.0111989
0.011302
0.011404
0.0115049
0.0116047
0.0117034
0.0118009
0.0118974
0.0119928
0.012087
0.0121801
0.012272
0.0123628
0.0124525
0.012541
0.0126283
0.0127145
0.0127995
0.0128834
0.012966
0.0130475
0.0131278
0.013207
0.0132849
0.0133616
0.0134371
0.0135114
0.0135846
0.0136565
0.0137271
0.0137966
0.0138648
0.0139319
0.0139976
0.0140622
0.0141255
0.0141876
0.0142484
0.014308
0.0143664
0.0144235
0.0144793
0.0145339
0.0145872
0.0146393
0.0146901
0.0147396
0.0147878
0.0148348
0.0148805
0.014925
0.0149681
0.01501
0.0150506
0.0150899
0.015128
0.0151647
0.0152002
0.0152343
0.0152672
0.0152988
0.015329
0.015358
0.0153857
0.0154121
0.0154372
0.015461
0.0154834
0.0155046
0.0155245
0.0155431
0.0155603
0.0155763
0.0155909
0.0156043
0.0156163
0.0156271
0.0156365
0.0156446
0.0156514
0.0156569
0.0156611
0.015664
0.0156655
0.0103363
0.0104641
0.0105907
0.0107161
0.0108405
0.0109637
0.0110859
0.011207
0.0113269
0.0114458
0.0115636
0.0116803
0.0117958
0.0119103
0.0120236
0.0121358
0.0122468
0.0123567
0.0124655
0.012573
0.0126794
0.0127847
0.0128887
0.0129915
0.0130932
0.0131937
0.0132929
0.013391
0.0134878
0.0135834
0.0136777
0.0137709
0.0138627
0.0139534
0.0140428
0.0141309
0.0142178
0.0143034
0.0143878
0.0144708
0.0145526
0.0146332
0.0147124
0.0147903
0.014867
0.0149423
0.0150164
0.0150891
0.0151606
0.0152307
0.0152995
0.015367
0.0154332
0.015498
0.0155615
0.0156237
0.0156845
0.0157441
0.0158022
0.015859
0.0159145
0.0159687
0.0160214
0.0160729
0.0161229
0.0161716
0.016219
0.016265
0.0163096
0.0163529
0.0163947
0.0164353
0.0164744
0.0165122
0.0165486
0.0165836
0.0166172
0.0166495
0.0166803
0.0167098
0.0167379
0.0167647
0.01679
0.0168139
0.0168365
0.0168577
0.0168774
0.0168958
0.0169128
0.0169284
0.0169426
0.0169554
0.0169669
0.0169769
0.0169855
0.0169928
0.0169986
0.0170031
0.0170061
0.0170078
0.0113035
0.0114392
0.0115737
0.0117069
0.011839
0.0119699
0.0120996
0.0122282
0.0123556
0.0124818
0.0126069
0.0127308
0.0128535
0.012975
0.0130954
0.0132145
0.0133324
0.0134491
0.0135646
0.0136788
0.0137918
0.0139035
0.014014
0.0141232
0.0142311
0.0143378
0.0144432
0.0145473
0.0146501
0.0147516
0.0148518
0.0149507
0.0150482
0.0151445
0.0152394
0.0153329
0.0154252
0.0155161
0.0156056
0.0156938
0.0157806
0.0158661
0.0159502
0.016033
0.0161143
0.0161943
0.0162729
0.0163501
0.0164259
0.0165004
0.0165734
0.016645
0.0167152
0.0167841
0.0168515
0.0169174
0.016982
0.0170452
0.0171069
0.0171672
0.017226
0.0172835
0.0173395
0.017394
0.0174471
0.0174988
0.0175491
0.0175978
0.0176452
0.0176911
0.0177355
0.0177785
0.01782
0.01786
0.0178986
0.0179358
0.0179715
0.0180057
0.0180384
0.0180697
0.0180995
0.0181278
0.0181547
0.0181801
0.018204
0.0182264
0.0182474
0.0182669
0.0182849
0.0183014
0.0183165
0.0183301
0.0183422
0.0183528
0.018362
0.0183696
0.0183758
0.0183806
0.0183838
0.0183856
0.0123082
0.0124519
0.0125942
0.0127353
0.0128751
0.0130136
0.0131509
0.013287
0.0134218
0.0135554
0.0136878
0.0138189
0.0139488
0.0140774
0.0142047
0.0143308
0.0144555
0.014579
0.0147012
0.014822
0.0149416
0.0150598
0.0151767
0.0152922
0.0154064
0.0155193
0.0156308
0.0157409
0.0158496
0.015957
0.016063
0.0161676
0.0162708
0.0163726
0.016473
0.0165719
0.0166695
0.0167656
0.0168603
0.0169536
0.0170454
0.0171358
0.0172247
0.0173122
0.0173983
0.0174828
0.0175659
0.0176476
0.0177277
0.0178064
0.0178836
0.0179593
0.0180336
0.0181063
0.0181776
0.0182473
0.0183156
0.0183823
0.0184476
0.0185113
0.0185735
0.0186342
0.0186934
0.018751
0.0188072
0.0188618
0.0189148
0.0189664
0.0190164
0.0190649
0.0191118
0.0191572
0.0192011
0.0192434
0.0192842
0.0193234
0.0193611
0.0193973
0.0194318
0.0194649
0.0194963
0.0195263
0.0195546
0.0195815
0.0196067
0.0196304
0.0196526
0.0196731
0.0196922
0.0197096
0.0197255
0.0197399
0.0197527
0.0197639
0.0197735
0.0197816
0.0197882
0.0197931
0.0197965
0.0197984
0.0133504
0.013502
0.0136523
0.0138011
0.0139487
0.0140949
0.0142398
0.0143834
0.0145256
0.0146666
0.0148063
0.0149446
0.0150816
0.0152172
0.0153516
0.0154845
0.0156161
0.0157464
0.0158752
0.0160027
0.0161287
0.0162534
0.0163767
0.0164985
0.0166189
0.0167379
0.0168555
0.0169716
0.0170863
0.0171995
0.0173112
0.0174215
0.0175302
0.0176376
0.0177434
0.0178477
0.0179505
0.0180519
0.0181517
0.01825
0.0183467
0.018442
0.0185357
0.0186279
0.0187186
0.0188077
0.0188953
0.0189813
0.0190657
0.0191486
0.01923
0.0193097
0.0193879
0.0194646
0.0195396
0.0196131
0.019685
0.0197553
0.019824
0.0198911
0.0199566
0.0200205
0.0200829
0.0201436
0.0202027
0.0202602
0.0203161
0.0203704
0.020423
0.0204741
0.0205235
0.0205713
0.0206175
0.020662
0.0207049
0.0207462
0.0207859
0.0208239
0.0208603
0.0208951
0.0209282
0.0209597
0.0209896
0.0210178
0.0210444
0.0210693
0.0210926
0.0211143
0.0211343
0.0211526
0.0211694
0.0211844
0.0211979
0.0212097
0.0212198
0.0212283
0.0212352
0.0212404
0.021244
0.0212459
0.01443
0.0145897
0.0147478
0.0149045
0.0150598
0.0152136
0.0153661
0.0155172
0.0156669
0.0158153
0.0159622
0.0161077
0.0162518
0.0163945
0.0165358
0.0166757
0.0168141
0.016951
0.0170865
0.0172206
0.0173532
0.0174842
0.0176139
0.017742
0.0178686
0.0179937
0.0181172
0.0182393
0.0183598
0.0184788
0.0185963
0.0187121
0.0188265
0.0189393
0.0190505
0.0191601
0.0192681
0.0193746
0.0194795
0.0195828
0.0196844
0.0197845
0.019883
0.0199798
0.0200751
0.0201687
0.0202606
0.020351
0.0204397
0.0205268
0.0206122
0.0206959
0.0207781
0.0208585
0.0209373
0.0210145
0.02109
0.0211638
0.0212359
0.0213064
0.0213751
0.0214422
0.0215077
0.0215714
0.0216334
0.0216938
0.0217524
0.0218094
0.0218647
0.0219182
0.0219701
0.0220203
0.0220687
0.0221155
0.0221605
0.0222038
0.0222454
0.0222853
0.0223235
0.02236
0.0223947
0.0224278
0.0224591
0.0224887
0.0225166
0.0225427
0.0225672
0.0225899
0.0226108
0.0226301
0.0226476
0.0226635
0.0226775
0.0226899
0.0227005
0.0227094
0.0227166
0.0227221
0.0227258
0.0227278
0.0155471
0.0157147
0.0158808
0.0160453
0.0162083
0.0163699
0.0165299
0.0166885
0.0168457
0.0170013
0.0171555
0.0173082
0.0174594
0.0176092
0.0177574
0.0179041
0.0180493
0.0181929
0.0183351
0.0184757
0.0186147
0.0187522
0.0188881
0.0190224
0.0191552
0.0192863
0.0194159
0.0195438
0.0196702
0.0197949
0.019918
0.0200395
0.0201593
0.0202775
0.020394
0.0205089
0.0206221
0.0207337
0.0208436
0.0209518
0.0210583
0.0211632
0.0212663
0.0213677
0.0214675
0.0215655
0.0216619
0.0217565
0.0218494
0.0219406
0.02203
0.0221177
0.0222037
0.022288
0.0223705
0.0224512
0.0225302
0.0226075
0.022683
0.0227568
0.0228288
0.022899
0.0229675
0.0230342
0.0230991
0.0231622
0.0232236
0.0232832
0.0233411
0.0233971
0.0234514
0.0235039
0.0235545
0.0236034
0.0236506
0.0236959
0.0237394
0.0237812
0.0238211
0.0238592
0.0238956
0.0239301
0.0239629
0.0239938
0.024023
0.0240503
0.0240759
0.0240996
0.0241215
0.0241417
0.02416
0.0241765
0.0241912
0.0242041
0.0242153
0.0242246
0.0242321
0.0242377
0.0242416
0.0242437
0.0167015
0.0168771
0.0170511
0.0172235
0.0173943
0.0175635
0.0177311
0.0178972
0.0180617
0.0182247
0.0183861
0.018546
0.0187043
0.018861
0.0190162
0.0191697
0.0193216
0.019472
0.0196207
0.0197678
0.0199132
0.020057
0.0201992
0.0203397
0.0204786
0.0206157
0.0207512
0.020885
0.0210171
0.0211476
0.0212763
0.0214032
0.0215285
0.0216521
0.0217739
0.021894
0.0220123
0.0221289
0.0222437
0.0223568
0.0224681
0.0225777
0.0226854
0.0227914
0.0228956
0.022998
0.0230987
0.0231975
0.0232945
0.0233897
0.0234832
0.0235748
0.0236646
0.0237525
0.0238387
0.023923
0.0240055
0.0240862
0.024165
0.024242
0.0243172
0.0243905
0.0244619
0.0245316
0.0245993
0.0246652
0.0247293
0.0247915
0.0248518
0.0249103
0.024967
0.0250217
0.0250746
0.0251256
0.0251748
0.0252221
0.0252675
0.025311
0.0253527
0.0253924
0.0254304
0.0254664
0.0255005
0.0255328
0.0255632
0.0255917
0.0256183
0.0256431
0.0256659
0.0256869
0.025706
0.0257232
0.0257386
0.025752
0.0257636
0.0257733
0.0257811
0.025787
0.025791
0.0257932
0.0178933
0.0180769
0.0182588
0.018439
0.0186175
0.0187944
0.0189696
0.0191431
0.0193151
0.0194853
0.019654
0.019821
0.0199863
0.02015
0.020312
0.0204723
0.020631
0.0207879
0.0209432
0.0210967
0.0212486
0.0213987
0.0215471
0.0216937
0.0218386
0.0219817
0.0221231
0.0222627
0.0224005
0.0225365
0.0226708
0.0228033
0.0229339
0.0230628
0.0231898
0.023315
0.0234384
0.0235599
0.0236797
0.0237975
0.0239136
0.0240278
0.0241401
0.0242505
0.0243591
0.0244659
0.0245707
0.0246737
0.0247748
0.024874
0.0249714
0.0250668
0.0251603
0.025252
0.0253417
0.0254295
0.0255155
0.0255995
0.0256816
0.0257617
0.02584
0.0259163
0.0259907
0.0260632
0.0261338
0.0262024
0.0262691
0.0263338
0.0263966
0.0264575
0.0265164
0.0265734
0.0266285
0.0266816
0.0267327
0.0267819
0.0268292
0.0268745
0.0269178
0.0269592
0.0269986
0.0270361
0.0270716
0.0271052
0.0271368
0.0271665
0.0271941
0.0272199
0.0272436
0.0272655
0.0272853
0.0273032
0.0273191
0.0273331
0.0273451
0.0273551
0.0273632
0.0273694
0.0273735
0.0273757
0.0191223
0.019314
0.0195038
0.0196918
0.019878
0.0200625
0.0202452
0.0204263
0.0206055
0.0207831
0.0209589
0.021133
0.0213053
0.0214759
0.0216448
0.0218119
0.0219772
0.0221407
0.0223025
0.0224624
0.0226206
0.0227769
0.0229314
0.0230841
0.023235
0.023384
0.0235312
0.0236766
0.02382
0.0239616
0.0241014
0.0242392
0.0243752
0.0245093
0.0246414
0.0247717
0.0249001
0.0250265
0.0251511
0.0252737
0.0253944
0.0255131
0.02563
0.0257448
0.0258578
0.0259687
0.0260778
0.0261848
0.0262899
0.0263931
0.0264942
0.0265934
0.0266906
0.0267859
0.0268791
0.0269704
0.0270597
0.027147
0.0272323
0.0273156
0.0273969
0.0274762
0.0275535
0.0276287
0.027702
0.0277733
0.0278425
0.0279098
0.027975
0.0280382
0.0280994
0.0281586
0.0282157
0.0282709
0.028324
0.028375
0.0284241
0.0284711
0.0285161
0.028559
0.0286
0.0286389
0.0286757
0.0287105
0.0287433
0.0287741
0.0288028
0.0288295
0.0288542
0.0288768
0.0288974
0.0289159
0.0289324
0.0289469
0.0289593
0.0289697
0.0289781
0.0289844
0.0289887
0.028991
0.0203886
0.0205882
0.0207859
0.0209817
0.0211757
0.0213677
0.021558
0.0217464
0.021933
0.0221178
0.0223008
0.0224819
0.0226612
0.0228387
0.0230143
0.0231881
0.02336
0.0235301
0.0236982
0.0238645
0.024029
0.0241915
0.0243521
0.0245108
0.0246676
0.0248224
0.0249754
0.0251264
0.0252754
0.0254225
0.0255677
0.0257108
0.0258521
0.0259913
0.0261285
0.0262638
0.0263971
0.0265284
0.0266577
0.0267849
0.0269102
0.0270334
0.0271547
0.0272739
0.0273911
0.0275062
0.0276193
0.0277304
0.0278394
0.0279464
0.0280513
0.0281542
0.028255
0.0283538
0.0284505
0.0285452
0.0286377
0.0287282
0.0288167
0.028903
0.0289873
0.0290695
0.0291496
0.0292276
0.0293036
0.0293775
0.0294492
0.0295189
0.0295865
0.029652
0.0297154
0.0297767
0.0298359
0.029893
0.029948
0.0300009
0.0300517
0.0301004
0.030147
0.0301914
0.0302338
0.0302741
0.0303123
0.0303483
0.0303823
0.0304141
0.0304438
0.0304714
0.0304969
0.0305203
0.0305416
0.0305608
0.0305779
0.0305928
0.0306057
0.0306164
0.030625
0.0306316
0.030636
0.0306383
0.0216919
0.0218995
0.0221051
0.0223086
0.0225102
0.0227099
0.0229076
0.0231034
0.0232973
0.0234892
0.0236793
0.0238674
0.0240537
0.0242379
0.0244203
0.0246007
0.0247792
0.0249557
0.0251303
0.0253028
0.0254735
0.0256421
0.0258087
0.0259734
0.026136
0.0262966
0.0264552
0.0266118
0.0267664
0.0269189
0.0270693
0.0272178
0.0273641
0.0275085
0.0276507
0.0277909
0.027929
0.028065
0.028199
0.0283308
0.0284606
0.0285882
0.0287138
0.0288373
0.0289586
0.0290779
0.029195
0.02931
0.0294229
0.0295336
0.0296422
0.0297487
0.0298531
0.0299553
0.0300554
0.0301533
0.0302491
0.0303428
0.0304343
0.0305236
0.0306108
0.0306958
0.0307787
0.0308594
0.0309379
0.0310143
0.0310886
0.0311606
0.0312305
0.0312982
0.0313638
0.0314271
0.0314883
0.0315474
0.0316042
0.0316589
0.0317114
0.0317617
0.0318099
0.0318558
0.0318996
0.0319412
0.0319807
0.0320179
0.032053
0.0320858
0.0321165
0.0321451
0.0321714
0.0321956
0.0322175
0.0322373
0.0322549
0.0322703
0.0322836
0.0322947
0.0323035
0.0323102
0.0323147
0.0323171
0.0230322
0.0232477
0.0234611