/*--------------------------------*- C++ -*----------------------------------*\
  =========                 |
  \\      /  F ield         | OpenFOAM: The Open Source CFD Toolbox
   \\    /   O peration     | Website:  https://openfoam.org
    \\  /    A nd           | Version:  8
     \\/     M anipulation  |
\*---------------------------------------------------------------------------*/
FoamFile
{
    version     2.0;
    format      ascii;
    class       volScalarField;
    location    "1.25";
    object      nuTilda;
}
// * * * * * * * * * * * * * * * * * * * * * * * * * * * * * * * * * * * * * //

dimensions      [0 2 -1 0 0 0 0];

internalField   nonuniform List<scalar> 
115200
(
0.000220517
0.000226742
0.000232572
0.000238056
0.000243244
0.000248188
0.000252935
0.000257524
0.000261969
0.000266244
0.00027029
0.000274064
0.000277568
0.000280815
0.000283816
0.000286583
0.000289125
0.000291452
0.000293573
0.000295495
0.000297224
0.000298764
0.000300118
0.000301285
0.000302261
0.000303036
0.000303596
0.000303926
0.000304046
0.000304072
0.000303998
0.000303831
0.000303575
0.000303235
0.000302811
0.000302306
0.000301723
0.000301062
0.000300326
0.000299515
0.00029863
0.000297673
0.000296645
0.000295546
0.000294378
0.000293141
0.000291837
0.000290465
0.000289026
0.000287522
0.000285953
0.000284318
0.00028262
0.000280857
0.000279032
0.000277143
0.000275191
0.000273177
0.0002711
0.000268961
0.00026676
0.000264496
0.00026217
0.000259781
0.000257329
0.000254813
0.000252234
0.000249591
0.000246883
0.000244109
0.000241268
0.000238359
0.000235382
0.000232334
0.000229214
0.000226022
0.000222754
0.000219408
0.000215982
0.000212471
0.000208873
0.000205185
0.000201401
0.000197517
0.000193527
0.000189427
0.000185209
0.000180864
0.000176384
0.000171757
0.000166973
0.000162016
0.000156875
0.000151542
0.000146027
0.000140399
0.000134878
0.000129968
0.000126442
0.00012466
0.000347384
0.000345723
0.000343539
0.000340915
0.000337988
0.000334969
0.000332199
0.000330225
0.000329823
0.000331687
0.000335285
0.000339197
0.000343079
0.000346924
0.00035074
0.000354534
0.000358316
0.000362092
0.000365872
0.000369664
0.000373477
0.000377322
0.000381211
0.000385156
0.000389169
0.000393235
0.00039735
0.000401521
0.000405724
0.000409852
0.000413915
0.000417915
0.000421856
0.00042574
0.000429567
0.00043334
0.000437059
0.000440725
0.000444338
0.0004479
0.00045141
0.000454869
0.000458277
0.000461635
0.000464941
0.000468197
0.000471403
0.000474558
0.000477663
0.000480717
0.00048372
0.000486673
0.000489575
0.000492426
0.000495227
0.000497977
0.000500675
0.000503323
0.000505919
0.000508464
0.000510957
0.000513398
0.000515788
0.000518125
0.000520411
0.000522644
0.000524825
0.000526954
0.000529031
0.000531055
0.000533027
0.000534947
0.000536815
0.000538632
0.000540398
0.000542116
0.000543786
0.000545411
0.000546991
0.00054852
0.000549996
0.000551421
0.000552794
0.000554117
0.00055539
0.000556615
0.000557794
0.000558927
0.000560016
0.000561062
0.000562065
0.000563025
0.000563939
0.000564806
0.000565614
0.000566348
0.000566981
0.000567477
0.000567808
0.000567979
0.000531845
0.000544498
0.000557124
0.000569736
0.000582334
0.000594918
0.000607477
0.000619993
0.000632427
0.000644727
0.000656831
0.000668704
0.000680349
0.000691774
0.000702989
0.000714001
0.00072482
0.000735452
0.000745904
0.000756181
0.000766287
0.000776225
0.000785995
0.000795596
0.000805028
0.000814313
0.000823472
0.000832508
0.000841419
0.000850201
0.000858853
0.000867376
0.00087577
0.000884037
0.000892179
0.000900196
0.000908091
0.000915864
0.000923516
0.000931047
0.00093846
0.000945753
0.000952928
0.000959984
0.000966923
0.000973743
0.000980446
0.000987032
0.0009935
0.00099985
0.00100608
0.0010122
0.00101819
0.00102407
0.00102984
0.00103548
0.001041
0.00104641
0.0010517
0.00105687
0.00106192
0.00106685
0.00107166
0.00107635
0.00108092
0.00108537
0.0010897
0.00109391
0.00109799
0.00110195
0.0011058
0.00110952
0.00111311
0.00111659
0.00111994
0.00112317
0.00112627
0.00112925
0.00113211
0.00113485
0.00113746
0.00113994
0.00114231
0.00114455
0.00114666
0.00114866
0.00115053
0.00115228
0.00115391
0.00115543
0.00115682
0.00115809
0.00115923
0.00116024
0.00116112
0.00116187
0.00116248
0.00116295
0.00116328
0.00116347
0.000868884
0.000890728
0.000912122
0.000933095
0.000953654
0.000973809
0.000993568
0.00101294
0.00103194
0.00105059
0.0010689
0.00108689
0.00110458
0.00112197
0.00113909
0.00115592
0.00117249
0.00118881
0.00120487
0.00122068
0.00123626
0.00125162
0.00126675
0.00128166
0.00129636
0.00131086
0.00132515
0.00133924
0.00135313
0.00136682
0.00138031
0.00139361
0.00140671
0.00141961
0.00143233
0.00144485
0.00145718
0.00146933
0.00148129
0.00149306
0.00150465
0.00151605
0.00152726
0.00153829
0.00154914
0.0015598
0.00157028
0.00158057
0.00159068
0.0016006
0.00161034
0.0016199
0.00162927
0.00163846
0.00164746
0.00165627
0.0016649
0.00167334
0.0016816
0.00168967
0.00169755
0.00170525
0.00171276
0.00172009
0.00172722
0.00173417
0.00174092
0.00174749
0.00175386
0.00176005
0.00176604
0.00177184
0.00177745
0.00178286
0.00178808
0.00179311
0.00179795
0.00180259
0.00180704
0.0018113
0.00181536
0.00181922
0.0018229
0.00182637
0.00182965
0.00183274
0.00183563
0.00183833
0.00184082
0.00184313
0.00184523
0.00184714
0.00184885
0.00185036
0.00185166
0.00185277
0.00185367
0.00185436
0.00185486
0.00185514
0.00126992
0.00129876
0.00132709
0.00135494
0.00138233
0.00140927
0.00143578
0.00146186
0.00148754
0.00151282
0.00153772
0.00156224
0.0015864
0.00161021
0.00163367
0.00165679
0.00167958
0.00170203
0.00172415
0.00174596
0.00176746
0.00178865
0.00180954
0.00183014
0.00185046
0.00187049
0.00189025
0.00190972
0.00192893
0.00194786
0.00196653
0.00198493
0.00200307
0.00202094
0.00203855
0.0020559
0.00207299
0.00208982
0.0021064
0.00212271
0.00213877
0.00215458
0.00217013
0.00218542
0.00220045
0.00221524
0.00222976
0.00224403
0.00225805
0.0022718
0.00228531
0.00229855
0.00231154
0.00232427
0.00233674
0.00234896
0.00236091
0.00237261
0.00238405
0.00239522
0.00240614
0.0024168
0.00242719
0.00243732
0.00244719
0.00245679
0.00246614
0.00247521
0.00248402
0.00249257
0.00250085
0.00250886
0.00251661
0.00252409
0.0025313
0.00253824
0.00254491
0.00255132
0.00255745
0.00256331
0.00256891
0.00257423
0.00257929
0.00258407
0.00258858
0.00259281
0.00259678
0.00260047
0.00260389
0.00260704
0.00260991
0.0026125
0.00261482
0.00261687
0.00261864
0.00262013
0.00262134
0.00262227
0.00262293
0.0026233
0.00171982
0.00175591
0.00179147
0.00182652
0.00186106
0.0018951
0.00192866
0.00196174
0.00199436
0.00202651
0.00205822
0.00208948
0.00212032
0.00215072
0.00218071
0.00221029
0.00223947
0.00226825
0.00229663
0.00232464
0.00235226
0.00237952
0.0024064
0.00243292
0.00245909
0.00248489
0.00251035
0.00253546
0.00256023
0.00258465
0.00260873
0.00263248
0.00265588
0.00267896
0.00270169
0.00272409
0.00274617
0.0027679
0.00278931
0.00281039
0.00283113
0.00285155
0.00287164
0.00289139
0.00291082
0.00292991
0.00294868
0.00296711
0.00298522
0.00300299
0.00302043
0.00303754
0.00305432
0.00307076
0.00308687
0.00310264
0.00311808
0.00313319
0.00314795
0.00316239
0.00317648
0.00319023
0.00320365
0.00321672
0.00322946
0.00324185
0.0032539
0.00326561
0.00327698
0.003288
0.00329868
0.00330901
0.003319
0.00332864
0.00333793
0.00334688
0.00335548
0.00336373
0.00337163
0.00337918
0.00338638
0.00339323
0.00339973
0.00340588
0.00341168
0.00341712
0.00342221
0.00342695
0.00343133
0.00343536
0.00343904
0.00344236
0.00344533
0.00344794
0.00345019
0.00345209
0.00345363
0.00345481
0.00345563
0.0034561
0.00221642
0.00225981
0.00230261
0.00234485
0.00238655
0.00242771
0.00246835
0.00250848
0.00254809
0.00258719
0.00262579
0.00266391
0.00270153
0.00273867
0.00277534
0.00281153
0.00284727
0.00288254
0.00291736
0.00295173
0.00298565
0.00301914
0.00305219
0.00308481
0.003117
0.00314877
0.00318011
0.00321103
0.00324154
0.00327163
0.00330131
0.00333057
0.00335943
0.00338787
0.00341591
0.00344353
0.00347075
0.00349757
0.00352397
0.00354997
0.00357557
0.00360075
0.00362553
0.00364991
0.00367387
0.00369743
0.00372059
0.00374333
0.00376567
0.00378759
0.00380911
0.00383022
0.00385091
0.0038712
0.00389107
0.00391053
0.00392957
0.0039482
0.00396641
0.00398421
0.00400159
0.00401855
0.00403509
0.00405121
0.00406692
0.00408219
0.00409705
0.00411148
0.00412549
0.00413908
0.00415224
0.00416497
0.00417727
0.00418915
0.0042006
0.00421162
0.00422221
0.00423236
0.00424209
0.00425139
0.00426025
0.00426868
0.00427668
0.00428424
0.00429136
0.00429806
0.00430431
0.00431014
0.00431552
0.00432047
0.00432498
0.00432905
0.00433269
0.00433588
0.00433864
0.00434096
0.00434284
0.00434427
0.00434527
0.00434584
0.00275663
0.00280737
0.00285748
0.00290699
0.00295593
0.00300431
0.00305212
0.00309937
0.00314607
0.00319221
0.00323781
0.00328287
0.00332739
0.00337137
0.00341483
0.00345775
0.00350016
0.00354204
0.00358341
0.00362427
0.00366462
0.00370446
0.0037438
0.00378263
0.00382098
0.00385882
0.00389617
0.00393304
0.00396941
0.00400529
0.00404069
0.0040756
0.00411002
0.00414396
0.00417742
0.00421039
0.00424288
0.00427489
0.00430641
0.00433745
0.00436801
0.00439808
0.00442767
0.00445677
0.00448539
0.00451352
0.00454117
0.00456833
0.004595
0.00462118
0.00464688
0.00467208
0.00469679
0.00472101
0.00474474
0.00476797
0.00479071
0.00481295
0.00483469
0.00485594
0.00487668
0.00489693
0.00491667
0.00493592
0.00495466
0.00497289
0.00499062
0.00500785
0.00502456
0.00504077
0.00505647
0.00507166
0.00508634
0.00510051
0.00511416
0.00512731
0.00513994
0.00515205
0.00516365
0.00517473
0.00518529
0.00519534
0.00520487
0.00521388
0.00522238
0.00523035
0.0052378
0.00524473
0.00525114
0.00525703
0.0052624
0.00526724
0.00527156
0.00527536
0.00527864
0.00528139
0.00528361
0.00528532
0.0052865
0.00528716
0.0033386
0.00339678
0.00345429
0.00351116
0.00356743
0.00362309
0.00367814
0.0037326
0.00378646
0.00383973
0.0038924
0.00394449
0.00399598
0.00404688
0.0040972
0.00414694
0.0041961
0.00424467
0.00429267
0.0043401
0.00438695
0.00443323
0.00447895
0.00452409
0.00456867
0.00461268
0.00465613
0.00469902
0.00474135
0.00478311
0.00482432
0.00486496
0.00490505
0.00494457
0.00498354
0.00502194
0.00505979
0.00509707
0.0051338
0.00516996
0.00520557
0.00524061
0.00527508
0.005309
0.00534235
0.00537513
0.00540735
0.005439
0.00547008
0.00550059
0.00553053
0.0055599
0.0055887
0.00561693
0.00564457
0.00567165
0.00569814
0.00572406
0.00574939
0.00577415
0.00579832
0.00582191
0.00584491
0.00586733
0.00588916
0.0059104
0.00593106
0.00595112
0.00597059
0.00598947
0.00600775
0.00602545
0.00604254
0.00605904
0.00607494
0.00609024
0.00610494
0.00611905
0.00613255
0.00614545
0.00615775
0.00616944
0.00618053
0.00619102
0.0062009
0.00621017
0.00621884
0.00622691
0.00623436
0.00624121
0.00624745
0.00625308
0.0062581
0.00626251
0.00626631
0.0062695
0.00627209
0.00627406
0.00627543
0.00627618
0.0039612
0.0040269
0.00409188
0.00415619
0.00421984
0.00428285
0.00434522
0.00440695
0.00446803
0.00452848
0.00458828
0.00464744
0.00470596
0.00476384
0.00482109
0.00487769
0.00493365
0.00498898
0.00504367
0.00509772
0.00515113
0.00520391
0.00525606
0.00530757
0.00535844
0.00540868
0.00545829
0.00550726
0.0055556
0.00560331
0.00565038
0.00569682
0.00574262
0.00578779
0.00583233
0.00587623
0.00591949
0.00596211
0.0060041
0.00604544
0.00608615
0.00612621
0.00616564
0.00620442
0.00624255
0.00628004
0.00631688
0.00635307
0.00638862
0.00642351
0.00645775
0.00649133
0.00652427
0.00655654
0.00658816
0.00661911
0.00664941
0.00667904
0.00670801
0.00673632
0.00676395
0.00679092
0.00681723
0.00684286
0.00686782
0.0068921
0.00691571
0.00693865
0.00696091
0.00698249
0.00700339
0.00702361
0.00704315
0.007062
0.00708018
0.00709766
0.00711447
0.00713058
0.00714601
0.00716075
0.0071748
0.00718816
0.00720083
0.00721281
0.0072241
0.00723469
0.00724459
0.0072538
0.00726231
0.00727013
0.00727725
0.00728368
0.00728941
0.00729444
0.00729878
0.00730242
0.00730537
0.00730761
0.00730917
0.00731002
0.00462358
0.00469686
0.00476938
0.00484118
0.00491229
0.0049827
0.00505243
0.00512147
0.00518982
0.00525749
0.00532446
0.00539075
0.00545634
0.00552124
0.00558544
0.00564895
0.00571176
0.00577387
0.00583528
0.005896
0.00595601
0.00601533
0.00607394
0.00613185
0.00618906
0.00624557
0.00630137
0.00635647
0.00641086
0.00646455
0.00651753
0.0065698
0.00662136
0.00667221
0.00672236
0.00677178
0.0068205
0.0068685
0.00691578
0.00696235
0.00700819
0.00705332
0.00709772
0.0071414
0.00718436
0.00722659
0.00726809
0.00730886
0.00734889
0.0073882
0.00742677
0.0074646
0.0075017
0.00753805
0.00757366
0.00760853
0.00764266
0.00767604
0.00770867
0.00774055
0.00777168
0.00780206
0.00783168
0.00786055
0.00788866
0.00791601
0.0079426
0.00796843
0.00799349
0.0080178
0.00804133
0.0080641
0.0080861
0.00810733
0.00812779
0.00814748
0.0081664
0.00818454
0.00820191
0.00821851
0.00823432
0.00824936
0.00826362
0.00827711
0.00828981
0.00830173
0.00831287
0.00832323
0.00833281
0.00834161
0.00834962
0.00835685
0.0083633
0.00836896
0.00837384
0.00837793
0.00838124
0.00838377
0.00838551
0.00838647
0.00532509
0.00540602
0.00548613
0.00556548
0.00564409
0.00572195
0.00579908
0.00587548
0.00595114
0.00602606
0.00610024
0.00617367
0.00624637
0.00631831
0.0063895
0.00645994
0.00652962
0.00659854
0.00666671
0.00673411
0.00680075
0.00686662
0.00693172
0.00699606
0.00705963
0.00712242
0.00718444
0.00724569
0.00730615
0.00736584
0.00742475
0.00748288
0.00754022
0.00759678
0.00765255
0.00770753
0.00776172
0.00781511
0.00786771
0.00791952
0.00797053
0.00802073
0.00807014
0.00811874
0.00816653
0.00821352
0.0082597
0.00830506
0.00834961
0.00839334
0.00843626
0.00847836
0.00851963
0.00856009
0.00859971
0.00863851
0.00867648
0.00871362
0.00874993
0.0087854
0.00882003
0.00885383
0.00888679
0.00891891
0.00895018
0.00898061
0.00901019
0.00903892
0.0090668
0.00909384
0.00912002
0.00914535
0.00916982
0.00919343
0.00921619
0.00923809
0.00925913
0.00927931
0.00929863
0.00931708
0.00933467
0.00935139
0.00936725
0.00938224
0.00939637
0.00940963
0.00942201
0.00943353
0.00944418
0.00945396
0.00946287
0.0094709
0.00947807
0.00948436
0.00948978
0.00949433
0.00949801
0.00950082
0.00950275
0.00950381
0.00606527
0.00615389
0.00624166
0.0063286
0.00641474
0.0065001
0.00658466
0.00666845
0.00675144
0.00683365
0.00691506
0.00699567
0.00707548
0.00715449
0.00723269
0.00731007
0.00738664
0.00746239
0.00753732
0.00761142
0.0076847
0.00775714
0.00782875
0.00789952
0.00796946
0.00803855
0.0081068
0.0081742
0.00824075
0.00830645
0.00837129
0.00843528
0.00849842
0.00856068
0.00862209
0.00868263
0.0087423
0.0088011
0.00885903
0.00891608
0.00897226
0.00902755
0.00908196
0.00913549
0.00918813
0.00923988
0.00929074
0.00934071
0.00938977
0.00943794
0.00948521
0.00953158
0.00957704
0.00962159
0.00966524
0.00970797
0.00974979
0.00979069
0.00983068
0.00986975
0.00990789
0.00994511
0.0099814
0.0100168
0.0100512
0.0100847
0.0101173
0.0101489
0.0101796
0.0102094
0.0102382
0.0102661
0.0102931
0.0103191
0.0103441
0.0103682
0.0103914
0.0104136
0.0104349
0.0104552
0.0104746
0.010493
0.0105104
0.0105269
0.0105425
0.0105571
0.0105707
0.0105834
0.0105951
0.0106059
0.0106157
0.0106245
0.0106324
0.0106393
0.0106453
0.0106503
0.0106543
0.0106574
0.0106596
0.0106607
0.00684375
0.00694012
0.00703557
0.00713015
0.00722387
0.00731675
0.00740879
0.00749999
0.00759035
0.00767986
0.00776852
0.00785633
0.00794327
0.00802936
0.00811458
0.00819892
0.00828238
0.00836497
0.00844667
0.00852748
0.00860739
0.00868641
0.00876452
0.00884173
0.00891803
0.00899342
0.0090679
0.00914146
0.00921409
0.0092858
0.00935658
0.00942643
0.00949535
0.00956333
0.00963037
0.00969647
0.00976162
0.00982582
0.00988907
0.00995136
0.0100127
0.0100731
0.0101325
0.0101909
0.0102484
0.0103049
0.0103605
0.010415
0.0104686
0.0105212
0.0105728
0.0106235
0.0106731
0.0107218
0.0107694
0.0108161
0.0108617
0.0109064
0.0109501
0.0109927
0.0110344
0.011075
0.0111146
0.0111532
0.0111908
0.0112274
0.011263
0.0112975
0.0113311
0.0113635
0.011395
0.0114255
0.0114549
0.0114833
0.0115106
0.0115369
0.0115622
0.0115865
0.0116097
0.0116318
0.011653
0.0116731
0.0116921
0.0117101
0.0117271
0.011743
0.0117579
0.0117717
0.0117845
0.0117963
0.011807
0.0118166
0.0118252
0.0118328
0.0118393
0.0118448
0.0118492
0.0118525
0.0118548
0.0118561
0.00766026
0.00776442
0.00786761
0.00796986
0.00807119
0.00817163
0.00827116
0.0083698
0.00846754
0.00856438
0.00866031
0.00875532
0.00884942
0.00894259
0.00903483
0.00912614
0.0092165
0.00930592
0.00939439
0.0094819
0.00956846
0.00965404
0.00973866
0.0098223
0.00990497
0.00998665
0.0100673
0.010147
0.0102258
0.0103035
0.0103802
0.0104559
0.0105306
0.0106042
0.0106769
0.0107485
0.0108192
0.0108888
0.0109573
0.0110248
0.0110913
0.0111568
0.0112212
0.0112845
0.0113469
0.0114081
0.0114683
0.0115275
0.0115855
0.0116426
0.0116985
0.0117534
0.0118072
0.0118599
0.0119116
0.0119622
0.0120117
0.0120601
0.0121074
0.0121536
0.0121988
0.0122428
0.0122858
0.0123276
0.0123684
0.012408
0.0124465
0.012484
0.0125203
0.0125555
0.0125896
0.0126226
0.0126545
0.0126852
0.0127149
0.0127434
0.0127708
0.0127971
0.0128222
0.0128462
0.0128691
0.0128909
0.0129115
0.012931
0.0129494
0.0129667
0.0129828
0.0129978
0.0130116
0.0130244
0.0130359
0.0130464
0.0130557
0.0130639
0.0130709
0.0130769
0.0130816
0.0130853
0.0130878
0.0130892
0.00851462
0.00862661
0.00873756
0.00884752
0.0089565
0.00906452
0.00917157
0.00927767
0.00938281
0.00948699
0.00959019
0.00969243
0.00979368
0.00989394
0.00999321
0.0100915
0.0101887
0.010285
0.0103802
0.0104744
0.0105676
0.0106598
0.0107509
0.0108409
0.01093
0.0110179
0.0111048
0.0111906
0.0112754
0.0113591
0.0114417
0.0115233
0.0116037
0.0116831
0.0117613
0.0118385
0.0119146
0.0119895
0.0120634
0.0121361
0.0122077
0.0122782
0.0123476
0.0124159
0.012483
0.012549
0.0126138
0.0126775
0.0127401
0.0128015
0.0128618
0.0129209
0.0129788
0.0130356
0.0130913
0.0131457
0.013199
0.0132512
0.0133021
0.0133519
0.0134005
0.013448
0.0134942
0.0135393
0.0135832
0.0136259
0.0136674
0.0137077
0.0137468
0.0137847
0.0138214
0.0138569
0.0138913
0.0139244
0.0139563
0.013987
0.0140165
0.0140448
0.0140718
0.0140977
0.0141223
0.0141458
0.014168
0.014189
0.0142088
0.0142274
0.0142447
0.0142608
0.0142757
0.0142894
0.0143019
0.0143132
0.0143232
0.014332
0.0143396
0.0143459
0.0143511
0.014355
0.0143577
0.0143592
0.00940668
0.00952654
0.00964529
0.00976298
0.00987963
0.00999526
0.0101099
0.0102234
0.010336
0.0104475
0.010558
0.0106675
0.0107759
0.0108832
0.0109895
0.0110947
0.0111989
0.011302
0.011404
0.0115049
0.0116047
0.0117034
0.0118009
0.0118974
0.0119928
0.012087
0.0121801
0.012272
0.0123628
0.0124525
0.012541
0.0126283
0.0127145
0.0127995
0.0128834
0.012966
0.0130475
0.0131278
0.013207
0.0132849
0.0133616
0.0134371
0.0135114
0.0135846
0.0136565
0.0137271
0.0137966
0.0138648
0.0139319
0.0139976
0.0140622
0.0141255
0.0141876
0.0142484
0.014308
0.0143664
0.0144235
0.0144793
0.0145339
0.0145872
0.0146393
0.0146901
0.0147396
0.0147878
0.0148348
0.0148805
0.014925
0.0149681
0.01501
0.0150506
0.0150899
0.015128
0.0151647
0.0152002
0.0152343
0.0152672
0.0152988
0.015329
0.015358
0.0153857
0.0154121
0.0154372
0.015461
0.0154834
0.0155046
0.0155245
0.0155431
0.0155603
0.0155763
0.0155909
0.0156043
0.0156163
0.0156271
0.0156365
0.0156446
0.0156514
0.0156569
0.0156611
0.015664
0.0156655
0.0103363
0.0104641
0.0105907
0.0107161
0.0108405
0.0109637
0.0110859
0.011207
0.0113269
0.0114458
0.0115636
0.0116803
0.0117958
0.0119103
0.0120236
0.0121358
0.0122468
0.0123567
0.0124655
0.012573
0.0126794
0.0127847
0.0128887
0.0129916
0.0130932
0.0131937
0.0132929
0.013391
0.0134878
0.0135834
0.0136777
0.0137709
0.0138627
0.0139534
0.0140428
0.0141309
0.0142178
0.0143034
0.0143878
0.0144708
0.0145526
0.0146332
0.0147124
0.0147903
0.014867
0.0149423
0.0150164
0.0150891
0.0151606
0.0152307
0.0152995
0.015367
0.0154332
0.015498
0.0155615
0.0156237
0.0156845
0.0157441
0.0158022
0.0158591
0.0159145
0.0159687
0.0160214
0.0160729
0.0161229
0.0161716
0.016219
0.016265
0.0163096
0.0163529
0.0163948
0.0164353
0.0164744
0.0165122
0.0165486
0.0165836
0.0166172
0.0166495
0.0166803
0.0167098
0.0167379
0.0167647
0.01679
0.0168139
0.0168365
0.0168577
0.0168774
0.0168958
0.0169128
0.0169284
0.0169426
0.0169554
0.0169669
0.0169769
0.0169855
0.0169928
0.0169986
0.0170031
0.0170061
0.0170078
0.0113035
0.0114392
0.0115737
0.0117069
0.011839
0.0119699
0.0120996
0.0122282
0.0123556
0.0124818
0.0126069
0.0127308
0.0128535
0.012975
0.0130954
0.0132145
0.0133324
0.0134491
0.0135646
0.0136788
0.0137918
0.0139035
0.014014
0.0141232
0.0142311
0.0143378
0.0144432
0.0145473
0.0146501
0.0147516
0.0148518
0.0149507
0.0150482
0.0151445
0.0152394
0.0153329
0.0154252
0.0155161
0.0156056
0.0156938
0.0157807
0.0158661
0.0159502
0.016033
0.0161143
0.0161943
0.0162729
0.0163501
0.0164259
0.0165004
0.0165734
0.016645
0.0167152
0.0167841
0.0168515
0.0169174
0.016982
0.0170452
0.0171069
0.0171672
0.017226
0.0172835
0.0173395
0.017394
0.0174471
0.0174988
0.0175491
0.0175978
0.0176452
0.0176911
0.0177355
0.0177785
0.01782
0.01786
0.0178986
0.0179358
0.0179715
0.0180057
0.0180384
0.0180697
0.0180995
0.0181278
0.0181547
0.0181801
0.018204
0.0182264
0.0182474
0.0182669
0.0182849
0.0183014
0.0183165
0.0183301
0.0183422
0.0183528
0.018362
0.0183696
0.0183758
0.0183806
0.0183838
0.0183856
0.0123082
0.0124519
0.0125942
0.0127353
0.0128751
0.0130136
0.0131509
0.013287
0.0134218
0.0135554
0.0136878
0.0138189
0.0139488
0.0140774
0.0142047
0.0143308
0.0144555
0.014579
0.0147012
0.014822
0.0149416
0.0150598
0.0151767
0.0152922
0.0154064
0.0155193
0.0156308
0.0157409
0.0158496
0.015957
0.016063
0.0161676
0.0162708
0.0163726
0.016473
0.0165719
0.0166695
0.0167656
0.0168603
0.0169536
0.0170454
0.0171358
0.0172247
0.0173122
0.0173983
0.0174828
0.0175659
0.0176476
0.0177277
0.0178064
0.0178836
0.0179593
0.0180336
0.0181063
0.0181776
0.0182473
0.0183156
0.0183823
0.0184476
0.0185113
0.0185735
0.0186342
0.0186934
0.018751
0.0188072
0.0188618
0.0189148
0.0189664
0.0190164
0.0190649
0.0191118
0.0191572
0.0192011
0.0192434
0.0192842
0.0193234
0.0193611
0.0193973
0.0194318
0.0194649
0.0194964
0.0195263
0.0195546
0.0195815
0.0196067
0.0196304
0.0196526
0.0196731
0.0196922
0.0197096
0.0197255
0.0197399
0.0197527
0.0197639
0.0197735
0.0197816
0.0197882
0.0197931
0.0197965
0.0197984
0.0133504
0.013502
0.0136523
0.0138011
0.0139487
0.0140949
0.0142398
0.0143834
0.0145256
0.0146666
0.0148063
0.0149446
0.0150816
0.0152172
0.0153516
0.0154845
0.0156161
0.0157464
0.0158752
0.0160027
0.0161287
0.0162534
0.0163767
0.0164985
0.0166189
0.0167379
0.0168555
0.0169716
0.0170863
0.0171995
0.0173112
0.0174215
0.0175302
0.0176376
0.0177434
0.0178477
0.0179505
0.0180519
0.0181517
0.01825
0.0183467
0.018442
0.0185357
0.0186279
0.0187186
0.0188077
0.0188953
0.0189813
0.0190657
0.0191486
0.01923
0.0193097
0.0193879
0.0194646
0.0195396
0.0196131
0.019685
0.0197553
0.019824
0.0198911
0.0199566
0.0200205
0.0200829
0.0201436
0.0202027
0.0202602
0.0203161
0.0203704
0.020423
0.0204741
0.0205235
0.0205713
0.0206175
0.020662
0.0207049
0.0207462
0.0207859
0.0208239
0.0208603
0.0208951
0.0209282
0.0209597
0.0209896
0.0210178
0.0210444
0.0210693
0.0210926
0.0211143
0.0211343
0.0211526
0.0211694
0.0211845
0.0211979
0.0212097
0.0212198
0.0212283
0.0212352
0.0212404
0.021244
0.0212459
0.01443
0.0145897
0.0147478
0.0149045
0.0150598
0.0152136
0.0153661
0.0155172
0.0156669
0.0158153
0.0159622
0.0161077
0.0162518
0.0163945
0.0165358
0.0166757
0.0168141
0.016951
0.0170865
0.0172206
0.0173532
0.0174842
0.0176139
0.017742
0.0178686
0.0179937
0.0181172
0.0182393
0.0183598
0.0184788
0.0185963
0.0187121
0.0188265
0.0189393
0.0190505
0.0191601
0.0192681
0.0193746
0.0194795
0.0195828
0.0196844
0.0197845
0.019883
0.0199798
0.0200751
0.0201687
0.0202606
0.020351
0.0204397
0.0205268
0.0206122
0.0206959
0.0207781
0.0208585
0.0209373
0.0210145
0.02109
0.0211638
0.0212359
0.0213064
0.0213751
0.0214422
0.0215077
0.0215714
0.0216334
0.0216938
0.0217524
0.0218094
0.0218647
0.0219182
0.0219701
0.0220203
0.0220687
0.0221155
0.0221605
0.0222038
0.0222454
0.0222853
0.0223235
0.02236
0.0223947
0.0224278
0.0224591
0.0224887
0.0225166
0.0225427
0.0225672
0.0225899
0.0226108
0.0226301
0.0226476
0.0226635
0.0226775
0.0226899
0.0227005
0.0227094
0.0227166
0.0227221
0.0227258
0.0227278
0.0155471
0.0157147
0.0158808
0.0160453
0.0162083
0.0163699
0.0165299
0.0166885
0.0168457
0.0170013
0.0171555
0.0173082
0.0174594
0.0176092
0.0177574
0.0179041
0.0180493
0.0181929
0.0183351
0.0184757
0.0186147
0.0187522
0.0188881
0.0190224
0.0191552
0.0192863
0.0194159
0.0195438
0.0196702
0.0197949
0.019918
0.0200395
0.0201593
0.0202775
0.020394
0.0205089
0.0206221
0.0207337
0.0208436
0.0209518
0.0210583
0.0211632
0.0212663
0.0213677
0.0214675
0.0215655
0.0216619
0.0217565
0.0218494
0.0219406
0.02203
0.0221177
0.0222037
0.022288
0.0223705
0.0224512
0.0225302
0.0226075
0.022683
0.0227568
0.0228288
0.022899
0.0229675
0.0230342
0.0230991
0.0231622
0.0232236
0.0232832
0.0233411
0.0233971
0.0234514
0.0235039
0.0235545
0.0236034
0.0236506
0.0236959
0.0237394
0.0237812
0.0238211
0.0238592
0.0238956
0.0239301
0.0239629
0.0239938
0.024023
0.0240503
0.0240759
0.0240996
0.0241215
0.0241417
0.02416
0.0241765
0.0241912
0.0242041
0.0242153
0.0242246
0.0242321
0.0242377
0.0242416
0.0242437
0.0167015
0.0168771
0.0170511
0.0172235
0.0173943
0.0175635
0.0177311
0.0178972
0.0180617
0.0182247
0.0183861
0.018546
0.0187043
0.018861
0.0190162
0.0191697
0.0193216
0.019472
0.0196207
0.0197678
0.0199132
0.020057
0.0201992
0.0203397
0.0204786
0.0206157
0.0207512
0.020885
0.0210171
0.0211476
0.0212763
0.0214033
0.0215285
0.0216521
0.0217739
0.021894
0.0220123
0.0221289
0.0222437
0.0223568
0.0224681
0.0225777
0.0226854
0.0227914
0.0228956
0.022998
0.0230987
0.0231975
0.0232945
0.0233897
0.0234832
0.0235748
0.0236646
0.0237525
0.0238387
0.023923
0.0240055
0.0240862
0.024165
0.024242
0.0243172
0.0243905
0.0244619
0.0245316
0.0245993
0.0246652
0.0247293
0.0247915
0.0248518
0.0249103
0.024967
0.0250217
0.0250746
0.0251256
0.0251748
0.0252221
0.0252675
0.025311
0.0253527
0.0253924
0.0254304
0.0254664
0.0255005
0.0255328
0.0255632
0.0255917
0.0256183
0.0256431
0.0256659
0.0256869
0.025706
0.0257232
0.0257386
0.025752
0.0257636
0.0257733
0.0257811
0.025787
0.025791
0.0257932
0.0178933
0.0180769
0.0182588
0.018439
0.0186175
0.0187944
0.0189696
0.0191431
0.0193151
0.0194853
0.019654
0.019821
0.0199863
0.02015
0.020312
0.0204723
0.020631
0.0207879
0.0209432
0.0210967
0.0212486
0.0213987
0.0215471
0.0216937
0.0218386
0.0219817
0.0221231
0.0222627
0.0224005
0.0225365
0.0226708
0.0228033
0.0229339
0.0230628
0.0231898
0.023315
0.0234384
0.0235599
0.0236797
0.0237975
0.0239136
0.0240278
0.0241401
0.0242505
0.0243591
0.0244659
0.0245707
0.0246737
0.0247748
0.024874
0.0249714
0.0250668
0.0251603
0.025252
0.0253417
0.0254295
0.0255155
0.0255995
0.0256816
0.0257617
0.02584
0.0259163
0.0259907
0.0260632
0.0261338
0.0262024
0.0262691
0.0263338
0.0263966
0.0264575
0.0265164
0.0265734
0.0266285
0.0266816
0.0267327
0.0267819
0.0268292
0.0268745
0.0269178
0.0269592
0.0269986
0.0270361
0.0270716
0.0271052
0.0271368
0.0271665
0.0271941
0.0272199
0.0272436
0.0272655
0.0272853
0.0273032
0.0273191
0.0273331
0.0273451
0.0273551
0.0273632
0.0273694
0.0273735
0.0273757
0.0191223
0.019314
0.0195038
0.0196918
0.019878
0.0200625
0.0202452
0.0204263
0.0206055
0.0207831
0.0209589
0.021133
0.0213053
0.0214759
0.0216448
0.0218119
0.0219772
0.0221407
0.0223025
0.0224624
0.0226206
0.0227769
0.0229314
0.0230841
0.023235
0.023384
0.0235312
0.0236766
0.02382
0.0239616
0.0241014
0.0242392
0.0243752
0.0245093
0.0246414
0.0247717
0.0249001
0.0250265
0.0251511
0.0252737
0.0253944
0.0255131
0.02563
0.0257448
0.0258578
0.0259687
0.0260778
0.0261848
0.0262899
0.0263931
0.0264942
0.0265934
0.0266906
0.0267859
0.0268791
0.0269704
0.0270597
0.027147
0.0272323
0.0273156
0.0273969
0.0274762
0.0275535
0.0276287
0.027702
0.0277733
0.0278426
0.0279098
0.027975
0.0280382
0.0280994
0.0281586
0.0282157
0.0282709
0.028324
0.028375
0.0284241
0.0284711
0.0285161
0.028559
0.0286
0.0286389
0.0286757
0.0287105
0.0287433
0.0287741
0.0288028
0.0288295
0.0288542
0.0288768
0.0288974
0.0289159
0.0289324
0.0289469
0.0289593
0.0289697
0.0289781
0.0289844
0.0289887
0.028991
0.0203886
0.0205882
0.0207859
0.0209817
0.0211757
0.0213677
0.021558
0.0217464
0.021933
0.0221178
0.0223008
0.0224819
0.0226612
0.0228387
0.0230143
0.0231881
0.02336
0.0235301
0.0236982
0.0238645
0.024029
0.0241915
0.0243521
0.0245108
0.0246676
0.0248224
0.0249754
0.0251264
0.0252754
0.0254225
0.0255677
0.0257108
0.0258521
0.0259913
0.0261285
0.0262638
0.0263971
0.0265284
0.0266577
0.0267849
0.0269102
0.0270334
0.0271547
0.0272739
0.0273911
0.0275062
0.0276193
0.0277304
0.0278394
0.0279464
0.0280513
0.0281542
0.028255
0.0283538
0.0284505
0.0285452
0.0286377
0.0287282
0.0288167
0.028903
0.0289873
0.0290695
0.0291496
0.0292276
0.0293036
0.0293775
0.0294492
0.0295189
0.0295865
0.029652
0.0297154
0.0297767
0.0298359
0.029893
0.029948
0.0300009
0.0300517
0.0301004
0.030147
0.0301914
0.0302338
0.0302741
0.0303123
0.0303483
0.0303823
0.0304141
0.0304438
0.0304714
0.0304969
0.0305203
0.0305416
0.0305608
0.0305779
0.0305928
0.0306057
0.0306164
0.030625
0.0306316
0.030636
0.0306383
0.0216919
0.0218995
0.0221051
0.0223086
0.0225102
0.0227099
0.0229076
0.0231034
0.0232973
0.0234892
0.0236793
0.0238674
0.0240537
0.0242379
0.0244203
0.0246007
0.0247792
0.0249557
0.0251303
0.0253028
0.0254735
0.0256421
0.0258087
0.0259734
0.026136
0.0262966
0.0264552
0.0266118
0.0267664
0.0269189
0.0270693
0.0272178
0.0273641
0.0275085
0.0276507
0.0277909
0.027929
0.028065
0.028199
0.0283308
0.0284606
0.0285882
0.0287138
0.0288373
0.0289586
0.0290779
0.029195
0.02931
0.0294229
0.0295336
0.0296422
0.0297487
0.0298531
0.0299553
0.0300554
0.0301533
0.0302491
0.0303428
0.0304343
0.0305236
0.0306108
0.0306958
0.0307787
0.0308594
0.0309379
0.0310143
0.0310886
0.0311606
0.0312305
0.0312982
0.0313638
0.0314271
0.0314883
0.0315474
0.0316042
0.0316589
0.0317114
0.0317617
0.0318099
0.0318558
0.0318996
0.0319412
0.0319807
0.0320179
0.032053
0.0320858
0.0321165
0.0321451
0.0321714
0.0321956
0.0322175
0.0322373
0.0322549
0.0322703
0.0322836
0.0322947
0.0323035
0.0323102
0.0323147
0.0323171