/*--------------------------------*- C++ -*----------------------------------*\
  =========                 |
  \\      /  F ield         | OpenFOAM: The Open Source CFD Toolbox
   \\    /   O peration     | Website:  https://openfoam.org
    \\  /    A nd           | Version:  8
     \\/     M anipulation  |
\*---------------------------------------------------------------------------*/
FoamFile
{
    version     2.0;
    format      ascii;
    class       volScalarField;
    location    "1.25";
    object      p;
}
// * * * * * * * * * * * * * * * * * * * * * * * * * * * * * * * * * * * * * //

dimensions      [0 2 -2 0 0 0 0];

internalField   nonuniform List<scalar> 
115200
(
-23.5237
-24.1436
-24.745
-25.3242
-25.8765
-26.3992
-26.8895
-27.3457
-27.7668
-28.152
-28.5007
-28.812
-29.085
-29.3193
-29.5149
-29.6719
-29.7906
-29.8717
-29.9159
-29.9244
-29.8981
-29.8386
-29.7473
-29.6255
-29.475
-29.2989
-29.1011
-28.8792
-28.6197
-28.3179
-27.9803
-27.6099
-27.2097
-26.7817
-26.3274
-25.8482
-25.3454
-24.82
-24.273
-23.7054
-23.1181
-22.5121
-21.8882
-21.2473
-20.5904
-19.9182
-19.2318
-18.5319
-17.8195
-17.0954
-16.3605
-15.6158
-14.862
-14.1001
-13.3309
-12.5554
-11.7744
-10.9888
-10.1994
-9.40713
-8.61284
-7.81739
-7.02161
-6.22637
-5.43248
-4.64078
-3.85208
-3.06719
-2.2869
-1.51201
-0.743293
0.0184999
0.772614
1.51832
2.25488
2.98162
3.69782
4.40284
5.096
5.77668
6.44426
7.09814
7.73776
8.36256
8.97201
9.5656
10.1429
10.7033
11.2466
11.7722
12.2799
12.7692
13.2399
13.6916
14.124
14.5369
14.93
15.303
15.6552
15.9855
-21.1718
-21.5903
-21.9878
-22.3641
-22.7177
-23.0472
-23.3515
-23.6294
-23.8797
-24.1008
-24.2922
-24.454
-24.5868
-24.6908
-24.7665
-24.8141
-24.8337
-24.8255
-24.7896
-24.726
-24.6347
-24.5156
-24.3686
-24.1935
-23.9895
-23.7556
-23.4907
-23.199
-22.8935
-22.5781
-22.2471
-21.8984
-21.5308
-21.1437
-20.7371
-20.3114
-19.867
-19.4045
-18.9244
-18.4274
-17.9143
-17.3857
-16.8423
-16.2848
-15.7141
-15.1307
-14.5354
-13.929
-13.3122
-12.6857
-12.0503
-11.4067
-10.7557
-10.0979
-9.43416
-8.76516
-8.09167
-7.41439
-6.73408
-6.05145
-5.36723
-4.68213
-3.99687
-3.31216
-2.62871
-1.9472
-1.26833
-0.592775
0.0787895
0.745701
1.40731
2.06296
2.71203
3.35389
3.98793
4.61356
5.23019
5.83725
6.43416
7.02039
7.5954
8.15865
8.70965
9.24788
9.77288
10.2841
10.7812
11.2637
11.731
12.1828
12.6186
13.038
13.4405
13.8257
14.1931
14.5425
14.8736
15.1869
15.4834
15.7638
-20.8173
-21.2084
-21.5861
-21.9489
-22.2946
-22.6216
-22.9284
-23.2137
-23.4763
-23.7153
-23.9301
-24.1198
-24.2838
-24.4216
-24.5326
-24.6166
-24.6732
-24.7022
-24.7037
-24.6774
-24.6235
-24.542
-24.4329
-24.2964
-24.1329
-23.9423
-23.7234
-23.4752
-23.1991
-22.8975
-22.5717
-22.2231
-21.8524
-21.4607
-21.0487
-20.6171
-20.1666
-19.6981
-19.2121
-18.7095
-18.1909
-17.657
-17.1086
-16.5463
-15.971
-15.3834
-14.7841
-14.1739
-13.5536
-12.9239
-12.2855
-11.6392
-10.9857
-10.3258
-9.66021
-8.98965
-8.31488
-7.63664
-6.95566
-6.27266
-5.58839
-4.90354
-4.21885
-3.53503
-2.85276
-2.17276
-1.49571
-0.822288
-0.153166
0.510994
1.16954
1.82184
2.46725
3.10516
3.73497
4.35608
4.96792
5.56992
6.16153
6.74222
7.31146
7.86876
8.41363
8.94559
9.46419
9.96901
10.4596
10.9356
11.3966
11.8423
12.2723
12.6862
13.0838
13.4648
13.829
14.1761
14.5058
14.8181
15.1128
15.3898
-19.2059
-19.4768
-19.7364
-19.9833
-20.216
-20.4333
-20.6339
-20.8167
-20.9806
-21.1247
-21.2485
-21.3512
-21.4324
-21.4918
-21.5292
-21.5443
-21.5371
-21.5074
-21.4554
-21.3812
-21.2848
-21.1666
-21.0268
-20.8657
-20.6839
-20.4817
-20.2596
-20.0183
-19.7583
-19.4799
-19.1832
-18.8683
-18.5356
-18.1853
-17.8177
-17.4333
-17.0325
-16.6159
-16.1839
-15.7371
-15.2762
-14.8016
-14.314
-13.814
-13.3022
-12.7792
-12.2457
-11.7023
-11.1496
-10.5883
-10.0191
-9.44257
-8.85936
-8.27014
-7.67557
-7.07629
-6.47296
-5.86624
-5.25676
-4.64519
-4.03216
-3.41831
-2.80429
-2.19072
-1.57824
-0.967463
-0.359008
0.246516
0.848504
1.44636
2.03951
2.62736
3.20934
3.78491
4.3535
4.91459
5.46764
6.01213
6.54756
7.07344
7.58929
8.09463
8.58902
9.072
9.54315
10.0021
10.4483
10.8816
11.3014
11.7075
12.0995
12.4771
12.84
13.1879
13.5207
13.8381
14.14
14.4263
14.6968
14.9516
-18.5034
-18.736
-18.9631
-19.1817
-19.3898
-19.5858
-19.7682
-19.9358
-20.0875
-20.2222
-20.3393
-20.4378
-20.5172
-20.5769
-20.6164
-20.6353
-20.6333
-20.6101
-20.5654
-20.4992
-20.4112
-20.3015
-20.1698
-20.0164
-19.8414
-19.6452
-19.4282
-19.191
-18.934
-18.6579
-18.3632
-18.0505
-17.7204
-17.3733
-17.0098
-16.6304
-16.2356
-15.8261
-15.4022
-14.9646
-14.5138
-14.0505
-13.5751
-13.0882
-12.5905
-12.0825
-11.5649
-11.0382
-10.503
-9.95998
-9.40974
-8.85288
-8.29003
-7.7218
-7.14881
-6.57169
-5.99105
-5.4075
-4.82168
-4.23418
-3.64561
-3.0566
-2.46773
-1.87961
-1.29283
-0.707974
-0.125629
0.453634
1.02925
1.60065
2.16729
2.72863
3.28414
3.83328
4.37555
4.91045
5.43747
5.95615
6.466
6.96659
7.45745
7.93817
8.40832
8.8675
9.31533
9.75142
10.1754
10.587
10.9858
11.3715
11.7439
12.1026
12.4474
12.778
13.0943
13.396
13.6829
13.955
14.212
14.4537
-17.3735
-17.5467
-17.7121
-17.8685
-18.0147
-18.1498
-18.2728
-18.3827
-18.4788
-18.5603
-18.6266
-18.6771
-18.7114
-18.729
-18.7296
-18.7129
-18.6787
-18.6269
-18.5575
-18.4703
-18.3655
-18.2431
-18.1034
-17.9463
-17.772
-17.5805
-17.3719
-17.1466
-16.9047
-16.6465
-16.3722
-16.0823
-15.777
-15.4566
-15.1216
-14.7724
-14.4093
-14.0327
-13.6433
-13.2413
-12.8273
-12.4018
-11.9653
-11.5183
-11.0613
-10.5948
-10.1194
-9.63563
-9.14403
-8.64514
-8.13952
-7.62773
-7.11033
-6.58787
-6.06093
-5.53007
-4.99584
-4.45882
-3.91957
-3.37864
-2.8366
-2.294
-1.75139
-1.20933
-0.668357
-0.129012
0.40817
0.942658
1.47393
2.00147
2.52477
3.04332
3.55663
4.06423
4.56562
5.06035
5.54796
6.02799
6.50002
6.96362
7.41837
7.86387
8.29973
8.72558
9.14104
9.54577
9.93943
10.3217
10.6923
11.0508
11.3971
11.7309
12.0519
12.3599
12.6547
12.9361
13.2039
13.458
13.6982
13.9245
-16.5402
-16.6791
-16.8125
-16.9387
-17.0564
-17.1647
-17.2627
-17.3495
-17.4243
-17.4864
-17.5353
-17.5701
-17.5906
-17.5961
-17.5864
-17.561
-17.5197
-17.4621
-17.3882
-17.2978
-17.1906
-17.0668
-16.9262
-16.769
-16.5954
-16.4055
-16.1996
-15.978
-15.741
-15.4888
-15.2217
-14.9402
-14.6444
-14.335
-14.012
-13.6761
-13.3275
-12.9667
-12.5941
-12.2101
-11.8153
-11.4099
-10.9945
-10.5696
-10.1356
-9.69306
-9.24242
-8.7842
-8.31888
-7.84699
-7.36903
-6.88551
-6.39696
-5.90388
-5.4068
-4.90625
-4.40273
-3.89678
-3.3889
-2.87963
-2.36947
-1.85894
-1.34855
-0.838811
-0.330224
0.17671
0.681497
1.18365
1.68268
2.17811
2.66947
3.15631
3.63815
4.11456
4.5851
5.04932
5.50682
5.95719
6.40001
6.83489
7.26147
7.67936
8.08821
8.48766
8.8774
9.25709
9.62643
9.98512
10.3329
10.6694
10.9945
11.308
11.6095
11.8988
12.1759
12.4404
12.6923
12.9313
13.1574
13.3705
-15.624
-15.7286
-15.8268
-15.9177
-16.0004
-16.0741
-16.1384
-16.1924
-16.2358
-16.2678
-16.2881
-16.2961
-16.2915
-16.2739
-16.243
-16.1985
-16.1402
-16.068
-15.9818
-15.8814
-15.7667
-15.6379
-15.495
-15.3378
-15.1665
-14.9811
-14.7818
-14.5687
-14.3419
-14.1017
-13.8484
-13.5821
-13.3031
-13.0117
-12.7082
-12.3929
-12.0663
-11.7285
-11.38
-11.0212
-10.6525
-10.2742
-9.88683
-9.49072
-9.08634
-8.67411
-8.25449
-7.82792
-7.39485
-6.95576
-6.51109
-6.06133
-5.60694
-5.14839
-4.68616
-4.22072
-3.75256
-3.28215
-2.80996
-2.33648
-1.86217
-1.38751
-0.912972
-0.439021
0.0338791
0.505267
0.974687
1.44169
1.90582
2.36665
2.82374
3.27666
3.72499
4.16831
4.60622
5.03832
5.46422
5.88354
6.29591
6.70095
7.09833
7.4877
7.86872
8.24108
8.60446
8.95856
9.30311
9.63781
9.96242
10.2767
10.5804
10.8732
11.1551
11.4258
11.685
11.9327
12.1687
12.3928
12.6049
12.8049
-14.8161
-14.8942
-14.9671
-15.0334
-15.0923
-15.1433
-15.1858
-15.2193
-15.2432
-15.2571
-15.2604
-15.2529
-15.2341
-15.2037
-15.1615
-15.107
-15.0402
-14.9607
-14.8686
-14.7636
-14.6456
-14.5147
-14.3707
-14.2139
-14.0441
-13.8616
-13.6664
-13.4587
-13.2386
-13.0064
-12.7623
-12.5065
-12.2392
-11.9606
-11.6712
-11.3711
-11.0607
-10.7403
-10.4102
-10.0708
-9.72236
-9.36531
-9.00001
-8.62683
-8.24618
-7.85843
-7.464
-7.0633
-6.65673
-6.24472
-5.82769
-5.40606
-4.98027
-4.55075
-4.11793
-3.68225
-3.24415
-2.80406
-2.36242
-1.91967
-1.47623
-1.03256
-0.589069
-0.146197
0.295632
0.735994
1.17447
1.61065
2.04411
2.47446
2.90129
3.32421
3.74283
4.15677
4.56566
4.96913
5.36682
5.75837
6.14346
6.52174
6.89288
7.25658
7.61252
7.96042
8.29999
8.63094
8.95303
9.26598
9.56958
9.86357
10.1478
10.4219
10.6859
10.9394
11.1824
11.4147
11.6361
11.8464
12.0457
12.2338
-14.0196
-14.0746
-14.1244
-14.1678
-14.2043
-14.2333
-14.2545
-14.2674
-14.2716
-14.2668
-14.2525
-14.2286
-14.1945
-14.1502
-14.0953
-14.0297
-13.9531
-13.8655
-13.7666
-13.6565
-13.5349
-13.402
-13.2577
-13.102
-12.9349
-12.7565
-12.5668
-12.366
-12.1542
-11.9316
-11.6983
-11.4544
-11.2003
-10.9361
-10.6621
-10.3785
-10.0856
-9.78369
-9.47301
-9.15389
-8.82664
-8.49158
-8.14906
-7.79941
-7.44298
-7.08013
-6.71123
-6.33663
-5.95672
-5.57188
-5.18249
-4.78893
-4.39161
-3.99091
-3.58723
-3.18098
-2.77253
-2.36231
-1.9507
-1.53811
-1.12494
-0.711574
-0.298421
0.11413
0.525686
0.935859
1.34426
1.75052
2.15425
2.55508
2.95264
3.34657
3.73652
4.12213
4.50305
4.87896
5.24952
5.6144
5.97329
6.32589
6.67189
7.011
7.34295
7.66745
7.98425
8.29309
8.59373
8.88593
9.16948
9.44415
9.70976
9.9661
10.213
10.4503
10.6778
10.8954
11.1029
11.3003
11.4874
11.6641
-13.2801
-13.3158
-13.3468
-13.372
-13.3908
-13.4028
-13.4077
-13.405
-13.3945
-13.3759
-13.3487
-13.3128
-13.2679
-13.2138
-13.1502
-13.0769
-12.9939
-12.9009
-12.7978
-12.6846
-12.5611
-12.4274
-12.2834
-12.1292
-11.9648
-11.7901
-11.6054
-11.4107
-11.2062
-10.9918
-10.7679
-10.5346
-10.292
-10.0403
-9.77981
-9.5107
-9.23321
-8.94759
-8.6541
-8.35301
-8.0446
-7.72917
-7.40701
-7.07842
-6.74374
-6.40327
-6.05734
-5.7063
-5.35048
-4.99021
-4.62587
-4.25778
-3.88632
-3.51184
-3.1347
-2.75526
-2.37389
-1.99094
-1.6068
-1.22182
-0.836357
-0.450788
-0.0654705
0.319235
0.70297
1.08538
1.46611
1.84481
2.22114
2.59475
2.96531
3.33248
3.69594
4.05536
4.41043
4.76084
5.10628
5.44646
5.78109
6.10989
6.43257
6.74888
7.05855
7.36133
7.65699
7.94528
8.22599
8.4989
8.7638
9.0205
9.26881
9.50855
9.73957
9.9617
10.1748
10.3787
10.5734
10.7586
10.9343
11.1005
-12.5728
-12.5921
-12.607
-12.6165
-12.6199
-12.6171
-12.6076
-12.5913
-12.5678
-12.5369
-12.4983
-12.4519
-12.3973
-12.3344
-12.2631
-12.1831
-12.0944
-11.9968
-11.8902
-11.7746
-11.6499
-11.5161
-11.3731
-11.221
-11.0598
-10.8896
-10.7103
-10.5221
-10.325
-10.1192
-9.90489
-9.68208
-9.45098
-9.21176
-8.96461
-8.70972
-8.44731
-8.17759
-7.90079
-7.61716
-7.32695
-7.03041
-6.72782
-6.41946
-6.1056
-5.78653
-5.46256
-5.13398
-4.80111
-4.46425
-4.12371
-3.77983
-3.43292
-3.08331
-2.73132
-2.37729
-2.02155
-1.66442
-1.30625
-0.947364
-0.588095
-0.228777
0.13026
0.488686
0.846175
1.2024
1.55704
1.90977
2.26028
2.60825
2.95338
3.29535
3.63388
3.96866
4.29941
4.62583
4.94766
5.26461
5.57643
5.88285
6.18362
6.4785
6.76724
7.04962
7.32542
7.59441
7.8564
8.11119
8.35858
8.5984
8.83047
9.05464
9.27075
9.47865
9.67822
9.86932
10.0518
10.2257
10.3908
10.547
-11.9077
-11.913
-11.9145
-11.911
-11.9018
-11.8869
-11.8659
-11.8386
-11.8047
-11.7642
-11.7166
-11.662
-11.6
-11.5305
-11.4534
-11.3686
-11.2759
-11.1752
-11.0665
-10.9496
-10.8246
-10.6914
-10.5501
-10.4005
-10.2428
-10.0769
-9.90301
-9.72109
-9.53126
-9.33362
-9.12827
-8.91536
-8.69501
-8.46739
-8.23265
-7.99098
-7.74255
-7.48757
-7.22624
-6.95878
-6.68542
-6.40638
-6.12192
-5.83227
-5.53769
-5.23844
-4.9348
-4.62703
-4.31542
-4.00023
-3.68177
-3.36032
-3.03617
-2.70962
-2.38096
-2.0505
-1.71854
-1.38538
-1.05131
-0.716659
-0.381712
-0.0467769
0.287845
0.621853
0.954948
1.28683
1.61721
1.9458
2.27229
2.59641
2.91788
3.23641
3.55174
3.86358
4.17168
4.47577
4.7756
5.07093
5.36149
5.64707
5.92742
6.20233
6.47156
6.73492
6.9922
7.2432
7.48773
7.72561
7.95667
8.18074
8.39766
8.60728
8.80947
9.00409
9.19102
9.37014
9.54135
9.70455
9.85964
10.0066
-11.2774
-11.2711
-11.2612
-11.2467
-11.227
-11.2018
-11.1711
-11.1346
-11.0921
-11.0435
-10.9886
-10.9272
-10.8592
-10.7844
-10.7028
-10.6142
-10.5185
-10.4157
-10.3056
-10.1883
-10.0637
-9.93177
-9.7925
-9.64591
-9.49202
-9.33085
-9.16247
-8.98694
-8.80432
-8.61472
-8.41822
-8.21494
-8.00501
-7.78857
-7.56575
-7.33672
-7.10164
-6.86069
-6.61405
-6.36192
-6.1045
-5.842
-5.57463
-5.30262
-5.02619
-4.7456
-4.46106
-4.17284
-3.88118
-3.58633
-3.28856
-2.98813
-2.68531
-2.38035
-2.07354
-1.76514
-1.45543
-1.14468
-0.833169
-0.521171
-0.208963
0.10318
0.414983
0.726172
1.03647
1.34562
1.65334
1.95936
2.26343
2.56527
2.86464
3.16128
3.45494
3.74536
4.03231
4.31555
4.59485
4.86997
5.1407
5.40681
5.6681
5.92436
6.17538
6.42098
6.66096
6.89516
7.12338
7.34548
7.56128
7.77063
7.9734
8.16944
8.35862
8.54083
8.71595
8.88387
9.04449
9.19774
9.34351
9.48175
-10.6833
-10.6672
-10.6478
-10.6242
-10.5957
-10.5622
-10.5236
-10.4797
-10.4303
-10.3753
-10.3146
-10.248
-10.1754
-10.0967
-10.0118
-9.92057
-9.823
-9.71899
-9.60849
-9.49147
-9.36789
-9.23774
-9.10101
-8.95772
-8.80788
-8.65154
-8.48873
-8.31951
-8.14395
-7.96214
-7.77415
-7.5801
-7.3801
-7.17426
-6.96272
-6.74562
-6.52311
-6.29535
-6.06249
-5.82473
-5.58223
-5.33519
-5.0838
-4.82826
-4.56878
-4.30557
-4.03885
-3.76885
-3.49578
-3.21987
-2.94138
-2.66052
-2.37754
-2.09268
-1.8062
-1.51832
-1.22932
-0.93942
-0.648886
-0.357966
-0.0669103
0.224031
0.514607
0.804569
1.09367
1.38166
1.66829
1.95333
2.23653
2.51765
2.79647
3.07273
3.34622
3.61672
3.88399
4.14782
4.40801
4.66433
4.91658
5.16458
5.40812
5.64701
5.88107
6.11013
6.33401
6.55254
6.76558
6.97296
7.17455
7.37019
7.55976
7.74314
7.9202
8.09083
8.25493
8.4124
8.56315
8.7071
8.84417
8.9743
-10.1225
-10.0981
-10.0708
-10.0396
-10.0039
-9.96353
-9.91846
-9.86853
-9.8136
-9.75354
-9.68826
-9.61763
-9.54157
-9.45997
-9.37276
-9.27987
-9.18124
-9.07681
-8.96655
-8.85042
-8.7284
-8.60049
-8.46668
-8.32698
-8.18141
-8.03002
-7.87284
-7.70992
-7.54132
-7.36713
-7.18741
-7.00227
-6.81181
-6.61613
-6.41534
-6.20959
-5.999
-5.78371
-5.56388
-5.33965
-5.11121
-4.8787
-4.64231
-4.40222
-4.15862
-3.91169
-3.66164
-3.40867
-3.15297
-2.89476
-2.63425
-2.37166
-2.10719
-1.84108
-1.57354
-1.3048
-1.03508
-0.764614
-0.49362
-0.222329
0.0490315
0.320233
0.591049
0.861252
1.13062
1.39892
1.66594
1.93144
2.19523
2.45706
2.71674
2.97406
3.22879
3.48073
3.72969
3.97547
4.21787
4.45669
4.69176
4.92289
5.14991
5.37264
5.59091
5.80457
6.01346
6.21742
6.41631
6.61
6.79834
6.98121
7.15849
7.33007
7.49582
7.65567
7.80949
7.95722
8.09876
8.23404
8.36299
8.48555
-9.59404
-9.56275
-9.52898
-9.49152
-9.4499
-9.40402
-9.35379
-9.29908
-9.2398
-9.17584
-9.10711
-9.03352
-8.95499
-8.87144
-8.78282
-8.68906
-8.59011
-8.48594
-8.37651
-8.2618
-8.1418
-8.01649
-7.88589
-7.75001
-7.60887
-7.4625
-7.31094
-7.15425
-6.99248
-6.82569
-6.65397
-6.47739
-6.29605
-6.11004
-5.91948
-5.72448
-5.52515
-5.32164
-5.11406
-4.90257
-4.6873
-4.46842
-4.24609
-4.02045
-3.79169
-3.55998
-3.32549
-3.0884
-2.8489
-2.60718
-2.36343
-2.11784
-1.87061
-1.62195
-1.37204
-1.12109
-0.869314
-0.616907
-0.364077
-0.111032
0.142023
0.39488
0.647334
0.899178
1.15021
1.40022
1.64901
1.89637
2.14212
2.38604
2.62795
2.86765
3.10495
3.33967
3.57162
3.80062
4.02649
4.24906
4.46816
4.68362
4.89528
5.10299
5.30659
5.50594
5.70088
5.89129
6.07703
6.25798
6.434
6.60499
6.77083
6.93142
7.08666
7.23646
7.38072
7.51936
7.65232
7.77952
7.90089
8.01639
-9.09611
-9.05916
-9.02002
-8.97751
-8.93114
-8.88082
-8.8265
-8.76807
-8.70545
-8.63855
-8.5673
-8.49162
-8.41145
-8.32674
-8.23742
-8.14345
-8.0448
-7.94144
-7.83333
-7.72047
-7.60284
-7.48045
-7.35331
-7.22142
-7.08481
-6.94351
-6.79757
-6.64702
-6.49193
-6.33235
-6.16835
-6.00001
-5.82741
-5.65065
-5.46982
-5.28501
-5.09636
-4.90396
-4.70794
-4.50843
-4.30556
-4.09948
-3.89031
-3.67821
-3.46334
-3.24585
-3.02589
-2.80363
-2.57925
-2.3529
-2.12477
-1.89502
-1.66384
-1.43141
-1.1979
-0.963512
-0.728416
-0.492801
-0.256856
-0.0207667
0.215279
0.451095
0.686492
0.921284
1.15528
1.38831
1.62017
1.85069
2.07969
2.30698
2.53239
2.75574
2.97687
3.19559
3.41175
3.62517
3.8357
4.04317
4.24744
4.44835
4.64576
4.83952
5.02949
5.21554
5.39753
5.57535
5.74887
5.91798
6.08255
6.24249
6.3977
6.54808
6.69353
6.83397
6.96933
7.09952
7.22448
7.34415
7.45846
7.56736
-8.6274
-8.58582
-8.54235
-8.49577
-8.44562
-8.39183
-8.33435
-8.2731
-8.20801
-8.139
-8.06603
-7.98902
-7.90793
-7.82271
-7.73332
-7.63972
-7.54188
-7.43978
-7.33341
-7.22275
-7.1078
-6.98856
-6.86505
-6.73727
-6.60526
-6.46905
-6.32867
-6.18416
-6.03558
-5.88299
-5.72644
-5.56601
-5.40178
-5.23383
-5.06224
-4.88711
-4.70854
-4.52664
-4.34151
-4.15327
-3.96205
-3.76795
-3.57113
-3.3717
-3.16981
-2.9656
-2.75921
-2.55079
-2.34049
-2.12847
-1.91487
-1.69987
-1.48362
-1.26629
-1.04803
-0.829025
-0.609428
-0.389412
-0.169146
0.0512001
0.271457
0.491454
0.711023
0.929992
1.14819
1.36546
1.58162
1.79652
2.00998
2.22185
2.43195
2.64014
2.84626
3.05015
3.25166
3.45063
3.64693
3.8404
4.03092
4.21833
4.40251
4.58332
4.76065
4.93436
5.10434
5.27047
5.43264
5.59075
5.74469
5.89438
6.0397
6.18058
6.31694
6.44869
6.57576
6.69809
6.81561
6.92826
7.03598
7.13874
-8.18635
-8.14104
-8.0941
-8.04432
-7.99124
-7.93479
-7.87494
-7.81164
-7.74481
-7.67441
-7.60039
-7.52268
-7.44127
-7.35609
-7.26714
-7.17437
-7.07777
-6.97732
-6.873
-6.76482
-6.65278
-6.53687
-6.41713
-6.29355
-6.16617
-6.03501
-5.90012
-5.76153
-5.6193
-5.47347
-5.32411
-5.17127
-5.01504
-4.85548
-4.69268
-4.52672
-4.35769
-4.18569
-4.01083
-3.83319
-3.6529
-3.47006
-3.2848
-3.09723
-2.90748
-2.71568
-2.52195
-2.32643
-2.12927
-1.93058
-1.73053
-1.52925
-1.32689
-1.12359
-0.91951
-0.714793
-0.509592
-0.304059
-0.0983487
0.107387
0.312993
0.518316
0.723202
0.927498
1.13105
1.33371
1.53531
1.73572
1.93478
2.13235
2.32827
2.52241
2.71462
2.90476
3.09269
3.27827
3.46138
3.64188
3.81964
3.99454
4.16645
4.33527
4.50087
4.66313
4.82196
4.97725
5.1289
5.27681
5.42088
5.56104
5.69719
5.82925
5.95716
6.08083
6.2002
6.31521
6.4258
6.53192
6.63352
6.73055
-7.77157
-7.72332
-7.67366
-7.62142
-7.56612
-7.50771
-7.44618
-7.38148
-7.31355
-7.24234
-7.16783
-7.08997
-7.00872
-6.92406
-6.83597
-6.74442
-6.6494
-6.5509
-6.44891
-6.34343
-6.23447
-6.12203
-6.00613
-5.88679
-5.76404
-5.63789
-5.5084
-5.37559
-5.23951
-5.10022
-4.95776
-4.8122
-4.66361
-4.51204
-4.35759
-4.20031
-4.04031
-3.87766
-3.71245
-3.54479
-3.37476
-3.20248
-3.02805
-2.85158
-2.67317
-2.49296
-2.31105
-2.12756
-1.94263
-1.75637
-1.56892
-1.3804
-1.19095
-1.0007
-0.809783
-0.618338
-0.426501
-0.23441
-0.0422039
0.149979
0.341998
0.533716
0.724991
0.915685
1.10566
1.29478
1.4829
1.66989
1.85561
2.03993
2.22271
2.40383
2.58316
2.76056
2.93592
3.1091
3.27999
3.44847
3.61441
3.77772
3.93828
4.09597
4.2507
4.40236
4.55086
4.6961
4.83798
4.97643
5.11135
5.24267
5.3703
5.49418
5.61424
5.7304
5.84262
5.95083
6.05497
6.15501
6.2509
6.34259
-7.38165
-7.33112
-7.2794
-7.22533
-7.16842
-7.10866
-7.04602
-6.98047
-6.91196
-6.84046
-6.76593
-6.68835
-6.60769
-6.52393
-6.43705
-6.34704
-6.25388
-6.15757
-6.05811
-5.9555
-5.84974
-5.74086
-5.62886
-5.51376
-5.3956
-5.27439
-5.15017
-5.02299
-4.89288
-4.75989
-4.62407
-4.48547
-4.34416
-4.20021
-4.05367
-3.90462
-3.75314
-3.59931
-3.4432
-3.28491
-3.12453
-2.96214
-2.79785
-2.63176
-2.46396
-2.29456
-2.12368
-1.95141
-1.77788
-1.60319
-1.42746
-1.25081
-1.07336
-0.895233
-0.716545
-0.537422
-0.357988
-0.178368
0.00131315
0.180929
0.360353
0.53946
0.718123
0.896216
1.07361
1.25019
1.42582
1.60038
1.77375
1.94581
2.11643
2.2855
2.4529
2.61851
2.78222
2.94392
3.1035
3.26085
3.41586
3.56843
3.71847
3.86587
4.01053
4.15237
4.29129
4.42722
4.56006
4.68973
4.81617
4.93929
5.05902
5.1753
5.28807
5.39727
5.50284
5.60472
5.70288
5.79726
5.88782
5.97454
-7.01523
-6.963
-6.90979
-6.85443
-6.79645
-6.73583
-6.67257
-6.60664
-6.538
-6.46662
-6.39248
-6.31555
-6.23582
-6.15327
-6.06788
-5.97965
-5.88858
-5.79465
-5.69787
-5.59824
-5.49578
-5.3905
-5.28242
-5.17154
-5.05791
-4.94155
-4.82248
-4.70075
-4.57641
-4.44948
-4.32002
-4.18808
-4.05372
-3.917
-3.77797
-3.63671
-3.49328
-3.34775
-3.20021
-3.05073
-2.8994
-2.74629
-2.5915
-2.43511
-2.27722
-2.11793
-1.95733
-1.79552
-1.6326
-1.46868
-1.30386
-1.13825
-0.971954
-0.805084
-0.63775
-0.470064
-0.302137
-0.134083
0.0339836
0.20195
0.369702
0.537125
0.704104
0.870526
1.03628
1.20124
1.36531
1.52837
1.6903
1.85101
2.01037
2.16829
2.32465
2.47936
2.6323
2.78337
2.93248
3.07953
3.22442
3.36706
3.50736
3.64522
3.78057
3.91331
4.04337
4.17066
4.29512
4.41667
4.53524
4.65076
4.76317
4.87241
4.97841
5.08114
5.18053
5.27654
5.36912
5.45824
5.54385
5.62593
-6.67101
-6.61758
-6.56334
-6.50716
-6.44855
-6.38751
-6.32405
-6.25813
-6.18973
-6.11882
-6.04539
-5.96942
-5.8909
-5.80981
-5.72614
-5.6399
-5.55107
-5.45966
-5.36567
-5.26911
-5.17
-5.06833
-4.96414
-4.85745
-4.74827
-4.63664
-4.52258
-4.40614
-4.28734
-4.16624
-4.04288
-3.91729
-3.78955
-3.65969
-3.52778
-3.39388
-3.25805
-3.12037
-2.98088
-2.83968
-2.69684
-2.55243
-2.40652
-2.25922
-2.11059
-1.96073
-1.80972
-1.65766
-1.50463
-1.35073
-1.19606
-1.0407
-0.884774
-0.728361
-0.571568
-0.414495
-0.257243
-0.0999157
0.0573847
0.214555
0.371492
0.528091
0.68425
0.839865
0.994833
1.14905
1.30242
1.45483
1.60619
1.75639
1.90534
2.05294
2.1991
2.34371
2.48668
2.62793
2.76736
2.90488
3.0404
3.17385
3.30513
3.43417
3.56089
3.68522
3.80707
3.92638
4.04307
4.15709
4.26837
4.37685
4.48247
4.58517
4.6849
4.78162
4.87527
4.96582
5.05322
5.13744
5.21844
5.29619
-6.34772
-6.29352
-6.23867
-6.18204
-6.12319
-6.06209
-5.99877
-5.93319
-5.86534
-5.79519
-5.72275
-5.64798
-5.57089
-5.49146
-5.40969
-5.32558
-5.23913
-5.15034
-5.05921
-4.96577
-4.87001
-4.77196
-4.67163
-4.56904
-4.46422
-4.3572
-4.24799
-4.13665
-4.0232
-3.90769
-3.79015
-3.67062
-3.54917
-3.42583
-3.30066
-3.17372
-3.04507
-2.91476
-2.78286
-2.64944
-2.51456
-2.37829
-2.24072
-2.1019
-1.96192
-1.82086
-1.6788
-1.53582
-1.392
-1.24743
-1.1022
-0.956384
-0.810082
-0.663382
-0.516373
-0.369148
-0.221798
-0.0744164
0.0729042
0.22007
0.366988
0.513563
0.659703
0.805313
0.9503
1.09457
1.23804
1.3806
1.52217
1.66266
1.80198
1.94004
2.07675
2.21202
2.34578
2.47794
2.60841
2.73712
2.86398
2.98892
3.11187
3.23275
3.35149
3.46802
3.58228
3.69419
3.8037
3.91074
4.01527
4.11722
4.21654
4.31318
4.40709
4.49823
4.58656
4.67203
4.75461
4.83427
4.91098
4.9847
-6.04414
-5.98953
-5.93441
-5.87768
-5.8189
-5.75805
-5.69515
-5.63019
-5.56314
-5.494
-5.42275
-5.34939
-5.2739
-5.19629
-5.11655
-5.03469
-4.9507
-4.86459
-4.77637
-4.68606
-4.59365
-4.49917
-4.40264
-4.30408
-4.20351
-4.10096
-3.99645
-3.89003
-3.78171
-3.67154
-3.55956
-3.44581
-3.33033
-3.21318
-3.09439
-2.97403
-2.85214
-2.72878
-2.60401
-2.47789
-2.35048
-2.22185
-2.09207
-1.96119
-1.82929
-1.69645
-1.56273
-1.42822
-1.29297
-1.15709
-1.02063
-0.883683
-0.746329
-0.608648
-0.470722
-0.332634
-0.194468
-0.0563076
0.0817628
0.219659
0.357295
0.494587
0.63145
0.767799
0.903549
1.03862
1.17292
1.30637
1.43889
1.57039
1.7008
1.83004
1.95801
2.08466
2.2099
2.33365
2.45584
2.57639
2.69525
2.81232
2.92756
3.04089
3.15224
3.26156
3.36879
3.47385
3.57671
3.67729
3.77556
3.87146
3.96494
4.05596
4.14447
4.23044
4.31381
4.39457
4.47267
4.54809
4.62079
4.69075
-5.75911
-5.7044
-5.6493
-5.59275
-5.5343
-5.47396
-5.41172
-5.3476
-5.28156
-5.21361
-5.14374
-5.07193
-4.99819
-4.92252
-4.84491
-4.76537
-4.6839
-4.60051
-4.51521
-4.42802
-4.33893
-4.24798
-4.15518
-4.06054
-3.9641
-3.86587
-3.7659
-3.66419
-3.56079
-3.45574
-3.34906
-3.2408
-3.131
-3.01971
-2.90696
-2.7928
-2.67729
-2.56047
-2.44241
-2.32315
-2.20275
-2.08127
-1.95877
-1.83532
-1.71097
-1.5858
-1.45986
-1.33323
-1.20598
-1.07817
-0.949876
-0.821173
-0.692132
-0.562827
-0.433333
-0.303724
-0.174076
-0.0444657
0.0850309
0.214337
0.343376
0.472071
0.600344
0.72812
0.855321
0.981872
1.1077
1.23272
1.35686
1.48006
1.60223
1.7233
1.8432
1.96187
2.07922
2.1952
2.30973
2.42275
2.5342
2.644
2.75211
2.85845
2.96297
3.06562
3.16633
3.26506
3.36175
3.45636
3.54883
3.63912
3.72719
3.81299
3.89649
3.97765
4.05643
4.1328
4.20673
4.2782
4.34717
4.41362
-5.4915
-5.43696
-5.38213
-5.32599
-5.2681
-5.20846
-5.14709
-5.08399
-5.01913
-4.95252
-4.88416
-4.81403
-4.74214
-4.66848
-4.59307
-4.5159
-4.43699
-4.35633
-4.27394
-4.18984
-4.10403
-4.01653
-3.92737
-3.83655
-3.74411
-3.65006
-3.55444
-3.45727
-3.35858
-3.25841
-3.15678
-3.05374
-2.94933
-2.84358
-2.73653
-2.62823
-2.51873
-2.40808
-2.29631
-2.18349
-2.06966
-1.95488
-1.83921
-1.72269
-1.6054
-1.48738
-1.3687
-1.24942
-1.12961
-1.00932
-0.888622
-0.767582
-0.646266
-0.524741
-0.403074
-0.281333
-0.159586
-0.0379041
0.0836449
0.204991
0.326065
0.446797
0.567118
0.686957
0.806245
0.924914
1.04289
1.16012
1.27652
1.39203
1.50658
1.6201
1.73254
1.84382
1.95389
2.06268
2.17013
2.27618
2.38077
2.48385
2.58535
2.68523
2.78343
2.8799
2.97459
3.06745
3.15844
3.2475
3.3346
3.41969
3.50274
3.58371
3.66255
3.73925
3.81376
3.88605
3.95611
4.02389
4.08939
4.15257
-5.24026
-5.1861
-5.13175
-5.07621
-5.01906
-4.96031
-4.89996
-4.83801
-4.77447
-4.70932
-4.64257
-4.57421
-4.50424
-4.43266
-4.35949
-4.28472
-4.20836
-4.13043
-4.05093
-3.96987
-3.88727
-3.80315
-3.71752
-3.63041
-3.54183
-3.4518
-3.36037
-3.26754
-3.17335
-3.07783
-2.98101
-2.88293
-2.78362
-2.68312
-2.58146
-2.4787
-2.37486
-2.27
-2.16415
-2.05737
-1.9497
-1.8412
-1.73191
-1.62188
-1.51117
-1.39984
-1.28793
-1.1755
-1.06261
-0.949324
-0.835694
-0.721779
-0.607642
-0.493343
-0.378943
-0.264504
-0.150089
-0.0357591
0.0784217
0.192391
0.306085
0.419441
0.532396
0.644887
0.75685
0.868224
0.978947
1.08896
1.19819
1.30659
1.41409
1.52063
1.62616
1.73062
1.83395
1.93609
2.03699
2.13659
2.23484
2.3317
2.4271
2.521
2.61335
2.7041
2.79321
2.88064
2.96634
3.05027
3.13239
3.21266
3.29105
3.36753
3.44206
3.5146
3.58514
3.65365
3.72009
3.78444
3.84669
3.90682
-5.00437
-4.95077
-4.89707
-4.8423
-4.78604
-4.72829
-4.66909
-4.60843
-4.5463
-4.4827
-4.41764
-4.3511
-4.2831
-4.21364
-4.14273
-4.07036
-3.99655
-3.92131
-3.84465
-3.76658
-3.68712
-3.60629
-3.52409
-3.44056
-3.3557
-3.26955
-3.18212
-3.09345
-3.00355
-2.91247
-2.82022
-2.72684
-2.63236
-2.53683
-2.44026
-2.34271
-2.2442
-2.14479
-2.04451
-1.9434
-1.84151
-1.73888
-1.63556
-1.5316
-1.42705
-1.32194
-1.21635
-1.11031
-1.00388
-0.897105
-0.790048
-0.682761
-0.575296
-0.467711
-0.36006
-0.252399
-0.144786
-0.0372764
0.070072
0.177202
0.284057
0.39058
0.496712
0.602398
0.707579
0.8122
0.916204
1.01954
1.12214
1.22396
1.32494
1.42502
1.52416
1.62231
1.7194
1.81539
1.91023
2.00387
2.09626
2.18735
2.2771
2.36547
2.4524
2.53786
2.62181
2.7042
2.785
2.86417
2.94168
3.01748
3.09155
3.16386
3.23438
3.30307
3.36992
3.43489
3.49797
3.55913
3.61835
3.67562
-4.78286
-4.72997
-4.67706
-4.62318
-4.56793
-4.51132
-4.45336
-4.39406
-4.33342
-4.27144
-4.20812
-4.14345
-4.07745
-4.01012
-3.94146
-3.87148
-3.8002
-3.72761
-3.65374
-3.57859
-3.50219
-3.42454
-3.34566
-3.26558
-3.18431
-3.10186
-3.01828
-2.93357
-2.84777
-2.7609
-2.673
-2.58408
-2.49418
-2.40333
-2.31157
-2.21893
-2.12545
-2.03116
-1.9361
-1.84032
-1.74384
-1.64672
-1.54899
-1.4507
-1.35189
-1.25261
-1.15291
-1.05282
-0.952401
-0.851699
-0.750761
-0.649636
-0.548376
-0.447029
-0.345647
-0.24428
-0.14298
-0.0417989
0.0592123
0.160001
0.260517
0.360706
0.460517
0.559899
0.658799
0.757167
0.854951
0.952101
1.04856
1.14429
1.23924
1.33335
1.42658
1.51888
1.6102
1.7005
1.78973
1.87785
1.96482
2.05058
2.1351
2.21834
2.30026
2.38082
2.45998
2.53771
2.61397
2.68873
2.76195
2.8336
2.90367
2.9721
3.03889
3.104
3.16741
3.2291
3.28904
3.34722
3.40362
3.45821
-4.57483
-4.52278
-4.47076
-4.41788
-4.36373
-4.30833
-4.25169
-4.19383
-4.13473
-4.07441
-4.01285
-3.95008
-3.88609
-3.82088
-3.75446
-3.68685
-3.61805
-3.54807
-3.47692
-3.40462
-3.33118
-3.25661
-3.18094
-3.10418
-3.02634
-2.94746
-2.86755
-2.78663
-2.70472
-2.62186
-2.53807
-2.45338
-2.36781
-2.2814
-2.19417
-2.10617
-2.01741
-1.92794
-1.83779
-1.747
-1.6556
-1.56363
-1.47113
-1.37814
-1.28471
-1.19086
-1.09665
-1.00212
-0.907303
-0.812252
-0.71701
-0.62162
-0.526129
-0.430581
-0.335024
-0.239502
-0.144064
-0.0487561
0.0463753
0.141283
0.235919
0.330237
0.42419
0.51773
0.610812
0.703387
0.79541
0.886835
0.977616
1.06771
1.15707
1.24564
1.3334
1.42029
1.50627
1.59131
1.67535
1.75836
1.84029
1.92112
2.0008
2.07929
2.15657
2.23258
2.30731
2.38071
2.45276
2.52343
2.59268
2.66048
2.72682
2.79166
2.85498
2.91676
2.97697
3.03559
3.09261
3.14801
3.20177
3.25387
-4.3794
-4.32829
-4.27726
-4.22545
-4.17248
-4.11835
-4.06309
-4.0067
-3.94919
-3.89055
-3.83078
-3.7699
-3.70791
-3.64481
-3.58062
-3.51533
-3.44896
-3.38153
-3.31303
-3.24349
-3.17292
-3.10133
-3.02874
-2.95517
-2.88063
-2.80515
-2.72874
-2.65143
-2.57324
-2.49418
-2.4143
-2.33361
-2.25214
-2.16991
-2.08696
-2.00332
-1.91901
-1.83407
-1.74853
-1.66242
-1.57578
-1.48864
-1.40104
-1.31301
-1.22459
-1.13582
-1.04674
-0.957384
-0.867794
-0.778009
-0.688069
-0.598017
-0.507892
-0.417737
-0.327593
-0.237503
-0.147509
-0.0576537
0.0320202
0.12147
0.210653
0.299526
0.388047
0.476172
0.56386
0.651068
0.737754
0.823875
0.909392
0.994262
1.07844
1.1619
1.24459
1.32647
1.40751
1.48766
1.56689
1.64517
1.72245
1.79871
1.8739
1.94799
2.02096
2.09277
2.16338
2.23277
2.30092
2.36778
2.43334
2.49757
2.56045
2.62194
2.68204
2.74071
2.79795
2.85372
2.90801
2.96081
3.01209
3.06186
-4.19577
-4.14567
-4.0957
-4.04503
-3.99328
-3.94047
-3.88662
-3.83174
-3.77582
-3.71888
-3.66091
-3.60192
-3.54191
-3.48089
-3.41888
-3.35587
-3.29188
-3.22692
-3.161
-3.09413
-3.02633
-2.95761
-2.88799
-2.81747
-2.74609
-2.67386
-2.60079
-2.52692
-2.45225
-2.37681
-2.30063
-2.22372
-2.14612
-2.06785
-1.98893
-1.9094
-1.82928
-1.74859
-1.66738
-1.58567
-1.50349
-1.42087
-1.33786
-1.25447
-1.17074
-1.08671
-1.00242
-0.917895
-0.833175
-0.748297
-0.663297
-0.578213
-0.493083
-0.407943
-0.322834
-0.237792
-0.152856
-0.0680655
0.016541
0.100925
0.185047
0.268868
0.352349
0.435453
0.51814
0.600371
0.682109
0.763316
0.843953
0.923985
1.00337
1.08208
1.16007
1.23731
1.31377
1.3894
1.46418
1.53807
1.61104
1.68305
1.75409
1.8241
1.89308
1.96098
2.02778
2.09345
2.15796
2.2213
2.28343
2.34434
2.404
2.46238
2.51948
2.57526
2.62971
2.68282
2.73457
2.78493
2.83391
2.88149
-4.02316
-3.97414
-3.92527