/*--------------------------------*- C++ -*----------------------------------*\
  =========                 |
  \\      /  F ield         | OpenFOAM: The Open Source CFD Toolbox
   \\    /   O peration     | Website:  https://openfoam.org
    \\  /    A nd           | Version:  9
     \\/     M anipulation  |
\*---------------------------------------------------------------------------*/
FoamFile
{
    format      ascii;
    class       volVectorField;
    location    "0.02";
    object      U;
}
// * * * * * * * * * * * * * * * * * * * * * * * * * * * * * * * * * * * * * //

dimensions      [0 1 -1 0 0 0 0];

internalField   nonuniform List<vector> 
7154
(
(26.4126 -2.46685 -6.77105e-29)
(26.3803 -2.44782 0)
(26.3406 -2.4295 0)
(26.3086 -2.41189 0)
(26.2804 -2.395 0)
(26.2525 -2.3788 0)
(26.2248 -2.36324 0)
(26.1979 -2.34832 0)
(26.1717 -2.33401 0)
(26.1462 -2.3203 0)
(26.1214 -2.30717 0)
(26.0972 -2.29461 0)
(26.0737 -2.28259 0)
(26.0508 -2.2711 0)
(26.0285 -2.26012 0)
(26.0068 -2.24964 0)
(25.9856 -2.23965 0)
(25.965 -2.23013 0)
(25.9449 -2.22106 0)
(25.9253 -2.21244 0)
(25.9062 -2.20424 0)
(25.8876 -2.19646 0)
(25.8695 -2.18909 0)
(25.8518 -2.18211 0)
(25.8346 -2.17551 0)
(25.8178 -2.16927 0)
(25.8015 -2.1634 0)
(25.7855 -2.15787 0)
(25.7699 -2.15268 0)
(25.7547 -2.14781 0)
(25.7399 -2.14326 0)
(25.7254 -2.13902 0)
(25.7113 -2.13508 0)
(25.6975 -2.13142 0)
(25.6841 -2.12804 0)
(25.671 -2.12494 0)
(25.6581 -2.1221 0)
(25.6456 -2.11951 0)
(25.6334 -2.11717 0)
(25.6214 -2.11508 0)
(25.6098 -2.11321 0)
(25.5984 -2.11157 0)
(25.5872 -2.11015 0)
(25.5763 -2.10894 0)
(25.5657 -2.10794 0)
(25.5553 -2.10714 0)
(25.5451 -2.10653 0)
(25.5351 -2.10611 0)
(25.5254 -2.10587 0)
(25.5158 -2.10581 0)
(25.5065 -2.10591 0)
(25.4974 -2.10619 0)
(25.4884 -2.10662 0)
(25.4797 -2.10721 0)
(25.4711 -2.10794 0)
(25.4627 -2.10883 0)
(24.6707 -0.674898 0)
(24.6579 -0.708826 0)
(24.6466 -0.7384 0)
(24.6363 -0.766742 0)
(24.6264 -0.794356 0)
(24.6167 -0.821314 0)
(24.6073 -0.847627 0)
(24.5984 -0.873313 0)
(24.5898 -0.898394 0)
(24.5816 -0.922888 0)
(24.5736 -0.946818 0)
(24.566 -0.9702 0)
(24.5588 -0.993041 0)
(24.5518 -1.01536 0)
(24.5451 -1.03718 0)
(24.5386 -1.05852 0)
(24.5325 -1.07943 0)
(24.5265 -1.09997 0)
(24.5209 -1.12013 0)
(24.5154 -1.13988 0)
(24.5102 -1.15921 0)
(24.5053 -1.17814 0)
(24.5005 -1.19667 0)
(24.496 -1.21484 0)
(24.4916 -1.23263 0)
(24.4874 -1.25008 0)
(24.4835 -1.26718 0)
(24.4797 -1.28395 0)
(24.4761 -1.3004 0)
(24.4726 -1.31653 0)
(24.4693 -1.33237 0)
(24.4662 -1.34791 0)
(24.4632 -1.36317 0)
(24.4603 -1.37816 0)
(24.4576 -1.39288 0)
(24.455 -1.40734 0)
(24.4526 -1.42155 0)
(24.4503 -1.43551 0)
(24.448 -1.44924 0)
(24.446 -1.46274 0)
(24.444 -1.47602 0)
(24.4421 -1.48908 0)
(24.4403 -1.50193 0)
(24.4387 -1.51457 0)
(24.4371 -1.52702 0)
(24.4356 -1.53927 0)
(24.4342 -1.55133 0)
(24.4329 -1.5632 0)
(24.4317 -1.5749 0)
(24.4305 -1.58642 0)
(24.4294 -1.59776 0)
(24.4284 -1.60894 0)
(24.4275 -1.61995 0)
(24.4266 -1.63081 0)
(24.4258 -1.64176 0)
(24.425 -1.65262 0)
(24.4165 -1.77935 -5.11625e-30)
(24.427 -1.78541 0)
(24.4361 -1.79145 0)
(24.4441 -1.7974 0)
(24.4517 -1.80325 0)
(24.4591 -1.809 0)
(24.4661 -1.81466 0)
(24.4728 -1.82023 0)
(24.4792 -1.82571 0)
(24.4852 -1.83113 0)
(24.491 -1.83653 0)
(24.4964 -1.84192 0)
(24.5014 -1.84718 0)
(24.5066 -1.85232 0)
(24.5113 -1.85739 0)
(24.5156 -1.86236 0)
(24.5198 -1.86721 0)
(24.5241 -1.87207 0)
(24.5276 -1.87695 0)
(24.5312 -1.8818 0)
(24.5346 -1.8866 0)
(24.5378 -1.89137 0)
(24.5408 -1.8961 0)
(24.5437 -1.9008 0)
(24.5463 -1.90547 0)
(24.5489 -1.91011 0)
(24.5512 -1.91472 0)
(24.5535 -1.91931 0)
(24.5555 -1.92388 0)
(24.5575 -1.92843 0)
(24.5593 -1.93297 0)
(24.561 -1.93748 0)
(24.5626 -1.94199 0)
(24.5641 -1.94648 0)
(24.5655 -1.95096 0)
(24.5668 -1.95543 0)
(24.568 -1.9599 0)
(24.5691 -1.96435 0)
(24.5701 -1.9688 0)
(24.571 -1.97324 0)
(24.5719 -1.97768 0)
(24.5727 -1.98211 0)
(24.5734 -1.98654 0)
(24.5741 -1.99096 0)
(24.5747 -1.99538 0)
(24.5752 -1.9998 0)
(24.5757 -2.0042 0)
(24.5761 -2.0086 0)
(24.5765 -2.013 0)
(24.5769 -2.01739 0)
(24.5772 -2.02176 0)
(24.5774 -2.02613 0)
(24.5776 -2.03049 0)
(24.5778 -2.03501 0)
(24.578 -2.03957 0)
(24.5781 -2.04414 0)
(24.5375 -1.20831 5.43636e-30)
(24.5327 -1.21588 0)
(24.5272 -1.22332 0)
(24.5222 -1.23086 0)
(24.5175 -1.23852 0)
(24.5128 -1.2463 0)
(24.5081 -1.25419 0)
(24.5034 -1.26219 0)
(24.4988 -1.27029 0)
(24.4943 -1.27849 0)
(24.4898 -1.28684 0)
(24.4854 -1.29537 0)
(24.4811 -1.304 0)
(24.4768 -1.31272 0)
(24.4725 -1.32148 0)
(24.4683 -1.33031 0)
(24.4642 -1.33917 0)
(24.4602 -1.34808 0)
(24.4562 -1.35701 0)
(24.4522 -1.36598 0)
(24.4484 -1.37498 0)
(24.4446 -1.384 0)
(24.4408 -1.39302 0)
(24.4371 -1.40199 0)
(24.4335 -1.41097 0)
(24.4299 -1.41996 0)
(24.4264 -1.42896 0)
(24.423 -1.43799 0)
(24.4196 -1.44702 0)
(24.4163 -1.45607 0)
(24.413 -1.46512 0)
(24.4098 -1.47418 0)
(24.4067 -1.48324 0)
(24.4036 -1.49231 0)
(24.4006 -1.50137 0)
(24.3976 -1.51044 0)
(24.3947 -1.5195 0)
(24.3919 -1.52855 0)
(24.3891 -1.5376 0)
(24.3863 -1.54664 0)
(24.3837 -1.55568 0)
(24.381 -1.5647 0)
(24.3785 -1.57372 0)
(24.3759 -1.58272 0)
(24.3735 -1.5917 0)
(24.3711 -1.60068 0)
(24.3687 -1.60963 0)
(24.3664 -1.61858 0)
(24.3642 -1.6275 0)
(24.362 -1.63641 0)
(24.3598 -1.6453 0)
(24.3577 -1.65417 0)
(24.3557 -1.66302 0)
(24.3537 -1.67185 0)
(24.3517 -1.68066 0)
(24.3499 -1.68945 0)
(24.0979 -1.49162 0)
(24.0987 -1.50094 0)
(24.1012 -1.51005 0)
(24.1034 -1.51907 0)
(24.1054 -1.52803 0)
(24.1073 -1.53693 0)
(24.1092 -1.54577 0)
(24.1111 -1.55454 0)
(24.113 -1.56326 0)
(24.1148 -1.57194 0)
(24.1167 -1.58061 0)
(24.1184 -1.58925 0)
(24.1202 -1.59784 0)
(24.1219 -1.60637 0)
(24.1236 -1.61485 0)
(24.1253 -1.62327 0)
(24.1269 -1.63165 0)
(24.1285 -1.63998 0)
(24.1301 -1.64826 0)
(24.1317 -1.6565 0)
(24.1332 -1.66469 0)
(24.1347 -1.67284 0)
(24.1361 -1.68095 0)
(24.1375 -1.68901 0)
(24.1389 -1.69704 0)
(24.1403 -1.70503 0)
(24.1416 -1.71299 0)
(24.143 -1.7209 0)
(24.1443 -1.72879 0)
(24.1455 -1.73663 0)
(24.1468 -1.74444 0)
(24.148 -1.75222 0)
(24.1492 -1.75996 0)
(24.1504 -1.76766 0)
(24.1516 -1.77529 0)
(24.1527 -1.78287 0)
(24.1538 -1.79041 0)
(24.1549 -1.79792 0)
(24.156 -1.8054 0)
(24.157 -1.81285 0)
(24.1581 -1.82027 0)
(24.1591 -1.82767 0)
(24.1601 -1.83504 0)
(24.1611 -1.84238 0)
(24.162 -1.84969 0)
(24.163 -1.85699 0)
(24.1639 -1.86425 0)
(24.1648 -1.8715 0)
(24.1657 -1.87872 0)
(24.1666 -1.88591 0)
(24.1675 -1.89309 0)
(24.1684 -1.90024 0)
(24.1692 -1.90737 0)
(24.1701 -1.91449 0)
(24.1709 -1.92158 0)
(24.1717 -1.92865 0)
(24.1335 -1.33366 0)
(24.1322 -1.34186 0)
(24.1298 -1.34846 0)
(24.1276 -1.35486 0)
(24.1255 -1.36129 0)
(24.1235 -1.36779 0)
(24.1214 -1.37435 0)
(24.1194 -1.38098 0)
(24.1173 -1.38767 0)
(24.1153 -1.39444 0)
(24.1133 -1.4013 0)
(24.1113 -1.40826 0)
(24.1093 -1.41527 0)
(24.1073 -1.42234 0)
(24.1053 -1.42947 0)
(24.1033 -1.43664 0)
(24.1014 -1.44386 0)
(24.0995 -1.45114 0)
(24.0975 -1.45845 0)
(24.0956 -1.46582 0)
(24.0937 -1.47322 0)
(24.0919 -1.48067 0)
(24.09 -1.48816 0)
(24.0882 -1.49569 0)
(24.0863 -1.50325 0)
(24.0845 -1.51085 0)
(24.0828 -1.51849 0)
(24.081 -1.52616 0)
(24.0793 -1.53386 0)
(24.0775 -1.5416 0)
(24.0758 -1.54937 0)
(24.0742 -1.55716 0)
(24.0725 -1.56498 0)
(24.0709 -1.57281 0)
(24.0693 -1.58065 0)
(24.0677 -1.58849 0)
(24.0661 -1.59635 0)
(24.0646 -1.60424 0)
(24.0631 -1.61215 0)
(24.0616 -1.62008 0)
(24.0602 -1.62803 0)
(24.0588 -1.636 0)
(24.0574 -1.64398 0)
(24.056 -1.65199 0)
(24.0547 -1.66 0)
(24.0534 -1.66804 0)
(24.0521 -1.67608 0)
(24.0509 -1.68414 0)
(24.0497 -1.69221 0)
(24.0485 -1.70029 0)
(24.0474 -1.70838 0)
(24.0462 -1.71648 0)
(24.0451 -1.72458 0)
(24.0441 -1.73269 0)
(24.0431 -1.74081 0)
(24.0421 -1.74892 0)
(23.846 -1.38348 0)
(23.845 -1.39258 0)
(23.8444 -1.40174 0)
(23.8437 -1.41088 0)
(23.8429 -1.42001 0)
(23.8422 -1.42914 0)
(23.8415 -1.43826 0)
(23.8409 -1.44737 0)
(23.8403 -1.45646 0)
(23.8397 -1.46555 0)
(23.8391 -1.47463 0)
(23.8386 -1.4837 0)
(23.8381 -1.49275 0)
(23.8377 -1.50179 0)
(23.8372 -1.51082 0)
(23.8368 -1.51984 0)
(23.8364 -1.52885 0)
(23.8361 -1.53784 0)
(23.8358 -1.54683 0)
(23.8354 -1.5558 0)
(23.8352 -1.56475 0)
(23.8349 -1.5737 0)
(23.8347 -1.58263 0)
(23.8345 -1.59154 0)
(23.8343 -1.60042 0)
(23.8341 -1.60928 0)
(23.834 -1.61813 0)
(23.8339 -1.62697 0)
(23.8338 -1.6358 0)
(23.8337 -1.64461 0)
(23.8337 -1.65341 0)
(23.8337 -1.6622 0)
(23.8337 -1.67098 0)
(23.8337 -1.67975 0)
(23.8337 -1.6885 0)
(23.8338 -1.69724 0)
(23.8339 -1.70597 0)
(23.834 -1.71469 0)
(23.8341 -1.7234 0)
(23.8342 -1.73209 0)
(23.8344 -1.74077 0)
(23.8346 -1.74944 0)
(23.8348 -1.75809 0)
(23.835 -1.76673 0)
(23.8353 -1.77536 0)
(23.8356 -1.78397 0)
(23.8359 -1.79257 0)
(23.8362 -1.80115 0)
(23.8366 -1.80972 0)
(23.8369 -1.81828 0)
(23.8373 -1.82682 0)
(23.8378 -1.83535 0)
(23.8382 -1.84386 0)
(23.8387 -1.85236 0)
(23.8392 -1.86084 0)
(23.8397 -1.86931 0)
(23.7895 -1.31751 3.5905e-30)
(23.788 -1.3269 0)
(23.786 -1.33507 0)
(23.7842 -1.34296 0)
(23.7824 -1.35082 0)
(23.7807 -1.3587 0)
(23.7789 -1.36661 0)
(23.7772 -1.37455 0)
(23.7755 -1.38253 0)
(23.7738 -1.39054 0)
(23.7721 -1.39858 0)
(23.7704 -1.40664 0)
(23.7687 -1.41472 0)
(23.7671 -1.42284 0)
(23.7655 -1.43099 0)
(23.7639 -1.43917 0)
(23.7623 -1.44738 0)
(23.7607 -1.45562 0)
(23.7592 -1.46389 0)
(23.7577 -1.47218 0)
(23.7562 -1.4805 0)
(23.7547 -1.48884 0)
(23.7532 -1.49721 0)
(23.7518 -1.5056 0)
(23.7504 -1.51402 0)
(23.749 -1.52245 0)
(23.7477 -1.53091 0)
(23.7464 -1.5394 0)
(23.7451 -1.5479 0)
(23.7439 -1.55642 0)
(23.7427 -1.56496 0)
(23.7415 -1.57352 0)
(23.7403 -1.5821 0)
(23.7392 -1.59069 0)
(23.7381 -1.5993 0)
(23.7371 -1.60792 0)
(23.736 -1.61655 0)
(23.735 -1.6252 0)
(23.7341 -1.63386 0)
(23.7332 -1.64252 0)
(23.7323 -1.6512 0)
(23.7314 -1.65988 0)
(23.7306 -1.66856 0)
(23.7298 -1.67727 0)
(23.7291 -1.68609 0)
(23.7284 -1.69496 0)
(23.7277 -1.70384 0)
(23.7271 -1.71273 0)
(23.7265 -1.72164 0)
(23.7259 -1.73055 0)
(23.7254 -1.73947 0)
(23.7249 -1.74841 0)
(23.7245 -1.75735 0)
(23.7241 -1.7663 0)
(23.7237 -1.77525 0)
(23.7233 -1.78422 0)
(23.5934 -1.30894 0)
(23.5914 -1.31851 0)
(23.5894 -1.32799 0)
(23.5873 -1.33746 0)
(23.5853 -1.34693 0)
(23.5832 -1.35643 0)
(23.5813 -1.36593 0)
(23.5794 -1.37546 0)
(23.5775 -1.385 0)
(23.5757 -1.39455 0)
(23.5739 -1.40411 0)
(23.5722 -1.41368 0)
(23.5705 -1.42327 0)
(23.5688 -1.43286 0)
(23.5672 -1.44246 0)
(23.5657 -1.45205 0)
(23.5642 -1.46163 0)
(23.5628 -1.4712 0)
(23.5614 -1.48079 0)
(23.5601 -1.49054 0)
(23.5588 -1.50033 0)
(23.5576 -1.51014 0)
(23.5564 -1.51996 0)
(23.5553 -1.52979 0)
(23.5542 -1.53963 0)
(23.5531 -1.54947 0)
(23.5521 -1.55933 0)
(23.5512 -1.56919 0)
(23.5503 -1.57906 0)
(23.5494 -1.58894 0)
(23.5486 -1.59882 0)
(23.5478 -1.60871 0)
(23.5471 -1.6186 0)
(23.5464 -1.62849 0)
(23.5458 -1.63839 0)
(23.5452 -1.64829 0)
(23.5446 -1.65819 0)
(23.5441 -1.6681 0)
(23.5436 -1.678 0)
(23.5432 -1.68791 0)
(23.5429 -1.69781 0)
(23.5426 -1.70771 0)
(23.5423 -1.71762 0)
(23.5421 -1.72752 0)
(23.542 -1.73741 0)
(23.5419 -1.74731 0)
(23.5418 -1.7572 0)
(23.5418 -1.76708 0)
(23.5418 -1.77696 0)
(23.5419 -1.78684 0)
(23.542 -1.7967 0)
(23.5422 -1.80656 0)
(23.5424 -1.81642 0)
(23.5427 -1.82627 0)
(23.543 -1.8361 0)
(23.5434 -1.84593 0)
(23.4928 -1.25522 0)
(23.4903 -1.26443 0)
(23.4876 -1.27371 0)
(23.4849 -1.28302 0)
(23.4822 -1.29238 0)
(23.4797 -1.30177 0)
(23.4771 -1.31119 0)
(23.4747 -1.32066 0)
(23.4722 -1.33015 0)
(23.4698 -1.33969 0)
(23.4675 -1.34925 0)
(23.4651 -1.35886 0)
(23.4629 -1.36849 0)
(23.4607 -1.37816 0)
(23.4585 -1.38793 0)
(23.4564 -1.39787 0)
(23.4543 -1.40789 0)
(23.4523 -1.41798 0)
(23.4504 -1.42812 0)
(23.4485 -1.43828 0)
(23.4466 -1.44835 0)
(23.4449 -1.45827 0)
(23.4431 -1.46817 0)
(23.4414 -1.47807 0)
(23.4398 -1.48799 0)
(23.4381 -1.49793 0)
(23.4366 -1.50789 0)
(23.435 -1.51787 0)
(23.4336 -1.52785 0)
(23.4321 -1.53785 0)
(23.4307 -1.54785 0)
(23.4294 -1.55787 0)
(23.4281 -1.56789 0)
(23.4269 -1.57792 0)
(23.4257 -1.58796 0)
(23.4246 -1.59814 0)
(23.4235 -1.60839 0)
(23.4225 -1.61867 0)
(23.4215 -1.62896 0)
(23.4206 -1.63927 0)
(23.4198 -1.64959 0)
(23.4189 -1.65993 0)
(23.4182 -1.67028 0)
(23.4175 -1.68064 0)
(23.4169 -1.69102 0)
(23.4163 -1.7014 0)
(23.4157 -1.7118 0)
(23.4153 -1.7222 0)
(23.4148 -1.73261 0)
(23.4145 -1.74304 0)
(23.4142 -1.75346 0)
(23.4139 -1.7639 0)
(23.4137 -1.77434 0)
(23.4136 -1.78478 0)
(23.4135 -1.79523 0)
(23.4134 -1.80569 0)
(23.3284 -1.21964 2.20167e-30)
(23.3253 -1.23014 0)
(23.3222 -1.24072 0)
(23.319 -1.25134 0)
(23.3158 -1.262 0)
(23.3128 -1.2727 0)
(23.3098 -1.28343 0)
(23.3068 -1.29421 0)
(23.304 -1.30502 0)
(23.3011 -1.31586 0)
(23.2984 -1.32674 0)
(23.2957 -1.33765 0)
(23.2931 -1.3486 0)
(23.2905 -1.35957 0)
(23.288 -1.37058 0)
(23.2855 -1.38174 0)
(23.2831 -1.39311 0)
(23.2808 -1.40457 0)
(23.2785 -1.41608 0)
(23.2762 -1.42747 0)
(23.274 -1.43861 0)
(23.2719 -1.44969 0)
(23.2699 -1.46078 0)
(23.2679 -1.47187 0)
(23.266 -1.48297 0)
(23.2641 -1.49407 0)
(23.2623 -1.5052 0)
(23.2606 -1.51629 0)
(23.259 -1.5276 0)
(23.2574 -1.53898 0)
(23.2559 -1.55038 0)
(23.2545 -1.5618 0)
(23.2531 -1.57324 0)
(23.2519 -1.58469 0)
(23.2507 -1.59616 0)
(23.2495 -1.60764 0)
(23.2485 -1.61913 0)
(23.2475 -1.63064 0)
(23.2466 -1.64215 0)
(23.2457 -1.65367 0)
(23.2449 -1.6652 0)
(23.2442 -1.67674 0)
(23.2436 -1.68829 0)
(23.243 -1.69984 0)
(23.2425 -1.7114 0)
(23.2421 -1.72296 0)
(23.2417 -1.73452 0)
(23.2414 -1.74608 0)
(23.2412 -1.75765 0)
(23.2411 -1.76922 0)
(23.241 -1.78078 0)
(23.241 -1.79234 0)
(23.241 -1.8039 0)
(23.2412 -1.81546 0)
(23.2414 -1.82701 0)
(23.2416 -1.83856 0)
(23.2025 -1.1639 0)
(23.1988 -1.17476 0)
(23.195 -1.18571 0)
(23.1911 -1.19672 0)
(23.1874 -1.20778 0)
(23.1837 -1.21889 0)
(23.1801 -1.23005 0)
(23.1766 -1.24126 0)
(23.1731 -1.25252 0)
(23.1697 -1.26383 0)
(23.1663 -1.27519 0)
(23.163 -1.28659 0)
(23.1598 -1.29804 0)
(23.1567 -1.30954 0)
(23.1536 -1.32107 0)
(23.1506 -1.33266 0)
(23.1476 -1.34428 0)
(23.1447 -1.35594 0)
(23.1419 -1.36764 0)
(23.1391 -1.37938 0)
(23.1364 -1.39116 0)
(23.1337 -1.40298 0)
(23.1312 -1.41483 0)
(23.1287 -1.42672 0)
(23.1263 -1.43864 0)
(23.124 -1.45059 0)
(23.1218 -1.46258 0)
(23.1196 -1.4746 0)
(23.1175 -1.48665 0)
(23.1156 -1.49873 0)
(23.1136 -1.51084 0)
(23.1118 -1.52297 0)
(23.11 -1.53517 0)
(23.1084 -1.54733 0)
(23.1068 -1.55953 0)
(23.1052 -1.57177 0)
(23.1038 -1.58402 0)
(23.1024 -1.5963 0)
(23.1012 -1.6086 0)
(23.1 -1.62091 0)
(23.0988 -1.63324 0)
(23.0978 -1.64559 0)
(23.0968 -1.65796 0)
(23.096 -1.67034 0)
(23.0952 -1.68273 0)
(23.0944 -1.69514 0)
(23.0938 -1.70755 0)
(23.0933 -1.71998 0)
(23.0928 -1.73241 0)
(23.0924 -1.74485 0)
(23.0921 -1.7573 0)
(23.0919 -1.76975 0)
(23.0917 -1.78221 0)
(23.0917 -1.79467 0)
(23.0917 -1.80713 0)
(23.0918 -1.81959 0)
(23.0454 -1.11138 0)
(23.0409 -1.1234 0)
(23.0363 -1.13551 0)
(23.0317 -1.1477 0)
(23.0272 -1.15995 0)
(23.0228 -1.17225 0)
(23.0185 -1.18462 0)
(23.0142 -1.19705 0)
(23.01 -1.20953 0)
(23.0059 -1.22207 0)
(23.0019 -1.23467 0)
(22.998 -1.24731 0)
(22.9941 -1.26002 0)
(22.9903 -1.27277 0)
(22.9866 -1.28557 0)
(22.983 -1.29843 0)
(22.9795 -1.31133 0)
(22.9761 -1.32428 0)
(22.9728 -1.33727 0)
(22.9695 -1.35031 0)
(22.9664 -1.3634 0)
(22.9633 -1.37652 0)
(22.9603 -1.38968 0)
(22.9574 -1.40289 0)
(22.9546 -1.41613 0)
(22.9519 -1.42941 0)
(22.9493 -1.44272 0)
(22.9468 -1.45607 0)
(22.9444 -1.46945 0)
(22.942 -1.48286 0)
(22.9398 -1.49631 0)
(22.9377 -1.50978 0)
(22.9356 -1.52328 0)
(22.9337 -1.53681 0)
(22.9319 -1.55036 0)
(22.9301 -1.56394 0)
(22.9285 -1.57754 0)
(22.9269 -1.59116 0)
(22.9255 -1.6048 0)
(22.9241 -1.61846 0)
(22.9229 -1.63214 0)
(22.9217 -1.64583 0)
(22.9207 -1.65953 0)
(22.9197 -1.67325 0)
(22.9189 -1.68698 0)
(22.9181 -1.70072 0)
(22.9175 -1.71447 0)
(22.9169 -1.72822 0)
(22.9165 -1.74198 0)
(22.9161 -1.75575 0)
(22.9159 -1.76951 0)
(22.9157 -1.78328 0)
(22.9157 -1.79705 0)
(22.9157 -1.81081 0)
(22.9159 -1.82457 0)
(22.9162 -1.83833 0)
(22.9039 -1.04631 0)
(22.8986 -1.05905 0)
(22.8932 -1.0719 0)
(22.8878 -1.08483 0)
(22.8824 -1.09784 0)
(22.8773 -1.11093 0)
(22.8721 -1.12409 0)
(22.8671 -1.13732 0)
(22.8622 -1.15063 0)
(22.8573 -1.164 0)
(22.8526 -1.17744 0)
(22.8479 -1.19095 0)
(22.8434 -1.20453 0)
(22.8389 -1.21817 0)
(22.8345 -1.23187 0)
(22.8302 -1.24564 0)
(22.8261 -1.25946 0)
(22.822 -1.27335 0)
(22.818 -1.2873 0)
(22.8141 -1.3013 0)
(22.8104 -1.31536 0)
(22.8067 -1.32947 0)
(22.8031 -1.34363 0)
(22.7997 -1.35785 0)
(22.7963 -1.37211 0)
(22.7931 -1.38643 0)
(22.7899 -1.40079 0)
(22.7869 -1.41519 0)
(22.784 -1.42964 0)
(22.7812 -1.44413 0)
(22.7785 -1.45867 0)
(22.7759 -1.47324 0)
(22.7734 -1.48785 0)
(22.7711 -1.50249 0)
(22.7688 -1.51717 0)
(22.7667 -1.53188 0)
(22.7647 -1.54662 0)
(22.7628 -1.56139 0)
(22.761 -1.57619 0)
(22.7593 -1.59101 0)
(22.7578 -1.60586 0)
(22.7563 -1.62073 0)
(22.755 -1.63562 0)
(22.7538 -1.65053 0)
(22.7527 -1.66546 0)
(22.7518 -1.6804 0)
(22.7509 -1.69536 0)
(22.7502 -1.71032 0)
(22.7496 -1.7253 0)
(22.7491 -1.74029 0)
(22.7487 -1.75528 0)
(22.7484 -1.77028 0)
(22.7483 -1.78528 0)
(22.7483 -1.80028 0)
(22.7484 -1.81528 0)
(22.7486 -1.83028 0)
(22.7478 -0.979036 0)
(22.7415 -0.992928 0)
(22.7351 -1.00696 0)
(22.7287 -1.02109 0)
(22.7224 -1.03532 0)
(22.7163 -1.04964 0)
(22.7102 -1.06404 0)
(22.7043 -1.07853 0)
(22.6985 -1.09311 0)
(22.6927 -1.10777 0)
(22.6871 -1.12251 0)
(22.6816 -1.13733 0)
(22.6762 -1.15223 0)
(22.671 -1.16721 0)
(22.6658 -1.18227 0)
(22.6607 -1.1974 0)
(22.6558 -1.2126 0)
(22.651 -1.22787 0)
(22.6463 -1.24322 0)
(22.6417 -1.25863 0)
(22.6373 -1.2741 0)
(22.633 -1.28964 0)
(22.6288 -1.30525 0)
(22.6247 -1.32091 0)
(22.6208 -1.33664 0)
(22.6169 -1.35241 0)
(22.6133 -1.36825 0)
(22.6097 -1.38414 0)
(22.6063 -1.40008 0)
(22.603 -1.41607 0)
(22.5998 -1.4321 0)
(22.5968 -1.44818 0)
(22.5939 -1.46431 0)
(22.5911 -1.48047 0)
(22.5885 -1.49668 0)
(22.586 -1.51292 0)
(22.5837 -1.5292 0)
(22.5815 -1.54551 0)
(22.5794 -1.56185 0)
(22.5774 -1.57822 0)
(22.5757 -1.59462 0)
(22.574 -1.61104 0)
(22.5725 -1.62749 0)
(22.5711 -1.64395 0)
(22.5699 -1.66044 0)
(22.5688 -1.67694 0)
(22.5678 -1.69345 0)
(22.567 -1.70998 0)
(22.5664 -1.72652 0)
(22.5658 -1.74306 0)
(22.5655 -1.75961 0)
(22.5652 -1.77616 0)
(22.5651 -1.79271 0)
(22.5652 -1.80926 0)
(22.5654 -1.82581 0)
(22.5657 -1.84236 0)
(22.5983 -0.902249 1.54026e-30)
(22.5909 -0.917111 0)
(22.5835 -0.932136 0)
(22.576 -0.947282 0)
(22.5687 -0.96254 0)
(22.5616 -0.977906 0)
(22.5545 -0.993378 0)
(22.5476 -1.00896 0)
(22.5408 -1.02464 0)
(22.5341 -1.04042 0)
(22.5276 -1.0563 0)
(22.5211 -1.07228 0)
(22.5148 -1.08835 0)
(22.5086 -1.10452 0)
(22.5026 -1.12079 0)
(22.4967 -1.13714 0)
(22.4909 -1.15359 0)
(22.4853 -1.17012 0)
(22.4798 -1.18673 0)
(22.4744 -1.20343 0)
(22.4692 -1.22021 0)
(22.4641 -1.23707 0)
(22.4592 -1.254 0)
(22.4544 -1.27101 0)
(22.4498 -1.2881 0)
(22.4453 -1.30525 0)
(22.441 -1.32247 0)
(22.4368 -1.33976 0)
(22.4327 -1.35711 0)
(22.4289 -1.37452 0)
(22.4251 -1.39199 0)
(22.4216 -1.40952 0)
(22.4181 -1.4271 0)
(22.4149 -1.44473 0)
(22.4118 -1.46242 0)
(22.4088 -1.48015 0)
(22.4061 -1.49792 0)
(22.4034 -1.51574 0)
(22.401 -1.5336 0)
(22.3987 -1.55149 0)
(22.3966 -1.56942 0)
(22.3946 -1.58738 0)
(22.3928 -1.60537 0)
(22.3912 -1.62338 0)
(22.3897 -1.64142 0)
(22.3884 -1.65949 0)
(22.3872 -1.67757 0)
(22.3863 -1.69566 0)
(22.3855 -1.71378 0)
(22.3848 -1.7319 0)
(22.3843 -1.75003 0)
(22.384 -1.76816 0)
(22.3839 -1.7863 0)
(22.3839 -1.80444 0)
(22.3841 -1.82258 0)
(22.3845 -1.84071 0)
(22.4421 -0.820625 0)
(22.4335 -0.836719 0)
(22.4248 -0.853003 0)
(22.4161 -0.869432 0)
(22.4076 -0.885993 0)
(22.3993 -0.902684 0)
(22.3911 -0.919502 0)
(22.383 -0.936446 0)
(22.3751 -0.953513 0)
(22.3673 -0.970701 0)
(22.3596 -0.988009 0)
(22.3521 -1.00543 0)
(22.3448 -1.02297 0)
(22.3375 -1.04063 0)
(22.3305 -1.05839 0)
(22.3236 -1.07627 0)
(22.3169 -1.09425 0)
(22.3103 -1.11233 0)
(22.3039 -1.13051 0)
(22.2976 -1.1488 0)
(22.2915 -1.16718 0)
(22.2856 -1.18566 0)
(22.2798 -1.20422 0)
(22.2743 -1.22288 0)
(22.2688 -1.24162 0)
(22.2636 -1.26045 0)
(22.2585 -1.27936 0)
(22.2537 -1.29835 0)
(22.2489 -1.31741 0)
(22.2444 -1.33654 0)
(22.2401 -1.35575 0)
(22.2359 -1.37502 0)
(22.2319 -1.39436 0)
(22.2281 -1.41376 0)
(22.2245 -1.43322 0)
(22.2211 -1.45273 0)
(22.2179 -1.4723 0)
(22.2148 -1.49192 0)
(22.2119 -1.51158 0)
(22.2093 -1.53129 0)
(22.2068 -1.55103 0)
(22.2045 -1.57082 0)
(22.2024 -1.59064 0)
(22.2006 -1.61049 0)
(22.1989 -1.63037 0)
(22.1974 -1.65027 0)
(22.196 -1.67019 0)
(22.1949 -1.69014 0)
(22.194 -1.7101 0)
(22.1933 -1.73007 0)
(22.1928 -1.75005 0)
(22.1925 -1.77004 0)
(22.1923 -1.79002 0)
(22.1924 -1.81001 0)
(22.1927 -1.82999 0)
(22.1932 -1.84997 0)
(22.2884 -0.730763 -1.76042e-30)
(22.2785 -0.748019 0)
(22.2685 -0.765496 0)
(22.2585 -0.783143 0)
(22.2487 -0.800949 0)
(22.239 -0.818908 0)
(22.2295 -0.837019 0)
(22.2202 -0.85528 0)
(22.211 -0.873687 0)
(22.202 -0.89224 0)
(22.1932 -0.910935 0)
(22.1845 -0.92977 0)
(22.176 -0.948743 0)
(22.1676 -0.967851 0)
(22.1595 -0.987092 0)
(22.1515 -1.00646 0)
(22.1437 -1.02596 0)
(22.1361 -1.04558 0)
(22.1286 -1.06533 0)
(22.1214 -1.08519 0)
(22.1143 -1.10517 0)
(22.1074 -1.12527 0)
(22.1007 -1.14547 0)
(22.0943 -1.16578 0)
(22.088 -1.1862 0)
(22.0819 -1.20671 0)
(22.076 -1.22733 0)
(22.0703 -1.24804 0)
(22.0648 -1.26884 0)
(22.0596 -1.28973 0)
(22.0545 -1.31071 0)
(22.0497 -1.33176 0)
(22.045 -1.3529 0)
(22.0406 -1.37411 0)
(22.0364 -1.39539 0)
(22.0324 -1.41674 0)
(22.0286 -1.43815 0)
(22.0251 -1.45963 0)
(22.0218 -1.48116 0)
(22.0186 -1.50274 0)
(22.0158 -1.52438 0)
(22.0131 -1.54606 0)
(22.0107 -1.56779 0)
(22.0084 -1.58955 0)
(22.0065 -1.61135 0)
(22.0047 -1.63318 0)
(22.0032 -1.65504 0)
(22.0019 -1.67693 0)
(22.0008 -1.69883 0)
(21.9999 -1.72075 0)
(21.9993 -1.74268 0)
(21.999 -1.76462 0)
(21.9988 -1.78656 0)
(21.9989 -1.80851 0)
(21.9992 -1.83045 0)
(21.9997 -1.85239 0)
(22.1317 -0.634812 0)
(22.1202 -0.653397 0)
(22.1087 -0.672236 0)
(22.0972 -0.691276 0)
(22.0859 -0.710502 0)
(22.0748 -0.72991 0)
(22.0639 -0.749497 0)
(22.0531 -0.769261 0)
(22.0425 -0.789199 0)
(22.0322 -0.809309 0)
(22.0219 -0.829587 0)
(22.0119 -0.85003 0)
(22.0021 -0.870637 0)
(21.9925 -0.891403 0)
(21.9831 -0.912327 0)
(21.9739 -0.933404 0)
(21.9649 -0.954631 0)
(21.9561 -0.976006 0)
(21.9475 -0.997525 0)
(21.9391 -1.01919 0)
(21.9309 -1.04098 0)
(21.923 -1.06291 0)
(21.9153 -1.08498 0)
(21.9078 -1.10717 0)
(21.9005 -1.12948 0)
(21.8935 -1.15191 0)
(21.8867 -1.17446 0)
(21.8801 -1.19712 0)
(21.8738 -1.21989 0)
(21.8677 -1.24276 0)
(21.8618 -1.26574 0)
(21.8562 -1.28881 0)
(21.8509 -1.31197 0)
(21.8458 -1.33523 0)
(21.8409 -1.35856 0)
(21.8363 -1.38198 0)
(21.8319 -1.40548 0)
(21.8278 -1.42905 0)
(21.824 -1.45269 0)
(21.8204 -1.47639 0)
(21.817 -1.50015 0)
(21.8139 -1.52397 0)
(21.8111 -1.54783 0)
(21.8086 -1.57175 0)
(21.8063 -1.5957 0)
(21.8042 -1.6197 0)
(21.8025 -1.64373 0)
(21.801 -1.66778 0)
(21.7997 -1.69187 0)
(21.7988 -1.71597 0)
(21.7981 -1.74008 0)
(21.7976 -1.76421 0)
(21.7975 -1.78834 0)
(21.7976 -1.81248 0)
(21.798 -1.83661 0)
(21.7986 -1.86073 0)
(21.9759 -0.531283 2.01081e-30)
(21.9628 -0.551189 0)
(21.9496 -0.571388 0)
(21.9365 -0.59182 0)
(21.9236 -0.612471 0)
(21.9109 -0.633335 0)
(21.8984 -0.654409 0)
(21.8861 -0.675691 0)
(21.874 -0.697177 0)
(21.8621 -0.718864 0)
(21.8504 -0.740748 0)
(21.839 -0.762828 0)
(21.8277 -0.785098 0)
(21.8167 -0.807556 0)
(21.8059 -0.830198 0)
(21.7954 -0.853021 0)
(21.785 -0.876021 0)
(21.7749 -0.899194 0)
(21.7651 -0.922536 0)
(21.7555 -0.946044 0)
(21.7461 -0.969714 0)
(21.737 -0.993541 0)
(21.7281 -1.01752 0)
(21.7195 -1.04165 0)
(21.7112 -1.06593 0)
(21.7031 -1.09035 0)
(21.6953 -1.1149 0)
(21.6878 -1.13959 0)
(21.6805 -1.1644 0)
(21.6735 -1.18934 0)
(21.6667 -1.2144 0)
(21.6603 -1.23958 0)
(21.6541 -1.26486 0)
(21.6482 -1.29025 0)
(21.6426 -1.31574 0)
(21.6373 -1.34133 0)
(21.6323 -1.36701 0)
(21.6275 -1.39278 0)
(21.6231 -1.41863 0)
(21.6189 -1.44456 0)
(21.615 -1.47056 0)
(21.6115 -1.49663 0)
(21.6082 -1.52276 0)
(21.6053 -1.54894 0)
(21.6026 -1.57518 0)
(21.6002 -1.60147 0)
(21.5982 -1.6278 0)
(21.5964 -1.65417 0)
(21.595 -1.68057 0)
(21.5939 -1.70699 0)
(21.593 -1.73343 0)
(21.5925 -1.75989 0)
(21.5923 -1.78636 0)
(21.5924 -1.81284 0)
(21.5928 -1.83931 0)
(21.5935 -1.86578 0)
(21.819 -0.421244 0)
(21.804 -0.442588 0)
(21.789 -0.464265 0)
(21.7741 -0.486212 0)
(21.7594 -0.508413 0)
(21.7449 -0.530864 0)
(21.7307 -0.553559 0)
(21.7167 -0.576495 0)
(21.7029 -0.599668 0)
(21.6894 -0.623075 0)
(21.6761 -0.646712 0)
(21.663 -0.670575 0)
(21.6502 -0.69466 0)
(21.6376 -0.718963 0)
(21.6253 -0.74348 0)
(21.6133 -0.768207 0)
(21.6015 -0.793139 0)
(21.59 -0.818272 0)
(21.5788 -0.843601 0)
(21.5678 -0.869123 0)
(21.5571 -0.894832 0)
(21.5467 -0.920724 0)
(21.5366 -0.946794 0)
(21.5268 -0.973039 0)
(21.5172 -0.999452 0)
(21.508 -1.02603 0)
(21.4991 -1.05277 0)
(21.4905 -1.07966 0)
(21.4821 -1.1067 0)
(21.4741 -1.13388 0)
(21.4664 -1.16121 0)
(21.459 -1.18867 0)
(21.452 -1.21626 0)
(21.4452 -1.24397 0)
(21.4388 -1.2718 0)
(21.4327 -1.29975 0)
(21.4269 -1.3278 0)
(21.4215 -1.35596 0)
(21.4164 -1.38421 0)
(21.4116 -1.41256 0)
(21.4071 -1.44099 0)
(21.403 -1.46951 0)
(21.3993 -1.49809 0)
(21.3958 -1.52675 0)
(21.3928 -1.55547 0)
(21.39 -1.58425 0)
(21.3877 -1.61309 0)
(21.3856 -1.64196 0)
(21.3839 -1.67088 0)
(21.3826 -1.69983 0)
(21.3816 -1.72881 0)
(21.381 -1.75781 0)
(21.3807 -1.78683 0)
(21.3808 -1.81585 0)
(21.3813 -1.84488 0)
(21.3821 -1.8739 0)
(21.6625 -0.304191 0)
(21.6456 -0.327002 0)
(21.6286 -0.350192 0)
(21.6117 -0.373692 0)
(21.5951 -0.397485 0)
(21.5788 -0.421565 0)
(21.5627 -0.445928 0)
(21.5468 -0.470568 0)
(21.5312 -0.495482 0)
(21.5159 -0.520665 0)
(21.5008 -0.546113 0)
(21.4861 -0.57182 0)
(21.4716 -0.597783 0)
(21.4573 -0.623996 0)
(21.4434 -0.650455 0)
(21.4298 -0.677155 0)
(21.4164 -0.70409 0)
(21.4034 -0.731256 0)
(21.3907 -0.758647 0)
(21.3782 -0.786259 0)
(21.3661 -0.814086 0)
(21.3543 -0.842123 0)
(21.3429 -0.870365 0)
(21.3317 -0.898806 0)
(21.3209 -0.927442 0)
(21.3104 -0.956266 0)
(21.3003 -0.985273 0)
(21.2905 -1.01446 0)
(21.281 -1.04382 0)
(21.2719 -1.07334 0)
(21.2632 -1.10303 0)
(21.2548 -1.13287 0)
(21.2467 -1.16286 0)
(21.239 -1.193 0)
(21.2317 -1.22327 0)
(21.2247 -1.25368 0)
(21.2181 -1.28422 0)
(21.2119 -1.31487 0)
(21.206 -1.34564 0)
(21.2006 -1.37652 0)
(21.1955 -1.40751 0)
(21.1907 -1.43859 0)
(21.1864 -1.46976 0)
(21.1825 -1.50102 0)
(21.1789 -1.53235 0)
(21.1757 -1.56376 0)
(21.1729 -1.59523 0)
(21.1706 -1.62676 0)
(21.1686 -1.65834 0)
(21.167 -1.68997 0)
(21.1658 -1.72164 0)
(21.165 -1.75333 0)
(21.1646 -1.78505 0)
(21.1647 -1.81679 0)
(21.1651 -1.84854 0)
(21.1659 -1.88029 0)
(21.5057 -0.180794 0)
(21.4866 -0.205169 0)
(21.4675 -0.229972 0)
(21.4485 -0.255128 0)
(21.4298 -0.28062 0)
(21.4114 -0.306441 0)
(21.3933 -0.332584 0)
(21.3755 -0.359044 0)
(21.3579 -0.385817 0)
(21.3407 -0.412896 0)
(21.3238 -0.440276 0)
(21.3071 -0.467952 0)
(21.2908 -0.495917 0)
(21.2748 -0.524167 0)
(21.2591 -0.552695 0)
(21.2438 -0.581496 0)
(21.2288 -0.610563 0)
(21.2141 -0.639891 0)
(21.1998 -0.669475 0)
(21.1858 -0.699307 0)
(21.1721 -0.729383 0)
(21.1589 -0.759695 0)
(21.1459 -0.790239 0)
(21.1334 -0.821008 0)
(21.1212 -0.851997 0)
(21.1094 -0.883199 0)
(21.098 -0.914608 0)
(21.0869 -0.946218 0)
(21.0762 -0.978024 0)
(21.0659 -1.01002 0)
(21.056 -1.0422 0)
(21.0465 -1.07455 0)
(21.0374 -1.10708 0)
(21.0287 -1.13977 0)
(21.0204 -1.17263 0)
(21.0125 -1.20563 0)
(21.005 -1.23878 0)
(20.9979 -1.27207 0)
(20.9912 -1.3055 0)
(20.985 -1.33906 0)
(20.9792 -1.37273 0)
(20.9738 -1.40652 0)
(20.9688 -1.44042 0)
(20.9642 -1.47443 0)
(20.9601 -1.50852 0)
(20.9564 -1.54271 0)
(20.9532 -1.57698 0)
(20.9504 -1.61132 0)
(20.948 -1.64573 0)
(20.9461 -1.6802 0)
(20.9447 -1.71472 0)
(20.9437 -1.74928 0)
(20.9431 -1.78388 0)
(20.943 -1.81852 0)
(20.9434 -1.85317 0)
(20.9442 -1.88783 0)
(21.3492 -0.0510967 0)
(21.3278 -0.0770995 0)
(21.3064 -0.103581 0)
(21.2851 -0.130464 0)
(21.2642 -0.157728 0)
(21.2437 -0.185364 0)
(21.2234 -0.213365 0)
(21.2035 -0.241725 0)
(21.1839 -0.270437 0)
(21.1646 -0.299495 0)
(21.1456 -0.328891 0)
(21.1271 -0.358618 0)
(21.1088 -0.388671 0)
(21.091 -0.419042 0)
(21.0734 -0.449724 0)
(21.0563 -0.48071 0)
(21.0395 -0.511994 0)
(21.0231 -0.543568 0)
(21.0071 -0.575426 0)
(20.9915 -0.60756 0)
(20.9763 -0.639965 0)
(20.9614 -0.672633 0)
(20.947 -0.705557 0)
(20.933 -0.738732 0)
(20.9193 -0.77215 0)
(20.9061 -0.805805 0)
(20.8933 -0.83969 0)
(20.8809 -0.8738 0)
(20.869 -0.908127 0)
(20.8575 -0.942665 0)
(20.8463 -0.977408 0)
(20.8357 -1.01235 0)
(20.8254 -1.04749 0)
(20.8156 -1.08281 0)
(20.8063 -1.11831 0)
(20.7974 -1.15398 0)
(20.7889 -1.18983 0)
(20.7809 -1.22583 0)
(20.7733 -1.26199 0)
(20.7662 -1.2983 0)
(20.7596 -1.33475 0)
(20.7534 -1.37134 0)
(20.7477 -1.40805 0)
(20.7425 -1.44489 0)
(20.7377 -1.48185 0)
(20.7334 -1.51891 0)
(20.7296 -1.55607 0)
(20.7263 -1.59333 0)
(20.7235 -1.63068 0)
(20.7212 -1.66811 0)
(20.7194 -1.70561 0)
(20.7181 -1.74317 0)
(20.7173 -1.78079 0)
(20.717 -1.81845 0)
(20.7172 -1.85615 0)
(20.7179 -1.89389 0)
(21.1925 0.0843199 -1.39667e-30)
(21.1686 0.0565822 0)
(21.1448 0.0283112 0)
(21.1211 -0.000411591 0)
(21.0979 -0.0295635 0)
(21.075 -0.0591337 0)
(21.0525 -0.0891135 0)
(21.0304 -0.119494 0)
(21.0086 -0.150268 0)
(20.9872 -0.181426 0)
(20.9662 -0.21296 0)
(20.9455 -0.244862 0)
(20.9253 -0.277122 0)
(20.9055 -0.309733 0)
(20.8861 -0.342686 0)
(20.867 -0.375973 0)
(20.8485 -0.409586 0)
(20.8303 -0.443516 0)
(20.8125 -0.477756 0)
(20.7952 -0.512297 0)
(20.7784 -0.547132 0)
(20.7619 -0.582254 0)
(20.7459 -0.617654 0)
(20.7304 -0.653325 0)
(20.7153 -0.689261 0)
(20.7006 -0.725454 0)
(20.6864 -0.761898 0)
(20.6726 -0.798585 0)
(20.6594 -0.835509 0)
(20.6465 -0.872664 0)
(20.6342 -0.910043 0)
(20.6223 -0.94764 0)
(20.6109 -0.985449 0)
(20.5999 -1.02346 0)
(20.5895 -1.06168 0)
(20.5795 -1.10009 0)
(20.57 -1.13868 0)
(20.561 -1.17746 0)
(20.5524 -1.21642 0)
(20.5444 -1.25554 0)
(20.5369 -1.29483 0)
(20.5299 -1.33428 0)
(20.5233 -1.37388 0)
(20.5173 -1.41363 0)
(20.5119 -1.45352 0)
(20.5069 -1.49354 0)
(20.5025 -1.53368 0)
(20.4986 -1.57395 0)
(20.4952 -1.61433 0)
(20.4923 -1.65481 0)
(20.4901 -1.69539 0)