/*--------------------------------*- C++ -*----------------------------------*\
  =========                 |
  \\      /  F ield         | OpenFOAM: The Open Source CFD Toolbox
   \\    /   O peration     | Website:  https://openfoam.org
    \\  /    A nd           | Version:  8
     \\/     M anipulation  |
\*---------------------------------------------------------------------------*/
FoamFile
{
    version     2.0;
    format      ascii;
    class       volScalarField;
    location    "0.5";
    object      nuTilda;
}
// * * * * * * * * * * * * * * * * * * * * * * * * * * * * * * * * * * * * * //

dimensions      [0 2 -1 0 0 0 0];

internalField   nonuniform List<scalar> 
115200
(
0.000219662
0.000225832
0.000231611
0.00023705
0.000242201
0.000247114
0.000251837
0.000256406
0.000260829
0.000265074
0.000269079
0.000272809
0.000276271
0.000279477
0.000282439
0.000285168
0.000287674
0.000289966
0.000292053
0.000293942
0.000295639
0.000297148
0.000298471
0.000299606
0.000300548
0.000301287
0.000301809
0.000302103
0.00030221
0.000302221
0.000302134
0.000301956
0.000301689
0.000301337
0.000300903
0.000300389
0.000299796
0.000299126
0.00029838
0.00029756
0.000296667
0.000295702
0.000294666
0.00029356
0.000292384
0.00029114
0.000289828
0.000288449
0.000287004
0.000285493
0.000283916
0.000282275
0.00028057
0.000278801
0.000276968
0.000275072
0.000273114
0.000271092
0.000269008
0.000266862
0.000264653
0.000262381
0.000260047
0.000257649
0.000255188
0.000252664
0.000250075
0.000247422
0.000244702
0.000241917
0.000239063
0.000236142
0.000233151
0.000230088
0.000226953
0.000223743
0.000220457
0.000217091
0.000213643
0.000210108
0.000206484
0.000202766
0.000198951
0.000195033
0.000191006
0.000186864
0.0001826
0.000178205
0.000173668
0.000168979
0.000164124
0.000159091
0.000153867
0.000148451
0.000142878
0.000137278
0.000132001
0.000127724
0.000125138
0.000124023
0.000345545
0.000343843
0.000341624
0.000338978
0.000336051
0.000333071
0.000330408
0.00032865
0.000328602
0.000330859
0.0003346
0.000338525
0.000342413
0.000346264
0.000350087
0.000353889
0.000357679
0.000361466
0.000365256
0.000369059
0.000372886
0.000376745
0.000380651
0.000384614
0.000388645
0.000392726
0.000396856
0.000401039
0.000405233
0.000409353
0.000413409
0.000417403
0.000421338
0.000425216
0.000429038
0.000432806
0.000436519
0.00044018
0.000443789
0.000447346
0.000450852
0.000454307
0.000457711
0.000461064
0.000464367
0.000467619
0.000470821
0.000473972
0.000477073
0.000480124
0.000483124
0.000486073
0.000488972
0.00049182
0.000494617
0.000497364
0.000500059
0.000502704
0.000505297
0.000507839
0.000510329
0.000512768
0.000515156
0.000517492
0.000519775
0.000522007
0.000524187
0.000526315
0.00052839
0.000530414
0.000532385
0.000534305
0.000536174
0.000537993
0.000539762
0.000541484
0.000543161
0.000544795
0.000546376
0.000547906
0.000549383
0.000550809
0.000552184
0.000553509
0.000554785
0.000556013
0.000557195
0.000558332
0.000559426
0.000560478
0.000561487
0.000562453
0.000563373
0.000564241
0.000565044
0.00056576
0.000566356
0.000566799
0.000567073
0.000567205
0.000531471
0.000544138
0.000556777
0.0005694
0.00058201
0.000594603
0.000607169
0.000619685
0.000632113
0.000644394
0.00065647
0.000668313
0.000679928
0.000691324
0.00070251
0.000713495
0.000724287
0.000734892
0.000745318
0.000755569
0.00076565
0.000775562
0.000785307
0.000794881
0.000804287
0.000813552
0.000822693
0.00083171
0.000840602
0.000849364
0.000857997
0.0008665
0.000874875
0.000883124
0.000891248
0.000899248
0.000907126
0.000914882
0.000922517
0.000930033
0.000937429
0.000944707
0.000951867
0.000958909
0.000965833
0.000972639
0.000979328
0.0009859
0.000992354
0.000998691
0.00100491
0.00101101
0.001017
0.00102286
0.00102861
0.00103424
0.00103975
0.00104515
0.00105042
0.00105558
0.00106062
0.00106554
0.00107034
0.00107502
0.00107958
0.00108402
0.00108833
0.00109253
0.00109661
0.00110056
0.0011044
0.00110811
0.0011117
0.00111516
0.00111851
0.00112173
0.00112483
0.0011278
0.00113065
0.00113338
0.00113599
0.00113847
0.00114082
0.00114306
0.00114517
0.00114716
0.00114903
0.00115077
0.00115239
0.0011539
0.00115528
0.00115655
0.00115768
0.00115869
0.00115956
0.0011603
0.0011609
0.00116136
0.00116168
0.00116186
0.000868692
0.000890489
0.000911836
0.000932759
0.000953268
0.000973372
0.00099308
0.0010124
0.00103135
0.00104995
0.00106821
0.00108616
0.0011038
0.00112116
0.00113823
0.00115502
0.00117155
0.00118783
0.00120385
0.00121963
0.00123517
0.00125049
0.00126559
0.00128047
0.00129514
0.00130961
0.00132387
0.00133792
0.00135178
0.00136544
0.00137891
0.00139217
0.00140524
0.00141812
0.00143081
0.00144331
0.00145561
0.00146773
0.00147967
0.00149141
0.00150298
0.00151435
0.00152555
0.00153655
0.00154738
0.00155802
0.00156847
0.00157874
0.00158883
0.00159874
0.00160846
0.00161799
0.00162734
0.00163651
0.00164549
0.00165429
0.0016629
0.00167132
0.00167956
0.00168761
0.00169547
0.00170315
0.00171064
0.00171795
0.00172507
0.001732
0.00173874
0.00174529
0.00175165
0.00175782
0.0017638
0.00176958
0.00177518
0.00178058
0.00178579
0.00179081
0.00179564
0.00180027
0.00180471
0.00180895
0.001813
0.00181686
0.00182052
0.00182399
0.00182726
0.00183034
0.00183322
0.00183591
0.0018384
0.00184069
0.00184279
0.00184469
0.00184639
0.00184789
0.00184919
0.00185028
0.00185117
0.00185186
0.00185234
0.00185262
0.00126945
0.00129823
0.0013265
0.00135428
0.00138161
0.00140849
0.00143493
0.00146096
0.00148657
0.00151179
0.00153663
0.0015611
0.0015852
0.00160895
0.00163235
0.00165542
0.00167815
0.00170055
0.00172263
0.00174438
0.00176583
0.00178698
0.00180783
0.00182839
0.00184866
0.00186865
0.00188836
0.0019078
0.00192696
0.00194586
0.00196448
0.00198285
0.00200095
0.00201878
0.00203636
0.00205367
0.00207073
0.00208752
0.00210406
0.00212035
0.00213637
0.00215215
0.00216766
0.00218292
0.00219793
0.00221268
0.00222718
0.00224142
0.0022554
0.00226914
0.00228261
0.00229583
0.00230879
0.00232149
0.00233394
0.00234613
0.00235806
0.00236974
0.00238115
0.0023923
0.0024032
0.00241383
0.0024242
0.00243431
0.00244416
0.00245374
0.00246307
0.00247212
0.00248092
0.00248944
0.0024977
0.0025057
0.00251343
0.00252089
0.00252808
0.00253501
0.00254167
0.00254806
0.00255418
0.00256003
0.00256561
0.00257092
0.00257596
0.00258073
0.00258522
0.00258945
0.0025934
0.00259708
0.00260049
0.00260363
0.00260648
0.00260907
0.00261138
0.00261341
0.00261517
0.00261665
0.00261785
0.00261877
0.00261942
0.00261979
0.00171901
0.00175502
0.00179051
0.00182548
0.00185994
0.00189391
0.0019274
0.00196041
0.00199295
0.00202503
0.00205667
0.00208786
0.00211863
0.00214897
0.00217889
0.00220841
0.00223752
0.00226624
0.00229457
0.00232251
0.00235008
0.00237727
0.0024041
0.00243057
0.00245668
0.00248243
0.00250784
0.00253289
0.00255761
0.00258198
0.00260602
0.00262971
0.00265307
0.0026761
0.00269879
0.00272115
0.00274317
0.00276487
0.00278623
0.00280727
0.00282797
0.00284835
0.00286839
0.00288811
0.0029075
0.00292656
0.00294529
0.00296368
0.00298175
0.00299949
0.0030169
0.00303397
0.00305072
0.00306713
0.0030832
0.00309895
0.00311435
0.00312943
0.00314417
0.00315857
0.00317263
0.00318636
0.00319975
0.0032128
0.0032255
0.00323787
0.0032499
0.00326158
0.00327293
0.00328392
0.00329458
0.00330489
0.00331485
0.00332447
0.00333375
0.00334267
0.00335125
0.00335948
0.00336736
0.0033749
0.00338208
0.00338891
0.00339539
0.00340153
0.00340731
0.00341274
0.00341781
0.00342253
0.0034269
0.00343092
0.00343458
0.00343789
0.00344084
0.00344344
0.00344568
0.00344756
0.00344909
0.00345026
0.00345107
0.00345153
0.00221522
0.00225853
0.00230124
0.00234339
0.002385
0.00242608
0.00246664
0.00250668
0.00254621
0.00258523
0.00262375
0.00266178
0.00269933
0.00273639
0.00277298
0.0028091
0.00284476
0.00287996
0.00291471
0.00294901
0.00298287
0.00301629
0.00304927
0.00308182
0.00311395
0.00314565
0.00317693
0.00320779
0.00323824
0.00326827
0.00329789
0.0033271
0.00335589
0.00338428
0.00341226
0.00343983
0.003467
0.00349376
0.00352012
0.00354606
0.00357161
0.00359675
0.00362148
0.0036458
0.00366973
0.00369324
0.00371635
0.00373905
0.00376134
0.00378323
0.0038047
0.00382577
0.00384642
0.00386667
0.0038865
0.00390592
0.00392493
0.00394352
0.0039617
0.00397946
0.0039968
0.00401373
0.00403024
0.00404633
0.004062
0.00407724
0.00409207
0.00410647
0.00412045
0.00413401
0.00414714
0.00415984
0.00417212
0.00418397
0.0041954
0.00420639
0.00421695
0.00422709
0.00423679
0.00424606
0.00425491
0.00426331
0.00427129
0.00427883
0.00428594
0.00429261
0.00429885
0.00430465
0.00431002
0.00431495
0.00431944
0.0043235
0.00432712
0.0043303
0.00433304
0.00433534
0.00433721
0.00433863
0.00433962
0.00434016
0.00275502
0.00280566
0.00285567
0.00290509
0.00295393
0.00300221
0.00304992
0.00309708
0.00314368
0.00318974
0.00323525
0.00328021
0.00332464
0.00336854
0.00341191
0.00345475
0.00349707
0.00353887
0.00358015
0.00362093
0.00366119
0.00370096
0.00374022
0.00377898
0.00381725
0.00385502
0.0038923
0.00392909
0.00396539
0.0040012
0.00403653
0.00407137
0.00410573
0.0041396
0.004173
0.00420591
0.00423833
0.00427028
0.00430174
0.00433272
0.00436322
0.00439323
0.00442277
0.00445181
0.00448038
0.00450846
0.00453605
0.00456316
0.00458978
0.00461591
0.00464156
0.00466671
0.00469138
0.00471555
0.00473923
0.00476242
0.00478511
0.00480731
0.00482901
0.00485021
0.00487092
0.00489113
0.00491083
0.00493004
0.00494874
0.00496694
0.00498463
0.00500182
0.0050185
0.00503468
0.00505034
0.0050655
0.00508015
0.00509429
0.00510791
0.00512103
0.00513362
0.00514571
0.00515728
0.00516834
0.00517888
0.0051889
0.0051984
0.00520739
0.00521586
0.00522381
0.00523124
0.00523815
0.00524454
0.0052504
0.00525575
0.00526058
0.00526488
0.00526866
0.00527191
0.00527465
0.00527686
0.00527855
0.00527971
0.00528035
0.00333655
0.00339462
0.00345202
0.00350878
0.00356494
0.00362049
0.00367544
0.00372979
0.00378355
0.00383671
0.00388928
0.00394126
0.00399265
0.00404346
0.00409368
0.00414332
0.00419238
0.00424086
0.00428877
0.00433611
0.00438287
0.00442906
0.00447468
0.00451974
0.00456423
0.00460816
0.00465153
0.00469434
0.00473658
0.00477827
0.00481939
0.00485996
0.00489997
0.00493942
0.00497831
0.00501664
0.00505442
0.00509163
0.00512829
0.00516439
0.00519992
0.0052349
0.00526931
0.00530316
0.00533645
0.00536917
0.00540133
0.00543292
0.00546394
0.00549439
0.00552428
0.00555359
0.00558234
0.00561051
0.0056381
0.00566512
0.00569157
0.00571743
0.00574272
0.00576743
0.00579155
0.0058151
0.00583805
0.00586043
0.00588222
0.00590342
0.00592403
0.00594405
0.00596348
0.00598232
0.00600057
0.00601822
0.00603528
0.00605175
0.00606761
0.00608288
0.00609755
0.00611162
0.00612509
0.00613796
0.00615023
0.00616189
0.00617295
0.00618341
0.00619327
0.00620251
0.00621116
0.00621919
0.00622662
0.00623345
0.00623966
0.00624527
0.00625027
0.00625466
0.00625844
0.00626161
0.00626418
0.00626613
0.00626748
0.00626822
0.00395868
0.00402426
0.00408912
0.0041533
0.00421684
0.00427973
0.00434198
0.00440358
0.00446455
0.00452488
0.00458457
0.00464362
0.00470203
0.0047598
0.00481693
0.00487343
0.00492929
0.00498451
0.00503909
0.00509304
0.00514635
0.00519903
0.00525108
0.00530249
0.00535327
0.00540341
0.00545293
0.00550181
0.00555006
0.00559768
0.00564466
0.00569101
0.00573673
0.00578182
0.00582627
0.00587009
0.00591327
0.00595581
0.00599772
0.00603899
0.00607962
0.00611961
0.00615896
0.00619767
0.00623573
0.00627315
0.00630993
0.00634605
0.00638153
0.00641636
0.00645054
0.00648406
0.00651693
0.00654914
0.0065807
0.0066116
0.00664184
0.00667141
0.00670033
0.00672858
0.00675617
0.00678308
0.00680933
0.00683492
0.00685983
0.00688406
0.00690763
0.00693052
0.00695273
0.00697427
0.00699513
0.0070153
0.0070348
0.00705362
0.00707175
0.0070892
0.00710597
0.00712205
0.00713744
0.00715214
0.00716616
0.00717949
0.00719212
0.00720407
0.00721533
0.00722589
0.00723576
0.00724494
0.00725342
0.00726121
0.00726831
0.00727471
0.00728041
0.00728543
0.00728974
0.00729336
0.00729628
0.00729851
0.00730004
0.00730088
0.00462056
0.00469371
0.00476609
0.00483776
0.00490873
0.00497902
0.00504861
0.00511753
0.00518575
0.00525329
0.00532014
0.0053863
0.00545177
0.00551655
0.00558063
0.00564402
0.00570671
0.00576871
0.00583001
0.00589061
0.00595051
0.00600972
0.00606822
0.00612602
0.00618313
0.00623953
0.00629523
0.00635023
0.00640452
0.00645811
0.00651099
0.00656317
0.00661464
0.00666539
0.00671544
0.00676478
0.00681341
0.00686132
0.00690852
0.006955
0.00700076
0.00704581
0.00709013
0.00713373
0.00717661
0.00721876
0.00726018
0.00730088
0.00734084
0.00738008
0.00741858
0.00745634
0.00749337
0.00752965
0.0075652
0.00760001
0.00763407
0.00766739
0.00769996
0.00773178
0.00776285
0.00779317
0.00782274
0.00785155
0.0078796
0.0079069
0.00793344
0.00795922
0.00798423
0.00800849
0.00803197
0.0080547
0.00807665
0.00809784
0.00811826
0.0081379
0.00815678
0.00817488
0.00819221
0.00820876
0.00822454
0.00823954
0.00825377
0.00826722
0.00827988
0.00829177
0.00830288
0.00831321
0.00832276
0.00833152
0.00833951
0.00834671
0.00835313
0.00835876
0.00836361
0.00836768
0.00837097
0.00837347
0.00837519
0.00837613
0.00532155
0.00540233
0.0054823
0.0055615
0.00563996
0.00571768
0.00579467
0.00587093
0.00594645
0.00602123
0.00609528
0.00616858
0.00624113
0.00631294
0.00638401
0.00645431
0.00652387
0.00659267
0.0066607
0.00672798
0.0067945
0.00686025
0.00692524
0.00698946
0.00705291
0.00711559
0.0071775
0.00723863
0.00729899
0.00735857
0.00741738
0.0074754
0.00753264
0.00758909
0.00764476
0.00769964
0.00775374
0.00780704
0.00785954
0.00791126
0.00796217
0.00801229
0.00806161
0.00811012
0.00815783
0.00820473
0.00825082
0.00829611
0.00834058
0.00838423
0.00842707
0.0084691
0.0085103
0.00855068
0.00859023
0.00862896
0.00866686
0.00870393
0.00874017
0.00877558
0.00881015
0.00884388
0.00887678
0.00890883
0.00894005
0.00897042
0.00899994
0.00902862
0.00905645
0.00908343
0.00910955
0.00913483
0.00915925
0.00918282
0.00920553
0.00922738
0.00924837
0.00926851
0.00928778
0.00930619
0.00932374
0.00934042
0.00935624
0.00937119
0.00938528
0.0093985
0.00941085
0.00942233
0.00943295
0.00944269
0.00945157
0.00945957
0.00946671
0.00947297
0.00947837
0.00948289
0.00948654
0.00948932
0.00949123
0.00949226
0.00606118
0.00614964
0.00623724
0.00632403
0.00641002
0.00649522
0.00657963
0.00666327
0.00674611
0.00682817
0.00690943
0.0069899
0.00706957
0.00714843
0.00722649
0.00730373
0.00738016
0.00745578
0.00753057
0.00760454
0.00767768
0.00775
0.00782148
0.00789213
0.00796193
0.0080309
0.00809903
0.00816631
0.00823274
0.00829833
0.00836306
0.00842694
0.00848995
0.00855211
0.00861341
0.00867385
0.00873341
0.00879211
0.00884994
0.00890689
0.00896296
0.00901816
0.00907248
0.00912591
0.00917846
0.00923012
0.00928089
0.00933076
0.00937975
0.00942783
0.00947502
0.0095213
0.00956668
0.00961115
0.00965472
0.00969738
0.00973912
0.00977995
0.00981986
0.00985886
0.00989693
0.00993408
0.00997031
0.0100056
0.01004
0.0100734
0.0101059
0.0101375
0.0101682
0.0101979
0.0102266
0.0102545
0.0102814
0.0103073
0.0103323
0.0103564
0.0103795
0.0104017
0.0104229
0.0104431
0.0104625
0.0104808
0.0104982
0.0105147
0.0105302
0.0105448
0.0105584
0.010571
0.0105827
0.0105934
0.0106032
0.010612
0.0106198
0.0106267
0.0106327
0.0106376
0.0106417
0.0106447
0.0106468
0.0106479
0.00683908
0.00693528
0.00703056
0.00712497
0.00721852
0.00731124
0.00740311
0.00749415
0.00758434
0.0076737
0.0077622
0.00784985
0.00793664
0.00802258
0.00810764
0.00819184
0.00827515
0.00835759
0.00843915
0.00851981
0.00859959
0.00867846
0.00875644
0.00883352
0.00890968
0.00898494
0.00905929
0.00913271
0.00920522
0.00927681
0.00934747
0.0094172
0.00948599
0.00955386
0.00962078
0.00968676
0.0097518
0.00981589
0.00987903
0.00994122
0.0100025
0.0100627
0.010122
0.0101804
0.0102378
0.0102942
0.0103496
0.0104041
0.0104576
0.0105101
0.0105616
0.0106122
0.0106617
0.0107103
0.0107579
0.0108044
0.01085
0.0108946
0.0109382
0.0109808
0.0110223
0.0110629
0.0111024
0.011141
0.0111785
0.011215
0.0112505
0.011285
0.0113185
0.0113509
0.0113823
0.0114127
0.011442
0.0114704
0.0114977
0.0115239
0.0115492
0.0115734
0.0115965
0.0116186
0.0116397
0.0116598
0.0116788
0.0116967
0.0117137
0.0117295
0.0117444
0.0117582
0.0117709
0.0117826
0.0117933
0.0118029
0.0118115
0.011819
0.0118255
0.0118309
0.0118353
0.0118386
0.0118409
0.0118421
0.00765499
0.00775897
0.00786197
0.00796404
0.00806519
0.00816545
0.00826481
0.00836328
0.00846085
0.00855751
0.00865327
0.00874812
0.00884205
0.00893506
0.00902714
0.00911829
0.0092085
0.00929776
0.00938608
0.00947344
0.00955984
0.00964528
0.00972975
0.00981325
0.00989577
0.00997731
0.0100579
0.0101374
0.010216
0.0102936
0.0103702
0.0104457
0.0105203
0.0105939
0.0106664
0.0107379
0.0108084
0.0108779
0.0109463
0.0110137
0.0110801
0.0111455
0.0112097
0.011273
0.0113352
0.0113964
0.0114565
0.0115155
0.0115735
0.0116304
0.0116863
0.011741
0.0117948
0.0118474
0.011899
0.0119495
0.0119989
0.0120472
0.0120944
0.0121406
0.0121856
0.0122296
0.0122725
0.0123143
0.0123549
0.0123945
0.012433
0.0124703
0.0125066
0.0125417
0.0125758
0.0126087
0.0126405
0.0126712
0.0127008
0.0127292
0.0127566
0.0127828
0.0128079
0.0128319
0.0128547
0.0128764
0.012897
0.0129165
0.0129348
0.012952
0.0129681
0.012983
0.0129968
0.0130095
0.0130211
0.0130315
0.0130407
0.0130489
0.0130559
0.0130618
0.0130665
0.0130701
0.0130726
0.0130739
0.00850872
0.00862051
0.00873127
0.00884103
0.00894982
0.00905765
0.00916452
0.00927044
0.0093754
0.00947939
0.00958242
0.00968447
0.00978555
0.00988564
0.00998474
0.0100828
0.0101799
0.010276
0.0103711
0.0104651
0.0105582
0.0106502
0.0107411
0.010831
0.0109199
0.0110077
0.0110945
0.0111801
0.0112648
0.0113483
0.0114308
0.0115122
0.0115925
0.0116717
0.0117499
0.0118269
0.0119029
0.0119777
0.0120514
0.012124
0.0121955
0.0122659
0.0123352
0.0124033
0.0124703
0.0125362
0.0126009
0.0126645
0.012727
0.0127883
0.0128485
0.0129075
0.0129653
0.013022
0.0130776
0.013132
0.0131852
0.0132372
0.0132881
0.0133378
0.0133863
0.0134337
0.0134799
0.0135248
0.0135686
0.0136113
0.0136527
0.0136929
0.013732
0.0137698
0.0138064
0.0138419
0.0138761
0.0139092
0.013941
0.0139717
0.0140011
0.0140293
0.0140563
0.0140821
0.0141067
0.0141301
0.0141523
0.0141732
0.014193
0.0142115
0.0142288
0.0142449
0.0142597
0.0142734
0.0142858
0.014297
0.014307
0.0143158
0.0143233
0.0143296
0.0143347
0.0143386
0.0143413
0.0143427
0.00940013
0.00951978
0.00963832
0.00975581
0.00987226
0.00998768
0.0101021
0.0102155
0.0103278
0.0104392
0.0105495
0.0106587
0.010767
0.0108741
0.0109802
0.0110853
0.0111893
0.0112922
0.011394
0.0114947
0.0115944
0.0116929
0.0117903
0.0118866
0.0119818
0.0120759
0.0121688
0.0122606
0.0123513
0.0124408
0.0125291
0.0126163
0.0127024
0.0127873
0.012871
0.0129535
0.0130349
0.013115
0.013194
0.0132718
0.0133484
0.0134238
0.013498
0.013571
0.0136428
0.0137133
0.0137827
0.0138508
0.0139177
0.0139834
0.0140479
0.0141111
0.014173
0.0142338
0.0142933
0.0143515
0.0144085
0.0144643
0.0145187
0.014572
0.0146239
0.0146747
0.0147241
0.0147723
0.0148192
0.0148648
0.0149092
0.0149523
0.0149941
0.0150346
0.0150738
0.0151118
0.0151485
0.0151838
0.0152179
0.0152507
0.0152822
0.0153125
0.0153414
0.015369
0.0153953
0.0154204
0.0154441
0.0154665
0.0154876
0.0155075
0.015526
0.0155432
0.0155591
0.0155737
0.015587
0.015599
0.0156097
0.0156191
0.0156271
0.0156339
0.0156393
0.0156435
0.0156463
0.0156479
0.0103291
0.0104567
0.010583
0.0107083
0.0108324
0.0109554
0.0110774
0.0111982
0.011318
0.0114367
0.0115543
0.0116708
0.0117861
0.0119004
0.0120135
0.0121255
0.0122364
0.0123461
0.0124546
0.012562
0.0126683
0.0127733
0.0128772
0.0129799
0.0130814
0.0131817
0.0132807
0.0133786
0.0134753
0.0135707
0.0136649
0.0137579
0.0138497
0.0139401
0.0140294
0.0141174
0.0142041
0.0142896
0.0143738
0.0144568
0.0145384
0.0146188
0.0146979
0.0147758
0.0148523
0.0149275
0.0150014
0.0150741
0.0151454
0.0152154
0.0152841
0.0153515
0.0154175
0.0154823
0.0155457
0.0156078
0.0156685
0.0157279
0.015786
0.0158427
0.0158981
0.0159522
0.0160048
0.0160562
0.0161062
0.0161548
0.0162021
0.016248
0.0162925
0.0163357
0.0163775
0.0164179
0.016457
0.0164947
0.016531
0.016566
0.0165995
0.0166317
0.0166625
0.016692
0.01672
0.0167467
0.0167719
0.0167958
0.0168183
0.0168394
0.0168592
0.0168775
0.0168944
0.01691
0.0169241
0.0169369
0.0169483
0.0169583
0.0169669
0.0169741
0.0169799
0.0169843
0.0169873
0.0169889
0.0112956
0.0114311
0.0115653
0.0116983
0.0118301
0.0119608
0.0120903
0.0122187
0.0123459
0.0124719
0.0125968
0.0127205
0.012843
0.0129643
0.0130844
0.0132034
0.0133211
0.0134376
0.0135529
0.0136669
0.0137797
0.0138913
0.0140016
0.0141106
0.0142184
0.0143249
0.0144301
0.014534
0.0146367
0.014738
0.014838
0.0149367
0.0150342
0.0151302
0.015225
0.0153184
0.0154105
0.0155013
0.0155907
0.0156787
0.0157654
0.0158508
0.0159347
0.0160174
0.0160986
0.0161784
0.0162569
0.016334
0.0164097
0.016484
0.0165569
0.0166284
0.0166986
0.0167673
0.0168345
0.0169004
0.0169649
0.0170279
0.0170896
0.0171498
0.0172085
0.0172659
0.0173218
0.0173762
0.0174293
0.0174809
0.017531
0.0175797
0.0176269
0.0176728
0.0177171
0.01776
0.0178014
0.0178414
0.01788
0.017917
0.0179526
0.0179868
0.0180194
0.0180506
0.0180804
0.0181086
0.0181354
0.0181608
0.0181846
0.018207
0.0182279
0.0182474
0.0182653
0.0182818
0.0182968
0.0183104
0.0183224
0.018333
0.0183421
0.0183497
0.0183559
0.0183606
0.0183638
0.0183655
0.0122996
0.012443
0.0125851
0.0127259
0.0128654
0.0130037
0.0131408
0.0132767
0.0134113
0.0135447
0.0136768
0.0138078
0.0139374
0.0140658
0.0141929
0.0143188
0.0144433
0.0145666
0.0146886
0.0148093
0.0149286
0.0150466
0.0151633
0.0152787
0.0153927
0.0155054
0.0156167
0.0157267
0.0158352
0.0159424
0.0160483
0.0161527
0.0162557
0.0163574
0.0164576
0.0165564
0.0166538
0.0167498
0.0168444
0.0169375
0.0170292
0.0171194
0.0172082
0.0172956
0.0173815
0.0174659
0.0175489
0.0176304
0.0177104
0.017789
0.0178661
0.0179417
0.0180158
0.0180884
0.0181596
0.0182292
0.0182974
0.018364
0.0184291
0.0184928
0.0185549
0.0186155
0.0186746
0.0187321
0.0187882
0.0188427
0.0188957
0.0189471
0.0189971
0.0190455
0.0190923
0.0191376
0.0191814
0.0192237
0.0192644
0.0193035
0.0193411
0.0193772
0.0194117
0.0194447
0.0194761
0.019506
0.0195343
0.019561
0.0195862
0.0196098
0.0196319
0.0196525
0.0196714
0.0196888
0.0197047
0.019719
0.0197317
0.0197429
0.0197525
0.0197605
0.019767
0.0197719
0.0197753
0.0197771
0.013341
0.0134924
0.0136424
0.013791
0.0139382
0.0140842
0.0142289
0.0143722
0.0145143
0.014655
0.0147944
0.0149326
0.0150693
0.0152048
0.0153389
0.0154716
0.015603
0.0157331
0.0158617
0.015989
0.0161149
0.0162393
0.0163624
0.0164841
0.0166043
0.0167231
0.0168405
0.0169564
0.0170709
0.0171839
0.0172955
0.0174056
0.0175142
0.0176214
0.017727
0.0178312
0.0179339
0.018035
0.0181347
0.0182328
0.0183295
0.0184246
0.0185182
0.0186102
0.0187007
0.0187897
0.0188772
0.018963
0.0190474
0.0191302
0.0192114
0.019291
0.0193691
0.0194456
0.0195205
0.0195939
0.0196657
0.0197359
0.0198045
0.0198715
0.0199369
0.0200007
0.0200629
0.0201236
0.0201826
0.02024
0.0202958
0.02035
0.0204025
0.0204535
0.0205028
0.0205505
0.0205966
0.0206411
0.020684
0.0207252
0.0207648
0.0208027
0.0208391
0.0208738
0.0209068
0.0209382
0.020968
0.0209962
0.0210227
0.0210476
0.0210708
0.0210924
0.0211124
0.0211307
0.0211473
0.0211624
0.0211758
0.0211875
0.0211976
0.0212061
0.0212129
0.0212181
0.0212216
0.0212235
0.0144199
0.0145792
0.0147371
0.0148935
0.0150485
0.0152021
0.0153544
0.0155052
0.0156547
0.0158028
0.0159495
0.0160948
0.0162387
0.0163812
0.0165222
0.0166619
0.0168001
0.0169368
0.0170721
0.0172059
0.0173383
0.0174692
0.0175986
0.0177265
0.017853
0.0179779
0.0181013
0.0182231
0.0183435
0.0184623
0.0185796
0.0186953
0.0188094
0.018922
0.0190331
0.0191426
0.0192505
0.0193568
0.0194615
0.0195646
0.0196661
0.0197661
0.0198644
0.0199611
0.0200562
0.0201497
0.0202415
0.0203317
0.0204203
0.0205072
0.0205925
0.0206762
0.0207582
0.0208385
0.0209172
0.0209942
0.0210696
0.0211433
0.0212153
0.0212856
0.0213543
0.0214213
0.0214866
0.0215503
0.0216122
0.0216725
0.021731
0.0217879
0.0218431
0.0218966
0.0219483
0.0219984
0.0220468
0.0220934
0.0221384
0.0221816
0.0222232
0.022263
0.0223011
0.0223375
0.0223722
0.0224052
0.0224364
0.0224659
0.0224938
0.0225198
0.0225442
0.0225669
0.0225878
0.022607
0.0226245
0.0226402
0.0226543
0.0226666
0.0226771
0.022686
0.0226931
0.0226985
0.0227022
0.0227042
0.0155361
0.0157034
0.0158692
0.0160335
0.0161962
0.0163575
0.0165173
0.0166757
0.0168326
0.016988
0.0171419
0.0172944
0.0174454
0.0175949
0.0177429
0.0178894
0.0180343
0.0181778
0.0183197
0.0184601
0.0185989
0.0187362
0.0188719
0.019006
0.0191386
0.0192695
0.0193989
0.0195267
0.0196528
0.0197774
0.0199003
0.0200216
0.0201413
0.0202593
0.0203756
0.0204904
0.0206034
0.0207148
0.0208245
0.0209326
0.021039
0.0211437
0.0212467
0.021348
0.0214476
0.0215455
0.0216417
0.0217361
0.0218289
0.0219199
0.0220093
0.0220969
0.0221827
0.0222668
0.0223492
0.0224299
0.0225088
0.0225859
0.0226613
0.022735
0.0228069
0.022877
0.0229453
0.0230119
0.0230768
0.0231398
0.0232011
0.0232606
0.0233184
0.0233743
0.0234285
0.0234809
0.0235315
0.0235803
0.0236274
0.0236726
0.023716
0.0237577
0.0237976
0.0238356
0.0238719
0.0239064
0.0239391
0.02397
0.023999
0.0240263
0.0240518
0.0240755
0.0240973
0.0241174
0.0241357
0.0241521
0.0241668
0.0241797
0.0241907
0.0242
0.0242074
0.024213
0.0242169
0.0242189
0.0166897
0.0168651
0.0170387
0.0172108
0.0173813
0.0175502
0.0177176
0.0178834
0.0180477
0.0182105
0.0183716
0.0185313
0.0186893
0.0188458
0.0190007
0.019154
0.0193057
0.0194558
0.0196043
0.0197512
0.0198965
0.0200401
0.020182
0.0203223
0.020461
0.0205979
0.0207332
0.0208669
0.0209988
0.021129
0.0212575
0.0213844
0.0215095
0.0216328
0.0217545
0.0218744
0.0219926
0.022109
0.0222237
0.0223366
0.0224477
0.0225571
0.0226647
0.0227706
0.0228746
0.0229769
0.0230774
0.0231761
0.023273
0.0233681
0.0234614
0.0235529
0.0236425
0.0237304
0.0238164
0.0239006
0.023983
0.0240635
0.0241423
0.0242191
0.0242942
0.0243674
0.0244387
0.0245083
0.0245759
0.0246417
0.0247057
0.0247678
0.0248281
0.0248865
0.024943
0.0249977
0.0250505
0.0251014
0.0251505
0.0251977
0.025243
0.0252864
0.025328
0.0253677
0.0254056
0.0254415
0.0254756
0.0255078
0.0255381
0.0255666
0.0255931
0.0256178
0.0256406
0.0256616
0.0256806
0.0256977
0.025713
0.0257264
0.0257379
0.0257475
0.0257553
0.0257612
0.0257651
0.0257672
0.0178807
0.018064
0.0182456
0.0184255
0.0186037
0.0187803
0.0189552
0.0191285
0.0193001
0.0194702
0.0196386
0.0198053
0.0199704
0.0201338
0.0202956
0.0204557
0.0206141
0.0207708
0.0209259
0.0210792
0.0212308
0.0213807
0.0215289
0.0216753
0.02182
0.0219629
0.0221041
0.0222435
0.0223811
0.022517
0.0226511
0.0227833
0.0229138
0.0230425
0.0231693
0.0232944
0.0234176
0.023539
0.0236585
0.0237763
0.0238921
0.0240062
0.0241183
0.0242287
0.0243371
0.0244437
0.0245484
0.0246513
0.0247522
0.0248513
0.0249485
0.0250438
0.0251372
0.0252287
0.0253183
0.0254061
0.0254919
0.0255758
0.0256577
0.0257378
0.0258159
0.0258922
0.0259665
0.0260389
0.0261093
0.0261778
0.0262444
0.0263091
0.0263718
0.0264326
0.0264914
0.0265483
0.0266033
0.0266563
0.0267073
0.0267564
0.0268036
0.0268488
0.0268921
0.0269334
0.0269728
0.0270102
0.0270456
0.0270791
0.0271107
0.0271402
0.0271679
0.0271935
0.0272172
0.027239
0.0272588
0.0272766
0.0272925
0.0273064
0.0273183
0.0273283
0.0273364
0.0273424
0.0273465
0.0273487
0.0191089
0.0193002
0.0194897
0.0196774
0.0198633
0.0200475
0.0202299
0.0204107
0.0205897
0.020767
0.0209425
0.0211164
0.0212885
0.0214588
0.0216274
0.0217942
0.0219593
0.0221226
0.0222841
0.0224439
0.0226018
0.0227579
0.0229123
0.0230647
0.0232154
0.0233642
0.0235112
0.0236564
0.0237996
0.0239411
0.0240806
0.0242183
0.0243541
0.024488
0.02462
0.0247501
0.0248783
0.0250046
0.0251289
0.0252514
0.0253719
0.0254905
0.0256072
0.0257219
0.0258347
0.0259455
0.0260544
0.0261613
0.0262663
0.0263693
0.0264703
0.0265694
0.0266665
0.0267616
0.0268547
0.0269459
0.027035
0.0271222
0.0272074
0.0272906
0.0273718
0.0274509
0.0275281
0.0276033
0.0276765
0.0277477
0.0278168
0.027884
0.0279491
0.0280122
0.0280733
0.0281324
0.0281894
0.0282445
0.0282975
0.0283485
0.0283975
0.0284444
0.0284893
0.0285322
0.028573
0.0286118
0.0286486
0.0286834
0.0287161
0.0287468
0.0287755
0.0288021
0.0288267
0.0288492
0.0288697
0.0288882
0.0289047
0.0289191
0.0289315
0.0289418
0.0289501
0.0289564
0.0289606
0.0289628
0.0203742
0.0205736
0.0207709
0.0209664
0.02116
0.0213518
0.0215417
0.0217299
0.0219162
0.0221007
0.0222834
0.0224643
0.0226433
0.0228205
0.0229959
0.0231695
0.0233411
0.023511
0.0236789
0.023845
0.0240092
0.0241715
0.0243319
0.0244904
0.024647
0.0248016
0.0249544
0.0251052
0.025254
0.0254009
0.0255459
0.0256889
0.0258299
0.025969
0.026106
0.0262411
0.0263742
0.0265053
0.0266345
0.0267616
0.0268867
0.0270098
0.0271309
0.0272499
0.0273669
0.0274819
0.0275949
0.0277058
0.0278147
0.0279216
0.0280264
0.0281291
0.0282298
0.0283285
0.0284251
0.0285196
0.028612
0.0287024
0.0287907
0.028877
0.0289611
0.0290432
0.0291232
0.0292012
0.029277
0.0293508
0.0294224
0.029492
0.0295595
0.0296249
0.0296882
0.0297494
0.0298085
0.0298656
0.0299205
0.0299733
0.030024
0.0300726
0.0301191
0.0301635
0.0302058
0.030246
0.0302841
0.0303201
0.030354
0.0303857
0.0304154
0.030443
0.0304684
0.0304917
0.030513
0.0305321
0.0305491
0.030564
0.0305768
0.0305875
0.030596
0.0306025
0.0306069
0.0306091
0.0216767
0.0218839
0.0220892
0.0222924
0.0224936
0.022693
0.0228904
0.0230859
0.0232795
0.0234712
0.0236609
0.0238488
0.0240348
0.0242188
0.0244009
0.0245811
0.0247593
0.0249356
0.0251099
0.0252823
0.0254527
0.0256211
0.0257875
0.0259519
0.0261143
0.0262748
0.0264332
0.0265896
0.0267439
0.0268962
0.0270465
0.0271948
0.027341
0.0274851
0.0276272
0.0277672
0.0279051
0.028041
0.0281747
0.0283064
0.028436
0.0285635
0.028689
0.0288123
0.0289335
0.0290526
0.0291695
0.0292844
0.0293971
0.0295078
0.0296163
0.0297226
0.0298269
0.0299289
0.0300289
0.0301267
0.0302224
0.0303159
0.0304073
0.0304965
0.0305836
0.0306685
0.0307513
0.0308319
0.0309103
0.0309866
0.0310608
0.0311327
0.0312025
0.0312701
0.0313356
0.0313989
0.03146
0.0315189
0.0315757
0.0316303
0.0316827
0.031733
0.031781
0.0318269
0.0318706
0.0319122
0.0319515
0.0319887
0.0320237
0.0320565
0.0320871
0.0321156
0.0321418
0.0321659
0.0321878
0.0322076
0.0322251
0.0322405
0.0322537
0.0322647
0.0322735
0.0322801
0.0322846