/*--------------------------------*- C++ -*----------------------------------*\
  =========                 |
  \\      /  F ield         | OpenFOAM: The Open Source CFD Toolbox
   \\    /   O peration     | Website:  https://openfoam.org
    \\  /    A nd           | Version:  8
     \\/     M anipulation  |
\*---------------------------------------------------------------------------*/
FoamFile
{
    version     2.0;
    format      ascii;
    class       volScalarField;
    location    "0.5";
    object      p;
}
// * * * * * * * * * * * * * * * * * * * * * * * * * * * * * * * * * * * * * //

dimensions      [0 2 -2 0 0 0 0];

internalField   nonuniform List<scalar> 
115200
(
-23.0475
-23.6586
-24.2509
-24.8207
-25.3637
-25.8769
-26.3578
-26.8048
-27.2168
-27.5933
-27.9334
-28.2363
-28.5012
-28.7276
-28.9156
-29.0653
-29.1771
-29.2518
-29.29
-29.2929
-29.2616
-29.1975
-29.102
-28.9766
-28.8232
-28.6452
-28.4455
-28.2192
-27.9546
-27.6493
-27.309
-26.9368
-26.5353
-26.1065
-25.6519
-25.1729
-24.6707
-24.1462
-23.6005
-23.0346
-22.4494
-21.8457
-21.2245
-20.5867
-19.9331
-19.2647
-18.5822
-17.8866
-17.1788
-16.4596
-15.7299
-14.9906
-14.2426
-13.4867
-12.7239
-11.9549
-11.1807
-10.4022
-9.62009
-8.83537
-8.04887
-7.26143
-6.47389
-5.68709
-4.90185
-4.11901
-3.33936
-2.56371
-1.79285
-1.02755
-0.268594
0.483273
1.22731
1.96278
2.68898
3.40521
4.11079
4.80506
5.48737
6.15709
6.81362
7.45637
8.08477
8.69829
9.29639
9.87859
10.4444
10.9934
11.5252
12.0393
12.5355
13.0133
13.4725
13.9127
14.3336
14.7351
15.1167
15.4781
15.8183
16.1362
-20.7132
-21.1255
-21.5168
-21.8868
-22.234
-22.5572
-22.8552
-23.1268
-23.3707
-23.5856
-23.7709
-23.927
-24.0542
-24.153
-24.2237
-24.2665
-24.2815
-24.269
-24.229
-24.1615
-24.0664
-23.9438
-23.7935
-23.6152
-23.408
-23.1708
-22.9035
-22.6121
-22.3078
-21.9926
-21.6616
-21.3128
-20.9451
-20.5581
-20.1519
-19.7268
-19.2832
-18.8218
-18.3431
-17.8479
-17.3367
-16.8103
-16.2694
-15.7148
-15.1471
-14.567
-13.9753
-13.3727
-12.76
-12.1378
-11.507
-10.8682
-10.2222
-9.56967
-8.91141
-8.24812
-7.58054
-6.9094
-6.23542
-5.55932
-4.88183
-4.20365
-3.52549
-2.84806
-2.17206
-1.49818
-0.827094
-0.159482
0.503986
1.16266
1.81588
2.46301
3.10343
3.73652
4.36167
4.9783
5.58581
6.18365
6.77126
7.34808
7.91359
8.46726
9.00859
9.53709
10.0523
10.5537
11.0408
11.5132
11.9705
12.4121
12.8377
13.2467
13.6388
14.0135
14.3704
14.7092
15.03
15.3336
15.621
15.8926
-20.3689
-20.7535
-21.1247
-21.481
-21.8202
-22.1407
-22.441
-22.7198
-22.9761
-23.209
-23.4177
-23.6015
-23.7598
-23.8919
-23.9976
-24.0763
-24.1278
-24.1521
-24.149
-24.1184
-24.0604
-23.975
-23.8623
-23.7224
-23.5558
-23.3622
-23.1403
-22.8895
-22.6115
-22.3084
-21.9817
-21.6324
-21.2614
-20.8697
-20.4581
-20.0271
-19.5776
-19.1103
-18.6259
-18.1251
-17.6086
-17.0771
-16.5314
-15.9721
-15.4
-14.8158
-14.2202
-13.614
-12.9979
-12.3727
-11.7391
-11.0977
-10.4494
-9.79494
-9.13498
-8.4703
-7.80161
-7.12966
-6.45518
-5.77888
-5.10149
-4.42373
-3.74631
-3.06992
-2.39528
-1.72306
-1.05395
-0.388635
0.272234
0.927996
1.57801
2.22163
2.85824
3.48724
4.10801
4.71998
5.32257
5.91522
6.49739
7.06856
7.6282
8.17582
8.71094
9.2331
9.74185
10.2368
10.7174
11.1834
11.6344
12.07
12.4899
12.8938
13.2813
13.6523
14.0064
14.3434
14.6631
14.9654
15.2502
15.5173
-18.775
-19.0409
-19.2955
-19.5373
-19.765
-19.9773
-20.173
-20.3509
-20.5099
-20.6494
-20.7685
-20.8667
-20.9436
-20.9988
-21.0322
-21.0435
-21.0326
-20.9995
-20.9442
-20.867
-20.7678
-20.647
-20.5048
-20.3417
-20.1581
-19.9543
-19.7309
-19.4885
-19.2277
-18.9486
-18.6515
-18.3364
-18.0036
-17.6535
-17.2863
-16.9025
-16.5026
-16.0871
-15.6565
-15.2113
-14.7522
-14.2797
-13.7944
-13.297
-12.7879
-12.268
-11.7377
-11.1978
-10.6489
-10.0915
-9.5264
-8.9542
-8.37554
-7.79108
-7.20147
-6.60734
-6.00936
-5.40817
-4.80442
-4.19874
-3.59178
-2.98418
-2.37657
-1.76958
-1.16382
-0.559927
0.0414981
0.639848
1.23452
1.82494
2.41051
2.99066
3.56483
4.13246
4.69302
5.24596
5.79076
6.32692
6.85392
7.37129
7.87854
8.37521
8.86085
9.33503
9.79731
10.2473
10.6846
11.1088
11.5196
11.9165
12.2994
12.6678
13.0216
13.3604
13.684
13.9923
14.2851
14.5624
14.824
15.0698
-18.084
-18.3119
-18.5342
-18.748
-18.9513
-19.1425
-19.3202
-19.4831
-19.6302
-19.7605
-19.8731
-19.9673
-20.0425
-20.0982
-20.1337
-20.1489
-20.1432
-20.1165
-20.0686
-19.9993
-19.9084
-19.7959
-19.6617
-19.506
-19.329
-19.131
-18.9126
-18.6741
-18.4162
-18.1394
-17.8443
-17.5315
-17.2015
-16.8547
-16.4918
-16.1133
-15.7196
-15.3113
-14.889
-14.4532
-14.0045
-13.5434
-13.0704
-12.5863
-12.0915
-11.5866
-11.0723
-10.5492
-10.0178
-9.47876
-8.9327
-8.38023
-7.82195
-7.25849
-6.69046
-6.11848
-5.54316
-4.96512
-4.38496
-3.8033
-3.22075
-2.63789
-2.05534
-1.47369
-0.893523
-0.315425
0.260027
0.832265
1.40072
1.96485
2.5241
3.07793
3.62582
4.16724
4.70169
5.22868
5.7477
6.25829
6.75998
7.25233
7.73489
8.20723
8.66895
9.11965
9.55894
9.98646
10.4018
10.8048
11.1949
11.5719
11.9355
12.2855
12.6216
12.9435
13.251
13.544
13.8223
14.0856
14.334
14.5671
-16.9683
-17.1376
-17.299
-17.4515
-17.5938
-17.725
-17.8441
-17.9503
-18.0427
-18.1206
-18.1833
-18.2305
-18.2614
-18.2758
-18.2734
-18.2538
-18.2168
-18.1624
-18.0905
-18.0011
-17.8942
-17.77
-17.6285
-17.4699
-17.2942
-17.1015
-16.892
-16.6658
-16.4233
-16.1647
-15.8902
-15.6003
-15.2951
-14.9752
-14.6408
-14.2923
-13.9303
-13.555
-13.1669
-12.7666
-12.3545
-11.931
-11.4968
-11.0522
-10.5979
-10.1343
-9.66197
-9.18146
-8.6933
-8.19805
-7.69626
-7.18848
-6.67526
-6.15717
-5.63477
-5.10861
-4.57927
-4.04728
-3.51323
-2.97765
-2.44112
-1.90417
-1.36736
-0.83124
-0.296342
0.236795
0.76764
1.29567
1.82036
2.3412
2.85769
3.36933
3.87563
4.37611
4.87029
5.35772
5.83794
6.31051
6.775
7.23098
7.67805
8.11581
8.54387
8.96186
9.36942
9.76621
10.1519
10.5261
10.8886
11.2391
11.5774
11.903
12.2159
12.5158
12.8025
13.0758
13.3355
13.5815
13.8137
14.0319
-16.1473
-16.2826
-16.4125
-16.5352
-16.6494
-16.7543
-16.8488
-16.9322
-17.0037
-17.0626
-17.1083
-17.1401
-17.1575
-17.1602
-17.1477
-17.1197
-17.0758
-17.0159
-16.9398
-16.8472
-16.7381
-16.6125
-16.4703
-16.3117
-16.1369
-15.946
-15.7393
-15.5171
-15.2796
-15.0272
-14.7601
-14.4787
-14.1834
-13.8745
-13.5523
-13.2174
-12.8699
-12.5105
-12.1394
-11.7572
-11.3642
-10.961
-10.5479
-10.1255
-9.69417
-9.25448
-8.80688
-8.35187
-7.88995
-7.42162
-6.9474
-6.46779
-5.98331
-5.49447
-5.00179
-4.50578
-4.00697
-3.50587
-3.003
-2.49887
-1.994
-1.48889
-0.984057
-0.480001
0.0227775
0.523782
1.02252
1.51851
2.01127
2.50033
2.98521
3.46547
3.94064
4.41029
4.87398
5.33129
5.78178
6.22507
6.66075
7.08842
7.50773
7.9183
8.31977
8.7118
9.09407
9.46626
9.82806
10.1792
10.5194
10.8483
11.1658
11.4716
11.7654
12.0471
12.3165
12.5734
12.8177
13.0491
13.2676
13.4731
-15.2441
-15.3456
-15.4408
-15.5287
-15.6084
-15.6792
-15.7406
-15.7918
-15.8324
-15.8617
-15.8794
-15.8849
-15.8778
-15.8579
-15.8248
-15.7782
-15.7179
-15.6439
-15.5559
-15.4539
-15.3378
-15.2077
-15.0636
-14.9054
-14.7332
-14.5471
-14.3473
-14.1337
-13.9068
-13.6666
-13.4133
-13.1473
-12.8687
-12.578
-12.2753
-11.9611
-11.6355
-11.2991
-10.9522
-10.5951
-10.2282
-9.85195
-9.46676
-9.07302
-8.67118
-8.26167
-7.84492
-7.42139
-6.99153
-6.5558
-6.11466
-5.66857
-5.21801
-4.76344
-4.30533
-3.84417
-3.38042
-2.91456
-2.44706
-1.97839
-1.50903
-1.03945
-0.57011
-0.101477
0.365988
0.83183
1.29559
1.75683
2.2151
2.66997
3.121
3.56777
4.00986
4.44686
4.87838
5.304
5.72335
6.13606
6.54174
6.94005
7.33063
7.71315
8.08728
8.45269
8.80909
9.15618
9.49367
9.8213
10.1388
10.446
10.7425
11.0282
11.3029
11.5664
11.8185
12.0591
12.2879
12.5049
12.7099
12.9028
-14.4484
-14.5238
-14.594
-14.6577
-14.7141
-14.7625
-14.8025
-14.8335
-14.8551
-14.8666
-14.8677
-14.858
-14.8372
-14.8048
-14.7606
-14.7044
-14.6358
-14.5548
-14.4612
-14.3548
-14.2357
-14.1037
-13.9588
-13.8011
-13.6307
-13.4477
-13.2521
-13.0442
-12.8242
-12.5921
-12.3482
-12.0928
-11.8261
-11.5484
-11.2598
-10.9608
-10.6517
-10.3327
-10.0041
-9.6664
-9.31985
-8.96484
-8.60172
-8.2309
-7.85274
-7.46765
-7.07602
-6.67827
-6.2748
-5.86604
-5.4524
-5.03431
-4.61219
-4.18648
-3.75761
-3.32601
-2.89212
-2.45636
-2.01918
-1.58101
-1.14228
-0.703418
-0.264859
0.172975
0.609657
1.04477
1.4779
1.90863
2.33655
2.76127
3.18238
3.5995
4.01224
4.42022
4.82308
5.22045
5.61197
5.9973
6.3761
6.74803
7.11279
7.47004
7.81951
8.16088
8.49388
8.81824
9.1337
9.44001
9.73693
10.0242
10.3017
10.5692
10.8264
11.0732
11.3095
11.535
11.7497
11.9534
12.146
12.3274
-13.6639
-13.7166
-13.7642
-13.8053
-13.8396
-13.8665
-13.8855
-13.8964
-13.8986
-13.8919
-13.8758
-13.85
-13.8143
-13.7683
-13.7119
-13.6448
-13.5669
-13.478
-13.3781
-13.2669
-13.1445
-13.0108
-12.8658
-12.7095
-12.542
-12.3633
-12.1735
-11.9727
-11.761
-11.5387
-11.3057
-11.0625
-10.809
-10.5457
-10.2727
-9.99018
-9.69854
-9.39801
-9.08889
-8.77147
-8.44606
-8.113
-7.77261
-7.42524
-7.07123
-6.71093
-6.34472
-5.97296
-5.59601
-5.21427
-4.82811
-4.43792
-4.04409
-3.64701
-3.24708
-2.84468
-2.44022
-2.0341
-1.6267
-1.21844
-0.809701
-0.400881
0.00762628
0.415429
0.82214
1.22737
1.63074
2.03188
2.4304
2.82593
3.21812
3.6066
3.99103
4.37104
4.74631
5.11649
5.48126
5.84029
6.19329
6.53994
6.87994
7.21301
7.53888
7.85726
8.16791
8.47056
8.76499
9.05096
9.32826
9.59666
9.85598
10.106
10.3466
10.5776
10.7988
11.0101
11.2114
11.4025
11.5833
11.7537
-12.9361
-12.9698
-12.9989
-13.0222
-13.0391
-13.0493
-13.0523
-13.048
-13.0358
-13.0155
-12.9868
-12.9494
-12.9031
-12.8476
-12.7828
-12.7084
-12.6242
-12.5302
-12.4263
-12.3123
-12.1881
-12.0539
-11.9095
-11.7549
-11.5902
-11.4155
-11.2308
-11.0363
-10.832
-10.618
-10.3946
-10.1619
-9.92013
-9.66939
-9.40994
-9.14201
-8.86584
-8.58166
-8.28974
-7.99036
-7.6838
-7.37033
-7.05027
-6.72392
-6.39159
-6.05361
-5.7103
-5.36199
-5.00903
-4.65175
-4.2905
-3.92564
-3.55752
-3.18649
-2.81292
-2.43716
-2.05958
-1.68053
-1.30039
-0.919505
-0.53825
-0.156982
0.22394
0.604156
0.983312
1.36105
1.73703
2.1109
2.48232
2.85094
3.21643
3.57847
3.93673
4.29089
4.64063
4.98565
5.32566
5.66034
5.98943
6.31263
6.62968
6.94031
7.24427
7.54131
7.83119
8.11368
8.38856
8.65562
8.91465
9.16546
9.40788
9.64172
9.86682
10.083
10.2902
10.4882
10.677
10.8563
11.0262
11.1864
-12.2402
-12.2578
-12.2711
-12.2789
-12.2808
-12.2764
-12.2655
-12.2477
-12.2228
-12.1906
-12.1507
-12.1031
-12.0474
-11.9834
-11.9111
-11.8302
-11.7407
-11.6424
-11.5352
-11.419
-11.2939
-11.1597
-11.0165
-10.8642
-10.703
-10.5328
-10.3537
-10.1657
-9.96909
-9.76384
-9.55011
-9.32805
-9.09782
-8.85958
-8.61353
-8.35986
-8.09879
-7.83053
-7.55531
-7.27338
-6.98498
-6.69039
-6.38986
-6.08367
-5.7721
-5.45544
-5.13399
-4.80805
-4.47793
-4.14392
-3.80636
-3.46556
-3.12184
-2.77552
-2.42693
-2.0764
-1.72425
-1.37082
-1.01644
-0.661445
-0.306155
0.0490957
0.403978
0.758164
1.11133
1.46315
1.81331
2.16149
2.50737
2.85064
3.191
3.52815
3.86178
4.19161
4.51734
4.8387
5.15542
5.46721
5.77382
6.07499
6.37047
6.66002
6.9434
7.22039
7.49076
7.75431
8.01083
8.26012
8.50201
8.7363
8.96285
9.18147
9.39204
9.59439
9.78841
9.97397
10.151
10.3193
10.4788
10.6295
-11.5861
-11.59
-11.5901
-11.5852
-11.5747
-11.5585
-11.5363
-11.5078
-11.4728
-11.4312
-11.3826
-11.327
-11.2641
-11.1938
-11.116
-11.0305
-10.9372
-10.836
-10.7268
-10.6096
-10.4843
-10.351
-10.2095
-10.06
-9.90236
-9.73672
-9.5631
-9.3816
-9.19228
-8.99525
-8.79063
-8.57854
-8.35913
-8.13255
-7.89896
-7.65854
-7.41148
-7.15798
-6.89824
-6.63247
-6.36091
-6.08379
-5.80134
-5.51382
-5.22147
-4.92456
-4.62337
-4.31814
-4.00918
-3.69675
-3.38114
-3.06263
-2.74153
-2.41813
-2.09271
-1.76558
-1.43704
-1.10739
-0.776935
-0.445966
-0.114791
0.216292
0.546981
0.876979
1.20599
1.53371
1.85986
2.18415
2.50628
2.82597
3.14294
3.45693
3.76764
4.07482
4.37821
4.67754
4.97256
5.26303
5.5487
5.82934
6.10472
6.37462
6.63882
6.89711
7.1493
7.39518
7.63458
7.86731
8.09319
8.31208
8.52381
8.72824
8.92522
9.11463
9.29635
9.47027
9.63628
9.79428
9.9442
10.0859
-10.9665
-10.959
-10.948
-10.9323
-10.9115
-10.8853
-10.8536
-10.8161
-10.7728
-10.7233
-10.6676
-10.6055
-10.5368
-10.4614
-10.3792
-10.2901
-10.1941
-10.0909
-9.98059
-9.8631
-9.73839
-9.60644
-9.46724
-9.32081
-9.16716
-9.00633
-8.83837
-8.66335
-8.48135
-8.29244
-8.09675
-7.89437
-7.68543
-7.47008
-7.24845
-7.0207
-6.78701
-6.54754
-6.30249
-6.05204
-5.7964
-5.53578
-5.27039
-5.00045
-4.7262
-4.44787
-4.1657
-3.87994
-3.59083
-3.29863
-3.0036
-2.70599
-2.40608
-2.10413
-1.80041
-1.49518
-1.18873
-0.881322
-0.57323
-0.264731
0.0439025
0.352396
0.660476
0.967872
1.27431
1.57953
1.88325
2.18522
2.48516
2.78283
3.07797
3.37032
3.65964
3.94567
4.22819
4.50695
4.78172
5.05227
5.3184
5.57987
5.83649
6.08804
6.33433
6.57517
6.81037
7.03976
7.26316
7.48042
7.69136
7.89585
8.09375
8.28491
8.4692
8.64652
8.81675
8.97979
9.13553
9.2839
9.42481
9.5582
-10.3828
-10.3656
-10.3453
-10.3208
-10.2914
-10.2571
-10.2176
-10.173
-10.1229
-10.0673
-10.0059
-9.9388
-9.86572
-9.78659
-9.70132
-9.60982
-9.51201
-9.40784
-9.29724
-9.1802
-9.05667
-8.92664
-8.79011
-8.6471
-8.49763
-8.34172
-8.17944
-8.01083
-7.83596
-7.65493
-7.46781
-7.27472
-7.07576
-6.87105
-6.66073
-6.44494
-6.22383
-5.99755
-5.76628
-5.53019
-5.28945
-5.04425
-4.7948
-4.54129
-4.28392
-4.02292
-3.75849
-3.49085
-3.22024
-2.94689
-2.67102
-2.39287
-2.11268
-1.8307
-1.54716
-1.26232
-0.97641
-0.689691
-0.402408
-0.11481
0.172854
0.460336
0.747385
1.03376
1.3192
1.60348
1.88634
2.16754
2.44685
2.72404
2.99885
3.27108
3.54048
3.80684
4.06993
4.32955
4.58547
4.83749
5.08542
5.32905
5.56819
5.80266
6.03228
6.25686
6.47625
6.69027
6.89878
7.10162
7.29864
7.48972
7.67471
7.8535
8.02597
8.19201
8.35152
8.5044
8.65057
8.78995
8.92245
9.04803
-9.8319
-9.8067
-9.7787
-9.74674
-9.71032
-9.66933
-9.62365
-9.57314
-9.51769
-9.45717
-9.39146
-9.32046
-9.24407
-9.16221
-9.0748
-8.98177
-8.88305
-8.7786
-8.66838
-8.55236
-8.43052
-8.30285
-8.16935
-8.03004
-7.88494
-7.73408
-7.57751
-7.41528
-7.24745
-7.0741
-6.89531
-6.71117
-6.52179
-6.32727
-6.12773
-5.9233
-5.71412
-5.50032
-5.28206
-5.05949
-4.83277
-4.60208
-4.36759
-4.12947
-3.88793
-3.64314
-3.39531
-3.14462
-2.8913
-2.63554
-2.37755
-2.11755
-1.85576
-1.5924
-1.32768
-1.06182
-0.795061
-0.527616
-0.259712
0.00842311
0.276564
0.544484
0.811957
1.07876
1.34466
1.60945
1.8729
2.13479
2.3949
2.65302
2.90893
3.16243
3.4133
3.66135
3.90638
4.14818
4.38656
4.62134
4.85234
5.07936
5.30225
5.52082
5.73491
5.94436
6.14902
6.34874
6.54338
6.73279
6.91685
7.09543
7.26841
7.43568
7.59712
7.75265
7.90217
8.04559
8.18282
8.3138
8.43846
8.55674
-9.31311
-9.28121
-9.24684
-9.20882
-9.16667
-9.1203
-9.06962
-9.0145
-8.95486
-8.89058
-8.82158
-8.74777
-8.66907
-8.5854
-8.49671
-8.40294
-8.30404
-8.19997
-8.09071
-7.97622
-7.8565
-7.73155
-7.60137
-7.46597
-7.32537
-7.17962
-7.02875
-6.87281
-6.71186
-6.54597
-6.37522
-6.19968
-6.01946
-5.83464
-5.64534
-5.45167
-5.25376
-5.05172
-4.84571
-4.63585
-4.42229
-4.20519
-3.98471
-3.761
-3.53424
-3.3046
-3.07225
-2.83738
-2.60017
-2.36081
-2.11948
-1.87639
-1.63172
-1.38568
-1.13846
-0.890271
-0.641311
-0.391784
-0.141896
0.10815
0.358146
0.607889
0.857173
1.10579
1.35355
1.60023
1.84564
2.08959
2.33186
2.57227
2.81062
3.04672
3.28039
3.51143
3.73967
3.96492
4.18701
4.40577
4.62103
4.83263
5.0404
5.2442
5.44386
5.63925
5.83023
6.01665
6.19838
6.37531
6.54731
6.71426
6.87606
7.03261
7.1838
7.32954
7.46975
7.60434
7.73325
7.85641
7.97375
8.08523
-8.82449
-8.78708
-8.7475
-8.70457
-8.65781
-8.60716
-8.55253
-8.49383
-8.43099
-8.36391
-8.29252
-8.21676
-8.13655
-8.05184
-7.96258
-7.86872
-7.77023
-7.66708
-7.55924
-7.44671
-7.32946
-7.20751
-7.08087
-6.94954
-6.81355
-6.67294
-6.52774
-6.37801
-6.22379
-6.06515
-5.90216
-5.73489
-5.56343
-5.38788
-5.20832
-5.02485
-4.83761
-4.64668
-4.45221
-4.25431
-4.05312
-3.84878
-3.64142
-3.43121
-3.21828
-3.00279
-2.78491
-2.5648
-2.34261
-2.11854
-1.89273
-1.66538
-1.43665
-1.20673
-0.975803
-0.744042
-0.511634
-0.278764
-0.0456186
0.187617
0.420757
0.653614
0.886004
1.11774
1.34864
1.57851
1.80718
2.03446
2.26017
2.48414
2.70619
2.92615
3.14384
3.35909
3.57175
3.78164
3.9886
4.19249
4.39314
4.59041
4.78416
4.97423
5.1605
5.34282
5.52108
5.69515
5.8649
6.03023
6.19102
6.34716
6.49857
6.64514
6.78678
6.92342
7.05497
7.18135
7.30251
7.41838
7.5289
7.63402
-8.36475
-8.32285
-8.27906
-8.2322
-8.1818
-8.1278
-8.07014
-8.00875
-7.94356
-7.8745
-7.80151
-7.72453
-7.64351
-7.55841
-7.46918
-7.37579
-7.27821
-7.17642
-7.07041
-6.96016
-6.84567
-6.72695
-6.60401
-6.47687
-6.34554
-6.21007
-6.07049
-5.92684
-5.77918
-5.62756
-5.47205
-5.31272
-5.14965
-4.98291
-4.8126
-4.63881
-4.46164
-4.2812
-4.0976
-3.91095
-3.72137
-3.52899
-3.33393
-3.13633
-2.93633
-2.73407
-2.52969
-2.32333
-2.11516
-1.90532
-1.69397
-1.48126
-1.26737
-1.05244
-0.836645
-0.620149
-0.403118
-0.185719
0.03188
0.249511
0.467004
0.684191
0.900903
1.11697
1.33223
1.54651
1.75965
1.97148
2.18183
2.39056
2.59749
2.80247
3.00534
3.20596
3.40416
3.5998
3.79274
3.98283
4.16993
4.35392
4.53464
4.71199
4.88582
5.05603
5.22249
5.38508
5.54371
5.69827
5.84865
5.99476
6.13651
6.27381
6.40658
6.53475
6.65824
6.77698
6.89092
7
7.10416
7.20336
-7.93233
-7.88683
-7.83969
-7.78975
-7.73652
-7.67998
-7.62007
-7.55674
-7.48993
-7.41958
-7.34564
-7.26807
-7.18682
-7.10186
-7.01316
-6.92069
-6.82444
-6.72438
-6.6205
-6.51281
-6.4013
-6.28598
-6.16687
-6.04398
-5.91733
-5.78697
-5.65292
-5.51523
-5.37394
-5.22912
-5.08081
-4.92909
-4.77403
-4.61569
-4.45417
-4.28955
-4.12191
-3.95136
-3.778
-3.60192
-3.42324
-3.24208
-3.05854
-2.87275
-2.68484
-2.49492
-2.30314
-2.10962
-1.9145
-1.71792
-1.52003
-1.32095
-1.12084
-0.919853
-0.718125
-0.51581
-0.313059
-0.110022
0.093147
0.296296
0.499273
0.701924
0.904097
1.10564
1.3064
1.50622
1.70496
1.90247
2.09859
2.29318
2.4861
2.6772
2.86635
3.05339
3.2382
3.42064
3.60058
3.77788
3.95243
4.12409
4.29275
4.45829
4.6206
4.77957
4.93508
5.08704
5.23535
5.37991
5.52063
5.65742
5.79021
5.9189
6.04343
6.16373
6.27973
6.39137
6.49859
6.60135
6.69959
6.79327
-7.52586
-7.47751
-7.42778
-7.37547
-7.32013
-7.26173
-7.20024
-7.13561
-7.06779
-6.99673
-6.9224
-6.84475
-6.76376
-6.6794
-6.59165
-6.50048
-6.40588
-6.30784
-6.20636
-6.10143
-5.99306
-5.88127
-5.76605
-5.64745
-5.52547
-5.40015
-5.27154
-5.13965
-5.00455
-4.86628
-4.7249
-4.58047
-4.43305
-4.28271
-4.12953
-3.97358
-3.81496
-3.65374
-3.49001
-3.32388
-3.15543
-2.98478
-2.81203
-2.63729
-2.46067
-2.28229
-2.10226
-1.9207
-1.73774
-1.55351
-1.36813
-1.18173
-0.994445
-0.806403
-0.61774
-0.428592
-0.239095
-0.0493862
0.140397
0.330116
0.519632
0.708808
0.897503
1.08558
1.2729
1.45933
1.64473
1.82897
2.01191
2.19341
2.37336
2.55161
2.72803
2.90251
3.07492
3.24513
3.41302
3.57848
3.7414
3.90165
4.05913
4.21374
4.36537
4.51392
4.65929
4.80139
4.94013
5.07542
5.20718
5.33533
5.45979
5.5805
5.69738
5.81037
5.91941
6.02444
6.12542
6.22229
6.31501
6.40355
-7.14392
-7.09339
-7.04169
-6.98764
-6.9308
-6.87113
-6.80862
-6.74323
-6.67491
-6.60364
-6.52937
-6.45209
-6.37176
-6.28837
-6.2019
-6.11233
-6.01965
-5.92387
-5.82497
-5.72297
-5.61786
-5.50966
-5.39839
-5.28407
-5.16672
-5.04637
-4.92306
-4.79683
-4.66771
-4.53576
-4.40102
-4.26356
-4.12343
-3.9807
-3.83543
-3.6877
-3.53758
-3.38515
-3.2305
-3.07371
-2.91487
-2.75408
-2.59143
-2.42702
-2.26095
-2.09333
-1.92427
-1.75386
-1.58223
-1.40949
-1.23576
-1.06115
-0.885772
-0.70976
-0.533229
-0.356304
-0.179106
-0.00175986
0.175609
0.352876
0.529916
0.706604
0.882813
1.05842
1.2333
1.40732
1.58037
1.75232
1.92305
2.09244
2.26037
2.42672
2.59138
2.75422
2.91515
3.07404
3.23079
3.38528
3.53743
3.68712
3.83426
3.97874
4.12048
4.25938
4.39535
4.52832
4.65819
4.78489
4.90835
5.02848
5.14522
5.25852
5.36829
5.47449
5.57707
5.67596
5.77113
5.86253
5.95011
6.03386
-6.78517
-6.73303
-6.67991
-6.62466
-6.56682
-6.50638
-6.44333
-6.37763
-6.30926
-6.23818
-6.16437
-6.08781
-6.00848
-5.92636
-5.84144
-5.75371
-5.66317
-5.56982
-5.47365
-5.37468
-5.27291
-5.16835
-5.06103
-4.95097
-4.83818
-4.7227
-4.60456
-4.4838
-4.36046
-4.23458
-4.10621
-3.97541
-3.84222
-3.70672
-3.56895
-3.42899
-3.2869
-3.14276
-2.99665
-2.84864
-2.69882
-2.54726
-2.39407
-2.23932
-2.08311
-1.92553
-1.76669
-1.60668
-1.4456
-1.28356
-1.12066
-0.956999
-0.792696
-0.627856
-0.462589
-0.297005
-0.131216
0.0346645
0.200525
0.366252
0.531731
0.696849
0.861493
1.02555
1.1889
1.35145
1.51306
1.67364
1.83308
1.99125
2.14807
2.30341
2.45717
2.60926
2.75956
2.90797
3.05441
3.19876
3.34095
3.48086
3.61842
3.75353
3.88611
4.01608
4.14335
4.26786
4.38952
4.50826
4.62402
4.73672
4.84631
4.95272
5.05591
5.15581
5.25238
5.34556
5.43533
5.52163
5.60444
5.68371
-6.44831
-6.39505
-6.34098
-6.28497
-6.22658
-6.16578
-6.10259
-6.03698
-5.96891
-5.89837
-5.82533
-5.74979
-5.67172
-5.59111
-5.50797
-5.42227
-5.33403
-5.24324
-5.14991
-5.05404
-4.95564
-4.85474
-4.75135
-4.64548
-4.53717
-4.42644
-4.31333
-4.19786
-4.08009
-3.96004
-3.83777
-3.71331
-3.58674
-3.45809
-3.32743
-3.19481
-3.06031
-2.92398
-2.7859
-2.64614
-2.50477
-2.36187
-2.21752
-2.0718
-1.9248
-1.7766
-1.6273
-1.47697
-1.32572
-1.17363
-1.0208
-0.867325
-0.713307
-0.558842
-0.404029
-0.248969
-0.0937622
0.0614888
0.216682
0.371715
0.526484
0.680888
0.834823
0.988186
1.14088
1.29279
1.44383
1.59389
1.74287
1.89067
2.0372
2.18236
2.32605
2.46818
2.60866
2.74739
2.88428
3.01925
3.15222
3.28309
3.41178
3.53822
3.66233
3.78403
3.90326
4.01993
4.13398
4.24535
4.35397
4.45979
4.56275
4.66278
4.75985
4.8539
4.9449
5.03278
5.11752
5.19909
5.27744
5.35255
-6.13207
-6.07811
-6.02349
-5.96711
-5.90853
-5.84774
-5.78475
-5.71953
-5.65207
-5.58235
-5.51035
-5.43606
-5.35947
-5.28057
-5.19937
-5.11585
-5.03002
-4.94189
-4.85145
-4.75873
-4.66372
-4.56645
-4.46694
-4.36521
-4.26127
-4.15516
-4.04692
-3.93656
-3.82413
-3.70967
-3.59322
-3.47483
-3.35453
-3.23239
-3.10845
-2.98278
-2.85543
-2.72645
-2.59592
-2.46391
-2.33047
-2.19568
-2.05961
-1.92234
-1.78394
-1.64449
-1.50407
-1.36277
-1.22066
-1.07783
-0.934374
-0.790368
-0.645904
-0.501072
-0.355961
-0.210664
-0.0652711
0.0801251
0.225432
0.370557
0.515407
0.659889
0.803909
0.947375
1.09019
1.23227
1.37352
1.51385
1.65316
1.79138
1.9284
2.06414
2.19851
2.33144
2.46283
2.5926
2.72067
2.84697
2.97141
3.09391
3.21441
3.33283
3.4491
3.56315
3.67492
3.78434
3.89135
3.99589
4.09791
4.19734
4.29415
4.38827
4.47967
4.56829
4.6541
4.73706
4.81713
4.89429
4.96849
5.03971
-5.83526
-5.78095
-5.72612
-5.6697
-5.61124
-5.55075
-5.48824
-5.42369
-5.35708
-5.2884
-5.21765
-5.1448
-5.06986
-4.99283
-4.91369
-4.83245
-4.74912
-4.6637
-4.5762
-4.48663
-4.395
-4.30133
-4.20563
-4.10794
-4.00826
-3.90664
-3.80309
-3.69765
-3.59036
-3.48124
-3.37035
-3.25772
-3.14339
-3.02742
-2.90984
-2.79072
-2.67011
-2.54806
-2.42463
-2.29989
-2.17389
-2.04669
-1.91837
-1.78899
-1.65863
-1.52734
-1.39521
-1.26232
-1.12873
-0.994516
-0.859768
-0.724559
-0.58897
-0.453082
-0.316977
-0.180736
-0.0444442
0.0918168
0.227962
0.363908
0.499571
0.634865
0.769707
0.904013
1.0377
1.17068
1.30287
1.4342
1.56457
1.69391
1.82214
1.94917
2.07493
2.19935
2.32234
2.44383
2.56374
2.68202
2.79857
2.91334
3.02626
3.13726
3.24628
3.35325
3.45812
3.56083
3.66132
3.75954
3.85543
3.94896
4.04006
4.1287
4.21483
4.29842
4.37942
4.4578
4.53353
4.60658
4.67691
4.74451
-5.55672
-5.50236
-5.44761
-5.39141
-5.33334
-5.27339
-5.21159
-5.14792
-5.08237
-5.01492
-4.94558
-4.87433
-4.80117
-4.7261
-4.64913
-4.57024
-4.48946
-4.40679
-4.32223
-4.23579
-4.1475
-4.05737
-3.96542
-3.87166
-3.77612
-3.67883
-3.57981
-3.4791
-3.37672
-3.27272
-3.16712
-3.05997
-2.9513
-2.84117
-2.72961
-2.61668
-2.50242
-2.38689
-2.27013
-2.15221
-2.03318
-1.9131
-1.79203
-1.67003
-1.54716
-1.4235
-1.2991
-1.17404
-1.04837
-0.922182
-0.795535
-0.668503
-0.541159
-0.413575
-0.285827
-0.157989
-0.0301361
0.0976562
0.225312
0.352754
0.479907
0.606695
0.733041
0.858868
0.984101
1.10866
1.23248
1.35548
1.47758
1.59872
1.71882
1.8378
1.9556
2.07214
2.18737
2.3012
2.41358
2.52443
2.63369
2.74131
2.84722
2.95135
3.05366
3.15409
3.25257
3.34907
3.44352
3.53589
3.62611
3.71416
3.79998
3.88353
3.96478
4.04369
4.12022
4.19434
4.26603
4.33526
4.40199
4.46621
-5.29533
-5.24118
-5.18674
-5.131
-5.07353
-5.01433
-4.95343
-4.89082
-4.82648
-4.76041
-4.69261
-4.62307
-4.55179
-4.47877
-4.40402
-4.32753
-4.24932
-4.1694
-4.08777
-4.00444
-3.91944
-3.83278
-3.74447
-3.65453
-3.563
-3.46989
-3.37523
-3.27905
-3.18137
-3.08224
-2.98168
-2.87974
-2.77644
-2.67184
-2.56597
-2.45887
-2.3506
-2.2412
-2.13071
-2.0192
-1.9067
-1.79328
-1.67899
-1.56389
-1.44803
-1.33147
-1.21428
-1.09651
-0.978232
-0.859504
-0.740391
-0.620959
-0.501274
-0.381402
-0.261411
-0.141368
-0.0213414
0.0985997
0.218387
0.337951
0.457222
0.576133
0.694612
0.812592
0.930004
1.04678
1.16285
1.27814
1.3926
1.50615
1.61873
1.73027
1.8407
1.94997
2.05802
2.16477
2.27017
2.37416
2.47669
2.57769
2.67711
2.7749
2.871
2.96537
3.05795
3.14869
3.23756
3.3245
3.40947
3.49244
3.57336
3.65219
3.72891
3.80347
3.87585
3.94602
4.01395
4.07961
4.14299
4.20406
-5.05004
-4.99632
-4.94239
-4.88729
-4.83059
-4.77231
-4.71247
-4.65105
-4.58806
-4.52348
-4.45732
-4.38957
-4.32023
-4.24932
-4.17682
-4.10276
-4.02713
-3.94994
-3.87121
-3.79094
-3.70916
-3.62588
-3.54111
-3.45489
-3.36722
-3.27813
-3.18765
-3.0958
-3.00262
-2.90814
-2.81237
-2.71537
-2.61716
-2.51779
-2.41729
-2.3157
-2.21306
-2.10942
-2.00483
-1.89932
-1.79295
-1.68577
-1.57782
-1.46917
-1.35985
-1.24993
-1.13945
-1.02848
-0.91708
-0.805296
-0.693191
-0.580824
-0.468255
-0.355544
-0.242754
-0.129944
-0.0171774
0.0954841
0.207978
0.320241
0.432212
0.543827
0.655023
0.765739
0.875911
0.985479
1.09438
1.20255
1.30993
1.41647
1.52209
1.62674
1.73037
1.83291
1.93432
2.03452
2.13348
2.23113
2.32742
2.4223
2.51572
2.60764
2.698
2.78676
2.87387
2.95929
3.04298
3.12489
3.205
3.28326
3.35963
3.43409
3.5066
3.57712
3.64565
3.71213
3.77656
3.83891
3.89915
3.95728
-4.81985
-4.76672
-4.71348
-4.65917
-4.6034
-4.54616
-4.4875
-4.42739
-4.36583
-4.30283
-4.23838
-4.17248
-4.10514
-4.03635
-3.96613
-3.89448
-3.82141
-3.74693
-3.67105
-3.59379
-3.51515
-3.43516
-3.35383
-3.27118
-3.18723
-3.10201
-3.01554
-2.92784
-2.83894
-2.74888
-2.65767
-2.56536
-2.47197
-2.37754
-2.2821
-2.1857
-2.08837
-1.99016
-1.89109
-1.79122
-1.6906
-1.58925
-1.48724
-1.38461
-1.2814
-1.17767
-1.07346
-0.968829
-0.863827
-0.758506
-0.652919
-0.547121
-0.441165
-0.335107
-0.229001
-0.122905
-0.0168731
0.0890372
0.194769
0.300267
0.405472
0.510329
0.614781
0.718771
0.822242
0.925138
1.0274
1.12898
1.22982
1.32986
1.42905
1.52734
1.62467
1.72099
1.81625
1.9104
2.0034
2.09518
2.1857
2.27492
2.3628
2.44928
2.53432
2.61789
2.69993
2.78042
2.85932
2.93658
3.01217
3.08606
3.15822
3.22861
3.29721
3.36399
3.42893
3.49199
3.55316
3.61242
3.66974
3.72511
-4.6038
-4.55142
-4.49899
-4.4456
-4.39086
-4.33478
-4.27738
-4.21866
-4.15862
-4.09725
-4.03456
-3.97055
-3.90522
-3.83858
-3.77063
-3.70138
-3.63085
-3.55903
-3.48595
-3.41161
-3.33603
-3.25922
-3.18121
-3.10201
-3.02165
-2.94013
-2.85749
-2.77375
-2.68894
-2.60308
-2.5162
-2.42832
-2.33949
-2.24974
-2.15908
-2.06757
-1.97524
-1.88212
-1.78825
-1.69367
-1.59842
-1.50255
-1.40609
-1.30908
-1.21158
-1.11363
-1.01526
-0.916539
-0.817501
-0.718197
-0.618676
-0.518986
-0.419176
-0.319298
-0.219401
-0.119536
-0.0197547
0.0798929
0.179355
0.27858
0.377515
0.476111
0.574315
0.672075
0.769341
0.866062
0.962186
1.05766
1.15244
1.24648
1.33972
1.43212
1.52362
1.61418
1.70376
1.79231
1.87979
1.96614
2.05133
2.13531
2.21805
2.2995
2.37962
2.45838
2.53574
2.61166
2.6861
2.75905
2.83046
2.9003
2.96854
3.03516
3.10013
3.16343
3.22502
3.2849
3.34303
3.3994
3.45399
3.50679
-4.401
-4.34948
-4.29797
-4.2456
-4.19198
-4.13714
-4.08108
-4.02381
-3.96533
-3.90564
-3.84473
-3.78263
-3.71932
-3.65481
-3.58912
-3.52224
-3.4542
-3.38499
-3.31463
-3.24314
-3.17053
-3.09681
-3.022
-2.94612
-2.86918
-2.79122
-2.71224
-2.63228
-2.55135
-2.46948
-2.3867
-2.30304
-2.21852
-2.13317
-2.04703
-1.96013
-1.87249
-1.78416
-1.69517
-1.60555
-1.51535
-1.42459
-1.33332
-1.24159
-1.14941
-1.05685
-0.96394
-0.870723
-0.777241
-0.68354
-0.589663
-0.495655
-0.401561
-0.307426
-0.213296
-0.119218
-0.0252374
0.068599
0.162244
0.255652
0.348776
0.441568
0.533982
0.625972
0.71749
0.808491
0.898928
0.988757
1.07793
1.16641
1.25414
1.34108
1.42719
1.51243
1.59675
1.68012
1.76248
1.84381
1.92406
2.00319
2.08117
2.15796
2.23353
2.30783
2.38084
2.45253
2.52286
2.5918
2.65932
2.72541
2.79002
2.85313
2.91473
2.97478
3.03327
3.09017
3.14547
3.19915
3.25119
3.30159
-4.21058
-4.16002
-4.10952
-4.05824
-4.00582
-3.95226
-3.89759
-3.84182
-3.78493
-3.72694
-3.66784
-3.60763
-3.54634
-3.48395
-3.42048
-3.35594
-3.29033
-3.22367
-3.15597
-3.08724
-3.01749
-2.94675
-2.87502
-2.80232
-2.72868
-2.6541
-2.57862
-2.50225
-2.42502
-2.34695
-2.26806
-2.18837
-2.10793
-2.02675
-1.94486
-1.8623
-1.77908
-1.69525
-1.61084
-1.52588
-1.4404
-1.35444
-1.26803
-1.18121
-1.09402
-1.00649
-0.918668
-0.830584
-0.742281
-0.653798
-0.565176
-0.476454
-0.387675
-0.29888
-0.210109
-0.121406
-0.0328126
0.0556296
0.143878
0.231889
0.319622
0.407033
0.49408
0.580721
0.666913
0.752615
0.837785
0.922381
1.00636
1.08969
1.17232
1.25421
1.33533
1.41564
1.49509
1.57365
1.65129
1.72796
1.80364
1.87828
1.95185
2.02433
2.09567
2.16585
2.23483
2.30259
2.36909
2.43432
2.49824
2.56083
2.62207
2.68192
2.74038
2.79741
2.85301
2.90714
2.9598
3.01097
3.06062
3.10876
-4.03174
-3.98221
-3.93278
-3.88266
-3.83148
-3.77925
-3.72601
-3.67175
-3.61648
-3.56019
-3.50289
-3.44458
-3.38528
-3.32498
-3.2637
-3.20144
-3.13821
-3.07403
-3.0089
-2.94284
-2.87586
-2.80798
-2.73921
-2.66956
-2.59907
-2.52773
-2.45558
-2.38263
-2.30891
-2.23444
-2.15923
-2.08332
-2.00673
-1.92948
-1.8516
-1.77312
-1.69406
-1.61447
-1.53435
-1.45376
-1.3727
-1.29123
-1.20937
-1.12716
-1.04462
-0.961792
-0.878714
-0.795419
-0.711943
-0.628322
-0.544593
-0.460792
-0.376958
-0.293128
-0.20934
-0.125631
-0.0420416
0.0413913
0.124629
0.207632
0.290363
0.372783
0.454852
0.536534
0.617789
0.698579
0.778866
0.858614
0.937784
1.01634
1.09424
1.17146
1.24796
1.32369
1.39863
1.47275
1.54601
1.61837
1.6898
1.76028
1.82977
1.89825
1.96567
2.03202
2.09727
2.16138
2.22434
2.28612
2.34669
2.40604
2.46413
2.52096
2.57649
2.63071
2.68361
2.73516
2.78535
2.83417
2.8816
2.92762
-3.86372
-3.81527
-3.76697
-3.71804