/*--------------------------------*- C++ -*----------------------------------*\
  =========                 |
  \\      /  F ield         | OpenFOAM: The Open Source CFD Toolbox
   \\    /   O peration     | Website:  https://openfoam.org
    \\  /    A nd           | Version:  8
     \\/     M anipulation  |
\*---------------------------------------------------------------------------*/
FoamFile
{
    version     2.0;
    format      ascii;
    class       surfaceScalarField;
    location    "0.5";
    object      phi;
}
// * * * * * * * * * * * * * * * * * * * * * * * * * * * * * * * * * * * * * //

dimensions      [0 3 -1 0 0 0 0];

internalField   nonuniform List<scalar> 
229340
(
-0.00466855
0.000222169
0.00444638
-0.00488092
0.000212367
-0.00508352
0.000202605
-0.00527613
0.000192606
-0.00545866
0.000182533
-0.00563114
0.000172474
-0.00579364
0.000162504
-0.00594632
0.000152676
-0.00608934
0.000143024
-0.0062229
0.000133559
-0.00634718
0.000124278
-0.00646236
0.000115182
-0.00656865
0.000106287
-0.00666625
9.7606e-05
-0.0067554
8.91449e-05
-0.0068363
8.09021e-05
-0.00690917
7.28722e-05
-0.00697422
6.50488e-05
-0.00703165
5.74244e-05
-0.00708164
4.9995e-05
-0.0071244
4.27598e-05
-0.00716012
3.5723e-05
-0.00718902
2.88992e-05
-0.00721133
2.2307e-05
-0.0072273
1.5968e-05
-0.00723716
9.86277e-06
-0.00724121
4.0516e-06
-0.00723996
-1.25577e-06
-0.00723413
-5.83178e-06
-0.00722436
-9.7674e-06
-0.00721107
-1.32895e-05
-0.00719454
-1.65237e-05
-0.00717499
-1.95535e-05
-0.00715256
-2.24346e-05
-0.00712736
-2.52008e-05
-0.00709948
-2.78763e-05
-0.007069
-3.04769e-05
-0.00703599
-3.30131e-05
-0.0070005
-3.54928e-05
-0.00696258
-3.79214e-05
-0.00692227
-4.03025e-05
-0.00687963
-4.26392e-05
-0.0068347
-4.49339e-05
-0.00678751
-4.71876e-05
-0.00673811
-4.94022e-05
-0.00668653
-5.1579e-05
-0.00663281
-5.37189e-05
-0.00657699
-5.58213e-05
-0.0065191
-5.78887e-05
-0.00645918
-5.99202e-05
-0.00639726
-6.19164e-05
-0.00633339
-6.38781e-05
-0.00626758
-6.58051e-05
-0.00619988
-6.76975e-05
-0.00613033
-6.95562e-05
-0.00605895
-7.13807e-05
-0.00598578
-7.31711e-05
-0.00591085
-7.49275e-05
-0.0058342
-7.66496e-05
-0.00575586
-7.83386e-05
-0.00567587
-7.99928e-05
-0.00559425
-8.16136e-05
-0.00551105
-8.32001e-05
-0.0054263
-8.47527e-05
-0.00534003
-8.62711e-05
-0.00525228
-8.77549e-05
-0.00516307
-8.92047e-05
-0.00507245
-9.06197e-05
-0.00498045
-9.20001e-05
-0.0048871
-9.33458e-05
-0.00479245
-9.46569e-05
-0.00469652
-9.59324e-05
-0.00459934
-9.71732e-05
-0.00450096
-9.83787e-05
-0.00440141
-9.95486e-05
-0.00430073
-0.000100682
-0.00419895
-0.000101781
-0.00409611
-0.000102844
-0.00399224
-0.000103871
-0.00388737
-0.000104863
-0.00378155
-0.000105819
-0.00367482
-0.000106739
-0.00356719
-0.000107626
-0.00345871
-0.000108478
-0.00334941
-0.000109299
-0.00323932
-0.000110088
-0.00312848
-0.000110849
-0.00301689
-0.000111586
-0.00290459
-0.000112302
-0.00279158
-0.000113007
-0.00267787
-0.000113709
-0.00256345
-0.00011442
-0.0024483
-0.000115155
-0.00233237
-0.00011593
-0.00221561
-0.000116754
-0.002098
-0.000117609
-0.00197958
-0.000118423
-0.00186053
-0.000119053
-0.00174117
-0.000119352
-0.000119333
-0.00162184
-0.0074498
0.000330966
0.00734101
-0.00754447
0.000307029
-0.00762592
0.000284061
-0.00769532
0.000262001
-0.00775372
0.000240933
-0.00780213
0.000220885
-0.00784149
0.000201871
-0.00787271
0.00018389
-0.00789661
0.000166927
-0.007914
0.000150952
-0.00792564
0.000135912
-0.0079322
0.000121747
-0.00793431
0.000108398
-0.00793252
9.58143e-05
-0.00792732
8.39459e-05
-0.00791916
7.2744e-05
-0.00790845
6.21624e-05
-0.00789556
5.2159e-05
-0.00788083
4.26928e-05
-0.00786457
3.37276e-05
-0.00784703
2.52281e-05
-0.00782847
1.7164e-05
-0.00780908
9.50643e-06
-0.00778901
2.23305e-06
-0.00776838
-4.65867e-06
-0.00774736
-1.11548e-05
-0.00772605
-1.72595e-05
-0.00770425
-2.30579e-05
-0.00768135
-2.8734e-05
-0.00765673
-3.43817e-05
-0.00763008
-3.99454e-05
-0.00760119
-4.54072e-05
-0.00756999
-5.07606e-05
-0.00753642
-5.60038e-05
-0.00750048
-6.11401e-05
-0.00746218
-6.61736e-05
-0.00742155
-7.11088e-05
-0.00737861
-7.59495e-05
-0.0073334
-8.0701e-05
-0.00728596
-8.53664e-05
-0.00723631
-8.99483e-05
-0.0071845
-9.44498e-05
-0.00713056
-9.88741e-05
-0.00707453
-0.000103221
-0.00701644
-0.000107495
-0.00695632
-0.000111695
-0.00689422
-0.000115824
-0.00683015
-0.000119882
-0.00676417
-0.00012387
-0.00669631
-0.000127789
-0.00662658
-0.000131639
-0.00655504
-0.00013542
-0.00648171
-0.000139134
-0.00640663
-0.000142781
-0.00632982
-0.00014636
-0.00625133
-0.000149871
-0.00617119
-0.000153316
-0.00608942
-0.000156694
-0.00600607
-0.000160004
-0.00592116
-0.000163248
-0.00583473
-0.000166425
-0.0057468
-0.000169534
-0.00565743
-0.000172577
-0.00556663
-0.000175552
-0.00547444
-0.000178459
-0.0053809
-0.000181299
-0.00528603
-0.000184071
-0.00518988
-0.000186775
-0.00509246
-0.000189412
-0.00499383
-0.00019198
-0.00489401
-0.000194479
-0.00479303
-0.000196911
-0.00469093
-0.000199273
-0.00458774
-0.000201567
-0.0044835
-0.000203792
-0.00437823
-0.000205949
-0.00427198
-0.000208036
-0.00416477
-0.000210055
-0.00405663
-0.000212005
-0.00394761
-0.000213887
-0.00383773
-0.000215702
-0.00372702
-0.000217448
-0.00361551
-0.000219128
-0.00350325
-0.000220742
-0.00339026
-0.00022229
-0.00327657
-0.000223774
-0.00316223
-0.000225195
-0.00304726
-0.000226555
-0.0029317
-0.000227855
-0.00281561
-0.000229097
-0.00269904
-0.000230281
-0.00258205
-0.000231409
-0.00246473
-0.000232477
-0.00234718
-0.000233483
-0.00222952
-0.000234417
-0.00211186
-0.000235264
-0.00199428
-0.000236
-0.00187674
-0.000236601
-0.00175903
-0.000237053
-0.000237375
-0.00164099
-0.0076406
0.00036093
0.00761064
-0.00766759
0.00033402
-0.00769221
0.000308676
-0.00771496
0.000284757
-0.00773623
0.000262198
-0.00775626
0.000240921
-0.00777524
0.000220844
-0.00779323
0.000201884
-0.00781026
0.000183956
-0.00782628
0.000166977
-0.00784124
0.000150866
-0.00785504
0.000135549
-0.0078676
0.00012096
-0.00787883
0.000107039
-0.00788862
9.37349e-05
-0.00789687
8.09977e-05
-0.00790349
6.87855e-05
-0.00790839
5.70579e-05
-0.00791148
4.57789e-05
-0.00791267
3.49155e-05
-0.00791187
2.44348e-05
-0.00790901
1.43064e-05
-0.00790401
4.4993e-06
-0.00789675
-5.0201e-06
-0.00788711
-1.42996e-05
-0.00787492
-2.33483e-05
-0.00785998
-3.21986e-05
-0.00784214
-4.08952e-05
-0.00782142
-4.94539e-05
-0.00779795
-5.78581e-05
-0.0077718
-6.60941e-05
-0.00774304
-7.41633e-05
-0.00771173
-8.20684e-05
-0.00767792
-8.98156e-05
-0.00764165
-9.74127e-05
-0.00760296
-0.000104866
-0.00756188
-0.000112183
-0.00751847
-0.000119367
-0.00747274
-0.000126425
-0.00742475
-0.000133361
-0.00737452
-0.000140179
-0.00732209
-0.000146881
-0.00726749
-0.000153471
-0.00721076
-0.00015995
-0.00715193
-0.000166321
-0.00709104
-0.000172585
-0.00702812
-0.000178744
-0.00696321
-0.000184799
-0.00689633
-0.00019075
-0.00682751
-0.0001966
-0.00675681
-0.000202346
-0.00668423
-0.000207992
-0.00660983
-0.000213537
-0.00653363
-0.000218981
-0.00645567
-0.000224325
-0.00637597
-0.000229569
-0.00629457
-0.000234712
-0.00621151
-0.000239755
-0.00612682
-0.000244697
-0.00604053
-0.000249539
-0.00595267
-0.000254281
-0.00586328
-0.000258922
-0.0057724
-0.000263462
-0.00568005
-0.000267901
-0.00558627
-0.000272239
-0.00549109
-0.000276474
-0.00539456
-0.000280609
-0.00529669
-0.000284641
-0.00519753
-0.00028857
-0.00509712
-0.000292397
-0.00499547
-0.000296121
-0.00489264
-0.000299742
-0.00478866
-0.000303259
-0.00468355
-0.000306673
-0.00457736
-0.000309983
-0.00447012
-0.000313188
-0.00436186
-0.00031629
-0.00425263
-0.000319287
-0.00414246
-0.000322181
-0.00403137
-0.000324969
-0.00391942
-0.000327654
-0.00380663
-0.000330235
-0.00369305
-0.000332712
-0.00357871
-0.000335085
-0.00346364
-0.000337355
-0.0033479
-0.000339522
-0.00323151
-0.000341586
-0.00311451
-0.000343549
-0.00299696
-0.00034541
-0.00287888
-0.00034717
-0.00276034
-0.000348828
-0.00264136
-0.000350383
-0.00252201
-0.000351835
-0.00240231
-0.000353179
-0.00228232
-0.00035441
-0.00216206
-0.00035552
-0.00204156
-0.0003565
-0.00192082
-0.000357341
-0.00179983
-0.00035804
-0.000358602
-0.00167861
-0.00770466
0.000394745
0.00767085
-0.00773874
0.000368097
-0.00777271
0.000342646
-0.00780631
0.000318363
-0.00783928
0.000295161
-0.00787132
0.000272961
-0.00790216
0.000251688
-0.00793155
0.000231278
-0.00795927
0.000211669
-0.00798509
0.000192804
-0.00800886
0.000174632
-0.00803042
0.000157108
-0.00804965
0.000140188
-0.00806644
0.000123834
-0.00808072
0.000108009
-0.0080924
9.26806e-05
-0.00810143
7.78187e-05
-0.00810777
6.33951e-05
-0.00811137
4.93837e-05
-0.00811222
3.5761e-05
-0.00811029
2.25052e-05
-0.00810558
9.59597e-06
-0.00809809
-2.98654e-06
-0.00808786
-1.52578e-05
-0.00807491
-2.72464e-05
-0.00805928
-3.89794e-05
-0.008041
-5.04743e-05
-0.00802015
-6.17524e-05
-0.00799677
-7.28306e-05
-0.00797091
-8.37174e-05
-0.00794259
-9.44167e-05
-0.00791182
-0.000104933
-0.00787862
-0.00011527
-0.007843
-0.000125431
-0.00780499
-0.000135422
-0.00776461
-0.000145246
-0.00772189
-0.000154906
-0.00767685
-0.000164409
-0.00762952
-0.000173756
-0.00757993
-0.000182951
-0.00752811
-0.000191997
-0.00747409
-0.000200896
-0.00741791
-0.000209652
-0.0073596
-0.000218266
-0.00729918
-0.000226739
-0.00723669
-0.000235074
-0.00717216
-0.000243272
-0.00710563
-0.000251333
-0.00703712
-0.000259259
-0.00696667
-0.00026705
-0.00689431
-0.000274707
-0.00682007
-0.00028223
-0.00674399
-0.00028962
-0.00666609
-0.000296877
-0.00658642
-0.000304
-0.006505
-0.00031099
-0.00642186
-0.000317848
-0.00633704
-0.000324572
-0.00625058
-0.000331162
-0.0061625
-0.000337619
-0.00607284
-0.000343942
-0.00598163
-0.000350131
-0.00588891
-0.000356186
-0.0057947
-0.000362105
-0.00569905
-0.00036789
-0.00560199
-0.000373538
-0.00550355
-0.000379051
-0.00540376
-0.000384427
-0.00530266
-0.000389667
-0.00520029
-0.000394768
-0.00509668
-0.000399733
-0.00499186
-0.000404559
-0.00488587
-0.000409248
-0.00477875
-0.000413797
-0.00467052
-0.000418207
-0.00456124
-0.000422477
-0.00445092
-0.000426608
-0.00433961
-0.000430599
-0.00422734
-0.000434449
-0.00411415
-0.000438159
-0.00400008
-0.000441728
-0.00388515
-0.000445157
-0.00376942
-0.000448444
-0.00365291
-0.000451591
-0.00353567
-0.000454596
-0.00341774
-0.00045746
-0.00329914
-0.000460182
-0.00317993
-0.000462762
-0.00306014
-0.000465201
-0.00293981
-0.000467497
-0.00281899
-0.000469649
-0.00269771
-0.000471656
-0.00257603
-0.000473517
-0.00245398
-0.000475229
-0.0023316
-0.000476791
-0.00220892
-0.000478196
-0.00208598
-0.000479444
-0.00196279
-0.000480532
-0.00183937
-0.000481458
-0.000482225
-0.00171575
-0.00788719
0.000434995
0.00784694
-0.00792702
0.000407931
-0.00796609
0.000381714
-0.00800404
0.000356312
-0.00804058
0.000331696
-0.00807545
0.000307833
-0.00810845
0.000284692
-0.00813942
0.000262241
-0.00816819
0.000240448
-0.00819467
0.000219282
-0.00821876
0.000198715
-0.00824037
0.000178717
-0.00825944
0.000159261
-0.00827593
0.00014032
-0.00828979
0.000121869
-0.00830099
0.000103883
-0.00830951
8.63397e-05
-0.00831533
6.92161e-05
-0.00831844
5.24901e-05
-0.00831882
3.61412e-05
-0.00831646
2.01479e-05
-0.00831135
4.48965e-06
-0.00830349
-1.08515e-05
-0.00829285
-2.58943e-05
-0.00827945
-4.06433e-05
-0.00826332
-5.51153e-05
-0.00824447
-6.9325e-05
-0.00822293
-8.32866e-05
-0.00819875
-9.70107e-05
-0.00817197
-0.000110505
-0.00814261
-0.000123777
-0.00811071
-0.000136832
-0.0080763
-0.000149676
-0.00803942
-0.000162313
-0.00800009
-0.000174749
-0.00795835
-0.000186987
-0.00791422
-0.000199033
-0.00786774
-0.000210889
-0.00781894
-0.00022256
-0.00776784
-0.000234049
-0.00771448
-0.000245357
-0.00765889
-0.000256489
-0.00760109
-0.000267446
-0.00754113
-0.000278229
-0.00747903
-0.000288842
-0.00741482
-0.000299283
-0.00734853
-0.000309555
-0.00728021
-0.00031966
-0.00720987
-0.000329597
-0.00713755
-0.000339366
-0.00706329
-0.00034897
-0.00698711
-0.000358408
-0.00690905
-0.000367679
-0.00682914
-0.000376784
-0.00674742
-0.000385723
-0.00666391
-0.000394496
-0.00657866
-0.000403103
-0.00649169
-0.000411543
-0.00640303
-0.000419817
-0.00631273
-0.000427922
-0.00622081
-0.00043586
-0.00612731
-0.000443629
-0.00603227
-0.000451231
-0.00593571
-0.000458662
-0.00583768
-0.000465924
-0.0057382
-0.000473015
-0.00563731
-0.000479936
-0.00553506
-0.000486685
-0.00543146
-0.000493262
-0.00532657
-0.000499666
-0.0052204
-0.000505897
-0.00511301
-0.000511953
-0.00500442
-0.000517836
-0.00489467
-0.000523544
-0.0047838
-0.000529076
-0.00467185
-0.000534432
-0.00455884
-0.000539612
-0.00444483
-0.000544615
-0.00432984
-0.000549441
-0.00421391
-0.000554088
-0.00409708
-0.000558558
-0.00397939
-0.000562848
-0.00386087
-0.000566961
-0.00374157
-0.000570893
-0.00362152
-0.000574646
-0.00350076
-0.000578219
-0.00337933
-0.000581611
-0.00325727
-0.000584822
-0.00313462
-0.000587852
-0.00301141
-0.000590699
-0.0028877
-0.000593363
-0.00276351
-0.000595843
-0.00263889
-0.000598138
-0.00251388
-0.000600246
-0.0023885
-0.000602165
-0.0022628
-0.000603894
-0.00213682
-0.000605431
-0.00201057
-0.000606775
-0.00188411
-0.000607927
-0.000608886
-0.00175744
-0.00816265
0.000477101
0.00812054
-0.00820345
0.000448729
-0.00824269
0.000420957
-0.0082802
0.00039382
-0.00831581
0.000367311
-0.00834939
0.000341417
-0.00838083
0.000316125
-0.00841
0.000291418
-0.00843684
0.00026728
-0.00846125
0.000243691
-0.00848316
0.000220634
-0.00850254
0.00019809
-0.00851932
0.000176041
-0.00853346
0.000154467
-0.00854495
0.000133352
-0.00855374
0.000112676
-0.00855982
9.24228e-05
-0.00856318
7.25759e-05
-0.00856381
5.31201e-05
-0.00856171
3.40396e-05
-0.00855688
1.53211e-05
-0.00854935
-3.04973e-06
-0.00853911
-2.10846e-05
-0.0085262
-3.88025e-05
-0.00851063
-5.62175e-05
-0.0084924
-7.33411e-05
-0.00847154
-9.0186e-05
-0.00844807
-0.000106761
-0.008422
-0.000123076
-0.00839337
-0.000139137
-0.0083622
-0.000154953
-0.0083285
-0.000170528
-0.00829231
-0.000185868
-0.00825364
-0.000200978
-0.00821253
-0.000215861
-0.008169
-0.000230521
-0.00812307
-0.000244962
-0.00807477
-0.000259188
-0.00802413
-0.0002732
-0.00797118
-0.000287002
-0.00791594
-0.000300595
-0.00785845
-0.000313983
-0.00779873
-0.000327165
-0.00773681
-0.000340145
-0.00767273
-0.000352923
-0.00760651
-0.000365499
-0.00753819
-0.000377876
-0.0074678
-0.000390054
-0.00739536
-0.000402032
-0.00732092
-0.000413811
-0.0072445
-0.000425393
-0.00716613
-0.000436775
-0.00708585
-0.000447959
-0.00700369
-0.000458945
-0.00691968
-0.000469732
-0.00683386
-0.000480319
-0.00674625
-0.000490706
-0.0066569
-0.000500894
-0.00656584
-0.00051088
-0.0064731
-0.000520665
-0.00637871
-0.000530248
-0.00628271
-0.000539628
-0.00618514
-0.000548806
-0.00608602
-0.000557779
-0.0059854
-0.000566547
-0.0058833
-0.000575109
-0.00577977
-0.000583465
-0.00567484
-0.000591614
-0.00556855
-0.000599555
-0.00546093
-0.000607287
-0.00535202
-0.00061481
-0.00524185
-0.000622123
-0.00513046
-0.000629225
-0.00501789
-0.000636115
-0.00490417
-0.000642792
-0.00478935
-0.000649256
-0.00467345
-0.000655507
-0.00455652
-0.000661543
-0.0044386
-0.000667364
-0.00431972
-0.000672969
-0.00419992
-0.000678358
-0.00407924
-0.00068353
-0.00395771
-0.000688485
-0.00383538
-0.000693221
-0.00371229
-0.000697739
-0.00358847
-0.000702037
-0.00346397
-0.000706116
-0.00333882
-0.000709974
-0.00321306
-0.000713611
-0.00308673
-0.000717025
-0.00295988
-0.000720218
-0.00283253
-0.000723186
-0.00270474
-0.00072593
-0.00257654
-0.000728448
-0.00244796
-0.000730741
-0.00231905
-0.000732805
-0.00218984
-0.000734641
-0.00206037
-0.000736249
-0.00193067
-0.000737627
-0.000738777
-0.00180078
-0.00846848
0.000517456
0.00842812
-0.00850721
0.000487464
-0.00854422
0.000457963
-0.00857937
0.000428969
-0.00861255
0.000400489
-0.00864365
0.000372522
-0.00867259
0.000345065
-0.00869928
0.000318112
-0.00872366
0.000291655
-0.00874565
0.000265684
-0.00876521
0.000240189
-0.00878228
0.000215159
-0.00879682
0.000190581
-0.00880879
0.000166444
-0.00881818
0.000142735
-0.00882494
0.000119441
-0.00882907
9.65489e-05
-0.00883054
7.40474e-05
-0.00882934
5.19232e-05
-0.00882547
3.01647e-05
-0.0088189
8.75902e-06
-0.00880965
-1.23049e-05
-0.0087977
-3.30385e-05
-0.00878305
-5.34496e-05
-0.00876572
-7.35465e-05
-0.00874572
-9.33392e-05
-0.00872307
-0.000112836
-0.00869779
-0.000132045
-0.00866989
-0.000150973
-0.0086394
-0.000169627
-0.00860634
-0.000188012
-0.00857074
-0.000206134
-0.00853261
-0.000223997
-0.00849198
-0.000241606
-0.00844888
-0.000258963
-0.00840333
-0.000276072
-0.00835535
-0.000292937
-0.00830498
-0.000309559
-0.00825224
-0.000325941
-0.00819716
-0.000342085
-0.00813976
-0.000357993
-0.00808007
-0.000373666
-0.00801813
-0.000389106
-0.00795396
-0.000404314
-0.0078876
-0.000419289
-0.00781906
-0.000434034
-0.00774839
-0.000448548
-0.00767561
-0.000462831
-0.00760076
-0.000476885
-0.00752386
-0.000490709
-0.00744495
-0.000504301
-0.00736407
-0.000517664
-0.00728123
-0.000530795
-0.00719648
-0.000543695
-0.00710985
-0.000556363
-0.00702137
-0.000568798
-0.00693108
-0.000581
-0.006839
-0.000592968
-0.00674518
-0.0006047
-0.00664965
-0.000616198
-0.00655244
-0.000627458
-0.00645359
-0.000638481
-0.00635313
-0.000649265
-0.0062511
-0.00065981
-0.00614753
-0.000670115
-0.00604246
-0.000680178
-0.00593593
-0.000689998
-0.00582796
-0.000699576
-0.00571861
-0.000708909
-0.0056079
-0.000717996
-0.00549588
-0.000726837
-0.00538257
-0.000735431
-0.00526802
-0.000743777
-0.00515226
-0.000751873
-0.00503533
-0.000759719
-0.00491727
-0.000767314
-0.00479812
-0.000774657
-0.00467792
-0.000781748
-0.0045567
-0.000788585
-0.0044345
-0.000795167
-0.00431136
-0.000801494
-0.00418733
-0.000807565
-0.00406243
-0.00081338
-0.00393672
-0.000818937
-0.00381022
-0.000824235
-0.00368298
-0.000829275
-0.00355505
-0.000834055
-0.00342644
-0.000838575
-0.00329722
-0.000842834
-0.00316742
-0.00084683
-0.00303707
-0.000850564
-0.00290622
-0.000854035
-0.00277491
-0.000857241
-0.00264318
-0.000860183
-0.00251106
-0.000862859
-0.00237859
-0.000865269
-0.00224582
-0.000867411
-0.00211279
-0.000869287
-0.00197952
-0.000870895
-0.000872237
-0.00184606
-0.00880149
0.000556188
0.00876276
-0.00883842
0.000524388
-0.00887344
0.00049298
-0.00890646
0.000461996
-0.00893742
0.000431445
-0.00896623
0.000401333
-0.00899282
0.00037166
-0.00901714
0.000342425
-0.00903911
0.000313627
-0.00905869
0.000285261
-0.00907582
0.000257321
-0.00909046
0.000229803
-0.00910258
0.000202698
-0.00911214
0.000176
-0.0091191
0.000149702
-0.00912345
0.000123793
-0.00912517
9.82677e-05
-0.00912424
7.31164e-05
-0.00912065
4.83314e-05
-0.00911439
2.39049e-05
-0.00910546
-1.71041e-07
-0.00909386
-2.39041e-05
-0.0090796
-4.73024e-05
-0.00906267
-7.03741e-05
-0.00904309
-9.31269e-05
-0.00902087
-0.000115566
-0.008996
-0.0001377
-0.00896851
-0.000159532
-0.00893842
-0.00018107
-0.00890573
-0.000202316
-0.00887046
-0.000223276
-0.00883264
-0.000243954
-0.00879229
-0.000264353
-0.00874942
-0.000284476
-0.00870405
-0.000304325
-0.00865622
-0.000323904
-0.00860594
-0.000343214
-0.00855325
-0.000362258
-0.00849815
-0.000381036
-0.00844069
-0.00039955
-0.00838088
-0.000417801
-0.00831876
-0.00043579
-0.00825435
-0.000453517
-0.00818768
-0.000470984
-0.00811877
-0.000488189
-0.00804767
-0.000505135
-0.0079744
-0.00052182
-0.00789899
-0.000538244
-0.00782147
-0.000554407
-0.00774187
-0.000570308
-0.00766022
-0.000585947
-0.00757656
-0.000601324
-0.00749092
-0.000616437
-0.00740333
-0.000631286
-0.00731382
-0.00064587
-0.00722243
-0.000660187
-0.00712919
-0.000674238
-0.00703414
-0.00068802
-0.00693731
-0.000701533
-0.00683873
-0.000714776
-0.00673844
-0.000727746
-0.00663648
-0.000740445
-0.00653288
-0.000752869
-0.00642767
-0.000765017
-0.00632089
-0.00077689
-0.00621259
-0.000788484
-0.00610279
-0.000799799
-0.00599153
-0.000810834
-0.00587885
-0.000821588
-0.00576479
-0.000832059
-0.00564938
-0.000842246
-0.00553266
-0.000852148
-0.00541467
-0.000861763
-0.00529545
-0.000871092
-0.00517504
-0.000880131
-0.00505348
-0.000888881
-0.00493079
-0.00089734
-0.00480703
-0.000905507
-0.00468224
-0.000913381
-0.00455644
-0.000920962
-0.00442969
-0.000928248
-0.00430202
-0.000935238
-0.00417346
-0.000941931
-0.00404407
-0.000948327
-0.00391389
-0.000954424
-0.00378294
-0.000960222
-0.00365128
-0.000965719
-0.00351893
-0.000970916
-0.00338596
-0.000975812
-0.00325238
-0.000980404
-0.00311825
-0.000984693
-0.00298361
-0.000988679
-0.00284849
-0.00099236
-0.00271294
-0.000995735
-0.00257699
-0.000998805
-0.00244069
-0.00100157
-0.00230408
-0.00100402
-0.00216719
-0.00100617
-0.00203007
-0.00100802
-0.00100955
-0.00189276
-0.00915604
0.000593091
0.00911913
-0.009191
0.000559351
-0.00922396
0.000525943
-0.00925486
0.000492891
-0.00928362
0.000460208
-0.00931019
0.0004279
-0.0093345
0.000395974
-0.00935651
0.000364431
-0.00937615
0.000333273
-0.00939339
0.0003025
-0.00940818
0.000272112
-0.00942049
0.000242106
-0.00943027
0.00021248
-0.0094375
0.00018323
-0.00944215
0.000154352
-0.0094442
0.000125842
-0.00944362
9.76951e-05
-0.00944041
6.99067e-05
-0.00943455
4.24714e-05
-0.00942603
1.53845e-05
-0.00941485
-1.13598e-05
-0.00940098
-3.77664e-05
-0.00938445
-6.38401e-05
-0.00936523
-8.95844e-05
-0.00934336
-0.000115005
-0.00931882
-0.000140105
-0.00929163
-0.00016489
-0.0092618
-0.000189362
-0.00922934
-0.000213526
-0.00919427
-0.000237385
-0.00915661
-0.000260941
-0.00911637
-0.000284197
-0.00907356
-0.000307155
-0.00902822
-0.000329818
-0.00898036
-0.000352187
-0.00893
-0.000374263
-0.00887717
-0.000396047
-0.00882188
-0.000417541
-0.00876417
-0.000438746
-0.00870406
-0.000459661
-0.00864158
-0.000480287
-0.00857674
-0.000500625
-0.00850959
-0.000520673
-0.00844014
-0.000540433
-0.00836842
-0.000559904
-0.00829447
-0.000579085
-0.00821832
-0.000597976
-0.00813998
-0.000616576
-0.00805951
-0.000634884
-0.00797691
-0.0006529
-0.00789224
-0.000670622
-0.00780551
-0.000688049
-0.00771677
-0.00070518
-0.00762604
-0.000722014
-0.00753336
-0.00073855
-0.00743876
-0.000754786
-0.00734228
-0.000770721
-0.00724395
-0.000786353
-0.0071438
-0.000801681
-0.00704187
-0.000816704
-0.0069382
-0.000831419
-0.00683282
-0.000845826
-0.00672576
-0.000859923
-0.00661707
-0.000873708
-0.00650678
-0.000887181
-0.00639493
-0.000900338
-0.00628155
-0.000913179
-0.00616668
-0.000925702
-0.00605036
-0.000937907
-0.00593263
-0.00094979
-0.00581352
-0.000961351
-0.00569308
-0.000972589
-0.00557134
-0.000983502
-0.00544835
-0.000994087
-0.00532413
-0.00100435
-0.00519874
-0.00101428
-0.0050722
-0.00102387
-0.00494457
-0.00103314
-0.00481588
-0.00104208
-0.00468616
-0.00105068
-0.00455547
-0.00105894
-0.00442384
-0.00106687
-0.00429131
-0.00107446
-0.00415792
-0.00108171
-0.00402372
-0.00108863
-0.00388874
-0.0010952
-0.00375303
-0.00110143
-0.00361663
-0.00110732
-0.00347957
-0.00111287
-0.00334191
-0.00111807
-0.00320368
-0.00112293
-0.00306492
-0.00112744
-0.00292567
-0.0011316
-0.00278598
-0.00113542
-0.00264589
-0.0011389
-0.00250544
-0.00114202
-0.00236467
-0.0011448
-0.00222361
-0.00114723
-0.00208232
-0.00114931
-0.00115104
-0.00194084
-0.00953331
0.000628461
0.00949794
-0.00956662
0.000592661
-0.00959781
0.000557136
-0.00962684
0.000521914
-0.00965364
0.000487009
-0.00967817
0.000452429
-0.00970037
0.000418182
-0.00972022
0.000384273
-0.00973765
0.000350706
-0.00975263
0.000317485
-0.00976513
0.000284612
-0.00977512
0.000252087
-0.00978255
0.000219912
-0.0097874
0.000188085
-0.00978966
0.000156607
-0.00978929
0.000125476
-0.00978629
9.46906e-05
-0.00978063
6.42489e-05
-0.00977231
3.41489e-05
-0.00976131
4.38842e-06
-0.00974764
-2.50346e-05
-0.00973128
-5.41228e-05
-0.00971224
-8.28792e-05
-0.00969052
-0.000111305
-0.00966612
-0.000139404
-0.00963905
-0.000167177
-0.00960931
-0.000194627
-0.00957692
-0.000221756
-0.00954188
-0.000248565
-0.00950421
-0.000275056
-0.00946392
-0.00030123
-0.00942103
-0.000327089
-0.00937555
-0.000352632
-0.00932751
-0.000377862
-0.00927692
-0.000402778
-0.0092238
-0.000427381
-0.00916817
-0.000451671
-0.00911007
-0.000475648
-0.0090495
-0.000499312
-0.0089865
-0.000522662
-0.00892109
-0.000545698
-0.00885329
-0.00056842
-0.00878314
-0.000590826
-0.00871066
-0.000612916
-0.00863587
-0.000634689
-0.00855881
-0.000656143
-0.00847951
-0.000677278
-0.00839799
-0.000698092
-0.0083143
-0.000718584
-0.00822844
-0.000738752
-0.00814047
-0.000758595
-0.00805041
-0.000778111
-0.00795829
-0.000797298
-0.00786415
-0.000816156
-0.00776802
-0.000834682
-0.00766993
-0.000852874
-0.00756992
-0.00087073
-0.00746802
-0.000888249
-0.00736428
-0.000905429
-0.00725871
-0.000922268
-0.00715137
-0.000938764
-0.00704228
-0.000954916
-0.00693148
-0.000970721
-0.00681901
-0.000986177
-0.00670491
-0.00100128
-0.00658921
-0.00101604
-0.00647195
-0.00103044
-0.00635318
-0.00104448
-0.00623292
-0.00105817
-0.00611122
-0.00107149
-0.00598811
-0.00108446
-0.00586364
-0.00109706
-0.00573785
-0.0011093
-0.00561076
-0.00112117
-0.00548244
-0.00113267
-0.00535291
-0.00114381
-0.00522221
-0.00115457
-0.00509039
-0.00116496
-0.00495748
-0.00117498
-0.00482354
-0.00118462
-0.00468859
-0.00119389
-0.00455268
-0.00120278
-0.00441586
-0.00121129
-0.00427816
-0.00121941
-0.00413962
-0.00122716
-0.00400029
-0.00123453
-0.00386021
-0.00124151
-0.00371943
-0.00124811
-0.00357797
-0.00125432
-0.0034359
-0.00126014
-0.00329324
-0.00126558
-0.00315004
-0.00127063
-0.00300635
-0.0012753
-0.00286221
-0.00127957
-0.00271765
-0.00128345
-0.00257272
-0.00128695
-0.00242747
-0.00129005
-0.00228193
-0.00129276
-0.00213616
-0.00129508
-0.00129701
-0.00199018
-0.00993327
0.000662379
0.00989935
-0.00996501
0.000624399
-0.00999452
0.000586652
-0.0100218
0.000549165
-0.0100467
0.00051195
-0.0100693
0.000475018
-0.0100895
0.000438379
-0.0101073
0.00040204
-0.0101226
0.000366008
-0.0101354
0.000330287
-0.0101456
0.000294882
-0.0101534
0.000259797
-0.0101585
0.000225035
-0.010161
0.000190598
-0.0101609
0.000156489
-0.0101581
0.000122708
-0.0101527
8.92565e-05
-0.0101446
5.6136e-05
-0.0101337
2.3346e-05
-0.0101202
-9.11293e-06
-0.010104
-4.12408e-05
-0.0100851
-7.30378e-05
-0.0100635
-0.000104503
-0.0100392
-0.000135639
-0.0100121
-0.000166444
-0.00998239
-0.000196918
-0.00994995
-0.000227063
-0.00991483
-0.000256877
-0.00987704
-0.000286361
-0.00983658
-0.000315515
-0.00979347
-0.00034434
-0.00974772
-0.000372833
-0.00969936
-0.000400996
-0.00964839
-0.000428826
-0.00959485
-0.000456326
-0.00953874
-0.000483491
-0.00948009
-0.000510323
-0.00941891
-0.000536821
-0.00935524
-0.000562982
-0.0092891
-0.000588806
-0.00922051
-0.000614291
-0.00914949
-0.000639436
-0.00907608
-0.000664239
-0.00900029
-0.000688699
-0.00892217
-0.000712815
-0.00884173
-0.000736582
-0.00875901
-0.000760002
-0.00867403
-0.000783071
-0.00858682
-0.000805787
-0.00849743
-0.000828149
-0.00840587
-0.000850153
-0.00831218
-0.000871799
-0.0082164
-0.000893083
-0.00811855
-0.000914005
-0.00801867
-0.00093456
-0.00791679
-0.000954748
-0.00781296
-0.000974566
-0.00770719
-0.000994012
-0.00759954
-0.00101308
-0.00749003
-0.00103178
-0.00737871
-0.00105009
-0.0072656
-0.00106802
-0.00715075
-0.00108557
-0.00703419
-0.00110274
-0.00691596
-0.00111951
-0.0067961
-0.0011359
-0.00667465
-0.00115189
-0.00655164
-0.00116748
-0.00642712
-0.00118269
-0.00630113
-0.00119749
-0.0061737
-0.00121189
-0.00604487
-0.00122589
-0.00591469
-0.00123948
-0.00578319
-0.00125266
-0.00565043
-0.00126544
-0.00551643
-0.00127781
-0.00538123
-0.00128976
-0.00524489
-0.0013013
-0.00510744
-0.00131243
-0.00496893
-0.00132314
-0.00482939
-0.00133343
-0.00468887
-0.0013433
-0.00454741
-0.00135274
-0.00440506
-0.00136177
-0.00426185
-0.00137037
-0.00411783
-0.00137855
-0.00397305
-0.00138629
-0.00382754
-0.00139362
-0.00368135
-0.00140051
-0.00353452
-0.00140697
-0.0033871
-0.00141301
-0.00323912
-0.00141861
-0.00309064
-0.00142378
-0.0029417
-0.00142851
-0.00279234
-0.00143282
-0.0026426
-0.00143669
-0.00249253
-0.00144012
-0.00234217
-0.00144312
-0.00219156
-0.00144569
-0.00144782
-0.00204075
-0.0103569
0.00069501
0.0103242
-0.0103872
0.000654732
-0.0104152
0.000614651
-0.0104408
0.000574791
-0.010464
0.000535168
-0.0104848
0.000495793
-0.0105031
0.000456678
-0.0105189
0.000417829
-0.0105322
0.000379257
-0.0105428
0.000340968
-0.0105509
0.000302968
-0.0105564
0.000265264
-0.0105592
0.00022786
-0.0105594
0.00019076
-0.0105569
0.000153971
-0.0105517
0.000117493
-0.0105437
8.13324e-05
-0.0105331
4.54901e-05
-0.0105197
9.96993e-06
-0.0105036
-2.52265e-05
-0.0104847
-6.00965e-05
-0.0104631
-9.46386e-05
-0.0104388
-0.00012885
-0.0104117
-0.00016273
-0.0103819
-0.000196277
-0.0103493
-0.000229489
-0.010314
-0.000262364
-0.010276
-0.000294901
-0.0102352
-0.000327097
-0.0101918
-0.000358953
-0.0101457
-0.000390465
-0.0100969
-0.000421633
-0.0100454
-0.000452454
-0.00999131
-0.000482927
-0.00993459
-0.000513049
-0.00987526
-0.000542819
-0.00981335
-0.000572235
-0.00974887
-0.000601295
-0.00968186
-0.000629997
-0.00961232
-0.000658337
-0.0095403
-0.000686315
-0.00946581
-0.000713927
-0.00938888
-0.000741171
-0.00930953
-0.000768046
-0.0092278
-0.000794547
-0.00914371
-0.000820673
-0.00905729
-0.000846422
-0.00896857
-0.00087179
-0.00887758
-0.000896775
-0.00878435
-0.000921374
-0.00868892
-0.000945585
-0.00859132
-0.000969404
-0.00849157
-0.000992829
-0.00838972
-0.00101586
-0.00828579
-0.00103849
-0.00817983
-0.00106071
-0.00807186
-0.00108253
-0.00796193
-0.00110395
-0.00785006
-0.00112495
-0.0077363
-0.00114554
-0.00762068
-0.00116571
-0.00750323
-0.00118547
-0.00738401
-0.0012048
-0.00726304
-0.00122371
-0.00714036
-0.00124219
-0.00701601
-0.00126024
-0.00689004
-0.00127786
-0.00676247
-0.00129505
-0.00663336
-0.0013118
-0.00650274
-0.00132811
-0.00637065
-0.00134398
-0.00623713
-0.0013594
-0.00610223
-0.00137438
-0.00596598
-0.00138891
-0.00582843
-0.00140299
-0.00568962
-0.00141662
-0.00554959
-0.00142979
-0.00540838
-0.00144251
-0.00526604
-0.00145477
-0.00512261
-0.00146657
-0.00497813
-0.0014779
-0.00483265
-0.00148878
-0.00468621
-0.00149919
-0.00453885
-0.00150913
-0.00439061
-0.0015186
-0.00424155
-0.00152761
-0.00409171
-0.00153614
-0.00394112
-0.0015442
-0.00378984
-0.00155179
-0.0036379
-0.00155891
-0.00348536
-0.00156555
-0.00333226
-0.00157171
-0.00317863
-0.0015774
-0.00302454
-0.00158261
-0.00287001
-0.00158734
-0.0027151