/*--------------------------------*- C++ -*----------------------------------*\
  =========                 |
  \\      /  F ield         | OpenFOAM: The Open Source CFD Toolbox
   \\    /   O peration     | Website:  https://openfoam.org
    \\  /    A nd           | Version:  8
     \\/     M anipulation  |
\*---------------------------------------------------------------------------*/
FoamFile
{
    version     2.0;
    format      ascii;
    class       volVectorField;
    location    "0.18";
    object      U;
}
// * * * * * * * * * * * * * * * * * * * * * * * * * * * * * * * * * * * * * //

dimensions      [0 1 -1 0 0 0 0];

internalField   nonuniform List<vector> 
112642
(
(14.9997 1.09615e-06 -6.39698e-21)
(14.9995 6.91353e-06 -2.19235e-20)
(14.9995 8.87097e-06 -5.81452e-20)
(14.9995 2.76535e-05 1.04272e-20)
(14.9995 3.79967e-05 1.20123e-19)
(14.9995 5.37381e-05 -8.7755e-20)
(14.9994 6.5679e-05 -2.55194e-21)
(14.9994 7.77915e-05 2.09176e-20)
(14.9994 8.83902e-05 5.44103e-20)
(14.9994 9.92883e-05 -7.50368e-20)
(14.9994 0.000109117 -1.7219e-21)
(14.9994 0.000119257 9.94903e-20)
(14.9994 0.000130183 5.82868e-20)
(14.9994 0.000140826 5.58971e-20)
(14.9994 0.000152306 4.60107e-20)
(14.9994 0.000163349 7.1555e-20)
(14.9994 0.000174928 -5.01112e-20)
(14.9994 0.000187427 8.34528e-20)
(14.9993 0.000199233 -5.87746e-20)
(14.9993 0.000211314 -8.33703e-20)
(14.9993 0.000223438 -1.43821e-19)
(14.9993 0.000236236 -5.90248e-20)
(14.9993 0.000248304 -5.89452e-20)
(14.9993 0.000261108 -3.28099e-20)
(14.9993 0.000273315 2.73285e-20)
(14.9993 0.000286357 5.87378e-20)
(14.9993 0.000298847 -8.99884e-20)
(14.9993 0.000311254 1.17542e-19)
(14.9993 0.000324012 -7.95536e-22)
(14.9993 0.000336631 5.86397e-20)
(14.9993 0.000349467 5.69095e-20)
(14.9993 0.000361745 6.86768e-22)
(14.9993 0.000374185 5.62936e-20)
(14.9993 0.000386744 5.71888e-20)
(14.9993 0.000398507 -5.67537e-20)
(14.9993 0.000410915 6.27703e-22)
(14.9993 0.000422851 -8.60648e-20)
(14.9994 0.000434868 5.46999e-20)
(14.9994 0.000447339 -2.33297e-20)
(14.9994 0.000458839 1.07903e-19)
(14.9994 0.000470917 -1.06752e-19)
(14.9994 0.000482463 8.46246e-20)
(14.9994 0.000493672 2.00507e-20)
(14.9994 0.000505077 -4.97164e-22)
(14.9994 0.000516538 5.10951e-20)
(14.9994 0.000527463 1.69222e-20)
(14.9994 0.000538962 4.92932e-20)
(14.9994 0.000549995 -8.16847e-20)
(14.9994 0.000560379 -4.83909e-20)
(14.9994 0.00057131 1.14598e-19)
(14.9994 0.000581635 3.40909e-20)
(14.9994 0.00059224 9.14565e-20)
(14.9994 0.00060236 9.0006e-20)
(14.9995 0.000612895 -3.43434e-20)
(14.9995 0.000622799 -3.49117e-20)
(14.9995 0.000632531 -4.26512e-20)
(14.9995 0.00064224 -8.37394e-20)
(14.9995 0.000652042 3.51071e-20)
(14.9995 0.000661153 4.05739e-20)
(14.9995 0.000670677 -3.97328e-20)
(14.9995 0.000679887 3.89137e-20)
(14.9995 0.000688439 -2.87777e-22)
(14.9995 0.000697443 3.71736e-20)
(14.9995 0.000705945 -2.90706e-22)
(14.9996 0.000714524 3.54046e-20)
(14.9996 0.000722917 -7.1134e-20)
(14.9996 0.000730775 0)
(14.9996 0.000739179 -3.24922e-20)
(14.9996 0.000746936 3.16071e-20)
(14.9996 0.00075444 3.0683e-20)
(14.9996 0.000761784 6.71947e-20)
(14.9996 0.000768958 -3.73494e-20)
(14.9996 0.000775848 -5.62098e-20)
(14.9997 0.000782597 6.52367e-20)
(14.9997 0.000789568 -7.63263e-20)
(14.9997 0.000796111 3.79622e-20)
(14.9997 0.000802009 8.69342e-20)
(14.9997 0.00080855 -1.55331e-20)
(14.9997 0.000814344 0)
(14.9997 0.000820076 0)
(14.9997 0.000825286 0)
(14.9998 0.000830844 -1.92524e-20)
(14.9998 0.00083604 0)
(14.9998 0.000841208 -2.20992e-20)
(14.9998 0.000845748 7.87983e-20)
(14.9998 0.00085013 3.08401e-20)
(14.9998 0.000854834 -1.33807e-19)
(14.9998 0.000858869 2.66428e-20)
(14.9998 0.000862861 2.7889e-20)
(14.9999 0.000866614 -4.01241e-20)
(14.9999 0.000870372 -1.02077e-20)
(14.9999 0.000873926 9.17443e-21)
(14.9999 0.00087702 8.01658e-21)
(14.9999 0.000879963 7.43431e-20)
(14.9999 0.000882591 8.75246e-20)
(14.9999 0.000885218 -3.59672e-20)
(15 0.000887476 -8.20307e-20)
(15 0.000889779 0)
(15 0.000891605 1.64169e-21)
(15 0.000893316 4.13444e-20)
(15 0.000894858 -5.07899e-22)
(15 0.000896237 -3.98204e-20)
(15 0.000897494 0)
(15 0.000898271 8.30226e-20)
(15.0001 0.000899089 -1.96337e-20)
(15.0001 0.000899527 -3.54997e-20)
(15.0001 0.00089996 -1.42695e-20)
(15.0001 0.000900064 -4.15992e-20)
(15.0001 0.000900007 -5.09979e-20)
(15.0001 0.000899463 2.09408e-20)
(15.0001 0.000898699 1.14437e-20)
(15.0002 0.000897927 4.18078e-20)
(15.0002 0.000896894 -1.39688e-20)
(15.0002 0.0008958 4.20023e-20)
(15.0002 0.000893989 -3.23224e-20)
(15.0002 0.000892502 -2.42648e-20)
(15.0002 0.000890835 -6.03305e-20)
(15.0003 0.000888488 1.97684e-20)
(15.0003 0.000886098 1.04517e-19)
(15.0003 0.000883309 -6.34242e-20)
(15.0003 0.000880883 -4.16519e-20)
(15.0003 0.000877885 4.77774e-20)
(15.0003 0.000874809 4.18598e-20)
(15.0003 0.000870911 1.54876e-20)
(15.0004 0.0008677 -1.38292e-19)
(15.0004 0.000863768 2.8837e-20)
(15.0004 0.000859348 1.18216e-20)
(15.0004 0.000855151 -8.3394e-20)
(15.0004 0.000850775 1.05832e-19)
(15.0004 0.000846057 8.32244e-21)
(15.0004 0.000841126 -4.15523e-20)
(15.0005 0.000835985 -2.88483e-20)
(15.0005 0.000830531 7.79948e-20)
(15.0005 0.000824315 -7.93583e-20)
(15.0005 0.000818683 3.61265e-20)
(15.0005 0.000812405 4.17113e-20)
(15.0005 0.00080588 4.13514e-20)
(15.0005 0.000799403 -8.39112e-20)
(15.0005 0.000792305 -1.26295e-19)
(15.0006 0.000785686 4.04479e-22)
(15.0006 0.000778253 4.12376e-20)
(15.0006 0.000770402 0)
(15.0006 0.000762978 4.80125e-20)
(15.0006 0.000754683 0)
(15.0006 0.000746435 -4.14171e-20)
(15.0006 0.000738095 5.19604e-20)
(15.0007 0.000729487 -1.17548e-20)
(15.0007 0.000720059 5.37997e-20)
(15.0007 0.000711062 4.12155e-20)
(15.0007 0.000701416 -1.12569e-19)
(15.0007 0.000692043 -2.44666e-20)
(15.0007 0.000681869 1.78746e-20)
(15.0007 0.000672299 1.00493e-19)
(15.0007 0.00066187 -2.02276e-20)
(15.0007 0.000650797 0)
(15.0008 0.000640364 2.20612e-20)
(15.0008 0.000629193 1.05217e-19)
(15.0008 0.000618019 1.04269e-19)
(15.0008 0.000607018 -1.06e-19)
(15.0008 0.000595518 2.6794e-20)
(15.0008 0.000583262 7.06343e-22)
(15.0008 0.000571662 3.95181e-20)
(15.0008 0.000558735 -4.00935e-20)
(15.0008 0.000546303 8.08636e-20)
(15.0009 0.000533882 4.91856e-21)
(15.0009 0.000520745 -1.52313e-19)
(15.0009 0.000508355 -3.88262e-20)
(15.0009 0.0004948 -3.60216e-20)
(15.0009 0.00048128 -9.17189e-22)
(15.0009 0.000467844 1.01485e-21)
(15.0009 0.000453517 3.82016e-20)
(15.0009 0.000439326 4.62171e-25)
(15.0009 0.000424784 -2.37965e-19)
(15.0009 0.000410568 1.25526e-19)
(15.0009 0.000396063 -1.26244e-19)
(15.0009 0.000380612 1.20939e-19)
(15.0009 0.000366148 -1.22779e-19)
(15.0009 0.000350656 1.07659e-20)
(15.001 0.000336005 1.22689e-19)
(15.001 0.000320123 -1.16229e-20)
(15.001 0.000304951 -8.7592e-20)
(15.001 0.000289621 8.83559e-20)
(15.001 0.000274424 3.53183e-20)
(15.001 0.000257862 -5.09189e-20)
(15.001 0.000242326 -2.1454e-19)
(15.001 0.000227158 1.08357e-19)
(15.001 0.000210895 -8.90005e-20)
(15.001 0.000195506 5.31745e-20)
(15.001 0.000179042 1.27564e-19)
(15.001 0.00016334 -5.95837e-20)
(15.001 0.000147804 2.20484e-20)
(15.001 0.000130305 9.33825e-20)
(15.001 0.000113298 -1.28745e-19)
(15.001 9.43198e-05 9.82981e-20)
(15.0009 7.62742e-05 5.94378e-20)
(15.0009 5.35015e-05 1.22198e-19)
(15.0009 3.66104e-05 -9.35858e-20)
(15.0009 1.43672e-05 -1.09794e-19)
(15.0009 5.64768e-06 1.23455e-19)
(15.0005 3.51256e-06 -1.08538e-19)
(14.9986 1.36303e-05 3.38284e-20)
(14.9986 4.40214e-05 -5.54856e-20)
(14.9986 8.13929e-05 -8.68132e-21)
(14.9985 6.66523e-05 -8.44378e-20)
(14.9984 9.05054e-05 8.04099e-20)
(14.9984 0.000100068 -4.45023e-20)
(14.9983 0.000122797 -7.42452e-20)
(14.9983 0.000149238 2.26618e-21)
(14.9983 0.000181734 1.71308e-20)
(14.9982 0.000217893 3.48675e-21)
(14.9982 0.000255489 -4.38621e-20)
(14.9982 0.000293975 2.10246e-20)
(14.9982 0.000333477 5.84741e-20)
(14.9981 0.000372242 -3.6589e-20)
(14.9981 0.000411962 1.40104e-19)
(14.9981 0.00045056 1.18005e-20)
(14.9981 0.000489393 -8.26126e-20)
(14.9981 0.000528847 -1.11369e-20)
(14.998 0.00056719 5.01309e-20)
(14.998 0.000605781 -2.1145e-22)
(14.998 0.000644069 -2.51118e-20)
(14.998 0.000683213 -8.5598e-20)
(14.998 0.000721182 -5.94027e-20)
(14.998 0.000760036 -1.80122e-22)
(14.998 0.000798007 -2.64362e-20)
(14.998 0.000837015 5.29678e-20)
(14.998 0.000875465 2.18574e-21)
(14.998 0.000913774 1.62306e-21)
(14.998 0.000952107 -2.99379e-20)
(14.998 0.000990295 -2.81113e-20)
(14.998 0.0010286 2.78936e-20)
(14.998 0.00106627 1.43174e-21)
(14.998 0.00110423 -8.77432e-20)
(14.998 0.00114208 2.30851e-19)
(14.998 0.00117884 3.03416e-20)
(14.998 0.00121627 5.62469e-20)
(14.998 0.00125271 -6.08626e-20)
(14.998 0.0012893 -1.07639e-21)
(14.9981 0.00132652 5.59559e-20)
(14.9981 0.00136212 1.38737e-19)
(14.9981 0.00139852 8.68146e-20)
(14.9981 0.0014339 -1.12104e-20)
(14.9981 0.00146881 5.27162e-20)
(14.9981 0.00150372 0)
(14.9981 0.00153854 1.90055e-20)
(14.9982 0.00157251 -3.31493e-20)
(14.9982 0.00160713 1.16028e-19)
(14.9982 0.00164057 -6.47634e-20)
(14.9982 0.00167312 -1.16048e-19)
(14.9982 0.00170631 3.32521e-20)
(14.9983 0.00173874 4.81166e-20)
(14.9983 0.00177086 2.42157e-20)
(14.9983 0.00180215 1.60255e-19)
(14.9983 0.00183408 8.03633e-20)
(14.9984 0.00186468 -3.75748e-22)
(14.9984 0.00189499 2.67441e-20)
(14.9984 0.0019251 -3.48845e-20)
(14.9984 0.00195469 -7.14456e-20)
(14.9985 0.00198336 1.17691e-19)
(14.9985 0.00201239 8.07163e-20)
(14.9985 0.00204045 3.13805e-21)
(14.9986 0.00206761 0)
(14.9986 0.00209508 3.7706e-20)
(14.9986 0.00212151 -3.68002e-20)
(14.9986 0.00214765 7.26371e-20)
(14.9987 0.00217317 2.10146e-22)
(14.9987 0.00219812 -2.68719e-22)
(14.9987 0.0022231 -7.02012e-20)
(14.9988 0.00224695 -7.53218e-20)
(14.9988 0.00227019 1.58688e-23)
(14.9988 0.00229279 7.55404e-20)
(14.9989 0.00231517 7.63324e-20)
(14.9989 0.00233673 -3.81985e-20)
(14.9989 0.00235752 1.67642e-20)
(14.999 0.00237851 -3.8428e-20)
(14.999 0.0023985 -6.4492e-20)
(14.9991 0.00241749 2.47832e-20)
(14.9991 0.00243695 3.89335e-20)
(14.9991 0.00245501 6.20222e-20)
(14.9992 0.00247261 -2.17802e-20)
(14.9992 0.0024892 6.0193e-20)
(14.9992 0.0025059 1.9915e-20)
(14.9993 0.00252184 -9.82467e-20)
(14.9993 0.0025374 -3.9942e-20)
(14.9994 0.0025517 3.99662e-20)
(14.9994 0.00256556 7.16635e-20)
(14.9994 0.00257933 -9.22696e-24)
(14.9995 0.00259222 4.03933e-20)
(14.9995 0.00260436 1.00438e-22)
(14.9996 0.00261593 -5.22529e-20)
(14.9996 0.00262744 -5.1254e-20)
(14.9996 0.00263787 -9.12632e-20)
(14.9997 0.00264744 7.36104e-20)
(14.9997 0.00265641 8.23891e-20)
(14.9998 0.00266487 1.85338e-20)
(14.9998 0.0026732 1.53312e-20)
(14.9998 0.00268025 -4.55963e-20)
(14.9999 0.00268712 -4.16622e-20)
(14.9999 0.00269269 -1.42621e-23)
(15 0.00269797 4.11888e-20)
(15 0.00270269 4.15292e-20)
(15.0001 0.00270686 -1.20624e-23)
(15.0001 0.00271073 -4.20196e-20)
(15.0001 0.00271329 -8.41843e-20)
(15.0002 0.00271565 3.23673e-20)
(15.0002 0.00271669 3.59763e-20)
(15.0003 0.00271759 -4.91882e-20)
(15.0003 0.00271794 -7.78235e-23)
(15.0004 0.00271766 3.28323e-20)
(15.0004 0.00271646 8.43225e-20)
(15.0005 0.0027141 -9.61608e-20)
(15.0005 0.00271164 -4.20345e-20)
(15.0005 0.00270856 -7.90319e-23)
(15.0006 0.00270465 1.52067e-20)
(15.0006 0.00269976 9.68072e-21)
(15.0007 0.00269473 3.4788e-20)
(15.0007 0.00268921 -4.23529e-20)
(15.0008 0.00268229 1.98208e-20)
(15.0008 0.00267493 5.22786e-22)
(15.0008 0.00266672 -2.20104e-20)
(15.0009 0.0026586 1.07859e-19)
(15.0009 0.00264936 -3.33009e-22)
(15.001 0.00263958 -8.4333e-20)
(15.001 0.00262825 -6.89993e-20)
(15.0011 0.00261739 1.5063e-22)
(15.0011 0.00260538 9.99624e-20)
(15.0012 0.00259222 -3.01221e-20)
(15.0012 0.00257922 4.23588e-20)
(15.0012 0.00256529 6.46891e-20)
(15.0013 0.00255039 -7.561e-20)
(15.0013 0.00253514 -8.45324e-20)
(15.0014 0.00251909 1.20906e-19)
(15.0014 0.00250227 8.32564e-20)
(15.0015 0.00248407 -3.77184e-20)
(15.0015 0.0024658 -4.72536e-22)
(15.0015 0.00244677 -8.52222e-22)
(15.0016 0.00242693 -4.21552e-20)
(15.0016 0.00240663 -1.26917e-19)
(15.0017 0.00238501 2.38255e-21)
(15.0017 0.00236359 1.32629e-19)
(15.0017 0.00234099 8.80661e-20)
(15.0018 0.0023171 -5.70532e-21)
(15.0018 0.00229344 -3.8238e-22)
(15.0019 0.00226852 8.56277e-21)
(15.0019 0.0022428 0)
(15.0019 0.00221663 1.06501e-20)
(15.002 0.00218991 4.2124e-20)
(15.002 0.00216139 4.07151e-20)
(15.0021 0.00213343 -8.26645e-20)
(15.0021 0.00210426 -1.5096e-20)
(15.0021 0.00207451 4.04281e-20)
(15.0022 0.00204363 1.85034e-20)
(15.0022 0.00201333 7.94875e-20)
(15.0022 0.00198173 -6.09558e-20)
(15.0023 0.00194846 8.16744e-20)
(15.0023 0.00191578 -6.41861e-20)
(15.0023 0.00188184 1.06623e-19)
(15.0024 0.00184756 -1.08116e-19)
(15.0024 0.00181306 2.817e-20)
(15.0024 0.00177777 6.67974e-20)
(15.0025 0.00174098 9.91512e-20)
(15.0025 0.00170501 3.97215e-20)
(15.0025 0.00166678 3.08808e-20)
(15.0025 0.00162918 4.10909e-20)
(15.0026 0.00159157 3.83563e-20)
(15.0026 0.00155251 -1.13665e-19)
(15.0026 0.00151412 -1.15191e-19)
(15.0027 0.00147408 4.04882e-20)
(15.0027 0.00143365 -3.93524e-20)
(15.0027 0.00139335 9.83571e-22)
(15.0027 0.00135188 -4.06087e-20)
(15.0027 0.00131026 -2.38273e-19)
(15.0028 0.00126806 1.79534e-21)
(15.0028 0.00122548 1.22224e-19)
(15.0028 0.00118225 8.52144e-20)
(15.0028 0.00113772 7.36676e-20)
(15.0028 0.00109413 -2.04942e-19)
(15.0028 0.00104874 8.47166e-20)
(15.0029 0.00100408 4.73212e-20)
(15.0029 0.000957105 8.70376e-20)
(15.0029 0.000910929 7.33434e-20)
(15.0029 0.000863818 -5.08418e-20)
(15.0029 0.000816701 -3.71682e-20)
(15.0029 0.000767723 -1.23114e-19)
(15.0029 0.000719572 -1.03677e-19)
(15.0029 0.000671839 -3.99796e-20)
(15.0029 0.000622633 -1.18829e-19)
(15.0029 0.00057494 3.15922e-20)
(15.0029 0.000526824 -3.29096e-20)
(15.0029 0.000480305 3.52297e-20)
(15.0029 0.000435312 -2.63088e-21)
(15.0029 0.000391431 -6.67299e-20)
(15.0029 0.000352226 5.76964e-20)
(15.0028 0.000319344 2.13012e-19)
(15.0028 0.000288397 -2.3871e-20)
(15.0028 0.00027123 -5.71722e-21)
(15.0027 0.000236802 -1.50872e-19)
(15.0027 0.000229898 1.33097e-19)
(15.0027 0.000176814 -3.4851e-20)
(15.0026 3.22796e-05 -2.10912e-19)
(14.9976 1.6557e-06 5.62412e-20)
(14.9976 -6.53946e-05 9.19003e-21)
(14.9976 5.92806e-05 2.67325e-20)
(14.9975 2.80615e-05 -4.62986e-20)
(14.9974 0.000100421 -3.19994e-20)
(14.9973 0.000117995 1.0048e-19)
(14.9972 0.000166518 -2.0178e-20)
(14.9972 0.00021028 0)
(14.9971 0.000265864 -1.06967e-19)
(14.997 0.000326087 1.43306e-19)
(14.997 0.0003898 -1.11699e-19)
(14.997 0.000455616 2.20742e-20)
(14.9969 0.000522029 2.11125e-20)
(14.9969 0.000588143 -7.75734e-20)
(14.9969 0.000655395 5.50334e-20)
(14.9968 0.000721253 2.50078e-20)
(14.9968 0.00078698 -1.17484e-19)
(14.9968 0.000853119 -1.15988e-19)
(14.9967 0.000918052 3.38152e-20)
(14.9967 0.000983225 3.45894e-20)
(14.9967 0.00104816 1.17471e-19)
(14.9967 0.00111355 2.62945e-20)
(14.9967 0.00117826 3.36101e-20)
(14.9967 0.00124355 -6.01192e-20)
(14.9966 0.00130786 2.73686e-20)
(14.9966 0.00137312 -1.18751e-19)
(14.9966 0.00143802 1.18733e-19)
(14.9966 0.00150253 2.75077e-20)
(14.9966 0.00156697 2.86265e-20)
(14.9966 0.00163148 -2.84237e-20)
(14.9966 0.0016957 -5.93927e-20)
(14.9966 0.00175963 8.7957e-20)
(14.9967 0.00182367 -1.46069e-19)
(14.9967 0.00188741 -8.92008e-20)
(14.9967 0.00194997 1.18419e-19)
(14.9967 0.00201316 1.13737e-19)
(14.9967 0.00207497 5.64919e-20)
(14.9967 0.0021367 -3.09371e-20)
(14.9967 0.00219887 2.40464e-20)
(14.9968 0.00225943 -1.09948e-19)
(14.9968 0.0023202 1.40875e-19)
(14.9968 0.00238027 3.24467e-20)
(14.9968 0.00243951 5.32958e-20)
(14.9969 0.0024989 5.27473e-20)
(14.9969 0.00255763 0)
(14.9969 0.00261513 -3.30307e-20)
(14.9969 0.00267297 1.50606e-20)
(14.997 0.00272962 8.4889e-20)
(14.997 0.00278535 -6.83229e-20)
(14.9971 0.00284108 -4.88629e-20)
(14.9971 0.00289611 6.20224e-20)
(14.9971 0.00295071 -8.2143e-20)
(14.9972 0.00300362 -5.85976e-20)
(14.9972 0.00305711 1.26891e-19)
(14.9972 0.00310921 3.50813e-20)
(14.9973 0.00316093 4.46808e-20)
(14.9973 0.0032116 9.46e-20)
(14.9974 0.0032617 6.93282e-21)
(14.9974 0.00331083 -7.21696e-20)
(14.9975 0.00335965 7.69446e-20)
(14.9975 0.0034073 1.13518e-19)
(14.9976 0.0034537 3.92796e-20)
(14.9976 0.00349998 3.67049e-20)
(14.9977 0.0035452 2.63196e-22)
(14.9977 0.00358939 -1.10773e-19)
(14.9978 0.00363262 7.15821e-20)
(14.9978 0.00367513 3.74643e-20)
(14.9979 0.00371689 3.41897e-20)
(14.9979 0.00375744 -7.119e-20)
(14.998 0.00379698 -4.5411e-23)
(14.9981 0.0038356 7.03822e-21)
(14.9981 0.0038737 -3.81247e-20)
(14.9982 0.00391066 -4.82656e-20)
(14.9982 0.00394611 6.70329e-20)
(14.9983 0.00398106 6.63917e-20)
(14.9983 0.00401531 -2.63551e-20)
(14.9984 0.00404825 -2.53702e-20)
(14.9985 0.00408043 -8.80605e-20)
(14.9985 0.00411131 1.60377e-20)
(14.9986 0.00414143 -2.19704e-20)
(14.9987 0.0041699 -7.99414e-20)
(14.9987 0.00419813 1.00306e-19)
(14.9988 0.00422527 1.85382e-21)
(14.9989 0.00425156 -8.07558e-20)
(14.9989 0.00427596 -1.35983e-22)
(14.999 0.00429981 1.00232e-22)
(14.9991 0.00432288 -5.59334e-20)
(14.9991 0.00434501 4.08674e-20)
(14.9992 0.00436582 6.91529e-20)
(14.9993 0.00438559 1.19887e-20)
(14.9993 0.00440462 1.07421e-20)
(14.9994 0.00442218 5.63028e-23)
(14.9995 0.00443874 -5.02618e-20)
(14.9995 0.00445421 -7.5877e-20)
(14.9996 0.0044688 -4.19222e-20)
(14.9997 0.00448274 1.25852e-19)
(14.9997 0.00449478 3.79109e-20)
(14.9998 0.00450603 -4.21777e-20)
(14.9999 0.00451579 4.03515e-20)
(15 0.00452507 8.18508e-22)
(15 0.00453308 -4.28146e-20)
(15.0001 0.00453984 1.49156e-21)
(15.0002 0.0045461 0)
(15.0002 0.00455084 3.76338e-21)
(15.0003 0.00455477 -3.77048e-20)
(15.0004 0.00455675 -6.03483e-21)
(15.0005 0.00455802 4.99028e-20)
(15.0005 0.00455836 -5.94849e-20)
(15.0006 0.00455754 -4.26669e-20)
(15.0007 0.00455564 2.82258e-24)
(15.0008 0.00455217 -3.63485e-23)
(15.0008 0.00454786 8.56055e-20)
(15.0009 0.0045424 4.26011e-20)
(15.001 0.00453548 -4.27101e-20)
(15.0011 0.0045275 4.28275e-20)
(15.0011 0.00451862 6.04085e-20)
(15.0012 0.00450909 -8.57539e-20)
(15.0013 0.00449747 -6.54342e-20)
(15.0013 0.00448487 2.16479e-20)
(15.0014 0.00447104 1.07931e-19)
(15.0015 0.00445689 2.33835e-20)
(15.0016 0.0044409 -6.74668e-20)
(15.0016 0.00442402 0)
(15.0017 0.00440566 4.29055e-20)
(15.0018 0.00438639 7.10194e-20)
(15.0019 0.0043656 -4.28248e-20)
(15.0019 0.00434394 -4.26257e-20)
(15.002 0.00432161 4.28442e-20)
(15.0021 0.00429749 -6.64003e-20)
(15.0022 0.00427195 -4.25669e-20)
(15.0022 0.00424571 4.27826e-20)
(15.0023 0.00421827 7.9257e-20)
(15.0024 0.00418954 -1.18445e-19)
(15.0024 0.00415925 -3.38255e-21)
(15.0025 0.00412795 -3.78286e-20)
(15.0026 0.00409564 4.11246e-20)
(15.0027 0.00406203 -8.49418e-20)
(15.0027 0.00402704 4.25931e-20)
(15.0028 0.00399059 8.72785e-20)
(15.0029 0.00395377 4.62792e-20)
(15.0029 0.00391523 -3.75583e-20)
(15.003 0.00387506 -4.16553e-20)
(15.0031 0.00383422 1.34001e-19)
(15.0031 0.00379193 -4.08159e-22)
(15.0032 0.00374864 -4.18382e-20)
(15.0033 0.00370375 0)
(15.0033 0.00365807 1.08878e-19)
(15.0034 0.00361036 -1.11298e-19)
(15.0034 0.003563 0)
(15.0035 0.00351325 5.79797e-20)
(15.0036 0.00346262 -5.91636e-20)
(15.0036 0.00341079 4.18128e-20)
(15.0037 0.00335861 1.92116e-20)
(15.0037 0.00330497 8.45172e-20)
(15.0038 0.00324949 -5.85405e-22)
(15.0039 0.00319409 -1.2898e-19)
(15.0039 0.0031368 4.07399e-20)
(15.004 0.00307832 -1.59797e-19)
(15.004 0.00301968 1.08646e-19)
(15.0041 0.00295966 -6.90912e-20)
(15.0041 0.00289841 -4.07123e-20)
(15.0042 0.00283713 -7.05274e-20)
(15.0042 0.00277345 3.09031e-20)
(15.0043 0.00271006 1.1559e-19)
(15.0043 0.00264625 -3.62775e-20)
(15.0044 0.00258031 -1.94642e-19)
(15.0044 0.00251487 -1.51936e-19)
(15.0044 0.00244747 1.16664e-19)
(15.0045 0.00237924 -1.56689e-19)
(15.0045 0.00231066 0)
(15.0046 0.00224114 -1.19815e-19)
(15.0046 0.0021706 -4.04657e-20)
(15.0046 0.00209945 1.58528e-19)
(15.0047 0.00202742 -8.24782e-20)
(15.0047 0.00195399 1.27861e-19)
(15.0047 0.00187913 -1.60555e-19)
(15.0047 0.00180463 8.56907e-20)
(15.0048 0.0017278 1.2224e-19)
(15.0048 0.00165078 1.24149e-19)
(15.0048 0.00157191 1.23432e-19)
(15.0048 0.00149283 1.1521e-20)
(15.0048 0.00141281 2.45996e-21)
(15.0048 0.00133268 -5.41515e-20)
(15.0048 0.00125063 5.3007e-20)
(15.0048 0.00116918 0)
(15.0048 0.00108786 -1.26288e-19)
(15.0048 0.00100522 1.80873e-19)
(15.0048 0.00092467 -9.22733e-20)
(15.0048 0.000844605 -5.15273e-20)
(15.0048 0.000766076 3.04417e-20)
(15.0048 0.000689846 -2.47809e-19)
(15.0048 0.000617916 3.82076e-20)
(15.0048 0.000551454 1.17856e-19)
(15.0047 0.000497003 2.38865e-20)
(15.0047 0.000434734 4.02652e-21)
(15.0046 0.000403967 -5.86823e-20)
(15.0046 0.000313344 3.52256e-20)
(15.0045 0.000306217 -8.5328e-21)
(15.0046 9.16904e-05 -1.54639e-19)
(15.0045 3.35724e-05 6.58444e-20)
(14.9967 -1.89204e-05 -4.38838e-20)
(14.9966 -0.000165108 4.64035e-20)
(14.9966 -2.4869e-05 0)
(14.9966 -2.1289e-05 0)
(14.9964 0.000108303 -1.52736e-20)
(14.9963 0.000150799 -1.83565e-20)
(14.9962 0.000230798 -3.19432e-20)
(14.996 0.00029246 -1.28952e-20)
(14.9959 0.000369036 -3.55838e-20)
(14.9959 0.000449155 4.82957e-20)
(14.9958 0.000534506 -2.97221e-20)
(14.9957 0.000623085 -2.33943e-20)
(14.9957 0.000712985 -3.3016e-20)
(14.9956 0.000803675 1.84953e-22)
(14.9956 0.000895587 -1.13453e-19)
(14.9956 0.000986462 7.99104e-20)
(14.9955 0.00107733 2.40521e-20)
(14.9955 0.00116877 3.44612e-20)
(14.9954 0.00125943 -8.34152e-20)
(14.9954 0.00135034 3.42663e-20)
(14.9954 0.00144074 -1.18718e-19)
(14.9954 0.00153198 9.75977e-22)
(14.9953 0.0016228 2.49612e-20)
(14.9953 0.00171447 -3.16227e-20)
(14.9953 0.00180493 5.84528e-20)
(14.9953 0.00189643 8.2132e-22)
(14.9953 0.00198757 -1.14709e-19)
(14.9953 0.00207856 -5.99115e-20)
(14.9953 0.00216923 2.89151e-20)
(14.9953 0.00226039 1.09687e-22)
(14.9953 0.00235118 0)
(14.9953 0.00244147 5.85887e-20)
(14.9953 0.00253167 8.76583e-20)
(14.9953 0.00262165 -5.76393e-20)
(14.9953 0.00271062 -6.07654e-20)
(14.9953 0.00279975 -5.77774e-20)
(14.9954 0.00288774 -5.62335e-20)
(14.9954 0.0029755 -5.7011e-20)
(14.9954 0.00306319 7.08098e-21)
(14.9954 0.00314913 -1.10622e-19)
(14.9955 0.00323523 -8.75315e-20)
(14.9955 0.00332024 2.23627e-20)
(14.9955 0.00340442 2.10552e-20)
(14.9956 0.00348869 3.27414e-20)
(14.9956 0.00357209 5.3256e-20)
(14.9957 0.00365382 -4.48246e-22)
(14.9957 0.0037357 3.38801e-20)
(14.9957 0.00381612 1.01835e-19)
(14.9958 0.00389576 5.01625e-20)
(14.9958 0.00397472 -3.42275e-20)
(14.9959 0.00405287 4.83515e-20)
(14.9959 0.00413006 -2.63504e-20)
(14.996 0.00420602 -3.46421e-20)
(14.9961 0.00428172 -3.59447e-20)
(14.9961 0.00435575 3.58016e-20)
(14.9962 0.00442926 5.43994e-20)
(14.9962 0.00450109 -3.61415e-20)
(14.9963 0.00457244 7.9439e-20)
(14.9964 0.00464258 -5.9684e-21)
(14.9964 0.00471178 -1.19927e-19)
(14.9965 0.00477964 -3.69776e-20)
(14.9966 0.00484608 3.69687e-20)
(14.9966 0.00491178 3.74559e-20)
(14.9967 0.00497597 1.12853e-19)
(14.9968 0.00503897 -3.70268e-20)
(14.9969 0.00510084 -7.62792e-20)
(14.9969 0.00516118 2.63174e-21)
(14.997 0.00522036 3.46581e-20)
(14.9971 0.00527838 -3.82835e-20)
(14.9972 0.00533505 3.25527e-20)
(14.9972 0.00539029 7.7585e-20)
(14.9973 0.00544415 6.19449e-20)
(14.9974 0.00549689 -1.0813e-19)
(14.9975 0.00554774 -6.83141e-20)
(14.9976 0.00559739 3.93925e-20)
(14.9977 0.00564623 1.28169e-20)
(14.9977 0.00569342 3.96862e-20)
(14.9978 0.00573902 1.51032e-20)
(14.9979 0.00578299 -4.78393e-20)
(14.998 0.00582605 5.57558e-21)
(14.9981 0.00586719 -8.42536e-20)
(14.9982 0.00590734 6.01618e-20)
(14.9983 0.0059459 -2.05641e-20)
(14.9984 0.00598329 -1.22715e-19)
(14.9985 0.00601846 2.33208e-20)
(14.9986 0.0060527 8.23468e-20)
(14.9987 0.00608544 8.25418e-23)
(14.9987 0.00611685 2.68448e-20)
(14.9988 0.00614672 -4.13506e-20)
(14.9989 0.00617503 -1.13007e-19)
(14.999 0.00620175 1.11468e-20)
(14.9991 0.00622708 8.97394e-24)
(14.9992 0.00625114 4.21089e-20)
(14.9993 0.00627336 4.22865e-20)
(14.9994 0.00629406 2.23744e-20)
(14.9995 0.00631353 3.14799e-20)
(14.9996 0.00633075 -3.82352e-20)
(14.9997 0.0063468 -4.27842e-20)
(14.9998 0.00636092 -4.28676e-20)
(14.9999 0.00637433 -4.20654e-20)
(15 0.00638575 1.28885e-19)
(15.0001 0.00639518 4.30632e-20)
(15.0002 0.00640388 -4.56723e-20)
(15.0003 0.00641062 -4.31647e-20)
(15.0004 0.00641615 -4.80306e-20)
(15.0006 0.00641935 4.92966e-20)
(15.0007 0.00642126 -1.01096e-19)
(15.0008 0.00642154 -4.31889e-20)
(15.0009 0.00641989 1.39465e-19)
(15.001 0.00641686 8.64895e-20)
(15.0011 0.0064123 -7.46236e-20)
(15.0012 0.00640599 -1.67238e-20)
(15.0013 0.00639797 -1.22718e-22)
(15.0014 0.00638823 1.00708e-22)
(15.0015 0.00637698 8.67189e-20)
(15.0016 0.00636404 -1.81023e-20)
(15.0017 0.00635 -6.24546e-20)
(15.0018 0.0063335 -2.30261e-20)
(15.0019 0.00631565 6.52264e-20)
(15.002 0.00629598 8.66181e-20)
(15.0021 0.00627516 0)
(15.0022 0.00625217 -4.34e-20)
(15.0023 0.00622807 -1.68334e-20)
(15.0024 0.0062021 0)
(15.0025 0.00617427 -2.88437e-20)
(15.0026 0.00614448 -3.00604e-20)
(15.0027 0.00611367 -3.12418e-20)
(15.0028 0.00608134 -4.33789e-20)
(15.0029 0.00604674 -3.34338e-20)
(15.003 0.0060107 4.31052e-20)
(15.0031 0.0059729 -4.3374e-20)
(15.0032 0.00593326 2.02178e-22)
(15.0033 0.00589187 4.7695e-20)
(15.0034 0.00584891 3.94545e-20)
(15.0035 0.00580437 3.34944e-22)
(15.0036 0.00575781 -8.45581e-20)
(15.0037 0.00570968 -4.27779e-20)
(15.0038 0.00565986 0)
(15.0039 0.00560798 -5.08979e-23)
(15.004 0.0055549 -3.97969e-21)
(15.0041 0.00549979 -9.67158e-20)
(15.0042 0.00544272 1.42044e-19)
(15.0043 0.00538412 4.97389e-20)
(15.0044 0.00532366 -1.88296e-19)
(15.0045 0.00526217 0)
(15.0046 0.00519819 4.27144e-20)
(15.0047 0.00513308 1.22246e-20)
(15.0048 0.00506548 1.48024e-20)
(15.0049 0.00499706 4.19189e-20)
(15.005 0.00492665 -5.8795e-20)
(15.005 0.00485455 0)
(15.0051 0.00478098 4.22285e-20)
(15.0052 0.00470605 -2.06906e-20)
(15.0053 0.00462967 2.15054e-20)
(15.0054 0.00455097 -1.47838e-19)
(15.0054 0.00447196 6.62723e-20)
(15.0055 0.00439033 -6.59276e-22)
(15.0056 0.0043071 -6.7243e-20)
(15.0057 0.00422347 4.07363e-20)
(15.0057 0.00413828 -4.15365e-20)
(15.0058 0.00405122 -4.07589e-20)
(15.0059 0.00396386 1.54554e-19)
(15.006 0.00387377 3.95004e-20)
(15.006 0.00378311 3.4182e-20)
(15.0061 0.00369164 -1.16279e-19)
(15.0061 0.00359813 -1.56796e-19)
(15.0062 0.00350427 1.18312e-19)
(15.0063 0.00340843 -3.96176e-20)
(15.0063 0.00331158 8.17262e-22)
(15.0064 0.00321383 3.90925e-20)
(15.0064 0.00311453 0)
(15.0065 0.00301374 1.63347e-19)
(15.0065 0.00291253 -8.24834e-20)
(15.0065 0.00280972 -8.3209e-20)
(15.0066 0.00270542 -1.67676e-19)
(15.0066 0.00259925 -4.53969e-20)
(15.0066 0.00249313 1.23004e-19)
(15.0067 0.00238397 -8.53752e-20)
(15.0067 0.00227455 -3.80448e-20)
(15.0067 0.00216327 -8.54124e-20)
(15.0067 0.00205202 -1.38237e-19)
(15.0068 0.00193914 1.38021e-19)
(15.0068 0.00182583 1.45126e-21)
(15.0068 0.00171099 -1.58585e-21)
(15.0068 0.00159678 9.05596e-20)
(15.0068 0.00148271 1.23817e-19)
(15.0068 0.00136746 5.3281e-20)
(15.0068 0.00125426 1.93111e-20)
(15.0068 0.00114246 -8.68283e-20)
(15.0068 0.00103273 -9.26477e-20)
(15.0067 0.000926026 2.62473e-21)
(15.0067 0.000825208 1.21523e-19)
(15.0067 0.000728244 -1.77827e-19)
(15.0066 0.00064636 8.80076e-20)
(15.0066 0.000540717 4.27774e-22)
(15.0065 0.000474555 0)
(15.0064 0.000313268 -3.50967e-20)
(15.0064 0.00025812 -7.91771e-20)
(15.0064 -7.68724e-05 2.47575e-20)
(15.0063 1.43731e-05 8.59607e-20)
(14.9957 -3.16415e-05 -5.75721e-20)
(14.9957 -0.000103524 -6.81821e-20)
(14.9957 -7.72807e-05 0)
(14.9956 -1.17843e-05 4.48513e-20)
(14.9954 0.000148071 1.5074e-20)
(14.9953 0.00021505 -2.86176e-20)
(14.9951 0.000321239 -4.86028e-20)
(14.9949 0.000396438 -1.78454e-20)
(14.9948 0.000488905 1.26721e-20)
(14.9947 0.000583573 -5.44423e-20)
(14.9946 0.000685926 7.5112e-20)
(14.9945 0.000793036 -3.42611e-20)
(14.9945 0.000903272 7.72626e-20)
(14.9944 0.00101581 -2.07893e-22)
(14.9943 0.00113022 3.4269e-20)
(14.9943 0.00124483 -2.36909e-20)
(14.9942 0.00135979 1.14967e-19)
(14.9942 0.00147533 8.13714e-20)
(14.9941 0.00159075 -2.29715e-20)
(14.9941 0.00170711 -1.90923e-21)
(14.9941 0.00182309 -3.22646e-20)
(14.994 0.00193963 -2.62448e-20)
(14.994 0.0020564 -5.93336e-20)
(14.994 0.0021739 -2.59763e-20)
(14.9939 0.0022904 -6.01723e-20)
(14.9939 0.00240795 1.14172e-19)
(14.9939 0.00252549 -3.14773e-20)
(14.9939 0.00264301 -5.965e-20)
(14.9939 0.00276011 -5.94122e-20)
(14.9939 0.00287816 -8.77602e-20)
(14.9939 0.00299544 -2.95611e-20)
(14.9939 0.0031124 0)
(14.9939 0.00322922 -8.80967e-20)
(14.9939 0.00334574 -5.87665e-20)
(14.994 0.00346145 3.01316e-21)
(14.994 0.00357718 -2.6739e-20)
(14.994 0.00369159 -5.74215e-20)
(14.994 0.00380573 -8.80899e-20)
(14.9941 0.00391931 -5.70317e-20)
(14.9941 0.00403134 1.12504e-19)
(14.9941 0.0041433 -9.12737e-21)
(14.9942 0.00425441 -8.7839e-20)
(14.9942 0.00436413 -2.18647e-20)
(14.9943 0.00447361 4.9079e-22)
(14.9943 0.0045823 -4.38027e-22)
(14.9944 0.0046888 -5.2295e-20)
(14.9944 0.00479513 5.16292e-20)
(14.9945 0.00490036 -5.09826e-20)
(14.9945 0.00500408 5.04069e-20)
(14.9946 0.00510707 4.80046e-22)
(14.9947 0.00520911 3.43134e-20)
(14.9947 0.00530952 4.95596e-20)
(14.9948 0.00540892 1.19527e-20)
(14.9949 0.00550749 -1.1398e-20)
(14.995 0.00560416 1.07775e-20)
(14.995 0.0057 4.53344e-20)
(14.9951 0.00579408 -4.45536e-20)
(14.9952 0.00588704 -4.4464e-20)
(14.9953 0.00597857 8.01984e-20)
(14.9954 0.00606882 0)
(14.9955 0.00615751 -4.16011e-20)
(14.9955 0.00624481 -8.14505e-20)
(14.9956 0.00633052 3.98315e-20)
(14.9957 0.00641421 -3.89508e-20)
(14.9958 0.00649674 7.61906e-20)
(14.9959 0.00657779 3.8095e-20)
(14.996 0.0066567 3.65085e-20)
(14.9961 0.006734 -3.49132e-21)
(14.9962 0.00680979 -3.86828e-20)
(14.9963 0.00688423 -6.70615e-20)
(14.9964 0.00695666 3.27145e-20)
(14.9965 0.00702673 3.12876e-20)
(14.9966 0.00709559 9.17767e-21)
(14.9967 0.00716268 -2.9543e-20)
(14.9968 0.00722787 -1.72643e-20)
(14.997 0.00729145 -2.73478e-20)
(14.9971 0.00735315 -2.6724e-20)
(14.9972 0.00741298 6.59715e-20)
(14.9973 0.00747076 -8.10143e-20)
(14.9974 0.0075272 -3.11509e-22)
(14.9975 0.0075815 4.11813e-20)
(14.9976 0.00763375 -4.11334e-20)
(14.9978 0.00768414 4.04965e-20)
(14.9979 0.00773329 -3.83663e-20)
(14.998 0.00777995 -8.51286e-24)
(14.9981 0.00782463 -4.16203e-20)