/*--------------------------------*- C++ -*----------------------------------*\
  =========                 |
  \\      /  F ield         | OpenFOAM: The Open Source CFD Toolbox
   \\    /   O peration     | Website:  https://openfoam.org
    \\  /    A nd           | Version:  8
     \\/     M anipulation  |
\*---------------------------------------------------------------------------*/
FoamFile
{
    version     2.0;
    format      ascii;
    class       surfaceScalarField;
    location    "0.4";
    object      phi;
}
// * * * * * * * * * * * * * * * * * * * * * * * * * * * * * * * * * * * * * //

dimensions      [0 3 -1 0 0 0 0];

internalField   nonuniform List<scalar> 
19800
(
0.0155752
0.0112086
0.0137879
0.00176355
0.0153865
-0.0016413
0.0178094
-0.00248812
0.0203152
-0.00259474
0.0227122
-0.00251116
0.0249733
-0.00239836
0.0271099
-0.00229637
0.0291377
-0.00220599
0.0310628
-0.00212099
0.0328849
-0.00203145
0.0345931
-0.00193133
0.0361729
-0.00181306
0.0376022
-0.00167351
0.0388579
-0.00150749
0.0399117
-0.00131409
0.0407361
-0.00108897
0.0412958
-0.000829149
0.0415473
-0.000520722
0.0414142
-0.00013659
0.0407693
0.000378007
0.0394298
0.00107372
0.0372712
0.00190078
0.0344328
0.00259848
0.0313708
0.00285698
0.0285733
0.00263505
0.0263029
0.00214983
0.0245906
0.00162574
0.0233495
0.00118027
0.0224646
0.000842438
0.0218345
0.000600423
0.0213825
0.000431114
0.0210544
0.000313297
0.0208129
0.000230776
0.0206328
0.00017231
0.0204968
0.000130279
0.0203928
9.96391e-05
0.0203126
7.69889e-05
0.0202501
6.00465e-05
0.0202009
4.72292e-05
0.020162
3.74428e-05
0.020131
2.99023e-05
0.020106
2.40495e-05
0.0200858
1.94722e-05
0.0200694
1.58706e-05
0.020056
1.30185e-05
0.0200449
1.07484e-05
0.0200356
8.93182e-06
0.0200279
7.47242e-06
0.0200215
6.29514e-06
0.020016
5.34317e-06
0.0200113
4.57171e-06
0.0200072
3.94656e-06
0.0200037
3.44043e-06
0.0200006
3.03234e-06
0.0199978
2.70537e-06
0.0199953
2.4464e-06
0.0199931
2.2447e-06
0.0199909
2.09182e-06
0.0199889
1.98069e-06
0.019987
1.90553e-06
0.0199851
1.86123e-06
0.0199832
1.84322e-06
0.0199813
1.847e-06
0.0199794
1.86788e-06
0.0199775
1.90053e-06
0.0199755
1.9385e-06
0.0199735
1.97352e-06
0.0199715
1.99485e-06
0.0199695
1.98786e-06
0.0199675
1.93318e-06
0.0199657
1.80382e-06
0.0199641
1.56459e-06
0.019963
1.16626e-06
0.0199625
5.47454e-07
0.0199629
-3.76561e-07
0.0199648
-1.7021e-06
0.0199685
-3.55631e-06
0.019975
-6.05465e-06
0.0199849
-9.32664e-06
0.0199993
-1.33923e-05
0.0200189
-1.81776e-05
0.0200443
-2.32129e-05
0.0200751
-2.76042e-05
0.0201092
-2.946e-05
0.0201415
-2.59038e-05
0.0201627
-1.24875e-05
0.020158
1.60369e-05
0.0201072
6.51482e-05
0.0199866
0.000137918
0.0197736
0.000233285
0.0194518
0.00034447
0.0190151
0.000461098
0.0184667
0.00057312
0.0178144
0.00067532
0.0170635
0.00077025
0.0162127
0.000864643
0.0152412
0.00097949
0.0140394
0.00120436
0.0015347
0.0236515
0.0101123
0.0218026
0.00360278
0.0207054
-0.000559474
0.0207831
-0.00258726
0.0216219
-0.00346442
0.0228694
-0.00379901
0.024306
-0.00388744
0.02581
-0.00386258
0.0273122
-0.00378139
0.0287736
-0.00366248
0.0301639
-0.00351044
0.03146
-0.00332058
0.0326352
-0.00308823
0.033664
-0.00280541
0.0345144
-0.00246701
0.0351539
-0.00206513
0.0355421
-0.00159419
0.0356378
-0.00104336
0.0353934
-0.000399792
0.0347722
0.000359293
0.033764
0.00125442
0.0324252
0.00227584
0.030878
0.00330478
0.0292627
0.00407247
0.027684
0.00430489
0.0262221
0.00398701
0.0249367
0.00334777
0.0238604
0.00263605
0.0229941
0.00199755
0.0223169
0.00148396
0.0217969
0.00109425
0.0214016
0.00080745
0.0211019
0.000599078
0.0208743
0.000448088
0.0207007
0.000338225
0.0205676
0.000257708
0.0204647
0.000198152
0.0203847
0.000153691
0.020322
0.000120182
0.0202726
9.47094e-05
0.0202333
7.51823e-05
0.0202019
6.01014e-05
0.0201767
4.83692e-05
0.0201562
3.91835e-05
0.0201396
3.19457e-05
0.0201259
2.62113e-05
0.0201147
2.1643e-05
0.0201053
1.7987e-05
0.0200975
1.5048e-05
0.0200909
1.26774e-05
0.0200854
1.07598e-05
0.0200806
9.20618e-06
0.0200765
7.94685e-06
0.0200729
6.92769e-06
0.0200698
6.1058e-06
0.020067
5.44761e-06
0.0200644
4.92627e-06
0.0200621
4.52051e-06
0.0200599
4.21305e-06
0.0200579
3.98987e-06
0.0200559
3.83922e-06
0.020054
3.751e-06
0.0200521
3.71605e-06
0.0200502
3.72556e-06
0.0200482
3.77035e-06
0.0200463
3.84021e-06
0.0200443
3.92284e-06
0.0200422
4.00308e-06
0.0200401
4.061e-06
0.020038
4.07117e-06
0.0200359
3.9991e-06
0.0200339
3.80125e-06
0.020032
3.4185e-06
0.0200304
2.77987e-06
0.0200291
1.79125e-06
0.0200284
3.51546e-07
0.0200284
-1.66411e-06
0.0200293
-4.35327e-06
0.0200312
-7.80367e-06
0.0200341
-1.19574e-05
0.0200377
-1.66106e-05
0.0200412
-2.11062e-05
0.020043
-2.42877e-05
0.0200406
-2.39443e-05
0.0200295
-1.6785e-05
0.0200037
2.18098e-06
0.019955
3.91362e-05
0.0198737
0.000101237
0.019749
0.00019449
0.0195707
0.00032188
0.0193299
0.000480538
0.0190202
0.000661285
0.0186387
0.00085036
0.0181858
0.00103352
0.017667
0.00120068
0.0170942
0.0013478
0.0164868
0.0014748
0.0158787
0.00158868
0.0153685
0.00171485
0.00182901
0.0255765
0.00881719
0.0247504
0.0044268
0.0236024
0.000588053
0.0229623
-0.00194666
0.0229183
-0.00341927
0.0233296
-0.00421087
0.0240371
-0.00459745
0.024915
-0.00474666
0.0258755
-0.00475036
0.0268565
-0.00465535
0.0278144
-0.00448145
0.0287137
-0.00423531
0.029525
-0.0039154
0.0302197
-0.00351792
0.030771
-0.00303657
0.031151
-0.00246585
0.0313337
-0.00179881
0.0312942
-0.00102941
0.0310162
-0.000150016
0.0304979
0.000843203
0.0297695
0.00194165
0.0288994
0.00309321
0.0279785
0.00416123
0.0270647
0.00491101
0.0261654
0.00512632
0.0252817
0.00479721
0.0244391
0.00412688
0.0236713
0.00335128
0.0230031
0.00262418
0.0224429
0.00201161
0.0219866
0.00152559
0.021622
0.0011528
0.0213345
0.000872022
0.0211092
0.000662224
0.0209332
0.000505742
0.0207956
0.000388745
0.0206878
0.000300874
0.0206031
0.000234481
0.0205363
0.000183998
0.0204833
0.000145354
0.0204411
0.000115582
0.0204072
9.24971e-05
0.02038
7.44893e-05
0.0203579
6.03588e-05
0.02034
4.92099e-05
0.0203252
4.03667e-05
0.0203131
3.33186e-05
0.0203031
2.76754e-05
0.0202947
2.31394e-05
0.0202877
1.94808e-05
0.0202817
1.65226e-05
0.0202766
1.41266e-05
0.0202723
1.21858e-05
0.0202685
1.06158e-05
0.0202651
9.35052e-06
0.0202622
8.33779e-06
0.0202595
7.53619e-06
0.0202571
6.91262e-06
0.0202548
6.44052e-06
0.0202526
6.09821e-06
0.0202505
5.86772e-06
0.0202485
5.73366e-06
0.0202465
5.68228e-06
0.0202445
5.70054e-06
0.0202425
5.77523e-06
0.0202404
5.89181e-06
0.0202382
6.03351e-06
0.020236
6.17968e-06
0.0202337
6.30468e-06
0.0202314
6.37551e-06
0.020229
6.3507e-06
0.0202266
6.1772e-06
0.0202242
5.79072e-06
0.0202218
5.11287e-06
0.0202195
4.0579e-06
0.0202173
2.5348e-06
0.0202151
4.73644e-07
0.0202129
-2.15341e-06
0.0202104
-5.25631e-06
0.020207
-8.55665e-06
0.0202018
-1.14095e-05
0.0201933
-1.26409e-05
0.0201792
-1.02202e-05
0.0201561
-1.02188e-06
0.0201197
1.95423e-05
0.0200641
5.75186e-05
0.0199826
0.000120222
0.019868
0.000215102
0.0197136
0.000348032
0.0195135
0.000520685
0.0192641
0.00072842
0.018964
0.000959554
0.0186149
0.00119732
0.0182221
0.00142389
0.0177954
0.00162423
0.0173517
0.00178786
0.0169162
0.00190691
0.0165252
0.00197719
0.0162357
0.00200299
0.00199331
0.0271083
0.00786455
0.0268002
0.00473627
0.0259289
0.00146521
0.0251267
-0.0011321
0.024653
-0.00292682
0.0245333
-0.00406674
0.0247009
-0.00473701
0.0250703
-0.0050852
0.0255638
-0.00521146
0.026119
-0.00517645
0.0266871
-0.00501408
0.0272298
-0.00474049
0.0277155
-0.00436221
0.0281183
-0.00387975
0.0284152
-0.00329176
0.0285879
-0.00259568
0.0286216
-0.00179033
0.0285091
-0.000875616
0.0282528
0.000144206
0.0278717
0.00125767
0.0274041
0.00243439
0.0269047
0.00360738
0.0264184
0.0046479
0.0259483
0.00536649
0.0254575
0.00558862
0.0249211
0.00529738
0.0243517
0.00465748
0.0237843
0.00388216
0.0232523
0.00312381
0.0227778
0.00245871
0.0223704
0.00191038
0.0220304
0.00147467
0.021752
0.00113586
0.0215271
0.000875603
0.021347
0.000676828
0.0212034
0.000525276
0.0210891
0.000409599
0.0209982
0.000321065
0.0209258
0.000253041
0.0208679
0.000200545
0.0208216
0.000159836
0.0207843
0.000128115
0.0207542
0.000103273
0.0207298
8.37235e-05
0.0207099
6.82653e-05
0.0206937
5.59862e-05
0.0206803
4.61894e-05
0.0206692
3.83418e-05
0.02066
3.20325e-05
0.0206522
2.69446e-05
0.0206457
2.28318e-05
0.0206401
1.95029e-05
0.0206354
1.6808e-05
0.0206312
1.46298e-05
0.0206276
1.28759e-05
0.0206244
1.14733e-05
0.0206215
1.03642e-05
0.0206188
9.50239e-06
0.0206164
8.85084e-06
0.020614
8.37953e-06
0.0206118
8.06366e-06
0.0206096
7.88234e-06
0.0206074
7.81716e-06
0.0206052
7.85117e-06
0.020603
7.96759e-06
0.0206007
8.14882e-06
0.0205983
8.37498e-06
0.0205958
8.6229e-06
0.0205932
8.8643e-06
0.0205905
9.065e-06
0.0205876
9.18292e-06
0.0205845
9.16884e-06
0.0205813
8.96546e-06
0.0205778
8.5136e-06
0.0205741
7.75704e-06
0.0205699
6.66427e-06
0.020565
5.25112e-06
0.020559
3.64025e-06
0.0205515
2.12693e-06
0.0205414
1.31468e-06
0.0205273
2.26092e-06
0.0205075
6.72647e-06
0.0204792
1.74062e-05
0.0204389
3.82382e-05
0.0203825
7.45403e-05
0.0203052
0.000133007
0.0202017
0.000221143
0.0200673
0.000346126
0.0198983
0.000512801
0.0196925
0.000721292
0.0194499
0.000964946
0.0191728
0.00122989
0.0188657
0.00149703
0.0185359
0.00174572
0.0181944
0.00195755
0.0178561
0.00211812
0.0175402
0.00221618
0.0172677
0.00224538
0.017056
0.00221268
0.0021523
0.0284181
0.00724902
0.0283355
0.0048216
0.0277553
0.00205323
0.0270469
-0.000409217
0.026457
-0.00231525
0.0260824
-0.00366367
0.025926
-0.00454653
0.0259484
-0.00506894
0.0260974
-0.0053181
0.0263227
-0.0053564
0.0265812
-0.00522421
0.0268376
-0.00494566
0.0270635
-0.0045341
0.0272369
-0.00399668
0.0273415
-0.00333748
0.0273664
-0.00256016
0.027307
-0.00166959
0.027166
-0.000673802
0.0269553
0.000414102
0.0266967
0.00157175
0.0264205
0.00276042
0.0261568
0.00391233
0.0259174
0.0049166
0.0256805
0.00561725
0.0254024
0.00586527
0.0250547
0.00563095
0.0246452
0.00504558
0.0242039
0.00429895
0.0237641
0.00353925
0.0233516
0.00284875
0.0229819
0.00226039
0.0226616
0.00177825
0.0223908
0.00139273
0.022166
0.00108906
0.0219816
0.000852003
0.0218317
0.000667811
0.0217104
0.000524964
0.0216126
0.000414157
0.0215339
0.000328076
0.0214704
0.000261035
0.0214193
0.000208665
0.0213779
0.00016761
0.0213444
0.000135307
0.0213172
0.00010979
0.021295
8.95572e-05
0.0212767
7.34506e-05
0.0212618
6.05817e-05
0.0212494
5.02632e-05
0.0212391
4.19637e-05
0.0212304
3.527e-05
0.0212231
2.98606e-05
0.021217
2.54842e-05
0.0212116
2.19439e-05
0.0212071
1.90848e-05
0.021203
1.6785e-05
0.0211995
1.4948e-05
0.0211962
1.34973e-05
0.0211933
1.2372e-05
0.0211906
1.15234e-05
0.021188
1.09121e-05
0.0211855
1.05059e-05
0.021183
1.02782e-05
0.0211806
1.02059e-05
0.0211781
1.02686e-05
0.0211756
1.0447e-05
0.021173
1.07216e-05
0.0211702
1.1072e-05
0.0211673
1.14754e-05
0.0211642
1.19058e-05
0.0211609
1.23335e-05
0.0211573
1.27256e-05
0.0211533
1.30469e-05
0.021149
1.32648e-05
0.021144
1.33564e-05
0.0211383
1.33248e-05
0.0211316
1.32222e-05
0.0211235
1.3193e-05
0.0211134
1.35339e-05
0.0211004
1.47895e-05
0.0210834
1.78809e-05
0.0210609
2.42817e-05
0.0210306
3.62309e-05
0.02099
5.69671e-05
0.0209359
9.09354e-05
0.0208647
0.000143862
0.0207726
0.000222572
0.0206561
0.000334321
0.0205126
0.00048552
0.0203405
0.000679751
0.0201402
0.0009155
0.0199139
0.0011843
0.0196654
0.00147058
0.0194005
0.00175361
0.0191263
0.00201125
0.0188515
0.00222357
0.0185866
0.00237496
0.018342
0.0024543
0.0181253
0.00245805
0.0179367
0.00239954
0.00232402
0.0296551
0.00686865
0.029663
0.00481574
0.0293011
0.00241995
0.0287544
0.000146569
0.0282029
-0.00174914
0.0277524
-0.00319289
0.0274404
-0.00420909
0.027261
-0.00485982
0.0271871
-0.00521106
0.0271849
-0.00531823
0.0272218
-0.00522251
0.0272695
-0.00495241
0.0273059
-0.00452698
0.0273144
-0.00395932
0.0272846
-0.00325956
0.0272117
-0.00243732
0.0270971
-0.00150367
0.026948
-0.000472842
0.0267775
0.000635952
0.026603
0.00179566
0.0264429
0.00296653
0.0263082
0.00408794
0.0261917
0.00506615
0.0260638
0.00576756
0.0258849
0.00605346
0.025632
0.00588098
0.025311
0.00535472
0.0249468
0.00464633
0.0245685
0.00389874
0.0242005
0.003198
0.0238598
0.00258372
0.0235557
0.00206694
0.0232916
0.00164346
0.0230671
0.00130241
0.022879
0.00103077
0.0227232
0.000815957
0.0225952
0.000646764
0.0224906
0.000513773
0.0224054
0.000409275
0.0223361
0.000327112
0.0222798
0.000262409
0.022234
0.00021135
0.0221967
0.000170954
0.0221663
0.000138906
0.0221414
0.000113403
0.0221209
9.3047e-05
0.0221041
7.67499e-05
0.0220901
6.36647e-05
0.0220785
5.31303e-05
0.0220688
4.46308e-05
0.0220606
3.77617e-05
0.0220537
3.22062e-05
0.0220477
2.77145e-05
0.0220426
2.40903e-05
0.022038
2.11781e-05
0.022034
1.88553e-05
0.0220304
1.70242e-05
0.0220271
1.56073e-05
0.022024
1.45427e-05
0.0220211
1.37808e-05
0.0220182
1.32815e-05
0.0220154
1.3012e-05
0.0220126
1.29452e-05
0.0220098
1.30575e-05
0.0220069
1.33283e-05
0.0220038
1.37384e-05
0.0220005
1.42692e-05
0.021997
1.49021e-05
0.0219933
1.56186e-05
0.0219891
1.64004e-05
0.0219845
1.72322e-05
0.0219794
1.81051e-05
0.0219735
1.90244e-05
0.0219667
2.00223e-05
0.0219587
2.11788e-05
0.0219491
2.2654e-05
0.0219373
2.47373e-05
0.0219226
2.79179e-05
0.021904
3.29866e-05
0.0218802
4.11643e-05
0.0218495
5.42768e-05
0.02181
7.49348e-05
0.0217591
0.000106742
0.0216942
0.000154406
0.0216125
0.000223763
0.0215114
0.00032144
0.0213888
0.000454167
0.0212435
0.000627399
0.0210758
0.00084348
0.0208872
0.00109944
0.0206808
0.00138545
0.0204609
0.00168478
0.0202325
0.00197593
0.0200012
0.00223626
0.0197726
0.00244578
0.0195521
0.0025896
0.0193435
0.00265842
0.0191473
0.0026515
0.0189596
0.00258589
0.00250824
0.0308977
0.00666064
0.0309327
0.00478184
0.0307209
0.0026344
0.0303342
0.000538371
0.0298845
-0.00129138
0.0294594
-0.00275623
0.0291055
-0.00384041
0.0288356
-0.00457232
0.0286411
-0.00499674
0.0285033
-0.00515875
0.0284009
-0.00509678
0.0283142
-0.0048409
0.0282276
-0.00441409
0.0281307
-0.00383429
0.0280175
-0.00311681
0.0278877
-0.00227633
0.0277451
-0.00132868
0.0275975
-0.000292141
0.0274556
0.000811118
0.0273304
0.00195335
0.0272299
0.00309791
0.0271531
0.00419293
0.0270841
0.00515864
0.026993
0.00587466
0.0268482
0.00620491
0.0266341
0.00609252
0.0263571
0.00562218
0.0260372
0.00495195
0.0256986
0.00422112
0.0253622
0.00351774
0.0250436
0.00288632
0.0247529
0.00234307
0.0244951
0.00188847
0.0242714
0.00151506
0.0240805
0.00121228
0.0239198
0.00096888
0.0237857
0.000774375
0.0236747
0.0006195
0.0235833
0.000496439
0.0235082
0.00039873
0.0234466
0.000321144
0.0233963
0.00025948
0.023355
0.000210405
0.0233212
0.000171276
0.0232934
0.000140014
0.0232705
0.00011498
0.0232516
9.48875e-05
0.0232359
7.87242e-05
0.0232229
6.56954e-05
0.0232119
5.51746e-05
0.0232027
4.66694e-05
0.0231948
3.97907e-05
0.0231881
3.42319e-05
0.0231823
2.97499e-05
0.0231771
2.61527e-05
0.0231726
2.32879e-05
0.0231685
2.10345e-05
0.0231647
1.92964e-05
0.0231611
1.79974e-05
0.0231578
1.70763e-05
0.0231545
1.64847e-05
0.0231513
1.61838e-05
0.023148
1.61422e-05
0.0231447
1.63346e-05
0.0231412
1.67404e-05
0.0231375
1.73428e-05
0.0231336
1.81281e-05
0.0231293
1.90861e-05
0.0231247
2.02109e-05
0.0231195
2.15026e-05
0.0231136
2.29719e-05
0.023107
2.46462e-05
0.0230993
2.65806e-05
0.0230902
2.88752e-05
0.0230795
3.16998e-05
0.0230666
3.53328e-05
0.0230508
4.02134e-05
0.0230313
4.70189e-05
0.023007
5.67599e-05
0.0229767
7.09131e-05
0.0229386
9.15631e-05
0.0228911
0.000121577
0.022832
0.000164732
0.0227593
0.000225818
0.0226709
0.000310526
0.0225653
0.000425137
0.0224416
0.000575717
0.0222996
0.000766862
0.0221404
0.000999854
0.0219661
0.00127073
0.0217794
0.00156878
0.021584
0.00187676
0.0213833
0.00217301
0.0211807
0.00243522
0.0209787
0.00264412
0.020779
0.0027861
0.0205813
0.0028535
0.020384
0.00284726
0.0201847
0.00278458
0.00270839
0.0322215
0.00658567
0.0322535
0.00475087
0.0321404
0.00274858
0.0318886
0.000791684
0.0315567
-0.000956995
0.0312059
-0.00240166
0.0308785
-0.00350771
0.0305944
-0.00428158
0.0303562
-0.00475096
0.0301564
-0.00495077
0.0299834
-0.00491506
0.0298254
-0.00467378
0.0296732
-0.00425207
0.0295208
-0.00367142
0.0293664
-0.00295094
0.0292114
-0.00210905
0.0290605
-0.00116458
0.0289202
-0.000137971
0.0287974
0.000948032
0.0286976
0.0020671
0.0286216
0.00318723
0.0285615
0.00426477
0.0284989
0.00523063
0.028407
0.0059719
0.0282623
0.00634952
0.0280559
0.00629294
0.0277959
0.00587144
0.0274994
0.00523468
0.0271854
0.00451976
0.0268709
0.00381655
0.0265694
0.00317277
0.0262899
0.00260855
0.026038
0.00212786
0.0258158
0.0017263
0.0256232
0.00139542
0.0254586
0.0011255
0.0253194
0.00090685
0.0252028
0.000730627
0.0251056
0.000589065
0.025025
0.000475586
0.0249584
0.00038471
0.0249034
0.000311959
0.0248581
0.000253691
0.0248208
0.000206987
0.02479
0.000169504
0.0247646
0.000139379
0.0247435
0.000115129
0.0247259
9.55761e-05
0.0247113
7.97878e-05
0.024699
6.70245e-05
0.0246886
5.66991e-05
0.0246797
4.83469e-05
0.0246721
4.15985e-05
0.0246655
3.61612e-05
0.0246596
3.18023e-05
0.0246545
2.83369e-05
0.0246497
2.56184e-05
0.0246454
2.35301e-05
0.0246413
2.19797e-05
0.0246374
2.08943e-05
0.0246336
2.02163e-05
0.0246298
1.99008e-05
0.024626
1.9913e-05
0.024622
2.02268e-05
0.0246178
2.08234e-05
0.0246134
2.16906e-05
0.0246086
2.28231e-05
0.0246034
2.42231e-05
0.0245976
2.59024e-05
0.0245911
2.7886e-05
0.0245838
3.02179e-05
0.0245753
3.29697e-05
0.0245654
3.62553e-05
0.0245538
4.02493e-05
0.0245401
4.52181e-05
0.0245235
5.15571e-05
0.0245035
5.98498e-05
0.0244791
7.09357e-05
0.0244493
8.60112e-05
0.0244128
0.000106734
0.0243683
0.000135364
0.024314
0.000174882
0.0242486
0.000229114
0.0241704
0.000302742
0.0240784
0.000401219
0.0239716
0.000530373
0.0238501
0.000695698
0.0237142
0.00090109
0.0235652
0.00114719
0.0234049
0.00142947
0.0232351
0.00173696
0.0230581
0.00205237
0.0228754
0.00235433
0.0226881
0.00262113
0.0224964
0.00283443
0.0222995
0.00298177
0.0220958
0.0030564
0.0218839
0.00305876
0.0216646
0.00300375
0.00292907
0.0336906
0.00661389
0.0337056
0.00473632
0.0336553
0.00279912
0.0335094
0.00093732
0.0332887
-0.000736806
0.0330296
-0.00214326
0.0327643
-0.00324301
0.0325126
-0.00403051
0.0322827
-0.00452173
0.0320743
-0.00474324
0.0318827
-0.00472479
0.0317027
-0.00449515
0.0315295
-0.00408057
0.0313612
-0.00350464
0.031198
-0.00278903
0.0310425
-0.00195441
0.0308988
-0.00102127
0.0307714
-1.0573e-05
0.030664
0.00105563
0.0305778
0.00215358
0.0305091
0.00325589
0.0304473
0.00432585
0.0303738
0.00530186
0.0302659
0.00607481
0.0301069
0.00650047
0.0298939
0.0064947
0.0296371
0.00611471
0.0293515
0.00550509
0.0290527
0.00480299
0.0287537
0.00409995
0.0284655
0.00344623
0.0281957
0.00286455
0.0279496
0.00236161
0.0277297
0.00193529
0.0275365
0.00157909
0.0273692
0.00128462
0.027226
0.00104314
0.0271046
0.000846275
0.0270024
0.000686491
0.0269168
0.000557197
0.0268455
0.000452797
0.0267862
0.000368595
0.026737
0.000300725
0.0266961
0.000246017
0.0266623
0.000201903
0.0266342
0.000166304
0.0266108
0.000137553
0.0265913
0.000114309
0.026575
9.55022e-05
0.0265612
8.02752e-05
0.0265496
6.79452e-05
0.0265396
5.79665e-05
0.026531
4.99045e-05
0.0265235
4.34123e-05
0.0265169
3.82138e-05
0.026511
3.4089e-05
0.0265056
3.08631e-05
0.0265006
2.83974e-05
0.0264959
2.65824e-05
0.0264914
2.53321e-05
0.0264869
2.45797e-05
0.0264824
2.42745e-05
0.0264779
2.43789e-05
0.0264732
2.48671e-05
0.0264682
2.57239e-05
0.0264628
2.69446e-05
0.026457
2.8535e-05
0.0264506
3.0514e-05
0.0264435
3.29157e-05
0.0264354
3.57953e-05
0.0264262
3.92355e-05
0.0264157
4.33585e-05
0.0264034
4.83403e-05
0.0263889
5.44348e-05
0.0263718
6.20002e-05
0.0263515
7.15441e-05
0.0263271
8.37709e-05
0.0262979
9.96562e-05
0.0262627
0.000120523
0.0262206
0.000148149
0.0261703
0.000184864
0.0261105
0.000233668
0.0260403
0.000298299
0.0259586
0.000383257
0.025865
0.000493675
0.0257591
0.000634991
0.0256414
0.000812249
0.0255125
0.00102897
0.0253733
0.00128555
0.0252247
0.00157743
0.0250675
0.0018938
0.0249021
0.00221771
0.0247282
0.0025283
0.0245451
0.00280445
0.0243512
0.00302848
0.0241448
0.00318847
0.0239241
0.00327738
0.0236892
0.00329384
0.0234444
0.00324875
0.0031742
0.0353533
0.00671991
0.0353469
0.00474318
0.0353347
0.00281132
0.0352678
0.00100301
0.035142
-0.000613346
0.0349739
-0.0019785
0.0347843
-0.00305754
0.0345896
-0.00384062
0.0343992
-0.00433693
0.0342168
-0.00456724
0.0340425
-0.00455768
0.0338751
-0.00433563
0.0337136
-0.00392753
0.0335581
-0.00335809
0.0334104
-0.00265037
0.033273
-0.00182616
0.0331492
-0.000906451
0.0330417
8.81437e-05
0.0329515
0.00113707
0.0328771
0.00221926
0.0328123
0.00331154
0.0327457
0.00438271
0.0326599
0.00537671
0.0325361
0.00618626
0.0323623
0.00666036
0.0321402
0.00670155
0.0318821
0.00635682
0.0316024
0.00576855
0.0313138
0.00507549
0.0310269
0.00437148
0.0307498
0.00370869
0.030489
0.00311184
0.030249
0.00258944
0.0300322
0.00214119
0.0298397
0.00176209
0.029671
0.00144502
0.029525
0.00118206
0.0293999
0.00096543
0.0292935
0.000787877
0.0292036
0.000642925
0.029128
0.000524923
0.0290647
0.000429061
0.0290117
0.000351286
0.0289676
0.000288238
0.0289308
0.000237143
0.0289001
0.000195738
0.0288744
0.000162174
0.0288529
0.000134961
0.0288348
0.00011289
0.0288195
9.49879e-05
0.0288065
8.04737e-05
0.0287953
6.87195e-05
0.0287857
5.92213e-05
0.0287773
5.15764e-05
0.0287698
4.54621e-05
0.0287631
4.06211e-05
0.0287569
3.68484e-05
0.0287512
3.39819e-05
0.0287458
3.18936e-05
0.0287405
3.0484e-05
0.0287353
2.96768e-05
0.02873
2.94156e-05
0.0287247
2.9661e-05
0.028719
3.03888e-05
0.0287131
3.15893e-05
0.0287066
3.32673e-05
0.0286996
3.54434e-05
0.0286918
3.81561e-05
0.0286831
4.14663e-05
0.0286733
4.54626e-05
0.0286621
5.02714e-05
0.0286491
5.60669e-05
0.0286341
6.30905e-05
0.0286166
7.16696e-05
0.028596
8.22511e-05
0.0285717
9.54346e-05
0.0285429
0.000112026
0.0285089
0.000133092
0.0284687
0.000160037
0.0284214
0.00019468
0.028366
0.000239352
0.0283018
0.000296973
0.0282279
0.000371131
0.028144
0.000466082
0.0280499
0.000586668
0.0279459
0.000738019
0.0278323
0.000924957
0.0277097
0.00115094
0.0275784
0.00141652
0.0274383
0.00171754
0.0272888
0.00204373
0.0271286
0.00237869
0.0269558
0.00270204
0.0267684
0.00299303
0.0265639
0.00323415
0.02634
0.00341336
0.026096
0.00352241
0.0258339
0.00355669
0.0255607
0.00352236
0.0034462
0.0372403
0.00687983
0.0372132
0.00477052
0.0372222
0.00280179
0.0372115
0.00101198
0.0371616
-0.000566528
0.0370743
-0.00189576
0.0369604
-0.00294948
0.0368313
-0.0037186
0.0366958
-0.00420954
0.0365591
-0.00443966
0.0364237
-0.00443251
0.0362912
-0.00421417
0.0361627
-0.00381081
0.0360397
-0.00324754
0.0359245
-0.00254791
0.0358193
-0.00173402
0.0357264
-0.000826631
0.0356468
0.000154568
0.03558
0.00119076
0.0355226
0.00226351
0.0354675
0.00335322
0.0354032
0.00443296
0.0353142
0.00545072
0.035184
0.00629992
0.0350039
0.00682289
0.0347786
0.00690897
0.034522
0.00659584
0.0342486
0.0060249
0.0339698
0.00533805
0.0336939
0.00463187
0.0334277
0.00396055
0.033176
0.00335015
0.0329428
0.0028106
0.0327303
0.00234284
0.0325398
0.00194312
0.0323711
0.00160531
0.0322237
0.00132234
0.032096
0.00108696
0.0319864
0.000892283
0.031893
0.000731996
0.0318137
0.000600495
0.0317469
0.000492899
0.0316906
0.000405047
0.0316433
0.000333417
0.0316037
0.000275075
0.0315704
0.000227584
0.0315425
0.000188944
0.031519
0.000157513
0.0314992
0.000131955
0.0314823
0.000111183
0.031468
9.43177e-05
0.0314556
8.06465e-05
0.0314449
6.95966e-05
0.0314354
6.0706e-05
0.031427
5.36044e-05
0.0314194
4.79949e-05
0.0314125
4.36412e-05
0.0314059
4.03558e-05
0.0313997
3.79919e-05
0.0313936
3.64357e-05
0.0313875
3.56016e-05
0.0313814
3.54278e-05
0.0313751
3.58738e-05
0.0313684
3.69185e-05
0.0313613
3.85593e-05
0.0313537
4.08131e-05
0.0313452
4.37172e-05
0.0313359
4.73332e-05
0.0313255
5.17509e-05
0.0313136
5.70965e-05
0.0313001
6.35398e-05
0.0312846
7.13097e-05
0.0312667
8.07076e-05
0.0312459
9.21322e-05
0.0312216
0.000106102
0.0311933
0.000123296
0.0311602
0.000144587
0.0311215
0.0001711
0.0310766
0.000204263
0.0310246
0.000245888
0.0309648
0.000298233
0.0308967
0.000364091
0.03082
0.000446851
0.0307345
0.000550535
0.0306404
0.000679743
0.0305381
0.000839441
0.0304279
0.00103445
0.03031
0.00126845
0.030184
0.00154253
0.0300487
0.00185325
0.0299022
0.0021911
0.0297418
0.00254031
0.0295646
0.00288087
0.0293672
0.00319206
0.029147
0.00345607
0.028902
0.00366001
0.0286321
0.00379356
0.0283414
0.00384835
0.0280391
0.00382512
0.00374573
0.0393633
0.007071
0.0393193
0.00481452
0.0393387
0.00278175
0.0393657
0.000983082
0.0393726
-0.000577041
0.0393517
-0.00188001
0.0393056
-0.00291009
0.039241
-0.00366205
0.0391646
-0.00414242
0.0390818
-0.00436715
0.0389963
-0.00435833
0.0389108
-0.00414096
0.0388278
-0.0037408
0.0387495
-0.00318278
0.038678
-0.00249045
0.0386152
-0.00168559
0.0385623
-0.000788324
0.0385194
0.000182873
0.0384846
0.00121089
0.0384536
0.00227968
0.0384192
0.00337254
0.0383703
0.00446607
0.0382926
0.00551152
0.0381718
0.00640295
0.0380001
0.00697605
0.0377832
0.0071073
0.0375362
0.00682491
0.037274
0.00627005
0.0370077
0.00558833
0.0367447
0.00487985
0.0364904
0.00420074
0.0362492
0.00357844
0.0360241
0.00302382
0.0358175
0.00253885
0.0356305
0.00212066
0.0354635
0.00176403
0.035316
0.00146256
0.0351871
0.0012096
0.0350754
0.000998607
0.0349794
0.000823502
0.0348973
0.000678764
0.0348275
0.000559527
0.0347683
0.00046155
0.0347183
0.000381213
0.0346761
0.000315441
0.0346405
0.000261663
0.0346105
0.000217733
0.0345851
0.000181881
0.0345635
0.000152646
0.0345452
0.000128833
0.0345294
0.000109466
0.0345158
9.37516e-05
0.034504
8.10448e-05
0.0344935
7.08252e-05
0.0344842
6.26724e-05
0.0344757
5.62496e-05
0.0344678
5.12873e-05
0.0344604
4.75726e-05
0.0344533
4.49385e-05
0.0344463
4.32571e-05
0.0344394
4.24331e-05
0.0344322
4.24001e-05
0.0344249
4.31174e-05
0.0344171
4.45678e-05
0.0344087
4.67578e-05
0.0343997
4.97178e-05
0.0343897
5.35046e-05
0.0343787
5.82041e-05
0.0343663
6.39381e-05
0.0343523
7.08693e-05
0.0343364
7.92136e-05
0.0343181
8.92496e-05
0.0342971
0.000101337
0.0342729
0.000115933
0.034245
0.00013362
0.0342126
0.000155126
0.0341752
0.000181371
0.0341322
0.000213496
0.0340827
0.00025292
0.0340264
0.000301391
0.0339626
0.000361063
0.0338912
0.000434563
0.0338119
0.000525082
0.033725
0.000636433
0.0336308
0.000773063
0.0335295
0.000939919
0.0334214
0.00114202
0.0333061
0.00138354
0.0331825
0.00166633
0.0330484
0.00198788
0.0329011
0.00233958
0.0327366
0.00270628
0.0325512
0.00306813
0.0323411
0.00340414
0.0321034
0.00369574
0.0318364
0.00392868
0.0315414
0.00409016
0.0312235
0.00416731
0.0308937
0.00415538
0.00407149
0.0417169
0.00727229
0.041662
0.00486915
0.0416849
0.00275782
0.0417349
0.000930863
0.0417817
-0.000627639
0.0418116
-0.00191538
0.0418217
-0.00292714
0.0418143
-0.00366316
0.0417941
-0.0041319
0.0417657
-0.00434948
0.0417331
-0.00433732
0.0416995
-0.00411982
0.0416679
-0.00372218
0.0416405
-0.00316899
0.0416195
-0.0024833
0.0416061
-0.00168637
0.0416008
-0.000797345
0.0416027
0.00016649
0.0416095
0.00118976
0.0416163
0.00225841
0.0416159
0.0033583
0.0415982
0.00446881
0.0415497
0.00554406
0.0414565
0.00647892
0.0413109
0.00710381
0.0411177
0.00728259
0.0408921
0.00703338
0.0406495
0.0064963
0.0404014
0.00582112
0.0401551
0.00511169
0.0399159
0.00442657
0.0396874
0.00379443
0.0394726
0.0032271
0.0392738
0.00272727
0.0390923
0.00229289
0.0389286
0.00191942
0.0387828
0.00160116
0.0386541
0.00133193
0.0385417
0.00110562
0.0384442
0.000916386
0.0383601
0.000758864
0.0382881
0.000628226
0.0382266
0.000520227
0.0381743
0.000431169
0.0381299
0.00035789
0.0380922
0.000297699
0.0380603
0.000248335
0.0380331
0.000207907
0.03801
0.000174845
0.0379902
0.000147851
0.0379732
0.000125859
0.0379584
0.000107993
0.0379455
9.3541e-05
0.037934
8.19213e-05
0.0379237
7.26651e-05
0.0379143
6.53939e-05
0.0379055
5.98053e-05
0.0378972
5.56596e-05
0.0378892
5.277e-05
0.0378813
5.09938e-05
0.0378733
5.02267e-05
0.0378652
5.03981e-05
0.0378567
5.14674e-05
0.0378477
5.34231e-05
0.037838
5.62815e-05
0.0378274
6.00885e-05
0.0378158
6.49208e-05
0.0378029
7.08913e-05
0.0377885
7.81524e-05
0.0377722
8.69057e-05
0.0377537
9.74086e-05
0.0377326
0.000109989
0.0377085
0.000125054
0.0376809
0.000143112
0.0376492
0.00016479
0.0376129
0.000190853
0.0375714
0.000222234
0.0375241
0.000260068
0.0374705
0.000305726
0.0374102
0.000360871
0.0373428
0.000427523
0.0372682
0.000508142
0.0371866
0.000605736
0.0370981
0.000723961
0.0370031
0.000867205
0.0369017
0.00104052
0.036794
0.0012493
0.036679
0.00149838
0.0365551
0.00179052
0.0364195
0.00212427
0.0362684
0.00249191
0.0360974
0.00287885
0.0359023
0.00326524
0.035679
0.00362958
0.0354246
0.0039522
0.035138
0.00421721
0.0348209
0.00440881
0.0344795
0.00450974
0.034126
0.00450933
0.00442021
0.0442807
0.00746453
0.0442221
0.00492736
0.044245
0.00273367
0.0443071
0.00086642
0.0443792
-0.000703656
0.0444452
-0.00198686
0.0444983
-0.00298744
0.0445381
-0.00371151
0.0445671
-0.00417061
0.0445889
-0.0043819
0.0446071
-0.00436701
0.0446252
-0.00414996
0.044646
-0.00375553
0.0446719
-0.00320775
0.0447045
-0.00252911
0.0447448
-0.00173999
0.0447927
-0.000858634
0.0448469
9.9024e-05
0.0449043
0.00111903
0.0449603
0.00218923
0.0450079
0.00329749
0.0450373
0.00442582
0.0450359
0.0055311
0.0449898
0.00650999
0.0448892
0.00718865
0.0447369
0.00741906
0.0445467
0.00720804
0.0443346
0.0066936
0.0441126
0.00602895
0.0438889
0.00532203
0.0436689
0.00463394
0.0434566
0.00399493
0.0432551
0.00341769
0.0430666
0.00290572
0.0428928
0.00245761
0.0427346
0.00206953
0.0425923
0.00173632
0.0424656
0.00145237
0.0423538
0.00121192
0.0422561
0.00100944
0.0421711
0.000839758
0.0420978
0.000698142
0.0420347
0.000580363
0.0419808
0.00048271
0.0419346
0.000401951
0.0418953
0.000335317
0.0418617
0.000280446
0.0418331
0.000235351
0.0418086
0.000198361
0.0417875
0.000168087
0.0417693
0.000143375
0.0417534
0.000123277
0.0417395
0.00010701
0.041727
9.3937e-05
0.0417158
8.3539e-05
0.0417055
7.53974e-05
0.0416959
6.91758e-05
0.0416867
6.46084e-05
0.0416778
6.1488e-05
0.0416689
5.96577e-05
0.0416599
5.90042e-05
0.0416507
5.9453e-05
0.041641
6.09649e-05
0.0416307
6.35343e-05
0.0416196
6.71888e-05
0.0416075
7.19899e-05
0.0415942
7.80364e-05
0.0415794
8.54663e-05
0.0415628