# Forces      
# CofR        : (-1.050000e-01 0.000000e+00 0.000000e+00)
# Time        forces(pressure viscous)	moments(pressure viscous)
1700          	((7.528026e-01 5.111259e+01 -4.133045e-18) (3.332257e-01 2.000544e-02 1.529322e-18)) ((1.376730e-20 -2.889575e-19 -1.280562e+00) (4.413049e-22 2.719873e-21 2.280948e-03))
