/*--------------------------------*- C++ -*----------------------------------*\
  =========                 |
  \\      /  F ield         | OpenFOAM: The Open Source CFD Toolbox
   \\    /   O peration     | Website:  https://openfoam.org
    \\  /    A nd           | Version:  8
     \\/     M anipulation  |
\*---------------------------------------------------------------------------*/
FoamFile
{
    version     2.0;
    format      ascii;
    class       volScalarField;
    location    "14";
    object      p;
}
// * * * * * * * * * * * * * * * * * * * * * * * * * * * * * * * * * * * * * //

dimensions      [0 2 -2 0 0 0 0];

internalField   nonuniform List<scalar> 
277560
(
-0.0115669
0.00277687
0.00348425
0.0065344
0.00928378
0.0119821
0.0146383
0.0172511
0.019827
0.0223693
0.0248815
0.0273655
0.029823
0.0322544
0.0346603
0.0370397
0.0393922
0.0417162
0.0440102
0.0462721
0.0484998
0.0506906
0.0528423
0.0549518
0.0570168
0.0590341
0.0610013
0.0629155
0.0647745
0.0665758
0.0683171
0.0699968
0.0716126
0.0731638
0.0746486
0.076067
0.0774175
0.078701
0.0799168
0.0810661
0.0821492
0.0831679
0.084123
0.085017
0.0858514
0.086629
0.087352
0.0880236
0.0886463
0.0892238
0.0897595
0.0902572
0.09072
0.0911515
0.091555
0.0919342
0.0922923
0.0926329
0.0929591
0.0932743
0.0935815
0.0938837
0.0941839
0.0944847
0.0947889
0.0950988
0.095417
0.0957454
0.0960862
0.0964413
0.0968125
0.0972013
0.0976095
0.0980382
0.0984888
0.0989623
0.09946
0.0999825
0.100531
0.101106
0.101708
0.102338
0.102997
0.103684
0.104401
0.105147
0.105923
0.106729
0.107565
0.108432
0.10933
0.110258
0.111218
0.112208
0.11323
0.114282
0.115366
0.116481
0.117628
0.118805
0.120015
0.121255
0.122528
0.123832
0.125167
0.126535
0.127934
0.129365
0.130829
0.132325
0.133853
0.135414
0.137007
0.138634
0.140293
0.141989
0.143732
0.14548
0.147066
0.148686
-0.01059
0.00194286
0.00361046
0.00649559
0.00926731
0.0119649
0.0146178
0.0172277
0.0198
0.022339
0.0248477
0.0273283
0.0297824
0.0322105
0.0346129
0.0369891
0.0393382
0.0416591
0.0439498
0.0462087
0.0484333
0.0506212
0.0527699
0.0548767
0.0569388
0.0589536
0.0609181
0.0628298
0.0646863
0.0664852
0.0682243
0.0699014
0.0715152
0.0730638
0.0745467
0.0759626
0.0773113
0.0785923
0.0798063
0.0809532
0.0820345
0.0830508
0.0840041
0.0848957
0.0857283
0.0865035
0.0872246
0.0878938
0.0885146
0.0890898
0.0896236
0.0901188
0.0905796
0.0910087
0.0914103
0.091787
0.0921432
0.0924813
0.0928056
0.0931184
0.0934236
0.0937235
0.0940217
0.0943203
0.0946226
0.0949303
0.0952466
0.0955728
0.0959119
0.0962648
0.0966343
0.0970211
0.0974276
0.0978543
0.0983033
0.0987748
0.099271
0.0997916
0.100339
0.100912
0.101512
0.102141
0.102798
0.103483
0.104198
0.104943
0.105717
0.106521
0.107357
0.108222
0.109118
0.110044
0.111002
0.111991
0.113011
0.114062
0.115144
0.116257
0.117402
0.118577
0.119785
0.121023
0.122294
0.123595
0.124928
0.126293
0.12769
0.129118
0.130578
0.13207
0.133595
0.135152
0.136742
0.138363
0.140018
0.141709
0.143446
0.145185
0.146761
0.148379
-0.0104795
0.00175889
0.00363743
0.00646527
0.00924358
0.0119365
0.0145836
0.0171876
0.0197538
0.0222867
0.0247893
0.0272638
0.0297118
0.032134
0.0345304
0.0369007
0.0392441
0.0415592
0.0438443
0.0460976
0.0483168
0.0504994
0.0526429
0.0547446
0.0568017
0.0588116
0.0607713
0.0626784
0.0645302
0.0663245
0.0680592
0.069732
0.0713415
0.0728859
0.0743645
0.0757762
0.0771208
0.0783977
0.0796076
0.0807505
0.0818277
0.0828399
0.0837892
0.0846768
0.0855052
0.0862765
0.0869935
0.0876587
0.0882754
0.0888465
0.0893761
0.0898675
0.0903241
0.0907493
0.0911467
0.0915197
0.0918718
0.0922063
0.0925266
0.0928358
0.0931372
0.0934338
0.0937284
0.0940238
0.0943226
0.0946274
0.0949405
0.0952641
0.0956001
0.0959507
0.0963174
0.0967021
0.097106
0.0975308
0.0979775
0.0984474
0.0989414
0.0994607
0.100006
0.100578
0.101177
0.101804
0.10246
0.103144
0.103858
0.104602
0.105375
0.106179
0.107013
0.107878
0.108774
0.1097
0.110658
0.111646
0.112666
0.113717
0.114798
0.115912
0.117056
0.118232
0.119439
0.120678
0.121948
0.12325
0.124583
0.125948
0.127345
0.128773
0.130233
0.131726
0.13325
0.134806
0.136395
0.138016
0.139669
0.14136
0.143095
0.144832
0.146405
0.14802
-0.0105158
0.00174365
0.00362809
0.00643365
0.00920986
0.011894
0.0145322
0.0171271
0.0196842
0.022208
0.0247015
0.027167
0.0296061
0.0320193
0.0344069
0.0367685
0.0391033
0.0414098
0.0436866
0.0459317
0.0481427
0.0503174
0.0524532
0.0545472
0.0565969
0.0585993
0.0605519
0.0624519
0.0642969
0.0660844
0.0678123
0.0694786
0.0710815
0.0726197
0.0740918
0.0754973
0.0768355
0.0781064
0.0793099
0.0804469
0.0815178
0.0825242
0.0834671
0.0843488
0.085171
0.0859363
0.086647
0.0873063
0.0879165
0.0884818
0.089005
0.0894904
0.0899406
0.0903599
0.090751
0.0911181
0.091464
0.0917928
0.092107
0.0924107
0.0927063
0.0929975
0.0932865
0.0935768
0.0938704
0.0941704
0.0944784
0.0947975
0.0951289
0.0954753
0.0958377
0.0962185
0.0966183
0.0970396
0.0974825
0.0979492
0.0984397
0.0989559
0.0994978
0.100067
0.100663
0.101288
0.101941
0.102623
0.103334
0.104076
0.104847
0.105649
0.106481
0.107344
0.108238
0.109162
0.110118
0.111105
0.112122
0.113172
0.114252
0.115364
0.116506
0.117681
0.118886
0.120123
0.121391
0.122692
0.124023
0.125386
0.12678
0.128206
0.129664
0.131154
0.132676
0.13423
0.135816
0.137434
0.139084
0.140772
0.142504
0.144238
0.145805
0.147415
-0.0105334
0.00175889
0.00360419
0.00639932
0.00916622
0.011838
0.0144641
0.0170468
0.0195918
0.0221034
0.024585
0.0270386
0.0294658
0.0318674
0.0342434
0.0365935
0.0389169
0.0412123
0.043478
0.0457122
0.0479127
0.0500769
0.0522024
0.0542865
0.0563263
0.0583191
0.0602622
0.0621529
0.0639887
0.0657672
0.0674863
0.069144
0.0707383
0.0722681
0.0737318
0.0751292
0.076459
0.0777219
0.0789172
0.0800462
0.081109
0.0821074
0.0830422
0.0839159
0.08473
0.0854873
0.0861899
0.0868411
0.0874433
0.0880003
0.0885154
0.0889926
0.0894348
0.0898459
0.0902291
0.0905881
0.0909263
0.0912471
0.0915538
0.0918498
0.0921382
0.0924221
0.0927042
0.0929876
0.0932747
0.0935682
0.0938703
0.0941832
0.0945091
0.0948498
0.0952071
0.0955826
0.0959779
0.0963943
0.0968331
0.0972954
0.0977822
0.0982945
0.0988331
0.0993986
0.099992
0.100613
0.101264
0.101943
0.102653
0.103392
0.104161
0.104961
0.105791
0.106652
0.107544
0.108468
0.109422
0.110408
0.111425
0.112473
0.113553
0.114663
0.115806
0.11698
0.118185
0.119422
0.12069
0.12199
0.123321
0.124684
0.126079
0.127505
0.128963
0.130453
0.131976
0.13353
0.135116
0.136735
0.138385
0.140073
0.141806
0.14354
0.145107
0.146714
-0.0105472
0.00179347
0.00357269
0.00636203
0.00911336
0.0117693
0.0143801
0.0169476
0.0194774
0.021974
0.0244407
0.0268796
0.0292922
0.0316793
0.034041
0.0363769
0.0386863
0.0409679
0.04322
0.0454409
0.0476282
0.0497796
0.0518925
0.0539641
0.0559918
0.0579727
0.0599041
0.0617833
0.0636079
0.0653753
0.0670835
0.0687303
0.0703143
0.0718333
0.0732871
0.0746737
0.0759938
0.0772462
0.0784318
0.0795504
0.0806035
0.0815915
0.0825168
0.0833801
0.0841845
0.0849314
0.0856243
0.0862649
0.0868574
0.0874039
0.0879092
0.0883758
0.0888082
0.0892089
0.0895824
0.0899311
0.0902597
0.0905706
0.090868
0.0911544
0.0914338
0.0917085
0.0919822
0.0922568
0.092536
0.0928213
0.093116
0.0934213
0.0937404
0.094074
0.0944251
0.0947942
0.0951839
0.0955944
0.096028
0.0964849
0.0969671
0.0974745
0.0980089
0.0985701
0.0991596
0.0997771
0.100424
0.1011
0.101806
0.102542
0.103309
0.104106
0.104934
0.105793
0.106683
0.107604
0.108557
0.109541
0.110556
0.111603
0.112682
0.113791
0.114933
0.116106
0.117311
0.118546
0.119814
0.121113
0.122444
0.123806
0.125201
0.126627
0.128085
0.129574
0.131096
0.13265
0.134236
0.135854
0.137505
0.139192
0.140924
0.142658
0.144224
0.145827
-0.0105647
0.00184333
0.00353617
0.00632112
0.00905158
0.0116883
0.0142806
0.0168296
0.0193413
0.0218201
0.0242691
0.0266905
0.0290858
0.0314557
0.0338004
0.0361195
0.0384123
0.0406775
0.0429135
0.0451186
0.0472903
0.0494265
0.0515243
0.0535813
0.0555945
0.0575613
0.0594789
0.0613445
0.0631557
0.0649099
0.0666051
0.0682392
0.0698104
0.0713172
0.0727584
0.0741331
0.0754407
0.0766813
0.0778546
0.0789615
0.0800023
0.0809787
0.0818916
0.0827432
0.0835353
0.0842704
0.0849509
0.0855798
0.0861597
0.0866945
0.0871871
0.0876419
0.0880617
0.0884507
0.0888117
0.0891489
0.0894653
0.0897649
0.0900505
0.090326
0.0905941
0.0908585
0.0911214
0.0913864
0.0916554
0.0919318
0.092217
0.0925142
0.0928245
0.0931508
0.0934938
0.0938561
0.0942383
0.0946426
0.0950693
0.0955206
0.0959965
0.0964988
0.0970274
0.097584
0.0981683
0.0987819
0.0994242
0.100097
0.100799
0.101532
0.102295
0.103089
0.103914
0.104771
0.105659
0.106579
0.10753
0.108513
0.109527
0.110573
0.111651
0.11276
0.113901
0.115075
0.116279
0.117516
0.118784
0.120084
0.121416
0.12278
0.124175
0.125603
0.127062
0.128554
0.130078
0.131634
0.133222
0.134843
0.136495
0.138185
0.139921
0.141658
0.143224
0.144827
-0.0105834
0.00190247
0.00349547
0.00627603
0.00898103
0.0115953
0.0141658
0.0166934
0.019184
0.021642
0.0240706
0.0264719
0.0288471
0.0311972
0.0335222
0.0358219
0.0380955
0.0403418
0.0425593
0.044746
0.0468998
0.0490183
0.051099
0.053139
0.0551356
0.057086
0.0589876
0.0608374
0.0626331
0.0643721
0.0660523
0.0676715
0.0692281
0.0707205
0.0721474
0.073508
0.0748014
0.0760279
0.0771872
0.0782801
0.079307
0.0802694
0.0811683
0.082006
0.082784
0.0835051
0.0841714
0.0847861
0.0853519
0.0858723
0.0863508
0.0867912
0.0871968
0.0875715
0.0879184
0.0882416
0.0885442
0.0888301
0.0891024
0.0893648
0.0896202
0.089872
0.090123
0.0903762
0.0906342
0.0908995
0.0911745
0.0914614
0.0917622
0.0920788
0.092413
0.0927664
0.0931404
0.0935364
0.0939557
0.0943993
0.0948684
0.0953637
0.0958862
0.0964364
0.0970153
0.0976231
0.0982607
0.0989282
0.0996263
0.100355
0.101115
0.101906
0.102728
0.103582
0.104468
0.105385
0.106335
0.107316
0.10833
0.109375
0.110452
0.111561
0.112703
0.113876
0.115082
0.116319
0.117588
0.118889
0.120223
0.121588
0.122985
0.124415
0.125877
0.12737
0.128897
0.130455
0.132046
0.13367
0.135325
0.137018
0.138757
0.140497
0.142064
0.143666
-0.0106007
0.00196628
0.00345054
0.00622598
0.00890143
0.0114902
0.014036
0.0165391
0.0190057
0.0214402
0.0238456
0.0262239
0.0285765
0.0309041
0.0332069
0.0354846
0.0377365
0.0399614
0.0421578
0.0443239
0.0464574
0.048556
0.0506171
0.0526379
0.0546157
0.0565477
0.0584311
0.0602631
0.0620412
0.063763
0.065426
0.0670284
0.0685684
0.0700443
0.071455
0.0727993
0.0740768
0.0752871
0.0764306
0.0775074
0.0785185
0.0794647
0.0803479
0.0811693
0.0819314
0.0826361
0.0832864
0.0838847
0.0844344
0.0849382
0.0854005
0.0858242
0.0862136
0.0865717
0.0869027
0.0872095
0.0874965
0.0877665
0.0880237
0.0882708
0.0885118
0.0887491
0.0889866
0.0892262
0.0894713
0.0897238
0.0899868
0.0902617
0.0905512
0.0908565
0.0911802
0.091523
0.0918873
0.0922735
0.0926838
0.0931184
0.0935793
0.0940664
0.0945816
0.0951246
0.0956971
0.0962986
0.0969307
0.0975927
0.0982862
0.0990103
0.0997664
0.100554
0.101373
0.102225
0.103108
0.104024
0.104972
0.105952
0.106966
0.10801
0.109088
0.110198
0.111341
0.112515
0.113722
0.114961
0.116233
0.117537
0.118873
0.120241
0.121643
0.123076
0.124542
0.126039
0.12757
0.129134
0.13073
0.132358
0.13402
0.135718
0.137463
0.139208
0.14078
0.142382
-0.0106151
0.00203186
0.00340126
0.00617036
0.0088125
0.0113729
0.013891
0.0163669
0.0188067
0.0212148
0.0235942
0.025947
0.0282744
0.0305769
0.0328548
0.035108
0.0373357
0.0395368
0.0417098
0.0438528
0.0459638
0.0480402
0.0500795
0.0520789
0.0540357
0.0559471
0.0578102
0.0596223
0.0613808
0.0630832
0.0647272
0.0663107
0.067832
0.0692895
0.0706819
0.072008
0.0732675
0.0744598
0.0755853
0.0766441
0.0776372
0.0785655
0.0794306
0.0802339
0.0809778
0.0816643
0.0822963
0.0828762
0.0834073
0.0838927
0.0843362
0.0847414
0.0851121
0.0854517
0.0857641
0.0860527
0.0863215
0.0865738
0.0868135
0.0870436
0.0872678
0.087489
0.0877104
0.0879347
0.0881647
0.0884027
0.0886513
0.0889126
0.0891885
0.0894811
0.089792
0.090123
0.0904754
0.0908508
0.0912502
0.091675
0.0921261
0.0926045
0.093111
0.0936464
0.0942111
0.0948061
0.0954316
0.0960882
0.0967761
0.0974959
0.0982475
0.0990315
0.0998477
0.100697
0.101578
0.102492
0.103439
0.104419
0.105432
0.106477
0.107555
0.108666
0.10981
0.110987
0.112196
0.113438
0.114712
0.11602
0.11736
0.118733
0.120138
0.121576
0.123046
0.12455
0.126086
0.127655
0.129257
0.130892
0.132559
0.134264
0.136016
0.137769
0.139345
0.140949
-0.0106258
0.00209745
0.0033475
0.00610874
0.00871395
0.0112433
0.0137308
0.0161766
0.0185868
0.0209659
0.0233167
0.0256413
0.0279408
0.0302158
0.0324664
0.0346925
0.0368935
0.0390684
0.0412156
0.0433333
0.0454194
0.0474713
0.0494866
0.0514625
0.0533962
0.0552848
0.0571255
0.0589156
0.0606524
0.0623335
0.0639564
0.0655191
0.0670197
0.0684567
0.0698288
0.0711349
0.0723742
0.0735466
0.0746519
0.0756908
0.0766638
0.0775721
0.0784169
0.0792002
0.0799236
0.0805899
0.0812011
0.0817606
0.0822708
0.0827356
0.0831579
0.0835423
0.0838918
0.0842107
0.0845021
0.0847703
0.0850185
0.085251
0.0854706
0.0856816
0.0858866
0.0860894
0.0862925
0.0864994
0.0867119
0.0869334
0.0871655
0.0874111
0.0876715
0.0879494
0.0882459
0.0885634
0.0889025
0.0892655
0.0896528
0.0900665
0.0905067
0.0909752
0.091472
0.0919987
0.0925551
0.0931427
0.0937611
0.0944116
0.0950936
0.0958085
0.0965555
0.0973359
0.0981487
0.0989953
0.0998745
0.100788
0.101733
0.102713
0.103726
0.104772
0.105852
0.106965
0.108111
0.10929
0.110503
0.111749
0.113028
0.11434
0.115685
0.117063
0.118474
0.119919
0.121396
0.122907
0.12445
0.126027
0.127637
0.129281
0.130957
0.132671
0.134432
0.136195
0.137777
0.139385
-0.0106321
0.00216184
0.00328918
0.0060409
0.00860574
0.0111012
0.0135554
0.0159682
0.0183462
0.0206935
0.0230132
0.0253071
0.0275762
0.029821
0.0320418
0.0342384
0.0364104
0.0385566
0.0406757
0.0427657
0.0448246
0.0468499
0.0488391
0.0507892
0.0526976
0.0545614
0.0563777
0.0581437
0.0598568
0.0615144
0.0631142
0.064654
0.066132
0.0675465
0.0688962
0.0701802
0.0713974
0.0725478
0.073631
0.0746478
0.0755986
0.0764848
0.0773073
0.0780681
0.078769
0.0794126
0.080001
0.0805375
0.0810247
0.0814662
0.0818653
0.0822262
0.0825523
0.0828477
0.0831159
0.0833609
0.0835863
0.083796
0.0839935
0.0841825
0.0843662
0.0845481
0.0847308
0.0849175
0.0851108
0.0853131
0.0855269
0.0857545
0.0859978
0.0862589
0.0865396
0.0868414
0.087166
0.0875148
0.087889
0.0882897
0.0887182
0.0891752
0.0896617
0.0901784
0.090726
0.0913049
0.091916
0.0925592
0.0932354
0.0939445
0.0946871
0.0954631
0.096273
0.0971164
0.0979941
0.0989054
0.099851
0.10083
0.101844
0.102891
0.103973
0.105088
0.106238
0.107421
0.108638
0.109888
0.111172
0.11249
0.113841
0.115226
0.116645
0.118096
0.119582
0.121101
0.122653
0.124239
0.125859
0.127512
0.129198
0.130923
0.132696
0.134469
0.136059
0.13767
-0.0106333
0.0022242
0.0032262
0.00596666
0.00848779
0.0109468
0.0133647
0.0157419
0.0180849
0.0203978
0.0226836
0.0249442
0.0271805
0.0293927
0.0315812
0.0337459
0.0358864
0.0380017
0.0400904
0.0421505
0.0441801
0.0461765
0.0481373
0.0500596
0.0519406
0.0537774
0.0555672
0.0573071
0.0589944
0.0606265
0.0622012
0.0637161
0.0651693
0.0665593
0.0678847
0.0691443
0.0703375
0.0714636
0.0725228
0.0735153
0.0744419
0.0753035
0.0761016
0.0768376
0.0775139
0.0781322
0.0786957
0.0792067
0.0796686
0.0800842
0.0804576
0.0807922
0.0810925
0.0813616
0.081604
0.0818229
0.0820229
0.0822071
0.08238
0.0825444
0.0827045
0.0828627
0.0830228
0.0831869
0.0833586
0.0835395
0.0837329
0.0839403
0.0841646
0.0844069
0.0846698
0.0849543
0.0852626
0.0855955
0.085955
0.0863414
0.0867567
0.087201
0.087676
0.0881815
0.0887193
0.0892887
0.0898915
0.090527
0.0911966
0.0918995
0.0926371
0.0934086
0.094215
0.0950556
0.0959314
0.0968414
0.0977866
0.0987662
0.099781
0.10083
0.101914
0.103032
0.104186
0.105373
0.106595
0.107851
0.109142
0.110466
0.111826
0.113218
0.114646
0.116106
0.117602
0.119131
0.120694
0.122291
0.123923
0.125588
0.127287
0.129024
0.130811
0.132598
0.134198
0.135814
-0.0106292
0.00228391
0.00315848
0.0058859
0.00836012
0.01078
0.0131589
0.0154977
0.017803
0.0200788
0.0223282
0.024553
0.0267539
0.0289311
0.0310849
0.0332153
0.035322
0.0374041
0.03946
0.041488
0.043486
0.0454514
0.0473817
0.049274
0.0511255
0.0529333
0.0546944
0.0564061
0.0580656
0.0596702
0.0612176
0.0627055
0.0641321
0.0654954
0.0667944
0.0680276
0.0691945
0.0702943
0.0713273
0.0722933
0.0731934
0.0740284
0.0747997
0.0755087
0.0761577
0.0767487
0.0772845
0.0777676
0.0782014
0.0785888
0.0789336
0.0792395
0.0795108
0.0797511
0.0799645
0.0801548
0.0803262
0.0804826
0.0806278
0.0807654
0.0808988
0.0810312
0.0811657
0.0813052
0.0814525
0.08161
0.0817804
0.0819658
0.0821684
0.0823901
0.0826329
0.0828985
0.0831883
0.083504
0.0838466
0.0842175
0.0846177
0.0850483
0.08551
0.0860037
0.0865298
0.0870893
0.0876824
0.0883098
0.0889714
0.0896681
0.0903997
0.0911667
0.0919688
0.0928067
0.09368
0.0945891
0.0955336
0.0965139
0.0975296
0.0985811
0.0996677
0.10079
0.101947
0.10314
0.104368
0.105631
0.106929
0.108262
0.109629
0.111031
0.112468
0.11394
0.115446
0.116987
0.118562
0.120173
0.121817
0.123496
0.125209
0.126962
0.128763
0.130567
0.132177
0.133801
-0.0106195
0.00234052
0.00308595
0.00579851
0.00822269
0.0106009
0.012938
0.0152358
0.0175007
0.0197368
0.0219471
0.0241334
0.0262965
0.0284363
0.030553
0.0326468
0.0347174
0.0367639
0.0387849
0.0407786
0.0427428
0.044675
0.0465727
0.0484329
0.0502528
0.0520294
0.0537598
0.0554412
0.0570708
0.0586458
0.0601639
0.0616228
0.0630205
0.0643552
0.0656256
0.0668303
0.0679687
0.0690402
0.0700445
0.070982
0.0718532
0.0726593
0.0734013
0.074081
0.0747002
0.0752614
0.0757669
0.0762196
0.0766224
0.0769789
0.0772922
0.0775666
0.0778058
0.0780143
0.0781956
0.0783545
0.0784945
0.0786203
0.0787351
0.0788431
0.0789471
0.079051
0.0791573
0.0792695
0.0793898
0.0795214
0.0796662
0.0798272
0.0800058
0.0802048
0.0804252
0.0806697
0.080939
0.0812354
0.0815593
0.0819129
0.0822963
0.0827115
0.0831584
0.0836387
0.0841521
0.0847003
0.0852827
0.0859007
0.0865538
0.0872432
0.0879682
0.0887299
0.0895275
0.0903622
0.0912329
0.0921407
0.0930847
0.0940656
0.0950826
0.0961365
0.0972264
0.098353
0.0995152
0.100714
0.101948
0.103219
0.104525
0.105867
0.107244
0.108658
0.110106
0.11159
0.113109
0.114663
0.116252
0.117878
0.119537
0.121233
0.122962
0.124732
0.126551
0.128373
0.129997
0.131629
-0.0106039
0.00239368
0.00300858
0.00570444
0.00807553
0.0104097
0.0127023
0.0149564
0.0171782
0.0193719
0.0215405
0.0236858
0.0258085
0.0279085
0.0299858
0.0320406
0.0340728
0.0360815
0.0380654
0.0400226
0.0419508
0.0438477
0.0457106
0.0475366
0.0493228
0.0510662
0.0527638
0.0544128
0.0560104
0.0575538
0.0590405
0.0604682
0.0618349
0.0631388
0.0643784
0.0655525
0.0666602
0.067701
0.0686745
0.0695811
0.0704212
0.0711959
0.0719062
0.0725541
0.073141
0.0736697
0.0741422
0.0745616
0.0749308
0.0752533
0.0755322
0.0757718
0.075976
0.0761493
0.0762958
0.07642
0.0765259
0.076618
0.0766997
0.0767749
0.0768469
0.0769191
0.0769946
0.0770764
0.0771673
0.07727
0.0773869
0.0775205
0.0776729
0.0778462
0.0780423
0.078263
0.0785098
0.0787843
0.0790879
0.0794216
0.0797869
0.0801844
0.0806152
0.08108
0.0815796
0.0821145
0.0826853
0.0832923
0.0839362
0.0846168
0.0853348
0.08609
0.0868829
0.0877133
0.0885815
0.0894872
0.0904307
0.0914117
0.0924305
0.0934865
0.0945802
0.0957109
0.096879
0.0980839
0.0993261
0.100605
0.10192
0.103272
0.104661
0.106085
0.107547
0.109044
0.110577
0.112146
0.113752
0.115393
0.11707
0.118783
0.120531
0.12232
0.12416
0.126002
0.127641
0.129283
-0.0105822
0.00244309
0.00292634
0.00560361
0.00791862
0.0102063
0.0124518
0.0146595
0.0168357
0.0189844
0.0211086
0.0232103
0.0252901
0.0273478
0.0293834
0.031397
0.0333885
0.0353573
0.0373018
0.0392203
0.0411105
0.04297
0.0447959
0.0465856
0.0483359
0.050044
0.0517067
0.0533212
0.0548847
0.0563943
0.0578475
0.0592419
0.0605755
0.0618465
0.0630532
0.0641944
0.0652691
0.0662768
0.0672173
0.0680905
0.0688971
0.0696378
0.0703141
0.0709273
0.0714795
0.0719727
0.0724096
0.0727927
0.0731254
0.0734107
0.0736522
0.0738536
0.0740197
0.0741545
0.0742631
0.0743495
0.0744184
0.0744735
0.0745191
0.0745584
0.0745953
0.0746328
0.0746745
0.0747228
0.0747813
0.074852
0.0749382
0.0750415
0.0751649
0.0753098
0.0754789
0.0756731
0.075895
0.0761452
0.076426
0.0767377
0.0770824
0.0774602
0.0778729
0.0783204
0.0788043
0.0793243
0.0798819
0.0804765
0.0811096
0.0817803
0.08249
0.0832379
0.084025
0.0848505
0.0857153
0.0866185
0.0875611
0.0885421
0.0895622
0.0906206
0.0917179
0.0928532
0.0940272
0.0952389
0.0964891
0.0977765
0.0991024
0.100465
0.101866
0.103303
0.104779
0.10629
0.10784
0.109426
0.111049
0.112708
0.114405
0.116138
0.117907
0.119717
0.12158
0.123445
0.125102
0.126754
-0.0105542
0.00248853
0.00283924
0.00549599
0.00775202
0.00999087
0.0121867
0.0143455
0.0164735
0.0185745
0.0206519
0.0227073
0.0247417
0.0267546
0.0287461
0.0307162
0.0326649
0.0345915
0.0364946
0.0383722
0.0402222
0.0420421
0.043829
0.0455802
0.0472926
0.0489632
0.0505889
0.0521669
0.053694
0.0551677
0.0565852
0.0579442
0.0592426
0.0604783
0.0616498
0.0627559
0.0637954
0.0647677
0.0656727
0.0665101
0.0672807
0.0679849
0.0686244
0.0692004
0.0697149
0.0701699
0.0705681
0.070912
0.071205
0.0714499
0.0716506
0.0718107
0.0719351
0.0720284
0.0720957
0.0721412
0.0721696
0.0721847
0.0721907
0.0721909
0.0721893
0.0721889
0.0721932
0.0722051
0.0722277
0.0722636
0.0723155
0.0723857
0.0724767
0.0725905
0.0727292
0.0728945
0.0730881
0.0733117
0.0735666
0.0738541
0.0741754
0.0745315
0.0749233
0.0753517
0.0758174
0.076321
0.076863
0.077444
0.0780641
0.078724
0.0794235
0.0801631
0.0809428
0.0817628
0.0826228
0.0835233
0.0844638
0.0854446
0.0864652
0.087526
0.0886264
0.0897667
0.0909462
0.0921654
0.0934234
0.0947208
0.0960567
0.0974317
0.0988449
0.100297
0.101787
0.103315
0.104881
0.106485
0.108127
0.109807
0.111524
0.113279
0.115071
0.116905
0.118793
0.120684
0.122359
0.124025
-0.01052
0.00252978
0.00274728
0.00538154
0.0075757
0.00976342
0.011907
0.0140144
0.0160916
0.0181425
0.0201704
0.0221771
0.0241635
0.0261292
0.0280742
0.0299986
0.0319023
0.0337846
0.035644
0.0374787
0.0392863
0.0410645
0.0428103
0.0445209
0.0461932
0.0478242
0.0494108
0.05095
0.0524388
0.0538744
0.0552541
0.0565754
0.0578362
0.0590345
0.0601686
0.0612371
0.062239
0.0631736
0.0640405
0.0648397
0.0655714
0.0662369
0.0668366
0.0673727
0.0678465
0.0682606
0.0686168
0.0689186
0.0691683
0.0693698
0.0695259
0.0696414
0.0697205
0.0697692
0.0697916
0.0697931
0.0697772
0.0697491
0.0697116
0.0696695
0.0696255
0.0695839
0.0695471
0.0695192
0.0695022
0.0694998
0.0695139
0.0695477
0.0696029
0.0696823
0.0697872
0.0699204
0.0700827
0.0702766
0.0705026
0.070763
0.071058
0.0713897
0.071758
0.0721648
0.0726098
0.0730946
0.0736189
0.074184
0.0747894
0.0754363
0.076124
0.0768537
0.0776246
0.0784376
0.0792918
0.0801882
0.0811258
0.0821055
0.0831261
0.0841886
0.0852918
0.0864366
0.0876217
0.0888481
0.0901144
0.0914218
0.0927685
0.094156
0.0955826
0.0970495
0.0985552
0.100101
0.101685
0.103309
0.104971
0.106673
0.108413
0.110192
0.112008
0.113868
0.115784
0.117703
0.119399
0.121079
-0.0104793
0.00256667
0.0026505
0.00526026
0.00738975
0.00952409
0.0116128
0.0136664
0.0156903
0.0176886
0.0196645
0.02162
0.0235559
0.025472
0.0273682
0.0292447
0.0311012
0.032937
0.0347506
0.0365402
0.0383034
0.0400377
0.0417403
0.0434081
0.0450383
0.0466276
0.0481729
0.0496711
0.0511194
0.0525147
0.0538543
0.0551357
0.0563567
0.0575152
0.0586096
0.0596382
0.0606001
0.0614944
0.0623207
0.0630789
0.0637695
0.064393
0.0649505
0.0654435
0.0658739
0.0662436
0.0665551
0.066811
0.0670145
0.0671685
0.067277
0.0673439
0.0673748
0.0673747
0.0673492
0.0673024
0.0672393
0.0671635
0.0670794
0.0669906
0.066901
0.0668137
0.0667326
0.0666604
0.0666006
0.0665556
0.0665286
0.0665217
0.0665378
0.0665787
0.0666468
0.0667437
0.0668717
0.0670318
0.0672262
0.0674555
0.0677217
0.0680252
0.0683676
0.0687492
0.0691714
0.0696341
0.0701387
0.0706848
0.0712737
0.0719048
0.0725793
0.0732964
0.0740572
0.0748609
0.0757083
0.0765986
0.0775326
0.0785093
0.0795296
0.0805922
0.0816981
0.0828461
0.0840371
0.0852696
0.0865448
0.0878612
0.0892198
0.0906191
0.0920603
0.0935418
0.0950648
0.0966278
0.098232
0.0998758
0.101561
0.103285
0.10505
0.106853
0.108697
0.110584
0.11253
0.114479
0.116198
0.117893
-0.0104322
0.00259904
0.00254892
0.00513214
0.00719418
0.00927293
0.0113044
0.0133016
0.0152699
0.0172131
0.0191346
0.0210363
0.0229192
0.0247833
0.0266285
0.0284548
0.030262
0.0320492
0.0338149
0.0355573
0.0372739
0.0389622
0.0406194
0.0422424
0.0438282
0.0453736
0.0468755
0.0483306
0.0497361
0.0510889
0.0523862
0.0536255
0.0548043
0.0559208
0.0569729
0.0579592
0.0588786
0.0597301
0.0605132
0.0612278
0.0618743
0.0624531
0.0629655
0.0634125
0.0637962
0.0641184
0.0643817
0.0645885
0.0647421
0.0648453
0.0649022
0.0649171
0.0648958
0.0648436
0.064766
0.0646675
0.0645527
0.0644257
0.0642906
0.0641513
0.0640116
0.063875
0.063745
0.0636248
0.0635176
0.0634263
0.0633537
0.0633024
0.0632749
0.0632735
0.0633004
0.0633576
0.0634468
0.0635699
0.0637283
0.0639234
0.0641566
0.0644289
0.0647414
0.0650951
0.0654905
0.0659286
0.0664098
0.0669347
0.0675036
0.068117
0.0687749
0.0694778
0.0702256
0.0710185
0.0718564
0.0727395
0.0736674
0.0746404
0.0756579
0.0767203
0.077827
0.0789781
0.0801731
0.0814122
0.0826946
0.0840208
0.0853898
0.0868021
0.0882568
0.0897545
0.091294
0.0928762
0.0944998
0.0961657
0.0978728
0.0996218
0.101412
0.103243
0.105114
0.107032
0.109008
0.11099
0.112733
0.114445
-0.0103784
0.00262675
0.00244264
0.00499718
0.00698909
0.00901008
0.0109818
0.0129204
0.0148305
0.0167162
0.0185808
0.0204264
0.022254
0.0240638
0.0258557
0.0276296
0.0293853
0.0311218
0.0328375
0.0345305
0.0361984
0.0378386
0.0394482
0.0410242
0.0425635
0.0440629
0.0455191
0.046929
0.0482894
0.0495974
0.0508502
0.0520449
0.0531794
0.0542513
0.0552588
0.0562003
0.0570746
0.0578806
0.0586179
0.0592861
0.0598856
0.060417
0.060881
0.0612791
0.0616128
0.0618844
0.0620959
0.0622502
0.06235
0.0623987
0.0624001
0.0623595
0.062282
0.0621739
0.0620401
0.0618858
0.0617151
0.0615326
0.0613422
0.0611482
0.0609539
0.0607636
0.0605802
0.0604075
0.0602483
0.0601062
0.0599834
0.0598832
0.0598077
0.0597597
0.0597409
0.0597539
0.0598001
0.0598818
0.06
0.0601568
0.0603529
0.0605901
0.0608688
0.0611906
0.0615557
0.0619655
0.0624199
0.0629201
0.0634658
0.0640582
0.0646967
0.0653824
0.0661144
0.0668939
0.0677198
0.0685932
0.069513
0.0704801
0.0714933
0.0725535
0.0736595
0.0748121
0.0760101
0.0772543
0.0785433
0.0798782
0.0812573
0.0826818
0.08415
0.0856633
0.0872197
0.0888208
0.0904645
0.0921525
0.0938827
0.0956569
0.0974732
0.0993325
0.101233
0.103182
0.105191
0.107207
0.108976
0.110705
-0.010318
0.00264967
0.00233168
0.00485541
0.0067745
0.00873561
0.0106452
0.0125227
0.0143723
0.0161982
0.0180036
0.0197907
0.0215606
0.0233138
0.0250502
0.0267696
0.0284717
0.0301553
0.0318189
0.0334604
0.0350774
0.0366674
0.0382273
0.0397542
0.0412448
0.0426959
0.0441043
0.0454666
0.0467798
0.0480408
0.0492466
0.0503945
0.0514821
0.0525071
0.0534675
0.0543616
0.0551882
0.0559461
0.0566347
0.0572538
0.0578035
0.0582842
0.0586969
0.0590427
0.0593233
0.0595407
0.059697
0.059795
0.0598373
0.0598276
0.0597697
0.0596693
0.0595319
0.0593636
0.0591695
0.0589548
0.0587239
0.0584814
0.0582311
0.0579775
0.0577242
0.0574751
0.0572336
0.0570035
0.0567877
0.0565896
0.056412
0.0562578
0.0561295
0.0560297
0.0559606
0.0559244
0.0559231
0.0559584
0.056032
0.0561455
0.0563002
0.0564974
0.0567382
0.0570236
0.0573544
0.0577314
0.0581553
0.0586265
0.0591457
0.059713
0.0603289
0.0609934
0.0617069
0.0624693
0.0632808
0.0641412
0.0650506
0.0660087
0.0670156
0.0680708
0.0691746
0.0703262
0.071526
0.0727731
0.074068
0.0754096
0.0767984
0.0782334
0.0797151
0.0812425
0.0828162
0.0844349
0.0860995
0.0878087
0.0895634
0.0913623
0.0932062
0.0950936
0.0970247
0.099005
0.10105
0.1031
0.104896
0.106643
-0.0102509
0.00266767
0.00221617
0.00470685
0.00655054
0.00844969
0.0102948
0.012109
0.0138958
0.0156594
0.0174033
0.0191296
0.0208396
0.0225339
0.0242127
0.0258756
0.0275219
0.0291505
0.0307598
0.0323477
0.0339117
0.0354493
0.0369574
0.0384329
0.0398727
0.0412733
0.0426316
0.0439442
0.0452078
0.0464195
0.047576
0.0486747
0.0497129
0.0506885
0.0515992
0.0524434
0.0532196
0.0539266
0.0545638
0.0551308
0.0556276
0.0560546
0.0564128
0.056703
0.056927
0.0570866
0.0571842
0.057222
0.0572032
0.0571308
0.0570098
0.0568453
0.0566438
0.0564108
0.056152
0.0558723
0.0555766
0.055269
0.0549541
0.0546358
0.0543184
0.0540054
0.0537008
0.0534079
0.0531303
0.0528709
0.0526332
0.0524196
0.0522332
0.0520763
0.0519516
0.0518608
0.0518066
0.0517902
0.0518141
0.0518791
0.0519873
0.0521395
0.0523374
0.0525814
0.0528732
0.0532127
0.0536014
0.0540392
0.0545273
0.0550653
0.0556544
0.0562939
0.0569849
0.0577265
0.0585199
0.0593639
0.0602594
0.0612055
0.062203
0.0632506
0.0643493
0.0654976
0.0666966
0.0679448
0.069243
0.0705898
0.0719863
0.0734307
0.0749242
0.076465
0.0780544
0.0796906
0.0813748
0.0831053
0.0848834
0.0867074
0.0885785
0.0904945
0.0924563
0.0944691
0.0965487
0.0986347
0.100459
0.102224
-0.0101771
0.00268064
0.00209616
0.00455154
0.00631728
0.00815242
0.00993069
0.0116793
0.013401
0.0151002
0.0167803
0.0184435
0.0200914
0.0217249
0.0233439
0.024948
0.0265365
0.028108
0.0296609
0.031193
0.032702
0.034185
0.0356391
0.0370611
0.0384478
0.0397958
0.0411017
0.0423622
0.043574
0.0447339
0.0458388
0.0468858
0.0478723
0.0487959
0.0496543
0.0504459
0.051169
0.0518224
0.0524052
0.052917
0.0533579
0.0537281
0.0540284
0.0542597
0.0544236
0.0545218
0.0545568
0.0545306
0.0544464
0.0543075
0.0541189
0.0538862
0.0536161
0.0533139
0.0529855
0.052636
0.0522703
0.0518927
0.0515079
0.0511197
0.0507327
0.0503504
0.049977
0.0496158
0.0492705
0.0489443
0.0486405
0.0483619
0.0481115
0.0478918
0.0477054
0.0475545
0.0474413
0.0473677
0.0473357
0.0473468
0.0474026
0.0475044
0.0476535
0.047851
0.0480979
0.0483949
0.0487429
0.0491425
0.0495941
0.0500983
0.0506553
0.0512656
0.051929
0.052646
0.0534164
0.0542404
0.0551177
0.0560485
0.0570323
0.0580693
0.059159
0.0603014
0.061496
0.0627429
0.0640413
0.0653914
0.0667925
0.0682448
0.0697473
0.0713005
0.0729032
0.0745561
0.0762579
0.0780093
0.0798091
0.0816581
0.083555
0.0855
0.0874915
0.089537
0.0916512
0.093774
0.0956253
0.0974092
-0.0100966
0.00268849
0.00197178
0.00438953
0.00607486
0.00784399
0.00955316
0.011234
0.0128883