/*--------------------------------*- C++ -*----------------------------------*\
  =========                 |
  \\      /  F ield         | OpenFOAM: The Open Source CFD Toolbox
   \\    /   O peration     | Website:  https://openfoam.org
    \\  /    A nd           | Version:  8
     \\/     M anipulation  |
\*---------------------------------------------------------------------------*/
FoamFile
{
    version     2.0;
    format      ascii;
    class       volScalarField;
    location    "0.1382";
    object      alphat;
}
// * * * * * * * * * * * * * * * * * * * * * * * * * * * * * * * * * * * * * //

dimensions      [1 -1 -1 0 0 0 0];

internalField   nonuniform List<scalar> 
119000
(
0.00150441
0.000200155
4.22026e-05
1.11907e-05
4.08895e-06
1.89735e-06
1.04035e-06
6.58368e-07
8.74112e-07
1.4028e-06
1.78953e-06
1.85169e-06
1.65138e-06
1.43541e-06
1.32018e-06
1.26389e-06
1.28713e-06
1.46056e-06
1.32843e-06
1.07629e-06
8.48105e-07
6.82974e-07
5.86251e-07
5.5333e-07
5.50564e-07
5.55256e-07
5.61021e-07
5.6683e-07
5.72833e-07
5.79179e-07
5.86061e-07
5.93589e-07
6.00963e-07
6.07359e-07
6.12936e-07
6.17936e-07
6.22444e-07
6.26457e-07
6.29927e-07
6.32939e-07
6.35753e-07
6.39138e-07
6.42286e-07
6.45075e-07
6.47066e-07
6.452e-07
6.39627e-07
6.32322e-07
6.24348e-07
6.16216e-07
6.08402e-07
6.0088e-07
5.93958e-07
5.87553e-07
5.81294e-07
5.75157e-07
5.69226e-07
5.63519e-07
5.58092e-07
5.52906e-07
5.47895e-07
5.42819e-07
5.37502e-07
5.31909e-07
5.26127e-07
5.20195e-07
5.14145e-07
5.07936e-07
5.0154e-07
4.94907e-07
4.88023e-07
4.80865e-07
4.7344e-07
4.65709e-07
4.57445e-07
4.47728e-07
4.37089e-07
4.26197e-07
4.1567e-07
4.06224e-07
3.98487e-07
3.95723e-07
3.85094e-07
3.8233e-07
4.2292e-07
4.26449e-07
3.90438e-07
3.51039e-07
3.27561e-07
3.15235e-07
3.05056e-07
2.94739e-07
2.84655e-07
2.74216e-07
2.63301e-07
2.37203e-07
1.76635e-07
1.33934e-07
1.7714e-07
3.18932e-07
0.00420991
0.00107678
0.000556532
0.000364451
0.000263997
0.000200894
0.000157155
0.000125255
0.000101338
8.3971e-05
7.96211e-05
8.75316e-05
9.51015e-05
9.57955e-05
9.56473e-05
9.64125e-05
9.81487e-05
0.000100652
0.000103329
0.000105912
0.000108273
0.000110276
0.000111992
0.000113508
0.000114898
0.00011617
0.00011731
0.000118373
0.000119424
0.000120499
0.000121624
0.000122816
0.00012397
0.000124978
0.000125865
0.000126663
0.000127384
0.000128033
0.000128604
0.000129109
0.000129559
0.000129951
0.000130293
0.000130598
0.000130834
0.000130692
0.000130143
0.000129407
0.000128593
0.000127752
0.000126937
0.000126144
0.000125364
0.000124585
0.000123813
0.000123047
0.0001223
0.000121574
0.000120879
0.000120209
0.00011956
0.000118896
0.000118194
0.000117444
0.00011666
0.000115845
0.000115004
0.00011413
0.000113218
0.000112259
0.000111251
0.000110187
0.000109066
0.000107883
0.000106608
0.000105076
0.000103354
0.000101531
9.96772e-05
9.78464e-05
9.60805e-05
9.44141e-05
9.28329e-05
9.14074e-05
9.01925e-05
8.90674e-05
8.79911e-05
8.69945e-05
8.6144e-05
8.54788e-05
8.49603e-05
8.46027e-05
8.45211e-05
8.45014e-05
8.39748e-05
8.10192e-05
6.90925e-05
5.34815e-05
5.98616e-05
7.48745e-05
0.00658765
0.00206619
0.00113688
0.000769705
0.000582296
0.000469367
0.000393532
0.000338636
0.000296605
0.00026336
0.000237387
0.000219318
0.000212177
0.000207828
0.000204676
0.000202961
0.000202368
0.000202655
0.00020353
0.000204584
0.000205416
0.000205597
0.000205246
0.000204589
0.000203814
0.000202929
0.000201957
0.000201011
0.000200195
0.000199564
0.000199146
0.000198949
0.000198782
0.000198486
0.000198121
0.000197726
0.000197311
0.000196876
0.000196416
0.00019594
0.000195455
0.000194961
0.00019447
0.000193994
0.000193524
0.000192662
0.00019143
0.000190025
0.000188556
0.000187083
0.000185658
0.000184288
0.000182959
0.000181654
0.000180375
0.000179126
0.000177918
0.000176757
0.00017565
0.000174593
0.000173574
0.00017255
0.000171484
0.00017037
0.000169221
0.000168043
0.000166838
0.0001656
0.000164318
0.000162983
0.000161589
0.000160129
0.000158603
0.000157004
0.000155303
0.000153381
0.000151254
0.000149008
0.000146729
0.000144485
0.000142334
0.00014032
0.000138474
0.00013684
0.000135411
0.000134241
0.000133323
0.000132656
0.000132278
0.000132246
0.000132521
0.000133178
0.000134061
0.000134783
0.000135333
0.000134992
0.00013143
0.000122766
0.000122292
0.00014317
0.00869093
0.00316839
0.00178955
0.00122493
0.000933707
0.000757948
0.000640384
0.00055591
0.000491954
0.000441687
0.000401306
0.000368642
0.000342639
0.000321752
0.000308322
0.000300092
0.000294696
0.000291167
0.000288781
0.000286792
0.000284615
0.000281585
0.000278089
0.000274463
0.000270927
0.000267388
0.000263882
0.000260602
0.000257664
0.000255119
0.000252981
0.000251241
0.00024955
0.000247705
0.000245877
0.000244105
0.000242384
0.000240707
0.000239068
0.000237475
0.000235931
0.000234438
0.000233008
0.000231653
0.00023038
0.000229039
0.000227578
0.00022605
0.000224521
0.000223045
0.000221669
0.000220403
0.000219224
0.000218119
0.000217095
0.000216164
0.000215343
0.000214645
0.000214079
0.000213647
0.000213337
0.00021309
0.000212858
0.000212654
0.000212502
0.000212415
0.000212397
0.000212442
0.00021254
0.000212682
0.000212859
0.000213062
0.000213281
0.0002135
0.000213662
0.000213553
0.000213162
0.000212569
0.000211838
0.00021102
0.000210154
0.000209268
0.000208381
0.000207504
0.000206624
0.000205751
0.000204856
0.0002039
0.000202889
0.000201856
0.000200829
0.00019989
0.000199155
0.00019856
0.000198074
0.000197361
0.000195236
0.000190511
0.000190158
0.000203394
0.0105519
0.00429922
0.00248649
0.00171908
0.00131641
0.00107136
0.000906645
0.000787972
0.000698053
0.000627319
0.000570207
0.000523199
0.000483957
0.000450657
0.000422858
0.000400298
0.000384938
0.000374485
0.000366781
0.000360119
0.000353569
0.000346083
0.000338567
0.000331378
0.000324702
0.000318183
0.000311894
0.00030614
0.000301017
0.000296537
0.000292676
0.000289401
0.000286529
0.00028387
0.000281386
0.000279057
0.000276852
0.000274759
0.00027278
0.000270929
0.000269206
0.000267618
0.000266183
0.000264917
0.000263829
0.000262842
0.000261908
0.000261036
0.000260262
0.000259627
0.000259164
0.000258875
0.000258703
0.000258631
0.000258667
0.000258817
0.00025909
0.000259489
0.00026001
0.000260641
0.000261346
0.000262019
0.000262569
0.000263039
0.00026346
0.000263852
0.000264216
0.000264553
0.000264863
0.00026515
0.000265418
0.000265672
0.000265915
0.000266143
0.000266316
0.000266031
0.000265377
0.000264491
0.000263449
0.000262307
0.000261108
0.000259881
0.000258642
0.000257398
0.000256144
0.000254871
0.000253529
0.000252061
0.000250472
0.000248785
0.000247023
0.000245231
0.000243519
0.000241944
0.000240546
0.000239182
0.000237323
0.00023488
0.000235982
0.000245426
0.0121963
0.00541312
0.0032083
0.00224177
0.00172365
0.00140546
0.0011902
0.00103438
0.000915887
0.000822357
0.000746524
0.000683708
0.000630703
0.000585216
0.000545849
0.000511634
0.000482814
0.00045987
0.000443321
0.000429533
0.000416837
0.00040336
0.000390954
0.000379665
0.000369539
0.000360445
0.000352253
0.000344975
0.00033861
0.000333111
0.000328417
0.00032446
0.000321088
0.000318115
0.000315434
0.000312987
0.000310711
0.000308596
0.000306652
0.000304899
0.000303321
0.000301925
0.00030073
0.000299749
0.000298984
0.000298357
0.000297827
0.000297395
0.000297088
0.000296936
0.000296961
0.000297153
0.000297398
0.000297695
0.00029807
0.00029854
0.000299115
0.000299798
0.000300583
0.000301454
0.000302372
0.000303161
0.000303678
0.000304057
0.000304349
0.000304573
0.00030473
0.000304819
0.000304853
0.000304839
0.000304795
0.000304732
0.000304664
0.000304597
0.000304514
0.000304217
0.000303674
0.000302945
0.000302092
0.000301167
0.000300208
0.000299244
0.000298283
0.000297323
0.000296358
0.000295369
0.000294271
0.000292964
0.000291471
0.000289798
0.000287946
0.000285914
0.000283752
0.00028153
0.000279342
0.000277187
0.000274812
0.000272486
0.000273587
0.000280858
0.0136456
0.00648453
0.00394159
0.00278489
0.00214973
0.00175604
0.00148792
0.00129285
0.00114388
0.00102583
0.000929749
0.000849812
0.000782022
0.000723599
0.000672591
0.000627535
0.00058794
0.000553526
0.000523812
0.000498386
0.000476769
0.000457905
0.000441331
0.000426574
0.000413629
0.000402411
0.000392628
0.000384142
0.000376857
0.000370654
0.000365418
0.000361037
0.000357322
0.000354057
0.000351114
0.000348423
0.000345892
0.000343528
0.000341364
0.000339428
0.000337669
0.00033611
0.000334773
0.000333673
0.000332805
0.000332054
0.000331393
0.000330852
0.00033046
0.000330244
0.000330228
0.0003304
0.000330527
0.000330671
0.000330894
0.000331221
0.000331667
0.000332235
0.000332917
0.000333688
0.000334517
0.000335327
0.000336034
0.00033665
0.000337199
0.000337685
0.000338089
0.000338406
0.000338652
0.000338843
0.000338998
0.000339132
0.000339259
0.000339386
0.000339495
0.000339424
0.000339134
0.00033867
0.000338076
0.000337396
0.000336661
0.000335893
0.000335095
0.000334254
0.000333368
0.000332426
0.000331301
0.000329837
0.000328132
0.000326206
0.000324051
0.000321647
0.000318988
0.000316106
0.000313103
0.000310058
0.000306867
0.000303772
0.000303896
0.000309538
0.0149182
0.00750888
0.00467738
0.00334138
0.00259014
0.00211963
0.00179703
0.00156112
0.00138019
0.00123626
0.00111869
0.00102052
0.000936977
0.000864795
0.00080156
0.000745369
0.000695427
0.00065153
0.000613035
0.000579346
0.000549865
0.000523837
0.000500824
0.000480679
0.000463668
0.000449501
0.00043746
0.000427266
0.000418679
0.000411453
0.00040539
0.000400307
0.000395919
0.000391948
0.000388279
0.000384863
0.000381572
0.000378467
0.000375613
0.000373051
0.000370663
0.000368508
0.000366619
0.000365004
0.000363663
0.000362382
0.000361178
0.000360135
0.000359292
0.000358669
0.000358289
0.000358161
0.000358184
0.000358334
0.000358612
0.000359034
0.000359609
0.000360337
0.000361204
0.00036217
0.000363198
0.000364249
0.000365272
0.000366246
0.000367167
0.00036802
0.000368744
0.000369328
0.000369797
0.000370173
0.000370477
0.000370728
0.000370942
0.000371131
0.000371282
0.000371159
0.000370791
0.000370248
0.000369578
0.00036882
0.000368003
0.000367146
0.000366251
0.000365286
0.000364259
0.000363181
0.000362
0.000360621
0.000359029
0.000357214
0.000355155
0.000352809
0.000350115
0.000347035
0.00034365
0.000340055
0.000336237
0.000332344
0.000330912
0.000334822
0.0160301
0.00848458
0.00540894
0.00390572
0.00304127
0.00249335
0.00211516
0.00183722
0.00162314
0.00145221
0.0013121
0.00119475
0.00109457
0.00100785
0.000931724
0.000864912
0.0008061
0.000754378
0.000708841
0.000668693
0.000633213
0.00060168
0.000573555
0.000548476
0.000526317
0.000506955
0.000490384
0.000476782
0.000465636
0.000456424
0.000448759
0.000442321
0.000436628
0.000431297
0.000426273
0.000421561
0.000416947
0.000412608
0.000408641
0.000405093
0.000401696
0.000398613
0.00039587
0.000393465
0.000391395
0.000389557
0.000387924
0.000386525
0.000385389
0.000384521
0.000383936
0.000383652
0.000383628
0.000383815
0.000384174
0.00038471
0.00038543
0.000386328
0.000387381
0.000388521
0.000389702
0.000390909
0.000392112
0.000393283
0.000394403
0.000395448
0.000396292
0.000396923
0.000397401
0.000397752
0.000398002
0.000398174
0.00039829
0.000398368
0.000398411
0.000398296
0.000398001
0.000397557
0.000397003
0.00039637
0.000395682
0.000394952
0.000394174
0.000393276
0.00039229
0.000391234
0.000390094
0.000388811
0.000387338
0.000385642
0.00038369
0.00038143
0.000378755
0.000375547
0.000371889
0.000367861
0.00036349
0.000358853
0.000355756
0.000357869
0.0169939
0.00941035
0.00613118
0.00447335
0.00350022
0.00287481
0.00244033
0.00211944
0.00187126
0.00167235
0.00150882
0.00137142
0.00125381
0.00115248
0.00106457
0.00098794
0.000920827
0.000861872
0.00080991
0.000763961
0.000723174
0.000686784
0.000654171
0.000624862
0.000598528
0.000574918
0.000553862
0.000535347
0.000519462
0.000506466
0.000495871
0.000487085
0.000479204
0.000471682
0.0004646
0.000458037
0.000451556
0.000445573
0.000440176
0.000435392
0.000431091
0.00042726
0.000423839
0.000420801
0.000418137
0.000415785
0.00041372
0.00041196
0.000410522
0.000409384
0.000408556
0.000408059
0.000407884
0.000407985
0.000408266
0.000408753
0.00040945
0.000410352
0.00041143
0.000412564
0.000413705
0.000414874
0.000416056
0.000417219
0.000418339
0.000419399
0.000420336
0.000421121
0.000421753
0.00042224
0.000422604
0.000422871
0.000423062
0.000423197
0.000423281
0.000423219
0.000422994
0.000422635
0.000422172
0.000421631
0.00042103
0.000420373
0.000419659
0.000418737
0.000417695
0.00041657
0.000415365
0.000414045
0.000412556
0.000410863
0.000408929
0.000406704
0.000404101
0.00040101
0.000397405
0.000393304
0.000388716
0.000383671
0.000379284
0.000379708
0.0178347
0.0102863
0.00684027
0.00504044
0.0039646
0.00326193
0.00277082
0.00240631
0.00212324
0.00189553
0.00170777
0.00154956
0.00141511
0.00130007
0.00120086
0.00111471
0.00103947
0.00097343
0.000915193
0.000863602
0.000817681
0.000776588
0.000739632
0.000706263
0.000676044
0.000648626
0.000623747
0.000601204
0.000580937
0.000563034
0.000547613
0.000534955
0.000523614
0.000512812
0.000502892
0.000493946
0.000485725
0.000478278
0.000471642
0.000465797
0.000460649
0.000456103
0.000452001
0.000448298
0.000444991
0.000442027
0.000439399
0.000437137
0.000435253
0.000433686
0.00043245
0.000431568
0.000431048
0.000430869
0.000430838
0.000431053
0.000431518
0.000432225
0.000433145
0.000434207
0.000435355
0.00043657
0.000437822
0.000439067
0.000440277
0.000441433
0.0004425
0.000443446
0.00044424
0.00044486
0.000445331
0.000445678
0.000445926
0.000446094
0.00044619
0.00044608
0.000445794
0.000445378
0.000444864
0.000444277
0.00044363
0.000442918
0.000442153
0.000441275
0.000440297
0.000439238
0.000438104
0.000436872
0.000435469
0.00043387
0.000432044
0.00042994
0.000427478
0.000424558
0.000421106
0.000417085
0.000412449
0.000407199
0.000401983
0.000400721
0.0185763
0.0111136
0.00753335
0.00560441
0.00443154
0.00365292
0.00310513
0.00269652
0.00237791
0.00212066
0.00190796
0.00172975
0.00157916
0.00145082
0.00134048
0.00124489
0.0011615
0.00108833
0.00102376
0.000966473
0.000915366
0.00086951
0.000828141
0.000790653
0.000756536
0.000725361
0.000696826
0.000670598
0.00064655
0.000624594
0.000604567
0.000586817
0.000570882
0.000556359
0.000543363
0.000531902
0.000521685
0.000512596
0.000504602
0.000497603
0.00049148
0.000486067
0.000481079
0.000476498
0.000472344
0.000468547
0.000465134
0.000462159
0.000459636
0.000457424
0.000455569
0.000454102
0.000453041
0.000452386
0.000452043
0.000452012
0.000452277
0.000452826
0.000453621
0.000454607
0.000455736
0.000456971
0.00045827
0.000459562
0.000460817
0.00046202
0.000463146
0.000464166
0.000465024
0.000465661
0.000466126
0.000466448
0.000466652
0.00046676
0.000466784
0.000466657
0.000466381
0.000465985
0.0004655
0.000464946
0.00046433
0.000463627
0.000462857
0.00046201
0.000461085
0.000460085
0.000459012
0.00045785
0.000456491
0.000454935
0.00045317
0.000451148
0.000448789
0.00044601
0.000442723
0.000438853
0.000434341
0.000429162
0.000423635
0.000421076
0.0192355
0.0118941
0.00820828
0.00616299
0.00489864
0.00404621
0.00344191
0.0029889
0.00263422
0.00234676
0.00210984
0.0019123
0.00174591
0.00160442
0.00148299
0.00137789
0.00128625
0.00120582
0.00113478
0.00107165
0.00101521
0.000964442
0.000918504
0.000876745
0.000838597
0.000803557
0.000771319
0.00074143
0.000713757
0.000688289
0.000664865
0.000643544
0.000624119
0.00060631
0.000590044
0.000575312
0.000562088
0.000550482
0.000540482
0.000531822
0.000524303
0.000517638
0.000511346
0.000505516
0.000500208
0.000495285
0.000490826
0.00048692
0.000483563
0.000480672
0.000478224
0.000476203
0.000474623
0.000473498
0.000472774
0.000472424
0.000472428
0.000472758
0.00047336
0.000474178
0.00047518
0.000476325
0.000477565
0.000478782
0.000479959
0.00048109
0.000482153
0.000483127
0.000483979
0.000484665
0.000485179
0.00048554
0.000485771
0.000485892
0.000485911
0.000485776
0.000485499
0.000485107
0.000484627
0.000484079
0.000483466
0.00048272
0.000481888
0.000480991
0.000480033
0.000479008
0.000477916
0.000476752
0.000475462
0.000474014
0.000472385
0.000470524
0.000468337
0.000465764
0.000462713
0.000459091
0.000454817
0.000449851
0.000444335
0.000440901
0.0198248
0.0126297
0.00886351
0.00671422
0.00536381
0.00444044
0.00377996
0.00328236
0.00289116
0.00257386
0.00231348
0.00209698
0.00191496
0.00176035
0.00162777
0.00151307
0.00141304
0.00132519
0.00124751
0.00117836
0.00111641
0.00106054
0.00100984
0.000963622
0.000921267
0.000882188
0.000846113
0.000812794
0.000782003
0.000753591
0.000727367
0.000703238
0.000681042
0.000660569
0.000641672
0.000624272
0.000608296
0.000593748
0.000580759
0.000569412
0.000559665
0.000551073
0.000542812
0.000535232
0.000528401
0.00052225
0.000516778
0.000511997
0.000507839
0.000504234
0.000501137
0.000498491
0.000496316
0.000494639
0.000493419
0.000492606
0.000492202
0.000492181
0.000492454
0.000492953
0.000493675
0.000494582
0.000495626
0.00049673
0.000497843
0.000498932
0.000499964
0.000500919
0.000501773
0.000502489
0.000503031
0.00050341
0.000503647
0.00050376
0.000503755
0.000503557
0.000503205
0.000502739
0.000502187
0.000501568
0.000500883
0.000500111
0.00049927
0.000498376
0.00049743
0.00049642
0.000495339
0.000494196
0.000492962
0.000491603
0.000490091
0.000488379
0.000486334
0.000483942
0.000481112
0.000477745
0.000473748
0.000469065
0.000463758
0.000459943
0.0203541
0.0133226
0.00949793
0.00725644
0.00582514
0.00483445
0.00411818
0.00357593
0.00314781
0.00280195
0.0025186
0.00228336
0.00208576
0.00191803
0.00177422
0.00164978
0.00154121
0.00144577
0.00136128
0.00128593
0.00121828
0.0011571
0.00110144
0.00105057
0.00100381
0.000960831
0.000921274
0.000884819
0.000851167
0.000820081
0.000791335
0.000764742
0.000740128
0.000717306
0.000696098
0.000676389
0.000658066
0.000641048
0.00062541
0.000611034
0.000598082
0.000586514
0.000575983
0.000566501
0.000558036
0.000550515
0.000543905
0.000538151
0.000533074
0.000528604
0.000524695
0.000521244
0.000518306
0.000515929
0.00051405
0.000512597
0.0005116
0.000511051
0.000510891
0.000511048
0.000511484
0.000512148
0.000512984
0.000513935
0.000514942
0.000515946
0.000516902
0.000517792
0.000518595
0.00051928
0.000519764
0.00052008
0.000520248
0.000520283
0.00052019
0.000519942
0.000519553
0.000519054
0.00051847
0.000517817
0.000517082
0.000516276
0.000515412
0.000514503
0.00051355
0.000512522
0.000511414
0.000510248
0.000509013
0.000507677
0.000506218
0.000504601
0.000502736
0.000500565
0.000498
0.000494938
0.000491282
0.000486965
0.000482011
0.000478148
0.0208315
0.0139749
0.0101108
0.00778823
0.00628104
0.00522701
0.00445554
0.00386865
0.00340456
0.0030307
0.00272473
0.00247088
0.00225775
0.00207684
0.0019217
0.00178741
0.00167015
0.00156697
0.00147549
0.00139377
0.00132022
0.00125354
0.00119271
0.00113717
0.00108632
0.00103969
0.000996845
0.000957407
0.000921011
0.00088736
0.000856199
0.000827267
0.000800372
0.000775328
0.000751929
0.000730051
0.000709551
0.000690287
0.000672352
0.000655676
0.000640306
0.00062623
0.000613281
0.000601425
0.000590739
0.000581303
0.000573109
0.000566031
0.000559693
0.000554036
0.000549035
0.000544499
0.000540566
0.000537296
0.000534651
0.000532533
0.000530928
0.000529823
0.000529161
0.000528901
0.000528983
0.000529332
0.000529882
0.000530591
0.000531398
0.000532221
0.000533001
0.000533729
0.000534388
0.000534955
0.000535381
0.000535651
0.000535776
0.000535758
0.00053561
0.000535307
0.000534867
0.000534319
0.000533686
0.000532981
0.000532159
0.000531267
0.000530325
0.000529346
0.000528327
0.000527266
0.000526154
0.000524998
0.000523789
0.000522488
0.000521088
0.00051956
0.000517842
0.000515871
0.000513545
0.000510767
0.000507445
0.000503504
0.000498958
0.000495257
0.0212634
0.014589
0.0107016
0.00830839
0.00673048
0.0056165
0.00479105
0.00415962
0.00366103
0.00325966
0.00293131
0.00265897
0.00243031
0.00223618
0.00206965
0.00192538
0.00179931
0.00168824
0.0015896
0.00150133
0.0014217
0.00134933
0.00128354
0.00122362
0.00116886
0.00111872
0.00107269
0.00103033
0.000991226
0.000955029
0.000921464
0.000890204
0.000861044
0.000833795
0.000808214
0.000784183
0.00076165
0.000740491
0.000720688
0.000702163
0.000684902
0.000668866
0.000653966
0.000640113
0.000627338
0.000615666
0.00060524
0.000596199
0.000587964
0.000580598
0.000574098
0.000568364
0.000563402
0.000559221
0.000555764
0.000552886
0.000550574
0.000548817
0.000547536
0.000546715
0.00054631
0.000546219
0.000546349
0.000546687
0.00054717
0.000547738
0.000548327
0.000548894
0.000549412
0.000549861
0.000550202
0.000550394
0.000550444
0.000550347
0.000550121
0.00054972
0.000549176
0.000548524
0.00054779
0.000546984
0.000546095
0.000545145
0.000544151
0.000543125
0.00054205
0.000540947
0.000539815
0.000538651
0.000537451
0.000536148
0.000534767
0.000533284
0.000531655
0.000529825
0.000527714
0.000525226
0.000522257
0.000518722
0.000514631
0.000511225
0.0216556
0.0151668
0.0112702
0.00881591
0.00717242
0.0060015
0.00512382
0.0044491
0.00391673
0.00348826
0.00313776
0.00284703
0.00260288
0.0023955
0.00221749
0.00206316
0.00192815
0.00180905
0.00170312
0.00160813
0.00152223
0.00144452
0.00137402
0.00130987
0.00125133
0.00119775
0.00114857
0.0011033
0.00106147
0.00102269
0.000986686
0.000953044
0.000921569
0.000892066
0.000864411
0.000838463
0.000814126
0.000791268
0.000769821
0.000749679
0.0007308
0.000713097
0.000696531
0.000680961
0.000666424
0.000652836
0.000640289
0.000628922
0.000618554
0.000609216
0.00060096
0.000593755
0.000587538
0.000582261
0.000577816
0.000573969
0.000570749
0.000568164
0.000566078
0.000564523
0.000563466
0.000562804
0.00056247
0.000562414
0.000562543
0.000562813
0.000563159
0.00056351
0.000563836
0.000564115
0.000564315
0.000564357
0.000564254
0.000564017
0.00056366
0.000563159
0.00056253
0.000561797
0.000560984
0.000560088
0.000559121
0.000558099
0.000557038
0.000555949
0.000554785
0.000553603
0.000552405
0.000551185
0.000549949
0.000548661
0.000547315
0.000545886
0.00054434
0.000542637
0.000540711
0.000538478
0.000535829
0.000532673
0.000529023
0.00052596
0.0220125
0.0157104
0.0118164
0.00930992
0.00760589
0.00638067
0.00545299
0.00473653
0.00417108
0.0037159
0.00334347
0.00303448
0.00277487
0.00255425
0.00236473
0.00220024
0.00205619
0.00192894
0.00181557
0.00171369
0.00162197
0.00153913
0.00146405
0.0013958
0.00133353
0.00127654
0.00122421
0.001176
0.00113139
0.00108996
0.00105146
0.00101534
0.000981604
0.000950039
0.000920472
0.000892743
0.000866725
0.000842269
0.000819283
0.000797624
0.000777251
0.000758011
0.00073992
0.000722758
0.000706624
0.000691466
0.000677297
0.000664176
0.000652042
0.00064089
0.000630733
0.000621653
0.000613709
0.000606913
0.000601119
0.000595928
0.000591491
0.000587833
0.000584861
0.000582532
0.000580777
0.000579469
0.000578572
0.000578026
0.000577704
0.000577583
0.000577594
0.000577628
0.000577666
0.000577689
0.000577668
0.000577543
0.000577294
0.000576925
0.000576446
0.000575833
0.000575098
0.000574268
0.000573359
0.000572348
0.000571262
0.000570127
0.000568957
0.000567766
0.000566539
0.000565297
0.000564047
0.000562776
0.000561499
0.000560201
0.00055887
0.000557466
0.000555968
0.000554347
0.000552552
0.000550516
0.000548148
0.000545357
0.000542144
0.000539453
0.0223384
0.0162218
0.0123403
0.00978968
0.00803
0.00675269
0.00577845
0.00502134
0.00442347
0.00394197
0.00354786
0.00322073
0.00294575
0.0027119
0.00251084
0.00233614
0.00218296
0.00204746
0.00192651
0.00181821
0.00172086
0.00163302
0.00155347
0.00148116
0.0014152
0.0013548
0.00129928
0.0012481
0.00120064
0.00115647
0.00111538
0.001077
0.00104116
0.00100765
0.000976264
0.000946823
0.00091918
0.00089316
0.000868672
0.000845516
0.000823689
0.000802935
0.000783371
0.000764853
0.000747377
0.000730897
0.000715391
0.000700863
0.000687284
0.000674643
0.000662885
0.000652096
0.000642261
0.000633482
0.000625802
0.000619059
0.000613262
0.00060841
0.0006044
0.000601152
0.000598563
0.000596444
0.000594827
0.000593651
0.000592718
0.000592058
0.000591606
0.000591276
0.000591001
0.000590747
0.000590484
0.000590154
0.00058972
0.000589186
0.000588555
0.000587784
0.000586896
0.00058592
0.000584874
0.000583746
0.000582557
0.000581325
0.000580057
0.000578765
0.000577456
0.000576141
0.000574827
0.000573475
0.000572128
0.000570778
0.000569418
0.000568025
0.000566573
0.000565028
0.000563349
0.000561482
0.000559353
0.000556884
0.00055406
0.000551719
0.0226365
0.0167027
0.012842
0.0102546
0.00844391
0.00711686
0.00609912
0.0053029
0.0046733
0.00416589
0.00375035
0.00340525
0.00311499
0.00286796
0.00265535
0.00247041
0.00230804
0.00216417
0.00203608
0.00192156
0.00181872
0.001726
0.00164204
0.00156572
0.00149606
0.00143222
0.00137347
0.00131926
0.00126887
0.00122207
0.00117857
0.00113801
0.00110015
0.00106476
0.0010316
0.00100047
0.000971214
0.00094362
0.000917625
0.000892938
0.000869646
0.000847577
0.000826717
0.000806972
0.000788298
0.000770633
0.000753942
0.000738185
0.000723344
0.000709414
0.000696256
0.000684003
0.000672651
0.000662241
0.000652826
0.00064436
0.0006369
0.000630535
0.000625166
0.000620707
0.000617032
0.000613826
0.000611264
0.000609271
0.000607691
0.000606442
0.00060547
0.0006047
0.000604037
0.000603435
0.000602865
0.000602257
0.000601564
0.000600795
0.000599953
0.000599011
0.000597973
0.00059686
0.000595683
0.000594426
0.000593118
0.000591776
0.00059039
0.000588973
0.000587548
0.000586122
0.000584709
0.000583294
0.000581891
0.000580491
0.000579096
0.000577693
0.000576263
0.000574763
0.000573161
0.000571414
0.000569468
0.000567256
0.000564782
0.000562775
0.0229098
0.0171548
0.0133216
0.010704
0.00884682
0.00747243
0.00641394
0.00558061
0.00491997
0.00438708
0.00395041
0.00358754
0.0032821
0.00302195
0.00279782
0.00260259
0.00243097
0.00227914
0.00214414
0.00202357
0.00191537
0.00181784
0.00172952
0.00164919
0.00157582
0.00150851
0.00144647
0.00138916
0.00133604
0.00128674
0.00124093
0.00119825
0.00115843
0.00112119
0.00108625
0.00105342
0.00102254
0.000993333
0.000965798
0.000939736
0.000915114
0.000891814
0.000869756
0.000848856
0.000829055
0.000810268
0.000792461
0.000775554
0.000759533
0.000744415
0.000730124
0.000716688
0.000704112
0.000692398
0.000681586
0.000671642
0.000662608
0.000654582
0.00064747
0.00064137
0.000636227
0.000631857
0.000628252
0.000625335
0.000622966
0.000620995
0.000619372
0.000618039
0.00061686
0.000615791
0.000614809
0.000613861
0.000612884
0.000611867
0.000610804
0.000609663
0.000608447
0.00060717
0.000605839
0.000604412
0.000602948
0.00060146
0.000599943
0.000598411
0.000596879
0.000595348
0.000593834
0.000592337
0.000590864
0.000589393
0.000587936
0.00058649
0.000585041
0.000583563
0.000582024
0.00058038
0.000578586
0.00057659
0.00057441
0.000572689
0.0231609
0.0175798
0.0137794
0.0111375
0.00923803
0.00781863
0.00672185
0.00585387
0.00516286
0.00460499
0.00414751
0.00376709
0.00344664
0.00317344
0.00293782
0.00273228
0.00255173
0.0023922
0.0022505
0.00212401
0.00201054
0.00190827
0.00181561
0.00173128
0.00165418
0.00158335
0.00151808
0.00145784
0.00140208
0.00135037
0.00130232
0.00125757
0.00121581
0.00117671
0.00113999
0.00110543
0.00107288
0.00104217
0.00101322
0.000985844
0.000959969
0.000935485
0.000912273
0.000890247
0.000869343
0.000849448
0.000830539
0.000812578
0.000795535
0.000779392
0.000764103
0.000749645
0.000736021
0.000723197
0.000711208
0.000700003
0.000689616
0.000680118
0.000671483
0.000663774
0.000657015
0.00065119
0.000646283
0.000642198
0.000638802
0.000635874
0.000633393
0.000631319
0.000629538
0.000627948
0.000626509
0.00062517
0.000623845
0.000622523
0.000621191
0.000619791
0.000618336
0.000616842
0.000615311
0.000613728
0.000612115
0.000610485
0.000608827
0.000607167
0.000605515
0.000603857
0.000602219
0.000600609
0.000599035
0.00059749
0.000595976
0.000594484
0.000593007
0.00059153
0.000590026
0.000588445
0.000586758
0.000584922
0.00058297
0.000581485
0.023392
0.0179791
0.0142157
0.0115546
0.00961683
0.00815534
0.00702191
0.00612201
0.0054014
0.00481904
0.00434113
0.00394343
0.00360813
0.00332201
0.00307493
0.0028593
0.00267013
0.00250315
0.00235491
0.00222265
0.002104
0.00199703
0.00190005
0.00181171
0.00173084
0.00165659
0.00158824
0.0015252
0.00146689
0.00141283
0.00136258
0.00131576
0.00127207
0.0012311
0.00119255
0.00115632
0.00112222
0.00109008
0.00105978
0.00103114
0.00100405
0.000978403
0.000954043
0.000930887
0.000908873
0.000887938
0.000868037
0.00084912
0.000831147
0.000814074
0.00079787
0.000782473
0.000767898
0.000754059
0.000741017
0.00072875
0.000717265
0.000706594
0.000696717
0.000687674
0.000679467
0.000672136
0.000665685
0.00066009
0.000655321
0.000651251
0.000647797
0.000644878
0.000642377
0.000640143
0.000638136
0.000636307
0.000634525
0.000632798
0.000631113
0.000629421
0.000627714
0.000625994
0.000624249
0.000622477
0.000620692
0.0006189
0.000617066
0.000615244
0.00061344
0.000611654
0.000609899
0.000608177
0.000606499
0.000604867
0.000603283
0.000601723
0.000600193
0.000598682
0.000597174
0.000595635
0.000594032
0.000592324
0.000590555
0.000589253
0.0236049
0.0183539
0.0146306
0.0119549
0.00998255
0.00848191
0.00731358
0.00638388
0.00563496
0.0050287
0.00453076
0.00411607
0.00376613
0.00346721
0.00320874
0.00298346
0.00278596
0.00261174
0.00245713
0.0023192
0.00219545
0.00208383
0.00198254
0.00189018
0.00180567
0.00172814
0.00165683
0.00159108
0.00153029
0.00147392
0.0014215
0.00137262
0.00132699
0.0012841
0.00124386
0.00120605
0.00117048
0.00113696
0.00110536
0.00107547
0.00104717
0.00102036
0.000994831
0.000970594
0.000947561
0.000925661
0.000904836
0.000885019
0.000866168
0.000848209
0.000831134
0.000814826
0.000799343
0.000784634
0.000770696
0.00075752
0.000745098
0.000733443
0.000722513
0.000712352
0.000702913
0.000694258
0.0006864
0.000679348
0.000673114
0.000667689
0.000663031
0.000659048
0.000655621
0.000652533
0.000649776
0.000647306
0.000645005
0.000642829
0.000640752
0.000638713
0.000636701
0.000634711
0.000632702
0.000630689
0.000628683
0.000626687
0.000624689
0.00062271
0.00062075
0.000618822
0.000616935
0.000615085
0.000613281
0.000611535
0.000609851
0.00060822
0.000606636
0.000605083
0.000603556
0.00060203
0.00060048
0.000598852
0.00059721
0.000596033
0.0238014
0.0187055
0.0150244
0.012338
0.0103345
0.00879768
0.00759627
0.00663841
0.00586296
0.0052334
0.0047159
0.00428455
0.0039202
0.00360863
0.00333912