/*--------------------------------*- C++ -*----------------------------------*\
  =========                 |
  \\      /  F ield         | OpenFOAM: The Open Source CFD Toolbox
   \\    /   O peration     | Website:  https://openfoam.org
    \\  /    A nd           | Version:  8
     \\/     M anipulation  |
\*---------------------------------------------------------------------------*/
FoamFile
{
    version     2.0;
    format      ascii;
    class       volScalarField;
    location    "0.1382";
    object      nut;
}
// * * * * * * * * * * * * * * * * * * * * * * * * * * * * * * * * * * * * * //

dimensions      [0 2 -1 0 0 0 0];

internalField   nonuniform List<scalar> 
119000
(
0.000759329
0.000101035
2.13041e-05
5.64925e-06
2.06421e-06
9.57849e-07
5.25215e-07
3.32377e-07
4.41299e-07
7.08214e-07
9.03466e-07
9.34854e-07
8.33725e-07
7.24692e-07
6.66514e-07
6.38097e-07
6.49831e-07
7.37393e-07
6.70686e-07
5.43389e-07
4.28188e-07
3.44818e-07
2.95986e-07
2.79366e-07
2.7797e-07
2.8034e-07
2.83252e-07
2.86186e-07
2.89218e-07
2.92423e-07
2.95899e-07
2.99701e-07
3.03424e-07
3.06655e-07
3.09472e-07
3.11997e-07
3.14274e-07
3.16301e-07
3.18054e-07
3.19576e-07
3.20998e-07
3.22708e-07
3.24299e-07
3.25708e-07
3.26714e-07
3.25772e-07
3.22959e-07
3.19272e-07
3.15246e-07
3.11141e-07
3.07197e-07
3.03399e-07
2.99905e-07
2.96671e-07
2.93512e-07
2.90414e-07
2.8742e-07
2.84538e-07
2.81799e-07
2.79181e-07
2.76651e-07
2.74089e-07
2.71405e-07
2.68581e-07
2.65662e-07
2.62668e-07
2.59613e-07
2.56479e-07
2.53249e-07
2.49901e-07
2.46425e-07
2.42811e-07
2.39062e-07
2.35159e-07
2.30987e-07
2.26081e-07
2.20709e-07
2.15209e-07
2.09894e-07
2.05125e-07
2.01218e-07
1.99822e-07
1.94455e-07
1.93059e-07
2.13555e-07
2.15337e-07
1.97152e-07
1.77257e-07
1.654e-07
1.59175e-07
1.54034e-07
1.48823e-07
1.43729e-07
1.38457e-07
1.32945e-07
1.19767e-07
8.91854e-08
6.76245e-08
8.94379e-08
1.61024e-07
0.00212508
0.000543542
0.000280938
0.000183978
0.00013327
0.000101416
7.93368e-05
6.32334e-05
5.11598e-05
4.23925e-05
4.01968e-05
4.41908e-05
4.80128e-05
4.83635e-05
4.82889e-05
4.86754e-05
4.95521e-05
5.08161e-05
5.21681e-05
5.34719e-05
5.46646e-05
5.56758e-05
5.65424e-05
5.7308e-05
5.80098e-05
5.86523e-05
5.92283e-05
5.97649e-05
6.02961e-05
6.08387e-05
6.14071e-05
6.20094e-05
6.2592e-05
6.31014e-05
6.35493e-05
6.39522e-05
6.43167e-05
6.46445e-05
6.4933e-05
6.51879e-05
6.54157e-05
6.56134e-05
6.57865e-05
6.59405e-05
6.60602e-05
6.59883e-05
6.57112e-05
6.53399e-05
6.49293e-05
6.45048e-05
6.40934e-05
6.36929e-05
6.32995e-05
6.29062e-05
6.25166e-05
6.21298e-05
6.17528e-05
6.13863e-05
6.10355e-05
6.06976e-05
6.03698e-05
6.00348e-05
5.96803e-05
5.93021e-05
5.89063e-05
5.84947e-05
5.80701e-05
5.76287e-05
5.71685e-05
5.66846e-05
5.61756e-05
5.56384e-05
5.50728e-05
5.44753e-05
5.38314e-05
5.30582e-05
5.21886e-05
5.1268e-05
5.03323e-05
4.94079e-05
4.85162e-05
4.76748e-05
4.68764e-05
4.61566e-05
4.55431e-05
4.49749e-05
4.44313e-05
4.39278e-05
4.34982e-05
4.3162e-05
4.28998e-05
4.27188e-05
4.26771e-05
4.26666e-05
4.24002e-05
4.09076e-05
3.48855e-05
2.70033e-05
3.02243e-05
3.78036e-05
0.00332541
0.00104299
0.000573897
0.000388552
0.000293951
0.000236946
0.000198665
0.000170954
0.000149737
0.000132955
0.000119844
0.000110722
0.000107118
0.000104923
0.000103332
0.000102467
0.000102168
0.000102313
0.000102756
0.000103289
0.000103709
0.000103801
0.000103624
0.000103293
0.000102902
0.000102456
0.000101965
0.000101488
0.000101076
0.000100758
0.000100547
0.000100448
0.000100364
0.000100215
0.000100031
9.98318e-05
9.96227e-05
9.94034e-05
9.91715e-05
9.89312e-05
9.86866e-05
9.84376e-05
9.81898e-05
9.79498e-05
9.77128e-05
9.72778e-05
9.66559e-05
9.59471e-05
9.52056e-05
9.44622e-05
9.37429e-05
9.30514e-05
9.23802e-05
9.17214e-05
9.10761e-05
9.04457e-05
8.9836e-05
8.92499e-05
8.86909e-05
8.81574e-05
8.7643e-05
8.71265e-05
8.65883e-05
8.60261e-05
8.54459e-05
8.48513e-05
8.42433e-05
8.3618e-05
8.29709e-05
8.22971e-05
8.15933e-05
8.08565e-05
8.00858e-05
7.92785e-05
7.84202e-05
7.74498e-05
7.63757e-05
7.52419e-05
7.40909e-05
7.29581e-05
7.18719e-05
7.08549e-05
6.99231e-05
6.90979e-05
6.83763e-05
6.77856e-05
6.73217e-05
6.69849e-05
6.67935e-05
6.67773e-05
6.69157e-05
6.72469e-05
6.76919e-05
6.80555e-05
6.83326e-05
6.81592e-05
6.636e-05
6.19855e-05
6.17457e-05
7.22861e-05
0.00438715
0.00159936
0.000903365
0.000618352
0.000471347
0.000382626
0.000323281
0.000280639
0.000248355
0.00022298
0.000202596
0.000186107
0.000172981
0.000162437
0.000155658
0.000151503
0.00014878
0.000146999
0.000145795
0.000144792
0.000143693
0.000142164
0.0001404
0.000138569
0.000136785
0.000134999
0.000133229
0.000131574
0.000130091
0.000128807
0.000127727
0.00012685
0.000125996
0.000125065
0.000124142
0.000123248
0.00012238
0.000121533
0.000120706
0.000119902
0.000119123
0.00011837
0.000117648
0.000116964
0.000116322
0.000115645
0.000114907
0.000114136
0.000113365
0.00011262
0.000111925
0.000111286
0.000110691
0.000110133
0.000109617
0.000109147
0.000108733
0.00010838
0.000108095
0.000107877
0.00010772
0.000107596
0.000107479
0.000107376
0.0001073
0.000107256
0.000107248
0.00010727
0.00010732
0.000107392
0.000107482
0.000107584
0.000107695
0.000107806
0.000107888
0.000107833
0.000107636
0.000107337
0.000106968
0.000106555
0.000106118
0.000105671
0.000105222
0.00010478
0.000104335
0.000103895
0.000103442
0.00010296
0.000102449
0.000101926
0.000101408
0.000100933
0.000100561
0.000100259
0.000100013
9.96512e-05
9.85769e-05
9.61898e-05
9.60114e-05
0.000102694
0.0053266
0.0021702
0.00125518
0.000867803
0.00066454
0.000540841
0.000457694
0.000397789
0.000352398
0.000316692
0.000287862
0.000264133
0.000244323
0.000227513
0.00021348
0.000202092
0.000194338
0.000189061
0.000185173
0.000181811
0.000178505
0.000174726
0.000170933
0.000167304
0.000163934
0.000160643
0.000157469
0.000154564
0.000151979
0.000149717
0.000147768
0.000146115
0.000144666
0.000143324
0.00014207
0.000140895
0.000139782
0.000138726
0.000137727
0.000136793
0.000135923
0.000135122
0.000134398
0.000133759
0.00013321
0.000132712
0.000132241
0.000131801
0.00013141
0.00013109
0.000130857
0.000130711
0.000130624
0.000130589
0.000130607
0.000130683
0.000130821
0.000131023
0.000131286
0.000131605
0.000131962
0.000132302
0.00013258
0.000132817
0.00013303
0.000133228
0.000133413
0.000133583
0.00013374
0.000133885
0.000134021
0.000134149
0.000134272
0.000134388
0.000134475
0.000134331
0.000134002
0.000133554
0.000133028
0.000132452
0.000131847
0.000131227
0.000130602
0.000129974
0.000129341
0.000128698
0.00012802
0.000127278
0.000126476
0.000125624
0.000124733
0.000123827
0.000122962
0.000122166
0.000121459
0.000120768
0.000119828
0.000118593
0.000119148
0.000123915
0.00615668
0.0027325
0.00161955
0.00113165
0.000870116
0.000709497
0.000600837
0.000522182
0.000462366
0.000415152
0.000376872
0.000345163
0.000318405
0.000295444
0.000275571
0.000258298
0.00024375
0.000232167
0.000223814
0.000216854
0.000210445
0.000203642
0.00019738
0.000191681
0.00018657
0.000181979
0.000177844
0.00017417
0.000170957
0.000168182
0.000165812
0.000163815
0.000162113
0.000160613
0.00015926
0.000158025
0.000156877
0.000155809
0.000154828
0.000153944
0.000153147
0.000152443
0.00015184
0.000151345
0.000150959
0.000150643
0.000150376
0.000150159
0.000150004
0.000149927
0.000149941
0.000150038
0.000150162
0.000150312
0.000150502
0.000150739
0.00015103
0.000151375
0.000151772
0.000152212
0.000152676
0.000153075
0.000153336
0.000153528
0.000153676
0.00015379
0.000153869
0.000153914
0.000153932
0.000153925
0.000153903
0.000153872
0.000153838
0.000153804
0.000153763
0.000153613
0.000153339
0.000152971
0.000152541
0.000152074
0.00015159
0.000151103
0.000150618
0.000150134
0.000149647
0.000149147
0.000148593
0.000147933
0.000147178
0.000146333
0.000145397
0.000144371
0.000143278
0.000142155
0.000141049
0.000139959
0.000138758
0.000137582
0.000138135
0.000141806
0.0068883
0.00327334
0.00198972
0.00140583
0.00108521
0.000886477
0.000751131
0.000652661
0.000577459
0.000517871
0.000469369
0.000429017
0.000394796
0.000365304
0.000339554
0.000316809
0.000296821
0.000279448
0.000264448
0.000251613
0.000240701
0.000231178
0.000222812
0.000215362
0.000208828
0.000203165
0.000198227
0.000193944
0.000190266
0.000187135
0.000184493
0.000182281
0.000180407
0.000178759
0.000177273
0.000175915
0.000174638
0.000173445
0.000172353
0.000171376
0.000170489
0.000169702
0.000169028
0.000168473
0.000168035
0.000167656
0.000167323
0.00016705
0.000166853
0.000166745
0.000166737
0.000166824
0.000166889
0.000166962
0.000167075
0.000167241
0.000167466
0.000167753
0.000168098
0.000168487
0.000168907
0.000169316
0.000169673
0.000169985
0.000170262
0.000170508
0.000170713
0.000170873
0.000170997
0.000171095
0.000171173
0.000171241
0.000171306
0.00017137
0.000171425
0.00017139
0.000171244
0.00017101
0.000170711
0.000170367
0.000169997
0.000169609
0.000169206
0.000168782
0.000168334
0.000167859
0.000167291
0.000166551
0.000165691
0.000164717
0.000163629
0.000162414
0.00016107
0.000159614
0.000158097
0.000156557
0.000154944
0.00015338
0.00015344
0.000156287
0.00753075
0.00379044
0.00236115
0.00168675
0.00130753
0.00107002
0.000907171
0.000788087
0.000696754
0.000624101
0.000564752
0.000515197
0.000473022
0.000436584
0.000404662
0.000376296
0.000351084
0.000328924
0.000309492
0.000292485
0.000277603
0.000264463
0.000252846
0.000242677
0.00023409
0.000226938
0.00022086
0.000215715
0.00021138
0.000207732
0.000204672
0.000202107
0.000199892
0.000197888
0.000196036
0.000194313
0.000192651
0.000191084
0.000189644
0.000188352
0.000187146
0.000186059
0.000185105
0.000184291
0.000183614
0.000182968
0.000182361
0.000181835
0.00018141
0.000181096
0.000180904
0.00018084
0.000180852
0.000180928
0.00018107
0.000181283
0.000181573
0.000181942
0.00018238
0.000182868
0.000183388
0.000183919
0.000184436
0.000184928
0.000185394
0.000185824
0.000186191
0.000186486
0.000186723
0.000186914
0.000187068
0.000187195
0.000187303
0.000187399
0.000187476
0.000187414
0.000187229
0.000186955
0.000186617
0.000186234
0.000185822
0.00018539
0.000184938
0.000184451
0.000183933
0.000183388
0.000182792
0.000182095
0.000181291
0.000180375
0.000179335
0.000178149
0.000176788
0.000175232
0.000173521
0.000171705
0.000169775
0.000167808
0.000167082
0.000169055
0.00809202
0.00428298
0.00273044
0.00197163
0.00153526
0.00125868
0.00106777
0.000927465
0.000819403
0.000733114
0.000662391
0.000603148
0.000552578
0.000508805
0.000470373
0.000436645
0.000406956
0.000380846
0.000357858
0.00033759
0.00031968
0.000303761
0.000289563
0.000276904
0.000265718
0.000255943
0.000247578
0.000240712
0.000235086
0.000230436
0.000226567
0.000223317
0.000220444
0.000217753
0.000215217
0.000212839
0.00021051
0.000208321
0.000206319
0.000204528
0.000202813
0.000201257
0.000199873
0.00019866
0.000197615
0.000196688
0.000195864
0.000195158
0.000194585
0.000194148
0.000193853
0.00019371
0.000193698
0.000193793
0.000193975
0.000194246
0.00019461
0.000195064
0.000195597
0.000196173
0.000196769
0.000197379
0.000197987
0.000198579
0.000199145
0.000199673
0.0002001
0.000200419
0.000200661
0.000200839
0.000200965
0.000201053
0.000201112
0.000201151
0.000201173
0.000201116
0.000200967
0.000200744
0.000200464
0.000200145
0.000199798
0.00019943
0.000199037
0.000198584
0.000198086
0.000197553
0.000196978
0.00019633
0.000195586
0.000194729
0.000193743
0.000192601
0.00019125
0.000189629
0.000187781
0.000185746
0.000183537
0.000181194
0.000179628
0.000180693
0.00857857
0.00475031
0.00309503
0.00225817
0.00176695
0.00145124
0.00123192
0.00106994
0.000944658
0.000844248
0.000761697
0.00069234
0.000632968
0.000581817
0.000537436
0.000498753
0.000464874
0.000435112
0.000408881
0.000385685
0.000365095
0.000346725
0.000330262
0.000315466
0.000302173
0.000290254
0.000279625
0.000270278
0.000262259
0.000255699
0.000250351
0.000245916
0.000241938
0.000238142
0.000234567
0.000231254
0.000227983
0.000224963
0.000222239
0.000219824
0.000217654
0.00021572
0.000213994
0.00021246
0.000211116
0.000209929
0.000208888
0.000208
0.000207274
0.0002067
0.000206283
0.000206032
0.000205945
0.000205996
0.000206138
0.000206385
0.000206738
0.000207194
0.000207738
0.000208312
0.000208888
0.000209479
0.000210076
0.000210664
0.00021123
0.000211766
0.00021224
0.000212636
0.000212956
0.000213202
0.000213387
0.000213522
0.000213619
0.000213688
0.000213731
0.0002137
0.000213587
0.000213406
0.000213173
0.0002129
0.000212597
0.000212266
0.000211905
0.00021144
0.000210914
0.000210346
0.000209738
0.000209072
0.00020832
0.000207464
0.000206487
0.000205364
0.000204048
0.000202487
0.000200665
0.000198593
0.000196275
0.000193726
0.000191509
0.000191721
0.00900303
0.0051925
0.00345299
0.00254444
0.00200137
0.00164666
0.00139876
0.00121475
0.00107186
0.000956911
0.000862131
0.000782266
0.000714396
0.000656324
0.000606239
0.000562753
0.00052477
0.00049143
0.000462031
0.000435987
0.000412806
0.000392062
0.000373406
0.00035656
0.000341306
0.000327465
0.000314905
0.000303525
0.000293294
0.000284257
0.000276472
0.000270083
0.000264358
0.000258906
0.000253898
0.000249383
0.000245233
0.000241474
0.000238124
0.000235174
0.000232576
0.000230281
0.000228211
0.000226342
0.000224673
0.000223177
0.000221851
0.00022071
0.00021976
0.000218969
0.000218346
0.000217901
0.000217639
0.00021755
0.000217534
0.000217643
0.000217879
0.000218236
0.000218702
0.000219238
0.000219819
0.000220433
0.000221066
0.000221695
0.000222306
0.00022289
0.00022343
0.000223908
0.000224309
0.000224623
0.000224861
0.000225037
0.000225163
0.000225248
0.000225297
0.000225242
0.000225098
0.000224889
0.00022463
0.000224334
0.000224008
0.000223649
0.000223263
0.00022282
0.000222326
0.000221792
0.00022122
0.000220597
0.000219889
0.000219081
0.000218159
0.000217096
0.000215852
0.000214377
0.000212634
0.000210602
0.000208259
0.000205607
0.000202971
0.000202332
0.00937738
0.00561014
0.00380286
0.00282914
0.00223708
0.00184404
0.00156752
0.00136126
0.00120042
0.00107056
0.00096319
0.000873232
0.000797214
0.000732426
0.000676727
0.00062847
0.000586374
0.000549435
0.00051684
0.00048792
0.000462121
0.000438972
0.000418088
0.000399164
0.000381941
0.000366204
0.000351798
0.000338559
0.000326419
0.000315335
0.000305225
0.000296265
0.000288221
0.00028089
0.00027433
0.000268544
0.000263387
0.000258799
0.000254764
0.000251231
0.000248141
0.000245409
0.000242891
0.000240579
0.000238483
0.000236566
0.000234844
0.000233343
0.000232069
0.000230953
0.000230017
0.000229277
0.000228742
0.000228412
0.00022824
0.000228225
0.000228359
0.000228637
0.000229039
0.000229538
0.000230108
0.000230733
0.000231389
0.000232042
0.000232676
0.000233284
0.000233853
0.000234369
0.000234803
0.000235125
0.000235361
0.000235523
0.000235627
0.000235682
0.000235695
0.000235631
0.000235493
0.000235293
0.000235049
0.00023477
0.000234459
0.000234104
0.000233716
0.000233289
0.000232822
0.000232318
0.000231776
0.00023119
0.000230503
0.000229718
0.000228826
0.000227805
0.000226613
0.00022521
0.000223549
0.000221594
0.000219314
0.000216698
0.000213905
0.000212611
0.00971013
0.00600412
0.00414357
0.00311112
0.00247288
0.00204258
0.00173753
0.00150885
0.00132981
0.0011847
0.0010651
0.000965385
0.000881393
0.000809967
0.000748666
0.000695611
0.000649351
0.000608747
0.000572886
0.000541018
0.000512527
0.000486897
0.000463707
0.000442626
0.000423369
0.00040568
0.000389406
0.000374317
0.000360348
0.000347491
0.000335666
0.000324904
0.000315097
0.000306108
0.000297896
0.00029046
0.000283784
0.000277926
0.000272877
0.000268506
0.000264711
0.000261347
0.000258171
0.000255228
0.00025255
0.000250065
0.000247814
0.000245843
0.000244149
0.00024269
0.000241455
0.000240435
0.000239638
0.000239071
0.000238706
0.00023853
0.000238533
0.0002387
0.000239005
0.000239418
0.000239925
0.000240504
0.00024113
0.000241745
0.00024234
0.000242912
0.000243449
0.000243942
0.000244372
0.000244719
0.00024498
0.000245163
0.00024528
0.000245342
0.000245352
0.000245284
0.000245145
0.000244948
0.000244706
0.00024443
0.000244121
0.000243744
0.000243325
0.000242873
0.000242389
0.000241872
0.000241321
0.000240733
0.000240082
0.000239351
0.000238528
0.000237588
0.000236484
0.000235184
0.000233643
0.000231813
0.000229654
0.000227145
0.000224358
0.000222623
0.0100076
0.00637546
0.00447434
0.00338938
0.0027077
0.00224159
0.00190818
0.001657
0.00145952
0.00129935
0.00116791
0.00105862
0.000966731
0.000888687
0.000821758
0.000763852
0.000713356
0.000669007
0.000629794
0.00059489
0.000563615
0.000535409
0.000509815
0.000486485
0.000465103
0.000445376
0.000427165
0.000410345
0.000394801
0.000380458
0.00036722
0.000355039
0.000343835
0.0003335
0.00032396
0.000315177
0.000307112
0.000299768
0.000293211
0.000287483
0.000282563
0.000278227
0.000274057
0.00027023
0.000266782
0.000263677
0.000260916
0.000258503
0.000256404
0.000254585
0.000253022
0.000251687
0.000250589
0.000249744
0.000249128
0.000248719
0.000248515
0.000248505
0.000248644
0.000248897
0.000249262
0.000249721
0.000250249
0.000250806
0.000251369
0.000251919
0.000252441
0.000252924
0.000253356
0.000253719
0.000253992
0.000254185
0.000254305
0.000254363
0.00025436
0.000254261
0.000254084
0.000253849
0.000253571
0.000253259
0.000252914
0.000252525
0.000252101
0.00025165
0.000251173
0.000250663
0.000250118
0.000249541
0.000248918
0.000248232
0.000247468
0.000246604
0.000245571
0.000244363
0.000242933
0.000241232
0.000239213
0.000236848
0.000234166
0.000232238
0.0102748
0.00672524
0.0047946
0.0036631
0.00294059
0.00244049
0.00207892
0.00180519
0.00158908
0.00141449
0.00127146
0.0011527
0.00105296
0.000968284
0.000895686
0.000832867
0.00077806
0.000729883
0.000687228
0.000649194
0.00061504
0.000584158
0.000556059
0.00053038
0.000506775
0.000485078
0.000465109
0.000446706
0.000429718
0.000414025
0.000399514
0.000386089
0.000373664
0.000362143
0.000351437
0.000341488
0.000332238
0.000323648
0.000315753
0.000308496
0.000301958
0.000296119
0.000290803
0.000286016
0.000281743
0.000277947
0.000274611
0.000271706
0.000269144
0.000266888
0.000264915
0.000263173
0.000261691
0.000260491
0.000259544
0.000258811
0.000258308
0.000258032
0.000257952
0.000258032
0.000258253
0.000258589
0.000259012
0.000259492
0.000260002
0.000260509
0.000260993
0.000261443
0.000261849
0.000262195
0.00026244
0.0002626
0.000262686
0.000262704
0.000262658
0.000262534
0.000262338
0.000262086
0.000261792
0.000261463
0.000261093
0.000260686
0.00026025
0.000259792
0.000259311
0.000258793
0.000258234
0.000257645
0.000257022
0.000256348
0.000255611
0.000254794
0.000253852
0.000252756
0.00025146
0.000249914
0.000248067
0.000245886
0.000243383
0.000241432
0.0105158
0.00705456
0.00510398
0.00393155
0.00317073
0.00263866
0.00224922
0.00195297
0.00171869
0.00152997
0.00137551
0.00124737
0.00113978
0.00104845
0.000970141
0.000902346
0.000843156
0.000791069
0.000744886
0.000703631
0.000666502
0.000632845
0.000602136
0.000574099
0.000548428
0.000524888
0.00050326
0.000483351
0.000464978
0.000447991
0.00043226
0.000417655
0.000404078
0.000391435
0.000379623
0.000368579
0.00035823
0.000348505
0.000339452
0.000331034
0.000323275
0.000316169
0.000309633
0.000303647
0.000298253
0.00029349
0.000289354
0.000285781
0.000282582
0.000279727
0.000277203
0.000274914
0.000272929
0.000271279
0.000269944
0.000268875
0.000268066
0.000267509
0.000267175
0.000267045
0.000267087
0.000267264
0.000267542
0.000267901
0.000268309
0.000268725
0.00026912
0.000269488
0.000269822
0.000270109
0.000270325
0.000270461
0.000270525
0.000270517
0.000270443
0.000270291
0.000270069
0.000269793
0.000269474
0.000269119
0.000268705
0.000268255
0.00026778
0.000267286
0.000266772
0.000266236
0.000265676
0.000265092
0.000264482
0.000263826
0.000263119
0.000262347
0.00026148
0.000260484
0.00025931
0.000257906
0.000256228
0.000254238
0.000251941
0.000250072
0.0107339
0.00736453
0.00540225
0.00419413
0.00339761
0.00283528
0.0024186
0.00209985
0.00184816
0.00164555
0.0014798
0.00134232
0.00122689
0.0011289
0.00104483
0.000971999
0.000908357
0.000852286
0.000802494
0.000757931
0.000717735
0.0006812
0.000647991
0.000617739
0.000590099
0.000564787
0.00054155
0.000520166
0.000500425
0.000482152
0.000465209
0.000449428
0.000434707
0.000420952
0.000408038
0.000395907
0.000384532
0.000373851
0.000363854
0.000354502
0.000345789
0.000337694
0.000330172
0.000323179
0.00031673
0.000310838
0.000305575
0.000301012
0.000296855
0.000293137
0.000289856
0.000286962
0.000284457
0.000282347
0.000280603
0.000279151
0.000277984
0.000277098
0.000276451
0.000276038
0.000275834
0.000275789
0.000275855
0.000276027
0.000276272
0.000276559
0.000276857
0.000277144
0.000277407
0.000277634
0.000277807
0.000277905
0.00027793
0.000277882
0.000277769
0.000277567
0.000277293
0.000276964
0.000276594
0.000276188
0.00027574
0.000275261
0.00027476
0.000274242
0.0002737
0.000273144
0.000272572
0.000271985
0.00027138
0.000270722
0.000270025
0.000269277
0.000268454
0.00026753
0.000266464
0.000265207
0.000263707
0.000261922
0.000259855
0.000258135
0.0109318
0.00765622
0.00568927
0.00445033
0.00362071
0.00302963
0.00258658
0.00224598
0.00197725
0.00176095
0.00158402
0.00143726
0.00131401
0.00120932
0.00111946
0.00104155
0.0009734
0.000913277
0.000859801
0.000811847
0.000768488
0.000729259
0.000693666
0.000661284
0.000631733
0.000604686
0.000579858
0.000557005
0.000535888
0.000516311
0.000498135
0.000481152
0.000465263
0.00045037
0.000436409
0.00042331
0.000411024
0.000399485
0.000388659
0.000378491
0.00036896
0.000360024
0.000351661
0.000343801
0.000336463
0.000329604
0.00032327
0.000317532
0.000312298
0.000307584
0.000303417
0.00029978
0.000296642
0.000293979
0.000291735
0.000289794
0.000288169
0.000286865
0.000285812
0.000285028
0.000284495
0.000284162
0.000283994
0.000283966
0.000284032
0.000284169
0.000284345
0.000284522
0.000284688
0.00028483
0.000284932
0.000284953
0.000284902
0.000284783
0.000284603
0.000284351
0.000284034
0.000283665
0.000283255
0.000282804
0.000282316
0.0002818
0.000281266
0.000280716
0.000280129
0.000279533
0.000278928
0.000278313
0.000277689
0.000277039
0.00027636
0.000275639
0.000274859
0.000273998
0.000273026
0.000271898
0.00027056
0.000268966
0.000267123
0.000265575
0.011112
0.00793065
0.005965
0.00469972
0.00383953
0.00322104
0.00275275
0.00239108
0.00210565
0.00187587
0.00168787
0.00153189
0.00140084
0.00128947
0.00119379
0.00111076
0.00103804
0.000973801
0.00091657
0.000865141
0.00081884
0.000777018
0.000739118
0.000704661
0.000673229
0.00064446
0.00061804
0.000593706
0.000571187
0.000550273
0.000530834
0.0005126
0.000495571
0.000479637
0.000464711
0.000450713
0.000437579
0.000425233
0.000413629
0.000402696
0.000392411
0.000382698
0.000373566
0.000364902
0.000356758
0.000349106
0.000341953
0.00033533
0.000329204
0.000323575
0.000318448
0.000313864
0.000309855
0.000306424
0.0003035
0.00030088
0.00029864
0.000296794
0.000295295
0.000294119
0.000293234
0.000292575
0.000292123
0.000291848
0.000291686
0.000291625
0.000291632
0.00029165
0.000291669
0.000291682
0.000291672
0.00029161
0.000291485
0.000291299
0.000291058
0.000290749
0.000290379
0.000289961
0.000289502
0.000288992
0.000288445
0.000287873
0.000287283
0.000286682
0.000286063
0.000285436
0.000284806
0.000284165
0.000283521
0.000282866
0.000282194
0.000281485
0.000280729
0.000279911
0.000279005
0.000277976
0.00027678
0.000275371
0.000273748
0.000272389
0.0112765
0.00818879
0.00622946
0.00494191
0.00405363
0.00340884
0.00291705
0.00253486
0.00223306
0.00198999
0.00179104
0.00162591
0.0014871
0.00136905
0.00126755
0.00117936
0.00110204
0.00103363
0.000972577
0.000917903
0.000868758
0.000824417
0.000784259
0.000747759
0.000714458
0.000683965
0.000655939
0.000630103
0.000606147
0.00058385
0.000563108
0.000543729
0.000525638
0.000508721
0.000492877
0.000478015
0.000464061
0.000450925
0.000438563
0.000426874
0.000415855
0.000405379
0.000395502
0.000386154
0.000377332
0.000369012
0.000361185
0.000353851
0.000346996
0.000340615
0.00033468
0.000329234
0.000324269
0.000319837
0.000315961
0.000312557
0.000309631
0.000307182
0.000305158
0.000303519
0.000302213
0.000301144
0.000300328
0.000299736
0.000299265
0.000298933
0.000298706
0.000298539
0.000298402
0.000298274
0.000298142
0.000297976
0.000297758
0.000297489
0.000297171
0.000296782
0.000296335
0.000295843
0.000295315
0.000294746
0.000294147
0.000293526
0.000292886
0.000292235
0.000291574
0.000290911
0.000290248
0.000289566
0.000288886
0.000288205
0.000287519
0.000286816
0.000286083
0.000285303
0.000284455
0.000283513
0.000282438
0.000281191
0.000279765
0.000278582
0.011427
0.00843157
0.0064827
0.00517658
0.00426257
0.00359268
0.00307893
0.002677
0.00235918
0.00210303
0.00189327
0.00171906
0.00157253
0.00144783
0.00134051
0.00124714
0.00116518
0.00109255
0.00102789
0.000970077
0.000918164
0.000871358
0.000828975
0.000790446
0.00075528
0.000723052
0.000693396
0.000666029
0.000640591
0.000616966
0.000595005
0.000574528
0.000555421
0.000537554
0.000520812
0.000505097
0.000490329
0.0004764
0.000463277
0.000450814
0.000439056
0.000427916
0.000417385
0.000407418
0.000397991
0.000389073
0.000380647
0.000372693
0.000365201
0.000358169
0.000351527
0.000345342
0.000339611
0.000334356
0.000329604
0.00032533
0.000321565
0.000318352
0.000315642
0.000313391
0.000311537
0.000309919
0.000308626
0.000307621
0.000306824
0.000306194
0.000305704
0.000305316
0.000304982
0.000304679
0.000304392
0.000304086
0.000303736
0.000303349
0.000302925
0.00030245
0.000301927
0.000301365
0.000300772
0.000300138
0.000299478
0.000298801
0.000298102
0.000297388
0.000296668
0.000295949
0.000295236
0.000294523
0.000293815
0.000293109
0.000292405
0.000291697
0.000290975
0.000290218
0.000289409
0.000288527
0.000287545
0.000286428
0.000285178
0.000284165
0.011565
0.00865983
0.00672483
0.00540346
0.00446597
0.00377218
0.00323785
0.00281719
0.0024837
0.00221469
0.00199426
0.00181108
0.0016569
0.00152557
0.00141243
0.00131388
0.00122724
0.00115059
0.00108244
0.00102157
0.000966953
0.00091772
0.000873133
0.000832584
0.000795546
0.000761564
0.000730249
0.000701318
0.000674499
0.000649612
0.000626486
0.000604942
0.000584843
0.000566039
0.000548405
0.000531832
0.000516243
0.000501497
0.000487597
0.00047444
0.000462011
0.000450248
0.000439113
0.000428563
0.000418567
0.000409083
0.000400094
0.000391559
0.000383471
0.000375839
0.000368625
0.000361843
0.000355494
0.000349581
0.000344123
0.000339104
0.000334543
0.000330492
0.000326902
0.000323823
0.000321227
0.000319022
0.000317203
0.000315731
0.000314535
0.000313541
0.000312722
0.00031205
0.000311456
0.000310917
0.000310421
0.000309944
0.000309451
0.000308938
0.000308403
0.000307827
0.000307214
0.00030657
0.000305899
0.000305179
0.000304441
0.00030369
0.000302924
0.000302152
0.000301379
0.000300606
0.000299843
0.000299088
0.000298345
0.000297602
0.000296867
0.000296137
0.000295406
0.000294661
0.000293884
0.000293054
0.000292148
0.00029114
0.00029004
0.00028917
0.0116917
0.00887437
0.00695594
0.00562229
0.00466345
0.00394694
0.00339329
0.00295514
0.00260631
0.0023247
0.00209376
0.00190172
0.00173996
0.00160205
0.0014831
0.00137935
0.0012882
0.00120767
0.00113613
0.00107228
0.001015
0.000963373
0.000916596
0.000874027
0.000835105
0.000799347
0.000766398
0.000735989
0.000707841
0.000681737
0.000657481
0.000634888
0.000613808
0.000594069
0.000575533
0.000558085
0.000541656
0.000526152
0.000511535
0.000497718
0.000484656
0.000472296
0.000460578
0.000449459
0.000438907
0.000428863
0.000419317
0.000410251
0.000401647
0.000393498
0.00038578
0.000378481
0.000371604
0.00036513
0.000359078
0.000353422
0.000348178
0.000343384
0.000339025
0.000335134
0.000331722
0.000328782
0.000326305
0.000324244
0.00032253
0.000321052
0.0003198
0.000318754
0.000317856
0.000317054
0.000316328
0.000315652
0.000314984
0.000314318
0.000313646
0.000312939
0.000312206
0.000311452
0.00031068
0.000309881
0.000309068
0.000308245
0.000307409
0.000306572
0.000305738
0.000304902
0.000304075
0.000303263
0.000302469
0.00030169
0.000300926
0.000300173
0.000299428
0.000298682
0.000297923
0.000297125
0.000296274
0.000295347
0.000294361
0.000293612
0.0118084
0.00907593
0.00717617
0.00583285
0.00485468
0.00411692
0.00354476
0.0030905
0.00272673
0.00243276
0.00219151
0.00199074
0.00182148
0.00167704
0.00155232
0.00144347
0.00134797
0.00126368
0.00118885
0.00112208
0.00106218
0.00100818
0.000959222
0.000914629
0.000873807
0.00083632
0.000801816
0.000769992
0.000740557
0.000713266
0.000687902
0.000664268
0.000642211
0.000621527
0.000602068
0.000583776
0.000566564
0.00055034
0.000535043
0.000520587
0.000506909
0.000493963
0.000481666
0.000469976
0.000458863
0.000448294
0.000438248
0.000428699
0.000419626
0.000411007
0.000402827
0.000395054
0.000387697
0.000380711
0.000374127
0.000367935
0.000362137
0.00035675
0.000351764
0.000347199
0.000343057
0.000339356
0.0003361
0.000333276
0.000330869
0.000328815
0.000327072
0.000325599
0.000324337
0.00032321
0.000322197
0.000321274
0.000320375
0.000319504
0.000318654
0.000317801
0.00031694
0.000316072
0.000315191
0.000314298
0.000313397
0.000312493
0.000311568
0.000310649
0.000309738
0.000308838
0.000307952
0.000307083
0.000306237
0.000305414
0.000304614
0.000303827
0.000303055
0.000302292
0.000301532
0.000300755
0.000299946
0.000299084
0.000298191
0.000297534
0.0119159
0.00926516
0.00738562
0.00603493
0.0050393
0.00428178
0.003692
0.00322269
0.00284463
0.00253859
0.00228724
0.0020779
0.00190124
0.00175035
0.00161987
0.00150615
0.00140645
0.0013185
0.00124045
0.00117082
0.00110835
0.001052
0.00100087
0.000954242
0.000911579
0.000872443
0.000836446
0.000803256
0.000772566
0.000744108
0.000717648
0.000692972
0.000669934
0.000648285
0.000627969
0.000608882
0.000590926
0.000574006
0.000558053
0.000542966
0.000528677
0.000515145
0.000502257
0.000490022
0.000478395
0.000467339
0.000456826
0.000446822
0.000437306
0.00042824
0.00041962
0.000411388
0.000403572
0.000396146
0.000389111
0.000382459
0.000376189
0.000370305
0.000364787
0.000359658
0.000354893
0.000350524
0.000346558
0.000342998
0.000339851
0.000337114
0.000334762
0.000332752
0.000331023
0.000329464
0.000328073
0.000326827
0.000325666
0.000324568
0.00032352
0.000322491
0.000321476
0.000320472
0.000319459
0.000318443
0.000317431
0.000316423
0.000315416
0.000314417
0.000313428
0.000312455
0.000311504
0.00031057