/*--------------------------------*- C++ -*----------------------------------*\
  =========                 |
  \\      /  F ield         | OpenFOAM: The Open Source CFD Toolbox
   \\    /   O peration     | Website:  https://openfoam.org
    \\  /    A nd           | Version:  10
     \\/     M anipulation  |
\*---------------------------------------------------------------------------*/
FoamFile
{
    format      ascii;
    class       volScalarField;
    location    "0.0002";
    object      alphat;
}
// * * * * * * * * * * * * * * * * * * * * * * * * * * * * * * * * * * * * * //

dimensions      [1 -1 -1 0 0 0 0];

internalField   nonuniform List<scalar> 
13320
(
0.000625434
0.000591571
0.000518503
0.000442261
0.000388915
0.000355522
0.00033611
0.00032542
0.000321857
0.000322357
0.000322753
0.000324244
0.000327426
0.000329245
0.000330302
0.000330617
0.000330252
0.000329595
0.000328972
0.000328485
0.000328317
0.000328702
0.000329823
0.000331843
0.000334858
0.000339239
0.000344389
0.000349422
0.000354167
0.000358619
0.000362772
0.000366626
0.00037018
0.000373444
0.00037642
0.000379125
0.000381544
0.000383648
0.000385327
0.000386744
0.000387805
0.000388952
0.00038977
0.000390599
0.000391265
0.000392158
0.000392665
0.000393363
0.000392203
0.000396847
0.0025861
0.00249403
0.00233608
0.00214242
0.00198199
0.0018706
0.00180379
0.00177114
0.00176823
0.00178435
0.00179647
0.00181102
0.00183125
0.00184322
0.00185095
0.00185377
0.00185181
0.0018471
0.00184118
0.00183518
0.00183036
0.00182747
0.00182727
0.00183045
0.00183775
0.00185133
0.00186882
0.00188603
0.0019022
0.00191749
0.00193187
0.00194529
0.00195772
0.00196916
0.0019796
0.0019891
0.00199766
0.00200508
0.00201083
0.00201474
0.00201701
0.00201914
0.00202151
0.00202401
0.00202585
0.00202755
0.00202717
0.0020262
0.00201165
0.00201406
0.00477044
0.00470539
0.00454938
0.00430019
0.0040643
0.00388466
0.00377296
0.00372337
0.00373348
0.00378314
0.0038158
0.00385532
0.00391086
0.00394076
0.00396138
0.00396928
0.00396381
0.00394965
0.00393057
0.00390938
0.00388931
0.00387196
0.00385872
0.00385082
0.00384947
0.00386047
0.00387993
0.00389916
0.00391747
0.00393483
0.00395117
0.00396646
0.00398061
0.00399361
0.00400542
0.00401604
0.00402531
0.0040329
0.00403812
0.00404054
0.00404043
0.00404002
0.00404025
0.00404109
0.00404085
0.00404089
0.0040372
0.004033
0.00401147
0.00401016
0.00691428
0.00684525
0.00662917
0.00623342
0.00584347
0.00554196
0.00535091
0.00526663
0.00528879
0.00538657
0.00544628
0.00552916
0.00564837
0.00571976
0.00578154
0.00582233
0.00583951
0.00584026
0.00583018
0.00581424
0.00579872
0.00578651
0.00578028
0.00578197
0.00579322
0.00581897
0.00585354
0.00588731
0.00591926
0.0059493
0.00597734
0.00600337
0.00602733
0.00604928
0.00606918
0.00608709
0.00610285
0.00611601
0.00612559
0.00613107
0.00613265
0.00613336
0.00613483
0.0061373
0.00613829
0.00613946
0.00613645
0.00613228
0.00611193
0.00611467
0.00887951
0.00881453
0.0085309
0.00809724
0.00766128
0.00728518
0.00700318
0.00681784
0.00673753
0.00675463
0.00683449
0.00698353
0.0072052
0.00733839
0.00747081
0.00757074
0.00763222
0.00766505
0.00767686
0.00767465
0.0076698
0.00766684
0.00767054
0.00768386
0.00770885
0.00774908
0.00779747
0.00784427
0.00788824
0.00792928
0.00796733
0.00800244
0.00803463
0.00806401
0.00809061
0.00811452
0.00813559
0.0081533
0.00816644
0.00817423
0.00817722
0.0081787
0.00818086
0.00818438
0.00818655
0.00818843
0.00818695
0.0081842
0.00816992
0.00817735
0.0105743
0.0105204
0.0102373
0.00984843
0.0094416
0.00906077
0.00874324
0.00849783
0.0083298
0.00824272
0.00823495
0.00830983
0.00847681
0.0086764
0.00891836
0.00911131
0.00924628
0.00933539
0.00938674
0.00940843
0.00942053
0.00942933
0.00944331
0.00946713
0.00950327
0.00955407
0.00961162
0.00966668
0.00971803
0.00976562
0.0098095
0.00984979
0.00988656
0.00992001
0.00995024
0.00997729
0.0100011
0.0100212
0.0100358
0.0100443
0.0100474
0.010048
0.0100489
0.0100522
0.0100546
0.0100554
0.0100545
0.0100531
0.0100464
0.0100595
0.0119546
0.0119114
0.0116783
0.0113699
0.0110334
0.0106961
0.0103908
0.0101384
0.00993425
0.00978508
0.00969807
0.0096817
0.00974859
0.0098831
0.0100868
0.0103211
0.0105659
0.0107462
0.010866
0.0109289
0.0109693
0.0109942
0.0110187
0.0110508
0.0110938
0.0111496
0.0112101
0.0112674
0.0113205
0.0113693
0.011414
0.0114549
0.0114921
0.0115258
0.0115562
0.0115831
0.0116067
0.0116265
0.01164
0.011647
0.0116483
0.0116467
0.0116429
0.0116433
0.0116447
0.01164
0.0116371
0.0116363
0.0116358
0.0116533
0.0130225
0.0129826
0.0128201
0.012598
0.01234
0.0120641
0.0117938
0.0115735
0.0113787
0.0112195
0.0111018
0.0110282
0.0110186
0.0110697
0.0111864
0.0113579
0.011575
0.0118037
0.0120319
0.012163
0.0122527
0.0123026
0.0123399
0.0123785
0.0124245
0.01248
0.0125381
0.0125923
0.0126421
0.0126875
0.012729
0.0127668
0.0128006
0.0128313
0.0128589
0.0128823
0.0129029
0.01292
0.0129287
0.0129314
0.0129287
0.0129238
0.0129079
0.012901
0.0128994
0.0128994
0.0129032
0.0129099
0.012919
0.012941
0.0138194
0.0137881
0.0136823
0.0135322
0.0133367
0.0131103
0.0128889
0.0126951
0.0125311
0.012401
0.0123038
0.0122187
0.0121764
0.0121759
0.0122209
0.0123128
0.0124526
0.0126317
0.0128444
0.0130461
0.013224
0.0133196
0.0133798
0.0134282
0.0134756
0.0135274
0.0135795
0.0136273
0.0136707
0.0137098
0.0137454
0.0137777
0.0138055
0.013831
0.0138538
0.0138697
0.0138841
0.0138963
0.013894
0.0138875
0.0138779
0.0138674
0.0138578
0.0138551
0.0138575
0.0138621
0.0138712
0.0138839
0.0138996
0.0139237
0.014394
0.0143715
0.0143064
0.0142092
0.0140658
0.0138995
0.0137324
0.0135773
0.0134384
0.0133182
0.0132241
0.0131623
0.0131357
0.0131249
0.0131367
0.0131757
0.0132471
0.0133538
0.0135003
0.0136722
0.0138606
0.0140363
0.0141424
0.014212
0.0142639
0.0143116
0.0143569
0.0143977
0.0144344
0.0144663
0.0144955
0.0145221
0.0145411
0.0145594
0.0145764
0.0145777
0.0145814
0.0145868
0.0145887
0.0145872
0.0145819
0.0145741
0.0145683
0.0145689
0.0145743
0.0145813
0.0145922
0.014607
0.0146257
0.0146496
0.0148005
0.0147846
0.014746
0.0146794
0.0145817
0.0144672
0.0143487
0.0142337
0.0141261
0.0140254
0.0139344
0.0138674
0.0138435
0.0138597
0.0138791
0.0139039
0.0139396
0.0139945
0.0140773
0.0141896
0.0143305
0.0144901
0.0146428
0.0147619
0.014832
0.0148798
0.0149201
0.0149548
0.0149858
0.0150086
0.0150304
0.0150509
0.0150528
0.0150589
0.0150677
0.0150745
0.0150826
0.0150916
0.0150991
0.0151032
0.0151023
0.0150974
0.015092
0.0150918
0.0150972
0.0151044
0.0151144
0.0151279
0.0151459
0.0151684
0.0151103
0.0150989
0.0150774
0.0150294
0.0149622
0.014882
0.014794
0.0147016
0.0146181
0.0145406
0.0144589
0.0143909
0.0143577
0.0143663
0.0144037
0.0144507
0.0144855
0.0145198
0.0145668
0.0146336
0.0147241
0.0148382
0.0149691
0.0151055
0.0152235
0.0152809
0.0153182
0.0153456
0.0153697
0.0153733
0.0153807
0.0153909
0.0153987
0.0154085
0.0154201
0.0154319
0.015444
0.0154559
0.0154662
0.0154731
0.0154748
0.0154706
0.0154635
0.0154591
0.0154604
0.0154655
0.0154735
0.0154842
0.0154997
0.0155196
0.0153405
0.0153295
0.0153198
0.0152909
0.0152501
0.0151975
0.0151288
0.0150594
0.014993
0.0149239
0.0148524
0.0147958
0.0147592
0.0147574
0.0147849
0.0148335
0.0148927
0.0149305
0.0149661
0.0150092
0.0150666
0.0151418
0.0152345
0.015343
0.0154576
0.0155406
0.0155764
0.015589
0.0156015
0.0156116
0.0156241
0.0156385
0.0156534
0.0156688
0.0156845
0.0156998
0.0157146
0.0157284
0.0157405
0.0157497
0.0157546
0.0157534
0.0157474
0.0157395
0.0157344
0.0157341
0.015738
0.0157441
0.0157551
0.01577
0.0154474
0.0154363
0.0154323
0.0154196
0.015402
0.0153737
0.0153367
0.0152973
0.0152565
0.0152083
0.0151518
0.0151011
0.0150741
0.0150758
0.0150976
0.0151349
0.0151851
0.0152396
0.0152811
0.0153164
0.0153559
0.0154055
0.0154673
0.0155425
0.0156306
0.0157059
0.015745
0.0157656
0.0157858
0.0158064
0.0158276
0.0158488
0.0158695
0.0158894
0.0159082
0.0159258
0.0159422
0.0159571
0.0159702
0.015981
0.0159882
0.0159906
0.0159884
0.0159824
0.0159749
0.0159687
0.0159653
0.0159646
0.0159681
0.0159739
0.0154927
0.0154912
0.0154849
0.0154752
0.0154629
0.0154401
0.0154157
0.0153893
0.015362
0.0153308
0.0152969
0.0152627
0.0152497
0.0152644
0.015301
0.0153412
0.0153851
0.0154346
0.0154881
0.0155353
0.0155725
0.0156121
0.0156596
0.0157171
0.0157852
0.0158496
0.0158929
0.0159235
0.0159515
0.0159779
0.0160025
0.0160254
0.0160464
0.0160655
0.0160828
0.0160984
0.0161124
0.0161249
0.0161358
0.0161449
0.0161513
0.0161544
0.0161537
0.0161493
0.016141
0.0161326
0.0161251
0.0161192
0.0161156
0.0161138
0.0156128
0.0156242
0.0156133
0.0155967
0.0155693
0.0155348
0.015507
0.0154688
0.0154249
0.0153844
0.0153538
0.0153338
0.015334
0.015358
0.0154001
0.0154551
0.0155052
0.0155559
0.0156094
0.0156662
0.01572
0.0157648
0.0158103
0.0158623
0.0159194
0.0159742
0.0160155
0.0160465
0.0160728
0.0160956
0.0161152
0.0161323
0.0161471
0.01616
0.0161711
0.0161806
0.0161889
0.016196
0.016202
0.016207
0.0162106
0.0162109
0.0162097
0.0162066
0.0162016
0.0161955
0.016189
0.0161827
0.0161772
0.0161727
0.0158144
0.0158311
0.0158222
0.015805
0.0157765
0.0157372
0.0156935
0.0156437
0.0155924
0.015542
0.0154994
0.0154753
0.015473
0.0154937
0.0155285
0.0155744
0.015626
0.0156777
0.0157276
0.015779
0.0158338
0.0158872
0.015931
0.0159747
0.0160191
0.0160599
0.016091
0.0161139
0.0161318
0.016146
0.0161576
0.016167
0.0161748
0.0161813
0.0161867
0.0161912
0.0161949
0.0161981
0.0161991
0.0162004
0.0162016
0.0162022
0.0162019
0.0162006
0.0161982
0.016195
0.0161912
0.0161873
0.0161834
0.01618
0.0160072
0.0160204
0.0160157
0.0160038
0.015984
0.0159545
0.0159199
0.0158779
0.0158329
0.0157871
0.0157469
0.015719
0.0157076
0.0157125
0.0157315
0.0157604
0.0157941
0.0158321
0.0158712
0.0159084
0.0159471
0.0159878
0.0160273
0.0160582
0.0160863
0.0161108
0.0161297
0.0161434
0.0161538
0.0161618
0.0161681
0.0161731
0.0161771
0.0161804
0.016183
0.0161838
0.0161849
0.0161861
0.0161871
0.016188
0.0161889
0.0161895
0.0161899
0.0161898
0.0161893
0.0161883
0.016187
0.0161855
0.0161839
0.0161825
0.0161343
0.0161419
0.0161401
0.016134
0.0161239
0.0161076
0.0160871
0.0160627
0.0160351
0.0160046
0.0159766
0.0159546
0.0159414
0.0159383
0.0159427
0.0159541
0.0159707
0.0159892
0.0160105
0.0160329
0.0160536
0.016075
0.0160976
0.0161198
0.0161347
0.0161469
0.0161573
0.0161654
0.0161717
0.0161768
0.0161808
0.0161841
0.0161858
0.0161873
0.0161888
0.0161901
0.0161914
0.0161926
0.0161938
0.0161948
0.0161958
0.0161967
0.0161974
0.0161979
0.0161982
0.0161984
0.0161983
0.0161982
0.0161979
0.0161976
0.0162021
0.0162065
0.0162056
0.0162028
0.0161985
0.0161908
0.0161809
0.0161692
0.0161557
0.0161398
0.0161246
0.0161113
0.0161013
0.0160954
0.0160944
0.0160958
0.0161002
0.0161074
0.0161149
0.016124
0.0161343
0.0161429
0.0161522
0.0161629
0.0161738
0.0161801
0.0161861
0.0161914
0.0161959
0.0161996
0.0162013
0.0162033
0.0162051
0.0162069
0.0162086
0.0162101
0.0162116
0.0162129
0.0162141
0.0162152
0.0162162
0.0162171
0.0162179
0.0162185
0.0162191
0.0162195
0.0162199
0.0162201
0.0162203
0.0162205
0.0162377
0.0162402
0.01624
0.0162387
0.0162369
0.0162331
0.0162282
0.0162228
0.0162158
0.0162084
0.0162009
0.0161936
0.0161872
0.0161823
0.0161789
0.0161781
0.0161774
0.0161782
0.0161808
0.016183
0.0161864
0.0161909
0.0161941
0.0161983
0.016204
0.0162107
0.0162149
0.0162179
0.0162202
0.0162225
0.0162247
0.0162267
0.0162287
0.0162305
0.0162321
0.0162336
0.0162349
0.0162361
0.0162372
0.0162381
0.016239
0.0162397
0.0162404
0.016241
0.0162415
0.0162419
0.0162419
0.0162423
0.0162426
0.0162428
0.0162594
0.016261
0.0162611
0.0162604
0.0162596
0.0162574
0.0162546
0.0162517
0.0162478
0.0162438
0.0162397
0.0162347
0.0162305
0.0162275
0.0162244
0.016222
0.0162205
0.01622
0.0162199
0.0162209
0.0162215
0.0162231
0.0162256
0.0162274
0.0162302
0.016234
0.0162374
0.01624
0.0162423
0.0162445
0.0162466
0.0162485
0.0162502
0.0162518
0.0162531
0.0162544
0.0162555
0.0162564
0.0162568
0.0162574
0.016258
0.0162586
0.0162591
0.0162597
0.0162604
0.0162608
0.0162608
0.0162609
0.0162612
0.0162615
0.0162747
0.016276
0.0162761
0.0162758
0.0162753
0.0162739
0.0162721
0.0162703
0.0162677
0.0162652
0.0162625
0.0162592
0.0162562
0.0162535
0.016251
0.0162494
0.0162477
0.0162466
0.0162462
0.016246
0.0162468
0.0162472
0.0162484
0.0162504
0.016252
0.0162543
0.0162568
0.016259
0.0162611
0.016263
0.0162648
0.0162663
0.0162677
0.016269
0.01627
0.0162706
0.0162713
0.016272
0.0162726
0.0162732
0.0162737
0.0162742
0.0162746
0.016275
0.0162756
0.016276
0.0162759
0.0162759
0.0162761
0.0162764
0.0162864
0.0162874
0.0162876
0.0162875
0.0162871
0.0162862
0.016285
0.0162837
0.016282
0.0162802
0.016278
0.0162759
0.0162738
0.0162717
0.0162697
0.016268
0.016267
0.0162659
0.0162651
0.016265
0.016265
0.0162658
0.0162663
0.0162675
0.0162693
0.0162708
0.0162726
0.0162745
0.0162762
0.0162777
0.0162791
0.0162804
0.0162811
0.0162819
0.0162826
0.0162833
0.016284
0.0162846
0.0162851
0.0162856
0.016286
0.0162864
0.0162867
0.016287
0.0162872
0.0162876
0.0162876
0.0162876
0.0162877
0.016288
0.0162955
0.0162963
0.0162965
0.0162967
0.0162963
0.0162956
0.0162951
0.016294
0.0162927
0.0162915
0.0162898
0.0162883
0.0162868
0.0162852
0.0162837
0.0162823
0.0162811
0.0162805
0.0162798
0.0162793
0.0162794
0.0162796
0.0162804
0.016281
0.0162822
0.0162839
0.0162852
0.0162867
0.016288
0.0162892
0.0162899
0.0162907
0.0162915
0.0162922
0.0162928
0.0162934
0.0162939
0.0162944
0.0162948
0.0162952
0.0162955
0.0162958
0.016296
0.0162961
0.0162962
0.0162965
0.0162966
0.0162967
0.0162967
0.0162969
0.0163027
0.0163033
0.0163035
0.0163037
0.0163034
0.016303
0.0163026
0.0163018
0.0163009
0.0163
0.0162988
0.0162977
0.0162966
0.0162952
0.016294
0.0162932
0.0162922
0.0162914
0.0162911
0.0162906
0.0162904
0.0162907
0.016291
0.0162918
0.0162925
0.0162935
0.016295
0.0162959
0.0162967
0.0162976
0.0162984
0.0162991
0.0162997
0.0163003
0.0163008
0.0163013
0.0163017
0.0163021
0.0163024
0.0163027
0.0163029
0.0163029
0.0163031
0.0163032
0.0163033
0.0163035
0.0163036
0.0163037
0.0163038
0.0163039
0.0163083
0.0163088
0.0163092
0.0163091
0.016309
0.0163087
0.0163084
0.0163079
0.0163074
0.0163066
0.0163058
0.016305
0.0163041
0.0163031
0.0163022
0.0163013
0.0163005
0.0163001
0.0162995
0.0162994
0.0162992
0.0162992
0.0162995
0.0162999
0.0163006
0.0163013
0.0163021
0.016303
0.0163037
0.0163044
0.0163051
0.0163057
0.0163062
0.0163067
0.0163071
0.0163073
0.0163075
0.0163078
0.0163081
0.0163083
0.0163084
0.0163086
0.0163087
0.0163088
0.0163089
0.016309
0.0163092
0.0163093
0.0163093
0.0163094
0.0163127
0.0163131
0.0163134
0.0163134
0.0163133
0.0163133
0.016313
0.0163126
0.0163122
0.0163117
0.0163112
0.0163105
0.0163099
0.0163091
0.0163084
0.0163078
0.0163071
0.0163066
0.0163063
0.016306
0.016306
0.0163059
0.0163062
0.0163064
0.0163068
0.0163075
0.0163081
0.0163087
0.0163093
0.0163099
0.0163104
0.0163109
0.0163111
0.0163114
0.0163117
0.016312
0.0163123
0.0163125
0.0163127
0.0163128
0.0163129
0.016313
0.0163132
0.0163133
0.0163133
0.0163134
0.0163135
0.0163136
0.0163136
0.0163137
0.0163162
0.0163165
0.0163168
0.0163168
0.0163168
0.0163167
0.0163165
0.0163162
0.016316
0.0163156
0.0163152
0.0163147
0.0163143
0.0163137
0.0163132
0.0163127
0.0163122
0.0163118
0.0163114
0.0163113
0.0163111
0.0163112
0.0163112
0.0163115
0.0163117
0.0163121
0.0163127
0.0163132
0.0163137
0.016314
0.0163144
0.0163147
0.016315
0.0163153
0.0163156
0.0163158
0.016316
0.0163161
0.0163163
0.0163164
0.0163165
0.0163166
0.0163166
0.0163167
0.0163168
0.0163168
0.0163169
0.016317
0.016317
0.016317
0.016319
0.0163192
0.0163194
0.0163195
0.0163195
0.0163194
0.0163193
0.0163192
0.0163189
0.0163186
0.0163184
0.016318
0.0163177
0.0163172
0.0163169
0.0163165
0.0163162
0.0163158
0.0163155
0.0163153
0.0163152
0.0163151
0.0163152
0.0163153
0.0163156
0.0163159
0.0163162
0.0163166
0.016317
0.0163173
0.0163176
0.0163179
0.0163181
0.0163184
0.0163186
0.0163187
0.0163189
0.016319
0.016319
0.0163191
0.0163192
0.0163193
0.0163194
0.0163195
0.0163195
0.0163195
0.0163195
0.0163196
0.0163196
0.0163197
0.0163212
0.0163214
0.0163215
0.0163216
0.0163216
0.0163216
0.0163215
0.0163214
0.0163212
0.016321
0.0163208
0.0163205
0.0163203
0.0163201
0.0163197
0.0163194
0.0163192
0.0163189
0.0163187
0.0163185
0.0163183
0.0163183
0.0163183
0.0163184
0.0163186
0.0163189
0.0163191
0.0163194
0.0163197
0.0163199
0.0163202
0.0163204
0.0163206
0.0163207
0.0163208
0.016321
0.0163211
0.0163211
0.0163212
0.0163213
0.0163214
0.0163215
0.0163215
0.0163215
0.0163216
0.0163216
0.0163216
0.0163217
0.0163217
0.0163218
0.0163229
0.0163231
0.0163232
0.0163233
0.0163233
0.0163233
0.0163232
0.0163231
0.016323
0.0163229
0.0163227
0.0163225
0.0163223
0.0163221
0.0163219
0.0163217
0.0163215
0.0163213
0.0163211
0.016321
0.0163208
0.0163208
0.0163208
0.0163208
0.016321
0.0163211
0.0163214
0.0163216
0.0163218
0.016322
0.0163221
0.0163223
0.0163224
0.0163226
0.0163227
0.0163228
0.0163229
0.0163229
0.016323
0.016323
0.0163231
0.0163231
0.0163232
0.0163232
0.0163233
0.0163233
0.0163233
0.0163233
0.0163234
0.0163234
0.0163243
0.0163244
0.0163245
0.0163246
0.0163246
0.0163246
0.0163245
0.0163245
0.0163244
0.0163243
0.0163242
0.0163241
0.0163239
0.0163238
0.0163236
0.0163234
0.0163233
0.0163231
0.016323
0.0163229
0.0163228
0.0163227
0.0163227
0.0163227
0.0163229
0.0163229
0.0163231
0.0163232
0.0163234
0.0163235
0.0163237
0.0163238
0.0163239
0.016324
0.0163241
0.0163242
0.0163243
0.0163243
0.0163244
0.0163244
0.0163245
0.0163245
0.0163245
0.0163245
0.0163246
0.0163246
0.0163246
0.0163246
0.0163247
0.0163247
0.0163254
0.0163255
0.0163255
0.0163256
0.0163256
0.0163256
0.0163256
0.0163256
0.0163255
0.0163254
0.0163253
0.0163252
0.0163251
0.016325
0.0163249
0.0163248
0.0163247
0.0163246
0.0163245
0.0163244
0.0163243
0.0163242
0.0163242
0.0163242
0.0163243
0.0163244
0.0163245
0.0163246
0.0163247
0.0163248
0.0163249
0.016325
0.0163251
0.0163252
0.0163253
0.0163253
0.0163254
0.0163254
0.0163255
0.0163255
0.0163255
0.0163256
0.0163256
0.0163256
0.0163256
0.0163256
0.0163257
0.0163257
0.0163257
0.0163257
0.0163262
0.0163263
0.0163264
0.0163264
0.0163264
0.0163265
0.0163264
0.0163264
0.0163264
0.0163263
0.0163262
0.0163262
0.0163261
0.016326
0.0163259
0.0163258
0.0163258
0.0163257
0.0163256
0.0163255
0.0163254
0.0163254
0.0163254
0.0163254
0.0163254
0.0163255
0.0163256
0.0163257
0.0163258
0.0163258
0.0163259
0.016326
0.016326
0.0163261
0.0163262
0.0163262
0.0163262
0.0163263
0.0163263
0.0163263
0.0163264
0.0163264
0.0163264
0.0163264
0.0163264
0.0163265
0.0163265
0.0163265
0.0163265
0.0163265
0.0163269
0.016327
0.016327
0.0163271
0.0163271
0.0163271
0.0163271
0.0163271
0.016327
0.016327
0.016327
0.0163269
0.0163269
0.0163268
0.0163267
0.0163267
0.0163266
0.0163265
0.0163265
0.0163264
0.0163264
0.0163263
0.0163263
0.0163263
0.0163263
0.0163264
0.0163264
0.0163265
0.0163266
0.0163266
0.0163267
0.0163267
0.0163268
0.0163268
0.0163269
0.0163269
0.0163269
0.016327
0.016327
0.016327
0.016327
0.0163271
0.0163271
0.0163271
0.0163271
0.0163271
0.0163271
0.0163271
0.0163271
0.0163271
0.0163275
0.0163275
0.0163275
0.0163276
0.0163276
0.0163276
0.0163276
0.0163276
0.0163276
0.0163275
0.0163275
0.0163275
0.0163274
0.0163274
0.0163273
0.0163273
0.0163272
0.0163272
0.0163272
0.0163271
0.0163271
0.016327
0.016327
0.016327
0.016327
0.0163271
0.0163271
0.0163271
0.0163272
0.0163272
0.0163273
0.0163273
0.0163274
0.0163274
0.0163274
0.0163275
0.0163275
0.0163275
0.0163275
0.0163276
0.0163276
0.0163276
0.0163276
0.0163276
0.0163276
0.0163276
0.0163276
0.0163276
0.0163276
0.0163276
0.0163279
0.0163279
0.016328
0.016328
0.016328
0.016328
0.016328
0.016328
0.016328
0.016328
0.0163279
0.0163279
0.0163279
0.0163279
0.0163278
0.0163278
0.0163277
0.0163277
0.0163277
0.0163276
0.0163276
0.0163276
0.0163276
0.0163276
0.0163276
0.0163276
0.0163276
0.0163277
0.0163277
0.0163277
0.0163278
0.0163278
0.0163278
0.0163278
0.0163279
0.0163279
0.0163279
0.0163279
0.0163279
0.016328
0.016328
0.016328
0.016328
0.016328
0.016328
0.016328
0.016328
0.016328
0.016328
0.016328
0.0163282
0.0163283
0.0163283
0.0163283
0.0163283
0.0163283
0.0163283
0.0163283
0.0163283
0.0163283
0.0163283
0.0163283
0.0163283
0.0163282
0.0163282
0.0163282
0.0163281
0.0163281
0.0163281
0.0163281
0.016328
0.016328
0.016328
0.016328
0.016328
0.016328
0.016328
0.0163281
0.0163281
0.0163281
0.0163282
0.0163282
0.0163282
0.0163282
0.0163282
0.0163282
0.0163283
0.0163283
0.0163283
0.0163283
0.0163283
0.0163283
0.0163283
0.0163283
0.0163283
0.0163283
0.0163283
0.0163283
0.0163284
0.0163284
0.0163285
0.0163285
0.0163286
0.0163286
0.0163286
0.0163286
0.0163286
0.0163286
0.0163286
0.0163286
0.0163286
0.0163285
0.0163285
0.0163285
0.0163285
0.0163285
0.0163284
0.0163284
0.0163284
0.0163284
0.0163284
0.0163284
0.0163284
0.0163284
0.0163284
0.0163284
0.0163284
0.0163284
0.0163284
0.0163284
0.0163285
0.0163285
0.0163285
0.0163285
0.0163285
0.0163285
0.0163285
0.0163285
0.0163285
0.0163286
0.0163286
0.0163286
0.0163286
0.0163286
0.0163286
0.0163286
0.0163286
0.0163286
0.0163286
0.0163286
0.0163287
0.0163287
0.0163288
0.0163288
0.0163288
0.0163288
0.0163288
0.0163288
0.0163288
0.0163288
0.0163288
0.0163288
0.0163287
0.0163287
0.0163287
0.0163287
0.0163287
0.0163287
0.0163287
0.0163286
0.0163286
0.0163286
0.0163286
0.0163286
0.0163286
0.0163286
0.0163286
0.0163286
0.0163287
0.0163287
0.0163287
0.0163287
0.0163287
0.0163287
0.0163287
0.0163287
0.0163287
0.0163288
0.0163288
0.0163288
0.0163288
0.0163288
0.0163288
0.0163288
0.0163288
0.0163288
0.0163288
0.0163288
0.0163288
0.0163288
0.0163289
0.0163289
0.0163289
0.0163289
0.0163289
0.0163289
0.0163289
0.0163289
0.0163289
0.0163289
0.0163289
0.0163289
0.0163289
0.0163289
0.0163289
0.0163289
0.0163289
0.0163289
0.0163289
0.0163288
0.0163288
0.0163288
0.0163288
0.0163288
0.0163288
0.0163288
0.0163288
0.0163288
0.0163289
0.0163289
0.0163289
0.0163289
0.0163289
0.0163289
0.0163289
0.0163289
0.0163289
0.0163289
0.0163289
0.0163289
0.0163289
0.0163289
0.0163289
0.0163289
0.0163289
0.016329
0.016329
0.016329
0.016329
0.016329
0.016329
0.016329
0.0163291
0.0163291
0.0163291
0.0163291
0.0163291
0.0163291
0.0163291
0.0163291
0.0163291
0.0163291
0.0163291
0.0163291
0.016329
0.016329
0.016329
0.016329
0.016329
0.016329
0.016329
0.016329
0.016329
0.016329
0.016329
0.016329
0.016329
0.016329
0.016329
0.016329
0.016329
0.016329
0.016329
0.016329
0.016329
0.016329
0.0163291
0.0163291
0.0163291
0.0163291
0.0163291
0.0163291
0.0163291
0.0163291
0.0163291
0.0163291
0.0163291
0.0163291
0.0163291
0.0163291
0.0163291
0.0163292
0.0163292
0.0163292
0.0163292
0.0163292
0.0163292
0.0163292
0.0163292
0.0163292
0.0163292
0.0163292
0.0163292
0.0163292
0.0163292
0.0163292
0.0163291
0.0163291
0.0163291
0.0163291
0.0163291
0.0163291
0.0163291
0.0163291
0.0163291
0.0163291
0.0163291
0.0163291
0.0163291
0.0163291
0.0163291
0.0163291
0.0163291
0.0163292
0.0163292
0.0163292
0.0163292
0.0163292
0.0163292
0.0163292
0.0163292
0.0163292
0.0163292
0.0163292
0.0163292
0.0163292
0.0163292
0.0163292
0.0163292
0.0163292
0.0163292
0.0163292
0.0163292
0.0163292
0.0163293
0.0163293
0.0163293
0.0163293
0.0163293
0.0163293
0.0163292
0.0163292
0.0163292
0.0163292
0.0163292
0.0163292
0.0163292
0.0163292
0.0163292
0.0163292
0.0163292
0.0163292
0.0163292
0.0163292
0.0163292
0.0163292
0.0163292
0.0163292
0.0163292
0.0163292
0.0163292
0.0163292
0.0163292
0.0163292
0.0163292
0.0163292
0.0163292
0.0163292
0.0163293
0.0163293
0.0163293
0.0163293
0.0163293
0.0163293
0.0163293
0.0163293
0.0163293
0.0163293
0.0163293
0.0163293
0.0163293
0.0163293
0.0163293
0.0163293
0.0163293
0.0163293
0.0163293
0.0163293
0.0163293
0.0163293
0.0163293
0.0163293
0.0163293
0.0163293
0.0163293
0.0163293
0.0163293
0.0163293
0.0163293
0.0163293
0.0163293
0.0163293
0.0163293
0.0163293
0.0163293
0.0163293
0.0163293
0.0163293
0.0163293
0.0163293
0.0163293
0.0163293
0.0163293
0.0163293
0.0163293
0.0163293
0.0163293
0.0163293
0.0163293
0.0163293
0.0163293
0.0163293
0.0163293
0.0163293
0.0163293
0.0163293
0.0163293
0.0163293
0.0163293
0.0163293
0.0163294
0.0163294
0.0163294
0.0163294
0.0163294
0.0163294
0.0163294
0.0163294
0.0163294
0.0163294
0.0163294
0.0163294
0.0163294
0.0163294
0.0163294
0.0163294
0.0163294
0.0163294
0.0163294
0.0163294
0.0163294
0.0163294
0.0163293
0.0163293
0.0163294
0.0163294
0.0163294
0.0163294
0.0163294
0.0163294
0.0163294
0.0163294
0.0163294
0.0163294
0.0163294
0.0163294
0.0163294
0.0163294
0.0163294
0.0163294
0.0163294
0.0163294
0.0163294
0.0163294
0.0163294
0.0163294
0.0163294
0.0163294
0.0163294
0.0163294
0.0163294
0.0163294
0.0163294
0.0163294
0.0163294
0.0163294
0.0163294
0.0163294
0.0163294
0.0163294
0.0163294
0.0163294
0.0163294
0.0163294
0.0163294
0.0163294
0.0163294
0.0163294
0.0163294
0.0163294
0.0163294
0.0163294
0.0163294
0.0163294
0.0163294
0.0163294
0.0163294
0.0163294
0.0163294
0.0163294
0.0163294
0.0163294
0.0163294
0.0163294
0.0163294
0.0163294
0.0163294
0.0163294
0.0163294
0.0163294
0.0163294
0.0163294
0.0163294
0.0163294
0.0163294
0.0163294
0.0163294
0.0163294
0.0163294
0.0163294
0.0163294
0.0163294
0.0163294
0.0163294
0.0163294
0.0163294
0.0163294
0.0163294
0.0163294
0.0163294
0.0163294
0.0163294
0.0163294
0.0163294
0.0163294
0.0163294
0.0163294
0.0163294
0.0163294
0.0163294
0.0163294
0.0163294
0.0163294
0.0163294
0.0163294
0.0163294
0.0163294
0.0163294
0.0163294
0.0163294
0.0163294
0.0163294
0.0163294
0.0163294
0.0163294
0.0163294
0.0163294
0.0163294
0.0163294
0.0163294
0.0163294
0.0163294
0.0163294
0.0163294
0.0163294
0.0163294
0.0163294
0.0163294
0.0163294
0.0163294
0.0163295
0.0163295
0.0163295
0.0163295
0.0163295
0.0163295
0.0163295
0.0163295
0.0163295
0.0163295
0.0163295
0.0163295
0.0163295
0.0163295
0.0163295
0.0163295
0.0163295
0.0163295
0.0163295
0.0163295
0.0163295
0.0163295
0.0163295
0.0163295
0.0163295
0.0163295
0.0163295
0.0163295
0.0163295
0.0163295
0.0163295
0.0163295
0.0163295
0.0163295
0.0163295
0.0163295
0.0163295
0.0163295
0.0163295
0.0163295
0.0163295
0.0163295
0.0163295
0.0163295
0.0163295
0.0163295
0.0163295
0.0163295
0.0163295
0.0163295
0.0163295
0.0163295
0.0163295
0.0163295
0.0163295
0.0163295
0.0163295
0.0163295
0.0163295
0.0163295
0.0163295
0.0163295
0.0163295
0.0163295
0.0163295
0.0163295
0.0163295
0.0163295
0.0163295
0.0163295
0.0163295
0.0163295
0.0163295
0.0163295
0.0163295
0.0163295
0.0163295
0.0163295
0.0163295
0.0163295
0.0163295
0.0163295
0.0163295
0.0163295
0.0163295
0.0163295
0.0163295
0.0163295
0.0163295
0.0163295
0.0163295
0.0163295
0.0163295
0.0163295
0.0163295
0.0163295
0.0163295
0.0163295
0.0163295
0.0163295
0.0163295
0.0163295
0.0163295
0.0163295
0.0163295
0.0163295
0.0163295
0.0163295
0.0163295
0.0163295
0.0163295
0.0163295
0.0163295
0.0163295
0.0163295
0.0163295
0.0163295
0.0163295
0.0163295
0.0163295
0.0163295
0.0163295
0.0163295
0.0163295
0.0163295
0.0163295
0.0163295
0.0163295
0.0163295
0.0163295
0.0163295
0.0163295
0.0163295
0.0163295
0.0163295
0.0163295
0.0163295
0.0163295
0.0163295
0.0163295
0.0163295
0.0163295
0.0163295
0.0163295
0.0163295
0.0163295
0.0163295
0.0163295
0.0163295
0.0163295
0.0163295
0.0163295
0.0163295
0.0163295
0.0163295
0.0163295
0.0163295
0.0163295
0.0163295
0.0163295
0.0163295
0.0163295
0.0163295
0.0163295
0.0163295
0.0163295
0.0163295
0.0163295
0.0163295
0.0163295
0.0163295
0.0163295
0.0163295
0.0163295
0.0163295
0.0163295
0.0163295
0.0163295
0.0163295
0.0163295
0.0163295
0.0163295
0.0163295
0.0163295
0.0163295
0.0163295
0.0163295
0.0163295
0.0163295
0.0163295
0.0163295
0.0163295
0.0163295
0.0163295
0.0163295
0.0163295
0.0163295
0.0163295
0.0163295
0.0163295
0.0163295
0.0163295
0.0163295
0.0163295
0.0163295
0.0163295
0.0163295
0.0163295
0.0163295
0.0163295
0.0163295
0.0163295
0.0163295
0.0163295
0.0163295
0.0163295
0.0163295
0.0163295
0.0163295
0.0163295
0.0163295
0.0163295
0.0163295
0.0163295
0.0163295
0.0163295
0.0163295
0.0163295
0.0163295
0.0163295
0.0163295
0.0163295
0.0163295
0.0163295
0.0163295
0.0163295
0.0163295
0.0163295
0.0163295
0.0163295
0.0163295
0.0163295
0.0163295
0.0163295
0.0163295
0.0163295
0.0163295
0.0163295
0.0163295
0.0163295
0.0163295
0.0163295
0.0163295
0.0163295
0.0163295
0.0163295
0.0163295
0.0163295
0.0163295
0.0163295
0.0163295
0.0163295
0.0163295
0.0163295
0.0163295
0.0163295
0.0163295
0.0163295
0.0163295
0.0163295
0.0163295
0.0163295
0.0163295
0.0163295
0.0163295
0.0163295
0.0163295
0.0163295
0.0163295
0.0163295
0.0163295
0.0163295
0.0163295
0.0163295
0.0163295
0.0163295
0.0163295
0.0163295
0.0163295
0.0163295
0.0163295
0.0163295
0.0163295
0.0163295
0.0163295
0.0163295
0.0163295
0.0163295
0.0163295
0.0163295
0.0163295
0.0163295
0.0163295
0.0163295
0.0163295
0.0163295
0.0163295
0.0163295
0.0163295
0.0163295
0.0163295
0.0163295
0.0163295
0.0163295
0.0163295
0.0163295
0.0163295
0.0163295
0.0163295
0.0163295
0.0163295
0.0163295
0.0163295
0.0163295
0.0163295
0.0163295
0.0163295
0.0163295
0.0163295
0.0163295
0.0163295
0.0163295
0.0163295
0.0163295
0.0163295
0.0163295
0.0163295
0.0163295
0.0163295
0.0163295
0.0163295
0.0163295
0.0163295
0.0163295
0.0163295
0.0163295
0.0163295
0.0163295
0.0163295
0.0163295
0.0163296
0.0163296
0.0163296
0.0163296
0.0163296
0.0163296
0.0163296
0.0163296
0.0163296
0.0163296
0.0163296
0.0163296
0.0163296
0.0163296
0.0163296
0.0163296
0.0163296
0.0163296
0.0163296
0.0163296
0.0163296
0.0163296
0.0163296
0.0163296
0.0163296
0.0163296
0.0163296
0.0163296
0.0163296
0.0163296
0.0163296
0.0163296
0.0163296
0.0163296
0.0163296
0.0163296
0.0163296
0.0163296
0.0163296
0.0163296
0.0163296
0.0163296
0.0163296
0.0163296
0.0163296
0.0163296
0.0163296
0.0163296
0.0163296
0.0163296
0.0163296
0.0163296
0.0163296
0.0163296
0.0163296
0.0163296
0.0163296
0.0163296
0.0163296
0.0163296
0.0163296
0.0163296
0.0163296
0.0163296
0.0163296
0.0163296
0.0163296
0.0163296
0.0163296
0.0163296
0.0163296
0.0163296
0.0163296
0.0163296
0.0163296
0.0163296
0.0163296
0.0163296
0.0163296
0.0163296
0.0163296
0.0163296
0.0163296
0.0163296
0.0163296
0.0163296
0.0163296
0.0163296
0.0163296
0.0163296
0.0163296
0.0163296
0.0163296
0.0163296
0.0163296
0.0163296
0.0163296
0.0163296
0.0163296
0.0163296
0.0163296
0.0163296
0.0163296
0.0163296
0.0163296
0.0163296
0.0163296
0.0163296
0.0163296
0.0163296
0.0163296
0.0163296
0.0163296
0.0163296
0.0163296
0.0163296
0.0163296
0.0163296
0.0163296
0.0163296
0.0163296
0.0163296
0.0163296
0.0163296