/*--------------------------------*- C++ -*----------------------------------*\
  =========                 |
  \\      /  F ield         | OpenFOAM: The Open Source CFD Toolbox
   \\    /   O peration     | Website:  https://openfoam.org
    \\  /    A nd           | Version:  10
     \\/     M anipulation  |
\*---------------------------------------------------------------------------*/
FoamFile
{
    format      ascii;
    class       volScalarField;
    location    "0.0002";
    object      nut;
}
// * * * * * * * * * * * * * * * * * * * * * * * * * * * * * * * * * * * * * //

dimensions      [0 2 -1 0 0 0 0];

internalField   nonuniform List<scalar> 
13320
(
0.00053268
0.0005041
0.000442179
0.000377453
0.000332158
0.000303791
0.00028729
0.000278218
0.000275199
0.000275635
0.00027596
0.000277242
0.000279998
0.000281626
0.000282625
0.000282998
0.00028279
0.000282327
0.000281887
0.00028156
0.0002815
0.000281909
0.000282939
0.000284735
0.000287382
0.000291196
0.000295664
0.000300026
0.000304137
0.000307994
0.00031159
0.000314928
0.000318006
0.000320833
0.00032341
0.00032575
0.000327838
0.000329635
0.000331038
0.000332176
0.000332991
0.000333911
0.00033459
0.000335325
0.000335922
0.000336772
0.000337264
0.00033796
0.000336871
0.000340916
0.0022012
0.00212349
0.00198998
0.00182631
0.00169062
0.00159648
0.00154007
0.00151274
0.00151058
0.00152454
0.00153496
0.00154749
0.00156508
0.00157581
0.00158305
0.00158613
0.00158512
0.00158174
0.00157728
0.00157271
0.00156912
0.00156716
0.00156745
0.0015706
0.00157725
0.00158926
0.00160457
0.0016196
0.00163371
0.00164704
0.00165957
0.00167127
0.00168209
0.00169205
0.00170114
0.00170941
0.00171682
0.00172317
0.00172792
0.0017309
0.00173237
0.00173384
0.00173574
0.00173799
0.00173969
0.00174155
0.00174151
0.00174121
0.00172831
0.00173062
0.00405998
0.0040057
0.00387456
0.0036643
0.00346521
0.00331379
0.00321982
0.00317874
0.00318829
0.00323144
0.00325965
0.00329379
0.00334203
0.00336871
0.00338773
0.00339597
0.00339277
0.00338208
0.00336708
0.00335019
0.00333417
0.0033204
0.0033101
0.00330428
0.00330398
0.00331419
0.00333156
0.00334864
0.00336485
0.0033802
0.00339463
0.00340811
0.00342059
0.00343205
0.00344245
0.0034518
0.0034599
0.00346638
0.0034705
0.00347181
0.00347072
0.00346965
0.00346957
0.0034705
0.00347052
0.00347137
0.00346881
0.0034663
0.00344715
0.00344639
0.00588509
0.00582726
0.00564479
0.00531007
0.00498015
0.00472553
0.00456451
0.00449443
0.00451473
0.00459929
0.00465088
0.00472215
0.00482504
0.00488769
0.00494269
0.00497994
0.00499698
0.00499991
0.00499345
0.00498185
0.00497049
0.00496184
0.00495819
0.00496121
0.00497226
0.00499558
0.00502628
0.00505616
0.00508436
0.00511084
0.00513553
0.00515844
0.00517952
0.00519883
0.00521634
0.00523208
0.00524585
0.00525713
0.00526487
0.00526849
0.00526837
0.00526787
0.00526866
0.00527105
0.0052722
0.00527437
0.0052727
0.00527082
0.00525275
0.00525564
0.00755894
0.00750469
0.00726464
0.0068977
0.0065287
0.00621092
0.00597284
0.00581709
0.00575045
0.00576662
0.00583567
0.00596371
0.0061546
0.00627061
0.00638665
0.00647523
0.00653099
0.00656214
0.0065751
0.0065759
0.0065743
0.00657419
0.00657959
0.00659311
0.00661642
0.00665262
0.00669556
0.00673693
0.00677572
0.00681188
0.00684538
0.00687629
0.00690461
0.00693046
0.00695386
0.00697487
0.00699329
0.0070085
0.00701921
0.0070245
0.0070251
0.00702483
0.00702597
0.00702929
0.00703152
0.00703462
0.00703466
0.0070346
0.00702194
0.00702891
0.009003
0.0089581
0.00871815
0.00838922
0.00804503
0.00772353
0.00745558
0.00724925
0.00710808
0.00703562
0.00703017
0.00709488
0.00723926
0.00741244
0.00762274
0.00779161
0.00791101
0.00799111
0.00803878
0.00806078
0.00807439
0.00808501
0.00809983
0.00812291
0.00815629
0.00820198
0.00825313
0.00830188
0.00834726
0.00838925
0.00842795
0.00846346
0.00849587
0.00852536
0.00855199
0.00857581
0.00859672
0.00861402
0.00862589
0.00863161
0.00863188
0.00863042
0.00863023
0.00863329
0.0086358
0.00863814
0.00863897
0.0086406
0.00863503
0.00864696
0.0101795
0.0101438
0.00994615
0.00968579
0.00940133
0.009117
0.00885979
0.00864798
0.0084766
0.00835163
0.00827875
0.00826592
0.00832509
0.00844304
0.00862107
0.00882588
0.00903979
0.00919854
0.00930534
0.00936325
0.00940168
0.00942657
0.00945094
0.00948151
0.00952124
0.00957152
0.00962554
0.00967644
0.00972345
0.00976668
0.0098063
0.0098425
0.00987537
0.0099052
0.00993209
0.00995586
0.0099767
0.00999384
0.0100048
0.0100091
0.0100074
0.0100038
0.0099991
0.00999965
0.0100013
0.00999901
0.00999834
0.0100009
0.0100013
0.0100172
0.0110902
0.0110572
0.0109194
0.0107322
0.0105143
0.0102821
0.0100546
0.00987052
0.00970759
0.00957435
0.00947574
0.00941409
0.00940831
0.0094556
0.00955981
0.00971143
0.00990224
0.0101029
0.010303
0.0104199
0.0105011
0.0105479
0.0105837
0.0106203
0.0106629
0.0107133
0.0107654
0.010814
0.0108584
0.0108989
0.0109358
0.0109694
0.0109996
0.0110269
0.0110515
0.0110723
0.0110906
0.0111055
0.0111124
0.011113
0.0111079
0.0111009
0.0110855
0.0110797
0.0110786
0.0110803
0.0110856
0.011095
0.0111044
0.0111245
0.0117708
0.0117451
0.0116553
0.0115293
0.0113642
0.0111741
0.0109877
0.0108261
0.0106896
0.0105814
0.0105003
0.0104291
0.0103957
0.0103993
0.0104429
0.0105272
0.0106524
0.010811
0.0109984
0.011176
0.011333
0.0114195
0.0114752
0.0115206
0.0115647
0.0116122
0.0116594
0.0117026
0.0117416
0.0117768
0.0118087
0.0118377
0.0118627
0.0118856
0.0119061
0.0119206
0.0119336
0.0119443
0.0119419
0.0119347
0.0119235
0.0119115
0.0119011
0.0118986
0.0119009
0.0119064
0.0119161
0.0119307
0.0119466
0.0119691
0.0122604
0.0122423
0.012187
0.0121062
0.0119854
0.0118466
0.0117064
0.0115777
0.0114627
0.011363
0.0112844
0.011233
0.0112127
0.0112076
0.0112232
0.0112627
0.01133
0.0114274
0.0115584
0.0117111
0.0118777
0.0120331
0.0121287
0.0121925
0.0122407
0.0122849
0.0123264
0.0123636
0.012397
0.0124261
0.0124526
0.0124768
0.0124943
0.0125111
0.0125267
0.0125287
0.0125327
0.0125377
0.012539
0.0125366
0.0125292
0.0125193
0.0125118
0.0125117
0.0125166
0.0125239
0.0125351
0.0125512
0.0125702
0.0125931
0.012605
0.0125929
0.0125599
0.0125047
0.0124225
0.0123278
0.0122292
0.0121349
0.012047
0.0119645
0.0118895
0.0118342
0.0118163
0.0118348
0.0118574
0.0118853
0.0119225
0.0119758
0.0120525
0.0121542
0.0122801
0.0124219
0.0125575
0.0126638
0.0127278
0.0127723
0.0128097
0.0128419
0.0128705
0.0128919
0.0129123
0.0129313
0.0129343
0.0129407
0.0129494
0.0129561
0.0129639
0.0129723
0.0129787
0.0129814
0.0129781
0.0129708
0.0129631
0.0129618
0.0129665
0.0129738
0.0129838
0.0129983
0.0130168
0.0130393
0.0128733
0.012865
0.0128462
0.0128061
0.0127484
0.0126814
0.0126073
0.012531
0.0124625
0.0123992
0.0123322
0.0122754
0.0122505
0.012263
0.0123018
0.0123495
0.0123867
0.0124229
0.0124698
0.012533
0.0126161
0.0127191
0.0128364
0.012958
0.0130635
0.0131165
0.0131515
0.0131775
0.0132003
0.0132051
0.013213
0.0132231
0.013231
0.0132405
0.0132514
0.0132624
0.0132735
0.0132843
0.0132932
0.0132985
0.013298
0.0132911
0.0132817
0.0132758
0.0132763
0.0132814
0.0132894
0.013301
0.0133174
0.013338
0.0130751
0.0130667
0.013058
0.0130349
0.0129999
0.0129563
0.012898
0.0128403
0.0127851
0.012727
0.0126661
0.0126186
0.0125897
0.0125934
0.0126239
0.0126733
0.0127318
0.0127717
0.0128092
0.0128527
0.0129081
0.0129783
0.0130632
0.0131612
0.0132638
0.0133387
0.0133723
0.0133854
0.013398
0.0134082
0.0134204
0.013434
0.0134479
0.0134622
0.0134766
0.0134906
0.0135041
0.0135165
0.0135273
0.013535
0.013538
0.0135346
0.0135261
0.0135163
0.0135102
0.0135098
0.0135137
0.0135205
0.0135324
0.0135484
0.0131553
0.0131466
0.0131425
0.0131354
0.0131222
0.013102
0.0130739
0.0130442
0.0130129
0.0129732
0.0129254
0.0128824
0.0128617
0.0128673
0.0128926
0.0129321
0.0129829
0.013037
0.0130795
0.0131161
0.013156
0.0132042
0.0132624
0.0133314
0.0134111
0.0134794
0.0135159
0.013536
0.0135554
0.013575
0.0135949
0.0136148
0.0136341
0.0136525
0.01367
0.0136864
0.0137016
0.0137154
0.0137275
0.0137372
0.0137431
0.0137441
0.0137398
0.0137321
0.0137231
0.0137162
0.0137126
0.0137126
0.0137165
0.0137235
0.0131755
0.0131764
0.0131695
0.0131639
0.0131546
0.0131386
0.0131219
0.0131049
0.0130876
0.0130655
0.013039
0.0130127
0.0130055
0.0130246
0.0130639
0.0131069
0.0131528
0.0132029
0.0132558
0.0133029
0.0133406
0.0133802
0.0134263
0.0134804
0.0135435
0.013603
0.0136437
0.013673
0.0136998
0.0137249
0.0137482
0.0137699
0.0137897
0.0138077
0.013824
0.0138388
0.013852
0.0138637
0.013874
0.0138824
0.0138882
0.0138903
0.0138885
0.0138829
0.0138735
0.0138644
0.0138564
0.0138505
0.0138467
0.0138459
0.013281
0.0132953
0.0132832
0.0132692
0.0132435
0.0132129
0.0131886
0.0131568
0.0131212
0.013089
0.0130651
0.0130515
0.0130584
0.013088
0.0131344
0.0131922
0.0132454
0.0132982
0.0133526
0.0134093
0.0134627
0.013508
0.0135534
0.0136043
0.013659
0.0137109
0.0137503
0.0137802
0.0138054
0.013827
0.0138457
0.0138618
0.0138758
0.0138878
0.0138982
0.0139072
0.013915
0.0139216
0.0139272
0.0139318
0.013935
0.013935
0.0139332
0.0139294
0.0139235
0.0139167
0.0139095
0.0139029
0.013897
0.0138928
0.0134845
0.0135039
0.0134938
0.0134773
0.0134485
0.0134098
0.013367
0.0133195
0.0132712
0.0132247
0.0131867
0.0131677
0.0131708
0.0131968
0.0132369
0.0132872
0.0133422
0.0133968
0.013449
0.013502
0.0135573
0.0136109
0.0136554
0.0136996
0.0137434
0.013783
0.013813
0.0138349
0.0138518
0.0138651
0.0138757
0.0138844
0.0138914
0.0138973
0.0139021
0.013906
0.0139092
0.0139119
0.0139129
0.013914
0.0139149
0.0139152
0.0139145
0.0139127
0.0139098
0.013906
0.0139017
0.0138973
0.013893
0.0138896
0.0136856
0.0137005
0.013695
0.0136831
0.0136626
0.0136326
0.0135973
0.0135551
0.0135101
0.013465
0.0134262
0.0134007
0.0133925
0.0134013
0.0134244
0.0134571
0.0134945
0.0135353
0.0135769
0.0136164
0.0136568
0.0136982
0.013738
0.0137698
0.0137981
0.0138222
0.0138403
0.0138531
0.0138625
0.0138696
0.013875
0.0138793
0.0138826
0.0138853
0.0138874
0.0138879
0.0138887
0.0138895
0.0138902
0.0138909
0.0138914
0.0138918
0.0138919
0.0138915
0.0138907
0.0138893
0.0138877
0.0138859
0.013884
0.0138825
0.0138179
0.0138262
0.0138241
0.0138179
0.0138075
0.0137909
0.0137701
0.0137452
0.0137171
0.0136865
0.0136587
0.0136375
0.0136258
0.0136246
0.0136313
0.0136451
0.013664
0.0136848
0.0137078
0.0137318
0.0137539
0.0137764
0.0137993
0.0138214
0.0138364
0.0138484
0.013858
0.0138653
0.0138708
0.013875
0.0138783
0.0138809
0.0138822
0.0138833
0.0138844
0.0138854
0.0138864
0.0138873
0.0138882
0.013889
0.0138898
0.0138904
0.0138909
0.0138912
0.0138914
0.0138913
0.0138911
0.0138908
0.0138903
0.0138899
0.0138864
0.0138908
0.0138899
0.0138871
0.0138828
0.0138752
0.0138655
0.0138538
0.0138403
0.0138245
0.0138095
0.0137966
0.0137874
0.0137825
0.0137825
0.0137852
0.0137908
0.013799
0.0138076
0.0138175
0.0138284
0.0138376
0.0138471
0.0138576
0.0138678
0.0138738
0.0138791
0.0138837
0.0138875
0.0138906
0.013892
0.0138935
0.013895
0.0138964
0.0138978
0.0138991
0.0139003
0.0139014
0.0139024
0.0139033
0.0139041
0.0139048
0.0139054
0.0139059
0.0139064
0.0139067
0.0139069
0.0139071
0.0139072
0.0139073
0.0139203
0.0139226
0.0139223
0.0139211
0.0139194
0.0139159
0.0139114
0.0139062
0.0138996
0.0138926
0.0138855
0.0138786
0.0138728
0.0138685
0.0138658
0.0138654
0.0138654
0.0138667
0.0138696
0.0138722
0.0138758
0.0138803
0.0138836
0.0138876
0.0138928
0.0138986
0.0139022
0.0139048
0.0139068
0.0139087
0.0139106
0.0139123
0.0139139
0.0139154
0.0139168
0.0139181
0.0139192
0.0139202
0.0139211
0.0139219
0.0139226
0.0139232
0.0139238
0.0139243
0.0139247
0.013925
0.0139251
0.0139254
0.0139256
0.0139258
0.0139396
0.0139411
0.0139411
0.0139405
0.0139398
0.0139379
0.0139354
0.0139328
0.0139293
0.0139257
0.013922
0.0139176
0.0139139
0.0139112
0.0139086
0.0139066
0.0139054
0.0139052
0.0139052
0.0139063
0.013907
0.0139085
0.0139108
0.0139124
0.0139149
0.0139182
0.0139211
0.0139234
0.0139253
0.0139272
0.013929
0.0139306
0.013932
0.0139333
0.0139345
0.0139356
0.0139365
0.0139373
0.0139377
0.0139382
0.0139387
0.0139392
0.0139396
0.0139401
0.0139407
0.0139411
0.0139411
0.0139412
0.0139414
0.0139417
0.0139529
0.013954
0.0139542
0.0139538
0.0139534
0.0139522
0.0139507
0.0139491
0.0139469
0.0139447
0.0139424
0.0139394
0.0139369
0.0139345
0.0139324
0.013931
0.0139296
0.0139287
0.0139284
0.0139283
0.0139289
0.0139293
0.0139304
0.0139321
0.0139335
0.0139355
0.0139376
0.0139395
0.0139413
0.0139429
0.0139444
0.0139458
0.013947
0.013948
0.013949
0.0139494
0.01395
0.0139506
0.0139512
0.0139516
0.0139521
0.0139525
0.0139529
0.0139532
0.0139537
0.013954
0.013954
0.013954
0.0139541
0.0139544
0.013963
0.0139638
0.013964
0.0139639
0.0139636
0.0139628
0.0139618
0.0139607
0.0139592
0.0139577
0.0139558
0.0139539
0.0139521
0.0139504
0.0139487
0.0139472
0.0139463
0.0139454
0.0139447
0.0139446
0.0139446
0.0139453
0.0139457
0.0139468
0.0139483
0.0139496
0.0139512
0.0139528
0.0139542
0.0139556
0.0139568
0.0139578
0.0139584
0.0139591
0.0139598
0.0139604
0.0139609
0.0139614
0.0139619
0.0139623
0.0139626
0.0139629
0.0139632
0.0139635
0.0139636
0.013964
0.013964
0.013964
0.0139641
0.0139643
0.0139708
0.0139715
0.0139717
0.0139718
0.0139715
0.0139709
0.0139704
0.0139695
0.0139684
0.0139673
0.0139659
0.0139646
0.0139633
0.013962
0.0139607
0.0139595
0.0139584
0.0139579
0.0139573
0.0139569
0.013957
0.0139572
0.0139578
0.0139584
0.0139594
0.0139608
0.013962
0.0139632
0.0139644
0.0139654
0.013966
0.0139667
0.0139673
0.0139679
0.0139685
0.013969
0.0139694
0.0139698
0.0139702
0.0139705
0.0139708
0.013971
0.0139712
0.0139713
0.0139714
0.0139716
0.0139717
0.0139718
0.0139718
0.0139719
0.0139769
0.0139775
0.0139777
0.0139778
0.0139776
0.0139772
0.0139769
0.0139762
0.0139754
0.0139747
0.0139736
0.0139727
0.0139718
0.0139705
0.0139695
0.0139688
0.013968
0.0139673
0.013967
0.0139666
0.0139664
0.0139667
0.0139669
0.0139676
0.0139682
0.0139691
0.0139704
0.0139711
0.0139719
0.0139726
0.0139732
0.0139738
0.0139744
0.0139749
0.0139753
0.0139757
0.0139761
0.0139764
0.0139767
0.0139769
0.0139771
0.0139772
0.0139773
0.0139774
0.0139775
0.0139776
0.0139778
0.0139778
0.0139779
0.013978
0.0139817
0.0139822
0.0139825
0.0139825
0.0139823
0.0139821
0.0139819
0.0139814
0.013981
0.0139803
0.0139796
0.0139789
0.0139782
0.0139773
0.0139765
0.0139758
0.0139751
0.0139747
0.0139742
0.0139741
0.0139739
0.0139739
0.0139742
0.0139745
0.0139752
0.0139758
0.0139765
0.0139772
0.0139778
0.0139785
0.013979
0.0139795
0.01398
0.0139803
0.0139807
0.0139809
0.0139811
0.0139813
0.0139815
0.0139817
0.0139819
0.013982
0.0139821
0.0139822
0.0139823
0.0139824
0.0139825
0.0139826
0.0139826
0.0139827
0.0139855
0.0139859
0.0139861
0.0139862
0.0139861
0.013986
0.0139858
0.0139854
0.0139851
0.0139846
0.0139842
0.0139836
0.0139831
0.0139824
0.0139818
0.0139813
0.0139808
0.0139803
0.0139801
0.0139798
0.0139798
0.0139797
0.0139799
0.0139801
0.0139804
0.013981
0.0139815
0.0139821
0.0139826
0.0139831
0.0139836
0.013984
0.0139842
0.0139844
0.0139847
0.0139849
0.0139851
0.0139853
0.0139855
0.0139857
0.0139857
0.0139858
0.013986
0.013986
0.0139861
0.0139861
0.0139862
0.0139863
0.0139863
0.0139863
0.0139886
0.0139888
0.013989
0.0139891
0.013989
0.013989
0.0139888
0.0139886
0.0139883
0.013988
0.0139877
0.0139873
0.0139869
0.0139864
0.013986
0.0139855
0.0139851
0.0139848
0.0139844
0.0139843
0.0139841
0.0139842
0.0139842
0.0139845
0.0139847
0.013985
0.0139856
0.013986
0.0139864
0.0139867
0.013987
0.0139873
0.0139875
0.0139878
0.013988
0.0139882
0.0139883
0.0139885
0.0139886
0.0139887
0.0139887
0.0139888
0.0139889
0.013989
0.013989
0.0139891
0.0139891
0.0139892
0.0139892
0.0139892
0.0139909
0.0139911
0.0139913
0.0139913
0.0139914
0.0139913
0.0139912
0.0139911
0.0139909
0.0139906
0.0139904
0.0139901
0.0139898
0.0139894
0.0139891
0.0139888
0.0139885
0.0139882
0.0139879
0.0139877
0.0139877
0.0139876
0.0139877
0.0139878
0.013988
0.0139883
0.0139886
0.0139889
0.0139892
0.0139895
0.0139897
0.01399
0.0139902
0.0139904
0.0139905
0.0139907
0.0139908
0.0139909
0.013991
0.013991
0.0139911
0.0139912
0.0139912
0.0139913
0.0139913
0.0139914
0.0139914
0.0139914
0.0139915
0.0139915
0.0139928
0.013993
0.0139931
0.0139932
0.0139932
0.0139931
0.0139931
0.013993
0.0139928
0.0139927
0.0139925
0.0139922
0.013992
0.0139918
0.0139915
0.0139913
0.0139911
0.0139909
0.0139907
0.0139905
0.0139904
0.0139903
0.0139903
0.0139904
0.0139906
0.0139908
0.013991
0.0139913
0.0139915
0.0139917
0.0139919
0.0139921
0.0139923
0.0139924
0.0139925
0.0139926
0.0139927
0.0139928
0.0139928
0.0139929
0.013993
0.0139931
0.0139931
0.0139931
0.0139932
0.0139932
0.0139932
0.0139932
0.0139933
0.0139933
0.0139943
0.0139944
0.0139945
0.0139946
0.0139946
0.0139946
0.0139945
0.0139944
0.0139944
0.0139942
0.0139941
0.013994
0.0139938
0.0139936
0.0139934
0.0139932
0.0139931
0.0139929
0.0139927
0.0139926
0.0139925
0.0139925
0.0139925
0.0139925
0.0139926
0.0139927
0.013993
0.0139931
0.0139933
0.0139935
0.0139936
0.0139937
0.0139939
0.013994
0.0139941
0.0139942
0.0139943
0.0139943
0.0139943
0.0139944
0.0139944
0.0139945
0.0139945
0.0139945
0.0139946
0.0139946
0.0139946
0.0139946
0.0139947
0.0139947
0.0139955
0.0139956
0.0139956
0.0139957
0.0139957
0.0139957
0.0139957
0.0139956
0.0139956
0.0139955
0.0139954
0.0139953
0.0139952
0.013995
0.0139949
0.0139947
0.0139946
0.0139945
0.0139944
0.0139943
0.0139942
0.0139941
0.0139941
0.0139941
0.0139942
0.0139943
0.0139944
0.0139946
0.0139947
0.0139948
0.0139949
0.0139951
0.0139952
0.0139953
0.0139953
0.0139954
0.0139955
0.0139955
0.0139955
0.0139956
0.0139956
0.0139956
0.0139957
0.0139957
0.0139957
0.0139957
0.0139957
0.0139958
0.0139958
0.0139958
0.0139964
0.0139965
0.0139965
0.0139966
0.0139966
0.0139966
0.0139966
0.0139966
0.0139965
0.0139965
0.0139964
0.0139963
0.0139962
0.0139961
0.013996
0.0139959
0.0139958
0.0139957
0.0139956
0.0139955
0.0139955
0.0139954
0.0139954
0.0139954
0.0139954
0.0139955
0.0139956
0.0139957
0.0139958
0.0139959
0.013996
0.0139961
0.0139962
0.0139963
0.0139963
0.0139963
0.0139964
0.0139964
0.0139965
0.0139965
0.0139965
0.0139966
0.0139966
0.0139966
0.0139966
0.0139966
0.0139966
0.0139966
0.0139967
0.0139967
0.0139971
0.0139972
0.0139972
0.0139973
0.0139973
0.0139973
0.0139973
0.0139973
0.0139972
0.0139972
0.0139971
0.0139971
0.013997
0.013997
0.0139969
0.0139968
0.0139967
0.0139966
0.0139966
0.0139965
0.0139965
0.0139964
0.0139964
0.0139964
0.0139964
0.0139965
0.0139966
0.0139966
0.0139967
0.0139968
0.0139969
0.0139969
0.013997
0.013997
0.0139971
0.0139971
0.0139971
0.0139972
0.0139972
0.0139972
0.0139973
0.0139973
0.0139973
0.0139973
0.0139973
0.0139973
0.0139973
0.0139973
0.0139974
0.0139974
0.0139977
0.0139978
0.0139978
0.0139978
0.0139979
0.0139979
0.0139979
0.0139979
0.0139978
0.0139978
0.0139978
0.0139977
0.0139977
0.0139976
0.0139976
0.0139975
0.0139974
0.0139974
0.0139973
0.0139973
0.0139972
0.0139972
0.0139972
0.0139972
0.0139972
0.0139972
0.0139973
0.0139974
0.0139974
0.0139975
0.0139975
0.0139976
0.0139976
0.0139976
0.0139977
0.0139977
0.0139977
0.0139978
0.0139978
0.0139978
0.0139978
0.0139978
0.0139978
0.0139979
0.0139979
0.0139979
0.0139979
0.0139979
0.0139979
0.0139979
0.0139982
0.0139982
0.0139983
0.0139983
0.0139983
0.0139983
0.0139983
0.0139983
0.0139983
0.0139983
0.0139982
0.0139982
0.0139982
0.0139981
0.0139981
0.013998
0.013998
0.013998
0.0139979
0.0139979
0.0139978
0.0139978
0.0139978
0.0139978
0.0139978
0.0139978
0.0139979
0.0139979
0.0139979
0.013998
0.013998
0.0139981
0.0139981
0.0139981
0.0139981
0.0139982
0.0139982
0.0139982
0.0139982
0.0139983
0.0139983
0.0139983
0.0139983
0.0139983
0.0139983
0.0139983
0.0139983
0.0139983
0.0139983
0.0139983
0.0139986
0.0139986
0.0139986
0.0139986
0.0139986
0.0139986
0.0139987
0.0139987
0.0139986
0.0139986
0.0139986
0.0139986
0.0139986
0.0139985
0.0139985
0.0139985
0.0139984
0.0139984
0.0139984
0.0139983
0.0139983
0.0139983
0.0139983
0.0139983
0.0139983
0.0139983
0.0139983
0.0139984
0.0139984
0.0139984
0.0139984
0.0139985
0.0139985
0.0139985
0.0139985
0.0139986
0.0139986
0.0139986
0.0139986
0.0139986
0.0139986
0.0139986
0.0139986
0.0139986
0.0139987
0.0139987
0.0139987
0.0139987
0.0139987
0.0139987
0.0139988
0.0139989
0.0139989
0.0139989
0.0139989
0.0139989
0.0139989
0.0139989
0.0139989
0.0139989
0.0139989
0.0139989
0.0139989
0.0139988
0.0139988
0.0139988
0.0139988
0.0139987
0.0139987
0.0139987
0.0139987
0.0139987
0.0139987
0.0139987
0.0139987
0.0139987
0.0139987
0.0139987
0.0139987
0.0139988
0.0139988
0.0139988
0.0139988
0.0139988
0.0139988
0.0139989
0.0139989
0.0139989
0.0139989
0.0139989
0.0139989
0.0139989
0.0139989
0.0139989
0.0139989
0.0139989
0.0139989
0.0139989
0.0139989
0.013999
0.0139991
0.0139991
0.0139991
0.0139991
0.0139991
0.0139991
0.0139991
0.0139991
0.0139991
0.0139991
0.0139991
0.0139991
0.0139991
0.0139991
0.0139991
0.0139991
0.013999
0.013999
0.013999
0.013999
0.013999
0.013999
0.0139989
0.0139989
0.0139989
0.013999
0.013999
0.013999
0.013999
0.013999
0.013999
0.013999
0.0139991
0.0139991
0.0139991
0.0139991
0.0139991
0.0139991
0.0139991
0.0139991
0.0139991
0.0139991
0.0139991
0.0139991
0.0139991
0.0139992
0.0139992
0.0139992
0.0139992
0.0139992
0.0139993
0.0139993
0.0139993
0.0139993
0.0139993
0.0139993
0.0139993
0.0139993
0.0139993
0.0139993
0.0139993
0.0139993
0.0139993
0.0139993
0.0139993
0.0139992
0.0139992
0.0139992
0.0139992
0.0139992
0.0139992
0.0139992
0.0139992
0.0139992
0.0139992
0.0139992
0.0139992
0.0139992
0.0139992
0.0139992
0.0139992
0.0139993
0.0139993
0.0139993
0.0139993
0.0139993
0.0139993
0.0139993
0.0139993
0.0139993
0.0139993
0.0139993
0.0139993
0.0139993
0.0139993
0.0139993
0.0139993
0.0139993
0.0139993
0.0139993
0.0139994
0.0139994
0.0139994
0.0139994
0.0139994
0.0139995
0.0139995
0.0139995
0.0139995
0.0139994
0.0139994
0.0139994
0.0139994
0.0139994
0.0139994
0.0139994
0.0139994
0.0139994
0.0139994
0.0139994
0.0139994
0.0139994
0.0139994
0.0139994
0.0139994
0.0139994
0.0139994
0.0139994
0.0139994
0.0139994
0.0139994
0.0139994
0.0139994
0.0139994
0.0139994
0.0139994
0.0139994
0.0139994
0.0139994
0.0139994
0.0139994
0.0139994
0.0139995
0.0139995
0.0139995
0.0139995
0.0139995
0.0139995
0.0139995
0.0139995
0.0139995
0.0139995
0.0139996
0.0139996
0.0139996
0.0139996
0.0139996
0.0139996
0.0139996
0.0139996
0.0139996
0.0139996
0.0139995
0.0139995
0.0139995
0.0139995
0.0139995
0.0139995
0.0139995
0.0139995
0.0139995
0.0139995
0.0139995
0.0139995
0.0139995
0.0139995
0.0139995
0.0139995
0.0139995
0.0139995
0.0139995
0.0139995
0.0139995
0.0139995
0.0139995
0.0139995
0.0139995
0.0139996
0.0139996
0.0139996
0.0139996
0.0139996
0.0139996
0.0139996
0.0139996
0.0139996
0.0139996
0.0139996
0.0139996
0.0139996
0.0139996
0.0139996
0.0139996
0.0139996
0.0139996
0.0139996
0.0139997
0.0139996
0.0139996
0.0139996
0.0139996
0.0139996
0.0139996
0.0139996
0.0139996
0.0139996
0.0139996
0.0139996
0.0139996
0.0139996
0.0139996
0.0139996
0.0139996
0.0139996
0.0139996
0.0139996
0.0139996
0.0139996
0.0139996
0.0139996
0.0139996
0.0139996
0.0139996
0.0139996
0.0139996
0.0139996
0.0139996
0.0139996
0.0139996
0.0139996
0.0139996
0.0139997
0.0139997
0.0139997
0.0139997
0.0139997
0.0139997
0.0139997
0.0139997
0.0139997
0.0139997
0.0139997
0.0139997
0.0139997
0.0139997
0.0139997
0.0139997
0.0139997
0.0139997
0.0139997
0.0139997
0.0139997
0.0139997
0.0139997
0.0139997
0.0139997
0.0139997
0.0139997
0.0139997
0.0139997
0.0139997
0.0139997
0.0139997
0.0139997
0.0139997
0.0139997
0.0139997
0.0139997
0.0139997
0.0139997
0.0139997
0.0139997
0.0139997
0.0139997
0.0139997
0.0139997
0.0139997
0.0139997
0.0139997
0.0139997
0.0139997
0.0139997
0.0139997
0.0139997
0.0139997
0.0139997
0.0139997
0.0139997
0.0139997
0.0139997
0.0139998
0.0139998
0.0139998
0.0139998
0.0139998
0.0139998
0.0139998
0.0139998
0.0139998
0.0139998
0.0139998
0.0139998
0.0139998
0.0139998
0.0139998
0.0139998
0.0139998
0.0139998
0.0139998
0.0139998
0.0139998
0.0139998
0.0139998
0.0139997
0.0139998
0.0139998
0.0139998
0.0139998
0.0139998
0.0139998
0.0139998
0.0139998
0.0139998
0.0139998
0.0139998
0.0139998
0.0139998
0.0139998
0.0139998
0.0139998
0.0139998
0.0139998
0.0139998
0.0139998
0.0139998
0.0139998
0.0139998
0.0139998
0.0139998
0.0139998
0.0139998
0.0139998
0.0139998
0.0139998
0.0139998
0.0139998
0.0139998
0.0139998
0.0139998
0.0139998
0.0139998
0.0139998
0.0139998
0.0139998
0.0139998
0.0139998
0.0139998
0.0139998
0.0139998
0.0139998
0.0139998
0.0139998
0.0139998
0.0139998
0.0139998
0.0139998
0.0139998
0.0139998
0.0139998
0.0139998
0.0139998
0.0139998
0.0139998
0.0139998
0.0139998
0.0139998
0.0139998
0.0139998
0.0139998
0.0139998
0.0139998
0.0139998
0.0139998
0.0139998
0.0139998
0.0139998
0.0139998
0.0139998
0.0139998
0.0139998
0.0139998
0.0139998
0.0139999
0.0139999
0.0139999
0.0139999
0.0139999
0.0139999
0.0139999
0.0139999
0.0139999
0.0139999
0.0139999
0.0139998
0.0139998
0.0139998
0.0139998
0.0139998
0.0139998
0.0139998
0.0139998
0.0139998
0.0139998
0.0139998
0.0139998
0.0139998
0.0139998
0.0139998
0.0139998
0.0139998
0.0139998
0.0139998
0.0139999
0.0139999
0.0139999
0.0139999
0.0139999
0.0139999
0.0139999
0.0139999
0.0139999
0.0139999
0.0139999
0.0139999
0.0139999
0.0139999
0.0139999
0.0139999
0.0139999
0.0139999
0.0139999
0.0139999
0.0139999
0.0139999
0.0139999
0.0139999
0.0139999
0.0139999
0.0139999
0.0139999
0.0139999
0.0139999
0.0139999
0.0139999
0.0139999
0.0139999
0.0139999
0.0139999
0.0139999
0.0139999
0.0139999
0.0139999
0.0139999
0.0139999
0.0139999
0.0139999
0.0139999
0.0139999
0.0139999
0.0139999
0.0139999
0.0139999
0.0139999
0.0139999
0.0139999
0.0139999
0.0139999
0.0139999
0.0139999
0.0139999
0.0139999
0.0139999
0.0139999
0.0139999
0.0139999
0.0139999
0.0139999
0.0139999
0.0139999
0.0139999
0.0139999
0.0139999
0.0139999
0.0139999
0.0139999
0.0139999
0.0139999
0.0139999
0.0139999
0.0139999
0.0139999
0.0139999
0.0139999
0.0139999
0.0139999
0.0139999
0.0139999
0.0139999
0.0139999
0.0139999
0.0139999
0.0139999
0.0139999
0.0139999
0.0139999
0.0139999
0.0139999
0.0139999
0.0139999
0.0139999
0.0139999
0.0139999
0.0139999
0.0139999
0.0139999
0.0139999
0.0139999
0.0139999
0.0139999
0.0139999
0.0139999
0.0139999
0.0139999
0.0139999
0.0139999
0.0139999
0.0139999
0.0139999
0.0139999
0.0139999
0.0139999
0.0139999
0.0139999
0.0139999
0.0139999
0.0139999
0.0139999
0.0139999
0.0139999
0.0139999
0.0139999
0.0139999
0.0139999
0.0139999
0.0139999
0.0139999
0.0139999
0.0139999
0.0139999
0.0139999
0.0139999
0.0139999
0.0139999
0.0139999
0.0139999
0.0139999
0.0139999
0.0139999
0.0139999
0.0139999
0.0139999
0.0139999
0.0139999
0.0139999
0.0139999
0.0139999
0.0139999
0.0139999
0.0139999
0.0139999
0.0139999
0.0139999
0.0139999
0.0139999
0.0139999
0.0139999
0.0139999
0.0139999
0.0139999
0.0139999
0.0139999
0.0139999
0.0139999
0.0139999
0.0139999
0.0139999
0.0139999
0.0139999
0.0139999
0.0139999
0.0139999
0.0139999
0.0139999
0.0139999
0.0139999
0.0139999
0.0139999
0.0139999
0.0139999
0.0139999
0.0139999
0.0139999
0.0139999
0.0139999
0.0139999
0.0139999
0.0139999
0.0139999
0.0139999
0.0139999
0.0139999
0.0139999
0.0139999
0.0139999
0.0139999
0.0139999
0.0139999
0.0139999
0.0139999
0.0139999
0.0139999
0.0139999
0.0139999
0.0139999
0.0139999
0.0139999
0.0139999
0.0139999
0.0139999
0.0139999
0.0139999
0.0139999
0.0139999
0.0139999
0.0139999
0.0139999
0.0139999
0.0139999
0.0139999
0.0139999
0.0139999
0.0139999
0.0139999
0.0139999
0.0139999
0.0139999
0.0139999
0.0139999
0.0139999
0.0139999
0.0139999
0.0139999
0.0139999
0.0139999
0.0139999
0.0139999
0.0139999
0.0139999
0.0139999
0.0139999
0.0139999
0.0139999
0.0139999
0.0139999
0.0139999
0.0139999
0.0139999
0.0139999
0.0139999
0.0139999
0.0139999
0.014
0.014
0.014
0.014
0.014
0.014
0.014
0.014
0.014
0.014
0.014
0.014
0.014
0.014
0.014
0.014
0.014
0.014
0.014
0.014
0.014
0.014
0.014
0.014
0.014
0.014
0.014
0.014
0.014
0.014
0.014
0.014
0.014
0.014
0.014
0.014
0.014
0.014
0.014
0.014
0.014
0.014
0.014
0.014
0.014
0.014
0.014
0.014
0.014
0.014
0.014
0.014
0.014
0.014
0.014
0.014
0.014
0.014
0.014
0.014
0.014
0.014
0.014
0.014
0.014
0.014
0.014
0.014
0.014
0.014
0.014
0.014
0.014
0.014
0.014
0.014
0.014
0.014
0.014
0.014
0.014
0.014
0.014
0.014
0.014
0.014
0.014
0.014
0.014
0.014
0.014
0.014
0.014
0.014
0.014
0.014
0.014
0.014
0.014
0.014
0.014
0.014
0.014
0.014
0.014
0.014
0.014
0.014
0.014
0.014
0.014
0.014
0.014
0.014
0.014
0.014
0.014
0.014
0.014
0.014
0.014
0.014
0.014
0.014
0.014
0.014
0.014
0.014
0.014
0.014
0.014
0.014
0.014
0.014
0.014
0.014
0.014
0.014
0.014
0.014
0.014
0.014
0.014
0.014
0.014
0.014
0.014
0.014
0.014
0.014
0.014
0.014
0.014
0.014
0.014
0.014
0.014
0.014
0.014
0.014
0.014
0.014
0.014
0.014
0.014
0.014
0.014
0.014
0.014
0.014
0.014
0.014
0.014
0.014
0.014
0.014
0.014
0.014
0.014
0.014
0.014
0.014
0.014
0.014
0.014
0.014
0.014
0.014
0.014
0.014
0.014
0.014
0.014
0.014
0.014
0.014
0.014
0.014
0.014
0.014
0.014
0.014
0.014
0.014
0.014
0.014
0.014
0.014
0.014
0.014
0.014
0.014
0.014
0.014
0.014
0.014
0.014
0.014
0.014
0.014
0.014
0.014
0.014
0.014
0.014
0.014
0.014
0.014
0.014
0.014
0.014
0.014
0.014
0.014
0.014
0.014
0.014
0.014
0.014
0.014
0.014
0.014
0.014
0.014
0.014
0.014
0.014
0.014
0.014
0.014
0.014
0.014
0.014
0.014
0.014
0.014
0.014
0.014
0.014
0.014
0.014
0.014
0.014
0.014
0.014
0.014
0.014
0.014
0.014
0.014
0.014
0.014
0.014
0.014
0.014
0.014
0.014
0.014
0.014
0.014
0.014
0.014
0.014
0.014
0.014
0.014
0.014
0.014
0.014
0.014
0.014
0.014
0.014
0.014
0.014
0.014
0.014
0.014
0.014
0.014
0.014
0.014
0.014
0.014
0.014
0.014
0.014
0.014
0.014
0.014
0.014
0.014
0.014
0.014
0.014
0.014
0.014
0.014
0.014
0.014
0.014
0.014
0.014
0.014
0.014
0.014
0.014
0.014
0.014
0.014
0.014
0.014
0.014
0.014
0.014
0.014
0.014
0.014
0.014
0.014
0.014
0.014
0.014
0.014
0.014
0.014
0.014
0.014
0.014
0.014
0.014
0.014
0.014
0.014
0.014
0.014
0.014
0.014
0.014
0.000377958
0.000375617
0.000367223
0.000363017
0.000360777
0.000360013
0.000360037
0.000361084
0.000362791
0.000366426
0.00037063
0.000381077
0.000387427
0.00042377
0.000426376
0.0018175
0.00183568
0.00182712
0.00181887
0.001813
0.00181054
0.00181051
0.00181285
0.00181726
0.0018253
0.00183645
0.00185669
0.0018823
0.00193783
0.00200338
0.0035513
0.00358204
0.0035756
0.00356619
0.00355858
0.00355514
0.00355516
0.00355856
0.00356504
0.00357615
0.00359143
0.003616
0.00364776
0.00370252
0.0037753
0.00537619
0.00541336
0.00541364
0.00540592
0.00539838
0.0053944
0.00539426