/*--------------------------------*- C++ -*----------------------------------*\
  =========                 |
  \\      /  F ield         | OpenFOAM: The Open Source CFD Toolbox
   \\    /   O peration     | Website:  https://openfoam.org
    \\  /    A nd           | Version:  10
     \\/     M anipulation  |
\*---------------------------------------------------------------------------*/
FoamFile
{
    format      ascii;
    class       surfaceScalarField;
    location    "0.0002";
    object      phi;
}
// * * * * * * * * * * * * * * * * * * * * * * * * * * * * * * * * * * * * * //

dimensions      [1 0 -1 0 0 0 0];

internalField   nonuniform List<scalar> 
26421
(
0.000697953
-0.000679041
-2.13827e-10
0.00130039
-0.000581237
0.00171833
-0.000395031
0.00195251
-0.000209395
0.00208861
-0.00010789
0.00217082
-5.23144e-05
0.00223063
-2.82598e-05
0.00228377
-1.28643e-05
0.00233897
-7.44044e-06
0.00239105
3.6222e-06
0.00242894
1.43031e-05
0.00243777
2.2146e-05
0.00242469
2.51378e-05
0.00240156
2.15414e-05
0.00237801
1.62638e-05
0.00235912
1.06432e-05
0.00234625
5.64469e-06
0.00233932
3.17017e-07
0.00233802
-4.25399e-06
0.00234131
-7.86465e-06
0.0023489
-1.17925e-05
0.0023612
-1.61693e-05
0.00237881
-2.16425e-05
0.00240298
-2.8415e-05
0.00243574
-3.67675e-05
0.00247526
-4.23556e-05
0.00251669
-4.2699e-05
0.00255776
-4.12208e-05
0.00259705
-3.8772e-05
0.00263378
-3.60531e-05
0.00266764
-3.31804e-05
0.00269857
-3.03545e-05
0.00272666
-2.76048e-05
0.002752
-2.50522e-05
0.00277447
-2.26141e-05
0.00279325
-2.02703e-05
0.00280586
-1.76962e-05
0.0028077
-1.41377e-05
0.00279428
-1.01149e-05
0.00276722
-4.60239e-06
0.00273664
1.17158e-06
0.00271522
6.66095e-06
0.00270556
1.03466e-05
0.00270313
1.36845e-05
0.00270547
1.89447e-05
0.00271605
2.2237e-05
0.0027183
3.39327e-05
0.00270589
3.80816e-05
0.00261756
9.65179e-05
9.49392e-05
0.00251495
0.000616847
-0.00127395
2.30304e-11
0.00119338
-0.00113342
0.00167436
-0.000849967
0.00201357
-0.000520747
0.00223456
-0.000297082
0.00237907
-0.000162796
0.00247974
-9.39302e-05
0.00255892
-4.74997e-05
0.00262784
-2.30897e-05
0.00268806
6.76457e-06
0.00273147
3.31845e-05
0.00274397
4.99338e-05
0.00273145
5.45309e-05
0.00270742
4.51709e-05
0.00268279
3.29017e-05
0.00266314
2.05134e-05
0.00265012
1.00609e-05
0.00264299
-2.39467e-07
0.00264147
-9.0845e-06
0.00264531
-1.70897e-05
0.00265417
-2.55764e-05
0.00266819
-3.48843e-05
0.00268816
-4.62777e-05
0.0027153
-6.03389e-05
0.00275157
-7.74343e-05
0.00279523
-8.92049e-05
0.00284113
-9.03872e-05
0.00288667
-8.74158e-05
0.00293023
-8.22052e-05
0.00297098
-7.63468e-05
0.00300852
-7.01439e-05
0.00304282
-6.4064e-05
0.00307396
-5.81822e-05
0.00310206
-5.27438e-05
0.00312704
-4.75805e-05
0.00314814
-4.27006e-05
0.00316288
-3.75042e-05
0.00316649
-3.09663e-05
0.0031537
-2.2265e-05
0.00312511
-1.00259e-05
0.00309066
3.13306e-06
0.00306504
1.4318e-05
0.00305217
2.31424e-05
0.00304827
2.95374e-05
0.0030496
4.03198e-05
0.00306184
4.55199e-05
0.00306901
6.72213e-05
0.00306414
7.31903e-05
0.00302369
0.000148751
0.000162055
0.00295011
0.000600429
-0.00184821
6.73156e-11
0.00118478
-0.00168906
0.00169931
-0.00133408
0.00210798
-0.000897455
0.00240588
-0.00055912
0.00260855
-0.00032727
0.00274696
-0.000192886
0.00285252
-0.000103592
0.00294291
-5.31154e-05
0.00302282
1.2264e-06
0.00308203
4.6339e-05
0.00310135
7.78848e-05
0.00308807
8.94559e-05
0.00305832
7.72211e-05
0.00302654
5.79186e-05
0.00300049
3.76153e-05
0.0029825
1.78622e-05
0.00297237
7.96275e-07
0.00296966
-1.34765e-05
0.00297298
-2.60017e-05
0.00298175
-3.9201e-05
0.00299639
-5.41326e-05
0.00301772
-7.26104e-05
0.00304714
-9.51514e-05
0.00308697
-0.000122347
0.0031352
-0.000141075
0.003186
-0.000143169
0.00323653
-0.00013838
0.00328492
-0.000129991
0.00333019
-0.000120503
0.00337193
-0.000110583
0.00341006
-0.000100923
0.00344469
-9.16685e-05
0.00347595
-8.3137e-05
0.00350373
-7.50437e-05
0.00352723
-6.74309e-05
0.00354377
-5.9454e-05
0.00354814
-4.94203e-05
0.00353428
-3.62792e-05
0.00350276
-1.67876e-05
0.0034648
5.20455e-06
0.00343647
2.28115e-05
0.0034223
3.73411e-05
0.00341846
4.63402e-05
0.00342107
6.27209e-05
0.00343627
6.95578e-05
0.00344942
9.94269e-05
0.00344912
0.000108231
0.00341859
0.000193438
0.000215567
0.0033586
0.000576569
-0.00239347
8.21686e-11
0.00115828
-0.00223676
0.00170721
-0.00184718
0.0021759
-0.00132959
0.00254539
-0.000887925
0.00281547
-0.000554174
0.00300523
-0.000338729
0.00314714
-0.000190941
0.0032613
-9.93528e-05
0.00335989
-1.22146e-05
0.0034327
5.92029e-05
0.00346097
0.00010893
0.00345097
0.000127431
0.00342024
0.000112292
0.00338611
8.53821e-05
0.00335766
5.6596e-05
0.00333812
2.71803e-05
0.00332711
3.41937e-06
0.00332384
-1.67086e-05
0.00332755
-3.58317e-05
0.00333767
-5.50945e-05
0.00335439
-7.67046e-05
0.00337865
-0.000102841
0.00341189
-0.000134266
0.00345658
-0.00017207
0.00351052
-0.000198048
0.00356731
-0.000201331
0.00362377
-0.000195068
0.00367781
-0.000183555
0.00372835
-0.000170306
0.00377494
-0.000156459
0.0038175
-0.000142932
0.00385615
-0.00013003
0.00389105
-0.000118089
0.00392213
-0.000106724
0.00394861
-9.59295e-05
0.00396766
-8.45444e-05
0.0039737
-7.10369e-05
0.00396042
-5.27597e-05
0.00392739
-2.69138e-05
0.00388533
3.39381e-06
0.00385265
2.97759e-05
0.00383614
5.11762e-05
0.00383154
6.37556e-05
0.00383482
8.4798e-05
0.00385213
9.37209e-05
0.0038733
0.000127952
0.00388234
0.000139079
0.00387357
0.000219991
0.000247448
0.0038365
0.000572222
-0.00292908
4.54335e-11
0.00115835
-0.00278329
0.00173356
-0.00238094
0.00225377
-0.00180787
0.0026922
-0.00128025
0.00303175
-0.000844617
0.00328118
-0.000537479
0.00347034
-0.000319726
0.00362231
-0.000175333
0.00375041
-4.81181e-05
0.00384752
6.07909e-05
0.0038902
0.000138232
0.00388342
0.000168348
0.00384898
0.000151742
0.00380798
0.000116757
0.00377286
7.74926e-05
0.00374774
3.75637e-05
0.00373317
4.98038e-06
0.00372834
-2.03572e-05
0.00373139
-4.6351e-05
0.00374176
-7.21508e-05
0.00375974
-0.000100958
0.00378629
-0.000135758
0.00382289
-0.000177439
0.00387236
-0.000228597
0.00393226
-0.000263525
0.00399538
-0.000268632
0.00405821
-0.000260926
0.00411843
-0.000245958
0.00417481
-0.000228025
0.00422681
-0.0002091
0.00427434
-0.000190484
0.00431751
-0.000172907
0.0043565
-0.000156595
0.00439127
-0.000141231
0.00442102
-0.000126821
0.00444288
-0.000112098
0.00445104
-9.46107e-05
0.00443772
-7.01762e-05
0.00440187
-3.74261e-05
0.00435566
2.30605e-06
0.00431924
3.77626e-05
0.00430071
6.64615e-05
0.0042957
8.26566e-05
0.00430044
0.000108283
0.00432088
0.00012014
0.0043504
0.000156404
0.00436892
0.000169482
0.00437281
0.000240531
0.00026654
0.00435196
0.000571167
-0.00345719
1.00472e-11
0.00116047
-0.00332638
0.00175469
-0.00292715
0.00231576
-0.00232078
0.00281664
-0.00172895
0.0032284
-0.00120241
0.00354424
-0.000796535
0.00378836
-0.000496539
0.00398549
-0.000286231
0.0041508
-0.000104747
0.00427769
5.09593e-05
0.00434041
0.00016588
0.00434195
0.000216174
0.00430702
0.000202426
0.00426192
0.000160134
0.00422221
0.000110234
0.00419384
6.12873e-05
0.00417764
2.06195e-05
0.00417226
-1.20191e-05
0.004176
-4.93066e-05
0.00418804
-8.54073e-05
0.00420855
-0.000125039
0.00423853
-0.000172352
0.00427968
-0.000227044
0.00433512
-0.000293351
0.00440214
-0.000337097
0.00447275
-0.000342767
0.00454303
-0.000332173
0.00461039
-0.000312698
0.00467344
-0.000289373
0.00473161
-0.000265044
0.00478477
-0.000241185
0.00483305
-0.000218609
0.00487667
-0.000197602
0.00491562
-0.000178081
0.00494919
-0.000159942
0.00497445
-0.000141864
0.0049852
-0.000120718
0.00497335
-9.17423e-05
0.00493681
-5.1517e-05
0.0048866
-9.88487e-07
0.00484511
4.4675e-05
0.00482358
8.18379e-05
0.00481767
0.00010157
0.00482368
0.000130013
0.0048472
0.000144499
0.00488618
0.000179617
0.00491813
0.000193467
0.00493866
0.00025105
0.00027457
0.0049322
0.000583227
-0.00398852
1.21055e-11
0.00118337
-0.00387104
0.00179677
-0.00348357
0.00239292
-0.00285762
0.00295056
-0.00222061
0.00343434
-0.0016169
0.00382322
-0.0011139
0.00413268
-0.000727506
0.00438566
-0.00043913
0.00459794
-0.000191563
0.00476394
1.6875e-05
0.00485498
0.000175675
0.0048697
0.000250317
0.00483637
0.00024328
0.00478632
0.000194557
0.00474031
0.000133128
0.00470657
7.28896e-05
0.00468617
2.39084e-05
0.0046779
-1.55815e-05
0.00468022
-6.25751e-05
0.00469231
-0.000108547
0.0047144
-0.000158894
0.00474751
-0.000215943
0.00479331
-0.000280219
0.00485516
-0.000361777
0.00492995
-0.000415909
0.00500865
-0.000423927
0.00508696
-0.000412223
0.00516201
-0.000389566
0.00523229
-0.00036171
0.00529713
-0.000332377
0.0053564
-0.000303334
0.00541023
-0.000275523
0.00545887
-0.000249373
0.00550237
-0.000225003
0.00554007
-0.000202258
0.00556915
-0.000179635
0.00558345
-0.000153936
0.00557368
-0.00012046
0.00553636
-7.3983e-05
0.00548194
-1.33404e-05
0.00543472
4.36858e-05
0.00540972
9.02055e-05
0.0054033
0.000116414
0.00541065
0.000148146
0.00543709
0.000164771
0.00548481
0.000196756
0.00553052
0.000209704
0.00556531
0.000252737
0.000270712
0.00557342
0.000601048
-0.00453584
2.18271e-11
0.00121611
-0.00442799
0.00184833
-0.00405501
0.00247316
-0.00342087
0.00307952
-0.00275781
0.00363173
-0.00208993
0.00409642
-0.00149393
0.00447723
-0.0010159
0.00479651
-0.000639025
0.00506641
-0.000312879
0.00527863
-3.11199e-05
0.0054038
0.000184522
0.00543347
0.000296658
0.00540249
0.000297663
0.0053487
0.000239129
0.00529762
0.00016271
0.00526019
8.83112e-05
0.00523847
2.4693e-05
0.00523091
-2.92369e-05
0.00523489
-8.15324e-05
0.00524981
-0.000134721
0.00527581
-0.000193571
0.00531398
-0.000262348
0.0053658
-0.000343845
0.00543495
-0.000445652
0.00551834
-0.000513886
0.00560607
-0.000522852
0.00569339
-0.000506979
0.00577715
-0.000477289
0.00585562
-0.000441223
0.00592806
-0.000404116
0.00599431
-0.000367798
0.00605451
-0.000333033
0.00610895
-0.000300395
0.00615774
-0.000270009
0.00620037
-0.000241863
0.00623419
-0.000214297
0.00625288
-0.000184792
0.00624684
-0.000146039
0.00621081
-9.17025e-05
0.00615345
-2.02927e-05
0.0061003
4.86201e-05
0.00607099
0.000104171
0.00606285
0.000136558
0.00607071
0.000170983
0.00609951
0.000189067
0.00615553
0.000216848
0.00621665
0.000226706
0.00626906
0.000254467
0.000263984
0.00629335
0.00062903
-0.00509721
3.37136e-11
0.00126644
-0.00499332
0.00192018
-0.00463464
0.00257202
-0.00400129
0.00322047
-0.00332916
0.00383425
-0.00262091
0.00437315
-0.00195441
0.00483222
-0.00139068
0.00522874
-0.000916018
0.00557271
-0.000499145
0.00585324
-0.00011989
0.00602819
0.00017566
0.00608521
0.00034515
0.00606149
0.000371193
0.00600387
0.000315488
0.00594527
0.000228732
0.00590074
0.000139149
0.00587312
6.03451e-05
0.00586168
6.55371e-07
0.00586475
-7.52759e-05
0.00588026
-0.000146109
0.00590832
-0.000222765
0.00594978
-0.000311342
0.00600687
-0.000414202
0.0060841
-0.000531403
0.00617754
-0.000608099
0.00627589
-0.000614675
0.00637375
-0.00059262
0.00646759
-0.000555649
0.00655546
-0.000512711
0.00663653
-0.000469201
0.00671063
-0.000427151
0.00677793
-0.000387639
0.00683876
-0.000350928
0.00689333
-0.000316622
0.00694129
-0.00028466
0.0069803
-0.000252821
0.00700449
-0.000219958
0.00700381
-0.000178474
0.00697079
-0.000121338
0.00691161
-4.18336e-05
0.00685254
4.14014e-05
0.00681697
0.00011157
0.00680574
0.000150686
0.00681303
0.000185906
0.00684175
0.000204945
0.00690251
0.000228717
0.00697725
0.000237452
0.00704823
0.000251134
0.000251112
0.00709167
0.000668135
-0.00564504
1.64645e-11
0.0013404
-0.00554178
0.0020246
-0.00519059
0.00270783
-0.00455668
0.00339273
-0.00387975
0.00405732
-0.00314862
0.00465963
-0.0024293
0.00519137
-0.00179757
0.00566259
-0.00124641
0.00608361
-0.000747479
0.00643591
-0.000281625
0.0066723
0.000101531
0.00676822
0.000319858
0.00676127
0.000369776
0.00670612
0.000316827
0.0066443
0.00021991
0.00659582
0.000115597
0.00656718
2.49735e-05
0.00655626
-4.80027e-05
0.00655967
-0.000125537
0.0065774
-0.00020367
0.0066097
-0.000289286
0.00665788
-0.000382493
0.00672371
-0.000485908
0.0068113
-0.00061773
0.00691621
-0.000710618
0.00702603
-0.000726642
0.00713497
-0.000708125
0.00723922
-0.000669817
0.00733672
-0.000624258
0.00742659
-0.000577507
0.00750869
-0.000531534
0.00758321
-0.000487159
0.00765056
-0.000445071
0.00771107
-0.000405199
0.00776461
-0.000367862
0.00780933
-0.000331636
0.00783916
-0.000294283
0.00784641
-0.000249158
0.00782019
-0.000188257
0.00776265
-0.000101798
0.00769633
-9.15468e-06
0.00765214
8.12321e-05
0.00763659
0.000136372
0.00764388
0.000175778
0.00767258
0.000197793
0.00773442
0.000220726
0.00781756
0.000229085
0.00790479
0.000233836
0.000224523
0.00797023
0.000716773
-0.00626884
-1.65787e-11
0.00143192
-0.00616114
0.00215657
-0.00581346
0.00287637
-0.00516243
0.00360599
-0.00446896
0.00432854
-0.00370427
0.00500015
-0.00292284
0.00561012
-0.00221274
0.00616364
-0.001569
0.00666781
-0.000968407
0.0071011
-0.000393441
0.00740271
9.38652e-05
0.00753297
0.000369512
0.00753834
0.000443283
0.00748423
0.000385408
0.00741828
0.000270075
0.00736619
0.000146107
0.00733548
4.07962e-05
0.007325
-6.1769e-05
0.00733217
-0.000144553
0.00735527
-0.000231579
0.00739439
-0.00032706
0.00745057
-0.000442741
0.00752504
-0.000583396
0.00762227
-0.000757941
0.00773833
-0.000879497
0.0078597
-0.000899322
0.0079802
-0.000878435
0.00809572
-0.000831767
0.00820404
-0.000772068
0.00830411
-0.000708687
0.00839573
-0.00064584
0.00847906
-0.000584728
0.00855455
-0.0005267
0.00862255
-0.000472167
0.00868315
-0.000421752
0.00873505
-0.00037437
0.00877393
-0.000328277
0.00879022
-0.000277126
0.00877425
-0.000211916
0.00872263
-0.000121864
0.00865195
-1.42213e-05
0.0085983
9.07106e-05
0.00857667
0.000165288
0.00858054
0.000211681
0.00860626
0.000234129
0.00866298
0.000253179
0.0087481
0.000256676
0.00884841
0.000251168
0.000229818
0.00893817
0.000767253
-0.00703862
-3.15897e-11
0.00152152
-0.00690601
0.00228026
-0.00656683
0.00303406
-0.0059149
0.0037981
-0.0052169
0.00457078
-0.00443908
0.00531332
-0.00361012
0.00601016
-0.00282327
0.00666439
-0.00206263
0.00728683
-0.00131054
0.00783272
-0.00056482
0.00822456
6.23605e-05
0.00840975
0.000438474
0.00843738
0.000574916
0.00838582
0.000538411
0.00831456
0.000418824
0.00825582
0.00027905
0.00821862
0.000149699
0.0082042
3.01427e-05
0.00821018
-8.75154e-05
0.00823418
-0.00021187
0.00827593
-0.000344778
0.00833548
-0.000502223
0.00841606
-0.000692
0.00852453
-0.000886811
0.0086551
-0.00100962
0.00879209
-0.00101045
0.00892875
-0.000961286
0.00906017
-0.000885483
0.00918342
-0.000800164
0.00929727
-0.000714492
0.00940135
-0.000633592
0.00949585
-0.000559406
0.00958123
-0.000492916
0.00965798
-0.000433191
0.00972645
-0.000380526
0.00978597
-0.00033306
0.00983365
-0.000289077
0.00986126
-0.000242891
0.00985834
-0.000186009
0.00981858
-0.000106456
0.00975257
-3.72897e-06
0.00968803
0.000110506
0.00965014
0.000203854
0.00964615
0.000267656
0.00966483
0.000298156
0.00971169
0.000314656
0.00978707
0.000315104
0.00988697
0.000300687
0.000270123
0.00999094
0.000836229
-0.00761407
-8.42609e-12
0.00165435
-0.00744079
0.00247108
-0.00709657
0.00327043
-0.00647419
0.0040655
-0.00580717
0.00486363
-0.00508351
0.0056349
-0.0042947
0.00638253
-0.00353123
0.00712355
-0.00274167
0.00785553
-0.0019234
0.00851336
-0.00108907
0.00899987
-0.000352068
0.0092802
0.000152807
0.00936758
0.000393191
0.00934265
0.000404004
0.00927971
0.000299951
0.00922191
0.000160964
0.00918469
1.28713e-05
0.00917071
-9.82261e-05
0.00917758
-0.000213458
0.00920391
-0.000342867
0.00925118
-0.000489179
0.0093211
-0.000634834
0.00941648
-0.000779027
0.00954319
-0.000953693
0.00969405
-0.00106742
0.00985078
-0.00105865
0.0100053
-0.00100956
0.0101525
-0.000943031
0.0102896
-0.00086723
0.0104157
-0.000797839
0.0105304
-0.000734998
0.010634
-0.00067767
0.0107273
-0.000625604
0.010811
-0.000577228
0.0108856
-0.000532572
0.0109508
-0.000490181
0.0110049
-0.000449026
0.0110425
-0.000405531
0.011058
-0.000354111
0.0110414
-0.00028485
0.0109903
-0.000193599
0.0109227
-8.02804e-05
0.0108667
2.66792e-05
0.010839
0.00013402
0.0108422
0.000199742
0.0108734
0.000240498
0.010928
0.000260953
0.0110096
0.000262279
0.000244676
0.0111071
0.000935747
-0.00781224
2.4699e-11
0.00186025
-0.00764505
0.00276597
-0.00724936
0.00365491
-0.00661625
0.00451597
-0.00592173
0.00536636
-0.00520094
0.00617774
-0.00443215
0.00696442
-0.0036976
0.00774995
-0.00293127
0.008527
-0.00211513
0.00924676
-0.0012808
0.00981968
-0.000522397
0.0101524
2.34372e-05
0.0102842
0.000240688
0.0102897
0.000238223
0.0102485
0.000118441
0.010208
-2.9753e-05
0.0101877
-0.000167973
0.0101911
-0.000284989
0.0102158
-0.000391267
0.0102605
-0.000487716
0.0103273
-0.000606297
0.010419
-0.000756319
0.0105358
-0.000912023
0.0106803
-0.00115344
0.0108476
-0.00133313
0.0110189
-0.00138913
0.011185
-0.00139736
0.0113422
-0.00137463
0.0114885
-0.00133284
0.0116229
-0.00127899
0.0117457
-0.00121733
0.0118571
-0.00115067
0.0119581
-0.0010808
0.0120493
-0.00100958
0.0121314
-0.000938132
0.0122047
-0.000867547
0.0122682
-0.000798088
0.0123185
-0.000728698
0.0123491
-0.000656211
0.0123557
-0.000574651
0.0123341
-0.000478736
0.0122916
-0.000362368
0.0122423
-0.000238862
0.0122024
-0.000116927
0.0121836
-1.86534e-05
0.0121879
6.42219e-05
0.01222
0.000121926
0.0122751
0.000158776
0.000170342
0.0123486
0.00104093
-0.00842895
1.27483e-11
0.00206846
-0.00834221
0.00307674
-0.00786244
0.00407482
-0.00713597
0.00504423
-0.00630021
0.00600441
-0.00541726
0.00692898
-0.00447681
0.00783037
-0.00356001
0.00872905
-0.0026167
0.0096195
-0.00163529
0.0104199
-0.000661407
0.0110278
0.000174565
0.0113815
0.000671147
0.0115123
0.00086234
0.0115142
0.000812694
0.0114685
0.00064485
0.0114249
0.00044404
0.011403
0.000254472
0.0114057
7.89014e-05
0.0114321
-0.000113982
0.0114817
-0.000296163
0.0115526
-0.000500779
0.0116491
-0.000765841
0.0117703
-0.001118
0.0119213
-0.00153204
0.0120985
-0.00185118
0.0122806
-0.00195427
0.0124612
-0.00195676
0.0126348
-0.00189181
0.0127982
-0.0017804
0.0129498
-0.00164896
0.0130891
-0.00150879
0.0132165
-0.00136723
0.0133327
-0.00122896
0.0134381
-0.00109749
0.0135337
-0.000974599
0.0136198
-0.000861179
0.0136965
-0.000757529
0.0137625
-0.000662552
0.0138141
-0.000574106
0.0138448
-0.000487515
0.0138503
-0.000396865
0.0138369
-0.00029772
0.0138106
-0.000193514
0.0137836
-8.72395e-05
0.0137654
8.34284e-06
0.01376
8.99979e-05
0.0137704
0.00015401
0.0137975
0.000203013
0.000224026
0.0138409
0.00112319
-0.0102652
-1.98967e-11
0.00224204
-0.0102484
0.00330881
-0.00970534
0.00438071
-0.00887928
0.00543361
-0.00790759
0.00649265
-0.00684526
0.00754563
-0.00567552
0.00860247
-0.00449012
0.00966564
-0.0032421
0.0107188
-0.00196476
0.0116476
-0.000749372
0.0123306
0.000248939
0.0127442
0.000890596
0.0129245
0.00118139
0.0129522
0.00120703
0.012914
0.00107535
0.0128642
0.000870699
0.0128276
0.000642197
0.0128128
0.000395191
0.0128231
0.000134546
0.0128583
-0.00016263
0.0129211
-0.000491471
0.013012
-0.000850151
0.0131332
-0.00130192
0.0132973
-0.00175144
0.013498
-0.00201931
0.0137126
-0.00198394
0.0139284
-0.00182289
0.0141372
-0.00159777
0.0143341
-0.00135078
0.0145169
-0.00110645
0.0146845
-0.00087937
0.0148372
-0.000675067
0.0149752
-0.000496604
0.0150995
-0.000341764
0.0152108
-0.000211156
0.01531
-9.85608e-05
0.0153979
-1.10218e-05
0.0154745
5.30756e-05
0.0155389
0.000109289
0.0155873
0.000157574
0.0156174
0.000202115
0.01563
0.000246231
0.0156285
0.00029118
0.0156205
0.000338782
0.0156118
0.000379838
0.0156079
0.00041831
0.0156114
0.000446371
0.0156235
0.000466938
0.000465261
0.0156444
0.00119723
-0.0129568
-2.78145e-11
0.00238431
-0.0129093
0.00350636
-0.0123373
0.00461861
-0.0114685
0.00570946
-0.0104766
0.00680359
-0.00939565
0.00790234
-0.00817817
0.00902499
-0.00693379
0.0101681
-0.00559005
0.0112915
-0.00420669
0.0122956
-0.00288122
0.0131043
-0.00175506
0.013659
-0.00091011
0.0139797
-0.000386202
0.0141293
-0.000133725
0.0141815
-7.00654e-05
0.0141933
-0.000118243
0.0141977
-0.00022866
0.0142129
-0.000381163
0.0142469
-0.000556753
0.0143024
-0.000766054
0.0143881
-0.000985151
0.0145087
-0.00120929
0.0146706
-0.0014172
0.0148946
-0.00155164
0.0151593
-0.00145153
0.0154322
-0.00113511
0.0156995
-0.000770593
0.0159526
-0.000406987
0.0161869
-6.74083e-05
0.0164008
0.000196612
0.0165939
0.000423041
0.0167672
0.000604226
0.0169218
0.000740802
0.0170589
0.000844167
0.0171801
0.000913298
0.0172867
0.000959003
0.0173799
0.000982425
0.0174606
0.000988752
0.0175293
0.000982554
0.0175856
0.00096781
0.0176286
0.00094823
0.0176583
0.000925567
0.0176762
0.000902072
0.0176854
0.000883223
0.0176897
0.000859508
0.0176925
0.000840797
0.0176961
0.000818
0.0177017
0.000794471
0.000756924
0.0177104
0.00129934
-0.0156326
-1.84725e-11
0.00257153
-0.0154701
0.00377045
-0.014867
0.00493092
-0.0139833
0.00604996
-0.0130341
0.00714612
-0.0120431
0.00822857
-0.0109341
0.0093165
-0.00984279
0.0104098
-0.00866295
0.0114814
-0.00745504
0.0124659
-0.00627166
0.0133013
-0.0052108
0.0139626
-0.00432763
0.0144404
-0.00365552
0.0147704
-0.00318118
0.015
-0.00286089
0.0151725
-0.00264596
0.0153188
-0.0024937
0.015459
-0.002375
0.0156058
-0.00226464
0.0157673
-0.0021538
0.0159545
-0.00201292
0.016168
-0.00181903
0.0164278
-0.00155137
0.0167466
-0.00115431
0.0170945
-0.000588104
0.017433
-2.07524e-05
0.0177516
0.00045898
0.0180446
0.000857394
0.0183099
0.00116931
0.0185476
0.00140664
0.0187594
0.00157365
0.0189471
0.00168679
0.0191128
0.00175031
0.0192584
0.00178247
0.0193857
0.00178083
0.0194967
0.00176013
0.0195929
0.00172054
0.0196757
0.00166781
0.0197463
0.00160658
0.0198054
0.00154041
0.0198536
0.00147212
0.0198912
0.00140176
0.0199192
0.00133119
0.019939
0.00126752
0.0199527
0.00119954
0.019962
0.00114107
0.0199684
0.00108189
0.0199731
0.0010261
0.000962031
0.0199771
0.00144126
-0.0178857
-7.54619e-12
0.0028327
-0.0175894
0.00414434
-0.0169317
0.00539148
-0.0160147
0.00657404
-0.0150808
0.00770234
-0.0141552
0.00878507
-0.0131485
0.0098362
-0.0122205
0.01086
-0.011245
0.0118472
-0.0102763
0.0127692
-0.00932113
0.0135932
-0.00843414
0.0143039
-0.00763064
0.0148989
-0.00693925
0.0153888
-0.00635322
0.015798
-0.00585166
0.0161518
-0.0054067
0.0164721
-0.00499227
0.0167754
-0.00458003
0.0170745
-0.00414664
0.0173789
-0.00367448
0.0176991
-0.00313879
0.0180405
-0.00252022
0.0184152
-0.00180573
0.018835
-0.000963692
0.0192641
-5.88066e-05
0.0196624
0.000653797
0.0200256
0.00117811
0.0203525
0.00156575
0.0206446
0.00184057
0.0209041
0.00203089
0.0211336
0.00214678
0.0213358
0.00221031
0.0215133
0.00222639
0.0216686
0.00221595
0.0218038
0.00217484
0.021921
0.00211916
0.0220222
0.00204795
0.0221089
0.00196684
0.0221827
0.00188021
0.0222448
0.00179119
0.0222964
0.00170201
0.0223382
0.00161183
0.0223713
0.00152201
0.0223966
0.0014402
0.0224154
0.00135402
0.0224288
0.00127907
0.0224378
0.00120451
0.0224432
0.00113489
0.00105944
0.0224457
0.00161453
-0.0198415
-2.01433e-12
0.00315841
-0.0194267
0.00461564
-0.0186924
0.00599001
-0.0177103
0.00728173
-0.016736
0.00849557
-0.0157996
0.00963728
-0.0148092
0.0107153
-0.01394
0.0117354
-0.0130593
0.0126985
-0.0122191
0.0135983
-0.0114011
0.0144257
-0.0106353
0.0151738
-0.00990358
0.015848
-0.00923025
0.0164512
-0.00860266
0.0169952
-0.00800738
0.0174936
-0.00742574
0.0179596
-0.00684285
0.018405
-0.00623374
0.0188398
-0.00558018
0.0192729
-0.00486448
0.0197131
-0.00406975
0.0201672
-0.00318581
0.0206432
-0.00220975
0.0211509
-0.00113254
0.0216513
-5.38648e-05
0.0221039
0.000739634
0.0225099
0.00128983
0.0228721
0.00167907
0.0231939
0.00194551
0.0234786
0.00212498
0.0237298
0.00222983
0.0239508
0.00228396
0.0241445
0.00229205
0.0243137
0.00227571
0.0244609
0.00222981
0.0245883
0.00217076
0.0246982
0.00209702
0.0247922
0.00201408
0.0248722
0.00192616
0.0249396
0.00183622
0.0249956
0.00174632
0.0250416
0.00165528
0.0250786
0.00156433
0.0251077
0.00148127
0.0251297
0.0013933
0.0251457
0.00131661
0.0251564
0.00124017
0.0251626
0.00116876
0.00109196
0.0251649
0.0018115
-0.0217611
-4.02305e-13
0.00353605
-0.021241
0.00516506
-0.0204138
0.00669765
-0.0193417
0.00813367
-0.0182862
0.0094756
-0.017281
0.0107275
-0.0162353
0.011895
-0.0153315
0.0129837
-0.0144369
0.0139985
-0.0136037
0.0149422
-0.0128047
0.0158169
-0.0120607
0.0166246
-0.0113379
0.0173707
-0.0106553
0.0180613
-0.00999678
0.0187036
-0.00934882
0.0193065
-0.00869512
0.0198788
-0.00802546
0.0204294
-0.0073171
0.0209665
-0.00655536
0.021498
-0.00572447
0.0220317
-0.0048129
0.0225747
-0.00381673
0.0231341
-0.0027391
0.0237182
-0.00158267
0.0242852
-0.00042849
0.0247929
0.000427205
0.0252458
0.00101752
0.0256484
0.00143643
0.0260054
0.00172752
0.0263211
0.00192922
0.0265995
0.00205458
0.0268443
0.00212802
0.027059
0.00215413
0.0272464
0.00215476
0.0274095
0.00212454
0.0275507
0.00208003
0.0276724
0.00201962
0.0277765
0.00194885
0.027865
0.001872
0.0279396
0.00179207
0.0280017
0.00171117
0.0280528
0.00162815
0.028094
0.00154426
0.0281266
0.00146741
0.0281514
0.00138478
0.0281695
0.00131275
0.0281817
0.00124032
0.0281887
0.00117237
0.00109867
0.0281912
0.00203122
-0.023819
-5.67774e-14
0.00396244
-0.0231935
0.00578707
-0.0222603
0.00750272
-0.021081
0.00910904
-0.0199202
0.0106079
-0.0188146
0.012003
-0.0176751
0.0132991
-0.0166871
0.0145021
-0.015719
0.0156181
-0.0148241
0.0166533
-0.0139733
0.0176137
-0.0131848
0.0185055
-0.0124201
0.0193355
-0.0116956
0.0201112
-0.0109938
0.0208397
-0.0103003
0.0215291
-0.00959906
0.0221874
-0.0088811
0.0228224
-0.00812454
0.023442
-0.00731618
0.024054
-0.0064414
0.024666
-0.00549096
0.0252859
-0.00446358
0.0259209
-0.00336489
0.0265791
-0.00220156
0.0272152
-0.00101039
0.027783
-8.73767e-05
0.0282887
0.000559388
0.0287379
0.00102798
0.0291361
0.00136376
0.0294882
0.00160607
0.0297987
0.00176839
0.0300718
0.00187548
0.0303111
0.00193215
0.0305202
0.00196049
0.0307022
0.00195533
0.0308597
0.00193345
0.0309955
0.00189341
0.0311116
0.00184094
0.0312104
0.0017805
0.0312936
0.00171526
0.0313629
0.00164746
0.0314199
0.0015761
0.031466
0.00150257
0.0315024
0.00143489
0.0315302
0.00136033
0.0315504
0.00129541
0.0315641
0.00122921
0.0315719
0.00116672
0.00109779
0.0315747
0.00227687
-0.026101
-4.84714e-15
0.00444103
-0.0253617
0.0064858
-0.0243092
0.00840826
-0.0230079
0.0102079
-0.0217252
0.0118867
-0.0205001
0.0134485
-0.0192458
0.0148983
-0.0181491
0.0162425
-0.01708
0.017488
-0.0160923
0.0186422
-0.0151573
0.019713
-0.0142928
0.0207082
-0.0134596
0.021636
-0.0126731
0.0225048
-0.0119156
0.0233227
-0.0111724
0.0240983
-0.0104271
0.0248398
-0.00967114
0.0255557
-0.00888282
0.0262543
-0.00804934
0.0269439
-0.00715648
0.0276328
-0.00619571
0.0283294
-0.00516654
0.0290421
-0.00407534
0.0297793
-0.0029299
0.0304908
-0.00171013
0.0311256
-0.000710935
0.0316907
3.98321e-06
0.0321926
0.000534079
0.0326375
0.000925475
0.0330309
0.0012181
0.0333779
0.00142589
0.0336831
0.00157404
0.0339506
0.00166773
0.0341843
0.00172941
0.0343876
0.00175422
0.0345637
0.00175925
0.0347153
0.00174334
0.0348452
0.00171247
0.0349556
0.00167134
0.0350485
0.00162333
0.035126
0.0015709
0.0351898
0.0015132
0.0352413
0.00145179
0.0352819
0.00139484
0.035313
0.00132977
0.0353357
0.00127321
0.035351
0.00121436
0.0353597
0.0011583
0.00109502
0.0353628
0.00255216
-0.028654
8.05282e-17
0.00497784
-0.027788
0.00726971
-0.0266017
0.00942443
-0.0251633
0.0114415
-0.023743
0.013323
-0.0223826
0.0150731
-0.0209974
0.0166976
-0.0197756
0.0182034
-0.0185885
0.0195983
-0.017491
0.0208907
-0.0164549
0.0220895
-0.0154982
0.0232038
-0.0145819
0.0242428
-0.0137213
0.025216
-0.0128987
0.0261325
-0.0120991
0.0270017
-0.0113063
0.027833
-0.0105116
0.0286355
-0.00969341
0.0294185
-0.00883889
0.0301911
-0.00793395
0.0309627
-0.00697023
0.0317425
-0.00594747
0.0325398
-0.00487226
0.0333642
-0.00375271
0.0341596
-0.00250351
0.0348691
-0.00141858
0.0355006
-0.000626012
0.0360616
-2.56844e-05
0.0365589
0.00042922
0.0369986
0.000779192
0.0373864
0.00103873
0.0377275
0.0012335
0.0380265
0.00136916
0.0382877
0.00146856
0.038515
0.00152726
0.0387118
0.00156268
0.0388814
0.001574
0.0390265
0.0015675
0.0391499
0.00154813
0.0392538
0.00151954
0.0393404
0.00148439
0.0394117
0.00144207
0.0394693
0.00139431
0.0395147
0.00134945
0.0395495
0.00129507
0.0395749
0.00124792
0.0395919
0.00119734
0.0396017
0.00114854
0.0010916
0.0396052
0.00286095
-0.0315151
3.29978e-16
0.00558006
-0.0305072
0.00814915
-0.0291709
0.0105645
-0.0275787
0.0128255
-0.0260041
0.0149345
-0.0244918
0.0168962
-0.0229594
0.018717
-0.0215966
0.0204047
-0.0202766
0.021968
-0.0190549
0.0234163
-0.017904
0.0247597
-0.0168425
0.0260083
-0.0158316
0.0271724
-0.0148868
0.0282626
-0.0139903
0.0292894
-0.0131273
0.030263
-0.0122814
0.031194
-0.011444
0.0320925
-0.0105932
0.032969
-0.00971638
0.0338337
-0.00879937
0.0346969
-0.00783388
0.035569
-0.00681973
0.0364605
-0.00576362
0.0373818
-0.00467387
0.0382707
-0.00339208
0.0390635
-0.00221118
0.0397693
-0.00133157
0.0403962
-0.00065247
0.0409519
-0.000126357
0.0414433
0.000287894
0.0418767
0.000605406
0.0422579
0.000852395
0.042592
0.00103506
0.042884
0.00117668
0.0431379
0.00127332
0.0433579
0.00134274
0.0435474
0.00138452
0.0437097
0.00140528
0.0438475
0.00141026
0.0439637
0.00140339
0.0440605
0.00138758
0.0441401
0.00136246
0.0442045
0.00132997
0.0442553
0.00129862
0.0442942
0.0012562
0.0443226
0.00121957
0.0443416
0.00117825
0.0443526
0.00113756
0.00108774
0.0443565
0.00320743
-0.0347225
-6.14619e-17
0.0062558
-0.0335556
0.00913596
-0.032051
0.0118437
-0.0302865
0.0143784
-0.0285389
0.0167427
-0.026856
0.0189419
-0.0251586
0.020983
-0.0236378
0.0228749
-0.0221685
0.0246272
-0.0208072
0.0262506
-0.0195275
0.0277562
-0.0183482
0.0291555
-0.017231
0.03046
-0.0161915
0.0316815
-0.015212
0.0328317
-0.0142776
0.0339222
-0.0133721
0.0349646
-0.0124866
0.0359706
-0.0115993
0.0369515
-0.0106974
0.0379189
-0.00976688
0.0388844
-0.00879937
0.0398594
-0.00779479
0.0408557
-0.00675995
0.0418852
-0.00570335
0.0428782
-0.00438505
0.043764
-0.00309691
0.0445525
-0.00212004
0.0452529
-0.00135289
0.0458738
-0.000747189
0.0464228
-0.000261104
0.046907
0.000121195
0.0473329
0.000426536
0.0477062
0.000661713
0.0480324
0.00085053
0.0483161
0.000989545
0.0485619
0.00109697
0.0487736
0.00117279
0.0489549
0.001224
0.049109
0.00125619
0.0492388
0.00127359
0.049347
0.00127939
0.0494359
0.00127349
0.0495079
0.00125806
0.0495647