/*--------------------------------*- C++ -*----------------------------------*\
  =========                 |
  \\      /  F ield         | OpenFOAM: The Open Source CFD Toolbox
   \\    /   O peration     | Website:  https://openfoam.org
    \\  /    A nd           | Version:  8
     \\/     M anipulation  |
\*---------------------------------------------------------------------------*/
FoamFile
{
    version     2.0;
    format      ascii;
    class       volScalarField;
    location    "0.2";
    object      nuTilda;
}
// * * * * * * * * * * * * * * * * * * * * * * * * * * * * * * * * * * * * * //

dimensions      [0 2 -1 0 0 0 0];

internalField   nonuniform List<scalar> 
127200
(
0.000564232
0.000577655
0.000590372
0.000602477
0.000613965
0.00062471
0.000634599
0.000643661
0.000651942
0.000659484
0.000666326
0.000672505
0.000678055
0.000683005
0.000687378
0.000691191
0.000694455
0.00069717
0.000699326
0.000700897
0.000701847
0.000702169
0.000702047
0.000701679
0.000701061
0.00070021
0.000699136
0.000697848
0.000696353
0.000694657
0.000692765
0.000690681
0.000688411
0.000685957
0.000683323
0.000680512
0.000677527
0.000674371
0.000671048
0.000667558
0.000663906
0.000660093
0.000656121
0.000651992
0.000647708
0.000643269
0.000638677
0.000633931
0.00062903
0.000623975
0.000618767
0.000613406
0.000607892
0.000602225
0.000596404
0.000590429
0.000584298
0.000578011
0.000571566
0.000564962
0.000558195
0.000551263
0.000544164
0.000536894
0.000529449
0.000521825
0.000514016
0.000506018
0.000497825
0.000489429
0.000480823
0.000472
0.000462949
0.000453662
0.000444127
0.000434334
0.000424268
0.000413918
0.000403268
0.000392305
0.000381014
0.000369383
0.000357408
0.000345097
0.000332495
0.000319743
0.000307239
0.000295971
0.000287744
0.000283804
0.000282371
0.000281431
0.00028052
0.00027959
0.000278629
0.000277625
0.000276562
0.000275422
0.00027419
0.000272942
0.000738589
0.000731194
0.000724964
0.00072181
0.000724163
0.00073173
0.000740019
0.000748189
0.000756298
0.000764377
0.000772455
0.000780564
0.000788732
0.000796987
0.000805362
0.000813889
0.000822604
0.000831543
0.000840731
0.000850111
0.000859685
0.000869445
0.000879207
0.000888792
0.000898226
0.000907516
0.00091667
0.000925693
0.000934591
0.000943366
0.000952024
0.000960566
0.000968995
0.000977312
0.000985521
0.000993621
0.00100162
0.0010095
0.00101729
0.00102497
0.00103256
0.00104004
0.00104743
0.00105473
0.00106194
0.00106906
0.00107611
0.00108307
0.00108992
0.00109666
0.0011033
0.00110983
0.00111624
0.00112256
0.00112876
0.00113485
0.00114084
0.00114671
0.00115248
0.00115814
0.0011637
0.00116914
0.00117448
0.00117971
0.00118484
0.00118986
0.00119477
0.00119957
0.00120428
0.00120887
0.00121337
0.00121776
0.00122205
0.00122624
0.00123034
0.00123433
0.00123824
0.00124205
0.00124576
0.00124939
0.00125293
0.00125638
0.00125973
0.00126299
0.00126612
0.0012691
0.00127187
0.00127436
0.00127648
0.00127823
0.00127971
0.00128101
0.00128217
0.0012832
0.00128408
0.0012848
0.00128533
0.00128566
0.00128578
0.0012857
0.00125238
0.00128238
0.00131223
0.00134187
0.00137115
0.00139987
0.00142792
0.00145532
0.00148209
0.00150827
0.00153389
0.00155898
0.00158355
0.00160763
0.00163125
0.0016544
0.00167709
0.00169934
0.00172114
0.00174258
0.00176372
0.00178455
0.00180508
0.00182529
0.00184519
0.00186479
0.00188409
0.00190309
0.00192181
0.00194024
0.0019584
0.00197628
0.00199389
0.00201124
0.00202833
0.00204515
0.00206172
0.00207803
0.00209409
0.00210989
0.00212544
0.00214074
0.00215579
0.00217059
0.00218515
0.00219945
0.00221351
0.00222732
0.00224088
0.00225419
0.00226726
0.00228008
0.00229265
0.00230497
0.00231705
0.00232887
0.00234045
0.00235178
0.00236287
0.0023737
0.00238428
0.00239461
0.0024047
0.00241453
0.00242412
0.00243345
0.00244253
0.00245136
0.00245994
0.00246827
0.00247635
0.00248417
0.00249174
0.00249906
0.00250613
0.00251295
0.00251951
0.00252582
0.00253187
0.00253767
0.00254321
0.0025485
0.00255352
0.00255829
0.00256278
0.002567
0.00257095
0.00257461
0.00257798
0.00258106
0.00258387
0.0025864
0.00258865
0.00259064
0.00259235
0.00259378
0.00259493
0.00259578
0.00259635
0.00259662
0.00203388
0.00208081
0.0021265
0.00217109
0.00221462
0.00225718
0.00229882
0.00233961
0.00237958
0.00241877
0.00245721
0.00249495
0.002532
0.00256839
0.00260417
0.00263934
0.00267395
0.00270801
0.00274154
0.00277455
0.00280707
0.00283911
0.00287066
0.00290174
0.00293235
0.00296251
0.00299222
0.00302149
0.00305032
0.00307873
0.00310671
0.00313427
0.00316142
0.00318816
0.0032145
0.00324044
0.00326597
0.00329111
0.00331586
0.00334021
0.00336418
0.00338775
0.00341094
0.00343373
0.00345615
0.00347817
0.00349982
0.00352107
0.00354195
0.00356244
0.00358254
0.00360226
0.0036216
0.00364056
0.00365912
0.00367731
0.00369511
0.00371252
0.00372955
0.00374619
0.00376245
0.00377832
0.0037938
0.00380889
0.0038236
0.00383791
0.00385184
0.00386538
0.00387853
0.00389129
0.00390365
0.00391563
0.00392721
0.00393841
0.00394921
0.00395961
0.00396962
0.00397924
0.00398846
0.00399728
0.0040057
0.00401372
0.00402134
0.00402856
0.00403536
0.00404175
0.00404773
0.00405329
0.00405843
0.00406315
0.00406745
0.00407133
0.0040748
0.00407785
0.00408048
0.00408269
0.00408448
0.00408584
0.00408678
0.00408728
0.00292587
0.00298721
0.00304725
0.00310613
0.00316391
0.00322062
0.00327631
0.00333101
0.00338475
0.00343757
0.00348948
0.00354053
0.00359074
0.00364014
0.00368874
0.00373657
0.00378365
0.00383
0.00387564
0.0039206
0.0039649
0.00400854
0.00405155
0.00409393
0.00413569
0.00417684
0.0042174
0.00425736
0.00429674
0.00433554
0.00437377
0.00441143
0.00444853
0.00448507
0.00452107
0.00455651
0.00459141
0.00462576
0.00465958
0.00469286
0.0047256
0.00475781
0.00478948
0.00482062
0.00485124
0.00488132
0.00491087
0.0049399
0.0049684
0.00499637
0.00502381
0.00505073
0.00507712
0.00510299
0.00512832
0.00515313
0.00517741
0.00520116
0.00522438
0.00524707
0.00526923
0.00529085
0.00531195
0.00533252
0.00535255
0.00537205
0.00539101
0.00540944
0.00542734
0.0054447
0.00546152
0.00547781
0.00549356
0.00550877
0.00552344
0.00553757
0.00555116
0.0055642
0.0055767
0.00558866
0.00560007
0.00561094
0.00562125
0.00563101
0.00564022
0.00564887
0.00565695
0.00566448
0.00567145
0.00567785
0.00568369
0.00568897
0.00569368
0.00569783
0.00570141
0.00570442
0.00570686
0.00570872
0.00571001
0.00571072
0.00391068
0.00398671
0.00406132
0.00413467
0.00420679
0.00427772
0.0043475
0.00441615
0.0044837
0.00455019
0.00461563
0.00468006
0.0047435
0.00480598
0.00486752
0.00492814
0.00498786
0.0050467
0.00510468
0.00516183
0.00521815
0.00527367
0.00532839
0.00538233
0.00543549
0.0054879
0.00553955
0.00559046
0.00564062
0.00569006
0.00573878
0.00578677
0.00583405
0.00588063
0.0059265
0.00597167
0.00601614
0.00605992
0.00610301
0.00614541
0.00618713
0.00622816
0.00626851
0.00630818
0.00634716
0.00638548
0.00642311
0.00646006
0.00649634
0.00653195
0.00656687
0.00660112
0.0066347
0.0066676
0.00669982
0.00673137
0.00676224
0.00679244
0.00682195
0.00685079
0.00687895
0.00690643
0.00693324
0.00695936
0.0069848
0.00700956
0.00703364
0.00705703
0.00707975
0.00710177
0.00712312
0.00714377
0.00716374
0.00718302
0.00720161
0.00721951
0.00723672
0.00725324
0.00726906
0.00728419
0.00729862
0.00731235
0.00732538
0.00733772
0.00734934
0.00736026
0.00737048
0.00737998
0.00738878
0.00739687
0.00740424
0.0074109
0.00741685
0.00742208
0.0074266
0.00743039
0.00743347
0.00743583
0.00743746
0.00743836
0.00498096
0.00507149
0.00516041
0.00524792
0.00533411
0.005419
0.00550264
0.00558505
0.00566625
0.00574627
0.00582513
0.00590286
0.00597946
0.00605497
0.0061294
0.00620278
0.00627512
0.00634645
0.00641677
0.00648611
0.00655448
0.00662189
0.00668836
0.00675389
0.0068185
0.0068822
0.00694499
0.00700689
0.0070679
0.00712803
0.00718728
0.00724566
0.00730318
0.00735984
0.00741564
0.00747059
0.0075247
0.00757796
0.00763038
0.00768196
0.0077327
0.00778261
0.00783169
0.00787993
0.00792735
0.00797394
0.0080197
0.00806463
0.00810873
0.00815201
0.00819447
0.00823609
0.0082769
0.00831687
0.00835603
0.00839435
0.00843185
0.00846853
0.00850437
0.00853939
0.00857358
0.00860695
0.00863948
0.00867119
0.00870206
0.00873211
0.00876132
0.0087897
0.00881724
0.00884395
0.00886983
0.00889487
0.00891907
0.00894243
0.00896496
0.00898664
0.00900748
0.00902748
0.00904664
0.00906494
0.00908241
0.00909902
0.00911478
0.00912969
0.00914375
0.00915695
0.0091693
0.00918079
0.00919142
0.00920119
0.00921009
0.00921814
0.00922532
0.00923164
0.00923708
0.00924166
0.00924537
0.00924821
0.00925017
0.00925125
0.00612853
0.00623338
0.00633642
0.0064379
0.00653794
0.0066366
0.0067339
0.00682988
0.00692455
0.00701793
0.00711004
0.00720089
0.00729052
0.00737892
0.00746612
0.00755214
0.00763699
0.00772069
0.00780324
0.00788468
0.007965
0.00804422
0.00812236
0.00819942
0.00827541
0.00835034
0.00842421
0.00849705
0.00856884
0.00863961
0.00870935
0.00877808
0.00884579
0.00891249
0.00897819
0.00904288
0.00910658
0.00916928
0.009231
0.00929172
0.00935146
0.00941021
0.00946798
0.00952477
0.00958058
0.00963541
0.00968926
0.00974213
0.00979403
0.00984496
0.00989491
0.00994388
0.00999188
0.0100389
0.0100849
0.01013
0.0101741
0.0102172
0.0102594
0.0103006
0.0103407
0.01038
0.0104182
0.0104555
0.0104917
0.010527
0.0105613
0.0105947
0.010627
0.0106584
0.0106888
0.0107182
0.0107466
0.010774
0.0108004
0.0108259
0.0108503
0.0108738
0.0108962
0.0109177
0.0109382
0.0109577
0.0109761
0.0109936
0.0110101
0.0110255
0.01104
0.0110535
0.0110659
0.0110774
0.0110878
0.0110972
0.0111056
0.011113
0.0111194
0.0111247
0.0111291
0.0111324
0.0111347
0.0111359
0.00734758
0.00746666
0.00758367
0.00769895
0.00781266
0.00792487
0.00803563
0.00814495
0.00825287
0.00835939
0.00846454
0.00856832
0.00867076
0.00877186
0.00887163
0.0089701
0.00906727
0.00916316
0.00925778
0.00935115
0.00944326
0.00953414
0.00962379
0.00971223
0.00979945
0.00988547
0.0099703
0.0100539
0.0101364
0.0102177
0.0102978
0.0103767
0.0104545
0.0105311
0.0106066
0.0106809
0.0107541
0.0108262
0.0108971
0.0109668
0.0110354
0.0111029
0.0111693
0.0112345
0.0112986
0.0113616
0.0114235
0.0114842
0.0115438
0.0116023
0.0116596
0.0117158
0.0117709
0.0118249
0.0118778
0.0119295
0.0119801
0.0120296
0.012078
0.0121252
0.0121713
0.0122163
0.0122602
0.0123029
0.0123445
0.012385
0.0124243
0.0124625
0.0124996
0.0125356
0.0125704
0.0126041
0.0126366
0.0126681
0.0126983
0.0127275
0.0127555
0.0127824
0.0128081
0.0128327
0.0128561
0.0128784
0.0128995
0.0129195
0.0129384
0.0129561
0.0129726
0.012988
0.0130023
0.0130154
0.0130273
0.0130381
0.0130477
0.0130561
0.0130634
0.0130695
0.0130745
0.0130782
0.0130809
0.0130823
0.00863395
0.00876716
0.00889802
0.00902693
0.0091541
0.00927964
0.00940361
0.00952604
0.00964696
0.00976638
0.00988431
0.0100008
0.0101158
0.0102293
0.0103414
0.0104521
0.0105614
0.0106692
0.0107757
0.0108807
0.0109844
0.0110867
0.0111877
0.0112873
0.0113855
0.0114824
0.011578
0.0116723
0.0117652
0.0118568
0.0119471
0.012036
0.0121237
0.0122101
0.0122952
0.012379
0.0124615
0.0125427
0.0126226
0.0127012
0.0127786
0.0128546
0.0129294
0.013003
0.0130752
0.0131462
0.0132159
0.0132843
0.0133514
0.0134173
0.0134819
0.0135453
0.0136074
0.0136682
0.0137277
0.013786
0.013843
0.0138987
0.0139531
0.0140063
0.0140582
0.0141089
0.0141582
0.0142063
0.0142532
0.0142987
0.014343
0.014386
0.0144277
0.0144682
0.0145073
0.0145452
0.0145818
0.0146172
0.0146512
0.014684
0.0147155
0.0147457
0.0147746
0.0148022
0.0148286
0.0148536
0.0148774
0.0148999
0.014921
0.0149409
0.0149595
0.0149768
0.0149928
0.0150075
0.0150209
0.015033
0.0150438
0.0150532
0.0150614
0.0150683
0.0150738
0.0150781
0.015081
0.0150826
0.00998414
0.0101314
0.010276
0.0104184
0.0105588
0.0106975
0.0108344
0.0109697
0.0111033
0.0112354
0.0113658
0.0114947
0.0116219
0.0117476
0.0118718
0.0119944
0.0121155
0.012235
0.012353
0.0124695
0.0125845
0.012698
0.01281
0.0129205
0.0130295
0.0131371
0.0132431
0.0133478
0.0134509
0.0135526
0.0136528
0.0137516
0.0138489
0.0139448
0.0140393
0.0141323
0.0142239
0.0143141
0.0144028
0.0144901
0.014576
0.0146604
0.0147434
0.0148251
0.0149052
0.014984
0.0150614
0.0151373
0.0152118
0.015285
0.0153567
0.0154269
0.0154958
0.0155633
0.0156293
0.0156939
0.0157572
0.015819
0.0158794
0.0159383
0.0159959
0.0160521
0.0161068
0.0161601
0.016212
0.0162625
0.0163116
0.0163593
0.0164055
0.0164503
0.0164937
0.0165357
0.0165763
0.0166154
0.0166531
0.0166894
0.0167243
0.0167577
0.0167898
0.0168204
0.0168495
0.0168773
0.0169036
0.0169284
0.0169519
0.0169739
0.0169945
0.0170136
0.0170313
0.0170476
0.0170624
0.0170757
0.0170877
0.0170982
0.0171072
0.0171148
0.0171209
0.0171256
0.0171289
0.0171307
0.0113952
0.0115566
0.0117148
0.0118704
0.0120239
0.0121754
0.0123251
0.0124729
0.012619
0.0127634
0.012906
0.013047
0.0131862
0.0133238
0.0134597
0.0135939
0.0137265
0.0138574
0.0139867
0.0141143
0.0142403
0.0143647
0.0144874
0.0146085
0.0147281
0.014846
0.0149622
0.0150769
0.01519
0.0153015
0.0154114
0.0155198
0.0156265
0.0157316
0.0158352
0.0159372
0.0160377
0.0161365
0.0162338
0.0163295
0.0164237
0.0165163
0.0166073
0.0166968
0.0167847
0.016871
0.0169558
0.0170391
0.0171207
0.0172009
0.0172794
0.0173565
0.0174319
0.0175058
0.0175782
0.017649
0.0177182
0.017786
0.0178521
0.0179167
0.0179797
0.0180412
0.0181012
0.0181596
0.0182164
0.0182717
0.0183254
0.0183776
0.0184282
0.0184772
0.0185247
0.0185707
0.0186151
0.0186579
0.0186992
0.0187389
0.018777
0.0188136
0.0188486
0.0188821
0.018914
0.0189443
0.0189731
0.0190003
0.0190259
0.01905
0.0190725
0.0190934
0.0191127
0.0191305
0.0191467
0.0191613
0.0191744
0.0191858
0.0191957
0.019204
0.0192107
0.0192158
0.0192194
0.0192213
0.0128646
0.01304
0.0132117
0.0133805
0.0135469
0.013711
0.0138731
0.0140333
0.0141915
0.0143479
0.0145024
0.0146552
0.0148061
0.0149552
0.0151025
0.015248
0.0153918
0.0155337
0.0156739
0.0158124
0.0159491
0.016084
0.0162171
0.0163486
0.0164782
0.0166062
0.0167324
0.0168568
0.0169796
0.0171006
0.0172198
0.0173374
0.0174532
0.0175674
0.0176798
0.0177905
0.0178994
0.0180067
0.0181123
0.0182162
0.0183183
0.0184188
0.0185176
0.0186146
0.01871
0.0188037
0.0188956
0.0189859
0.0190745
0.0191614
0.0192466
0.0193302
0.019412
0.0194921
0.0195706
0.0196474
0.0197224
0.0197958
0.0198675
0.0199375
0.0200059
0.0200725
0.0201375
0.0202007
0.0202623
0.0203222
0.0203804
0.0204369
0.0204918
0.0205449
0.0205963
0.0206461
0.0206942
0.0207405
0.0207852
0.0208282
0.0208695
0.0209091
0.0209471
0.0209833
0.0210178
0.0210506
0.0210818
0.0211112
0.021139
0.021165
0.0211893
0.021212
0.0212329
0.0212521
0.0212696
0.0212855
0.0212996
0.021312
0.0213227
0.0213316
0.0213389
0.0213444
0.0213483
0.0213504
0.01439
0.0145794
0.0147646
0.0149464
0.0151254
0.0153019
0.0154762
0.0156484
0.0158185
0.0159866
0.0161527
0.0163169
0.0164791
0.0166394
0.0167978
0.0169543
0.0171089
0.0172616
0.0174123
0.0175612
0.0177083
0.0178534
0.0179966
0.018138
0.0182775
0.0184152
0.0185509
0.0186848
0.0188169
0.018947
0.0190754
0.0192018
0.0193265
0.0194492
0.0195701
0.0196892
0.0198065
0.0199218
0.0200354
0.0201471
0.020257
0.020365
0.0204713
0.0205756
0.0206782
0.0207789
0.0208778
0.0209749
0.0210701
0.0211635
0.0212551
0.0213449
0.0214329
0.021519
0.0216033
0.0216858
0.0217665
0.0218453
0.0219224
0.0219976
0.022071
0.0221426
0.0222123
0.0222803
0.0223464
0.0224107
0.0224732
0.0225339
0.0225928
0.0226498
0.022705
0.0227585
0.0228101
0.0228598
0.0229078
0.0229539
0.0229983
0.0230408
0.0230815
0.0231203
0.0231574
0.0231926
0.023226
0.0232576
0.0232873
0.0233153
0.0233414
0.0233657
0.0233881
0.0234087
0.0234275
0.0234445
0.0234596
0.0234729
0.0234844
0.023494
0.0235018
0.0235077
0.0235119
0.0235141
0.0159691
0.0161727
0.0163712
0.0165659
0.0167574
0.0169462
0.0171324
0.0173163
0.0174979
0.0176774
0.0178548
0.0180301
0.0182033
0.0183744
0.0185435
0.0187106
0.0188757
0.0190387
0.0191997
0.0193587
0.0195157
0.0196707
0.0198237
0.0199746
0.0201236
0.0202706
0.0204156
0.0205586
0.0206995
0.0208386
0.0209756
0.0211106
0.0212437
0.0213748
0.0215039
0.021631
0.0217561
0.0218793
0.0220005
0.0221198
0.0222371
0.0223524
0.0224657
0.0225771
0.0226866
0.022794
0.0228996
0.0230031
0.0231047
0.0232044
0.0233021
0.0233979
0.0234917
0.0235835
0.0236734
0.0237614
0.0238474
0.0239315
0.0240136
0.0240938
0.0241721
0.0242484
0.0243227
0.0243951
0.0244656
0.0245342
0.0246008
0.0246654
0.0247281
0.0247889
0.0248478
0.0249047
0.0249596
0.0250127
0.0250637
0.0251129
0.0251601
0.0252054
0.0252487
0.0252901
0.0253295
0.025367
0.0254026
0.0254362
0.0254679
0.0254976
0.0255254
0.0255512
0.0255751
0.0255971
0.0256171
0.0256352
0.0256513
0.0256654
0.0256776
0.0256879
0.0256962
0.0257025
0.0257069
0.0257093
0.0176
0.0178178
0.0180297
0.0182372
0.018441
0.0186417
0.0188396
0.0190349
0.0192278
0.0194184
0.0196067
0.0197927
0.0199766
0.0201582
0.0203377
0.020515
0.0206901
0.0208631
0.021034
0.0212027
0.0213693
0.0215338
0.0216961
0.0218563
0.0220144
0.0221703
0.0223241
0.0224758
0.0226254
0.0227729
0.0229183
0.0230615
0.0232027
0.0233417
0.0234786
0.0236135
0.0237462
0.0238768
0.0240054
0.0241318
0.0242562
0.0243784
0.0244986
0.0246167
0.0247327
0.0248466
0.0249584
0.0250682
0.0251759
0.0252815
0.025385
0.0254865
0.0255859
0.0256832
0.0257784
0.0258716
0.0259627
0.0260517
0.0261387
0.0262236
0.0263065
0.0263873
0.026466
0.0265426
0.0266173
0.0266898
0.0267603
0.0268287
0.0268951
0.0269594
0.0270217
0.0270819
0.0271401
0.0271962
0.0272502
0.0273022
0.0273521
0.0274
0.0274458
0.0274896
0.0275313
0.027571
0.0276086
0.0276442
0.0276777
0.0277091
0.0277385
0.0277658
0.0277911
0.0278143
0.0278355
0.0278545
0.0278716
0.0278865
0.0278994
0.0279103
0.027919
0.0279257
0.0279304
0.0279329
0.0192807
0.0195128
0.0197382
0.0199583
0.0201743
0.0203867
0.0205961
0.0208025
0.0210064
0.0212077
0.0214065
0.021603
0.0217971
0.0219888
0.0221783
0.0223654
0.0225503
0.0227329
0.0229132
0.0230913
0.0232671
0.0234406
0.0236119
0.023781
0.0239477
0.0241123
0.0242746
0.0244346
0.0245924
0.024748
0.0249013
0.0250524
0.0252012
0.0253479
0.0254923
0.0256344
0.0257744
0.0259121
0.0260476
0.0261809
0.026312
0.0264409
0.0265675
0.026692
0.0268142
0.0269342
0.0270521
0.0271677
0.0272812
0.0273924
0.0275015
0.0276083
0.027713
0.0278155
0.0279157
0.0280139
0.0281098
0.0282035
0.0282951
0.0283845
0.0284717
0.0285567
0.0286395
0.0287202
0.0287987
0.0288751
0.0289492
0.0290212
0.0290911
0.0291587
0.0292242
0.0292876
0.0293487
0.0294077
0.0294646
0.0295192
0.0295718
0.0296221
0.0296703
0.0297163
0.0297602
0.0298019
0.0298414
0.0298788
0.029914
0.0299471
0.029978
0.0300067
0.0300332
0.0300576
0.0300799
0.0300999
0.0301178
0.0301336
0.0301471
0.0301585
0.0301677
0.0301748
0.0301797
0.0301824
0.0210093
0.0212559
0.0214947
0.0217274
0.0219554
0.0221794
0.0223999
0.0226173
0.0228317
0.0230435
0.0232525
0.023459
0.023663
0.0238645
0.0240635
0.0242602
0.0244544
0.0246462
0.0248355
0.0250225
0.0252072
0.0253894
0.0255692
0.0257467
0.0259218
0.0260945
0.0262649
0.0264329
0.0265985
0.0267617
0.0269226
0.0270812
0.0272374
0.0273912
0.0275427
0.0276918
0.0278386
0.0279831
0.0281252
0.028265
0.0284024
0.0285375
0.0286703
0.0288008
0.0289289
0.0290547
0.0291782
0.0292994
0.0294183
0.0295349
0.0296491
0.0297611
0.0298707
0.0299781
0.0300831
0.0301859
0.0302863
0.0303845
0.0304804
0.030574
0.0306653
0.0307543
0.030841
0.0309255
0.0310076
0.0310875
0.0311651
0.0312405
0.0313136
0.0313844
0.0314529
0.0315191
0.0315831
0.0316449
0.0317043
0.0317615
0.0318164
0.0318691
0.0319195
0.0319676
0.0320135
0.0320571
0.0320984
0.0321375
0.0321744
0.0322089
0.0322412
0.0322712
0.032299
0.0323245
0.0323478
0.0323687
0.0323875
0.0324039
0.0324181
0.03243
0.0324396
0.032447
0.0324521
0.0324549
0.022784
0.0230452
0.0232975
0.0235428
0.0237827
0.024018
0.0242494
0.0244774
0.0247021
0.0249239
0.0251428
0.025359
0.0255725
0.0257833
0.0259916
0.0261973
0.0264004
0.026601
0.026799
0.0269945
0.0271876
0.0273781
0.027566
0.0277515
0.0279345
0.028115
0.028293
0.0284686
0.0286416
0.0288121
0.0289802
0.0291458
0.0293089
0.0294696
0.0296278
0.0297835
0.0299367
0.0300875
0.0302359
0.0303818
0.0305252
0.0306662
0.0308048
0.0309409
0.0310746
0.0312059
0.0313347
0.0314611
0.0315851
0.0317066
0.0318258
0.0319425
0.0320568
0.0321687
0.0322782
0.0323853
0.03249
0.0325923
0.0326922
0.0327898
0.0328849
0.0329776
0.033068
0.033156
0.0332416
0.0333248
0.0334056
0.0334841
0.0335602
0.0336339
0.0337052
0.0337742
0.0338409
0.0339051
0.033967
0.0340265
0.0340837
0.0341385
0.034191
0.0342411
0.0342888
0.0343342
0.0343772
0.0344179
0.0344562
0.0344922
0.0345258
0.034557
0.0345859
0.0346125
0.0346367
0.0346585
0.034678
0.0346951
0.0347098
0.0347222
0.0347323
0.0347399
0.0347453
0.0347482
0.0246028
0.0248789
0.0251447
0.0254026
0.0256542
0.0259006
0.0261427
0.026381
0.0266157
0.0268472
0.0270756
0.0273011
0.0275237
0.0277435
0.0279606
0.0281749
0.0283865
0.0285955
0.0288017
0.0290054
0.0292064
0.0294047
0.0296004
0.0297935
0.029984
0.0301718
0.0303571
0.0305397
0.0307197
0.0308972
0.031072
0.0312442
0.0314139
0.0315809
0.0317454
0.0319073
0.0320666
0.0322234
0.0323776
0.0325292
0.0326783
0.0328248
0.0329688
0.0331102
0.0332491
0.0333854
0.0335192
0.0336505
0.0337792
0.0339054
0.0340291
0.0341503
0.034269
0.0343851
0.0344988
0.0346099
0.0347186
0.0348247
0.0349284
0.0350296
0.0351282
0.0352244
0.0353182
0.0354094
0.0354982
0.0355845
0.0356683
0.0357496
0.0358285
0.035905
0.0359789
0.0360504
0.0361195
0.0361861
0.0362502
0.0363119
0.0363712
0.036428
0.0364823
0.0365342
0.0365837
0.0366307
0.0366753
0.0367174
0.0367571
0.0367944
0.0368292
0.0368616
0.0368915
0.036919
0.0369441
0.0369667
0.0369869
0.0370046
0.0370199
0.0370327
0.0370431
0.0370511
0.0370566
0.0370597
0.0264638
0.0267551
0.0270346
0.0273049
0.0275681
0.0278256
0.0280781
0.0283263
0.0285707
0.0288116
0.0290491
0.0292835
0.0295148
0.0297431
0.0299685
0.0301911
0.0304108
0.0306277
0.0308418
0.0310531
0.0312616
0.0314674
0.0316704
0.0318706
0.0320681
0.0322629
0.0324549
0.0326443
0.0328309
0.0330147
0.0331959
0.0333744
0.0335501
0.0337232
0.0338935
0.0340612
0.0342262
0.0343885
0.0345482
0.0347051
0.0348594
0.0350111
0.0351601
0.0353064
0.0354501
0.0355911
0.0357296
0.0358653
0.0359985
0.036129
0.0362569
0.0363822
0.0365049
0.036625
0.0367425
0.0368574
0.0369697
0.0370794
0.0371865
0.037291
0.037393
0.0374923
0.0375891
0.0376834
0.0377751
0.0378642
0.0379508
0.0380348
0.0381162
0.0381951
0.0382715
0.0383453
0.0384166
0.0384854
0.0385516
0.0386153
0.0386764
0.038735
0.0387911
0.0388447
0.0388957
0.0389443
0.0389903
0.0390337
0.0390747
0.0391131
0.0391491
0.0391825
0.0392134
0.0392417
0.0392676
0.0392909
0.0393117
0.03933
0.0393458
0.0393591
0.0393698
0.039378
0.0393837
0.0393869
0.0283652
0.028672
0.0289651
0.029248
0.0295227
0.0297909
0.0300536
0.0303115
0.0305652
0.0308151
0.0310613
0.0313042
0.0315438
0.0317802
0.0320136
0.0322439
0.0324713
0.0326956
0.0329171
0.0331356
0.0333512
0.0335639
0.0337738
0.0339808
0.0341849
0.0343861
0.0345845
0.0347801
0.0349728
0.0351627
0.0353498
0.035534
0.0357155
0.0358941
0.0360699
0.036243
0.0364132
0.0365807
0.0367453
0.0369073
0.0370664
0.0372228
0.0373764
0.0375273
0.0376754
0.0378208
0.0379635
0.0381034
0.0382406
0.0383751
0.0385069
0.0386359
0.0387623
0.038886
0.039007
0.0391253
0.0392409
0.0393538
0.0394641
0.0395717
0.0396767
0.0397789
0.0398786
0.0399756
0.0400699
0.0401616
0.0402506
0.0403371
0.0404209
0.040502
0.0405806
0.0406565
0.0407298
0.0408005
0.0408686
0.0409341
0.040997
0.0410572
0.0411149
0.04117
0.0412225
0.0412723
0.0413196
0.0413643
0.0414064
0.0414459
0.0414828
0.0415172
0.0415489
0.0415781
0.0416047
0.0416286
0.04165
0.0416689
0.0416851
0.0416987
0.0417098
0.0417182
0.0417241
0.0417273
0.0303048
0.0306274
0.0309345
0.0312298
0.0315159
0.0317947
0.0320672
0.0323346
0.0325972
0.0328557
0.0331103
0.0333612
0.0336087
0.0338528
0.0340937
0.0343314
0.0345659
0.0347973
0.0350256
0.0352509
0.0354731
0.0356924
0.0359086
0.0361218
0.0363321
0.0365393
0.0367436
0.036945
0.0371434
0.0373389
0.0375314
0.037721
0.0379077
0.0380914
0.0382723
0.0384503
0.0386253
0.0387975
0.0389668
0.0391333
0.0392968
0.0394576
0.0396154
0.0397704
0.0399226
0.040072
0.0402185
0.0403622
0.0405031
0.0406412
0.0407765
0.040909
0.0410387
0.0411657
0.0412898
0.0414112
0.0415299
0.0416457
0.0417589
0.0418692
0.0419769
0.0420818
0.042184
0.0422834
0.0423801
0.0424742
0.0425655
0.0426541
0.04274
0.0428232
0.0429037
0.0429815
0.0430566
0.043129
0.0431988
0.0432659
0.0433303
0.0433921
0.0434511
0.0435076
0.0435613
0.0436124
0.0436608
0.0437066
0.0437497
0.0437902
0.043828
0.0438632
0.0438957
0.0439256
0.0439528
0.0439774
0.0439993
0.0440186
0.0440352
0.0440491
0.0440605
0.0440691
0.0440751
0.0440785
0.0322807
0.0326195
0.0329407
0.0332485
0.0335459
0.0338349
0.0341171
0.0343935
0.0346648
0.0349315
0.035194
0.0354526
0.0357075
0.0359588
0.0362067
0.0364512
0.0366925
0.0369304
0.0371652
0.0373967
0.0376251
0.0378504
0.0380725
0.0382915
0.0385074
0.0387203
0.03893
0.0391367
0.0393403
0.0395409
0.0397384
0.0399329
0.0401244
0.0403128
0.0404983
0.0406808
0.0408602
0.0410367
0.0412102
0.0413808
0.0415484
0.041713
0.0418747
0.0420335
0.0421893
0.0423423
0.0424923
0.0426394
0.0427836
0.042925
0.0430634
0.043199
0.0433317
0.0434616
0.0435886
0.0437127
0.0438341
0.0439526
0.0440682
0.0441811
0.0442911
0.0443984
0.0445028
0.0446044
0.0447033
0.0447994
0.0448926
0.0449832
0.0450709
0.0451559
0.0452382
0.0453176
0.0453944
0.0454684
0.0455396
0.0456081
0.0456739
0.045737
0.0457973
0.0458549
0.0459098
0.0459619
0.0460114
0.0460581
0.0461021
0.0461434
0.046182
0.0462179
0.0462511
0.0462816
0.0463094
0.0463345
0.0463569
0.0463765
0.0463935
0.0464078
0.0464193
0.0464282
0.0464343
0.0464378
0.0342908
0.0346462
0.0349816
0.0353019
0.0356104
0.0359096
0.0362011
0.0364862
0.0367657
0.0370402
0.0373102
0.037576
0.0378379
0.038096
0.0383504
0.0386013
0.0388488
0.0390928
0.0393335
0.0395708
0.0398049
0.0400357
0.0402632
0.0404875
0.0407086
0.0409265
0.0411412
0.0413528
0.0415611
0.0417664
0.0419684
0.0421674
0.0423632
0.0425559
0.0427455
0.042932
0.0431154
0.0432958
0.0434731
0.0436473
0.0438185
0.0439866
0.0441518
0.0443139
0.044473
0.0446291
0.0447822
0.0449324
0.0450795
0.0452237
0.045365
0.0455033
0.0456386
0.0457711
0.0459006
0.0460272
0.0461509
0.0462717
0.0463896
0.0465046
0.0466167
0.046726
0.0468324
0.046936
0.0470367
0.0471346
0.0472296
0.0473218
0.0474112
0.0474977
0.0475814
0.0476624
0.0477405
0.0478158
0.0478884
0.0479581
0.0480251
0.0480892
0.0481506
0.0482093
0.0482651
0.0483182
0.0483685
0.0484161
0.0484609
0.0485029
0.0485422
0.0485787
0.0486125
0.0486436
0.0486718
0.0486974
0.0487201
0.0487402
0.0487574
0.0487719
0.0487837
0.0487927
0.048799
0.0488025
0.0363328
0.0367053
0.0370551
0.0373879
0.0377074
0.0380165
0.0383171
0.0386105
0.0388978
0.0391798
0.0394568
0.0397293
0.0399977
0.040262
0.0405225
0.0407793
0.0410325
0.0412821
0.0415282
0.0417708
0.04201
0.0422459
0.0424783
0.0427074
0.0429332
0.0431557
0.0433749
0.0435908
0.0438034
0.0440128
0.0442189
0.0444218
0.0446215
0.044818
0.0450113
0.0452014
0.0453883
0.0455721
0.0457527
0.0459302
0.0461046
0.0462758
0.046444
0.046609
0.046771
0.0469299
0.0470857
0.0472385
0.0473882
0.0475349
0.0476786
0.0478192
0.0479569
0.0480915
0.0482232
0.0483519
0.0484777
0.0486004
0.0487202
0.0488371
0.0489511
0.0490621
0.0491702
0.0492754
0.0493777
0.0494771
0.0495736
0.0496672
0.0497579
0.0498458
0.0499308
0.050013
0.0500923
0.0501687
0.0502424
0.0503131
0.0503811
0.0504462
0.0505085
0.050568
0.0506247
0.0506786
0.0507296
0.0507779
0.0508233
0.050866
0.0509058
0.0509429
0.0509772
0.0510086
0.0510373
0.0510632
0.0510863
0.0511067
0.0511242
0.0511389
0.0511509
0.05116
0.0511664
0.05117
0.0384045
0.0387945
0.039159
0.0395042
0.0398347
0.0401534
0.0404627
0.0407641
0.0410588
0.0413477
0.0416313
0.0419101
0.0421844
0.0424545
0.0427205
0.0429827
0.0432411
0.0434957
0.0437467
0.0439941
0.044238
0.0444783
0.0447152
0.0449486
0.0451786
0.0454051
0.0456283
0.045848
0.0460644
0.0462775
0.0464872
0.0466936
0.0468967
0.0470964
0.047293
0.0474862
0.0476762
0.0478629
0.0480465
0.0482268
0.0484039
0.0485778
0.0487485
0.0489161
0.0490805
0.0492418
0.0493999
0.0495549
0.0497069
0.0498557
0.0500014
0.0501441
0.0502837
0.0504202
0.0505537
0.0506841
0.0508116
0.050936
0.0510574
0.0511759
0.0512913
0.0514038
0.0515133
0.0516198
0.0517234
0.0518241
0.0519218
0.0520166
0.0521085
0.0521974
0.0522835
0.0523666
0.0524469
0.0525243
0.0525988
0.0526704
0.0527392
0.0528051
0.0528681
0.0529283
0.0529857
0.0530402
0.0530918
0.0531406
0.0531866
0.0532298
0.0532701
0.0533076
0.0533422
0.0533741
0.0534031
0.0534293
0.0534527
0.0534732
0.053491
0.0535059
0.053518
0.0535273
0.0535338
0.0535374
0.0405036
0.0409116
0.0412909
0.0416486
0.0419898
0.0423179
0.0426356
0.0429446
0.0432463
0.0435416
0.0438312
0.0441158
0.0443956
0.0446709
0.044942
0.0452089
0.045472
0.0457311
0.0459865
0.0462382
0.0464861
0.0467305
0.0469712
0.0472084
0.047442
0.0476721
0.0478987
0.0481218
0.0483415
0.0485577
0.0487705
0.0489799
0.0491859
0.0493886
0.0495878
0.0497837
0.0499763
0.0501656
0.0503516
0.0505342
0.0507136
0.0508898
0.0510627
0.0512324
0.0513988
0.051562
0.0517221
0.051879
0.0520327
0.0521832
0.0523306
0.0524749
0.0526161
0.0527542
0.0528891
0.053021
0.0531498
0.0532756
0.0533983
0.053518
0.0536346
0.0537482
0.0538588
0.0539665
0.0540711
0.0541727
0.0542714
0.0543671
0.0544599
0.0545497
0.0546366
0.0547205
0.0548015
0.0548796
0.0549548
0.0550271
0.0550965
0.055163
0.0552266
0.0552873
0.0553452
0.0554001
0.0554522
0.0555015
0.0555479
0.0555914
0.0556321
0.0556699
0.0557049
0.055737
0.0557663
0.0557927
0.0558163
0.0558371
0.055855
0.05587
0.0558823
0.0558916
0.0558982
0.0559018
0.0426275
0.043054
0.0434484
0.0438186
0.0441703
0.0445076
0.0448332
0.0451494
0.0454576
0.0457589
0.0460541
0.0463438
0.0466286
0.0469086
0.0471841
0.0474554
0.0477225
0.0479856
0.0482448
0.0485002
0.0487517
0.0489995
0.0492436
0.049484
0.0497207
0.0499539
0.0501834
0.0504094
0.0506318
0.0508507
0.0510661
0.051278
0.0514864
0.0516914
0.0518929
0.0520911
0.0522858
0.0524771
0.0526651
0.0528497
0.0530309
0.0532089
0.0533835
0.0535548
0.0537229
0.0538877
0.0540493
0.0542076
0.0543627
0.0545146
0.0546634
0.0548089
0.0549513
0.0550905
0.0552266
0.0553596
0.0554894
0.0556162
0.0557399
0.0558605
0.055978
0.0560925
0.0562039
0.0563123
0.0564177
0.0565201
0.0566195