/*--------------------------------*- C++ -*----------------------------------*\
  =========                 |
  \\      /  F ield         | OpenFOAM: The Open Source CFD Toolbox
   \\    /   O peration     | Website:  https://openfoam.org
    \\  /    A nd           | Version:  8
     \\/     M anipulation  |
\*---------------------------------------------------------------------------*/
FoamFile
{
    version     2.0;
    format      ascii;
    class       volVectorField;
    location    "0.2";
    object      U;
}
// * * * * * * * * * * * * * * * * * * * * * * * * * * * * * * * * * * * * * //

dimensions      [0 1 -1 0 0 0 0];

internalField   nonuniform List<vector> 
127200
(
(14.5288 -1.6501 3.1372e-18)
(15.0582 -1.90853 -8.57815e-19)
(15.5535 -2.17966 -1.78344e-18)
(16.008 -2.45891 -4.24923e-18)
(16.4228 -2.74536 -4.70974e-18)
(16.7983 -3.03766 4.31524e-18)
(17.1353 -3.33449 3.36206e-18)
(17.4348 -3.63459 1.15089e-18)
(17.6978 -3.9368 3.18834e-19)
(17.9255 -4.23997 -5.45456e-19)
(18.119 -4.54302 3.48665e-19)
(18.2795 -4.84491 6.86027e-19)
(18.4082 -5.14472 5.46592e-19)
(18.5063 -5.44158 3.31306e-19)
(18.5749 -5.73473 6.79546e-19)
(18.6151 -6.02353 -1.52771e-18)
(18.6282 -6.30743 1.30742e-19)
(18.615 -6.58604 3.18898e-19)
(18.577 -6.85913 1.59226e-18)
(18.5155 -7.12674 -6.81691e-19)
(18.4314 -7.38907 -1.6359e-18)
(18.3249 -7.64605 -4.97272e-19)
(18.1988 -7.89851 -1.91944e-18)
(18.057 -8.14689 2.94599e-18)
(17.9004 -8.38978 4.02735e-18)
(17.7307 -8.62656 1.70214e-19)
(17.5488 -8.85667 -3.92091e-18)
(17.3558 -9.0797 -2.62695e-18)
(17.1521 -9.29525 1.00345e-19)
(16.9384 -9.50298 -2.02505e-20)
(16.7153 -9.70261 1.29276e-18)
(16.4832 -9.89384 -2.77255e-18)
(16.2426 -10.0764 -3.13032e-20)
(15.9938 -10.2501 3.42491e-18)
(15.7374 -10.4146 3.12503e-18)
(15.4738 -10.5697 1.36445e-18)
(15.2032 -10.7153 -2.04211e-18)
(14.9263 -10.8512 -2.94043e-20)
(14.6433 -10.9771 3.75966e-18)
(14.3547 -11.0929 1.72356e-18)
(14.0608 -11.1984 -5.26874e-18)
(13.7621 -11.2935 2.40927e-20)
(13.459 -11.3782 3.91703e-18)
(13.1519 -11.4522 -5.36137e-18)
(12.8411 -11.5154 -4.14412e-18)
(12.527 -11.5678 1.476e-18)
(12.2101 -11.6093 -2.43396e-18)
(11.8908 -11.6398 -2.78614e-18)
(11.5695 -11.6593 2.27498e-18)
(11.2465 -11.6677 6.81293e-20)
(10.9222 -11.6649 -6.86373e-20)
(10.5971 -11.6511 -7.01234e-18)
(10.2715 -11.6261 7.94724e-19)
(9.94579 -11.5901 6.81722e-18)
(9.62042 -11.5429 -3.03042e-18)
(9.29573 -11.4846 2.36545e-19)
(8.97212 -11.4153 3.30695e-18)
(8.64995 -11.3351 7.87178e-18)
(8.32961 -11.2439 -1.25607e-18)
(8.01146 -11.1419 -7.86346e-18)
(7.69588 -11.0292 0)
(7.38322 -10.9058 -3.87796e-19)
(7.07385 -10.7719 2.39396e-18)
(6.76812 -10.6276 -2.56662e-18)
(6.46638 -10.473 2.66704e-18)
(6.16898 -10.3083 2.47337e-18)
(5.87625 -10.1336 -2.65897e-18)
(5.58854 -9.94908 -1.52318e-19)
(5.30616 -9.75493 -3.01435e-18)
(5.02944 -9.55132 2.70852e-19)
(4.75871 -9.33844 -2.65774e-18)
(4.49428 -9.11647 -5.44222e-18)
(4.23646 -8.88564 3.01596e-18)
(3.98554 -8.64614 5.53661e-18)
(3.74185 -8.39819 5.90151e-18)
(3.50567 -8.14201 2.77251e-18)
(3.2773 -7.87781 -5.83582e-18)
(3.05705 -7.60583 -1.27183e-19)
(2.84523 -7.32627 -1.93809e-19)
(2.64214 -7.03935 -3.05721e-18)
(2.44811 -6.74527 2.92441e-18)
(2.26349 -6.44424 5.72265e-18)
(2.08863 -6.13641 2.8182e-18)
(1.92393 -5.82197 -5.79542e-18)
(1.76975 -5.50106 -5.52898e-18)
(1.62642 -5.17388 8.68594e-20)
(1.49395 -4.84068 5.44331e-18)
(1.37177 -4.50192 -2.84926e-18)
(1.25845 -4.15856 -8.41417e-18)
(1.15261 -3.81194 2.68883e-18)
(1.05485 -3.4629 2.61178e-18)
(0.967232 -3.11143 2.51173e-18)
(0.890899 -2.75752 -4.69389e-18)
(0.825968 -2.40141 2.01997e-18)
(0.772377 -2.04339 4.90919e-18)
(0.730033 -1.68392 -5.69473e-18)
(0.698783 -1.32353 6.36322e-21)
(0.678311 -0.963148 2.05615e-18)
(0.667771 -0.604601 1.79499e-18)
(0.66483 -0.250492 6.28695e-20)
(19.9768 -1.40975 2.27863e-18)
(20.0991 -1.55666 1.82556e-18)
(20.1897 -1.71497 -2.72527e-18)
(20.2505 -1.88219 -3.46933e-18)
(20.2854 -2.05812 -4.10871e-18)
(20.2976 -2.24204 -2.13182e-18)
(20.2899 -2.43317 8.46599e-19)
(20.2649 -2.63092 1.82702e-18)
(20.2245 -2.83476 1.14919e-18)
(20.1708 -3.04417 5.90108e-19)
(20.1053 -3.25864 1.06579e-18)
(20.0294 -3.47768 1.38455e-18)
(19.9444 -3.70085 -4.20193e-20)
(19.8513 -3.92774 5.99417e-19)
(19.751 -4.15803 -3.20682e-19)
(19.6442 -4.39146 -1.57417e-18)
(19.5315 -4.62784 2.07178e-18)
(19.4134 -4.86703 -1.78757e-18)
(19.2898 -5.1088 9.753e-19)
(19.1612 -5.35259 -2.52052e-18)
(19.0276 -5.59862 -2.97333e-18)
(18.8896 -5.84741 1.95949e-18)
(18.7451 -6.09713 3.11438e-18)
(18.5916 -6.34478 2.34723e-20)
(18.4289 -6.58922 -3.40337e-18)
(18.2566 -6.8293 -1.66582e-18)
(18.0747 -7.06421 -2.83213e-18)
(17.8832 -7.2933 -5.03818e-19)
(17.6823 -7.51602 1.00773e-18)
(17.4724 -7.73194 1.28398e-20)
(17.2537 -7.94066 2.42045e-18)
(17.0265 -8.14184 1.19483e-18)
(16.7912 -8.33518 4.24949e-19)
(16.5482 -8.52037 -1.31858e-18)
(16.2978 -8.69717 0)
(16.0404 -8.86532 -1.38798e-18)
(15.7762 -9.0246 -5.56882e-19)
(15.5058 -9.17478 2.58954e-18)
(15.2295 -9.31569 2.30052e-18)
(14.9475 -9.44713 -7.71279e-18)
(14.6604 -9.56892 -3.61407e-18)
(14.3684 -9.68092 8.47635e-18)
(14.072 -9.78298 -3.86955e-18)
(13.7715 -9.87496 -4.69642e-18)
(13.4673 -9.95675 -5.48292e-19)
(13.1598 -10.0282 3.28081e-19)
(12.8494 -10.0893 -2.67351e-18)
(12.5363 -10.14 -1.07034e-18)
(12.2211 -10.18 5.58548e-18)
(11.9041 -10.2095 0)
(11.5856 -10.2283 -6.0397e-19)
(11.2661 -10.2365 -9.44882e-20)
(10.9459 -10.234 -2.82837e-18)
(10.6254 -10.2207 -2.91233e-18)
(10.3049 -10.1968 3.35912e-18)
(9.98491 -10.1622 9.15721e-18)
(9.66571 -10.1169 2.27533e-18)
(9.34769 -10.061 -1.0604e-17)
(9.03122 -9.99454 -2.48881e-18)
(8.71665 -9.91759 5.63473e-18)
(8.40435 -9.83022 -4.08554e-18)
(8.09466 -9.73251 -4.76881e-18)
(7.78794 -9.62456 6.81307e-18)
(7.48455 -9.50648 2.58097e-18)
(7.18481 -9.37839 -3.42362e-18)
(6.88907 -9.24042 1.49738e-18)
(6.59766 -9.0927 -5.85163e-19)
(6.31091 -8.9354 -1.78151e-19)
(6.02914 -8.76866 3.89652e-18)
(5.75266 -8.59267 1.86886e-18)
(5.48179 -8.4076 -1.81052e-18)
(5.21683 -8.21364 -1.6909e-18)
(4.95808 -8.01099 -5.31077e-18)
(4.70582 -7.79987 3.42091e-18)
(4.46035 -7.58048 1.78603e-18)
(4.22194 -7.35307 -3.47744e-18)
(3.99085 -7.11787 -1.85294e-18)
(3.76736 -6.87514 -4.96019e-18)
(3.55171 -6.62513 1.6629e-18)
(3.34416 -6.36813 4.78149e-18)
(3.14494 -6.10443 1.19258e-19)
(2.95429 -5.83435 5.55496e-20)
(2.77242 -5.55825 1.65928e-18)
(2.59953 -5.27649 2.48709e-19)
(2.43579 -4.98952 -2.3622e-19)
(2.28134 -4.6978 2.76265e-18)
(2.13626 -4.40182 1.28325e-18)
(2.00061 -4.10199 -2.55502e-18)
(1.87448 -3.79843 -1.89826e-18)
(1.75814 -3.49098 -3.21383e-19)
(1.65203 -3.17947 1.07953e-20)
(1.55652 -2.86406 0)
(1.4718 -2.54521 -5.18738e-19)
(1.39792 -2.22345 -2.1688e-18)
(1.33488 -1.8992 1.8833e-18)
(1.28265 -1.57279 5.7868e-19)
(1.24115 -1.24441 -2.63243e-18)
(1.21023 -0.914035 1.0365e-18)
(1.18966 -0.581009 2.00803e-18)
(1.1791 -0.243971 8.15217e-19)
(18.7705 -1.86849 -1.14467e-19)
(18.7759 -2.02102 6.7875e-20)
(18.7808 -2.18699 4.62813e-19)
(18.784 -2.36512 1.01379e-18)
(18.7852 -2.55424 -2.92429e-20)
(18.7836 -2.75314 -1.13751e-18)
(18.7786 -2.96063 -1.37187e-18)
(18.7692 -3.17554 1.02263e-19)
(18.7548 -3.3968 2.47263e-19)
(18.7347 -3.62336 2.29982e-19)
(18.7082 -3.85425 -9.17537e-19)
(18.6748 -4.08852 -1.9016e-19)
(18.6339 -4.32526 5.69799e-19)
(18.585 -4.56356 1.45923e-20)
(18.5279 -4.80252 -1.12559e-19)
(18.4622 -5.04121 7.53873e-19)
(18.3877 -5.2787 -6.74675e-19)
(18.3042 -5.51406 -5.93447e-19)
(18.2116 -5.74667 1.1329e-18)
(18.1091 -5.97631 -4.15502e-19)
(17.9965 -6.20186 8.90562e-19)
(17.8736 -6.42213 4.04223e-19)
(17.7408 -6.63664 -2.96195e-18)
(17.5982 -6.84568 3.52005e-19)
(17.4463 -7.0495 1.58853e-19)
(17.2852 -7.24803 1.1361e-18)
(17.1153 -7.44113 -6.70031e-19)
(16.9368 -7.62855 5.38139e-19)
(16.7501 -7.81003 7.91262e-19)
(16.5555 -7.98528 2.56854e-18)
(16.3532 -8.15404 -8.30816e-19)
(16.1437 -8.31604 -4.35997e-18)
(15.9271 -8.47101 2.21321e-18)
(15.7039 -8.61872 1.84435e-18)
(15.4743 -8.75894 -2.73105e-18)
(15.2387 -8.89144 -5.39149e-20)
(14.9973 -9.01604 1.56531e-18)
(14.7506 -9.13254 -6.69615e-19)
(14.4988 -9.24076 -9.22377e-19)
(14.2423 -9.34054 7.49583e-19)
(13.9813 -9.43174 3.74664e-18)
(13.7163 -9.51421 -1.08185e-18)
(13.4476 -9.58783 -4.98007e-18)
(13.1754 -9.65248 -1.7529e-18)
(12.9002 -9.70806 2.13569e-18)
(12.6222 -9.75449 1.42338e-19)
(12.3418 -9.79167 -6.06625e-18)
(12.0593 -9.81954 5.90206e-18)
(11.7751 -9.83805 5.15532e-18)
(11.4895 -9.84715 -4.69862e-18)
(11.2028 -9.8468 -3.06536e-20)
(10.9154 -9.83699 1.42479e-20)
(10.6276 -9.81769 2.55196e-18)
(10.3397 -9.78891 2.7189e-18)
(10.0521 -9.75066 -2.37893e-18)
(9.76499 -9.70295 1.2178e-18)
(9.47884 -9.64581 -4.34601e-19)
(9.19391 -9.5793 1.13309e-18)
(8.91054 -9.50345 1.51345e-18)
(8.62904 -9.41832 -5.42179e-18)
(8.34971 -9.324 -6.5328e-18)
(8.07289 -9.22056 -8.49946e-20)
(7.79886 -9.10809 9.02501e-18)
(7.52794 -8.98669 2.62677e-18)
(7.26043 -8.85648 -2.47964e-18)
(6.99661 -8.71757 -5.10905e-18)
(6.73679 -8.57009 -1.22966e-18)
(6.48125 -8.41419 6.27745e-18)
(6.23027 -8.25 -4.87062e-23)
(5.98412 -8.07768 -1.04312e-18)
(5.74309 -7.89741 2.31349e-20)
(5.50742 -7.70935 -6.09319e-20)
(5.27739 -7.51368 -9.75598e-20)
(5.05325 -7.3106 -1.14487e-19)
(4.83525 -7.10031 7.47098e-20)
(4.62362 -6.88301 -1.82133e-19)
(4.41861 -6.65892 1.11325e-18)
(4.22045 -6.42827 -2.0014e-19)
(4.02935 -6.19129 -2.85267e-19)
(3.84553 -5.94823 3.01505e-18)
(3.66919 -5.69935 -9.1164e-19)
(3.50053 -5.4449 -4.91777e-18)
(3.33972 -5.18518 8.95915e-20)
(3.18694 -4.92045 4.7137e-18)
(3.0423 -4.65101 5.61523e-20)
(2.90594 -4.37716 -2.40218e-18)
(2.77791 -4.09919 1.80185e-18)
(2.65826 -3.81735 3.27358e-18)
(2.547 -3.53186 -7.10085e-19)
(2.4442 -3.24291 -2.69153e-18)
(2.34999 -2.95069 -5.52805e-19)
(2.26458 -2.65548 -5.15722e-19)
(2.18813 -2.35758 3.53327e-19)
(2.12077 -2.05735 7.22237e-19)
(2.06259 -1.75511 -6.95956e-19)
(2.01366 -1.45118 1.74645e-19)
(1.97405 -1.14584 -7.1429e-19)
(1.94382 -0.839367 -9.66507e-19)
(1.92306 -0.531945 2.56543e-19)
(1.91193 -0.223721 -6.52834e-20)
(17.982 -1.682 1.49971e-18)
(18.0277 -1.81469 -1.46172e-19)
(18.072 -1.95784 -1.09489e-18)
(18.1135 -2.11054 -1.00266e-18)
(18.1509 -2.27187 -2.3226e-19)
(18.1831 -2.44098 3.71806e-19)
(18.2089 -2.61704 -8.53608e-19)
(18.2275 -2.79928 -1.20975e-18)
(18.2383 -2.98698 -2.98128e-19)
(18.2407 -3.17946 3.1881e-19)
(18.2341 -3.37604 -8.91838e-19)
(18.2183 -3.57612 -9.53374e-20)
(18.1929 -3.77909 -4.4084e-19)
(18.1576 -3.98442 -2.66954e-19)
(18.1124 -4.19158 6.4324e-20)
(18.057 -4.40013 2.67676e-19)
(17.9914 -4.60962 3.80582e-19)
(17.9156 -4.81958 2.55033e-18)
(17.8299 -5.02903 5.05053e-19)
(17.7345 -5.23722 -8.72734e-19)
(17.6295 -5.44367 -2.03493e-19)
(17.5153 -5.64786 7.18283e-19)
(17.3922 -5.84925 2.8181e-18)
(17.2603 -6.04735 1.91193e-18)
(17.12 -6.2417 -1.89605e-18)
(16.9713 -6.43189 2.88052e-19)
(16.8146 -6.61753 -1.7491e-18)
(16.65 -6.79825 -3.16404e-20)
(16.4778 -6.97372 -5.5376e-19)
(16.2981 -7.14361 -3.1783e-19)
(16.1112 -7.30762 -7.46474e-19)
(15.9175 -7.46548 1.76725e-18)
(15.7171 -7.61691 4.4078e-19)
(15.5103 -7.76167 4.2289e-19)
(15.2975 -7.89952 -3.07875e-19)
(15.0789 -8.03025 -2.27765e-18)
(14.8548 -8.15366 -3.97357e-18)
(14.6255 -8.26954 -8.6783e-19)
(14.3913 -8.37773 3.50224e-18)
(14.1525 -8.47806 4.58984e-18)
(13.9095 -8.57037 -1.86418e-19)
(13.6624 -8.65451 -8.98994e-19)
(13.4118 -8.73038 1.16202e-18)
(13.1578 -8.79783 -5.1466e-19)
(12.9007 -8.85677 -1.0161e-18)
(12.641 -8.90711 6.91764e-19)
(12.3788 -8.94875 5.18784e-18)
(12.1146 -8.98162 3.84934e-18)
(11.8486 -9.00568 -2.77495e-18)
(11.5812 -9.02085 -2.48871e-18)
(11.3126 -9.02711 -2.31799e-18)
(11.0433 -9.02442 0)
(10.7735 -9.01278 1.38866e-19)
(10.5034 -8.99216 5.99757e-19)
(10.2336 -8.96258 -2.17123e-19)
(9.96416 -8.92404 -4.58515e-18)
(9.69551 -8.87657 -1.84102e-18)
(9.42794 -8.82021 3.47941e-18)
(9.16175 -8.75499 -3.55814e-18)
(8.89724 -8.68098 -1.01373e-18)
(8.63473 -8.59824 3.41606e-18)
(8.3745 -8.50684 1.05927e-19)
(8.11685 -8.40686 1.0581e-18)
(7.86208 -8.29841 4.88863e-18)
(7.61046 -8.18157 3.35485e-18)
(7.36229 -8.05647 -6.68672e-18)
(7.11784 -7.92322 4.61423e-20)
(6.87739 -7.78195 2.46929e-18)
(6.6412 -7.63281 -5.64124e-18)
(6.40954 -7.47594 -8.29384e-19)
(6.18267 -7.3115 3.11035e-18)
(5.96084 -7.13965 4.66137e-18)
(5.7443 -6.96056 1.55578e-18)
(5.53329 -6.77443 -3.72331e-18)
(5.32805 -6.58143 1.41767e-18)
(5.12879 -6.38176 -5.60727e-20)
(4.93575 -6.17565 -2.86317e-18)
(4.74914 -5.96328 1.31295e-18)
(4.56916 -5.7449 1.16139e-19)
(4.39601 -5.52073 -2.85856e-18)
(4.22987 -5.29101 5.22846e-20)
(4.07093 -5.05599 1.22481e-18)
(3.91936 -4.81591 -1.97227e-18)
(3.7753 -4.57104 -1.06211e-18)
(3.63889 -4.32164 1.81521e-18)
(3.51028 -4.06797 8.73274e-19)
(3.38956 -3.81027 -1.56545e-18)
(3.27686 -3.54881 -2.15847e-19)
(3.17227 -3.28382 2.05466e-18)
(3.0759 -3.01552 5.10714e-19)
(2.98787 -2.74416 -1.45426e-19)
(2.9083 -2.46999 -1.2402e-18)
(2.83728 -2.19329 -6.04277e-20)
(2.7749 -1.91435 1.56214e-18)
(2.72122 -1.63345 -2.72277e-19)
(2.67629 -1.35089 -5.53189e-19)
(2.64014 -1.06695 2.65052e-19)
(2.61278 -0.781929 -2.47874e-19)
(2.59422 -0.496102 4.07755e-20)
(2.58446 -0.20977 1.46382e-19)
(17.5116 -1.9252 5.8465e-19)
(17.5536 -2.06134 1.41693e-18)
(17.5926 -2.20491 -8.23191e-21)
(17.6275 -2.35558 -3.19111e-20)
(17.6572 -2.51277 -7.94796e-19)
(17.681 -2.67592 2.80707e-20)
(17.6981 -2.84441 4.18207e-20)
(17.7082 -3.01766 -7.22431e-19)
(17.7108 -3.19506 4.15807e-20)
(17.7055 -3.37599 -6.23103e-19)
(17.6921 -3.55985 5.66085e-19)
(17.6704 -3.74603 5.76233e-20)
(17.6403 -3.93392 -6.95371e-19)
(17.6016 -4.12289 2.57749e-19)
(17.5543 -4.31233 1.63445e-19)
(17.4984 -4.50161 3.51161e-19)
(17.4338 -4.69012 4.6379e-19)
(17.3606 -4.87737 -2.88902e-19)
(17.2788 -5.06324 -1.24171e-18)
(17.1883 -5.2473 -9.28231e-20)
(17.0893 -5.42913 1.82491e-18)
(16.982 -5.60834 -3.89123e-19)
(16.8666 -5.78456 -3.36688e-19)
(16.7433 -5.95751 -2.3076e-18)
(16.6123 -6.12688 1.83261e-19)
(16.4737 -6.29238 -2.85689e-19)
(16.3278 -6.45373 -1.77437e-18)
(16.1748 -6.61065 1.28119e-18)
(16.0149 -6.76285 1.11479e-18)
(15.8483 -6.91008 0)
(15.6752 -7.05207 1.91463e-18)
(15.4959 -7.18857 1.57205e-19)
(15.3107 -7.31936 -1.6301e-18)
(15.1197 -7.44419 -1.10479e-18)
(14.9232 -7.56286 -1.34338e-19)
(14.7216 -7.67516 -4.833e-19)
(14.515 -7.7809 2.15046e-18)
(14.3037 -7.87991 2.47676e-18)
(14.0879 -7.97201 1.72086e-18)
(13.8681 -8.05704 7.83901e-20)
(13.6444 -8.13487 -1.58677e-18)
(13.4171 -8.20536 -1.6046e-18)
(13.1864 -8.26838 -1.89473e-18)
(12.9528 -8.32383 3.5007e-18)
(12.7164 -8.37159 1.75908e-19)
(12.4776 -8.41158 -1.97636e-18)
(12.2366 -8.44372 -3.25788e-19)
(11.9937 -8.46793 -4.46476e-19)
(11.7493 -8.48416 5.24758e-19)
(11.5035 -8.49236 -1.69661e-19)
(11.2567 -8.49248 0)
(11.0092 -8.4845 -6.091e-19)
(10.7613 -8.4684 -8.08821e-20)
(10.5132 -8.44416 -1.32638e-18)
(10.2653 -8.41179 -2.61113e-18)
(10.0178 -8.3713 1.98274e-18)
(9.77096 -8.32269 2.72087e-18)
(9.52514 -8.26602 6.6856e-19)
(9.28058 -8.2013 4.51686e-20)
(9.03758 -8.12858 -3.00108e-18)
(8.79639 -8.04793 -2.50737e-18)
(8.5573 -7.95941 3.75574e-18)
(8.32057 -7.86309 2.48344e-18)
(8.08648 -7.75906 -1.27488e-18)
(7.85527 -7.6474 -1.38976e-20)
(7.62722 -7.52822 -1.26196e-18)
(7.40257 -7.40162 -1.76099e-21)
(7.18158 -7.26773 1.24027e-18)
(6.9645 -7.12666 -6.20658e-19)
(6.75156 -6.97856 -1.22622e-18)
(6.54301 -6.82355 -5.72885e-19)
(6.33907 -6.6618 1.13874e-18)
(6.13997 -6.49345 1.18094e-18)
(5.94593 -6.31868 1.07822e-18)
(5.75717 -6.13764 1.02885e-18)
(5.5739 -5.95054 4.91311e-20)
(5.39632 -5.75754 2.04308e-18)
(5.22461 -5.55884 -2.87519e-18)
(5.05898 -5.35464 1.28119e-19)
(4.89961 -5.14516 3.10525e-18)
(4.74665 -4.93059 -2.65222e-18)
(4.60028 -4.71117 -4.66235e-19)
(4.46065 -4.48711 -1.5887e-20)
(4.3279 -4.25863 -9.50313e-19)
(4.20218 -4.02598 4.10303e-19)
(4.08359 -3.78938 8.40635e-19)
(3.97227 -3.54907 -4.45171e-19)
(3.86831 -3.30528 -8.20584e-19)
(3.77182 -3.05824 -5.41136e-19)
(3.6829 -2.80819 -7.24345e-19)
(3.60165 -2.55536 1.03892e-18)
(3.52816 -2.3 6.20329e-19)
(3.46252 -2.04236 -8.42089e-19)
(3.40482 -1.7827 5.75881e-19)
(3.35512 -1.52128 1.32174e-19)
(3.31347 -1.25837 -4.80778e-19)
(3.27992 -0.99423 -2.49634e-19)
(3.25451 -0.729131 -5.37085e-20)
(3.23727 -0.463338 3.80008e-20)
(3.2282 -0.197122 2.82123e-19)
(17.2061 -1.96079 -3.4172e-19)
(17.2409 -2.08425 1.49934e-19)
(17.2717 -2.21308 1.94482e-19)
(17.2979 -2.3472 5.92453e-19)
(17.3191 -2.48637 5.15429e-19)
(17.3346 -2.63027 8.33171e-20)
(17.3442 -2.77855 3.8939e-19)
(17.3475 -2.93081 7.08845e-19)
(17.3441 -3.08666 5.05046e-20)
(17.3337 -3.24567 -4.64645e-19)
(17.3162 -3.40743 2.21368e-19)
(17.2913 -3.57149 -3.64057e-19)
(17.2588 -3.73746 -4.8096e-22)
(17.2187 -3.90491 0)
(17.1709 -4.07344 2.75214e-19)
(17.1153 -4.24269 -2.69277e-19)
(17.0519 -4.41225 -2.43712e-19)
(16.9807 -4.58159 -1.98256e-19)
(16.902 -4.75018 -1.49047e-19)
(16.8156 -4.91757 3.70746e-19)
(16.7217 -5.08336 -9.91583e-19)
(16.6204 -5.24714 -7.25137e-19)
(16.5118 -5.40855 8.37329e-19)
(16.3961 -5.56724 -1.19001e-18)
(16.2734 -5.72285 8.47521e-19)
(16.1438 -5.87509 2.88672e-19)
(16.0076 -6.02363 -1.3645e-19)
(15.8649 -6.1682 -1.30063e-18)
(15.7158 -6.30851 6.44804e-19)
(15.5607 -6.44429 9.36734e-19)
(15.3996 -6.57531 3.85262e-19)
(15.2328 -6.70131 8.8921e-19)
(15.0605 -6.82207 -1.06276e-18)
(14.8829 -6.93737 -1.52587e-18)
(14.7002 -7.047 5.53978e-19)
(14.5128 -7.15078 -9.84669e-19)
(14.3208 -7.24853 1.80886e-18)
(14.1244 -7.34006 1.83369e-18)
(13.9239 -7.42522 -1.65734e-18)
(13.7197 -7.50386 -3.0222e-19)
(13.5118 -7.57584 9.28787e-19)
(13.3006 -7.64103 -2.43923e-18)
(13.0863 -7.69931 -7.48143e-19)
(12.8692 -7.75058 9.42043e-19)
(12.6496 -7.79473 -1.04776e-18)
(12.4277 -7.83169 2.08399e-18)
(12.2037 -7.86136 3.56086e-19)
(11.978 -7.88369 -8.16236e-19)
(11.7509 -7.89861 6.35647e-19)
(11.5225 -7.90607 -1.06172e-18)
(11.2932 -7.90604 0)
(11.0632 -7.89848 -9.53254e-19)
(10.8328 -7.88338 -6.61382e-20)
(10.6022 -7.86072 8.82541e-19)
(10.3718 -7.83051 7.74868e-19)
(10.1418 -7.79274 5.28549e-19)
(9.91244 -7.74744 -8.15935e-19)
(9.68399 -7.69463 5.6264e-19)
(9.45672 -7.63434 3.60593e-20)
(9.23089 -7.56662 -9.75485e-19)
(9.00675 -7.49152 -2.75567e-18)
(8.78456 -7.4091 -9.06415e-19)
(8.56458 -7.31943 2.77863e-18)
(8.34704 -7.22258 2.23735e-18)
(8.13219 -7.11864 1.10021e-20)
(7.92027 -7.0077 -2.26455e-18)
(7.71153 -6.88987 -6.69269e-21)
(7.50619 -6.76524 -1.23262e-18)
(7.30449 -6.63395 -3.99191e-19)
(7.10664 -6.49611 2.84688e-18)
(6.91287 -6.35185 7.6963e-19)
(6.7234 -6.20132 4.35826e-19)
(6.53843 -6.04466 1.21886e-18)
(6.35816 -5.88201 -1.98174e-18)
(6.18281 -5.71356 -2.9775e-19)
(6.01255 -5.53944 6.83487e-19)
(5.84758 -5.35986 -1.69996e-18)
(5.68808 -5.17497 2.79132e-19)
(5.53422 -4.98496 4.69297e-19)
(5.38616 -4.79004 -4.69609e-19)
(5.24408 -4.59038 7.18787e-19)
(5.10811 -4.3862 7.24997e-19)
(4.9784 -4.1777 -4.5058e-19)
(4.85509 -3.96509 9.34692e-19)
(4.73831 -3.74858 -8.19907e-19)
(4.62817 -3.52838 -1.85179e-18)
(4.5248 -3.30472 7.12996e-19)
(4.42829 -3.07782 1.73087e-18)
(4.33874 -2.84788 1.25979e-19)
(4.25626 -2.61515 -7.86466e-19)
(4.18092 -2.37985 -1.62864e-19)
(4.1128 -2.1422 3.45906e-19)
(4.05199 -1.90244 2.02131e-19)
(3.99855 -1.66081 -7.75168e-20)
(3.95252 -1.41756 1.9297e-19)
(3.91397 -1.17293 2.7136e-19)
(3.88293 -0.927157 2.99367e-19)
(3.85942 -0.680496 -1.80331e-19)
(3.84347 -0.433193 -4.30953e-20)
(3.83508 -0.185499 -2.54197e-19)
(16.9286 -2.06031 -1.41823e-19)
(16.9509 -2.1775 -1.25621e-19)
(16.9697 -2.29908 -2.18866e-19)
(16.9845 -2.42494 -1.11725e-19)
(16.9949 -2.55489 1.29347e-19)
(17.0004 -2.68864 4.65489e-20)
(17.0008 -2.8259 -4.0742e-21)
(16.9958 -2.96634 -6.36915e-20)
(16.985 -3.10962 -2.65475e-19)
(16.9682 -3.25537 1.04845e-19)
(16.9452 -3.40321 -1.54051e-19)
(16.9159 -3.55276 -3.57326e-19)
(16.8801 -3.70362 -1.44246e-19)
(16.8377 -3.8554 4.2121e-19)
(16.7886 -4.00768 -2.05302e-19)
(16.7328 -4.16005 -2.1189e-19)
(16.6702 -4.31213 2.09278e-19)
(16.6008 -4.46366 3.70036e-19)
(16.5246 -4.61429 -6.85163e-19)
(16.4416 -4.76369 2.92041e-19)
(16.3519 -4.91154 -9.04234e-19)
(16.2557 -5.05751 3.80294e-19)
(16.1529 -5.20129 4.29151e-19)
(16.0437 -5.34259 -5.06095e-19)
(15.9282 -5.48112 -9.19097e-19)
(15.8066 -5.6166 9.01465e-19)
(15.679 -5.74876 1.08414e-18)
(15.5455 -5.87734 3.25677e-19)
(15.4063 -6.0021 1.09964e-18)
(15.2616 -6.1228 3.23987e-19)
(15.1116 -6.2392 -1.39347e-18)
(14.9564 -6.35109 -1.38549e-18)
(14.7962 -6.45826 2.15823e-19)
(14.6312 -6.5605 1.5419e-18)
(14.4616 -6.65763 1.26502e-18)
(14.2877 -6.74946 2.47047e-20)
(14.1096 -6.83583 -6.57559e-19)
(13.9276 -6.91657 -1.98121e-19)
(13.7418 -6.99153 -1.40906e-18)
(13.5526 -7.06057 -1.67233e-19)
(13.3601 -7.12357 1.22772e-18)
(13.1645 -7.18039 -1.60583e-20)
(12.9662 -7.23092 8.52675e-20)
(12.7653 -7.27506 -6.02769e-20)
(12.5621 -7.31272 2.18347e-18)
(12.3568 -7.34382 1.52358e-19)
(12.1496 -7.36826 -2.41856e-18)
(11.9409 -7.386 4.51521e-19)
(11.7308 -7.39697 -3.09281e-19)
(11.5196 -7.40113 -4.23263e-19)
(11.3075 -7.39843 6.94378e-19)
(11.0949 -7.38884 -1.03577e-18)
(10.8818 -7.37234 -1.74241e-18)
(10.6687 -7.34893 -2.16163e-18)
(10.4556 -7.31859 -1.85724e-20)
(10.243 -7.28133 4.68162e-18)
(10.0309 -7.23716 2.94417e-18)
(9.81968 -7.1861 -3.42036e-19)
(9.60956 -7.12818 -1.39534e-18)
(9.40078 -7.06344 -1.09117e-18)
(9.19356 -6.99193 -2.48252e-18)
(8.98813 -6.91369 1.08547e-18)
(8.78474 -6.82879 2.46275e-18)
(8.58361 -6.7373 -4.24701e-23)
(8.38497 -6.63929 1.36886e-18)
(8.18904 -6.53485 -1.39175e-21)
(7.99603 -6.42407 -1.3318e-18)
(7.80616 -6.30705 -9.8395e-19)
(7.61965 -6.18389 -4.65596e-20)
(7.43671 -6.05471 -6.12029e-19)
(7.25752 -5.91963 -2.66333e-19)
(7.0823 -5.77877 2.52769e-20)
(6.91124 -5.63227 3.64113e-19)
(6.74453 -5.48026 6.79398e-19)
(6.58234 -5.3229 1.59722e-18)
(6.42487 -5.16034 -7.25745e-19)
(6.27227 -4.99272 -2.62958e-18)
(6.12473 -4.82023 1.74903e-18)
(5.98239 -4.64302 8.98374e-19)
(5.84541 -4.46127 -5.40329e-19)
(5.71395 -4.27516 -1.00308e-18)
(5.58813 -4.08487 -7.13846e-19)
(5.4681 -3.89059 1.96972e-18)
(5.35399 -3.69251 4.071e-19)
(5.2459 -3.49083 -7.49265e-19)
(5.14397 -3.28575 5.0652e-19)
(5.04829 -3.07746 -1.62893e-19)
(4.95896 -2.86617 -1.24839e-18)
(4.87607 -2.65209 6.31019e-20)
(4.79973 -2.43543 4.81865e-19)
(4.72999 -2.2164 -5.10576e-19)
(4.66695 -1.99521 2.68698e-19)
(4.61066 -1.77208 9.29721e-19)
(4.56119 -1.54723 -4.82735e-19)
(4.51859 -1.32089 -2.21097e-19)
(4.4829 -1.09328 -1.54247e-20)
(4.45416 -0.864618 -9.84751e-20)
(4.43239 -0.635142 2.60185e-19)
(4.41761 -0.405077 1.22747e-19)
(4.40984 -0.174653 1.87216e-19)
(16.6841 -2.0952 5.31679e-20)
(16.6981 -2.20383 -1.70525e-19)
(16.7087 -2.31583 -3.89176e-19)
(16.7156 -2.43116 -1.24999e-19)
(16.7183 -2.54971 -2.0787e-19)
(16.7168 -2.67128 -1.01239e-19)
(16.7106 -2.79566 3.09544e-20)
(16.6995 -2.92261 -3.69342e-19)
(16.6834 -3.05188 -2.26159e-19)
(16.662 -3.18318 -1.96e-19)
(16.6351 -3.31623 -8.3953e-20)
(16.6026 -3.45074 -1.42496e-19)
(16.5643 -3.5864 3.61027e-19)
(16.5202 -3.72292 -5.82236e-19)
(16.4702 -3.85998 1.17885e-19)
(16.4142 -3.9973 7.31399e-19)
(16.3522 -4.13453 3.97448e-19)
(16.2842 -4.27133 -7.77292e-20)
(16.2101 -4.40738 -2.52089e-19)
(16.1301 -4.54236 1.28866e-19)
(16.0442 -4.67598 -7.73628e-19)
(15.9524 -4.80793 -1.59951e-19)
(15.8547 -4.93794 5.88226e-19)
(15.7513 -5.06571 5.36685e-19)
(15.6423 -5.19099 -1.51254e-18)
(15.5278 -5.31352 1.30981e-18)
(15.4078 -5.43303 1.58562e-18)
(15.2826 -5.54931 -4.52785e-19)
(15.1522 -5.6621 4.86694e-19)
(15.0169 -5.77119 -9.3432e-19)
(14.8766 -5.87637 -7.91095e-19)
(14.7317 -5.97744 -5.95659e-19)
(14.5823 -6.07418 -2.57898e-19)
(14.4285 -6.16644 2.28577e-18)
(14.2706 -6.25401 1.18602e-19)
(14.1087 -6.33674 -1.00116e-18)
(13.9431 -6.41447 -3.5912e-20)
(13.7738 -6.48704 -1.05146e-18)
(13.6011 -6.55432 -1.17066e-18)
(13.4253 -6.61617 1.74832e-19)
(13.2465 -6.67247 1.78179e-18)
(13.0649 -6.7231 1.12022e-20)
(12.8808 -6.76796 -1.14766e-18)
(12.6943 -6.80695 -1.03202e-19)
(12.5057 -6.83998 1.11945e-18)
(12.3152 -6.86698 -6.26579e-19)
(12.1231 -6.88786 -4.24088e-19)
(11.9295 -6.90257 1.68127e-18)
(11.7346 -6.91106 -1.11092e-20)
(11.5388 -6.91327 -1.14883e-18)
(11.3422 -6.90917 1.10434e-18)
(11.145 -6.89872 5.31278e-19)
(10.9475 -6.88191 -1.03974e-18)
(10.75 -6.85873 -4.82686e-19)
(10.5525 -6.82916 -6.38206e-20)
(10.3554 -6.79321 1.18593e-18)
(10.1589 -6.7509 -3.12813e-20)
(9.96319 -6.70223 1.03801e-18)
(9.76849 -6.64723 4.87206e-20)
(9.57504 -6.58594 -1.15392e-18)
(9.38305 -6.5184 -6.05685e-19)
(9.19273 -6.44466 -1.02134e-18)
(9.00431 -6.36477 -4.19074e-22)
(8.81798 -6.2788 -3.0213e-20)
(8.63397 -6.18681 6.12303e-19)
(8.45247 -6.08889 -5.36671e-19)
(8.27369 -5.98512 -4.92463e-19)
(8.09783 -5.87558 5.31971e-19)
(7.92508 -5.76037 4.94038e-19)
(7.75563 -5.63961 3.09317e-20)
(7.58967 -5.5134 -1.43571e-18)
(7.42739 -5.38185 -4.91962e-19)
(7.26896 -5.24509 1.38683e-18)
(7.11456 -5.10325 9.3662e-19)
(6.96436 -4.95647 -9.97268e-19)
(6.81852 -4.80487 -3.2516e-19)
(6.6772 -4.64861 1.21723e-18)
(6.54055 -4.48784 7.36871e-19)
(6.40873 -4.32272 1.85959e-19)
(6.28188 -4.15339 -7.76967e-19)
(6.16013 -3.98004 -8.06069e-19)
(6.04361 -3.80282 -5.25067e-19)
(5.93246 -3.62192 -9.89178e-21)
(5.82678 -3.4375 1.57492e-19)
(5.72668 -3.24974 -9.62869e-20)
(5.63229 -3.05884 2.98346e-19)
(5.54369 -2.86497 8.15301e-19)
(5.46098 -2.66834 5.1816e-19)
(5.38424 -2.46911 -2.56416e-19)
(5.31356 -2.26751 -4.63264e-19)
(5.249 -2.06371 -1.88127e-19)
(5.19065 -1.85792 -4.73738e-19)
(5.13855 -1.65034 -6.53942e-20)
(5.09276 -1.44117 5.004e-19)
(5.05334 -1.23063 -1.39357e-19)
(5.02031 -1.01891 2.06746e-19)
(4.99371 -0.806235 -2.76343e-19)
(4.97356 -0.592801 -2.81192e-19)
(4.95988 -0.378824 -7.87168e-21)
(4.95268 -0.164514 2.95313e-19)
(16.4592 -2.12904 9.66813e-20)
(16.4651 -2.23071 2.73232e-19)
(16.468 -2.33513 -8.51484e-20)
(16.4675 -2.44226 1.28362e-19)
(16.4633 -2.55198 -2.32386e-19)
(16.4553 -2.66413 2.79469e-20)
(16.4431 -2.77853 -6.08668e-20)
(16.4267 -2.89497 1.42555e-20)
(16.4057 -3.01322 6.02006e-20)
(16.3801 -3.13305 2.65984e-19)
(16.3496 -3.25422 -2.77343e-20)
(16.3143 -3.37646 5.07958e-19)
(16.2739 -3.49952 -1.84604e-20)
(16.2283 -3.62312 -4.28393e-19)
(16.1776 -3.74698 3.62437e-19)
(16.1216 -3.87084 -8.55179e-20)
(16.0602 -3.99444 2.11178e-19)
(15.9936 -4.11751 -2.22656e-19)
(15.9216 -4.2398 4.1419e-20)
(15.8443 -4.36105 -5.32996e-19)
(15.7617 -4.48099 -6.7535e-19)
(15.6739 -4.59937 -3.9387e-19)
(15.5809 -4.71595 8.4885e-19)
(15.4828 -4.83048 8.71227e-19)
(15.3796 -4.94272 -5.76761e-19)
(15.2715 -5.05245 1.50266e-19)
(15.1585 -5.15945 -1.71242e-19)
(15.0408 -5.26349 -1.37151e-19)
(14.9185 -5.36437 -2.91065e-19)
(14.7917 -5.46189 5.26206e-19)
(14.6605 -5.55585 -9.1526e-19)
(14.5251 -5.64606 -8.28833e-19)
(14.3856 -5.73236 3.88524e-19)
(14.2422 -5.81456 4.03386e-19)
(14.0951 -5.8925 1.23521e-18)
(13.9443 -5.96604 -8.18238e-19)
(13.7902 -6.03501 -8.49707e-19)
(13.6328 -6.09929 -8.09252e-19)
(13.4723 -6.15874 4.28205e-19)
(13.309 -6.21324 2.62631e-18)
(13.1429 -6.26267 -4.05417e-19)
(12.9744 -6.30693 -1.47233e-18)
(12.8035 -6.34591 -9.23503e-19)
(12.6306 -6.37952 4.89192e-19)
(12.4557 -6.40769 1.82241e-18)
(12.2791 -6.43033 8.31653e-19)
(12.101 -6.44738 -1.41942e-18)
(11.9216 -6.45878 -1.35355e-18)
(11.7411 -6.46447 4.36168e-19)
(11.5596 -6.46441 -4.49472e-19)
(11.3775 -6.45856 7.06397e-20)
(11.1949 -6.4469 1.2733e-18)
(11.0121 -6.4294 -1.25004e-20)
(10.8291 -6.40605 -3.57244e-18)
(10.6463 -6.37684 -4.62617e-19)
(10.4639 -6.34178 2.66086e-18)
(10.282 -6.30086 -1.32935e-18)
(10.1008 -6.25411 1.48706e-20)
(9.92064 -6.20155 2.59956e-18)
(9.74161 -6.14321 -9.93327e-21)
(9.56394 -6.07912 -1.3013e-18)
(9.38783 -6.00933 -1.58825e-22)
(9.21347 -5.93389 8.38958e-19)
(9.04107 -5.85285 -2.05028e-18)
(8.87082 -5.76628 1.23744e-20)
(8.70289 -5.67425 1.98069e-18)
(8.53749 -5.57684 -3.95329e-19)
(8.37479 -5.47412 2.87699e-20)
(8.21497 -5.36619 -7.78539e-19)
(8.05821 -5.25314 -1.51826e-18)
(7.90468 -5.13508 7.41131e-19)
(7.75455 -5.0121 1.27507e-18)
(7.60799 -4.88433 -8.06748e-20)
(7.46516 -4.75187 1.29465e-18)
(7.32621 -4.61486 1.23742e-20)
(7.1913 -4.47342 -1.59551e-18)
(7.06057 -4.32768 -2.71984e-19)
(6.93416 -4.17779 -8.50786e-19)
(6.81221 -4.02388 7.41543e-19)
(6.69486 -3.8661 2.27596e-18)
(6.58223 -3.70461 2.26941e-19)
(6.47444 -3.53955 -1.07263e-18)
(6.37161 -3.37109 -7.70228e-19)
(6.27385 -3.19939 4.8361e-19)
(6.18125 -3.02462 1.15266e-19)
(6.09393 -2.84694 -2.55131e-19)
(6.01196 -2.66653 -1.63575e-19)
(5.93545 -2.48355 -4.56845e-19)
(5.86446 -2.2982 4.24297e-19)
(5.79908 -2.11065 2.36995e-19)
(5.73937 -1.92107 -1.53948e-19)
(5.68539 -1.72966 4.88148e-19)
(5.6372 -1.53661 -2.50236e-19)
(5.59485 -1.34209 -3.27518e-19)
(5.55838 -1.1463 1.31103e-19)
(5.52783 -0.949433 1.52872e-19)
(5.50322 -0.751677 9.77306e-20)
(5.48458 -0.553227 -2.14744e-19)
(5.47193 -0.354275 -6.45391e-20)
(5.46526 -0.155018 -1.19123e-19)
(16.2539 -2.13708 -5.55163e-20)
(16.2537 -2.2318 2.07515e-19)
(16.2507 -2.32867 2.8051e-19)
(16.2445 -2.42767 -1.65275e-19)
(16.2349 -2.52872 -2.7712e-20)
(16.2218 -2.63169 3.18018e-19)
(16.205 -2.73644 2.73849e-19)
(16.1843 -2.84279 2.97136e-19)
(16.1596 -2.95056 1.88564e-20)
(16.1307 -3.05957 -1.23522e-19)
(16.0975 -3.16961 1.40526e-19)
(16.0599 -3.28046 3.83749e-19)
(16.0179 -3.39193 -4.2249e-19)
(15.9713 -3.50378 -1.91739e-19)
(15.92 -3.6158 5.20289e-19)
(15.8641 -3.72775 3.70558e-19)
(15.8035 -3.8394 0)
(15.7382 -3.9505 2.94742e-19)
(15.6681 -4.06084 1.95307e-19)
(15.5933 -4.17017 -6.77091e-19)
(15.5138 -4.27828 3.74491e-19)
(15.4297 -4.38492 4.63852e-19)
(15.3409 -4.48989 -5.5379e-19)
(15.2476 -4.59297 1.02168e-20)
(15.1497 -4.69394 1.4564e-19)
(15.0474 -4.7926 3.60363e-19)
(14.9408 -4.88875 8.20176e-21)
(14.8299 -4.98219 -1.07589e-18)
(14.7149 -5.07274 2.3155e-19)
(14.5959 -5.1602 1.25283e-18)
(14.4729 -5.24441 -3.57722e-19)
(14.3462 -5.3252 -7.31955e-19)
(14.2157 -5.4024 4.16069e-19)
(14.0818 -5.47585 -2.25189e-19)
(13.9445 -5.54542 -7.03308e-19)
(13.8039 -5.61094 1.26777e-18)
(13.6602 -5.6723 3.81825e-19)
(13.5137 -5.72935 -3.14774e-19)
(13.3643 -5.78199 1.20242e-19)
(13.2124 -5.83009 -3.51075e-19)
(13.058 -5.87356 -1.02796e-18)