/*--------------------------------*- C++ -*----------------------------------*\
  =========                 |
  \\      /  F ield         | OpenFOAM: The Open Source CFD Toolbox
   \\    /   O peration     | Website:  https://openfoam.org
    \\  /    A nd           | Version:  8
     \\/     M anipulation  |
\*---------------------------------------------------------------------------*/
FoamFile
{
    version     2.0;
    format      ascii;
    class       volScalarField;
    location    "0.068";
    object      p;
}
// * * * * * * * * * * * * * * * * * * * * * * * * * * * * * * * * * * * * * //

dimensions      [0 2 -2 0 0 0 0];

internalField   nonuniform List<scalar> 
112724
(
1.75098
1.73652
1.72385
1.71134
1.69884
1.68621
1.67339
1.66039
1.64723
1.63389
1.62039
1.60672
1.5929
1.57894
1.56484
1.55061
1.53626
1.52179
1.50721
1.49253
1.47774
1.46287
1.4479
1.43285
1.41771
1.40251
1.38723
1.37188
1.35646
1.34099
1.32546
1.30987
1.29423
1.27854
1.2628
1.24702
1.2312
1.21534
1.19944
1.18351
1.16754
1.15155
1.13552
1.11946
1.10338
1.08727
1.07114
1.05499
1.03881
1.02261
1.00639
0.990161
0.973908
0.957642
0.941359
0.925061
0.908748
0.892424
0.876084
0.859732
0.843372
0.826996
0.81061
0.794213
0.777806
0.761389
0.744961
0.728527
0.712082
0.695627
0.679165
0.662691
0.646209
0.629718
0.613218
0.596711
0.58019
0.563667
0.547132
0.530589
0.514034
0.497472
0.4809
0.464322
0.44773
0.431125
0.414519
0.397896
0.381264
0.364621
0.347966
0.331305
0.314628
0.297939
0.281238
0.264529
0.247804
0.231065
0.214314
0.197549
0.18077
0.163977
0.14717
0.130347
0.11351
0.09666
0.0797908
0.0629054
0.0460043
0.0290898
0.0121535
-0.00479933
-0.0217693
-0.038759
-0.0557605
-0.0727892
-0.0898344
-0.106894
-0.123977
-0.141079
-0.158204
-0.175345
-0.192508
-0.20969
-0.226898
-0.244123
-0.261371
-0.278642
-0.295933
-0.313246
-0.33058
-0.347937
-0.365315
-0.382715
-0.40014
-0.417586
-0.435054
-0.452545
-0.470059
-0.487595
-0.505148
-0.522726
-0.540328
-0.557947
-0.57559
-0.593253
-0.610935
-0.628637
-0.646361
-0.664102
-0.681862
-0.69964
-0.717437
-0.735245
-0.753069
-0.77091
-0.788764
-0.806633
-0.824512
-0.842399
-0.860294
-0.878198
-0.89611
-0.91403
-0.931949
-0.949869
-0.967791
-0.985705
-1.00362
-1.02152
-1.03941
-1.0573
-1.07517
-1.09302
-1.11085
-1.12865
-1.14644
-1.16418
-1.1819
-1.19957
-1.21721
-1.2348
-1.25233
-1.26981
-1.28723
-1.30458
-1.32185
-1.33905
-1.35617
-1.37319
-1.39011
-1.40693
-1.42364
-1.44025
-1.45676
-1.47317
-1.48955
-1.50609
-1.52302
-1.54247
1.75715
1.74433
1.73151
1.71879
1.70627
1.69373
1.68103
1.66817
1.65512
1.6419
1.62851
1.61495
1.60123
1.58735
1.57334
1.55919
1.5449
1.5305
1.51597
1.50134
1.4866
1.47175
1.45682
1.44179
1.42668
1.41148
1.39621
1.38085
1.36544
1.34995
1.3344
1.31879
1.30313
1.28741
1.27163
1.25581
1.23994
1.22403
1.20808
1.19209
1.17605
1.15999
1.14389
1.12776
1.11159
1.0954
1.07919
1.06294
1.04667
1.03038
1.01406
0.997723
0.981364
0.964988
0.948589
0.932176
0.915745
0.899297
0.882833
0.866356
0.849862
0.833356
0.816835
0.800302
0.783757
0.767196
0.750627
0.734046
0.717454
0.700847
0.684234
0.667607
0.65097
0.634322
0.617665
0.600995
0.584316
0.567628
0.550929
0.534218
0.517498
0.500766
0.484026
0.467274
0.450511
0.433735
0.416951
0.400154
0.383346
0.366526
0.349695
0.332852
0.315998
0.299128
0.282248
0.265355
0.248449
0.23153
0.214593
0.197649
0.180683
0.16371
0.146716
0.129711
0.11269
0.0956535
0.0786014
0.0615311
0.0444467
0.0273452
0.0102268
-0.00690947
-0.0240632
-0.041235
-0.0584221
-0.0756314
-0.0928573
-0.110101
-0.127364
-0.144647
-0.161949
-0.179272
-0.196612
-0.213972
-0.231354
-0.248757
-0.266178
-0.283621
-0.301084
-0.318568
-0.336071
-0.353598
-0.371143
-0.388709
-0.406295
-0.423906
-0.441534
-0.459183
-0.476854
-0.494542
-0.512253
-0.529981
-0.547731
-0.565499
-0.583285
-0.601089
-0.618914
-0.636753
-0.65461
-0.672482
-0.690372
-0.708277
-0.726195
-0.744124
-0.762065
-0.780018
-0.797985
-0.81596
-0.833941
-0.851926
-0.86992
-0.887916
-0.905916
-0.923917
-0.941916
-0.959912
-0.977903
-0.995882
-1.01386
-1.03181
-1.04976
-1.06769
-1.0856
-1.10349
-1.12135
-1.13918
-1.15697
-1.17473
-1.19245
-1.21013
-1.22775
-1.24533
-1.26284
-1.28029
-1.29768
-1.31498
-1.33221
-1.34936
-1.36641
-1.38336
-1.4002
-1.41694
-1.43357
-1.45009
-1.46652
-1.48289
-1.49939
-1.5163
-1.53354
-1.55095
1.76319
1.75164
1.73913
1.72637
1.71376
1.70125
1.68868
1.67593
1.66301
1.64991
1.63662
1.62317
1.60955
1.59577
1.58184
1.56777
1.55356
1.53922
1.52475
1.51017
1.49548
1.48068
1.46577
1.45077
1.43568
1.4205
1.40523
1.38989
1.37447
1.35897
1.34341
1.32779
1.3121
1.29635
1.28054
1.26468
1.24877
1.23281
1.21681
1.20076
1.18467
1.16854
1.15237
1.13616
1.11992
1.10365
1.08735
1.07101
1.05465
1.03826
1.02185
1.0054
0.98894
0.972451
0.955942
0.939414
0.922863
0.906293
0.889706
0.8731
0.856478
0.839837
0.823182
0.806511
0.789824
0.773123
0.756408
0.739678
0.722938
0.70618
0.689411
0.672632
0.655838
0.639029
0.62221
0.60538
0.588536
0.571681
0.554815
0.537936
0.521045
0.50414
0.487228
0.470301
0.453363
0.436409
0.419448
0.402473
0.385483
0.368485
0.351469
0.334446
0.317406
0.300354
0.283289
0.266212
0.249118
0.232012
0.21489
0.197757
0.180605
0.163443
0.146262
0.129068
0.111858
0.0946335
0.0773926
0.0601357
0.0428607
0.0255731
0.00826312
-0.00905816
-0.0264015
-0.0437592
-0.0611327
-0.07853
-0.0959405
-0.113371
-0.130816
-0.148285
-0.165771
-0.183275
-0.200797
-0.218338
-0.2359
-0.253479
-0.271078
-0.288699
-0.306337
-0.323991
-0.341668
-0.359366
-0.377079
-0.394814
-0.412568
-0.43034
-0.448132
-0.465942
-0.48377
-0.501618
-0.51948
-0.537362
-0.55526
-0.573176
-0.591109
-0.609054
-0.627017
-0.644995
-0.662985
-0.680992
-0.699008
-0.717039
-0.735076
-0.753126
-0.771183
-0.789252
-0.807325
-0.825407
-0.843486
-0.86157
-0.879656
-0.897744
-0.91583
-0.93391
-0.951985
-0.970051
-0.988111
-1.00615
-1.02418
-1.04219
-1.06019
-1.07816
-1.09611
-1.11403
-1.13191
-1.14976
-1.16757
-1.18533
-1.20306
-1.22073
-1.23835
-1.2559
-1.27339
-1.29081
-1.30816
-1.32542
-1.3426
-1.35968
-1.37667
-1.39355
-1.41032
-1.42697
-1.44352
-1.45996
-1.47632
-1.49273
-1.50944
-1.52651
-1.54344
-1.55928
1.76869
1.75842
1.74657
1.73398
1.72131
1.7088
1.69629
1.68366
1.67086
1.65788
1.64472
1.63138
1.61786
1.60418
1.59035
1.57636
1.56223
1.54796
1.53356
1.51903
1.50439
1.48963
1.47476
1.4598
1.44473
1.42957
1.41432
1.39898
1.38357
1.36807
1.3525
1.33686
1.32115
1.30538
1.28954
1.27365
1.2577
1.2417
1.22564
1.20954
1.19339
1.1772
1.16096
1.14469
1.12837
1.11202
1.09563
1.07921
1.06276
1.04627
1.02976
1.01322
0.996644
0.980048
0.963431
0.946784
0.930113
0.913424
0.89671
0.879978
0.863225
0.846451
0.829659
0.81285
0.79602
0.779177
0.762313
0.745437
0.728542
0.711634
0.69471
0.67777
0.660818
0.643848
0.626864
0.60987
0.592858
0.575833
0.558798
0.541744
0.524681
0.507601
0.490512
0.473405
0.456288
0.439155
0.422012
0.404853
0.387682
0.370496
0.353296
0.336085
0.318858
0.301618
0.284363
0.267095
0.249812
0.232515
0.215203
0.197877
0.180534
0.163177
0.145805
0.128418
0.111015
0.0935974
0.0761624
0.0587124
0.0412452
0.0237641
0.0062634
-0.0112535
-0.028786
-0.0463364
-0.0639022
-0.0814877
-0.0990885
-0.11671
-0.134344
-0.152
-0.169671
-0.187364
-0.205069
-0.222796
-0.240542
-0.258301
-0.276082
-0.293883
-0.311697
-0.329531
-0.347383
-0.36525
-0.383139
-0.401041
-0.418965
-0.436903
-0.454861
-0.472832
-0.49082
-0.508826
-0.526845
-0.544879
-0.56293
-0.580991
-0.599071
-0.617163
-0.635262
-0.653376
-0.671504
-0.68964
-0.707786
-0.725941
-0.744104
-0.762268
-0.780441
-0.79862
-0.816803
-0.834983
-0.853165
-0.871345
-0.889523
-0.907699
-0.925866
-0.944023
-0.962174
-0.980306
-0.998427
-1.01653
-1.03462
-1.05268
-1.07072
-1.08873
-1.1067
-1.12465
-1.14256
-1.16042
-1.17824
-1.19601
-1.21373
-1.2314
-1.24899
-1.26653
-1.28399
-1.30138
-1.31868
-1.33589
-1.35301
-1.37003
-1.38695
-1.40375
-1.42044
-1.43701
-1.45348
-1.46985
-1.4862
-1.50272
-1.5196
-1.53655
-1.55271
-1.56695
1.77468
1.76482
1.7537
1.7415
1.72891
1.71636
1.70388
1.69135
1.67867
1.66581
1.65277
1.63955
1.62615
1.61258
1.59884
1.58494
1.5709
1.5567
1.54238
1.52791
1.51333
1.49862
1.4838
1.46887
1.45384
1.4387
1.42347
1.40815
1.39274
1.37724
1.36167
1.34602
1.33029
1.3145
1.29864
1.28272
1.26673
1.25069
1.23459
1.21844
1.20223
1.18598
1.16968
1.15334
1.13695
1.12052
1.10405
1.08754
1.071
1.05442
1.03781
1.02117
1.00449
0.987783
0.971052
0.954291
0.937502
0.920689
0.903851
0.886989
0.870105
0.853199
0.836269
0.819317
0.802347
0.785358
0.768347
0.751318
0.734272
0.717209
0.700126
0.683025
0.66591
0.648776
0.631628
0.614462
0.597283
0.580085
0.562873
0.545648
0.528407
0.511147
0.493876
0.47659
0.45929
0.441972
0.424643
0.407297
0.389938
0.372563
0.355174
0.337771
0.320353
0.302919
0.285472
0.268008
0.250531
0.233038
0.215529
0.198007
0.180468
0.162915
0.145345
0.12776
0.11016
0.0925432
0.074912
0.0572627
0.0395988
0.0219191
0.00422221
-0.0134916
-0.03122
-0.0489669
-0.0667282
-0.0845096
-0.102304
-0.120117
-0.137946
-0.155795
-0.173657
-0.191536
-0.209434
-0.227349
-0.245278
-0.263226
-0.28119
-0.299172
-0.317168
-0.335183
-0.353213
-0.371258
-0.389318
-0.407397
-0.42549
-0.443597
-0.461719
-0.479857
-0.498008
-0.516171
-0.534347
-0.552538
-0.57074
-0.588953
-0.607178
-0.625413
-0.643655
-0.661909
-0.680171
-0.698437
-0.716713
-0.734989
-0.753272
-0.771558
-0.789844
-0.808133
-0.826421
-0.844701
-0.862983
-0.88126
-0.899525
-0.917784
-0.936031
-0.954267
-0.972487
-0.990686
-1.00887
-1.02703
-1.04516
-1.06327
-1.08135
-1.09939
-1.1174
-1.13536
-1.15329
-1.17117
-1.18899
-1.20676
-1.22447
-1.24211
-1.25969
-1.2772
-1.29463
-1.31197
-1.32922
-1.34638
-1.36344
-1.38039
-1.39722
-1.41395
-1.43055
-1.44704
-1.46343
-1.47976
-1.49616
-1.51282
-1.52969
-1.54623
-1.56153
-1.57534
1.78085
1.77104
1.76044
1.7488
1.73647
1.72395
1.71148
1.69902
1.68644
1.67371
1.66079
1.64769
1.6344
1.62095
1.60731
1.59351
1.57956
1.56545
1.5512
1.53681
1.52229
1.50764
1.49287
1.47798
1.46299
1.44788
1.43267
1.41737
1.40197
1.38649
1.37091
1.35526
1.33952
1.32371
1.30783
1.29189
1.27587
1.25978
1.24364
1.22744
1.21119
1.19488
1.17851
1.16211
1.14565
1.12914
1.11259
1.096
1.07937
1.0627
1.04599
1.02925
1.01247
0.995655
0.97881
0.961935
0.945028
0.928091
0.91113
0.894138
0.877122
0.860079
0.84301
0.82592
0.808805
0.791668
0.774508
0.757327
0.740125
0.722904
0.705661
0.688398
0.671117
0.65382
0.636499
0.619165
0.601809
0.584439
0.567049
0.549644
0.532221
0.514782
0.497327
0.479856
0.462367
0.444861
0.427343
0.409805
0.392254
0.374686
0.357103
0.339503
0.32189
0.304257
0.286613
0.268951
0.251273
0.233582
0.215872
0.198149
0.180408
0.162654
0.144881
0.127095
0.109292
0.0914728
0.07364
0.0557875
0.0379228
0.0200389
0.00214152
-0.0157741
-0.0337032
-0.0516516
-0.0696113
-0.0875922
-0.105587
-0.123597
-0.141623
-0.159666
-0.177724
-0.195798
-0.213889
-0.231993
-0.250116
-0.26825
-0.286405
-0.304569
-0.322751
-0.340949
-0.359161
-0.377384
-0.395623
-0.413876
-0.432142
-0.45042
-0.468712
-0.487014
-0.50533
-0.523656
-0.541991
-0.560339
-0.578692
-0.597057
-0.61543
-0.633808
-0.652194
-0.670586
-0.688984
-0.707383
-0.725784
-0.744184
-0.762587
-0.780991
-0.79939
-0.817789
-0.836179
-0.854562
-0.872941
-0.891308
-0.909659
-0.928001
-0.946325
-0.964635
-0.982922
-1.00118
-1.01942
-1.03763
-1.05582
-1.07397
-1.09208
-1.11015
-1.12818
-1.14616
-1.1641
-1.18198
-1.1998
-1.21756
-1.23526
-1.25289
-1.27044
-1.28791
-1.30529
-1.32259
-1.33978
-1.35688
-1.37387
-1.39074
-1.4075
-1.42413
-1.44065
-1.45706
-1.4734
-1.48973
-1.50622
-1.52293
-1.53957
-1.55548
-1.5702
-1.58406
1.78701
1.77714
1.76693
1.75584
1.7439
1.73153
1.71909
1.70667
1.69418
1.68156
1.66877
1.65579
1.64263
1.62929
1.61577
1.60208
1.58822
1.5742
1.56003
1.54572
1.53127
1.51668
1.50197
1.48713
1.47218
1.45711
1.44193
1.42665
1.41128
1.3958
1.38023
1.36458
1.34884
1.33302
1.31712
1.30115
1.2851
1.26899
1.25281
1.23657
1.22026
1.2039
1.18747
1.171
1.15447
1.13789
1.12127
1.10459
1.08788
1.07112
1.05431
1.03747
1.02059
1.00367
0.986708
0.96972
0.952693
0.935637
0.918547
0.901427
0.884274
0.867098
0.84989
0.832659
0.815395
0.79811
0.780801
0.763465
0.746106
0.728725
0.711319
0.693894
0.676444
0.658977
0.641486
0.623976
0.606444
0.588896
0.571326
0.553738
0.536132
0.518507
0.500862
0.483201
0.465522
0.447825
0.430112
0.412379
0.394632
0.376866
0.359085
0.341285
0.323469
0.305639
0.287787
0.269926
0.252042
0.234146
0.216231
0.198302
0.180355
0.162394
0.144415
0.126423
0.10841
0.0903878
0.0723428
0.054287
0.0362137
0.0181234
1.97206e-05
-0.0181016
-0.0362363
-0.0543894
-0.0725554
-0.0907384
-0.108936
-0.127148
-0.145378
-0.16362
-0.181876
-0.200149
-0.218437
-0.236736
-0.255053
-0.273382
-0.291726
-0.31008
-0.328451
-0.346832
-0.365228
-0.383634
-0.402054
-0.420485
-0.438925
-0.457376
-0.475842
-0.49431
-0.512793
-0.531279
-0.549779
-0.568282
-0.586793
-0.605307
-0.62383
-0.642352
-0.66088
-0.679412
-0.697942
-0.716471
-0.735002
-0.75353
-0.772052
-0.790568
-0.809082
-0.827587
-0.846081
-0.864562
-0.883035
-0.901488
-0.919931
-0.938349
-0.956749
-0.975128
-0.993479
-1.0118
-1.03009
-1.04835
-1.06658
-1.08476
-1.10291
-1.121
-1.13905
-1.15705
-1.17499
-1.19287
-1.21069
-1.22843
-1.24611
-1.26371
-1.28123
-1.29866
-1.31599
-1.33323
-1.35037
-1.36739
-1.3843
-1.4011
-1.41777
-1.43432
-1.45075
-1.4671
-1.4834
-1.49977
-1.51631
-1.53293
-1.54916
-1.56445
-1.57877
-1.59283
1.79301
1.7832
1.77321
1.7626
1.75114
1.73904
1.72669
1.71431
1.7019
1.68938
1.67671
1.66386
1.65083
1.63761
1.6242
1.61062
1.59687
1.58295
1.56887
1.55464
1.54027
1.52574
1.5111
1.49632
1.48141
1.46638
1.45125
1.436
1.42064
1.40518
1.38963
1.37398
1.35824
1.34241
1.3265
1.31051
1.29444
1.2783
1.26208
1.2458
1.22945
1.21303
1.19656
1.18002
1.16343
1.14678
1.13007
1.11332
1.09652
1.07967
1.06277
1.04583
1.02885
1.01182
0.994751
0.977648
0.960504
0.943324
0.926105
0.908858
0.891575
0.874259
0.856913
0.839534
0.822129
0.804693
0.787228
0.769737
0.752219
0.734676
0.717107
0.699513
0.681895
0.664254
0.646589
0.628901
0.611192
0.593461
0.575708
0.557933
0.540138
0.522325
0.504487
0.486634
0.468761
0.450866
0.432955
0.415023
0.397076
0.379105
0.361122
0.343118
0.325097
0.307059
0.289002
0.27093
0.252839
0.234732
0.216607
0.198468
0.180309
0.162137
0.143946
0.12574
0.107518
0.0892807
0.0710259
0.0527562
0.0344714
0.0161694
-0.00214424
-0.0204789
-0.0388224
-0.0571849
-0.0755606
-0.093953
-0.112357
-0.130775
-0.149211
-0.167657
-0.186119
-0.204594
-0.223082
-0.241582
-0.260095
-0.27862
-0.297158
-0.315707
-0.334268
-0.35284
-0.371421
-0.390013
-0.408616
-0.427226
-0.445847
-0.464475
-0.483109
-0.501752
-0.5204
-0.539054
-0.557714
-0.576374
-0.595043
-0.613712
-0.632382
-0.65105
-0.669721
-0.688389
-0.707052
-0.725714
-0.744374
-0.763026
-0.781665
-0.800298
-0.818921
-0.837532
-0.856125
-0.874707
-0.893269
-0.911811
-0.930332
-0.94883
-0.967303
-0.985745
-1.00416
-1.02253
-1.04088
-1.05918
-1.07744
-1.09566
-1.11383
-1.13195
-1.15001
-1.16801
-1.18595
-1.20383
-1.22163
-1.23936
-1.25701
-1.27458
-1.29205
-1.30944
-1.32672
-1.3439
-1.36096
-1.37791
-1.39475
-1.41145
-1.42803
-1.4445
-1.46085
-1.47715
-1.49345
-1.50985
-1.52638
-1.54275
-1.55845
-1.57321
-1.58735
-1.60146
1.79883
1.78916
1.77932
1.76911
1.75813
1.74641
1.73425
1.72194
1.7096
1.69717
1.68461
1.67189
1.65899
1.64589
1.63261
1.61915
1.6055
1.59169
1.5777
1.56357
1.54927
1.53483
1.52025
1.50553
1.49068
1.4757
1.46061
1.44539
1.43007
1.41463
1.39909
1.38346
1.36772
1.35189
1.33597
1.31997
1.30388
1.28771
1.27146
1.25514
1.23875
1.22229
1.20576
1.18917
1.17251
1.15579
1.13902
1.12219
1.1053
1.08836
1.07137
1.05434
1.03725
1.02012
1.00294
0.985721
0.96846
0.951157
0.933815
0.916438
0.89902
0.881567
0.864079
0.846558
0.829003
0.811416
0.793797
0.776149
0.758469
0.740762
0.723027
0.705262
0.687473
0.669655
0.651814
0.633946
0.616054
0.598138
0.580195
0.562234
0.544245
0.526239
0.508208
0.490155
0.472084
0.453987
0.435874
0.417739
0.399584
0.38141
0.363217
0.345003
0.326773
0.308521
0.290254
0.271967
0.253662
0.235342
0.217001
0.198645
0.180271
0.161881
0.143473
0.125051
0.106611
0.0881549
0.0696852
0.0511965
0.0326958
0.0141763
-0.00435574
-0.0229026
-0.0414646
-0.0600404
-0.0786298
-0.0972361
-0.115851
-0.134483
-0.153128
-0.171781
-0.190454
-0.209132
-0.227827
-0.246532
-0.265246
-0.283972
-0.302707
-0.321454
-0.340209
-0.358974
-0.377746
-0.396525
-0.415315
-0.434108
-0.452909
-0.471715
-0.490525
-0.509339
-0.528158
-0.546979
-0.565802
-0.584623
-0.603446
-0.622269
-0.641088
-0.659903
-0.678721
-0.697524
-0.716326
-0.735115
-0.7539
-0.772673
-0.791435
-0.810178
-0.828911
-0.847625
-0.86632
-0.884993
-0.903647
-0.92227
-0.940874
-0.959444
-0.977986
-0.996489
-1.01496
-1.03339
-1.05178
-1.07012
-1.08841
-1.10666
-1.12485
-1.14298
-1.16105
-1.17905
-1.19699
-1.21486
-1.23264
-1.25034
-1.26797
-1.28549
-1.30292
-1.32024
-1.33747
-1.35458
-1.37157
-1.38844
-1.40519
-1.4218
-1.4383
-1.45468
-1.47097
-1.48723
-1.50354
-1.51994
-1.53632
-1.5523
-1.56747
-1.58182
-1.59589
-1.60994
1.80447
1.79501
1.78533
1.77539
1.76488
1.75358
1.74171
1.72954
1.71727
1.70493
1.69249
1.67988
1.66711
1.65414
1.64099
1.62764
1.61412
1.60041
1.58654
1.57249
1.55829
1.54393
1.52942
1.51477
1.49999
1.48507
1.47002
1.45484
1.43955
1.42415
1.40863
1.39301
1.37728
1.36146
1.34554
1.32952
1.31342
1.29723
1.28096
1.2646
1.24817
1.23167
1.21509
1.19844
1.18173
1.16494
1.1481
1.13119
1.11422
1.0972
1.08012
1.06299
1.0458
1.02857
1.01128
0.993945
0.976566
0.959145
0.941675
0.924166
0.906616
0.889024
0.871395
0.853726
0.836025
0.818284
0.80051
0.782703
0.76486
0.746985
0.729082
0.711146
0.693179
0.675185
0.657162
0.639113
0.621034
0.602927
0.584797
0.56664
0.548459
0.530252
0.512023
0.493768
0.475493
0.457193
0.438871
0.420528
0.402163
0.383777
0.365371
0.346943
0.328496
0.310031
0.291544
0.273039
0.254517
0.235973
0.217414
0.198835
0.18024
0.161627
0.142999
0.124351
0.105691
0.0870117
0.0683166
0.0496082
0.030883
0.0121424
-0.00661131
-0.0253792
-0.0441615
-0.0629578
-0.0817672
-0.10059
-0.119423
-0.138272
-0.157129
-0.176001
-0.194881
-0.213773
-0.232674
-0.251588
-0.27051
-0.289438
-0.308377
-0.327322
-0.346277
-0.365237
-0.384202
-0.403175
-0.422153
-0.441131
-0.460115
-0.479102
-0.498088
-0.517079
-0.536068
-0.555058
-0.574044
-0.593028
-0.612011
-0.630984
-0.649954
-0.668917
-0.687875
-0.706821
-0.725755
-0.744677
-0.763584
-0.78248
-0.801355
-0.820216
-0.839052
-0.857872
-0.87666
-0.895426
-0.914166
-0.932871
-0.951549
-0.97019
-0.988797
-1.00736
-1.02588
-1.04436
-1.06279
-1.08117
-1.09949
-1.11776
-1.13597
-1.1541
-1.17218
-1.19018
-1.2081
-1.22595
-1.24371
-1.26138
-1.27896
-1.29644
-1.31382
-1.33109
-1.34824
-1.36528
-1.38219
-1.39897
-1.41563
-1.43215
-1.44856
-1.46486
-1.48111
-1.49735
-1.51364
-1.52996
-1.54607
-1.5616
-1.57627
-1.59038
-1.60435
-1.61824
1.80992
1.80073
1.79124
1.78152
1.77137
1.76054
1.74902
1.73707
1.72492
1.71267
1.70032
1.68784
1.67519
1.66236
1.64934
1.63612
1.62272
1.60913
1.59536
1.58142
1.56731
1.55304
1.53862
1.52404
1.50933
1.49446
1.47947
1.46435
1.4491
1.43373
1.41824
1.40264
1.38692
1.37111
1.35519
1.33917
1.32306
1.30685
1.29056
1.27417
1.25771
1.24116
1.22454
1.20784
1.19107
1.17422
1.15731
1.14033
1.12329
1.10618
1.08901
1.07179
1.0545
1.03716
1.01977
1.00232
0.984828
0.967284
0.94969
0.932049
0.914366
0.896634
0.878864
0.861051
0.843195
0.825301
0.80737
0.7894
0.771395
0.753352
0.735275
0.717166
0.699022
0.680847
0.662642
0.644403
0.626135
0.607839
0.589514
0.57116
0.552779
0.534371
0.515937
0.497479
0.478994
0.460484
0.441952
0.423392
0.404815
0.386211
0.367586
0.34894
0.330273
0.311584
0.292876
0.274147
0.255398
0.236631
0.217845
0.199039
0.180217
0.161376
0.142519
0.123645
0.104753
0.0858463
0.0669251
0.0479862
0.029034
0.0100669
-0.0089148
-0.0279111
-0.0469163
-0.0659404
-0.0849724
-0.104018
-0.123076
-0.142142
-0.161222
-0.180311
-0.199409
-0.218517
-0.237633
-0.256756
-0.275888
-0.295028
-0.314171
-0.33332
-0.352476
-0.371634
-0.390798
-0.409965
-0.429131
-0.448301
-0.467469
-0.486639
-0.505809
-0.524974
-0.544135
-0.563296
-0.582447
-0.601595
-0.620735
-0.639865
-0.658984
-0.678099
-0.697193
-0.716277
-0.735346
-0.754398
-0.773432
-0.792447
-0.811437
-0.830406
-0.849349
-0.868267
-0.887154
-0.906006
-0.924828
-0.943619
-0.962364
-0.981073
-0.999736
-1.01836
-1.03693
-1.05545
-1.07392
-1.09232
-1.11067
-1.12895
-1.14717
-1.16531
-1.18338
-1.20138
-1.21928
-1.23711
-1.25484
-1.27247
-1.29
-1.30743
-1.32474
-1.34195
-1.35903
-1.37598
-1.39281
-1.40951
-1.42607
-1.4425
-1.45882
-1.47506
-1.49126
-1.50748
-1.52372
-1.53986
-1.5556
-1.57062
-1.58493
-1.59887
-1.61272
-1.62639
1.81518
1.80632
1.79706
1.78752
1.77767
1.76725
1.75614
1.74448
1.73251
1.72037
1.70813
1.69576
1.68323
1.67054
1.65765
1.64456
1.63129
1.61782
1.60417
1.59034
1.57633
1.56216
1.54783
1.53333
1.51869
1.5039
1.48897
1.4739
1.45869
1.44336
1.42791
1.41234
1.39665
1.38084
1.36493
1.34891
1.3328
1.31658
1.30027
1.28386
1.26737
1.25079
1.23412
1.21738
1.20055
1.18364
1.16667
1.14962
1.1325
1.11531
1.09806
1.08074
1.06336
1.04592
1.02842
1.01086
0.993247
0.975579
0.957862
0.940093
0.922271
0.904406
0.88649
0.86853
0.850522
0.832474
0.814381
0.79625
0.778079
0.759865
0.741616
0.723328
0.705006
0.686648
0.668252
0.649827
0.631366
0.612874
0.59435
0.575796
0.557212
0.538596
0.519956
0.501284
0.482589
0.463863
0.445115
0.42634
0.407539
0.388715
0.369867
0.350995
0.332103
0.313185
0.294251
0.275291
0.256313
0.237313
0.218295
0.199257
0.180202
0.161128
0.142036
0.122927
0.103803
0.0846597
0.0655059
0.0463318
0.0271469
0.0079456
-0.0112683
-0.0304948
-0.0497356
-0.068987
-0.0882491
-0.107525
-0.126808
-0.146104
-0.165405
-0.18472
-0.20404
-0.223367
-0.242702
-0.262042
-0.281389
-0.300738
-0.320094
-0.339451
-0.35881
-0.378173
-0.397535
-0.4169
-0.436262
-0.455621
-0.47498
-0.494334
-0.513685
-0.533029
-0.552367
-0.571694
-0.591016
-0.610326
-0.629623
-0.648911
-0.668183
-0.687443
-0.706681
-0.725901
-0.745106
-0.764286
-0.783442
-0.802574
-0.82168
-0.840755
-0.859802
-0.878819
-0.897799
-0.916739
-0.935642
-0.954503
-0.973323
-0.992093
-1.01081
-1.02948
-1.0481
-1.06666
-1.08515
-1.10359
-1.12195
-1.14025
-1.15847
-1.17661
-1.19467
-1.21265
-1.23053
-1.24832
-1.26601
-1.2836
-1.30109
-1.31845
-1.3357
-1.35283
-1.36983
-1.3867
-1.40344
-1.42003
-1.4365
-1.45285
-1.46909
-1.48527
-1.50143
-1.51759
-1.5337
-1.54957
-1.56488
-1.57947
-1.59349
-1.60731
-1.621
-1.63435
1.82026
1.81174
1.80274
1.79339
1.7838
1.77374
1.76306
1.75174
1.74001
1.72802
1.7159
1.70364
1.69124
1.67867
1.66592
1.65297
1.63983
1.62649
1.61296
1.59925
1.58536
1.57129
1.55705
1.54264
1.52808
1.51336
1.4985
1.48349
1.46834
1.45306
1.43765
1.42211
1.40644
1.39066
1.37476
1.35875
1.34264
1.32641
1.31009
1.29366
1.27715
1.26053
1.24383
1.22704
1.21016
1.1932
1.17616
1.15905
1.14186
1.12459
1.10725
1.08984
1.07237
1.05483
1.03722
1.01955
1.00182
0.984039
0.966197
0.948295
0.930341
0.912335
0.894276
0.876166
0.85801
0.839805
0.821552
0.803254
0.784915
0.766533
0.748105
0.729638
0.711132
0.692587
0.674003
0.655383
0.636725
0.618036
0.599309
0.580549
0.561758
0.542933
0.524081
0.505193
0.48628
0.467337
0.448365
0.429367
0.410343
0.391289
0.372216
0.353111
0.333988
0.314838
0.295667
0.276472
0.257259
0.238021
0.218766
0.199489
0.180195
0.16088
0.14155
0.1222
0.102836
0.0834535
0.0640573
0.0446439
0.0252208
0.00577702
-0.0136722
-0.0331395
-0.0526159
-0.0721026
-0.0916022
-0.11111
-0.130626
-0.150155
-0.169686
-0.189229
-0.208774
-0.228328
-0.247886
-0.267446
-0.287012
-0.306579
-0.326148
-0.345717
-0.365287
-0.384855
-0.404423
-0.423985
-0.443543
-0.463099
-0.482649
-0.50219
-0.521722
-0.541247
-0.560762
-0.580263
-0.599752
-0.619229
-0.638685
-0.658127
-0.677552
-0.696957
-0.716338
-0.735699
-0.755031
-0.774341
-0.793619
-0.812871
-0.832085
-0.85127
-0.870416
-0.889526
-0.908597
-0.927622
-0.946601
-0.965535
-0.984417
-1.00325
-1.02202
-1.04074
-1.05939
-1.07798
-1.09651
-1.11496
-1.13334
-1.15164
-1.16986
-1.18799
-1.20604
-1.22399
-1.24185
-1.2596
-1.27725
-1.29478
-1.31221
-1.32951
-1.34668
-1.36373
-1.38064
-1.39742
-1.41406
-1.43057
-1.44693
-1.46319
-1.47936
-1.49549
-1.51159
-1.52765
-1.54355
-1.55907
-1.57394
-1.58816
-1.60197
-1.61566
-1.62913
-1.64215
1.82513
1.81697
1.80828
1.79916
1.78978
1.78004
1.76974
1.75882
1.74738
1.7356
1.72361
1.71149
1.69921
1.68677
1.67416
1.66135
1.64834
1.63514
1.62174
1.60815
1.59437
1.58041
1.56628
1.55197
1.5375
1.52286
1.50807
1.49313
1.47804
1.46282
1.44745
1.43194
1.41632
1.40056
1.38468
1.36868
1.35257
1.33635
1.32002
1.30358
1.28704
1.2704
1.25367
1.23683
1.21991
1.2029
1.1858
1.16862
1.15136
1.13402
1.1166
1.0991
1.08154
1.0639
1.04619
1.02841
1.01057
0.992665
0.974697
0.956666
0.938578
0.920431
0.902228
0.883972
0.865661
0.847298
0.828884
0.810421
0.79191
0.773352
0.754748
0.736098
0.717405
0.69867
0.679894
0.661077
0.642221
0.623328
0.604394
0.585428
0.566425
0.547385
0.528315
0.509208
0.490073
0.470905
0.451706
0.432481
0.413223
0.393941
0.374629
0.355291
0.335929
0.316541
0.297129
0.277695
0.258237
0.238758
0.219258
0.199736
0.180197
0.160636
0.141058
0.121464
0.101851
0.0822244
0.0625802
0.0429224
0.0232513
0.00356493
-0.0161327
-0.0358401
-0.0555625
-0.07529
-0.0950307
-0.114779
-0.134533
-0.154298
-0.174065
-0.193842
-0.213621
-0.233401
-0.253189
-0.272975
-0.292762
-0.312551
-0.332338
-0.352124
-0.371906
-0.391685
-0.411458
-0.431226
-0.450985
-0.470737
-0.490479
-0.510211
-0.529931
-0.549635
-0.569328
-0.589005
-0.608662
-0.628305
-0.647924
-0.667522
-0.687096
-0.706647
-0.72617
-0.745667
-0.765132
-0.784567
-0.803967
-0.823335
-0.842659
-0.861946
-0.881191
-0.900395
-0.91955
-0.938657
-0.95771
-0.97671
-0.995656
-1.01454
-1.03336
-1.05212
-1.07081
-1.08943
-1.10797
-1.12644
-1.14482
-1.16313
-1.18134
-1.19946
-1.21748
-1.2354
-1.25322
-1.27093
-1.28853
-1.30601
-1.32336
-1.34059
-1.35768
-1.37465
-1.39147
-1.40815
-1.42469
-1.44109
-1.45737
-1.47354
-1.48964
-1.50569
-1.5217
-1.53761
-1.55323
-1.56834
-1.58281
-1.59673
-1.61039
-1.62391
-1.63709
-1.64978
1.82979
1.82202
1.81367
1.80481
1.79563
1.78615
1.77622
1.76569
1.75459
1.74306
1.73126
1.71928
1.70713
1.69483
1.68235
1.66968
1.65682
1.64375
1.63049
1.61703
1.60337
1.58953
1.57551
1.5613
1.54693
1.53238
1.51767
1.50281
1.48779
1.47262
1.45731
1.44185
1.42626
1.41054
1.39468
1.37871
1.36261
1.34639
1.33005
1.31361
1.29705
1.28039
1.26363
1.24676
1.2298
1.21274
1.19559
1.17835
1.16102
1.1436
1.12611
1.10853
1.09087
1.07313
1.05532
1.03744
1.01948
1.00146
0.983366
0.965208
0.946984
0.928698
0.910351
0.891944
0.873478
0.854958
0.836381
0.81775
0.799065
0.780331
0.761548
0.742713
0.723831
0.704905
0.685931
0.666918
0.647855
0.628758
0.609614
0.590434
0.571213
0.551956
0.532662
0.513336
0.493969
0.474574
0.455142
0.435682
0.416188
0.396667
0.377116
0.357536
0.337931
0.318297
0.29864
0.278958
0.259251
0.23952
0.219773
0.199997
0.180207
0.160393
0.140565
0.120716
0.10085
0.0809689
0.0610745
0.0411625
0.0212393
0.00130174
-0.0186464
-0.0386048
-0.0585757
-0.0785523
-0.0985405
-0.118532
-0.138536
-0.158538
-0.178549
-0.198561
-0.218579
-0.238595
-0.258616
-0.27863
-0.298649
-0.31866
-0.338671
-0.358675
-0.378674
-0.398668
-0.41865
-0.438623
-0.458588
-0.478539
-0.498478
-0.518399
-0.538309
-0.558199
-0.57807
-0.597922
-0.617753
-0.637559
-0.657338
-0.677095
-0.69682
-0.716518
-0.736183
-0.755812
-0.775413
-0.794971
-0.814489
-0.83397
-0.853403
-0.872791
-0.892131
-0.911422
-0.930663
-0.949845
-0.96897
-0.988031
-1.00704
-1.02597
-1.04483
-1.06363
-1.08235
-1.10099
-1.11955
-1.13802
-1.15641
-1.1747
-1.1929
-1.211
-1.22899
-1.24688
-1.26466
-1.28231
-1.29985
-1.31726
-1.33454
-1.35169
-1.36871
-1.38557
-1.40229
-1.41887
-1.43531
-1.45162
-1.4678
-1.48389
-1.49991
-1.51587
-1.53175
-1.54742
-1.5627
-1.57741
-1.59151
-1.60521
-1.61872
-1.63203
-1.64489
-1.65719
1.83423
1.82685
1.81886
1.81031
1.80136
1.79213
1.78251
1.77235
1.76162
1.7504
1.73882
1.727
1.715
1.70284
1.6905
1.67798
1.66526
1.65234
1.63921
1.62589
1.61236
1.59865
1.58474
1.57064
1.55637
1.54192
1.52731
1.51252
1.49758
1.48247
1.46722
1.45182
1.43628
1.42059
1.40477
1.38882
1.37274
1.35653
1.3402
1.32375
1.30718
1.29051
1.27372
1.25682
1.23982
1.22272
1.20552
1.18822
1.17083
1.15334
1.13577
1.11811
1.10036
1.08253
1.06462
1.04663
1.02857
1.01042
0.992209
0.973921
0.955565
0.937138
0.918646
0.900091
0.881472
0.862789
0.844048
0.825248
0.806391
0.787478
0.768509
0.749491
0.730417
0.711294
0.692123
0.672904
0.653636
0.634325
0.614971
0.595572
0.576131
0.556654
0.537129
0.517573
0.497976
0.478344
0.458677
0.438974
0.419242
0.399472
0.379678
0.35985
0.339994
0.32011
0.300199
0.280262
0.2603
0.240316
0.220308
0.200276
0.180227
0.160154
0.140065
0.119957
0.0998323
0.0796906
0.0595352
0.0393648
0.0191822
-0.00101363
-0.0212169
-0.0414362
-0.0616587
-0.0818931
-0.102132
-0.122377
-0.142629
-0.16288
-0.183141
-0.203395
-0.223655
-0.243914
-0.264168
-0.28442
-0.304671
-0.324913
-0.345149
-0.365378
-0.3856
-0.405807
-0.426005
-0.446189
-0.466358
-0.486512
-0.506648
-0.526768
-0.546865
-0.566939
-0.586992
-0.607023
-0.627023
-0.646997
-0.666938
-0.68685
-0.706729
-0.726571
-0.746378
-0.766144
-0.78587
-0.805553
-0.825187
-0.844779
-0.864316
-0.883805
-0.903236
-0.922615
-0.941932
-0.961188
-0.980378
-0.9995
-1.01856
-1.03754
-1.05644
-1.07527
-1.09401
-1.11266
-1.13123
-1.14971
-1.16809
-1.18637
-1.20455
-1.22262
-1.24058
-1.25842
-1.27615
-1.29374
-1.31122
-1.32856
-1.34576
-1.36282
-1.37974
-1.3965
-1.41312
-1.4296
-1.44593
-1.46213
-1.47823
-1.49423
-1.51015
-1.526
-1.54168
-1.55706
-1.57197
-1.58629
-1.6001
-1.61361
-1.62695
-1.63997
-1.65249
-1.66441
1.83844
1.83145
1.82386
1.81564
1.80697
1.79795
1.78861
1.77881
1.76846
1.75757
1.74625
1.73464
1.72281
1.71079
1.6986
1.68623
1.67366
1.66088
1.64791
1.63472
1.62134
1.60775
1.59397
1.57999
1.56583
1.55148
1.53696
1.52227
1.5074
1.49238
1.4772
1.46185
1.44636
1.43073
1.41494
1.39902
1.38296
1.36677
1.35045
1.33401
1.31743
1.30075
1.28394
1.26702
1.24998
1.23284
1.2156
1.19825
1.1808
1.16325
1.1456
1.12786
1.11003
1.0921
1.0741
1.056
1.03783
1.01957
1.00123
0.982816
0.964322
0.945759
0.927124
0.908416
0.889642
0.8708
0.851893
0.832921
0.813889
0.794794
0.775643
0.756432
0.737167
0.717844
0.698469
0.679045
0.659569
0.640042
0.620468
0.600849
0.581183
0.561474