/*--------------------------------*- C++ -*----------------------------------*\
  =========                 |
  \\      /  F ield         | OpenFOAM: The Open Source CFD Toolbox
   \\    /   O peration     | Website:  https://openfoam.org
    \\  /    A nd           | Version:  8
     \\/     M anipulation  |
\*---------------------------------------------------------------------------*/
FoamFile
{
    version     2.0;
    format      ascii;
    class       volVectorField;
    location    "0.068";
    object      U;
}
// * * * * * * * * * * * * * * * * * * * * * * * * * * * * * * * * * * * * * //

dimensions      [0 1 -1 0 0 0 0];

internalField   nonuniform List<vector> 
112724
(
(15 6.27908e-08 -3.45343e-24)
(15 8.4545e-07 -8.9693e-23)
(14.9999 2.18652e-06 -5.35155e-22)
(14.9999 5.15648e-06 1.68812e-22)
(14.9999 8.14862e-06 3.04556e-21)
(14.9999 1.1023e-05 -3.16696e-21)
(14.9999 1.40787e-05 -1.21599e-22)
(14.9998 1.78062e-05 1.27029e-21)
(14.9998 2.19472e-05 4.05604e-21)
(14.9998 2.66958e-05 -6.74008e-21)
(14.9998 3.15199e-05 -1.80122e-22)
(14.9998 3.672e-05 1.19329e-20)
(14.9998 4.24252e-05 7.91162e-21)
(14.9998 4.81022e-05 8.42492e-21)
(14.9998 5.41717e-05 7.62427e-21)
(14.9998 6.01857e-05 1.28777e-20)
(14.9997 6.6358e-05 -9.71418e-21)
(14.9997 7.2927e-05 1.73237e-20)
(14.9997 7.92133e-05 -1.29382e-20)
(14.9997 8.55675e-05 -1.9347e-20)
(14.9997 9.19708e-05 -3.503e-20)
(14.9997 9.85872e-05 -1.50239e-20)
(14.9997 0.0001049 -1.56011e-20)
(14.9997 0.000111495 -9.00575e-21)
(14.9997 0.000117821 7.7458e-21)
(14.9997 0.000124471 1.71628e-20)
(14.9997 0.000130882 -2.70278e-20)
(14.9997 0.000137194 3.61796e-20)
(14.9997 0.000143655 -2.50535e-22)
(14.9997 0.000150054 1.88712e-20)
(14.9997 0.000156504 1.86768e-20)
(14.9997 0.000162684 2.2943e-22)
(14.9997 0.000168914 1.91173e-20)
(14.9997 0.000175173 1.97206e-20)
(14.9997 0.000181059 -1.98414e-20)
(14.9997 0.000187207 2.22349e-22)
(14.9997 0.000193137 -3.0857e-20)
(14.9997 0.000199082 1.98365e-20)
(14.9997 0.000205221 -8.55189e-21)
(14.9997 0.000210893 3.99324e-20)
(14.9997 0.000216802 -3.98738e-20)
(14.9997 0.000222461 3.18766e-20)
(14.9997 0.000227933 7.61034e-21)
(14.9997 0.000233479 -1.90139e-22)
(14.9997 0.00023904 1.96746e-20)
(14.9997 0.000244328 6.55589e-21)
(14.9997 0.000249869 1.92188e-20)
(14.9997 0.000255171 -3.20262e-20)
(14.9997 0.000260152 -1.90681e-20)
(14.9997 0.000265371 4.53885e-20)
(14.9997 0.000270283 1.3564e-20)
(14.9997 0.00027532 3.65382e-20)
(14.9997 0.000280102 3.60976e-20)
(14.9997 0.000285066 -1.38301e-20)
(14.9997 0.000289713 -1.41072e-20)
(14.9998 0.000294263 -1.72843e-20)
(14.9998 0.000298783 -3.40359e-20)
(14.9998 0.000303331 1.43146e-20)
(14.9998 0.000307539 1.65794e-20)
(14.9998 0.000311923 -1.62751e-20)
(14.9998 0.000316148 1.59756e-20)
(14.9998 0.000320051 -1.18368e-22)
(14.9998 0.000324151 1.53212e-20)
(14.9998 0.000328006 -1.20111e-22)
(14.9998 0.000331891 1.46418e-20)
(14.9998 0.000335676 -2.94686e-20)
(14.9998 0.000339202 0)
(14.9998 0.000342976 -1.34941e-20)
(14.9998 0.000346441 1.31419e-20)
(14.9998 0.000349774 1.27712e-20)
(14.9998 0.000353027 2.8003e-20)
(14.9998 0.000356191 -1.55821e-20)
(14.9998 0.000359213 -2.34573e-20)
(14.9998 0.000362164 2.72515e-20)
(14.9998 0.000365207 -3.1912e-20)
(14.9999 0.000368045 1.58811e-20)
(14.9999 0.00037057 3.63709e-20)
(14.9999 0.000373387 -6.51021e-21)
(14.9999 0.000375849 0)
(14.9999 0.000378271 0)
(14.9999 0.000380444 0)
(14.9999 0.000382769 -8.06135e-21)
(14.9999 0.000384918 0)
(14.9999 0.000387047 -9.26786e-21)
(14.9999 0.00038888 3.3019e-20)
(14.9999 0.000390621 1.29073e-20)
(14.9999 0.000392512 -5.60433e-20)
(14.9999 0.000394087 1.11639e-20)
(14.9999 0.000395627 1.16819e-20)
(14.9999 0.000397058 -1.67908e-20)
(14.9999 0.000398477 -4.26303e-21)
(14.9999 0.000399797 3.82897e-21)
(15 0.000400901 3.34304e-21)
(15 0.000401925 3.10516e-20)
(15 0.000402795 3.65183e-20)
(15 0.000403659 -1.50055e-20)
(15 0.000404351 -3.4181e-20)
(15 0.000405054 0)
(15 0.000405531 6.76348e-22)
(15 0.00040595 1.71823e-20)
(15 0.000406287 -2.17421e-22)
(15 0.000406542 -1.65139e-20)
(15 0.000406737 0)
(15 0.000406707 3.43793e-20)
(15 0.000406686 -8.14745e-21)
(15 0.000406491 -1.46631e-20)
(15 0.000406288 -5.90241e-21)
(15 0.000405929 -1.71501e-20)
(15.0001 0.000405488 -2.10051e-20)
(15.0001 0.000404824 8.62339e-21)
(15.0001 0.000404058 4.70537e-21)
(15.0001 0.000403279 1.71443e-20)
(15.0001 0.000402384 -5.72568e-21)
(15.0001 0.000401452 1.71724e-20)
(15.0001 0.000400193 -1.32046e-20)
(15.0001 0.000399085 -9.88231e-21)
(15.0001 0.000397879 -2.45483e-20)
(15.0001 0.000396366 8.03277e-21)
(15.0001 0.000394827 4.23554e-20)
(15.0001 0.000393103 -2.56601e-20)
(15.0001 0.000391531 -1.68141e-20)
(15.0001 0.000389697 1.92561e-20)
(15.0001 0.000387817 1.68249e-20)
(15.0001 0.000385562 6.20514e-21)
(15.0002 0.000383606 -5.53319e-20)
(15.0002 0.000381319 1.15119e-20)
(15.0002 0.000378811 4.69945e-21)
(15.0002 0.000376393 -3.30997e-20)
(15.0002 0.000373894 4.18983e-20)
(15.0002 0.000371239 3.27901e-21)
(15.0002 0.000368483 -1.63488e-20)
(15.0002 0.000365636 -1.13257e-20)
(15.0002 0.000362642 3.04976e-20)
(15.0002 0.000359313 -3.09242e-20)
(15.0002 0.000356238 1.40373e-20)
(15.0002 0.000352879 1.61357e-20)
(15.0002 0.000349406 1.5936e-20)
(15.0002 0.000345955 -3.22167e-20)
(15.0002 0.000342232 -4.82876e-20)
(15.0002 0.000338711 1.53948e-22)
(15.0002 0.000334834 1.56294e-20)
(15.0003 0.000330776 0)
(15.0003 0.000326896 1.80323e-20)
(15.0003 0.000322639 0)
(15.0003 0.000318399 -1.53917e-20)
(15.0003 0.000314114 1.92095e-20)
(15.0003 0.000309712 -4.32453e-21)
(15.0003 0.000304953 1.96559e-20)
(15.0003 0.000300377 1.49622e-20)
(15.0003 0.000295509 -4.06013e-20)
(15.0003 0.000290763 -8.75835e-21)
(15.0003 0.000285666 6.35884e-21)
(15.0003 0.000280815 3.5462e-20)
(15.0003 0.000275595 -7.08457e-21)
(15.0003 0.000270094 0)
(15.0003 0.000264856 7.59214e-21)
(15.0003 0.000259296 3.58482e-20)
(15.0003 0.000253736 3.51689e-20)
(15.0003 0.000248238 -3.53827e-20)
(15.0003 0.000242514 8.84808e-21)
(15.0003 0.000236488 2.30368e-22)
(15.0003 0.000230707 1.2724e-20)
(15.0003 0.000224379 -1.27338e-20)
(15.0003 0.000218248 2.5314e-20)
(15.0003 0.000212108 1.50879e-21)
(15.0003 0.000205698 -4.62007e-20)
(15.0003 0.000199561 -1.15754e-20)
(15.0003 0.000192973 -1.05482e-20)
(15.0003 0.00018639 -2.63181e-22)
(15.0003 0.000179838 2.8504e-22)
(15.0003 0.000172944 1.04787e-20)
(15.0003 0.000166079 3.52699e-25)
(15.0003 0.000159111 -6.19755e-20)
(15.0003 0.000152281 3.17827e-20)
(15.0003 0.000145303 -3.09729e-20)
(15.0003 0.000138008 2.86603e-20)
(15.0003 0.000131056 -2.80578e-20)
(15.0003 0.000123749 2.36693e-21)
(15.0003 0.000116734 2.57764e-20)
(15.0003 0.000109317 -2.32927e-21)
(15.0003 0.000102108 -1.66245e-20)
(15.0003 9.49117e-05 1.58305e-20)
(15.0003 8.77486e-05 5.93626e-21)
(15.0003 8.01929e-05 -7.95114e-21)
(15.0003 7.3063e-05 -3.09351e-20)
(15.0003 6.60701e-05 1.43026e-20)
(15.0003 5.89522e-05 -1.06242e-20)
(15.0003 5.2256e-05 5.68221e-21)
(15.0003 4.54624e-05 1.19706e-20)
(15.0002 3.92339e-05 -4.84646e-21)
(15.0002 3.34117e-05 1.5294e-21)
(15.0002 2.76216e-05 5.336e-21)
(15.0002 2.2535e-05 -5.93999e-21)
(15.0002 1.79185e-05 3.51871e-21)
(15.0002 1.41137e-05 1.58794e-21)
(15.0002 1.04968e-05 2.25257e-21)
(15.0001 6.64035e-06 -1.0818e-21)
(15.0001 2.81878e-06 -7.12778e-22)
(15 1.0511e-06 3.55838e-22)
(15.0001 1.19063e-07 -4.18985e-23)
(14.9985 8.80804e-06 6.49341e-23)
(14.9994 2.14348e-05 -7.3252e-22)
(14.9996 1.23243e-05 -1.81912e-22)
(14.9995 2.05022e-05 -3.03768e-21)
(14.9994 3.76049e-05 4.31854e-21)
(14.9993 5.42557e-05 -3.22704e-21)
(14.9993 6.79153e-05 -6.95052e-21)
(14.9993 8.11246e-05 2.61126e-22)
(14.9993 9.48346e-05 2.37625e-21)
(14.9992 0.000109616 5.571e-22)
(14.9992 0.000124594 -8.00911e-21)
(14.9992 0.000139958 4.28557e-21)
(14.9992 0.000156032 1.29297e-20)
(14.9992 0.000172351 -8.71221e-21)
(14.9992 0.000189416 3.59735e-20)
(14.9991 0.00020671 3.14594e-21)
(14.9991 0.000224227 -2.37069e-20)
(14.9991 0.000242387 -3.28589e-21)
(14.9991 0.000260459 1.56801e-20)
(14.9991 0.000278754 -6.82664e-23)
(14.9991 0.000297153 -8.38596e-21)
(14.9991 0.000315942 -2.9332e-20)
(14.9991 0.000334411 -2.08412e-20)
(14.9991 0.000353263 -6.46137e-23)
(14.9991 0.000371818 -9.67331e-21)
(14.9991 0.000390772 1.97234e-20)
(14.9991 0.000409637 8.2602e-22)
(14.9991 0.000428311 6.07231e-22)
(14.9991 0.000447 -1.16144e-20)
(14.9991 0.000465684 -1.10465e-20)
(14.9991 0.000484333 1.10738e-20)
(14.9991 0.000502736 5.73475e-22)
(14.9991 0.0005212 -3.54633e-20)
(14.9991 0.000539601 9.40447e-20)
(14.9991 0.000557513 1.24622e-20)
(14.9991 0.000575627 2.32302e-20)
(14.9991 0.000593325 -2.53276e-20)
(14.9991 0.000611017 -4.49637e-22)
(14.9991 0.000628972 2.35003e-20)
(14.9991 0.000646162 5.85683e-20)
(14.9991 0.000663619 3.68233e-20)
(14.9991 0.000680627 -4.83675e-21)
(14.9991 0.000697326 2.25117e-20)
(14.9991 0.000713974 0)
(14.9991 0.000730544 8.12918e-21)
(14.9991 0.000746665 -1.43342e-20)
(14.9991 0.000763034 5.02487e-20)
(14.9991 0.000778806 -2.80156e-20)
(14.9992 0.000794124 -5.04973e-20)
(14.9992 0.000809669 1.45217e-20)
(14.9992 0.000824834 2.09816e-20)
(14.9992 0.0008398 1.04722e-20)
(14.9992 0.000854322 7.0221e-20)
(14.9992 0.000869097 3.52678e-20)
(14.9992 0.000883208 -1.64759e-22)
(14.9992 0.000897139 1.18598e-20)
(14.9993 0.000910918 -1.53975e-20)
(14.9993 0.000924408 -3.15635e-20)
(14.9993 0.000937444 5.19126e-20)
(14.9993 0.000950582 3.55933e-20)
(14.9993 0.000963247 1.32848e-21)
(14.9993 0.000975469 0)
(14.9993 0.000987782 1.66577e-20)
(14.9993 0.000999602 -1.62648e-20)
(14.9994 0.00101125 3.21735e-20)
(14.9994 0.00102259 9.28496e-23)
(14.9994 0.00103366 -1.18803e-22)
(14.9994 0.00104471 -3.11215e-20)
(14.9994 0.00105522 -3.34526e-20)
(14.9994 0.00106541 7.01423e-24)
(14.9995 0.0010753 3.35568e-20)
(14.9995 0.00108506 3.39085e-20)
(14.9995 0.00109442 -1.69685e-20)
(14.9995 0.0011034 7.34912e-21)
(14.9995 0.00111244 -1.7068e-20)
(14.9995 0.00112101 -2.85918e-20)
(14.9996 0.00112909 1.09565e-20)
(14.9996 0.00113735 1.72829e-20)
(14.9996 0.00114496 2.74782e-20)
(14.9996 0.00115231 -9.61727e-21)
(14.9996 0.00115919 2.66509e-20)
(14.9996 0.00116609 8.78443e-21)
(14.9997 0.00117262 -4.34952e-20)
(14.9997 0.00117896 -1.76926e-20)
(14.9997 0.0011847 1.76953e-20)
(14.9997 0.00119019 3.16292e-20)
(14.9997 0.00119563 -4.05504e-24)
(14.9998 0.00120066 1.78555e-20)
(14.9998 0.00120531 4.40499e-23)
(14.9998 0.00120969 -2.30297e-20)
(14.9998 0.00121401 -2.25745e-20)
(14.9998 0.00121782 -4.0199e-20)
(14.9999 0.00122122 3.24687e-20)
(14.9999 0.00122432 3.62702e-20)
(14.9999 0.00122716 8.04484e-21)
(14.9999 0.00122993 6.63166e-21)
(14.9999 0.00123212 -1.99889e-20)
(15 0.00123418 -1.82805e-20)
(15 0.00123563 -5.97961e-24)
(15 0.00123694 1.80738e-20)
(15 0.00123798 1.81425e-20)
(15 0.00123876 -5.53193e-24)
(15 0.00123938 -1.83559e-20)
(15.0001 0.0012394 -3.67408e-20)
(15.0001 0.00123929 1.40532e-20)
(15.0001 0.00123859 1.56402e-20)
(15.0001 0.0012378 -2.14304e-20)
(15.0001 0.00123676 -3.40651e-23)
(15.0002 0.0012354 1.42277e-20)
(15.0002 0.00123363 3.65677e-20)
(15.0002 0.00123133 -4.16793e-20)
(15.0002 0.00122896 -1.81855e-20)
(15.0002 0.00122632 -3.43818e-23)
(15.0003 0.00122327 6.58656e-21)
(15.0003 0.00121979 4.1258e-21)
(15.0003 0.00121625 1.50183e-20)
(15.0003 0.00121244 -1.8205e-20)
(15.0003 0.00120802 8.52871e-21)
(15.0004 0.00120338 1.84184e-22)
(15.0004 0.00119834 -9.43855e-21)
(15.0004 0.00119332 4.61054e-20)
(15.0004 0.00118778 -1.42354e-22)
(15.0004 0.00118197 -3.59168e-20)
(15.0005 0.00117546 -2.93514e-20)
(15.0005 0.00116913 6.40305e-23)
(15.0005 0.00116226 4.23744e-20)
(15.0005 0.00115489 -1.27496e-20)
(15.0005 0.00114756 1.78745e-20)
(15.0006 0.00113982 2.72675e-20)
(15.0006 0.00113163 -3.17871e-20)
(15.0006 0.00112329 -3.54483e-20)
(15.0006 0.0011146 5.06015e-20)
(15.0006 0.00110555 3.47571e-20)
(15.0006 0.00109591 -1.57197e-20)
(15.0007 0.00108623 -1.96486e-22)
(15.0007 0.00107622 -3.44055e-22)
(15.0007 0.00106586 -1.74355e-20)
(15.0007 0.00105529 -5.23365e-20)
(15.0007 0.00104417 9.86842e-22)
(15.0007 0.00103311 5.43935e-20)
(15.0008 0.00102154 3.60094e-20)
(15.0008 0.00100944 -2.33037e-21)
(15.0008 0.000997407 -1.55398e-22)
(15.0008 0.000984852 3.47101e-21)
(15.0008 0.000971948 0)
(15.0008 0.000958843 4.28444e-21)
(15.0009 0.000945503 1.68804e-20)
(15.0009 0.000931401 1.62529e-20)
(15.0009 0.000917533 -3.28678e-20)
(15.0009 0.000903138 -5.97423e-21)
(15.0009 0.000888479 1.59376e-20)
(15.0009 0.000873359 7.25621e-21)
(15.0009 0.000858442 3.1031e-20)
(15.001 0.000842974 -2.36823e-20)
(15.001 0.000826799 3.15693e-20)
(15.001 0.000810843 -2.46659e-20)
(15.001 0.000794338 4.07366e-20)
(15.001 0.000777689 -4.10469e-20)
(15.001 0.000760924 1.06237e-20)
(15.001 0.000743758 2.50236e-20)
(15.001 0.000726025 3.68751e-20)
(15.001 0.00070853 1.46537e-20)
(15.001 0.000690106 1.13112e-20)
(15.0011 0.000671911 1.48988e-20)
(15.0011 0.000653638 1.3775e-20)
(15.0011 0.000634821 -4.04422e-20)
(15.0011 0.000616159 -4.05496e-20)
(15.0011 0.000596862 1.40725e-20)
(15.0011 0.000577409 -1.35722e-20)
(15.0011 0.000557945 3.34048e-22)
(15.0011 0.000538109 -1.3641e-20)
(15.0011 0.000518142 -7.85149e-20)
(15.0011 0.000498078 5.82668e-22)
(15.0011 0.000477932 3.90099e-20)
(15.0011 0.000457464 2.66361e-20)
(15.0011 0.000436785 2.24316e-20)
(15.0011 0.000416467 -6.12006e-20)
(15.0011 0.000395685 2.46644e-20)
(15.0011 0.000375241 1.3436e-20)
(15.0011 0.000354292 2.3854e-20)
(15.0011 0.000333685 1.9323e-20)
(15.0011 0.000313066 -1.29469e-20)
(15.0011 0.000292579 -9.00766e-21)
(15.0011 0.000271844 -2.84247e-20)
(15.001 0.000251737 -2.26812e-20)
(15.001 0.000231753 -8.16573e-21)
(15.001 0.00021189 -2.25311e-20)
(15.001 0.000192769 5.50319e-21)
(15.001 0.000173794 -5.20372e-21)
(15.001 0.00015553 4.95915e-21)
(15.001 0.000137561 -3.25045e-22)
(15.0009 0.00011966 -7.0102e-21)
(15.0009 0.000102934 5.05414e-21)
(15.0009 8.6686e-05 1.49219e-20)
(15.0009 6.9622e-05 -1.2856e-21)
(15.0008 4.83859e-05 -2.21956e-22)
(15.0006 2.62454e-05 -3.85688e-21)
(15.0005 1.60233e-05 2.00473e-21)
(15.0008 2.82937e-05 -3.26565e-22)
(15.002 1.1969e-05 -2.925e-22)
(14.9973 4.97576e-06 1.23716e-22)
(14.9986 4.11212e-05 1.15891e-22)
(14.9992 3.61998e-05 5.77006e-22)
(14.9992 3.51757e-05 -1.76364e-21)
(14.999 5.43379e-05 -1.79275e-21)
(14.9988 8.39869e-05 7.61914e-21)
(14.9988 0.00011179 -1.97241e-21)
(14.9987 0.000136717 0)
(14.9987 0.000161172 -1.50272e-20)
(14.9987 0.000186904 2.33109e-20)
(14.9986 0.000213228 -2.05676e-20)
(14.9986 0.000239961 4.53805e-21)
(14.9986 0.000267199 4.74509e-21)
(14.9985 0.000294933 -1.88386e-20)
(14.9985 0.000323606 1.42728e-20)
(14.9985 0.000352649 6.88902e-21)
(14.9985 0.000381949 -3.39592e-20)
(14.9985 0.000411971 -3.50428e-20)
(14.9985 0.000442034 1.05976e-20)
(14.9984 0.000472462 1.1214e-20)
(14.9984 0.000503158 3.93035e-20)
(14.9984 0.000534126 9.05285e-21)
(14.9984 0.000565084 1.18084e-20)
(14.9984 0.000596317 -2.16119e-20)
(14.9984 0.000627249 1.00432e-20)
(14.9984 0.000658544 -4.42435e-20)
(14.9984 0.000689868 4.49073e-20)
(14.9984 0.000720888 1.05704e-20)
(14.9984 0.000751874 1.1138e-20)
(14.9984 0.000782965 -1.11893e-20)
(14.9984 0.00081383 -2.35609e-20)
(14.9984 0.000844626 3.52574e-20)
(14.9984 0.000875387 -5.91046e-20)
(14.9984 0.000906009 -3.63464e-20)
(14.9984 0.000936089 4.8626e-20)
(14.9984 0.00096636 4.6926e-20)
(14.9984 0.000996026 2.34442e-20)
(14.9984 0.00102557 -1.2964e-20)
(14.9984 0.0010553 1.00308e-20)
(14.9984 0.00108425 -4.63322e-20)
(14.9985 0.00111317 5.96812e-20)
(14.9985 0.00114179 1.38501e-20)
(14.9985 0.00116992 2.27284e-20)
(14.9985 0.00119804 2.25708e-20)
(14.9985 0.0012258 0)
(14.9985 0.00125291 -1.42934e-20)
(14.9985 0.00128009 6.65386e-21)
(14.9986 0.00130665 3.68053e-20)
(14.9986 0.00133272 -2.97883e-20)
(14.9986 0.00135868 -2.12329e-20)
(14.9986 0.00138428 2.6921e-20)
(14.9986 0.00140958 -3.59083e-20)
(14.9987 0.00143402 -2.55141e-20)
(14.9987 0.00145864 5.56009e-20)
(14.9987 0.00148255 1.54547e-20)
(14.9987 0.00150621 1.95976e-20)
(14.9987 0.00152929 4.14523e-20)
(14.9988 0.00155203 2.9604e-21)
(14.9988 0.00157428 -3.19237e-20)
(14.9988 0.00159628 3.39644e-20)
(14.9988 0.00161771 5.01881e-20)
(14.9988 0.0016385 1.73161e-20)
(14.9989 0.00165916 1.62779e-20)
(14.9989 0.00167932 1.16023e-22)
(14.9989 0.00169894 -4.89848e-20)
(14.9989 0.00171807 3.16047e-20)
(14.999 0.00173686 1.66374e-20)
(14.999 0.00175524 1.50998e-20)
(14.999 0.00177305 -3.15399e-20)
(14.9991 0.00179033 -2.00538e-23)
(14.9991 0.00180717 3.2104e-21)
(14.9991 0.00182373 -1.69406e-20)
(14.9991 0.00183973 -2.1525e-20)
(14.9992 0.00185499 2.97004e-20)
(14.9992 0.00186997 2.94124e-20)
(14.9992 0.00188461 -1.16267e-20)
(14.9993 0.0018986 -1.1188e-20)
(14.9993 0.00191219 -3.89409e-20)
(14.9993 0.00192517 7.1953e-21)
(14.9993 0.00193773 -9.67398e-21)
(14.9994 0.00194952 -3.5457e-20)
(14.9994 0.00196113 4.44001e-20)
(14.9994 0.00197223 9.65779e-22)
(14.9995 0.00198289 -3.57736e-20)
(14.9995 0.00199267 -5.95878e-23)
(14.9995 0.00200212 4.37445e-23)
(14.9996 0.0020112 -2.46704e-20)
(14.9996 0.00201983 1.80655e-20)
(14.9996 0.00202779 3.06161e-20)
(14.9997 0.00203527 5.22673e-21)
(14.9997 0.00204235 4.67547e-21)
(14.9997 0.00204874 2.43506e-23)
(14.9998 0.00205465 -2.20802e-20)
(14.9998 0.00206002 -3.3464e-20)
(14.9998 0.00206495 -1.84394e-20)
(14.9999 0.00206956 5.53128e-20)
(14.9999 0.00207329 1.6705e-20)
(14.9999 0.0020766 -1.85048e-20)
(14.9999 0.00207922 1.77435e-20)
(15 0.0020816 3.03494e-22)
(15 0.00208337 -1.87901e-20)
(15 0.00208454 7.04233e-22)
(15.0001 0.00208546 0)
(15.0001 0.00208569 1.69195e-21)
(15.0001 0.00208549 -1.63905e-20)
(15.0002 0.00208441 -2.67512e-21)
(15.0002 0.00208298 2.17569e-20)
(15.0002 0.00208111 -2.59414e-20)
(15.0003 0.00207868 -1.85223e-20)
(15.0003 0.00207576 1.19586e-24)
(15.0003 0.00207213 -1.57629e-23)
(15.0004 0.00206807 3.7032e-20)
(15.0004 0.00206351 1.84054e-20)
(15.0004 0.00205825 -1.84292e-20)
(15.0005 0.00205252 1.8456e-20)
(15.0005 0.00204639 2.60306e-20)
(15.0005 0.00203991 -3.68536e-20)
(15.0006 0.0020325 -2.80506e-20)
(15.0006 0.00202461 9.24849e-21)
(15.0006 0.00201617 4.62059e-20)
(15.0007 0.00200753 1.00125e-20)
(15.0007 0.00199806 -2.87957e-20)
(15.0007 0.00198813 0)
(15.0008 0.00197755 1.82365e-20)
(15.0008 0.00196651 3.01458e-20)
(15.0008 0.00195476 -1.81358e-20)
(15.0009 0.00194264 -1.80167e-20)
(15.0009 0.00193018 1.80735e-20)
(15.0009 0.00191692 -2.79632e-20)
(15.001 0.00190302 -1.78825e-20)
(15.001 0.0018888 1.79344e-20)
(15.001 0.00187407 3.3149e-20)
(15.0011 0.00185875 -4.94218e-20)
(15.0011 0.00184277 -1.41373e-21)
(15.0011 0.00182633 -1.56962e-20)
(15.0011 0.00180946 1.70277e-20)
(15.0012 0.00179204 -3.50885e-20)
(15.0012 0.00177399 1.7554e-20)
(15.0012 0.00175535 3.58545e-20)
(15.0013 0.00173653 1.89473e-20)
(15.0013 0.00171696 -1.53688e-20)
(15.0013 0.00169673 -1.69702e-20)
(15.0013 0.00167616 5.43919e-20)
(15.0014 0.00165501 -1.64941e-22)
(15.0014 0.00163343 -1.6878e-20)
(15.0014 0.00161115 0)
(15.0014 0.00158853 4.35295e-20)
(15.0015 0.00156508 -4.43221e-20)
(15.0015 0.00154175 0)
(15.0015 0.00151741 2.28954e-20)
(15.0015 0.00149266 -2.32568e-20)
(15.0016 0.00146744 1.6399e-20)
(15.0016 0.00144202 7.43813e-21)
(15.0016 0.00141597 3.26913e-20)
(15.0016 0.00138916 -2.25409e-22)
(15.0016 0.00136234 -4.94037e-20)
(15.0017 0.0013347 1.55581e-20)
(15.0017 0.00130656 -6.04139e-20)
(15.0017 0.00127832 4.08785e-20)
(15.0017 0.00124942 -2.57858e-20)
(15.0017 0.0012201 -1.5129e-20)
(15.0018 0.00119062 -2.59245e-20)
(15.0018 0.00116016 1.12217e-20)
(15.0018 0.00112979 4.18039e-20)
(15.0018 0.00109916 -1.29456e-20)
(15.0018 0.00106773 -6.90959e-20)
(15.0018 0.00103639 -5.32803e-20)
(15.0018 0.00100429 4.04801e-20)
(15.0018 0.000971902 -5.36699e-20)
(15.0019 0.000939332 0)
(15.0019 0.000906537 -3.99554e-20)
(15.0019 0.000873328 -1.32689e-20)
(15.0019 0.000840089 5.12131e-20)
(15.0019 0.000806646 -2.6173e-20)
(15.0019 0.000772684 3.98041e-20)
(15.0019 0.000738578 -4.89264e-20)
(15.0019 0.000704718 2.55235e-20)
(15.0019 0.000670318 3.54748e-20)
(15.0019 0.000636046 3.50241e-20)
(15.0019 0.000601563 3.3743e-20)
(15.0019 0.000567188 3.05577e-21)
(15.0019 0.000532917 6.24696e-22)
(15.0019 0.000498859 -1.31696e-20)
(15.0018 0.000464617 1.22641e-20)
(15.0018 0.000430991 0)
(15.0018 0.000397433 -2.59012e-20)
(15.0018 0.000364058 3.44906e-20)
(15.0018 0.000331554 -1.61334e-20)
(15.0017 0.000299381 -8.18406e-21)
(15.0017 0.000267543 4.32202e-21)
(15.0017 0.000235868 -3.08592e-20)
(15.0017 0.00020464 4.06971e-21)
(15.0016 0.000174697 1.0497e-20)
(15.0016 0.00014377 1.72487e-21)
(15.0015 0.000108628 2.2232e-22)
(15.0013 7.05515e-05 -2.36339e-21)
(15.0011 4.59407e-05 9.50062e-22)
(15.001 4.81983e-05 -1.30696e-22)
(15.0018 5.49158e-05 -1.40434e-21)
(15.0037 6.88756e-06 1.05639e-22)
(14.9963 7.98208e-06 -1.08846e-22)
(14.9978 4.67646e-05 5.62682e-22)
(14.9986 6.38343e-05 0)
(14.9988 5.87472e-05 0)
(14.9986 6.9554e-05 -9.13809e-22)
(14.9984 0.000104626 -1.47396e-21)
(14.9982 0.000146411 -3.25249e-21)
(14.9982 0.000184577 -1.59974e-21)
(14.9981 0.000220341 -5.12764e-21)
(14.9981 0.000256989 8.05034e-21)
(14.998 0.000294525 -5.59298e-21)
(14.998 0.000332703 -4.85567e-21)
(14.9979 0.000371403 -7.51361e-21)
(14.9979 0.000410861 4.54249e-23)
(14.9979 0.000451234 -2.97548e-20)
(14.9979 0.000492096 2.21778e-20)
(14.9978 0.000533389 7.0097e-21)
(14.9978 0.000575437 1.04981e-20)
(14.9978 0.000617785 -2.63816e-20)
(14.9978 0.000660514 1.12107e-20)
(14.9978 0.000703421 -3.99841e-20)
(14.9977 0.000746799 3.3725e-22)
(14.9977 0.000790288 8.83073e-21)
(14.9977 0.00083416 -1.14147e-20)
(14.9977 0.000877649 2.14986e-20)
(14.9977 0.000921482 3.07087e-22)
(14.9977 0.000965334 -4.3563e-20)
(14.9977 0.00100899 -2.30477e-20)
(14.9977 0.00105246 1.12756e-20)
(14.9977 0.0010962 4.32031e-23)
(14.9977 0.00113969 0)
(14.9977 0.00118295 2.35205e-20)
(14.9977 0.00122609 3.55086e-20)
(14.9977 0.0012691 -2.35104e-20)
(14.9977 0.00131165 -2.50249e-20)
(14.9978 0.00135415 -2.38836e-20)
(14.9978 0.00139615 -2.33837e-20)
(14.9978 0.00143795 -2.3839e-20)
(14.9978 0.00147966 3.06804e-21)
(14.9978 0.00152054 -4.66909e-20)
(14.9978 0.00156133 -3.71555e-20)
(14.9978 0.00160164 9.46167e-21)
(14.9979 0.00164143 8.93531e-21)
(14.9979 0.00168118 1.40919e-20)
(14.9979 0.00172045 2.28919e-20)
(14.9979 0.00175884 -1.93152e-22)
(14.9979 0.00179719 1.47095e-20)
(14.998 0.00183478 4.412e-20)
(14.998 0.00187192 2.17806e-20)
(14.998 0.00190861 -1.49641e-20)
(14.998 0.00194486 2.10774e-20)
(14.9981 0.00198053 -1.13597e-20)
(14.9981 0.00201555 -1.52262e-20)
(14.9981 0.0020503 -1.58186e-20)
(14.9981 0.00208422 1.57777e-20)
(14.9982 0.00211777 2.38102e-20)
(14.9982 0.00215042 -1.59634e-20)
(14.9982 0.00218276 3.50306e-20)
(14.9983 0.00221447 -2.55091e-21)
(14.9983 0.00224561 -5.29306e-20)
(14.9983 0.00227609 -1.63854e-20)
(14.9984 0.00230582 1.63915e-20)
(14.9984 0.00233513 1.66151e-20)
(14.9984 0.00236369 5.00003e-20)
(14.9985 0.00239163 -1.644e-20)
(14.9985 0.00241901 -3.38734e-20)
(14.9985 0.00244562 1.25066e-21)
(14.9986 0.00247163 1.53161e-20)
(14.9986 0.00249708 -1.70115e-20)
(14.9987 0.00252184 1.43848e-20)
(14.9987 0.0025459 3.44792e-20)
(14.9987 0.00256926 2.73643e-20)
(14.9988 0.00259206 -4.79696e-20)
(14.9988 0.00261393 -3.02729e-20)
(14.9989 0.00263518 1.75021e-20)
(14.9989 0.00265603 5.775e-21)
(14.9989 0.00267606 1.7626e-20)
(14.999 0.00269528 6.78738e-21)
(14.999 0.00271373 -2.10722e-20)
(14.9991 0.00273167 2.3112e-21)
(14.9991 0.00274871 -3.72108e-20)
(14.9992 0.00276522 2.6758e-20)
(14.9992 0.00278096 -9.19698e-21)
(14.9992 0.0027961 -5.43642e-20)
(14.9993 0.0028102 1.04069e-20)
(14.9993 0.00282378 3.64434e-20)
(14.9994 0.00283664 3.59519e-23)
(14.9994 0.00284886 1.19471e-20)
(14.9995 0.0028603 -1.82693e-20)
(14.9995 0.00287102 -4.9969e-20)
(14.9996 0.00288092 4.83982e-21)
(14.9996 0.00289016 3.80985e-24)
(14.9996 0.00289878 1.85509e-20)
(14.9997 0.00290651 1.86141e-20)
(14.9997 0.00291351 1.00697e-20)
(14.9998 0.00291989 1.39858e-20)
(14.9998 0.00292523 -1.68643e-20)
(14.9999 0.00292996 -1.8769e-20)
(14.9999 0.0029338 -1.8789e-20)
(15 0.00293727 -1.8496e-20)
(15 0.0029398 5.63313e-20)
(15.0001 0.00294139 1.88269e-20)
(15.0001 0.00294261 -2.00208e-20)
(15.0002 0.00294293 -1.88375e-20)
(15.0002 0.00294263 -2.10081e-20)
(15.0003 0.00294128 2.15378e-20)
(15.0003 0.00293929 -4.41178e-20)
(15.0003 0.00293655 -1.87676e-20)
(15.0004 0.0029329 6.06054e-20)
(15.0004 0.0029286 3.74993e-20)
(15.0005 0.00292362 -3.22522e-20)
(15.0005 0.00291779 -7.10448e-21)
(15.0006 0.0029112 -5.3642e-23)
(15.0006 0.00290379 4.39411e-23)
(15.0007 0.0028957 3.73638e-20)
(15.0007 0.00288685 -7.84949e-21)
(15.0008 0.00287744 -2.68937e-20)
(15.0008 0.00286693 -9.82281e-21)
(15.0009 0.00285578 2.79998e-20)
(15.0009 0.0028438 3.70511e-20)
(15.001 0.00283123 0)
(15.001 0.00281769 -1.85051e-20)
(15.001 0.00280359 -7.11873e-21)
(15.0011 0.00278865 0)
(15.0011 0.00277282 -1.22749e-20)
(15.0012 0.0027561 -1.27648e-20)
(15.0012 0.00273891 -1.32369e-20)
(15.0013 0.00272101 -1.82927e-20)
(15.0013 0.0027021 -1.41015e-20)
(15.0014 0.00268255 1.81016e-20)
(15.0014 0.0026622 -1.81753e-20)
(15.0014 0.00264106 8.46965e-23)
(15.0015 0.00261913 1.98725e-20)
(15.0015 0.00259655 1.64405e-20)
(15.0016 0.00257326 1.39231e-22)
(15.0016 0.0025491 -3.50508e-20)
(15.0017 0.00252426 -1.76688e-20)
(15.0017 0.00249869 0)
(15.0017 0.00247226 -2.09221e-23)
(15.0018 0.00244528 -1.63769e-21)
(15.0018 0.00241744 -3.95109e-20)
(15.0019 0.0023888 5.78416e-20)
(15.0019 0.00235946 2.0188e-20)
(15.0019 0.00232935 -7.61687e-20)
(15.002 0.00229881 0)
(15.002 0.00226722 1.71609e-20)
(15.002 0.00223512 4.87898e-21)
(15.0021 0.00220202 5.88415e-21)
(15.0021 0.00216852 1.66482e-20)
(15.0021 0.00213421 -2.3226e-20)
(15.0022 0.00209915 0)
(15.0022 0.0020635 1.65505e-20)
(15.0022 0.00202724 -8.03061e-21)
(15.0023 0.00199035 8.30179e-21)
(15.0023 0.00195251 -5.70214e-20)
(15.0023 0.0019145 2.53855e-20)
(15.0024 0.00187537 -2.50968e-22)
(15.0024 0.00183557 -2.54395e-20)
(15.0024 0.00179559 1.53469e-20)
(15.0024 0.00175489 -1.5538e-20)
(15.0025 0.00171349 -1.51347e-20)
(15.0025 0.00167184 5.68687e-20)
(15.0025 0.0016291 1.44359e-20)
(15.0025 0.00158609 1.2302e-20)
(15.0026 0.00154269 -4.1633e-20)
(15.0026 0.00149855 -5.56028e-20)
(15.0026 0.00145417 4.14873e-20)
(15.0026 0.00140907 -1.36864e-20)
(15.0026 0.00136362 2.79579e-22)
(15.0026 0.00131784 1.32335e-20)
(15.0026 0.0012716 0)
(15.0027 0.00122485 5.35832e-20)
(15.0027 0.00117818 -2.66151e-20)
(15.0027 0.00113108 -2.6385e-20)
(15.0027 0.0010835 -5.21442e-20)
(15.0027 0.0010357 -1.38206e-20)
(15.0027 0.000988051 3.66133e-20)
(15.0027 0.000939684 -2.47892e-20)
(15.0027 0.00089149 -1.07347e-20)
(15.0027 0.000843142 -2.33803e-20)
(15.0027 0.000795055 -3.65591e-20)
(15.0027 0.000746875 3.51233e-20)
(15.0026 0.000698822 3.53351e-22)
(15.0026 0.000650797 -3.67895e-22)
(15.0026 0.000603328 1.9869e-20)
(15.0026 0.000556031 2.54921e-20)
(15.0026 0.000508933 1.02208e-20)
(15.0025 0.000462563 3.41754e-21)
(15.0025 0.000416715 -1.38904e-20)
(15.0025 0.000371063 -1.32928e-20)
(15.0024 0.000325745 3.31208e-22)
(15.0024 0.000281088 1.31564e-20)
(15.0023 0.000237021 -1.61788e-20)
(15.0023 0.000189217 6.51928e-21)
(15.0021 0.000135978 2.46595e-23)
(15.0019 9.0965e-05 0)
(15.0016 7.76346e-05 -9.86171e-22)
(15.0018 8.54084e-05 -1.23405e-21)
(15.003 6.26798e-05 2.18104e-22)
(15.0049 1.09843e-05 1.55998e-22)
(14.9956 8.01778e-06 -1.77224e-22)
(14.9969 4.91095e-05 -8.41433e-22)
(14.9979 8.76624e-05 0)
(14.9983 9.05848e-05 1.83375e-21)
(14.9982 9.11522e-05 9.42257e-22)
(14.9979 0.000121905 -2.42907e-21)
(14.9977 0.000172957 -5.15288e-21)
(14.9976 0.000224987 -2.2514e-21)
(14.9976 0.00027306 1.91937e-21)
(14.9975 0.00032084 -9.26751e-21)
(14.9974 0.000369505 1.43374e-20)
(14.9974 0.000418962 -7.25152e-21)
(14.9973 0.000469062 1.77572e-20)
(14.9973 0.000520112 -5.16225e-23)
(14.9973 0.000572055 9.08133e-21)
(14.9972 0.000624811 -6.61917e-21)
(14.9972 0.000678096 3.37943e-20)
(14.9972 0.000732021 2.49327e-20)
(14.9971 0.000786493 -7.29656e-21)
(14.9971 0.000841675 -6.27698e-22)
(14.9971 0.000897077 -1.09305e-20)
(14.9971 0.000952798 -9.10688e-21)
(14.9971 0.00100892 -2.10869e-20)
(14.9971 0.00106533 -9.41082e-21)
(14.997 0.00112147 -2.22175e-20)
(14.997 0.00117791 4.28427e-20)
(14.997 0.00123452 -1.19929e-20)
(14.997 0.00129097 -2.30189e-20)
(14.997 0.00134715 -2.32092e-20)
(14.997 0.00140377 -3.46658e-20)
(14.997 0.00145992 -1.17983e-20)
(14.997 0.0015159 0)
(14.997 0.00157172 -3.57724e-20)
(14.9971 0.00162733 -2.40294e-20)
(14.9971 0.00168255 1.28316e-21)
(14.9971 0.00173763 -1.10552e-20)
(14.9971 0.00179212 -2.39322e-20)
(14.9971 0.00184635 -3.69361e-20)
(14.9971 0.00190025 -2.40132e-20)
(14.9971 0.0019534 4.7585e-20)
(14.9972 0.00200634 -3.95057e-21)
(14.9972 0.00205889 -3.74963e-20)
(14.9972 0.00211064 -9.31651e-21)
(14.9972 0.00216218 2.1069e-22)
(14.9973 0.00221326 -1.8858e-22)
(14.9973 0.0022632 -2.25856e-20)
(14.9973 0.00231292 2.23565e-20)
(14.9974 0.00236205 -2.21309e-20)
(14.9974 0.00241034 2.19288e-20)
(14.9974 0.00245816 2.0919e-22)
(14.9974 0.00250543 1.50383e-20)
(14.9975 0.0025518 2.16781e-20)
(14.9975 0.00259759 5.18038e-21)
(14.9976 0.00264282 -4.94318e-21)
(14.9976 0.00268708 4.67588e-21)
(14.9976 0.0027308 1.99376e-20)
(14.9977 0.00277358 -1.96142e-20)
(14.9977 0.0028157 -1.95924e-20)
(14.9978 0.00285708 3.54295e-20)
(14.9978 0.0028977 0)
(14.9978 0.00293753 -1.83701e-20)
(14.9979 0.00297662 -3.59849e-20)
(14.9979 0.00301486 1.76048e-20)
(14.998 0.00305209 -1.72213e-20)
(14.998 0.00308871 3.36944e-20)
(14.9981 0.00312458 1.69233e-20)
(14.9981 0.00315939 1.61494e-20)
(14.9982 0.00319336 -1.62373e-21)
(14.9982 0.0032266 -1.71938e-20)
(14.9983 0.00325913 -2.96609e-20)
(14.9983 0.00329069 1.44666e-20)
(14.9984 0.00332105 1.38324e-20)
(14.9984 0.00335081 4.15592e-21)
(14.9985 0.00337969 -1.30525e-20)
(14.9985 0.0034076 -7.51404e-21)
(14.9986 0.00343471 -1.20719e-20)
(14.9986 0.0034609 -1.17897e-20)
(14.9987 0.00348612 2.92157e-20)
(14.9987 0.00351037 -3.59675e-20)
(14.9988 0.0035339 -1.36893e-22)
(14.9988 0.00355641 1.82688e-20)
(14.9989 0.00357787 -1.82408e-20)
(14.999 0.00359844 1.77805e-20)
(14.999 0.00361835 -1.68268e-20)