/*--------------------------------*- C++ -*----------------------------------*\
  =========                 |
  \\      /  F ield         | OpenFOAM: The Open Source CFD Toolbox
   \\    /   O peration     | Website:  https://openfoam.org
    \\  /    A nd           | Version:  8
     \\/     M anipulation  |
\*---------------------------------------------------------------------------*/
FoamFile
{
    version     2.0;
    format      ascii;
    class       volScalarField;
    location    "2.547";
    object      p;
}
// * * * * * * * * * * * * * * * * * * * * * * * * * * * * * * * * * * * * * //

dimensions      [0 2 -2 0 0 0 0];

internalField   nonuniform List<scalar> 
277560
(
0.0107367
0.0105517
0.0100782
0.00937073
0.00845583
0.00733833
0.00602641
0.00453253
0.00286851
0.00104487
-0.000928316
-0.00304118
-0.00528418
-0.00764819
-0.0101245
-0.0127045
-0.0153804
-0.0181443
-0.0209889
-0.023907
-0.026892
-0.0299373
-0.0330369
-0.0361848
-0.0393754
-0.0426036
-0.0458641
-0.0491523
-0.0524635
-0.0557935
-0.0591382
-0.0624937
-0.0658564
-0.0692229
-0.0725899
-0.0759544
-0.0793135
-0.0826646
-0.0860051
-0.0893326
-0.092645
-0.0959403
-0.0992164
-0.102472
-0.105704
-0.108913
-0.112097
-0.115253
-0.118382
-0.121482
-0.124551
-0.12759
-0.130597
-0.133572
-0.136514
-0.139422
-0.142296
-0.145136
-0.147941
-0.15071
-0.153444
-0.156142
-0.158805
-0.161431
-0.164022
-0.166576
-0.169094
-0.171576
-0.174023
-0.176433
-0.178808
-0.181147
-0.183451
-0.18572
-0.187953
-0.190153
-0.192317
-0.194448
-0.196545
-0.198608
-0.200638
-0.202635
-0.2046
-0.206532
-0.208433
-0.210302
-0.21214
-0.213948
-0.215725
-0.217473
-0.21919
-0.220879
-0.222539
-0.22417
-0.225774
-0.22735
-0.228899
-0.230421
-0.231917
-0.233387
-0.234831
-0.23625
-0.237645
-0.239015
-0.24036
-0.241683
-0.242982
-0.244258
-0.245511
-0.246743
-0.247953
-0.249141
-0.250308
-0.251454
-0.252581
-0.253687
-0.254773
-0.25584
-0.256888
-0.257917
0.0109168
0.0107396
0.0102722
0.00956688
0.0086533
0.00753728
0.00622667
0.00473381
0.00307063
0.00124769
-0.000724933
-0.00283737
-0.0050801
-0.00744396
-0.00992021
-0.0125004
-0.0151765
-0.0179408
-0.0207859
-0.0237047
-0.0266904
-0.0297366
-0.0328371
-0.0359861
-0.039178
-0.0424074
-0.0456694
-0.0489591
-0.052272
-0.0556037
-0.0589502
-0.0623076
-0.0656723
-0.0690409
-0.0724101
-0.0757768
-0.0791382
-0.0824917
-0.0858346
-0.0891646
-0.0924796
-0.0957775
-0.0990563
-0.102314
-0.10555
-0.108761
-0.111948
-0.115107
-0.118239
-0.121341
-0.124414
-0.127456
-0.130466
-0.133444
-0.136389
-0.1393
-0.142178
-0.14502
-0.147828
-0.150601
-0.153338
-0.156039
-0.158705
-0.161334
-0.163928
-0.166485
-0.169007
-0.171492
-0.173941
-0.176355
-0.178733
-0.181075
-0.183382
-0.185654
-0.187891
-0.190093
-0.192261
-0.194394
-0.196494
-0.19856
-0.200593
-0.202593
-0.204561
-0.206496
-0.2084
-0.210272
-0.212113
-0.213923
-0.215703
-0.217453
-0.219173
-0.220865
-0.222527
-0.224161
-0.225767
-0.227346
-0.228898
-0.230422
-0.23192
-0.233393
-0.234839
-0.236261
-0.237657
-0.239029
-0.240378
-0.241702
-0.243003
-0.244281
-0.245537
-0.246771
-0.247982
-0.249172
-0.250341
-0.25149
-0.252618
-0.253725
-0.254814
-0.255882
-0.256932
-0.257963
0.0112486
0.0110709
0.0106043
0.0099001
0.00898783
0.00787321
0.00656381
0.00507189
0.00340942
0.00158698
-0.000385387
-0.00249781
-0.00474076
-0.00710508
-0.00958201
-0.0121631
-0.0148404
-0.017606
-0.0204527
-0.0233732
-0.0263609
-0.0294093
-0.0325121
-0.0356637
-0.0388583
-0.0420906
-0.0453557
-0.0486486
-0.0519648
-0.0553001
-0.0586503
-0.0620115
-0.0653802
-0.0687528
-0.0721261
-0.0754971
-0.0788629
-0.0822208
-0.0855683
-0.088903
-0.0922227
-0.0955254
-0.098809
-0.102072
-0.105312
-0.108529
-0.11172
-0.114885
-0.118022
-0.121129
-0.124207
-0.127254
-0.13027
-0.133253
-0.136203
-0.139119
-0.142002
-0.14485
-0.147663
-0.15044
-0.153183
-0.155889
-0.15856
-0.161194
-0.163793
-0.166355
-0.168881
-0.171372
-0.173826
-0.176244
-0.178627
-0.180974
-0.183285
-0.185562
-0.187803
-0.19001
-0.192182
-0.19432
-0.196424
-0.198495
-0.200532
-0.202536
-0.204508
-0.206447
-0.208355
-0.210231
-0.212076
-0.21389
-0.215674
-0.217427
-0.219152
-0.220847
-0.222513
-0.22415
-0.22576
-0.227342
-0.228897
-0.230425
-0.231926
-0.233402
-0.234852
-0.236276
-0.237676
-0.239051
-0.240402
-0.24173
-0.243034
-0.244315
-0.245574
-0.24681
-0.248025
-0.249218
-0.250389
-0.25154
-0.252671
-0.253782
-0.254872
-0.255944
-0.256996
-0.258029
0.0117377
0.0115642
0.0111018
0.0104016
0.00949271
0.00838094
0.00707396
0.00558407
0.00392323
0.00210205
0.000130572
-0.00198133
-0.00422409
-0.00658858
-0.00906603
-0.011648
-0.0143264
-0.0170936
-0.019942
-0.0228647
-0.0258548
-0.0289059
-0.0320118
-0.0351667
-0.0383649
-0.0416011
-0.0448702
-0.0481675
-0.0514883
-0.0548284
-0.0581836
-0.0615501
-0.0649242
-0.0683025
-0.0716817
-0.0750587
-0.0784307
-0.0817949
-0.0851489
-0.0884902
-0.0918167
-0.0951262
-0.0984169
-0.101687
-0.104935
-0.108158
-0.111357
-0.114529
-0.117673
-0.120789
-0.123874
-0.126929
-0.129952
-0.132943
-0.135901
-0.138825
-0.141715
-0.144571
-0.147392
-0.150177
-0.152927
-0.155641
-0.15832
-0.160962
-0.163568
-0.166138
-0.168672
-0.17117
-0.173632
-0.176058
-0.178448
-0.180803
-0.183122
-0.185405
-0.187654
-0.189868
-0.192047
-0.194193
-0.196304
-0.198381
-0.200426
-0.202437
-0.204415
-0.206362
-0.208276
-0.210158
-0.21201
-0.213831
-0.215621
-0.217381
-0.219111
-0.220813
-0.222485
-0.224129
-0.225744
-0.227332
-0.228893
-0.230427
-0.231934
-0.233415
-0.23487
-0.2363
-0.237706
-0.239086
-0.240443
-0.241775
-0.243084
-0.24437
-0.245634
-0.246875
-0.248094
-0.249292
-0.250468
-0.251624
-0.252759
-0.253874
-0.254969
-0.256044
-0.257101
-0.258138
0.0123804
0.0122127
0.0117551
0.0110593
0.0101544
0.00904595
0.00774186
0.00625436
0.00459545
0.0027757
0.000805179
-0.00130623
-0.00354898
-0.0059139
-0.00839224
-0.0109755
-0.0136558
-0.0164251
-0.0192762
-0.0222019
-0.0251954
-0.0282504
-0.0313605
-0.0345199
-0.037723
-0.0409645
-0.0442393
-0.0475425
-0.0508696
-0.0542163
-0.0575784
-0.0609521
-0.0643336
-0.0677195
-0.0711066
-0.0744918
-0.0778722
-0.081245
-0.0846077
-0.087958
-0.0912935
-0.0946123
-0.0979124
-0.101192
-0.104449
-0.107683
-0.110891
-0.114073
-0.117228
-0.120353
-0.123449
-0.126514
-0.129547
-0.132548
-0.135516
-0.138451
-0.141351
-0.144217
-0.147048
-0.149844
-0.152604
-0.155329
-0.158017
-0.16067
-0.163286
-0.165866
-0.16841
-0.170918
-0.17339
-0.175826
-0.178225
-0.180589
-0.182918
-0.185211
-0.187469
-0.189693
-0.191881
-0.194036
-0.196156
-0.198242
-0.200295
-0.202315
-0.204302
-0.206257
-0.20818
-0.210071
-0.211931
-0.213759
-0.215558
-0.217326
-0.219064
-0.220773
-0.222453
-0.224104
-0.225727
-0.227322
-0.22889
-0.230431
-0.231945
-0.233433
-0.234896
-0.236332
-0.237744
-0.239131
-0.240494
-0.241833
-0.243148
-0.244441
-0.24571
-0.246957
-0.248182
-0.249386
-0.250568
-0.251729
-0.25287
-0.25399
-0.255091
-0.256172
-0.257233
-0.258276
0.0131717
0.0130111
0.0125596
0.0118693
0.0109693
0.00986518
0.00856476
0.00708033
0.00542389
0.00360601
0.00163677
-0.000473932
-0.00271654
-0.0050819
-0.00756121
-0.010146
-0.0128283
-0.0156002
-0.0184544
-0.0213837
-0.0243813
-0.0274408
-0.030556
-0.0337209
-0.03693
-0.0401779
-0.0434594
-0.0467698
-0.0501045
-0.0534591
-0.0568295
-0.0602118
-0.0636023
-0.0669975
-0.0703942
-0.0737892
-0.0771797
-0.0805629
-0.0839363
-0.0872974
-0.090644
-0.093974
-0.0972855
-0.100577
-0.103846
-0.107091
-0.110312
-0.113506
-0.116672
-0.11981
-0.122918
-0.125995
-0.129041
-0.132055
-0.135035
-0.137983
-0.140896
-0.143774
-0.146618
-0.149426
-0.152199
-0.154936
-0.157637
-0.160302
-0.162931
-0.165523
-0.168079
-0.170599
-0.173083
-0.175531
-0.177943
-0.180319
-0.18266
-0.184965
-0.187234
-0.189469
-0.191669
-0.193835
-0.195966
-0.198064
-0.200128
-0.202159
-0.204157
-0.206123
-0.208056
-0.209957
-0.211828
-0.213667
-0.215475
-0.217253
-0.219001
-0.22072
-0.222409
-0.22407
-0.225703
-0.227307
-0.228884
-0.230434
-0.231957
-0.233454
-0.234925
-0.236371
-0.237791
-0.239186
-0.240557
-0.241904
-0.243228
-0.244528
-0.245805
-0.24706
-0.248292
-0.249503
-0.250693
-0.251861
-0.253009
-0.254136
-0.255243
-0.256331
-0.257399
-0.258448
0.0141073
0.013955
0.0135107
0.012827
0.0119328
0.0108338
0.00953772
0.00805692
0.0064034
0.00458774
0.00262003
0.000510168
-0.00173227
-0.00409812
-0.00657858
-0.0091652
-0.0118499
-0.0146249
-0.0174827
-0.0204162
-0.0234187
-0.0264836
-0.0296047
-0.0327762
-0.0359923
-0.0392477
-0.0425373
-0.0458562
-0.0491998
-0.0525639
-0.0559441
-0.0593367
-0.0627378
-0.0661441
-0.0695521
-0.0729589
-0.0763614
-0.0797569
-0.0831428
-0.0865168
-0.0898765
-0.0932199
-0.096545
-0.0998498
-0.103133
-0.106392
-0.109627
-0.112836
-0.116017
-0.119169
-0.122292
-0.125384
-0.128445
-0.131473
-0.134469
-0.137431
-0.140359
-0.143252
-0.146111
-0.148934
-0.151722
-0.154474
-0.15719
-0.15987
-0.162513
-0.16512
-0.167691
-0.170226
-0.172724
-0.175186
-0.177612
-0.180003
-0.182357
-0.184676
-0.18696
-0.189208
-0.191422
-0.193601
-0.195746
-0.197856
-0.199933
-0.201977
-0.203988
-0.205966
-0.207912
-0.209826
-0.211708
-0.213559
-0.215379
-0.217169
-0.218929
-0.220659
-0.22236
-0.224032
-0.225676
-0.227291
-0.228879
-0.230439
-0.231973
-0.23348
-0.234961
-0.236416
-0.237846
-0.239251
-0.240632
-0.241988
-0.243321
-0.24463
-0.245917
-0.24718
-0.248422
-0.249641
-0.250839
-0.252016
-0.253172
-0.254307
-0.255423
-0.256518
-0.257594
-0.25865
0.0151828
0.0150401
0.0146041
0.0139279
0.0130406
0.0119474
0.0106564
0.00917977
0.00752965
0.00571659
0.00375069
0.00164185
-0.000600333
-0.00296669
-0.0054484
-0.00803702
-0.0107244
-0.0135028
-0.0163648
-0.0193031
-0.0223111
-0.0253822
-0.0285101
-0.0316889
-0.034913
-0.038177
-0.0414758
-0.0448044
-0.0481583
-0.0515331
-0.0549246
-0.0583288
-0.0617421
-0.065161
-0.068582
-0.0720021
-0.0754184
-0.078828
-0.0822284
-0.0856171
-0.0889919
-0.0923505
-0.0956911
-0.0990117
-0.102311
-0.105586
-0.108838
-0.112062
-0.11526
-0.118429
-0.121569
-0.124678
-0.127756
-0.130801
-0.133814
-0.136793
-0.139738
-0.142649
-0.145525
-0.148365
-0.15117
-0.153939
-0.156672
-0.159369
-0.162029
-0.164653
-0.167241
-0.169792
-0.172307
-0.174786
-0.177228
-0.179635
-0.182005
-0.18434
-0.18664
-0.188904
-0.191133
-0.193328
-0.195488
-0.197614
-0.199706
-0.201765
-0.20379
-0.205783
-0.207743
-0.209671
-0.211568
-0.213433
-0.215267
-0.21707
-0.218844
-0.220587
-0.222301
-0.223986
-0.225642
-0.22727
-0.22887
-0.230443
-0.231989
-0.233508
-0.235001
-0.236468
-0.237909
-0.239326
-0.240717
-0.242085
-0.243428
-0.244748
-0.246045
-0.247319
-0.24857
-0.2498
-0.251008
-0.252194
-0.25336
-0.254505
-0.255629
-0.256734
-0.257819
-0.258883
0.0163941
0.0162622
0.0158356
0.015168
0.0142882
0.0132018
0.0119164
0.0104446
0.00879837
0.00698829
0.00502448
0.00291685
0.000675014
-0.00169185
-0.00417491
-0.00676571
-0.0094561
-0.0122383
-0.0151048
-0.0180486
-0.0210626
-0.0241405
-0.027276
-0.0304631
-0.0336962
-0.0369698
-0.0402788
-0.0436183
-0.0469837
-0.0503705
-0.0537746
-0.057192
-0.060619
-0.064052
-0.0674876
-0.0709228
-0.0743546
-0.07778
-0.0811966
-0.0846019
-0.0879936
-0.0913694
-0.0947275
-0.0980659
-0.101383
-0.104677
-0.107946
-0.11119
-0.114406
-0.117594
-0.120753
-0.123881
-0.126978
-0.130043
-0.133075
-0.136073
-0.139038
-0.141968
-0.144863
-0.147723
-0.150547
-0.153336
-0.156088
-0.158804
-0.161483
-0.164126
-0.166733
-0.169303
-0.171837
-0.174334
-0.176795
-0.17922
-0.181609
-0.183962
-0.186279
-0.188561
-0.190808
-0.19302
-0.195198
-0.197341
-0.19945
-0.201526
-0.203568
-0.205577
-0.207553
-0.209498
-0.21141
-0.213291
-0.21514
-0.216959
-0.218747
-0.220506
-0.222234
-0.223934
-0.225605
-0.227247
-0.228861
-0.230448
-0.232007
-0.233539
-0.235046
-0.236526
-0.23798
-0.239409
-0.240813
-0.242193
-0.243549
-0.244881
-0.246189
-0.247475
-0.248738
-0.249979
-0.251198
-0.252395
-0.253571
-0.254727
-0.255862
-0.256977
-0.258072
-0.259146
0.0177371
0.0176173
0.0172011
0.016543
0.0156718
0.0145927
0.0133137
0.0118473
0.0102054
0.00839873
0.00643731
0.00433111
0.00208973
-0.000277608
-0.00276208
-0.00535521
-0.00804883
-0.0108351
-0.0137067
-0.0166562
-0.019677
-0.0227624
-0.0259062
-0.0291024
-0.0323453
-0.0356294
-0.0389497
-0.0423012
-0.0456793
-0.0490794
-0.0524974
-0.0559293
-0.0593713
-0.0628199
-0.0662717
-0.0697235
-0.0731723
-0.0766153
-0.0800499
-0.0834735
-0.0868838
-0.0902787
-0.0936562
-0.0970142
-0.100351
-0.103665
-0.106955
-0.110219
-0.113456
-0.116665
-0.119845
-0.122994
-0.126112
-0.129199
-0.132252
-0.135272
-0.138258
-0.14121
-0.144127
-0.147008
-0.149854
-0.152663
-0.155437
-0.158174
-0.160875
-0.163539
-0.166167
-0.168758
-0.171312
-0.17383
-0.176312
-0.178757
-0.181166
-0.183539
-0.185877
-0.188179
-0.190445
-0.192677
-0.194873
-0.197035
-0.199164
-0.201258
-0.203318
-0.205346
-0.20734
-0.209302
-0.211232
-0.213131
-0.214997
-0.216833
-0.218639
-0.220414
-0.222159
-0.223874
-0.225561
-0.227219
-0.228849
-0.230451
-0.232026
-0.233573
-0.235094
-0.236589
-0.238057
-0.239501
-0.240919
-0.242312
-0.243681
-0.245027
-0.246349
-0.247647
-0.248923
-0.250176
-0.251408
-0.252617
-0.253806
-0.254973
-0.25612
-0.257246
-0.258352
-0.259437
0.0192081
0.0191014
0.0186967
0.018049
0.0171872
0.0161163
0.0148444
0.0133839
0.0117469
0.00994397
0.00798525
0.0058807
0.00363993
0.00127216
-0.00121376
-0.00380933
-0.00650638
-0.0092971
-0.012174
-0.0151298
-0.0181578
-0.0212513
-0.0244041
-0.0276101
-0.0308636
-0.0341593
-0.0374919
-0.0408564
-0.0442481
-0.0476627
-0.0510959
-0.0545436
-0.058002
-0.0614676
-0.064937
-0.0684069
-0.0718744
-0.0753366
-0.0787907
-0.0822343
-0.0856651
-0.0890808
-0.0924794
-0.095859
-0.0992176
-0.102554
-0.105866
-0.109153
-0.112412
-0.115644
-0.118847
-0.12202
-0.125161
-0.128271
-0.131348
-0.134391
-0.137401
-0.140376
-0.143316
-0.146221
-0.149091
-0.151924
-0.154721
-0.157481
-0.160206
-0.162893
-0.165544
-0.168158
-0.170735
-0.173276
-0.17578
-0.178248
-0.180679
-0.183074
-0.185433
-0.187757
-0.190045
-0.192298
-0.194516
-0.196699
-0.198848
-0.200963
-0.203043
-0.205091
-0.207105
-0.209087
-0.211037
-0.212954
-0.21484
-0.216695
-0.218518
-0.220312
-0.222075
-0.223808
-0.225513
-0.227188
-0.228835
-0.230454
-0.232045
-0.233609
-0.235146
-0.236657
-0.238141
-0.2396
-0.241034
-0.242443
-0.243827
-0.245187
-0.246523
-0.247836
-0.249126
-0.250393
-0.251638
-0.252861
-0.254062
-0.255243
-0.256402
-0.257541
-0.25866
-0.259756
0.0208032
0.0207107
0.0203186
0.0196823
0.0188307
0.0177688
0.0165045
0.0150506
0.0134189
0.0116202
0.00966451
0.00756185
0.00532185
0.00295374
0.000466375
-0.00213172
-0.00483236
-0.00762772
-0.0105103
-0.0134728
-0.0165085
-0.0196106
-0.022773
-0.0259895
-0.0292545
-0.0325625
-0.0359082
-0.0392867
-0.0426933
-0.0461235
-0.0495729
-0.0530376
-0.0565138
-0.0599978
-0.0634861
-0.0669757
-0.0704633
-0.0739461
-0.0774214
-0.0808867
-0.0843396
-0.0877778
-0.0911993
-0.0946021
-0.0979844
-0.101344
-0.104681
-0.107992
-0.111276
-0.114533
-0.117761
-0.120958
-0.124125
-0.12726
-0.130363
-0.133432
-0.136467
-0.139468
-0.142434
-0.145364
-0.148259
-0.151118
-0.15394
-0.156726
-0.159476
-0.162188
-0.164864
-0.167503
-0.170105
-0.172671
-0.175199
-0.177691
-0.180147
-0.182566
-0.184949
-0.187297
-0.189608
-0.191884
-0.194125
-0.196331
-0.198502
-0.200639
-0.202743
-0.204812
-0.206848
-0.208851
-0.210822
-0.21276
-0.214667
-0.216542
-0.218386
-0.220199
-0.221982
-0.223735
-0.225458
-0.227153
-0.228818
-0.230456
-0.232065
-0.233647
-0.235202
-0.23673
-0.238232
-0.239707
-0.241158
-0.242583
-0.243983
-0.245359
-0.246711
-0.24804
-0.249345
-0.250627
-0.251887
-0.253124
-0.25434
-0.255535
-0.256708
-0.257861
-0.258993
-0.260103
0.0225188
0.0224417
0.0220631
0.0214391
0.0205985
0.0195463
0.0182905
0.0168436
0.0152179
0.0134237
0.0114714
0.00937092
0.00713187
0.00476353
0.00227476
-0.000325899
-0.00303026
-0.00583046
-0.00871896
-0.0116885
-0.0147323
-0.0178436
-0.0210162
-0.0242439
-0.027521
-0.0308421
-0.0342018
-0.0375953
-0.0410176
-0.0444644
-0.0479312
-0.0514141
-0.0549092
-0.0584129
-0.0619215
-0.065432
-0.0689412
-0.0724461
-0.0759442
-0.0794327
-0.0829093
-0.0863717
-0.0898177
-0.0932455
-0.0966531
-0.100039
-0.103401
-0.106738
-0.110049
-0.113333
-0.116587
-0.119812
-0.123006
-0.126168
-0.129298
-0.132395
-0.135458
-0.138486
-0.14148
-0.144438
-0.14736
-0.150246
-0.153096
-0.15591
-0.158686
-0.161426
-0.164129
-0.166795
-0.169424
-0.172016
-0.174571
-0.17709
-0.179571
-0.182016
-0.184425
-0.186798
-0.189135
-0.191436
-0.193702
-0.195932
-0.198128
-0.200289
-0.202416
-0.204509
-0.206569
-0.208595
-0.210588
-0.212549
-0.214478
-0.216375
-0.218241
-0.220076
-0.22188
-0.223654
-0.225398
-0.227113
-0.228799
-0.230456
-0.232085
-0.233686
-0.23526
-0.236807
-0.238328
-0.239822
-0.24129
-0.242733
-0.244151
-0.245544
-0.246913
-0.248258
-0.24958
-0.250879
-0.252154
-0.253408
-0.254639
-0.255849
-0.257038
-0.258206
-0.259352
-0.260475
0.0243514
0.0242908
0.0239266
0.0233158
0.0224871
0.0214454
0.0201986
0.0187595
0.0171401
0.015351
0.0134024
0.0113044
0.00906652
0.00669809
0.00420798
0.00160474
-0.00110341
-0.00390861
-0.00680329
-0.00978022
-0.0128325
-0.0159534
-0.0191366
-0.0223761
-0.025666
-0.0290009
-0.0323755
-0.0357847
-0.0392237
-0.0426881
-0.0461734
-0.0496756
-0.0531907
-0.0567152
-0.0602455
-0.0637782
-0.0673103
-0.0708388
-0.074361
-0.0778743
-0.0813761
-0.0848642
-0.0883364
-0.0917908
-0.0952254
-0.0986385
-0.102028
-0.105394
-0.108733
-0.112045
-0.115328
-0.118582
-0.121805
-0.124997
-0.128156
-0.131282
-0.134374
-0.137432
-0.140455
-0.143442
-0.146394
-0.14931
-0.152189
-0.155032
-0.157838
-0.160607
-0.163339
-0.166034
-0.168691
-0.171312
-0.173895
-0.176442
-0.178952
-0.181425
-0.183861
-0.186261
-0.188625
-0.190953
-0.193245
-0.195502
-0.197724
-0.199911
-0.202064
-0.204182
-0.206267
-0.208318
-0.210336
-0.212321
-0.214274
-0.216194
-0.218084
-0.219941
-0.221768
-0.223565
-0.225332
-0.227068
-0.228776
-0.230454
-0.232105
-0.233727
-0.235321
-0.236888
-0.238429
-0.239942
-0.24143
-0.242892
-0.244329
-0.245741
-0.247128
-0.248491
-0.249831
-0.251147
-0.25244
-0.25371
-0.254959
-0.256185
-0.25739
-0.258573
-0.259735
-0.260874
0.0262976
0.0262544
0.0259058
0.025309
0.024493
0.0234625
0.0222254
0.0207946
0.0191821
0.0173986
0.0154541
0.0133589
0.0111224
0.00875407
0.00626272
0.00365694
0.000944949
-0.00186535
-0.00476639
-0.00775091
-0.0108119
-0.0139428
-0.0171372
-0.020389
-0.0236924
-0.0270418
-0.0304318
-0.0338576
-0.0373142
-0.040797
-0.0443018
-0.0478243
-0.0513606
-0.0549071
-0.0584601
-0.0620164
-0.0655727
-0.0691261
-0.0726739
-0.0762132
-0.0797418
-0.0832571
-0.0867571
-0.0902397
-0.0937029
-0.0971451
-0.100564
-0.103959
-0.107329
-0.110671
-0.113985
-0.117269
-0.120523
-0.123746
-0.126936
-0.130093
-0.133217
-0.136306
-0.13936
-0.142379
-0.145363
-0.14831
-0.15122
-0.154094
-0.156931
-0.159731
-0.162494
-0.165219
-0.167908
-0.170559
-0.173172
-0.175749
-0.178288
-0.180791
-0.183257
-0.185686
-0.188079
-0.190435
-0.192756
-0.195041
-0.197291
-0.199506
-0.201686
-0.203831
-0.205942
-0.20802
-0.210064
-0.212075
-0.214053
-0.216
-0.217914
-0.219796
-0.221648
-0.223468
-0.225258
-0.227019
-0.228749
-0.230451
-0.232123
-0.233768
-0.235384
-0.236973
-0.238534
-0.240069
-0.241578
-0.24306
-0.244517
-0.245949
-0.247356
-0.248738
-0.250097
-0.251431
-0.252743
-0.254031
-0.255297
-0.256541
-0.257764
-0.258964
-0.260143
-0.261297
0.028354
0.0283294
0.0279971
0.0274153
0.0266128
0.0255942
0.0243676
0.0229457
0.0213407
0.0195631
0.0176232
0.0155311
0.0132963
0.0109282
0.0084358
0.00582754
0.00311172
0.000296247
-0.00261129
-0.0056036
-0.00867371
-0.0118149
-0.0150209
-0.0182854
-0.0216027
-0.0249672
-0.0283735
-0.0318165
-0.0352914
-0.0387936
-0.0423187
-0.0458625
-0.049421
-0.0529905
-0.0565675
-0.0601484
-0.0637302
-0.0673099
-0.0708845
-0.0744514
-0.078008
-0.0815521
-0.0850813
-0.0885936
-0.092087
-0.0955597
-0.0990101
-0.102436
-0.105837
-0.109211
-0.112557
-0.115874
-0.119161
-0.122416
-0.12564
-0.12883
-0.131987
-0.135109
-0.138197
-0.141249
-0.144265
-0.147246
-0.150189
-0.153096
-0.155966
-0.158799
-0.161595
-0.164353
-0.167073
-0.169756
-0.172402
-0.175011
-0.177582
-0.180116
-0.182613
-0.185073
-0.187496
-0.189883
-0.192234
-0.194549
-0.196829
-0.199073
-0.201282
-0.203456
-0.205595
-0.207701
-0.209773
-0.211811
-0.213817
-0.21579
-0.217731
-0.219639
-0.221517
-0.223363
-0.225178
-0.226963
-0.228719
-0.230444
-0.232141
-0.233809
-0.235448
-0.23706
-0.238644
-0.240202
-0.241732
-0.243236
-0.244715
-0.246167
-0.247595
-0.248998
-0.250377
-0.251731
-0.253062
-0.25437
-0.255655
-0.256918
-0.258158
-0.259377
-0.260574
-0.261745
0.0305174
0.0305124
0.0301974
0.0296314
0.0288433
0.0278374
0.0266218
0.0252094
0.0236124
0.0218414
0.0199065
0.0178178
0.015585
0.0132175
0.0107241
0.00811351
0.0053939
0.00257323
-0.000340876
-0.00334113
-0.00642053
-0.00957236
-0.0127902
-0.0160679
-0.0193996
-0.0227797
-0.0262028
-0.0296638
-0.0331578
-0.0366801
-0.0402264
-0.0437923
-0.047374
-0.0509676
-0.0545695
-0.0581763
-0.0617847
-0.0653918
-0.0689945
-0.0725902
-0.0761763
-0.0797505
-0.0833104
-0.0868538
-0.0903789
-0.0938838
-0.0973667
-0.100826
-0.10426
-0.107668
-0.111048
-0.114399
-0.11772
-0.12101
-0.124268
-0.127493
-0.130684
-0.133842
-0.136964
-0.140052
-0.143103
-0.146118
-0.149097
-0.152039
-0.154944
-0.157811
-0.160641
-0.163434
-0.166188
-0.168906
-0.171585
-0.174227
-0.176832
-0.179399
-0.181929
-0.184422
-0.186878
-0.189297
-0.19168
-0.194026
-0.196337
-0.198612
-0.200851
-0.203056
-0.205226
-0.207361
-0.209462
-0.21153
-0.213564
-0.215565
-0.217534
-0.219471
-0.221375
-0.223248
-0.225091
-0.226902
-0.228683
-0.230435
-0.232157
-0.23385
-0.235514
-0.23715
-0.238758
-0.240339
-0.241893
-0.24342
-0.244921
-0.246396
-0.247846
-0.24927
-0.25067
-0.252046
-0.253398
-0.254726
-0.256031
-0.257314
-0.258574
-0.259812
-0.261027
-0.262216
0.0327847
0.0328003
0.0325035
0.0319542
0.0311812
0.0301887
0.0289849
0.0275827
0.0259943
0.0242302
0.0223007
0.0202159
0.0179855
0.0156188
0.0131247
0.0105119
0.00778858
0.00496275
0.00204203
-0.000966263
-0.00405511
-0.00721777
-0.0104478
-0.013739
-0.0170856
-0.0204818
-0.0239222
-0.0274017
-0.0309154
-0.0344586
-0.0380268
-0.0416158
-0.0452215
-0.0488402
-0.052468
-0.0561017
-0.0597378
-0.0633734
-0.0670055
-0.0706313
-0.0742482
-0.0778537
-0.0814456
-0.0850217
-0.0885799
-0.0921184
-0.0956353
-0.0991291
-0.102598
-0.106041
-0.109457
-0.112843
-0.1162
-0.119526
-0.122821
-0.126082
-0.129311
-0.132505
-0.135664
-0.138788
-0.141876
-0.144928
-0.147944
-0.150922
-0.153863
-0.156767
-0.159634
-0.162462
-0.165253
-0.168006
-0.170721
-0.173399
-0.176039
-0.178641
-0.181205
-0.183732
-0.186223
-0.188676
-0.191092
-0.193472
-0.195815
-0.198123
-0.200395
-0.202631
-0.204833
-0.206999
-0.209132
-0.21123
-0.213295
-0.215326
-0.217324
-0.21929
-0.221223
-0.223125
-0.224995
-0.226835
-0.228643
-0.230422
-0.23217
-0.23389
-0.23558
-0.237242
-0.238875
-0.240481
-0.242059
-0.243611
-0.245136
-0.246634
-0.248107
-0.249555
-0.250977
-0.252375
-0.253749
-0.255099
-0.256425
-0.257729
-0.259009
-0.260268
-0.261503
-0.262711
0.0351529
0.03519
0.0349124
0.0343806
0.0336235
0.0326451
0.0314538
0.0300624
0.0284832
0.0267266
0.024803
0.0227225
0.0204948
0.0181292
0.0156347
0.0130198
0.010293
0.00746205
0.00453473
0.00151835
-0.00158005
-0.00475371
-0.00799617
-0.0113012
-0.0146629
-0.0180756
-0.0215338
-0.0250324
-0.0285665
-0.0321312
-0.035722
-0.0393348
-0.0429654
-0.0466099
-0.0502647
-0.0539262
-0.0575911
-0.0612564
-0.0649189
-0.0685759
-0.0722248
-0.075863
-0.0794882
-0.0830983
-0.086691
-0.0902645
-0.093817
-0.0973467
-0.100852
-0.104332
-0.107784
-0.111208
-0.114603
-0.117967
-0.121299
-0.124599
-0.127866
-0.131098
-0.134296
-0.137459
-0.140585
-0.143676
-0.14673
-0.149747
-0.152726
-0.155668
-0.158572
-0.161439
-0.164268
-0.167058
-0.169811
-0.172525
-0.175202
-0.177841
-0.180442
-0.183005
-0.185531
-0.18802
-0.190471
-0.192886
-0.195264
-0.197606
-0.199912
-0.202182
-0.204417
-0.206616
-0.208781
-0.210911
-0.213008
-0.21507
-0.2171
-0.219096
-0.22106
-0.222992
-0.224892
-0.22676
-0.228598
-0.230405
-0.232182
-0.233929
-0.235646
-0.237335
-0.238995
-0.240627
-0.242231
-0.243808
-0.245358
-0.246882
-0.248379
-0.249851
-0.251297
-0.252718
-0.254115
-0.255487
-0.256836
-0.258162
-0.259464
-0.260744
-0.261999
-0.263228
0.037619
0.0376785
0.0374209
0.0369075
0.0361671
0.0352037
0.0340254
0.0326455
0.031076
0.0293276
0.0274104
0.0253347
0.02311
0.0207459
0.0182512
0.0156346
0.0129043
0.0100684
0.00713459
0.00411013
0.00100213
-0.00218264
-0.00543768
-0.00875677
-0.0121339
-0.0155635
-0.0190399
-0.0225581
-0.0261129
-0.0296997
-0.0333139
-0.0369512
-0.0406074
-0.0442787
-0.0479612
-0.0516515
-0.0553461
-0.059042
-0.0627361
-0.0664254
-0.0701075
-0.0737796
-0.0774394
-0.0810846
-0.0847132
-0.0883231
-0.0919125
-0.0954796
-0.0990229
-0.102541
-0.106032
-0.109495
-0.112929
-0.116332
-0.119704
-0.123044
-0.12635
-0.129623
-0.132861
-0.136063
-0.13923
-0.142361
-0.145455
-0.148512
-0.151531
-0.154513
-0.157458
-0.160364
-0.163232
-0.166062
-0.168853
-0.171607
-0.174322
-0.176999
-0.179638
-0.182239
-0.184803
-0.187328
-0.189817
-0.192268
-0.194683
-0.19706
-0.199402
-0.201707
-0.203977
-0.206211
-0.20841
-0.210574
-0.212704
-0.214799
-0.216861
-0.21889
-0.220886
-0.222849
-0.22478
-0.226679
-0.228547
-0.230383
-0.23219
-0.233966
-0.235712
-0.237429
-0.239117
-0.240777
-0.242408
-0.244012
-0.245588
-0.247138
-0.248661
-0.250158
-0.251629
-0.253074
-0.254495
-0.255892
-0.257264
-0.258612
-0.259937
-0.261239
-0.262517
-0.263766
0.0401801
0.0402629
0.0400262
0.039532
0.0388091
0.0378613
0.036697
0.0353292
0.0337701
0.0320302
0.03012
0.0280495
0.0258284
0.0234661
0.0209715
0.0183534
0.01562
0.0127793
0.00983908
0.00680661
0.00368901
0.00049308
-0.00277466
-0.00610795
-0.00950081
-0.0129475
-0.0164425
-0.0199806
-0.0235568
-0.0271662
-0.0308043
-0.0344666
-0.0381492
-0.0418479
-0.045559
-0.0492789
-0.0530042
-0.0567317
-0.0604583
-0.0641811
-0.0678973
-0.0716044
-0.0753
-0.0789817
-0.0826474
-0.086295
-0.0899226
-0.0935285
-0.097111
-0.100669
-0.1042
-0.107703
-0.111178
-0.114622
-0.118035
-0.121416
-0.124764
-0.128078
-0.131358
-0.134603
-0.137811
-0.140984
-0.14412
-0.147218
-0.15028
-0.153303
-0.156289
-0.159236
-0.162146
-0.165016
-0.167849
-0.170643
-0.173398
-0.176115
-0.178794
-0.181435
-0.184037
-0.186602
-0.189129
-0.191619
-0.194071
-0.196486
-0.198865
-0.201207
-0.203513
-0.205783
-0.208017
-0.210217
-0.212381
-0.214512
-0.216608
-0.21867
-0.220699
-0.222695
-0.224658
-0.22659
-0.228489
-0.230357
-0.232194
-0.234001
-0.235777
-0.237524
-0.239241
-0.240929
-0.242589
-0.244221
-0.245825
-0.247402
-0.248951
-0.250475
-0.251972
-0.253443
-0.254889
-0.256311
-0.257707
-0.25908
-0.260429
-0.261754
-0.263055
-0.264326
0.0428333
0.0429404
0.0427255
0.0422513
0.0415467
0.0406152
0.0394655
0.0381105
0.0365623
0.0348318
0.032929
0.0308642
0.0286471
0.0262871
0.023793
0.0211737
0.0184375
0.0155922
0.0126457
0.00960537
0.00647823
0.00327115
-9.33159e-06
-0.00335694
-0.00676565
-0.0102297
-0.0137436
-0.0173019
-0.0208998
-0.0245323
-0.0281947
-0.0318828
-0.0355923
-0.0393191
-0.0430595
-0.0468098
-0.0505666
-0.0543266
-0.0580867
-0.0618439
-0.0655954
-0.0693386
-0.0730711
-0.0767904
-0.0804944
-0.0841809
-0.0878481
-0.0914941
-0.0951171
-0.0987157
-0.102288
-0.105834
-0.10935
-0.112837
-0.116293
-0.119717
-0.123108
-0.126465
-0.129788
-0.133076
-0.136329
-0.139545
-0.142724
-0.145866
-0.148971
-0.152038
-0.155066
-0.158057
-0.161009
-0.163922
-0.166797
-0.169633
-0.172431
-0.175189
-0.17791
-0.180591
-0.183235
-0.18584
-0.188407
-0.190936
-0.193428
-0.195883
-0.1983
-0.20068
-0.203024
-0.205332
-0.207604
-0.20984
-0.212041
-0.214207
-0.216339
-0.218436
-0.2205
-0.22253
-0.224528
-0.226492
-0.228425
-0.230325
-0.232195
-0.234033
-0.235841
-0.237618
-0.239366
-0.241085
-0.242774
-0.244435
-0.246068
-0.247673
-0.249251
-0.250802
-0.252326
-0.253824
-0.255297
-0.256744
-0.258167
-0.259564
-0.260938
-0.262288
-0.263613
-0.264907
0.0455759
0.0457082
0.0455158
0.0450624
0.0443769
0.0434627
0.0423281
0.0409866
0.0394502
0.0377294
0.0358347
0.0337762
0.0315636
0.0292062
0.0267132
0.024093
0.0213542
0.0185047
0.0155522
0.0125041
0.00936752
0.00614936
0.00285614
-0.00050582
-0.00393048
-0.00741205
-0.010945
-0.0145239
-0.0181438
-0.0217997
-0.025487
-0.0292013
-0.0329382
-0.0366938
-0.0404642
-0.0442456
-0.0480347
-0.051828
-0.0556224
-0.0594149
-0.0632027
-0.066983
-0.0707534
-0.0745115
-0.0782549
-0.0819816
-0.0856895
-0.0893769
-0.0930418
-0.0966828
-0.100298
-0.103887
-0.107447
-0.110978
-0.114478
-0.117946
-0.121382
-0.124784
-0.128152
-0.131485
-0.134782
-0.138043
-0.141268
-0.144455
-0.147605
-0.150716
-0.15379
-0.156825
-0.159821
-0.162779
-0.165698
-0.168578
-0.171419
-0.174221
-0.176984
-0.179709
-0.182395
-0.185042
-0.187651
-0.190222
-0.192754
-0.195249
-0.197707
-0.200127
-0.202511
-0.204858
-0.207168
-0.209443
-0.211682
-0.213885
-0.216054
-0.218188
-0.220288
-0.222354
-0.224387
-0.226386
-0.228353
-0.230288
-0.232191
-0.234062
-0.235903
-0.237712
-0.239492
-0.241242
-0.242962
-0.244654
-0.246316
-0.247951
-0.249558
-0.251138
-0.252691
-0.254217
-0.255717
-0.257192
-0.258641
-0.260065
-0.261464
-0.26284
-0.26419
-0.265508
0.0484052
0.0485636
0.0483946
0.0479628
0.0472972
0.0464008
0.0452823
0.0439549
0.0424308
0.0407205
0.0388345
0.0367828
0.0345752
0.032221
0.0297294
0.0271088
0.0243678
0.0215143
0.018556
0.0155005
0.0123547
0.00912555
0.00581967
0.00244338
-0.000997272
-0.00449645
-0.00804856
-0.0116483
-0.0152904
-0.0189701
-0.0226826
-0.0264235
-0.0301884
-0.0339733
-0.0377742
-0.0415874
-0.0454094
-0.0492368
-0.0530664
-0.0568951
-0.06072
-0.0645385
-0.0683478
-0.0721457
-0.0759297
-0.0796976
-0.0834475
-0.0871774
-0.0908855
-0.0945702
-0.0982297
-0.101863
-0.105468
-0.109044
-0.11259
-0.116104
-0.119586
-0.123034
-0.126449
-0.129828
-0.133172
-0.13648
-0.139751
-0.142985
-0.146181
-0.149339
-0.152459
-0.15554
-0.158583
-0.161586
-0.164551
-0.167476
-0.170363
-0.17321
-0.176018
-0.178786
-0.181516
-0.184207
-0.18686
-0.189474
-0.192049
-0.194586
-0.197086
-0.199548
-0.201972
-0.20436
-0.206711
-0.209025
-0.211303
-0.213546
-0.215753
-0.217925
-0.220063
-0.222166
-0.224235
-0.226271
-0.228274
-0.230244
-0.232182
-0.234087
-0.235962
-0.237805
-0.239618
-0.2414
-0.243153
-0.244876