/*--------------------------------*- C++ -*----------------------------------*\
  =========                 |
  \\      /  F ield         | OpenFOAM: The Open Source CFD Toolbox
   \\    /   O peration     | Website:  https://openfoam.org
    \\  /    A nd           | Version:  8
     \\/     M anipulation  |
\*---------------------------------------------------------------------------*/
FoamFile
{
    version     2.0;
    format      ascii;
    class       volScalarField;
    location    "1.03895";
    object      p;
}
// * * * * * * * * * * * * * * * * * * * * * * * * * * * * * * * * * * * * * //

dimensions      [0 2 -2 0 0 0 0];

internalField   nonuniform List<scalar> 
127200
(
-13.6007
-14.0412
-14.4572
-14.8467
-15.2078
-15.5392
-15.8397
-16.1078
-16.3426
-16.5434
-16.7101
-16.8426
-16.9413
-17.0069
-17.0401
-17.0419
-17.0135
-16.9564
-16.8718
-16.7611
-16.6272
-16.474
-16.3
-16.0929
-15.8482
-15.5719
-15.2669
-14.9359
-14.5807
-14.2029
-13.8038
-13.3845
-12.946
-12.4893
-12.0152
-11.5247
-11.0187
-10.4979
-9.96323
-9.41548
-8.8555
-8.28411
-7.70214
-7.11041
-6.50975
-5.90098
-5.28494
-4.66244
-4.03431
-3.40137
-2.76445
-2.12437
-1.48193
-0.837956
-0.193261
0.451355
1.09509
1.73716
2.37676
3.01313
3.64548
4.27306
4.89512
5.51091
6.11971
6.72079
7.31344
7.89699
8.47075
9.03407
9.5863
10.1268
10.655
11.1704
11.6722
12.1601
12.6335
13.0919
13.5348
13.9618
14.3724
14.7662
15.1427
15.5014
15.8414
16.1612
16.46
16.7372
16.9931
17.2277
17.4409
17.6326
17.8027
17.9511
18.0776
18.182
18.2644
18.3248
18.3632
18.3807
-11.6034
-11.9004
-12.1725
-12.4202
-12.6422
-12.8375
-13.0058
-13.1475
-13.263
-13.3528
-13.4171
-13.4561
-13.47
-13.4589
-13.4231
-13.3625
-13.2771
-13.1669
-13.0319
-12.8716
-12.685
-12.4707
-12.2323
-11.9815
-11.7223
-11.4499
-11.1623
-10.8584
-10.5379
-10.2007
-9.84722
-9.47782
-9.09306
-8.69353
-8.27983
-7.85263
-7.41257
-6.96033
-6.49657
-6.02198
-5.53723
-5.04301
-4.54
-4.02888
-3.51036
-2.98511
-2.45383
-1.91721
-1.37594
-0.830702
-0.282197
0.268891
0.821876
1.37608
1.93081
2.48539
3.03917
3.59145
4.14159
4.68892
5.23279
5.77254
6.30753
6.83714
7.36072
7.87767
8.38737
8.88922
9.38262
9.86698
10.3417
10.8062
11.26
11.7024
12.1329
12.551
12.9559
13.3473
13.7245
14.0868
14.4339
14.7652
15.0805
15.3802
15.6653
15.9361
16.1922
16.4325
16.6562
16.8629
17.0521
17.2237
17.3775
17.5132
17.6308
17.7302
17.8112
17.8739
17.9185
17.9441
-11.4538
-11.7126
-11.957
-12.1855
-12.3964
-12.5885
-12.7609
-12.9127
-13.0431
-13.1514
-13.2372
-13.3
-13.3394
-13.3553
-13.3476
-13.316
-13.2605
-13.1812
-13.0781
-12.9515
-12.8014
-12.6269
-12.427
-12.2029
-11.9567
-11.6896
-11.4029
-11.0973
-10.7737
-10.4327
-10.0752
-9.70168
-9.31295
-8.90964
-8.49241
-8.06194
-7.6189
-7.16397
-6.69781
-6.2211
-5.73454
-5.2388
-4.73458
-4.22255
-3.70341
-3.17786
-2.64658
-2.11027
-1.56962
-1.02533
-0.478083
0.0714286
0.622517
1.1745
1.72669
2.27841
2.82899
3.37776
3.92405
4.46722
5.0066
5.54156
6.07146
6.59568
7.1136
7.62461
8.12813
8.62355
9.11031
9.58785
10.0556
10.5131
10.9597
11.395
11.8184
12.2295
12.6279
13.0129
13.3844
13.7417
14.0846
14.4126
14.7254
15.0227
15.3043
15.5698
15.8188
16.051
16.2659
16.4633
16.6431
16.8051
16.9492
17.0752
17.1831
17.2729
17.3445
17.3981
17.4339
17.452
-10.1942
-10.3615
-10.5169
-10.6592
-10.787
-10.8992
-10.9951
-11.0737
-11.1345
-11.1771
-11.2011
-11.2062
-11.1922
-11.1591
-11.1069
-11.0357
-10.9455
-10.8366
-10.7093
-10.5641
-10.4012
-10.2211
-10.0244
-9.81168
-9.58323
-9.33916
-9.07962
-8.80484
-8.5151
-8.21073
-7.89214
-7.55975
-7.21404
-6.8555
-6.48464
-6.10201
-5.70816
-5.30363
-4.88901
-4.46486
-4.03179
-3.59036
-3.14119
-2.68487
-2.22199
-1.75318
-1.27902
-0.800145
-0.317151
0.169347
0.658738
1.15041
1.64376
2.13816
2.63302
3.12773
3.6217
4.11431
4.60497
5.0931
5.57811
6.05941
6.53643
7.00861
7.47538
7.93619
8.39049
8.83774
9.2774
9.70897
10.1319
10.5457
10.95
11.3441
11.7276
12.1002
12.4613
12.8105
13.1474
13.4716
13.7829
14.0808
14.3651
14.6357
14.8922
15.1343
15.3619
15.5746
15.772
15.9539
16.1201
16.2703
16.4043
16.522
16.6231
16.7077
16.7755
16.8265
16.8605
16.8774
-9.71837
-9.85316
-9.98151
-10.1007
-10.2092
-10.3055
-10.3885
-10.4573
-10.5111
-10.549
-10.5706
-10.5753
-10.5628
-10.5327
-10.4847
-10.4186
-10.3342
-10.2315
-10.1104
-9.97103
-9.81366
-9.63862
-9.44631
-9.23724
-9.01191
-8.77083
-8.51448
-8.24335
-7.95791
-7.65865
-7.34604
-7.02057
-6.68274
-6.33304
-5.97199
-5.6001
-5.2179
-4.82592
-4.4247
-4.01479
-3.59673
-3.17109
-2.73842
-2.2993
-1.85428
-1.40395
-0.948871
-0.489624
-0.0267854
0.439068
0.907358
1.37751
1.84894
2.32108
2.79336
3.26521
3.73605
4.20533
4.67249
5.13697
5.59822
6.05571
6.50888
6.95722
7.40019
7.83729
8.26801
8.69184
9.10829
9.5169
9.91718
10.3087
10.6909
11.0635
11.426
11.7781
12.1192
12.449
12.7672
13.0733
13.3672
13.6484
13.9166
14.1716
14.4131
14.6408
14.8545
15.054
15.2389
15.4091
15.5643
15.7045
15.8294
15.939
16.0331
16.1116
16.1745
16.2217
16.2532
16.2689
-8.87511
-8.96613
-9.04907
-9.12297
-9.1869
-9.24003
-9.28162
-9.311
-9.3276
-9.33092
-9.32053
-9.29611
-9.25739
-9.20417
-9.13633
-9.05383
-8.95665
-8.84488
-8.71859
-8.57778
-8.42251
-8.25289
-8.06911
-7.87137
-7.65991
-7.43496
-7.19682
-6.94575
-6.6821
-6.40618
-6.11837
-5.81903
-5.50858
-5.18742
-4.85598
-4.5147
-4.16405
-3.80447
-3.43645
-3.06047
-2.67701
-2.28659
-1.88969
-1.48682
-1.0785
-0.665247
-0.247575
0.173992
0.598931
1.02672
1.45682
1.88872
2.32189
2.7558
3.18992
3.62374
4.05674
4.48839
4.91818
5.34561
5.77016
6.19133
6.60863
7.02156
7.42965
7.83241
8.22937
8.62007
9.00405
9.38088
9.7501
10.1113
10.464
10.8079
11.1426
11.4676
11.7826
12.0873
12.3813
12.6642
12.9359
13.1959
13.4439
13.6799
13.9033
14.1141
14.312
14.4968
14.6681
14.8259
14.97
15.1001
15.2161
15.3179
15.4054
15.4785
15.537
15.581
15.6103
15.625
-8.28971
-8.35506
-8.41468
-8.46694
-8.51087
-8.54568
-8.57065
-8.58511
-8.58847
-8.58022
-8.55989
-8.52708
-8.48146
-8.42274
-8.35069
-8.26513
-8.16591
-8.05298
-7.92633
-7.78607
-7.63233
-7.46527
-7.28509
-7.09202
-6.88631
-6.66821
-6.43802
-6.19605
-5.9426
-5.67801
-5.40262
-5.1168
-4.82091
-4.51533
-4.20047
-3.87672
-3.54451
-3.20424
-2.85637
-2.50132
-2.13955
-1.7715
-1.39765
-1.01845
-0.634379
-0.245903
0.146499
0.542345
0.941155
1.34244
1.74573
2.15053
2.55635
2.96271
3.36912
3.77512
4.1802
4.58391
4.98575
5.38527
5.782
6.17546
6.56521
6.95079
7.33176
7.70767
8.0781
8.44261
8.80079
9.15223
9.49653
9.83328
10.1621
10.4827
10.7946
11.0974
11.391
11.6749
11.9487
12.2123
12.4653
12.7074
12.9384
13.1581
13.3661
13.5622
13.7463
13.9181
14.0774
14.2241
14.3579
14.4788
14.5866
14.6811
14.7624
14.8302
14.8846
14.9254
14.9526
14.9662
-7.63541
-7.6764
-7.71116
-7.73877
-7.75857
-7.77003
-7.77264
-7.76594
-7.7495
-7.72294
-7.68591
-7.63812
-7.57934
-7.50936
-7.42803
-7.33523
-7.2309
-7.11501
-6.98751
-6.8484
-6.69771
-6.53552
-6.36194
-6.1771
-5.98116
-5.77431
-5.55675
-5.32872
-5.09047
-4.84227
-4.58439
-4.31714
-4.04084
-3.75582
-3.46242
-3.16099
-2.85191
-2.53554
-2.21228
-1.88252
-1.54665
-1.20509
-0.858256
-0.506565
-0.150443
0.20968
0.57337
0.94019
1.3097
1.68146
2.05503
2.42996
2.8058
3.18212
3.55848
3.93441
4.3095
4.68329
5.05535
5.42525
5.79256
6.15685
6.5177
6.87469
7.22741
7.57545
7.91842
8.25592
8.58756
8.91297
9.23177
9.5436
9.84812
10.145
10.4338
10.7143
10.9862
11.2491
11.5028
11.747
11.9813
12.2056
12.4196
12.6231
12.8158
12.9976
13.1681
13.3273
13.475
13.6109
13.7349
13.847
13.9469
14.0346
14.1099
14.1728
14.2232
14.261
14.2863
14.2989
-7.0757
-7.09817
-7.11549
-7.12652
-7.13062
-7.12734
-7.11623
-7.09689
-7.06894
-7.03202
-6.98582
-6.93007
-6.86453
-6.789
-6.70329
-6.60728
-6.50088
-6.38402
-6.25669
-6.11891
-5.97073
-5.81222
-5.64349
-5.46466
-5.27587
-5.0773
-4.86913
-4.65158
-4.42486
-4.18921
-3.94489
-3.69217
-3.43133
-3.16266
-2.88648
-2.6031
-2.31286
-2.01608
-1.71312
-1.40433
-1.09007
-0.770718
-0.446645
-0.118233
0.214133
0.55006
0.889155
1.23102
1.57525
1.92145
2.26921
2.61813
2.9678
3.3178
3.66775
4.01723
4.36583
4.71316
5.05882
5.4024
5.74351
6.08176
6.41677
6.74815
7.07552
7.39851
7.71675
8.02988
8.33755
8.63941
8.93511
9.22433
9.50673
9.78201
10.0498
10.3099
10.562
10.8058
11.041
11.2673
11.4846
11.6925
11.8909
12.0795
12.2581
12.4265
12.5845
12.732
12.8688
12.9947
13.1096
13.2134
13.306
13.3872
13.457
13.5152
13.5619
13.5969
13.6203
13.632
-6.52643
-6.53336
-6.5353
-6.53134
-6.52096
-6.50382
-6.47959
-6.44796
-6.40864
-6.36135
-6.30587
-6.24197
-6.16947
-6.08821
-5.99806
-5.89892
-5.79072
-5.67339
-5.54691
-5.41127
-5.2665
-5.11264
-4.94977
-4.77797
-4.59735
-4.40806
-4.21025
-4.00408
-3.78975
-3.56746
-3.33742
-3.09988
-2.85508
-2.60327
-2.34473
-2.07973
-1.80859
-1.53158
-1.24902
-0.961241
-0.668555
-0.371299
-0.069811
0.235563
0.544475
0.85657
1.17149
1.48887
1.80836
2.12957
2.45215
2.77573
3.09993
3.42438
3.74871
4.07255
4.39553
4.71728
5.03744
5.35564
5.67151
5.98471
6.29487
6.60164
6.90468
7.20365
7.4982
7.788
8.07273
8.35207
8.6257
8.89332
9.15463
9.40933
9.65714
9.89779
10.131
10.3565
10.5741
10.7835
10.9845
11.1769
11.3604
11.5349
11.7001
11.8559
12.0021
12.1385
12.265
12.3815
12.4878
12.5838
12.6695
12.7446
12.8091
12.863
12.9062
12.9386
12.9602
12.9711
-6.0267
-6.02094
-6.01084
-5.99539
-5.97411
-5.94672
-5.91295
-5.87255
-5.82526
-5.77086
-5.70914
-5.63991
-5.56302
-5.47832
-5.3857
-5.28506
-5.17633
-5.05948
-4.93447
-4.80131
-4.66001
-4.51063
-4.35323
-4.18788
-4.01469
-3.83378
-3.64527
-3.44932
-3.2461
-3.03578
-2.81856
-2.59464
-2.36425
-2.12761
-1.88496
-1.63656
-1.38267
-1.12355
-0.859486
-0.590762
-0.317671
-0.0405121
0.240409
0.52478
0.812286
1.10261
1.39542
1.69039
1.98719
2.2855
2.58496
2.88526
3.18604
3.48697
3.78771
4.08793
4.38728
4.68543
4.98205
5.27679
5.56934
5.85936
6.14653
6.43052
6.71102
6.98771
7.26029
7.52845
7.79189
8.05032
8.30345
8.551
8.79269
9.02826
9.25744
9.47999
9.69565
9.90419
10.1054
10.299
10.4848
10.6627
10.8323
10.9936
11.1463
11.2903
11.4255
11.5516
11.6685
11.7762
11.8744
11.9632
12.0423
12.1117
12.1714
12.2212
12.2611
12.291
12.311
12.321
-5.55444
-5.53838
-5.51832
-5.49333
-5.46297
-5.42702
-5.38529
-5.33755
-5.28361
-5.22331
-5.15646
-5.08292
-5.00257
-4.9153
-4.821
-4.71962
-4.61108
-4.49535
-4.37241
-4.24226
-4.10492
-3.96041
-3.80879
-3.65014
-3.48453
-3.31206
-3.13285
-2.94704
-2.75475
-2.55616
-2.35143
-2.14074
-1.92429
-1.70227
-1.47491
-1.24242
-1.00505
-0.76302
-0.516592
-0.266019
-0.0115647
0.246502
0.507906
0.772367
1.0396
1.30931
1.58121
1.855
2.13039
2.40706
2.68472
2.96305
3.24176
3.52053
3.79906
4.07703
4.35414
4.63009
4.90456
5.17725
5.44787
5.7161
5.98166
6.24425
6.50358
6.75936
7.01131
7.25914
7.5026
7.7414
7.97529
8.204
8.42729
8.64491
8.85662
9.06218
9.26138
9.45398
9.63979
9.8186
9.99021
10.1544
10.3111
10.46
10.601
10.734
10.8588
10.9752
11.0832
11.1826
11.2733
11.3552
11.4283
11.4924
11.5474
11.5934
11.6302
11.6579
11.6763
11.6856
-5.11806
-5.09357
-5.06554
-5.03301
-4.99558
-4.95307
-4.9053
-4.85212
-4.79335
-4.72885
-4.65849
-4.58214
-4.4997
-4.41107
-4.31618
-4.21497
-4.10739
-3.99341
-3.87302
-3.74622
-3.61302
-3.47347
-3.32759
-3.17547
-3.01717
-2.85278
-2.6824
-2.50616
-2.32417
-2.13658
-1.94354
-1.7452
-1.54175
-1.33336
-1.12022
-0.902532
-0.680506
-0.454358
-0.224308
0.00941102
0.246564
0.486909
0.730198
0.976177
1.22459
1.47517
1.72766
1.98179
2.23729
2.49387
2.75128
3.00922
3.26742
3.5256
3.78348
4.04079
4.29723
4.55253
4.80641
5.0586
5.30882
5.55679
5.80225
6.04492
6.28455
6.52086
6.75361
6.98253
7.20738
7.42791
7.64388
7.85505
8.0612
8.2621
8.45752
8.64726
8.83111
9.00887
9.18035
9.34535
9.50371
9.65524
9.79979
9.93719
10.0673
10.19
10.3051
10.4125
10.5121
10.6038
10.6875
10.763
10.8304
10.8895
10.9403
10.9827
11.0167
11.0422
11.0592
11.0677
-4.71078
-4.67956
-4.64514
-4.60662
-4.56359
-4.51592
-4.46347
-4.40612
-4.34372
-4.27616
-4.20334
-4.12515
-4.04151
-3.95235
-3.85761
-3.75725
-3.65121
-3.53949
-3.42207
-3.29895
-3.17016
-3.03573
-2.89569
-2.75011
-2.59905
-2.44259
-2.28082
-2.11384
-1.94177
-1.76473
-1.58286
-1.39629
-1.20519
-1.00972
-0.810032
-0.606323
-0.398773
-0.187575
0.0270689
0.244954
0.465867
0.689589
0.915899
1.14457
1.37536
1.60805
1.84238
2.07813
2.31504
2.55286
2.79134
3.03024
3.2693
3.50827
3.74688
3.9849
4.22205
4.4581
4.69278
4.92584
5.15704
5.38612
5.61284
5.83695
6.05821
6.27638
6.49123
6.70252
6.91002
7.11352
7.31279
7.50762
7.69779
7.88309
8.06334
8.23834
8.40789
8.57181
8.72992
8.88207
9.02807
9.16777
9.30103
9.4277
9.54764
9.66072
9.76682
9.86582
9.95763
10.0421
10.1193
10.1889
10.251
10.3055
10.3523
10.3913
10.4227
10.4462
10.4619
10.4697
-4.33352
-4.2969
-4.25746
-4.21428
-4.16698
-4.11544
-4.05956
-3.99923
-3.93435
-3.86481
-3.79054
-3.71145
-3.62748
-3.53857
-3.44467
-3.34574
-3.24176
-3.13271
-3.01859
-2.89941
-2.77518
-2.64594
-2.51172
-2.37258
-2.22858
-2.07979
-1.92629
-1.76818
-1.60556
-1.43853
-1.26723
-1.09177
-0.912297
-0.728955
-0.541897
-0.351282
-0.157277
0.0399434
0.2402
0.443307
0.649073
0.857303
1.06779
1.28034
1.49474
1.71077
1.92822
2.14686
2.36648
2.58686
2.80776
3.02896
3.25023
3.47133
3.69205
3.91214
4.13138
4.34953
4.56637
4.78167
4.99519
5.20672
5.41603
5.62289
5.82709
6.0284
6.22662
6.42153
6.61292
6.80059
6.98434
7.16397
7.3393
7.51012
7.67627
7.83755
7.99381
8.14487
8.29057
8.43076
8.56528
8.69399
8.81675
8.93344
9.04392
9.14808
9.24581
9.337
9.42155
9.49938
9.5704
9.63454
9.69172
9.74189
9.78499
9.82098
9.84981
9.87146
9.88591
9.89313
-3.98334
-3.94253
-3.89921
-3.85249
-3.80199
-3.74762
-3.6893
-3.62695
-3.56048
-3.48982
-3.41489
-3.33563
-3.25198
-3.16392
-3.07139
-2.97438
-2.87286
-2.76682
-2.65627
-2.54122
-2.42168
-2.29769
-2.16928
-2.0365
-1.89942
-1.75809
-1.61258
-1.463
-1.30942
-1.15194
-0.990681
-0.825751
-0.657276
-0.485385
-0.310216
-0.131913
0.0493737
0.233488
0.420269
0.609549
0.801156
0.994914
1.19064
1.38815
1.58726
1.78777
1.98948
2.19221
2.39574
2.59989
2.80443
3.00917
3.2139
3.4184
3.62248
3.82592
4.02851
4.23005
4.43031
4.62911
4.82622
5.02145
5.21459
5.40544
5.59379
5.77946
5.96223
6.14194
6.31837
6.49135
6.66069
6.82623
6.98777
7.14515
7.2982
7.44677
7.59069
7.72981
7.86398
7.99307
8.11693
8.23543
8.34846
8.45588
8.55758
8.65347
8.74342
8.82736
8.90518
8.97681
9.04218
9.1012
9.15383
9.2
9.23966
9.27278
9.29931
9.31923
9.33253
9.33917
-3.65936
-3.61532
-3.56909
-3.51976
-3.46698
-3.41067
-3.35077
-3.28721
-3.21993
-3.14886
-3.07394
-2.99513
-2.91239
-2.82568
-2.73498
-2.64027
-2.54153
-2.43877
-2.33199
-2.22119
-2.10641
-1.98768
-1.86502
-1.73848
-1.60813
-1.47401
-1.3362
-1.19478
-1.04982
-0.901427
-0.749687
-0.59471
-0.436607
-0.275494
-0.111497
0.0552558
0.224628
0.396481
0.570666
0.747035
0.925433
1.1057
1.28767
1.47118
1.65606
1.84213
2.02923
2.21716
2.40575
2.59482
2.78417
2.97364
3.16301
3.35212
3.54076
3.72876
3.91591
4.10204
4.28694
4.47044
4.65234
4.83246
5.01062
5.18662
5.36029
5.53146
5.69993
5.86554
6.02811
6.18748
6.34348
6.49594
6.64471
6.78964
6.93056
7.06734
7.19983
7.32788
7.45138
7.57018
7.68417
7.79322
7.89722
7.99605
8.08963
8.17784
8.26059
8.3378
8.40939
8.47528
8.53541
8.5897
8.6381
8.68056
8.71704
8.7475
8.7719
8.79022
8.80245
8.80856
-3.35967
-3.31327
-3.26494
-3.21381
-3.15951
-3.10199
-3.04121
-2.97712
-2.90965
-2.83876
-2.7644
-2.68654
-2.60516
-2.52021
-2.43169
-2.33958
-2.24388
-2.14459
-2.04171
-1.93527
-1.82528
-1.71177
-1.59478
-1.47436
-1.35055
-1.22341
-1.093
-0.959394
-0.822669
-0.682907
-0.540197
-0.394634
-0.246319
-0.0953582
0.0581363
0.214048
0.372253
0.532626
0.695036
0.859346
1.02542
1.1931
1.36226
1.53274
1.70438
1.87703
2.05053
2.22472
2.39944
2.57451
2.74977
2.92506
3.10021
3.27503
3.44937
3.62305
3.7959
3.96775
4.13842
4.30775
4.47557
4.6417
4.80598
4.96825
5.12833
5.28607
5.4413
5.59386
5.74361
5.89038
6.03402
6.1744
6.31135
6.44475
6.57445
6.70032
6.82223
6.94006
7.05367
7.16296
7.26781
7.36811
7.46376
7.55466
7.64071
7.72182
7.79791
7.8689
7.93472
7.9953
8.05057
8.10048
8.14498
8.18401
8.21755
8.24554
8.26798
8.28482
8.29606
8.30167
-3.08299
-3.03493
-2.98519
-2.93291
-2.87774
-2.81963
-2.75856
-2.69448
-2.62735
-2.55713
-2.48378
-2.40729
-2.32762
-2.24476
-2.1587
-2.06943
-1.97694
-1.88126
-1.78238
-1.68032
-1.57511
-1.46678
-1.35535
-1.24088
-1.12341
-1.003
-0.879688
-0.753558
-0.624673
-0.493111
-0.358952
-0.222282
-0.0831949
0.0582145
0.201844
0.347589
0.495338
0.644976
0.796384
0.949441
1.10402
1.25999
1.41722
1.57557
1.73491
1.89509
2.05597
2.21741
2.37925
2.54135
2.70355
2.86571
3.02766
3.18926
3.35036
3.51079
3.6704
3.82904
3.98654
4.14277
4.29755
4.45075
4.6022
4.75176
4.89928
5.04461
5.1876
5.32811
5.466
5.60113
5.73336
5.86256
5.9886
6.11134
6.23068
6.34647
6.45861
6.56698
6.67146
6.77196
6.86837
6.96059
7.04852
7.13208
7.21118
7.28574
7.35568
7.42093
7.48142
7.53709
7.58788
7.63374
7.67463
7.7105
7.74131
7.76703
7.78764
7.80312
7.81344
7.8186
-2.82779
-2.77867
-2.72809
-2.67523
-2.61971
-2.56153
-2.50065
-2.43705
-2.37068
-2.30152
-2.22955
-2.15474
-2.07708
-1.99655
-1.91316
-1.8269
-1.73776
-1.64577
-1.55094
-1.45327
-1.3528
-1.24956
-1.14357
-1.03488
-0.92354
-0.80959
-0.693087
-0.574091
-0.452668
-0.328887
-0.202821
-0.074551
0.055841
0.188267
0.322634
0.458847
0.596806
0.736407
0.877541
1.0201
1.16397
1.30903
1.45516
1.60224
1.75015
1.89875
2.04792
2.19752
2.34743
2.4975
2.6476
2.7976
2.94735
3.09671
3.24555
3.39372
3.54109
3.68752
3.83285
3.97697
4.11971
4.26096
4.40056
4.53839
4.6743
4.80817
4.93986
5.06924
5.19618
5.32057
5.44226
5.56115
5.67711
5.79003
5.89979
6.00628
6.1094
6.20905
6.30511
6.3975
6.48612
6.57088
6.6517
6.72849
6.80118
6.86969
6.93395
6.99389
7.04947
7.10061
7.14727
7.1894
7.22696
7.25991
7.28821
7.31183
7.33076
7.34498
7.35446
7.3592
-2.59273
-2.54306
-2.49213
-2.43914
-2.38373
-2.32589
-2.2656
-2.20284
-2.13758
-2.0698
-1.99949
-1.92662
-1.85119
-1.77319
-1.69262
-1.60948
-1.52378
-1.43553
-1.34474
-1.25144
-1.15564
-1.05737
-0.956681
-0.853594
-0.748156
-0.640413
-0.530416
-0.418222
-0.30389
-0.187483
-0.0690699
0.0512769
0.173481
0.297464
0.42314
0.550423
0.679223
0.809444
0.940989
1.07376
1.20765
1.34256
1.47837
1.61498
1.75227
1.89012
2.02843
2.16707
2.30591
2.44485
2.58375
2.72249
2.86095
2.999
3.13651
3.27336
3.40942
3.54456
3.67866
3.81159
3.94322
4.07343
4.2021
4.3291
4.45431
4.5776
4.69887
4.81799
4.93484
5.04931
5.16129
5.27067
5.37734
5.4812
5.58214
5.68006
5.77487
5.86647
5.95477
6.03969
6.12113
6.19902
6.27328
6.34383
6.41061
6.47355
6.53258
6.58764
6.63868
6.68566
6.72851
6.7672
6.80169
6.83195
6.85793
6.87963
6.89701
6.91007
6.91877
6.92312
-2.37645
-2.32666
-2.27579
-2.22305
-2.16811
-2.11096
-2.05158
-1.98997
-1.9261
-1.85995
-1.79152
-1.72078
-1.64775
-1.57241
-1.49477
-1.41484
-1.33261
-1.2481
-1.16134
-1.07233
-0.981114
-0.887706
-0.792143
-0.694461
-0.5947
-0.492903
-0.389118
-0.283397
-0.175795
-0.0663706
0.0448131
0.15769
0.272191
0.388242
0.505768
0.624689
0.744922
0.866382
0.988981
1.11263
1.23723
1.36269
1.48891
1.61579
1.74322
1.87111
1.99935
2.12783
2.25644
2.38507
2.5136
2.64194
2.76996
2.89755
3.02459
3.15098
3.2766
3.40133
3.52505
3.64767
3.76905
3.88909
4.00767
4.12469
4.24003
4.35358
4.46524
4.5749
4.68246
4.7878
4.89083
4.99145
5.08957
5.18508
5.2779
5.36793
5.45509
5.53928
5.62044
5.69847
5.77331
5.84487
5.9131
5.97791
6.03925
6.09705
6.15127
6.20184
6.24871
6.29185
6.33119
6.36672
6.39839
6.42617
6.45003
6.46995
6.4859
6.49789
6.50588
6.50988
-2.17771
-2.12815
-2.07766
-2.0255
-1.97133
-1.91514
-1.85694
-1.79671
-1.73444
-1.67012
-1.60374
-1.53529
-1.46477
-1.39218
-1.31754
-1.24083
-1.16208
-1.08131
-0.998513
-0.913729
-0.826976
-0.738282
-0.647678
-0.555198
-0.460881
-0.364768
-0.266902
-0.167333
-0.066111
0.0367093
0.14107
0.246911
0.354169
0.462775
0.572662
0.683756
0.795983
0.909264
1.02352
1.13867
1.25462
1.3713
1.48861
1.60646
1.72475
1.8434
1.96231
2.08138
2.20051
2.3196
2.43856
2.55727
2.67565
2.79358
2.91096
3.0277
3.14368
3.2588
3.37297
3.48607
3.598
3.70866
3.81796
3.92578
4.03203
4.13661
4.23943
4.34038
4.43937
4.53631
4.63111
4.72368
4.81392
4.90175
4.9871
5.06987
5.14998
5.22737
5.30195
5.37366
5.44242
5.50817
5.57084
5.63037
5.68671
5.7398
5.78959
5.83603
5.87907
5.91867
5.9548
5.98742
6.01649
6.04199
6.06389
6.08218
6.09683
6.10783
6.11516
6.11883
-1.99528
-1.94624
-1.89641
-1.84508
-1.79192
-1.73692
-1.6801
-1.62145
-1.56095
-1.4986
-1.43439
-1.36832
-1.30039
-1.23062
-1.15899
-1.08553
-1.01024
-0.933138
-0.854245
-0.77358
-0.691167
-0.607032
-0.521207
-0.433722
-0.344615
-0.253924
-0.161691
-0.0679596
0.0272218
0.123803
0.221731
0.32095
0.421402
0.523025
0.625756
0.729529
0.834276
0.939925
1.0464
1.15364
1.26155
1.37006
1.47909
1.58856
1.69838
1.80846
1.91873
2.02909
2.13945
2.24973
2.35983
2.46966
2.57913
2.68815
2.79661
2.90444
3.01154
3.11781
3.22316
3.32749
3.43072
3.53275
3.63349
3.73285
3.83073
3.92706
4.02173
4.11468
4.20579
4.29501
4.38223
4.46739
4.55039
4.63117
4.70964
4.78574
4.85938
4.93051
4.99906
5.06495
5.12812
5.18853
5.2461
5.30078
5.35253
5.40129
5.44701
5.48965
5.52917
5.56553
5.5987
5.62864
5.65533
5.67874
5.69885
5.71564
5.72908
5.73918
5.74591
5.74928
-1.82802
-1.77974
-1.73079
-1.68049
-1.62853
-1.57491
-1.51963
-1.46269
-1.40408
-1.3438
-1.28185
-1.21823
-1.15295
-1.086
-1.01739
-0.947148
-0.875272
-0.801783
-0.726697
-0.650037
-0.571825
-0.492088
-0.410853
-0.328153
-0.244022
-0.158495
-0.0716114
0.0165867
0.106055
0.196748
0.288616
0.381608
0.47567
0.570747
0.666779
0.763707
0.861468
0.959999
1.05923
1.1591
1.25953
1.36046
1.4618
1.56349
1.66545
1.76761
1.86987
1.97218
2.07443
2.17656
2.27847
2.3801
2.48135
2.58214
2.68239
2.782
2.88091
2.97902
3.07625
3.17251
3.26772
3.36181
3.45467
3.54624
3.63643
3.72517
3.81236
3.89793
3.98182
4.06393
4.14419
4.22253
4.29889
4.37318
4.44534
4.51531
4.58302
4.6484
4.71139
4.77195
4.83
4.88549
4.93838
4.98862
5.03615
5.08093
5.12291
5.16207
5.19836
5.23175
5.2622
5.2897
5.3142
5.33569
5.35415
5.36955
5.3819
5.39116
5.39735
5.40044
-1.67482
-1.6275
-1.57961
-1.53051
-1.4799
-1.42778
-1.37416
-1.31904
-1.26241
-1.20428
-1.14464
-1.0835
-1.02087
-0.956746
-0.891143
-0.824072
-0.755546
-0.685583
-0.6142
-0.541418
-0.467259
-0.391749
-0.314916
-0.236789
-0.157399
-0.0767823
0.00502606
0.0879869
0.172059
0.2572
0.343365
0.430505
0.518572
0.607514
0.697279
0.787811
0.879053
0.970946
1.06343
1.15644
1.24992
1.3438
1.43801
1.53249
1.62717
1.72198
1.81684
1.91169
2.00645
2.10104
2.1954
2.28945
2.38312
2.47632
2.56899
2.66104
2.7524
2.84299
2.93274
3.02158
3.10941
3.19618
3.28181
3.36622
3.44933
3.53108
3.6114
3.69021
3.76744
3.84302
3.91689
3.98899
4.05923
4.12757
4.19394
4.25829
4.32054
4.38064
4.43855
4.4942
4.54755
4.59855
4.64714
4.69329
4.73695
4.77808
4.81665
4.85261
4.88594
4.9166
4.94456
4.9698
4.9923
5.01203
5.02898
5.04312
5.05445
5.06296
5.06864
5.07147
-1.53465
-1.48844
-1.44175
-1.39398
-1.34483
-1.29432
-1.24244
-1.18921
-1.13463
-1.07868
-1.02138
-0.962737
-0.902748
-0.841425
-0.778778
-0.714821
-0.649566
-0.583031
-0.515234
-0.446195
-0.375935
-0.30448
-0.231856
-0.15809
-0.0832127
-0.0072567
0.0697441
0.147754
0.226734
0.306645
0.387446
0.469091
0.551537
0.634736
0.71864
0.803197
0.888356
0.974063
1.06026
1.1469
1.23392
1.32125
1.40885
1.49664
1.58457
1.67258
1.76059
1.84854
1.93637
2.02401
2.1114
2.19846
2.28512
2.37133
2.45701
2.54208
2.6265
2.71017
2.79304
2.87504
2.95609
3.03614
3.1151
3.19293
3.26954
3.34488
3.41887
3.49147
3.56259
3.63218
3.70019
3.76654
3.83118
3.89406
3.95511
4.01429
4.07154
4.12681
4.18005
4.23121
4.28024
4.32711
4.37177
4.41417
4.45429
4.49208
4.5275
4.56054
4.59115
4.61931
4.64499
4.66817
4.68883
4.70695
4.72251
4.7355
4.7459
4.75371
4.75892
4.76153
-1.40653
-1.36155
-1.31617
-1.26982
-1.22223
-1.17339
-1.12332
-1.07203
-1.01951
-0.965771
-0.910814
-0.854647
-0.797276
-0.73871
-0.678962
-0.618043
-0.555969
-0.492754
-0.428419
-0.362981
-0.296463
-0.228887
-0.16028
-0.0906662
-0.0200757
0.0514618
0.123914
0.197248
0.271428
0.346417
0.422177
0.498667
0.575846
0.65367
0.732095
0.811074
0.890561
0.970505
1.05086
1.13157
1.21258
1.29384
1.3753
1.4569
1.53858
1.62028
1.70195
1.78353
1.86496
1.94618
2.02712
2.10773
2.18795
2.2677
2.34694
2.42559
2.50361
2.58091
2.65745
2.73315
2.80797
2.88183
2.95468
3.02645
3.09709
3.16654
3.23473
3.30162
3.36713
3.43123
3.49385
3.55493
3.61443
3.6723
3.72848
3.78293
3.83559
3.88642
3.93538
3.98242
4.0275
4.07059
4.11163
4.15061
4.18747
4.2222
4.25475
4.2851
4.31322
4.33909
4.36268
4.38398
4.40295
4.41959
4.43389
4.44581
4.45537
4.46254
4.46733
4.46972
-1.28954
-1.24588
-1.20189
-1.15704
-1.11105
-1.06393
-1.0157
-0.966373
-0.915937
-0.864402
-0.811772
-0.758055
-0.703259
-0.647395
-0.590473
-0.532508
-0.473513
-0.413505
-0.352501
-0.29052
-0.227582
-0.163711
-0.0989297
-0.0332633
0.0332612
0.100616
0.16877
0.237693
0.307352
0.377712
0.448739
0.520395
0.59264
0.665437
0.738744
0.812517
0.886715
0.961292
1.0362
1.1114
1.18683
1.26246
1.33822
1.41408
1.48997
1.56585
1.64166
1.71735
1.79286
1.86814
1.94314
2.0178
2.09207
2.16588
2.23918
2.31192
2.38404
2.45548
2.5262
2.59612
2.6652
2.73337
2.8006
2.86681
2.93197
2.996
3.05887
3.12051
3.18089
3.23994
3.29761
3.35387
3.40866
3.46193
3.51364
3.56374
3.6122
3.65897
3.704
3.74727
3.78873
3.82835
3.86609
3.90192
3.93581
3.96773
3.99765
4.02555
4.05139
4.07516
4.09684
4.1164
4.13384
4.14912
4.16225
4.17321
4.18199
4.18858
4.19298
4.19517
-1.18282
-1.14055
-1.098
-1.05469
-1.01034
-0.964973
-0.918604
-0.871237
-0.822876
-0.773524
-0.72319
-0.671881
-0.619605
-0.566374
-0.512199
-0.457093
-0.401071
-0.344148
-0.286342
-0.22767
-0.168153
-0.107812
-0.0466698
0.0152505
0.0779234
0.141322
0.205419
0.270185
0.33559
0.401601
0.468186
0.535311
0.602939
0.671036
0.739562
0.80848
0.877749
0.947328
1.01718
1.08725
1.15751
1.2279
1.29839
1.36892
1.43945
1.50993
1.58032
1.65057
1.72062
1.79042
1.85994
1.92911
1.99788
2.06622
2.13406
2.20135
2.26804
2.33409
2.39944
2.46405
2.52785
2.59081
2.65286
2.71397
2.77409
2.83316
2.89113
2.94797
3.00362
3.05804
3.11119
3.16301
3.21348
3.26254
3.31015
3.35628
3.40088
3.44392
3.48537
3.52518
3.56332
3.59977
3.63448
3.66743
3.6986
3.72795
3.75546
3.7811
3.80486
3.82671
3.84664
3.86462
3.88064
3.89469
3.90676
3.91683
3.9249
3.93095
3.93499
3.93701
-1.08555
-1.04472
-1.00365
-0.961899
-0.919215
-0.875607
-0.831093
-0.78568
-0.739371
-0.692172
-0.64409
-0.595134
-0.545314
-0.494639
-0.443123
-0.390777
-0.337615
-0.283655
-0.22891
-0.173401
-0.117145
-0.0601626
-0.00247514
0.0558948
0.114924
0.174586
0.234857
0.295709
0.357113
0.41904
0.481459
0.54434
0.607649
0.671353
0.735417
0.799806
0.864483
0.929411
0.994551
1.05986
1.12531
1.19085
1.25644
1.32205
1.38761
1.45311
1.51848
1.58369
1.6487
1.71344
1.7779
1.84201
1.90572
1.96901
2.03181
2.09409
2.15579
2.21688
2.2773
2.33701
2.39597
2.45412
2.51143
2.56785
2.62334
2.67785
2.73134
2.78376
2.83509
2.88526
2.93425
2.98201
3.02851
3.07371
3.11757
3.16005
3.20113
3.24076
3.27891
3.31556
3.35066
3.3842
3.41614
3.44646
3.47513
3.50213
3.52743
3.55102
3.57287
3.59296
3.61128
3.62782
3.64255
3.65547
3.66656
3.67582
3.68324
3.6888
3.69252
3.69437
-0.996979
-0.957606
-0.918046
-0.877868
-0.836849
-0.794993
-0.75232
-0.708836
-0.664546
-0.619457
-0.573575
-0.52691
-0.479472
-0.431271
-0.382319
-0.332629
-0.282214
-0.23109
-0.179272
-0.126778
-0.0736254
-0.0198334
0.0345778
0.089587
0.145172
0.201309
0.257975
0.315143
0.372788
0.430883
0.489398
0.548306
0.607576
0.667176
0.727076
0.787243
0.847642
0.908241
0.969003
1.02989
1.09088
1.15191
1.21297
1.274
1.33498
1.39585
1.45659
1.51715
1.57749
1.63757
1.69735
1.75679
1.81585
1.87448
1.93265
1.9903
2.04741
2.10393
2.15982
2.21503
2.26953
2.32328
2.37623
2.42834
2.47958
2.5299
2.57927
2.62765
2.675
2.72128
2.76646
2.8105
2.85337
2.89502
2.93544
2.97459
3.01243
3.04893
3.08407
3.11782
3.15014
3.18102
3.21042
3.23833
3.26472
3.28956
3.31284
3.33455
3.35465
3.37314
3.38999
3.4052
3.41875
3.43064
3.44084
3.44935
3.45617
3.46129
3.46471
3.46642
-0.916398
-0.878499
-0.840446
-0.801843
-0.762478
-0.722357
-0.681498
-0.63991
-0.597596
-0.554565
-0.510823
-0.46638
-0.421245
-0.37543
-0.328946
-0.281805
-0.234021
-0.185608
-0.136581
-0.0869576
-0.0367539
0.0140117
0.0653203
0.117152
0.169485
0.222299
0.275571
0.329276
0.383392
0.437892
0.49275
0.54794
0.603433
0.659202
0.715217
0.771448
0.827864
0.884434
0.941127
0.997909
1.05475
1.11161
1.16846
1.22526
1.28198
1.33858
1.39503
1.45129
1.50733
1.5631
1.61857
1.6737
1.72846
1.7828
1.8367
1.8901
1.94298
1.9953
2.04702
2.0981
2.1485
2.19819
2.24713
2.29529
2.34263
2.38911
2.4347
2.47936
2.52306
2.56577
2.60746
2.64809
2.68762
2.72604
2.7633
2.79939
2.83427
2.86791
2.90029
2.93138
2.96115
2.98959
3.01668
3.04238
3.06667
3.08955
3.11098
3.13096
3.14947
3.16648
3.182
3.19599
3.20847
3.2194
3.22879
3.23663
3.2429
3.24761
3.25075
3.25233
-0.843147
-0.806721
-0.77017
-0.733128
-0.695398
-0.656984
-0.617905
-0.57817
-0.537782
-0.49675
-0.455082
-0.412787
-0.369874
-0.326353
-0.282237
-0.237538
-0.192268
-0.146441
-0.100073
-0.0531775
-0.00577218
0.0421262
0.0904997
0.13933
0.188596
0.23828
0.288358
0.33881
0.389613
0.440743
0.492177
0.543889
0.595854
0.648045
0.700436
0.753
0.805708
0.858531
0.91144
0.964405
1.0174
1.07038
1.12333
1.17622
1.229
1.28165
1.33413
1.38642
1.43848
1.49027
1.54176
1.59292
1.64372
1.69411
1.74407
1.79356
1.84254
1.89099
1.93887
1.98615
2.03278
2.07875
2.12401
2.16853
2.21229
2.25524
2.29736
2.33862
2.37898
2.41841
2.45689
2.49439
2.53087
2.56632
2.60069
2.63398
2.66614
2.69716
2.72701
2.75567
2.78311
2.80932
2.83428
2.85796
2.88034
2.90141
2.92116
2.93956
2.9566
2.97227
2.98656
2.99945
3.01093
3.021
3.02964
3.03686
3.04264
3.04697
3.04987
3.05131
-0.776613
-0.741651
-0.706585
-0.671082
-0.634957
-0.598216
-0.560875
-0.522944
-0.484426
-0.445331
-0.405666
-0.36544
-0.324663
-0.283345
-0.241498
-0.199132
-0.156261
-0.112897
-0.0690557
-0.0247506
0.0200025
0.0651875
0.110787
0.156785
0.203161
0.249898
0.296974
0.344371
0.392067
0.44004
0.488268
0.536728
0.585396
0.634249
0.683261
0.732408
0.781663
0.831
0.880392
0.929812
0.979233
1.02863
1.07796
1.12721
1.17635
1.22534
1.27416
1.32278
1.37116
1.41927
1.46709
1.51459
1.56173
1.60848
1.65481
1.70069
1.7461
1.79099
1.83534
1.87911
1.92229
1.96483
2.00671
2.04789
2.08836
2.12807
2.16701
2.20514
2.24243
2.27886
2.3144
2.34903
2.38271
2.41543
2.44716
2.47787
2.50755
2.53616
2.5637
2.59013