/*--------------------------------*- C++ -*----------------------------------*\
  =========                 |
  \\      /  F ield         | OpenFOAM: The Open Source CFD Toolbox
   \\    /   O peration     | Website:  https://openfoam.org
    \\  /    A nd           | Version:  9
     \\/     M anipulation  |
\*---------------------------------------------------------------------------*/
FoamFile
{
    format      ascii;
    class       volScalarField;
    location    "0.005";
    object      nut;
}
// * * * * * * * * * * * * * * * * * * * * * * * * * * * * * * * * * * * * * //

dimensions      [0 2 -1 0 0 0 0];

internalField   nonuniform List<scalar> 
7168
(
0.0140311
0.0140667
0.0140374
0.0140374
0.0140374
0.0140374
0.0140374
0.0140374
0.0140374
0.0140374
0.0140375
0.0140375
0.0140375
0.0140375
0.0140375
0.0140375
0.0140375
0.0140375
0.0140375
0.0140375
0.0140375
0.0140375
0.0140375
0.0140375
0.0140375
0.0140376
0.0140376
0.0140376
0.0140376
0.0140376
0.0140376
0.0140376
0.0140376
0.0140376
0.0140376
0.0140376
0.0140376
0.0140376
0.0140377
0.0140377
0.0140377
0.0140377
0.0140377
0.0140377
0.0140377
0.0140377
0.0140377
0.0140377
0.0140377
0.0140377
0.0140377
0.0140377
0.0140378
0.0140378
0.0140378
0.0140378
0.0140378
0.0140378
0.0140378
0.0140378
0.0140378
0.0140378
0.0140378
0.0140378
0.0140378
0.0140379
0.0140379
0.0140379
0.0140379
0.0140379
0.0140379
0.0140379
0.0140379
0.0140379
0.0140379
0.0140379
0.0140379
0.0140379
0.014038
0.014038
0.014038
0.014038
0.014038
0.014038
0.014038
0.014038
0.014038
0.014038
0.014038
0.014038
0.014038
0.0140381
0.0140381
0.0140667
0.0140666
0.0140666
0.0140666
0.0140665
0.0140665
0.0140664
0.0140664
0.0140663
0.0140663
0.0140663
0.0140662
0.0140662
0.0140661
0.0140661
0.0140661
0.014066
0.014066
0.0140659
0.0140659
0.0140658
0.0140658
0.0140658
0.0140657
0.0140657
0.0140656
0.0140656
0.0140655
0.0140655
0.0140655
0.0140654
0.0140654
0.0140653
0.0140653
0.0140653
0.0140652
0.0140652
0.0140651
0.0140651
0.014065
0.014065
0.014065
0.0140649
0.0140649
0.0140648
0.0140648
0.0140647
0.0140647
0.0140647
0.0140646
0.0140646
0.0140645
0.0140645
0.0140645
0.0140644
0.0140644
0.0140643
0.0140643
0.0140642
0.0140642
0.0140642
0.0140641
0.0140641
0.014064
0.014064
0.0140639
0.0140639
0.0140639
0.0140638
0.0140638
0.0140637
0.0140637
0.0140636
0.0140636
0.0140635
0.0140635
0.0140635
0.0140634
0.0140634
0.0140633
0.0140633
0.0140632
0.0140632
0.0140632
0.0140631
0.0140631
0.014063
0.014063
0.0140629
0.0140629
0.014031
0.014031
0.014031
0.0140309
0.0140309
0.0140309
0.0140308
0.0140308
0.0140308
0.0140308
0.0140307
0.0140307
0.0140307
0.0140306
0.0140306
0.0140306
0.0140305
0.0140305
0.0140305
0.0140304
0.0140304
0.0140304
0.0140304
0.0140303
0.0140303
0.0140303
0.0140302
0.0140302
0.0140302
0.0140301
0.0140301
0.0140301
0.01403
0.01403
0.01403
0.01403
0.0140299
0.0140299
0.0140299
0.0140298
0.0140298
0.0140298
0.0140297
0.0140297
0.0140297
0.0140296
0.0140296
0.0140296
0.0140295
0.0140295
0.0140295
0.0140294
0.0140294
0.0140294
0.0140294
0.0140293
0.0140293
0.0140293
0.0140292
0.0140292
0.0140292
0.0140291
0.0140291
0.0140291
0.014029
0.014029
0.014029
0.0140289
0.0140289
0.0140289
0.0140288
0.0140288
0.0140288
0.0140287
0.0140287
0.0140287
0.0140286
0.0140286
0.0140286
0.0140285
0.0140285
0.0140285
0.0140285
0.0140284
0.0140284
0.0140284
0.0140283
0.0140283
0.0140283
0.0140282
0.0140065
0.0140065
0.0140064
0.0140064
0.0140064
0.0140064
0.0140063
0.0140063
0.0140063
0.0140063
0.0140062
0.0140062
0.0140062
0.0140062
0.0140061
0.0140061
0.0140061
0.0140061
0.014006
0.014006
0.014006
0.014006
0.0140059
0.0140059
0.0140059
0.0140058
0.0140058
0.0140058
0.0140058
0.0140057
0.0140057
0.0140057
0.0140057
0.0140056
0.0140056
0.0140056
0.0140055
0.0140055
0.0140055
0.0140055
0.0140054
0.0140054
0.0140054
0.0140054
0.0140053
0.0140053
0.0140053
0.0140052
0.0140052
0.0140052
0.0140052
0.0140051
0.0140051
0.0140051
0.0140051
0.014005
0.014005
0.014005
0.0140049
0.0140049
0.0140049
0.0140049
0.0140048
0.0140048
0.0140048
0.0140047
0.0140047
0.0140047
0.0140047
0.0140046
0.0140046
0.0140046
0.0140045
0.0140045
0.0140045
0.0140045
0.0140044
0.0140044
0.0140044
0.0140043
0.0140043
0.0140043
0.0140043
0.0140042
0.0140042
0.0140042
0.0140041
0.0140041
0.0140041
0.014004
0.0139713
0.0139713
0.0139713
0.0139712
0.0139712
0.0139712
0.0139712
0.0139711
0.0139711
0.0139711
0.013971
0.013971
0.013971
0.0139709
0.0139709
0.0139709
0.0139708
0.0139708
0.0139708
0.0139708
0.0139707
0.0139707
0.0139707
0.0139706
0.0139706
0.0139706
0.0139705
0.0139705
0.0139705
0.0139704
0.0139704
0.0139704
0.0139703
0.0139703
0.0139703
0.0139702
0.0139702
0.0139702
0.0139701
0.0139701
0.0139701
0.0139701
0.01397
0.01397
0.01397
0.0139699
0.0139699
0.0139699
0.0139698
0.0139698
0.0139698
0.0139697
0.0139697
0.0139697
0.0139696
0.0139696
0.0139696
0.0139695
0.0139695
0.0139695
0.0139694
0.0139694
0.0139694
0.0139693
0.0139693
0.0139693
0.0139692
0.0139692
0.0139692
0.0139691
0.0139691
0.0139691
0.013969
0.013969
0.0139689
0.0139689
0.0139689
0.0139688
0.0139688
0.0139688
0.0139687
0.0139687
0.0139687
0.0139686
0.0139686
0.0139686
0.0139685
0.0139685
0.0139685
0.0139684
0.0139505
0.0139505
0.0139505
0.0139505
0.0139504
0.0139504
0.0139504
0.0139503
0.0139503
0.0139503
0.0139502
0.0139502
0.0139502
0.0139501
0.0139501
0.0139501
0.01395
0.01395
0.01395
0.0139499
0.0139499
0.0139499
0.0139498
0.0139498
0.0139498
0.0139497
0.0139497
0.0139497
0.0139496
0.0139496
0.0139496
0.0139495
0.0139495
0.0139495
0.0139494
0.0139494
0.0139493
0.0139493
0.0139493
0.0139492
0.0139492
0.0139492
0.0139491
0.0139491
0.0139491
0.013949
0.013949
0.013949
0.0139489
0.0139489
0.0139489
0.0139488
0.0139488
0.0139488
0.0139487
0.0139487
0.0139486
0.0139486
0.0139486
0.0139485
0.0139485
0.0139485
0.0139484
0.0139484
0.0139484
0.0139483
0.0139483
0.0139483
0.0139482
0.0139482
0.0139481
0.0139481
0.0139481
0.013948
0.013948
0.013948
0.0139479
0.0139479
0.0139479
0.0139478
0.0139478
0.0139477
0.0139477
0.0139477
0.0139476
0.0139476
0.0139476
0.0139475
0.0139475
0.0139475
0.013936
0.013936
0.013936
0.013936
0.013936
0.013936
0.013936
0.013936
0.013936
0.013936
0.0139359
0.0139359
0.0139359
0.0139359
0.0139359
0.0139359
0.0139359
0.0139359
0.0139359
0.0139359
0.0139358
0.0139358
0.0139358
0.0139358
0.0139358
0.0139358
0.0139358
0.0139358
0.0139358
0.0139358
0.0139357
0.0139357
0.0139357
0.0139357
0.0139357
0.0139357
0.0139357
0.0139357
0.0139357
0.0139356
0.0139356
0.0139356
0.0139356
0.0139356
0.0139356
0.0139356
0.0139356
0.0139356
0.0139355
0.0139355
0.0139355
0.0139355
0.0139355
0.0139355
0.0139355
0.0139355
0.0139354
0.0139354
0.0139354
0.0139354
0.0139354
0.0139354
0.0139354
0.0139353
0.0139353
0.0139353
0.0139353
0.0139353
0.0139353
0.0139353
0.0139352
0.0139352
0.0139352
0.0139352
0.0139352
0.0139352
0.0139352
0.0139351
0.0139351
0.0139351
0.0139351
0.0139351
0.0139351
0.0139351
0.013935
0.013935
0.013935
0.013935
0.013935
0.0139168
0.0139168
0.0139168
0.0139168
0.0139168
0.0139168
0.0139168
0.0139168
0.0139167
0.0139167
0.0139167
0.0139167
0.0139167
0.0139167
0.0139167
0.0139167
0.0139167
0.0139167
0.0139167
0.0139167
0.0139167
0.0139166
0.0139166
0.0139166
0.0139166
0.0139166
0.0139166
0.0139166
0.0139166
0.0139166
0.0139166
0.0139166
0.0139165
0.0139165
0.0139165
0.0139165
0.0139165
0.0139165
0.0139165
0.0139165
0.0139165
0.0139164
0.0139164
0.0139164
0.0139164
0.0139164
0.0139164
0.0139164
0.0139164
0.0139164
0.0139163
0.0139163
0.0139163
0.0139163
0.0139163
0.0139163
0.0139163
0.0139162
0.0139162
0.0139162
0.0139162
0.0139162
0.0139162
0.0139162
0.0139162
0.0139161
0.0139161
0.0139161
0.0139161
0.0139161
0.0139161
0.0139161
0.013916
0.013916
0.013916
0.013916
0.013916
0.013916
0.013916
0.0139159
0.0139159
0.0139159
0.0139159
0.0139159
0.0139159
0.0139158
0.0139158
0.0139158
0.0139158
0.0138955
0.0138955
0.0138955
0.0138955
0.0138956
0.0138956
0.0138956
0.0138956
0.0138956
0.0138956
0.0138957
0.0138957
0.0138957
0.0138957
0.0138957
0.0138958
0.0138958
0.0138958
0.0138958
0.0138959
0.0138959
0.0138959
0.0138959
0.0138959
0.013896
0.013896
0.013896
0.013896
0.013896
0.0138961
0.0138961
0.0138961
0.0138961
0.0138961
0.0138962
0.0138962
0.0138962
0.0138962
0.0138962
0.0138963
0.0138963
0.0138963
0.0138963
0.0138963
0.0138964
0.0138964
0.0138964
0.0138964
0.0138964
0.0138965
0.0138965
0.0138965
0.0138965
0.0138965
0.0138966
0.0138966
0.0138966
0.0138966
0.0138966
0.0138967
0.0138967
0.0138967
0.0138967
0.0138967
0.0138968
0.0138968
0.0138968
0.0138968
0.0138968
0.0138968
0.0138969
0.0138969
0.0138969
0.0138969
0.0138969
0.013897
0.013897
0.013897
0.013897
0.013897
0.013897
0.0138971
0.0138971
0.0138971
0.0138971
0.0138971
0.0138971
0.0138972
0.0138972
0.0138757
0.0138758
0.0138758
0.0138758
0.0138758
0.0138758
0.0138759
0.0138759
0.0138759
0.0138759
0.0138759
0.013876
0.013876
0.013876
0.013876
0.0138761
0.0138761
0.0138761
0.0138761
0.0138762
0.0138762
0.0138762
0.0138762
0.0138763
0.0138763
0.0138763
0.0138763
0.0138764
0.0138764
0.0138764
0.0138764
0.0138765
0.0138765
0.0138765
0.0138765
0.0138766
0.0138766
0.0138766
0.0138766
0.0138767
0.0138767
0.0138767
0.0138767
0.0138768
0.0138768
0.0138768
0.0138768
0.0138769
0.0138769
0.0138769
0.0138769
0.013877
0.013877
0.013877
0.013877
0.013877
0.0138771
0.0138771
0.0138771
0.0138771
0.0138772
0.0138772
0.0138772
0.0138772
0.0138772
0.0138773
0.0138773
0.0138773
0.0138773
0.0138774
0.0138774
0.0138774
0.0138774
0.0138774
0.0138775
0.0138775
0.0138775
0.0138775
0.0138776
0.0138776
0.0138776
0.0138776
0.0138776
0.0138777
0.0138777
0.0138777
0.0138777
0.0138777
0.0138778
0.0138547
0.0138547
0.0138547
0.0138547
0.0138548
0.0138548
0.0138548
0.0138548
0.0138549
0.0138549
0.0138549
0.0138549
0.013855
0.013855
0.013855
0.0138551
0.0138551
0.0138551
0.0138551
0.0138552
0.0138552
0.0138552
0.0138553
0.0138553
0.0138553
0.0138553
0.0138554
0.0138554
0.0138554
0.0138555
0.0138555
0.0138555
0.0138555
0.0138556
0.0138556
0.0138556
0.0138556
0.0138557
0.0138557
0.0138557
0.0138558
0.0138558
0.0138558
0.0138558
0.0138559
0.0138559
0.0138559
0.0138559
0.013856
0.013856
0.013856
0.0138561
0.0138561
0.0138561
0.0138561
0.0138562
0.0138562
0.0138562
0.0138562
0.0138563
0.0138563
0.0138563
0.0138563
0.0138564
0.0138564
0.0138564
0.0138564
0.0138565
0.0138565
0.0138565
0.0138566
0.0138566
0.0138566
0.0138566
0.0138567
0.0138567
0.0138567
0.0138567
0.0138567
0.0138568
0.0138568
0.0138568
0.0138568
0.0138569
0.0138569
0.0138569
0.0138569
0.013857
0.0138328
0.0138328
0.0138328
0.0138329
0.0138329
0.0138329
0.0138329
0.013833
0.013833
0.013833
0.0138331
0.0138331
0.0138331
0.0138332
0.0138332
0.0138332
0.0138333
0.0138333
0.0138333
0.0138334
0.0138334
0.0138334
0.0138335
0.0138335
0.0138335
0.0138336
0.0138336
0.0138336
0.0138337
0.0138337
0.0138337
0.0138338
0.0138338
0.0138338
0.0138338
0.0138339
0.0138339
0.0138339
0.013834
0.013834
0.013834
0.0138341
0.0138341
0.0138341
0.0138342
0.0138342
0.0138342
0.0138343
0.0138343
0.0138343
0.0138343
0.0138344
0.0138344
0.0138344
0.0138345
0.0138345
0.0138345
0.0138346
0.0138346
0.0138346
0.0138347
0.0138347
0.0138347
0.0138347
0.0138348
0.0138348
0.0138348
0.0138349
0.0138349
0.0138349
0.0138349
0.013835
0.013835
0.013835
0.0138351
0.0138351
0.0138351
0.0138351
0.0138352
0.0138352
0.0138352
0.0138353
0.0138353
0.0138353
0.0138353
0.0138354
0.0138354
0.0138354
0.0138097
0.0138097
0.0138097
0.0138097
0.0138098
0.0138098
0.0138098
0.0138099
0.0138099
0.0138099
0.01381
0.01381
0.0138101
0.0138101
0.0138101
0.0138102
0.0138102
0.0138102
0.0138103
0.0138103
0.0138104
0.0138104
0.0138104
0.0138105
0.0138105
0.0138106
0.0138106
0.0138106
0.0138107
0.0138107
0.0138107
0.0138108
0.0138108
0.0138109
0.0138109
0.0138109
0.013811
0.013811
0.013811
0.0138111
0.0138111
0.0138111
0.0138112
0.0138112
0.0138113
0.0138113
0.0138113
0.0138114
0.0138114
0.0138114
0.0138115
0.0138115
0.0138115
0.0138116
0.0138116
0.0138116
0.0138117
0.0138117
0.0138118
0.0138118
0.0138118
0.0138119
0.0138119
0.0138119
0.013812
0.013812
0.013812
0.0138121
0.0138121
0.0138121
0.0138122
0.0138122
0.0138122
0.0138123
0.0138123
0.0138123
0.0138124
0.0138124
0.0138124
0.0138125
0.0138125
0.0138125
0.0138125
0.0138126
0.0138126
0.0138126
0.0138127
0.0138127
0.0137853
0.0137853
0.0137854
0.0137854
0.0137854
0.0137855
0.0137855
0.0137856
0.0137856
0.0137856
0.0137857
0.0137857
0.0137858
0.0137858
0.0137859
0.0137859
0.0137859
0.013786
0.013786
0.0137861
0.0137861
0.0137862
0.0137862
0.0137863
0.0137863
0.0137863
0.0137864
0.0137864
0.0137865
0.0137865
0.0137866
0.0137866
0.0137866
0.0137867
0.0137867
0.0137868
0.0137868
0.0137869
0.0137869
0.0137869
0.013787
0.013787
0.0137871
0.0137871
0.0137872
0.0137872
0.0137872
0.0137873
0.0137873
0.0137874
0.0137874
0.0137874
0.0137875
0.0137875
0.0137876
0.0137876
0.0137876
0.0137877
0.0137877
0.0137878
0.0137878
0.0137878
0.0137879
0.0137879
0.013788
0.013788
0.013788
0.0137881
0.0137881
0.0137882
0.0137882
0.0137882
0.0137883
0.0137883
0.0137883
0.0137884
0.0137884
0.0137885
0.0137885
0.0137885
0.0137886
0.0137886
0.0137886
0.0137887
0.0137887
0.0137888
0.0137888
0.0137888
0.0137594
0.0137594
0.0137594
0.0137595
0.0137595
0.0137596
0.0137596
0.0137597
0.0137597
0.0137598
0.0137598
0.0137599
0.0137599
0.01376
0.01376
0.0137601
0.0137601
0.0137602
0.0137602
0.0137603
0.0137603
0.0137604
0.0137604
0.0137605
0.0137605
0.0137606
0.0137606
0.0137607
0.0137607
0.0137608
0.0137608
0.0137609
0.0137609
0.013761
0.013761
0.0137611
0.0137611
0.0137612
0.0137612
0.0137613
0.0137613
0.0137614
0.0137614
0.0137615
0.0137615
0.0137616
0.0137616
0.0137616
0.0137617
0.0137617
0.0137618
0.0137618
0.0137619
0.0137619
0.013762
0.013762
0.0137621
0.0137621
0.0137622
0.0137622
0.0137623
0.0137623
0.0137623
0.0137624
0.0137624
0.0137625
0.0137625
0.0137626
0.0137626
0.0137627
0.0137627
0.0137627
0.0137628
0.0137628
0.0137629
0.0137629
0.013763
0.013763
0.013763
0.0137631
0.0137631
0.0137632
0.0137632
0.0137633
0.0137633
0.0137633
0.0137634
0.0137634
0.0137314
0.0137314
0.0137314
0.0137315
0.0137315
0.0137316
0.0137316
0.0137317
0.0137317
0.0137318
0.0137319
0.0137319
0.013732
0.013732
0.0137321
0.0137322
0.0137322
0.0137323
0.0137323
0.0137324
0.0137324
0.0137325
0.0137326
0.0137326
0.0137327
0.0137327
0.0137328
0.0137329
0.0137329
0.013733
0.013733
0.0137331
0.0137331
0.0137332
0.0137333
0.0137333
0.0137334
0.0137334
0.0137335
0.0137335
0.0137336
0.0137337
0.0137337
0.0137338
0.0137338
0.0137339
0.0137339
0.013734
0.013734
0.0137341
0.0137341
0.0137342
0.0137343
0.0137343
0.0137344
0.0137344
0.0137345
0.0137345
0.0137346
0.0137346
0.0137347
0.0137347
0.0137348
0.0137348
0.0137349
0.0137349
0.013735
0.013735
0.0137351
0.0137351
0.0137352
0.0137352
0.0137353
0.0137353
0.0137354
0.0137354
0.0137355
0.0137355
0.0137356
0.0137356
0.0137357
0.0137357
0.0137358
0.0137358
0.0137359
0.0137359
0.013736
0.013736
0.0137008
0.0137008
0.0137009
0.0137009
0.013701
0.013701
0.0137011
0.0137012
0.0137012
0.0137013
0.0137014
0.0137014
0.0137015
0.0137016
0.0137016
0.0137017
0.0137018
0.0137018
0.0137019
0.013702
0.013702
0.0137021
0.0137022
0.0137023
0.0137023
0.0137024
0.0137025
0.0137025
0.0137026
0.0137027
0.0137027
0.0137028
0.0137029
0.0137029
0.013703
0.013703
0.0137031
0.0137032
0.0137032
0.0137033
0.0137034
0.0137034
0.0137035
0.0137036
0.0137036
0.0137037
0.0137038
0.0137038
0.0137039
0.0137039
0.013704
0.0137041
0.0137041
0.0137042
0.0137042
0.0137043
0.0137044
0.0137044
0.0137045
0.0137045
0.0137046
0.0137047
0.0137047
0.0137048
0.0137048
0.0137049
0.013705
0.013705
0.0137051
0.0137051
0.0137052
0.0137053
0.0137053
0.0137054
0.0137054
0.0137055
0.0137055
0.0137056
0.0137056
0.0137057
0.0137058
0.0137058
0.0137059
0.0137059
0.013706
0.013706
0.0137061
0.0137061
0.0136672
0.0136673
0.0136674
0.0136674
0.0136675
0.0136676
0.0136676
0.0136677
0.0136678
0.0136679
0.0136679
0.013668
0.0136681
0.0136682
0.0136683
0.0136683
0.0136684
0.0136685
0.0136686
0.0136687
0.0136687
0.0136688
0.0136689
0.013669
0.013669
0.0136691
0.0136692
0.0136693
0.0136693
0.0136694
0.0136695
0.0136696
0.0136696
0.0136697
0.0136698
0.0136699
0.0136699
0.01367
0.0136701
0.0136702
0.0136702
0.0136703
0.0136704
0.0136705
0.0136705
0.0136706
0.0136707
0.0136707
0.0136708
0.0136709
0.013671
0.013671
0.0136711
0.0136712
0.0136712
0.0136713
0.0136714
0.0136714
0.0136715
0.0136716
0.0136716
0.0136717
0.0136718
0.0136718
0.0136719
0.013672
0.013672
0.0136721
0.0136722
0.0136722
0.0136723
0.0136724
0.0136724
0.0136725
0.0136726
0.0136726
0.0136727
0.0136727
0.0136728
0.0136729
0.0136729
0.013673
0.0136731
0.0136731
0.0136732
0.0136732
0.0136733
0.0136304
0.0136304
0.0136305
0.0136306
0.0136307
0.0136307
0.0136308
0.0136309
0.013631
0.0136311
0.0136312
0.0136313
0.0136314
0.0136314
0.0136315
0.0136316
0.0136317
0.0136318
0.0136319
0.013632
0.0136321
0.0136322
0.0136323
0.0136323
0.0136324
0.0136325
0.0136326
0.0136327
0.0136328
0.0136329
0.013633
0.013633
0.0136331
0.0136332
0.0136333
0.0136334
0.0136335
0.0136335
0.0136336
0.0136337
0.0136338
0.0136339
0.013634
0.013634
0.0136341
0.0136342
0.0136343
0.0136344
0.0136345
0.0136345
0.0136346
0.0136347
0.0136348
0.0136349
0.0136349
0.013635
0.0136351
0.0136352
0.0136352
0.0136353
0.0136354
0.0136355
0.0136355
0.0136356
0.0136357
0.0136358
0.0136358
0.0136359
0.013636
0.0136361
0.0136361
0.0136362
0.0136363
0.0136364
0.0136364
0.0136365
0.0136366
0.0136366
0.0136367
0.0136368
0.0136369
0.0136369
0.013637
0.0136371
0.0136371
0.0136372
0.0136373
0.0135898
0.0135899
0.01359
0.0135901
0.0135902
0.0135903
0.0135904
0.0135905
0.0135906
0.0135907
0.0135908
0.0135909
0.013591
0.0135911
0.0135912
0.0135913
0.0135914
0.0135915
0.0135916
0.0135917
0.0135918
0.0135919
0.013592
0.0135921
0.0135922
0.0135923
0.0135924
0.0135925
0.0135926
0.0135927
0.0135928
0.0135929
0.013593
0.0135931
0.0135932
0.0135933
0.0135934
0.0135935
0.0135936
0.0135937
0.0135938
0.0135938
0.0135939
0.013594
0.0135941
0.0135942
0.0135943
0.0135944
0.0135945
0.0135946
0.0135947
0.0135948
0.0135949
0.0135949
0.013595
0.0135951
0.0135952
0.0135953
0.0135954
0.0135955
0.0135956
0.0135956
0.0135957
0.0135958
0.0135959
0.013596
0.0135961
0.0135962
0.0135962
0.0135963
0.0135964
0.0135965
0.0135966
0.0135967
0.0135967
0.0135968
0.0135969
0.013597
0.0135971
0.0135971
0.0135972
0.0135973
0.0135974
0.0135974
0.0135975
0.0135976
0.0135977
0.013545
0.013545
0.0135451
0.0135452
0.0135454
0.0135455
0.0135456
0.0135457
0.0135458
0.0135459
0.013546
0.0135462
0.0135463
0.0135464
0.0135465
0.0135466
0.0135468
0.0135469
0.013547
0.0135471
0.0135472
0.0135473
0.0135475
0.0135476
0.0135477
0.0135478
0.0135479
0.013548
0.0135481
0.0135483
0.0135484
0.0135485
0.0135486
0.0135487
0.0135488
0.0135489
0.013549
0.0135491
0.0135492
0.0135493
0.0135495
0.0135496
0.0135497
0.0135498
0.0135499
0.01355
0.0135501
0.0135502
0.0135503
0.0135504
0.0135505
0.0135506
0.0135507
0.0135508
0.0135509
0.013551
0.0135511
0.0135512
0.0135513
0.0135514
0.0135515
0.0135516
0.0135517
0.0135518
0.0135519
0.013552
0.0135521
0.0135522
0.0135523
0.0135524
0.0135524
0.0135525
0.0135526
0.0135527
0.0135528
0.0135529
0.013553
0.0135531
0.0135532
0.0135533
0.0135533
0.0135534
0.0135535
0.0135536
0.0135537
0.0135538
0.0135539
0.0134951
0.0134952
0.0134953
0.0134954
0.0134956
0.0134957
0.0134958
0.013496
0.0134961
0.0134962
0.0134964
0.0134965
0.0134966
0.0134968
0.0134969
0.013497
0.0134972
0.0134973
0.0134974
0.0134976
0.0134977
0.0134978
0.013498
0.0134981
0.0134982
0.0134983
0.0134985
0.0134986
0.0134987
0.0134989
0.013499
0.0134991
0.0134992
0.0134994
0.0134995
0.0134996
0.0134997
0.0134999
0.0135
0.0135001
0.0135002
0.0135003
0.0135005
0.0135006
0.0135007
0.0135008
0.0135009
0.013501
0.0135012
0.0135013
0.0135014
0.0135015
0.0135016
0.0135017
0.0135018
0.013502
0.0135021
0.0135022
0.0135023
0.0135024
0.0135025
0.0135026
0.0135027
0.0135028
0.0135029
0.013503
0.0135031
0.0135033
0.0135034
0.0135035
0.0135036
0.0135037
0.0135038
0.0135039
0.013504
0.0135041
0.0135042
0.0135043
0.0135044
0.0135045
0.0135046
0.0135047
0.0135047
0.0135048
0.0135049
0.013505
0.0135051
0.0134396
0.0134397
0.0134398
0.01344
0.0134401
0.0134403
0.0134404
0.0134406
0.0134407
0.0134409
0.013441
0.0134412
0.0134413
0.0134415
0.0134416
0.0134418
0.0134419
0.0134421
0.0134422
0.0134424
0.0134425
0.0134427
0.0134428
0.013443
0.0134431
0.0134433
0.0134434
0.0134436
0.0134437
0.0134439
0.013444
0.0134441
0.0134443
0.0134444
0.0134446
0.0134447
0.0134448
0.013445
0.0134451
0.0134452
0.0134454
0.0134455
0.0134456
0.0134458
0.0134459
0.013446
0.0134462
0.0134463
0.0134464
0.0134466
0.0134467
0.0134468
0.0134469
0.0134471
0.0134472
0.0134473
0.0134474
0.0134476
0.0134477
0.0134478
0.0134479
0.013448
0.0134482
0.0134483
0.0134484
0.0134485
0.0134486
0.0134488
0.0134489
0.013449
0.0134491
0.0134492
0.0134493
0.0134494
0.0134495
0.0134496
0.0134498
0.0134499
0.01345
0.0134501
0.0134502
0.0134503
0.0134504
0.0134505
0.0134506
0.0134507
0.0134508
0.0133778
0.0133779
0.013378
0.0133782
0.0133784
0.0133785
0.0133787
0.0133789
0.0133791
0.0133792
0.0133794
0.0133796
0.0133798
0.0133799
0.0133801
0.0133803
0.0133804
0.0133806
0.0133808
0.013381
0.0133811
0.0133813
0.0133815
0.0133816
0.0133818
0.0133819
0.0133821
0.0133823
0.0133824
0.0133826
0.0133827
0.0133829
0.0133831
0.0133832
0.0133834
0.0133835
0.0133837
0.0133838
0.013384
0.0133841
0.0133843
0.0133844
0.0133846
0.0133847
0.0133849
0.013385
0.0133852
0.0133853
0.0133855
0.0133856
0.0133857
0.0133859
0.013386
0.0133862
0.0133863
0.0133864
0.0133866
0.0133867
0.0133868
0.013387
0.0133871
0.0133872
0.0133874
0.0133875
0.0133876
0.0133878
0.0133879
0.013388
0.0133881
0.0133883
0.0133884
0.0133885
0.0133886
0.0133888
0.0133889
0.013389
0.0133891
0.0133892
0.0133894
0.0133895
0.0133896
0.0133897
0.0133898
0.0133899
0.01339
0.0133901
0.0133903
0.013309
0.0133091
0.0133093
0.0133095
0.0133097
0.0133099
0.01331
0.0133102
0.0133104
0.0133106
0.0133108
0.013311
0.0133112
0.0133114
0.0133116
0.0133118
0.013312
0.0133122
0.0133124
0.0133126
0.0133128
0.013313
0.0133131
0.0133133
0.0133135
0.0133137
0.0133139
0.0133141
0.0133142
0.0133144
0.0133146
0.0133148
0.0133149
0.0133151
0.0133153
0.0133155
0.0133156
0.0133158
0.013316
0.0133161
0.0133163
0.0133165
0.0133166
0.0133168
0.013317
0.0133171
0.0133173
0.0133174
0.0133176
0.0133178
0.0133179
0.0133181
0.0133182
0.0133184
0.0133185
0.0133187
0.0133188
0.013319
0.0133191
0.0133193
0.0133194
0.0133196
0.0133197
0.0133198
0.01332
0.0133201
0.0133203
0.0133204
0.0133205
0.0133207
0.0133208
0.0133209
0.0133211
0.0133212
0.0133213
0.0133215
0.0133216
0.0133217
0.0133218
0.013322
0.0133221
0.0133222
0.0133223
0.0133225
0.0133226
0.0133227
0.0133228
0.0132325
0.0132327
0.0132328
0.013233
0.0132332
0.0132335
0.0132337
0.0132339
0.0132341
0.0132343
0.0132346
0.0132348
0.013235
0.0132352
0.0132354
0.0132357
0.0132359
0.0132361
0.0132363
0.0132365
0.0132367
0.0132369
0.0132372
0.0132374
0.0132376
0.0132378
0.013238
0.0132382
0.0132384
0.0132386
0.0132388
0.013239
0.0132392
0.0132393
0.0132395
0.0132397
0.0132399
0.0132401
0.0132403
0.0132405
0.0132407
0.0132408
0.013241
0.0132412
0.0132414
0.0132416
0.0132417
0.0132419
0.0132421
0.0132423
0.0132424
0.0132426
0.0132428
0.0132429
0.0132431
0.0132433
0.0132434
0.0132436
0.0132437
0.0132439
0.0132441
0.0132442
0.0132444
0.0132445
0.0132447
0.0132448
0.013245
0.0132451
0.0132453
0.0132454
0.0132456
0.0132457
0.0132459
0.013246
0.0132461
0.0132463
0.0132464
0.0132465
0.0132467
0.0132468
0.0132469
0.0132471
0.0132472
0.0132473
0.0132475
0.0132476
0.0132477
0.0131474
0.0131476
0.0131478
0.013148
0.0131482
0.0131485
0.0131487
0.0131489
0.0131492
0.0131494
0.0131497
0.0131499
0.0131502
0.0131504
0.0131507
0.0131509
0.0131512
0.0131514
0.0131516
0.0131519
0.0131521
0.0131523
0.0131526
0.0131528
0.013153
0.0131533
0.0131535
0.0131537
0.0131539
0.0131542
0.0131544
0.0131546
0.0131548
0.013155
0.0131552
0.0131554
0.0131556
0.0131559
0.0131561
0.0131563
0.0131565
0.0131567
0.0131569
0.0131571
0.0131572
0.0131574
0.0131576
0.0131578
0.013158
0.0131582
0.0131584
0.0131586
0.0131587
0.0131589
0.0131591
0.0131593
0.0131595
0.0131596
0.0131598
0.01316
0.0131602
0.0131603
0.0131605
0.0131607
0.0131608
0.013161
0.0131611
0.0131613
0.0131615
0.0131616
0.0131618
0.0131619
0.0131621
0.0131622
0.0131624
0.0131625
0.0131627
0.0131628
0.013163
0.0131631
0.0131632
0.0131634
0.0131635
0.0131636
0.0131638
0.0131639
0.013164
0.0130527
0.0130529
0.0130531
0.0130533
0.0130535
0.0130538
0.0130541
0.0130543
0.0130546
0.0130549
0.0130552
0.0130554
0.0130557
0.013056
0.0130563
0.0130565
0.0130568
0.0130571
0.0130573
0.0130576
0.0130578
0.0130581
0.0130584
0.0130586
0.0130589
0.0130591
0.0130594
0.0130596
0.0130599
0.0130601
0.0130603
0.0130606
0.0130608
0.013061
0.0130613
0.0130615
0.0130617
0.013062
0.0130622
0.0130624
0.0130626
0.0130629
0.0130631
0.0130633
0.0130635
0.0130637
0.0130639
0.0130641
0.0130643
0.0130645
0.0130647
0.0130649
0.0130651
0.0130653
0.0130655
0.0130657
0.0130659
0.0130661
0.0130663
0.0130665
0.0130666
0.0130668
0.013067
0.0130672
0.0130673
0.0130675
0.0130677
0.0130679
0.013068
0.0130682
0.0130683
0.0130685
0.0130687
0.0130688
0.013069
0.0130691
0.0130693
0.0130694
0.0130696
0.0130697
0.0130699
0.01307
0.0130702
0.0130703
0.0130704
0.0130706
0.0130707
0.0129472
0.0129473
0.0129475
0.0129478
0.0129481
0.0129483
0.0129486
0.0129489
0.0129492
0.0129495
0.0129498
0.0129501
0.0129504
0.0129507
0.012951
0.0129513
0.0129516
0.0129519
0.0129522
0.0129525
0.0129528
0.0129531
0.0129533
0.0129536
0.0129539
0.0129542
0.0129544
0.0129547
0.012955
0.0129552
0.0129555
0.0129558
0.012956
0.0129563
0.0129565
0.0129568
0.012957
0.0129573
0.0129575
0.0129578
0.012958
0.0129582
0.0129585
0.0129587
0.0129589
0.0129592
0.0129594
0.0129596
0.0129598
0.01296
0.0129603
0.0129605
0.0129607
0.0129609
0.0129611
0.0129613
0.0129615
0.0129617
0.0129619
0.0129621
0.0129623
0.0129625
0.0129626
0.0129628
0.012963
0.0129632
0.0129634
0.0129635
0.0129637
0.0129639
0.0129641
0.0129642
0.0129644
0.0129645
0.0129647
0.0129649
0.012965
0.0129652
0.0129653
0.0129655
0.0129656
0.0129658
0.0129659
0.012966
0.0129662
0.0129663
0.0129664
0.0128295
0.0128296
0.0128298
0.0128301
0.0128304
0.0128307
0.012831
0.0128314
0.0128317
0.012832
0.0128324
0.0128327
0.012833
0.0128333
0.0128337
0.012834
0.0128343
0.0128346
0.0128349
0.0128352
0.0128355
0.0128358
0.0128361
0.0128364
0.0128367
0.012837
0.0128373
0.0128376
0.0128379
0.0128382
0.0128385
0.0128387
0.012839
0.0128393
0.0128396
0.0128398
0.0128401
0.0128404
0.0128406
0.0128409
0.0128411
0.0128414
0.0128416
0.0128419
0.0128421
0.0128424
0.0128426
0.0128428
0.0128431
0.0128433
0.0128435
0.0128438
0.012844
0.0128442
0.0128444
0.0128446
0.0128448
0.012845
0.0128453
0.0128455
0.0128457
0.0128458
0.012846
0.0128462
0.0128464
0.0128466
0.0128468
0.0128469
0.0128471
0.0128473
0.0128475
0.0128476
0.0128478
0.012848
0.0128481
0.0128483
0.0128484
0.0128486
0.0128487
0.0128489
0.012849
0.0128492
0.0128493
0.0128494
0.0128496
0.0128497
0.0128498
0.0126982
0.0126983
0.0126985
0.0126988
0.0126991
0.0126994
0.0126998
0.0127001
0.0127005
0.0127008
0.0127012
0.0127015
0.0127019
0.0127022
0.0127026
0.0127029
0.0127033
0.0127036
0.0127039
0.0127043
0.0127046
0.0127049
0.0127052
0.0127056
0.0127059
0.0127062
0.0127065
0.0127068
0.0127071
0.0127074
0.0127077
0.012708
0.0127083
0.0127086
0.0127089
0.0127091
0.0127094
0.0127097
0.01271
0.0127102
0.0127105
0.0127108
0.012711
0.0127113
0.0127115
0.0127118
0.012712
0.0127123
0.0127125
0.0127128
0.012713
0.0127132
0.0127135
0.0127137
0.0127139
0.0127141
0.0127143
0.0127146
0.0127148
0.012715
0.0127152
0.0127154
0.0127156
0.0127158
0.012716
0.0127161
0.0127163
0.0127165
0.0127167
0.0127168
0.012717
0.0127172
0.0127173
0.0127175
0.0127176
0.0127178
0.0127179
0.0127181
0.0127182
0.0127183
0.0127185
0.0127186
0.0127187
0.0127188
0.012719
0.0127191
0.0127192
0.0125516
0.0125517
0.0125519
0.0125522
0.0125525
0.0125529
0.0125532
0.0125536
0.012554
0.0125544
0.0125547
0.0125551
0.0125555
0.0125559
0.0125562
0.0125566
0.0125569
0.0125573
0.0125577
0.012558
0.0125583
0.0125587
0.012559
0.0125594
0.0125597
0.01256
0.0125603
0.0125607
0.012561
0.0125613
0.0125616
0.0125619
0.0125622
0.0125625
0.0125628
0.0125631
0.0125634
0.0125637
0.0125639
0.0125642
0.0125645
0.0125648
0.012565
0.0125653
0.0125655
0.0125658
0.012566
0.0125663
0.0125665
0.0125668
0.012567
0.0125672
0.0125675
0.0125677
0.0125679
0.0125681
0.0125683
0.0125685
0.0125688
0.012569
0.0125692
0.0125693
0.0125695
0.0125697
0.0125699
0.0125701
0.0125703
0.0125704
0.0125706
0.0125708
0.0125709
0.0125711
0.0125712
0.0125714
0.0125715
0.0125716
0.0125718
0.0125719
0.012572
0.0125721
0.0125723
0.0125724
0.0125725
0.0125726
0.0125727
0.0125728
0.0125729
0.0123882
0.0123882
0.0123884
0.0123886
0.012389
0.0123893
0.0123897
0.0123901
0.0123905
0.0123909
0.0123913
0.0123917
0.0123921
0.0123925
0.0123928
0.0123932
0.0123936
0.012394
0.0123943
0.0123947
0.012395
0.0123954
0.0123957
0.0123961
0.0123964
0.0123968
0.0123971
0.0123974
0.0123977
0.0123981
0.0123984
0.0123987
0.012399
0.0123993
0.0123996
0.0123999
0.0124002
0.0124005
0.0124007
0.012401
0.0124013
0.0124015
0.0124018
0.0124021
0.0124023
0.0124026
0.0124028
0.012403
0.0124033
0.0124035
0.0124037
0.012404
0.0124042
0.0124044
0.0124046
0.0124048
0.012405
0.0124052
0.0124054
0.0124056
0.0124058
0.0124059
0.0124061
0.0124063
0.0124064
0.0124066
0.0124068
0.0124069
0.0124071
0.0124072
0.0124073
0.0124075
0.0124076
0.0124077
0.0124078
0.012408
0.0124081
0.0124082
0.0124083
0.0124084
0.0124085
0.0124085
0.0124086
0.0124087
0.0124087
0.0124088
0.0124089
0.0122061
0.012206
0.0122061
0.0122064
0.0122067
0.0122071
0.0122074
0.0122078
0.0122082
0.0122086
0.012209
0.0122095
0.0122098
0.0122102
0.0122106
0.012211
0.0122114
0.0122118
0.0122121
0.0122125
0.0122129
0.0122132
0.0122136
0.0122139
0.0122143
0.0122146
0.0122149
0.0122153
0.0122156
0.0122159
0.0122162
0.0122165
0.0122168
0.0122171
0.0122174
0.0122177
0.0122179
0.0122182
0.0122185
0.0122187
0.012219
0.0122193
0.0122195
0.0122197
0.01222
0.0122202
0.0122204
0.0122207
0.0122209
0.0122211
0.0122213
0.0122215
0.0122217
0.0122219
0.0122221
0.0122222
0.0122224
0.0122226
0.0122227
0.0122229