/*--------------------------------*- C++ -*----------------------------------*\
  =========                 |
  \\      /  F ield         | OpenFOAM: The Open Source CFD Toolbox
   \\    /   O peration     | Website:  https://openfoam.org
    \\  /    A nd           | Version:  9
     \\/     M anipulation  |
\*---------------------------------------------------------------------------*/
FoamFile
{
    format      ascii;
    class       volScalarField;
    location    "0.0275";
    object      alphat;
}
// * * * * * * * * * * * * * * * * * * * * * * * * * * * * * * * * * * * * * //

dimensions      [1 -1 -1 0 0 0 0];

internalField   nonuniform List<scalar> 
6127
(
1.90007e-07
2.88691e-07
5.56747e-07
7.1045e-07
9.48625e-07
1.72265e-06
6.01907e-07
7.16292e-07
1.22571e-06
1.35416e-06
8.92844e-07
1.34706e-06
2.87419e-06
1.66151e-06
1.75371e-06
4.79865e-06
2.76455e-06
2.19531e-06
6.42449e-06
3.78323e-06
2.57284e-06
6.99913e-06
4.20349e-06
2.52205e-06
6.05159e-06
3.65469e-06
2.00838e-06
4.24136e-06
2.55288e-06
1.37054e-06
2.38602e-06
1.4589e-06
8.55755e-07
1.08735e-06
7.64558e-07
5.65394e-07
5.30158e-07
6.3661e-07
5.18587e-07
6.26075e-07
8.45154e-07
9.07915e-07
1.89409e-07
2.70795e-07
5.63911e-07
0.0164018
0.0164521
0.0164061
0.0163571
0.0163424
0.0162964
0.0162961
0.0162782
0.0162604
0.0162207
0.0161574
0.0161109
0.0160633
0.0164595
0.0164523
0.0164082
0.016361
0.0163317
0.0162881
0.0162782
0.0162386
0.0162313
0.0161936
0.016149
0.0160972
0.016044
0.0159922
0.0159447
0.0158995
0.0158548
0.0158094
0.0157623
0.0157128
0.0156605
0.0156046
0.0155448
0.0154807
0.0154117
0.0153375
0.0152578
0.0151723
0.0150809
0.0149836
0.0148808
0.0147729
0.0146609
0.0145459
0.0144293
0.0143131
0.0141992
0.0140898
0.0139869
0.0138924
0.0138079
0.0137345
0.0136732
0.0136245
0.0135884
0.0135645
0.0135525
0.0135513
0.0135598
0.0135771
0.0136021
0.0136337
0.0136712
0.0137137
0.0137606
0.0138112
0.0138653
0.0139224
0.0139824
0.0140451
0.0164589
0.0164568
0.0164158
0.0163633
0.0163354
0.0162875
0.0162793
0.0162365
0.0162324
0.016191
0.0161446
0.0160898
0.016034
0.0159799
0.0159316
0.0158852
0.0158387
0.0157908
0.0157407
0.0156875
0.0156305
0.0155693
0.015503
0.0154313
0.0153533
0.0152687
0.0151769
0.0150774
0.0149702
0.014855
0.0147323
0.0146028
0.0144676
0.0143285
0.0141879
0.0140485
0.0139138
0.0137874
0.0136727
0.0135728
0.0134904
0.0134267
0.0133826
0.0133583
0.0133543
0.013368
0.0133982
0.0134428
0.0134996
0.0135667
0.0136421
0.0137239
0.0138108
0.0139014
0.0139944
0.0140891
0.0141848
0.014281
0.0143774
0.0144737
0.0164592
0.0164607
0.016421
0.0163677
0.0163382
0.01629
0.0162824
0.016239
0.0162341
0.0161894
0.0161417
0.0160844
0.0160277
0.0159746
0.0159263
0.015879
0.0158309
0.0157808
0.0157277
0.0156709
0.0156095
0.0155428
0.0154701
0.0153906
0.0153034
0.0152079
0.0151033
0.014989
0.0148645
0.0147297
0.014585
0.0144312
0.01427
0.014104
0.0139368
0.0137729
0.0136177
0.0134771
0.0133567
0.0132605
0.013192
0.0131533
0.0131454
0.0131672
0.0132163
0.0132892
0.0133823
0.0134916
0.013613
0.0137432
0.0138786
0.0140165
0.0141547
0.0142914
0.0144254
0.0145559
0.0146823
0.0148045
0.0149224
0.015036
0.0164616
0.0164645
0.0164254
0.0163718
0.0163408
0.0162921
0.0162838
0.0162417
0.0162356
0.016188
0.0161391
0.0160795
0.0160223
0.0159709
0.0159225
0.0158743
0.0158246
0.0157723
0.0157164
0.015656
0.0155903
0.0155183
0.0154392
0.0153519
0.0152554
0.0151488
0.015031
0.0149011
0.0147584
0.0146026
0.0144341
0.014254
0.0140645
0.0138693
0.0136739
0.0134851
0.0133114
0.013162
0.013045
0.0129662
0.0129305
0.0129402
0.0129936
0.0130868
0.0132139
0.0133684
0.013543
0.0137308
0.0139254
0.0141218
0.0143155
0.0145034
0.0146833
0.0148536
0.0150134
0.0151627
0.0153013
0.0154298
0.0155486
0.0156586
0.0164609
0.0164709
0.0164292
0.0163759
0.0163433
0.0162938
0.0162851
0.0162447
0.0162372
0.0161869
0.0161371
0.0160757
0.0160195
0.015969
0.0159202
0.015871
0.0158198
0.0157655
0.015707
0.0156432
0.0155733
0.0154962
0.0154107
0.0153158
0.01521
0.0150922
0.0149609
0.0148149
0.0146532
0.0144753
0.0142815
0.014073
0.0138531
0.0136267
0.0134017
0.0131885
0.0130001
0.0128504
0.0127498
0.0127075
0.0127295
0.012814
0.0129554
0.0131444
0.0133697
0.0136189
0.0138809
0.0141457
0.0144054
0.014654
0.0148875
0.0151033
0.0153001
0.0154776
0.0156362
0.0157769
0.0159008
0.0160094
0.0161041
0.0161866
0.016459
0.0164739
0.0164321
0.0163794
0.0163458
0.0162947
0.0162862
0.0162478
0.0162387
0.0161861
0.0161355
0.0160731
0.0160187
0.0159683
0.0159191
0.015869
0.0158164
0.0157602
0.0156992
0.0156323
0.0155584
0.0154764
0.0153849
0.0152825
0.0151676
0.0150386
0.0148938
0.0147315
0.0145503
0.0143494
0.0141289
0.0138906
0.0136384
0.0133792
0.0131238
0.0128876
0.0126904
0.0125498
0.0124828
0.0125015
0.0126073
0.0127934
0.0130463
0.0133477
0.0136781
0.0140198
0.0143577
0.0146805
0.0149802
0.015252
0.0154937
0.0157046
0.0158856
0.0160385
0.0161655
0.0162691
0.016352
0.0164168
0.0164659
0.0165016
0.0164562
0.0164756
0.0164336
0.0163833
0.0163481
0.0162952
0.0162873
0.016251
0.0162401
0.0161857
0.0161345
0.0160723
0.0160189
0.0159685
0.0159189
0.015868
0.0158142
0.0157563
0.015693
0.0156232
0.0155456
0.0154589
0.0153616
0.0152521
0.0151284
0.0149885
0.0148303
0.0146516
0.0144507
0.0142262
0.0139782
0.0137088
0.0134229
0.0131295
0.0128432
0.0125858
0.0123857
0.012267
0.0122559
0.0123598
0.0125758
0.0128862
0.0132644
0.0136806
0.0141072
0.0145219
0.0149083
0.0152561
0.0155599
0.0158179
0.0160311
0.0162023
0.0163352
0.0164342
0.0165036
0.0165472
0.0165692
0.016574
0.0165649
0.0165448
0.016453
0.0164764
0.0164342
0.0163842
0.0163503
0.0162954
0.0162883
0.0162542
0.0162414
0.0161859
0.0161338
0.0160728
0.0160199
0.0159694
0.0159195
0.0158679
0.0158131
0.0157536
0.0156882
0.0156158
0.0155348
0.0154438
0.0153411
0.0152248
0.0150926
0.0149422
0.0147709
0.0145761
0.0143554
0.0141072
0.0138313
0.01353
0.0132094
0.0128807
0.0125633
0.0122872
0.0120916
0.0120105
0.0120742
0.0122888
0.0126375
0.0130855
0.0135895
0.0141078
0.0146066
0.0150622
0.0154602
0.0157942
0.0160636
0.0162713
0.0164228
0.0165249
0.0165839
0.0166071
0.0166019
0.0165742
0.0165293
0.0164711
0.0164031
0.0163288
0.0164494
0.0164766
0.016434
0.0163838
0.0163542
0.0162953
0.0162893
0.0162574
0.0162427
0.0161867
0.0161334
0.0160739
0.0160213
0.0159708
0.0159207
0.0158686
0.0158128
0.015752
0.0156848
0.0156099
0.0155258
0.0154309
0.0153232
0.0152005
0.0150604
0.0148999
0.014716
0.0145055
0.0142653
0.0139935
0.0136896
0.0133562
0.0130001
0.0126355
0.012287
0.011995
0.0118107
0.011782
0.0119423
0.0122887
0.0127847
0.013372
0.0139892
0.0145848
0.0151226
0.0155815
0.0159525
0.0162357
0.0164367
0.0165645
0.0166289
0.0166411
0.0166127
0.016553
0.01647
0.0163706
0.0162614
0.0161475
0.0160326
0.0159195
0.0164457
0.0164762
0.0164333
0.0163827
0.0163554
0.0162975
0.0162907
0.0162605
0.0162438
0.0161881
0.0161335
0.0160753
0.016023
0.0159727
0.0159224
0.0158698
0.0158133
0.0157514
0.0156826
0.0156055
0.0155186
0.0154201
0.0153078
0.0151792
0.0150317
0.0148617
0.0146659
0.0144402
0.0141812
0.0138861
0.0135546
0.0131891
0.0127975
0.0123965
0.0120167
0.0117113
0.0115437
0.0115813
0.0118573
0.0123523
0.0130012
0.0137188
0.0144271
0.0150687
0.0156098
0.0160356
0.0163453
0.0165471
0.0166541
0.0166814
0.0166453
0.0165612
0.0164424
0.016301
0.0161473
0.0159893
0.0158333
0.0156844
0.0155449
0.0154129
0.0164419
0.0164754
0.0164322
0.016381
0.0163556
0.016297
0.0162922
0.0162636
0.0162449
0.0161899
0.0161339
0.0160771
0.016025
0.0159748
0.0159245
0.0158716
0.0158145
0.0157515
0.0156813
0.0156024
0.0155131
0.0154113
0.0152948
0.0151609
0.0150064
0.0148277
0.0146206
0.0143805
0.0141033
0.0137859
0.0134273
0.0130302
0.0126033
0.0121661
0.0117543
0.0114351
0.0112905
0.0114063
0.0118136
0.0124672
0.0132663
0.0140978
0.0148703
0.015526
0.0160373
0.016399
0.0166206
0.016719
0.0167159
0.016634
0.016494
0.0163155
0.0161154
0.0159074
0.0157025
0.0155103
0.0153278
0.0151524
0.0149835
0.0148196
0.0164382
0.0164743
0.0164309
0.0163789
0.0163552
0.0162964
0.0162935
0.0162665
0.0162459
0.016192
0.0161348
0.016079
0.0160272
0.0159772
0.0159269
0.0158737
0.0158161
0.0157523
0.015681
0.0156005
0.0155089
0.0154043
0.015284
0.0151453
0.0149845
0.0147977
0.01458
0.0143264
0.014032
0.0136931
0.0133085
0.0128806
0.0124193
0.0119465
0.0115019
0.0111684
0.0110504
0.0112532
0.0118025
0.0126187
0.0135593
0.0144844
0.0152943
0.0159352
0.0163893
0.0166631
0.0167773
0.0167596
0.0166402
0.0164479
0.016211
0.015952
0.0156902
0.0154423
0.015205
0.014975
0.0147503
0.0145301
0.0143143
0.0141034
0.0164345
0.0164731
0.0164295
0.0163767
0.0163544
0.0162966
0.0162947
0.0162692
0.0162468
0.0161942
0.016136
0.016081
0.0160294
0.0159797
0.0159294
0.0158762
0.0158181
0.0157537
0.0156814
0.0155995
0.015506
0.0153989
0.0152753
0.0151322
0.0149657
0.0147715
0.0145441
0.0142778
0.0139673
0.0136082
0.0131987
0.0127412
0.0122464
0.0117391
0.0112609
0.0109114
0.0108213
0.0111165
0.0118141
0.0127915
0.0138615
0.01486
0.0156835
0.0162861
0.0166624
0.0168321
0.0168275
0.0166881
0.0164528
0.0161592
0.0158397
0.0155221
0.0152189
0.0149238
0.0146334
0.0143465
0.0140634
0.013785
0.0135131
0.0132493
0.016431
0.0164717
0.016428
0.0163743
0.0163534
0.0162982
0.0162957
0.0162718
0.0162477
0.0161963
0.0161375
0.0160831
0.0160317
0.0159822
0.0159321
0.0158788
0.0158204
0.0157555
0.0156824
0.0155993
0.0155042
0.0153949
0.0152684
0.0151214
0.0149499
0.0147489
0.0145126
0.0142347
0.0139091
0.0135311
0.0130981
0.0126124
0.0120853
0.0115444
0.0110328
0.010664
0.0106001
0.0109896
0.0118378
0.012972
0.0141585
0.0152124
0.0160303
0.016577
0.0168613
0.0169161
0.0167876
0.0165263
0.016182
0.0157996
0.0154185
0.0150503
0.0146874
0.0143264
0.013967
0.013611
0.0132612
0.0129213
0.0125943
0.0122833
0.0164276
0.0164703
0.0164265
0.0163721
0.0163521
0.0162999
0.0162967
0.0162742
0.0162485
0.0161985
0.0161391
0.0160851
0.016034
0.0159848
0.0159348
0.0158815
0.0158229
0.0157576
0.0156838
0.0155998
0.0155034
0.0153921
0.0152631
0.0151127
0.0149366
0.0147296
0.0144852
0.0141967
0.0138573
0.0134616
0.0130066
0.0124942
0.0119365
0.0113631
0.0108188
0.0104263
0.0103853
0.0108668
0.0118639
0.0131487
0.01444
0.015535
0.0163334
0.0168124
0.0169957
0.0169302
0.0166772
0.0162985
0.0158548
0.0154017
0.0149613
0.0145235
0.0140841
0.0136436
0.0132062
0.0127773
0.0123632
0.0119696
0.0116009
0.0112606
0.0164245
0.0164688
0.016425
0.0163701
0.0163509
0.0163014
0.0162976
0.0162765
0.0162492
0.0162005
0.0161406
0.0160871
0.0160361
0.0159873
0.0159375
0.0158842
0.0158256
0.0157599
0.0156856
0.0156008
0.0155032
0.0153904
0.0152591
0.0151058
0.0149257
0.0147133
0.0144617
0.0141634
0.0138114
0.0133994
0.0129239
0.0123866
0.0117999
0.0111955
0.010619
0.0101987
0.0101755
0.0107429
0.0118845
0.0133131
0.0146996
0.0158255
0.0165956
0.0169999
0.0170772
0.016891
0.0165153
0.016025
0.0154935
0.0149774
0.0144609
0.013938
0.0134101
0.0128836
0.0123679
0.0118731
0.0114086
0.0109815
0.0105967
0.0102562
0.0164215
0.0164674
0.0164235
0.0163683
0.0163498
0.0163018
0.0162985
0.0162786
0.0162499
0.0162024
0.0161421
0.016089
0.0160383
0.0159897
0.0159402
0.015887
0.0158282
0.0157623
0.0156876
0.0156022
0.0155037
0.0153895
0.0152564
0.0151004
0.0149168
0.0146996
0.0144415
0.0141346
0.013771
0.0133441
0.0128497
0.0122892
0.0116753
0.0110413
0.0104334
0.00998336
0.00996858
0.010614
0.0118934
0.0134591
0.0149337
0.0160845
0.016822
0.0171496
0.0171197
0.0168136
0.0163196
0.0157275
0.0151268
0.0145277
0.0139185
0.0132987
0.0126765
0.0120657
0.0114818
0.0109395
0.0104503
0.0100213
0.00965482
0.00934913
0.0164187
0.016466
0.0164221
0.0163668
0.0163488
0.0163019
0.0162994
0.0162805
0.0162505
0.0162043
0.0161435
0.0160907
0.0160403
0.0159921
0.0159428
0.0158896
0.0158309
0.0157649
0.0156899
0.0156039
0.0155046
0.0153893
0.0152546
0.0150964
0.0149098
0.0146884
0.0144244
0.0141097
0.0137357
0.0132952
0.0127834
0.0122015
0.0115622
0.0109005
0.0102622
0.00978074
0.00976489
0.010478
0.0118865
0.0135827
0.0151407
0.0163139
0.0170184
0.0172708
0.0171361
0.0167119
0.0161023
0.0154151
0.0147365
0.0140447
0.0133346
0.0126141
0.0119008
0.0112172
0.0105862
0.0100258
0.00954741
0.009154
0.00884172
0.00860184
0.0164162
0.0164646
0.0164207
0.0163655
0.016348
0.016302
0.0163004
0.0162823
0.0162511
0.016206
0.0161448
0.0160924
0.0160422
0.0159944
0.0159452
0.0158923
0.0158335
0.0157674
0.0156922
0.0156058
0.0155059
0.0153897
0.0152536
0.0150936
0.0149042
0.0146791
0.0144101
0.0140883
0.0137049
0.0132521
0.0127243
0.0121227
0.01146
0.0107722
0.0101053
0.0095911
0.00956561
0.0103345
0.0118619
0.0136818
0.0153204
0.0165168
0.0171899
0.0173698
0.0171348
0.0165964
0.0158778
0.0151096
0.0143363
0.0135401
0.0127228
0.0119027
0.0111085
0.0103729
0.00972477
0.0091829
0.00875314
0.00842939
0.00819748
0.00803981
0.0164141
0.0164633
0.0164195
0.0163643
0.0163473
0.0163022
0.0163019
0.016284
0.0162517
0.0162076
0.016146
0.016094
0.016044
0.0159965
0.0159476
0.0158947
0.0158361
0.0157699
0.0156945
0.0156079
0.0155075
0.0153905
0.0152533
0.0150916
0.0149
0.0146716
0.0143981
0.01407
0.0136783
0.0132142
0.012672
0.0120522
0.0113678
0.0106559
0.00996221
0.00941445
0.00937253
0.0101846
0.0118187
0.0137553
0.0154734
0.0166961
0.0173437
0.0174552
0.0171248
0.0164745
0.0156444
0.0147926
0.013921
0.013017
0.0120937
0.0111831
0.0103271
0.00956843
0.00893893
0.00845202
0.00810149
0.00786727
0.00772374
0.00764625
0.0164122
0.0164621
0.0164182
0.0163633
0.0163467
0.0163024
0.0163033
0.0162856
0.0162523
0.016209
0.0161471
0.0160955
0.0160456
0.0159985
0.0159498
0.0158971
0.0158385
0.0157723
0.0156969
0.01561
0.0155092
0.0153915
0.0152534
0.0150904
0.0148968
0.0146656
0.0143881
0.0140545
0.0136552
0.013181
0.0126256
0.0119893
0.0112849
0.0105507
0.00983241
0.00925068
0.00918819
0.0100304
0.0117572
0.0138033
0.0156009
0.0168548
0.017486
0.0175379
0.0171186
0.0163599
0.0154112
0.014479
0.0135037
0.0124876
0.0114628
0.0104779
0.00958646
0.00883787
0.00826096
0.00785573
0.00759822
0.00745353
0.00738781
0.00737985
0.0164107
0.0164609
0.0164171
0.0163625
0.0163462
0.0163026
0.0163039
0.0162868
0.0162528
0.0162104
0.0161481
0.0160968
0.0160472
0.0160004
0.0159519
0.0158993
0.0158408
0.0157747
0.0156992
0.0156121
0.015511
0.0153928
0.015254
0.0150898
0.0148945
0.0146609
0.0143798
0.0140414
0.0136353
0.013152
0.0125847
0.0119332
0.0112105
0.0104555
0.00971517
0.00909979
0.00901464
0.00987307
0.0116788
0.0138268
0.0157042
0.0169952
0.0176196
0.017619
0.0171237
0.0162735
0.0152426
0.0141901
0.0130929
0.0119722
0.0108611
0.00981883
0.00891381
0.00820023
0.00769656
0.0073823
0.00721401
0.00714608
0.00714927
0.00717885
0.0164094
0.0164598
0.016416
0.0163617
0.0163458
0.0163028
0.016304
0.0162871
0.0162533
0.0162117
0.016149
0.0160981
0.0160486
0.0160021
0.0159538
0.0159014
0.015843
0.0157769
0.0157014
0.0156142
0.0155128
0.0153943
0.0152548
0.0150896
0.0148929
0.0146572
0.0143731
0.0140303
0.0136182
0.0131267
0.0125485
0.0118832
0.0111436
0.0103696
0.00960987
0.00896517
0.0088518
0.0097148
0.0115858
0.0138272
0.0157851
0.0171179
0.0177407
0.0177056
0.0171373
0.0161926
0.0150628
0.0139004
0.0127055
0.0114882
0.0102972
0.00921052
0.00831057
0.00765028
0.00722949
0.00700323
0.00691133
0.00691323
0.00694964
0.00701054
0.0164083
0.0164588
0.016415
0.0163611
0.0163455
0.0163031
0.0163039
0.0162871
0.0162538
0.0162128
0.0161498
0.0160992
0.0160499
0.0160037
0.0159556
0.0159034
0.0158451
0.0157791
0.0157035
0.0156162
0.0155147
0.0153958
0.0152558
0.0150898
0.0148919
0.0146543
0.0143675
0.0140209
0.0136035
0.0131046
0.0125167
0.0118387
0.0110837
0.010292
0.00951524
0.00884508
0.00870042
0.00955839
0.0114815
0.013809
0.0158462
0.0172269
0.017859
0.0177946
0.0171627
0.0161274
0.0148967
0.0136441
0.0123521
0.011041
0.00977706
0.00865775
0.00777711
0.00717997
0.00684141
0.00669233
0.00666928
0.00670463
0.00677289
0.0068552
0.0164073
0.0164578
0.0164141
0.0163606
0.0163454
0.0163033
0.0163037
0.0162869
0.0162543
0.0162139
0.0161506
0.0161003
0.0160512
0.0160052
0.0159573
0.0159052
0.015847
0.015781
0.0157055
0.0156182
0.0155165
0.0153974
0.0152569
0.0150903
0.0148913
0.0146521
0.014363
0.0140131
0.0135908
0.0130854
0.0124886
0.0117991
0.0110299
0.0102219
0.0094298
0.00873727
0.00856162
0.00940668
0.0113688
0.0137738
0.0158889
0.0173229
0.0179731
0.0178899
0.0172044
0.0160832
0.0147654
0.0134238
0.0120366
0.0106356
0.00930505
0.00816197
0.00730875
0.00677608
0.00651183
0.00642776
0.0064496
0.00651572
0.00660468
0.00670176
0.0164065
0.016457
0.0164133
0.0163601
0.0163455
0.0163034
0.0163034
0.0162866
0.0162548
0.0162148
0.0161513
0.0161013
0.0160523
0.0160066
0.0159588
0.0159069
0.0158488
0.0157829
0.0157074
0.0156201
0.0155183
0.0153989
0.0152581
0.0150909
0.0148911
0.0146505
0.0143594
0.0140064
0.01358
0.0130686
0.0124638
0.0117639
0.0109817
0.0101586
0.00935251
0.00864064
0.00843516
0.00926164
0.011251
0.0137244
0.0159151
0.0174068
0.0180835
0.0179925
0.0172652
0.0160677
0.0146709
0.0132421
0.011763
0.0102763
0.00888377
0.00772177
0.00689765
0.00642354
0.00621966
0.00619282
0.00624141
0.00633037
0.0064349
0.00654321
0.0164058
0.0164561
0.0164125
0.0163597
0.016346
0.0163033
0.0163031
0.0162863
0.0162554
0.0162157
0.0161519
0.0161022
0.0160533
0.0160078
0.0159603
0.0159084
0.0158504
0.0157846
0.0157092
0.0156219
0.01552
0.0154005
0.0152593
0.0150917
0.0148911
0.0146494
0.0143564
0.0140009
0.0135706
0.0130539
0.0124419
0.0117326
0.0109385
0.0101014
0.00928252
0.00855407
0.00832072
0.00912466
0.0111308
0.0136634
0.0159263
0.0174794
0.0181901
0.018102
0.0173452
0.0160834
0.0146117
0.0131003
0.0115341
0.00996575
0.0085143
0.0073341
0.00653568
0.00611119
0.0059555
0.00596719
0.00603826
0.00614293
0.00625889
0.00637602
0.0164053
0.0164554
0.0164118
0.0163594
0.0163464
0.0163031
0.0163027
0.0162859
0.016256
0.0162166
0.0161524
0.016103
0.0160542
0.016009
0.0159616
0.0159099
0.0158519
0.0157862
0.0157108
0.0156235
0.0155217
0.015402
0.0152606
0.0150925
0.0148913
0.0146486
0.0143541
0.0139962
0.0135626
0.0130412
0.0124226
0.0117047
0.0108997
0.0100497
0.00921907
0.00847643
0.00821754
0.00899662
0.0110106
0.0135937
0.0159244
0.0175412
0.0182924
0.0182168
0.0174426
0.0161281
0.0145886
0.013
0.0113525
0.00970633
0.00819663
0.00699482
0.00621415
0.00582806
0.00570977
0.00574288
0.0058323
0.00594881
0.00607358
0.00619794
0.0164048
0.0164547
0.0164111
0.0163591
0.0163465
0.0163028
0.0163023
0.0162854
0.0162566
0.0162173
0.0161529
0.0161037
0.0160551
0.01601
0.0159627
0.0159112
0.0158533
0.0157877
0.0157124
0.0156251
0.0155232
0.0154034
0.0152618
0.0150934
0.0148917
0.0146481
0.0143522
0.0139923
0.0135557
0.01303
0.0124056
0.0116799
0.010865
0.0100031
0.00916156
0.00840691
0.00812453
0.008878
0.0108924
0.0135176
0.0159127
0.017593
0.0183898
0.0183352
0.0175551
0.0162008
0.0145997
0.0129414
0.0112194
0.00949961
0.00793056
0.00670013
0.00592558
0.00556462
0.00547196
0.00552019
0.00562175
0.00574627
0.0058775
0.00600772
0.0164043
0.0164541
0.0164105
0.0163588
0.0163465
0.0163025
0.016302
0.016285
0.0162573
0.0162181
0.0161533
0.0161044
0.0160559
0.016011
0.0159638
0.0159124
0.0158546
0.0157891
0.0157138
0.0156266
0.0155246
0.0154048
0.015263
0.0150943
0.0148921
0.0146478
0.0143507
0.013989
0.0135498
0.0130203
0.0123906
0.0116578
0.0108338
0.00996096
0.0091094
0.00834474
0.00804103
0.00876901
0.0107777
0.0134372
0.0158918
0.0176351
0.0184819
0.0184547
0.01768
0.0162976
0.014638
0.0129247
0.0111362
0.00934713
0.00771622
0.0064475
0.0056653
0.00531596
0.00523894
0.00529675
0.0054051
0.00553446
0.00566997
0.00580465
0.016404
0.0164536
0.01641
0.0163586
0.0163463
0.0163022
0.0163016
0.0162846
0.0162579
0.0162187
0.0161537
0.016105
0.0160566
0.0160119
0.0159648
0.0159135
0.0158558
0.0157904
0.0157151
0.0156279
0.015526
0.0154061
0.0152642
0.0150952
0.0148926
0.0146476
0.0143495
0.0139862
0.0135446
0.0130117
0.0123773
0.0116382
0.0108059
0.009923
0.00906207
0.0082892
0.00796633
0.00866957
0.0106676
0.0133541
0.0158632
0.0176675
0.0185668
0.0185743
0.0178149
0.0164152
0.0146991
0.0129446
0.0111046
0.00925038
0.00755397
0.00623557
0.00543061
0.0050792
0.00500951
0.00507145
0.00518202
0.00531361
0.00545113
0.0055885
0.0164036
0.0164532
0.0164095
0.0163585
0.0163462
0.0163019
0.0163012
0.0162841
0.0162584
0.0162193
0.0161541
0.0161056
0.0160572
0.0160127
0.0159657
0.0159145
0.0158569
0.0157915
0.0157163
0.0156292
0.0155272
0.0154073
0.0152653
0.0150961
0.0148932
0.0146476
0.0143486
0.0139839
0.0135402
0.0130043
0.0123656
0.0116207
0.0107809
0.00988879
0.00901912
0.00823963
0.00789997
0.00857935
0.010563
0.01327
0.0158282
0.0176906
0.0186414
0.0186947
0.0179572
0.0165499
0.0147758
0.0129965
0.0111219
0.00921035
0.00744402
0.00606384
0.00522094
0.00485501
0.00478194
0.00484406
0.00495278
0.00508346
0.00522126
0.0053595
0.0164034
0.0164529
0.016409
0.0163583
0.016346
0.0163015
0.0163008
0.0162837
0.0162589
0.0162199
0.0161544
0.0161061
0.0160578
0.0160134
0.0159666
0.0159154
0.0158579
0.0157926
0.0157174
0.0156303
0.0155284
0.0154084
0.0152664
0.015097
0.0148937
0.0146477
0.0143479
0.0139819
0.0135364
0.0129977
0.0123552
0.0116051
0.0107585
0.00985795
0.00898013
0.0081954
0.00784336
0.00849781
0.0104643
0.0131861
0.0157885
0.0177062
0.0187115
0.0188103
0.018104
0.0166998
0.0148605
0.0130811
0.0111807
0.00922408
0.00738608
0.00593267
0.00503648
0.00464359
0.00455772
0.00461609
0.00471926
0.00484583
0.00498118
0.00511869
0.0164031
0.0164527
0.0164086
0.0163582
0.0163458
0.0163012
0.0163005
0.0162833
0.0162594
0.0162203
0.0161547
0.0161066
0.0160584
0.0160141
0.0159673
0.0159162
0.0158588
0.0157935
0.0157185
0.0156314
0.0155295
0.0154095
0.0152673
0.0150978
0.0148943
0.0146478
0.0143473
0.0139803
0.0135331
0.012992
0.012346
0.0115912
0.0107384
0.00983018
0.00894471
0.00815601
0.00779405
0.00842438
0.0103718
0.0131034
0.0157452
0.017715
0.0187752
0.0189224
0.0182534
0.0168658
0.0149817
0.0132024
0.0112802
0.00928184
0.00738203
0.00584328
0.00487844
0.00444584
0.00433929
0.00438935
0.00448416
0.00460299
0.00473266
0.00486628
0.0164029
0.0164525
0.0164082
0.0163581
0.0163456
0.0163008
0.0163001
0.0162829
0.0162598
0.0162207
0.016155
0.016107
0.0160588
0.0160147
0.015968
0.015917
0.0158596
0.0157944
0.0157194
0.0156323
0.0155304
0.0154104
0.0152682
0.0150986
0.0148949
0.014648
0.0143469
0.0139789
0.0135302
0.0129869
0.0123378
0.0115788
0.0107204
0.00980518
0.00891256
0.00812099
0.00775043
0.00835841
0.0102854
0.0130229
0.0156996
0.0177178
0.0188325
0.0190288
0.0184025
0.0170448
0.0151449
0.0133562
0.0114145
0.00938055
0.00742068
0.00579664
0.00474911
0.00426342
0.00412935
0.00416571
0.00425016
0.004358
0.00447876
0.00460515
0.0164028
0.0164523
0.0164078
0.016358
0.0163453
0.0163005
0.0162998
0.0162825
0.0162601
0.016221
0.0161552
0.0161074
0.0160593
0.0160152
0.0159686
0.0159176
0.0158603
0.0157952
0.0157202
0.0156332
0.0155313
0.0154113
0.0152691
0.0150994
0.0148954
0.0146482
0.0143465
0.0139777
0.0135277
0.0129825
0.0123306
0.0115677
0.0107043
0.00978266
0.0088834
0.00808973
0.00771167
0.00829922
0.0102052
0.012945
0.0156527
0.0177163
0.0188837
0.0191281
0.018548
0.0172301
0.0153384
0.0135323
0.0115751
0.00951481
0.00750302
0.00579884
0.00465218
0.00409975
0.00393
0.00394737
0.00401804
0.00411415
0.00422298
0.00433845
0.0164026
0.0164522
0.0164075
0.0163579
0.0163451
0.0163002
0.0162995
0.0162821
0.0162603
0.0162211
0.0161554
0.0161077
0.0160597
0.0160157
0.0159692
0.0159183
0.015861
0.0157959
0.015721
0.015634
0.0155322
0.0154122
0.0152699
0.0151001
0.0148959
0.0146484
0.0143463
0.0139767
0.0135255
0.0129786
0.0123242
0.0115578
0.0106899
0.00976238
0.00885696
0.00806165
0.00767714
0.00824619
0.010131
0.0128703
0.0156053
0.0177117
0.0189297
0.0192207
0.018687
0.0174149
0.0155549
0.0137196
0.0117525
0.00967762
0.00762465
0.00584038
0.00459072
0.00395843
0.00374425
0.00373614
0.00379114
0.00387263
0.00396763
0.0040703
0.0164025
0.0164521
0.0164073
0.0163579
0.0163449
0.0162999
0.0162992
0.0162818
0.0162604
0.0162212
0.0161556
0.016108
0.01606
0.0160162
0.0159697
0.0159188
0.0158616
0.0157966
0.0157217
0.0156348
0.0155329
0.0154129
0.0152706
0.0151007
0.0148964
0.0146487
0.0143461
0.0139758
0.0135236
0.0129751
0.0123185
0.011549
0.0106769
0.00974413
0.00883298
0.00803497
0.00764622
0.00819874
0.0100625
0.0127991
0.015558
0.0177042
0.0189702
0.0193069
0.0188176
0.0175927
0.0157847
0.0139064
0.0119378
0.00986187
0.00778152
0.00592511
0.00457126
0.00384236
0.00357537
0.00353366
0.00357255
0.00363732
0.00371573
0.0038023
0.0164023
0.016452
0.016407
0.016358
0.0163447
0.0162996
0.0162989
0.0162815
0.0162605
0.0162212
0.0161558
0.0161083
0.0160604
0.0160166
0.0159701
0.0159193
0.0158622
0.0157972
0.0157224
0.0156354
0.0155336
0.0154136
0.0152713
0.0151013
0.0148969
0.0146489
0.014346
0.0139751
0.0135219
0.012972
0.0123134
0.0115412
0.0106653
0.00972768
0.00881125
0.00800999
0.00761813
0.00815631
0.00999948
0.0127315
0.0155112
0.0176942
0.0190056
0.0193859
0.0189384
0.0177576
0.0159964
0.0140818
0.0121239
0.0100602
0.00796748
0.00605067
0.00459195
0.00375315
0.00342326
0.00334403
0.00336479
0.00341097
0.00347037
0.00353764
0.0164022
0.016452
0.0164068
0.0163581
0.0163445
0.0162993
0.0162986
0.0162812
0.0162605
0.0162212
0.0161559
0.0161086
0.0160607
0.0160169
0.0159706
0.0159198
0.0158627
0.0157977
0.0157229
0.015636
0.0155342
0.0154142
0.0152719
0.0151019
0.0148973
0.0146492
0.0143459
0.0139745
0.0135205
0.0129693
0.0123089
0.0115341
0.0106549
0.00971288
0.00879159
0.00798728
0.00759264
0.00811841
0.00994159
0.0126677
0.0154655
0.0176822
0.0190359
0.0194579
0.0190491
0.0179091
0.016188
0.0142402
0.0123046
0.0102659
0.0081749
0.00621211
0.00465085
0.00369424
0.0032894
0.00316951
0.00316927
0.00319579
0.00323441
0.00327943
0.0164022
0.0164519
0.0164067
0.0163581
0.0163443
0.0162991
0.0162984
0.0162809
0.0162606
0.0162212
0.0161561
0.0161088
0.0160609
0.0160173
0.0159709
0.0159202
0.0158631
0.0157982
0.0157235
0.0156366
0.0155348
0.0154148
0.0152724
0.0151024
0.0148978
0.0146494
0.0143459
0.0139739
0.0135192
0.0129669
0.0123048
0.0115278
0.0106456
0.00969954
0.0087738
0.00796675
0.00756962
0.00808456
0.00988852
0.0126078
0.0154212
0.0176686
0.0190617
0.0195233
0.0191497
0.0180476
0.0163614
0.014378
0.0124756
0.01047
0.00839547
0.00640276
0.00474961
0.00367276
0.00317548
0.00301361
0.00298558
0.00299352
0.00301119
0.00303273
0.0164021
0.0164519
0.0164066
0.0163581
0.0163441
0.0162988
0.0162982
0.0162806
0.0162606
0.0162212
0.0161562
0.016109
0.0160612
0.0160176
0.0159713
0.0159206
0.0158636
0.0157987
0.0157239
0.0156371
0.0155353
0.0154153
0.015273
0.0151029
0.0148981
0.0146496
0.0143458
0.0139735
0.013518
0.0129648
0.0123012
0.0115222
0.0106372
0.00968753
0.00875771
0.00794819
0.00754893
0.00805433
0.00983995
0.0125516
0.0153785
0.0176538
0.0190834
0.0195826
0.0192404
0.0181736
0.0165187
0.0144979
0.0126371
0.010667
0.00861976
0.00661428
0.00488441
0.00368773
0.00308473
0.00287346
0.00281551
0.0028037
0.00280142
0.00279982
0.016402
0.0164519
0.0164064
0.016358
0.016344
0.0162986
0.016298
0.0162804
0.0162606
0.0162211
0.0161563
0.0161092
0.0160614
0.0160179
0.0159716
0.015921
0.0158639
0.0157991
0.0157244
0.0156376
0.0155358
0.0154158
0.0152734
0.0151033
0.0148985
0.0146498
0.0143458
0.0139731
0.0135171
0.0129629
0.012298
0.0115171
0.0106297
0.00967671
0.00874317
0.00793144
0.00753038
0.00802733
0.00979556
0.0124992
0.0153377
0.0176383
0.0191016
0.0196365
0.019322
0.0182882
0.016662
0.0146185
0.0127899
0.0108543
0.00883824
0.00683834
0.00504876
0.00373427
0.00301647
0.00274738
0.00265685
0.00262391
0.00260124
0.00257638
0.016402
0.0164519
0.0164064
0.016358
0.0163438
0.0162984
0.0162978
0.0162802
0.0162606
0.0162211
0.0161564
0.0161094
0.0160616
0.0160181
0.0159719
0.0159213
0.0158643
0.0157995
0.0157248
0.015638
0.0155363
0.0154163
0.0152739
0.0151037
0.0148988
0.01465
0.0143458
0.0139727
0.0135162
0.0129612
0.0122952
0.0115126
0.0106229
0.00966696
0.00873003
0.00791632
0.0075138
0.00800322
0.00975504
0.0124505
0.0152989
0.0176223
0.0191167
0.0196839
0.019395
0.0183924
0.0167924
0.0147428
0.0129335
0.0110298
0.00904718
0.00706234
0.00523562
0.00381424
0.00297403
0.00263427
0.00250548
0.00244439
0.00239576
0.00235558
0.0164019
0.0164519
0.0164063
0.0163579
0.0163437
0.0162982
0.0162976
0.0162799
0.0162606
0.0162211
0.0161565
0.0161096
0.0160618
0.0160183
0.0159721
0.0159216
0.0158646
0.0157998
0.0157251
0.0156384
0.0155366
0.0154167
0.0152743
0.0151041
0.0148991
0.0146502
0.0143458
0.0139724
0.0135154
0.0129597
0.0122926
0.0115086
0.0106169
0.00965818
0.00871816
0.00790268
0.007499
0.00798166
0.00971809
0.0124054
0.0152622
0.0176061
0.0191284
0.019725
0.0194604
0.018487
0.0169119
0.0148662
0.0130669
0.0111924
0.00924386
0.00728035
0.00543506
0.00392582
0.00296713
0.00253419
0.00236801
0.00228865
0.0022263
0.00216261
0.0164019
0.0164519
0.0164062
0.0163579
0.0163435
0.016298
0.0162974
0.0162798
0.0162605
0.016221
0.0161566
0.0161097
0.0160619
0.0160185
0.0159724
0.0159218
0.0158649
0.0158001
0.0157255
0.0156387
0.015537
0.015417
0.0152746
0.0151044
0.0148994
0.0146504
0.0143458
0.0139722
0.0135147
0.0129583
0.0122903
0.0115049
0.0106114
0.00965026
0.00870743
0.00789037
0.00748583
0.00796238
0.00968444
0.0123636
0.0152276
0.0175901
0.0191373
0.0197608
0.0195191
0.0185724
0.0170216
0.0149865
0.0131899
0.0113416
0.00942672
0.00748848
0.00563641
0.00406087
0.00298767
0.00245766
0.00225826
0.00215713
0.00207463
0.00198377
0.0164018
0.0164519
0.0164062
0.0163578
0.0163434
0.0162978
0.0162973
0.0162796
0.0162605
0.016221
0.0161567
0.0161098
0.0160621
0.0160187
0.0159726
0.015922
0.0158651
0.0158004
0.0157258
0.015639
0.0155373
0.0154174
0.0152749
0.0151047
0.0148997
0.0146506
0.0143459
0.013972
0.0135141
0.0129571
0.0122882
0.0115017
0.0106065
0.00964312
0.00869774
0.00787926
0.00747413
0.00794513
0.0096538
0.0123251
0.0151953
0.0175744
0.0191437
0.0197924
0.0195716
0.0186499
0.0171226
0.0151022
0.013302
0.0114776
0.00959507
0.00768415
0.00583431
0.00420892
0.00303226
0.00240729
0.00216629
0.00204002
0.00193494
0.00181409
0.0164018
0.0164519
0.0164062
0.0163578
0.0163433
0.0162977
0.0162971
0.0162794
0.0162605
0.016221
0.0161568
0.01611
0.0160622
0.0160189
0.0159728
0.0159223
0.0158653
0.0158006
0.015726
0.0156393
0.0155376
0.0154177
0.0152752
0.015105
0.0148999
0.0146507
0.0143459
0.0139718
0.0135135
0.0129561
0.0122864
0.0114987