/*--------------------------------*- C++ -*----------------------------------*\
  =========                 |
  \\      /  F ield         | OpenFOAM: The Open Source CFD Toolbox
   \\    /   O peration     | Website:  https://openfoam.org
    \\  /    A nd           | Version:  9
     \\/     M anipulation  |
\*---------------------------------------------------------------------------*/
FoamFile
{
    format      ascii;
    class       surfaceScalarField;
    location    "0.0275";
    object      phi;
}
// * * * * * * * * * * * * * * * * * * * * * * * * * * * * * * * * * * * * * //

dimensions      [1 0 -1 0 0 0 0];

internalField   nonuniform List<scalar> 
12053
(
0.000249454
1.07762e-05
0.000207106
4.23473e-05
-0.000131218
0.000338323
0.000364296
4.76842e-06
0.000353307
5.33359e-05
-0.000189956
0.000412045
0.000386112
-6.53258e-06
0.000383533
5.59125e-05
-0.000231894
0.000425471
0.000387863
-1.69901e-05
0.000390513
5.32628e-05
-0.000269645
0.000428264
0.00038703
-2.42677e-05
0.000396538
4.37534e-05
-0.000303334
0.000430227
0.000386447
-2.92327e-05
0.000399672
3.05289e-05
-0.000333023
0.00042936
0.000386791
-3.29457e-05
0.000399943
1.73754e-05
-0.000358241
0.000425161
0.000387333
-3.57327e-05
0.000400052
4.65702e-06
-0.000376653
0.000418463
0.000387853
-3.75906e-05
0.000400219
-7.71225e-06
-0.000384244
0.000407811
0.000388253
-3.84638e-05
0.000400399
-1.98582e-05
-0.000374657
0.000390812
0.000388622
-3.83958e-05
0.000400562
-3.18019e-05
-0.000342919
0.000368824
0.000389363
-3.76905e-05
0.000399816
-4.22518e-05
-0.000282594
0.00033949
0.000388485
-3.5235e-05
0.000395684
-4.94506e-05
-0.00018801
0.0003011
0.000368417
-2.5141e-05
0.000363431
-4.44646e-05
-6.9241e-05
0.000244662
0.000253702
0.000209238
0.000139997
-0.000981648
0.298465
-0.000989224
0.271786
-0.000991809
0.255662
-0.00099516
0.236677
-0.00100723
0.22089
-0.0010168
0.205135
-0.00103432
0.191116
-0.00105123
0.177792
-0.00107351
0.165587
-0.00109672
0.154105
-0.00112424
0.143486
-0.00115339
0.133553
0.124322
-0.0317558
-0.228743
-0.0253017
-0.213028
-0.0192674
-0.199716
-0.0137438
-0.186541
-0.00859632
-0.174688
-0.00386147
-0.163194
0.000536556
-0.152821
0.00461609
-0.142899
0.00840842
-0.133741
0.0119376
-0.125144
0.0152201
-0.117107
0.0182777
-0.109584
0.0211264
-0.102542
0.0237817
-0.0959512
0.0262578
-0.0897822
0.0285677
-0.0840091
0.0307236
-0.0786074
0.0327363
-0.0735535
0.0346161
-0.0688254
0.0363728
-0.0644022
0.0380152
-0.0602644
0.0395514
-0.0563933
0.0409888
-0.0527717
0.0423342
-0.0493834
0.043594
-0.0462132
0.0447738
-0.0432469
0.0458793
-0.0404713
0.0469151
-0.0378741
0.0478861
-0.0354437
0.0487964
-0.0331695
0.04965
-0.0310413
0.0504505
-0.0290498
0.0512014
-0.0271861
0.0519055
-0.0254418
0.052566
-0.0238096
0.0531858
-0.0222825
0.0537676
-0.0208534
0.0543134
-0.0195159
0.0548255
-0.0182642
0.0553059
-0.0170927
0.0557564
-0.0159963
0.0561787
-0.01497
0.0565742
-0.0140092
0.0569443
-0.0131097
0.0572901
-0.0122673
0.0576127
-0.0114784
0.0579131
-0.0107395
0.0581922
-0.0100473
0.058451
-0.00939887
0.0586904
-0.00879146
0.0589114
-0.00822251
0.059115
-0.00768969
0.0593021
-0.00719076
0.0594738
-0.00672364
0.059631
-0.00628638
0.0597748
-0.00587716
0.0599062
-0.00549425
0.060026
-0.00513603
0.0601352
-0.00480096
-0.00448749
0.0602345
-0.0284446
-0.235261
-0.0226532
-0.218819
-0.0172026
-0.205167
-0.0122536
-0.19149
-0.00762952
-0.179312
-0.00340411
-0.167419
0.000531495
-0.156757
0.00416647
-0.146534
0.00754004
-0.137115
0.0106707
-0.128275
0.0135819
-0.120018
0.0162904
-0.112292
0.0188125
-0.105064
0.0211626
-0.0983013
0.0233542
-0.0919738
0.0253998
-0.0860547
0.0273108
-0.0805184
0.0290978
-0.0753405
0.0307701
-0.0704976
0.0323353
-0.0659675
0.0338011
-0.0617302
0.0351745
-0.0577667
0.0364619
-0.0540591
0.0376689
-0.0505904
0.0388008
-0.0473451
0.0398624
-0.0443085
0.0408581
-0.0414669
0.0417918
-0.0388079
0.0426675
-0.0363194
0.0434885
-0.0339906
0.0442583
-0.0318111
0.0449799
-0.0297713
0.0456562
-0.0278624
0.0462902
-0.0260759
0.0468845
-0.0244039
0.0474412
-0.0228393
0.0479627
-0.0213749
0.0484513
-0.0200044
0.0489087
-0.0187216
0.0493368
-0.0175208
0.049737
-0.0163964
0.0501104
-0.0153433
0.0504578
-0.0143566
0.0507799
-0.0134318
0.0510772
-0.0125646
0.0513501
-0.0117514
0.0515991
-0.0109885
0.0518247
-0.0102729
0.0520278
-0.00960192
0.0522092
-0.00897285
0.05237
-0.0083833
0.0525114
-0.00783109
0.0526347
-0.00731412
0.0527414
-0.00683037
0.052833
-0.00637793
0.0529108
-0.00595499
0.0529763
-0.00555976
0.0530309
-0.00519057
0.0530757
-0.00484578
-0.00452389
0.0531121
-0.0254724
-0.241173
-0.0202494
-0.224042
-0.0153326
-0.210084
-0.0108768
-0.195946
-0.00671878
-0.18347
-0.00292075
-0.171217
0.000607114
-0.160285
0.00385212
-0.149779
0.00686671
-0.14013
0.00965604
-0.131064
0.0122482
-0.12261
0.0146561
-0.1147
0.0168955
-0.107304
0.0189798
-0.100386
0.0209217
-0.0939157
0.0227324
-0.0878655
0.0244223
-0.0822083
0.0260006
-0.0769188
0.0274755
-0.0719726
0.0288552
-0.0673472
0.0301464
-0.0630214
0.0313553
-0.0589756
0.0324874
-0.0551912
0.033548
-0.051651
0.0345418
-0.0483389
0.0354732
-0.0452399
0.0363462
-0.0423399
0.0371646
-0.0396262
0.0379318
-0.0370866
0.0386511
-0.0347099
0.0393256
-0.0324856
0.0399582
-0.0304039
0.0405515
-0.0284557
0.0411081
-0.0266325
0.0416303
-0.0249261
0.0421203
-0.0233292
0.0425799
-0.0218345
0.0430109
-0.0204354
0.0434147
-0.0191254
0.0437921
-0.0178982
0.0441437
-0.016748
0.0444695
-0.0156692
0.0447693
-0.0146564
0.0450425
-0.013705
0.0452887
-0.0128108
0.0455076
-0.0119703
0.0456995
-0.0111803
0.0458647
-0.0104382
0.0460044
-0.00974163
0.04612
-0.00908846
0.0462133
-0.00847659
0.0462863
-0.00790403
0.046341
-0.00736882
0.0463796
-0.006869
0.0464043
-0.0064026
0.046417
-0.0059677
0.0464196
-0.00556238
0.0464138
-0.0051848
0.0464012
-0.00483315
-0.0045057
0.046383
-0.0227151
-0.246541
-0.0180152
-0.228742
-0.0135776
-0.214521
-0.00957273
-0.19995
-0.00583889
-0.187204
-0.00243861
-0.174617
0.000714575
-0.163438
0.00361317
-0.152677
0.00630177
-0.142818
0.0087818
-0.133544
0.0110797
-0.124908
0.0132108
-0.116831
0.0151905
-0.109283
0.0170303
-0.102225
0.0187425
-0.0956278
0.0203375
-0.0894605
0.0218251
-0.0836959
0.023214
-0.0783077
0.0245121
-0.0732707
0.0257257
-0.0685608
0.0268612
-0.0641568
0.0279243
-0.0600386
0.0289201
-0.056187
0.0298533
-0.0525842
0.030728
-0.0492137
0.0315482
-0.04606
0.0323173
-0.043109
0.0330386
-0.0403475
0.0337151
-0.0377631
0.0343497
-0.0353445
0.034945
-0.0330809
0.0355034
-0.0309624
0.0360274
-0.0289797
0.0365191
-0.0271242
0.0369806
-0.0253876
0.0374137
-0.0237622
0.0378199
-0.0222407
0.0382004
-0.0208159
0.0385558
-0.0194808
0.0388859
-0.0182283
0.0391897
-0.0170519
0.0394657
-0.0159451
0.0397119
-0.0149026
0.0399266
-0.0139197
0.0401085
-0.0129927
0.040257
-0.0121189
0.0403728
-0.0112961
0.0404574
-0.0105227
0.0405129
-0.0097971
0.040542
-0.00911763
0.0405481
-0.00848263
0.0405343
-0.00789022
0.0405038
-0.00733838
0.0404598
-0.00682499
0.0404051
-0.00634784
0.0403421
-0.00590471
0.0402731
-0.00549339
0.0402
-0.00511171
0.0401244
-0.0047576
-0.00442907
0.0400478
-0.020213
-0.251417
-0.0159867
-0.232968
-0.0119806
-0.218527
-0.00837734
-0.203554
-0.00502469
-0.190557
-0.00197883
-0.177663
0.000839582
-0.166256
0.0034244
-0.155262
0.00581624
-0.14521
0.00801837
-0.135746
0.0100562
-0.126946
0.0119397
-0.118715
0.0136857
-0.111029
0.0153049
-0.103845
0.0168088
-0.0971317
0.0182075
-0.0908591
0.0195101
-0.0849985
0.0207246
-0.0795222
0.0218583
-0.0744044
0.0229175
-0.06962
0.0239077
-0.065147
0.0248342
-0.0609651
0.0257016
-0.0570544
0.0265141
-0.0533968
0.0272756
-0.0499752
0.0279896
-0.046774
0.0286592
-0.0437786
0.0292873
-0.0409756
0.0298767
-0.0383525
0.0304299
-0.0358977
0.0309492
-0.0336002
0.031437
-0.0314501
0.0318952
-0.0294379
0.0323257
-0.0275547
0.0327304
-0.0257923
0.0331107
-0.0241425
0.0334677
-0.0225977
0.0338017
-0.02115
0.0341121
-0.0197911
0.0343967
-0.018513
0.0346524
-0.0173076
0.0348753
-0.016168
0.0350615
-0.0150889
0.0352083
-0.0140665
0.0353144
-0.0130987
0.0353802
-0.0121847
0.0354079
-0.0113239
0.0354012
-0.010516
0.0353643
-0.0097602
0.035302
-0.00905539
0.0352193
-0.00839986
0.0351205
-0.00779151
0.0350101
-0.00722794
0.0348916
-0.00670652
0.0347683
-0.00622452
0.0346428
-0.0057792
0.0345173
-0.00536786
0.0343935
-0.00498792
0.0342728
-0.0046369
-0.00431247
0.0341562
-0.0179556
-0.255845
-0.014153
-0.236771
-0.0105407
-0.22214
-0.00729734
-0.206797
-0.00428607
-0.193568
-0.00155708
-0.180392
0.000962287
-0.168776
0.00326661
-0.157566
0.00539432
-0.147338
0.00734801
-0.1377
0.00915293
-0.128751
0.0108141
-0.120376
0.0123501
-0.112565
0.013771
-0.105266
0.0150875
-0.0984482
0.0163091
-0.0920807
0.0174445
-0.0861338
0.0185013
-0.0805789
0.0194864
-0.0753895
0.0204057
-0.0705394
0.0212643
-0.0660056
0.0220668
-0.0617676
0.0228177
-0.0578053
0.0235208
-0.0540999
0.0241796
-0.050634
0.0247973
-0.0473916
0.0253765
-0.0443579
0.0259201
-0.0415192
0.0264303
-0.0388628
0.0269095
-0.0363768
0.0273596
-0.0340504
0.0277828
-0.0318733
0.0281807
-0.0298359
0.0285551
-0.0279292
0.0289075
-0.0261446
0.0292389
-0.024474
0.0295499
-0.0229087
0.0298396
-0.0214397
0.0301053
-0.0200569
0.0303423
-0.0187499
0.0305443
-0.0175096
0.0307048
-0.0163286
0.0308188
-0.0152028
0.0308835
-0.0141312
0.0308995
-0.0131147
0.0308698
-0.012155
0.0307999
-0.0112539
0.030696
-0.0104121
0.0305652
-0.00962943
0.0304143
-0.00890445
0.0302495
-0.008235
0.0300762
-0.00761821
0.029899
-0.00705083
0.0297219
-0.0065294
0.0295478
-0.00605039
0.029379
-0.00561037
0.0292171
-0.00520603
0.0290635
-0.00483425
0.0289187
-0.00449216
-0.00417708
0.0287833
-0.0159332
-0.259865
-0.01251
-0.240194
-0.00925283
-0.225397
-0.00633598
-0.209714
-0.00362804
-0.196276
-0.00118049
-0.18284
0.00107209
-0.171028
0.00312688
-0.159621
0.00501986
-0.149231
0.00675244
-0.139433
0.00834865
-0.130347
0.00981374
-0.121841
0.011163
-0.113915
0.012407
-0.10651
0.0135562
-0.0995974
0.0146191
-0.0931437
0.0156044
-0.0871191
0.0165192
-0.0814937
0.01737
-0.0762403
0.0181627
-0.071332
0.0189018
-0.0667447
0.0195916
-0.0624574
0.0202361
-0.0584499
0.0208391
-0.0547029
0.0214037
-0.0511985
0.0219326
-0.0479206
0.0224286
-0.0448539
0.022894
-0.0419846
0.0233309
-0.0392997
0.0237414
-0.0367873
0.0241273
-0.0344363
0.0244904
-0.0322364
0.0248323
-0.0301778
0.0251545
-0.0282513
0.0254581
-0.0264483
0.0257441
-0.0247599
0.026012
-0.0231767
0.0262595
-0.0216872
0.0264809
-0.0202783
0.0266681
-0.0189371
0.0268112
-0.0176527
0.0269017
-0.0164191
0.0269347
-0.0152358
0.0269098
-0.0141063
0.0268311
-0.0130359
0.0267056
-0.0120296
0.0265424
-0.0110907
0.026351
-0.0102207
0.0261404
-0.00941882
0.0259187
-0.00868279
0.0256929
-0.00800918
0.0254685
-0.00739387
0.0252501
-0.00683236
0.0250407
-0.00632007
0.0248429
-0.00585253
0.024658
-0.00542551
0.024487
-0.00503502
0.0243302
-0.00467744
0.0241875
-0.00434946
-0.00404814
0.0240586
-0.0141299
-0.263514
-0.0110469
-0.243277
-0.00810793
-0.228336
-0.00548521
-0.212337
-0.00305097
-0.19871
-0.000851776
-0.185039
0.00116242
-0.173043
0.00299606
-0.161455
0.00468113
-0.150916
0.00621803
-0.14097
0.00762993
-0.131759
0.00892183
-0.123133
0.0101059
-0.115099
0.011193
-0.107597
0.0121939
-0.100598
0.013116
-0.0940659
0.0139677
-0.0879708
0.0147557
-0.0822817
0.015486
-0.0769707
0.0161651
-0.0720111
0.016797
-0.0673765
0.0173853
-0.0630458
0.017934
-0.0589986
0.0184464
-0.0552153
0.0189254
-0.0516776
0.0193739
-0.048369
0.019794
-0.045274
0.0201881
-0.0423786
0.020558
-0.0396696
0.0209057
-0.0371349
0.0212327
-0.0347633
0.0215406
-0.0325443
0.0218309
-0.0304681
0.0221049
-0.0285253
0.0223636
-0.026707
0.0226076
-0.0250039
0.0228354
-0.0234045
0.0230425
-0.0218942
0.0232197
-0.0204555
0.0233544
-0.0190718
0.0234338
-0.017732
0.0234487
-0.016434
0.0233965
-0.0151837
0.0232812
-0.013991
0.0231115
-0.0128662
0.0228992
-0.0118172
0.0226565
-0.0108481
0.0223953
-0.00995951
0.0221259
-0.00914945
0.021857
-0.00841383
0.0215952
-0.00774743
0.0213458
-0.00714441
0.0211122
-0.00659879
0.0208968
-0.00610473
0.020701
-0.00565668
0.0205251
-0.00524962
0.0203691
-0.00487903
0.0202324
-0.00454073
0.020114
-0.00423102
-0.00394675
0.0200126
-0.012528
-0.266826
-0.00975001
-0.246055
-0.00709715
-0.230989
-0.00473625
-0.214697
-0.00254803
-0.200899
-0.000572394
-0.187014
0.00123043
-0.174845
0.00286879
-0.163093
0.00437032
-0.152417
0.00573473
-0.142334
0.00698411
-0.133008
0.0081218
-0.124271
0.00916226
-0.116139
0.0101117
-0.108546
0.010982
-0.101469
0.0117801
-0.0948639
0.0125139
-0.0887046
0.0131897
-0.0829575
0.0138137
-0.0775946
0.0143912
-0.0725886
0.014927
-0.0679124
0.0154245
-0.0635433
0.0158871
-0.0594612
0.016318
-0.0556461
0.01672
-0.0520796
0.0170955
-0.0487445
0.0174469
-0.0456254
0.0177761
-0.0427078
0.018085
-0.0399785
0.0183751
-0.0374251
0.018648
-0.0350362
0.0189052
-0.0328014
0.0191478
-0.0307107
0.0193773
-0.0287547
0.0195944
-0.0269241
0.0197993
-0.0252088
0.0199896
-0.0235948
0.0201579
-0.0220626
0.0202909
-0.0205885
0.0203714
-0.0191523
0.0203846
-0.0177452
0.0203229
-0.0163723
0.020188
-0.0150487
0.0199892
-0.0137922
0.0197407
-0.0126177
0.0194578
-0.0115343
0.0191554
-0.0105457
0.0188466
-0.00965074
0.0185422
-0.00884498
0.0182503
-0.00812199
0.0179772
-0.0074743
0.0177269
-0.00689412
0.0175019
-0.00637378
0.0173034
-0.00590623
0.0171315
-0.00548484
0.0169856
-0.00510363
0.0168641
-0.00475757
0.0167655
-0.00444211
0.0166878
-0.00415334
-0.00388785
0.0166289
-0.0111088
-0.269831
-0.00860452
-0.248559
-0.00620912
-0.233384
-0.00408201
-0.216825
-0.00211279
-0.202868
-0.00034049
-0.188787
0.00127667
-0.176463
0.0027424
-0.164559
0.00408193
-0.153757
0.00529457
-0.143547
0.00640119
-0.134115
0.00740435
-0.125274
0.00831853
-0.117053
0.00914752
-0.109375
0.00990347
-0.102225
0.0105929
-0.0955534
0.0112233
-0.0893349
0.0118006
-0.0835349
0.0123307
-0.0781248
0.0128184
-0.0730763
0.0132694
-0.0683634
0.0136866
-0.0639605
0.0140728
-0.0598473
0.014431
-0.0560044
0.0147641
-0.0524127
0.0150744
-0.0490548
0.015364
-0.045915
0.0156347
-0.0429786
0.0158884
-0.0402321
0.0161265
-0.0376632
0.0163503
-0.03526
0.0165611
-0.0330122
0.0167601
-0.0309098
0.0169486
-0.0289432
0.0171274
-0.0271029
0.0172963
-0.0253777
0.0174518
-0.0237503
0.0175835
-0.0221942
0.0176731
-0.0206781
0.0176998
-0.019179
0.0176481
-0.0176935
0.0175138
-0.0162381
0.0173045
-0.0148394
0.0170351
-0.0135228
0.016724
-0.0123066
0.0163895
-0.0111998
0.0160479
-0.0102042
0.0157127
-0.00931556
0.0153944
-0.00852662
0.0151004
-0.00782802
0.0148359
-0.00720979
0.0146038
-0.00666207
0.0144055
-0.00617541
0.0142405
-0.00574128
0.0141078
-0.00535214
0.0140054
-0.00500124
0.0139306
-0.00468277
0.0138804
-0.0043919
0.0138516
-0.0041245
-0.00387739
0.0138411
-0.00985377
-0.272556
-0.00759527
-0.250818
-0.00543195
-0.235548
-0.00351419
-0.218742
-0.00174143
-0.204641
-0.000149801
-0.190378
0.00130283
-0.177915
0.00261553
-0.165872
0.00381188
-0.154953
0.00489102
-0.144626
0.00587242
-0.135096
0.00675807
-0.12616
0.00756181
-0.117857
0.008286
-0.110099
0.00894235
-0.102881
0.00953738
-0.0961484
0.0100778
-0.0898754
0.0105695
-0.0840265
0.0110178
-0.0785731
0.0114275
-0.073486
0.0118037
-0.0687396
0.01215
-0.0643068
0.0124689
-0.0601663
0.0127631
-0.0562986
0.0130353
-0.0526848
0.0132876
-0.0493071
0.0135222
-0.0461495
0.0137407
-0.0431971
0.0139449
-0.0404363
0.0141361
-0.0378544
0.0143156
-0.0354396
0.0144846
-0.0331811
0.014644
-0.0310692
0.0147951
-0.0290943
0.0149388
-0.0272466
0.0150748
-0.0255137
0.0151983
-0.0238739
0.0152958
-0.0222916
0.0153443
-0.0207266
0.0153198
-0.0191545
0.015208
-0.0175817
0.0150097
-0.0160398
0.014738
-0.0145677
0.014413
-0.0131978
0.0140563
-0.0119499
0.0136881
-0.0108316
0.0133252
-0.00984123
0.0129809
-0.00897129
0.012665
-0.0082107
0.0123843
-0.00754732
0.0121427
-0.00696824
0.0119418
-0.00646111
0.0117813
-0.00601494
0.0116597
-0.00561973
0.0115742
-0.00526656
0.0115209
-0.00494793
0.0114957
-0.00465764
0.0114946
-0.0043908
0.0115135
-0.00414341
-0.00391265
0.0115488
-0.00874521
-0.275027
-0.0067076
-0.252856
-0.00475346
-0.237502
-0.00302353
-0.220472
-0.0014274
-0.206237
4.94455e-06
-0.191811
0.00131059
-0.179221
0.00248754
-0.167049
0.00355728
-0.156023
0.004519
-0.145588
0.00539054
-0.135968
0.00617333
-0.126942
0.00688003
-0.118564
0.00751438
-0.110734
0.00808462
-0.103451
0.00859792
-0.0966617
0.00906077
-0.0903383
0.00947833
-0.0844441
0.00985604
-0.0789508
0.0101983
-0.0738283
0.0105092
-0.0690504
0.0107938
-0.0645914
0.0110543
-0.0604267
0.0112926
-0.056537
0.0115115
-0.0529036
0.011713
-0.0495087
0.0118991
-0.0463357
0.0120716
-0.0433696
0.0122319
-0.0405967
0.0123815
-0.0380039
0.0125215
-0.0355796
0.012653
-0.0333126
0.0127768
-0.031193
0.0128941
-0.0292116
0.013006
-0.0273585
0.013112
-0.0256198
0.0132065
-0.0239684
0.0132729
-0.022358
0.0132838
-0.0207375
0.0132131
-0.0190839
0.013049
-0.0174176
0.0127972
-0.015788
0.0124763
-0.0142468
0.0121102
-0.0128317
0.0117228
-0.0115625
0.0113351
-0.0104439
0.0109642
-0.00947032
0.0106229
-0.00863002
0.0103206
-0.00790837
0.0100627
-0.00728947
0.00985187
-0.00675737
0.00968846
-0.00629771
0.00957074
-0.00589722
0.00949496
-0.00554396
0.00945631
-0.00522791
0.00944952
-0.00494114
0.00946943
-0.00467755
0.00951113
-0.00443249
0.00957021
-0.0042025
-0.00398499
0.00964256
-0.00776663
-0.277267
-0.0059277
-0.254694
-0.00416211
-0.239267
-0.00260084
-0.222034
-0.00116321
-0.207674
0.000127702
-0.193102
0.00130202
-0.180395
0.00235847
-0.168105
0.00331615
-0.156981
0.00417451
-0.146446
0.00494968
-0.136743
0.00564267
-0.127635
0.0062655
-0.119187
0.00682172
-0.11129
0.00731758
-0.103947
0.0077604
-0.0971045
0.00815666
-0.0907345
0.00851075
-0.0847981
0.00882793
-0.079268
0.00911229
-0.0741127
0.00936797
-0.0693061
0.00959903
-0.0648225
0.00980868
-0.0606364
0.00999884
-0.0567271
0.0101716
-0.0530763
0.010329
-0.0496661
0.0104731
-0.0464798
0.0106055
-0.043502
0.0107275
-0.0407187
0.0108406
-0.038117
0.0109457
-0.0356848
0.0110441
-0.033411
0.0111365
-0.0312854
0.0112236
-0.0292987
0.0113068
-0.0274417
0.011386
-0.0256989
0.0114546
-0.024037
0.0114934
-0.0223967
0.0114713
-0.0207155
0.0113612
-0.0189737
0.0111538
-0.0172102
0.0108598
-0.015494
0.0105019
-0.0138889
0.0101069
-0.0124367
0.00970017
-0.0111557
0.00930318
-0.0100469
0.00893291
-0.00910005
0.008602
-0.00829911
0.00831873
-0.00762509
0.00808741
-0.00705816
0.00790993
-0.00657988
0.00778491
-0.00617269
0.00770805
-0.00582036
0.00767356
-0.00550947
0.00767528
-0.00522962
0.00770704
-0.0049729
0.00776289
-0.0047334
0.0078373
-0.00450691
0.00792528
-0.00429048
-0.00408226
0.00802256
-0.00690294
-0.279297
-0.00524287
-0.256355
-0.00364756
-0.240863
-0.0022374
-0.223444
-0.000942108
-0.20897
0.000222573
-0.194266
0.00127951
-0.181452
0.00222883
-0.169054
0.00308718
-0.157839
0.00385446
-0.147213
0.00454499
-0.137434
0.00515962
-0.12825
0.00570937
-0.119736
0.00619677
-0.111777
0.00662985
-0.10438
0.00701239
-0.0974871
0.00735172
-0.0910738
0.00765171
-0.0850981
0.00791739
-0.0795337
0.00815262
-0.0743479
0.00836126
-0.0695147
0.00854632
-0.0650076
0.00871287
-0.0608029
0.00886203
-0.0568763
0.00899554
-0.0532098
0.0091154
-0.049786
0.0092235
-0.0465878
0.0093214
-0.0435999
0.00941048
-0.0408078
0.00949198
-0.0381985
0.00956695
-0.0357598
0.00963637
-0.0334804
0.0097011
-0.0313501
0.00976213
-0.0293597
0.00982017
-0.0274998
0.00987549
-0.0257542
0.00992145
-0.024083
0.00993675
-0.022412
0.00988738
-0.0206661
0.00974531
-0.0188316
0.00950411
-0.016969
0.00917835
-0.0151682
0.00879402
-0.0135046
0.0083797
-0.0120224
0.00796162
-0.0107376
0.00756165
-0.00964692
0.00719675
-0.00873515
0.0068789
-0.00798126
0.00661552
-0.00736171
0.00641082
-0.00685346
0.00626492
-0.00643398
0.00617354
-0.00608131
0.00613047
-0.00577729
0.00612881
-0.00550781
0.00616133
-0.00526215
0.00622091
-0.00503247
0.00630085
-0.00481334
0.00639508
-0.00460114
0.00649848
-0.00439388
-0.00419049
0.0066067
-0.00614049
-0.281135
-0.00464153
-0.257853
-0.0032002
-0.242304
-0.00192564
-0.224718
-0.000758071
-0.210137
0.000293662
-0.195318
0.00124551
-0.182404
0.0020994
-0.169908
0.00286956
-0.158609
0.00355646
-0.1479
0.00417258
-0.13805
0.00471874
-0.128796
0.00520492
-0.120223
0.00563325
-0.112206
0.0060119
-0.104759
0.00634291
-0.0978181
0.00663368
-0.0913646
0.00688779
-0.0853523
0.00710995
-0.0797558
0.00730377
-0.0745417
0.0074729
-0.0696839
0.00762054
-0.0651552
0.00774981
-0.0609322
0.00786407
-0.0569906
0.00796454
-0.0533103
0.00805277
-0.0498742
0.00813055
-0.0466656
0.00819941
-0.0436687
0.00826066
-0.040869
0.00831544
-0.0382533
0.00836475
-0.0358091
0.00840948
-0.0335251
0.00845044
-0.0313911
0.00848863
-0.0293979
0.00852519
-0.0275363
0.0085601
-0.0257891
0.00858666
-0.0241096
0.00858269
-0.0224081
0.00851196
-0.0205954
0.00834576
-0.0186654
0.00807976
-0.016703
0.00773137
-0.0148199
0.00732869
-0.0131019
0.0069016
-0.0115953
0.00647699
-0.010313
0.00607699
-0.00924692
0.00571846
-0.00837662
0.00541296
-0.00767576
0.00516806
-0.00711681
0.00498684
-0.00667224
0.00486629
-0.00631342
0.00480051
-0.00601553
0.00478223
-0.00575901
0.00480333
-0.00552891
0.00485551
-0.00531432
0.00493077
-0.00510774
0.00502179
-0.00490436
0.00512238
-0.00470172
0.00522736
-0.00449887
-0.00429582
0.0053327
-0.00546711
-0.282801
-0.00411332
-0.259207
-0.00281113
-0.243606
-0.00165864
-0.225871
-0.000605575
-0.21119
0.000344721
-0.196268
0.00120235
-0.183262
0.00197111
-0.170677
0.00266283
-0.159301
0.00327865
-0.148516
0.0038292
-0.1386
0.00431544
-0.129282
0.00474626
-0.120653
0.00512368
-0.112583
0.00545544
-0.10509
0.00574233
-0.098105
0.00599175
-0.091614
0.00620713
-0.0855676
0.00639269
-0.0799414
0.00655182
-0.0747008
0.00668801
-0.0698201
0.00680417
-0.0652714
0.00690287
-0.0610309
0.00698805
-0.0570757
0.00706104
-0.0533833
0.00712311
-0.0499363
0.00717582
-0.0467183
0.00722066
-0.0437136
0.00725888
-0.0409073
0.00729153
-0.0382859
0.00731955
-0.0358371
0.00734373
-0.0335493
0.00736481
-0.0314121
0.00738374
-0.0294169
0.00740181
-0.0275544
0.00741969
-0.025807
0.00743053
-0.0241204
0.00741162
-0.0223891
0.00732563
-0.0205094
0.00714278
-0.0184826
0.0068597
-0.0164199
0.00649592
-0.0144561
0.00608118
-0.0126872
0.00564604
-0.0111601
0.00521769
-0.00988465
0.00481839
-0.00884762
0.00446502
-0.00802326
0.00416949
-0.00738023
0.00393933
-0.00688665
0.00377478
-0.00650769
0.00367132
-0.00620996
0.00362214
-0.00596635
0.00361872
-0.00575559
0.00365176
-0.00556195
0.00371198
-0.00537453
0.00379058
-0.00518634
0.00387999
-0.00499378
0.00397405
-0.00479578
0.00406799
-0.0045928
-0.00438624
0.0041584
-0.00487201
-0.284309
-0.00364906
-0.26043
-0.00247255
-0.244783
-0.00143008
-0.226913
-0.000479837
-0.21214
0.000379128
-0.197127
0.00115219
-0.184035
0.00184489
-0.17137
0.00246673
-0.159923
0.00301954
-0.149069
0.00351222
-0.139093
0.0039459
-0.129716
0.00432841
-0.121036
0.00466164
-0.112916
0.00495227
-0.105381
0.00520225
-0.098355
0.00541663
-0.0918284
0.00559938
-0.0857504
0.0057543
-0.0800963
0.00588456
-0.0748311
0.00599347
-0.069929
0.00608373
-0.0653616
0.00615803
-0.0611052
0.00621872
-0.0571364
0.00626911
-0.0534337
0.00630989
-0.0499771
0.00634227
-0.0467507
0.00636766
-0.043739
0.00638727
-0.0409269
0.00640207
-0.0383007
0.0064129
-0.0358479
0.00642046
-0.0335569
0.00642538
-0.031417
0.00642857
-0.0294201
0.00643135
-0.0275572
0.00643483
-0.0258105
0.00643263
-0.0241182
0.00640323
-0.0223597
0.00630778
-0.020414
0.00611478
-0.0182896
0.00582155
-0.0161267
0.0054487
-0.0140832
0.00502669
-0.0122652
0.00458656
-0.01072
0.00415574
-0.00945383
0.00375656
-0.00844844
0.00340621
-0.00767291
0.00311712
-0.00709113
0.0028955
-0.00666504
0.00273987
-0.00635206
0.00264515
-0.00611525
0.00260344
-0.00592464
0.00260503
-0.00575718
0.00263952
-0.00559644
0.00269669
-0.0054317
0.00276718
-0.00525684
0.00284359
-0.00507019
0.0029202
-0.00487239
0.00299315
-0.00466575
-0.00445326
0.00306017
-0.00434578
-0.285675
-0.00324068
-0.261535
-0.00217769
-0.245846
-0.00123448
-0.227856
-0.000376689
-0.212998
0.000399867
-0.197904
0.00109695
-0.184732
0.00172162
-0.171994
0.00228108
-0.160482
0.00277794
-0.149566
0.0032194
-0.139535
0.00360689
-0.130103
0.00394715
-0.121376
0.00424198
-0.113211
0.00449734
-0.105636
0.00471564
-0.0985733
0.00490029
-0.0920131
0.00505555
-0.0859056
0.00518492
-0.0802257
0.00529125
-0.0749374
0.00537771
-0.0700154
0.00544684
-0.0654307
0.00550115
-0.0611595
0.00554276
-0.057178
0.00557459
-0.0534655
0.00559816
-0.0500006
0.00561437
-0.0467669
0.0056244
-0.043749
0.0056294
-0.0409319
0.00563026
-0.0383016
0.00562773
-0.0358454
0.00562241
-0.0335515
0.00561482
-0.0314095
0.00560578
-0.029411
0.00559665
-0.0275481
0.00558883
-0.0258026
0.00557633
-0.0241057
0.00554004
-0.0223235
0.00544033
-0.0203143
0.00524319
-0.0180925
0.00494559
-0.0158291
0.00456865
-0.0137063
0.00414311
-0.0118396
0.00370009
-0.010277
0.00326713
-0.00902088
0.00286692
-0.00804823
0.0025167
-0.00732269
0.00222924
-0.00680367
0.00200922
-0.00644501
0.00185503
-0.00619787
0.00176095
-0.00602117
0.00171805
-0.00588174
0.00171548
-0.00575462
0.00174183
-0.00562278
0.00178582
-0.00547569
0.00183848
-0.0053095
0.00189282
-0.00512453
0.00194427
-0.00492384
0.00199036
-0.00471183
-0.0044931
0.00203019
-0.00388054
-0.286913
-0.0028811
-0.262535
-0.00192064
-0.246806
-0.00106709
-0.22871
-0.000292564
-0.213773
0.000409481
-0.198606
0.00103824
-0.18536
0.00160203
-0.172558
0.00210579
-0.160986
0.00255284
-0.150013
0.00294888
-0.139931
0.00329564
-0.13045
0.00359886
-0.121679
0.0038603
-0.113473
0.00408528
-0.105861
0.0042761
-0.0987641
0.00443577
-0.0921727
0.00456791
-0.0860378
0.00467601
-0.0803338
0.00476261
-0.075024
0.00483071
-0.0700835
0.00488269
-0.0654827
0.00492095
-0.0611978
0.00494757
-0.0572047
0.00496442
-0.0534824
0.00497446
-0.0500107
0.00497815
-0.0467706
0.00497638
-0.0437472
0.00497026
-0.0409257
0.00496067
-0.038292
0.00494825
-0.035833
0.00493352
-0.0335368
0.00491688
-0.0313928
0.00489904
-0.0293932
0.00488139
-0.0275304
0.0048655
-0.0257867
0.00484602
-0.0240862
0.00480673
-0.0222842
0.00470651
-0.020214
0.00450956
-0.0178955
0.00421207
-0.0155316
0.00383497
-0.0133292
0.00340874
-0.0114134
0.00296425
-0.00983251
0.00252896
-0.00858558
0.00212576
-0.00764503
0.00177244
-0.00696937
0.00148162
-0.00651285
0.00125726
-0.00622066
0.0010979
-0.00603851
0.000997303
-0.00592057
0.000945627
-0.00583006
0.000930972
-0.00573997
0.000940691
-0.0056325
0.000963576
-0.00549858
0.000991134
-0.00533706
0.0010177
-0.0051511
0.00104037
-0.0049465
0.00105822
-0.00472969
-0.00450642
0.00107155
-0.00346799
-0.288034
-0.00256411
-0.263439
-0.00169629
-0.247674
-0.000923785
-0.229483
-0.00022435
-0.214472
0.000409821
-0.19924
0.000976923
-0.185928
0.00148662
-0.173068
0.00194074
-0.16144
0.00234335
-0.150415
0.002699
-0.140286
0.00300978
-0.130761
0.00328043
-0.12195
0.00351276
-0.113705
0.00371142
-0.10606
0.00387835
-0.098931
0.00401709
-0.0923115
0.00412983
-0.0861505
0.00422024
-0.0804242
0.00429062
-0.0750944
0.00434377
-0.0701367
0.00438194
-0.0655209
0.00440743
-0.0612233
0.00442219
-0.0572194
0.0044281
-0.0534883
0.00442726
-0.0500098
0.00442125
-0.0467646
0.00441065
-0.0437366
0.00439639
-0.0409115
0.0043793
-0.0382749
0.00435998
-0.0358137
0.00433884
-0.0335157
0.00431617
-0.0313702
0.00429258
-0.0293696
0.00426946
-0.0275073
0.0042485
-0.0257658
0.00422515
-0.0240629
0.00418584
-0.0222448
0.00408819
-0.0201164
0.0038952
-0.0177025
0.00360185
-0.0152383
0.00322826
-0.0129556
0.00280424
-0.0109894
0.00236
-0.00938828
0.00192271
-0.00814828
0.00151523
-0.00723755
0.00115578
-0.00660993
0.000856804
-0.00621387
0.000622797
-0.00598665
0.000452485
-0.0058682
0.000339184
-0.00580727
0.00027224
-0.00576312
0.00023879
-0.00570652
0.00022516
-0.00561887
0.000221149
-0.00549457
0.00021945
-0.00533536
0.000216268
-0.00514792
0.00021043
-0.00494066
0.000202196
-0.00472146
-0.00449665
0.000192427
-0.00310162
-0.289049
-0.00228435
-0.264256
-0.00150022
-0.248458
-0.000801026
-0.230182
-0.000169333
-0.215104
0.00040401
-0.199813
0.000915433
-0.186439
0.00137607
-0.173529
0.00178579
-0.16185
0.00214866
-0.150778
0.00246834
-0.140606
0.00274723
-0.13104
0.00298918
-0.122192
0.00319605
-0.113912
0.00337185
-0.106236
0.00351838
-0.0990775
0.00363916
-0.0924323
0.00373559
-0.0862469
0.0038113
-0.0804999
0.00386838
-0.0751515
0.00390942
-0.0701777
0.00393656
-0.065548
0.00395196
-0.0612387
0.00395751
-0.057225
0.00395502
-0.0534858
0.00394594
-0.0500008
0.00393278
-0.0467514
0.00391583
-0.0437197
0.00389586
-0.0408915
0.00387371
-0.0382527
0.00384993
-0.0357899
0.00382485
-0.0334906
0.00379867
-0.031344
0.00377184
-0.0293427
0.00374573
-0.0274812
0.00372198
-0.025742
0.00369643
-0.0240373
0.00365942
-0.0222078
0.00356797
-0.0200249
0.00338255
-0.0175171
0.00309693
-0.0149527
0.00273014
-0.0125888
0.00231089
-0.0105701
0.00186874
-0.00894612
0.00143027
-0.00770981
0.00101794
-0.00682521
0.000650227
-0.00624222
0.000339698
-0.00590334
9.19534e-05
-0.00573891
-9.39445e-05
-0.0056823
-0.000224947
-0.00567627
-0.000312389
-0.00567567
-0.000370478
-0.00564843
-0.000411756
-0.00557759
-0.000445645
-0.00546068
-0.000477521
-0.00530348
-0.000509278
-0.00511616
-0.000540841
-0.0049091
-0.000571492
-0.0046908
-0.00446779
-0.000600362
-0.00277608
-0.289968
-0.00203714
-0.264995
-0.00132863
-0.249167
-0.000695789
-0.230815
-0.000125239
-0.215674
0.000393049
-0.200332
0.000854458
-0.1869
0.00127103
-0.173945
0.00164076
-0.16222
0.00196802
-0.151105
0.00225558
-0.140893
0.00250614
-0.13129
0.00272273
-0.122409
0.00290727
-0.114096
0.00306318
-0.106392
0.00319218
-0.0992065
0.00329756
-0.0925376
0.00338027
-0.0863296
0.00344375
-0.0805634
0.00348995
-0.0751977
0.00352125
-0.070209
0.00353962
-0.0655664
0.00354715
-0.0612462
0.00354563
-0.0572234
0.00353679
-0.0534769
0.00352218
-0.0499861
0.00350352
-0.0467328
0.00348208
-0.0436982
0.00345832
-0.0408678
0.00343303
-0.0382274
0.00340674
-0.0357636
0.00337973
-0.0334636
0.00335209
-0.0313163
0.00332416
-0.0293148
0.00329723
-0.0274542
0.00327291
-0.0257177
0.00324852
-0.0240129
0.00321573
-0.022175
0.00313224
-0.0199415
0.00295669
-0.0173415
0.0026814
-0.0146774
0.00232429
-0.0122317
0.00191291
-0.0101588
0.00147498
-0.00850819
0.00103627
-0.00727109
0.000619096