/*--------------------------------*- C++ -*----------------------------------*\
  =========                 |
  \\      /  F ield         | OpenFOAM: The Open Source CFD Toolbox
   \\    /   O peration     | Website:  https://openfoam.org
    \\  /    A nd           | Version:  8
     \\/     M anipulation  |
\*---------------------------------------------------------------------------*/
FoamFile
{
    version     2.0;
    format      ascii;
    class       volVectorField;
    location    "0.0072";
    object      U;
}
// * * * * * * * * * * * * * * * * * * * * * * * * * * * * * * * * * * * * * //

dimensions      [0 1 -1 0 0 0 0];

internalField   nonuniform List<vector> 
112685
(
(15 2.81861e-08 -1.6487e-24)
(15 4.09457e-07 -4.28898e-23)
(15 1.05205e-06 -2.56171e-22)
(14.9999 2.47871e-06 8.09032e-23)
(14.9999 3.91638e-06 1.46112e-21)
(14.9999 5.30173e-06 -1.52085e-21)
(14.9999 6.77632e-06 -5.84493e-23)
(14.9999 8.57611e-06 6.11142e-22)
(14.9999 1.05777e-05 1.95306e-21)
(14.9999 1.28753e-05 -3.24819e-21)
(14.9999 1.52127e-05 -8.68744e-23)
(14.9999 1.7735e-05 5.7599e-21)
(14.9999 2.05049e-05 3.82176e-21)
(14.9999 2.32649e-05 4.07275e-21)
(14.9999 2.62187e-05 3.68842e-21)
(14.9999 2.91494e-05 6.23428e-21)
(14.9999 3.21606e-05 -4.70612e-21)
(14.9999 3.5368e-05 8.39836e-21)
(14.9999 3.84422e-05 -6.27657e-21)
(14.9999 4.1553e-05 -9.39188e-21)
(14.9999 4.46914e-05 -1.70163e-20)
(14.9999 4.79372e-05 -7.3028e-21)
(14.9999 5.10389e-05 -7.58825e-21)
(14.9999 5.42814e-05 -4.38306e-21)
(14.9999 5.73967e-05 3.77227e-21)
(14.9999 6.06733e-05 8.36352e-21)
(14.9999 6.38371e-05 -1.31789e-20)
(14.9999 6.69562e-05 1.76521e-20)
(14.9999 7.01507e-05 -1.22312e-22)
(14.9999 7.33187e-05 9.21831e-21)
(14.9999 7.65151e-05 9.12872e-21)
(14.9999 7.95823e-05 1.12205e-22)
(14.9999 8.26776e-05 9.35492e-21)
(14.9999 8.57898e-05 9.65575e-21)
(14.9999 8.87225e-05 -9.72042e-21)
(14.9999 9.17868e-05 1.08992e-22)
(14.9999 9.47472e-05 -1.51342e-20)
(14.9999 9.77173e-05 9.73447e-21)
(14.9999 0.000100786 -4.19904e-21)
(14.9999 0.000103628 1.96181e-20)
(14.9999 0.00010659 -1.96e-20)
(14.9999 0.000109431 1.56775e-20)
(14.9999 0.000112183 3.74496e-21)
(14.9999 0.000114973 -9.36147e-23)
(14.9999 0.000117774 9.69203e-21)
(14.9999 0.000120443 3.23132e-21)
(14.9999 0.000123239 9.4776e-21)
(14.9999 0.00012592 -1.58017e-20)
(14.9999 0.000128444 -9.41321e-21)
(14.9999 0.000131089 2.24181e-20)
(14.9999 0.000133584 6.70289e-21)
(14.9999 0.000136143 1.80658e-20)
(14.9999 0.000138578 1.78571e-20)
(14.9999 0.000141105 -6.84494e-21)
(14.9999 0.000143478 -6.98563e-21)
(14.9999 0.000145804 -8.56352e-21)
(14.9999 0.000148118 -1.68717e-20)
(14.9999 0.000150447 7.09907e-21)
(14.9999 0.00015261 8.22679e-21)
(14.9999 0.000154862 -8.07986e-21)
(14.9999 0.000157037 7.93509e-21)
(14.9999 0.000159053 -5.88238e-23)
(14.9999 0.000161169 7.61764e-21)
(14.9999 0.000163166 -5.97397e-23)
(14.9999 0.000165178 7.28707e-21)
(14.9999 0.000167142 -1.46727e-20)
(14.9999 0.000168979 0)
(14.9999 0.000170942 -6.72578e-21)
(14.9999 0.000172751 6.55342e-21)
(14.9999 0.000174496 6.3717e-21)
(14.9999 0.000176203 1.39767e-20)
(14.9999 0.000177866 -7.78054e-21)
(14.9999 0.00017946 -1.17202e-20)
(14.9999 0.000181019 1.36212e-20)
(14.9999 0.000182626 -1.59571e-20)
(14.9999 0.000184131 7.94482e-21)
(14.9999 0.000185481 1.82058e-20)
(14.9999 0.000186978 -3.25888e-21)
(14.9999 0.000188299 0)
(14.9999 0.0001896 0)
(14.9999 0.000190777 0)
(14.9999 0.000192032 -4.04526e-21)
(14.9999 0.000193199 0)
(14.9999 0.000194356 -4.65252e-21)
(15 0.000195366 1.65875e-20)
(15 0.000196331 6.48962e-21)
(15 0.000197371 -2.81812e-20)
(15 0.000198253 5.61477e-21)
(15 0.000199119 5.87803e-21)
(15 0.000199929 -8.45436e-21)
(15 0.000200735 -2.14879e-21)
(15 0.000201491 1.93103e-21)
(15 0.000202138 1.68689e-21)
(15 0.000202746 1.56619e-20)
(15 0.000203276 1.84305e-20)
(15 0.000203803 -7.57461e-21)
(15 0.000204244 -1.72651e-20)
(15 0.000204691 0)
(15 0.000205024 3.43333e-22)
(15 0.000205327 8.69067e-21)
(15 0.000205589 -1.08603e-22)
(15 0.00020581 -8.36154e-21)
(15 0.000206 0)
(15 0.000206077 1.742e-20)
(15 0.000206157 -4.12455e-21)
(15 0.00020615 -7.43781e-21)
(15 0.000206139 -2.99196e-21)
(15 0.000206047 -8.70545e-21)
(15 0.000205915 -1.06656e-20)
(15 0.000205668 4.37841e-21)
(15 0.00020537 2.3903e-21)
(15 0.000205064 8.71793e-21)
(15 0.0002047 -2.91148e-21)
(15 0.000204316 8.73994e-21)
(15 0.000203765 -6.72091e-21)
(15.0001 0.00020329 -5.03537e-21)
(15.0001 0.000202765 -1.25092e-20)
(15.0001 0.000202083 4.09428e-21)
(15.0001 0.000201387 2.16058e-20)
(15.0001 0.000200596 -1.30933e-20)
(15.0001 0.000199882 -8.5841e-21)
(15.0001 0.000199033 9.8329e-21)
(15.0001 0.00019816 8.5972e-21)
(15.0001 0.000197095 3.17321e-21)
(15.0001 0.000196181 -2.82965e-20)
(15.0001 0.000195097 5.88916e-21)
(15.0001 0.000193899 2.4066e-21)
(15.0001 0.000192747 -1.69508e-20)
(15.0001 0.000191551 2.14642e-20)
(15.0001 0.000190275 1.68164e-21)
(15.0001 0.000188946 -8.38359e-21)
(15.0001 0.000187569 -5.80863e-21)
(15.0001 0.000186115 1.5652e-20)
(15.0001 0.000184488 -1.58781e-20)
(15.0001 0.00018299 7.2095e-21)
(15.0001 0.000181345 8.29269e-21)
(15.0001 0.00017964 8.1937e-21)
(15.0001 0.000177944 -1.65713e-20)
(15.0001 0.000176107 -2.48493e-20)
(15.0001 0.000174373 7.92646e-23)
(15.0001 0.000172453 8.05043e-21)
(15.0001 0.000170439 0)
(15.0001 0.000168515 9.29595e-21)
(15.0001 0.000166394 0)
(15.0001 0.000164281 -7.94222e-21)
(15.0001 0.000162143 9.91631e-21)
(15.0001 0.000159942 -2.23312e-21)
(15.0001 0.000157555 1.0156e-20)
(15.0001 0.00015526 7.73457e-21)
(15.0002 0.000152813 -2.09974e-20)
(15.0002 0.000150427 -4.53194e-21)
(15.0002 0.000147856 3.29137e-21)
(15.0002 0.000145411 1.83649e-20)
(15.0002 0.000142773 -3.67044e-21)
(15.0002 0.000139986 0)
(15.0002 0.000137334 3.93707e-21)
(15.0002 0.000134512 1.8599e-20)
(15.0002 0.000131688 1.8255e-20)
(15.0002 0.000128893 -1.83745e-20)
(15.0002 0.000125979 4.59695e-21)
(15.0002 0.000122905 1.19743e-22)
(15.0002 0.000119956 6.61692e-21)
(15.0002 0.00011672 -6.62512e-21)
(15.0002 0.000113583 1.31764e-20)
(15.0002 0.000110439 7.8574e-22)
(15.0002 0.000107151 -2.4071e-20)
(15.0002 0.000104003 -6.03373e-21)
(15.0002 0.000100617 -5.50096e-21)
(15.0002 9.723e-05 -1.37315e-22)
(15.0002 9.38564e-05 1.48791e-22)
(15.0002 9.03015e-05 5.47249e-21)
(15.0002 8.67582e-05 1.85288e-25)
(15.0002 8.31575e-05 -3.23979e-20)
(15.0002 7.96263e-05 1.66226e-20)
(15.0002 7.60139e-05 -1.62069e-20)
(15.0002 7.22328e-05 1.50041e-20)
(15.0002 6.86276e-05 -1.4696e-20)
(15.0002 6.48329e-05 1.24039e-21)
(15.0002 6.11877e-05 1.35144e-20)
(15.0002 5.7328e-05 -1.22186e-21)
(15.0002 5.35741e-05 -8.72486e-21)
(15.0002 4.98232e-05 8.31231e-21)
(15.0002 4.60861e-05 3.11861e-21)
(15.0002 4.21391e-05 -4.17929e-21)
(15.0002 3.8412e-05 -1.62685e-20)
(15.0002 3.47533e-05 7.52556e-21)
(15.0001 3.10252e-05 -5.59302e-21)
(15.0001 2.75153e-05 2.99296e-21)
(15.0001 2.39505e-05 6.30861e-21)
(15.0001 2.06798e-05 -2.55551e-21)
(15.0001 1.76201e-05 8.06895e-22)
(15.0001 1.45739e-05 2.81678e-21)
(15.0001 1.1896e-05 -3.1374e-21)
(15.0001 9.46361e-06 1.8596e-21)
(15.0001 7.45764e-06 8.39706e-22)
(15.0001 5.54885e-06 1.19188e-21)
(15.0001 3.5108e-06 -5.72747e-22)
(15 1.49121e-06 -3.77601e-22)
(15 5.55993e-07 1.88603e-22)
(15 6.35851e-08 -2.22273e-23)
(14.9993 4.19727e-06 3.0985e-23)
(14.9997 1.02638e-05 -3.5008e-22)
(14.9998 5.92482e-06 -8.70459e-23)
(14.9998 9.8702e-06 -1.45513e-21)
(14.9997 1.80811e-05 2.07096e-21)
(14.9997 2.60906e-05 -1.54906e-21)
(14.9997 3.26801e-05 -3.33963e-21)
(14.9997 3.90648e-05 1.2558e-22)
(14.9996 4.56981e-05 1.14383e-21)
(14.9996 5.28568e-05 2.6838e-22)
(14.9996 6.01192e-05 -3.86161e-21)
(14.9996 6.75791e-05 2.06793e-21)
(14.9996 7.5392e-05 6.2437e-21)
(14.9996 8.3333e-05 -4.21023e-21)
(14.9996 9.16452e-05 1.73974e-20)
(14.9996 0.000100079 1.52252e-21)
(14.9996 0.000108632 -1.14815e-20)
(14.9996 0.000117507 -1.59259e-21)
(14.9996 0.00012635 7.60443e-21)
(14.9996 0.000135312 -3.31306e-23)
(14.9996 0.000144335 -4.07236e-21)
(14.9996 0.000153558 -1.42538e-20)
(14.9995 0.000162637 -1.01344e-20)
(14.9995 0.000171912 -3.14394e-23)
(14.9995 0.000181053 -4.70951e-21)
(14.9995 0.000190398 9.6084e-21)
(14.9995 0.00019971 4.02688e-22)
(14.9995 0.000208939 2.97226e-22)
(14.9995 0.000218186 -5.66958e-21)
(14.9995 0.00022744 -5.39442e-21)
(14.9995 0.000236686 5.41092e-21)
(14.9995 0.000245822 2.80421e-22)
(14.9995 0.000254997 -1.73503e-20)
(14.9995 0.000264151 4.60384e-20)
(14.9995 0.000273074 6.10347e-21)
(14.9995 0.000282106 1.13858e-20)
(14.9995 0.000290943 -1.24184e-20)
(14.9995 0.000299786 -2.20641e-22)
(14.9995 0.000308766 1.1538e-20)
(14.9995 0.000317379 2.87701e-20)
(14.9996 0.000326132 1.8098e-20)
(14.9996 0.000334673 -2.37509e-21)
(14.9996 0.00034307 1.10775e-20)
(14.9996 0.000351449 0)
(14.9996 0.000359798 4.00682e-21)
(14.9996 0.000367934 -7.0629e-21)
(14.9996 0.000376199 2.47758e-20)
(14.9996 0.000384178 -1.38264e-20)
(14.9996 0.00039194 -2.49249e-20)
(14.9996 0.000399821 7.17029e-21)
(14.9996 0.000407522 1.03698e-20)
(14.9996 0.000415131 5.18497e-21)
(14.9996 0.000422527 3.47359e-20)
(14.9996 0.000430055 1.74549e-20)
(14.9996 0.000437261 -8.16104e-23)
(14.9996 0.000444384 5.86924e-21)
(14.9996 0.000451438 -7.63015e-21)
(14.9996 0.000458355 -1.56492e-20)
(14.9996 0.000465052 2.57616e-20)
(14.9996 0.000471806 1.76756e-20)
(14.9997 0.00047833 6.65094e-22)
(14.9997 0.00048464 0)
(14.9997 0.000491001 8.2852e-21)
(14.9997 0.000497121 -8.094e-21)
(14.9997 0.000503163 1.60131e-20)
(14.9997 0.000509055 4.62643e-23)
(14.9997 0.000514815 -5.92224e-23)
(14.9997 0.00052057 -1.55127e-20)
(14.9997 0.000526063 -1.66763e-20)
(14.9997 0.000531403 3.50256e-24)
(14.9997 0.000536593 1.67443e-20)
(14.9997 0.000541723 1.6928e-20)
(14.9997 0.000546656 -8.47517e-21)
(14.9998 0.000551405 3.68567e-21)
(14.9998 0.000556187 -8.53299e-21)
(14.9998 0.000560739 -1.43079e-20)
(14.9998 0.000565047 5.48974e-21)
(14.9998 0.000569451 8.65275e-21)
(14.9998 0.000573531 1.37707e-20)
(14.9998 0.000577488 -4.82655e-21)
(14.9998 0.000581209 1.33689e-20)
(14.9998 0.00058494 4.4135e-21)
(14.9998 0.000588492 -2.18346e-20)
(14.9998 0.000591945 -8.88293e-21)
(14.9999 0.000595105 8.88836e-21)
(14.9999 0.000598141 1.59096e-20)
(14.9999 0.000601155 -2.04342e-24)
(14.9999 0.000603963 8.98131e-21)
(14.9999 0.000606577 2.22277e-23)
(14.9999 0.000609064 -1.16023e-20)
(14.9999 0.00061152 -1.13783e-20)
(14.9999 0.000613718 -2.02651e-20)
(14.9999 0.000615713 1.63618e-20)
(14.9999 0.000617559 1.82946e-20)
(14.9999 0.000619278 4.08264e-21)
(15 0.000620958 3.37126e-21)
(15 0.000622343 -1.01039e-20)
(15 0.000623667 -9.23738e-21)
(15 0.000624686 -3.08595e-24)
(15 0.000625632 9.1338e-21)
(15 0.000626442 9.18848e-21)
(15 0.000627116 -2.73752e-24)
(15 0.000627716 -9.29718e-21)
(15 0.000628007 -1.86173e-20)
(15 0.000628234 7.13968e-21)
(15.0001 0.000628162 7.94032e-21)
(15.0001 0.000628046 -1.08663e-20)
(15.0001 0.000627796 -1.72259e-23)
(15.0001 0.000627391 7.23336e-21)
(15.0001 0.000626773 1.85799e-20)
(15.0001 0.000625885 -2.11789e-20)
(15.0001 0.000624959 -9.24834e-21)
(15.0001 0.000623894 -1.74211e-23)
(15.0001 0.000622622 3.345e-21)
(15.0001 0.000621129 2.11608e-21)
(15.0002 0.000619603 7.63633e-21)
(15.0002 0.000617941 -9.27892e-21)
(15.0002 0.000615961 4.34151e-21)
(15.0002 0.000613868 1.08702e-22)
(15.0002 0.000611574 -4.80992e-21)
(15.0002 0.00060928 2.35344e-20)
(15.0002 0.000606724 -7.25982e-23)
(15.0002 0.000604025 -1.83559e-20)
(15.0002 0.000600967 -1.5e-20)
(15.0002 0.000597997 3.27044e-23)
(15.0003 0.000594752 2.16712e-20)
(15.0003 0.000591244 -6.52064e-21)
(15.0003 0.000587754 9.15544e-21)
(15.0003 0.000584049 1.39594e-20)
(15.0003 0.000580114 -1.62895e-20)
(15.0003 0.000576095 -1.81813e-20)
(15.0003 0.000571893 2.59583e-20)
(15.0003 0.000567505 1.7843e-20)
(15.0003 0.000562809 -8.06716e-21)
(15.0003 0.000558086 -1.00861e-22)
(15.0003 0.000553194 -1.83161e-22)
(15.0004 0.000548115 -8.96055e-21)
(15.0004 0.000542923 -2.69217e-20)
(15.0004 0.000537441 5.02014e-22)
(15.0004 0.000531989 2.79996e-20)
(15.0004 0.000526271 1.85466e-20)
(15.0004 0.000520269 -1.19556e-21)
(15.0004 0.0005143 -8.00846e-23)
(15.0004 0.000508057 1.78527e-21)
(15.0004 0.000501627 0)
(15.0004 0.000495088 2.2072e-21)
(15.0004 0.000488422 8.72048e-21)
(15.0004 0.000481356 8.40026e-21)
(15.0005 0.000474405 -1.69952e-20)
(15.0005 0.000467175 -3.08588e-21)
(15.0005 0.000459802 8.24857e-21)
(15.0005 0.000452184 3.75266e-21)
(15.0005 0.000444664 1.60661e-20)
(15.0005 0.000436853 -1.22694e-20)
(15.0005 0.000428668 1.63687e-20)
(15.0005 0.000420589 -1.27911e-20)
(15.0005 0.000412218 2.11375e-20)
(15.0005 0.000403765 -2.13084e-20)
(15.0005 0.000395244 5.51488e-21)
(15.0005 0.000386507 1.30014e-20)
(15.0005 0.000377468 1.91661e-20)
(15.0005 0.000368544 7.6226e-21)
(15.0005 0.000359129 5.88361e-21)
(15.0005 0.000349825 7.7573e-21)
(15.0006 0.000340472 7.17565e-21)
(15.0006 0.000330826 -2.10742e-20)
(15.0006 0.000321253 -2.11403e-20)
(15.0006 0.000311339 7.34088e-21)
(15.0006 0.000301336 -7.08107e-21)
(15.0006 0.000291317 1.74394e-22)
(15.0006 0.000281095 -7.12409e-21)
(15.0006 0.000270795 -4.1032e-20)
(15.0006 0.000260434 3.04638e-22)
(15.0006 0.000250021 2.04051e-20)
(15.0006 0.00023943 1.39401e-20)
(15.0006 0.000228718 1.17466e-20)
(15.0006 0.000218186 -3.20618e-20)
(15.0006 0.0002074 1.29274e-20)
(15.0006 0.000196781 7.04542e-21)
(15.0006 0.000185887 1.25153e-20)
(15.0006 0.000175162 1.01438e-20)
(15.0006 0.00016442 -6.79944e-21)
(15.0006 0.000153737 -4.73343e-21)
(15.0006 0.000142913 -1.49442e-20)
(15.0006 0.000132409 -1.19304e-20)
(15.0005 0.000121959 -4.29765e-21)
(15.0005 0.000111561 -1.18643e-20)
(15.0005 0.000101544 2.89942e-21)
(15.0005 9.15947e-05 -2.74312e-21)
(15.0005 8.20099e-05 2.61563e-21)
(15.0005 7.25701e-05 -1.71535e-22)
(15.0005 6.31569e-05 -3.70155e-21)
(15.0005 5.43548e-05 2.67027e-21)
(15.0005 4.57967e-05 7.88829e-21)
(15.0005 3.67969e-05 -6.8005e-22)
(15.0004 2.55817e-05 -1.17475e-22)
(15.0003 1.38787e-05 -2.04253e-21)
(15.0002 8.48211e-06 1.06229e-21)
(15.0004 1.49737e-05 -1.73155e-22)
(15.0011 6.33842e-06 -1.55255e-22)
(14.9987 2.36455e-06 5.90092e-23)
(14.9993 1.96482e-05 5.53484e-23)
(14.9996 1.73212e-05 2.75916e-22)
(14.9996 1.6886e-05 -8.44309e-22)
(14.9995 2.60988e-05 -8.59215e-22)
(14.9994 4.03457e-05 3.65548e-21)
(14.9994 5.37341e-05 -9.47228e-22)
(14.9994 6.57673e-05 0)
(14.9994 7.75925e-05 -7.22991e-21)
(14.9994 9.00494e-05 1.1225e-20)
(14.9993 0.000102807 -9.91226e-21)
(14.9993 0.000115782 2.18872e-21)
(14.9993 0.000129018 2.29035e-21)
(14.9993 0.000142511 -9.10025e-21)
(14.9993 0.000156476 6.89996e-21)
(14.9993 0.000170638 3.33261e-21)
(14.9993 0.000184942 -1.6441e-20)
(14.9993 0.000199614 -1.69776e-20)
(14.9992 0.000214324 5.1383e-21)
(14.9992 0.000229228 5.44095e-21)
(14.9992 0.00024428 1.9081e-20)
(14.9992 0.000259481 4.39731e-21)
(14.9992 0.000274696 5.74102e-21)
(14.9992 0.000290062 -1.05129e-20)
(14.9992 0.000305298 4.88773e-21)
(14.9992 0.000320729 -2.15494e-20)
(14.9992 0.00033619 2.18866e-20)
(14.9992 0.00035152 5.15378e-21)
(14.9992 0.00036685 5.43385e-21)
(14.9992 0.000382247 -5.46212e-21)
(14.9992 0.000397551 -1.15114e-20)
(14.9992 0.000412837 1.72349e-20)
(14.9992 0.000428122 -2.89069e-20)
(14.9992 0.000443354 -1.77883e-20)
(14.9992 0.000458337 2.38107e-20)
(14.9992 0.000473429 2.29958e-20)
(14.9992 0.000488239 1.14954e-20)
(14.9992 0.000503006 -6.35781e-21)
(14.9992 0.000517874 4.9269e-21)
(14.9992 0.000532379 -2.27579e-20)
(14.9992 0.000546879 2.93286e-20)
(14.9992 0.000561251 6.80756e-21)
(14.9993 0.000575389 1.11832e-20)
(14.9993 0.000589543 1.1112e-20)
(14.9993 0.00060353 0)
(14.9993 0.000617207 -7.04068e-21)
(14.9993 0.000630933 3.27252e-21)
(14.9993 0.00064437 1.81561e-20)
(14.9993 0.000657574 -1.46967e-20)
(14.9993 0.000670737 -1.04886e-20)
(14.9993 0.000683735 1.33113e-20)
(14.9993 0.000696597 -1.77519e-20)
(14.9993 0.000709043 -1.26305e-20)
(14.9993 0.000721588 2.75203e-20)
(14.9994 0.000733799 7.64877e-21)
(14.9994 0.000745891 9.71301e-21)
(14.9994 0.000757707 2.05633e-20)
(14.9994 0.000769369 1.47657e-21)
(14.9994 0.000780793 -1.5832e-20)
(14.9994 0.000792103 1.6862e-20)
(14.9994 0.000803142 2.49249e-20)
(14.9994 0.000813872 8.61056e-21)
(14.9994 0.000824549 8.08894e-21)
(14.9995 0.000834982 5.77694e-23)
(14.9995 0.000845157 -2.43874e-20)
(14.9995 0.000855101 1.57502e-20)
(14.9995 0.000864876 8.28404e-21)
(14.9995 0.00087446 7.53336e-21)
(14.9995 0.000883765 -1.57311e-20)
(14.9995 0.000892817 -1.00165e-23)
(14.9995 0.000901654 1.59005e-21)
(14.9996 0.000910359 -8.45558e-21)
(14.9996 0.00091879 -1.07375e-20)
(14.9996 0.000926861 1.4851e-20)
(14.9996 0.000934794 1.47145e-20)
(14.9996 0.000942568 -5.82689e-21)
(14.9996 0.000950021 -5.6103e-21)
(14.9996 0.000957276 -1.95184e-20)
(14.9997 0.000964233 3.59075e-21)
(14.9997 0.000970987 -4.85988e-21)
(14.9997 0.000977358 -1.77748e-20)
(14.9997 0.000983647 2.22814e-20)
(14.9997 0.000989682 4.58482e-22)
(14.9997 0.0009955 -1.79589e-20)
(14.9997 0.00100088 -3.00455e-23)
(14.9998 0.0010061 2.20995e-23)
(14.9998 0.00101113 -1.2416e-20)
(14.9998 0.00101595 9.08615e-21)
(14.9998 0.00102043 1.53922e-20)
(14.9998 0.00102467 2.64517e-21)
(14.9998 0.00102871 2.36857e-21)
(14.9999 0.00103241 1.23735e-23)
(14.9999 0.00103587 -1.11454e-20)
(14.9999 0.00103905 -1.6864e-20)
(14.9999 0.00104202 -9.30472e-21)
(14.9999 0.00104483 2.79237e-20)
(14.9999 0.00104719 8.42321e-21)
(15 0.00104935 -9.35053e-21)
(15 0.00105116 8.9557e-21)
(15 0.00105284 1.67799e-22)
(15 0.00105422 -9.49455e-21)
(15 0.0010553 3.42386e-22)
(15 0.00105624 0)
(15.0001 0.00105684 8.43266e-22)
(15.0001 0.00105722 -8.32356e-21)
(15.0001 0.00105715 -1.34289e-21)
(15.0001 0.00105691 1.10263e-20)
(15.0001 0.00105644 -1.31416e-20)
(15.0001 0.00105569 -9.40752e-21)
(15.0002 0.00105468 6.16917e-25)
(15.0002 0.00105332 -8.00646e-24)
(15.0002 0.00105173 1.8834e-20)
(15.0002 0.00104989 9.36526e-21)
(15.0002 0.00104769 -9.38152e-21)
(15.0002 0.00104524 9.39928e-21)
(15.0003 0.00104259 1.32496e-20)
(15.0003 0.00103976 -1.87859e-20)
(15.0003 0.00103645 -1.43184e-20)
(15.0003 0.00103289 4.73167e-21)
(15.0003 0.00102905 2.35723e-20)
(15.0003 0.00102511 5.10035e-21)
(15.0004 0.00102073 -1.4699e-20)
(15.0004 0.00101612 0)
(15.0004 0.00101117 9.32542e-21)
(15.0004 0.00100598 1.54101e-20)
(15.0004 0.00100042 -9.2823e-21)
(15.0004 0.000994662 -9.22564e-21)
(15.0005 0.00098873 9.25876e-21)
(15.0005 0.000982379 -1.43081e-20)
(15.0005 0.0009757 -9.16934e-21)
(15.0005 0.000968847 9.20001e-21)
(15.0005 0.000961725 1.70014e-20)
(15.0005 0.000954293 -2.53533e-20)
(15.0006 0.00094652 -7.37181e-22)
(15.0006 0.0009385 -8.04503e-21)
(15.0006 0.000930254 8.74426e-21)
(15.0006 0.000921714 -1.80385e-20)
(15.0006 0.000912846 9.03346e-21)
(15.0006 0.000903664 1.84497e-20)
(15.0006 0.000894378 9.74961e-21)
(15.0007 0.000884703 -7.92932e-21)
(15.0007 0.000874677 -8.74912e-21)
(15.0007 0.000864471 2.80454e-20)
(15.0007 0.000853948 -8.50316e-23)
(15.0007 0.000843199 -8.7134e-21)
(15.0007 0.000832081 0)
(15.0007 0.000820775 2.24763e-20)
(15.0008 0.00080903 -2.28968e-20)
(15.0008 0.000797336 0)
(15.0008 0.000785107 1.18394e-20)
(15.0008 0.000772659 -1.20321e-20)
(15.0008 0.000759953 8.49329e-21)
(15.0008 0.000747134 3.84724e-21)
(15.0008 0.000733978 1.69334e-20)
(15.0008 0.000720412 -1.16835e-22)
(15.0009 0.000706832 -2.56218e-20)
(15.0009 0.000692813 8.07649e-21)
(15.0009 0.000678522 -3.1359e-20)
(15.0009 0.000664169 2.12349e-20)
(15.0009 0.000649457 -1.33992e-20)
(15.0009 0.00063451 -7.86832e-21)
(15.0009 0.000619471 -1.34844e-20)
(15.0009 0.00060391 5.83711e-21)
(15.0009 0.000588377 2.17676e-20)
(15.0009 0.000572699 -6.74114e-21)
(15.0009 0.000556584 -3.60164e-20)
(15.001 0.000540503 -2.77812e-20)
(15.001 0.000524016 2.11192e-20)
(15.001 0.000507358 -2.80119e-20)
(15.001 0.00049059 0)
(15.001 0.00047369 -2.0876e-20)
(15.001 0.000456558 -6.93441e-21)
(15.001 0.000439394 2.6785e-20)
(15.001 0.000422107 -1.36944e-20)
(15.001 0.000404532 2.08359e-20)
(15.001 0.000386866 -2.56269e-20)
(15.001 0.000369311 1.33746e-20)
(15.001 0.000351457 1.85993e-20)
(15.001 0.000333653 1.83723e-20)
(15.001 0.000315721 1.77092e-20)
(15.001 0.000297828 1.60359e-21)
(15.001 0.000279972 3.28181e-22)
(15.001 0.000262211 -6.92192e-21)
(15.001 0.000244336 6.44939e-21)
(15.001 0.000226767 0)
(15.001 0.000209216 -1.3636e-20)
(15.0009 0.000191745 1.81675e-20)
(15.0009 0.000174714 -8.50267e-21)
(15.0009 0.000157841 -4.31546e-21)
(15.0009 0.000141127 2.28039e-21)
(15.0009 0.000124481 -1.62908e-20)
(15.0009 0.000108055 2.14968e-21)
(15.0009 9.22909e-05 5.54782e-21)
(15.0008 7.59889e-05 9.12122e-22)
(15.0008 5.74407e-05 1.17639e-22)
(15.0007 3.7323e-05 -1.25131e-21)
(15.0006 2.4316e-05 5.03315e-22)
(15.0005 2.55227e-05 -6.92818e-23)
(15.001 2.90689e-05 -7.45044e-22)
(15.0019 3.64992e-06 5.61113e-23)
(14.9983 3.79685e-06 -5.18798e-23)
(14.9989 2.23279e-05 2.68529e-22)
(14.9993 3.05051e-05 0)
(14.9994 2.81414e-05 0)
(14.9993 3.3376e-05 -4.37671e-22)
(14.9992 5.02323e-05 -7.06726e-22)
(14.9992 7.03302e-05 -1.56111e-21)
(14.9991 8.87298e-05 -7.68615e-22)
(14.9991 0.000106008 -2.46563e-21)
(14.9991 0.000123738 3.87455e-21)
(14.999 0.000141921 -2.69423e-21)
(14.999 0.000160439 -2.34077e-21)
(14.999 0.000179234 -3.62534e-21)
(14.999 0.000198421 2.19333e-23)
(14.999 0.000218076 -1.43783e-20)
(14.999 0.000237993 1.07246e-20)
(14.999 0.000258144 3.39188e-21)
(14.9989 0.000278686 5.08458e-21)
(14.9989 0.000299399 -1.27848e-20)
(14.9989 0.000320322 5.43744e-21)
(14.9989 0.000341356 -1.94043e-20)
(14.9989 0.000362643 1.6378e-22)
(14.9989 0.000384009 4.29038e-21)
(14.9989 0.000405586 -5.55176e-21)
(14.9989 0.000427001 1.04611e-20)
(14.9989 0.000448607 1.49524e-22)
(14.9989 0.000470247 -2.12219e-20)
(14.9989 0.000491815 -1.12365e-20)
(14.9989 0.000513316 5.49894e-21)
(14.9989 0.000534973 2.10899e-23)
(14.9989 0.000556526 0)
(14.9989 0.000577995 1.14957e-20)
(14.9989 0.000599426 1.7363e-20)
(14.9989 0.000620817 -1.15048e-20)
(14.9989 0.000642001 -1.22476e-20)
(14.9989 0.000663184 -1.17016e-20)
(14.9989 0.000684144 -1.14635e-20)
(14.9989 0.000705028 -1.16937e-20)
(14.9989 0.000725888 1.49826e-21)
(14.9989 0.000746361 -2.29303e-20)
(14.9989 0.000766814 -1.82539e-20)
(14.9989 0.000787046 4.65677e-21)
(14.9989 0.000807043 4.40082e-21)
(14.999 0.000827041 6.93172e-21)
(14.999 0.000846824 1.12754e-20)
(14.999 0.000866189 -9.5199e-23)
(14.999 0.000885551 7.2474e-21)
(14.999 0.000904564 2.17688e-20)
(14.999 0.000923365 1.07527e-20)
(14.999 0.000941965 -7.38459e-21)
(14.999 0.000960366 1.04175e-20)
(14.999 0.000978495 -5.63372e-21)
(14.9991 0.000996322 -7.52576e-21)
(14.9991 0.00101403 -7.82294e-21)
(14.9991 0.00103134 7.80666e-21)
(14.9991 0.00104849 1.18116e-20)
(14.9991 0.0010652 -7.90672e-21)
(14.9991 0.00108178 1.73724e-20)
(14.9991 0.00109806 -1.27784e-21)
(14.9992 0.00111407 -2.62838e-20)
(14.9992 0.00112976 -8.13242e-21)
(14.9992 0.00114511 8.13946e-21)
(14.9992 0.00116024 8.2548e-21)
(14.9992 0.00117503 2.48682e-20)
(14.9992 0.00118952 -8.17566e-21)
(14.9993 0.00120373 -1.68546e-20)
(14.9993 0.00121758 6.07308e-22)
(14.9993 0.00123115 7.64408e-21)
(14.9993 0.00124444 -8.477e-21)
(14.9993 0.0012574 7.1877e-21)
(14.9994 0.00127002 1.71985e-20)
(14.9994 0.0012823 1.36896e-20)
(14.9994 0.00129432 -2.39679e-20)
(14.9994 0.00130588 -1.51397e-20)
(14.9994 0.00131713 8.74725e-21)
(14.9995 0.0013282 2.87028e-21)
(14.9995 0.00133887 8.81772e-21)
(14.9995 0.00134913 3.37939e-21)
(14.9995 0.00135902 -1.05882e-20)
(14.9995 0.00136867 1.19442e-21)
(14.9996 0.00137787 -1.86884e-20)
(14.9996 0.00138681 1.33998e-20)
(14.9996 0.00139537 -4.59518e-21)
(14.9996 0.00140363 -2.72889e-20)
(14.9996 0.00141138 5.20724e-21)
(14.9997 0.00141888 1.83106e-20)
(14.9997 0.00142602 1.82074e-23)
(14.9997 0.00143284 5.98871e-21)
(14.9997 0.00143927 -9.19188e-21)
(14.9998 0.00144534 -2.51345e-20)
(14.9998 0.00145101 2.4572e-21)
(14.9998 0.00145635 1.95704e-24)
(14.9998 0.00146138 9.35149e-21)
(14.9998 0.00146596 9.38789e-21)
(14.9999 0.00147017 5.02072e-21)
(14.9999 0.00147408 7.02005e-21)
(14.9999 0.00147747 -8.49701e-21)
(14.9999 0.00148055 -9.48375e-21)
(15 0.00148317 -9.49806e-21)
(15 0.00148562 -9.33485e-21)
(15 0.00148759 2.85268e-20)
(15 0.00148908 9.53229e-21)
(15.0001 0.00149039 -1.01211e-20)
(15.0001 0.00149124 -9.54585e-21)
(15.0001 0.00149177 -1.06311e-20)
(15.0001 0.00149177 1.09046e-20)
(15.0002 0.00149145 -2.2348e-20)
(15.0002 0.00149075 -9.52851e-21)
(15.0002 0.00148958 3.07635e-20)
(15.0002 0.00148808 1.9056e-20)
(15.0002 0.00148623 -1.64165e-20)
(15.0003 0.00148394 -3.65285e-21)
(15.0003 0.00148127 -2.71036e-23)
(15.0003 0.00147818 2.2218e-23)
(15.0003 0.00147473 1.90306e-20)
(15.0004 0.0014709 -3.98065e-21)
(15.0004 0.00146677 -1.36916e-20)
(15.0004 0.00146209 -5.02861e-21)
(15.0004 0.00145706 1.42686e-20)
(15.0005 0.00145161 1.89147e-20)
(15.0005 0.00144586 0)
(15.0005 0.0014396 -9.45544e-21)
(15.0005 0.00143305 -3.65705e-21)
(15.0006 0.00142607 0)
(15.0006 0.00141862 -6.26323e-21)
(15.0006 0.0014107 -6.51704e-21)
(15.0006 0.00140255 -6.76207e-21)
(15.0007 0.00139402 -9.37255e-21)
(15.0007 0.00138496 -7.21202e-21)
(15.0007 0.00137557 9.2833e-21)
(15.0007 0.00136576 -9.32519e-21)
(15.0007 0.00135553 4.33726e-23)
(15.0008 0.00134489 1.0221e-20)
(15.0008 0.0013339 8.43152e-21)
(15.0008 0.00132254 7.14261e-23)
(15.0008 0.00131072 -1.7995e-20)
(15.0009 0.00129855 -9.09036e-21)
(15.0009 0.00128598 0)
(15.0009 0.00127296 -1.07559e-23)
(15.0009 0.00125965 -8.30082e-22)
(15.0009 0.00124588 -2.03381e-20)
(15.001 0.00123168 2.98005e-20)
(15.001 0.00121711 1.04024e-20)
(15.001 0.00120214 -3.92888e-20)
(15.001 0.00118692 0)
(15.001 0.00117115 8.86551e-21)
(15.0011 0.0011551 2.51032e-21)
(15.0011 0.00113852 3.03127e-21)
(15.0011 0.00112172 8.61266e-21)
(15.0011 0.00110448 -1.20105e-20)
(15.0011 0.00108684 0)
(15.0011 0.00106888 8.57393e-21)
(15.0012 0.00105058 -4.15253e-21)
(15.0012 0.00103195 4.29549e-21)
(15.0012 0.0010128 -2.95722e-20)
(15.0012 0.000993547 1.31667e-20)
(15.0012 0.000973695 -1.30226e-22)
(15.0012 0.00095348 -1.32079e-20)
(15.0013 0.000933152 7.97649e-21)
(15.0013 0.000912428 -8.07951e-21)
(15.0013 0.000891323 -7.87357e-21)
(15.0013 0.00087007 2.95922e-20)
(15.0013 0.000848227 7.51722e-21)
(15.0013 0.000826225 6.4029e-21)
(15.0013 0.000803998 -2.1694e-20)
(15.0013 0.000781363 -2.89895e-20)
(15.0013 0.000758585 2.16393e-20)
(15.0014 0.000735412 -7.13891e-21)
(15.0014 0.000712035 1.45949e-22)
(15.0014 0.00068846 6.91404e-21)
(15.0014 0.000664626 0)
(15.0014 0.000640497 2.80151e-20)
(15.0014 0.000616397 -1.39223e-20)
(15.0014 0.000592039 -1.38089e-20)
(15.0014 0.000567415 -2.7304e-20)
(15.0014 0.00054265 -7.23936e-21)
(15.0014 0.000517937 1.91922e-20)
(15.0014 0.000492827 -1.30001e-20)
(15.0014 0.000467783 -5.63324e-21)
(15.0014 0.000442634 -1.22739e-20)
(15.0014 0.000417599 -1.92016e-20)
(15.0014 0.000392489 1.84572e-20)
(15.0014 0.000367423 1.85787e-22)
(15.0014 0.000342346 -1.93535e-22)
(15.0014 0.000317536 1.0458e-20)
(15.0014 0.000292793 1.34251e-20)
(15.0014 0.000268129 5.38526e-21)
(15.0013 0.000243824 1.80143e-21)
(15.0013 0.00021977 -7.3271e-21)
(15.0013 0.000195794 -7.01582e-21)
(15.0013 0.000171969 1.74909e-22)
(15.0013 0.00014847 6.95187e-21)
(15.0012 0.000125256 -8.55392e-21)
(15.0012 0.000100041 3.44888e-21)
(15.0011 7.19265e-05 1.30534e-23)
(15.001 4.81419e-05 0)
(15.0008 4.11018e-05 -5.22646e-22)
(15.001 4.52221e-05 -6.54486e-22)
(15.0016 3.31796e-05 1.15786e-22)
(15.0026 5.81997e-06 8.29089e-23)
(14.9979 3.80924e-06 -8.4411e-23)
(14.9985 2.34276e-05 -4.01232e-22)
(14.999 4.18608e-05 0)
(14.9992 4.33309e-05 8.76715e-22)
(14.9991 4.3687e-05 4.51003e-22)
(14.999 5.84917e-05 -1.16395e-21)
(14.9989 8.30378e-05 -2.47173e-21)
(14.9989 0.000108094 -1.08099e-21)
(14.9988 0.000131296 9.22564e-22)
(14.9988 0.000154397 -4.45803e-21)
(14.9988 0.000177956 6.90273e-21)
(14.9987 0.000201931 -3.49437e-21)
(14.9987 0.000226251 8.56324e-21)
(14.9987 0.000251061 -2.49153e-23)
(14.9987 0.000276337 4.38669e-21)
(14.9987 0.000302039 -3.19913e-21)
(14.9986 0.00032803 1.63474e-20)
(14.9986 0.000354363 1.2069e-20)
(14.9986 0.000380995 -3.53401e-21)
(14.9986 0.000408002 -3.04293e-22)
(14.9986 0.00043515 -5.30348e-21)
(14.9986 0.000462484 -4.41986e-21)
(14.9986 0.000490044 -1.02436e-20)
(14.9986 0.000517781 -4.57329e-21)
(14.9986 0.000545413 -1.08072e-20)
(14.9986 0.000573221 2.08502e-20)
(14.9986 0.000601147 -5.84317e-21)
(14.9986 0.000629022 -1.1219e-20)
(14.9986 0.0006568 -1.1319e-20)
(14.9986 0.000684821 -1.69146e-20)
(14.9986 0.000712645 -5.75855e-21)
(14.9986 0.000740413 0)
(14.9986 0.000768133 -1.74869e-20)
(14.9986 0.000795776 -1.17559e-20)
(14.9986 0.000823262 6.20755e-22)
(14.9986 0.000850708 -5.41916e-21)
(14.9986 0.000877888 -1.173e-20)
(14.9986 0.000904976 -1.811e-20)
(14.9986 0.000931923 -1.1784e-20)
(14.9986 0.00095853 2.33654e-20)
(14.9986 0.000985062 -1.92989e-21)
(14.9986 0.00101143 -1.84278e-20)
(14.9986 0.00103743 -4.58917e-21)
(14.9986 0.00106335 1.03712e-22)
(14.9987 0.00108907 -9.2888e-23)
(14.9987 0.00111425 -1.11299e-20)
(14.9987 0.00113935 1.10235e-20)
(14.9987 0.00116419 -1.09188e-20)
(14.9987 0.00118863 1.08254e-20)
(14.9987 0.00121286 1.03342e-22)
(14.9987 0.00123685 7.4228e-21)
(14.9988 0.00126041 1.07207e-20)
(14.9988 0.00128371 2.57421e-21)
(14.9988 0.00130675 -2.45884e-21)
(14.9988 0.00132933 2.32846e-21)
(14.9988 0.00135167 9.88306e-21)
(14.9988 0.00137356 -9.7285e-21)
(14.9989 0.00139514 -9.72343e-21)
(14.9989 0.00141638 1.7579e-20)
(14.9989 0.00143726 0)
(14.9989 0.00145776 -9.13303e-21)
(14.9989 0.00147792 -1.79011e-20)
(14.999 0.00149767 8.76294e-21)
(14.999 0.00151694 -8.57718e-21)
(14.999 0.00153592 1.67919e-20)
(14.999 0.00155454 8.41858e-21)
(14.9991 0.00157265 8.05794e-21)
(14.9991 0.00159036 -7.88333e-22)
(14.9991 0.00160772 -8.5661e-21)
(14.9991 0.00162474 -1.4827e-20)
(14.9992 0.00164129 7.23614e-21)
(14.9992 0.00165726 6.92327e-21)
(14.9992 0.00167294 2.05289e-21)
(14.9992 0.00168819 -6.54133e-21)
(14.9993 0.00170297 -3.79983e-21)
(14.9993 0.00171736 -6.05788e-21)
(14.9993 0.0017313 -5.92033e-21)
(14.9993 0.00174478 1.4644e-20)
(14.9994 0.00175777 -1.80081e-20)
(14.9994 0.00177041 -6.89622e-23)
(14.9994 0.00178256 9.15611e-21)