/*--------------------------------*- C++ -*----------------------------------*\
  =========                 |
  \\      /  F ield         | OpenFOAM: The Open Source CFD Toolbox
   \\    /   O peration     | Website:  https://openfoam.org
    \\  /    A nd           | Version:  9
     \\/     M anipulation  |
\*---------------------------------------------------------------------------*/
FoamFile
{
    format      ascii;
    class       volScalarField;
    location    "0.0075";
    object      alphat;
}
// * * * * * * * * * * * * * * * * * * * * * * * * * * * * * * * * * * * * * //

dimensions      [1 -1 -1 0 0 0 0];

internalField   nonuniform List<scalar> 
8420
(
0.0163604
0.0163605
0.0163607
0.0163609
0.016361
0.0163611
0.0163613
0.0163614
0.0163615
0.0163616
0.0163617
0.0163618
0.0163619
0.016362
0.0163621
0.0163622
0.0163623
0.0163624
0.0163625
0.0163625
0.0163626
0.0163627
0.0163627
0.0163628
0.0163629
0.0163629
0.0163629
0.016363
0.016363
0.016363
0.016363
0.016363
0.0163629
0.0163628
0.0163853
0.0163844
0.0163835
0.0163826
0.0163817
0.0163808
0.0163798
0.0163788
0.0163778
0.0163767
0.0163756
0.0163745
0.0163734
0.0163723
0.0163712
0.01637
0.0163688
0.0163677
0.0163667
0.0163658
0.016365
0.0163643
0.0163637
0.0163632
0.0163628
0.0163625
0.0163623
0.0163622
0.0163624
0.0163624
0.0163623
0.0163621
0.0163618
0.0163616
0.0163658
0.0163652
0.0163646
0.016364
0.0163635
0.0163629
0.0163623
0.0163617
0.0163611
0.0163605
0.01636
0.0163595
0.0163591
0.0163587
0.0163585
0.0163583
0.0163582
0.0163583
0.0163585
0.0163585
0.0163584
0.0163582
0.016358
0.0163578
0.0163576
0.0163573
0.0163571
0.0163568
0.0163565
0.0163562
0.0163558
0.0163555
0.0163551
0.0163548
0.016364
0.0163639
0.0163638
0.0163637
0.0163635
0.0163633
0.0163631
0.0163628
0.0163625
0.0163622
0.0163619
0.0163616
0.0163612
0.0163608
0.0163604
0.01636
0.0163596
0.0163591
0.0163587
0.0163582
0.0163577
0.0163572
0.0163567
0.0163561
0.0163556
0.016355
0.0163545
0.0163539
0.0163534
0.0163528
0.0163522
0.0163517
0.0163513
0.0163511
0.0163234
0.0163232
0.016323
0.0163228
0.0163226
0.0163224
0.0163222
0.016322
0.0163217
0.0163215
0.0163213
0.0163211
0.0163209
0.0163207
0.0163205
0.0163203
0.0163201
0.0163199
0.0163197
0.0163195
0.0163193
0.0163191
0.0163189
0.0163187
0.0163185
0.0163183
0.0163181
0.0163179
0.0163177
0.0163175
0.0163174
0.0163172
0.016317
0.0163168
0.0163063
0.0163067
0.0163071
0.0163072
0.0163072
0.0163071
0.016307
0.0163068
0.0163065
0.0163063
0.0163059
0.0163056
0.0163052
0.0163048
0.0163044
0.0163039
0.0163035
0.016303
0.0163025
0.016302
0.0163014
0.0163009
0.0163003
0.0162997
0.0162991
0.0162985
0.0162979
0.0162973
0.0162967
0.0162961
0.0162954
0.0162948
0.0162942
0.0162936
0.0162624
0.0162627
0.0162631
0.0162634
0.0162637
0.0162641
0.0162645
0.0162648
0.0162652
0.0162655
0.0162659
0.0162663
0.0162667
0.0162671
0.0162675
0.0162679
0.0162684
0.0162688
0.0162692
0.0162697
0.0162701
0.0162706
0.016271
0.0162715
0.016272
0.0162721
0.0162721
0.016272
0.0162719
0.0162717
0.0162715
0.0162712
0.0162709
0.0162706
0.0162464
0.0162469
0.0162475
0.0162481
0.0162486
0.0162492
0.0162498
0.0162504
0.0162505
0.0162505
0.0162504
0.0162502
0.01625
0.0162498
0.0162495
0.0162492
0.0162488
0.0162484
0.0162481
0.0162478
0.0162476
0.0162475
0.0162479
0.0162485
0.016249
0.0162496
0.0162501
0.0162507
0.0162512
0.0162518
0.0162523
0.0162529
0.0162535
0.0162541
0.0162217
0.0162223
0.0162229
0.0162235
0.0162241
0.0162247
0.0162253
0.0162259
0.0162266
0.0162272
0.0162278
0.0162284
0.0162291
0.0162296
0.0162298
0.0162298
0.0162297
0.0162295
0.0162292
0.016229
0.0162289
0.0162291
0.0162297
0.0162303
0.016231
0.0162316
0.0162323
0.016233
0.0162336
0.0162343
0.016235
0.0162356
0.0162363
0.016237
0.0161934
0.016194
0.0161947
0.0161954
0.0161961
0.0161968
0.0161975
0.0161982
0.0161989
0.0161996
0.0162003
0.016201
0.0162017
0.0162024
0.0162031
0.0162039
0.0162046
0.0162053
0.0162061
0.0162068
0.0162076
0.0162083
0.0162091
0.0162099
0.0162106
0.0162114
0.0162122
0.016213
0.0162138
0.0162146
0.0162154
0.0162162
0.016217
0.0162178
0.0162186
0.0161689
0.0161698
0.0161706
0.0161715
0.0161723
0.0161732
0.016174
0.0161749
0.0161758
0.0161767
0.0161775
0.0161784
0.0161793
0.0161802
0.0161811
0.016182
0.0161829
0.0161838
0.0161847
0.0161856
0.0161865
0.0161874
0.0161883
0.0161892
0.0161901
0.0161911
0.016192
0.0161929
0.0161938
0.0161948
0.0161957
0.0161966
0.0161976
0.0161985
0.0161995
0.0161437
0.0161447
0.0161457
0.0161467
0.0161477
0.0161487
0.0161498
0.0161508
0.0161518
0.0161528
0.0161539
0.0161549
0.0161559
0.016157
0.016158
0.0161591
0.0161601
0.0161612
0.0161622
0.0161633
0.0161644
0.0161655
0.0161665
0.0161676
0.0161687
0.0161698
0.0161709
0.016172
0.0161731
0.0161742
0.0161753
0.0161764
0.0161775
0.0161786
0.0161797
0.0161169
0.016118
0.0161192
0.0161204
0.0161216
0.0161228
0.0161239
0.0161251
0.0161263
0.0161276
0.0161288
0.01613
0.0161312
0.0161324
0.0161337
0.0161349
0.0161361
0.0161374
0.0161386
0.0161399
0.0161411
0.0161424
0.0161437
0.0161449
0.0161462
0.0161475
0.0161488
0.0161501
0.0161513
0.0161526
0.0161539
0.0161552
0.0161565
0.0161578
0.0161592
0.0160882
0.0160895
0.0160909
0.0160923
0.0160937
0.016095
0.0160964
0.0160978
0.0160992
0.0161006
0.0161021
0.0161035
0.0161049
0.0161064
0.0161078
0.0161092
0.0161107
0.0161121
0.0161136
0.0161151
0.0161165
0.016118
0.0161195
0.016121
0.0161225
0.016124
0.0161255
0.016127
0.0161285
0.01613
0.0161316
0.0161331
0.0161346
0.0161361
0.0161377
0.0160574
0.016059
0.0160606
0.0160622
0.0160638
0.0160654
0.016067
0.0160686
0.0160703
0.0160719
0.0160736
0.0160752
0.0160769
0.0160786
0.0160803
0.016082
0.0160837
0.0160854
0.0160871
0.0160888
0.0160905
0.0160922
0.016094
0.0160957
0.0160975
0.0160992
0.016101
0.0161027
0.0161045
0.0161063
0.0161081
0.0161098
0.0161116
0.0161134
0.0161152
0.0160243
0.0160261
0.016028
0.0160299
0.0160317
0.0160336
0.0160355
0.0160374
0.0160393
0.0160412
0.0160431
0.0160451
0.016047
0.016049
0.0160509
0.0160529
0.0160549
0.0160568
0.0160588
0.0160608
0.0160628
0.0160649
0.0160669
0.0160689
0.0160709
0.016073
0.016075
0.0160771
0.0160792
0.0160812
0.0160833
0.0160854
0.0160875
0.0160896
0.0160917
0.0159885
0.0159906
0.0159928
0.0159949
0.0159971
0.0159993
0.0160015
0.0160037
0.0160059
0.0160081
0.0160103
0.0160126
0.0160148
0.0160171
0.0160194
0.0160217
0.016024
0.0160263
0.0160286
0.0160309
0.0160332
0.0160356
0.0160379
0.0160403
0.0160427
0.0160451
0.0160474
0.0160498
0.0160522
0.0160547
0.0160571
0.0160595
0.016062
0.0160644
0.0160669
0.0159494
0.0159519
0.0159544
0.0159569
0.0159594
0.0159619
0.0159644
0.015967
0.0159695
0.0159721
0.0159747
0.0159773
0.0159799
0.0159825
0.0159852
0.0159878
0.0159905
0.0159931
0.0159958
0.0159985
0.0160012
0.016004
0.0160067
0.0160095
0.0160122
0.016015
0.0160178
0.0160205
0.0160234
0.0160262
0.016029
0.0160319
0.0160347
0.0160376
0.0160405
0.0159064
0.0159093
0.0159121
0.015915
0.0159179
0.0159208
0.0159237
0.0159266
0.0159296
0.0159326
0.0159356
0.0159386
0.0159416
0.0159447
0.0159477
0.0159508
0.0159539
0.015957
0.0159601
0.0159632
0.0159664
0.0159696
0.0159727
0.0159759
0.0159791
0.0159824
0.0159856
0.0159889
0.0159922
0.0159955
0.0159988
0.0160021
0.0160055
0.0160088
0.0160122
0.0158587
0.015862
0.0158653
0.0158686
0.0158719
0.0158753
0.0158786
0.0158821
0.0158855
0.0158889
0.0158924
0.0158959
0.0158994
0.0159029
0.0159065
0.01591
0.0159136
0.0159172
0.0159209
0.0159245
0.0159282
0.0159319
0.0159356
0.0159393
0.0159431
0.0159469
0.0159507
0.0159545
0.0159583
0.0159622
0.015966
0.0159699
0.0159738
0.0159777
0.0159816
0.0158054
0.0158092
0.015813
0.0158168
0.0158207
0.0158246
0.0158285
0.0158324
0.0158364
0.0158404
0.0158444
0.0158484
0.0158525
0.0158566
0.0158607
0.0158649
0.015869
0.0158732
0.0158775
0.0158817
0.015886
0.0158904
0.0158947
0.0158991
0.0159035
0.0159079
0.0159123
0.0159168
0.0159212
0.0159257
0.0159302
0.0159348
0.0159393
0.0159439
0.0159484
0.0157458
0.0157502
0.0157546
0.015759
0.0157635
0.015768
0.0157725
0.0157771
0.0157817
0.0157863
0.0157909
0.0157956
0.0158004
0.0158051
0.0158099
0.0158147
0.0158196
0.0158245
0.0158295
0.0158345
0.0158395
0.0158445
0.0158496
0.0158547
0.0158598
0.015865
0.0158702
0.0158754
0.0158806
0.0158858
0.0158911
0.0158964
0.0159017
0.015907
0.0159123
0.0156792
0.0156843
0.0156893
0.0156945
0.0156996
0.0157048
0.0157101
0.0157154
0.0157207
0.0157261
0.0157315
0.0157369
0.0157424
0.015748
0.0157536
0.0157592
0.0157649
0.0157707
0.0157764
0.0157823
0.0157881
0.015794
0.0157999
0.0158059
0.0158119
0.0158179
0.0158239
0.01583
0.0158361
0.0158422
0.0158484
0.0158546
0.0158608
0.015867
0.0158732
0.0156049
0.0156107
0.0156166
0.0156225
0.0156285
0.0156345
0.0156406
0.0156467
0.0156529
0.0156591
0.0156654
0.0156717
0.0156781
0.0156846
0.0156912
0.0156978
0.0157044
0.0157111
0.0157178
0.0157246
0.0157314
0.0157383
0.0157452
0.0157522
0.0157592
0.0157662
0.0157732
0.0157803
0.0157875
0.0157946
0.0158018
0.015809
0.0158163
0.0158236
0.0158309
0.0155219
0.0155286
0.0155354
0.0155423
0.0155492
0.0155561
0.0155632
0.0155703
0.0155775
0.0155847
0.015592
0.0155994
0.0156069
0.0156144
0.015622
0.0156297
0.0156375
0.0156452
0.0156531
0.015661
0.015669
0.015677
0.015685
0.0156931
0.0157013
0.0157095
0.0157178
0.0157261
0.0157344
0.0157427
0.0157512
0.0157596
0.0157681
0.0157766
0.0157851
0.0154293
0.0154371
0.0154449
0.0154528
0.0154608
0.0154689
0.015477
0.0154853
0.0154936
0.015502
0.0155105
0.0155191
0.0155278
0.0155366
0.0155455
0.0155544
0.0155634
0.0155725
0.0155816
0.0155908
0.0156001
0.0156094
0.0156188
0.0156283
0.0156378
0.0156474
0.015657
0.0156667
0.0156764
0.0156862
0.015696
0.0157059
0.0157158
0.0157257
0.0157357
0.0153256
0.0153346
0.0153436
0.0153528
0.015362
0.0153713
0.0153807
0.0153903
0.0153999
0.0154097
0.0154196
0.0154297
0.0154398
0.0154499
0.0154602
0.0154706
0.0154811
0.0154916
0.0155023
0.015513
0.0155238
0.0155347
0.0155457
0.0155567
0.0155678
0.015579
0.0155903
0.0156016
0.0156129
0.0156244
0.0156358
0.0156474
0.0156589
0.0156705
0.0156822
0.0152095
0.0152198
0.0152302
0.0152407
0.0152514
0.0152622
0.0152731
0.0152841
0.0152954
0.0153067
0.0153182
0.0153298
0.0153415
0.0153533
0.0153653
0.0153773
0.0153895
0.0154018
0.0154142
0.0154267
0.0154393
0.015452
0.0154647
0.0154776
0.0154906
0.0155036
0.0155168
0.01553
0.0155432
0.0155566
0.01557
0.0155835
0.015597
0.0156106
0.0156242
0.0150793
0.0150911
0.0151031
0.0151153
0.0151276
0.01514
0.0151527
0.0151655
0.0151785
0.0151916
0.0152049
0.0152183
0.0152319
0.0152456
0.0152595
0.0152735
0.0152876
0.0153019
0.0153163
0.0153308
0.0153455
0.0153602
0.0153751
0.0153901
0.0154053
0.0154205
0.0154358
0.0154512
0.0154667
0.0154823
0.015498
0.0155137
0.0155296
0.0155454
0.0155613
0.0149333
0.014947
0.0149608
0.0149748
0.0149889
0.0150033
0.0150179
0.0150328
0.0150478
0.0150629
0.0150783
0.0150939
0.0151096
0.0151255
0.0151415
0.0151578
0.0151742
0.0151907
0.0152075
0.0152244
0.0152414
0.0152586
0.0152759
0.0152934
0.015311
0.0153288
0.0153466
0.0153646
0.0153827
0.0154009
0.0154192
0.0154376
0.0154561
0.0154746
0.0154932
0.0147697
0.0147853
0.0148012
0.0148173
0.0148336
0.0148502
0.0148671
0.0148842
0.0149015
0.014919
0.0149367
0.0149547
0.0149729
0.0149913
0.0150099
0.0150287
0.0150477
0.0150669
0.0150863
0.0151059
0.0151257
0.0151457
0.0151659
0.0151863
0.0152068
0.0152275
0.0152483
0.0152693
0.0152904
0.0153117
0.015333
0.0153545
0.0153761
0.0153978
0.0154195
0.0145862
0.0146042
0.0146224
0.0146408
0.0146596
0.0146787
0.0146981
0.0147178
0.0147377
0.0147579
0.0147784
0.0147991
0.0148201
0.0148413
0.0148628
0.0148846
0.0149066
0.0149289
0.0149514
0.0149741
0.0149971
0.0150203
0.0150437
0.0150674
0.0150913
0.0151154
0.0151397
0.0151641
0.0151888
0.0152136
0.0152386
0.0152636
0.0152889
0.0153142
0.0153396
0.0143808
0.0144013
0.0144222
0.0144433
0.0144649
0.0144868
0.014509
0.0145316
0.0145545
0.0145777
0.0146012
0.0146251
0.0146493
0.0146737
0.0146985
0.0147237
0.0147491
0.0147748
0.0148009
0.0148272
0.0148538
0.0148808
0.014908
0.0149355
0.0149632
0.0149912
0.0150195
0.015048
0.0150768
0.0151057
0.0151348
0.0151641
0.0151936
0.0152232
0.0152528
0.0141513
0.0141747
0.0141984
0.0142225
0.0142472
0.0142722
0.0142976
0.0143234
0.0143497
0.0143763
0.0144033
0.0144306
0.0144584
0.0144866
0.0145151
0.014544
0.0145733
0.014603
0.0146331
0.0146635
0.0146943
0.0147255
0.014757
0.0147889
0.0148211
0.0148537
0.0148866
0.0149197
0.0149532
0.014987
0.0150209
0.0150551
0.0150895
0.0151241
0.0151587
0.0138955
0.013922
0.0139489
0.0139764
0.0140044
0.0140329
0.0140619
0.0140913
0.0141212
0.0141516
0.0141824
0.0142137
0.0142455
0.0142778
0.0143105
0.0143437
0.0143774
0.0144115
0.0144461
0.0144812
0.0145167
0.0145527
0.0145892
0.0146261
0.0146634
0.0147012
0.0147393
0.0147779
0.0148169
0.0148561
0.0148958
0.0149356
0.0149758
0.0150161
0.0150566
0.0136117
0.0136416
0.013672
0.0137031
0.0137347
0.013767
0.0137998
0.0138331
0.0138671
0.0139016
0.0139367
0.0139723
0.0140085
0.0140453
0.0140827
0.0141207
0.0141592
0.0141983
0.014238
0.0142783
0.0143192
0.0143606
0.0144026
0.0144452
0.0144884
0.0145321
0.0145763
0.0146211
0.0146663
0.014712
0.0147581
0.0148046
0.0148514
0.0148984
0.0149457
0.0132984
0.0133318
0.0133659
0.0134008
0.0134364
0.0134726
0.0135096
0.0135472
0.0135855
0.0136244
0.0136641
0.0137045
0.0137456
0.0137873
0.0138298
0.013873
0.0139169
0.0139615
0.0140068
0.0140529
0.0140997
0.0141473
0.0141956
0.0142446
0.0142943
0.0143447
0.0143959
0.0144477
0.0145001
0.0145532
0.0146068
0.0146608
0.0147154
0.0147702
0.0148253
0.0129545
0.0129917
0.0130297
0.0130685
0.0131082
0.0131486
0.0131899
0.013232
0.0132749
0.0133186
0.0133632
0.0134086
0.0134549
0.013502
0.01355
0.0135988
0.0136486
0.0136992
0.0137507
0.0138032
0.0138565
0.0139108
0.0139661
0.0140222
0.0140793
0.0141373
0.0141962
0.014256
0.0143167
0.0143781
0.0144403
0.0145032
0.0145666
0.0146305
0.0146947
0.01258
0.0126209
0.0126628
0.0127057
0.0127495
0.0127943
0.01284
0.0128867
0.0129344
0.0129831
0.0130328
0.0130835
0.0131352
0.013188
0.0132418
0.0132967
0.0133526
0.0134097
0.0134679
0.0135273
0.0135878
0.0136495
0.0137123
0.0137764
0.0138416
0.013908
0.0139757
0.0140444
0.0141144
0.0141853
0.0142573
0.0143302
0.0144039
0.0144782
0.0145531
0.0121755
0.0122201
0.0122658
0.0123127
0.0123606
0.0124097
0.0124599
0.0125113
0.0125638
0.0126174
0.0126723
0.0127284
0.0127858
0.0128444
0.0129042
0.0129654
0.0130279
0.0130918
0.0131571
0.0132238
0.0132919
0.0133616
0.0134327
0.0135053
0.0135795
0.0136552
0.0137324
0.0138112
0.0138915
0.0139732
0.0140563
0.0141406
0.014226
0.0143124
0.0143994
0.0117427
0.0117907
0.01184
0.0118907
0.0119426
0.0119958
0.0120503
0.0121062
0.0121634
0.012222
0.0122821
0.0123436
0.0124065
0.012471
0.012537
0.0126046
0.0126738
0.0127447
0.0128173
0.0128917
0.0129679
0.0130459
0.0131257
0.0132076
0.0132913
0.0133771
0.0134649
0.0135546
0.0136464
0.0137401
0.0138357
0.0139329
0.0140317
0.0141318
0.0142328
0.011284
0.0113351
0.0113877
0.0114418
0.0114974
0.0115545
0.011613
0.0116731
0.0117348
0.0117981
0.0118631
0.0119298
0.0119982
0.0120684
0.0121405
0.0122145
0.0122904
0.0123683
0.0124483
0.0125305
0.0126149
0.0127016
0.0127906
0.012882
0.012976
0.0130725
0.0131716
0.0132732
0.0133776
0.0134845
0.0135939
0.0137056
0.0138195
0.0139352
0.0140524
0.0108029
0.0108567
0.0109122
0.0109693
0.011028
0.0110885
0.0111506
0.0112146
0.0112803
0.0113479
0.0114174
0.0114889
0.0115625
0.0116381
0.0117159
0.011796
0.0118784
0.0119632
0.0120505
0.0121404
0.012233
0.0123285
0.0124268
0.0125282
0.0126326
0.0127403
0.0128513
0.0129658
0.0130836
0.0132049
0.0133295
0.0134573
0.0135881
0.0137216
0.0138571
0.0103037
0.0103596
0.0104174
0.0104768
0.0105382
0.0106014
0.0106666
0.0107338
0.010803
0.0108743
0.0109478
0.0110236
0.0111017
0.0111823
0.0112654
0.0113511
0.0114395
0.0115308
0.0116251
0.0117224
0.0118231
0.0119271
0.0120346
0.0121459
0.012261
0.0123802
0.0125036
0.0126313
0.0127634
0.0129
0.0130412
0.0131867
0.0133363
0.0134896
0.0136459
0.00979143
0.00984873
0.00990797
0.00996918
0.0100324
0.0100977
0.0101652
0.0102349
0.0103068
0.0103812
0.010458
0.0105373
0.0106193
0.0107041
0.0107918
0.0108825
0.0109763
0.0110735
0.0111741
0.0112784
0.0113865
0.0114987
0.0116151
0.011736
0.0118617
0.0119923
0.0121281
0.0122694
0.0124164
0.0125692
0.0127279
0.0128925
0.0130627
0.013238
0.0134178
0.00927213
0.0093299
0.00938977
0.00945178
0.009516
0.0095825
0.00965136
0.00972266
0.00979649
0.00987295
0.00995214
0.0100342
0.0101192
0.0102073
0.0102987
0.0103936
0.010492
0.0105942
0.0107004
0.0108108
0.0109257
0.0110453
0.01117
0.0113
0.0114357
0.0115774
0.0117255
0.0118804
0.0120424
0.0122118
0.0123889
0.0125738
0.0127662
0.0129659
0.0131718
0.0087531
0.00881014
0.00886946
0.00893111
0.00899518
0.00906174
0.00913089
0.00920271
0.00927733
0.00935484
0.00943537
0.00951905
0.00960604
0.00969649
0.00979057
0.00988849
0.00999044
0.0100967
0.0102074
0.010323
0.0104437
0.0105699
0.0107018
0.0108401
0.010985
0.0111371
0.0112969
0.011465
0.0116418
0.011828
0.0120239
0.01223
0.0124462
0.0126722
0.012907
0.00824396
0.00829857
0.00835569
0.00841537
0.00847772
0.00854282
0.00861078
0.00868169
0.00875568
0.00883288
0.00891341
0.00899743
0.0090851
0.0091766
0.00927213
0.00937191
0.00947619
0.00958523
0.00969934
0.00981886
0.00994415
0.0100756
0.0102138
0.0103591
0.0105122
0.0106737
0.0108443
0.0110247
0.0112158
0.0114184
0.0116332
0.0118609
0.012102
0.0123562
0.0126227
0.00775857
0.0078082
0.00786063
0.00791594
0.00797424
0.00803564
0.00810026
0.0081682
0.0082396
0.00831458
0.00839331
0.00847592
0.00856261
0.00865356
0.00874898
0.00884912
0.00895425
0.00906467
0.00918071
0.00930276
0.00943125
0.00956669
0.00970961
0.00986066
0.0100206
0.0101901
0.0103702
0.0105618
0.0107661
0.0109843
0.0112175
0.011467
0.0117334
0.0120173
0.0123181
0.00731817
0.00735888
0.00740276
0.00744993
0.00750054
0.00755475
0.00761269
0.0076745
0.00774029
0.00781022
0.00788444
0.00796313
0.00804645
0.00813461
0.00822783
0.00832635
0.00843044
0.00854043
0.00865667
0.00877958
0.00890963
0.00904739
0.00919348
0.00934864
0.00951372
0.00968971
0.00987772
0.010079
0.0102951
0.0105276
0.0107783
0.0110489
0.0113409
0.0116555
0.0119927
0.0069498
0.00697805
0.00700903
0.00704317
0.00708091
0.00712266
0.00716876
0.00721944
0.00727486
0.0073352
0.00740066
0.00747143
0.00754771
0.00762967
0.00771753
0.00781152
0.00791192
0.00801902
0.00813319
0.00825483
0.00838444
0.00852259
0.00866998
0.00882742
0.00899586
0.00917646
0.00937056
0.00957974
0.00980583
0.010051
0.0103175
0.0106081
0.0109252
0.0112709
0.0116464
0.00663785
0.0066577
0.00667951
0.00670353
0.00673005
0.00675936
0.00679181
0.00682783
0.00686796
0.00691289
0.00696338
0.00702009
0.00708344
0.00715372
0.00723116
0.00731603
0.00740857
0.00750907
0.00761781
0.00773519
0.00786165
0.00799774
0.00814414
0.00830169
0.00847141
0.00865456
0.00885266
0.00906758
0.00930155
0.00955723
0.00983772
0.0101466
0.0104875
0.0108642
0.0112791
0.00635645
0.00637021
0.00638541
0.00640227
0.00642098
0.00644178
0.00646493
0.00649076
0.00651963
0.00655203
0.00658845
0.0066295
0.00667591
0.00672862
0.00678876
0.00685746
0.00693551
0.00702336
0.00712132
0.00722973
0.00734896
0.00747945
0.00762177
0.00777667
0.00794514
0.00812846
0.00832826
0.0085466
0.00878607
0.00904987
0.00934189
0.00966678
0.0100298
0.0104363
0.0108912
0.00609455
0.00610342
0.00611332
0.00612448
0.00613706
0.00615126
0.0061673
0.00618542
0.00620594
0.00622917
0.00625551
0.00628542
0.00631943
0.00635824
0.00640266
0.0064537
0.00651256
0.00658079
0.00666017
0.00675216
0.00685755
0.00697676
0.00711026
0.00725856
0.00742243
0.00760299
0.0078018
0.00802097
0.00826335
0.00853261
0.00883341
0.00917159
0.00955412
0.00998875
0.0104834
0.00584688
0.00585174
0.00585727
0.00586369
0.00587115
0.00587983
0.00588991
0.00590163
0.00591522
0.00593097
0.0059492
0.00597029
0.00599469
0.00602291
0.00605559
0.00609348
0.00613752
0.00618888
0.00624905
0.0063199
0.00640379
0.00650332
0.00662035
0.0067557
0.00690989
0.00708361
0.00727804
0.00749507
0.00773752
0.00800935
0.00831593
0.00866427
0.00906328
0.00952351
0.0100566
0.00560989
0.00561162
0.00561371
0.00561629
0.00561953
0.00562358
0.00562862
0.00563484
0.00564247
0.00565175
0.00566297
0.00567647
0.00569264
0.00571193
0.00573487
0.00576208
0.00579433
0.00583254
0.00587786
0.00593175
0.00599611
0.00607343
0.00616693
0.00628039
0.00641678
0.00657725
0.00676244
0.00697352
0.00721278
0.0074841
0.00779325
0.00814833
0.00856027
0.00904284
0.00961223
0.00538034
0.00537987
0.00537955
0.00537929
0.00537929
0.00537969
0.00538065
0.00538233
0.00538492
0.00538864
0.00539377
0.0054006
0.00540948
0.00542084
0.00543514
0.00545295
0.00547494
0.00550189
0.00553479
0.00557482
0.00562351
0.00568283
0.0057554
0.00584481
0.0059558
0.00609375
0.00626202
0.00646156
0.00669351
0.00696086
0.00726922
0.00762742
0.00804838
0.0085494
0.00915199
0.00515505
0.00515339
0.00515163
0.00514962
0.00514747
0.00514532
0.00514328
0.0051415
0.00514014
0.00513938
0.00513946
0.00514061
0.00514317
0.00514751
0.00515409
0.00516341
0.0051761
0.00519288
0.00521462
0.00524238
0.00527748
0.00532155
0.00537675
0.00544598
0.00553327
0.00564429
0.00578642
0.0059659
0.00618457
0.00644372
0.00674767
0.00710526
0.00753108
0.00804614
0.00867792
0.00493075
0.00492885
0.0049266
0.004924
0.00492086
0.00491733
0.00491351
0.00490951
0.00490543
0.00490143
0.00489766
0.00489435
0.00489176
0.00489024
0.00489019
0.00489202
0.00489633
0.00490385
0.00491535
0.00493183
0.00495447
0.00498476
0.00502456
0.00507631
0.00514337
0.00523046
0.00534453
0.0054953
0.00569189
0.00593697
0.00623237
0.00658551
0.00701188
0.00753618
0.00819236
0.00470451
0.00470323
0.00470143
0.00469909
0.00469611
0.00469238
0.004688
0.00468305
0.0046776
0.00467172
0.00466554
0.0046592
0.0046529
0.00464689
0.00464152
0.00463715
0.00463434
0.00463373
0.00463601
0.00464213
0.00465326
0.00467073
0.00469628
0.00473207
0.004781
0.00484707
0.00493612
0.00505707
0.00522299
0.00544554
0.00572711
0.0060717
0.00649428
0.00702279
0.00769788
0.00447392
0.00447394
0.00447332
0.00447205
0.00447008
0.00446722
0.00446343
0.00445875
0.00445321
0.00444685
0.00443972
0.00443188
0.00442345
0.00441461
0.00440557
0.00439665
0.00438828
0.00438098
0.0043754
0.00437244
0.00437317
0.00437881
0.00439109
0.00441197
0.0044441
0.00449098
0.00455757
0.00465144
0.00478476
0.00497551
0.00523589
0.00556729
0.00598167
0.00650926
0.00719728
0.00423727
0.00423904
0.00424015
0.00424057
0.00424022
0.00423904
0.00423678
0.00423342
0.00422895
0.00422337
0.00421666
0.00420882
0.00419988
0.00418991
0.00417902
0.0041674
0.00415535
0.00414325
0.00413165
0.00412129
0.00411311
0.00410832
0.00410853
0.00411557
0.00413199
0.00416098
0.00420692
0.00427624
0.00437925
0.00453368
0.00476333
0.0050757
0.00547729
0.00599881
0.00669349
0.0039936
0.00399737
0.00400053
0.00400302
0.00400475
0.00400564
0.00400563
0.00400439
0.00400192
0.00399816
0.00399304
0.00398652
0.00397853
0.00396906
0.00395809
0.0039457
0.00393202
0.00391727
0.00390181
0.0038862
0.00387121
0.00385788
0.00384764
0.0038423
0.00384428
0.0038566
0.00388332
0.00393008
0.00400558
0.00412488
0.00431512
0.00460053
0.0049843
0.00549452
0.00618954
0.00374262
0.00374847
0.0037538
0.00375853
0.00376258
0.00376586
0.00376827
0.00376972
0.00376988
0.00376869
0.00376606
0.00376189
0.00375606
0.00374847
0.00373901
0.00372763
0.0037143
0.00369907
0.00368211
0.00366371
0.00364441
0.00362498
0.00360661
0.00359093
0.00358017
0.0035773
0.00358617
0.00361204
0.00366244
0.00374987
0.00389801
0.00414583
0.00450579
0.00499935
0.00568842
0.00348468
0.00349252
0.00349996
0.00350692
0.00351333
0.00351907
0.00352407
0.0035282
0.00353135
0.00353318
0.00353362
0.00353251
0.00352971
0.00352505
0.00351835
0.00350946
0.00349821
0.0034845
0.00346829
0.00344961
0.00342871
0.00340603
0.00338239
0.00335908
0.00333803
0.00332198
0.00331468
0.00332119
0.00334846
0.00340716
0.00351659
0.00371669
0.0040449
0.00451619
0.00519285
0.00322063
0.00323025
0.0032396
0.00324861
0.00325722
0.00326533
0.00327285
0.00327967
0.00328566
0.0032907
0.00329444
0.00329676
0.00329749
0.00329644
0.00329336
0.00328803
0.0032802
0.00326963
0.0032561
0.00323943
0.00321955
0.00319657
0.00317084
0.00314319
0.00311503
0.00308866
0.00306751
0.00305647
0.00306227
0.00309461
0.00316948
0.00331958
0.00360467
0.0040477
0.00470396
0.00295179
0.00296285
0.00297378
0.00298454
0.00299506
0.00300526
0.00301506
0.00302436
0.00303304
0.00304097
0.00304801
0.00305383
0.00305826
0.00306109
0.00306209
0.00306097
0.00305744
0.00305114
0.00304176
0.00302893
0.00301234
0.00299175
0.0029671
0.00293862
0.00290708
0.00287407
0.00284235
0.00281637
0.00280263
0.0028104
0.00285376
0.00295883
0.00318824
0.00359633
0.00422376
0.00267985
0.00269192
0.00270402
0.0027161
0.00272811
0.00274
0.00275169
0.0027631
0.00277412
0.00278465
0.00279454
0.00280364
0.00281164
0.00281833
0.00282346
0.00282677
0.00282793
0.00282657
0.00282226
0.00281454
0.00280293
0.00278692
0.00276608
0.00274012
0.00270909
0.00267368
0.00263565
0.00259849
0.00256805
0.00255328
0.00256736
0.00263197
0.00279987
0.00316474
0.00375694
0.00240691
0.00241948
0.00243222
0.00244511
0.0024581
0.00247116
0.00248422
0.00249722
0.00251008
0.00252271
0.002535
0.00254679
0.00255795
0.00256818
0.00257721
0.0025848
0.00259063
0.00259434
0.0025955
0.00259357
0.00258796
0.00257805
0.0025631
0.00254243
0.00251546
0.00248195
0.00244247
0.00239905
0.00235622
0.00232204
0.00230923
0.00233703
0.00244571
0.00275558
0.00330589
0.00213543
0.00214794
0.00216075
0.00217385
0.00218722
0.00220083
0.00221463
0.00222859
0.00224265
0.00225674
0.00227077
0.00228464
0.00229822
0.00231134
0.00232376
0.00233517
0.0023453
0.00235382
0.00236031
0.00236427
0.00236509
0.00236204
0.00235428
0.00234085
0.00232072
0.00229292
0.00225681
0.00221279
0.00216333
0.00211469
0.00207863
0.00207373
0.00213265
0.00237181
0.00287344
0.00186822
0.0018801
0.00189238
0.00190507
0.00191815
0.00193161
0.00194545
0.00195963
0.00197413
0.0019889
0.0020039
0.00201903
0.00203423
0.00204935
0.00206426
0.00207876
0.00209248
0.00210517
0.00211647
0.00212592
0.00213294
0.00213684
0.00213676
0.0021316
0.00212012
0.00210085
0.00207226
0.00203319
0.0019838
0.0019275
0.00187378
0.00184064
0.00185905
0.00201715
0.00246188
0.00160834
0.00161907
0.00163025
0.0016419
0.00165404
0.00166667
0.00167979
0.0016934
0.0017075
0.00172208
0.00173712
0.00175257
0.00176839
0.00178452
0.00180084
0.00181723
0.00183354
0.00184941
0.00186458
0.00187866
0.00189117
0.00190148
0.00190879
0.00191205
0.00190997
0.00190086
0.00188271
0.00185324
0.0018105
0.00175457
0.00169095
0.00163493
0.0016161
0.00169717
0.00207393
0.00135889
0.00136803
0.00137764
0.00138774
0.00139836
0.00140951
0.00142122
0.00143351
0.00144639
0.00145989
0.001474
0.00148874
0.00150409
0.00152004
0.00153654
0.00155354
0.00157095
0.00158863
0.00160633
0.00162372
0.00164046
0.00165604
0.00166978
0.00168077
0.00168781
0.00168927
0.00168299
0.0016662
0.00163552
0.00158803
0.00152416
0.00145358
0.00140255
0.00142182
0.00171357
0.00112265
0.00112995
0.00113768
0.00114588
0.00115456
0.00116377
0.00117353
0.00118388
0.00119485
0.00120647
0.00121878
0.00123182
0.00124561
0.00126018
0.00127555
0.00129172
0.00130869
0.00132641
0.00134481
0.00136373
0.00138286
0.00140191
0.00142039
0.00143757
0.00145248
0.00146371
0.00146927
0.00146639
0.00145118
0.00141877
0.0013649
0.00129151
0.00121899
0.00120151
0.0013834
0.000901825
0.000907204
0.000912951
0.000919093
0.000925658
0.000932678
0.000940188
0.000948227
0.000956832
0.000966049
0.000975925
0.000986511
0.000997862
0.00101003
0.00102308
0.00103707
0.00105205
0.00106806
0.00108515
0.00110331
0.00112251
0.00114256
0.00116321
0.00118407
0.00120448
0.00122339
0.00123922
0.00124958
0.00125084
0.00123756
0.00120243
0.00113939
0.00105733
0.00100393
0.00108412
0.000697666
0.000701241
0.000705098
0.000709257
0.000713742
0.000718581
0.000723809
0.00072947
0.000735584
0.000742199
0.000749361
0.000757124
0.000765547
0.000774695
0.000784641
0.000795468
0.000807264
0.000820126
0.000834158
0.000849463
0.000866149
0.000884303
0.000903931
0.000924933
0.000947117
0.000969996
0.000992642
0.00101341
0.00102948
0.00103608
0.0010251
0.000984711
0.000909168
0.000827152
0.000820223
0.000510188
0.000512223
0.000514451
0.000516881
0.000519522
0.000522407
0.000525563
0.000529062
0.000532869
0.000537033
0.000541591
0.000546586
0.000552067
0.000558091
0.000564722
0.000572038
0.000580124
0.000589084
0.000599034
0.00061011
0.000622474
0.000636305
0.000651802
0.000669186
0.000688593
0.000710144
0.000733783
0.000759048
0.000784651
0.000807714
0.000821539
0.000812379
0.000762882
0.000675535
0.00060766
0.000337072
0.00033793
0.0003389
0.00033998
0.000341151
0.000342456
0.000343917
0.000345697
0.00034763
0.000349779
0.000352167
0.000354822
0.000357776
0.000361066
0.000364737
0.000368841
0.000373441
0.00037861
0.000384439
0.000391036
0.000398535
0.000407099
0.000416929
0.000428277
0.000441462
0.00045686
0.000474905
0.00049611
0.000520997
0.000550092
0.000581737
0.000605311
0.00059919
0.000542293
0.000460303
0.00017592
0.000175979
0.000176096
0.000176271
0.000176474
0.000176732
0.000177026
0.000177595
0.000178205
0.000178922
0.000179759
0.000180728
0.000181848
0.000183136
0.000184616
0.000186317
0.000188272
0.000190522
0.000193117
0.000196118
0.000199601
0.000203665
0.000208436
0.00021408
0.000220812
0.000228915
0.000238816
0.000251037
0.000266305
0.000286181
0.00031358
0.000350531
0.00039107
0.000392377
0.000320147
1.39198e-06
1.38091e-06
1.36994e-06
1.35807e-06
1.34076e-06
1.3295e-06
1.37322e-06
1.34212e-06
1.34315e-06
1.3461e-06
1.35141e-06
1.3596e-06
1.37117e-06
1.38655e-06
1.40611e-06
1.43015e-06
1.45914e-06
1.49379e-06
1.53515e-06
1.58503e-06
1.65308e-06
1.74039e-06
1.84794e-06
1.98242e-06
2.15349e-06
2.37556e-06
2.67235e-06
3.08033e-06
3.66016e-06
4.54726e-06
6.05364e-06
8.65852e-06
1.21216e-05
1.51268e-05
0.000106578
0.016362
0.016358
0.0163533
0.0163513
0.0163503
0.0163477
0.0163435
0.0163389
0.0163355
0.0163332
0.0163318
0.016331
0.016331
0.0163326
0.0163333
0.0163335
0.0163336
0.0163335
0.0163331
0.0163326
0.0163321
0.0163316
0.0163312
0.0163309
0.0163306
0.0163304
0.0163302
0.01633
0.0163299
0.0163298
0.0163298
0.0163297
0.0163297
0.0163297
0.0163297
0.0163297
0.0163297
0.0163297
0.0163297