/*--------------------------------*- C++ -*----------------------------------*\
  =========                 |
  \\      /  F ield         | OpenFOAM: The Open Source CFD Toolbox
   \\    /   O peration     | Website:  https://openfoam.org
    \\  /    A nd           | Version:  9
     \\/     M anipulation  |
\*---------------------------------------------------------------------------*/
FoamFile
{
    format      ascii;
    class       volScalarField;
    location    "0.0075";
    object      nut;
}
// * * * * * * * * * * * * * * * * * * * * * * * * * * * * * * * * * * * * * //

dimensions      [0 2 -1 0 0 0 0];

internalField   nonuniform List<scalar> 
6352
(
0.0124611
0.0123916
0.0124347
0.0125259
0.0126301
0.0127323
0.0128267
0.0129119
0.012988
0.0130561
0.0131171
0.0131719
0.0132216
0.0132667
0.0133079
0.0133457
0.0133804
0.0134125
0.013442
0.0134693
0.0134946
0.0135181
0.0135399
0.0135602
0.013579
0.0123221
0.0122541
0.0122959
0.0123859
0.0124911
0.0125966
0.0126956
0.012786
0.0128674
0.0129405
0.0130062
0.0130655
0.0131193
0.0131681
0.0132127
0.0132541
0.0132923
0.0133276
0.0133603
0.0133907
0.0134189
0.0134453
0.0134699
0.0134929
0.0135144
0.0121051
0.0121463
0.0122342
0.0123385
0.012446
0.012549
0.0126443
0.0127309
0.0128093
0.0128802
0.0129448
0.0130037
0.0130576
0.0131069
0.0131523
0.0131942
0.0132329
0.0132689
0.0133023
0.0133335
0.0133626
0.0133898
0.0134153
0.0134393
0.0119492
0.0119926
0.0120807
0.012185
0.0122935
0.0123987
0.0124974
0.0125883
0.0126716
0.0127476
0.0128171
0.0128806
0.0129388
0.0129923
0.0130415
0.013087
0.0131292
0.0131683
0.0132048
0.0132388
0.0132706
0.0133004
0.0133284
0.0133547
0.0117861
0.0118328
0.0119217
0.0120266
0.0121349
0.0122415
0.0123429
0.0124374
0.0125248
0.0126051
0.012679
0.0127469
0.0128095
0.0128671
0.0129204
0.0129698
0.0130156
0.0130582
0.013098
0.0131351
0.0131699
0.0132025
0.0132331
0.013262
0.0116155
0.0116667
0.0117566
0.0118617
0.0119699
0.0120772
0.0121802
0.0122774
0.0123682
0.0124524
0.0125304
0.0126025
0.0126692
0.012731
0.0127883
0.0128416
0.0128912
0.0129375
0.0129807
0.0130211
0.0130591
0.0130947
0.0131282
0.0131598
0.0114381
0.0114943
0.0115854
0.0116907
0.0117993
0.0119059
0.0120096
0.0121086
0.0122019
0.0122893
0.0123709
0.0124468
0.0125175
0.0125833
0.0126446
0.0127018
0.0127551
0.0128051
0.0128518
0.0128957
0.0129369
0.0129757
0.0130123
0.0130468
0.0112546
0.0113159
0.011408
0.0115131
0.0116215
0.0117282
0.0118314
0.0119311
0.0120262
0.0121161
0.0122006
0.0122799
0.0123542
0.0124237
0.0124888
0.0125497
0.0126068
0.0126604
0.0127107
0.0127581
0.0128027
0.0128447
0.0128844
0.012922
0.0110659
0.0111317
0.0112244
0.011329
0.0114366
0.011543
0.0116459
0.0117453
0.0118412
0.0119328
0.0120196
0.0121017
0.0121791
0.0122519
0.0123205
0.012385
0.0124456
0.0125028
0.0125566
0.0126074
0.0126554
0.0127008
0.0127437
0.0127843
0.0108726
0.0109422
0.011035
0.0111384
0.0112448
0.0113503
0.0114528
0.0115515
0.0116471
0.0117394
0.0118279
0.0119121
0.0119921
0.0120679
0.0121395
0.0122072
0.0122712
0.0123317
0.0123889
0.0124431
0.0124944
0.012543
0.0125891
0.0126329
0.0106757
0.0107479
0.01084
0.0109415
0.011046
0.01115
0.0112515
0.0113496
0.0114443
0.0115363
0.0116254
0.0117111
0.011793
0.0118712
0.0119455
0.0120161
0.0120831
0.0121467
0.0122071
0.0122644
0.0123189
0.0123706
0.0124199
0.0124667
0.010476
0.0105494
0.0106398
0.0107386
0.0108404
0.0109422
0.0110421
0.0111391
0.011233
0.0113239
0.0114125
0.0114986
0.0115818
0.0116617
0.0117382
0.0118112
0.0118809
0.0119474
0.0120107
0.0120709
0.0121284
0.0121831
0.0122353
0.0122851
0.0103473
0.0104349
0.0105301
0.0106285
0.0107272
0.0108247
0.01092
0.0110126
0.0111025
0.0111898
0.0112751
0.0113585
0.0114393
0.0115173
0.0115922
0.0116641
0.011733
0.0117988
0.0118618
0.011922
0.0119796
0.0120346
0.0120872
0.0101424
0.0102261
0.0103168
0.0104107
0.0105056
0.0105998
0.0106926
0.0107833
0.0108716
0.0109576
0.0110415
0.0111237
0.0112044
0.0112829
0.011359
0.0114325
0.0115032
0.0115712
0.0116364
0.011699
0.0117591
0.0118167
0.011872
0.0099361
0.0100146
0.0100997
0.0101882
0.0102782
0.0103683
0.0104576
0.0105455
0.0106317
0.0107159
0.0107981
0.0108786
0.0109577
0.0110357
0.0111119
0.0111861
0.0112579
0.0113274
0.0113944
0.0114589
0.0115211
0.0115809
0.0116385
0.00972984
0.00980193
0.00988034
0.0099625
0.0100466
0.0101315
0.0102164
0.0103005
0.0103835
0.0104651
0.0105452
0.0106237
0.0107007
0.0107767
0.0108517
0.0109255
0.0109976
0.0110677
0.0111357
0.0112016
0.0112652
0.0113267
0.0113861
0.00952578
0.00959029
0.00966096
0.00973568
0.00981292
0.00989156
0.00997081
0.0100501
0.0101289
0.0102069
0.0102838
0.0103597
0.0104342
0.0105077
0.0105802
0.0106521
0.0107231
0.0107928
0.0108609
0.0109272
0.0109916
0.0110541
0.0111147
0.00938248
0.00944444
0.00951071
0.00957997
0.00965125
0.00972378
0.00979698
0.00987037
0.00994359
0.0100164
0.0100885
0.0101597
0.0102301
0.0102997
0.0103685
0.0104368
0.0105046
0.0105714
0.0106371
0.0107013
0.0107638
0.0108247
0.00918188
0.00923435
0.00929129
0.00935162
0.00941445
0.00947911
0.00954504
0.00961178
0.00967894
0.00974622
0.00981335
0.00988014
0.00994644
0.0100122
0.0100773
0.0101419
0.0102061
0.0102701
0.0103335
0.0103961
0.0104576
0.0105177
0.00899232
0.00903479
0.00908179
0.00913239
0.00918587
0.00924163
0.00929916
0.00935802
0.00941784
0.0094783
0.00953913
0.0096001
0.00966101
0.00972173
0.00978214
0.00984222
0.00990195
0.00996152
0.010021
0.0100802
0.010139
0.0101969
0.00884998
0.00888677
0.00892724
0.00897077
0.00901686
0.00906507
0.00911501
0.00916633
0.00921873
0.00927194
0.00932573
0.00937988
0.00943422
0.00948861
0.00954295
0.00959716
0.0096513
0.0097054
0.00975947
0.00981356
0.00986756
0.00868353
0.00871044
0.00874087
0.00877434
0.00881045
0.00884884
0.00888918
0.00893117
0.00897455
0.00901906
0.00906448
0.0091106
0.00915724
0.00920425
0.00925149
0.00929889
0.00934638
0.0093939
0.00944145
0.00948912
0.009537
0.00853776
0.00855574
0.00857687
0.00860081
0.00862725
0.00865593
0.00868658
0.00871898
0.00875289
0.0087881
0.00882441
0.00886164
0.00889961
0.00893817
0.00897717
0.00901652
0.00905613
0.00909591
0.00913584
0.0091759
0.00921617
0.00842345
0.00843672
0.00845237
0.00847019
0.00849
0.00851161
0.00853487
0.00855959
0.00858562
0.0086128
0.00864096
0.00866996
0.00869967
0.00872994
0.00876069
0.0087918
0.00882318
0.00885477
0.0088865
0.00891836
0.0083114
0.00831893
0.00832822
0.00833918
0.0083517
0.00836567
0.00838101
0.00839759
0.00841533
0.00843409
0.00845377
0.00847426
0.00849544
0.0085172
0.00853946
0.00856212
0.00858509
0.00860829
0.00863164
0.00865511
0.00821877
0.0082242
0.00823065
0.0082381
0.00824652
0.00825587
0.0082661
0.00827717
0.00828902
0.00830159
0.0083148
0.00832859
0.00834287
0.00835759
0.00837269
0.00838807
0.00840369
0.00841947
0.00843536
0.00812846
0.00813284
0.00813753
0.00814258
0.00814801
0.00815382
0.00816004
0.00816668
0.00817371
0.00818114
0.00818893
0.00819706
0.0082055
0.00821421
0.00822317
0.00823232
0.00824163
0.00825105
0.00826055
0.00804406
0.00804984
0.00805532
0.00806055
0.00806559
0.00807051
0.00807534
0.00808012
0.00808489
0.00808966
0.00809445
0.00809925
0.00810412
0.00810902
0.00811394
0.00811885
0.00812372
0.00812856
0.00795568
0.00796421
0.00797191
0.00797884
0.00798511
0.00799079
0.00799597
0.00800075
0.00800529
0.00800959
0.00801366
0.00801753
0.0080212
0.00802468
0.008028
0.00803115
0.00803415
0.00784289
0.00785657
0.00786886
0.00787985
0.00788966
0.00789839
0.00790615
0.00791302
0.00791929
0.00792499
0.00793015
0.00793479
0.00793894
0.00794264
0.00794592
0.00794882
0.00795137
0.00772101
0.00773948
0.00775619
0.00777124
0.00778474
0.00779679
0.00780751
0.0078172
0.007826
0.00783391
0.00784096
0.0078472
0.00785267
0.00785743
0.00786153
0.00786502
0.00757298
0.00759633
0.00761759
0.00763686
0.00765423
0.00766988
0.00768429
0.00769741
0.00770922
0.00771977
0.00772911
0.00773728
0.00774437
0.00775045
0.00775561
0.0073604
0.00739056
0.00741822
0.00744348
0.00746661
0.00748812
0.00750787
0.00752584
0.00754202
0.00755645
0.00756918
0.00758031
0.00758991
0.00759807
0.00760488
0.00713109
0.0071645
0.00719588
0.00722524
0.0072524
0.00727728
0.00729981
0.00732003
0.00733799
0.00735374
0.00736735
0.00737893
0.00738856
0.00739637
0.00685193
0.00688875
0.00692295
0.00695436
0.00698291
0.00700857
0.00703133
0.00705125
0.00706837
0.00708279
0.00709458
0.00710391
0.00711157
0.00647945
0.00651934
0.00655602
0.00658934
0.00661921
0.00664558
0.00666846
0.00668783
0.00670376
0.00671636
0.00672668
0.00673542
0.00674241
0.00608826
0.00612444
0.0061567
0.00618488
0.00620893
0.00622884
0.00624456
0.00625727
0.00626802
0.00627643
0.00628231
0.00628553
0.00563089
0.00565854
0.00568147
0.00569961
0.00571371
0.00572531
0.00573424
0.00573995
0.00574223
0.0057398
0.00573073
0.00510323
0.00511774
0.00512928
0.00513815
0.00514357
0.00514496
0.00513978
0.00512782
0.00510979
0.00508678
0.0045161
0.00452149
0.00452291
0.00451733
0.004505
0.00448706
0.00446388
0.00443528
0.00439948
0.00391488
0.00390914
0.00389827
0.00388147
0.00385794
0.00382644
0.00378589
0.00373563
0.00334839
0.00334118
0.00332576
0.00330199
0.00326906
0.0032266
0.00317387
0.00311069
0.00281673
0.00279312
0.00276018
0.00271751
0.00266455
0.00260047
0.00252513
0.00225721
0.00220609
0.00214428
0.00207071
0.00198486
0.0017462
0.00167645
0.00159424
0.00149837
0.00131387
0.00121471
0.00110217
0.0135938
0.0135939
0.0135941
0.0135943
0.0135944
0.0135946
0.0135947
0.0135949
0.013595
0.0135951
0.0135953
0.0135954
0.0135955
0.0135956
0.0135957
0.0135958
0.0135959
0.013596
0.0135961
0.0135962
0.0135312
0.0135314
0.0135316
0.0135318
0.013532
0.0135321
0.0135323
0.0135325
0.0135326
0.0135328
0.0135329
0.0135331
0.0135332
0.0135333
0.0135335
0.0135336
0.0135337
0.0135338
0.0135339
0.013534
0.0134576
0.0134578
0.013458
0.0134582
0.0134584
0.0134586
0.0134588
0.013459
0.0134592
0.0134594
0.0134595
0.0134597
0.0134599
0.01346
0.0134602
0.0134603
0.0134605
0.0134606
0.0134607
0.0134608
0.0133746
0.0133749
0.0133751
0.0133754
0.0133756
0.0133758
0.013376
0.0133763
0.0133765
0.0133767
0.0133769
0.0133771
0.0133773
0.0133775
0.0133777
0.0133778
0.013378
0.0133782
0.0133783
0.0133785
0.0132835
0.0132837
0.013284
0.0132843
0.0132845
0.0132848
0.0132851
0.0132853
0.0132855
0.0132858
0.013286
0.0132862
0.0132864
0.0132867
0.0132869
0.0132871
0.0132873
0.0132875
0.0132876
0.0132878
0.0131829
0.0131832
0.0131835
0.0131838
0.0131841
0.0131844
0.0131846
0.0131849
0.0131852
0.0131854
0.0131857
0.0131859
0.0131862
0.0131864
0.0131866
0.0131868
0.0131871
0.0131873
0.0131875
0.0131877
0.0130716
0.013072
0.0130723
0.0130726
0.0130729
0.0130733
0.0130736
0.0130739
0.0130741
0.0130744
0.0130747
0.013075
0.0130752
0.0130755
0.0130757
0.0130759
0.0130762
0.0130764
0.0130766
0.0130768
0.0129486
0.0129489
0.0129493
0.0129497
0.01295
0.0129504
0.0129507
0.012951
0.0129513
0.0129516
0.0129519
0.0129522
0.0129525
0.0129528
0.012953
0.0129533
0.0129535
0.0129537
0.012954
0.0129542
0.0128126
0.0128131
0.0128135
0.0128139
0.0128142
0.0128146
0.012815
0.0128153
0.0128157
0.012816
0.0128163
0.0128166
0.0128169
0.0128172
0.0128175
0.0128177
0.012818
0.0128182
0.0128185
0.0128187
0.0126629
0.0126634
0.0126638
0.0126642
0.0126647
0.0126651
0.0126654
0.0126658
0.0126662
0.0126665
0.0126669
0.0126672
0.0126675
0.0126678
0.0126681
0.0126684
0.0126686
0.0126689
0.0126691
0.0126693
0.0124984
0.0124989
0.0124994
0.0124999
0.0125003
0.0125008
0.0125012
0.0125016
0.012502
0.0125023
0.0125027
0.012503
0.0125034
0.0125037
0.012504
0.0125042
0.0125045
0.0125047
0.012505
0.0125052
0.0123183
0.0123189
0.0123194
0.0123199
0.0123204
0.0123209
0.0123214
0.0123218
0.0123222
0.0123226
0.012323
0.0123233
0.0123237
0.012324
0.0123243
0.0123246
0.0123248
0.0123251
0.0123253
0.0123255
0.0121219
0.0121225
0.0121231
0.0121236
0.0121242
0.0121247
0.0121252
0.0121256
0.0121261
0.0121265
0.0121269
0.0121273
0.0121276
0.0121279
0.0121282
0.0121285
0.0121288
0.012129
0.0121292
0.0121294
0.0119079
0.0119086
0.0119092
0.0119098
0.0119104
0.0119109
0.0119115
0.011912
0.0119124
0.0119129
0.0119133
0.0119137
0.0119141
0.0119144
0.0119147
0.011915
0.0119152
0.0119155
0.0119157
0.0119159
0.0116754
0.0116762
0.0116769
0.0116775
0.0116782
0.0116788
0.0116793
0.0116799
0.0116804
0.0116808
0.0116813
0.0116817
0.0116821
0.0116824
0.0116827
0.011683
0.0116833
0.0116835
0.0116837
0.0116839
0.0114238
0.0114246
0.0114254
0.0114261
0.0114268
0.0114274
0.011428
0.0114286
0.0114292
0.0114297
0.0114301
0.0114306
0.0114309
0.0114313
0.0114316
0.0114319
0.0114322
0.0114324
0.0114326
0.0114328
0.0111528
0.0111537
0.0111545
0.0111553
0.011156
0.0111567
0.0111574
0.011158
0.0111586
0.0111591
0.0111596
0.01116
0.0111605
0.0111608
0.0111612
0.0111615
0.0111617
0.011162
0.0111622
0.0111623
0.0108627
0.0108637
0.0108646
0.0108654
0.0108662
0.0108669
0.0108676
0.0108683
0.0108689
0.0108695
0.01087
0.0108705
0.0108709
0.0108713
0.0108717
0.010872
0.0108723
0.0108725
0.0108727
0.0108729
0.0105549
0.0105559
0.0105569
0.0105578
0.0105586
0.0105594
0.0105602
0.0105609
0.0105616
0.0105622
0.0105627
0.0105632
0.0105637
0.0105641
0.0105645
0.0105648
0.0105651
0.0105654
0.0105656
0.0105657
0.0102327
0.0102337
0.0102347
0.0102357
0.0102366
0.0102374
0.0102382
0.0102389
0.0102396
0.0102403
0.0102409
0.0102414
0.0102419
0.0102423
0.0102427
0.0102431
0.0102434
0.0102436
0.0102439
0.010244
0.00990081
0.00990189
0.00990291
0.00990389
0.0099048
0.00990567
0.00990648
0.00990724
0.00990795
0.00990861
0.00990922
0.00990978
0.00991029
0.00991075
0.00991116
0.00991153
0.00991184
0.00991212
0.00991234
0.00991247
0.0095666
0.00956768
0.00956869
0.00956966
0.00957057
0.00957143
0.00957224
0.009573
0.00957371
0.00957437
0.00957498
0.00957554
0.00957605
0.00957651
0.00957692
0.00957729
0.00957761
0.00957788
0.00957809
0.00957821
0.00924091
0.00924192
0.00924288
0.0092438
0.00924466
0.00924547
0.00924624
0.00924696
0.00924763
0.00924825
0.00924883
0.00924936
0.00924985
0.00925029
0.00925068
0.00925103
0.00925133
0.00925159
0.00925178
0.00925187
0.00893751
0.00893841
0.00893927
0.00894008
0.00894085
0.00894157
0.00894225
0.00894289
0.00894349
0.00894404
0.00894455
0.00894502
0.00894545
0.00894584
0.00894618
0.00894649
0.00894676
0.00894695
0.00894708
0.00894712
0.00866889
0.00866965
0.00867038
0.00867106
0.00867171
0.00867232
0.0086729
0.00867343
0.00867393
0.0086744
0.00867483
0.00867522
0.00867558
0.0086759
0.00867619
0.00867644
0.00867664
0.00867677
0.00867683
0.00867683
0.00844447
0.00844508
0.00844566
0.00844621
0.00844673
0.00844722
0.00844768
0.00844811
0.00844851
0.00844888
0.00844922
0.00844954
0.00844982
0.00845008
0.0084503
0.00845048
0.0084506
0.00845067
0.00845068
0.00845067
0.00826586
0.00826632
0.00826675
0.00826716
0.00826755
0.00826793
0.00826828
0.00826861
0.00826892
0.00826921
0.00826948
0.00826973
0.00826996
0.00827016
0.00827035
0.0082705
0.00827061
0.00827067
0.0082707
0.00827069
0.00813144
0.00813173
0.00813201
0.00813228
0.00813254
0.00813278
0.00813302
0.00813325
0.00813346
0.00813366
0.00813386
0.00813404
0.0081342
0.00813436
0.0081345
0.00813461
0.0081347
0.00813475
0.00813479
0.00813479
0.00803588
0.00803608
0.00803628
0.00803647
0.00803666
0.00803684
0.008037
0.00803717
0.00803732
0.00803746
0.0080376
0.00803772
0.00803783
0.00803791
0.00803797
0.008038
0.00803801
0.008038
0.00803799
0.00803796
0.00795272
0.00795292
0.0079531
0.00795329
0.00795347
0.00795364
0.00795381
0.00795398
0.00795414
0.0079543
0.00795445
0.00795459
0.00795473
0.00795486
0.00795497
0.00795507
0.00795515
0.0079552
0.00795524
0.00795525
0.00786681
0.00786707
0.00786733
0.00786759
0.00786785
0.0078681
0.00786835
0.00786859
0.00786883
0.00786906
0.00786929
0.00786951
0.00786973
0.00786994
0.00787014
0.00787033
0.00787051
0.00787069
0.00787084
0.00787098
0.00775819
0.0077586
0.00775901
0.00775941
0.00775982
0.00776022
0.00776061
0.007761
0.00776139
0.00776177
0.00776214
0.00776251
0.00776287
0.00776322
0.00776356
0.0077639
0.00776423
0.00776454
0.00776485
0.00776514
0.0076082
0.0076088
0.0076094
0.00760999
0.00761058
0.00761117
0.00761175
0.00761233
0.00761291
0.00761348
0.00761404
0.0076146
0.00761515
0.00761569
0.00761623
0.00761676
0.00761727
0.00761778
0.00761828
0.00761876
0.0074
0.00740079
0.00740158
0.00740237
0.00740316
0.00740395
0.00740474
0.00740552
0.00740631
0.00740709
0.00740786
0.00740863
0.0074094
0.00741016
0.00741092
0.00741167
0.00741241
0.00741314
0.00741387
0.00741458
0.00711548
0.00711651
0.00711755
0.00711859
0.00711964
0.00712069
0.00712174
0.0071228
0.00712385
0.00712491
0.00712597
0.00712704
0.0071281
0.00712915
0.00713021
0.00713127
0.00713232
0.00713336
0.00713441
0.00713544
0.0067455
0.00674651
0.00674757
0.00674866
0.0067498
0.00675098
0.00675219
0.00675344
0.00675472
0.00675602
0.00675735
0.00675871
0.00676007
0.00676144
0.00676282
0.0067642
0.00676559
0.00676699
0.00676839
0.00676979
0.00628579
0.00628605
0.00628644
0.00628697
0.00628762
0.0062884
0.00628929
0.00629029
0.0062914
0.0062926
0.00629389
0.00629527
0.00629673
0.00629826
0.00629986
0.00630152
0.00630323
0.006305
0.00630682
0.00630869
0.00572069
0.00572038
0.00572017
0.00572006
0.00572003
0.00572023
0.00572069
0.00572138
0.0057223
0.00572343
0.00572476
0.00572627
0.00572796
0.00572981
0.00573181
0.00573395
0.00573621
0.0057386
0.00574109
0.00574365
0.00506831
0.00506766
0.00506715
0.00506677
0.00506651
0.00506639
0.0050664
0.00506677
0.00506747
0.0050685
0.00506983
0.00507144
0.00507331
0.00507544
0.00507781
0.0050804
0.0050832
0.0050862
0.00508936
0.0050926
0.0043675
0.00436623
0.00436515
0.00436428
0.0043636
0.00436312
0.00436282
0.0043627
0.00436288
0.00436355
0.00436467
0.00436622
0.00436816
0.00437047
0.00437311
0.00437607
0.00437932
0.00438283
0.00438652
0.00439033
0.00369095
0.00368902
0.00368738
0.00368603
0.00368495
0.00368414
0.00368359
0.00368329
0.00368324
0.00368378
0.00368494
0.00368667
0.00368891
0.00369163
0.00369478
0.00369832
0.00370219
0.00370622
0.00371042
0.00371477
0.00305473
0.00305217
0.00305004
0.00304832
0.00304699
0.00304605
0.00304548
0.00304527
0.00304563
0.00304689
0.00304893
0.00305169
0.00305508
0.00305903
0.0030633
0.0030678
0.00307254
0.00307749
0.00308264
0.00308798
0.00245752
0.0024543
0.00245169
0.00244968
0.00244824
0.00244734
0.00244696
0.00244727
0.00244882
0.00245147
0.00245505
0.00245938
0.00246409
0.00246915
0.00247454
0.00248022
0.00248617
0.00249238
0.00249882
0.00250547
0.00190762
0.00190383
0.00190091
0.00189883
0.00189753
0.00189696
0.00189729
0.00189931
0.00190274
0.00190724
0.00191227
0.00191779
0.00192374
0.00193009
0.00193679
0.00194381
0.00195112
0.00195868
0.00196647
0.00197447
0.00141353
0.00140932
0.0014063
0.00140441
0.00140356
0.00140384
0.00140639
0.00141073
0.00141584
0.00142164
0.00142804
0.00143497
0.00144234
0.00145012
0.00145823
0.00146665
0.00147533
0.00148424
0.00149335
0.00150262
0.0009924
0.000986509
0.000983061
0.000981296
0.000981023
0.000983618
0.000988276
0.000994011
0.00100063
0.00100797
0.00101589
0.00102428
0.001033
0.00104202
0.00105127
0.00106072
0.00107033
0.00108007
0.00108993
0.00109988
0.000632174
0.000632866
0.000637184
0.000643084
0.000650218
0.000658388
0.000667384
0.000676988
0.000686984
0.000697212
0.000707142
0.00071654
0.000726056
0.00073565
0.000745287
0.000754946
0.00076461
0.000774272
0.000471184
0.000482119
0.000492875
0.000503299
0.000513198
0.000522253
0.000530764
0.000538576
0.0135964
0.0135966
0.0135968
0.013597
0.0135972
0.0135341
0.0135343
0.0135345
0.0135347
0.013535
0.013461
0.0134613
0.0134615
0.0134618
0.0134621
0.0133787
0.013379
0.0133794
0.0133798
0.0133801
0.013288
0.0132885
0.0132889
0.0132893
0.0132897
0.0131879
0.0131884
0.0131889
0.0131893
0.0131898
0.0130771
0.0130776
0.0130781
0.0130786
0.0130792
0.0129544
0.012955
0.0129556
0.0129561
0.0129567
0.0128189
0.0128195
0.0128201
0.0128207
0.0128213
0.0126696
0.0126702
0.0126708
0.0126714
0.012672
0.0125054
0.012506
0.0125067
0.0125073
0.0125078
0.0123257
0.0123263
0.0123269
0.0123275
0.0123281
0.0121296
0.0121302
0.0121308
0.0121313
0.0121319
0.011916
0.0119166
0.0119171
0.0119177
0.0119182
0.011684
0.0116845
0.0116851
0.0116856
0.0116861
0.0114329
0.0114334
0.0114339
0.0114344
0.0114349
0.0111624
0.0111628
0.0111633
0.0111638
0.0111643
0.0108729
0.0108733
0.0108737
0.0108741
0.0108746
0.0105658
0.0105661
0.0105665
0.0105669
0.0105675
0.010244
0.0102444
0.0102448
0.0102453
0.0102459
0.00991252
0.00991288
0.00991333
0.00991388
0.00991452
0.00957827
0.00957862
0.00957909
0.00957968
0.00958037
0.00925191
0.0092522
0.00925263
0.00925319
0.00925387
0.00894712
0.00894725
0.00894754
0.00894797
0.00894854
0.00867676
0.00867675
0.00867687
0.00867714
0.00867754
0.0084506
0.00845053
0.00845051
0.0084506
0.00845082
0.00827065
0.00827061
0.00827061
0.00827071
0.0082709
0.00813477
0.0081348
0.00813492
0.00813511
0.00813536
0.00803787
0.00803775
0.00803766
0.00803759
0.00803754
0.00795525
0.0079553
0.0079554
0.00795555
0.00795573
0.0078713
0.00787189
0.00787254
0.00787324
0.00787399
0.00776583
0.00776716
0.00776855
0.00776999
0.00777147
0.00761995
0.00762221
0.00762458
0.00762706
0.00762963
0.00741638
0.0074198
0.00742344
0.00742729
0.0074313
0.00713811
0.00714316
0.00714859
0.00715435
0.0071604
0.00677347
0.00678049
0.00678812
0.00679629
0.00680499
0.00631374
0.00632343
0.00633405
0.00634548
0.00635759
0.00575054
0.00576403
0.00577891
0.00579489
0.00581177
0.00510145
0.00511869
0.00513785
0.00515859
0.00518063
0.0044007
0.00442123
0.00444431
0.00446949
0.00449638
0.00372657
0.00375009
0.00377662
0.00380556
0.0038364
0.00310228
0.00313046
0.00316192
0.00319586
0.00323168
0.00252292
0.00255658
0.00259355
0.00263286
0.00267383
0.00199483
0.00203362
0.00207564
0.00211976
0.00216524
0.00152539
0.00156837
0.00161441
0.00166222
0.00171108
0.00112324
0.00116755
0.00121514
0.00126446
0.00131476
0.000795991
0.000837168
0.000881075
0.000927058
0.000974855
0.000555444
0.000588731
0.000620208
0.000652555
0.000689468
0.00036637
0.000383598
0.000399038
0.000418306
0.000443782
0.000187336
0.000192259
0.000210423
0.0135974
0.0135975
0.0135977
0.0135979
0.0135981
0.0135984
0.0135987
0.0135991
0.0135996
0.0136001
0.0136007
0.0136014
0.0136022
0.0136032
0.0136043
0.0136057
0.0136072
0.013609
0.0136111
0.0136135
0.0136162
0.0136194
0.013623
0.0136271
0.0136317
0.013637
0.0136429
0.0136496
0.0136572
0.0136656
0.013675
0.0136855
0.013697
0.0137098
0.0137238
0.0137391
0.0137557
0.0137737
0.0137931
0.0138137
0.0138356
0.0138585
0.0138828
0.013909
0.0139355
0.0139598
0.0139838
0.0140218
0.0140445
0.0140205
0.0135351
0.0135352
0.0135354
0.0135357
0.0135359
0.0135362
0.0135365
0.0135369
0.0135374
0.0135379
0.0135385
0.0135393
0.0135402
0.0135412
0.0135425
0.013544
0.0135458
0.0135479
0.0135504
0.0135534
0.0135568
0.0135608
0.0135654
0.0135705
0.0135764
0.0135831
0.0135906
0.013599
0.0136084
0.0136188
0.0136304
0.0136432
0.0136573
0.0136726
0.0136893
0.0137074
0.0137269
0.0137478
0.0137701
0.0137937
0.0138185
0.013844
0.0138699
0.013897
0.0139259
0.0139522
0.0139751
0.0140136
0.014039
0.0140214
0.0134622
0.0134625
0.0134628
0.0134631
0.0134635
0.0134639
0.0134644
0.0134649
0.0134656
0.0134664
0.0134672
0.0134683
0.0134695
0.013471
0.0134727
0.0134747
0.0134771
0.0134799
0.0134831
0.0134869
0.0134914
0.0134965
0.0135024
0.013509
0.0135165
0.0135249
0.0135343
0.0135449
0.0135566
0.0135696
0.0135838
0.0135995
0.0136165
0.0136349
0.0136548
0.0136761
0.0136987
0.0137227
0.0137481
0.0137748
0.0138028
0.0138313
0.0138597
0.0138882
0.0139177
0.0139463
0.0139708
0.0140069
0.0140324
0.0140231
0.0133803
0.0133807
0.0133812
0.0133816
0.0133822
0.0133828
0.0133835
0.0133843
0.0133853
0.0133863
0.0133875
0.013389
0.0133906
0.0133926
0.0133949
0.0133975
0.0134006
0.0134043
0.0134087
0.0134137
0.0134194
0.013426
0.0134335
0.0134419
0.0134514
0.013462
0.0134738
0.013487
0.0135016
0.0135176
0.0135351
0.0135542
0.0135748
0.0135969
0.0136204
0.0136453
0.0136714
0.0136988
0.0137272
0.0137567
0.0137872
0.0138184
0.0138499
0.0138808
0.0139108
0.0139412
0.0139682
0.0140021
0.0140261
0.0140234
0.01329
0.0132905
0.0132911
0.0132917
0.0132924
0.0132932
0.0132942
0.0132952
0.0132964
0.0132978
0.0132994
0.0133013
0.0133035
0.013306
0.013309
0.0133124
0.0133165
0.0133213
0.0133269
0.0133333
0.0133406
0.013349
0.0133584
0.013369
0.0133809
0.0133942
0.013409
0.0134253
0.0134433
0.013463
0.0134844
0.0135075
0.0135323
0.0135586
0.0135863
0.0136153
0.0136455
0.0136765
0.0137084
0.013741
0.0137744
0.0138083
0.0138425
0.0138759
0.0139074
0.0139371
0.0139667
0.0139989
0.0140211
0.0140228
0.0131901
0.0131907
0.0131914
0.0131922
0.0131931
0.0131941
0.0131953
0.0131966
0.0131982
0.0131999
0.013202
0.0132044
0.0132071
0.0132104
0.0132142
0.0132186
0.0132239
0.01323
0.0132371
0.0132453
0.0132545
0.013265
0.0132768
0.01329
0.0133049
0.0133214
0.0133396
0.0133598
0.0133818
0.0134058
0.0134317
0.0134595
0.0134891
0.0135202
0.0135527
0.0135863
0.0136208
0.0136558
0.0136913
0.0137271
0.0137632
0.0137996
0.0138363
0.0138722
0.0139055
0.0139349
0.0139656
0.0139971
0.0140176
0.0140218
0.0130795
0.0130803
0.0130811
0.0130821
0.0130832
0.0130844
0.0130859
0.0130875
0.0130894
0.0130916
0.0130942
0.0130972
0.0131007
0.0131048
0.0131097
0.0131154
0.0131221
0.0131299
0.0131388
0.013149
0.0131606
0.0131737
0.0131884
0.0132048
0.0132231
0.0132434
0.0132658
0.0132903
0.0133171
0.013346
0.0133772
0.0134103
0.0134452
0.0134818
0.0135195
0.0135582
0.0135974
0.0136368
0.013676
0.0137149
0.0137537
0.0137924
0.0138312
0.0138694
0.0139046
0.0139343
0.0139649
0.0139985
0.0140154
0.0140203
0.0129571
0.012958
0.012959
0.0129601
0.0129614
0.0129629
0.0129647
0.0129667
0.0129691
0.0129718
0.012975
0.0129788
0.0129832
0.0129883
0.0129945
0.0130017
0.0130102
0.01302
0.0130311
0.0130439
0.0130583
0.0130745
0.0130927
0.0131129
0.0131354
0.0131602
0.0131875
0.0132172
0.0132494
0.013284
0.013321
0.0133602
0.0134011
0.0134436
0.0134872
0.0135313
0.0135755
0.0136194
0.0136624
0.0137046
0.0137458
0.0137866
0.0138272
0.0138673
0.0139044
0.0139344
0.0139645
0.0140005
0.0140142
0.0140186
0.0128217
0.0128227
0.0128239
0.0128252
0.0128268
0.0128285
0.0128306
0.012833
0.0128359
0.0128392
0.0128432
0.0128478
0.0128533
0.0128598
0.0128676
0.0128766
0.0128872
0.0128994
0.0129133
0.0129291
0.0129469
0.0129669
0.0129893
0.0130141
0.0130415
0.0130717
0.0131047
0.0131404
0.0131789
0.0132201
0.0132637
0.0133095
0.0133571
0.013406
0.0134558
0.0135057
0.0135552
0.0136037
0.0136507
0.0136959
0.0137396
0.013782
0.0138241
0.0138659
0.0139047
0.013935
0.0139643
0.0140025
0.0140138
0.0140168
0.0126724
0.0126736
0.0126749
0.0126764
0.0126782
0.0126802
0.0126827
0.0126856
0.012689
0.0126931
0.0126979
0.0127036
0.0127104
0.0127185
0.0127281
0.0127394
0.0127525
0.0127675
0.0127847
0.0128041
0.012826
0.0128505
0.0128778
0.0129081
0.0129413
0.0129778
0.0130174
0.0130601
0.0131059
0.0131545
0.0132055
0.0132587
0.0133135
0.0133694
0.0134257
0.0134816
0.0135365
0.0135897
0.0136406
0.0136889
0.0137348
0.0137788
0.0138219
0.0138649
0.0139055
0.0139359
0.0139644
0.0140036
0.0140157
0.014015
0.0125083
0.0125096
0.012511
0.0125127
0.0125147
0.0125171
0.01252
0.0125234
0.0125275
0.0125324
0.0125382
0.0125452
0.0125535
0.0125635
0.0125754
0.0125893
0.0126054
0.0126239
0.0126449
0.0126687
0.0126953
0.0127251
0.0127582
0.0127947
0.0128348
0.0128785
0.0129258
0.0129765
0.0130305
0.0130875
0.0131468
0.0132082
0.0132708
0.013334
0.0133971
0.0134593
0.0135197
0.0135776
0.0136323
0.0136835
0.0137313
0.0137766
0.0138205
0.0138644
0.0139064
0.0139371
0.0139646
0.0140038
0.0140175
0.0140132
0.0123286
0.0123299
0.0123314
0.0123333
0.0123356
0.0123383
0.0123416
0.0123456
0.0123505
0.0123564
0.0123635
0.0123719
0.0123822
0.0123944
0.012409
0.0124259
0.0124455
0.012468
0.0124936
0.0125224
0.0125546
0.0125906
0.0126303
0.0126741
0.012722
0.0127741
0.0128301
0.0128899
0.0129532
0.0130194
0.013088
0.0131582
0.0132292
0.0133003
0.0133704
0.0134389
0.0135047
0.0135671
0.0136255
0.0136794
0.013729
0.0137753
0.0138198
0.0138642
0.0139076
0.0139385
0.013965
0.0140036
0.0140177
0.0140116
0.0121323
0.0121337
0.0121354
0.0121375
0.01214
0.0121431
0.012147
0.0121517
0.0121575
0.0121645
0.012173
0.0121833
0.0121958
0.0122108
0.0122284
0.012249
0.0122728
0.0122999
0.0123306
0.0123652
0.0124039
0.0124469
0.0124943
0.0125464
0.0126032
0.0126647
0.0127306
0.0128006
0.0128742
0.0129507
0.0130293
0.0131092
0.0131892
0.0132684
0.0133458
0.0134205
0.0134916
0.0135583
0.0136201
0.0136765
0.0137277
0.0137747
0.0138196
0.0138643
0.0139088
0.0139399
0.0139656
0.0140033
0.0140176
0.0140102
0.0119186
0.0119201
0.0119219
0.0119242
0.011927
0.0119306
0.0119351
0.0119407
0.0119476
0.0119561
0.0119663
0.0119788
0.0119939
0.0120121
0.0120334
0.0120582
0.0120868
0.0121193
0.0121561
0.0121973
0.0122434
0.0122944
0.0123506
0.0124121
0.0124789
0.0125509
0.0126278
0.0127091
0.0127941
0.0128819
0.0129714
0.0130614
0.0131509
0.0132385
0.0133233
0.0134041
0.0134803
0.0135512
0.013616
0.0136746
0.0137272
0.0137748
0.0138197
0.0138646
0.0139101
0.0139413
0.0139662
0.014003
0.0140174
0.0140089
0.0116865
0.011688
0.01169
0.0116925
0.0116958
0.0117
0.0117053
0.0117119
0.0117201
0.0117303
0.0117426
0.0117577
0.0117759
0.0117977
0.0118234
0.0118531
0.0118871
0.0119259
0.0119696
0.0120185
0.0120729
0.0121331
0.0121992
0.0122713
0.0123494
0.0124332
0.0125223
0.012616
0.0127134
0.0128134
0.0129146
0.0130154
0.0131146
0.0132109
0.013303
0.0133899
0.0134709
0.0135455
0.0136131
0.0136736
0.0137273
0.0137753
0.0138202
0.0138649
0.0139113
0.0139428
0.0139668
0.0140027
0.0140172
0.0140078
0.0114352
0.0114369
0.0114391
0.0114419
0.0114457
0.0114506
0.0114568
0.0114647
0.0114745
0.0114867
0.0115015
0.0115196
0.0115415
0.0115676
0.0115981
0.0116334
0.0116738
0.0117196
0.0117711
0.0118286
0.0118925
0.011963
0.0120403
0.0121244
0.0122151
0.0123121
0.0124147
0.012522
0.0126328
0.0127458
0.0128594
0.0129715
0.0130807
0.0131857
0.013285
0.0133778
0.0134632
0.0135412
0.0136112
0.0136733
0.0137278
0.0137762
0.0138209
0.0138654
0.0139125
0.0139441
0.0139674
0.0140024
0.0140169
0.014007
0.0111646
0.0111664
0.0111689
0.0111722
0.0111766
0.0111824
0.0111898
0.0111991
0.0112109
0.0112254
0.0112431
0.0112647
0.0112908
0.0113218
0.0113578
0.0113994
0.0114469
0.0115005
0.0115608
0.011628
0.0117025
0.0117845
0.0118743
0.0119717
0.0120764
0.0121879