/*--------------------------------*- C++ -*----------------------------------*\
  =========                 |
  \\      /  F ield         | OpenFOAM: The Open Source CFD Toolbox
   \\    /   O peration     | Website:  https://openfoam.org
    \\  /    A nd           | Version:  9
     \\/     M anipulation  |
\*---------------------------------------------------------------------------*/
FoamFile
{
    format      ascii;
    class       volScalarField;
    location    "0.0075";
    object      nut;
}
// * * * * * * * * * * * * * * * * * * * * * * * * * * * * * * * * * * * * * //

dimensions      [0 2 -1 0 0 0 0];

internalField   nonuniform List<scalar> 
8420
(
0.0140271
0.0140272
0.0140273
0.0140274
0.0140275
0.0140276
0.0140277
0.0140278
0.0140279
0.0140279
0.014028
0.0140281
0.0140281
0.0140282
0.0140282
0.0140283
0.0140283
0.0140284
0.0140284
0.0140284
0.0140285
0.0140285
0.0140285
0.0140285
0.0140285
0.0140285
0.0140285
0.0140284
0.0140284
0.0140284
0.0140283
0.0140282
0.0140281
0.014028
0.0140479
0.0140472
0.0140464
0.0140457
0.0140448
0.014044
0.0140432
0.0140423
0.0140414
0.0140405
0.0140395
0.0140386
0.0140376
0.0140366
0.0140356
0.0140346
0.0140336
0.0140326
0.0140317
0.0140309
0.0140302
0.0140296
0.0140291
0.0140286
0.0140282
0.014028
0.0140277
0.0140276
0.0140277
0.0140277
0.0140276
0.0140274
0.0140271
0.0140269
0.0140324
0.0140319
0.0140314
0.0140309
0.0140304
0.0140299
0.0140294
0.0140289
0.0140284
0.0140279
0.0140275
0.014027
0.0140267
0.0140264
0.0140262
0.014026
0.0140259
0.014026
0.0140263
0.0140262
0.0140261
0.014026
0.0140258
0.0140257
0.0140255
0.0140253
0.014025
0.0140248
0.0140246
0.0140243
0.014024
0.0140238
0.0140235
0.0140232
0.0140308
0.0140308
0.0140307
0.0140305
0.0140304
0.0140302
0.01403
0.0140298
0.0140295
0.0140293
0.014029
0.0140287
0.0140284
0.014028
0.0140277
0.0140273
0.0140269
0.0140265
0.0140261
0.0140257
0.0140252
0.0140248
0.0140243
0.0140239
0.0140234
0.0140229
0.0140224
0.0140219
0.0140214
0.0140209
0.0140204
0.01402
0.0140196
0.0140194
0.0139971
0.0139969
0.0139967
0.0139966
0.0139964
0.0139962
0.013996
0.0139959
0.0139957
0.0139955
0.0139953
0.0139951
0.013995
0.0139948
0.0139946
0.0139944
0.0139942
0.0139941
0.0139939
0.0139937
0.0139935
0.0139934
0.0139932
0.013993
0.0139929
0.0139927
0.0139925
0.0139923
0.0139922
0.013992
0.0139919
0.0139917
0.0139915
0.0139914
0.0139825
0.0139829
0.0139832
0.0139834
0.0139834
0.0139833
0.0139831
0.0139829
0.0139827
0.0139825
0.0139822
0.0139819
0.0139816
0.0139812
0.0139808
0.0139805
0.01398
0.0139796
0.0139792
0.0139787
0.0139783
0.0139778
0.0139773
0.0139768
0.0139763
0.0139757
0.0139752
0.0139747
0.0139741
0.0139736
0.013973
0.0139725
0.0139719
0.0139715
0.0139457
0.013946
0.0139463
0.0139466
0.0139469
0.0139472
0.0139475
0.0139478
0.0139481
0.0139484
0.0139487
0.013949
0.0139494
0.0139497
0.01395
0.0139504
0.0139507
0.0139511
0.0139515
0.0139518
0.0139522
0.0139526
0.013953
0.0139534
0.0139538
0.0139539
0.0139539
0.0139538
0.0139537
0.0139535
0.0139533
0.013953
0.0139528
0.0139525
0.0139323
0.0139328
0.0139333
0.0139338
0.0139342
0.0139347
0.0139352
0.0139357
0.0139358
0.0139358
0.0139357
0.0139356
0.0139354
0.0139352
0.0139349
0.0139346
0.0139343
0.013934
0.0139336
0.0139334
0.0139332
0.0139331
0.0139335
0.0139339
0.0139344
0.0139348
0.0139353
0.0139357
0.0139362
0.0139367
0.0139371
0.0139376
0.0139381
0.0139386
0.0139119
0.0139124
0.0139129
0.0139134
0.0139139
0.0139144
0.0139149
0.0139155
0.013916
0.0139165
0.013917
0.0139176
0.0139181
0.0139186
0.0139187
0.0139186
0.0139185
0.0139184
0.0139181
0.0139179
0.0139178
0.0139179
0.0139184
0.013919
0.0139195
0.0139201
0.0139206
0.0139212
0.0139217
0.0139223
0.0139228
0.0139234
0.013924
0.0139245
0.0138881
0.0138886
0.0138892
0.0138898
0.0138904
0.013891
0.0138915
0.0138921
0.0138927
0.0138933
0.0138939
0.0138945
0.0138951
0.0138957
0.0138963
0.0138969
0.0138975
0.0138981
0.0138987
0.0138993
0.0139
0.0139006
0.0139012
0.0139019
0.0139025
0.0139032
0.0139038
0.0139045
0.0139051
0.0139058
0.0139065
0.0139071
0.0139078
0.0139084
0.0139091
0.0138678
0.0138685
0.0138692
0.0138699
0.0138706
0.0138714
0.0138721
0.0138728
0.0138735
0.0138743
0.013875
0.0138757
0.0138765
0.0138772
0.013878
0.0138787
0.0138795
0.0138802
0.013881
0.0138817
0.0138825
0.0138832
0.013884
0.0138848
0.0138855
0.0138863
0.013887
0.0138878
0.0138886
0.0138894
0.0138901
0.0138909
0.0138917
0.0138925
0.0138932
0.0138467
0.0138476
0.0138484
0.0138493
0.0138501
0.013851
0.0138518
0.0138527
0.0138535
0.0138544
0.0138552
0.0138561
0.013857
0.0138579
0.0138587
0.0138596
0.0138605
0.0138614
0.0138623
0.0138631
0.013864
0.0138649
0.0138658
0.0138667
0.0138676
0.0138685
0.0138694
0.0138703
0.0138712
0.0138722
0.0138731
0.013874
0.0138749
0.0138758
0.0138767
0.0138244
0.0138253
0.0138263
0.0138273
0.0138283
0.0138293
0.0138303
0.0138313
0.0138323
0.0138333
0.0138344
0.0138354
0.0138364
0.0138374
0.0138384
0.0138395
0.0138405
0.0138415
0.0138426
0.0138436
0.0138447
0.0138457
0.0138468
0.0138478
0.0138489
0.0138499
0.013851
0.0138521
0.0138531
0.0138542
0.0138553
0.0138564
0.0138574
0.0138585
0.0138596
0.0138004
0.0138015
0.0138027
0.0138038
0.013805
0.0138062
0.0138073
0.0138085
0.0138097
0.0138109
0.0138121
0.0138132
0.0138144
0.0138156
0.0138168
0.013818
0.0138192
0.0138205
0.0138217
0.0138229
0.0138241
0.0138254
0.0138266
0.0138278
0.0138291
0.0138303
0.0138316
0.0138328
0.0138341
0.0138353
0.0138366
0.0138378
0.0138391
0.0138404
0.0138416
0.0137747
0.013776
0.0137773
0.0137787
0.01378
0.0137814
0.0137828
0.0137841
0.0137855
0.0137869
0.0137883
0.0137896
0.013791
0.0137924
0.0137938
0.0137953
0.0137967
0.0137981
0.0137995
0.0138009
0.0138024
0.0138038
0.0138052
0.0138067
0.0138081
0.0138096
0.0138111
0.0138125
0.013814
0.0138155
0.0138169
0.0138184
0.0138199
0.0138214
0.0138229
0.013747
0.0137485
0.0137501
0.0137516
0.0137532
0.0137548
0.0137564
0.013758
0.0137596
0.0137612
0.0137628
0.0137644
0.013766
0.0137676
0.0137693
0.0137709
0.0137726
0.0137742
0.0137759
0.0137775
0.0137792
0.0137809
0.0137826
0.0137843
0.0137859
0.0137876
0.0137893
0.0137911
0.0137928
0.0137945
0.0137962
0.0137979
0.0137997
0.0138014
0.0138031
0.013717
0.0137188
0.0137206
0.0137224
0.0137242
0.013726
0.0137279
0.0137297
0.0137316
0.0137334
0.0137353
0.0137372
0.0137391
0.013741
0.0137429
0.0137448
0.0137467
0.0137486
0.0137505
0.0137525
0.0137544
0.0137564
0.0137583
0.0137603
0.0137623
0.0137642
0.0137662
0.0137682
0.0137702
0.0137722
0.0137742
0.0137762
0.0137782
0.0137803
0.0137823
0.0136842
0.0136863
0.0136883
0.0136904
0.0136925
0.0136947
0.0136968
0.0136989
0.0137011
0.0137032
0.0137054
0.0137076
0.0137097
0.0137119
0.0137141
0.0137164
0.0137186
0.0137208
0.0137231
0.0137253
0.0137276
0.0137298
0.0137321
0.0137344
0.0137367
0.013739
0.0137413
0.0137436
0.0137459
0.0137483
0.0137506
0.013753
0.0137554
0.0137577
0.0137601
0.013648
0.0136504
0.0136528
0.0136552
0.0136577
0.0136601
0.0136626
0.013665
0.0136675
0.01367
0.0136725
0.013675
0.0136776
0.0136801
0.0136827
0.0136853
0.0136878
0.0136904
0.013693
0.0136956
0.0136983
0.0137009
0.0137036
0.0137062
0.0137089
0.0137116
0.0137143
0.013717
0.0137197
0.0137225
0.0137252
0.013728
0.0137307
0.0137335
0.0137363
0.0136078
0.0136106
0.0136133
0.0136161
0.0136189
0.0136218
0.0136246
0.0136275
0.0136304
0.0136332
0.0136362
0.0136391
0.013642
0.013645
0.0136479
0.0136509
0.0136539
0.0136569
0.01366
0.013663
0.0136661
0.0136692
0.0136723
0.0136754
0.0136785
0.0136817
0.0136848
0.013688
0.0136912
0.0136944
0.0136976
0.0137008
0.0137041
0.0137073
0.0137105
0.0135628
0.013566
0.0135692
0.0135725
0.0135757
0.013579
0.0135823
0.0135856
0.0135889
0.0135923
0.0135957
0.0135991
0.0136025
0.0136059
0.0136094
0.0136128
0.0136163
0.0136198
0.0136234
0.0136269
0.0136305
0.0136342
0.0136378
0.0136414
0.0136451
0.0136488
0.0136525
0.0136562
0.0136599
0.0136637
0.0136674
0.0136712
0.013675
0.0136787
0.0136825
0.0135125
0.0135161
0.0135199
0.0135236
0.0135274
0.0135311
0.013535
0.0135388
0.0135427
0.0135466
0.0135505
0.0135544
0.0135584
0.0135624
0.0135664
0.0135705
0.0135746
0.0135787
0.0135828
0.013587
0.0135912
0.0135955
0.0135997
0.013604
0.0136082
0.0136125
0.0136169
0.0136212
0.0136256
0.0136299
0.0136343
0.0136387
0.0136432
0.0136476
0.013652
0.0134561
0.0134603
0.0134646
0.0134689
0.0134733
0.0134777
0.0134821
0.0134866
0.0134911
0.0134956
0.0135002
0.0135047
0.0135094
0.013514
0.0135187
0.0135235
0.0135283
0.0135331
0.013538
0.0135429
0.0135478
0.0135527
0.0135577
0.0135627
0.0135677
0.0135727
0.0135778
0.0135828
0.0135879
0.0135931
0.0135982
0.0136034
0.0136085
0.0136137
0.0136189
0.013393
0.0133979
0.0134029
0.0134079
0.0134129
0.013418
0.0134232
0.0134283
0.0134336
0.0134388
0.0134441
0.0134495
0.0134549
0.0134604
0.0134659
0.0134714
0.013477
0.0134826
0.0134883
0.013494
0.0134998
0.0135055
0.0135113
0.0135172
0.013523
0.0135289
0.0135348
0.0135408
0.0135468
0.0135528
0.0135588
0.0135648
0.0135709
0.0135769
0.013583
0.0133225
0.0133282
0.0133339
0.0133397
0.0133456
0.0133515
0.0133575
0.0133635
0.0133695
0.0133756
0.0133818
0.0133881
0.0133944
0.0134008
0.0134072
0.0134137
0.0134202
0.0134268
0.0134334
0.0134401
0.0134468
0.0134535
0.0134603
0.0134671
0.013474
0.0134809
0.0134878
0.0134948
0.0135018
0.0135088
0.0135158
0.0135229
0.01353
0.0135371
0.0135442
0.0132437
0.0132503
0.0132569
0.0132636
0.0132704
0.0132773
0.0132842
0.0132912
0.0132982
0.0133053
0.0133126
0.0133199
0.0133272
0.0133347
0.0133422
0.0133497
0.0133573
0.013365
0.0133727
0.0133805
0.0133883
0.0133962
0.0134041
0.0134121
0.0134201
0.0134282
0.0134363
0.0134444
0.0134526
0.0134608
0.0134691
0.0134773
0.0134856
0.013494
0.0135023
0.0131554
0.013163
0.0131706
0.0131784
0.0131863
0.0131942
0.0132022
0.0132103
0.0132185
0.0132268
0.0132352
0.0132437
0.0132523
0.0132609
0.0132697
0.0132785
0.0132873
0.0132963
0.0133053
0.0133144
0.0133235
0.0133327
0.013342
0.0133513
0.0133607
0.0133701
0.0133796
0.0133891
0.0133987
0.0134083
0.0134179
0.0134276
0.0134373
0.0134471
0.0134568
0.0130563
0.013065
0.0130739
0.0130829
0.0130919
0.0131011
0.0131104
0.0131198
0.0131294
0.013139
0.0131488
0.0131586
0.0131686
0.0131786
0.0131888
0.013199
0.0132094
0.0132198
0.0132303
0.0132409
0.0132516
0.0132623
0.0132731
0.013284
0.013295
0.013306
0.0133171
0.0133283
0.0133395
0.0133507
0.013362
0.0133733
0.0133847
0.0133961
0.0134076
0.0129451
0.0129552
0.0129654
0.0129758
0.0129863
0.0129969
0.0130076
0.0130186
0.0130296
0.0130408
0.0130521
0.0130636
0.0130751
0.0130868
0.0130986
0.0131105
0.0131226
0.0131347
0.0131469
0.0131593
0.0131717
0.0131842
0.0131969
0.0132096
0.0132224
0.0132353
0.0132483
0.0132613
0.0132744
0.0132876
0.0133008
0.0133141
0.0133274
0.0133407
0.0133541
0.0128204
0.012832
0.0128438
0.0128557
0.0128678
0.0128801
0.0128926
0.0129052
0.012918
0.012931
0.0129441
0.0129573
0.0129707
0.0129843
0.012998
0.0130118
0.0130258
0.0130399
0.0130542
0.0130685
0.013083
0.0130976
0.0131124
0.0131272
0.0131422
0.0131572
0.0131724
0.0131876
0.0132029
0.0132183
0.0132338
0.0132493
0.0132649
0.0132805
0.0132962
0.0126804
0.0126937
0.0127073
0.012721
0.012735
0.0127492
0.0127636
0.0127782
0.012793
0.0128079
0.0128231
0.0128385
0.012854
0.0128697
0.0128856
0.0129016
0.0129179
0.0129343
0.0129508
0.0129675
0.0129844
0.0130014
0.0130186
0.0130359
0.0130533
0.0130709
0.0130886
0.0131064
0.0131243
0.0131423
0.0131604
0.0131786
0.0131968
0.0132151
0.0132334
0.0125233
0.0125387
0.0125542
0.01257
0.0125861
0.0126024
0.012619
0.0126358
0.0126529
0.0126702
0.0126877
0.0127054
0.0127234
0.0127415
0.0127599
0.0127785
0.0127973
0.0128163
0.0128356
0.012855
0.0128746
0.0128944
0.0129144
0.0129345
0.0129549
0.0129754
0.012996
0.0130168
0.0130377
0.0130588
0.0130799
0.0131012
0.0131225
0.0131439
0.0131654
0.0123474
0.012365
0.0123828
0.0124009
0.0124193
0.0124381
0.0124571
0.0124764
0.0124961
0.0125159
0.0125361
0.0125565
0.0125772
0.0125982
0.0126194
0.0126409
0.0126627
0.0126847
0.012707
0.0127295
0.0127522
0.0127752
0.0127985
0.0128219
0.0128456
0.0128695
0.0128936
0.0129178
0.0129423
0.0129669
0.0129916
0.0130164
0.0130414
0.0130664
0.0130915
0.0121507
0.0121707
0.0121911
0.0122117
0.0122328
0.0122543
0.0122761
0.0122982
0.0123207
0.0123435
0.0123666
0.0123901
0.0124139
0.012438
0.0124625
0.0124872
0.0125123
0.0125378
0.0125635
0.0125896
0.0126159
0.0126426
0.0126695
0.0126968
0.0127243
0.0127521
0.0127801
0.0128084
0.0128369
0.0128656
0.0128945
0.0129235
0.0129527
0.012982
0.0130113
0.0119315
0.0119541
0.0119772
0.0120008
0.0120248
0.0120492
0.012074
0.0120993
0.0121249
0.012151
0.0121774
0.0122043
0.0122315
0.0122592
0.0122873
0.0123158
0.0123446
0.0123739
0.0124036
0.0124336
0.0124641
0.0124949
0.0125261
0.0125577
0.0125896
0.0126218
0.0126545
0.0126874
0.0127206
0.012754
0.0127877
0.0128217
0.0128557
0.01289
0.0129243
0.0116881
0.0117137
0.0117397
0.0117664
0.0117935
0.0118212
0.0118493
0.011878
0.0119071
0.0119367
0.0119668
0.0119974
0.0120285
0.0120601
0.0120922
0.0121247
0.0121578
0.0121914
0.0122254
0.01226
0.012295
0.0123306
0.0123666
0.0124031
0.01244
0.0124774
0.0125152
0.0125534
0.0125921
0.012631
0.0126703
0.0127099
0.0127497
0.0127897
0.0128297
0.0114193
0.011448
0.0114772
0.0115071
0.0115376
0.0115688
0.0116004
0.0116327
0.0116656
0.0116991
0.0117331
0.0117678
0.0118031
0.0118389
0.0118754
0.0119125
0.0119502
0.0119885
0.0120275
0.012067
0.0121072
0.012148
0.0121894
0.0122314
0.012274
0.0123172
0.012361
0.0124053
0.0124501
0.0124954
0.0125411
0.0125872
0.0126337
0.0126803
0.0127271
0.0111243
0.0111561
0.0111887
0.0112221
0.0112561
0.0112908
0.0113262
0.0113624
0.0113992
0.0114368
0.0114751
0.0115141
0.0115538
0.0115943
0.0116355
0.0116775
0.0117202
0.0117637
0.011808
0.0118531
0.0118989
0.0119455
0.0119929
0.0120411
0.0120901
0.0121398
0.0121903
0.0122415
0.0122934
0.0123459
0.012399
0.0124527
0.0125067
0.0125611
0.0126157
0.0108029
0.010838
0.0108739
0.0109107
0.0109483
0.0109868
0.0110261
0.0110662
0.0111071
0.011149
0.0111916
0.0112352
0.0112796
0.011325
0.0113712
0.0114184
0.0114665
0.0115156
0.0115657
0.0116167
0.0116687
0.0117216
0.0117756
0.0118306
0.0118867
0.0119437
0.0120017
0.0120606
0.0121205
0.0121812
0.0122427
0.012305
0.0123678
0.0124312
0.0124948
0.0104557
0.010494
0.0105332
0.0105734
0.0106146
0.0106567
0.0106999
0.010744
0.0107891
0.0108352
0.0108824
0.0109306
0.0109799
0.0110302
0.0110817
0.0111343
0.0111881
0.011243
0.0112992
0.0113565
0.0114151
0.0114749
0.0115361
0.0115985
0.0116622
0.0117272
0.0117935
0.0118611
0.0119299
0.0119999
0.012071
0.012143
0.012216
0.0122896
0.0123637
0.0100842
0.0101254
0.0101677
0.0102112
0.0102558
0.0103015
0.0103483
0.0103963
0.0104455
0.0104959
0.0105475
0.0106003
0.0106545
0.0107099
0.0107667
0.0108248
0.0108843
0.0109453
0.0110078
0.0110717
0.0111372
0.0112043
0.011273
0.0113433
0.0114154
0.0114891
0.0115644
0.0116415
0.0117202
0.0118005
0.0118824
0.0119656
0.01205
0.0121354
0.0122215
0.00969039
0.00973429
0.00977949
0.00982594
0.00987366
0.00992266
0.00997298
0.0100246
0.0100776
0.0101321
0.0101879
0.0102452
0.0103041
0.0103644
0.0104264
0.01049
0.0105553
0.0106224
0.0106912
0.0107619
0.0108345
0.0109091
0.0109857
0.0110643
0.0111451
0.0112281
0.0113132
0.0114006
0.0114901
0.0115818
0.0116756
0.0117713
0.0118687
0.0119675
0.0120674
0.00927739
0.00932358
0.00937122
0.00942025
0.00947071
0.00952263
0.00957604
0.00963097
0.00968747
0.00974558
0.00980534
0.00986681
0.00993004
0.00999509
0.010062
0.0101309
0.0102018
0.0102747
0.0103499
0.0104272
0.0105069
0.0105891
0.0106737
0.0107609
0.0108508
0.0109434
0.0110389
0.0111372
0.0112384
0.0113425
0.0114494
0.011559
0.011671
0.011785
0.0119006
0.00884885
0.00889685
0.00894644
0.00899748
0.00905018
0.00910451
0.00916051
0.00921822
0.00927771
0.00933902
0.00940222
0.00946738
0.00953456
0.00960384
0.0096753
0.00974902
0.00982511
0.00990366
0.00998478
0.0100686
0.0101552
0.0102447
0.0103373
0.010433
0.0105321
0.0106347
0.0107408
0.0108506
0.0109642
0.0110816
0.0112027
0.0113275
0.0114556
0.0115867
0.0117202
0.008409
0.0084582
0.00850907
0.00856164
0.00861596
0.00867207
0.00873003
0.00878991
0.00885176
0.00891565
0.00898167
0.0090499
0.00912042
0.00919333
0.00926874
0.00934675
0.0094275
0.0095111
0.00959771
0.00968746
0.00978053
0.00987709
0.00997732
0.0100814
0.0101896
0.010302
0.0104189
0.0105405
0.0106669
0.0107982
0.0109345
0.0110758
0.0112216
0.0113717
0.0115253
0.00796314
0.00801274
0.00806415
0.00811741
0.00817258
0.00822971
0.00828888
0.00835015
0.0084136
0.00847932
0.00854741
0.00861795
0.00869106
0.00876686
0.00884548
0.00892705
0.00901172
0.00909967
0.00919107
0.00928612
0.00938502
0.00948801
0.00959534
0.00970728
0.0098241
0.0099461
0.0100736
0.0102069
0.0103463
0.010492
0.0106442
0.010803
0.0109681
0.0111391
0.0113151
0.0075175
0.00756647
0.00761741
0.00767036
0.0077254
0.00778259
0.007842
0.00790373
0.00796785
0.00803448
0.00810371
0.00817567
0.00825047
0.00832826
0.00840919
0.00849342
0.00858115
0.00867256
0.00876788
0.00886736
0.00897125
0.00907987
0.00919351
0.00931254
0.00943735
0.00956833
0.00970593
0.00985061
0.0100028
0.010163
0.0103315
0.0105086
0.0106942
0.0108879
0.0110887
0.00708034
0.00712724
0.00717629
0.00722755
0.00728111
0.00733704
0.00739543
0.00745637
0.00751997
0.00758632
0.00765556
0.0077278
0.00780319
0.00788188
0.00796406
0.0080499
0.00813962
0.00823345
0.00833166
0.00843453
0.00854239
0.0086556
0.00877456
0.00889971
0.00903156
0.00917064
0.00931755
0.00947294
0.00963747
0.00981184
0.00999667
0.0101925
0.0103995
0.0106175
0.0108456
0.00666358
0.0067062
0.00675122
0.00679873
0.00684881
0.00690157
0.00695709
0.00701548
0.00707685
0.00714131
0.00720898
0.00728002
0.00735457
0.00743279
0.00751487
0.00760102
0.00769147
0.00778648
0.00788635
0.0079914
0.00810202
0.00821863
0.0083417
0.00847178
0.0086095
0.00875553
0.00891065
0.00907573
0.00925171
0.00943957
0.00964032
0.0098549
0.010084
0.0103276
0.0105851
0.00628547
0.00632043
0.0063581
0.00639862
0.0064421
0.00648867
0.00653846
0.00659158
0.00664813
0.00670824
0.00677205
0.00683971
0.00691137
0.0069872
0.00706738
0.00715213
0.00724169
0.00733634
0.00743638
0.00754217
0.00765413
0.00777274
0.00789854
0.00803217
0.00817437
0.00832597
0.00848794
0.0086614
0.00884758
0.00904785
0.00926368
0.00949655
0.00974772
0.0100179
0.0103067
0.00596922
0.00599347
0.00602008
0.0060494
0.00608181
0.00611769
0.00615731
0.00620087
0.00624851
0.00630038
0.00635667
0.00641753
0.00648312
0.00655362
0.0066292
0.00671006
0.00679644
0.00688861
0.00698686
0.00709157
0.00720315
0.0073221
0.00744902
0.00758461
0.00772971
0.0078853
0.00805254
0.00823278
0.0084276
0.00863882
0.00886843
0.00911863
0.0093915
0.0096886
0.0100104
0.00570145
0.00571848
0.0057372
0.00575783
0.00578061
0.0058058
0.00583369
0.00586465
0.00589915
0.00593779
0.00598122
0.00602999
0.00608448
0.00614494
0.00621157
0.00628458
0.00636422
0.0064507
0.0065443
0.00664534
0.00675421
0.00687138
0.00699746
0.00713315
0.00727935
0.00743714
0.00760785
0.00779306
0.00799471
0.00821506
0.00845676
0.0087228
0.00901637
0.00934022
0.00969606
0.00545992
0.00547172
0.00548477
0.00549924
0.00551531
0.00553318
0.00555308
0.00557528
0.00560012
0.00562798
0.00565932
0.00569464
0.00573458
0.00577993
0.00583169
0.00589082
0.005958
0.00603361
0.00611793
0.00621127
0.00631392
0.00642628
0.00654884
0.00668226
0.0068274
0.00698534
0.00715751
0.00734569
0.00755211
0.00777951
0.00803122
0.00831117
0.00862386
0.00897364
0.009364
0.00523515
0.00524275
0.00525124
0.00526081
0.00527162
0.00528382
0.0052976
0.00531319
0.00533084
0.00535083
0.0053735
0.00539924
0.00542852
0.00546193
0.00550018
0.00554413
0.00559482
0.00565357
0.00572193
0.00580114
0.00589189
0.00599456
0.00610954
0.00623728
0.00637846
0.00653404
0.00670536
0.00689428
0.00710323
0.00733538
0.00759472
0.00788622
0.00821589
0.00859012
0.00901478
0.00502262
0.00502677
0.0050315
0.005037
0.0050434
0.00505086
0.00505953
0.00506961
0.0050813
0.00509486
0.00511056
0.00512872
0.00514973
0.00517404
0.0052022
0.00523485
0.00527279
0.00531704
0.00536889
0.00542993
0.0055022
0.00558795
0.00568877
0.00580538
0.00593822
0.00608792
0.0062555
0.00644258
0.0066516
0.00688601
0.00715039
0.00745075
0.00779475
0.00819128
0.00864924
0.00481925
0.00482071
0.00482249
0.0048247
0.00482747
0.00483095
0.00483528
0.00484064
0.00484721
0.0048552
0.00486487
0.00487651
0.00489045
0.00490708
0.00492686
0.00495032
0.00497813
0.00501107
0.00505015
0.00509661
0.00515209
0.00521875
0.00529933
0.00539713
0.00551467
0.00565297
0.00581259
0.00599456
0.00620086
0.00643485
0.00670151
0.00700776
0.00736304
0.00777907
0.00826855
0.00462227
0.00462184
0.00462156
0.00462132
0.00462131
0.00462166
0.00462248
0.00462393
0.00462617
0.00462939
0.00463382
0.00463972
0.0046474
0.00465721
0.00466956
0.00468494
0.00470391
0.00472718
0.00475557
0.00479011
0.00483212
0.00488329
0.00494589
0.00502299
0.00511869
0.00523762
0.0053827
0.00555474
0.00575477
0.00598536
0.00625138
0.00656041
0.00692359
0.00735577
0.00787417
0.00442892
0.00442748
0.00442596
0.00442423
0.00442238
0.00442053
0.00441878
0.00441727
0.00441611
0.00441547
0.00441557
0.00441659
0.00441883
0.0044226
0.00442831
0.00443639
0.00444737
0.00446188
0.00448067
0.00450466
0.00453497
0.00457302
0.00462068
0.00468043
0.00475574
0.00485152
0.00497411
0.00512889
0.00531749
0.00554104
0.00580329
0.00611188
0.00647935
0.00692388
0.00746782
0.00423642
0.00423478
0.00423284
0.0042306
0.0042279
0.00422487
0.0042216
0.00421817
0.00421469
0.00421127
0.00420806
0.00420524
0.00420306
0.00420179
0.0042018
0.00420343
0.00420721
0.00421376
0.00422374
0.00423801
0.00425761
0.0042838
0.0043182
0.00436291
0.00442082
0.004496
0.00459446
0.00472455
0.00489414
0.00510559
0.00536051
0.00566532
0.00603337
0.00648609
0.00705149
0.00404221
0.00404111
0.00403956
0.00403755
0.004035
0.0040318
0.00402806
0.00402382
0.00401915
0.00401413
0.00400885
0.00400343
0.00399805
0.00399294
0.00398837
0.00398468
0.00398233
0.00398188
0.00398392
0.00398929
0.00399898
0.00401414
0.00403627
0.00406724
0.00410955
0.00416664
0.00424356
0.004348
0.0044912
0.00468326
0.00492628
0.00522378
0.00558864
0.00604519
0.00662738
0.00384424
0.00384426
0.00384373
0.00384265
0.00384097
0.00383853
0.00383528
0.00383128
0.00382655
0.00382112
0.00381502
0.00380832
0.00380112
0.00379357
0.00378586
0.00377825
0.00377112
0.00376492
0.00376021
0.00375776
0.0037585
0.00376348
0.00377419
0.00379233
0.00382017
0.00386074
0.00391832
0.00399944
0.0041146
0.00427928
0.00450407
0.00479023
0.00514809
0.00560401
0.00619786
0.00364104
0.00364256
0.00364352
0.00364389
0.00364361
0.00364261
0.0036407
0.00363783
0.00363403
0.00362927
0.00362354
0.00361685
0.00360921
0.00360069
0.00359139
0.00358147
0.00357118
0.00356086
0.00355098
0.00354216
0.00353524
0.00353124
0.00353156
0.00353777
0.0035521
0.00357726
0.00361706
0.00367704
0.0037661
0.0038995
0.00409783
0.00436763
0.00471451
0.00516532
0.00576546
0.00343176
0.00343501
0.00343774
0.00343989
0.0034414
0.00344219
0.00344221
0.00344118
0.00343909
0.0034359
0.00343155
0.00342599
0.00341918
0.0034111
0.00340174
0.00339116
0.00337947
0.00336687
0.00335368
0.00334036
0.00332757
0.00331622
0.00330755
0.00330311
0.003305
0.00331581
0.00333905
0.00337959
0.00344495
0.00354811
0.0037125
0.00395907
0.00429062
0.00473178
0.00533273
0.00321618
0.00322122
0.00322582
0.0032299
0.00323341
0.00323625
0.00323836
0.00323963
0.00323981
0.00323883
0.00323663
0.0032331
0.00322814
0.00322168
0.00321363
0.00320392
0.00319255
0.00317955
0.00316506
0.00314934
0.00313285
0.00311627
0.00310061
0.00308726
0.00307818
0.0030759
0.00308377
0.00310631
0.00315005
0.00322575
0.00335387
0.00356807
0.0038791
0.00430594
0.00490225
0.00299459
0.00300135
0.00300776
0.00301376
0.00301929
0.00302426
0.00302859
0.00303218
0.00303493
0.00303655
0.00303698
0.00303609
0.00303374
0.00302981
0.00302412
0.00301656
0.00300698
0.00299529
0.00298145
0.00296551
0.00294765
0.00292828
0.00290809
0.00288819
0.00287025
0.00285662
0.00285055
0.00285641
0.00288021
0.00293115
0.00302591
0.003199
0.00348267
0.00389028
0.00447636
0.00276774
0.00277602
0.00278407
0.00279184
0.00279926
0.00280626
0.00281276
0.00281866
0.00282386
0.00282823
0.00283151
0.00283356
0.00283426
0.00283342
0.00283086
0.00282636
0.00281973
0.00281074
0.00279922
0.002785
0.00276803
0.0027484
0.00272643
0.0027028
0.00267874
0.00265623
0.00263824
0.00262898
0.00263428
0.00266248
0.00272744
0.00285744
0.00310394
0.00348715
0.00405601
0.00253675
0.00254626
0.00255568
0.00256495
0.00257401
0.00258281
0.00259127
0.0025993
0.00260681
0.00261367
0.00261978
0.00262484
0.00262872
0.00263122
0.00263216
0.00263129
0.00262834
0.00262304
0.00261509
0.00260418
0.00259005
0.00257248
0.00255143
0.0025271
0.00250015
0.00247193
0.00244485
0.00242272
0.00241116
0.00241818
0.00245597
0.00254714
0.00274563
0.00309864
0.0036429
0.00230308
0.00231346
0.00232388
0.00233428
0.00234464
0.00235488
0.00236496
0.0023748
0.00238432
0.00239342
0.00240197
0.00240985
0.0024168
0.00242262
0.00242711
0.00243004
0.00243114
0.00243007
0.00242648
0.00241997
0.00241011
0.0023965
0.00237874
0.00235658
0.00233007
0.0022998
0.00226729
0.00223555
0.00220961
0.00219719
0.00220971
0.00226598
0.00241143
0.00272706
0.00324108
0.00206854
0.00207935
0.00209032
0.00210142
0.00211261
0.00212386
0.00213511
0.00214632
0.00215742
0.00216832
0.00217893
0.00218912
0.00219877
0.00220764
0.00221548
0.00222209
0.0022272
0.00223049
0.00223159
0.00223006
0.00222537
0.00221699
0.00220431
0.0021867
0.00216369
0.00213507
0.00210132
0.0020642
0.00202759
0.00199845
0.00198777
0.00201228
0.00210664
0.00237473
0.00285266
0.00183524
0.001846
0.00185703
0.00186831
0.00187982
0.00189154
0.00190343
0.00191546
0.00192758
0.00193974
0.00195185
0.00196382
0.00197555
0.00198689
0.00199764
0.00200753
0.00201633
0.00202375
0.00202944
0.00203296
0.00203379
0.00203132
0.0020248
0.00201343
0.00199631
0.00197261
0.00194177
0.00190414
0.00186184
0.00182025
0.00178952
0.0017858
0.0018372
0.00204421
0.00248008
0.00160561
0.00161583
0.0016264
0.00163732
0.00164858
0.00166018
0.00167209
0.00168431
0.00169681
0.00170954
0.00172247
0.00173553
0.00174864
0.0017617
0.00177458
0.00178712
0.00179899
0.00181
0.00181981
0.00182804
0.00183421
0.0018377
0.00183779
0.00183352
0.00182384
0.00180748
0.00178312
0.00174976
0.00170753
0.00165935
0.00161341
0.00158531
0.00160173
0.00173871
0.00212535
0.00138227
0.0013915
0.00140112
0.00141115
0.0014216
0.00143247
0.00144377
0.0014555
0.00146765
0.00148021
0.00149317
0.0015065
0.00152015
0.00153406
0.00154814
0.0015623
0.00157639
0.00159012
0.00160325
0.00161546
0.00162633
0.00163533
0.00164176
0.00164472
0.00164312
0.00163549
0.0016201
0.00159501
0.00155852
0.00151068
0.00145622
0.00140838
0.00139264
0.00146307
0.00179082
0.00116789
0.00117575
0.00118402
0.00119272
0.00120186
0.00121146
0.00122154
0.00123213
0.00124323
0.00125485
0.00126702
0.00127972
0.00129295
0.00130671
0.00132094
0.00133562
0.00135065
0.00136592
0.00138121
0.00139625
0.00141074
0.00142426
0.0014362
0.00144581
0.00145203
0.00145348
0.0014483
0.0014341
0.001408
0.00136743
0.00131277
0.00125239
0.00120886
0.00122586
0.00147996
0.000964865
0.000971143
0.000977796
0.000984849
0.000992327
0.00100025
0.00100866
0.00101757
0.00102702
0.00103703
0.00104764
0.00105888
0.00107077
0.00108333
0.00109658
0.00111053
0.00112517
0.00114047
0.00115635
0.00117269
0.00118923
0.00120571
0.00122171
0.00123662
0.00124959
0.00125942
0.0012644
0.00126216
0.00124936
0.00122178
0.00117574
0.00111295
0.00105089
0.00103609
0.00119504
0.000775077
0.000779705
0.000784652
0.000789938
0.00079559
0.000801635
0.000808102
0.000815026
0.000822439
0.00083038
0.00083889
0.000848013
0.000857796
0.000868288
0.000879539
0.000891599
0.000904519
0.000918337
0.000933082
0.000948756
0.000965337
0.000982655
0.00100051
0.00101856
0.00103624
0.00105265
0.00106644
0.00107556
0.0010769
0.00106577
0.00103587
0.000982012
0.000911732
0.000865907
0.000936709
0.000599614
0.000602691
0.000606011
0.000609592
0.000613453
0.000617622
0.000622125
0.000627001
0.000632269
0.000637969
0.000644141
0.000650832
0.000658092
0.000665979
0.000674555
0.000683891
0.000694065
0.000705159
0.000717265
0.000730471
0.000744873
0.000760546
0.000777498
0.000795644
0.000814823
0.000834621
0.000854243
0.000872285
0.000886321
0.000892256
0.00088312
0.000848765
0.000784126
0.000713625
0.000708869
0.000438487
0.000440239
0.000442157
0.00044425
0.000446526
0.000449011
0.000451731
0.000454746
0.000458028
0.000461617
0.000465546
0.000469853
0.000474579
0.000479773
0.000485492
0.000491801
0.000498776
0.000506505
0.00051509
0.000524647
0.000535317
0.000547255
0.000560634
0.000575644
0.000592408
0.000611032
0.000631471
0.000653336
0.00067553
0.000695582
0.00070774
0.000700227
0.000658024
0.000582984
0.000525318
0.000289701
0.000290441
0.000291277
0.000292208
0.000293218
0.000294344
0.000295604
0.000297138
0.000298806
0.00030066
0.00030272
0.00030501
0.000307559
0.000310397
0.000313565
0.000317106
0.000321075
0.000325536
0.000330567
0.00033626
0.000342733
0.000350125
0.000358611
0.000368409
0.000379795
0.000393095
0.000408685
0.000427012
0.000448534
0.000473712
0.000501135
0.000521717
0.000516822
0.00046809
0.000398092
0.000151197
0.000151249
0.000151351
0.000151503
0.000151679
0.000151903
0.000152158
0.00015265
0.000153177
0.000153797
0.000154519
0.000155357
0.000156324
0.000157437
0.000158715
0.000160184
0.000161872
0.000163814
0.000166055
0.000168646
0.000171653
0.000175161
0.000179281
0.000184154
0.000189965
0.000196962
0.000205513
0.000216069
0.00022926
0.000246437
0.000270119
0.0003021
0.000337278
0.000338674
0.000277017
1.19637e-06
1.18686e-06
1.17744e-06
1.16725e-06
1.15238e-06
1.14273e-06
1.18032e-06
1.15361e-06
1.15451e-06
1.15708e-06
1.16167e-06
1.16874e-06
1.17872e-06
1.19198e-06
1.20884e-06
1.22956e-06
1.25454e-06
1.28439e-06
1.32003e-06
1.363e-06
1.42162e-06
1.49681e-06
1.58945e-06
1.70528e-06
1.85264e-06
2.04395e-06
2.29966e-06
2.6512e-06
3.15092e-06
3.91559e-06
5.21434e-06
7.46162e-06
1.04529e-05
1.30532e-05
9.22652e-05
0.0140281
0.0140253
0.014022
0.0140209
0.0140207
0.0140189
0.0140157
0.014012
0.0140093
0.0140075
0.0140064
0.0140058
0.0140059
0.0140073
0.0140078
0.014008
0.014008
0.0140079
0.0140075
0.014007
0.0140065
0.014006
0.0140055
0.0140051
0.0140048
0.0140045
0.0140042