/*--------------------------------*- C++ -*----------------------------------*\
  =========                 |
  \\      /  F ield         | OpenFOAM: The Open Source CFD Toolbox
   \\    /   O peration     | Website:  https://openfoam.org
    \\  /    A nd           | Version:  9
     \\/     M anipulation  |
\*---------------------------------------------------------------------------*/
FoamFile
{
    format      ascii;
    class       volScalarField;
    location    "0.0075";
    object      nuTilda;
}
// * * * * * * * * * * * * * * * * * * * * * * * * * * * * * * * * * * * * * //

dimensions      [0 2 -1 0 0 0 0];

internalField   nonuniform List<scalar> 
6352
(
0.0124611
0.0123917
0.0124347
0.0125259
0.0126302
0.0127323
0.0128267
0.0129119
0.012988
0.0130561
0.0131171
0.0131719
0.0132216
0.0132667
0.0133079
0.0133457
0.0133805
0.0134125
0.013442
0.0134693
0.0134946
0.0135181
0.0135399
0.0135602
0.013579
0.0123221
0.0122541
0.012296
0.0123859
0.0124911
0.0125966
0.0126956
0.012786
0.0128674
0.0129405
0.0130062
0.0130656
0.0131193
0.0131681
0.0132127
0.0132541
0.0132923
0.0133276
0.0133603
0.0133907
0.0134189
0.0134453
0.0134699
0.0134929
0.0135144
0.0121051
0.0121463
0.0122343
0.0123385
0.012446
0.012549
0.0126443
0.0127309
0.0128093
0.0128802
0.0129448
0.0130037
0.0130576
0.0131069
0.0131523
0.0131942
0.0132329
0.0132689
0.0133023
0.0133335
0.0133626
0.0133898
0.0134153
0.0134393
0.0119492
0.0119926
0.0120807
0.012185
0.0122935
0.0123987
0.0124974
0.0125883
0.0126716
0.0127476
0.0128171
0.0128806
0.0129388
0.0129923
0.0130415
0.013087
0.0131292
0.0131683
0.0132048
0.0132388
0.0132706
0.0133004
0.0133284
0.0133547
0.0117861
0.0118328
0.0119217
0.0120266
0.0121349
0.0122415
0.0123429
0.0124374
0.0125248
0.0126052
0.012679
0.0127469
0.0128095
0.0128671
0.0129204
0.0129698
0.0130156
0.0130582
0.013098
0.0131351
0.0131699
0.0132025
0.0132332
0.013262
0.0116155
0.0116667
0.0117566
0.0118617
0.0119699
0.0120772
0.0121802
0.0122774
0.0123682
0.0124524
0.0125304
0.0126025
0.0126692
0.012731
0.0127883
0.0128416
0.0128912
0.0129375
0.0129807
0.0130211
0.0130591
0.0130947
0.0131282
0.0131598
0.0114381
0.0114943
0.0115854
0.0116907
0.0117993
0.0119059
0.0120096
0.0121086
0.0122019
0.0122893
0.0123709
0.0124469
0.0125175
0.0125833
0.0126446
0.0127018
0.0127551
0.0128051
0.0128518
0.0128957
0.012937
0.0129758
0.0130123
0.0130468
0.0112546
0.0113159
0.011408
0.0115131
0.0116215
0.0117282
0.0118314
0.0119312
0.0120262
0.0121161
0.0122006
0.01228
0.0123542
0.0124237
0.0124888
0.0125497
0.0126068
0.0126604
0.0127107
0.0127581
0.0128027
0.0128447
0.0128845
0.012922
0.0110659
0.0111317
0.0112245
0.011329
0.0114367
0.011543
0.0116459
0.0117453
0.0118412
0.0119328
0.0120197
0.0121017
0.0121791
0.012252
0.0123205
0.012385
0.0124456
0.0125028
0.0125566
0.0126074
0.0126554
0.0127008
0.0127437
0.0127843
0.0108726
0.0109422
0.0110351
0.0111384
0.0112448
0.0113503
0.0114528
0.0115515
0.0116471
0.0117394
0.0118279
0.0119122
0.0119921
0.0120679
0.0121395
0.0122072
0.0122712
0.0123317
0.0123889
0.0124431
0.0124944
0.012543
0.0125891
0.0126329
0.0106757
0.0107479
0.0108401
0.0109415
0.011046
0.01115
0.0112515
0.0113497
0.0114443
0.0115363
0.0116254
0.0117111
0.011793
0.0118712
0.0119455
0.0120161
0.0120831
0.0121467
0.0122071
0.0122644
0.0123189
0.0123707
0.0124199
0.0124667
0.010476
0.0105494
0.0106398
0.0107386
0.0108404
0.0109422
0.0110421
0.0111392
0.0112331
0.0113239
0.0114125
0.0114986
0.0115818
0.0116617
0.0117382
0.0118113
0.011881
0.0119474
0.0120107
0.0120709
0.0121284
0.0121831
0.0122353
0.0122851
0.0103473
0.0104349
0.0105302
0.0106285
0.0107272
0.0108247
0.01092
0.0110127
0.0111025
0.0111898
0.0112751
0.0113585
0.0114393
0.0115173
0.0115922
0.0116641
0.011733
0.0117988
0.0118618
0.011922
0.0119796
0.0120346
0.0120872
0.0101424
0.0102262
0.0103168
0.0104107
0.0105056
0.0105998
0.0106926
0.0107833
0.0108717
0.0109577
0.0110415
0.0111237
0.0112044
0.0112829
0.011359
0.0114325
0.0115032
0.0115712
0.0116364
0.011699
0.0117591
0.0118167
0.011872
0.00993611
0.0100146
0.0100997
0.0101882
0.0102782
0.0103683
0.0104576
0.0105455
0.0106317
0.0107159
0.0107981
0.0108786
0.0109577
0.0110357
0.0111119
0.0111861
0.011258
0.0113274
0.0113944
0.0114589
0.0115211
0.0115809
0.0116385
0.00972986
0.00980194
0.00988035
0.00996251
0.0100467
0.0101316
0.0102164
0.0103005
0.0103835
0.0104651
0.0105452
0.0106237
0.0107007
0.0107767
0.0108517
0.0109255
0.0109976
0.0110677
0.0111357
0.0112016
0.0112652
0.0113267
0.0113861
0.00952579
0.0095903
0.00966098
0.0097357
0.00981293
0.00989158
0.00997083
0.0100501
0.0101289
0.0102069
0.0102839
0.0103597
0.0104343
0.0105077
0.0105803
0.0106521
0.0107231
0.0107928
0.0108609
0.0109272
0.0109917
0.0110541
0.0111147
0.00938249
0.00944446
0.00951073
0.00957999
0.00965126
0.0097238
0.00979699
0.00987038
0.00994361
0.0100164
0.0100885
0.0101598
0.0102301
0.0102997
0.0103685
0.0104368
0.0105046
0.0105714
0.0106371
0.0107013
0.0107638
0.0108247
0.0091819
0.00923437
0.00929131
0.00935163
0.00941447
0.00947913
0.00954506
0.00961179
0.00967896
0.00974623
0.00981337
0.00988016
0.00994646
0.0100122
0.0100773
0.0101419
0.0102061
0.0102701
0.0103336
0.0103961
0.0104576
0.0105177
0.00899234
0.00903481
0.0090818
0.00913241
0.00918589
0.00924165
0.00929918
0.00935803
0.00941785
0.00947832
0.00953914
0.00960011
0.00966102
0.00972174
0.00978216
0.00984223
0.00990197
0.00996153
0.010021
0.0100803
0.010139
0.010197
0.00885
0.00888679
0.00892726
0.00897079
0.00901688
0.00906509
0.00911503
0.00916635
0.00921875
0.00927196
0.00932574
0.00937989
0.00943424
0.00948863
0.00954296
0.00959718
0.00965131
0.00970542
0.00975949
0.00981358
0.00986757
0.00868355
0.00871046
0.00874088
0.00877436
0.00881047
0.00884885
0.00888919
0.00893119
0.00897456
0.00901907
0.00906449
0.00911061
0.00915726
0.00920427
0.00925151
0.0092989
0.0093464
0.00939391
0.00944147
0.00948913
0.00953702
0.00853778
0.00855576
0.00857689
0.00860083
0.00862727
0.00865595
0.0086866
0.008719
0.0087529
0.00878812
0.00882443
0.00886166
0.00889963
0.00893819
0.00897719
0.00901654
0.00905614
0.00909593
0.00913586
0.00917592
0.00921618
0.00842346
0.00843674
0.00845239
0.00847021
0.00849001
0.00851163
0.00853489
0.00855961
0.00858564
0.00861281
0.00864098
0.00866998
0.00869969
0.00872996
0.00876071
0.00879181
0.0088232
0.00885478
0.00888652
0.00891838
0.00831142
0.00831895
0.00832824
0.0083392
0.00835171
0.00836569
0.00838103
0.00839761
0.00841535
0.00843411
0.00845379
0.00847428
0.00849546
0.00851722
0.00853948
0.00856214
0.00858511
0.0086083
0.00863166
0.00865513
0.00821879
0.00822422
0.00823067
0.00823812
0.00824654
0.00825589
0.00826612
0.00827719
0.00828904
0.00830161
0.00831482
0.00832861
0.00834289
0.00835761
0.00837271
0.00838809
0.00840371
0.00841949
0.00843538
0.00812848
0.00813286
0.00813755
0.0081426
0.00814803
0.00815384
0.00816007
0.0081667
0.00817373
0.00818116
0.00818895
0.00819708
0.00820552
0.00821423
0.00822319
0.00823234
0.00824165
0.00825107
0.00826057
0.00804408
0.00804986
0.00805534
0.00806057
0.00806562
0.00807053
0.00807536
0.00808014
0.00808491
0.00808968
0.00809447
0.00809928
0.00810414
0.00810904
0.00811396
0.00811887
0.00812375
0.00812858
0.0079557
0.00796424
0.00797193
0.00797886
0.00798513
0.00799081
0.00799599
0.00800077
0.00800531
0.00800961
0.00801368
0.00801755
0.00802122
0.00802471
0.00802802
0.00803117
0.00803417
0.00784291
0.00785659
0.00786888
0.00787987
0.00788968
0.00789841
0.00790617
0.00791304
0.00791931
0.00792502
0.00793017
0.00793481
0.00793896
0.00794266
0.00794594
0.00794884
0.00795139
0.00772104
0.00773951
0.00775621
0.00777127
0.00778476
0.00779681
0.00780754
0.00781723
0.00782602
0.00783393
0.00784099
0.00784722
0.0078527
0.00785745
0.00786155
0.00786505
0.007573
0.00759635
0.00761762
0.00763688
0.00765425
0.0076699
0.00768432
0.00769743
0.00770925
0.00771979
0.00772913
0.0077373
0.00774439
0.00775048
0.00775563
0.00736043
0.00739058
0.00741824
0.00744351
0.00746664
0.00748814
0.0075079
0.00752586
0.00754205
0.00755647
0.00756921
0.00758033
0.00758993
0.00759809
0.00760491
0.00713112
0.00716453
0.0071959
0.00722526
0.00725243
0.0072773
0.00729984
0.00732006
0.00733801
0.00735376
0.00736738
0.00737895
0.00738859
0.00739639
0.00685196
0.00688878
0.00692298
0.00695439
0.00698294
0.0070086
0.00703136
0.00705127
0.0070684
0.00708282
0.0070946
0.00710394
0.0071116
0.00647948
0.00651937
0.00655605
0.00658938
0.00661924
0.00664561
0.00666849
0.00668786
0.00670379
0.00671639
0.00672671
0.00673545
0.00674244
0.0060883
0.00612447
0.00615673
0.00618492
0.00620897
0.00622887
0.0062446
0.0062573
0.00626805
0.00627647
0.00628234
0.00628557
0.00563093
0.00565859
0.00568151
0.00569965
0.00571375
0.00572536
0.00573428
0.00574
0.00574227
0.00573984
0.00573078
0.00510328
0.00511779
0.00512933
0.00513821
0.00514363
0.00514501
0.00513983
0.00512788
0.00510985
0.00508683
0.00451616
0.00452155
0.00452298
0.0045174
0.00450507
0.00448713
0.00446395
0.00443535
0.00439955
0.00391497
0.00390923
0.00389837
0.00388156
0.00385804
0.00382654
0.00378599
0.00373573
0.00334852
0.00334131
0.00332588
0.00330212
0.00326919
0.00322673
0.00317401
0.00311084
0.0028169
0.0027933
0.00276037
0.0027177
0.00266474
0.00260068
0.00252535
0.00225749
0.00220638
0.00214459
0.00207104
0.00198522
0.00174667
0.00167696
0.0015948
0.001499
0.0013147
0.00121567
0.00110334
0.0135938
0.0135939
0.0135941
0.0135943
0.0135944
0.0135946
0.0135947
0.0135949
0.013595
0.0135951
0.0135953
0.0135954
0.0135955
0.0135956
0.0135957
0.0135958
0.0135959
0.013596
0.0135961
0.0135962
0.0135312
0.0135314
0.0135316
0.0135318
0.013532
0.0135321
0.0135323
0.0135325
0.0135326
0.0135328
0.0135329
0.0135331
0.0135332
0.0135333
0.0135335
0.0135336
0.0135337
0.0135338
0.0135339
0.013534
0.0134576
0.0134578
0.013458
0.0134582
0.0134584
0.0134586
0.0134588
0.013459
0.0134592
0.0134594
0.0134596
0.0134597
0.0134599
0.01346
0.0134602
0.0134603
0.0134605
0.0134606
0.0134607
0.0134609
0.0133746
0.0133749
0.0133751
0.0133754
0.0133756
0.0133758
0.013376
0.0133763
0.0133765
0.0133767
0.0133769
0.0133771
0.0133773
0.0133775
0.0133777
0.0133778
0.013378
0.0133782
0.0133783
0.0133785
0.0132835
0.0132838
0.013284
0.0132843
0.0132846
0.0132848
0.0132851
0.0132853
0.0132855
0.0132858
0.013286
0.0132862
0.0132865
0.0132867
0.0132869
0.0132871
0.0132873
0.0132875
0.0132876
0.0132878
0.0131829
0.0131832
0.0131835
0.0131838
0.0131841
0.0131844
0.0131846
0.0131849
0.0131852
0.0131854
0.0131857
0.0131859
0.0131862
0.0131864
0.0131866
0.0131868
0.0131871
0.0131873
0.0131875
0.0131877
0.0130716
0.013072
0.0130723
0.0130726
0.013073
0.0130733
0.0130736
0.0130739
0.0130741
0.0130744
0.0130747
0.013075
0.0130752
0.0130755
0.0130757
0.013076
0.0130762
0.0130764
0.0130766
0.0130768
0.0129486
0.0129489
0.0129493
0.0129497
0.01295
0.0129504
0.0129507
0.012951
0.0129513
0.0129516
0.0129519
0.0129522
0.0129525
0.0129528
0.012953
0.0129533
0.0129535
0.0129537
0.012954
0.0129542
0.0128127
0.0128131
0.0128135
0.0128139
0.0128143
0.0128146
0.012815
0.0128153
0.0128157
0.012816
0.0128163
0.0128166
0.0128169
0.0128172
0.0128175
0.0128177
0.012818
0.0128182
0.0128185
0.0128187
0.0126629
0.0126634
0.0126638
0.0126642
0.0126647
0.0126651
0.0126655
0.0126658
0.0126662
0.0126665
0.0126669
0.0126672
0.0126675
0.0126678
0.0126681
0.0126684
0.0126686
0.0126689
0.0126691
0.0126693
0.0124984
0.0124989
0.0124994
0.0124999
0.0125003
0.0125008
0.0125012
0.0125016
0.012502
0.0125023
0.0125027
0.012503
0.0125034
0.0125037
0.012504
0.0125042
0.0125045
0.0125048
0.012505
0.0125052
0.0123183
0.0123189
0.0123194
0.01232
0.0123205
0.0123209
0.0123214
0.0123218
0.0123222
0.0123226
0.012323
0.0123234
0.0123237
0.012324
0.0123243
0.0123246
0.0123248
0.0123251
0.0123253
0.0123255
0.0121219
0.0121225
0.0121231
0.0121236
0.0121242
0.0121247
0.0121252
0.0121256
0.0121261
0.0121265
0.0121269
0.0121273
0.0121276
0.0121279
0.0121282
0.0121285
0.0121288
0.012129
0.0121292
0.0121294
0.0119079
0.0119086
0.0119092
0.0119098
0.0119104
0.011911
0.0119115
0.011912
0.0119124
0.0119129
0.0119133
0.0119137
0.0119141
0.0119144
0.0119147
0.011915
0.0119153
0.0119155
0.0119157
0.0119159
0.0116754
0.0116762
0.0116769
0.0116775
0.0116782
0.0116788
0.0116793
0.0116799
0.0116804
0.0116809
0.0116813
0.0116817
0.0116821
0.0116824
0.0116827
0.011683
0.0116833
0.0116835
0.0116837
0.0116839
0.0114238
0.0114246
0.0114254
0.0114261
0.0114268
0.0114274
0.011428
0.0114286
0.0114292
0.0114297
0.0114301
0.0114306
0.011431
0.0114313
0.0114316
0.0114319
0.0114322
0.0114324
0.0114326
0.0114328
0.0111528
0.0111537
0.0111545
0.0111553
0.011156
0.0111567
0.0111574
0.011158
0.0111586
0.0111591
0.0111596
0.01116
0.0111605
0.0111608
0.0111612
0.0111615
0.0111618
0.011162
0.0111622
0.0111623
0.0108627
0.0108637
0.0108646
0.0108654
0.0108662
0.010867
0.0108677
0.0108683
0.0108689
0.0108695
0.01087
0.0108705
0.010871
0.0108714
0.0108717
0.010872
0.0108723
0.0108725
0.0108727
0.0108729
0.010555
0.010556
0.0105569
0.0105578
0.0105587
0.0105595
0.0105602
0.0105609
0.0105616
0.0105622
0.0105627
0.0105632
0.0105637
0.0105641
0.0105645
0.0105648
0.0105651
0.0105654
0.0105656
0.0105657
0.0102327
0.0102337
0.0102347
0.0102357
0.0102366
0.0102374
0.0102382
0.010239
0.0102396
0.0102403
0.0102409
0.0102414
0.0102419
0.0102423
0.0102427
0.0102431
0.0102434
0.0102437
0.0102439
0.010244
0.00990082
0.0099019
0.00990293
0.0099039
0.00990482
0.00990568
0.0099065
0.00990726
0.00990797
0.00990863
0.00990923
0.00990979
0.0099103
0.00991076
0.00991118
0.00991154
0.00991186
0.00991213
0.00991235
0.00991248
0.00956662
0.00956769
0.00956871
0.00956967
0.00957059
0.00957145
0.00957226
0.00957302
0.00957372
0.00957438
0.00957499
0.00957555
0.00957606
0.00957652
0.00957694
0.0095773
0.00957762
0.0095779
0.00957811
0.00957823
0.00924092
0.00924194
0.0092429
0.00924381
0.00924467
0.00924549
0.00924626
0.00924697
0.00924765
0.00924827
0.00924885
0.00924938
0.00924986
0.0092503
0.0092507
0.00925104
0.00925135
0.00925161
0.00925179
0.00925189
0.00893753
0.00893843
0.00893929
0.0089401
0.00894087
0.00894159
0.00894227
0.00894291
0.00894351
0.00894406
0.00894457
0.00894504
0.00894547
0.00894585
0.0089462
0.00894651
0.00894677
0.00894697
0.00894709
0.00894714
0.00866891
0.00866967
0.00867039
0.00867108
0.00867173
0.00867234
0.00867291
0.00867345
0.00867395
0.00867442
0.00867485
0.00867524
0.0086756
0.00867592
0.00867621
0.00867646
0.00867666
0.00867679
0.00867685
0.00867684
0.00844449
0.0084451
0.00844568
0.00844623
0.00844674
0.00844723
0.00844769
0.00844813
0.00844853
0.0084489
0.00844924
0.00844955
0.00844984
0.00845009
0.00845032
0.0084505
0.00845062
0.00845069
0.0084507
0.00845069
0.00826588
0.00826634
0.00826677
0.00826718
0.00826757
0.00826795
0.0082683
0.00826863
0.00826894
0.00826923
0.0082695
0.00826975
0.00826998
0.00827018
0.00827037
0.00827052
0.00827063
0.00827069
0.00827072
0.00827071
0.00813146
0.00813175
0.00813203
0.0081323
0.00813256
0.0081328
0.00813304
0.00813327
0.00813348
0.00813368
0.00813388
0.00813406
0.00813422
0.00813438
0.00813452
0.00813463
0.00813472
0.00813478
0.00813481
0.00813481
0.0080359
0.0080361
0.0080363
0.0080365
0.00803668
0.00803686
0.00803703
0.00803719
0.00803734
0.00803749
0.00803762
0.00803774
0.00803785
0.00803793
0.00803799
0.00803802
0.00803803
0.00803802
0.00803801
0.00803798
0.00795275
0.00795294
0.00795312
0.00795331
0.00795349
0.00795366
0.00795384
0.007954
0.00795416
0.00795432
0.00795447
0.00795462
0.00795475
0.00795488
0.00795499
0.00795509
0.00795517
0.00795523
0.00795526
0.00795527
0.00786683
0.00786709
0.00786736
0.00786762
0.00786787
0.00786812
0.00786837
0.00786861
0.00786885
0.00786909
0.00786931
0.00786954
0.00786975
0.00786996
0.00787016
0.00787035
0.00787054
0.00787071
0.00787087
0.007871
0.00775821
0.00775862
0.00775903
0.00775944
0.00775984
0.00776024
0.00776063
0.00776102
0.00776141
0.00776179
0.00776216
0.00776253
0.00776289
0.00776324
0.00776359
0.00776392
0.00776425
0.00776457
0.00776487
0.00776516
0.00760822
0.00760882
0.00760942
0.00761001
0.0076106
0.00761119
0.00761178
0.00761235
0.00761293
0.0076135
0.00761406
0.00761462
0.00761517
0.00761572
0.00761625
0.00761678
0.0076173
0.0076178
0.0076183
0.00761879
0.00740003
0.00740082
0.00740161
0.0074024
0.00740319
0.00740398
0.00740476
0.00740555
0.00740633
0.00740711
0.00740789
0.00740866
0.00740943
0.00741019
0.00741094
0.00741169
0.00741244
0.00741317
0.00741389
0.00741461
0.0071155
0.00711654
0.00711758
0.00711862
0.00711966
0.00712071
0.00712177
0.00712282
0.00712388
0.00712494
0.007126
0.00712706
0.00712812
0.00712918
0.00713024
0.00713129
0.00713234
0.00713339
0.00713443
0.00713547
0.00674554
0.00674654
0.0067476
0.00674869
0.00674983
0.00675101
0.00675222
0.00675347
0.00675475
0.00675605
0.00675738
0.00675874
0.0067601
0.00676147
0.00676285
0.00676423
0.00676562
0.00676702
0.00676842
0.00676982
0.00628582
0.00628608
0.00628648
0.006287
0.00628766
0.00628844
0.00628933
0.00629033
0.00629143
0.00629263
0.00629393
0.00629531
0.00629676
0.00629829
0.00629989
0.00630155
0.00630327
0.00630503
0.00630685
0.00630873
0.00572073
0.00572043
0.00572021
0.0057201
0.00572008
0.00572028
0.00572073
0.00572142
0.00572234
0.00572347
0.0057248
0.00572631
0.005728
0.00572985
0.00573185
0.00573399
0.00573626
0.00573864
0.00574114
0.00574369
0.00506837
0.00506772
0.0050672
0.00506682
0.00506657
0.00506645
0.00506646
0.00506682
0.00506753
0.00506855
0.00506988
0.00507149
0.00507337
0.0050755
0.00507787
0.00508046
0.00508325
0.00508625
0.00508941
0.00509266
0.00436757
0.0043663
0.00436523
0.00436436
0.00436368
0.00436319
0.00436289
0.00436278
0.00436295
0.00436362
0.00436474
0.00436629
0.00436823
0.00437054
0.00437318
0.00437614
0.00437939
0.00438291
0.00438659
0.0043904
0.00369106
0.00368913
0.00368749
0.00368613
0.00368505
0.00368424
0.00368369
0.0036834
0.00368335
0.00368388
0.00368504
0.00368677
0.00368902
0.00369173
0.00369488
0.00369842
0.00370229
0.00370632
0.00371052
0.00371487
0.00305488
0.00305232
0.00305019
0.00304847
0.00304714
0.0030462
0.00304564
0.00304542
0.00304579
0.00304704
0.00304909
0.00305184
0.00305523
0.00305918
0.00306345
0.00306795
0.00307269
0.00307764
0.00308279
0.00308812
0.00245776
0.00245453
0.00245193
0.00244992
0.00244848
0.00244758
0.0024472
0.0024475
0.00244906
0.0024517
0.00245528
0.00245962
0.00246432
0.00246938
0.00247477
0.00248045
0.0024864
0.00249261
0.00249904
0.00250569
0.00190801
0.00190422
0.0019013
0.00189922
0.00189792
0.00189735
0.00189768
0.0018997
0.00190313
0.00190763
0.00191266
0.00191818
0.00192413
0.00193047
0.00193717
0.00194419
0.00195149
0.00195905
0.00196684
0.00197483
0.00141424
0.00141003
0.00140702
0.00140513
0.00140428
0.00140456
0.00140711
0.00141144
0.00141655
0.00142235
0.00142874
0.00143565
0.00144302
0.00145079
0.0014589
0.00146731
0.00147598
0.00148488
0.00149398
0.00150325
0.00099384
0.000987966
0.000984529
0.000982768
0.000982496
0.000985083
0.000989728
0.000995447
0.00100205
0.00100936
0.00101727
0.00102563
0.00103433
0.00104332
0.00105255
0.00106198
0.00107156
0.00108129
0.00109112
0.00110105
0.000635626
0.000636313
0.000640587
0.000646428
0.000653494
0.000661587
0.000670501
0.000680021
0.000689933
0.000700078
0.000709931
0.000719258
0.000728706
0.000738233
0.000747806
0.000757402
0.000767006
0.00077661
0.000477196
0.000487889
0.00049842
0.000508637
0.000518349
0.000527242
0.000535608
0.000543291
0.0135964
0.0135966
0.0135968
0.013597
0.0135972
0.0135341
0.0135343
0.0135345
0.0135348
0.013535
0.013461
0.0134613
0.0134615
0.0134618
0.0134621
0.0133787
0.013379
0.0133794
0.0133798
0.0133801
0.013288
0.0132885
0.0132889
0.0132893
0.0132897
0.0131879
0.0131884
0.0131889
0.0131893
0.0131898
0.0130771
0.0130776
0.0130781
0.0130787
0.0130792
0.0129544
0.012955
0.0129556
0.0129561
0.0129567
0.0128189
0.0128195
0.0128201
0.0128207
0.0128213
0.0126696
0.0126702
0.0126708
0.0126714
0.012672
0.0125054
0.0125061
0.0125067
0.0125073
0.0125079
0.0123257
0.0123263
0.0123269
0.0123275
0.0123281
0.0121296
0.0121302
0.0121308
0.0121313
0.0121319
0.011916
0.0119166
0.0119171
0.0119177
0.0119182
0.011684
0.0116846
0.0116851
0.0116856
0.0116861
0.0114329
0.0114334
0.0114339
0.0114344
0.0114349
0.0111624
0.0111628
0.0111633
0.0111638
0.0111643
0.0108729
0.0108733
0.0108737
0.0108742
0.0108746
0.0105658
0.0105661
0.0105665
0.010567
0.0105675
0.0102441
0.0102444
0.0102448
0.0102453
0.0102459
0.00991254
0.00991289
0.00991334
0.00991389
0.00991454
0.00957828
0.00957863
0.00957911
0.00957969
0.00958038
0.00925192
0.00925222
0.00925265
0.00925321
0.00925389
0.00894713
0.00894727
0.00894756
0.00894799
0.00894856
0.00867678
0.00867677
0.00867689
0.00867715
0.00867756
0.00845062
0.00845055
0.00845053
0.00845062
0.00845084
0.00827067
0.00827063
0.00827063
0.00827073
0.00827092
0.00813479
0.00813482
0.00813494
0.00813513
0.00813539
0.0080379
0.00803778
0.00803768
0.00803761
0.00803756
0.00795527
0.00795532
0.00795542
0.00795557
0.00795575
0.00787132
0.00787191
0.00787256
0.00787327
0.00787401
0.00776585
0.00776718
0.00776857
0.00777001
0.00777149
0.00761998
0.00762223
0.00762461
0.00762708
0.00762965
0.00741641
0.00741983
0.00742347
0.00742731
0.00743133
0.00713814
0.00714319
0.00714862
0.00715438
0.00716043
0.0067735
0.00678052
0.00678815
0.00679632
0.00680502
0.00631377
0.00632347
0.00633409
0.00634551
0.00635763
0.00575058
0.00576407
0.00577895
0.00579493
0.00581181
0.0051015
0.00511874
0.0051379
0.00515864
0.00518068
0.00440078
0.0044213
0.00444438
0.00446956
0.00449645
0.00372667
0.00375019
0.00377672
0.00380565
0.0038365
0.00310243
0.00313061
0.00316206
0.003196
0.00323181
0.00252314
0.0025568
0.00259376
0.00263307
0.00267403
0.00199519
0.00203396
0.00207597
0.00212008
0.00216554
0.001526
0.00156895
0.00161495
0.00166274
0.00171156
0.00112436
0.00116859
0.0012161
0.00126535
0.00131558
0.000798206
0.000839174
0.000882888
0.000928698
0.000976339
0.000559898
0.000592716
0.000623812
0.00065582
0.000692398
0.000375971
0.000392446
0.000407271
0.000425859
0.000450559
0.000215589
0.000219762
0.00023505
0.0135974
0.0135975
0.0135977
0.0135979
0.0135981
0.0135984
0.0135987
0.0135991
0.0135996
0.0136001
0.0136007
0.0136014
0.0136022
0.0136032
0.0136043
0.0136057
0.0136072
0.013609
0.0136111
0.0136135
0.0136162
0.0136194
0.013623
0.0136271
0.0136317
0.013637
0.0136429
0.0136496
0.0136572
0.0136656
0.013675
0.0136855
0.013697
0.0137098
0.0137238
0.0137391
0.0137557
0.0137737
0.0137931
0.0138137
0.0138356
0.0138586
0.0138828
0.013909
0.0139355
0.0139598
0.0139838
0.0140218
0.0140445
0.0140205
0.0135351
0.0135352
0.0135354
0.0135357
0.0135359
0.0135362
0.0135365
0.0135369
0.0135374
0.0135379
0.0135385
0.0135393
0.0135402
0.0135413
0.0135425
0.013544
0.0135458
0.0135479
0.0135504
0.0135534
0.0135568
0.0135608
0.0135654
0.0135706
0.0135764
0.0135831
0.0135906
0.013599
0.0136084
0.0136188
0.0136304
0.0136432
0.0136573
0.0136726
0.0136893
0.0137074
0.0137269
0.0137478
0.0137701
0.0137937
0.0138185
0.013844
0.0138699
0.013897
0.013926
0.0139522
0.0139751
0.0140136
0.014039
0.0140214
0.0134622
0.0134625
0.0134628
0.0134631
0.0134635
0.0134639
0.0134644
0.013465
0.0134656
0.0134664
0.0134673
0.0134683
0.0134695
0.013471
0.0134727
0.0134747
0.0134771
0.0134799
0.0134831
0.013487
0.0134914
0.0134965
0.0135024
0.013509
0.0135165
0.0135249
0.0135344
0.0135449
0.0135566
0.0135696
0.0135838
0.0135995
0.0136165
0.0136349
0.0136548
0.0136761
0.0136987
0.0137227
0.0137481
0.0137748
0.0138028
0.0138314
0.0138597
0.0138882
0.0139177
0.0139463
0.0139708
0.0140069
0.0140324
0.0140231
0.0133804
0.0133807
0.0133812
0.0133817
0.0133822
0.0133828
0.0133835
0.0133843
0.0133853
0.0133863
0.0133876
0.013389
0.0133906
0.0133926
0.0133949
0.0133975
0.0134007
0.0134043
0.0134087
0.0134137
0.0134194
0.013426
0.0134335
0.0134419
0.0134514
0.013462
0.0134738
0.013487
0.0135016
0.0135176
0.0135351
0.0135542
0.0135748
0.0135969
0.0136204
0.0136453
0.0136714
0.0136988
0.0137272
0.0137567
0.0137872
0.0138184
0.0138499
0.0138808
0.0139109
0.0139412
0.0139682
0.0140021
0.0140261
0.0140234
0.01329
0.0132905
0.0132911
0.0132917
0.0132924
0.0132933
0.0132942
0.0132952
0.0132964
0.0132978
0.0132995
0.0133013
0.0133035
0.013306
0.013309
0.0133124
0.0133165
0.0133213
0.0133269
0.0133333
0.0133406
0.013349
0.0133584
0.013369
0.0133809
0.0133942
0.013409
0.0134254
0.0134434
0.013463
0.0134844
0.0135075
0.0135323
0.0135586
0.0135863
0.0136154
0.0136455
0.0136765
0.0137084
0.013741
0.0137744
0.0138083
0.0138425
0.0138759
0.0139074
0.0139371
0.0139667
0.0139989
0.0140211
0.0140228
0.0131901
0.0131907
0.0131914
0.0131922
0.0131931
0.0131941
0.0131953
0.0131966
0.0131982
0.0131999
0.013202
0.0132044
0.0132071
0.0132104
0.0132142
0.0132186
0.0132239
0.0132301
0.0132371
0.0132453
0.0132545
0.013265
0.0132768
0.01329
0.0133049
0.0133214
0.0133396
0.0133598
0.0133818
0.0134058
0.0134317
0.0134595
0.0134891
0.0135202
0.0135527
0.0135863
0.0136208
0.0136558
0.0136913
0.0137271
0.0137632
0.0137997
0.0138363
0.0138722
0.0139055
0.0139349
0.0139656
0.0139971
0.0140176
0.0140218
0.0130795
0.0130803
0.0130811
0.0130821
0.0130832
0.0130844
0.0130859
0.0130875
0.0130894
0.0130916
0.0130942
0.0130972
0.0131007
0.0131048
0.0131097
0.0131154
0.0131221
0.0131299
0.0131388
0.013149
0.0131606
0.0131737
0.0131884
0.0132048
0.0132231
0.0132434
0.0132658
0.0132903
0.0133171
0.013346
0.0133772
0.0134103
0.0134452
0.0134818
0.0135196
0.0135582
0.0135974
0.0136368
0.013676
0.0137149
0.0137537
0.0137924
0.0138312
0.0138694
0.0139046
0.0139343
0.0139649
0.0139985
0.0140154
0.0140203
0.0129571
0.012958
0.012959
0.0129601
0.0129614
0.012963
0.0129647
0.0129667
0.0129691
0.0129718
0.012975
0.0129788
0.0129832
0.0129883
0.0129945
0.0130017
0.0130102
0.01302
0.0130311
0.0130439
0.0130583
0.0130745
0.0130927
0.0131129
0.0131354
0.0131602
0.0131875
0.0132172
0.0132494
0.013284
0.013321
0.0133602
0.0134011
0.0134436
0.0134872
0.0135313
0.0135755
0.0136194
0.0136625
0.0137046
0.0137458
0.0137866
0.0138272
0.0138673
0.0139044
0.0139344
0.0139645
0.0140005
0.0140142
0.0140186
0.0128217
0.0128227
0.0128239
0.0128252
0.0128268
0.0128285
0.0128306
0.0128331
0.0128359
0.0128393
0.0128432
0.0128478
0.0128533
0.0128598
0.0128676
0.0128766
0.0128872
0.0128994
0.0129133
0.0129291
0.0129469
0.0129669
0.0129893
0.0130141
0.0130415
0.0130717
0.0131047
0.0131404
0.0131789
0.0132201
0.0132637
0.0133095
0.0133571
0.0134061
0.0134558
0.0135057
0.0135552
0.0136037
0.0136507
0.0136959
0.0137396
0.0137821
0.0138241
0.0138659
0.0139047
0.013935
0.0139643
0.0140025
0.0140138
0.0140168
0.0126725
0.0126736
0.0126749
0.0126764
0.0126782
0.0126802
0.0126827
0.0126856
0.012689
0.0126931
0.0126979
0.0127036
0.0127104
0.0127185
0.0127281
0.0127394
0.0127525
0.0127675
0.0127847
0.0128042
0.012826
0.0128505
0.0128778
0.0129081
0.0129414
0.0129778
0.0130174
0.0130602
0.0131059
0.0131545
0.0132055
0.0132587
0.0133135
0.0133694
0.0134257
0.0134816
0.0135366
0.0135897
0.0136407
0.013689
0.0137348
0.0137788
0.013822
0.0138649
0.0139055
0.013936
0.0139644
0.0140036
0.0140157
0.014015
0.0125083
0.0125096
0.012511
0.0125127
0.0125147
0.0125171
0.01252
0.0125234
0.0125275
0.0125324
0.0125382
0.0125452
0.0125536
0.0125636
0.0125754
0.0125893
0.0126054
0.0126239
0.0126449
0.0126687
0.0126953
0.0127251
0.0127582
0.0127947
0.0128348
0.0128785
0.0129258
0.0129766
0.0130306
0.0130875
0.0131469
0.0132082
0.0132708
0.013334
0.0133972
0.0134593
0.0135197
0.0135776
0.0136323
0.0136835
0.0137313
0.0137766
0.0138205
0.0138644
0.0139065
0.0139372
0.0139646
0.0140038
0.0140175
0.0140132
0.0123286
0.0123299
0.0123314
0.0123333
0.0123356
0.0123383
0.0123416
0.0123456
0.0123505
0.0123564
0.0123635
0.0123719
0.0123822
0.0123944
0.012409
0.0124259
0.0124456
0.012468
0.0124936
0.0125224
0.0125546
0.0125906
0.0126304
0.0126742
0.0127221
0.0127741
0.0128301
0.0128899
0.0129532
0.0130194
0.013088
0.0131582
0.0132292
0.0133003
0.0133704
0.0134389
0.0135047
0.0135671
0.0136255
0.0136794
0.013729
0.0137753
0.0138198
0.0138642
0.0139076
0.0139385
0.0139651
0.0140036
0.0140177
0.0140116
0.0121323
0.0121337
0.0121354
0.0121375
0.01214
0.0121431
0.012147
0.0121517
0.0121575
0.0121645
0.0121731
0.0121833
0.0121958
0.0122108
0.0122284
0.012249
0.0122728
0.0122999
0.0123306
0.0123652
0.0124039
0.0124469
0.0124943
0.0125464
0.0126032
0.0126647
0.0127306
0.0128006
0.0128742
0.0129507
0.0130294
0.0131092
0.0131892
0.0132684
0.0133458
0.0134205
0.0134916
0.0135583
0.0136201
0.0136765
0.0137277
0.0137748
0.0138196
0.0138643
0.0139088
0.0139399
0.0139656
0.0140033
0.0140176
0.0140102
0.0119186
0.0119201
0.0119219
0.0119242
0.011927
0.0119306
0.0119351
0.0119407
0.0119476
0.0119561
0.0119664
0.0119788
0.011994
0.0120121
0.0120334
0.0120582
0.0120868
0.0121193
0.0121561
0.0121973
0.0122434
0.0122944
0.0123506
0.0124121
0.0124789
0.0125509
0.0126278
0.0127091
0.0127941
0.0128819
0.0129714
0.0130614
0.0131509
0.0132385
0.0133233
0.0134042
0.0134804
0.0135512
0.013616
0.0136746
0.0137272
0.0137748
0.0138198
0.0138646
0.0139101
0.0139414
0.0139662
0.014003
0.0140174
0.0140089
0.0116865
0.011688
0.01169
0.0116926
0.0116958
0.0117
0.0117053
0.0117119
0.0117201
0.0117303
0.0117426
0.0117577
0.011776
0.0117978
0.0118234
0.0118531
0.0118872
0.0119259
0.0119696
0.0120185
0.0120729
0.0121331
0.0121992
0.0122713
0.0123494
0.0124332
0.0125223
0.012616
0.0127134
0.0128134
0.0129146
0.0130154
0.0131146
0.0132109
0.013303
0.0133899
0.0134709
0.0135455
0.0136132
0.0136736
0.0137273
0.0137753
0.0138202
0.0138649
0.0139113
0.0139428
0.0139668
0.0140027
0.0140172
0.0140078
0.0114352
0.0114369
0.0114391
0.011442
0.0114457
0.0114506
0.0114568
0.0114647
0.0114745
0.0114867
0.0115015
0.0115196
0.0115416
0.0115676
0.0115982
0.0116335
0.0116738
0.0117196
0.0117711
0.0118286
0.0118925
0.011963
0.0120403
0.0121244
0.0122151
0.0123121
0.0124147
0.012522
0.0126328
0.0127458
0.0128594
0.0129715
0.0130807
0.0131857
0.013285
0.0133778
0.0134633
0.0135412
0.0136112
0.0136733
0.0137278
0.0137762
0.0138209
0.0138654
0.0139125
0.0139441
0.0139674
0.0140024
0.0140169
0.014007
0.0111646
0.0111664
0.0111689
0.0111722
0.0111766
0.0111824
0.0111898
0.0111992
0.0112109
0.0112254
0.0112431
0.0112648
0.0112909
0.0113218
0.0113579
0.0113994
0.0114469
0.0115005
0.0115608
0.011628
0.0117025
0.0117846
0.0118743
0.0119717
0.0120764
0.0121879