/*--------------------------------*- C++ -*----------------------------------*\
  =========                 |
  \\      /  F ield         | OpenFOAM: The Open Source CFD Toolbox
   \\    /   O peration     | Website:  https://openfoam.org
    \\  /    A nd           | Version:  9
     \\/     M anipulation  |
\*---------------------------------------------------------------------------*/
FoamFile
{
    format      ascii;
    class       volScalarField;
    location    "0.0075";
    object      nuTilda;
}
// * * * * * * * * * * * * * * * * * * * * * * * * * * * * * * * * * * * * * //

dimensions      [0 2 -1 0 0 0 0];

internalField   nonuniform List<scalar> 
8420
(
0.0140271
0.0140272
0.0140273
0.0140274
0.0140275
0.0140276
0.0140277
0.0140278
0.0140279
0.0140279
0.014028
0.0140281
0.0140281
0.0140282
0.0140282
0.0140283
0.0140283
0.0140284
0.0140284
0.0140284
0.0140285
0.0140285
0.0140285
0.0140285
0.0140285
0.0140285
0.0140285
0.0140284
0.0140284
0.0140284
0.0140283
0.0140282
0.0140281
0.014028
0.0140479
0.0140472
0.0140464
0.0140457
0.0140449
0.014044
0.0140432
0.0140423
0.0140414
0.0140405
0.0140395
0.0140386
0.0140376
0.0140366
0.0140356
0.0140346
0.0140336
0.0140326
0.0140317
0.0140309
0.0140302
0.0140296
0.0140291
0.0140286
0.0140282
0.014028
0.0140278
0.0140276
0.0140277
0.0140277
0.0140276
0.0140274
0.0140271
0.0140269
0.0140324
0.0140319
0.0140314
0.0140309
0.0140304
0.0140299
0.0140294
0.0140289
0.0140284
0.014028
0.0140275
0.0140271
0.0140267
0.0140264
0.0140262
0.014026
0.0140259
0.0140261
0.0140263
0.0140263
0.0140261
0.014026
0.0140258
0.0140257
0.0140255
0.0140253
0.014025
0.0140248
0.0140246
0.0140243
0.0140241
0.0140238
0.0140235
0.0140232
0.0140308
0.0140308
0.0140307
0.0140305
0.0140304
0.0140302
0.01403
0.0140298
0.0140295
0.0140293
0.014029
0.0140287
0.0140284
0.014028
0.0140277
0.0140273
0.0140269
0.0140265
0.0140261
0.0140257
0.0140252
0.0140248
0.0140243
0.0140239
0.0140234
0.0140229
0.0140224
0.0140219
0.0140214
0.0140209
0.0140205
0.01402
0.0140197
0.0140194
0.0139971
0.0139969
0.0139968
0.0139966
0.0139964
0.0139962
0.013996
0.0139959
0.0139957
0.0139955
0.0139953
0.0139951
0.013995
0.0139948
0.0139946
0.0139944
0.0139943
0.0139941
0.0139939
0.0139937
0.0139935
0.0139934
0.0139932
0.013993
0.0139929
0.0139927
0.0139925
0.0139924
0.0139922
0.013992
0.0139919
0.0139917
0.0139915
0.0139914
0.0139826
0.0139829
0.0139832
0.0139834
0.0139834
0.0139833
0.0139831
0.013983
0.0139827
0.0139825
0.0139822
0.0139819
0.0139816
0.0139812
0.0139809
0.0139805
0.0139801
0.0139796
0.0139792
0.0139787
0.0139783
0.0139778
0.0139773
0.0139768
0.0139763
0.0139757
0.0139752
0.0139747
0.0139741
0.0139736
0.013973
0.0139725
0.0139719
0.0139715
0.0139457
0.013946
0.0139463
0.0139466
0.0139469
0.0139472
0.0139475
0.0139478
0.0139481
0.0139484
0.0139487
0.013949
0.0139494
0.0139497
0.01395
0.0139504
0.0139507
0.0139511
0.0139515
0.0139518
0.0139522
0.0139526
0.013953
0.0139534
0.0139538
0.0139539
0.0139539
0.0139538
0.0139537
0.0139535
0.0139533
0.013953
0.0139528
0.0139525
0.0139323
0.0139328
0.0139333
0.0139338
0.0139342
0.0139347
0.0139352
0.0139357
0.0139358
0.0139358
0.0139357
0.0139356
0.0139354
0.0139352
0.0139349
0.0139346
0.0139343
0.013934
0.0139336
0.0139334
0.0139332
0.0139331
0.0139335
0.0139339
0.0139344
0.0139348
0.0139353
0.0139357
0.0139362
0.0139367
0.0139372
0.0139376
0.0139381
0.0139386
0.0139119
0.0139124
0.0139129
0.0139134
0.0139139
0.0139144
0.0139149
0.0139155
0.013916
0.0139165
0.013917
0.0139176
0.0139181
0.0139186
0.0139187
0.0139187
0.0139185
0.0139184
0.0139182
0.0139179
0.0139178
0.0139179
0.0139185
0.013919
0.0139195
0.0139201
0.0139206
0.0139212
0.0139217
0.0139223
0.0139229
0.0139234
0.013924
0.0139245
0.0138881
0.0138886
0.0138892
0.0138898
0.0138904
0.013891
0.0138915
0.0138921
0.0138927
0.0138933
0.0138939
0.0138945
0.0138951
0.0138957
0.0138963
0.0138969
0.0138975
0.0138981
0.0138987
0.0138993
0.0139
0.0139006
0.0139012
0.0139019
0.0139025
0.0139032
0.0139038
0.0139045
0.0139051
0.0139058
0.0139065
0.0139071
0.0139078
0.0139084
0.0139091
0.0138678
0.0138685
0.0138692
0.0138699
0.0138706
0.0138714
0.0138721
0.0138728
0.0138735
0.0138743
0.013875
0.0138758
0.0138765
0.0138772
0.013878
0.0138787
0.0138795
0.0138802
0.013881
0.0138817
0.0138825
0.0138832
0.013884
0.0138848
0.0138855
0.0138863
0.0138871
0.0138878
0.0138886
0.0138894
0.0138901
0.0138909
0.0138917
0.0138925
0.0138933
0.0138467
0.0138476
0.0138484
0.0138493
0.0138501
0.013851
0.0138518
0.0138527
0.0138535
0.0138544
0.0138553
0.0138561
0.013857
0.0138579
0.0138587
0.0138596
0.0138605
0.0138614
0.0138623
0.0138632
0.013864
0.0138649
0.0138658
0.0138667
0.0138676
0.0138685
0.0138694
0.0138703
0.0138712
0.0138722
0.0138731
0.013874
0.0138749
0.0138758
0.0138768
0.0138244
0.0138253
0.0138263
0.0138273
0.0138283
0.0138293
0.0138303
0.0138313
0.0138323
0.0138333
0.0138344
0.0138354
0.0138364
0.0138374
0.0138385
0.0138395
0.0138405
0.0138416
0.0138426
0.0138436
0.0138447
0.0138457
0.0138468
0.0138478
0.0138489
0.01385
0.013851
0.0138521
0.0138531
0.0138542
0.0138553
0.0138564
0.0138574
0.0138585
0.0138596
0.0138004
0.0138015
0.0138027
0.0138038
0.013805
0.0138062
0.0138073
0.0138085
0.0138097
0.0138109
0.0138121
0.0138132
0.0138144
0.0138156
0.0138168
0.013818
0.0138193
0.0138205
0.0138217
0.0138229
0.0138241
0.0138254
0.0138266
0.0138278
0.0138291
0.0138303
0.0138316
0.0138328
0.0138341
0.0138353
0.0138366
0.0138378
0.0138391
0.0138404
0.0138417
0.0137747
0.013776
0.0137773
0.0137787
0.01378
0.0137814
0.0137828
0.0137841
0.0137855
0.0137869
0.0137883
0.0137897
0.013791
0.0137924
0.0137939
0.0137953
0.0137967
0.0137981
0.0137995
0.0138009
0.0138024
0.0138038
0.0138053
0.0138067
0.0138081
0.0138096
0.0138111
0.0138125
0.013814
0.0138155
0.0138169
0.0138184
0.0138199
0.0138214
0.0138229
0.013747
0.0137485
0.0137501
0.0137516
0.0137532
0.0137548
0.0137564
0.013758
0.0137596
0.0137612
0.0137628
0.0137644
0.013766
0.0137676
0.0137693
0.0137709
0.0137726
0.0137742
0.0137759
0.0137775
0.0137792
0.0137809
0.0137826
0.0137843
0.013786
0.0137877
0.0137894
0.0137911
0.0137928
0.0137945
0.0137962
0.0137979
0.0137997
0.0138014
0.0138031
0.013717
0.0137188
0.0137206
0.0137224
0.0137242
0.013726
0.0137279
0.0137297
0.0137316
0.0137334
0.0137353
0.0137372
0.0137391
0.013741
0.0137429
0.0137448
0.0137467
0.0137486
0.0137505
0.0137525
0.0137544
0.0137564
0.0137583
0.0137603
0.0137623
0.0137642
0.0137662
0.0137682
0.0137702
0.0137722
0.0137742
0.0137762
0.0137782
0.0137803
0.0137823
0.0136842
0.0136863
0.0136883
0.0136904
0.0136925
0.0136947
0.0136968
0.0136989
0.0137011
0.0137032
0.0137054
0.0137076
0.0137097
0.0137119
0.0137141
0.0137164
0.0137186
0.0137208
0.0137231
0.0137253
0.0137276
0.0137298
0.0137321
0.0137344
0.0137367
0.013739
0.0137413
0.0137436
0.0137459
0.0137483
0.0137506
0.013753
0.0137554
0.0137577
0.0137601
0.013648
0.0136504
0.0136528
0.0136552
0.0136577
0.0136601
0.0136626
0.013665
0.0136675
0.01367
0.0136725
0.0136751
0.0136776
0.0136801
0.0136827
0.0136853
0.0136878
0.0136904
0.013693
0.0136957
0.0136983
0.0137009
0.0137036
0.0137062
0.0137089
0.0137116
0.0137143
0.013717
0.0137197
0.0137225
0.0137252
0.013728
0.0137307
0.0137335
0.0137363
0.0136078
0.0136106
0.0136133
0.0136161
0.013619
0.0136218
0.0136246
0.0136275
0.0136304
0.0136333
0.0136362
0.0136391
0.013642
0.013645
0.013648
0.0136509
0.0136539
0.013657
0.01366
0.013663
0.0136661
0.0136692
0.0136723
0.0136754
0.0136785
0.0136817
0.0136848
0.013688
0.0136912
0.0136944
0.0136976
0.0137008
0.0137041
0.0137073
0.0137106
0.0135629
0.013566
0.0135692
0.0135725
0.0135757
0.013579
0.0135823
0.0135856
0.0135889
0.0135923
0.0135957
0.0135991
0.0136025
0.0136059
0.0136094
0.0136128
0.0136163
0.0136198
0.0136234
0.013627
0.0136306
0.0136342
0.0136378
0.0136414
0.0136451
0.0136488
0.0136525
0.0136562
0.0136599
0.0136637
0.0136674
0.0136712
0.013675
0.0136787
0.0136826
0.0135125
0.0135162
0.0135199
0.0135236
0.0135274
0.0135312
0.013535
0.0135388
0.0135427
0.0135466
0.0135505
0.0135544
0.0135584
0.0135624
0.0135664
0.0135705
0.0135746
0.0135787
0.0135829
0.013587
0.0135912
0.0135955
0.0135997
0.013604
0.0136083
0.0136126
0.0136169
0.0136212
0.0136256
0.01363
0.0136343
0.0136387
0.0136432
0.0136476
0.013652
0.0134561
0.0134603
0.0134646
0.0134689
0.0134733
0.0134777
0.0134821
0.0134866
0.0134911
0.0134956
0.0135002
0.0135048
0.0135094
0.013514
0.0135187
0.0135235
0.0135283
0.0135331
0.013538
0.0135429
0.0135478
0.0135527
0.0135577
0.0135627
0.0135677
0.0135727
0.0135778
0.0135828
0.0135879
0.0135931
0.0135982
0.0136034
0.0136085
0.0136137
0.0136189
0.013393
0.0133979
0.0134029
0.0134079
0.0134129
0.013418
0.0134232
0.0134284
0.0134336
0.0134388
0.0134441
0.0134495
0.0134549
0.0134604
0.0134659
0.0134714
0.013477
0.0134827
0.0134883
0.013494
0.0134998
0.0135055
0.0135113
0.0135172
0.013523
0.0135289
0.0135348
0.0135408
0.0135468
0.0135528
0.0135588
0.0135648
0.0135709
0.013577
0.013583
0.0133225
0.0133282
0.0133339
0.0133397
0.0133456
0.0133515
0.0133575
0.0133635
0.0133695
0.0133756
0.0133818
0.0133881
0.0133944
0.0134008
0.0134072
0.0134137
0.0134202
0.0134268
0.0134334
0.0134401
0.0134468
0.0134535
0.0134603
0.0134671
0.013474
0.0134809
0.0134878
0.0134948
0.0135018
0.0135088
0.0135158
0.0135229
0.01353
0.0135371
0.0135442
0.0132437
0.0132503
0.0132569
0.0132636
0.0132704
0.0132773
0.0132842
0.0132912
0.0132982
0.0133053
0.0133126
0.0133199
0.0133272
0.0133347
0.0133422
0.0133497
0.0133573
0.013365
0.0133727
0.0133805
0.0133883
0.0133962
0.0134041
0.0134121
0.0134201
0.0134282
0.0134363
0.0134444
0.0134526
0.0134608
0.0134691
0.0134773
0.0134856
0.013494
0.0135023
0.0131554
0.013163
0.0131706
0.0131784
0.0131863
0.0131942
0.0132022
0.0132103
0.0132185
0.0132268
0.0132352
0.0132437
0.0132523
0.0132609
0.0132697
0.0132785
0.0132873
0.0132963
0.0133053
0.0133144
0.0133235
0.0133327
0.013342
0.0133513
0.0133607
0.0133701
0.0133796
0.0133891
0.0133987
0.0134083
0.0134179
0.0134276
0.0134373
0.0134471
0.0134569
0.0130563
0.013065
0.0130739
0.0130829
0.0130919
0.0131011
0.0131104
0.0131198
0.0131294
0.013139
0.0131488
0.0131586
0.0131686
0.0131787
0.0131888
0.0131991
0.0132094
0.0132198
0.0132303
0.0132409
0.0132516
0.0132623
0.0132731
0.013284
0.013295
0.013306
0.0133171
0.0133283
0.0133395
0.0133507
0.013362
0.0133733
0.0133847
0.0133961
0.0134076
0.0129451
0.0129552
0.0129654
0.0129758
0.0129863
0.0129969
0.0130076
0.0130186
0.0130296
0.0130408
0.0130522
0.0130636
0.0130752
0.0130868
0.0130986
0.0131105
0.0131226
0.0131347
0.0131469
0.0131593
0.0131717
0.0131843
0.0131969
0.0132096
0.0132224
0.0132353
0.0132483
0.0132613
0.0132744
0.0132876
0.0133008
0.0133141
0.0133274
0.0133407
0.0133541
0.0128204
0.012832
0.0128438
0.0128557
0.0128678
0.0128801
0.0128926
0.0129052
0.012918
0.012931
0.0129441
0.0129573
0.0129707
0.0129843
0.012998
0.0130118
0.0130258
0.0130399
0.0130542
0.0130685
0.013083
0.0130976
0.0131124
0.0131272
0.0131422
0.0131572
0.0131724
0.0131876
0.0132029
0.0132183
0.0132338
0.0132493
0.0132649
0.0132805
0.0132962
0.0126804
0.0126937
0.0127073
0.0127211
0.012735
0.0127492
0.0127636
0.0127782
0.012793
0.012808
0.0128231
0.0128385
0.012854
0.0128697
0.0128856
0.0129016
0.0129179
0.0129343
0.0129508
0.0129675
0.0129844
0.0130014
0.0130186
0.0130359
0.0130533
0.0130709
0.0130886
0.0131064
0.0131243
0.0131423
0.0131604
0.0131786
0.0131968
0.0132151
0.0132334
0.0125233
0.0125387
0.0125542
0.01257
0.0125861
0.0126024
0.012619
0.0126358
0.0126529
0.0126702
0.0126877
0.0127054
0.0127234
0.0127415
0.0127599
0.0127785
0.0127973
0.0128163
0.0128356
0.012855
0.0128746
0.0128944
0.0129144
0.0129345
0.0129549
0.0129754
0.012996
0.0130168
0.0130377
0.0130588
0.0130799
0.0131012
0.0131225
0.0131439
0.0131654
0.0123474
0.012365
0.0123828
0.0124009
0.0124193
0.0124381
0.0124571
0.0124765
0.0124961
0.0125159
0.0125361
0.0125565
0.0125772
0.0125982
0.0126194
0.0126409
0.0126627
0.0126847
0.012707
0.0127295
0.0127523
0.0127753
0.0127985
0.0128219
0.0128456
0.0128695
0.0128936
0.0129178
0.0129423
0.0129669
0.0129916
0.0130164
0.0130414
0.0130664
0.0130915
0.0121507
0.0121707
0.0121911
0.0122117
0.0122328
0.0122543
0.0122761
0.0122982
0.0123207
0.0123435
0.0123666
0.0123901
0.0124139
0.012438
0.0124625
0.0124872
0.0125124
0.0125378
0.0125635
0.0125896
0.0126159
0.0126426
0.0126695
0.0126968
0.0127243
0.0127521
0.0127801
0.0128084
0.0128369
0.0128656
0.0128945
0.0129236
0.0129527
0.012982
0.0130114
0.0119315
0.0119541
0.0119772
0.0120008
0.0120248
0.0120492
0.012074
0.0120993
0.0121249
0.012151
0.0121774
0.0122043
0.0122316
0.0122592
0.0122873
0.0123158
0.0123446
0.0123739
0.0124036
0.0124336
0.0124641
0.0124949
0.0125261
0.0125577
0.0125896
0.0126219
0.0126545
0.0126874
0.0127206
0.012754
0.0127878
0.0128217
0.0128558
0.01289
0.0129243
0.0116881
0.0117137
0.0117398
0.0117664
0.0117935
0.0118212
0.0118493
0.011878
0.0119071
0.0119367
0.0119668
0.0119974
0.0120285
0.0120601
0.0120922
0.0121248
0.0121578
0.0121914
0.0122254
0.01226
0.012295
0.0123306
0.0123666
0.0124031
0.01244
0.0124774
0.0125152
0.0125535
0.0125921
0.012631
0.0126703
0.0127099
0.0127497
0.0127897
0.0128298
0.0114193
0.011448
0.0114772
0.0115071
0.0115377
0.0115688
0.0116005
0.0116327
0.0116656
0.0116991
0.0117332
0.0117678
0.0118031
0.011839
0.0118754
0.0119125
0.0119502
0.0119885
0.0120275
0.012067
0.0121072
0.012148
0.0121894
0.0122314
0.012274
0.0123172
0.012361
0.0124053
0.0124501
0.0124954
0.0125412
0.0125873
0.0126337
0.0126803
0.0127271
0.0111243
0.0111561
0.0111887
0.0112221
0.0112561
0.0112908
0.0113263
0.0113624
0.0113992
0.0114368
0.0114751
0.0115141
0.0115538
0.0115943
0.0116355
0.0116775
0.0117203
0.0117638
0.011808
0.0118531
0.0118989
0.0119455
0.011993
0.0120412
0.0120901
0.0121399
0.0121903
0.0122415
0.0122934
0.0123459
0.012399
0.0124527
0.0125067
0.0125611
0.0126157
0.0108029
0.010838
0.0108739
0.0109107
0.0109484
0.0109868
0.0110261
0.0110662
0.0111072
0.011149
0.0111917
0.0112352
0.0112797
0.011325
0.0113713
0.0114184
0.0114666
0.0115156
0.0115657
0.0116167
0.0116687
0.0117217
0.0117757
0.0118307
0.0118867
0.0119437
0.0120017
0.0120606
0.0121205
0.0121812
0.0122428
0.012305
0.0123679
0.0124312
0.0124948
0.0104557
0.010494
0.0105332
0.0105734
0.0106146
0.0106568
0.0106999
0.010744
0.0107891
0.0108352
0.0108824
0.0109306
0.0109799
0.0110303
0.0110817
0.0111343
0.0111881
0.011243
0.0112992
0.0113565
0.0114151
0.0114749
0.0115361
0.0115985
0.0116622
0.0117272
0.0117935
0.0118611
0.0119299
0.0119999
0.012071
0.0121431
0.012216
0.0122896
0.0123637
0.0100842
0.0101254
0.0101678
0.0102112
0.0102558
0.0103015
0.0103483
0.0103963
0.0104455
0.0104959
0.0105475
0.0106003
0.0106545
0.0107099
0.0107667
0.0108248
0.0108844
0.0109453
0.0110078
0.0110717
0.0111372
0.0112043
0.011273
0.0113434
0.0114154
0.0114891
0.0115645
0.0116415
0.0117202
0.0118006
0.0118824
0.0119656
0.01205
0.0121354
0.0122215
0.0096904
0.0097343
0.0097795
0.00982596
0.00987367
0.00992268
0.00997299
0.0100246
0.0100777
0.0101321
0.0101879
0.0102452
0.0103041
0.0103644
0.0104264
0.01049
0.0105553
0.0106224
0.0106912
0.0107619
0.0108345
0.0109091
0.0109857
0.0110643
0.0111451
0.0112281
0.0113132
0.0114006
0.0114902
0.0115819
0.0116756
0.0117713
0.0118687
0.0119675
0.0120674
0.00927741
0.0093236
0.00937123
0.00942026
0.00947073
0.00952264
0.00957605
0.00963098
0.00968748
0.00974559
0.00980536
0.00986683
0.00993006
0.00999511
0.010062
0.0101309
0.0102018
0.0102748
0.0103499
0.0104273
0.010507
0.0105891
0.0106737
0.0107609
0.0108508
0.0109434
0.0110389
0.0111372
0.0112385
0.0113426
0.0114495
0.011559
0.011671
0.011785
0.0119006
0.00884886
0.00889687
0.00894645
0.0089975
0.0090502
0.00910453
0.00916052
0.00921824
0.00927772
0.00933904
0.00940224
0.00946739
0.00953457
0.00960385
0.00967531
0.00974904
0.00982513
0.00990368
0.0099848
0.0100686
0.0101552
0.0102447
0.0103373
0.0104331
0.0105321
0.0106347
0.0107408
0.0108506
0.0109642
0.0110816
0.0112027
0.0113275
0.0114556
0.0115867
0.0117202
0.00840902
0.00845822
0.00850909
0.00856166
0.00861598
0.00867209
0.00873005
0.00878993
0.00885177
0.00891567
0.00898169
0.00904992
0.00912044
0.00919335
0.00926875
0.00934677
0.00942751
0.00951112
0.00959772
0.00968748
0.00978055
0.00987711
0.00997733
0.0100814
0.0101896
0.010302
0.0104189
0.0105405
0.0106669
0.0107982
0.0109345
0.0110758
0.0112217
0.0113717
0.0115253
0.00796316
0.00801276
0.00806417
0.00811743
0.0081726
0.00822973
0.0082889
0.00835017
0.00841362
0.00847934
0.00854743
0.00861797
0.00869108
0.00876688
0.0088455
0.00892706
0.00901174
0.00909969
0.00919109
0.00928613
0.00938504
0.00948803
0.00959536
0.00970729
0.00982411
0.00994612
0.0100736
0.0102069
0.0103463
0.010492
0.0106442
0.010803
0.0109681
0.0111391
0.0113151
0.00751752
0.0075665
0.00761744
0.00767039
0.00772542
0.00778261
0.00784202
0.00790375
0.00796788
0.0080345
0.00810373
0.00817569
0.00825049
0.00832828
0.00840921
0.00849344
0.00858117
0.00867258
0.0087679
0.00886738
0.00897127
0.00907988
0.00919353
0.00931256
0.00943736
0.00956835
0.00970595
0.00985063
0.0100028
0.010163
0.0103315
0.0105086
0.0106942
0.0108879
0.0110887
0.00708037
0.00712726
0.00717631
0.00722758
0.00728113
0.00733706
0.00739545
0.0074564
0.00751999
0.00758635
0.00765558
0.00772782
0.00780321
0.00788191
0.00796408
0.00804992
0.00813964
0.00823347
0.00833168
0.00843455
0.00854241
0.00865562
0.00877457
0.00889973
0.00903157
0.00917065
0.00931757
0.00947295
0.00963749
0.00981185
0.00999668
0.0101925
0.0103995
0.0106175
0.0108456
0.00666361
0.00670623
0.00675125
0.00679876
0.00684884
0.0069016
0.00695712
0.00701551
0.00707687
0.00714133
0.00720901
0.00728005
0.00735459
0.00743281
0.00751489
0.00760104
0.00769149
0.0077865
0.00788637
0.00799143
0.00810204
0.00821865
0.00834172
0.0084718
0.00860951
0.00875554
0.00891067
0.00907575
0.00925172
0.00943958
0.00964034
0.00985492
0.010084
0.0103276
0.0105851
0.0062855
0.00632046
0.00635814
0.00639865
0.00644213
0.0064887
0.00653849
0.00659161
0.00664816
0.00670827
0.00677208
0.00683974
0.0069114
0.00698722
0.00706741
0.00715216
0.00724172
0.00733636
0.0074364
0.00754219
0.00765416
0.00777276
0.00789856
0.00803219
0.00817439
0.00832599
0.00848796
0.00866142
0.00884759
0.00904786
0.00926369
0.00949657
0.00974774
0.0100179
0.0103067
0.00596926
0.00599351
0.00602012
0.00604943
0.00608185
0.00611772
0.00615734
0.0062009
0.00624854
0.00630042
0.0063567
0.00641756
0.00648316
0.00655365
0.00662923
0.00671009
0.00679647
0.00688864
0.00698689
0.00709159
0.00720317
0.00732212
0.00744904
0.00758464
0.00772974
0.00788532
0.00805256
0.0082328
0.00842762
0.00863883
0.00886845
0.00911865
0.00939151
0.00968861
0.0100104
0.00570149
0.00571852
0.00573724
0.00575787
0.00578065
0.00580584
0.00583373
0.00586469
0.00589919
0.00593783
0.00598125
0.00603002
0.00608452
0.00614498
0.0062116
0.00628462
0.00636425
0.00645074
0.00654433
0.00664537
0.00675424
0.00687141
0.00699749
0.00713318
0.00727938
0.00743717
0.00760787
0.00779308
0.00799473
0.00821508
0.00845678
0.00872282
0.00901639
0.00934024
0.00969608
0.00545996
0.00547177
0.00548481
0.00549928
0.00551536
0.00553323
0.00555313
0.00557533
0.00560016
0.00562802
0.00565936
0.00569468
0.00573462
0.00577997
0.00583173
0.00589086
0.00595804
0.00603365
0.00611797
0.0062113
0.00631396
0.00642631
0.00654888
0.0066823
0.00682743
0.00698537
0.00715754
0.00734572
0.00755213
0.00777953
0.00803124
0.00831119
0.00862387
0.00897366
0.00936402
0.0052352
0.0052428
0.00525129
0.00526086
0.00527167
0.00528386
0.00529765
0.00531324
0.00533089
0.00535088
0.00537355
0.00539928
0.00542856
0.00546198
0.00550023
0.00554417
0.00559486
0.00565362
0.00572197
0.00580118
0.00589193
0.0059946
0.00610957
0.00623732
0.00637849
0.00653407
0.0067054
0.00689431
0.00710326
0.0073354
0.00759474
0.00788625
0.00821591
0.00859014
0.00901479
0.00502267
0.00502682
0.00503156
0.00503706
0.00504346
0.00505091
0.00505958
0.00506966
0.00508136
0.00509491
0.00511061
0.00512877
0.00514978
0.0051741
0.00520225
0.0052349
0.00527284
0.00531709
0.00536893
0.00542997
0.00550225
0.00558799
0.00568881
0.00580542
0.00593826
0.00608796
0.00625553
0.00644261
0.00665164
0.00688604
0.00715042
0.00745077
0.00779477
0.0081913
0.00864926
0.0048193
0.00482077
0.00482255
0.00482476
0.00482753
0.00483101
0.00483534
0.0048407
0.00484726
0.00485526
0.00486493
0.00487657
0.00489051
0.00490714
0.00492691
0.00495038
0.00497818
0.00501113
0.0050502
0.00509666
0.00515215
0.0052188
0.00529938
0.00539717
0.00551471
0.00565301
0.00581263
0.0059946
0.0062009
0.00643488
0.00670154
0.00700779
0.00736307
0.0077791
0.00826857
0.00462233
0.0046219
0.00462162
0.00462138
0.00462138
0.00462172
0.00462255
0.004624
0.00462624
0.00462946
0.00463389
0.00463979
0.00464746
0.00465727
0.00466962
0.004685
0.00470398
0.00472724
0.00475563
0.00479017
0.00483218
0.00488335
0.00494594
0.00502304
0.00511874
0.00523767
0.00538274
0.00555479
0.00575481
0.0059854
0.00625141
0.00656044
0.00692362
0.0073558
0.00787419
0.00442899
0.00442755
0.00442603
0.0044243
0.00442245
0.0044206
0.00441885
0.00441734
0.00441618
0.00441554
0.00441564
0.00441666
0.0044189
0.00442267
0.00442838
0.00443646
0.00444744
0.00446195
0.00448074
0.00450473
0.00453504
0.00457309
0.00462074
0.00468049
0.0047558
0.00485158
0.00497416
0.00512894
0.00531754
0.00554108
0.00580334
0.00611191
0.00647938
0.00692391
0.00746784
0.00423649
0.00423485
0.00423291
0.00423067
0.00422797
0.00422495
0.00422168
0.00421825
0.00421476
0.00421134
0.00420813
0.00420532
0.00420313
0.00420187
0.00420188
0.00420351
0.00420729
0.00421384
0.00422382
0.00423809
0.00425769
0.00428388
0.00431827
0.00436298
0.00442089
0.00449607
0.00459452
0.00472461
0.0048942
0.00510564
0.00536056
0.00566536
0.0060334
0.00648612
0.00705151
0.0040423
0.0040412
0.00403964
0.00403764
0.00403508
0.00403188
0.00402814
0.0040239
0.00401923
0.00401421
0.00400893
0.00400351
0.00399814
0.00399303
0.00398846
0.00398476
0.00398241
0.00398197
0.00398401
0.00398938
0.00399907
0.00401422
0.00403635
0.00406733
0.00410963
0.00416672
0.00424364
0.00434807
0.00449127
0.00468332
0.00492634
0.00522383
0.00558868
0.00604523
0.00662741
0.00384433
0.00384435
0.00384383
0.00384274
0.00384106
0.00383862
0.00383538
0.00383138
0.00382664
0.00382121
0.00381511
0.00380842
0.00380122
0.00379366
0.00378595
0.00377835
0.00377122
0.00376502
0.00376031
0.00375786
0.0037586
0.00376358
0.00377429
0.00379242
0.00382026
0.00386083
0.00391841
0.00399953
0.00411468
0.00427935
0.00450414
0.00479029
0.00514814
0.00560405
0.0061979
0.00364114
0.00364266
0.00364363
0.00364399
0.00364371
0.00364272
0.0036408
0.00363794
0.00363413
0.00362937
0.00362364
0.00361695
0.00360932
0.0036008
0.0035915
0.00358158
0.00357129
0.00356097
0.00355109
0.00354227
0.00353535
0.00353135
0.00353167
0.00353788
0.00355221
0.00357737
0.00361716
0.00367714
0.00376619
0.00389959
0.00409792
0.0043677
0.00471457
0.00516537
0.0057655
0.00343188
0.00343513
0.00343786
0.00344001
0.00344151
0.00344231
0.00344233
0.00344129
0.00343921
0.00343601
0.00343166
0.00342611
0.0034193
0.00341121
0.00340186
0.00339128
0.00337959
0.00336699
0.0033538
0.00334048
0.00332769
0.00331635
0.00330768
0.00330324
0.00330512
0.00331593
0.00333917
0.00337971
0.00344507
0.00354822
0.0037126
0.00395916
0.0042907
0.00473184
0.00533278
0.00321631
0.00322135
0.00322595
0.00323003
0.00323354
0.00323638
0.00323849
0.00323976
0.00323994
0.00323896
0.00323676
0.00323323
0.00322828
0.00322182
0.00321376
0.00320405
0.00319268
0.00317968
0.00316519
0.00314948
0.00313299
0.00311641
0.00310075
0.00308741
0.00307833
0.00307605
0.00308392
0.00310645
0.00315019
0.00322588
0.00335399
0.00356818
0.00387919
0.00430601
0.00490231
0.00299475
0.0030015
0.00300791
0.00301391
0.00301944
0.00302441
0.00302874
0.00303233
0.00303508
0.0030367
0.00303713
0.00303624
0.00303389
0.00302996
0.00302427
0.00301671
0.00300713
0.00299545
0.00298161
0.00296566
0.00294781
0.00292844
0.00290825
0.00288835
0.00287041
0.00285679
0.00285072
0.00285658
0.00288038
0.00293131
0.00302606
0.00319913
0.00348278
0.00389037
0.00447642
0.00276792
0.0027762
0.00278425
0.00279202
0.00279944
0.00280644
0.00281294
0.00281883
0.00282403
0.0028284
0.00283168
0.00283373
0.00283443
0.00283359
0.00283103
0.00282653
0.0028199
0.00281091
0.00279939
0.00278518
0.00276821
0.00274858
0.00272661
0.00270298
0.00267893
0.00265643
0.00263844
0.00262918
0.00263447
0.00266267
0.00272763
0.00285761
0.00310408
0.00348726
0.00405609
0.00253696
0.00254648
0.00255589
0.00256516
0.00257422
0.00258302
0.00259147
0.0025995
0.00260701
0.00261388
0.00261998
0.00262504
0.00262891
0.00263142
0.00263236
0.00263149
0.00262854
0.00262324
0.00261529
0.00260438
0.00259025
0.00257269
0.00255164
0.00252731
0.00250037
0.00247215
0.00244508
0.00242295
0.0024114
0.00241842
0.0024562
0.00254735
0.00274581
0.00309878
0.003643
0.00230334
0.00231372
0.00232413
0.00233453
0.00234488
0.00235513
0.00236521
0.00237505
0.00238456
0.00239366
0.00240221
0.00241009
0.00241703
0.00242285
0.00242734
0.00243027
0.00243137
0.0024303
0.00242671
0.0024202
0.00241035
0.00239674
0.00237898
0.00235683
0.00233032
0.00230006
0.00226756
0.00223582
0.00220989
0.00219747
0.00220999
0.00226625
0.00241166
0.00272725
0.00324122
0.00206886
0.00207967
0.00209063
0.00210173
0.00211292
0.00212416
0.00213541
0.00214662
0.00215771
0.00216861
0.00217922
0.00218941
0.00219906
0.00220792
0.00221576
0.00222236
0.00222747
0.00223076
0.00223187
0.00223033
0.00222565
0.00221727
0.00220459
0.00218699
0.00216399
0.00213537
0.00210163
0.00206452
0.00202793
0.0019988
0.00198812
0.00201262
0.00210695
0.00237498
0.00285283
0.00183565
0.0018464
0.00185743
0.0018687
0.00188021
0.00189192
0.00190381
0.00191584
0.00192795
0.0019401
0.00195221
0.00196418
0.0019759
0.00198724
0.00199799
0.00200787
0.00201666
0.00202408
0.00202977
0.00203329
0.00203412
0.00203165
0.00202514
0.00201377
0.00199666
0.00197296
0.00194214
0.00190452
0.00186224
0.00182066
0.00178995
0.00178623
0.00183761
0.00204454
0.00248031
0.00160614
0.00161635
0.00162692
0.00163783
0.00164908
0.00166067
0.00167258
0.0016848
0.00169728
0.00171001
0.00172293
0.00173598
0.00174909
0.00176214
0.00177502
0.00178755
0.00179942
0.00181041
0.00182022
0.00182846
0.00183462
0.00183811
0.0018382
0.00183393
0.00182425
0.0018079
0.00178355
0.00175021
0.001708
0.00165985
0.00161394
0.00158586
0.00160227
0.00173917
0.00212566
0.00138299
0.0013922
0.00140182
0.00141184
0.00142228
0.00143314
0.00144443
0.00145614
0.00146828
0.00148084
0.00149379
0.0015071
0.00152074
0.00153464
0.00154872
0.00156286
0.00157694
0.00159066
0.00160378
0.00161599
0.00162685
0.00163584
0.00164226
0.00164523
0.00164363
0.001636
0.00162063
0.00159555
0.00155908
0.00151128
0.00145686
0.00140907
0.00139336
0.00146371
0.00179125
0.00116889
0.00117674
0.001185
0.00119368
0.0012028
0.00121239
0.00122246
0.00123303
0.00124411
0.00125572
0.00126787
0.00128055
0.00129377
0.00130751
0.00132173
0.00133638
0.0013514
0.00136665
0.00138193
0.00139696
0.00141143
0.00142493
0.00143687
0.00144646
0.00145268
0.00145413
0.00144895
0.00143477
0.00140869
0.00136817
0.00131357
0.00125327
0.0012098
0.00122678
0.00148059
0.00096633
0.000972589
0.000979223
0.000986256
0.000993712
0.00100162
0.00101
0.00101889
0.00102831
0.0010383
0.00104889
0.0010601
0.00107196
0.00108449
0.00109772
0.00111164
0.00112625
0.00114152
0.00115737
0.00117369
0.0011902
0.00120665
0.00122263
0.00123752
0.00125047
0.00126029
0.00126526
0.00126302
0.00125024
0.0012227
0.00117673
0.00111406
0.00105213
0.00103738
0.00119601
0.000777337
0.000781939
0.000786858
0.000792116
0.000797737
0.00080375
0.000810184
0.000817073
0.00082445
0.000832353
0.000840824
0.000849906
0.000859647
0.000870095
0.000881301
0.000893314
0.000906186
0.000919955
0.00093465
0.000950273
0.000966803
0.00098407
0.00100188
0.00101988
0.00103751
0.00105388
0.00106764
0.00107675
0.00107808
0.00106697
0.00103715
0.000983438
0.000913387
0.000867742
0.000938287
0.000603355
0.000606394
0.000609675
0.000613214
0.000617031
0.000621152
0.000625606
0.00063043
0.000635642
0.000641284
0.000647395
0.00065402
0.000661213
0.000669027
0.000677528
0.000686785
0.000696877
0.000707885
0.000719902
0.000733016
0.000747322
0.000762897
0.000779749
0.000797796
0.000816877
0.00083658
0.000856115
0.000874082
0.000888063
0.000893977
0.000884879
0.00085067
0.000786358
0.000716315
0.000711609
0.000445299
0.000447
0.000448863
0.000450896
0.000453106
0.000455521
0.000458165
0.000461101
0.000464298
0.000467796
0.000471628
0.00047583
0.000480444
0.000485519
0.000491111
0.000497285
0.000504115
0.00051169
0.000520112
0.000529495
0.000539983
0.000551728
0.000564904
0.000579703
0.000596248
0.000614648
0.000634865
0.000656513
0.000678508
0.000698396
0.000710463
0.000703011
0.000661177
0.000586982
0.000530231
0.000303926
0.000304602
0.000305367
0.000306216
0.000307127
0.000308143
0.000309282
0.000310711
0.000312255
0.000313972
0.000315882
0.000318009
0.000320379
0.000323022
0.000325976
0.000329284
0.000332999
0.000337183
0.000341912
0.000347276
0.00035339
0.000360392
0.000368454
0.000377793
0.000388681
0.000401446
0.000416465
0.000434189
0.000455086
0.000479628
0.000506457
0.000526651
0.000521857
0.000474182
0.000406371
0.000184866
0.000184874
0.000184917
0.00018498
0.000184975
0.000184982
0.000184973
0.000185446
0.000185866
0.00018636
0.000186936
0.000187605
0.000188378
0.000189268
0.000190293
0.000191473
0.000192831
0.000194398
0.00019621
0.000198313
0.000200764
0.000203635
0.000207023
0.000211056
0.000215899
0.000221779
0.000229034
0.000238093
0.000249566
0.000264736
0.000286038
0.000315399
0.000348324
0.000349665
0.000292492
3.90282e-05
3.87784e-05
3.85138e-05
3.81959e-05
3.73584e-05
3.64554e-05
3.55024e-05
3.57496e-05
3.57575e-05
3.57783e-05
3.58153e-05
3.58718e-05
3.59508e-05
3.6055e-05
3.6186e-05
3.63451e-05
3.65344e-05
3.67569e-05
3.70177e-05
3.73253e-05
3.77336e-05
3.82397e-05
3.88387e-05
3.95532e-05
4.04135e-05
4.14603e-05
4.27556e-05
4.43792e-05
4.64448e-05
4.92023e-05
5.31371e-05
5.86179e-05
6.44579e-05
6.87488e-05
0.00013967
0.0140281
0.0140253
0.014022
0.0140209
0.0140207
0.0140189
0.0140157
0.014012
0.0140093
0.0140075
0.0140064
0.0140058
0.0140059
0.0140073
0.0140078
0.014008
0.014008
0.0140079
0.0140075
0.014007
0.0140065
0.014006
0.0140055
0.0140052
0.0140048