/*--------------------------------*- C++ -*----------------------------------*\
  =========                 |
  \\      /  F ield         | OpenFOAM: The Open Source CFD Toolbox
   \\    /   O peration     | Website:  https://openfoam.org
    \\  /    A nd           | Version:  9
     \\/     M anipulation  |
\*---------------------------------------------------------------------------*/
FoamFile
{
    format      ascii;
    class       surfaceScalarField;
    location    "0.0075";
    object      phi;
}
// * * * * * * * * * * * * * * * * * * * * * * * * * * * * * * * * * * * * * //

dimensions      [1 0 -1 0 0 0 0];

internalField   nonuniform List<scalar> 
16645
(
-0.321796
0.000914189
-0.321706
0.000908319
-0.321612
0.000902456
-0.321515
0.000896598
-0.321414
0.000890748
-0.321309
0.000884905
-0.321201
0.000879069
-0.321088
0.00087324
-0.32097
0.000867419
-0.320848
0.000861606
-0.320722
0.0008558
-0.32059
0.000850003
-0.320453
0.000844215
-0.32031
0.000838435
-0.320162
0.000832668
-0.320008
0.000826923
-0.319848
0.00082125
-0.319682
0.00081578
-0.319509
0.000810284
-0.319329
0.000804779
-0.319143
0.00079927
-0.318948
0.00079376
-0.318746
0.000788251
-0.318536
0.000782745
-0.318317
0.000777243
-0.318089
0.000771748
-0.317852
0.000766262
-0.317605
0.000760784
-0.317347
0.000755306
-0.317079
0.000749822
-0.3168
0.000744355
-0.316509
0.000738947
-0.316206
0.000733276
0.000726065
-0.315888
-0.310908
0.000924036
-0.310916
0.000916635
-0.310923
0.000909177
-0.310928
0.000901661
-0.310931
0.000894084
-0.310933
0.000886442
-0.310933
0.000878731
-0.31093
0.000870948
-0.310926
0.000863091
-0.31092
0.000855167
-0.310911
0.000847221
-0.3109
0.000839253
-0.310887
0.000831129
-0.310872
0.000822921
-0.310854
0.000814586
-0.310833
0.000806148
-0.310809
0.000797635
-0.310783
0.000789166
-0.310753
0.000780527
-0.31072
0.000771724
-0.310683
0.000762744
-0.310643
0.000753579
-0.310599
0.000744232
-0.310551
0.000734698
-0.310499
0.000724968
-0.310442
0.000715034
-0.310381
0.000704885
-0.310314
0.000694512
-0.310243
0.000683903
-0.310166
0.000673045
-0.310084
0.000661907
-0.309995
0.00065041
-0.3099
0.00063834
0.000625362
-0.3098
-0.288461
0.000921535
-0.288459
0.000914503
-0.288458
0.000907469
-0.288456
0.000900433
-0.288456
0.000893396
-0.288456
0.00088636
-0.288456
0.000879324
-0.288458
0.00087229
-0.28846
0.000865261
-0.288463
0.000858246
-0.288467
0.000851295
-0.288472
0.000844411
-0.288478
0.000837472
-0.288486
0.000830551
-0.288495
0.000823613
-0.288506
0.000816676
-0.288518
0.000809731
-0.288531
0.000802781
-0.288547
0.000795832
-0.288564
0.000788879
-0.288583
0.000781915
-0.288604
0.000774936
-0.288628
0.000767953
-0.288654
0.000760967
-0.288683
0.00075398
-0.288715
0.000746992
-0.28875
0.000740002
-0.288789
0.000733009
-0.288831
0.000726013
-0.288877
0.000719015
-0.288927
0.000711999
-0.288982
0.000704943
-0.289041
0.000697787
0.000689859
-0.289106
-0.269458
0.000905191
-0.269441
0.000897303
-0.269423
0.000889405
-0.269404
0.000881498
-0.269384
0.000873583
-0.269363
0.000865661
-0.269341
0.000857732
-0.269319
0.000849799
-0.269296
0.000841861
-0.269271
0.00083392
-0.269246
0.000825979
-0.26922
0.000818037
-0.269192
0.000810093
-0.269164
0.000802149
-0.269134
0.000794207
-0.269104
0.000786268
-0.269073
0.000778333
-0.26904
0.000770403
-0.269007
0.000762479
-0.268973
0.000754563
-0.268937
0.000746657
-0.268901
0.000738762
-0.268864
0.000730882
-0.268826
0.000723016
-0.268787
0.000715169
-0.268748
0.000707341
-0.268707
0.000699535
-0.268666
0.000691754
-0.268624
0.000684001
-0.268581
0.00067627
-0.268538
0.000668546
-0.268494
0.000660843
-0.268449
0.000653164
0.000645592
-0.268405
-0.251321
0.000904922
-0.25132
0.000896716
-0.251319
0.000888536
-0.251318
0.00088044
-0.251317
0.000872338
-0.251316
0.00086424
-0.251314
0.000856144
-0.251312
0.000848054
-0.25131
0.000839971
-0.251308
0.000831895
-0.251306
0.000823829
-0.251304
0.000815773
-0.251302
0.000807728
-0.251299
0.000799695
-0.251297
0.000791676
-0.251294
0.000783672
-0.251291
0.000775683
-0.251289
0.00076771
-0.251286
0.000759755
-0.251283
0.000751819
-0.25128
0.000743902
-0.251278
0.000736006
-0.251275
0.000728132
-0.251272
0.00072028
-0.251269
0.00071245
-0.251267
0.000704646
-0.251264
0.000696867
-0.251261
0.000689113
-0.251259
0.000681385
-0.251256
0.000673687
-0.251254
0.000666012
-0.251251
0.000658321
-0.251249
0.000650494
0.000641916
-0.251245
-0.234313
0.000893232
-0.234301
0.000884291
-0.234288
0.000875383
-0.234274
0.000866561
-0.234259
0.000857744
-0.234244
0.000848939
-0.234228
0.000840148
-0.234211
0.000831372
-0.234194
0.000822614
-0.234176
0.000813876
-0.234157
0.000805158
-0.234138
0.000796464
-0.234118
0.000787794
-0.234098
0.000779149
-0.234076
0.000770533
-0.234055
0.000761945
-0.234032
0.000753387
-0.23401
0.000744861
-0.233986
0.000736368
-0.233962
0.000727911
-0.233938
0.000719491
-0.233913
0.000711111
-0.233888
0.000702776
-0.233862
0.000694503
-0.233836
0.000686365
-0.233809
0.000678218
-0.233783
0.000670146
-0.233756
0.000662099
-0.233728
0.000654111
-0.233701
0.00064616
-0.233673
0.000638251
-0.233645
0.000630368
-0.233617
0.000622419
0.000614106
-0.233589
-0.218985
0.000887818
-0.218979
0.000878097
-0.218972
0.000868396
-0.218964
0.000858716
-0.218955
0.000849062
-0.218946
0.00083945
-0.218936
0.000829957
-0.218925
0.000820476
-0.218913
0.000811014
-0.218901
0.000801572
-0.218888
0.000792152
-0.218874
0.000782755
-0.21886
0.000773381
-0.218845
0.000764041
-0.218829
0.00075473
-0.218812
0.00074545
-0.218795
0.000736194
-0.218777
0.000726941
-0.218759
0.000717618
-0.218739
0.000708282
-0.218718
0.000698994
-0.218697
0.000689762
-0.218675
0.000680602
-0.218652
0.000671567
-0.218628
0.000662734
-0.218604
0.00065389
-0.218579
0.000645121
-0.218553
0.000636378
-0.218527
0.000627692
-0.2185
0.00061905
-0.218472
0.000610463
-0.218443
0.000601912
-0.218414
0.00059338
0.00058476
-0.218385
-0.204169
0.000875067
-0.204155
0.000864403
-0.204141
0.000853767
-0.204125
0.000843163
-0.204109
0.000832594
-0.204091
0.000822076
-0.204073
0.00081168
-0.204054
0.000801308
-0.204034
0.000790966
-0.204013
0.000780658
-0.203991
0.00077039
-0.203969
0.000760188
-0.203945
0.000750164
-0.203921
0.000740094
-0.203897
0.000730111
-0.203871
0.000720133
-0.203845
0.000710203
-0.203819
0.000700268
-0.203791
0.000690244
-0.203763
0.000680041
-0.203734
0.000669874
-0.203704
0.000659803
-0.203673
0.000649856
-0.203642
0.000640155
-0.20361
0.00063059
-0.203577
0.000621082
-0.203544
0.00061164
-0.203509
0.000602264
-0.203475
0.000592955
-0.203439
0.000583713
-0.203403
0.000574539
-0.203367
0.000565442
-0.20333
0.000556435
0.00054759
-0.203293
-0.190646
0.000862653
-0.190633
0.000850898
-0.190618
0.000839178
-0.190602
0.000827496
-0.190586
0.000815854
-0.190568
0.000804253
-0.190549
0.000792697
-0.190529
0.000781185
-0.190508
0.00076972
-0.190485
0.000758305
-0.190462
0.000746947
-0.190437
0.00073567
-0.190412
0.000724578
-0.190385
0.000713454
-0.190357
0.000702428
-0.190329
0.000691424
-0.190299
0.000680488
-0.190268
0.000669591
-0.190237
0.00065872
-0.190204
0.000647744
-0.190171
0.000636815
-0.190138
0.000625983
-0.190103
0.000615266
-0.190068
0.000604741
-0.190031
0.000594302
-0.189994
0.000583941
-0.189956
0.000573659
-0.189917
0.000563457
-0.189878
0.000553338
-0.189837
0.000543304
-0.189796
0.000533355
-0.189754
0.000523491
-0.189711
0.000513715
0.000504033
-0.189668
-0.177855
0.000859209
-0.177839
0.000846187
-0.177821
0.000833209
-0.177802
0.000820277
-0.177782
0.000807393
-0.177761
0.000794561
-0.177738
0.000781783
-0.177715
0.000769062
-0.17769
0.0007564
-0.177664
0.000743799
-0.177637
0.000731262
-0.177609
0.000718792
-0.17758
0.00070639
-0.177549
0.000694059
-0.177517
0.000681799
-0.177485
0.000669614
-0.177451
0.000657504
-0.177416
0.000645473
-0.17738
0.000633522
-0.177343
0.000621653
-0.177305
0.000609868
-0.177266
0.000598172
-0.177227
0.000586568
-0.177186
0.000575058
-0.177145
0.000563644
-0.177103
0.000552327
-0.177061
0.000541107
-0.177017
0.000529988
-0.176972
0.00051897
-0.176927
0.000508055
-0.176881
0.000497244
-0.176834
0.000486538
-0.176787
0.000475944
-0.176738
0.000465473
0.000455176
-0.17669
-0.166071
0.000842222
-0.166052
0.000827793
-0.166033
0.000813418
-0.166012
0.000799099
-0.165989
0.00078484
-0.165965
0.000770644
-0.16594
0.000756515
-0.165913
0.000742455
-0.165885
0.000728468
-0.165856
0.000714557
-0.165825
0.000700725
-0.165794
0.000686974
-0.165761
0.000673308
-0.165726
0.00065973
-0.165691
0.000646242
-0.165654
0.000632846
-0.165616
0.000619546
-0.165577
0.000606343
-0.165537
0.000593241
-0.165495
0.000580241
-0.165453
0.000567346
-0.165409
0.00055456
-0.165364
0.000541884
-0.165319
0.000529321
-0.165272
0.000516874
-0.165224
0.000504544
-0.165175
0.000492334
-0.165125
0.000480245
-0.165075
0.000468279
-0.165023
0.000456439
-0.164971
0.000444727
-0.164917
0.000433144
-0.164863
0.000421693
-0.164808
0.000410381
0.00039924
-0.164752
-0.155016
0.000822151
-0.154995
0.000806176
-0.154972
0.000790267
-0.154947
0.000774429
-0.154921
0.000758665
-0.154893
0.00074298
-0.154864
0.000727378
-0.154833
0.000711861
-0.154801
0.000696434
-0.154768
0.0006811
-0.154733
0.000665864
-0.154697
0.000650728
-0.154659
0.000635696
-0.15462
0.000620772
-0.15458
0.000605959
-0.154538
0.00059126
-0.154495
0.000576678
-0.154451
0.000562217
-0.154406
0.000547879
-0.154359
0.000533668
-0.154312
0.000519587
-0.154263
0.000505638
-0.154213
0.000491824
-0.154162
0.000478149
-0.154109
0.000464614
-0.154056
0.000451222
-0.154002
0.000437975
-0.153946
0.000424876
-0.15389
0.000411928
-0.153833
0.000399132
-0.153774
0.00038649
-0.153715
0.000374004
-0.153655
0.00036168
-0.153594
0.000349531
0.000337605
-0.153533
-0.144777
0.000799569
-0.144752
0.000781884
-0.144726
0.000764281
-0.144699
0.000746764
-0.144669
0.000729337
-0.144638
0.000712007
-0.144606
0.000694776
-0.144572
0.00067765
-0.144536
0.000660633
-0.144498
0.00064373
-0.14446
0.000626944
-0.144419
0.00061028
-0.144377
0.000593742
-0.144334
0.000577335
-0.144289
0.000561061
-0.144242
0.000544925
-0.144195
0.000528932
-0.144146
0.000513084
-0.144095
0.000497386
-0.144043
0.00048184
-0.14399
0.000466451
-0.143936
0.000451222
-0.14388
0.000436156
-0.143823
0.000421257
-0.143765
0.000406527
-0.143706
0.000391969
-0.143645
0.000377587
-0.143584
0.000363384
-0.143521
0.000349361
-0.143458
0.000335521
-0.143393
0.000321868
-0.143327
0.000308403
-0.143261
0.000295131
-0.143193
0.000282064
0.000269248
-0.143125
-0.135207
0.000774057
-0.135179
0.000754523
-0.13515
0.000735087
-0.135119
0.000715756
-0.135086
0.000696534
-0.135052
0.000677428
-0.135016
0.000658442
-0.134977
0.000639583
-0.134938
0.000620854
-0.134896
0.000602261
-0.134853
0.000583809
-0.134808
0.000565504
-0.134762
0.000547349
-0.134714
0.00052935
-0.134664
0.000511512
-0.134613
0.000493839
-0.134561
0.000476335
-0.134507
0.000459006
-0.134451
0.000441856
-0.134394
0.000424888
-0.134336
0.000408107
-0.134276
0.000391517
-0.134215
0.000375123
-0.134153
0.000358927
-0.134089
0.000342934
-0.134024
0.000327147
-0.133958
0.000311569
-0.133891
0.000296205
-0.133823
0.000281056
-0.133753
0.000266127
-0.133683
0.00025142
-0.133612
0.000236938
-0.133539
0.000222687
-0.133466
0.000208681
0.000194977
-0.133391
-0.12631
0.000745823
-0.12628
0.000724295
-0.126248
0.000702886
-0.126214
0.000681601
-0.126178
0.000660446
-0.12614
0.000639428
-0.1261
0.000618553
-0.126058
0.000597826
-0.126014
0.000577254
-0.125969
0.000556842
-0.125922
0.000536597
-0.125873
0.000516525
-0.125822
0.00049663
-0.12577
0.000476918
-0.125715
0.000457396
-0.12566
0.000438068
-0.125602
0.00041894
-0.125543
0.000400018
-0.125483
0.000381306
-0.125421
0.000362809
-0.125357
0.000344533
-0.125292
0.000326483
-0.125226
0.000308663
-0.125158
0.000291077
-0.125089
0.000273731
-0.125018
0.000256629
-0.124946
0.000239774
-0.124873
0.000223172
-0.124799
0.000206825
-0.124724
0.000190738
-0.124647
0.000174914
-0.124569
0.000159357
-0.124491
0.000144072
-0.124411
0.000129076
0.000114425
-0.124331
-0.118004
0.000714794
-0.117971
0.000691155
-0.117935
0.000667654
-0.117898
0.000644298
-0.117859
0.000621096
-0.117817
0.000598052
-0.117774
0.000575174
-0.117729
0.00055247
-0.117681
0.000529945
-0.117632
0.000507606
-0.117581
0.00048546
-0.117528
0.000463514
-0.117473
0.000441775
-0.117416
0.000420248
-0.117358
0.00039894
-0.117298
0.000377858
-0.117236
0.000357008
-0.117172
0.000336396
-0.117107
0.000316029
-0.11704
0.000295912
-0.116972
0.000276052
-0.116902
0.000256455
-0.11683
0.000237126
-0.116757
0.000218071
-0.116683
0.000199296
-0.116607
0.000180805
-0.11653
0.000162604
-0.116451
0.000144699
-0.116371
0.000127093
-0.11629
0.000109792
-0.116208
9.28004e-05
-0.116125
7.61222e-05
-0.116041
5.97647e-05
-0.115955
4.37448e-05
2.81271e-05
-0.115869
-0.110261
0.000681164
-0.110226
0.000655309
-0.110187
0.000629613
-0.110147
0.000604084
-0.110105
0.00057873
-0.11006
0.000553558
-0.110014
0.000528575
-0.109965
0.00050379
-0.109914
0.000479209
-0.109862
0.000454839
-0.109807
0.000430689
-0.10975
0.000406766
-0.109691
0.000383078
-0.109631
0.000359631
-0.109568
0.000336434
-0.109504
0.000313494
-0.109438
0.000290818
-0.10937
0.000268415
-0.1093
0.000246291
-0.109229
0.000224454
-0.109155
0.000202911
-0.109081
0.000181669
-0.109004
0.000160736
-0.108926
0.000140119
-0.108847
0.000119824
-0.108766
9.98582e-05
-0.108684
8.02283e-05
-0.1086
6.09407e-05
-0.108515
4.20013e-05
-0.108428
2.34161e-05
-0.108341
5.19093e-06
-0.108252
-1.26683e-05
-0.108162
-3.01536e-05
-0.108071
-4.72466e-05
-6.38784e-05
-0.107979
-0.103028
0.000645085
-0.10299
0.000616941
-0.102949
0.000588977
-0.102906
0.000561201
-0.102861
0.000533621
-0.102814
0.000506244
-0.102765
0.000479078
-0.102713
0.000452131
-0.102659
0.000425412
-0.102603
0.000398929
-0.102545
0.000372689
-0.102485
0.000346701
-0.102423
0.000320975
-0.102359
0.000295517
-0.102293
0.000270338
-0.102225
0.000245446
-0.102155
0.000220849
-0.102083
0.000196558
-0.102009
0.00017258
-0.101934
0.000148924
-0.101856
0.000125601
-0.101777
0.000102618
-0.101697
7.99855e-05
-0.101614
5.77112e-05
-0.10153
3.58043e-05
-0.101445
1.42734e-05
-0.101357
-6.8731e-06
-0.101269
-2.7627e-05
-0.101179
-4.79802e-05
-0.101088
-6.7925e-05
-0.100995
-8.7454e-05
-0.100901
-0.000106559
-0.100806
-0.000125231
-0.10071
-0.000143449
-0.000161138
-0.100612
-0.0962728
0.000606871
-0.0962323
0.000576397
-0.0961894
0.000546121
-0.0961443
0.00051605
-0.0960968
0.000486193
-0.0960472
0.000456558
-0.0959952
0.000427152
-0.0959411
0.000397984
-0.0958847
0.000369061
-0.0958262
0.000340394
-0.0957655
0.000311991
-0.0957027
0.00028386
-0.0956377
0.000256013
-0.0955706
0.000228458
-0.0955015
0.000201206
-0.0954303
0.000174266
-0.0953571
0.00014765
-0.0952819
0.000121369
-0.0952048
9.54322e-05
-0.0951257
6.9852e-05
-0.0950448
4.46395e-05
-0.0949619
1.98059e-05
-0.0948773
-4.63756e-06
-0.0947909
-2.86794e-05
-0.0947028
-5.23083e-05
-0.094613
-7.55131e-05
-0.0945216
-9.82828e-05
-0.0944286
-0.000120606
-0.0943342
-0.000142473
-0.0942382
-0.000163873
-0.0941409
-0.000184796
-0.0940422
-0.000205232
-0.0939423
-0.000225168
-0.0938411
-0.000244581
-0.000263393
-0.0937389
-0.0899556
0.000566874
-0.0899133
0.000534067
-0.0898687
0.000501473
-0.0898217
0.000469098
-0.0897725
0.000436949
-0.0897209
0.000405033
-0.0896671
0.000373359
-0.0896111
0.000341935
-0.0895528
0.000310769
-0.0894923
0.000279869
-0.0894295
0.000249247
-0.0893646
0.000218911
-0.0892974
0.000188873
-0.0892281
0.000159143
-0.0891567
0.000129734
-0.089083
0.000100656
-0.0890073
7.19232e-05
-0.0889295
4.35482e-05
-0.0888496
1.55444e-05
-0.0887677
-1.20744e-05
-0.0886837
-3.92942e-05
-0.0885978
-6.61005e-05
-0.08851
-9.24788e-05
-0.0884203
-0.000118414
-0.0883287
-0.000143892
-0.0882353
-0.000168898
-0.0881402
-0.000193417
-0.0880433
-0.000217434
-0.0879449
-0.000240935
-0.0878448
-0.000263907
-0.0877433
-0.000286335
-0.0876403
-0.000308205
-0.087536
-0.000329503
-0.0874304
-0.000350201
-0.000370215
-0.0873235
-0.0840472
0.000525555
-0.0840036
0.000490456
-0.0839577
0.000455576
-0.0839095
0.000420923
-0.0838591
0.0003865
-0.0838063
0.000352315
-0.0837513
0.000318375
-0.0836941
0.000284686
-0.0836346
0.000251257
-0.0835728
0.000218098
-0.0835088
0.000185217
-0.0834425
0.000152626
-0.083374
0.000120337
-0.0833032
8.83606e-05
-0.0832302
5.67118e-05
-0.0831549
2.54041e-05
-0.0830774
-5.54741e-06
-0.0829978
-3.61271e-05
-0.0829159
-6.63185e-05
-0.0828319
-9.61043e-05
-0.0827457
-0.000125467
-0.0826574
-0.000154388
-0.082567
-0.000182848
-0.0824746
-0.000210828
-0.0823802
-0.000238309
-0.0822838
-0.000265271
-0.0821856
-0.000291694
-0.0820854
-0.000317558
-0.0819835
-0.000342845
-0.0818799
-0.000367536
-0.0817746
-0.00039161
-0.0816678
-0.000415051
-0.0815594
-0.000437838
-0.0814497
-0.000459937
-0.00048126
-0.0813387
-0.0785172
0.00048342
-0.0784728
0.000446113
-0.0784263
0.000409026
-0.0783775
0.000372162
-0.0783266
0.000335524
-0.0782734
0.000299116
-0.0782179
0.000262943
-0.0781603
0.000227011
-0.0781003
0.000191329
-0.0780381
0.000155904
-0.0779737
0.000120746
-0.0779069
8.58667e-05
-0.0778378
5.12778e-05
-0.0777665
1.69933e-05
-0.0776928
-1.69717e-05
-0.0776168
-5.06009e-05
-0.0775385
-8.38765e-05
-0.0774578
-0.00011678
-0.0773748
-0.00014929
-0.0772896
-0.000181386
-0.077202
-0.000213044
-0.0771121
-0.000244243
-0.07702
-0.000274957
-0.0769257
-0.00030516
-0.0768292
-0.000334828
-0.0767305
-0.000363933
-0.0766297
-0.00039245
-0.0765269
-0.000420352
-0.0764222
-0.000447612
-0.0763155
-0.000474205
-0.076207
-0.000500104
-0.0760968
-0.000525286
-0.0759849
-0.000549721
-0.0758715
-0.000573373
-0.000596143
-0.0757566
-0.0733396
0.00044103
-0.0732952
0.000401647
-0.0732486
0.000362474
-0.0732
0.000323508
-0.0731492
0.00028475
-0.0730963
0.000246202
-0.0730412
0.000207865
-0.0729839
0.000169744
-0.0729245
0.000131844
-0.0728627
9.41721e-05
-0.0727987
5.67383e-05
-0.0727324
1.95532e-05
-0.0726638
-1.73704e-05
-0.0725927
-5.40177e-05
-0.0725193
-9.0372e-05
-0.0724435
-0.000126414
-0.0723653
-0.000162124
-0.0722846
-0.000197478
-0.0722014
-0.000232452
-0.0721158
-0.000267018
-0.0720277
-0.00030115
-0.0719371
-0.000334815
-0.0718441
-0.000367984
-0.0717486
-0.000400622
-0.0716508
-0.000432697
-0.0715505
-0.000464172
-0.071448
-0.000495013
-0.0713431
-0.000525184
-0.0712361
-0.000554649
-0.0711269
-0.000583372
-0.0710157
-0.000611319
-0.0709025
-0.000638454
-0.0707875
-0.000664742
-0.0706708
-0.000690134
-0.000714526
-0.0705524
-0.0684896
0.000398955
-0.0684456
0.000357673
-0.0683997
0.000316578
-0.0683519
0.000275662
-0.068302
0.000234922
-0.0682502
0.000194354
-0.0681963
0.000153956
-0.0681403
0.00011373
-0.0680821
7.36788e-05
-0.0680217
3.38069e-05
-0.0679591
-5.87795e-06
-0.0678942
-4.53656e-05
-0.0678269
-8.46435e-05
-0.0677573
-0.000123696
-0.0676851
-0.000162505
-0.0676105
-0.00020105
-0.0675333
-0.000239305
-0.0674535
-0.000277244
-0.0673712
-0.000314838
-0.0672861
-0.000352053
-0.0671984
-0.000388854
-0.067108
-0.000425203
-0.067015
-0.000461059
-0.0669192
-0.00049638
-0.0668208
-0.000531121
-0.0667197
-0.000565236
-0.066616
-0.000598678
-0.0665098
-0.000631398
-0.0664011
-0.000663349
-0.06629
-0.000694481
-0.0661766
-0.000724747
-0.0660609
-0.000754099
-0.0659432
-0.000782489
-0.0658235
-0.000809859
-0.000836089
-0.0657019
-0.0639446
0.000357761
-0.0639017
0.000314799
-0.0638571
0.000271987
-0.0638108
0.000229313
-0.0637626
0.000186765
-0.0637126
0.000144334
-0.0636606
0.000102015
-0.0636067
5.98037e-05
-0.0635507
1.7698e-05
-0.0634926
-2.42999e-05
-0.0634323
-6.61853e-05
-0.0633697
-0.00010795
-0.0633048
-0.000149583
-0.0632374
-0.000191068
-0.0631675
-0.000232386
-0.0630951
-0.000273515
-0.06302
-0.000314426
-0.0629421
-0.00035509
-0.0628615
-0.000395469
-0.062778
-0.000435525
-0.0626916
-0.000475214
-0.0626024
-0.000514488
-0.0625101
-0.000553296
-0.0624149
-0.000591584
-0.0623167
-0.000629294
-0.0622156
-0.000666364
-0.0621116
-0.000702734
-0.0620046
-0.000738337
-0.0618949
-0.00077311
-0.0617824
-0.000806987
-0.0616672
-0.000839902
-0.0615495
-0.000871792
-0.0614294
-0.00090259
-0.061307
-0.000932223
-0.000960558
-0.0611826
-0.0596838
0.000317973
-0.0596426
0.000273587
-0.0595999
0.000229301
-0.0595557
0.000185095
-0.0595099
0.000140951
-0.0594624
9.6852e-05
-0.0594132
5.27851e-05
-0.0593621
8.74029e-06
-0.0593091
-3.52895e-05
-0.0592541
-7.93078e-05
-0.059197
-0.000123314
-0.0591376
-0.000167304
-0.059076
-0.000211267
-0.0590118
-0.000255192
-0.0589452
-0.000299057
-0.0588758
-0.00034284
-0.0588038
-0.00038651
-0.0587288
-0.000430033
-0.0586509
-0.000473368
-0.05857
-0.000516467
-0.0584859
-0.000559278
-0.0583987
-0.000601743
-0.0583082
-0.000643797
-0.0582144
-0.000685373
-0.0581173
-0.000726395
-0.0580168
-0.000766785
-0.0579131
-0.000806462
-0.0578061
-0.00084534
-0.0576959
-0.000883333
-0.0575825
-0.000920353
-0.0574661
-0.000956312
-0.0573468
-0.000991122
-0.0572247
-0.0010247
-0.0571
-0.00105694
-0.0010877
-0.0569728
-0.0556887
0.00028006
-0.0556496
0.000234535
-0.0556094
0.000189048
-0.0555678
0.000143569
-0.055525
9.80712e-05
-0.0554806
5.2529e-05
-0.0554348
6.92104e-06
-0.0553873
-3.87711e-05
-0.055338
-8.45622e-05
-0.0552868
-0.000130462
-0.0552337
-0.000176478
-0.0551784
-0.000222609
-0.0551208
-0.000268851
-0.0550608
-0.000315194
-0.0549982
-0.000361621
-0.0549329
-0.000408108
-0.0548648
-0.000454625
-0.0547937
-0.000501134
-0.0547195
-0.000547589
-0.054642
-0.000593936
-0.0545612
-0.000640113
-0.0544769
-0.00068605
-0.054389
-0.00073167
-0.0542975
-0.000776885
-0.0542023
-0.000821604
-0.0541034
-0.000865726
-0.0540007
-0.000909144
-0.0538943
-0.000951749
-0.0537842
-0.000993426
-0.0536705
-0.00103406
-0.0535533
-0.00107352
-0.0534327
-0.00111171
-0.0533089
-0.0011485
-0.0531821
-0.00118376
-0.00121733
-0.0530524
-0.0519422
0.00024441
-0.0519057
0.000198051
-0.0518683
0.000151658
-0.0518299
0.00010519
-0.0517904
5.86073e-05
-0.0517498
1.18757e-05
-0.0517078
-3.5037e-05
-0.0516644
-8.21594e-05
-0.0516195
-0.000129516
-0.0515728
-0.000177125
-0.0515243
-0.000225003
-0.0514738
-0.000273158
-0.051421
-0.000321592
-0.0513659
-0.0003703
-0.0513083
-0.000419271
-0.0512479
-0.000468485
-0.0511846
-0.000517911
-0.0511182
-0.000567512
-0.0510486
-0.000617238
-0.0509755
-0.000667029
-0.0508988
-0.000716815
-0.0508183
-0.000766515
-0.0507339
-0.000816035
-0.0506456
-0.00086527
-0.0505531
-0.000914105
-0.0504564
-0.000962414
-0.0503555
-0.00101006
-0.0502503
-0.00105691
-0.0501409
-0.0011028
-0.0500274
-0.00114758
-0.0499098
-0.0011911
-0.0497883
-0.00123319
-0.0496631
-0.00127371
-0.0495344
-0.00131248
-0.0013493
-0.0494024
-0.048429
0.000211317
-0.0483954
0.000164443
-0.0483612
0.000117454
-0.0483263
7.02947e-05
-0.0482906
2.29164e-05
-0.048254
-2.47284e-05
-0.0482164
-7.26841e-05
-0.0481775
-0.000120991
-0.0481374
-0.000169685
-0.0480957
-0.000218798
-0.0480523
-0.000268356
-0.0480071
-0.000318379
-0.0479598
-0.000368878
-0.0479103
-0.00041986
-0.0478582
-0.00047132
-0.0478035
-0.000523243
-0.0477458
-0.000575607
-0.0476849
-0.000628373
-0.0476206
-0.000681494
-0.0475528
-0.000734906
-0.0474811
-0.000788532
-0.0474053
-0.00084228
-0.0473253
-0.000896041
-0.0472409
-0.000949691
-0.0471519
-0.00100309
-0.0470582
-0.00105608
-0.0469598
-0.0011085
-0.0468565
-0.00116016
-0.0467485
-0.00121086
-0.0466356
-0.00126042
-0.0465181
-0.00130861
-0.0463961
-0.00135523
-0.0462697
-0.00140007
-0.0461393
-0.00144292
-0.00148352
-0.046005
-0.0451353
0.000180979
-0.0451048
0.00013391
-0.045074
8.66378e-05
-0.0450428
3.90963e-05
-0.0450111
-8.77726e-06
-0.0449788
-5.70437e-05
-0.0449457
-0.000105761
-0.0449117
-0.000154983
-0.0448766
-0.00020476
-0.0448403
-0.000255138
-0.0448025
-0.000306158
-0.044763
-0.000357854
-0.0447216
-0.000410251
-0.0446781
-0.000463369
-0.0446322
-0.000517215
-0.0445837
-0.000571787
-0.0445322
-0.000627069
-0.0444776
-0.000683033
-0.0444194
-0.000739633
-0.0443575
-0.000796808
-0.0442916
-0.000854476
-0.0442213
-0.000912539
-0.0441465
-0.000970873
-0.0440668
-0.00102934
-0.0439822
-0.00108776
-0.0438923
-0.00114596
-0.0437971
-0.00120373
-0.0436964
-0.00126084
-0.0435902
-0.00131703
-0.0434786
-0.00137205
-0.0433616
-0.00142563
-0.0432393
-0.00147749
-0.043112
-0.00152735
-0.04298
-0.00157494
-0.00161994
-0.0428436
-0.0420484
0.000153496
-0.042021
0.000106545
-0.0419937
5.92997e-05
-0.0419663
1.16831e-05
-0.0419387
-3.63817e-05
-0.0419107
-8.49697e-05
-0.0418823
-0.000134153
-0.0418533
-0.000184003
-0.0418235
-0.000234585
-0.0417927
-0.000285963
-0.0417606
-0.000338193
-0.0417272
-0.000391328
-0.041692
-0.000445413
-0.0416549
-0.000500482
-0.0416155
-0.000556561
-0.0415737
-0.000613666
-0.0415289
-0.000671794
-0.041481
-0.000730931
-0.0414296
-0.000791042
-0.0413744
-0.000852072
-0.0413149
-0.000913942
-0.0412509
-0.000976551
-0.041182
-0.00103977
-0.0411079
-0.00110343
-0.0410283
-0.00116735
-0.040943
-0.0012313
-0.0408517
-0.00129503
-0.0407543
-0.00135827
-0.0406506
-0.00142069
-0.0405407
-0.00148196
-0.0404246
-0.00154173
-0.0403024
-0.00159964
-0.0401745
-0.00165533
-0.040041
-0.00170842
-0.00175852
-0.0399024
-0.0391565
0.000128882
-0.0391323
8.23429e-05
-0.0391084
3.54224e-05
-0.0390847
-1.19708e-05
-0.0390612
-5.99273e-05
-0.0390376
-0.000108537
-0.0390139
-0.000157888
-0.0389898
-0.000208067
-0.0389652
-0.00025916
-0.03894
-0.000311248
-0.0389137
-0.000364408
-0.0388864
-0.000418714
-0.0388575
-0.000474232
-0.038827
-0.000531021
-0.0387944
-0.000589128
-0.0387595
-0.000648591
-0.0387219
-0.000709431
-0.0386811
-0.000771653
-0.0386369
-0.000835241
-0.0385889
-0.000900154
-0.0385365
-0.000966325
-0.0384794
-0.00103366
-0.0384171
-0.00110202
-0.0383493
-0.00117123
-0.0382756
-0.00124109
-0.0381955
-0.00131134
-0.0381089
-0.00138167
-0.0380154
-0.00145176
-0.0379149
-0.0015212
-0.0378073
-0.00158959
-0.0376925
-0.00165646
-0.0375708
-0.00172135
-0.0374424
-0.00178377
-0.0373075
-0.00184325
-0.00189926
-0.0371668
-0.0364486
0.000107071
-0.0364275
6.12167e-05
-0.036407
1.48978e-05
-0.0363869
-3.19901e-05
-0.0363673
-7.95511e-05
-0.036348
-0.00012789
-0.0363287
-0.000177111
-0.0363095
-0.00022732
-0.03629
-0.00027862
-0.0362702
-0.000331114
-0.0362497
-0.000384902
-0.0362283
-0.000440081
-0.0362058
-0.000496743
-0.0361818
-0.000554974
-0.0361561
-0.00061485
-0.0361283
-0.000676439
-0.0360979
-0.00073979
-0.0360646
-0.000804937
-0.036028
-0.000871892
-0.0359875
-0.000940641
-0.0359427
-0.00101114
-0.035893
-0.0010833
-0.0358381
-0.001157
-0.0357772
-0.00123206
-0.03571
-0.00130827
-0.035636
-0.00138534
-0.0355548
-0.00146292
-0.0354659
-0.00154061
-0.0353692
-0.00161793
-0.0352644
-0.00169437
-0.0351515
-0.00176935
-0.0350306
-0.00184225
-0.034902
-0.00191246
-0.0347659
-0.00197932
-0.00204219
-0.034623
-0.0339145
8.7936e-05
-0.0338963
4.30112e-05
-0.033879
-2.45522e-06
-0.0338624
-4.85787e-05
-0.0338465
-9.54767e-05
-0.0338311
-0.000143268
-0.0338161
-0.000192074
-0.0338014
-0.000242016
-0.0337868
-0.00029322
-0.0337721
-0.000345809
-0.0337571
-0.000399908
-0.0337416
-0.00045564
-0.0337252
-0.000513126
-0.0337077
-0.000572484
-0.0336887
-0.000633824
-0.0336679
-0.000697247
-0.0336448
-0.000762843
-0.0336191
-0.000830682
-0.0335902
-0.000900815
-0.0335576
-0.000973265
-0.0335207
-0.00104802
-0.0334789
-0.00112503
-0.0334318
-0.00120418
-0.0333785
-0.00128533
-0.0333185
-0.00136823
-0.0332513
-0.0014526
-0.0331762
-0.00153804
-0.0330927
-0.00162409
-0.0330004
-0.00171018
-0.0328991
-0.00179568
-0.0327886
-0.00187987
-0.0326689
-0.00196195
-0.0325402
-0.00204112
-0.032403
-0.00211653
-0.00218733
-0.0322579
-0.0315445
7.13066e-05
-0.031529
2.75222e-05
-0.0315146
-1.6871e-05
-0.0315012
-6.1999e-05
-0.0314887
-0.000107991
-0.031477
-0.000154981
-0.031466
-0.000203103
-0.0314555
-0.000252498
-0.0314454
-0.000303308
-0.0314355
-0.000355685
-0.0314256
-0.000409775
-0.0314156
-0.000465727
-0.031405
-0.000523697
-0.0313936
-0.000583836
-0.0313812
-0.000646292
-0.0313672
-0.00071121
-0.0313513
-0.000778723
-0.0313331
-0.000848949
-0.0313119
-0.000921989
-0.0312872
-0.000997915
-0.0312585
-0.00107677
-0.031225
-0.00115853
-0.031186
-0.00124315
-0.0311408
-0.0013305
-0.0310887
-0.00142036
-0.0310289
-0.00151244
-0.0309606
-0.00160631
-0.0308832
-0.00170146
-0.0307961
-0.00179724
-0.030699
-0.00189287
-0.0305914
-0.00198745
-0.0304733
-0.00208
-0.030345
-0.00216947
-0.0302068
-0.00225474
-0.00233472
-0.0300594
-0.0293293
5.69812e-05
-0.0293163
1.45145e-05
-0.0293045
-2.86179e-05
-0.029294
-7.25505e-05
-0.0292846
-0.000117424
-0.0292762
-0.000163383
-0.0292687
-0.000210579
-0.029262
-0.000259165
-0.029256
-0.000309303
-0.0292505
-0.000361161
-0.0292454
-0.000414939
-0.0292403
-0.000470774
-0.0292352
-0.000528876
-0.0292296
-0.000589431
-0.0292232
-0.00065263
-0.0292158
-0.000718661
-0.0292068
-0.00078771
-0.0291958
-0.000859953
-0.0291822
-0.000935549
-0.0291655
-0.00101463
-0.0291449
-0.00109731
-0.0291198
-0.00118365
-0.0290894
-0.00127363
-0.0290527
-0.00136719
-0.0290089
-0.00146416
-0.0289571
-0.00156425
-0.0288963
-0.00166706
-0.0288258
-0.001772
-0.0287447
-0.00187836
-0.0286523
-0.00198522
-0.0285483
-0.00209148
-0.0284324
-0.00219591
-0.0283047
-0.00229717
-0.0281656
-0.00239382
-0.00248438
-0.0280159
-0.02726
4.47438e-05
-0.0272492
3.73711e-06
-0.0272398
-3.79806e-05
-0.0272318
-8.05514e-05
-0.0272251
-0.000124124
-0.0272196
-0.000168856
-0.0272153
-0.000214909
-0.027212
-0.000262451
-0.0272097
-0.000311668
-0.0272081
-0.000362748
-0.0272072
-0.000415865
-0.0272067
-0.000471273
-0.0272064
-0.000529162
-0.027206
-0.000589764
-0.0272054
-0.000653314
-0.027204
-0.00072005
-0.0272015
-0.000790215
-0.0271974
-0.000864049
-0.0271911
-0.000941781
-0.0271821
-0.00102363
-0.0271697
-0.00110977
-0.027153
-0.00120036
-0.0271311
-0.00129547
-0.0271032
-0.00139512
-0.0270682
-0.00149921
-0.0270249
-0.00160751
-0.0269723
-0.00171963
-0.0269094
-0.00183499
-0.0268349
-0.00195279
-0.0267482
-0.00207198
-0.0266484
-0.00219127
-0.0265352
-0.00230913
-0.0264085
-0.00242385
-0.0262687
-0.00253356
-0.00263633
-0.0261168
-0.025328
3.43749e-05
-0.0253192
-5.06283e-06
-0.025312
-4.52456e-05
-0.0253062
-8.63215e-05
-0.0253019
-0.000128445
-0.0252989
-0.000171779
-0.0252973
-0.000216513
-0.025297
-0.000262805
-0.0252978
-0.000310865
-0.0252996
-0.000360895
-0.0253024
-0.000413119
-0.0253059