/*--------------------------------*- C++ -*----------------------------------*\
  =========                 |
  \\      /  F ield         | OpenFOAM: The Open Source CFD Toolbox
   \\    /   O peration     | Website:  https://openfoam.org
    \\  /    A nd           | Version:  9
     \\/     M anipulation  |
\*---------------------------------------------------------------------------*/
FoamFile
{
    format      ascii;
    class       volVectorField;
    location    "0.0075";
    object      U;
}
// * * * * * * * * * * * * * * * * * * * * * * * * * * * * * * * * * * * * * //

dimensions      [0 1 -1 0 0 0 0];

internalField   nonuniform List<vector> 
5071
(
(24.5137 -1.54516 -8.22949e-17)
(24.5064 -1.53858 8.23181e-17)
(24.4988 -1.53237 -8.2342e-17)
(24.4907 -1.52657 0)
(24.4822 -1.5212 8.23942e-17)
(24.4731 -1.51629 -8.24218e-17)
(24.4635 -1.51187 -8.24513e-17)
(24.4534 -1.50798 8.24817e-17)
(24.4426 -1.50464 8.25141e-17)
(24.4312 -1.50191 -8.25476e-17)
(24.4191 -1.49982 0)
(24.4063 -1.4984 0)
(24.3927 -1.49772 -8.266e-17)
(24.3782 -1.49781 8.27011e-17)
(24.3629 -1.49874 -4.13725e-17)
(24.3466 -1.50056 -1.95516e-22)
(24.3294 -1.50333 -2.07466e-22)
(24.3111 -1.5071 8.28902e-17)
(24.2917 -1.51196 -4.14719e-17)
(24.2711 -1.51796 0)
(24.2491 -1.52519 -2.07653e-17)
(24.2259 -1.53373 2.0781e-17)
(24.2021 -1.54367 0)
(24.1773 -1.55508 -1.04079e-17)
(24.1464 -1.56809 1.04173e-17)
(24.1046 -1.58291 -5.21375e-18)
(24.0713 -1.59979 5.5793e-18)
(25.2727 -1.35628 -8.60068e-17)
(25.2739 -1.33826 8.60077e-17)
(25.2748 -1.31991 -8.60092e-17)
(25.2755 -1.30121 0)
(25.2759 -1.28213 0)
(25.2761 -1.26265 -8.60184e-17)
(25.276 -1.24274 8.6023e-17)
(25.2756 -1.22237 0)
(25.2748 -1.2015 8.60353e-17)
(25.2737 -1.18011 -1.72085e-16)
(25.2722 -1.15815 8.60513e-17)
(25.2704 -1.13558 0)
(25.2681 -1.11236 0)
(25.2654 -1.08845 0)
(25.2622 -1.06383 0)
(25.2585 -1.03859 4.30562e-17)
(25.2543 -1.0133 -4.30642e-17)
(25.2495 -0.987108 4.30732e-17)
(25.244 -0.959879 -4.30828e-17)
(25.2379 -0.931563 0)
(25.231 -0.902094 0)
(25.2233 -0.871396 0)
(25.2148 -0.839383 0)
(25.2056 -0.805918 -1.07869e-17)
(25.1954 -0.770582 1.07911e-17)
(25.183 -0.732124 0)
(25.1688 -0.687455 0)
(25.3465 -1.55855 9.16393e-17)
(25.3465 -1.54623 0)
(25.3466 -1.53392 9.16484e-17)
(25.3467 -1.52163 -9.16528e-17)
(25.3469 -1.50934 0)
(25.3471 -1.49705 -9.1661e-17)
(25.3475 -1.48477 1.83329e-16)
(25.348 -1.47248 -1.83336e-16)
(25.3487 -1.46018 9.16708e-17)
(25.3495 -1.44788 0)
(25.3505 -1.43566 0)
(25.3517 -1.42384 4.58382e-17)
(25.3532 -1.412 -4.58384e-17)
(25.3549 -1.39998 0)
(25.3569 -1.38788 4.58375e-17)
(25.3592 -1.37561 -4.58365e-17)
(25.3619 -1.3632 -4.5835e-17)
(25.3649 -1.35063 4.58331e-17)
(25.3683 -1.3379 -2.29153e-17)
(25.3722 -1.32497 2.29138e-17)
(25.3765 -1.31183 2.29119e-17)
(25.3814 -1.29845 -3.34523e-23)
(25.3869 -1.28481 -2.29071e-17)
(25.3929 -1.2708 1.1452e-17)
(25.3999 -1.25637 -1.14502e-17)
(25.4086 -1.24157 2.86202e-18)
(25.4181 -1.22666 -3.03999e-18)
(25.5164 -1.38279 -1.94691e-16)
(25.5148 -1.36628 1.9471e-16)
(25.5132 -1.34976 -9.73647e-17)
(25.5113 -1.33324 0)
(25.5094 -1.31678 0)
(25.5073 -1.30064 0)
(25.505 -1.28448 0)
(25.5027 -1.26831 4.87107e-17)
(25.5001 -1.25214 -9.74343e-17)
(25.4975 -1.23599 4.87239e-17)
(25.4947 -1.21987 0)
(25.4917 -1.2038 4.87382e-17)
(25.4886 -1.18777 5.62543e-23)
(25.4853 -1.1718 -4.87535e-17)
(25.4818 -1.1559 0)
(25.4782 -1.1401 0)
(25.4745 -1.12441 0)
(25.4706 -1.10885 -2.43937e-17)
(25.4666 -1.09344 4.87964e-17)
(25.4625 -1.07819 3.32185e-23)
(25.4582 -1.06311 3.42076e-23)
(25.4539 -1.04818 -2.44123e-17)
(25.4495 -1.03344 0)
(25.445 -1.01895 1.2211e-17)
(25.4401 -1.00467 -1.22135e-17)
(25.4348 -0.990288 -3.05398e-18)
(25.4306 -0.974261 3.23877e-18)
(25.6975 -1.4987 1.03397e-16)
(25.6981 -1.48282 0)
(25.6986 -1.4669 -1.03405e-16)
(25.6991 -1.45096 1.03409e-16)
(25.6995 -1.43498 0)
(25.6999 -1.41896 0)
(25.7002 -1.4029 0)
(25.7005 -1.3868 -5.17138e-17)
(25.7007 -1.37065 5.17163e-17)
(25.7009 -1.35446 -5.17188e-17)
(25.701 -1.33822 -1.43863e-23)
(25.7011 -1.32193 5.17241e-17)
(25.7012 -1.30559 -5.17268e-17)
(25.7012 -1.28919 5.17295e-17)
(25.7012 -1.27274 0)
(25.7011 -1.25622 2.58675e-17)
(25.7011 -1.23964 -2.58689e-17)
(25.7011 -1.223 -2.58703e-17)
(25.701 -1.20628 -9.38361e-24)
(25.7009 -1.18949 2.58731e-17)
(25.7008 -1.17263 0)
(25.7007 -1.15567 0)
(25.7005 -1.13863 0)
(25.7002 -1.12151 0)
(25.7002 -1.10429 -6.47007e-18)
(25.7006 -1.08698 3.23522e-18)
(25.7002 -1.06963 3.4217e-18)
(25.8434 -1.41653 0)
(25.8424 -1.39941 0)
(25.8414 -1.38236 0)
(25.8402 -1.36536 0)
(25.8389 -1.34842 -5.49736e-17)
(25.8374 -1.33155 5.49792e-17)
(25.8358 -1.31477 0)
(25.8342 -1.29806 5.49911e-17)
(25.8324 -1.28144 4.09784e-23)
(25.8305 -1.26491 -5.50037e-17)
(25.8284 -1.24848 0)
(25.8263 -1.23215 0)
(25.8241 -1.21594 0)
(25.8218 -1.19987 0)
(25.8194 -1.18404 0)
(25.8169 -1.16846 0)
(25.8143 -1.15298 0)
(25.8117 -1.13762 -2.75304e-17)
(25.809 -1.12241 2.75344e-17)
(25.8062 -1.10733 0)
(25.8034 -1.0924 0)
(25.8005 -1.07762 0)
(25.7976 -1.06298 0)
(25.7947 -1.04847 0)
(25.7916 -1.03402 -6.88984e-18)
(25.7883 -1.01948 3.44544e-18)
(25.7858 -1.00437 3.63625e-18)
(26.0252 -1.46401 5.83506e-17)
(26.0248 -1.44543 -5.83551e-17)
(26.0243 -1.42686 0)
(26.0236 -1.4083 5.8365e-17)
(26.0228 -1.38976 -5.83703e-17)
(26.0219 -1.37123 0)
(26.0208 -1.35273 0)
(26.0195 -1.33426 0)
(26.0181 -1.31582 0)
(26.0165 -1.29742 5.84008e-17)
(26.0148 -1.27905 -5.84076e-17)
(26.013 -1.26072 0)
(26.011 -1.24244 0)
(26.0088 -1.22421 0)
(26.0065 -1.20603 0)
(26.0041 -1.1879 0)
(26.0015 -1.16983 0)
(25.9987 -1.15181 0)
(25.9958 -1.13386 0)
(25.9928 -1.11599 0)
(25.9896 -1.09818 0)
(25.9862 -1.08045 0)
(25.9827 -1.0628 0)
(25.979 -1.04525 0)
(25.9753 -1.02779 7.31615e-18)
(25.9716 -1.01044 -3.65872e-18)
(25.9677 -0.993249 -3.85196e-18)
(26.1707 -1.42342 -1.24056e-16)
(26.1695 -1.40367 6.20349e-17)
(26.1681 -1.38398 0)
(26.1665 -1.36437 -6.205e-17)
(26.1647 -1.34483 1.24116e-16)
(26.1627 -1.32537 -6.20664e-17)
(26.1606 -1.30599 0)
(26.1583 -1.28671 6.20842e-17)
(26.1557 -1.26752 6.31878e-23)
(26.153 -1.24843 -6.21032e-17)
(26.1502 -1.22945 0)
(26.1472 -1.21058 -3.10618e-17)
(26.144 -1.19183 3.1067e-17)
(26.1406 -1.1732 0)
(26.1371 -1.15469 0)
(26.1334 -1.13631 0)
(26.1296 -1.11806 0)
(26.1257 -1.09995 3.10955e-17)
(26.1216 -1.08199 -3.11015e-17)
(26.1173 -1.06416 0)
(26.1129 -1.04648 0)
(26.1085 -1.02895 0)
(26.1039 -1.01157 0)
(26.0991 -0.994346 7.78336e-18)
(26.0942 -0.977279 -7.78502e-18)
(26.0892 -0.960384 0)
(26.0845 -0.943698 0)
(26.3442 -1.43553 6.58803e-17)
(26.3429 -1.41372 -6.58886e-17)
(26.3413 -1.39196 0)
(26.3394 -1.37026 0)
(26.3373 -1.34862 0)
(26.335 -1.32706 0)
(26.3324 -1.30557 6.59379e-17)
(26.3296 -1.28417 -3.29744e-17)
(26.3266 -1.26286 -3.29803e-17)
(26.3233 -1.24164 3.29864e-17)
(26.3198 -1.22052 4.71814e-23)
(26.3161 -1.19951 -3.2999e-17)
(26.3122 -1.17861 0)
(26.308 -1.15784 3.30126e-17)
(26.3036 -1.13718 -3.30196e-17)
(26.299 -1.11666 -3.30269e-17)
(26.2942 -1.09627 3.30343e-17)
(26.2892 -1.07603 -1.6521e-17)
(26.284 -1.05593 3.30498e-17)
(26.2786 -1.03598 -1.65289e-17)
(26.273 -1.01619 -1.6533e-17)
(26.2672 -0.996565 3.30744e-17)
(26.2613 -0.977106 -1.65414e-17)
(26.2551 -0.957821 0)
(26.2487 -0.938718 0)
(26.2423 -0.919809 0)
(26.2358 -0.901146 0)
(26.5064 -1.4093 6.99969e-17)
(26.5044 -1.38572 -1.40016e-16)
(26.5021 -1.36223 7.00198e-17)
(26.4995 -1.33884 -7.00323e-17)
(26.4966 -1.31554 7.00451e-17)
(26.4934 -1.29235 3.50294e-17)
(26.49 -1.26928 -3.50364e-17)
(26.4863 -1.24633 0)
(26.4823 -1.22351 0)
(26.4781 -1.20082 3.50592e-17)
(26.4735 -1.17827 -3.50673e-17)
(26.4688 -1.15588 0)
(26.4637 -1.13364 0)
(26.4584 -1.11156 0)
(26.4529 -1.08965 0)
(26.4471 -1.06791 0)
(26.4411 -1.04635 0)
(26.4349 -1.02498 0)
(26.4284 -1.0038 0)
(26.4217 -0.982808 0)
(26.4148 -0.96202 -1.75808e-17)
(26.4077 -0.941436 1.75861e-17)
(26.4004 -0.921061 0)
(26.3929 -0.900899 -8.79852e-18)
(26.3851 -0.880958 8.80129e-18)
(26.3772 -0.861254 0)
(26.3695 -0.841835 0)
(26.6855 -1.40305 0)
(26.683 -1.37701 0)
(26.6801 -1.35106 0)
(26.6768 -1.32521 -3.7188e-17)
(26.6732 -1.29948 3.71962e-17)
(26.6693 -1.27387 0)
(26.665 -1.24839 0)
(26.6604 -1.22306 0)
(26.6555 -1.19787 0)
(26.6502 -1.17284 0)
(26.6446 -1.14797 0)
(26.6387 -1.12328 -3.72637e-17)
(26.6324 -1.09878 3.72746e-17)
(26.6259 -1.07446 0)
(26.619 -1.05034 0)
(26.6119 -1.02643 0)
(26.6044 -1.00273 0)
(26.5967 -0.979253 0)
(26.5887 -0.956001 0)
(26.5804 -0.932983 1.868e-17)
(26.5719 -0.910205 -1.86866e-17)
(26.5631 -0.887674 0)
(26.5541 -0.865396 0)
(26.5448 -0.843377 0)
(26.5352 -0.821626 0)
(26.5255 -0.800159 0)
(26.5158 -0.779036 0)
(26.8637 -1.37886 3.94678e-17)
(26.8604 -1.35038 -3.94768e-17)
(26.8567 -1.32203 0)
(26.8526 -1.29382 0)
(26.8481 -1.26575 3.95069e-17)
(26.8432 -1.23784 -3.95178e-17)
(26.8379 -1.2101 0)
(26.8322 -1.18253 -3.9541e-17)
(26.8261 -1.15516 3.95532e-17)
(26.8196 -1.12798 0)
(26.8127 -1.10101 0)
(26.8054 -1.07425 3.95926e-17)
(26.7978 -1.04773 -3.96063e-17)
(26.7899 -1.02143 0)
(26.7815 -0.995388 0)
(26.7729 -0.969593 0)
(26.7639 -0.94406 0)
(26.7545 -0.918796 1.98408e-17)
(26.7449 -0.893809 -1.98487e-17)
(26.7349 -0.869105 9.92851e-18)
(26.7247 -0.844693 -9.93265e-18)
(26.7141 -0.820579 0)
(26.7033 -0.79677 -9.94127e-18)
(26.6921 -0.773271 9.94564e-18)
(26.6807 -0.750093 0)
(26.6691 -0.727254 0)
(26.6575 -0.704817 0)
(27.0527 -1.3608 4.18981e-17)
(27.0487 -1.32938 0)
(27.0441 -1.29812 0)
(27.0391 -1.26701 0)
(27.0336 -1.23608 -4.19476e-17)
(27.0275 -1.20534 8.39227e-17)
(27.021 -1.1748 -4.19757e-17)
(27.0141 -1.14447 -4.19907e-17)
(27.0066 -1.11437 8.40121e-17)
(26.9988 -1.0845 -4.20219e-17)
(26.9904 -1.05489 -2.10193e-17)
(26.9817 -1.02553 4.20555e-17)
(26.9725 -0.996449 -2.10364e-17)
(26.9628 -0.967649 0)
(26.9528 -0.939144 0)
(26.9424 -0.910943 0)
(26.9315 -0.883056 0)
(26.9203 -0.855493 2.10837e-17)
(26.9087 -0.828264 -3.16406e-17)
(26.8967 -0.801377 1.0552e-17)
(26.8844 -0.774842 0)
(26.8718 -0.748665 0)
(26.8588 -0.722856 -5.28401e-18)
(26.8454 -0.697422 5.28674e-18)
(26.8318 -0.672375 0)
(26.8179 -0.647733 -1.3231e-18)
(26.804 -0.623568 1.37183e-18)
(27.2452 -1.3332 0)
(27.2403 -1.29871 0)
(27.2347 -1.2644 4.45028e-17)
(27.2285 -1.23029 -4.45186e-17)
(27.2218 -1.19639 0)
(27.2145 -1.16273 0)
(27.2067 -1.1293 0)
(27.1983 -1.09614 0)
(27.1894 -1.06324 0)
(27.1799 -1.03064 2.23143e-17)
(27.17 -0.998336 8.06107e-23)
(27.1595 -0.966348 8.38443e-23)
(27.1485 -0.934688 -4.46921e-17)
(27.1371 -0.903369 2.23572e-17)
(27.1251 -0.872403 0)
(27.1127 -0.841803 0)
(27.0998 -0.81158 0)
(27.0865 -0.781746 0)
(27.0728 -0.752311 1.12087e-17)
(27.0586 -0.723285 -1.1215e-17)
(27.0441 -0.694679 0)
(27.0292 -0.666503 0)
(27.0138 -0.638764 0)
(26.9981 -0.611472 5.62085e-18)
(26.982 -0.584639 -5.62428e-18)
(26.9657 -0.558288 0)
(26.9494 -0.532494 0)
(27.4457 -1.30583 0)
(27.4396 -1.26786 0)
(27.4329 -1.23011 0)
(27.4255 -1.1926 -4.72512e-17)
(27.4175 -1.15534 -1.50447e-22)
(27.4088 -1.11836 7.09402e-17)
(27.3995 -1.08167 -2.36579e-17)
(27.3895 -1.04528 -2.36696e-17)
(27.3789 -1.00922 4.73631e-17)
(27.3677 -0.9735 -4.7388e-17)
(27.3558 -0.93814 -1.00861e-22)
(27.3434 -0.903154 2.37199e-17)
(27.3304 -0.868559 -2.37335e-17)
(27.3169 -0.834369 4.74947e-17)
(27.3028 -0.8006 -2.37615e-17)
(27.2881 -0.767266 -2.37762e-17)
(27.273 -0.734381 2.37909e-17)
(27.2573 -0.701958 -1.19031e-17)
(27.2411 -0.67001 1.19108e-17)
(27.2245 -0.63855 0)
(27.2074 -0.607589 0)
(27.1898 -0.577139 0)
(27.1719 -0.54721 0)
(27.1534 -0.517814 0)
(27.1346 -0.488963 0)
(27.1155 -0.460683 -1.4961e-18)
(27.0963 -0.433056 1.54277e-18)
(27.6576 -1.31426 0)
(27.6511 -1.27236 0)
(27.6439 -1.2307 0)
(27.6359 -1.1893 2.50599e-17)
(27.6271 -1.14818 -5.01445e-17)
(27.6176 -1.10736 2.5085e-17)
(27.6073 -1.06687 2.50985e-17)
(27.5963 -1.02672 -2.51123e-17)
(27.5845 -0.986934 0)
(27.5721 -0.947534 0)
(27.5589 -0.908537 0)
(27.545 -0.869964 2.51727e-17)
(27.5305 -0.831832 -5.03776e-17)
(27.5153 -0.794161 2.52054e-17)
(27.4994 -0.756969 0)
(27.483 -0.720272 0)
(27.4659 -0.684088 0)
(27.4482 -0.648433 0)
(27.4299 -0.613323 0)
(27.411 -0.578774 1.2657e-17)
(27.3916 -0.544799 -1.26666e-17)
(27.3717 -0.511414 0)
(27.3513 -0.478631 0)
(27.3304 -0.446462 6.34835e-18)
(27.309 -0.414921 -6.35345e-18)
(27.2872 -0.384023 -3.17935e-18)
(27.265 -0.353795 1.59097e-18)
(27.2427 -0.324325 1.63609e-18)
(27.8706 -1.28264 2.65457e-17)
(27.863 -1.23668 -5.31179e-17)
(27.8544 -1.191 5.31457e-17)
(27.845 -1.14563 -5.31749e-17)
(27.8347 -1.10058 2.66026e-17)
(27.8236 -1.05589 0)
(27.8115 -1.01158 -2.66349e-17)
(27.7987 -0.967665 2.66519e-17)
(27.7849 -0.924177 2.66696e-17)
(27.7704 -0.881137 -2.66877e-17)
(27.7551 -0.838567 0)
(27.739 -0.79649 2.6726e-17)
(27.7221 -0.754929 1.59228e-22)
(27.7044 -0.713903 -2.67661e-17)
(27.686 -0.673436 1.33936e-17)
(27.6669 -0.633547 8.81756e-23)
(27.6471 -0.594256 -1.34151e-17)
(27.6266 -0.555584 0)
(27.6054 -0.517549 0)
(27.5836 -0.48017 -1.34494e-17)
(27.5612 -0.443463 1.34611e-17)
(27.5382 -0.407447 0)
(27.5146 -0.372137 0)
(27.4905 -0.337549 6.7489e-18)
(27.4658 -0.303697 -6.75511e-18)
(27.4406 -0.270598 -3.38075e-18)
(27.415 -0.238285 3.38393e-18)
(27.3893 -0.20685 0)
(28.0887 -1.24666 2.81527e-17)
(28.0797 -1.1964 -2.81689e-17)
(28.0698 -1.14648 0)
(28.0588 -1.0969 0)
(28.0468 -1.04771 0)
(28.0339 -0.99892 0)
(28.0199 -0.950568 -2.8262e-17)
(28.0051 -0.902679 2.82827e-17)
(27.9892 -0.855278 -2.83043e-17)
(27.9725 -0.808392 2.83263e-17)
(27.9548 -0.762046 2.83494e-17)
(27.9362 -0.716267 -4.25592e-17)
(27.9168 -0.671081 1.41985e-17)
(27.8965 -0.626512 0)
(27.8753 -0.582585 1.42237e-17)
(27.8534 -0.539325 -1.42366e-17)
(27.8306 -0.496756 1.42499e-17)
(27.8071 -0.454901 -1.42634e-17)
(27.7828 -0.413783 0)
(27.7578 -0.373425 7.14571e-18)
(27.732 -0.333847 -7.15281e-18)
(27.7056 -0.29507 0)
(27.6786 -0.257114 0)
(27.6509 -0.219998 3.58751e-18)
(27.6226 -0.183739 -7.18258e-18)
(27.5938 -0.148358 3.59511e-18)
(27.5645 -0.11389 0)
(27.535 -0.0804355 0)
(28.3117 -1.20792 -2.98517e-17)
(28.3013 -1.15311 5.9743e-17)
(28.2898 -1.09869 -5.97847e-17)
(28.2771 -1.04466 2.9914e-17)
(28.2634 -0.991072 2.99368e-17)
(28.2485 -0.937944 -2.99601e-17)
(28.2326 -0.885308 0)
(28.2155 -0.833194 0)
(28.1974 -0.781632 0)
(28.1783 -0.730652 -1.50314e-17)
(28.1581 -0.680282 1.50451e-17)
(28.1369 -0.630554 0)
(28.1148 -0.581497 0)
(28.0916 -0.53314 0)
(28.0675 -0.485513 1.51044e-17)
(28.0425 -0.438644 -1.51199e-17)
(28.0165 -0.392563 0)
(27.9897 -0.347298 -1.51524e-17)
(27.962 -0.302877 1.5169e-17)
(27.9335 -0.259327 0)
(27.9042 -0.216674 0)
(27.8741 -0.174944 0)
(27.8433 -0.13416 0)
(27.8118 -0.0943478 0)
(27.7796 -0.0555284 -3.81836e-18)
(27.7467 -0.017727 3.82186e-18)
(27.7134 0.0190176 -9.5638e-19)
(27.6798 0.0545977 9.74989e-19)
(28.5385 -1.16563 0)
(28.5266 -1.1061 0)
(28.5135 -1.047 0)
(28.499 -0.988342 -3.1724e-17)
(28.4834 -0.930171 3.17511e-17)
(28.4665 -0.872514 0)
(28.4484 -0.815404 0)
(28.4291 -0.758874 1.59196e-17)
(28.4087 -0.702955 -3.18704e-17)
(28.387 -0.647681 1.59513e-17)
(28.3642 -0.593085 -1.5968e-17)
(28.3403 -0.539202 1.59849e-17)
(28.3152 -0.486065 0)
(28.2891 -0.433709 0)
(28.2619 -0.38217 0)
(28.2336 -0.331481 1.60578e-17)
(28.2043 -0.281677 1.60375e-22)
(28.174 -0.232794 -1.60965e-17)
(28.1427 -0.184866 0)
(28.1104 -0.137925 0)
(28.0773 -0.0920054 -8.07886e-18)
(28.0432 -0.0471388 -9.13545e-23)
(28.0084 -0.00335622 8.09576e-18)
(27.9727 0.0393126 0)
(27.9363 0.0808388 4.05563e-18)
(27.8991 0.121192 -6.08792e-18)
(27.8613 0.160327 1.01542e-18)
(27.8232 0.198129 1.03194e-18)
(28.7686 -1.12059 0)
(28.7551 -1.05619 3.35775e-17)
(28.7402 -0.992261 2.00312e-22)
(28.724 -0.928824 -1.68194e-17)
(28.7064 -0.865914 -3.36718e-17)
(28.6874 -0.803564 3.37057e-17)
(28.6671 -0.741806 -1.68703e-17)
(28.6455 -0.680676 1.68885e-17)
(28.6226 -0.620208 -3.38142e-17)
(28.5984 -0.560439 1.69263e-17)
(28.5729 -0.501406 -1.69462e-17)
(28.5461 -0.443147 1.69664e-17)
(28.5181 -0.385704 0)
(28.4888 -0.329115 0)
(28.4583 -0.273423 0)
(28.4267 -0.218668 0)
(28.3938 -0.164895 0)
(28.3598 -0.112144 -8.54974e-18)
(28.3247 -0.06046 8.56109e-18)
(28.2885 -0.00988423 8.56969e-18)
(28.2513 0.0395411 -8.57837e-18)
(28.2131 0.0877749 0)
(28.1739 0.134777 0)
(28.1337 0.18051 4.29928e-18)
(28.0927 0.224935 -6.45395e-18)
(28.0508 0.268015 2.15308e-18)
(28.0083 0.309695 1.07748e-18)
(27.9653 0.349854 -1.09179e-18)
(29.001 -1.0728 0)
(28.9859 -1.00346 0)
(28.9692 -0.934629 1.78145e-17)
(28.9511 -0.866326 1.2579e-22)
(28.9315 -0.798582 1.33603e-22)
(28.9105 -0.73143 -1.78725e-17)
(28.888 -0.664903 0)
(28.8641 -0.599036 0)
(28.8387 -0.533867 0)
(28.8119 -0.469434 -1.79597e-17)
(28.7837 -0.405781 3.5966e-17)
(28.7541 -0.342948 -3.60141e-17)
(28.723 -0.280984 1.80316e-17)
(28.6906 -0.219934 0)
(28.6568 -0.159848 0)
(28.6216 -0.100777 0)
(28.5851 -0.0427734 0)
(28.5474 0.0141099 0)
(28.5083 0.0698189 -9.08496e-18)
(28.468 0.124299 -1.22908e-22)
(28.4264 0.177498 9.09697e-18)
(28.3837 0.22936 0)
(28.3399 0.279835 0)
(28.2951 0.328872 4.55918e-18)
(28.2491 0.376421 -4.56305e-18)
(28.2022 0.422432 0)
(28.1546 0.466842 1.14289e-18)
(28.1063 0.509517 -1.15473e-18)
(29.2349 -1.02286 -1.8842e-17)
(29.2181 -0.948596 1.88624e-17)
(29.1997 -0.874853 1.88838e-17)
(29.1798 -0.80166 -1.89058e-17)
(29.1583 -0.729041 0)
(29.1352 -0.657027 -1.89524e-17)
(29.1106 -0.58565 1.89766e-17)
(29.0844 -0.514943 -1.90019e-17)
(29.0567 -0.444946 1.90276e-17)
(29.0274 -0.3757 -1.90545e-17)
(28.9965 -0.30725 1.90817e-17)
(28.964 -0.239645 -1.91102e-17)
(28.93 -0.172936 1.91389e-17)
(28.8944 -0.10718 0)
(28.8573 -0.0424358 0)
(28.8187 0.0212351 9.60783e-18)
(28.7785 0.0837675 -9.616e-18)
(28.7368 0.145095 9.62167e-18)
(28.6936 0.205149 1.40111e-22)
(28.649 0.263859 -1.92684e-17)
(28.603 0.321156 9.64122e-18)
(28.5557 0.37697 4.82448e-18)
(28.507 0.431231 7.78756e-23)
(28.4571 0.483873 7.97153e-23)
(28.4059 0.53483 -4.83727e-18)
(28.3537 0.584035 2.42106e-18)
(28.3005 0.631412 -3.63531e-18)
(28.2466 0.676812 1.22081e-18)
(29.469 -0.971186 1.99664e-17)
(29.4506 -0.892079 -1.99904e-17)
(29.4306 -0.813504 0)
(29.4089 -0.735476 2.00413e-17)
(29.3856 -0.658016 -4.01357e-17)
(29.3607 -0.581147 2.00953e-17)
(29.3341 -0.504898 0)
(29.3058 -0.429299 0)
(29.2758 -0.354389 0)
(29.2442 -0.280211 0)
(29.2108 -0.206812 0)
(29.1757 -0.134247 0)
(29.1388 -0.0625743 0)
(29.1002 0.00813954 0)
(29.0598 0.0778243 0)
(29.0177 0.146404 0)
(28.9739 0.213799 0)
(28.9283 0.279925 0)
(28.881 0.344694 0)
(28.832 0.408016 0)
(28.7814 0.469798 0)
(28.7292 0.52995 0)
(28.6755 0.588378 0)
(28.6202 0.644993 0)
(28.5635 0.699707 0)
(28.5055 0.752433 0)
(28.4464 0.803072 0)
(28.3864 0.85146 0)
(29.7021 -0.918408 2.11561e-17)
(29.6822 -0.834647 -2.1184e-17)
(29.6607 -0.751402 -2.12131e-17)
(29.6374 -0.668679 2.12428e-17)
(29.6125 -0.586485 0)
(29.5859 -0.504836 0)
(29.5575 -0.423751 0)
(29.5274 -0.343257 0)
(29.4955 -0.26339 0)
(29.4617 -0.184191 -1.07214e-17)
(29.426 -0.10571 2.14795e-17)
(29.3885 -0.0280066 -1.07557e-17)
(29.349 0.0488524 0)
(29.3076 0.124791 0)
(29.2642 0.199724 1.07747e-17)
(29.2188 0.273561 -1.07793e-17)
(29.1714 0.346201 -1.0785e-17)
(29.122 0.417538 1.07911e-17)
(29.0706 0.487459 0)
(29.0173 0.555848 0)
(28.9619 0.622584 0)
(28.9047 0.687544 0)
(28.8457 0.750607 0)
(28.7849 0.811651 0)
(28.7223 0.870557 2.71412e-18)
(28.6582 0.92721 -1.35855e-18)
(28.5927 0.981484 -6.80097e-19)
(28.5261 1.03319 -6.81333e-19)
(29.9326 -0.865118 2.24152e-17)
(29.9113 -0.776991 -4.48949e-17)
(29.8884 -0.689339 2.24807e-17)
(29.8639 -0.602148 0)
(29.8376 -0.515413 0)
(29.8096 -0.429135 -1.12934e-17)
(29.7798 -0.343321 2.26242e-17)
(29.7481 -0.257991 -2.26627e-17)
(29.7146 -0.173172 1.13512e-17)
(29.6791 -0.0889038 0)
(29.6416 -0.00523662 1.13873e-17)
(29.602 0.0777669 -2.27904e-17)
(29.5603 0.160032 1.13972e-17)
(29.5164 0.241471 0)
(29.4702 0.321986 -1.1404e-17)
(29.4218 0.401463 1.14084e-17)
(29.3711 0.479779 -5.70698e-18)
(29.318 0.556801 -1.03142e-22)
(29.2626 0.632385 5.71362e-18)
(29.2049 0.706379 5.71779e-18)
(29.1448 0.778625 -5.72221e-18)
(29.0825 0.848963 0)
(29.018 0.917227 -2.86642e-18)
(28.9514 0.983256 5.73876e-18)
(28.8826 1.04689 -2.87258e-18)
(28.812 1.10797 0)
(28.7397 1.16634 -7.19957e-19)
(28.6659 1.22177 7.19251e-19)
(30.1587 -0.811997 2.37479e-17)
(30.1363 -0.719891 -1.18925e-17)
(30.1124 -0.628188 1.19114e-17)
(30.0868 -0.536851 0)
(30.0595 -0.445854 0)
(30.0305 -0.355177 1.19716e-17)
(29.9996 -0.264814 -1.19927e-17)
(29.9669 -0.17477 0)
(29.9323 -0.0850613 0)
(29.8955 0.00427917 0)
(29.8566 0.0932038 1.20585e-17)
(29.8155 0.181649 -1.20587e-17)
(29.772 0.269533 0)
(29.726 0.356758 -1.2062e-17)
(29.6776 0.443207 6.03227e-18)
(29.6265 0.528746 6.03432e-18)
(29.5728 0.613224 6.03688e-18)
(29.5163 0.696473 -1.20796e-17)
(29.4571 0.778312 6.04326e-18)
(29.3952 0.858544 0)
(29.3305 0.936964 -6.05214e-18)
(29.263 1.01336 6.05727e-18)
(29.1929 1.08751 -3.03164e-18)
(29.1202 1.1592 3.0348e-18)
(29.0449 1.22822 0)
(28.9673 1.29435 -1.52113e-18)
(28.8876 1.35737 1.52317e-18)
(28.8062 1.41704 0)
(30.379 -0.759698 0)
(30.3557 -0.664099 0)
(30.3309 -0.568796 0)
(30.3046 -0.473725 1.26439e-17)
(30.2768 -0.378832 1.33915e-22)
(30.2472 -0.284074 -1.26894e-17)
(30.2159 -0.18942 1.27133e-17)
(30.1826 -0.0948561 -1.27376e-17)
(30.1474 -0.00038332 0)
(30.11 0.0939779 0)
(30.0703 0.188187 -1.2758e-17)
(30.0282 0.282184 2.55132e-17)
(29.9836 0.375883 -1.27561e-17)
(29.9362 0.469176 -6.37844e-18)
(29.886 0.56193 6.37914e-18)
(29.8328 0.653986 0)
(29.7765 0.745162 0)
(29.7171 0.83525 0)
(29.6545 0.924022 0)
(29.5885 1.01123 6.39224e-18)
(29.5192 1.0966 -6.3967e-18)
(29.4466 1.17986 0)
(29.3708 1.26072 0)
(29.2918 1.33889 0)
(29.2097 1.41408 0)
(29.1247 1.486 1.6078e-18)
(29.0371 1.55438 -8.05003e-19)
(28.9473 1.61889 -7.99999e-19)
(30.5918 -0.708873 0)
(30.5679 -0.610354 1.33501e-17)
(30.5427 -0.511991 1.313e-22)
(30.5162 -0.413686 -1.33984e-17)
(30.4882 -0.315351 -1.34235e-17)
(30.4586 -0.216911 1.34491e-17)
(30.4274 -0.118305 0)
(30.3942 -0.0194937 1.35e-17)
(30.3591 0.0795461 -1.35034e-17)
(30.3218 0.178813 0)
(30.282 0.278281 0)
(30.2397 0.377896 0)
(30.1946 0.477577 0)
(30.1466 0.577207 0)
(30.0953 0.67664 0)
(30.0407 0.775693 0)
(29.9825 0.874148 -6.74435e-18)
(29.9207 0.971754 -1.42889e-22)
(29.855 1.06823 6.7486e-18)
(29.7853 1.16325 0)
(29.7117 1.25648 0)
(29.6341 1.34756 0)
(29.5525 1.4361 -3.38388e-18)
(29.467 1.52172 3.38732e-18)
(29.3777 1.60403 0)
(29.2848 1.68265 0)
(29.1887 1.75721 0)
(29.0897 1.82731 0)
(30.7959 -0.660114 0)
(30.7717 -0.559324 1.41437e-17)
(30.7465 -0.45852 -2.83402e-17)
(30.7202 -0.357561 1.4197e-17)
(30.6926 -0.256319 1.42247e-17)
(30.6636 -0.154679 -2.85056e-17)
(30.6331 -0.0525443 1.42817e-17)
(30.6008 0.0501611 0)
(30.5665 0.153491 -7.14185e-18)
(30.53 0.257473 7.1376e-18)
(30.4911 0.362104 -7.13392e-18)
(30.4494 0.467348 7.13048e-18)
(30.4048 0.573131 0)
(30.3569 0.679339 0)
(30.3054 0.785813 7.12378e-18)
(30.2502 0.892352 1.36167e-22)
(30.1909 0.998701 -1.4245e-17)
(30.1273 1.10456 1.42463e-17)
(30.0592 1.20959 -7.12457e-18)
(29.9864 1.31338 -3.56363e-18)
(29.9088 1.41551 3.56532e-18)
(29.8263 1.51551 3.56775e-18)
(29.7389 1.61287 1.04912e-22)
(29.6468 1.7071 -5.36119e-18)
(29.55 1.79766 1.78912e-18)
(29.4487 1.88406 -8.95782e-19)
(29.3433 1.9658 8.97103e-19)
(29.2343 2.04238 0)
(30.9903 -0.613948 1.40281e-22)
(30.9661 -0.511597 1.42078e-22)
(30.9413 -0.409034 -3.0025e-17)
(30.9156 -0.306069 1.50419e-17)
(30.889 -0.202527 0)
(30.8612 -0.0982487 0)
(30.8321 0.00690981 0)
(30.8013 0.11307 0)
(30.7687 0.220327 0)
(30.734 0.328747 0)
(30.6967 0.438364 0)
(30.6567 0.549169 0)
(30.6135 0.661108 0)
(30.5668 0.77408 0)
(30.5162 0.887926 7.5226e-18)
(30.4614 1.00243 -7.51952e-18)
(30.4019 1.1173 -3.75879e-18)
(30.3374 1.23219 3.75814e-18)
(30.2676 1.3467 0)
(30.1923 1.46032 0)
(30.1112 1.57253 0)
(30.0242 1.68271 0)
(29.9312 1.79023 0)
(29.8322 1.89442 0)
(29.7275 1.99458 1.88588e-18)
(29.6172 2.09005 -1.88827e-18)
(29.5018 2.18016 0)
(29.3819 2.26428 0)
(31.1739 -0.5708 0)
(31.1502 -0.467639 1.58724e-17)
(31.1261 -0.364045 -7.95171e-18)
(31.1016 -0.259777 -7.96767e-18)
(31.0765 -0.154608 0)
(31.0505 -0.0483222 0)
(31.0235 0.0592768 0)
(30.9951 0.168365 7.9944e-18)
(30.965 0.279094 -7.98555e-18)
(30.9329 0.391581 -7.97706e-18)
(30.8984 0.505909 7.96865e-18)
(30.861 0.622111 0)
(30.8204 0.740174 0)
(30.7761 0.86002 0)
(30.7275 0.981505 7.93988e-18)
(30.6742 1.10441 -7.93416e-18)
(30.6156 1.22842 0)
(30.5513 1.35315 3.96302e-18)
(30.4809 1.47811 -7.92353e-18)
(30.4038 1.60273 3.96119e-18)
(30.3199 1.72632 0)
(30.2287 1.84813 0)
(30.1303 1.96735 1.98225e-18)
(30.0246 2.08308 -1.98362e-18)
(29.9116 2.19442 0)
(29.7918 2.30049 0)
(29.6654 2.40039 0)
(29.5333 2.49328 0)
(31.346 -0.530991 -8.38944e-18)
(31.323 -0.427789 0)
(31.3001 -0.323921 0)
(31.2772 -0.219091 0)
(31.2542 -0.113014 0)
(31.2306 -0.00541398 0)
(31.2064 0.103969 8.46492e-18)
(31.1811 0.215378 -1.69065e-17)
(31.1544 0.329027 8.44159e-18)
(31.1259 0.445105 -8.43009e-18)
(31.0952 0.563756 -9.15864e-23)
(31.0617 0.685081 8.40732e-18)
(31.0248 0.809119 -8.39654e-18)
(30.9841 0.935842 8.386e-18)
(30.9388 1.06514 0)
(30.8884 1.19681 0)
(30.832 1.33053 0)
(30.7692 1.46589 0)
(30.6993 1.60233 -4.17329e-18)
(30.6216 1.73916 4.17115e-18)
(30.5356 1.87558 0)
(30.441 2.01063 0)
(30.3375 2.14328 2.08543e-18)
(30.225 2.27239 -2.08639e-18)
(30.1036 2.39677 0)
(29.9735 2.51523 1.04523e-18)
(29.8352 2.62658 -5.23312e-19)
(29.6897 2.72975 -5.14054e-19)
(31.5061 -0.494718 -8.88552e-18)
(31.4841 -0.392243 8.90323e-18)
(31.4627 -0.288867 8.92107e-18)
(31.4419 -0.184236 -8.93886e-18)
(31.4213 -0.0780032 0)
(31.4008 0.030173 8.96665e-18)
(31.38 0.140623 -8.95202e-18)
(31.3586 0.253664 0)
(31.3361 0.369592 8.92221e-18)
(31.3122 0.488676 -1.7814e-17)
(31.2863 0.611146 8.89169e-18)
(31.2577 0.737186 0)
(31.2259 0.866919 4.43077e-18)
(31.1901 1.00039 -4.42337e-18)
(31.1496 1.13755 0)
(31.1035 1.27824 0)
(31.051 1.42216 0)
(30.9911 1.56889 0)
(30.9231 1.71781 -4.39266e-18)
(30.8461 1.86814 4.38845e-18)
(30.7592 2.01893 0)
(30.662 2.16901 0)
(30.554 2.31708 0)
(30.4349 2.46167 0)
(30.3047 2.60124 0)
(30.1637 2.73421 0)
(30.0125 2.85901 2.74749e-19)
(29.8521 2.9742 -2.6933e-19)
(31.6536 -0.462067 0)
(31.6328 -0.361066 0)
(31.6133 -0.258935 0)
(31.5949 -0.155263 0)
(31.5773 -0.0496409 0)
(31.5602 0.0583426 9.48442e-18)
(31.5435 0.169095 -9.46631e-18)
(31.5266 0.283015 9.44779e-18)
(31.5092 0.400492 -9.42868e-18)
(31.4907 0.521891 0)
(31.4706 0.64755 -4.69475e-18)
(31.4482 0.777758 4.68472e-18)
(31.4228 0.912748 0)
(31.3934 1.05267 -4.66477e-18)
(31.3591 1.19758 9.30986e-18)
(31.319 1.34739 6.2902e-23)
(31.272 1.50187 7.37778e-23)
(31.2168 1.66061 -9.25549e-18)
(31.1524 1.82297 2.3099e-18)
(31.0776 1.98809 2.30653e-18)
(30.9913 2.15486 0)
(30.8926 2.3219 2.30158e-18)
(30.7808 2.48758 -4.6003e-18)
(30.6555 2.65005 3.44943e-18)
(30.5164 2.80731 -1.15002e-18)
(30.3639 2.95727 5.7541e-19)
(30.1985 3.09785 -5.76025e-19)
(30.0214 3.2271 0)
(31.7883 -0.433018 0)
(31.769 -0.334194 0)
(31.7516 -0.234029 0)
(31.7358 -0.132057 0)
(31.7215 -0.0278059 1.00417e-17)
(31.7084 0.0792037 4.66841e-23)
(31.6962 0.189461 -1.00095e-17)
(31.6844 0.303459 0)
(31.6728 0.421681 0)
(31.6606 0.544611 0)
(31.6473 0.672705 0)
(31.6321 0.806389 0)
(31.6143 0.946033 4.93088e-18)
(31.5927 1.09194 -4.91773e-18)
(31.5664 1.24429 0)
(31.534 1.40314 -4.89169e-18)
(31.4943 1.56835 -6.41541e-23)
(31.4457 1.7396 4.86685e-18)
(31.3869 1.91625 0)
(31.3162 2.09742 2.42257e-18)
(31.2322 2.28184 -2.41793e-18)
(31.1335 2.46789 -2.41421e-18)
(31.019 2.65362 2.41123e-18)
(30.888 2.83668 0)
(30.7401 3.01451 -1.20443e-18)
(30.5755 3.18438 1.80709e-18)
(30.3945 3.34351 -6.02861e-19)
(30.1989 3.4893 0)
(31.9101 -0.407456 -1.0552e-17)
(31.8924 -0.311456 1.05719e-17)
(31.8772 -0.213931 -1.05913e-17)
(31.8644 -0.114365 0)
(31.8536 -0.0122245 -5.31482e-18)
(31.8447 0.0930429 -1.58016e-23)
(31.8374 0.202002 -1.22499e-23)
(31.8313 0.315248 -9.42525e-24)
(31.826 0.43335 5.26341e-18)
(31.8208 0.556937 0)
(31.8152 0.686602 0)
(31.8083 0.822926 5.21663e-18)
(31.7993 0.966451 1.21615e-23)
(31.787 1.11767 1.77013e-23)
(31.7702 1.27696 -5.16612e-18)
(31.7473 1.44451 0)
(31.7169 1.62041 -2.56604e-18)
(31.6771 1.80445 2.55772e-18)
(31.6261 1.99609 0)
(31.5617 2.19443 0)
(31.4821 2.39813 2.53551e-18)
(31.3853 2.60534 -2.52948e-18)
(31.2697 2.81372 0)
(31.1339 3.02038 0)
(30.9775 3.22206 0)
(30.8001 3.41522 6.29572e-19)
(30.6022 3.59612 -6.29828e-19)
(30.3858 3.76128 0)
(32.0188 -0.385198 5.58669e-18)
(32.0029 -0.292599 5.59671e-18)
(31.9901 -0.198327 -5.60638e-18)
(31.9802 -0.101818 0)
(31.9732 -0.00246949 5.62527e-18)
(31.9688 0.100328 -5.6112e-18)
(31.9667 0.20718 -5.59543e-18)
(31.9666 0.318806 3.05197e-24)
(31.968 0.435907 5.56135e-18)
(31.9705 0.55922 0)
(31.9733 0.689499 0)
(31.9756 0.827505 0)
(31.9766 0.973981 0)
(31.9749 1.12963 2.73109e-18)
(31.9691 1.29507 -5.44043e-18)
(31.9577 1.47078 2.70918e-18)
(31.9387 1.65706 0)
(31.91 1.85392 -2.68709e-18)
(31.8692 2.06099 2.67629e-18)
(31.8138 2.27749 0)
(31.741 2.50202 1.32818e-18)
(31.6484 2.73257 -1.32377e-18)
(31.5335 2.9664 0)
(31.3943 3.20001 0)
(31.2298 3.42932 0)
(31.0393 3.64973 0)
(30.8229 3.85633 0)
(30.5832 4.04437 0)
(32.1145 -0.366006 5.91592e-18)
(32.1004 -0.277306 5.92583e-18)
(32.09 -0.186819 2.11366e-23)
(32.0833 -0.0939349 -5.94444e-18)
(32.0801 0.00198926 5.95318e-18)
(32.0802 0.101572 -5.93571e-18)
(32.0835 0.205575 0)
(32.0896 0.314749 -5.89746e-18)
(32.0981 0.429947 2.35344e-23)
(32.1087 0.552015 5.85476e-18)
(32.1205 0.681879 0)
(32.1328 0.820495 0)
(32.1447 0.968837 0)
(32.1548 1.12785 0)
(32.1617 1.29845 2.86436e-18)
(32.1635 1.48148 -2.85042e-18)
(32.1581 1.67751 0)
(32.1429 1.88689 2.82195e-18)
(32.1151 2.10956 -2.80775e-18)
(32.0714 2.3449 0)
(32.0085 2.59164 0)
(31.9229 2.84763 0)
(31.8111 3.10978 1.37873e-18)
(31.6704 3.37395 -1.37402e-18)
(31.4988 3.63504 0)
(31.295 3.88721 0)
(31.0588 4.12393 -1.70887e-19)
(30.793 4.33877 1.66161e-19)
(32.1971 -0.349608 6.26535e-18)
(32.1847 -0.265216 -6.27486e-18)
(32.1768 -0.17896 0)
(32.1732 -0.0902148 6.29248e-18)
(32.1738 0.00167689 -6.30049e-18)
(32.1785 0.0974308 0)
(32.1872 0.197878 0)
(32.1997 0.303826 0)