/*--------------------------------*- C++ -*----------------------------------*\
  =========                 |
  \\      /  F ield         | OpenFOAM: The Open Source CFD Toolbox
   \\    /   O peration     | Website:  https://openfoam.org
    \\  /    A nd           | Version:  9
     \\/     M anipulation  |
\*---------------------------------------------------------------------------*/
FoamFile
{
    format      ascii;
    class       volVectorField;
    location    "0.0075";
    object      U;
}
// * * * * * * * * * * * * * * * * * * * * * * * * * * * * * * * * * * * * * //

dimensions      [0 1 -1 0 0 0 0];

internalField   nonuniform List<vector> 
8420
(
(24.337 -1.50121 1.39456e-16)
(24.3304 -1.49755 -1.39487e-16)
(24.3236 -1.49412 0)
(24.3165 -1.49093 0)
(24.3091 -1.48798 -1.39588e-16)
(24.3015 -1.48529 1.39623e-16)
(24.2935 -1.48287 0)
(24.2853 -1.48074 0)
(24.2767 -1.47889 0)
(24.2677 -1.47736 0)
(24.2585 -1.47615 0)
(24.2488 -1.47527 0)
(24.2387 -1.47475 0)
(24.2283 -1.47459 6.99798e-17)
(24.2174 -1.47482 -7.00042e-17)
(24.2061 -1.47545 -7.003e-17)
(24.1943 -1.47649 -2.32983e-22)
(24.182 -1.47798 7.00837e-17)
(24.1693 -1.47992 0)
(24.156 -1.48234 0)
(24.1423 -1.48526 0)
(24.1279 -1.4887 0)
(24.113 -1.49268 0)
(24.0975 -1.49723 3.5136e-17)
(24.0814 -1.50237 -7.03075e-17)
(24.0646 -1.50814 3.51722e-17)
(24.047 -1.51456 0)
(24.0287 -1.52166 0)
(24.0097 -1.52946 1.76164e-17)
(23.9905 -1.53801 -1.76272e-17)
(23.9704 -1.54734 0)
(23.9461 -1.55751 0)
(23.9167 -1.56854 0)
(23.8988 -1.58048 0)
(25.3625 -1.25044 -1.45938e-16)
(25.3634 -1.23666 7.29694e-17)
(25.3642 -1.22268 -7.29702e-17)
(25.3648 -1.20849 0)
(25.3653 -1.19408 0)
(25.3656 -1.17945 0)
(25.3658 -1.16459 -7.29769e-17)
(25.3659 -1.14947 -7.93006e-23)
(25.3657 -1.13409 -8.32051e-23)
(25.3654 -1.11845 7.29858e-17)
(25.3649 -1.10251 0)
(25.3642 -1.08628 0)
(25.3634 -1.06974 0)
(25.3623 -1.05288 0)
(25.3611 -1.03568 7.30092e-17)
(25.3596 -1.01817 1.15238e-22)
(25.3579 -1.00046 1.20639e-22)
(25.3559 -0.982918 -3.65144e-17)
(25.3537 -0.964867 -3.65182e-17)
(25.3512 -0.946339 0)
(25.3485 -0.927325 0)
(25.3454 -0.907812 0)
(25.3421 -0.887785 0)
(25.3384 -0.867226 0)
(25.3343 -0.846116 3.65466e-17)
(25.3299 -0.824433 -3.65524e-17)
(25.3252 -0.802153 0)
(25.32 -0.779249 0)
(25.3144 -0.755691 0)
(25.3084 -0.731449 9.14495e-18)
(25.302 -0.70647 -9.14695e-18)
(25.2951 -0.680543 0)
(25.2874 -0.652864 0)
(25.279 -0.62062 0)
(25.3873 -1.51045 -7.86213e-17)
(25.3873 -1.50172 0)
(25.3873 -1.493 7.86265e-17)
(25.3873 -1.48431 -1.57258e-16)
(25.3874 -1.47563 1.57263e-16)
(25.3876 -1.46696 -7.86336e-17)
(25.3878 -1.45831 7.86357e-17)
(25.388 -1.44967 -7.28276e-24)
(25.3883 -1.44106 -7.86396e-17)
(25.3887 -1.43249 0)
(25.3892 -1.42411 -7.86426e-17)
(25.3898 -1.41594 1.57288e-16)
(25.3904 -1.4076 -1.57289e-16)
(25.3912 -1.3993 1.5729e-16)
(25.3921 -1.39093 -7.86453e-17)
(25.3931 -1.38255 0)
(25.3943 -1.37412 3.93222e-17)
(25.3956 -1.36565 -3.93216e-17)
(25.397 -1.35715 -3.93208e-17)
(25.3986 -1.34861 3.93199e-17)
(25.4003 -1.33998 -3.93188e-17)
(25.4023 -1.33127 3.93177e-17)
(25.4044 -1.32249 0)
(25.4068 -1.31364 3.93146e-17)
(25.4093 -1.30472 -3.93127e-17)
(25.4122 -1.29571 0)
(25.4153 -1.28662 0)
(25.4187 -1.27743 0)
(25.4224 -1.26814 -1.9651e-17)
(25.4264 -1.25873 1.96493e-17)
(25.4306 -1.2492 0)
(25.4353 -1.23953 4.91128e-18)
(25.4412 -1.22974 -4.91068e-18)
(25.4473 -1.21992 0)
(25.5847 -1.28123 0)
(25.5833 -1.26907 0)
(25.5817 -1.25689 0)
(25.5801 -1.2447 0)
(25.5784 -1.2325 0)
(25.5767 -1.2203 0)
(25.5748 -1.20809 0)
(25.5728 -1.19588 0)
(25.5708 -1.18368 8.43153e-17)
(25.5687 -1.17148 -8.43232e-17)
(25.5664 -1.1593 0)
(25.5641 -1.14713 4.217e-17)
(25.5617 -1.13498 3.98796e-23)
(25.5592 -1.12284 -8.43577e-17)
(25.5565 -1.11073 -4.16234e-23)
(25.5538 -1.09864 4.21883e-17)
(25.551 -1.08659 0)
(25.5481 -1.07458 0)
(25.545 -1.0626 -4.22034e-17)
(25.5419 -1.05067 8.44174e-17)
(25.5387 -1.0388 -4.22141e-17)
(25.5354 -1.02698 0)
(25.5321 -1.01523 0)
(25.5286 -1.00356 0)
(25.525 -0.99196 -2.11185e-17)
(25.5214 -0.980453 2.11215e-17)
(25.5177 -0.969043 2.11245e-17)
(25.5139 -0.957739 -2.11276e-17)
(25.51 -0.94655 0)
(25.5061 -0.935473 0)
(25.5021 -0.924469 0)
(25.498 -0.913526 0)
(25.4934 -0.90258 0)
(25.4892 -0.890904 0)
(25.7435 -1.43397 9.04556e-17)
(25.7437 -1.4222 -9.04582e-17)
(25.7438 -1.41041 -1.18094e-23)
(25.7438 -1.3986 9.04637e-17)
(25.7439 -1.38677 0)
(25.7439 -1.37492 0)
(25.7439 -1.36305 0)
(25.7439 -1.35116 0)
(25.7439 -1.33926 0)
(25.7439 -1.32733 0)
(25.7438 -1.31539 0)
(25.7437 -1.30342 0)
(25.7436 -1.29143 0)
(25.7436 -1.27942 0)
(25.7434 -1.26739 0)
(25.7433 -1.25533 0)
(25.7432 -1.24325 -4.52517e-17)
(25.7431 -1.23115 4.52533e-17)
(25.7429 -1.21902 0)
(25.7428 -1.20687 0)
(25.7426 -1.19469 0)
(25.7425 -1.18248 0)
(25.7423 -1.17025 0)
(25.7422 -1.15798 0)
(25.742 -1.14569 0)
(25.7419 -1.13337 0)
(25.7417 -1.12101 0)
(25.7415 -1.10862 0)
(25.7414 -1.09619 0)
(25.7412 -1.08373 -1.13181e-17)
(25.741 -1.07123 1.13185e-17)
(25.7408 -1.05868 -5.65944e-18)
(25.7412 -1.04608 5.65964e-18)
(25.7413 -1.03341 0)
(25.8938 -1.3113 0)
(25.8927 -1.29843 -9.71098e-17)
(25.8914 -1.28564 1.94232e-16)
(25.8901 -1.27312 -4.85614e-17)
(25.8886 -1.26061 -4.85651e-17)
(25.8871 -1.24812 -4.85689e-17)
(25.8856 -1.23566 -3.09852e-23)
(25.8839 -1.22323 4.8577e-17)
(25.8822 -1.21085 -4.85813e-17)
(25.8804 -1.19851 9.71713e-17)
(25.8785 -1.18621 3.46212e-23)
(25.8765 -1.17397 3.54751e-23)
(25.8745 -1.16178 3.63057e-23)
(25.8723 -1.14964 -4.86044e-17)
(25.8702 -1.13757 -4.86094e-17)
(25.8679 -1.12557 4.86145e-17)
(25.8656 -1.11363 -4.86197e-17)
(25.8632 -1.10177 4.8625e-17)
(25.8608 -1.08997 -2.43152e-17)
(25.8583 -1.07826 4.86359e-17)
(25.8557 -1.06663 -2.43207e-17)
(25.8531 -1.05509 0)
(25.8504 -1.04364 -2.43264e-17)
(25.8477 -1.03228 2.43293e-17)
(25.8449 -1.02101 2.43323e-17)
(25.8421 -1.00984 -2.43352e-17)
(25.8393 -0.998777 -1.21691e-17)
(25.8364 -0.987821 2.43412e-17)
(25.8335 -0.976975 -1.21721e-17)
(25.8306 -0.966238 1.21737e-17)
(25.8276 -0.955596 -6.08759e-18)
(25.8245 -0.944982 6.41648e-24)
(25.8213 -0.934112 -6.08914e-18)
(25.8186 -0.92182 0)
(26.1076 -1.38136 -2.20747e-23)
(26.1071 -1.36719 -2.35184e-23)
(26.1065 -1.35303 -2.50507e-23)
(26.1058 -1.33888 5.20491e-17)
(26.105 -1.32474 -5.20521e-17)
(26.1041 -1.31061 5.20552e-17)
(26.103 -1.29649 0)
(26.1019 -1.28238 0)
(26.1007 -1.26829 5.20654e-17)
(26.0995 -1.25422 -5.20689e-17)
(26.0981 -1.24016 0)
(26.0967 -1.22612 5.20766e-17)
(26.0951 -1.2121 -5.20805e-17)
(26.0935 -1.19811 0)
(26.0918 -1.18414 5.20889e-17)
(26.09 -1.17019 -1.04186e-16)
(26.0881 -1.15627 5.20976e-17)
(26.0861 -1.14237 2.60511e-17)
(26.0841 -1.12851 2.34104e-23)
(26.0819 -1.11467 2.41722e-23)
(26.0796 -1.10087 -2.60584e-17)
(26.0772 -1.08711 0)
(26.0747 -1.07339 2.60637e-17)
(26.0722 -1.05978 -2.60664e-17)
(26.0695 -1.04647 -2.60692e-17)
(26.0667 -1.03304 3.91082e-17)
(26.0639 -1.01974 1.44101e-23)
(26.0609 -1.00641 -1.30392e-17)
(26.0579 -0.993157 0)
(26.0548 -0.979918 0)
(26.0515 -0.966728 0)
(26.0482 -0.953559 0)
(26.0452 -0.940369 0)
(26.0421 -0.927009 0)
(26.2605 -1.31463 5.58617e-17)
(26.259 -1.29943 -1.11732e-16)
(26.2573 -1.28427 5.58709e-17)
(26.2556 -1.26917 0)
(26.2537 -1.25413 -5.5881e-17)
(26.2516 -1.2392 -4.47338e-23)
(26.2495 -1.22461 5.58917e-17)
(26.2472 -1.21005 5.58975e-17)
(26.2448 -1.19552 -5.59035e-17)
(26.2423 -1.18103 -5.591e-17)
(26.2397 -1.1666 5.59167e-17)
(26.237 -1.15221 -5.59237e-17)
(26.2342 -1.13787 5.59307e-17)
(26.2313 -1.1236 -2.7969e-17)
(26.2283 -1.1094 5.59455e-17)
(26.2252 -1.09526 -5.59531e-17)
(26.222 -1.08117 2.79804e-17)
(26.2187 -1.06706 0)
(26.2154 -1.05272 0)
(26.2119 -1.03831 0)
(26.2083 -1.02401 -2.79968e-17)
(26.2046 -1.00983 -3.53239e-23)
(26.2008 -0.995818 -3.59643e-23)
(26.1969 -0.982079 1.40046e-17)
(26.1929 -0.968639 2.80134e-17)
(26.1888 -0.955277 -1.40088e-17)
(26.1846 -0.942015 0)
(26.1803 -0.928852 -1.40131e-17)
(26.176 -0.91579 7.00766e-18)
(26.1716 -0.90283 7.00879e-18)
(26.167 -0.889975 7.00994e-18)
(26.1623 -0.877226 -7.01107e-18)
(26.1577 -0.864596 0)
(26.1533 -0.852132 0)
(26.4546 -1.33425 1.19795e-16)
(26.453 -1.31718 -1.19806e-16)
(26.4512 -1.30015 1.19817e-16)
(26.4493 -1.28316 5.38844e-23)
(26.4472 -1.26622 -5.99206e-17)
(26.4449 -1.24932 5.99271e-17)
(26.4425 -1.23247 -5.99337e-17)
(26.44 -1.21567 5.99407e-17)
(26.4373 -1.19892 -5.99479e-17)
(26.4344 -1.18223 0)
(26.4313 -1.16561 0)
(26.4281 -1.14915 0)
(26.4248 -1.13316 0)
(26.4213 -1.11697 -2.9994e-17)
(26.4176 -1.10097 -4.12336e-23)
(26.4138 -1.08493 6.00065e-17)
(26.4099 -1.06899 -6.00163e-17)
(26.4058 -1.05306 6.00264e-17)
(26.4016 -1.03708 4.59811e-23)
(26.3972 -1.02064 4.70884e-23)
(26.3928 -1.0042 4.80964e-23)
(26.3882 -0.98793 -3.00343e-17)
(26.3836 -0.971874 0)
(26.3788 -0.95628 -1.50225e-17)
(26.3739 -0.940809 3.00502e-17)
(26.3689 -0.925433 -3.00557e-17)
(26.3637 -0.910158 3.00613e-17)
(26.3585 -0.894984 -1.50334e-17)
(26.3531 -0.879915 -7.51818e-18)
(26.3476 -0.864952 7.51962e-18)
(26.342 -0.850097 0)
(26.3362 -0.835356 -3.76131e-18)
(26.3305 -0.820737 1.88103e-18)
(26.325 -0.806282 1.98899e-18)
(26.6255 -1.30742 -6.42688e-17)
(26.6233 -1.2888 6.42762e-17)
(26.6209 -1.27024 -1.28568e-16)
(26.6183 -1.25175 -6.82663e-23)
(26.6156 -1.23333 6.43001e-17)
(26.6126 -1.21498 0)
(26.6095 -1.19672 0)
(26.6062 -1.17853 -3.21636e-17)
(26.6027 -1.16043 -4.23713e-23)
(26.599 -1.14242 3.21733e-17)
(26.5952 -1.1245 3.21784e-17)
(26.5912 -1.10667 -3.21836e-17)
(26.587 -1.08894 3.21891e-17)
(26.5827 -1.07131 -3.21946e-17)
(26.5781 -1.05377 -3.22004e-17)
(26.5734 -1.03634 6.44124e-17)
(26.5685 -1.01901 -6.44245e-17)
(26.5635 -1.00179 3.22184e-17)
(26.5582 -0.984678 3.22247e-17)
(26.5528 -0.96768 5.92709e-23)
(26.5473 -0.950802 -3.22377e-17)
(26.5417 -0.934052 0)
(26.5359 -0.917436 -1.61256e-17)
(26.53 -0.900954 1.6129e-17)
(26.524 -0.884609 -1.61325e-17)
(26.5178 -0.868399 -3.31628e-23)
(26.5116 -0.852325 3.22793e-17)
(26.5051 -0.83639 -8.07163e-18)
(26.4986 -0.820595 1.74332e-23)
(26.4919 -0.804944 -1.61508e-17)
(26.4851 -0.789438 1.61546e-17)
(26.4782 -0.774078 -1.21188e-17)
(26.4711 -0.75887 4.04058e-18)
(26.464 -0.743826 0)
(26.4572 -0.729 0)
(26.8217 -1.30174 -6.89079e-17)
(26.819 -1.28088 6.89172e-17)
(26.8161 -1.26009 0)
(26.813 -1.23937 3.44686e-17)
(26.8096 -1.21873 -3.44739e-17)
(26.806 -1.19817 0)
(26.8022 -1.1777 0)
(26.7982 -1.15732 0)
(26.7939 -1.13703 -3.44974e-17)
(26.7894 -1.11684 3.45037e-17)
(26.7847 -1.09676 0)
(26.7798 -1.07678 0)
(26.7747 -1.05691 0)
(26.7693 -1.03716 -3.45312e-17)
(26.7638 -1.01753 3.45385e-17)
(26.758 -0.998027 0)
(26.7521 -0.978645 0)
(26.746 -0.959392 -3.45617e-17)
(26.7396 -0.940272 3.45697e-17)
(26.7331 -0.921287 0)
(26.7264 -0.90244 -1.72932e-17)
(26.7195 -0.883737 1.72975e-17)
(26.7125 -0.865181 0)
(26.7052 -0.846776 0)
(26.6978 -0.828527 0)
(26.6902 -0.810436 0)
(26.6825 -0.792506 0)
(26.6746 -0.77474 -8.66245e-18)
(26.6665 -0.757141 8.66484e-18)
(26.6583 -0.739712 0)
(26.6499 -0.722455 0)
(26.6413 -0.705374 0)
(26.6326 -0.688473 2.16871e-18)
(26.6239 -0.671767 -1.08467e-18)
(26.6153 -0.655313 -1.13848e-18)
(27.0106 -1.26302 3.69491e-17)
(27.0072 -1.24007 3.69554e-17)
(27.0035 -1.2172 -3.69618e-17)
(26.9995 -1.19443 0)
(26.9952 -1.17177 -3.69756e-17)
(26.9906 -1.14921 3.69828e-17)
(26.9858 -1.12677 -3.69904e-17)
(26.9808 -1.10445 7.39964e-17)
(26.9754 -1.08226 -3.70062e-17)
(26.9699 -1.06019 3.70146e-17)
(26.964 -1.03826 -3.70231e-17)
(26.9579 -1.01647 3.7032e-17)
(26.9516 -0.994817 8.36848e-23)
(26.945 -0.973318 8.62305e-23)
(26.9382 -0.951971 -3.70598e-17)
(26.9312 -0.930783 0)
(26.9239 -0.909757 1.85398e-17)
(26.9164 -0.888898 -1.85448e-17)
(26.9087 -0.868209 0)
(26.9007 -0.847696 1.85554e-17)
(26.8926 -0.827361 -3.71216e-17)
(26.8842 -0.807209 3.71327e-17)
(26.8756 -0.787244 -1.85719e-17)
(26.8669 -0.767469 0)
(26.8579 -0.747888 0)
(26.8487 -0.728504 9.2947e-18)
(26.8394 -0.709321 -9.29767e-18)
(26.8298 -0.690342 0)
(26.8201 -0.67157 -9.30381e-18)
(26.8103 -0.653007 9.30691e-18)
(26.8002 -0.634656 -4.65505e-18)
(26.7899 -0.616522 4.65663e-18)
(26.7795 -0.598608 0)
(26.769 -0.580933 0)
(26.7588 -0.56356 0)
(27.2159 -1.23992 3.96071e-17)
(27.2116 -1.21434 6.98362e-23)
(27.2071 -1.18888 -3.96233e-17)
(27.2022 -1.16353 0)
(27.197 -1.1383 -3.9641e-17)
(27.1915 -1.1132 3.96503e-17)
(27.1856 -1.08824 0)
(27.1795 -1.06342 0)
(27.173 -1.03875 0)
(27.1663 -1.01423 -3.96911e-17)
(27.1592 -0.989872 -1.02068e-22)
(27.1518 -0.96568 7.94265e-17)
(27.1442 -0.941661 -3.97248e-17)
(27.1363 -0.917819 0)
(27.128 -0.89416 0)
(27.1195 -0.87069 0)
(27.1108 -0.847415 1.98871e-17)
(27.1017 -0.824338 -1.98935e-17)
(27.0924 -0.801467 0)
(27.0829 -0.778805 -1.9907e-17)
(27.073 -0.756358 1.99139e-17)
(27.063 -0.73413 0)
(27.0526 -0.712126 -1.99282e-17)
(27.0421 -0.690351 1.99354e-17)
(27.0313 -0.668809 0)
(27.0203 -0.647504 9.9752e-18)
(27.0091 -0.62644 -9.97898e-18)
(26.9976 -0.605622 0)
(26.9859 -0.585052 0)
(26.9741 -0.564736 0)
(26.962 -0.544676 0)
(26.9497 -0.524876 -4.99945e-18)
(26.9372 -0.505343 5.00149e-18)
(26.9247 -0.486095 0)
(26.9123 -0.467203 0)
(27.4214 -1.19884 -4.24563e-17)
(27.4162 -1.17062 0)
(27.4106 -1.14253 0)
(27.4047 -1.11459 4.24885e-17)
(27.3984 -1.08681 -4.25e-17)
(27.3917 -1.05918 -4.25121e-17)
(27.3846 -1.03173 -1.11942e-22)
(27.3772 -1.00445 4.25371e-17)
(27.3694 -0.977348 0)
(27.3613 -0.95044 0)
(27.3528 -0.923728 2.1289e-17)
(27.344 -0.897219 -2.12961e-17)
(27.3348 -0.870921 0)
(27.3253 -0.844841 0)
(27.3155 -0.818984 2.13188e-17)
(27.3054 -0.793357 -4.26533e-17)
(27.2949 -0.767967 2.13347e-17)
(27.2842 -0.74282 -2.1343e-17)
(27.2731 -0.717921 2.13514e-17)
(27.2617 -0.693277 0)
(27.25 -0.668893 0)
(27.2381 -0.644775 0)
(27.2259 -0.620929 0)
(27.2134 -0.597359 0)
(27.2006 -0.57407 0)
(27.1876 -0.551068 -1.07074e-17)
(27.1743 -0.528358 1.07121e-17)
(27.1608 -0.505942 -1.0717e-17)
(27.147 -0.483827 1.07219e-17)
(27.133 -0.462017 0)
(27.1188 -0.440514 0)
(27.1043 -0.419324 -2.68428e-18)
(27.0896 -0.398454 2.68556e-18)
(27.0749 -0.377923 -1.34344e-18)
(27.0603 -0.357813 1.39387e-18)
(27.6375 -1.16262 -9.0995e-17)
(27.6313 -1.13139 -1.13489e-22)
(27.6246 -1.10031 9.10483e-17)
(27.6175 -1.06941 1.25168e-22)
(27.61 -1.03869 -2.27763e-17)
(27.602 -1.00817 -2.2784e-17)
(27.5936 -0.977835 -2.27919e-17)
(27.5848 -0.947712 4.55998e-17)
(27.5756 -0.917805 -2.28082e-17)
(27.5659 -0.888122 -2.28168e-17)
(27.5559 -0.858671 2.28255e-17)
(27.5454 -0.82946 -2.28347e-17)
(27.5346 -0.800499 4.56878e-17)
(27.5234 -0.771794 -2.28533e-17)
(27.5118 -0.743353 -2.28632e-17)
(27.4998 -0.715185 4.57461e-17)
(27.4875 -0.687296 -2.28831e-17)
(27.4748 -0.659695 -2.28936e-17)
(27.4617 -0.632387 4.58083e-17)
(27.4483 -0.605382 -1.14574e-17)
(27.4346 -0.578684 -2.29259e-17)
(27.4205 -0.552302 1.14685e-17)
(27.4061 -0.526242 -1.14742e-17)
(27.3914 -0.50051 2.29599e-17)
(27.3764 -0.475112 -2.29716e-17)
(27.3611 -0.450055 1.14917e-17)
(27.3455 -0.425343 -1.14978e-17)
(27.3296 -0.400984 5.75187e-18)
(27.3134 -0.376982 -3.04743e-23)
(27.297 -0.353342 -3.08836e-23)
(27.2803 -0.330069 1.15226e-17)
(27.2634 -0.307169 -8.6467e-18)
(27.2461 -0.28465 2.88384e-18)
(27.2289 -0.262534 1.44274e-18)
(27.2117 -0.240907 -1.49102e-18)
(27.8565 -1.11573 0)
(27.8491 -1.08138 0)
(27.8412 -1.04723 2.43932e-17)
(27.8328 -1.01328 -2.4402e-17)
(27.8239 -0.979542 2.44113e-17)
(27.8145 -0.946032 -4.88415e-17)
(27.8046 -0.912759 2.44305e-17)
(27.7943 -0.87973 0)
(27.7834 -0.846956 0)
(27.7721 -0.814447 0)
(27.7603 -0.782211 -2.44729e-17)
(27.7481 -0.750259 2.44841e-17)
(27.7354 -0.718599 0)
(27.7223 -0.687241 0)
(27.7088 -0.656194 0)
(27.6948 -0.625467 0)
(27.6804 -0.595069 0)
(27.6656 -0.565008 0)
(27.6504 -0.535294 -1.22854e-17)
(27.6348 -0.505933 -6.46986e-23)
(27.6188 -0.476936 1.22988e-17)
(27.6024 -0.448309 0)
(27.5857 -0.420061 -1.23128e-17)
(27.5686 -0.392199 1.23199e-17)
(27.5511 -0.364731 0)
(27.5333 -0.337664 0)
(27.5152 -0.311005 -6.17103e-18)
(27.4968 -0.28476 1.23496e-17)
(27.478 -0.258937 3.78754e-23)
(27.459 -0.233542 -1.2365e-17)
(27.4397 -0.208579 3.09316e-18)
(27.42 -0.184057 6.19033e-18)
(27.4001 -0.159984 -1.54856e-18)
(27.3801 -0.136384 -7.74785e-19)
(27.3601 -0.113353 -7.97563e-19)
(28.082 -1.06883 0)
(28.0733 -1.03111 0)
(28.064 -0.993624 0)
(28.0542 -0.956372 -2.61479e-17)
(28.0438 -0.91937 2.61593e-17)
(28.0329 -0.882627 -2.61712e-17)
(28.0214 -0.846156 2.61833e-17)
(28.0093 -0.809965 2.61959e-17)
(27.9968 -0.774068 -2.62087e-17)
(27.9837 -0.738474 0)
(27.97 -0.703194 0)
(27.9559 -0.66824 2.62497e-17)
(27.9412 -0.633621 -2.62639e-17)
(27.9261 -0.599349 0)
(27.9104 -0.565434 1.31468e-17)
(27.8943 -0.531887 -1.31544e-17)
(27.8776 -0.498718 0)
(27.8606 -0.465937 0)
(27.843 -0.433556 0)
(27.825 -0.401584 0)
(27.8065 -0.370031 0)
(27.7877 -0.338907 0)
(27.7684 -0.308222 0)
(27.7486 -0.277985 0)
(27.7285 -0.248207 6.61498e-18)
(27.708 -0.218894 -6.61947e-18)
(27.6871 -0.190058 0)
(27.6659 -0.161705 0)
(27.6443 -0.133845 0)
(27.6223 -0.106484 -3.31911e-18)
(27.6001 -0.0796319 -2.41159e-23)
(27.5774 -0.0532952 3.32362e-18)
(27.5545 -0.0274855 0)
(27.5314 -0.00222945 0)
(27.5084 0.0223716 0)
(28.3096 -1.01507 -2.79776e-17)
(28.2996 -0.973901 2.79903e-17)
(28.2889 -0.932989 0)
(28.2775 -0.892349 -2.80173e-17)
(28.2656 -0.851993 5.60627e-17)
(28.253 -0.811932 1.29807e-22)
(28.2398 -0.772178 -2.80608e-17)
(28.226 -0.732743 0)
(28.2116 -0.693639 0)
(28.1965 -0.654877 -2.81086e-17)
(28.1809 -0.616471 -1.54681e-22)
(28.1648 -0.578431 2.81422e-17)
(28.148 -0.540771 -1.408e-17)
(28.1307 -0.503502 -8.44768e-23)
(28.1128 -0.466637 2.81961e-17)
(28.0944 -0.430189 -1.41074e-17)
(28.0754 -0.394168 0)
(28.0559 -0.358589 -1.41267e-17)
(28.0358 -0.323463 1.41365e-17)
(28.0153 -0.288802 0)
(27.9942 -0.254619 0)
(27.9727 -0.220926 0)
(27.9506 -0.187735 -1.41781e-17)
(27.9281 -0.155058 7.09431e-18)
(27.9052 -0.122906 1.41997e-17)
(27.8817 -0.0912916 -1.42108e-17)
(27.8579 -0.0602249 7.11059e-18)
(27.8336 -0.029717 0)
(27.809 0.000221541 0)
(27.7839 0.0295806 -3.56227e-18)
(27.7585 0.0583503 3.56463e-18)
(27.7327 0.0865206 0)
(27.7065 0.114078 0)
(27.6801 0.140993 0)
(27.6538 0.167157 0)
(28.5401 -0.959542 1.2655e-22)
(28.5286 -0.914788 -2.9985e-17)
(28.5164 -0.870325 0)
(28.5035 -0.826163 -3.00181e-17)
(28.4899 -0.782316 -1.5133e-22)
(28.4756 -0.738794 -1.57417e-22)
(28.4606 -0.695611 6.01426e-17)
(28.445 -0.652778 -1.50449e-17)
(28.4287 -0.610309 -1.50546e-17)
(28.4117 -0.568217 0)
(28.394 -0.526514 -1.50748e-17)
(28.3758 -0.485215 1.50851e-17)
(28.3568 -0.444334 0)
(28.3372 -0.403883 -1.51067e-17)
(28.317 -0.363878 3.02355e-17)
(28.2962 -0.324333 -1.5129e-17)
(28.2748 -0.285263 -1.51407e-17)
(28.2527 -0.246682 3.03049e-17)
(28.2301 -0.208606 -1.51644e-17)
(28.2069 -0.17105 -1.51768e-17)
(28.1831 -0.134028 3.03783e-17)
(28.1587 -0.0975571 -7.60083e-18)
(28.1338 -0.0616512 -1.52141e-17)
(28.1083 -0.0263257 7.61205e-18)
(28.0823 0.00840426 7.61726e-18)
(28.0558 0.0425239 -1.5245e-17)
(28.0288 0.0760188 7.62738e-18)
(28.0013 0.108875 7.63162e-18)
(27.9733 0.141078 -1.14538e-17)
(27.9449 0.172615 7.6403e-18)
(27.9161 0.203472 -3.82241e-18)
(27.8868 0.233637 1.91239e-18)
(27.8571 0.263093 -1.91356e-18)
(27.8272 0.291807 0)
(27.7972 0.319661 0)
(28.7711 -0.899634 -3.21023e-17)
(28.7581 -0.851281 6.42425e-17)
(28.7443 -0.803245 -4.82113e-17)
(28.7298 -0.755537 -8.70743e-23)
(28.7145 -0.708167 1.60909e-17)
(28.6985 -0.661149 0)
(28.6817 -0.614494 1.61128e-17)
(28.6642 -0.568214 -1.6124e-17)
(28.646 -0.522324 0)
(28.627 -0.476837 -1.61476e-17)
(28.6073 -0.431767 1.61597e-17)
(28.5869 -0.387128 0)
(28.5658 -0.342937 0)
(28.5439 -0.29921 -1.61982e-17)
(28.5214 -0.255961 -1.25642e-22)
(28.4981 -0.21321 1.6225e-17)
(28.4742 -0.170972 0)
(28.4496 -0.129266 -1.62532e-17)
(28.4242 -0.088111 1.62675e-17)
(28.3983 -0.0475245 0)
(28.3716 -0.007526 8.14586e-18)
(28.3443 0.0318653 -1.6303e-17)
(28.3164 0.07063 8.15697e-18)
(28.2879 0.108749 -8.16129e-18)
(28.2587 0.146202 -7.88046e-23)
(28.229 0.182971 -8.02297e-23)
(28.1986 0.219035 8.17496e-18)
(28.1677 0.254377 4.08998e-18)
(28.1363 0.288978 -8.18499e-18)
(28.1044 0.322819 8.19022e-18)
(28.0719 0.355884 -4.09778e-18)
(28.0389 0.388154 0)
(28.0055 0.419609 -1.02586e-18)
(27.9718 0.45021 5.13283e-19)
(27.9379 0.479834 5.19861e-19)
(29.0019 -0.838011 -1.71929e-17)
(28.9874 -0.786069 0)
(28.9721 -0.734463 -1.72162e-17)
(28.956 -0.6832 1.72282e-17)
(28.9391 -0.632291 1.72408e-17)
(28.9213 -0.581746 -1.72535e-17)
(28.9028 -0.531578 0)
(28.8835 -0.481798 0)
(28.8634 -0.432419 -1.72941e-17)
(28.8425 -0.383456 1.73082e-17)
(28.8208 -0.334923 0)
(28.7983 -0.286836 0)
(28.775 -0.239213 0)
(28.751 -0.192071 0)
(28.7261 -0.145429 0)
(28.7004 -0.0993072 1.74005e-17)
(28.674 -0.0537262 -8.70792e-18)
(28.6468 -0.00870789 -8.71393e-18)
(28.6188 0.0357251 8.72013e-18)
(28.5901 0.0795496 -1.74508e-17)
(28.5606 0.122742 8.72961e-18)
(28.5303 0.165276 0)
(28.4993 0.207129 0)
(28.4676 0.248275 0)
(28.4352 0.288687 -8.74881e-18)
(28.402 0.328341 1.31311e-17)
(28.3682 0.36721 4.87823e-23)
(28.3338 0.40527 -4.38263e-18)
(28.2987 0.442495 0)
(28.263 0.478862 0)
(28.2267 0.514345 0)
(28.1898 0.548921 -2.19756e-18)
(28.1523 0.582563 3.29883e-18)
(28.1145 0.615227 -1.10047e-18)
(28.0765 0.64678 0)
(29.231 -0.774108 0)
(29.215 -0.718679 0)
(29.1982 -0.663592 -1.84438e-17)
(29.1806 -0.608853 -1.20649e-22)
(29.1621 -0.55447 1.84727e-17)
(29.1428 -0.50045 0)
(29.1226 -0.446804 0)
(29.1016 -0.393542 0)
(29.0798 -0.340677 0)
(29.057 -0.288222 0)
(29.0334 -0.236192 0)
(29.009 -0.184605 0)
(28.9837 -0.133478 0)
(28.9575 -0.082831 -9.31162e-18)
(28.9304 -0.0326866 1.86387e-17)
(28.9025 0.0169324 -9.32568e-18)
(28.8736 0.0660012 0)
(28.8439 0.114493 -9.33583e-18)
(28.8133 0.162382 9.33995e-18)
(28.7819 0.209636 0)
(28.7495 0.256228 0)
(28.7163 0.302124 0)
(28.6822 0.347293 0)
(28.6473 0.391701 0)
(28.6116 0.435314 0)
(28.575 0.478099 0)
(28.5376 0.520021 0)
(28.4995 0.561045 0)
(28.4605 0.601138 0)
(28.4209 0.640266 0)
(28.3806 0.678397 0)
(28.3395 0.715497 0)
(28.2977 0.751532 1.17831e-18)
(28.2556 0.786449 -1.1793e-18)
(28.2131 0.820104 0)
(29.4572 -0.709597 0)
(29.4399 -0.650838 0)
(29.4217 -0.592414 0)
(29.4027 -0.534326 0)
(29.3828 -0.476577 -1.9793e-17)
(29.3621 -0.419171 -1.49474e-22)
(29.3404 -0.362115 1.98287e-17)
(29.3179 -0.305418 0)
(29.2945 -0.249089 0)
(29.2701 -0.193141 0)
(29.2449 -0.137589 -9.95287e-18)
(29.2186 -0.0824497 1.9926e-17)
(29.1915 -0.0277429 -9.97153e-18)
(29.1634 0.0265096 0)
(29.1343 0.0802833 -9.9835e-18)
(29.1042 0.133551 -1.02876e-22)
(29.0732 0.186284 9.99092e-18)
(29.0411 0.238451 9.99524e-18)
(29.008 0.290016 1.1192e-22)
(28.974 0.340945 1.14977e-22)
(28.9389 0.391198 -1.00096e-17)
(28.9028 0.440735 0)
(28.8657 0.489514 0)
(28.8276 0.537492 0)
(28.7885 0.584624 -5.0168e-18)
(28.7485 0.630864 1.00403e-17)
(28.7074 0.676166 -5.02369e-18)
(28.6655 0.720484 0)
(28.6226 0.763771 0)
(28.5789 0.805982 2.51771e-18)
(28.5343 0.847071 -2.51978e-18)
(28.4888 0.886994 0)
(28.4425 0.925704 0)
(28.3957 0.963137 0)
(28.3485 0.999138 0)
(29.679 -0.644831 -2.11306e-17)
(29.6605 -0.582981 4.22983e-17)
(29.6411 -0.52144 -2.11681e-17)
(29.6209 -0.460204 -2.11878e-17)
(29.5998 -0.39927 -1.63775e-22)
(29.5779 -0.338636 1.06139e-17)
(29.555 -0.278305 1.06244e-17)
(29.5312 -0.21828 0)
(29.5065 -0.158568 0)
(29.4808 -0.0991801 -1.06574e-17)
(29.4541 -0.0401286 1.0668e-17)
(29.4265 0.0185698 -1.0675e-17)
(29.3977 0.076895 1.06799e-17)
(29.368 0.134824 0)
(29.3372 0.192329 0)
(29.3052 0.249381 -1.06898e-17)
(29.2722 0.305944 1.06937e-17)
(29.2381 0.361981 -1.06981e-17)
(29.2027 0.41745 1.07026e-17)
(29.1663 0.472306 -1.07078e-17)
(29.1286 0.526502 1.07131e-17)
(29.0898 0.579985 0)
(29.0498 0.632701 0)
(29.0086 0.684594 0)
(28.9663 0.735605 0)
(28.9227 0.785673 0)
(28.8781 0.834736 0)
(28.8322 0.882733 0)
(28.7853 0.929599 0)
(28.7373 0.975272 2.69512e-18)
(28.6883 1.01969 -2.69747e-18)
(28.6382 1.06279 0)
(28.5872 1.10452 0)
(28.5354 1.14479 0)
(28.483 1.18343 0)
(29.895 -0.58103 0)
(29.8755 -0.516388 0)
(29.8552 -0.452012 1.13393e-17)
(29.834 -0.387888 -1.13504e-17)
(29.812 -0.324003 0)
(29.7891 -0.26035 0)
(29.7653 -0.196923 0)
(29.7406 -0.133721 1.13976e-17)
(29.7149 -0.0707463 -1.141e-17)
(29.6882 -0.00800353 0)
(29.6605 0.0544966 0)
(29.6317 0.116739 0)
(29.6018 0.178706 -1.14299e-17)
(29.5708 0.240372 1.14324e-17)
(29.5386 0.30171 0)
(29.5052 0.362683 0)
(29.4706 0.423254 0)
(29.4347 0.483378 0)
(29.3974 0.543005 0)
(29.3589 0.602079 0)
(29.3189 0.660541 0)
(29.2776 0.718326 0)
(29.2349 0.775365 0)
(29.1908 0.831585 -5.74066e-18)
(29.1453 0.886909 5.74432e-18)
(29.0983 0.941256 0)
(29.05 0.994545 0)
(29.0003 1.04669 0)
(28.9493 1.09761 0)
(28.8969 1.14722 0)
(28.8432 1.19543 0)
(28.7883 1.24216 0)
(28.7322 1.28732 0)
(28.6751 1.33082 0)
(28.6173 1.37247 0)
(30.1037 -0.518846 0)
(30.0834 -0.45178 0)
(30.0623 -0.384914 1.21485e-17)
(30.0405 -0.318223 -1.21611e-17)
(30.0179 -0.251686 0)
(29.9944 -0.185284 1.21872e-17)
(29.9701 -0.119003 1.07083e-22)
(29.9448 -0.0528325 1.10509e-22)
(29.9186 0.0132322 1.14082e-22)
(29.8913 0.0791916 -1.2226e-17)
(29.863 0.145041 0)
(29.8336 0.21077 -1.2228e-17)
(29.803 0.276361 1.22294e-17)
(29.7712 0.341793 1.22315e-17)
(29.7381 0.407034 -1.22336e-17)
(29.7036 0.472049 0)
(29.6678 0.536793 0)
(29.6305 0.601215 6.12173e-18)
(29.5918 0.665258 -6.12375e-18)
(29.5515 0.728854 0)
(29.5097 0.791931 0)
(29.4662 0.854407 -6.13177e-18)
(29.4211 0.916197 6.1349e-18)
(29.3743 0.977207 -6.13853e-18)
(29.3258 1.03734 6.14228e-18)
(29.2756 1.09648 0)
(29.2237 1.15454 3.07554e-18)
(29.1701 1.21138 5.45751e-23)
(29.1149 1.26692 -3.0805e-18)
(29.0581 1.32101 3.08333e-18)
(28.9997 1.37356 -4.62935e-18)
(28.9397 1.42445 1.54466e-18)
(28.8782 1.47357 7.7317e-19)
(28.8155 1.52079 -7.74019e-19)
(28.7518 1.56589 0)
(30.3036 -0.459184 -1.2988e-17)
(30.2828 -0.39011 2.60034e-17)
(30.2614 -0.32115 -1.30156e-17)
(30.2392 -0.252265 0)
(30.2163 -0.183423 -1.30443e-17)
(30.1927 -0.114591 1.30588e-17)
(30.1682 -0.0457453 0)
(30.1428 0.0231363 0)
(30.1164 0.0920687 0)
(30.0891 0.161062 1.3082e-17)
(30.0607 0.230118 -1.30815e-17)
(30.0311 0.299234 0)
(30.0004 0.368398 0)
(29.9683 0.43759 0)
(29.9348 0.506782 0)
(29.8999 0.575937 6.5429e-18)
(29.8635 0.645007 -6.54393e-18)
(29.8254 0.713937 -6.54541e-18)
(29.7856 0.782658 6.547e-18)
(29.7441 0.851095 6.54908e-18)
(29.7008 0.919159 -6.5513e-18)
(29.6556 0.986753 0)
(29.6084 1.05377 0)
(29.5593 1.12009 0)
(29.5081 1.18559 0)
(29.4549 1.25013 0)
(29.3996 1.31357 0)
(29.3423 1.37577 0)
(29.2829 1.43657 -3.29179e-18)
(29.2215 1.49582 3.29469e-18)
(29.1581 1.55337 0)
(29.0928 1.60906 -1.65068e-18)
(29.0257 1.66274 1.65246e-18)
(28.957 1.71425 -4.13606e-19)
(28.8869 1.76335 4.08167e-19)
(30.4937 -0.402645 1.39138e-17)
(30.4726 -0.33202 0)
(30.4511 -0.261404 0)
(30.4289 -0.190745 0)
(30.4061 -0.119992 1.39763e-17)
(30.3827 -0.049101 -1.39924e-17)
(30.3585 0.0219688 0)
(30.3335 0.0932519 -7.0001e-18)
(30.3076 0.164777 6.99874e-18)
(30.2807 0.236566 0)
(30.2527 0.308633 0)
(30.2236 0.380985 6.99582e-18)
(30.1932 0.453617 -1.39903e-17)
(30.1615 0.526517 6.99469e-18)
(30.1283 0.599662 -6.99458e-18)
(30.0935 0.673017 6.99457e-18)
(30.057 0.746535 0)
(30.0188 0.820154 0)
(29.9787 0.893803 0)
(29.9365 0.967394 6.99795e-18)
(29.8923 1.04082 -6.99956e-18)
(29.8459 1.11398 0)
(29.7972 1.18673 0)
(29.7461 1.25892 -3.50365e-18)
(29.6926 1.33041 3.50533e-18)
(29.6367 1.40101 0)
(29.5782 1.47055 0)
(29.5172 1.53884 3.51215e-18)
(29.4537 1.60567 -3.51487e-18)
(29.3878 1.67085 0)
(29.3194 1.73416 0)
(29.2485 1.79541 0)
(29.1754 1.85438 0)
(29.1003 1.91087 0)
(29.0234 1.96458 0)
(30.6729 -0.349808 1.15885e-22)
(30.6519 -0.278115 1.16858e-22)
(30.6305 -0.206311 -1.49394e-17)
(30.6087 -0.134326 0)
(30.5864 -0.062094 0)
(30.5636 0.0104488 0)
(30.5402 0.0833591 7.49179e-18)
(30.516 0.156689 -7.48926e-18)
(30.491 0.230483 0)
(30.4651 0.304779 0)
(30.4381 0.379607 0)
(30.4101 0.454988 -7.48066e-18)
(30.3807 0.530929 -7.6221e-23)
(30.35 0.607432 7.47725e-18)
(30.3177 0.68448 0)
(30.2838 0.762046 -7.47493e-18)
(30.248 0.840087 7.47406e-18)
(30.2103 0.918544 0)
(30.1705 0.99734 7.4736e-18)
(30.1284 1.07638 -7.47379e-18)
(30.084 1.15555 3.73731e-18)
(30.037 1.23471 -3.73785e-18)
(29.9873 1.31372 3.73876e-18)
(29.9349 1.39239 -3.73982e-18)
(29.8796 1.47053 0)
(29.8213 1.54793 0)
(29.76 1.62436 3.74506e-18)
(29.6956 1.69957 -3.74736e-18)
(29.6282 1.77331 1.87509e-18)
(29.5576 1.8453 -1.87659e-18)
(29.484 1.91527 1.87837e-18)
(29.4075 1.98295 -9.401e-19)
(29.328 2.04806 -9.4118e-19)
(29.2461 2.11034 0)
(29.1617 2.16942 0)
(30.8405 -0.30104 0)
(30.8198 -0.228773 7.99295e-18)
(30.7989 -0.156264 -8.0021e-18)
(30.7778 -0.0834249 0)
(30.7565 -0.0101685 0)
(30.7347 0.0635867 0)
(30.7124 0.137918 0)
(30.6895 0.212897 0)
(30.666 0.288589 0)
(30.6416 0.365052 0)
(30.6163 0.442334 0)
(30.5899 0.520476 0)
(30.5622 0.599504 0)
(30.5332 0.679436 0)
(30.5026 0.760271 7.98778e-18)
(30.4702 0.841994 -7.98507e-18)
(30.4359 0.924574 0)
(30.3995 1.00796 0)
(30.3608 1.09207 0)
(30.3196 1.17681 0)
(30.2757 1.26206 0)
(30.2289 1.34766 0)
(30.179 1.43345 -3.98874e-18)
(30.1259 1.51922 3.98919e-18)
(30.0693 1.60472 3.99012e-18)
(30.0092 1.68971 -3.99127e-18)
(29.9455 1.77389 0)
(29.878 1.85695 0)
(29.8068 1.93857 0)
(29.7317 2.01838 0)
(29.6529 2.09603 0)
(29.5704 2.17117 0)
(29.4843 2.24341 0)
(29.395 2.31241 0)
(29.3027 2.37772 0)
(30.996 -0.256591 0)
(30.9759 -0.18424 -8.56169e-18)
(30.9559 -0.11151 1.71431e-17)
(30.9358 -0.0382924 -8.58146e-18)
(30.9156 0.0355197 0)
(30.8952 0.11003 8.57898e-18)
(30.8746 0.185337 -8.57353e-18)
(30.8535 0.261536 0)
(30.8318 0.338714 0)
(30.8095 0.416955 -8.55732e-18)
(30.7864 0.496331 8.55188e-18)
(30.7623 0.576907 -8.54663e-18)
(30.737 0.658734 8.54134e-18)
(30.7103 0.741851 -4.26817e-18)
(30.6821 0.826281 4.26568e-18)
(30.6521 0.912032 0)
(30.6201 0.999086 0)
(30.5858 1.08741 0)
(30.5491 1.17693 -4.25728e-18)
(30.5096 1.26756 8.51125e-18)
(30.4671 1.35918 6.06318e-23)
(30.4213 1.45162 -4.25314e-18)
(30.372 1.5447 0)
(30.319 1.63817 0)
(30.262 1.73176 0)
(30.2007 1.82516 -2.12628e-18)
(30.1351 1.91802 2.1267e-18)
(30.065 2.00995 2.12748e-18)
(29.9903 2.10053 -2.12843e-18)
(29.9109 2.1893 0)
(29.8269 2.2758 1.06569e-18)