/*--------------------------------*- C++ -*----------------------------------*\
  =========                 |
  \\      /  F ield         | OpenFOAM: The Open Source CFD Toolbox
   \\    /   O peration     | Website:  https://openfoam.org
    \\  /    A nd           | Version:  8
     \\/     M anipulation  |
\*---------------------------------------------------------------------------*/
FoamFile
{
    version     2.0;
    format      ascii;
    class       volScalarField;
    location    "0.02294";
    object      p;
}
// * * * * * * * * * * * * * * * * * * * * * * * * * * * * * * * * * * * * * //

dimensions      [0 2 -2 0 0 0 0];

internalField   nonuniform List<scalar> 
114832
(
2.35084
2.33224
2.31689
2.30211
2.28768
2.27317
2.2584
2.24339
2.22816
2.21271
2.19703
2.18112
2.165
2.14867
2.13215
2.11543
2.09852
2.08145
2.0642
2.0468
2.02924
2.01153
1.99369
1.97572
1.95761
1.93939
1.92105
1.9026
1.88405
1.8654
1.84665
1.82782
1.80889
1.78989
1.7708
1.75164
1.73241
1.71311
1.69374
1.67432
1.65483
1.63529
1.6157
1.59605
1.57635
1.55661
1.53682
1.51699
1.49711
1.4772
1.45725
1.43726
1.41723
1.39718
1.37709
1.35697
1.33681
1.31663
1.29642
1.27618
1.25592
1.23563
1.21531
1.19497
1.17461
1.15422
1.13381
1.11338
1.09293
1.07245
1.05195
1.03143
1.01089
0.990326
0.969744
0.949142
0.928514
0.907874
0.887209
0.866526
0.845818
0.825092
0.804346
0.783583
0.762794
0.74198
0.721156
0.700302
0.679429
0.658533
0.637614
0.616679
0.595716
0.57473
0.553721
0.532693
0.511638
0.490556
0.469452
0.448323
0.427167
0.405987
0.38478
0.363546
0.342286
0.321003
0.299687
0.278343
0.256971
0.235575
0.214143
0.192683
0.171194
0.149671
0.128127
0.106539
0.0849234
0.0632813
0.0416029
0.0198915
-0.00185688
-0.0236337
-0.0454466
-0.0672899
-0.0891758
-0.111091
-0.133043
-0.155033
-0.177056
-0.199116
-0.22121
-0.243342
-0.26551
-0.287713
-0.309958
-0.332238
-0.354554
-0.376909
-0.399302
-0.421732
-0.444192
-0.466695
-0.489236
-0.511809
-0.534423
-0.557071
-0.579755
-0.602472
-0.625229
-0.648016
-0.67084
-0.693697
-0.716588
-0.739505
-0.762453
-0.785434
-0.808444
-0.831484
-0.854549
-0.877636
-0.900745
-0.92388
-0.947036
-0.970217
-0.993409
-1.01662
-1.03984
-1.06307
-1.08631
-1.10955
-1.13279
-1.15604
-1.17929
-1.20253
-1.22576
-1.24897
-1.27217
-1.29534
-1.31849
-1.34161
-1.3647
-1.38774
-1.41075
-1.4337
-1.4566
-1.47945
-1.50222
-1.52493
-1.54757
-1.57014
-1.59264
-1.61505
-1.63743
-1.65976
-1.68205
-1.70426
-1.72673
-1.75011
-1.77492
-1.80503
2.36055
2.34255
2.32657
2.31107
2.29634
2.28188
2.26729
2.25246
2.23738
2.22208
2.20654
2.19077
2.17479
2.15858
2.14217
2.12557
2.10876
2.09178
2.07462
2.05729
2.0398
2.02216
2.00437
1.98644
1.96837
1.95018
1.93186
1.91342
1.89488
1.87623
1.85747
1.83863
1.81968
1.80065
1.78153
1.76233
1.74306
1.7237
1.70428
1.68479
1.66524
1.64563
1.62595
1.60622
1.58643
1.5666
1.54671
1.52677
1.50679
1.48676
1.46669
1.44658
1.42643
1.40625
1.38602
1.36576
1.34547
1.32514
1.30478
1.28439
1.26397
1.24352
1.22304
1.20254
1.18201
1.16144
1.14086
1.12025
1.09962
1.07895
1.05827
1.03756
1.01683
0.996076
0.975299
0.954497
0.933673
0.912829
0.891962
0.87107
0.850157
0.829221
0.808265
0.787286
0.766283
0.745256
0.724212
0.70314
0.682047
0.66093
0.639791
0.618628
0.597442
0.57623
0.554995
0.533737
0.512453
0.491145
0.469807
0.448451
0.42706
0.405652
0.38421
0.362746
0.341253
0.319733
0.298186
0.276607
0.255003
0.23337
0.211707
0.190013
0.16829
0.146535
0.124754
0.102937
0.0810901
0.0592127
0.037304
0.015361
-0.00661424
-0.0286231
-0.050663
-0.072736
-0.0948447
-0.116988
-0.139164
-0.161375
-0.183619
-0.205901
-0.228213
-0.250565
-0.272949
-0.295367
-0.31782
-0.340314
-0.362838
-0.385399
-0.407996
-0.430625
-0.453291
-0.47599
-0.498726
-0.521493
-0.544295
-0.567129
-0.59
-0.612899
-0.635831
-0.658793
-0.681788
-0.704814
-0.727867
-0.750946
-0.774051
-0.797183
-0.820345
-0.843529
-0.866733
-0.889953
-0.913198
-0.93646
-0.959739
-0.983032
-1.00634
-1.02965
-1.05297
-1.07629
-1.09962
-1.12295
-1.14628
-1.16959
-1.1929
-1.2162
-1.23948
-1.26274
-1.28597
-1.30917
-1.33234
-1.35549
-1.37857
-1.40162
-1.42462
-1.44756
-1.47044
-1.49325
-1.51599
-1.53866
-1.56125
-1.58376
-1.60621
-1.62858
-1.6509
-1.67315
-1.69536
-1.71771
-1.74087
-1.76565
-1.7917
-1.82131
2.3659
2.35187
2.33624
2.32032
2.30513
2.29055
2.27609
2.26144
2.24652
2.23137
2.21598
2.20036
2.18451
2.16844
2.15216
2.13567
2.11897
2.10209
2.08502
2.06778
2.05036
2.03279
2.01505
1.99718
1.97915
1.961
1.94271
1.92429
1.90576
1.88712
1.86836
1.84951
1.83055
1.8115
1.79235
1.77312
1.7538
1.7344
1.71493
1.69538
1.67576
1.65608
1.63633
1.61652
1.59665
1.57671
1.55673
1.53669
1.51661
1.49647
1.47629
1.45605
1.43578
1.41546
1.39511
1.37471
1.35428
1.3338
1.3133
1.29275
1.27218
1.25157
1.23093
1.21025
1.18955
1.16882
1.14805
1.12726
1.10645
1.0856
1.06473
1.04383
1.02291
1.00196
0.98098
0.959981
0.938954
0.917904
0.896829
0.875729
0.854605
0.833454
0.812285
0.791087
0.769868
0.748619
0.727353
0.70606
0.684739
0.6634
0.642029
0.620641
0.599222
0.577781
0.556315
0.534824
0.513305
0.491762
0.47019
0.448597
0.42697
0.405324
0.383645
0.361942
0.34021
0.318452
0.296665
0.274851
0.253004
0.231135
0.209228
0.187299
0.165335
0.143343
0.121325
0.0992672
0.0771852
0.0550691
0.0329271
0.0107466
-0.0114634
-0.0337051
-0.0559778
-0.0782836
-0.100624
-0.122993
-0.145398
-0.167838
-0.190309
-0.212809
-0.235347
-0.257919
-0.28052
-0.303158
-0.325829
-0.348532
-0.37127
-0.39404
-0.416841
-0.439678
-0.462543
-0.485442
-0.508372
-0.531334
-0.554328
-0.577348
-0.6004
-0.623483
-0.646591
-0.669732
-0.692895
-0.716089
-0.739301
-0.762541
-0.785802
-0.80909
-0.832395
-0.855723
-0.87906
-0.902416
-0.925788
-0.949175
-0.972573
-0.995977
-1.01939
-1.0428
-1.06622
-1.08964
-1.11305
-1.13645
-1.15985
-1.18323
-1.2066
-1.22995
-1.25328
-1.27656
-1.29983
-1.32306
-1.34625
-1.36939
-1.39249
-1.41553
-1.43851
-1.46143
-1.48428
-1.50705
-1.52975
-1.55237
-1.57491
-1.59737
-1.61976
-1.64207
-1.66432
-1.6865
-1.70871
-1.73148
-1.75559
-1.78131
-1.8071
-1.8308
2.36944
2.35953
2.34556
2.32981
2.31421
2.29934
2.28486
2.27035
2.25561
2.24062
2.22539
2.20991
2.19421
2.17828
2.16212
2.14576
2.12918
2.1124
2.09543
2.07828
2.06095
2.04344
2.02577
2.00795
1.98998
1.97187
1.95362
1.93523
1.91672
1.89808
1.87933
1.86047
1.84151
1.82243
1.80327
1.78401
1.76465
1.74522
1.72569
1.70609
1.68641
1.66666
1.64684
1.62696
1.607
1.58698
1.5669
1.54677
1.52658
1.50633
1.48603
1.46568
1.44528
1.42484
1.40436
1.38382
1.36324
1.34263
1.32197
1.30128
1.28054
1.25977
1.23897
1.21813
1.19725
1.17635
1.15541
1.13444
1.11343
1.0924
1.07134
1.05025
1.02913
1.00798
0.9868
0.965599
0.944365
0.923104
0.901821
0.880505
0.859168
0.8378
0.816412
0.794991
0.773548
0.752076
0.730582
0.70906
0.687513
0.665939
0.644338
0.622714
0.601062
0.579385
0.55768
0.53595
0.514192
0.492408
0.470598
0.44876
0.426894
0.405002
0.383082
0.361135
0.339159
0.317156
0.295123
0.273063
0.250973
0.228858
0.206709
0.184531
0.162326
0.140089
0.117825
0.0955277
0.0732027
0.0508429
0.0284588
0.00603868
-0.0164083
-0.0388919
-0.0614001
-0.083944
-0.10652
-0.129122
-0.151761
-0.174432
-0.19713
-0.219862
-0.242625
-0.265418
-0.288246
-0.311101
-0.333992
-0.35691
-0.379864
-0.402843
-0.425854
-0.448896
-0.471966
-0.495064
-0.518195
-0.541348
-0.564535
-0.587748
-0.61098
-0.634242
-0.657533
-0.680845
-0.704181
-0.72754
-0.750919
-0.774312
-0.797729
-0.821164
-0.844619
-0.86808
-0.891558
-0.915045
-0.938543
-0.962052
-0.985563
-1.00907
-1.03259
-1.0561
-1.07961
-1.10312
-1.12661
-1.15008
-1.17355
-1.19699
-1.22041
-1.24381
-1.26718
-1.2905
-1.31379
-1.33704
-1.36024
-1.38339
-1.40648
-1.4295
-1.45247
-1.47536
-1.49817
-1.5209
-1.54356
-1.56612
-1.58861
-1.61101
-1.63333
-1.65558
-1.67776
-1.69992
-1.72239
-1.74584
-1.77086
-1.79658
-1.82005
-1.83752
2.37451
2.36601
2.35398
2.33917
2.32355
2.30832
2.29367
2.27921
2.26463
2.24981
2.23474
2.21942
2.20387
2.18808
2.17207
2.15583
2.13938
2.12271
2.10585
2.08879
2.07155
2.05413
2.03654
2.01878
2.00087
1.9828
1.96459
1.94623
1.92775
1.90913
1.89039
1.87154
1.85256
1.83348
1.8143
1.79502
1.77564
1.75616
1.73659
1.71694
1.69721
1.67739
1.6575
1.63754
1.61751
1.5974
1.57724
1.557
1.53671
1.51636
1.49595
1.47548
1.45496
1.43439
1.41377
1.3931
1.37239
1.35162
1.33082
1.30997
1.28908
1.26815
1.24718
1.22617
1.20512
1.18404
1.16292
1.14176
1.12058
1.09936
1.0781
1.05681
1.03549
1.01414
0.992762
0.971349
0.949908
0.928435
0.906934
0.885405
0.863848
0.842257
0.820642
0.798999
0.777329
0.755626
0.733901
0.712145
0.690364
0.668553
0.646715
0.624851
0.602959
0.581038
0.559092
0.537117
0.515116
0.493085
0.471027
0.448943
0.426828
0.404688
0.382519
0.36032
0.338096
0.315841
0.29356
0.271247
0.248908
0.22654
0.204141
0.181713
0.159259
0.136772
0.114259
0.0917112
0.0691387
0.0465346
0.0239019
0.00123442
-0.0214578
-0.0441803
-0.0669349
-0.0897204
-0.112533
-0.135378
-0.158251
-0.181157
-0.204089
-0.227055
-0.250049
-0.273071
-0.296121
-0.319204
-0.342316
-0.365453
-0.38862
-0.411817
-0.435041
-0.458289
-0.481563
-0.504867
-0.528194
-0.551547
-0.574926
-0.598327
-0.621748
-0.645196
-0.668664
-0.692148
-0.715658
-0.739178
-0.762719
-0.786276
-0.809844
-0.833429
-0.857025
-0.880623
-0.904237
-0.927857
-0.951475
-0.975099
-0.998722
-1.02235
-1.04596
-1.06957
-1.09316
-1.11675
-1.14032
-1.16386
-1.18739
-1.21089
-1.23436
-1.2578
-1.28119
-1.30455
-1.32786
-1.35112
-1.37432
-1.39746
-1.42054
-1.44355
-1.46649
-1.48935
-1.51212
-1.53481
-1.55741
-1.57992
-1.60234
-1.62468
-1.64694
-1.66912
-1.69126
-1.71354
-1.7365
-1.76077
-1.7861
-1.81062
-1.8313
-1.84684
2.38075
2.37201
2.36139
2.34801
2.33289
2.31751
2.30261
2.28809
2.2736
2.25894
2.24404
2.22889
2.21349
2.19786
2.18198
2.16588
2.14956
2.13301
2.11627
2.09932
2.08217
2.06484
2.04733
2.02964
2.0118
1.99378
1.97562
1.95731
1.93886
1.92027
1.90154
1.8827
1.86373
1.84464
1.82545
1.80615
1.78674
1.76723
1.74762
1.72792
1.70814
1.68827
1.66831
1.64828
1.62817
1.60798
1.58773
1.5674
1.547
1.52655
1.50603
1.48545
1.46481
1.44411
1.42336
1.40256
1.3817
1.36079
1.33984
1.31883
1.29779
1.27669
1.25556
1.23438
1.21316
1.1919
1.1706
1.14926
1.12788
1.10647
1.08502
1.06353
1.04201
1.02045
0.998861
0.977241
0.955583
0.933898
0.912176
0.890426
0.868643
0.846829
0.824986
0.803113
0.781208
0.759271
0.737311
0.715315
0.693295
0.671242
0.649162
0.627051
0.604915
0.582745
0.560552
0.538327
0.516074
0.493794
0.471481
0.449145
0.426776
0.404382
0.381955
0.359504
0.337022
0.314511
0.291974
0.269403
0.246809
0.224182
0.201529
0.178844
0.156134
0.13339
0.110624
0.0878217
0.0649934
0.0421375
0.0192519
-0.00366291
-0.0266073
-0.0495789
-0.0725824
-0.0956099
-0.118672
-0.141756
-0.164876
-0.188017
-0.211188
-0.234391
-0.257619
-0.280872
-0.304155
-0.327463
-0.350799
-0.37416
-0.397547
-0.420958
-0.444397
-0.467858
-0.491341
-0.514851
-0.538377
-0.561929
-0.585503
-0.609093
-0.632704
-0.656335
-0.679983
-0.703645
-0.727321
-0.751007
-0.774708
-0.798424
-0.822145
-0.845878
-0.869614
-0.893352
-0.917099
-0.940844
-0.964582
-0.988321
-1.01205
-1.03578
-1.05949
-1.08319
-1.10687
-1.13053
-1.15417
-1.17779
-1.20137
-1.22492
-1.24843
-1.2719
-1.29533
-1.31871
-1.34203
-1.36529
-1.38849
-1.41163
-1.43469
-1.45767
-1.48057
-1.50339
-1.52611
-1.54875
-1.57129
-1.59373
-1.6161
-1.63837
-1.66057
-1.68269
-1.70489
-1.7275
-1.7511
-1.77586
-1.80067
-1.82323
-1.84198
-1.85818
2.38736
2.37794
2.36807
2.3561
2.34195
2.32678
2.31169
2.29702
2.28256
2.26802
2.25328
2.2383
2.22306
2.20758
2.19186
2.17591
2.15972
2.14331
2.12668
2.10985
2.09281
2.07557
2.05815
2.04055
2.02277
2.00482
1.98671
1.96845
1.95003
1.93148
1.91278
1.89395
1.87499
1.8559
1.8367
1.81739
1.79796
1.77842
1.75878
1.73905
1.71921
1.69929
1.67927
1.65917
1.63898
1.61872
1.59837
1.57796
1.55747
1.53691
1.51628
1.49558
1.47482
1.454
1.43312
1.41218
1.39119
1.37014
1.34903
1.32788
1.30667
1.28541
1.26411
1.24276
1.22136
1.19992
1.17844
1.15691
1.13534
1.11374
1.09209
1.0704
1.04867
1.02691
1.00511
0.983274
0.961399
0.939493
0.91755
0.895572
0.873564
0.85152
0.829441
0.807332
0.785191
0.763016
0.740813
0.718574
0.696308
0.674008
0.651681
0.62932
0.60693
0.584512
0.562058
0.539583
0.51707
0.494533
0.471962
0.449366
0.426737
0.404082
0.381394
0.358682
0.335934
0.313167
0.290361
0.267533
0.244673
0.221784
0.198869
0.175922
0.15295
0.129945
0.106916
0.0838559
0.0607691
0.037654
0.0145083
-0.00866313
-0.0318602
-0.0550879
-0.0783429
-0.101622
-0.124933
-0.148268
-0.171631
-0.195017
-0.218434
-0.241872
-0.265339
-0.288829
-0.312345
-0.335886
-0.359448
-0.383034
-0.406648
-0.430276
-0.453932
-0.477603
-0.501302
-0.525015
-0.548749
-0.572498
-0.596269
-0.620048
-0.643849
-0.667664
-0.691488
-0.715324
-0.739174
-0.76303
-0.786892
-0.810759
-0.834636
-0.858513
-0.88239
-0.906263
-0.93014
-0.954004
-0.977868
-1.00172
-1.02555
-1.04938
-1.07319
-1.09697
-1.12073
-1.14447
-1.16817
-1.19184
-1.21548
-1.23907
-1.26262
-1.28612
-1.30957
-1.33296
-1.35629
-1.37955
-1.40274
-1.42586
-1.4489
-1.47185
-1.49471
-1.51748
-1.54015
-1.56273
-1.5852
-1.60759
-1.62988
-1.65209
-1.67422
-1.69636
-1.71875
-1.74183
-1.76597
-1.79068
-1.81425
-1.83487
-1.85272
-1.87028
2.39388
2.38399
2.37434
2.36347
2.35051
2.33594
2.32088
2.30606
2.29153
2.27707
2.26247
2.24765
2.23259
2.21727
2.20171
2.1859
2.16986
2.15359
2.13709
2.12037
2.10345
2.08631
2.06899
2.05147
2.03378
2.0159
1.99786
1.97965
1.96128
1.94276
1.92409
1.90529
1.88634
1.86727
1.84806
1.82874
1.8093
1.78974
1.77007
1.7503
1.73042
1.71045
1.69037
1.67021
1.64996
1.62961
1.60919
1.58868
1.5681
1.54744
1.5267
1.50589
1.48502
1.46407
1.44306
1.42199
1.40086
1.37966
1.3584
1.3371
1.31573
1.29431
1.27284
1.25132
1.22975
1.20812
1.18645
1.16474
1.14298
1.12117
1.09932
1.07743
1.0555
1.03352
1.01151
0.989453
0.96736
0.945229
0.923059
0.900852
0.878608
0.856331
0.834014
0.811666
0.789283
0.766863
0.744412
0.721925
0.69941
0.676855
0.654275
0.631658
0.609011
0.586332
0.56362
0.54088
0.518107
0.495305
0.47247
0.449608
0.426712
0.40379
0.380836
0.357853
0.33484
0.3118
0.288728
0.265628
0.242501
0.219342
0.19616
0.172942
0.149704
0.126432
0.103135
0.0798077
0.0564571
0.0330786
0.00966883
-0.0137624
-0.037224
-0.0607108
-0.0842234
-0.107761
-0.131324
-0.154912
-0.178526
-0.202163
-0.225824
-0.249509
-0.273217
-0.296947
-0.320701
-0.344474
-0.368271
-0.392088
-0.415922
-0.439778
-0.46365
-0.48754
-0.511449
-0.535368
-0.55931
-0.583262
-0.607228
-0.631201
-0.65519
-0.679188
-0.703189
-0.727202
-0.751224
-0.775247
-0.799268
-0.823292
-0.847317
-0.871338
-0.895352
-0.919363
-0.943363
-0.967351
-0.991326
-1.01529
-1.03923
-1.06315
-1.08704
-1.11091
-1.13474
-1.15855
-1.18231
-1.20604
-1.22972
-1.25335
-1.27693
-1.30046
-1.32392
-1.34732
-1.37065
-1.3939
-1.41707
-1.44017
-1.46317
-1.48609
-1.5089
-1.53162
-1.55423
-1.57674
-1.59915
-1.62147
-1.64369
-1.66583
-1.68795
-1.7102
-1.73291
-1.75647
-1.78083
-1.80488
-1.82686
-1.84603
-1.86383
-1.88244
2.40008
2.39003
2.38036
2.37023
2.35843
2.34476
2.33004
2.31518
2.30057
2.28611
2.27162
2.25696
2.24206
2.22691
2.21151
2.19587
2.17998
2.16385
2.14748
2.1309
2.11409
2.09708
2.07985
2.06243
2.04482
2.02702
2.00905
1.9909
1.97259
1.95412
1.93549
1.91671
1.89779
1.87873
1.85954
1.84021
1.82076
1.80118
1.78149
1.76169
1.74177
1.72175
1.70163
1.6814
1.66108
1.64067
1.62016
1.59957
1.5789
1.55814
1.53729
1.51638
1.49539
1.47433
1.45318
1.43198
1.41071
1.38937
1.36796
1.3465
1.32498
1.30339
1.28175
1.26006
1.23831
1.2165
1.19465
1.17274
1.15078
1.12878
1.10673
1.08463
1.06248
1.04029
1.01806
0.995786
0.973469
0.951109
0.928705
0.906268
0.883784
0.861269
0.838711
0.816115
0.793487
0.770816
0.748112
0.725373
0.702598
0.679789
0.656946
0.634066
0.611157
0.588211
0.565236
0.542225
0.519184
0.496112
0.473006
0.449871
0.426703
0.403507
0.380277
0.357021
0.333733
0.310415
0.287071
0.263693
0.240291
0.216856
0.193396
0.169908
0.146391
0.122848
0.0992783
0.0756776
0.0520565
0.0284049
0.00472786
-0.0189695
-0.0427007
-0.0664486
-0.0902279
-0.114028
-0.13785
-0.161697
-0.185564
-0.209458
-0.233369
-0.257305
-0.281259
-0.305232
-0.329229
-0.35324
-0.377272
-0.401319
-0.425383
-0.449463
-0.473558
-0.497667
-0.521791
-0.545921
-0.570066
-0.594221
-0.618384
-0.642552
-0.666736
-0.690913
-0.7151
-0.739284
-0.763473
-0.78766
-0.811845
-0.836019
-0.860193
-0.884356
-0.908508
-0.932647
-0.956773
-0.980875
-1.00497
-1.02903
-1.05307
-1.07708
-1.10106
-1.125
-1.14891
-1.17278
-1.1966
-1.22037
-1.24409
-1.26776
-1.29136
-1.3149
-1.33837
-1.36178
-1.3851
-1.40834
-1.43149
-1.45455
-1.47752
-1.50038
-1.52314
-1.5458
-1.56835
-1.5908
-1.61313
-1.63537
-1.65753
-1.67964
-1.7018
-1.72426
-1.74735
-1.77123
-1.79533
-1.81824
-1.83867
-1.85698
-1.87512
-1.89429
2.40593
2.39604
2.38633
2.37656
2.36574
2.3531
2.33901
2.32432
2.30966
2.29518
2.28075
2.26622
2.25148
2.2365
2.22127
2.20579
2.19006
2.17408
2.15786
2.14141
2.12474
2.10784
2.09073
2.07342
2.0559
2.03819
2.02029
2.00222
1.98397
1.96555
1.94697
1.92823
1.90933
1.89029
1.87111
1.85179
1.83233
1.81275
1.79304
1.77321
1.75326
1.7332
1.71303
1.69275
1.67237
1.65188
1.63131
1.61063
1.58987
1.56901
1.54807
1.52705
1.50594
1.48476
1.46349
1.44215
1.42074
1.39927
1.37771
1.3561
1.33441
1.31267
1.29086
1.26898
1.24706
1.22507
1.20302
1.18093
1.15877
1.13656
1.11431
1.092
1.06964
1.04723
1.02478
1.00228
0.979729
0.957135
0.9345
0.91182
0.8891
0.866336
0.843533
0.820686
0.797804
0.77488
0.751918
0.728917
0.70588
0.682807
0.659698
0.636551
0.613369
0.590155
0.566904
0.54362
0.520305
0.496952
0.473571
0.450155
0.426709
0.40323
0.379723
0.356181
0.332613
0.309013
0.285383
0.261727
0.23804
0.214324
0.190582
0.166812
0.143015
0.11919
0.0953399
0.071463
0.0475634
0.0236342
-0.000315778
-0.0242925
-0.0482901
-0.0723133
-0.0963568
-0.120426
-0.144516
-0.168624
-0.192754
-0.216902
-0.241074
-0.265262
-0.289465
-0.31369
-0.337931
-0.362183
-0.386452
-0.410737
-0.43503
-0.459341
-0.483659
-0.50799
-0.532327
-0.556673
-0.581029
-0.605383
-0.629744
-0.65411
-0.67848
-0.702847
-0.72721
-0.751572
-0.775926
-0.800279
-0.824618
-0.848952
-0.873266
-0.897575
-0.921856
-0.946122
-0.97037
-0.994588
-1.01878
-1.04295
-1.06709
-1.09118
-1.11524
-1.13926
-1.16323
-1.18715
-1.21103
-1.23484
-1.2586
-1.28229
-1.30591
-1.32946
-1.35294
-1.37633
-1.39964
-1.42285
-1.44598
-1.469
-1.49191
-1.51473
-1.53743
-1.56003
-1.5825
-1.60488
-1.62714
-1.64931
-1.67142
-1.69354
-1.71583
-1.73856
-1.76197
-1.78586
-1.80924
-1.83081
-1.85
-1.86803
-1.88655
-1.90579
2.41144
2.40192
2.39226
2.38265
2.37249
2.36089
2.34764
2.33335
2.31877
2.30428
2.28987
2.27544
2.26085
2.24604
2.23098
2.21567
2.2001
2.18429
2.16822
2.15191
2.13538
2.11861
2.10162
2.08442
2.06701
2.04939
2.03158
2.01358
1.9954
1.97705
1.95852
1.93982
1.92096
1.90195
1.88279
1.86348
1.84402
1.82443
1.80472
1.78486
1.76489
1.74479
1.72458
1.70425
1.68382
1.66327
1.64262
1.62186
1.60102
1.58007
1.55903
1.5379
1.51668
1.49538
1.47399
1.45252
1.43098
1.40935
1.38766
1.36588
1.34404
1.32213
1.30015
1.27811
1.25599
1.23382
1.21159
1.18929
1.16694
1.14453
1.12206
1.09954
1.07696
1.05434
1.03166
1.00893
0.986147
0.96332
0.940444
0.917522
0.894554
0.871541
0.848483
0.825384
0.802241
0.779056
0.755832
0.732563
0.709261
0.685915
0.662532
0.639112
0.615655
0.59216
0.568632
0.545066
0.521465
0.497832
0.474164
0.450463
0.42673
0.402964
0.379166
0.355339
0.331479
0.30759
0.283673
0.259724
0.235749
0.211744
0.187712
0.163652
0.13957
0.115455
0.0913206
0.067158
0.0429713
0.0187637
-0.00547068
-0.0297266
-0.0540044
-0.0783034
-0.102623
-0.126963
-0.151322
-0.175703
-0.200097
-0.22451
-0.248941
-0.273385
-0.297847
-0.322324
-0.34681
-0.371311
-0.39582
-0.420344
-0.444877
-0.469415
-0.493959
-0.518515
-0.543069
-0.56763
-0.592193
-0.616755
-0.641315
-0.665882
-0.690434
-0.714985
-0.739529
-0.764065
-0.788589
-0.813104
-0.837599
-0.86208
-0.886542
-0.910986
-0.935403
-0.959791
-0.984154
-1.00849
-1.03279
-1.05705
-1.08127
-1.10545
-1.12959
-1.15368
-1.17771
-1.20168
-1.2256
-1.24945
-1.27323
-1.29694
-1.32057
-1.34413
-1.3676
-1.39098
-1.41426
-1.43745
-1.46053
-1.48351
-1.50637
-1.52913
-1.55177
-1.57429
-1.59669
-1.61899
-1.64118
-1.6633
-1.68539
-1.70756
-1.73005
-1.75306
-1.7766
-1.80011
-1.82246
-1.84268
-1.86113
-1.87923
-1.89796
-1.91697
2.41669
2.40766
2.39817
2.3886
2.37886
2.36811
2.3558
2.34215
2.32784
2.31339
2.29901
2.28465
2.27018
2.25553
2.24064
2.2255
2.21011
2.19446
2.17855
2.1624
2.14601
2.12938
2.11252
2.09543
2.07814
2.06063
2.04291
2.025
2.0069
1.98861
1.97014
1.9515
1.93268
1.9137
1.89457
1.87528
1.85583
1.83625
1.81652
1.79666
1.77666
1.75654
1.73629
1.71591
1.69542
1.67481
1.65409
1.63327
1.61234
1.5913
1.57017
1.54894
1.52761
1.50619
1.48468
1.46309
1.4414
1.41964
1.3978
1.37587
1.35387
1.33179
1.30964
1.28742
1.26513
1.24277
1.22034
1.19785
1.1753
1.15268
1.13
1.10727
1.08447
1.06162
1.03871
1.01575
0.992731
0.969663
0.946543
0.923373
0.900154
0.876883
0.853571
0.830208
0.806804
0.78335
0.759856
0.736319
0.712737
0.689117
0.665455
0.641752
0.618014
0.594232
0.570419
0.546563
0.522675
0.498749
0.474789
0.450794
0.426767
0.402706
0.378613
0.354487
0.330333
0.306145
0.281933
0.257685
0.233415
0.209113
0.184785
0.160431
0.13605
0.111644
0.0872158
0.0627589
0.0382845
0.0137834
-0.0107356
-0.0352808
-0.0598438
-0.084425
-0.109026
-0.133644
-0.158282
-0.182932
-0.207601
-0.232283
-0.256977
-0.281687
-0.306406
-0.331139
-0.355879
-0.380627
-0.405385
-0.430149
-0.45492
-0.479692
-0.504469
-0.529242
-0.554022
-0.578797
-0.603568
-0.628339
-0.653101
-0.677861
-0.702605
-0.727338
-0.752065
-0.776773
-0.801463
-0.826136
-0.850789
-0.875416
-0.90002
-0.924601
-0.949148
-0.973659
-0.998138
-1.02258
-1.04698
-1.07133
-1.09564
-1.11989
-1.1441
-1.16825
-1.19233
-1.21635
-1.24031
-1.26419
-1.28799
-1.31172
-1.33535
-1.3589
-1.38236
-1.40572
-1.42897
-1.45212
-1.47516
-1.49808
-1.52089
-1.54358
-1.56614
-1.58859
-1.61092
-1.63313
-1.65527
-1.67734
-1.69946
-1.72175
-1.74444
-1.76762
-1.79102
-1.81381
-1.83496
-1.85414
-1.87225
-1.89059
-1.90937
-1.92794
2.42167
2.41316
2.40397
2.39449
2.38497
2.37485
2.36345
2.35059
2.33674
2.32247
2.30815
2.29384
2.27948
2.26497
2.25026
2.23529
2.22007
2.20459
2.18885
2.17286
2.15662
2.14014
2.12341
2.10646
2.08928
2.07189
2.05428
2.03646
2.01844
2.00023
1.98183
1.96325
1.94449
1.92555
1.90645
1.88718
1.86776
1.84819
1.82846
1.80859
1.78858
1.76842
1.74814
1.72773
1.70719
1.68653
1.66575
1.64485
1.62384
1.60272
1.5815
1.56016
1.53873
1.5172
1.49557
1.47385
1.45203
1.43013
1.40814
1.38606
1.3639
1.34166
1.31934
1.29694
1.27447
1.25192
1.2293
1.20661
1.18385
1.16103
1.13814
1.11518
1.09216
1.06908
1.04594
1.02274
0.999482
0.976171
0.952801
0.929377
0.905903
0.882373
0.858798
0.835167
0.811492
0.787768
0.763996
0.740181
0.716321
0.692413
0.66847
0.644475
0.620448
0.596375
0.572265
0.548114
0.52393
0.499704
0.475446
0.45115
0.426821
0.402457
0.378062
0.353631
0.329174
0.304681
0.280162
0.255611
0.231037
0.206427
0.1818
0.157139
0.132457
0.107752
0.0830196
0.0582669
0.0334934
0.00869388
-0.0161195
-0.0409571
-0.0658091
-0.0906816
-0.115571
-0.140472
-0.165392
-0.190324
-0.215268
-0.240224
-0.26519
-0.290166
-0.315154
-0.340143
-0.365138
-0.390142
-0.41515
-0.440159
-0.465166
-0.490176
-0.515185
-0.540187
-0.565187
-0.590183
-0.615164
-0.64014
-0.665105
-0.690059
-0.714994
-0.739916
-0.764813
-0.789698
-0.814552
-0.839388
-0.864188
-0.888967
-0.913708
-0.938419
-0.963094
-0.987724
-1.01231
-1.03686
-1.06135
-1.08579
-1.11018
-1.13451
-1.15877
-1.18298
-1.20711
-1.23117
-1.25516
-1.27906
-1.30288
-1.32661
-1.35024
-1.37378
-1.39722
-1.42055
-1.44376
-1.46687
-1.48985
-1.51272
-1.53546
-1.55807
-1.58056
-1.60292
-1.62518
-1.64733
-1.6694
-1.69147
-1.71364
-1.73609
-1.75893
-1.78211
-1.80505
-1.82688
-1.8469
-1.86539
-1.88344
-1.90196
-1.92061
-1.93869
2.42637
2.41839
2.40963
2.40033
2.39094
2.38124
2.3706
2.35859
2.34538
2.33144
2.31725
2.30302
2.28875
2.27438
2.25982
2.24503
2.22998
2.21468
2.19912
2.1833
2.16722
2.15089
2.13431
2.1175
2.10045
2.08317
2.06568
2.04796
2.03004
2.01192
1.99359
1.97507
1.95637
1.93749
1.91843
1.8992
1.8798
1.86024
1.84052
1.82065
1.80063
1.78046
1.76015
1.73971
1.71913
1.69841
1.67757
1.65661
1.63553
1.61433
1.59301
1.57158
1.55005
1.52841
1.50666
1.48481
1.46287
1.44082
1.41869
1.39646
1.37414
1.35173
1.32924
1.30667
1.28401
1.26128
1.23846
1.21557
1.19261
1.16957
1.14647
1.12329
1.10004
1.07673
1.05335
1.02991
1.00641
0.982848
0.959222
0.935545
0.911808
0.888012
0.864168
0.840265
0.816315
0.792311
0.768257
0.744159
0.720007
0.695814
0.671573
0.647286
0.622959
0.598588
0.574175
0.549724
0.525232
0.500703
0.476136
0.45153
0.426893
0.402217
0.377509
0.35277
0.327997
0.303196
0.278362
0.2535
0.228611
0.203692
0.178748
0.153782
0.128786
0.103773
0.0787334
0.0536727
0.0285948
0.00349239
-0.021623
-0.0467618
-0.0719131
-0.0970767
-0.122261
-0.147454
-0.17266
-0.197877
-0.223104
-0.24834
-0.273582
-0.298832
-0.324085
-0.349342
-0.3746
-0.39986
-0.425118
-0.450376
-0.475629
-0.500875
-0.526118
-0.551352
-0.576573
-0.601788
-0.626986
-0.652168
-0.677333
-0.702481
-0.727607
-0.752712
-0.777789
-0.802842
-0.827862
-0.852857
-0.877809
-0.902728
-0.927606
-0.952448
-0.977242
-1.00199
-1.02668
-1.05132
-1.07591
-1.10043
-1.1249
-1.14929
-1.17362
-1.19787
-1.22204
-1.24614
-1.27014
-1.29407
-1.31789
-1.34162
-1.36524
-1.38876
-1.41217
-1.43546
-1.45864
-1.48169
-1.50461
-1.52741
-1.55007
-1.57261
-1.59502
-1.6173
-1.63947
-1.66156
-1.6836
-1.70569
-1.72795
-1.75052
-1.77342
-1.79634
-1.81856
-1.83935
-1.85847
-1.8766
-1.89476
-1.91331
-1.93161
-1.94921
2.43081
2.42337
2.41508
2.40607
2.3968
2.38736
2.37733
2.36613
2.35365
2.34021
2.32628
2.31217
2.298
2.28375
2.26933
2.25471
2.23985
2.22473
2.20935
2.1937
2.17779
2.16162
2.1452
2.12853
2.11162
2.09448
2.0771
2.0595
2.04168
2.02365
2.00541
1.98698
1.96834
1.94952
1.9305
1.91132
1.89195
1.87241
1.85271
1.83285
1.81282
1.79264
1.77232
1.75184
1.73122
1.71047
1.68958
1.66855
1.6474
1.62612
1.60472
1.58321
1.56156
1.53982
1.51795
1.49598
1.47391
1.45173
1.42945
1.40707
1.38459
1.36202
1.33936
1.31661
1.29377
1.27084
1.24783
1.22474
1.20157
1.17832
1.15499
1.13159
1.10812
1.08457
1.06095
1.03727
1.01351
0.989702
0.965818
0.941877
0.917871
0.893808
0.869685
0.845511
0.821272
0.796986
0.772643
0.748252
0.723806
0.699315
0.674774
0.650185
0.625553
0.600874
0.576155
0.551392
0.526586
0.50174
0.476861
0.451937
0.426982
0.401986
0.376963
0.3519
0.326806
0.301683
0.276531
0.251347
0.226137
0.200899
0.175636
0.15035
0.125037
0.0997063
0.0743499
0.0489789
0.0235811
-0.00182542
-0.0272536
-0.0526949
-0.0781539
-0.103621
-0.129105
-0.154592
-0.180097
-0.205601
-0.231117
-0.256636
-0.28216
-0.307688
-0.333212
-0.358737
-0.384263
-0.409783
-0.435299
-0.460804
-0.486307
-0.511796
-0.537274
-0.562739
-0.588189
-0.613621
-0.63903
-0.664424
-0.689791
-0.715135
-0.740452
-0.765735
-0.790996
-0.816215
-0.841397
-0.866547
-0.891648
-0.916708
-0.94172
-0.966684
-0.991599
-1.01645
-1.04125
-1.06598
-1.09066
-1.11526
-1.13979
-1.16425
-1.18862
-1.21292
-1.23713
-1.26125
-1.28527
-1.3092
-1.33302
-1.35674
-1.38034
-1.40384
-1.42721
-1.45046
-1.47358
-1.49657
-1.51943
-1.54215
-1.56474
-1.58719
-1.60951
-1.63171
-1.65381
-1.67585
-1.69788
-1.72001
-1.74236
-1.76499
-1.78775
-1.81018
-1.83153
-1.85134
-1.86981
-1.88783
-1.90613
-1.92457
-1.94245
-1.95954
2.43497
2.42803
2.42027
2.41166
2.40258
2.39334
2.38372
2.37322
2.36151
2.34869
2.33515
2.32124
2.30721
2.29307
2.2788
2.26435
2.24966
2.23473
2.21953
2.20407
2.18833
2.17234
2.15608
2.13956
2.1228
2.1058
2.08855
2.07107
2.05337
2.03544
2.0173
1.99894
1.98039
1.96163
1.94268
1.92354
1.90421
1.88471
1.86503
1.84518
1.82515
1.80497
1.78463
1.76414
1.74349
1.72269
1.70176
1.68068
1.65946
1.63811
1.61663
1.59502
1.57329
1.55143
1.52946
1.50737
1.48516
1.46285
1.44043
1.4179
1.39527
1.37253
1.3497
1.32677
1.30375
1.28063
1.25742
1.23413
1.21074
1.18728
1.16373
1.1401
1.11639
1.09261
1.06875
1.04482
1.02081
0.996735
0.972593
0.948381
0.924103
0.899768
0.875361
0.8509
0.826376
0.801796
0.77716
0.752467
0.727724
0.702922
0.678077
0.653178
0.628233
0.603239
0.578201
0.553118
0.527992
0.502826
0.47762
0.452371
0.42709
0.401767
0.376413
0.351024
0.325602
0.300148
0.274665
0.249152
0.223613
0.198046
0.172459
0.14684
0.121206
0.0955456
0.0698687
0.0441727
0.018458
-0.00726822
-0.0330168
-0.0587688
-0.0845379
-0.110318
-0.136103
-0.161898
-0.187701
-0.213505
-0.239312
-0.265122
-0.290935
-0.316739
-0.342545
-0.368344
-0.394137
-0.419921
-0.445696
-0.471461
-0.497209
-0.522941
-0.548658
-0.574359
-0.600034
-0.625689
-0.651313
-0.676914
-0.702486
-0.728025
-0.753532
-0.779
-0.80443
-0.82982
-0.855161
-0.880463
-0.905709
-0.930909
-0.956048
-0.981136
-1.00616
-1.03112
-1.05602
-1.08084
-1.1056
-1.13027
-1.15486
-1.17938
-1.20379
-1.22813
-1.25236
-1.2765
-1.30053
-1.32446
-1.34827
-1.37198
-1.39555
-1.41901
-1.44234
-1.46553
-1.4886
-1.51152
-1.5343
-1.55694
-1.57944
-1.60181
-1.62404
-1.64616
-1.6682
-1.69019
-1.71224
-1.73442
-1.75681
-1.77939
-1.80181
-1.82354
-1.84397
-1.86299
-1.88111
-1.89915
-1.91746
-1.9356
-1.95301
-1.96964
2.43882
2.43239
2.42517
2.41703
2.40826
2.39918
2.38986
2.37992
2.36895
2.35682
2.34378
2.3302
2.31634
2.30235
2.28822
2.27393
2.25942
2.24467
2.22966
2.21439
2.19884
2.18302
2.16694
2.15058
2.13398
2.11712
2.10002
2.08267
2.06508
2.04727
2.02923
2.01097
1.9925
1.97383
1.95494
1.93586
1.91658
1.89712
1.87747
1.85763
1.83762
1.81745
1.7971
1.77659
1.75592
1.73509
1.71411
1.69298
1.67171
1.65029
1.62873
1.60704
1.58522
1.56326
1.54118
1.51897
1.49664
1.47419
1.45163
1.42895
1.40616
1.38327
1.36026
1.33715
1.31395
1.29064
1.26723
1.24373
1.22014
1.19646
1.17269
1.14883
1.12488
1.10086
1.07675
1.05256
1.0283
1.00396
0.979548
0.955065
0.93051
0.905889
0.881198
0.856443
0.831628
0.806747
0.781808
0.756812
0.731756
0.706647
0.681483
0.656265
0.631
0.605681
0.58032
0.554907
0.529455
0.503955
0.478416
0.452833
0.427217
0.401559
0.375867
0.350138
0.324381
0.298586
0.272767
0.246914
0.221038
0.195133
0.169206
0.143257
0.117284
0.0912933
0.0652842
0.0392562
0.013216
-0.0128405
-0.0389096
-0.0649868
-0.0910748
-0.117169
-0.143269
-0.169375
-0.195482
-0.221589
-0.247697
-0.273804
-0.299904
-0.326
-0.352085
-0.378165
-0.40423
-0.430284
-0.456322
-0.482344
-0.508344
-0.534326
-0.560282
-0.586212
-0.612121
-0.637992
-0.66384