/*--------------------------------*- C++ -*----------------------------------*\
  =========                 |
  \\      /  F ield         | OpenFOAM: The Open Source CFD Toolbox
   \\    /   O peration     | Website:  https://openfoam.org
    \\  /    A nd           | Version:  8
     \\/     M anipulation  |
\*---------------------------------------------------------------------------*/
FoamFile
{
    version     2.0;
    format      ascii;
    class       volScalarField;
    location    "2.1";
    object      p;
}
// * * * * * * * * * * * * * * * * * * * * * * * * * * * * * * * * * * * * * //

dimensions      [0 2 -2 0 0 0 0];

internalField   nonuniform List<scalar> 
248760
(
0.129209
0.129162
0.128948
0.128641
0.128229
0.127717
0.12711
0.126414
0.125632
0.124769
0.123828
0.122813
0.121728
0.120577
0.119361
0.118085
0.116752
0.115364
0.113925
0.112438
0.110904
0.109327
0.107709
0.106053
0.104361
0.102635
0.100879
0.0990932
0.097281
0.0954443
0.0935851
0.0917055
0.0898074
0.0878927
0.0859634
0.0840212
0.0820679
0.0801052
0.0781347
0.076158
0.0741767
0.0721923
0.0702061
0.0682196
0.066234
0.0642507
0.0622709
0.0602957
0.0583262
0.0563637
0.0544091
0.0524634
0.0505275
0.0486023
0.0466885
0.044787
0.0428985
0.0410237
0.0391632
0.0373178
0.0354879
0.0336742
0.031877
0.030097
0.0283345
0.0265901
0.024864
0.0231567
0.0214683
0.0197995
0.0181502
0.0165208
0.0149115
0.0133227
0.0117542
0.0102066
0.00867965
0.00717377
0.00568885
0.00422517
0.00278261
0.00136142
-3.85408e-05
-0.00141705
-0.00277429
-0.00411004
-0.00542454
-0.00671756
-0.00798936
-0.00923974
-0.010469
-0.0116769
-0.0128637
-0.0140294
-0.0151741
-0.0162977
-0.0174006
-0.0184826
-0.019544
-0.0205845
-0.0216047
-0.0226043
-0.0235836
-0.0245426
-0.0254814
-0.0264
-0.0272988
-0.0281774
-0.0290363
-0.0298752
-0.0306945
-0.0314939
-0.0322738
-0.0330338
-0.0337743
-0.0344947
-0.0351945
-0.0358756
-0.0365541
-0.037222
0.129223
0.129176
0.128963
0.128656
0.128245
0.127733
0.127127
0.126431
0.12565
0.124787
0.123846
0.122832
0.121748
0.120597
0.119382
0.118107
0.116774
0.115387
0.113948
0.112461
0.110928
0.109351
0.107734
0.106079
0.104387
0.102662
0.100906
0.0991213
0.0973096
0.0954734
0.0936147
0.0917355
0.0898379
0.0879237
0.0859948
0.084053
0.0821001
0.0801377
0.0781676
0.0761912
0.0742102
0.0722261
0.0702402
0.0682539
0.0662686
0.0642855
0.0623059
0.0603308
0.0583616
0.0563991
0.0544447
0.052499
0.0505632
0.048638
0.0467243
0.0448228
0.0429343
0.0410595
0.039199
0.0373535
0.0355236
0.0337097
0.0319125
0.0301323
0.0283698
0.0266251
0.0248989
0.0231913
0.0215029
0.0198337
0.0181842
0.0165546
0.0149451
0.013356
0.0117873
0.0102393
0.00871207
0.00720582
0.00572058
0.00425651
0.0028136
0.001392
-8.35583e-06
-0.00138731
-0.00274498
-0.00408122
-0.00539618
-0.00668973
-0.00796204
-0.00921299
-0.0104428
-0.0116513
-0.0128388
-0.0140051
-0.0151505
-0.0162749
-0.0173786
-0.0184614
-0.0195236
-0.0205651
-0.0215863
-0.0225869
-0.0235674
-0.0245275
-0.0254677
-0.0263877
-0.027288
-0.0281683
-0.029029
-0.0298699
-0.0306914
-0.0314932
-0.0322757
-0.0330386
-0.0337822
-0.0345062
-0.0352098
-0.0358954
-0.0365792
-0.0372511
0.129247
0.1292
0.128989
0.128682
0.128272
0.12776
0.127155
0.12646
0.12568
0.124818
0.123879
0.122865
0.121782
0.120632
0.119418
0.118144
0.116812
0.115426
0.113988
0.112502
0.11097
0.109394
0.107778
0.106123
0.104433
0.102709
0.100954
0.0991698
0.0973591
0.0955237
0.0936658
0.0917875
0.0898906
0.0879771
0.0860489
0.0841078
0.0821555
0.0801938
0.0782242
0.0762484
0.0742679
0.0722842
0.0702987
0.0683128
0.0663278
0.0643451
0.0623657
0.0603909
0.0584218
0.0564596
0.0545051
0.0525597
0.0506238
0.0486987
0.0467849
0.0448834
0.0429947
0.0411199
0.0392592
0.0374136
0.0355833
0.0337693
0.0319717
0.0301913
0.0284283
0.0266834
0.0249567
0.0232488
0.0215598
0.0198903
0.0182402
0.0166102
0.0150001
0.0134104
0.0118411
0.0102926
0.00876464
0.00725783
0.00577183
0.00430715
0.00286344
0.00144118
3.99865e-05
-0.00133968
-0.00269823
-0.00403523
-0.00535111
-0.00664547
-0.00791875
-0.00917057
-0.0104014
-0.0116108
-0.0127994
-0.0139667
-0.0151133
-0.0162387
-0.0173436
-0.0184275
-0.019491
-0.0205338
-0.0215563
-0.0225583
-0.0235402
-0.0245018
-0.0254435
-0.0263652
-0.0272671
-0.0281492
-0.0290118
-0.0298546
-0.0306782
-0.0314822
-0.0322671
-0.0330324
-0.0337788
-0.0345056
-0.0352123
-0.0359012
-0.0365888
-0.0372647
0.129283
0.129237
0.129027
0.128721
0.128312
0.127802
0.127198
0.126504
0.125725
0.124864
0.123926
0.122914
0.121832
0.120683
0.119471
0.118198
0.116868
0.115483
0.114047
0.112563
0.111032
0.109458
0.107843
0.10619
0.104501
0.102778
0.101024
0.0992417
0.0974322
0.0955981
0.0937415
0.0918643
0.0899686
0.0880562
0.0861291
0.084189
0.0822377
0.0802768
0.0783081
0.0763331
0.0743534
0.0723704
0.0703856
0.0684003
0.0664158
0.0644335
0.0624546
0.0604802
0.0585114
0.0565494
0.0545952
0.0526498
0.0507141
0.048789
0.0468752
0.0449736
0.043085
0.0412099
0.0393491
0.0375032
0.0356727
0.0338583
0.0320605
0.0302796
0.0285162
0.0267708
0.0250436
0.0233351
0.0216456
0.0199754
0.0183247
0.0166939
0.0150831
0.0134926
0.0119226
0.0103731
0.00884446
0.00733662
0.00584983
0.00438405
0.00293948
0.00151605
0.000113934
-0.00126697
-0.00262651
-0.00396483
-0.00528177
-0.00657753
-0.00785195
-0.00910525
-0.0103373
-0.0115483
-0.0127382
-0.0139072
-0.0150552
-0.0161824
-0.0172888
-0.0183747
-0.0194399
-0.0204848
-0.0215091
-0.0225134
-0.0234974
-0.0244615
-0.0254055
-0.0263299
-0.0272344
-0.0281195
-0.028985
-0.0298312
-0.030658
-0.0314658
-0.0322543
-0.0330239
-0.0337744
-0.0345058
-0.0352171
-0.0359112
-0.036604
-0.0372858
0.12933
0.129286
0.129077
0.128772
0.128364
0.127856
0.127253
0.126561
0.125784
0.124925
0.123989
0.122979
0.121899
0.120752
0.119541
0.11827
0.116942
0.115559
0.114125
0.112642
0.111114
0.109541
0.107928
0.106277
0.10459
0.102869
0.101117
0.0993364
0.0975287
0.0956962
0.0938412
0.0919656
0.0900714
0.0881605
0.0862348
0.084296
0.0823459
0.0803863
0.0784187
0.0764448
0.074466
0.0724839
0.0704999
0.0685154
0.0665317
0.06455
0.0625716
0.0605977
0.0586293
0.0566676
0.0547136
0.0527685
0.0508328
0.0489078
0.046994
0.0450924
0.0432035
0.0413283
0.0394672
0.037621
0.0357901
0.0339753
0.0321769
0.0303956
0.0286316
0.0268855
0.0251576
0.0234484
0.021758
0.020087
0.0184354
0.0168037
0.0151919
0.0136004
0.0120293
0.0104787
0.00894886
0.00743984
0.00595179
0.00448474
0.00303884
0.00161405
0.000210523
-0.00117182
-0.00253286
-0.00387271
-0.00519124
-0.00648861
-0.0077647
-0.00901971
-0.0102535
-0.0114664
-0.0126581
-0.013829
-0.014979
-0.0161083
-0.0172168
-0.0183048
-0.0193722
-0.0204194
-0.0214461
-0.0224528
-0.0234394
-0.024406
-0.0253528
-0.02628
-0.0271874
-0.0280755
-0.0289441
-0.0297935
-0.0306237
-0.0314349
-0.032227
-0.0330003
-0.0337546
-0.03449
-0.0352055
-0.0359039
-0.0366011
-0.0372876
0.129389
0.129346
0.129139
0.128836
0.12843
0.127923
0.127323
0.126632
0.125857
0.125
0.124066
0.123058
0.121981
0.120836
0.119628
0.118359
0.117033
0.115653
0.114221
0.112741
0.111214
0.109645
0.108034
0.106385
0.1047
0.102982
0.101232
0.0994533
0.0976477
0.0958174
0.0939644
0.0920907
0.0901984
0.0882893
0.0863653
0.0844281
0.0824796
0.0805215
0.0785553
0.0765826
0.0746051
0.0726241
0.0706412
0.0686576
0.0666747
0.0646938
0.0627161
0.0607428
0.0587749
0.0568136
0.05486
0.0529149
0.0509795
0.0490544
0.0471407
0.0452389
0.04335
0.0414744
0.0396131
0.0377664
0.0359352
0.0341198
0.0323209
0.0305388
0.0287742
0.0270272
0.0252985
0.0235883
0.0218971
0.0202249
0.0185723
0.0169393
0.0153265
0.0137336
0.0121613
0.0106093
0.00907816
0.0075676
0.00607814
0.00460946
0.00316205
0.00173554
0.000330405
-0.00105376
-0.0024165
-0.00375826
-0.00507859
-0.00637796
-0.00765597
-0.00891308
-0.0101489
-0.011364
-0.0125578
-0.0137311
-0.0148833
-0.016015
-0.0171259
-0.0182165
-0.0192865
-0.0203363
-0.0213658
-0.0223754
-0.0233647
-0.0243345
-0.0252843
-0.0262147
-0.0271254
-0.0280169
-0.028889
-0.0297421
-0.0305759
-0.0313911
-0.0321871
-0.0329645
-0.0337231
-0.0344629
-0.0351828
-0.0358858
-0.0365878
-0.0372792
0.129458
0.129417
0.129212
0.128911
0.128507
0.128003
0.127404
0.126717
0.125944
0.12509
0.124158
0.123153
0.122078
0.120936
0.11973
0.118465
0.117142
0.115764
0.114335
0.112858
0.111334
0.109767
0.108159
0.106513
0.104831
0.103115
0.101368
0.0995921
0.097789
0.0959611
0.0941105
0.0922391
0.090349
0.088442
0.08652
0.0845849
0.0826382
0.0806818
0.0787173
0.0767462
0.0747701
0.0727905
0.0708087
0.0688263
0.0668445
0.0648645
0.0628876
0.060915
0.0589477
0.0569869
0.0550335
0.0530888
0.0511535
0.0492286
0.0473148
0.0454129
0.0435238
0.041648
0.0397862
0.0379392
0.0361073
0.0342914
0.0324917
0.0307089
0.0289433
0.0271955
0.0254657
0.0237545
0.022062
0.0203887
0.0187348
0.0171006
0.0154862
0.013892
0.012318
0.0107646
0.00923165
0.00771953
0.00622818
0.00475783
0.00330842
0.00188013
0.000472888
-0.000913152
-0.00227811
-0.00362184
-0.0049445
-0.00624595
-0.00752639
-0.00878568
-0.0100241
-0.0112414
-0.0124379
-0.0136135
-0.0147685
-0.0159027
-0.0170165
-0.0181097
-0.0191827
-0.0202353
-0.0212678
-0.0222803
-0.0232729
-0.0242456
-0.0251988
-0.0261323
-0.0270465
-0.0279412
-0.0288169
-0.0296734
-0.030511
-0.0313296
-0.0321294
-0.0329104
-0.0336729
-0.0344163
-0.0351402
-0.0358469
-0.036553
-0.0372482
0.129539
0.1295
0.129296
0.128998
0.128596
0.128094
0.127499
0.126814
0.126044
0.125193
0.124264
0.123262
0.12219
0.121051
0.119849
0.118586
0.117266
0.115892
0.114467
0.112992
0.111472
0.109908
0.108304
0.106661
0.104982
0.103269
0.101525
0.0997521
0.0979519
0.0961269
0.094279
0.0924103
0.0905227
0.0886182
0.0866986
0.0847657
0.0828212
0.0808668
0.0789042
0.0769349
0.0749605
0.0729824
0.0710021
0.069021
0.0670403
0.0650614
0.0630855
0.0611136
0.0591471
0.0571868
0.055234
0.0532895
0.0513544
0.0494295
0.0475158
0.0456138
0.0437244
0.0418483
0.0399862
0.0381385
0.0363061
0.0344894
0.032689
0.0309052
0.0291387
0.0273898
0.0256589
0.0239464
0.0222527
0.020578
0.0189226
0.0172868
0.0156709
0.014075
0.0124993
0.010944
0.00940922
0.00789514
0.00640183
0.00492941
0.0034779
0.00204744
0.000637983
-0.000750343
-0.00211763
-0.00346375
-0.00478884
-0.00609279
-0.00737576
-0.00863765
-0.00987866
-0.0110987
-0.012298
-0.0134764
-0.0146342
-0.0157713
-0.0168881
-0.0179843
-0.0190603
-0.020116
-0.0211517
-0.0221673
-0.0231632
-0.0241392
-0.0250958
-0.0260327
-0.0269503
-0.0278486
-0.0287278
-0.0295878
-0.0304291
-0.0312513
-0.0320549
-0.0328396
-0.0336058
-0.034353
-0.0350807
-0.0357911
-0.036501
-0.0372001
0.129629
0.129593
0.129392
0.129096
0.128697
0.128198
0.127606
0.126924
0.126157
0.125309
0.124384
0.123385
0.122317
0.121181
0.119983
0.118724
0.117408
0.116037
0.114615
0.113145
0.111628
0.110068
0.108467
0.106828
0.105152
0.103443
0.101703
0.099933
0.0981361
0.0963143
0.0944695
0.0926038
0.0907192
0.0888175
0.0869005
0.0849702
0.0830281
0.081076
0.0791156
0.0771483
0.0751758
0.0731995
0.0712208
0.0692412
0.0672619
0.0652842
0.0633093
0.0613384
0.0593726
0.057413
0.0554606
0.0535166
0.0515816
0.049657
0.0477431
0.0458411
0.0439514
0.042075
0.0402123
0.0383642
0.036531
0.0347136
0.0329121
0.0311275
0.0293598
0.0276098
0.0258775
0.0241637
0.0224684
0.0207923
0.0191352
0.0174978
0.0158799
0.0142822
0.0127045
0.0111473
0.00961036
0.00809423
0.0065986
0.005124
0.00367005
0.00223727
0.000825269
-0.000565495
-0.00193544
-0.00328411
-0.00461196
-0.00591857
-0.0072044
-0.00846905
-0.00971301
-0.0109359
-0.0121382
-0.0133196
-0.0144805
-0.0156207
-0.0167406
-0.01784
-0.0189193
-0.0199782
-0.0210172
-0.0220361
-0.0230354
-0.0240148
-0.0249747
-0.025915
-0.0268361
-0.0277378
-0.0286205
-0.029484
-0.0303287
-0.0311543
-0.0319614
-0.0327495
-0.0335191
-0.0342696
-0.0350006
-0.0357143
-0.0364275
-0.0371297
0.12973
0.129696
0.129498
0.129205
0.12881
0.128314
0.127725
0.127046
0.126283
0.125438
0.124517
0.123522
0.122457
0.121326
0.120131
0.118877
0.117565
0.116198
0.11478
0.113314
0.111802
0.110246
0.108649
0.107014
0.105342
0.103637
0.1019
0.100134
0.0983411
0.0965228
0.0946815
0.0928192
0.0909378
0.0890393
0.0871253
0.0851978
0.0832584
0.0813089
0.0793509
0.0773859
0.0754155
0.0734412
0.0714644
0.0694864
0.0675086
0.0655322
0.0635586
0.0615887
0.0596238
0.0576649
0.0557131
0.0537694
0.0518349
0.0499102
0.0479964
0.0460942
0.0442043
0.0423275
0.0404644
0.0386155
0.0367817
0.0349633
0.033161
0.0313751
0.0296063
0.0278549
0.0261213
0.0244059
0.0227091
0.0210311
0.0193723
0.0177329
0.0161132
0.0145133
0.0129336
0.011374
0.00983492
0.0083163
0.00681837
0.00534112
0.00388475
0.0024492
0.00103465
-0.000359013
-0.00173161
-0.0030833
-0.00441391
-0.00572363
-0.00701232
-0.00828019
-0.00952709
-0.0107533
-0.0119586
-0.0131434
-0.0143074
-0.015451
-0.0165741
-0.017677
-0.0187595
-0.019822
-0.0208643
-0.0218868
-0.0228894
-0.0238724
-0.0248356
-0.0257796
-0.026704
-0.0276093
-0.0284953
-0.0293624
-0.0302104
-0.0310396
-0.0318498
-0.0326414
-0.0334142
-0.0341681
-0.0349021
-0.0356191
-0.0363351
-0.0370405
0.129841
0.12981
0.129615
0.129325
0.128933
0.128441
0.127855
0.127181
0.126421
0.125581
0.124663
0.123673
0.122612
0.121485
0.120295
0.119045
0.117737
0.116375
0.114962
0.1135
0.111992
0.110441
0.108849
0.107218
0.105551
0.10385
0.102117
0.100356
0.0985664
0.0967521
0.0949147
0.0930561
0.0911783
0.0892831
0.0873725
0.0854481
0.0835118
0.0815651
0.0796097
0.0776473
0.0756792
0.0737071
0.0717323
0.0697561
0.06778
0.0658051
0.0638328
0.0618641
0.0599002
0.0579421
0.055991
0.0540478
0.0521134
0.050189
0.0482752
0.0463729
0.0444827
0.0426055
0.0407417
0.0388923
0.0370576
0.0352383
0.0334348
0.0316478
0.0298776
0.0281248
0.0263897
0.0246726
0.022974
0.0212942
0.0196334
0.017992
0.0163701
0.014768
0.0131859
0.011624
0.0100824
0.0085612
0.00706061
0.00558067
0.0041215
0.00268312
0.00126564
-0.000130977
-0.00150662
-0.00286137
-0.00419512
-0.00550802
-0.00679995
-0.00807107
-0.0093213
-0.0105508
-0.0117596
-0.0129477
-0.0141152
-0.0152623
-0.0163889
-0.0174953
-0.0185813
-0.0196473
-0.0206932
-0.0217192
-0.0227253
-0.0237119
-0.0246787
-0.0256261
-0.026554
-0.0274628
-0.0283523
-0.0292227
-0.0300741
-0.0309066
-0.0317201
-0.0325149
-0.0332908
-0.0340477
-0.0347847
-0.0355044
-0.0362232
-0.0369312
0.129962
0.129934
0.129742
0.129456
0.129067
0.128579
0.127997
0.127327
0.126571
0.125735
0.124823
0.123837
0.122781
0.121658
0.120473
0.119227
0.117925
0.116568
0.11516
0.113703
0.1122
0.110653
0.109066
0.10744
0.105778
0.104082
0.102354
0.100596
0.0988117
0.0970017
0.0951685
0.0933139
0.09144
0.0895486
0.0876416
0.0857207
0.0837876
0.0818441
0.0798916
0.0779319
0.0759665
0.0739967
0.0720241
0.0700499
0.0680756
0.0661024
0.0641316
0.0621641
0.0602013
0.0582441
0.0562938
0.054351
0.0524171
0.0504928
0.0485791
0.0466766
0.0447862
0.0429084
0.0410442
0.0391939
0.0373584
0.035538
0.0337335
0.0319451
0.0301736
0.0284191
0.0266824
0.0249635
0.0232631
0.0215811
0.0199183
0.0182746
0.0166505
0.0150459
0.0134614
0.0118967
0.0103525
0.00882849
0.00732516
0.0058422
0.00438014
0.0029386
0.00151809
0.000118204
-0.00126059
-0.00261872
-0.00395574
-0.00527212
-0.0065674
-0.00784209
-0.00909576
-0.0103289
-0.0115412
-0.012733
-0.0139041
-0.0150549
-0.0161851
-0.0172952
-0.0183848
-0.0194546
-0.0205041
-0.0215339
-0.0225437
-0.0235339
-0.0245043
-0.0254554
-0.0263869
-0.0272992
-0.0281921
-0.0290661
-0.0299208
-0.0307567
-0.0315734
-0.0323715
-0.0331504
-0.0339104
-0.0346503
-0.0353729
-0.0360944
-0.0368049
0.130092
0.130068
0.129879
0.129597
0.129212
0.128728
0.12815
0.127484
0.126734
0.125902
0.124994
0.124013
0.122962
0.121845
0.120665
0.119425
0.118127
0.116776
0.115373
0.113921
0.112424
0.110883
0.1093
0.10768
0.106023
0.104332
0.102609
0.100856
0.0990765
0.0972712
0.0954425
0.0935923
0.0917227
0.0898354
0.0879322
0.0860151
0.0840856
0.0821454
0.0801961
0.0782394
0.0762767
0.0743096
0.0723393
0.0703674
0.0683951
0.0664237
0.0644544
0.0624884
0.0605267
0.0585706
0.056621
0.0546789
0.0527454
0.0508213
0.0489076
0.047005
0.0451142
0.0432361
0.0413712
0.0395202
0.0376836
0.0358622
0.0340564
0.0322667
0.0304936
0.0287376
0.026999
0.0252782
0.0235757
0.0218917
0.0202265
0.0185805
0.0169538
0.0153467
0.0137594
0.0121921
0.0106449
0.00911803
0.00761152
0.00612558
0.00466019
0.00321553
0.00179155
0.00038841
-0.000993986
-0.00235548
-0.00369621
-0.00501604
-0.00631514
-0.00759336
-0.00885092
-0.0100877
-0.0113039
-0.0124994
-0.0136744
-0.0148289
-0.0159631
-0.0170769
-0.0181706
-0.0192441
-0.0202976
-0.0213311
-0.0223448
-0.0233387
-0.024313
-0.0252677
-0.026203
-0.0271189
-0.0280155
-0.0288929
-0.0297512
-0.0305903
-0.0314105
-0.0322116
-0.0329938
-0.0337567
-0.0344996
-0.0352248
-0.0359492
-0.036662
0.130231
0.130211
0.130026
0.129748
0.129367
0.128887
0.128315
0.127653
0.126907
0.126081
0.125178
0.124202
0.123157
0.122045
0.120871
0.119636
0.118344
0.116998
0.115601
0.114155
0.112664
0.111128
0.109552
0.107937
0.106285
0.1046
0.102882
0.101135
0.0993604
0.0975601
0.0957363
0.0938909
0.0920258
0.0901429
0.088244
0.0863308
0.0844051
0.0824686
0.0805228
0.0785693
0.0766096
0.0746453
0.0726776
0.0707081
0.068738
0.0667685
0.0648009
0.0628364
0.0608761
0.058921
0.0569723
0.0550309
0.0530978
0.0511739
0.0492603
0.0473575
0.0454666
0.0435879
0.0417224
0.0398705
0.038033
0.0362104
0.0344033
0.0326121
0.0308375
0.0290796
0.0273391
0.0256163
0.0239117
0.0222253
0.0205578
0.0189092
0.0172799
0.01567
0.0140799
0.0125096
0.0109594
0.00942932
0.0079196
0.00643032
0.00496155
0.00351341
0.0020859
0.000679147
-0.0007069
-0.00207213
-0.00341663
-0.00474029
-0.00604325
-0.00732538
-0.00858688
-0.00982762
-0.0110478
-0.0122473
-0.0134264
-0.014585
-0.0157233
-0.0168412
-0.0179389
-0.0190164
-0.020074
-0.0211115
-0.0221293
-0.0231271
-0.0241054
-0.025064
-0.0260032
-0.0269228
-0.0278232
-0.0287043
-0.0295662
-0.0304089
-0.0312326
-0.032037
-0.0328225
-0.0335886
-0.0343346
-0.0350628
-0.03579
-0.0365055
0.13038
0.130363
0.130182
0.129909
0.129533
0.129057
0.128489
0.127833
0.127092
0.126272
0.125374
0.124404
0.123364
0.122258
0.12109
0.119861
0.118575
0.117236
0.115845
0.114405
0.112919
0.11139
0.10982
0.108211
0.106565
0.104885
0.103174
0.101432
0.099663
0.0978681
0.0960495
0.0942092
0.092349
0.0904708
0.0885764
0.0866676
0.084746
0.0828134
0.0808712
0.0789212
0.0769648
0.0750034
0.0730386
0.0710716
0.0691038
0.0671364
0.0651707
0.0632079
0.0612489
0.0592951
0.0573473
0.0554066
0.053474
0.0515505
0.0496369
0.0477341
0.0458427
0.0439636
0.0420973
0.0402447
0.0384061
0.0365824
0.0347738
0.0329811
0.0312047
0.0294451
0.0277025
0.0259776
0.0242705
0.0225819
0.0209117
0.0192605
0.0176283
0.0160156
0.0144223
0.012849
0.0112955
0.0097622
0.00824894
0.00675626
0.0052838
0.00383208
0.00240073
0.000990256
-0.000399767
-0.00176884
-0.00311743
-0.00444505
-0.00575219
-0.00703838
-0.00830413
-0.00954899
-0.0107735
-0.0119772
-0.0131607
-0.0143234
-0.0154661
-0.0165882
-0.0176903
-0.018772
-0.019834
-0.0208757
-0.0218977
-0.0228997
-0.0238822
-0.0248449
-0.0257882
-0.0267118
-0.0276163
-0.0285011
-0.029367
-0.0302133
-0.0310407
-0.0318487
-0.0326377
-0.0334071
-0.0341563
-0.0348876
-0.0356178
-0.0363361
0.130537
0.130525
0.130348
0.130079
0.129708
0.129237
0.128675
0.128024
0.127289
0.126473
0.125582
0.124618
0.123584
0.122484
0.121322
0.120099
0.11882
0.117487
0.116102
0.114669
0.11319
0.111667
0.110104
0.108501
0.106862
0.105188
0.103483
0.101747
0.0999839
0.0981948
0.0963817
0.0945468
0.0926918
0.0908187
0.0889291
0.0870249
0.0851077
0.0831792
0.081241
0.0792947
0.0773418
0.0753836
0.0734218
0.0714575
0.0694922
0.0675271
0.0655634
0.0636023
0.0616449
0.0596923
0.0577456
0.0558057
0.0538737
0.0519505
0.050037
0.048134
0.0462424
0.0443627
0.0424958
0.0406422
0.0388026
0.0369775
0.0351676
0.0333732
0.0315951
0.0298334
0.0280888
0.0263616
0.0246522
0.0229609
0.0212881
0.019634
0.0179989
0.0163831
0.0147867
0.01321
0.0116531
0.0101162
0.00859946
0.00710293
0.00562681
0.00417107
0.00273591
0.00132126
-7.27106e-05
-0.0014461
-0.00279875
-0.00413081
-0.00544211
-0.00673283
-0.00800283
-0.00925231
-0.0104811
-0.0116895
-0.0128773
-0.0140448
-0.0151918
-0.0163186
-0.0174251
-0.0185116
-0.0195779
-0.0206242
-0.0216506
-0.0226573
-0.023644
-0.0246112
-0.0255587
-0.0264868
-0.0273953
-0.0282846
-0.0291544
-0.030005
-0.0308361
-0.0316481
-0.0324407
-0.0332139
-0.0339665
-0.0347012
-0.0354345
-0.036156
0.130703
0.130695
0.130523
0.130259
0.129892
0.129427
0.12887
0.128225
0.127495
0.126686
0.125801
0.124843
0.123816
0.122722
0.121566
0.120351
0.119078
0.117752
0.116375
0.114948
0.113476
0.11196
0.110403
0.108807
0.107175
0.105508
0.103809
0.10208
0.100323
0.0985397
0.0967326
0.0949034
0.093054
0.0911861
0.0893017
0.0874024
0.0854898
0.0835658
0.0816318
0.0796894
0.0777402
0.0757855
0.0738268
0.0718654
0.0699028
0.0679401
0.0659785
0.0640193
0.0620635
0.0601124
0.0581667
0.0562278
0.0542964
0.0523736
0.0504602
0.0485572
0.0466652
0.0447851
0.0429174
0.0410629
0.0392221
0.0373958
0.0355843
0.0337883
0.0320082
0.0302445
0.0284977
0.0267681
0.0250562
0.0233622
0.0216865
0.0200295
0.0183913
0.0167722
0.0151725
0.0135923
0.0120318
0.0104912
0.00897064
0.00747023
0.0059901
0.0045303
0.00309095
0.00167207
0.000273766
-0.00110401
-0.00246112
-0.00379767
-0.00511355
-0.00640888
-0.00768354
-0.00893771
-0.0101713
-0.0113844
-0.012577
-0.0137493
-0.0149011
-0.0160328
-0.0171441
-0.0182354
-0.0193065
-0.0203577
-0.0213888
-0.0224003
-0.0233918
-0.0243637
-0.0253158
-0.0262486
-0.0271616
-0.0280554
-0.0289296
-0.0297845
-0.03062
-0.0314361
-0.0322328
-0.03301
-0.0337664
-0.0345049
-0.0352418
-0.0359667
0.130877
0.130874
0.130706
0.130447
0.130086
0.129627
0.129075
0.128436
0.127713
0.12691
0.126031
0.125079
0.124059
0.122973
0.121824
0.120615
0.11935
0.118031
0.11666
0.115242
0.113777
0.112268
0.110718
0.109129
0.107504
0.105844
0.104152
0.10243
0.100679
0.0989026
0.0971017
0.0952786
0.093435
0.0915728
0.0896938
0.0877996
0.0858921
0.0839727
0.0820432
0.080105
0.0781596
0.0762086
0.0742533
0.072295
0.0703352
0.0683751
0.0664158
0.0644586
0.0625046
0.0605549
0.0586105
0.0566724
0.0547418
0.0528194
0.0509062
0.0490031
0.0471109
0.0452301
0.0433618
0.0415063
0.0396644
0.0378366
0.0360237
0.0342258
0.0324438
0.030678
0.0289289
0.0271968
0.0254823
0.0237854
0.0221069
0.0204466
0.0188052
0.0171827
0.0155795
0.0139955
0.0124314
0.0108868
0.00936238
0.00785776
0.00637353
0.00490933
0.00346571
0.00204225
0.000639504
-0.000742986
-0.00210469
-0.0034461
-0.00476669
-0.00606699
-0.00734648
-0.0086057
-0.00984417
-0.0110624
-0.01226
-0.0134375
-0.0145943
-0.0157312
-0.0168476
-0.0179441
-0.0190203
-0.0200767
-0.0211129
-0.0221295
-0.0231261
-0.0241031
-0.0250602
-0.025998
-0.0269159
-0.0278146
-0.0286936
-0.0295533
-0.0303934
-0.0312142
-0.0320154
-0.0327969
-0.0335576
-0.0343003
-0.0350412
-0.0357699
0.13106
0.131062
0.130898
0.130645
0.130289
0.129836
0.12929
0.128657
0.12794
0.127144
0.126272
0.125327
0.124314
0.123235
0.122093
0.120892
0.119634
0.118323
0.11696
0.115549
0.114091
0.11259
0.111048
0.109467
0.107849
0.106197
0.104512
0.102796
0.101053
0.099283
0.0974887
0.0956719
0.0938345
0.0919783
0.090105
0.0882163
0.086314
0.0843996
0.0824747
0.080541
0.0785998
0.0766526
0.0747008
0.0727459
0.0707891
0.0688317
0.0668748
0.0649198
0.0629677
0.0610196
0.0590764
0.0571395
0.0552095
0.0532876
0.0513747
0.0494715
0.047579
0.0456978
0.0438286
0.0419722
0.0401291
0.0382999
0.0364853
0.0346857
0.0329016
0.0311336
0.029382
0.0276474
0.02593
0.0242303
0.0225486
0.0208852
0.0192403
0.0176143
0.0160073
0.0144197
0.0128515
0.011303
0.0097742
0.00826543
0.00677665
0.00530809
0.00385972
0.00243173
0.00102404
-0.000363148
-0.00172996
-0.0030762
-0.00440204
-0.0057073
-0.00699215
-0.00825644
-0.00950038
-0.0107238
-0.0119269
-0.0131096
-0.0142721
-0.0154142
-0.0165363
-0.0176381
-0.0187199
-0.0197817
-0.0208236
-0.0218454
-0.0228476
-0.0238299
-0.0247927
-0.0257356
-0.0266591
-0.0275629
-0.0284473
-0.0293121
-0.0301574
-0.0309831
-0.0317894
-0.0325756
-0.0333412
-0.0340883
-0.0348339
-0.0355666
0.13125
0.131257
0.131099
0.130851
0.130501
0.130054
0.129514
0.128888
0.128178
0.127388
0.126523
0.125586
0.12458
0.123508
0.122374
0.121181
0.119931
0.118627
0.117273
0.11587
0.11442
0.112927
0.111393
0.10982
0.10821
0.106565
0.104887
0.10318
0.101443
0.0996805
0.0978932
0.0960831
0.0942522
0.0924023
0.090535
0.0886521
0.0867552
0.0848461
0.0829262
0.0809971
0.0790602
0.0771171
0.0751692
0.0732177
0.0712641
0.0693096
0.0673553
0.0654026
0.0634525
0.061506
0.0595643
0.0576284
0.0556994
0.053778
0.0518653
0.0499621
0.0480693
0.0461876
0.0443177
0.0424602
0.0406159
0.0387853
0.036969
0.0351674
0.0333813
0.031611
0.029857
0.0281196
0.0263994
0.0246966
0.0230117
0.0213449
0.0196965
0.0180667
0.016456
0.0148643
0.013292
0.0117392
0.0102061
0.00869278
0.00719942
0.00572612
0.00427294
0.00284001
0.00142733
3.50215e-05
-0.00133696
-0.00268848
-0.00401965
-0.00533032
-0.00662065
-0.00789048
-0.00914
-0.0103691
-0.0115779
-0.0127663
-0.0139345
-0.0150825
-0.0162104
-0.017318
-0.0184057
-0.0194733
-0.0205211
-0.0215488
-0.0225569
-0.0235451
-0.0245137
-0.0254624
-0.0263917
-0.0273013
-0.0281914
-0.0290618
-0.0299128
-0.030744
-0.0315557
-0.0323474
-0.0331182
-0.0338705
-0.0346213
-0.0353587
0.131449
0.131461
0.131308
0.131066
0.130722
0.13028
0.129748
0.129128
0.128425
0.127642
0.126785
0.125855
0.124856
0.123793
0.122667
0.121482
0.12024
0.118945
0.117598
0.116204
0.114763
0.113278
0.111752
0.110187
0.108585
0.106948
0.105279
0.103579
0.10185
0.100095
0.0983148
0.0965118
0.0946878
0.0928444
0.0909834
0.0891065
0.0872155
0.0853118
0.0833971
0.0814729
0.0795407
0.0776019
0.0756579
0.0737102
0.0717599
0.0698084
0.0678569
0.0659066
0.0639585
0.0620139
0.0600737
0.0581391
0.0562108
0.0542901
0.0523777
0.0504746
0.0485815
0.0466993
0.0448286
0.0429702
0.0411246
0.0392925
0.0374744
0.035671
0.0338826
0.03211
0.0303533
0.0286132
0.0268899
0.0251841
0.0234957
0.0218255
0.0201733
0.0185398
0.0169249
0.0153292
0.0137525
0.0121954
0.0106576
0.00913972
0.00764143
0.00616331
0.00470499
0.00326701
0.00184897
0.000451423
-0.000926099
-0.00228305
-0.00361993
-0.0049362
-0.00623238
-0.00750795
-0.00876346
-0.00999839
-0.0112133
-0.0124077
-0.0135821
-0.0147361
-0.0158703
-0.0169841
-0.0180781
-0.0191519
-0.0202061
-0.02124
-0.0222545
-0.0232489
-0.0242238
-0.0251789
-0.0261145
-0.0270302
-0.0279266
-0.0288032
-0.0296603
-0.0304975
-0.0313153
-0.0321128
-0.0328895
-0.0336475
-0.0344039
-0.0351466
0.131654
0.131672
0.131525
0.131289
0.130951
0.130516
0.12999
0.129377
0.128681
0.127906
0.127056
0.126134
0.125144
0.124088
0.122971
0.121794
0.120561
0.119274
0.117937
0.116551
0.115118
0.113642
0.112125
0.110569
0.108975
0.107347
0.105686
0.103994
0.102273
0.100526
0.0987533
0.0969577
0.0951407
0.0933042
0.0914499
0.0895794
0.0876944
0.0857965
0.0838872
0.0819682
0.0800408
0.0781065
0.0761667
0.0742228
0.0722761
0.0703279
0.0683793
0.0664315
0.0644857
0.062543
0.0606045
0.058671
0.0567438
0.0548237
0.0529117
0.0510086
0.0491153
0.0472326
0.0453612
0.0435017
0.0416548
0.0398212
0.0380014
0.0361959
0.0344054
0.0326302
0.0308709
0.0291279
0.0274016
0.0256924
0.0240007
0.0223267
0.0206708
0.0190332
0.0174142
0.0158141
0.014233
0.0126712
0.0111288
0.00960584
0.00810267
0.00661926
0.00515582
0.00371231
0.00228894
0.000885629
-0.000497423
-0.00186034
-0.00320293
-0.00452534
-0.0058274
-0.00710929
-0.00837082
-0.00961222
-0.0108333
-0.0120343
-0.013215
-0.0143757
-0.0155162
-0.0166368
-0.0177373
-0.018818
-0.0198786
-0.0209195
-0.0219405
-0.0229419
-0.0239234
-0.0248854
-0.0258275
-0.0267502
-0.0276531
-0.0285366
-0.0294002
-0.0302442
-0.0310683
-0.0318725
-0.0326554
-0.0334198
-0.0341823
-0.0349309
0.131868
0.131891
0.131749
0.13152
0.131188
0.13076
0.130241
0.129635
0.128947
0.12818
0.127337
0.126423
0.125441
0.124394
0.123285
0.122118
0.120893
0.119616
0.118287
0.11691
0.115487
0.11402
0.112512
0.110964
0.10938
0.10776
0.106108
0.104425
0.102712
0.100973
0.0992082
0.0974203
0.0956108
0.0937815
0.0919341
0.0900702
0.0881916
0.0862997
0.0843962
0.0824825
0.0805602
0.0786307
0.0766953
0.0747555
0.0728125
0.0708676
0.0689221
0.066977
0.0650336
0.063093
0.061156
0.0592241
0.0572979
0.0553786
0.0534669
0.051564
0.0496704
0.0477873
0.045915
0.0440546
0.0422064
0.0403712
0.0385496
0.0367421
0.0349492
0.0331716
0.0314095
0.0296635
0.027934
0.0262214
0.0245261
0.0228483
0.0211884
0.0195467
0.0179234
0.0163189
0.0147331
0.0131665
0.0116191
0.0100911
0.00858271
0.00709396
0.00562501
0.00417591
0.00274679
0.00133766
-5.13631e-05
-0.00142032
-0.00276909
-0.00409775
-0.00540616
-0.00669448
-0.00796254
-0.00921053
-0.0104383
-0.011646
-0.0128336
-0.0140012
-0.0151486
-0.0162762
-0.0173837
-0.0184715
-0.0195393
-0.0205873
-0.0216155
-0.0226241
-0.0236128
-0.024582
-0.0255315
-0.0264614
-0.0273715
-0.0282622
-0.0291329
-0.0299841
-0.0308154
-0.0316265
-0.0324164
-0.0331877
-0.0339571
-0.0347122
0.132088
0.132117
0.131981
0.131758
0.131434
0.131012
0.1305
0.129902
0.129221
0.128462
0.127628
0.126723
0.125749
0.124711
0.123611
0.122452
0.121237
0.119969
0.11865
0.117282
0.115868
0.114411
0.112912
0.111374
0.109799
0.108188
0.106545
0.10487
0.103167
0.101436
0.0996793
0.0978994
0.0960977
0.0942759
0.0924357
0.0905787
0.0887067
0.0868212
0.0849236
0.0830156
0.0810986
0.0791741
0.0772433
0.0753078
0.0733687
0.0714274
0.0694851
0.0675428
0.065602
0.0636634
0.0617284
0.0597978
0.0578729
0.0559543
0.0540432
0.0521403
0.0502467
0.048363
0.0464901
0.0446285
0.0427791
0.0409422
0.0391188
0.0373091
0.035514
0.0337337
0.0319688
0.0302197
0.028487
0.0267709
0.0250719
0.0233901
0.0217262
0.0200801
0.0184525
0.0168431
0.0152527
0.013681
0.0121286
0.0105952
0.0090815
0.00758706
0.00611252
0.00465747
0.00322249
0.00180716
0.000412039
-0.000963351
-0.00231844
-0.00365374
-0.0049687
-0.00626386
-0.00753866
-0.00879367
-0.0100283
-0.0112433
-0.0124379
-0.0136128
-0.0147675
-0.0159026
-0.0170175
-0.0181128
-0.019188
-0.0202438
-0.0212795
-0.0222959
-0.0232922
-0.0242692
-0.0252263
-0.026164
-0.0270818
-0.0279802
-0.0288587
-0.0297176
-0.0305564
-0.0313752
-0.0321725
-0.0329513
-0.0337281
-0.0344902
0.132316
0.13235
0.132221
0.132005
0.131687
0.131272
0.130768
0.130177
0.129505
0.128754
0.127928
0.127031
0.126067
0.125038
0.123947
0.122798
0.121592
0.120333
0.119024
0.117666
0.116262
0.114814
0.113325
0.111797
0.110231
0.10863
0.106996
0.105331
0.103636