/*--------------------------------*- C++ -*----------------------------------*\
  =========                 |
  \\      /  F ield         | OpenFOAM: The Open Source CFD Toolbox
   \\    /   O peration     | Website:  https://openfoam.org
    \\  /    A nd           | Version:  8
     \\/     M anipulation  |
\*---------------------------------------------------------------------------*/
FoamFile
{
    version     2.0;
    format      ascii;
    class       surfaceScalarField;
    location    "0.05";
    object      phi;
}
// * * * * * * * * * * * * * * * * * * * * * * * * * * * * * * * * * * * * * //

dimensions      [0 3 -1 0 0 0 0];

internalField   nonuniform List<scalar> 
206740
(
-0.00197613
-0.00100787
-0.00123558
-0.000740545
-0.000678568
-0.000556993
-0.000248902
-0.000429641
8.35591e-05
-0.000332423
0.000342227
-0.000258622
0.000544725
-0.000202441
0.000705494
-0.000160703
0.000835594
-0.000130025
0.000943089
-0.000107413
0.00103376
-9.05806e-05
0.00111172
-7.78649e-05
0.0011799
-6.80836e-05
0.00124042
-6.04088e-05
0.00129478
-5.42587e-05
0.00134411
-4.92223e-05
0.00138923
-4.50071e-05
0.00143075
-4.14017e-05
0.00146911
-3.82538e-05
0.00150467
-3.54507e-05
0.0015377
-3.29115e-05
0.00156838
-3.05748e-05
0.00159689
-2.83981e-05
0.00162334
-2.63481e-05
0.00164785
-2.44035e-05
0.0016705
-2.25428e-05
0.00169135
-2.07558e-05
0.00171049
-1.90345e-05
0.00172796
-1.7376e-05
0.00174382
-1.57737e-05
0.00175814
-1.42272e-05
0.00177096
-1.27323e-05
0.00178233
-1.12905e-05
0.00179232
-9.89875e-06
0.00180095
-8.55908e-06
0.0018083
-7.26946e-06
0.00181441
-6.03583e-06
0.00181933
-4.84848e-06
0.00182309
-3.6977e-06
0.00182572
-2.56114e-06
0.00182714
-1.36072e-06
0.00182729
-8.86429e-08
0.00182617
1.1752e-06
0.00182385
2.38089e-06
0.00182041
3.48985e-06
0.00181596
4.50338e-06
0.00181058
5.42339e-06
0.00180437
6.25458e-06
0.00179742
7.00163e-06
0.00178978
7.67539e-06
0.00178152
8.30479e-06
0.00177264
8.91145e-06
0.00176319
9.48438e-06
0.0017532
1.0023e-05
0.00174271
1.05241e-05
0.00173175
1.09901e-05
0.00172036
1.14199e-05
0.00170857
1.18146e-05
0.00169643
1.21665e-05
0.00168399
1.24632e-05
0.00167133
1.26752e-05
0.0016586
1.2759e-05
0.00164595
1.2662e-05
0.00163361
1.23622e-05
0.00162173
1.18894e-05
0.00161043
1.13197e-05
0.00159971
1.07336e-05
0.00158952
1.01939e-05
0.0015798
9.73331e-06
0.00157044
9.36516e-06
0.00156137
9.08584e-06
0.00155249
8.88632e-06
0.00154374
8.75165e-06
0.00153508
8.66875e-06
0.00152646
8.62323e-06
0.00151785
8.60476e-06
0.00150925
8.60285e-06
0.00150064
8.61096e-06
0.00149202
8.62194e-06
0.00148338
8.63153e-06
0.00147475
8.63387e-06
0.00146612
8.62471e-06
0.00145752
8.59685e-06
0.00144897
8.54325e-06
0.00144051
8.45378e-06
0.00143218
8.32016e-06
0.00142404
8.13538e-06
0.00141613
7.89978e-06
0.00140851
7.61919e-06
0.00140119
7.30666e-06
0.0013942
6.977e-06
0.00138755
6.64678e-06
0.00138121
6.32939e-06
0.00137516
6.03638e-06
0.00136937
5.77416e-06
0.00136382
5.54676e-06
0.00135845
5.35412e-06
0.00135324
5.19454e-06
0.00134817
5.06279e-06
0.0013432
4.95279e-06
0.00133833
4.85626e-06
0.00133355
4.76552e-06
0.00132886
4.67278e-06
0.00132427
4.57314e-06
0.00131979
4.4635e-06
0.00131543
4.3443e-06
0.0013112
4.21743e-06
0.0013071
4.08696e-06
0.00130313
3.95678e-06
0.00129928
3.83135e-06
0.00129555
3.71376e-06
0.00129192
3.60672e-06
0.0012884
3.51127e-06
0.00128495
3.42785e-06
0.00128158
3.35537e-06
0.00127827
3.29237e-06
0.00127502
3.23631e-06
0.00127181
3.185e-06
0.00126866
3.13527e-06
0.00126556
3.08548e-06
0.0012625
3.03578e-06
0.0012595
2.9863e-06
0.00125654
2.93647e-06
0.00125364
2.88612e-06
0.00125079
2.8352e-06
0.00124799
2.78412e-06
0.00124523
2.73329e-06
0.00124253
2.68337e-06
0.00123988
2.63474e-06
0.00123728
2.58768e-06
0.00123472
2.54213e-06
0.0012322
2.49784e-06
0.00122973
2.45434e-06
0.0012273
2.41115e-06
0.00122491
2.36786e-06
0.00122257
2.32413e-06
0.00122027
2.27988e-06
0.00121802
2.23516e-06
0.00121581
2.19022e-06
0.00121365
2.14537e-06
0.00121153
2.10108e-06
0.00120946
2.05763e-06
0.00120743
2.01542e-06
0.00120543
1.97454e-06
0.00120348
1.93514e-06
0.00120157
1.89709e-06
0.00119969
1.86036e-06
0.00119785
1.82466e-06
0.00119604
1.78995e-06
0.00119427
1.75595e-06
0.00119253
1.7227e-06
0.00119083
1.69001e-06
0.00118915
1.65805e-06
0.00118751
1.62672e-06
0.0011859
1.59627e-06
0.00118431
1.56661e-06
0.00118276
1.53799e-06
0.00118124
1.5103e-06
0.00117974
1.48379e-06
0.00117826
1.45836e-06
0.00117681
1.43437e-06
0.00117539
1.41201e-06
0.00117398
1.39228e-06
0.00117259
1.37439e-06
0.00117122
1.36072e-06
0.00116985
1.3543e-06
0.00116848
1.35375e-06
0.00116711
1.35601e-06
0.00116574
1.35917e-06
0.00116436
1.36153e-06
0.00116299
1.36251e-06
0.00116161
1.36148e-06
0.00116024
1.35873e-06
0.00115887
1.35417e-06
0.00115751
1.34832e-06
0.00115616
1.34124e-06
0.00115481
1.33351e-06
0.00115347
1.3251e-06
0.00115214
1.31657e-06
0.00115082
1.3078e-06
0.00114951
1.29924e-06
0.00114821
1.29074e-06
0.00114692
1.28269e-06
0.00114563
1.27485e-06
0.00114435
1.2676e-06
0.00114308
1.26069e-06
0.00114181
1.25446e-06
0.00114055
1.24865e-06
0.0011393
1.24362e-06
0.00113805
1.23909e-06
0.00113681
1.23541e-06
0.00113556
1.23232e-06
0.00113432
1.23015e-06
0.00113308
1.22863e-06
0.00113185
1.22821e-06
0.00113061
1.22863e-06
0.00112937
1.23035e-06
0.00112813
1.23313e-06
0.00112688
1.23738e-06
0.00112563
1.24286e-06
0.00112437
1.24999e-06
0.0011231
1.25848e-06
0.00112182
1.26876e-06
0.00112054
1.28054e-06
0.00111923
1.29424e-06
0.00111792
1.30961e-06
0.00111658
1.32709e-06
0.00111523
1.34643e-06
0.00111385
1.36812e-06
0.00111245
1.39193e-06
0.00111103
1.41836e-06
0.00110957
1.44722e-06
0.00110809
1.47903e-06
0.00110656
1.51361e-06
0.00110501
1.55153e-06
0.00110341
1.59263e-06
0.00110176
1.6375e-06
0.00110007
1.686e-06
0.00109833
1.73876e-06
0.00109652
1.79567e-06
0.00109466
1.85739e-06
0.00109273
1.92384e-06
0.00109073
1.99571e-06
0.00108865
2.07296e-06
0.00108649
2.15629e-06
0.00108424
2.24573e-06
0.00108189
2.34218e-06
0.00107944
2.44581e-06
0.00107688
2.55754e-06
0.0010742
2.67755e-06
0.00107139
2.80677e-06
0.00106844
2.9454e-06
0.00106534
3.09441e-06
0.00106208
3.25407e-06
0.00105865
3.42543e-06
0.00105504
3.60886e-06
0.00105123
3.80553e-06
0.00104721
4.01594e-06
0.00104297
4.24141e-06
0.00103848
4.48261e-06
0.00103374
4.74099e-06
0.00102872
5.01739e-06
0.0010234
5.31347e-06
0.00101777
5.63023e-06
0.0010118
5.96951e-06
0.00100546
6.33255e-06
0.000998741
6.7214e-06
0.000991602
7.13752e-06
0.000984017
7.58325e-06
0.000975955
8.06029e-06
0.000967383
8.57123e-06
0.000958264
9.11808e-06
0.00094856
9.70372e-06
0.000938229
1.03305e-05
0.000927228
1.10015e-05
0.000915509
1.17193e-05
0.000903021
1.24875e-05
0.000889713
1.33089e-05
0.000875527
1.41872e-05
0.000860402
1.51255e-05
0.000844276
1.61274e-05
0.000827082
1.7196e-05
0.000808749
1.8335e-05
0.000789204
1.95469e-05
0.000768372
2.08348e-05
0.000746174
2.22002e-05
0.000722531
2.36459e-05
0.000697363
2.51715e-05
0.000670584
2.67832e-05
0.000642101
2.84873e-05
0.000611842
3.02644e-05
0.000579767
3.208e-05
0.000545866
3.39069e-05
0.000510159
3.57138e-05
0.000472704
3.74617e-05
0.000433608
3.9103e-05
0.000393033
4.05836e-05
0.0003512
4.18412e-05
0.000308402
4.28077e-05
0.000265001
4.34107e-05
0.00022143
4.35808e-05
0.000178181
4.32598e-05
0.000135775
4.24168e-05
9.47056e-05
4.10808e-05
5.52455e-05
3.9472e-05
1.71086e-05
3.81488e-05
-1.91702e-05
3.6289e-05
-5.24718e-05
3.33093e-05
-8.2834e-05
3.03688e-05
-0.000111125
2.82963e-05
-0.000137239
2.61201e-05
-0.000159271
2.20367e-05
-0.000174706
1.54389e-05
-0.000180386
5.684e-06
-0.00017688
-3.50365e-06
-0.000168965
-7.91469e-06
-0.000160607
-8.36061e-06
-0.00015407
-6.54155e-06
-0.0001506
-3.4768e-06
-6.20413e-08
-0.000150548
-0.00139102
-0.00138283
-0.000951211
-0.00118035
-0.000557039
-0.000951159
-0.000219582
-0.00076709
6.05283e-05
-0.000612521
0.00029039
-0.000488467
0.000479362
-0.000391394
0.000635847
-0.000317163
0.000766944
-0.000261095
0.000878381
-0.000218816
0.000974588
-0.00018675
0.00105892
-0.000162158
0.00113391
-0.000143021
0.00120142
-0.000127876
0.00126288
-0.000115667
0.00131935
-0.000105632
0.00137162
-9.72186e-05
0.0014203
-9.00229e-05
0.00146586
-8.37487e-05
0.00150865
-7.81773e-05
0.00154895
-7.31469e-05
0.00158698
-6.85379e-05
0.00162291
-6.42618e-05
0.00165688
-6.02534e-05
0.00168901
-5.64646e-05
0.00171939
-5.28583e-05
0.00174811
-4.94078e-05
0.00177523
-4.60959e-05
0.00180083
-4.29105e-05
0.00182497
-3.98422e-05
0.00184769
-3.68839e-05
0.00186905
-3.40306e-05
0.0018891
-3.1279e-05
0.00190789
-2.86263e-05
0.00192546
-2.60708e-05
0.00194186
-2.36112e-05
0.00195712
-2.12472e-05
0.0019713
-1.89734e-05
0.00198444
-1.67832e-05
0.0019966
-1.46739e-05
0.00200794
-1.26452e-05
0.00201858
-1.06781e-05
0.00202855
-8.75101e-06
0.00203785
-6.87303e-06
0.00204645
-5.06449e-06
0.00205433
-3.33937e-06
0.0020615
-1.70281e-06
0.00206795
-1.5906e-07
0.0020737
1.2898e-06
0.00207876
2.6489e-06
0.00208317
3.93394e-06
0.00208696
5.1531e-06
0.00209017
6.30042e-06
0.00209285
7.37637e-06
0.00209502
8.38401e-06
0.00209671
9.32591e-06
0.00209795
1.02039e-05
0.00209877
1.1019e-05
0.00209919
1.17685e-05
0.00209923
1.24452e-05
0.00209889
1.30364e-05
0.00209814
1.35279e-05
0.00209691
1.39086e-05
0.00209511
1.41724e-05
0.0020927
1.43196e-05
0.00208967
1.43624e-05
0.00208609
1.43262e-05
0.00208205
1.42419e-05
0.00207766
1.41383e-05
0.002073
1.40372e-05
0.00206814
1.39523e-05
0.00206314
1.38904e-05
0.00205805
1.38531e-05
0.00205288
1.38385e-05
0.00204767
1.38425e-05
0.00204242
1.38606e-05
0.00203714
1.38877e-05
0.00203183
1.39193e-05
0.0020265
1.39509e-05
0.00202116
1.3978e-05
0.00201579
1.3996e-05
0.00201042
1.39996e-05
0.00200503
1.39819e-05
0.00199964
1.3935e-05
0.00199424
1.38507e-05
0.00198883
1.37226e-05
0.00198342
1.35474e-05
0.00197799
1.33267e-05
0.00197254
1.30663e-05
0.00196706
1.27749e-05
0.00196157
1.24633e-05
0.00195607
1.21426e-05
0.00195057
1.18232e-05
0.00194508
1.1514e-05
0.00193963
1.12216e-05
0.00193422
1.09503e-05
0.00192886
1.07023e-05
0.00192357
1.04772e-05
0.00191835
1.02726e-05
0.00191321
1.00845e-05
0.00190815
9.90739e-06
0.00190317
9.7358e-06
0.00189827
9.56459e-06
0.00189345
9.39008e-06
0.00188869
9.21036e-06
0.001884
9.02537e-06
0.00187937
8.83648e-06
0.0018748
8.64615e-06
0.00187029
8.45728e-06
0.00186583
8.27286e-06
0.00186144
8.09548e-06
0.00185711
7.92718e-06
0.00185284
7.7692e-06
0.00184863
7.62199e-06
0.00184449
7.48515e-06
0.00184042
7.35761e-06
0.0018364
7.23771e-06
0.00183245
7.12397e-06
0.00182856
7.01384e-06
0.00182473
6.90585e-06
0.00182095
6.80036e-06
0.00181723
6.69672e-06
0.00181356
6.59416e-06
0.00180994
6.49237e-06
0.00180637
6.39135e-06
0.00180285
6.29136e-06
0.00179938
6.19275e-06
0.00179596
6.09595e-06
0.00179258
6.00124e-06
0.00178924
5.90877e-06
0.00178596
5.81841e-06
0.00178271
5.72992e-06
0.00177951
5.64284e-06
0.00177635
5.55677e-06
0.00177324
5.47128e-06
0.00177016
5.38611e-06
0.00176713
5.30112e-06
0.00176414
5.21639e-06
0.00176118
5.13205e-06
0.00175827
5.04844e-06
0.00175539
4.96587e-06
0.00175255
4.8847e-06
0.00174975
4.80516e-06
0.00174699
4.72748e-06
0.00174426
4.65167e-06
0.00174157
4.57775e-06
0.00173891
4.50557e-06
0.00173629
4.43504e-06
0.0017337
4.36596e-06
0.00173115
4.29828e-06
0.00172863
4.23185e-06
0.00172614
4.1667e-06
0.00172368
4.10281e-06
0.00172126
4.04029e-06
0.00171887
3.97917e-06
0.0017165
3.91959e-06
0.00171417
3.86157e-06
0.00171186
3.80523e-06
0.00170958
3.75058e-06
0.00170733
3.69779e-06
0.00170511
3.64697e-06
0.00170292
3.59856e-06
0.00170074
3.55385e-06
0.00169859
3.51366e-06
0.00169647
3.47893e-06
0.00169436
3.45026e-06
0.00169228
3.42573e-06
0.00169022
3.40402e-06
0.00168819
3.38402e-06
0.00168617
3.36488e-06
0.00168418
3.3458e-06
0.00168221
3.3264e-06
0.00168025
3.30643e-06
0.00167831
3.28593e-06
0.00167639
3.26486e-06
0.00167448
3.24347e-06
0.00167258
3.22183e-06
0.00167069
3.20021e-06
0.00166882
3.1787e-06
0.00166697
3.15756e-06
0.00166512
3.13684e-06
0.00166329
3.11676e-06
0.00166146
3.09734e-06
0.00165965
3.07878e-06
0.00165785
3.06106e-06
0.00165606
3.04437e-06
0.00165428
3.02868e-06
0.00165251
3.01418e-06
0.00165074
3.00084e-06
0.00164898
2.98884e-06
0.00164723
2.97816e-06
0.00164549
2.96898e-06
0.00164375
2.96124e-06
0.00164202
2.95513e-06
0.00164029
2.95071e-06
0.00163856
2.94824e-06
0.00163684
2.94777e-06
0.00163512
2.94955e-06
0.0016334
2.95363e-06
0.00163167
2.96026e-06
0.00162995
2.96946e-06
0.00162822
2.98147e-06
0.00162649
2.99634e-06
0.00162475
3.01431e-06
0.001623
3.03544e-06
0.00162124
3.06e-06
0.00161948
3.08809e-06
0.0016177
3.12002e-06
0.00161591
3.15589e-06
0.0016141
3.19608e-06
0.00161227
3.24072e-06
0.00161042
3.29021e-06
0.00160855
3.34475e-06
0.00160666
3.40478e-06
0.00160473
3.47052e-06
0.00160278
3.54248e-06
0.00160079
3.62094e-06
0.00159877
3.70643e-06
0.0015967
3.79929e-06
0.00159459
3.90013e-06
0.00159244
4.00935e-06
0.00159023
4.12762e-06
0.00158797
4.2554e-06
0.00158564
4.39344e-06
0.00158325
4.54222e-06
0.00158079
4.70258e-06
0.00157826
4.8753e-06
0.00157564
5.06146e-06
0.00157293
5.26189e-06
0.00157013
5.47767e-06
0.00156722
5.70972e-06
0.00156421
5.95925e-06
0.00156107
6.22726e-06
0.00155781
6.51512e-06
0.00155441
6.82401e-06
0.00155086
7.15547e-06
0.00154715
7.51092e-06
0.00154327
7.89213e-06
0.00153921
8.30076e-06
0.00153495
8.73888e-06
0.00153048
9.20844e-06
0.00152579
9.71183e-06
0.00152085
1.02513e-05
0.00151565
1.08298e-05
0.00151016
1.14497e-05
0.00150438
1.21145e-05
0.00149827
1.28271e-05
0.00149182
1.35914e-05
0.00148499
1.4411e-05
0.00147776
1.52902e-05
0.0014701
1.62332e-05
0.00146197
1.72452e-05
0.00145334
1.8331e-05
0.00144418
1.94965e-05
0.00143443
2.07474e-05
0.00142406
2.20904e-05
0.00141302
2.35321e-05
0.00140125
2.50802e-05
0.00138869
2.67424e-05
0.00137529
2.85271e-05
0.00136098
3.04432e-05
0.00134567
3.25e-05
0.0013293
3.47072e-05
0.00131178
3.7075e-05
0.001293
3.96134e-05
0.00127287
4.23329e-05
0.00125127
4.52436e-05
0.00122809
4.83602e-05
0.00120318
5.16889e-05
0.00117644
5.52348e-05
0.0011477
5.90022e-05
0.00111681
6.29793e-05
0.00108357
6.71434e-05
0.00104783
7.14617e-05
0.00100941
7.58894e-05
0.000968146
8.03665e-05
0.000923919
8.48149e-05
0.000876628
8.91364e-05
0.000826228
9.32114e-05
0.000772743
9.69001e-05
0.000716282
0.000100046
0.000657061
0.000102486
0.000595413
0.000104068
0.000531821
0.000104677
0.000466982
0.000104315
0.000402262
0.000102872
0.000338568
9.99863e-05
0.000276081
9.58009e-05
0.000215413
9.10401e-05
0.00015755
8.61639e-05
0.000103523
8.01513e-05
5.40617e-05
7.15022e-05
9.28318e-06
6.02216e-05
-3.21252e-05
4.70956e-05
-6.99726e-05
3.43457e-05
-0.000102416
2.45289e-05
-0.000129483
1.87047e-05
-0.000152194
1.61659e-05
-0.000171911
1.62353e-05
1.8072e-05
-0.000190053
-0.000994454
-0.00157324
-0.000740399
-0.0014344
-0.00046818
-0.00122337
-0.000210922
-0.00102434
2.04785e-05
-0.000843915
0.000223088
-0.000691069
0.000398499
-0.000566795
0.000549954
-0.000468608
0.000681126
-0.000392253
0.000795527
-0.000333201
0.000896227
-0.000287431
0.000985773
-0.000251683
0.00106622
-0.00022344
0.00113918
-0.000200812
0.00120593
-0.000182391
0.00126746
-0.000167138
0.00132456
-0.000154281
0.00137781
-0.000143248
0.00142771
-0.000133611
0.00147462
-0.000125051
0.00151883
-0.000117329
0.0015606
-0.000110267
0.00160011
-0.000103731
0.00163751
-9.7621e-05
0.00167295
-9.18633e-05
0.00170653
-8.64008e-05
0.00173835
-8.11922e-05
0.0017685
-7.62073e-05
0.00179705
-7.14255e-05
0.00182407
-6.683e-05
0.00184963
-6.24095e-05
0.00187379
-5.81542e-05
0.00189661
-5.4058e-05
0.00191813
-5.01151e-05
0.00193842
-4.63223e-05
0.00195752
-4.26753e-05
0.00197547
-3.91718e-05
0.00199234
-3.58061e-05
0.00200816
-3.25737e-05
0.00202299
-2.94711e-05
0.00203687
-2.65e-05
0.00204987
-2.36532e-05
0.00206207
-2.09171e-05
0.00207351
-1.82843e-05
0.00208422
-1.57573e-05
0.00209425
-1.33408e-05
0.00210361
-1.10404e-05
0.00211233
-8.85609e-06
0.00212043
-6.78631e-06
0.00212793
-4.82725e-06
0.00213485
-2.97078e-06
0.00214123
-1.20899e-06
0.0021471
4.5697e-07
0.00215246
2.02725e-06
0.00215736
3.50325e-06
0.00216181
4.88753e-06
0.00216585
6.18123e-06
0.00216949
7.38744e-06
0.00217277
8.50534e-06
0.0021757
9.53235e-06
0.00217828
1.04631e-05
0.00218052
1.12945e-05
0.00218241
1.20264e-05
0.00218393
1.26623e-05
0.00218506
1.32036e-05
0.00218577
1.36548e-05
0.00218608
1.40254e-05
0.00218599
1.4331e-05
0.00218555
1.45876e-05
0.00218478
1.48108e-05
0.00218372
1.50118e-05
0.00218242
1.51995e-05
0.00218089
1.5378e-05
0.00217918
1.55501e-05
0.00217731
1.57156e-05
0.0021753
1.58742e-05
0.00217316
1.60239e-05
0.00217092
1.61634e-05
0.00216858
1.62903e-05
0.00216615
1.64026e-05
0.00216364
1.64972e-05
0.00216107
1.65715e-05
0.00215843
1.66213e-05
0.00215571
1.66432e-05
0.00215293
1.66334e-05
0.00215006
1.65895e-05
0.00214709
1.65096e-05
0.00214402
1.63936e-05
0.00214083
1.62432e-05
0.00213754
1.60628e-05
0.00213414
1.58584e-05
0.00213064
1.56375e-05
0.00212704
1.54073e-05
0.00212338
1.5175e-05
0.00211964
1.49455e-05
0.00211586
1.4723e-05
0.00211205
1.45093e-05
0.00210821
1.43048e-05
0.00210437
1.41076e-05
0.00210053
1.39155e-05
0.0020967
1.37255e-05
0.00209289
1.35356e-05
0.0020891
1.33438e-05
0.00208533
1.31493e-05
0.00208158
1.29518e-05
0.00207785
1.27519e-05
0.00207412
1.25504e-05
0.00207041
1.2349e-05
0.00206671
1.21493e-05
0.00206302
1.19531e-05
0.00205934
1.1762e-05
0.00205568
1.15771e-05
0.00205204
1.1399e-05
0.00204842
1.12281e-05
0.00204483
1.10638e-05
0.00204127
1.09056e-05
0.00203775
1.07524e-05
0.00203426
1.06039e-05
0.0020308
1.04591e-05
0.00202738
1.03174e-05
0.00202399
1.01779e-05
0.00202064
1.004e-05
0.00201732
9.90328e-06
0.00201403
9.76806e-06
0.00201077
9.63442e-06
0.00200755
9.50259e-06
0.00200436
9.37274e-06
0.0020012
9.24506e-06
0.00199807
9.11961e-06
0.00199497
8.99634e-06
0.00199191
8.87504e-06
0.00198887
8.75544e-06
0.00198586
8.63722e-06
0.00198289
8.52008e-06
0.00197995
8.4038e-06
0.00197703
8.28826e-06
0.00197415
8.17344e-06
0.0019713
8.05944e-06
0.00196847
7.94647e-06
0.00196567
7.83475e-06
0.0019629
7.72458e-06
0.00196016
7.61615e-06
0.00195745
7.50967e-06
0.00195476
7.40521e-06
0.0019521
7.30278e-06
0.00194946
7.20231e-06
0.00194686
7.10373e-06
0.00194427
7.00689e-06
0.00194172
6.91176e-06
0.00193919
6.81822e-06
0.00193668
6.72632e-06
0.0019342
6.63601e-06
0.00193175
6.5474e-06
0.00192932
6.46052e-06
0.00192691
6.37552e-06
0.00192453
6.29241e-06
0.00192217
6.21131e-06
0.00191984
6.13221e-06
0.00191752
6.05523e-06
0.00191523
5.98037e-06
0.00191296
5.90792e-06
0.00191071
5.83797e-06
0.00190848
5.77227e-06
0.00190628
5.71041e-06
0.0019041
5.65156e-06
0.00190194
5.59699e-06
0.00189981
5.54674e-06
0.00189771
5.50008e-06
0.00189563
5.45626e-06
0.00189357
5.41434e-06
0.00189153
5.37372e-06
0.00188952
5.33393e-06
0.00188752
5.2948e-06
0.00188554
5.25615e-06
0.00188358
5.21804e-06
0.00188164
5.1804e-06
0.00187971
5.14342e-06
0.00187779
5.10712e-06
0.00187589
5.07168e-06
0.00187401
5.03715e-06
0.00187213
5.00372e-06
0.00187027
4.97141e-06
0.00186842
4.94042e-06
0.00186658
4.91073e-06
0.00186475
4.88254e-06
0.00186294
4.85584e-06
0.00186113
4.83082e-06
0.00185933
4.80748e-06
0.00185754
4.78603e-06
0.00185575
4.76646e-06
0.00185397
4.74899e-06
0.0018522
4.73363e-06
0.00185044
4.72053e-06
0.00184868
4.70971e-06
0.00184692
4.70149e-06
0.00184517
4.69598e-06
0.00184342
4.69347e-06
0.00184167
4.69405e-06
0.00183992
4.69798e-06
0.00183817
4.70536e-06
0.00183641
4.71646e-06
0.00183466
4.73139e-06
0.0018329
4.75044e-06
0.00183113
4.77372e-06
0.00182936
4.80159e-06
0.00182758
4.83419e-06
0.0018258
4.87191e-06
0.001824
4.91495e-06
0.00182218
4.96372e-06
0.00182036
5.01848e-06
0.00181851
5.0797e-06
0.00181665
5.14768e-06
0.00181477
5.22294e-06
0.00181286
5.30584e-06
0.00181093
5.39697e-06
0.00180898
5.49675e-06
0.00180699
5.60585e-06
0.00180497
5.72474e-06
0.00180291
5.85418e-06
0.00180081
5.99473e-06
0.00179867
6.14724e-06
0.00179648
6.31238e-06
0.00179424
6.49108e-06
0.00179195
6.68413e-06
0.00178959
6.89247e-06
0.00178718
7.11701e-06
0.00178469
7.35915e-06
0.00178213
7.62005e-06
0.00177949
7.90107e-06
0.00177676
8.20344e-06
0.00177394
8.52867e-06
0.00177101
8.87819e-06
0.00176798
9.2537e-06
0.00176484
9.65686e-06
0.00176157
1.00896e-05
0.00175817
1.05539e-05
0.00175463
1.10519e-05
0.00175093
1.1586e-05
0.00174707
1.21586e-05
0.00174304
1.27725e-05
0.00173881
1.34306e-05
0.00173439
1.41359e-05
0.00172975
1.4892e-05
0.00172487
1.57023e-05
0.00171975
1.6571e-05
0.00171436
1.75021e-05
0.00170869
1.85003e-05
0.00170271
1.95704e-05
0.0016964
2.07179e-05
0.00168974
2.19484e-05
0.0016827
2.32682e-05
0.00167527
2.46838e-05
0.00166739
2.62026e-05
0.00165906
2.78322e-05
0.00165022
2.95811e-05
0.00164086
3.14581e-05
0.00163091
3.34732e-05
0.00162036
3.56366e-05
0.00160914
3.79596e-05
0.00159721
4.04542e-05
0.00158452
4.31332e-05
0.00157102
4.60102e-05
0.00155662
4.90997e-05
0.00154128
5.2417e-05
0.00152492
5.5978e-05
0.00150745
5.97993e-05
0.0014888
6.38975e-05
0.00146887
6.82919e-05
0.00144756
7.29964e-05
0.00142477
7.80246e-05
0.00140039
8.33917e-05
0.00137427
8.91026e-05
0.00134626
9.51527e-05
0.00131619
0.000101527
0.00128389
0.000108198
0.00124914
0.00011512
0.00121172
0.000122229
0.00117143
0.000129433
0.00112803
0.000136614
0.00108131
0.000143621
0.00103109
0.000150267
0.000977239
0.000156337
0.000919714
0.000161594
0.000858597
0.000165795
0.000794181
0.000168732
0.000726924
0.00017013
0.000657333
0.000169579
0.000586192
0.000166943
0.000514676
0.000162559
0.000444064
0.000156778
0.000375053
0.000149164
0.000307488
0.000139069
0.000241474
0.000126236
0.000177865
0.000110706
0.000118177
9.40352e-05
6.39959e-05
7.871e-05
1.61786e-05
6.65212e-05
-2.54718e-05
5.78141e-05
-6.13052e-05
5.20655e-05
4.93335e-05
-9.25716e-05
-0.000717339
-0.00168988
-0.000559661
-0.00159208
-0.000371019
-0.00141201
-0.000176169
-0.00121919
1.22103e-05
-0.00103229
0.000187237
-0.000866091
0.000346213
-0.000725766
0.000488864
-0.000611251
0.000616242
-0.000519623
0.000730015
-0.000446964
0.00083201
-0.000389415
0.000923966
-0.000343624
0.00100742
-0.000306876
0.00108367
-0.000277045
0.00115379
-0.000252499
0.00121867
-0.000231998
0.00127902
-0.000214602
0.00133539
-0.0001996
0.00138826
-0.000186454
0.00143799
-0.000174756
0.00148488
-0.000164197
0.00152919
-0.000154543
0.0015711
-0.000145617
0.0016108
-0.000137287
0.00164842
-0.000129451
0.00168408
-0.000122034
0.00171789
-0.000114977
0.00174996
-0.000108239
0.00178035
-0.000101789
0.00180915
-9.56023e-05
0.00183644
-8.96618e-05
0.00186227
-8.39535e-05
0.00188671
-7.8467e-05
0.00190982
-7.3194e-05
0.00193165
-6.81279e-05
0.00195227
-6.32627e-05
0.00197172
-5.85932e-05
0.00199006
-5.41135e-05
0.00200733
-4.98178e-05
0.00202359
-4.57022e-05
0.00203888
-4.17646e-05
0.00205326
-3.80009e-05
0.00206677
-3.44023e-05
0.00207947
-3.096e-05
0.00209141
-2.76691e-05
0.00210262
-2.45283e-05
0.00211315
-2.15373e-05
0.00212301
-1.86945e-05
0.00213224
-1.59963e-05
0.00214087
-1.34381e-05
0.00214894
-1.1013e-05
0.00215646
-8.71395e-06
0.00216348
-6.53771e-06
0.00217001
-4.48299e-06
0.00217608
-2.5476e-06
0.00218171
-7.28258e-07
0.00218693
9.77521e-07
0.00219176
2.57256e-06
0.00219622
4.05806e-06
0.00220034
5.43319e-06
0.00220412
6.69692e-06
0.00220757
7.84929e-06
0.00221072
8.89364e-06
0.00221356
9.83626e-06
0.00221609
1.06828e-05
0.00221831
1.14388e-05
0.00222023
1.2112e-05
0.00222186
1.27131e-05
0.0022232
1.32538e-05
0.00222427
1.37453e-05
0.0022251
1.4197e-05
0.00222568
1.4616e-05
0.00222606
1.5007e-05
0.00222624
1.53727e-05
0.00222625
1.57147e-05
0.00222609
1.60336e-05
0.00222579
1.63294e-05
0.00222535
1.66017e-05
0.00222479
1.68499e-05
0.00222412
1.7073e-05
0.00222335
1.72699e-05
0.00222248
1.74393e-05
0.00222152
1.75795e-05
0.00222048
1.76893e-05
0.00221934
1.7768e-05
0.00221811
1.78151e-05
0.00221679
1.783e-05
0.00221537
1.78124e-05
0.00221384
1.77632e-05
0.00221222
1.76847e-05
0.00221049
1.75812e-05
0.00220867
1.74577e-05
0.00220675
1.732e-05
0.00220474
1.71735e-05
0.00220266
1.70227e-05
0.00220051
1.6871e-05
0.00219829
1.67203e-05
0.00219602
1.65711e-05
0.0021937
1.64235e-05
0.00219133
1.62767e-05
0.00218892
1.61295e-05
0.00218646
1.59803e-05
0.00218397
1.58277e-05
0.00218144
1.56704e-05
0.00217888
1.5508e-05
0.00217628
1.53406e-05
0.00217366
1.51689e-05
0.002171
1.49942e-05
0.00216833
1.48179e-05
0.00216563
1.46415e-05
0.00216292
1.44661e-05
0.00216019
1.42929e-05
0.00215746
1.41222e-05
0.00215472
1.39543e-05
0.00215199
1.37893e-05
0.00214926
1.36269e-05
0.00214654
1.3467e-05
0.00214382
1.33102e-05
0.00214111
1.31557e-05
0.00213842
1.30027e-05
0.00213574
1.28516e-05
0.00213306
1.27023e-05
0.0021304
1.25547e-05
0.00212775
1.24086e-05
0.00212511
1.2264e-05
0.00212249
1.21208e-05
0.00211987
1.1979e-05
0.00211727
1.18384e-05
0.00211468
1.16992e-05
0.0021121
1.15611e-05
0.00210954
1.14242e-05
0.002107
1.12883e-05
0.00210448
1.11534e-05
0.00210197
1.10194e-05
0.00209948
1.08862e-05
0.002097
1.0754e-05
0.00209454
1.06228e-05
0.0020921
1.04927e-05
0.00208967
1.03639e-05
0.00208726
1.02365e-05
0.00208487
1.01106e-05
0.00208249
9.9865e-06
0.00208012
9.86416e-06
0.00207777
9.74364e-06
0.00207544
9.62492e-06
0.00207313
9.50799e-06
0.00207083
9.39277e-06
0.00206855
9.27927e-06
0.00206628
9.16744e-06
0.00206404
9.05733e-06
0.00206181
8.94895e-06
0.00205959
8.84237e-06
0.00205739
8.73763e-06
0.00205521
8.63483e-06
0.00205304
8.53403e-06
0.00205089
8.43532e-06
0.00204875
8.33869e-06
0.00204663
8.24421e-06
0.00204453
8.15189e-06
0.00204244
8.06184e-06
0.00204037
7.97423e-06
0.00203831
7.88918e-06
0.00203626
7.80761e-06
0.00203424
7.72894e-06
0.00203223
7.65233e-06
0.00203024
7.57917e-06
0.00202827
7.51002e-06
0.00202632
7.44466e-06
0.00202438
7.38248e-06
0.00202247
7.32282e-06
0.00202057
7.26504e-06
0.00201869
7.20885e-06
0.00201682
7.154e-06
0.00201497
7.10037e-06
0.00201313
7.04786e-06
0.00201131
6.99652e-06
0.0020095
6.94634e-06
0.0020077
6.89744e-06
0.00200592
6.84989e-06
0.00200415
6.80381e-06
0.00200238
6.75929e-06
0.00200063
6.71644e-06
0.00199889
6.67535e-06
0.00199716
6.63612e-06
0.00199544
6.59884e-06
0.00199372
6.56362e-06
0.00199202
6.53056e-06
0.00199032
6.49979e-06
0.00198863
6.4714e-06
0.00198695
6.44557e-06
0.00198527
6.4224e-06
0.00198359
6.40206e-06
0.00198192
6.3846e-06
0.00198026
6.37017e-06
0.0019786
6.35905e-06
0.00197694
6.35151e-06
0.00197528
6.34772e-06
0.00197362
6.34789e-06
0.00197196
6.3522e-06
0.0019703
6.36091e-06
0.00196864
6.3742e-06
0.00196697
6.39237e-06
0.0019653
6.41564e-06
0.00196363
6.44432e-06
0.00196194
6.47869e-06
0.00196026
6.51913e-06
0.00195856
6.56595e-06
0.00195685
6.61959e-06
0.00195513
6.68041e-06
0.00195339
6.74888e-06
0.00195164
6.82546e-06
0.00194988
6.91066e-06
0.00194809
7.005e-06
0.00194629
7.10908e-06
0.00194446
7.22347e-06
0.0019426
7.34888e-06
0.00194072
7.48595e-06
0.0019388
7.63549e-06
0.00193686
7.79824e-06
0.00193487
7.9751e-06
0.00193285
8.16696e-06
0.00193078
8.37482e-06
0.00192867
8.59971e-06
0.00192651
8.84282e-06
0.0019243
9.10518e-06
0.00192202
9.38814e-06
0.00191969
9.69325e-06
0.00191728
1.0022e-05
0.0019148
1.03759e-05
0.00191225
1.07566e-05
0.00190961
1.11659e-05
0.00190688
1.16057e-05
0.00190405
1.2078e-05
0.00190112
1.25851e-05
0.00189808
1.31292e-05
0.00189492
1.3713e-05
0.00189163
1.43391e-05
0.00188821
1.50105e-05
0.00188463
1.57302e-05
0.0018809
1.65017e-05
0.001877
1.73286e-05
0.00187292
1.82148e-05
0.00186865
1.91644e-05
0.00186417
2.01821e-05
0.00185947
2.12727e-05
0.00185453
2.24413e-05
0.00184933
2.36938e-05
0.00184387
2.50361e-05
0.00183811
2.64748e-05
0.00183204
2.80171e-05
0.00182564
2.96706e-05
0.00181888
3.14434e-05
0.00181173
3.33445e-05
0.00180418
3.53834e-05
0.00179619
3.75703e-05
0.00178774
3.99164e-05
0.00177878
4.24335e-05
0.00176928
4.51346e-05
0.0017592
4.80333e-05
0.00174851
5.11446e-05
0.00173716
5.44841e-05
0.00172511
5.80688e-05
0.00171229
6.19167e-05
0.00169866
6.60469e-05
0.00168416
7.04795e-05
0.00166872
7.52356e-05
0.00165229
8.03367e-05
0.00163477
8.58062e-05
0.00161611
9.16658e-05
0.0015962
9.79346e-05
0.00157496
0.000104632
0.00155229
0.000111774
0.00152807
0.000119369
0.00150218
0.000127417
0.00147448
0.000135907
0.00144479
0.000144813
0.00141292
0.000154093
0.00137868
0.000163679
0.00134182
0.000173478
0.00130208
0.000183362
0.00125918
0.000193162
0.00121285
0.000202671
0.00116281
0.00021164
0.00110882
0.00021978
0.00105078
0.000226781
0.000988637
0.000232271
0.000922453
0.000235764
0.000852514
0.000236885
0.000779497
0.000235578
0.000704365
0.000231912
0.000627945
0.000225585
0.000550828
0.000216187
0.000473496
0.00020357
0.00039653
0.000187673
0.000321279
0.000169287
0.000249779
0.000150211
0.000184009
0.000132291
0.000125193
0.000116629
7.36234e-05
0.000103633
9.39238e-05
2.90295e-05
-0.000511806
-0.00176901
-0.00040717
-0.00169671
-0.000274009
-0.00154517
-0.000126168
-0.00136703
2.62266e-05
-0.00118468
0.000175673
-0.00101553
0.000317553
-0.000867643
0.000449499
-0.000743193
0.000570741
-0.000640859
0.000681511
-0.000557729
0.000782584
-0.000490479
0.000874952
-0.000435984
0.000959648
-0.000391561
0.00103763
-0.000355019
0.00110976
-0.000324617
0.00117677
-0.000298994
0.00123928
-0.000277093
0.00129779
-0.0002581
0.00135274
-0.000241389
0.00140448
-0.000226477
0.0014533
-0.000212996
0.00149943
-0.000200663
0.00154309
-0.000189261
0.00158445
-0.000178627
0.00162365
-0.000168634
0.00166082
-0.000159188
0.00169608
-0.000150215
0.00172952
-0.000141661
0.00176124
-0.000133485
0.00179131
-0.000125654
0.00181981
-0.000118146
0.00184681
-0.000110942
0.00187239
-0.000104026
0.0018966
-9.73865e-05
0.0019195
-9.1015e-05
0.00194116
-8.49025e-05
0.00196163
-7.90415e-05
0.00198095
-7.34245e-05
0.0019992
-6.80447e-05
0.00201641
-6.2896e-05
0.00203263
-5.79741e-05
0.00204792
-5.32738e-05
0.00206232
-4.87876e-05
0.00207588
-4.45066e-05
0.00208865
-4.04235e-05
0.00210067
-3.65328e-05
0.00211197
-3.28305e-05
0.0021226
-2.93118e-05
0.00213259
-2.59717e-05
0.00214197
-2.28038e-05
0.00215077
-1.98011e-05
0.00215902
-1.69562e-05
0.00216676
-1.42642e-05
0.00217401
-1.17214e-05
0.00218079
-9.32454e-06
0.00218714
-7.06867e-06
0.00219308
-4.94978e-06
0.00219862
-2.96444e-06
0.0022038
-1.10972e-06
0.00220862
6.16025e-07
0.00221311
2.21389e-06
0.00221728
3.68615e-06
0.00222114
5.03718e-06
0.00222471
6.27456e-06
0.00222799
7.40535e-06
0.00223099