/*--------------------------------*- C++ -*----------------------------------*\
  =========                 |
  \\      /  F ield         | OpenFOAM: The Open Source CFD Toolbox
   \\    /   O peration     | Website:  https://openfoam.org
    \\  /    A nd           | Version:  9
     \\/     M anipulation  |
\*---------------------------------------------------------------------------*/
FoamFile
{
    format      ascii;
    class       volScalarField;
    location    "0.008099";
    object      alphat;
}
// * * * * * * * * * * * * * * * * * * * * * * * * * * * * * * * * * * * * * //

dimensions      [1 -1 -1 0 0 0 0];

internalField   nonuniform List<scalar> 
5373
(
0.0162947
0.016259
0.016259
0.0162589
0.0162589
0.0162182
0.0162182
0.0162181
0.016218
0.016218
0.0162179
0.01618
0.0161801
0.0161801
0.0161802
0.0161803
0.0161803
0.0161804
0.0161805
0.0161351
0.0161352
0.0161353
0.0161354
0.0161355
0.0161356
0.0161357
0.0161358
0.0161359
0.0160887
0.0160888
0.016089
0.0160891
0.0160892
0.0160894
0.0160895
0.0160897
0.0160898
0.0160899
0.0160901
0.0160351
0.0160353
0.0160355
0.0160357
0.0160359
0.0160361
0.0160363
0.0160364
0.0160366
0.0160368
0.016037
0.0159711
0.0159713
0.0159716
0.0159718
0.0159721
0.0159723
0.0159726
0.0159728
0.0159731
0.0159733
0.0159736
0.0159738
0.0158943
0.0158947
0.015895
0.0158954
0.0158957
0.015896
0.0158964
0.0158967
0.015897
0.0158974
0.0158977
0.015898
0.0158983
0.0158032
0.0158036
0.0158041
0.0158045
0.0158049
0.0158054
0.0158058
0.0158062
0.0158067
0.0158071
0.0158075
0.0158079
0.0158083
0.0156939
0.0156945
0.0156951
0.0156957
0.0156963
0.0156968
0.0156974
0.015698
0.0156985
0.0156991
0.0156996
0.0157002
0.0157007
0.0157012
0.0155637
0.0155645
0.0155652
0.015566
0.0155667
0.0155674
0.0155682
0.0155689
0.0155696
0.0155703
0.015571
0.0155717
0.0155724
0.015573
0.015406
0.0154069
0.0154079
0.0154088
0.0154098
0.0154107
0.0154116
0.0154125
0.0154134
0.0154143
0.0154152
0.0154161
0.015417
0.0154178
0.0154187
0.0152168
0.015218
0.0152192
0.0152204
0.0152215
0.0152227
0.0152238
0.015225
0.0152261
0.0152272
0.0152283
0.0152294
0.0152304
0.0152315
0.0152325
0.0149882
0.0149897
0.0149911
0.0149926
0.014994
0.0149954
0.0149968
0.0149982
0.0149995
0.0150009
0.0150022
0.0150035
0.0150048
0.015006
0.0150073
0.0147121
0.0147139
0.0147156
0.0147173
0.014719
0.0147207
0.0147223
0.014724
0.0147256
0.0147271
0.0147287
0.0147302
0.0147317
0.0147332
0.0147347
0.0143794
0.0143814
0.0143834
0.0143854
0.0143874
0.0143893
0.0143912
0.014393
0.0143949
0.0143967
0.0143984
0.0144001
0.0144018
0.0144035
0.0144051
0.0139785
0.0139809
0.0139831
0.0139854
0.0139876
0.0139897
0.0139918
0.0139939
0.0139959
0.0139979
0.0139998
0.0140017
0.0140035
0.0140053
0.0140071
0.0140088
0.013506
0.0135084
0.0135108
0.0135131
0.0135154
0.0135176
0.0135197
0.0135218
0.0135239
0.0135259
0.0135278
0.0135297
0.0135315
0.0135332
0.0135349
0.0135365
0.0129546
0.012957
0.0129593
0.0129615
0.0129637
0.0129657
0.0129677
0.0129696
0.0129714
0.0129732
0.0129749
0.0129765
0.012978
0.0129794
0.0129808
0.0129821
0.012325
0.012327
0.012329
0.0123309
0.0123327
0.0123344
0.0123359
0.0123373
0.0123386
0.0123398
0.0123409
0.0123419
0.0123428
0.0123437
0.0123445
0.0123452
0.0116271
0.0116285
0.0116297
0.0116308
0.0116318
0.0116326
0.0116334
0.011634
0.0116345
0.0116349
0.011635
0.0116351
0.0116352
0.0116351
0.011635
0.0116346
0.0108865
0.0108866
0.0108867
0.0108866
0.0108864
0.0108861
0.0108856
0.0108851
0.0108844
0.0108835
0.0108823
0.0108809
0.0108794
0.0108777
0.0108758
0.0108739
0.0101587
0.0101575
0.0101562
0.0101548
0.0101532
0.0101514
0.0101495
0.0101473
0.0101449
0.0101422
0.0101394
0.0101363
0.0101331
0.0101297
0.0101261
0.0101224
0.00955502
0.00955275
0.00955034
0.00954778
0.00954496
0.00954193
0.00953873
0.00953536
0.00953184
0.00952817
0.00952437
0.00952043
0.00951636
0.00951216
0.00950782
0.00950335
0.00926627
0.00926479
0.00926305
0.0092608
0.0092578
0.00925406
0.00924964
0.00924462
0.00923904
0.00923295
0.00922636
0.0092193
0.00921195
0.00920445
0.00919684
0.00918916
0.00916808
0.00916428
0.00916042
0.00915652
0.00915259
0.00914866
0.00914478
0.00914098
0.00913732
0.00913384
0.00913059
0.00912762
0.00912497
0.00912245
0.00911976
0.00911687
0.00925892
0.00925918
0.00925936
0.00925943
0.00925934
0.00925912
0.00925877
0.00925842
0.00925807
0.00925775
0.00925743
0.0092571
0.00925672
0.00925626
0.00925572
0.00925511
0.0093893
0.00939221
0.00939508
0.00939792
0.0094007
0.00940343
0.00940612
0.00940877
0.00941139
0.00941397
0.00941651
0.00941902
0.00942149
0.00942392
0.00942633
0.00942873
0.00942535
0.00943082
0.00943627
0.00944167
0.00944702
0.00945231
0.00945754
0.00946272
0.00946783
0.0094729
0.0094779
0.00948286
0.00948776
0.00949261
0.00949743
0.00950224
0.00928227
0.00928972
0.0092971
0.0093044
0.00931159
0.00931868
0.00932566
0.00933253
0.00933927
0.0093459
0.0093524
0.00935878
0.00936502
0.00937112
0.0093771
0.00938298
0.00892151
0.0089306
0.00893966
0.00894841
0.00895692
0.00896521
0.00897329
0.00898115
0.00898879
0.0089962
0.00900338
0.0090103
0.00901695
0.00902331
0.0090294
0.00903522
0.0083437
0.00835387
0.00836396
0.0083739
0.00838367
0.0083932
0.00840219
0.00841075
0.00841892
0.00842671
0.0084341
0.00844107
0.00844759
0.00845361
0.00845955
0.00846523
0.00757169
0.00758281
0.00759385
0.00760476
0.00761547
0.00762595
0.00763615
0.00764564
0.00765446
0.00766271
0.00767037
0.00767743
0.00768382
0.00769
0.00769584
0.00770117
0.00664321
0.00665503
0.00666684
0.00667856
0.00669012
0.00670149
0.00671258
0.0067233
0.00673301
0.00674196
0.0067502
0.00675767
0.00676448
0.00677105
0.00677702
0.00678221
0.0056202
0.00563195
0.00564376
0.00565555
0.00566729
0.00567889
0.00569032
0.00570148
0.00571184
0.00572128
0.00572994
0.00573777
0.00574503
0.0057519
0.00575796
0.00576301
0.00460419
0.00461442
0.00462476
0.00463515
0.00464553
0.00465585
0.00466603
0.004676
0.00468557
0.00469409
0.00470181
0.00470869
0.00471523
0.00472121
0.00472619
0.00472996
0.00369193
0.0037
0.00370817
0.0037164
0.00372462
0.00373275
0.00374073
0.00374847
0.00375585
0.00376239
0.00376794
0.00377271
0.00377718
0.00378084
0.00378334
0.00378434
0.00290561
0.00291176
0.00291801
0.00292429
0.00293053
0.00293667
0.00294263
0.00294832
0.00295362
0.00295834
0.00296197
0.00296497
0.00296748
0.00296904
0.00296929
0.00296746
0.00223832
0.00224291
0.00224757
0.00225225
0.00225687
0.0022614
0.00226574
0.00226981
0.00227351
0.00227674
0.00227902
0.00228077
0.00228189
0.00228201
0.00228049
0.002277
0.00167922
0.00168255
0.00168594
0.00168933
0.00169268
0.00169593
0.00169902
0.00170188
0.00170441
0.00170653
0.00170793
0.00170885
0.00170911
0.00170824
0.00170589
0.00170174
0.00121697
0.00121931
0.00122169
0.00122407
0.00122642
0.00122869
0.00123084
0.0012328
0.0012345
0.00123587
0.0012367
0.00123712
0.00123686
0.00123559
0.00123308
0.00122894
0.000840442
0.000841986
0.000843567
0.000845159
0.000846733
0.000848256
0.000849692
0.000850995
0.000852113
0.000852983
0.000853472
0.000853622
0.000853175
0.000851913
0.000849628
0.000845929
0.000538857
0.000539714
0.000540612
0.000541534
0.000542462
0.000543373
0.000544242
0.000545037
0.000545722
0.000546252
0.000546548
0.000546594
0.00054619
0.00054517
0.000543344
0.000540319
0.000306143
0.000305698
0.000305326
0.000305033
0.000304819
0.000304681
0.000304609
0.000304586
0.000304583
0.000304586
0.000304576
0.00030453
0.000304309
0.000303758
0.000302768
0.000300862
0.000145357
0.000144066
0.000142796
0.000141563
0.000140378
0.000139257
0.000138217
0.000137258
0.000136349
0.000135434
0.000134366
0.000133409
0.000132531
0.000131416
0.000130564
0.00012869
2.51984e-06
2.48318e-06
2.41747e-06
2.33844e-06
2.2198e-06
2.05147e-06
1.84414e-06
1.65949e-06
1.57308e-06
1.61139e-06
1.6137e-06
1.31834e-06
9.7921e-07
9.65349e-07
1.47777e-06
1.3631e-06
0.0163397
0.0163399
0.01634
0.0163401
0.0163402
0.0163403
0.0163405
0.0163406
0.0163407
0.0163408
0.0163409
0.0163411
0.0163412
0.0163413
0.0163414
0.0163416
0.0163417
0.0163418
0.0163419
0.016342
0.0163422
0.0163423
0.0163424
0.0163425
0.0163427
0.0163428
0.0163429
0.016343
0.0163431
0.0163433
0.0163434
0.0163435
0.0163436
0.0163438
0.0163439
0.016344
0.0163441
0.0163443
0.0163444
0.0163445
0.0163446
0.0163448
0.0163449
0.016345
0.0163451
0.0163453
0.0163454
0.0163455
0.0163456
0.0163431
0.016343
0.0163428
0.0163427
0.0163426
0.0163424
0.0163423
0.0163421
0.016342
0.0163418
0.0163417
0.0163415
0.0163413
0.0163411
0.016341
0.0163408
0.0163406
0.0163404
0.0163402
0.01634
0.0163398
0.0163396
0.0163394
0.0163391
0.0163389
0.0163387
0.0163384
0.0163382
0.016338
0.0163377
0.0163375
0.0163372
0.0163369
0.0163367
0.0163364
0.0163361
0.0163359
0.0163356
0.0163353
0.016335
0.0163347
0.0163344
0.0163341
0.0163338
0.0163334
0.0163331
0.0163328
0.0163325
0.0163321
0.016328
0.0163279
0.0163277
0.0163276
0.0163275
0.0163274
0.0163273
0.0163272
0.0163271
0.016327
0.0163268
0.0163267
0.0163266
0.0163265
0.0163264
0.0163263
0.0163262
0.0163261
0.0163259
0.0163258
0.0163257
0.0163256
0.0163255
0.0163254
0.0163253
0.0163251
0.016325
0.0163249
0.0163248
0.0163247
0.0163245
0.0163244
0.0163243
0.0163242
0.0163241
0.0163239
0.0163238
0.0163237
0.0163236
0.0163234
0.0163233
0.0163232
0.016323
0.0163229
0.0163228
0.0163226
0.0163225
0.0163224
0.0163222
0.0163221
0.0162947
0.0162948
0.016295
0.0162952
0.0162954
0.0162955
0.0162954
0.0162954
0.0162953
0.0162952
0.016295
0.0162949
0.0162948
0.0162946
0.0162944
0.0162943
0.0162941
0.0162939
0.0162937
0.0162935
0.0162933
0.0162931
0.0162929
0.0162927
0.0162925
0.0162923
0.0162921
0.0162918
0.0162916
0.0162914
0.0162912
0.0162909
0.0162907
0.0162905
0.0162902
0.01629
0.0162898
0.0162895
0.0162893
0.0162891
0.0162888
0.0162886
0.0162883
0.0162881
0.0162879
0.0162876
0.0162874
0.0162871
0.0162869
0.0162867
0.0162588
0.0162585
0.0162583
0.0162581
0.0162579
0.0162578
0.0162577
0.0162576
0.0162575
0.0162575
0.0162577
0.016258
0.0162582
0.0162585
0.0162587
0.016259
0.0162592
0.0162595
0.0162598
0.01626
0.0162603
0.0162606
0.0162608
0.0162611
0.0162614
0.0162617
0.0162619
0.0162622
0.0162625
0.0162627
0.016263
0.0162633
0.0162636
0.0162637
0.0162637
0.0162637
0.0162636
0.0162636
0.0162635
0.0162633
0.0162632
0.0162631
0.0162629
0.0162628
0.0162626
0.0162624
0.0162622
0.016262
0.0162618
0.0162616
0.0162178
0.016218
0.0162183
0.0162187
0.016219
0.0162194
0.0162197
0.0162201
0.0162205
0.0162208
0.0162212
0.0162216
0.0162219
0.0162223
0.0162227
0.016223
0.0162234
0.0162238
0.0162241
0.0162245
0.0162246
0.0162246
0.0162245
0.0162244
0.0162243
0.0162241
0.016224
0.0162238
0.0162236
0.0162236
0.0162236
0.0162239
0.0162242
0.0162246
0.0162249
0.0162253
0.0162257
0.016226
0.0162264
0.0162268
0.0162272
0.0162275
0.0162279
0.0162283
0.0162287
0.016229
0.0162294
0.0162298
0.0162302
0.0162306
0.0161807
0.016181
0.0161815
0.016182
0.0161825
0.0161826
0.0161827
0.016183
0.0161835
0.016184
0.0161845
0.0161849
0.0161854
0.0161859
0.0161864
0.0161869
0.0161874
0.0161879
0.0161884
0.0161888
0.0161893
0.0161898
0.0161903
0.0161908
0.016191
0.016191
0.016191
0.0161908
0.0161907
0.0161906
0.0161906
0.0161908
0.0161912
0.0161917
0.0161922
0.0161927
0.0161932
0.0161937
0.0161942
0.0161947
0.0161952
0.0161957
0.0161962
0.0161967
0.0161972
0.0161977
0.0161982
0.0161988
0.0161993
0.0161998
0.0161361
0.0161366
0.0161372
0.0161378
0.0161382
0.0161387
0.0161393
0.0161399
0.0161405
0.0161412
0.0161418
0.0161424
0.0161431
0.0161437
0.0161444
0.016145
0.0161456
0.0161463
0.0161469
0.0161476
0.0161482
0.0161488
0.0161495
0.0161501
0.0161508
0.0161514
0.0161521
0.0161527
0.0161534
0.0161541
0.0161547
0.0161554
0.016156
0.0161567
0.0161574
0.016158
0.0161587
0.0161593
0.01616
0.0161607
0.0161614
0.016162
0.0161627
0.0161634
0.016164
0.0161647
0.0161654
0.0161661
0.0161667
0.0161674
0.0160904
0.016091
0.0160918
0.0160926
0.0160934
0.0160943
0.0160951
0.0160959
0.0160968
0.0160976
0.0160984
0.0160992
0.0161001
0.0161009
0.0161018
0.0161026
0.0161034
0.0161043
0.0161051
0.016106
0.0161068
0.0161077
0.0161085
0.0161094
0.0161102
0.0161111
0.0161119
0.0161128
0.0161136
0.0161145
0.0161154
0.0161162
0.0161171
0.016118
0.0161188
0.0161197
0.0161206
0.0161214
0.0161223
0.0161232
0.0161241
0.0161249
0.0161258
0.0161267
0.0161276
0.0161285
0.0161294
0.0161302
0.0161311
0.016132
0.0160374
0.0160383
0.0160393
0.0160403
0.0160414
0.0160425
0.0160435
0.0160446
0.0160457
0.0160468
0.0160478
0.0160489
0.01605
0.0160511
0.0160522
0.0160533
0.0160544
0.0160555
0.0160566
0.0160577
0.0160588
0.0160599
0.016061
0.0160621
0.0160632
0.0160643
0.0160655
0.0160666
0.0160677
0.0160688
0.01607
0.0160711
0.0160722
0.0160734
0.0160745
0.0160756
0.0160768
0.0160779
0.0160791
0.0160802
0.0160814
0.0160825
0.0160837
0.0160848
0.016086
0.0160872
0.0160883
0.0160895
0.0160907
0.0160918
0.0159743
0.0159755
0.0159768
0.0159781
0.0159795
0.0159809
0.0159823
0.0159837
0.0159851
0.0159865
0.0159879
0.0159893
0.0159907
0.0159921
0.0159935
0.0159949
0.0159964
0.0159978
0.0159992
0.0160007
0.0160021
0.0160035
0.016005
0.0160064
0.0160079
0.0160094
0.0160108
0.0160123
0.0160138
0.0160152
0.0160167
0.0160182
0.0160197
0.0160212
0.0160227
0.0160242
0.0160257
0.0160272
0.0160287
0.0160302
0.0160317
0.0160332
0.0160347
0.0160363
0.0160378
0.0160393
0.0160409
0.0160424
0.016044
0.0160455
0.0158989
0.0159004
0.0159021
0.0159039
0.0159057
0.0159074
0.0159092
0.015911
0.0159128
0.0159146
0.0159165
0.0159183
0.0159201
0.0159219
0.0159238
0.0159256
0.0159275
0.0159293
0.0159312
0.0159331
0.0159349
0.0159368
0.0159387
0.0159406
0.0159425
0.0159444
0.0159463
0.0159482
0.0159502
0.0159521
0.015954
0.015956
0.0159579
0.0159599
0.0159619
0.0159638
0.0159658
0.0159678
0.0159698
0.0159718
0.0159738
0.0159758
0.0159778
0.0159798
0.0159819
0.0159839
0.015986
0.015988
0.0159901
0.0159921
0.0158091
0.0158111
0.0158133
0.0158155
0.0158178
0.0158201
0.0158223
0.0158247
0.015827
0.0158293
0.0158316
0.015834
0.0158363
0.0158387
0.0158411
0.0158435
0.0158459
0.0158483
0.0158507
0.0158531
0.0158555
0.015858
0.0158605
0.0158629
0.0158654
0.0158679
0.0158704
0.0158729
0.0158754
0.0158779
0.0158805
0.015883
0.0158856
0.0158881
0.0158907
0.0158933
0.0158959
0.0158985
0.0159012
0.0159038
0.0159065
0.0159092
0.0159118
0.0159145
0.0159172
0.01592
0.0159227
0.0159254
0.0159281
0.0159309
0.0157022
0.0157047
0.0157075
0.0157103
0.0157132
0.0157161
0.015719
0.015722
0.0157249
0.0157279
0.0157309
0.0157339
0.0157369
0.01574
0.015743
0.0157461
0.0157492
0.0157523
0.0157554
0.0157586
0.0157617
0.0157649
0.0157681
0.0157713
0.0157745
0.0157777
0.015781
0.0157842
0.0157875
0.0157908
0.0157941
0.0157975
0.0158008
0.0158042
0.0158076
0.0158111
0.0158145
0.015818
0.0158215
0.015825
0.0158285
0.015832
0.0158356
0.0158391
0.0158427
0.0158463
0.0158499
0.0158535
0.0158571
0.0158607
0.0155743
0.0155774
0.0155809
0.0155845
0.0155881
0.0155918
0.0155955
0.0155992
0.0156029
0.0156067
0.0156105
0.0156143
0.0156182
0.0156221
0.015626
0.0156299
0.0156339
0.0156378
0.0156418
0.0156459
0.0156499
0.015654
0.0156581
0.0156623
0.0156664
0.0156706
0.0156749
0.0156791
0.0156834
0.0156877
0.015692
0.0156964
0.0157009
0.0157053
0.0157098
0.0157143
0.0157188
0.0157234
0.015728
0.0157326
0.0157373
0.015742
0.0157467
0.0157514
0.0157561
0.0157609
0.0157657
0.0157705
0.0157753
0.0157801
0.0154202
0.015424
0.0154284
0.0154328
0.0154374
0.015442
0.0154466
0.0154512
0.0154559
0.0154607
0.0154655
0.0154703
0.0154752
0.0154801
0.015485
0.01549
0.0154951
0.0155001
0.0155053
0.0155104
0.0155156
0.0155209
0.0155261
0.0155315
0.0155368
0.0155423
0.0155477
0.0155532
0.0155588
0.0155645
0.0155702
0.0155759
0.0155817
0.0155875
0.0155934
0.0155994
0.0156054
0.0156114
0.0156175
0.0156236
0.0156297
0.0156359
0.0156421
0.0156484
0.0156547
0.015661
0.0156673
0.0156737
0.0156801
0.0156865
0.0152343
0.0152391
0.0152444
0.0152499
0.0152555
0.0152611
0.0152668
0.0152726
0.0152784
0.0152844
0.0152903
0.0152964
0.0153025
0.0153087
0.0153149
0.0153212
0.0153276
0.015334
0.0153405
0.0153471
0.0153538
0.0153605
0.0153672
0.0153741
0.015381
0.015388
0.0153951
0.0154022
0.0154095
0.0154169
0.0154243
0.0154318
0.0154394
0.0154471
0.0154549
0.0154627
0.0154706
0.0154785
0.0154866
0.0154947
0.0155028
0.015511
0.0155193
0.0155276
0.015536
0.0155444
0.0155529
0.0155614
0.0155699
0.0155785
0.0150094
0.0150151
0.0150215
0.0150282
0.0150349
0.0150418
0.0150487
0.0150558
0.015063
0.0150702
0.0150776
0.0150851
0.0150927
0.0151004
0.0151082
0.0151161
0.0151241
0.0151322
0.0151404
0.0151488
0.0151572
0.0151657
0.0151744
0.0151831
0.015192
0.015201
0.0152102
0.0152195
0.0152289
0.0152385
0.0152482
0.015258
0.015268
0.0152781
0.0152883
0.0152986
0.015309
0.0153195
0.0153302
0.0153409
0.0153517
0.0153627
0.0153737
0.0153848
0.0153959
0.0154072
0.0154185
0.0154298
0.0154413
0.0154527
0.0147371
0.0147438
0.0147513
0.0147591
0.0147671
0.0147753
0.0147837
0.0147921
0.0148008
0.0148096
0.0148186
0.0148277
0.014837
0.0148465
0.0148562
0.014866
0.014876
0.0148861
0.0148964
0.0149069
0.0149175
0.0149283
0.0149393
0.0149505
0.0149618
0.0149734
0.0149852
0.0149972
0.0150094
0.0150219
0.0150345
0.0150473
0.0150604
0.0150736
0.0150871
0.0151007
0.0151145
0.0151284
0.0151426
0.0151569
0.0151713
0.0151859
0.0152006
0.0152154
0.0152303
0.0152454
0.0152605
0.0152758
0.0152911
0.0153064
0.0144078
0.0144154
0.014424
0.0144329
0.0144421
0.0144516
0.0144613
0.0144713
0.0144815
0.0144919
0.0145027
0.0145137
0.0145249
0.0145364
0.0145481
0.0145602
0.0145724
0.014585
0.0145978
0.0146108
0.0146241
0.0146377
0.0146515
0.0146656
0.01468
0.0146948
0.0147099
0.0147253
0.014741
0.0147571
0.0147736
0.0147903
0.0148074
0.0148248
0.0148424
0.0148604
0.0148787
0.0148972
0.014916
0.014935
0.0149543
0.0149738
0.0149935
0.0150133
0.0150334
0.0150536
0.015074
0.0150944
0.015115
0.0151357
0.0140116
0.0140198
0.014029
0.0140388
0.014049
0.0140596
0.0140705
0.0140818
0.0140935
0.0141056
0.0141181
0.014131
0.0141443
0.0141579
0.014172
0.0141864
0.0142013
0.0142165
0.0142321
0.0142482
0.0142646
0.0142815
0.0142987
0.0143164
0.0143344
0.014353
0.0143721
0.0143918
0.0144119
0.0144326
0.0144538
0.0144756
0.0144978
0.0145205
0.0145437
0.0145674
0.0145915
0.014616
0.014641
0.0146664
0.0146921
0.0147182
0.0147446
0.0147713
0.0147983
0.0148255
0.0148529
0.0148805
0.0149082
0.014936
0.0135392
0.0135473
0.0135567
0.0135667
0.0135773
0.0135885
0.0136003
0.0136126
0.0136254
0.0136389
0.0136529
0.0136675
0.0136826
0.0136984
0.0137147
0.0137317
0.0137492
0.0137673
0.0137861
0.0138054
0.0138253
0.0138459
0.013867
0.0138888
0.0139111
0.0139341
0.013958
0.0139827
0.0140081
0.0140344
0.0140615
0.0140894
0.0141181
0.0141476
0.0141779
0.0142089
0.0142407
0.0142731
0.0143062
0.01434
0.0143744
0.0144093
0.0144448
0.0144807
0.014517
0.0145536
0.0145906
0.0146278
0.0146652
0.0147028
0.0129842
0.0129913
0.0129997
0.013009
0.0130191
0.01303
0.0130417
0.0130542
0.0130675
0.0130816
0.0130965
0.0131123
0.0131289
0.0131464
0.0131646
0.0131838
0.0132038
0.0132246
0.0132463
0.0132689
0.0132924
0.0133168
0.0133421
0.0133683
0.0133953
0.0134232
0.0134523
0.0134826
0.0135142
0.0135469
0.013581
0.0136162
0.0136528
0.0136906
0.0137296
0.0137698
0.0138113
0.0138539
0.0138976
0.0139423
0.0139881
0.0140347
0.0140822
0.0141304
0.0141793
0.0142288
0.0142787
0.0143289
0.0143794
0.0144301
0.0123463
0.0123507
0.0123567
0.0123638
0.012372
0.0123813
0.0123916
0.0124031
0.0124157
0.0124293
0.0124441
0.01246
0.0124771
0.0124952
0.0125146
0.0125351
0.0125567
0.0125796
0.0126037
0.012629
0.0126555
0.0126834
0.0127125
0.012743
0.0127747
0.0128075
0.0128418
0.0128778
0.0129157
0.0129554
0.0129969
0.0130404
0.0130858
0.0131332
0.0131825
0.0132338
0.0132871
0.0133422
0.0133991
0.0134578
0.0135182
0.0135801
0.0136433
0.0137079
0.0137735
0.01384
0.0139072
0.013975
0.0140431
0.0141114
0.0116339
0.0116343
0.0116361
0.0116391
0.0116436
0.0116495
0.0116568
0.0116656
0.0116757
0.0116873
0.0117003
0.0117148
0.0117307
0.011748
0.0117668
0.0117872
0.011809
0.0118324
0.0118575
0.0118841
0.0119124
0.0119425
0.0119743
0.0120079
0.0120434
0.0120804
0.012119
0.01216
0.0122034
0.0122495
0.0122982
0.0123498
0.0124044
0.0124619
0.0125224
0.012586
0.0126527
0.0127224
0.0127951
0.0128707
0.0129491
0.0130301
0.0131134
0.0131989
0.0132863
0.0133752
0.0134654
0.0135565
0.0136481
0.0137399
0.0108713
0.0108656
0.0108612
0.0108585
0.0108575
0.0108582
0.0108603
0.0108641
0.0108696
0.0108769
0.0108859
0.0108965
0.0109089
0.0109231
0.010939
0.0109567
0.0109763
0.0109978
0.0110212
0.0110467
0.0110743
0.0111041
0.0111362
0.0111707
0.0112077
0.0112472
0.0112882
0.0113318
0.0113787
0.0114292
0.0114833
0.0115415
0.0116038
0.0116704
0.0117415
0.0118172
0.0118977
0.011983
0.012073
0.0121677
0.012267
0.0123707
0.0124784
0.0125899
0.0127046
0.0128221
0.0129418
0.0130632
0.0131856
0.0133084
0.0101172
0.0101044
0.0100922
0.0100815
0.0100721
0.0100641
0.0100577
0.0100535
0.0100515
0.0100516
0.0100534
0.0100568
0.010062
0.0100691
0.0100781
0.010089
0.0101021
0.0101172
0.0101346
0.0101544
0.0101767
0.0102017
0.0102295
0.0102602
0.0102941
0.0103314
0.0103723
0.0104148
0.0104611
0.0105117
0.0105672
0.010628
0.0106943
0.0107666
0.0108452
0.0109305
0.0110228
0.0111222
0.011229
0.0113431
0.0114645
0.0115931
0.0117284
0.0118701
0.0120175
0.0121698
0.0123262
0.0124857
0.0126473
0.0128099
0.00949727
0.00948196
0.00946785
0.00945626
0.00944592
0.00942717
0.00939989
0.00937114
0.00934899
0.00933629
0.00932758
0.00932
0.00931339
0.00930787
0.00930361
0.00930068
0.0092994
0.00929997
0.0093026
0.0093076
0.00931532
0.0093259
0.00933961
0.00935677
0.00937772
0.00940287
0.00943261
0.00946696
0.00950406
0.0095462
0.00959437
0.00964933
0.00971176
0.00978219
0.00986114
0.00994919
0.010047
0.0101551
0.0102741
0.0104043
0.0105457
0.0106983
0.0108619
0.0110359
0.0112195
0.0114118
0.0116114
0.011817
0.0120268
0.012239
0.0091787
0.00915106
0.00912099
0.00908742
0.00905088
0.009016
0.00898642
0.00896966
0.00896076
0.00894892
0.00893343
0.00891586
0.00889726
0.00887861
0.00886077
0.00884444
0.00882639
0.0088058
0.00878335
0.00876061
0.00873915
0.00871932
0.00870133
0.00868545
0.00867201
0.00866169
0.0086556
0.00865461
0.00865806
0.00866572
0.00868071
0.00870576
0.00874364
0.00879493
0.00885831
0.00893364
0.00902201
0.00912493
0.00924386
0.00937974
0.00953283
0.00970307
0.00989052
0.0100947
0.0103147
0.0105492
0.0107966
0.0110547
0.0113212
0.0115931
0.00911272
0.00909789
0.0090789
0.00905725
0.00903384
0.00900924
0.00898359
0.0089565
0.00892708
0.00889414
0.00885774
0.00881828
0.00877605
0.00873126
0.00868405
0.00863448
0.00858252
0.00852853
0.00847313
0.00841703
0.00836137
0.00830717
0.00825528
0.00820655
0.00816187
0.00812084
0.00808257
0.00804893
0.00802155
0.00800021
0.00798357
0.00797357
0.00797169
0.00797875
0.0079962
0.0080256
0.00806933
0.00813134
0.00821786
0.00833333
0.00847758
0.00864761
0.00884508
0.0090697
0.00931964
0.00959342
0.00988877
0.0102029
0.0105323
0.0108729
0.00925422
0.0092483
0.00923841
0.00922507
0.0092083
0.00918791
0.00916363
0.00913515
0.00910211
0.0090643
0.00902166
0.00897418
0.00892183
0.00886458
0.00880242
0.00873536
0.00866358
0.00858735
0.00850689
0.0084225
0.0083346
0.0082437
0.00815042
0.00805548
0.00795971
0.00786401
0.00776958
0.0076782
0.00759249
0.00751563
0.00744898
0.00739129
0.00734105
0.00729907
0.00726942
0.00725506
0.00725819
0.00728107
0.00732623
0.00739132
0.00748663
0.00761292
0.00778492
0.00800613
0.00826783
0.00856901
0.00890535
0.00927333
0.00966806
0.0100837
0.00943216
0.00943898
0.0094426
0.00944251
0.00943897
0.00943129
0.00941931
0.00940279
0.00938144
0.00935506
0.00932341
0.00928628
0.0092434
0.00919451
0.00913935
0.00907765
0.00900914
0.00893356
0.0088506
0.00875999
0.00866148
0.00855491
0.00844018
0.00831733
0.00818661
0.00804856
0.00790412
0.00775493
0.00760272
0.00745015
0.00730025
0.00715628
0.00702013
0.00689216
0.00677896
0.00668504
0.00661387
0.00656682
0.00654589
0.00655603
0.00660303
0.00668893
0.00681219
0.00698463
0.00721535
0.00751731
0.00787561
0.00828652
0.0087426
0.00923523
0.00950933
0.00952785
0.00954474
0.0095591
0.00957062
0.00957895
0.00958384
0.00958503
0.00958226
0.00957524
0.00956371
0.00954732
0.00952569
0.00949839
0.00946494
0.00942494
0.00937794
0.00932338
0.00926067
0.00918914
0.00910806
0.00901669
0.00891435
0.00880024
0.00867352
0.00853347
0.0083795
0.00821119
0.0080284
0.0078316
0.00762208
0.00740234
0.00717649
0.00695315
0.00673593
0.006528
0.00633424
0.00616045
0.00601798
0.00591892
0.00586973
0.00587423
0.00593735
0.00606138
0.00624623
0.00650327
0.00684353
0.00727225
0.00777631
0.00834173
0.00939201
0.00941812
0.00944453
0.00947004
0.00949417
0.0095166
0.00953705
0.00955522
0.0095708
0.00958343
0.00959272
0.00959829
0.00959974
0.00959658
0.00958833
0.00957451
0.00955464
0.00952807
0.009494
0.00945196
0.00940099
0.0093398
0.00926762
0.00918351
0.00908604
0.00897368
0.00884525
0.00869926
0.00853409
0.00834813
0.00813993
0.00790838
0.00765297
0.00737455
0.00708069
0.00678058
0.00647852
0.00618311
0.00590581
0.00565907
0.00545525
0.00530667
0.00523753
0.00525699
0.00537125
0.00557403
0.00587238
0.0062711
0.00679555
0.00742097
0.00904469
0.0090743
0.00910628
0.00913914
0.00917223
0.00920513
0.00923749
0.00926894
0.00929913
0.0093277
0.00935425
0.00937838
0.00939967
0.00941765
0.00943179
0.00944154
0.00944649
0.00944642
0.00943994
0.00942688
0.00940616
0.00937647
0.0093366
0.00928565
0.00922241
0.00914508
0.00905241
0.00894275
0.00881412
0.00866422
0.00849083
0.00829168
0.00806432
0.00780633
0.00751558
0.00719173
0.00684395
0.00647716
0.00610096
0.00572942
0.00538062
0.00507605
0.00483947
0.00469156
0.00465482
0.00474846
0.00497978
0.00533663
0.00583263
0.00649357
0.00847405
0.00850439
0.00853912
0.00857639
0.00861532
0.00865539
0.00869615
0.00873719
0.00877815
0.00881863
0.00885825
0.00889663
0.00893334
0.00896795
0.00899998
0.00902896
0.00905442
0.0090758
0.00909224
0.00910305
0.00910765
0.00910484
0.00909272
0.00907129
0.00903882
0.00899371
0.00893467
0.00886049
0.00876951
0.00865868
0.0085258
0.00836874
0.00818495
0.00797166
0.00772596
0.00744481
0.00712462
0.00676742
0.00637605
0.00595707
0.00552358
0.00509697
0.00470691
0.00438829
0.00417736
0.00410551
0.00419937
0.00448125
0.00492596
0.00558242
0.00770903
0.00774004
0.00777638
0.00781661
0.00785955
0.0079046
0.00795124
0.00799904
0.00804762
0.0080966
0.00814562
0.00819432
0.00824231
0.00828918
0.00833451
0.00837784
0.0084187
0.00845651
0.00849057
0.00852018
0.00854456
0.00856258
0.00857329
0.00857623
0.0085695
0.00855157
0.00852182
0.00847841
0.00841987
0.00834374
0.0082481
0.00813084
0.00798968
0.00782212
0.00762553
0.00739708
0.00713371
0.00683251
0.00648909
0.00610318
0.00567749
0.00521961
0.00474805
0.00429777
0.00391946
0.00366918
0.00359666
0.00373492
0.00411039
0.00471227
0.00678957
0.00682245
0.00686067
0.00690334
0.00694928
0.00699792
0.00704869
0.00710117
0.00715499
0.00720981
0.00726531
0.00732116
0.00737701
0.00743251
0.00748727
0.00754089
0.00759291
0.00764281
0.00768996
0.00773371
0.00777329
0.00780778
0.00783631
0.00785799
0.00787173
0.0078765
0.00787115
0.00785326
0.00782245
0.00777622
0.00771304
0.00763094
0.00752796
0.00740194
0.00725064
0.00707169
0.00686273
0.00662148
0.00634557
0.00602645
0.00566306
0.00525415
0.00480036
0.00431257
0.00382798
0.00341609
0.00316079
0.00313289
0.00337601
0.00390984
0.00577008
0.00580483
0.00584409
0.00588809
0.00593556
0.00598592
0.00603864
0.00609343
0.00614992
0.00620782
0.00626689
0.00632682
0.00638733
0.00644813
0.00650888
0.00656922
0.00662876
0.00668702
0.00674347
0.00679751
0.00684844
0.00689547
0.00693781
0.00697461
0.00700484
0.00702758
0.00704181
0.00704606
0.00703921
0.00701861
0.00698373
0.00693249
0.00686336
0.0067744
0.00666374
0.00652941
0.00636956
0.00618246
0.00596651
0.00571925
0.00543059
0.00509922
0.00472086
0.00428791
0.00380165
0.00330167
0.00288597
0.00267352
0.00276153
0.00320278
0.0047346
0.00476635
0.00480245
0.00484359
0.00488839
0.00493627
0.00498675
0.00503953
0.0050943
0.00515082
0.00520897
0.00526848
0.00532914
0.00539069
0.0054529
0.00551547
0.00557808
0.00564032
0.00570177
0.00576189
0.00582008
0.00587568
0.00592795
0.00597612
0.00601932
0.00605667
0.00608709
0.00610955
0.00612285
0.00612536
0.00611574
0.00609196
0.00605331
0.00599781
0.00592396
0.00583006
0.00571467
0.00557642
0.00541428
0.00522862
0.00501146
0.00475739
0.00446513
0.00412493
0.00371938
0.00323911
0.00273722
0.00235556
0.00225521
0.00255787
0.00378363
0.00380524
0.00383236
0.0038647
0.0039009
0.00394035
0.00398258
0.00402727
0.00407418
0.00412313
0.004174
0.0042266
0.00428079
0.0043364
0.00439329
0.00445126
0.00451008
0.00456949
0.00462916
0.0046887
0.00474766
0.00480552
0.00486165
0.00491544
0.00496614
0.00501302
0.00505512
0.00509145
0.005121
0.00514238
0.00515434
0.00515555
0.00514451
0.00511944
0.00507939
0.00502266
0.00494824
0.00485486
0.0047417
0.00460911
0.00445591
0.00427127
0.00405802
0.00381018
0.00350999
0.00312794
0.00264782
0.0021596
0.00188335
0.00200391
0.00296291
0.00297497
0.0029928
0.00301537
0.00304153
0.00307069
0.00310239
0.00313634
0.00317234
0.00321025
0.00324995
0.00329132
0.00333424
0.00337862
0.00342436
0.00347137
0.0035195
0.00356863
0.00361857
0.0036691
0.00372001
0.00377097
0.00382159
0.00387147
0.00392017
0.00396719
0.00401186
0.00405341
0.00409103
0.00412365
0.00415022
0.00416956
0.00418026
0.00418112
0.00417069
0.00414733
0.00411029
0.00405818
0.00399003
0.00390595
0.00380697
0.00368478
0.00354149
0.00337515
0.00317208
0.00290788
0.00253401
0.00203832
0.00162466
0.00156308
0.00227068
0.00227634
0.00228727
0.00230222
0.00232026
0.00234085
0.00236358
0.0023882
0.00241453
0.00244246
0.00247189
0.0025027
0.0025348
0.0025681
0.00260253
0.002638
0.00267442
0.00271167
0.00274964
0.00278818
0.00282714
0.00286631
0.00290543
0.00294424
0.00298255
0.0030201
0.00305657
0.00309159
0.00312482
0.00315563
0.00318344
0.00320768
0.00322749
0.00324201
0.00325014
0.00325066
0.00324246
0.00322422
0.00319476
0.00315361
0.00310122
0.00303393
0.00295103
0.00285283
0.0027323
0.00257722
0.00233681
0.00193329
0.00145563
0.00123321
0.0016949
0.00169668
0.00170292
0.0017124
0.00172442
0.0017385
0.0017543
0.00177161
0.00179029
0.00181025
0.00183141
0.00185366
0.00187693
0.00190113
0.00192621
0.00195209
0.00197869
0.00200594
0.00203372
0.00206192
0.00209043