/*--------------------------------*- C++ -*----------------------------------*\
  =========                 |
  \\      /  F ield         | OpenFOAM: The Open Source CFD Toolbox
   \\    /   O peration     | Website:  https://openfoam.org
    \\  /    A nd           | Version:  9
     \\/     M anipulation  |
\*---------------------------------------------------------------------------*/
FoamFile
{
    format      ascii;
    class       volVectorField;
    location    "0.008099";
    object      U;
}
// * * * * * * * * * * * * * * * * * * * * * * * * * * * * * * * * * * * * * //

dimensions      [0 1 -1 0 0 0 0];

internalField   nonuniform List<vector> 
5373
(
(30.6375 -0.780704 0)
(30.853 -0.85764 0)
(30.8531 -0.856855 0)
(30.8532 -0.856071 9.6984e-18)
(30.8534 -0.855295 -2.74831e-17)
(31.0488 -0.840509 8.90113e-23)
(31.0489 -0.839518 1.16675e-17)
(31.0489 -0.838528 -1.16672e-17)
(31.049 -0.837539 1.16669e-17)
(31.0491 -0.836551 -2.33329e-17)
(31.0493 -0.835501 -4.94352e-22)
(31.2929 -0.890298 2.12324e-22)
(31.2931 -0.888961 0)
(31.2932 -0.887627 6.95694e-18)
(31.2934 -0.886295 -6.95687e-18)
(31.2936 -0.884966 -1.39135e-17)
(31.2938 -0.883637 -5.19998e-23)
(31.2939 -0.88231 1.39123e-17)
(31.2943 -0.880982 2.79984e-26)
(31.5535 -0.914611 -5.03247e-22)
(31.5538 -0.912862 0)
(31.554 -0.911115 0)
(31.5543 -0.909371 8.24564e-18)
(31.5545 -0.907627 -8.2456e-18)
(31.5548 -0.905884 0)
(31.555 -0.904141 -8.24491e-18)
(31.5553 -0.902399 1.64892e-17)
(31.5557 -0.900655 -2.255e-17)
(31.8521 -0.976597 -4.8605e-18)
(31.8525 -0.974269 -4.8612e-18)
(31.8529 -0.971944 1.47249e-24)
(31.8533 -0.969621 9.72194e-18)
(31.8537 -0.967299 2.9665e-22)
(31.8542 -0.964978 9.72113e-18)
(31.8546 -0.962657 -9.72074e-18)
(31.855 -0.960337 -9.72055e-18)
(31.8554 -0.958016 9.72013e-18)
(31.8559 -0.955695 0)
(31.8565 -0.953372 8.04183e-22)
(32.1825 -1.04053 -5.70892e-18)
(32.1832 -1.03747 6.98061e-22)
(32.1838 -1.03441 1.14167e-17)
(32.1845 -1.03135 -5.70834e-18)
(32.1852 -1.02829 5.70687e-18)
(32.1858 -1.02523 -5.70745e-18)
(32.1865 -1.02218 5.7071e-18)
(32.1871 -1.01912 -5.70705e-18)
(32.1878 -1.01605 0)
(32.1884 -1.01299 0)
(32.1893 -1.00993 -4.68515e-22)
(32.5543 -1.13935 0)
(32.5553 -1.13533 6.68387e-18)
(32.5564 -1.13131 -2.38546e-24)
(32.5574 -1.1273 -6.68067e-18)
(32.5584 -1.12328 8.15432e-22)
(32.5595 -1.11926 -6.68006e-18)
(32.5605 -1.11524 4.10117e-22)
(32.5616 -1.11122 -2.01463e-22)
(32.5626 -1.1072 6.6797e-18)
(32.5636 -1.10318 0)
(32.5647 -1.09915 -4.0761e-22)
(32.5659 -1.09512 -8.92123e-18)
(32.9675 -1.26481 -3.89785e-18)
(32.9691 -1.25959 7.79965e-18)
(32.9707 -1.25438 -3.90176e-18)
(32.9722 -1.24916 0)
(32.9738 -1.24394 -9.52173e-22)
(32.9754 -1.23872 -3.90068e-18)
(32.977 -1.23349 2.15496e-24)
(32.9786 -1.22827 3.89851e-18)
(32.9801 -1.22304 -3.89903e-18)
(32.9817 -1.2178 3.89904e-18)
(32.9833 -1.21257 -7.79732e-18)
(32.9849 -1.20733 1.55944e-17)
(32.9867 -1.20208 -1.035e-17)
(33.4279 -1.42526 -4.43732e-21)
(33.4303 -1.41856 2.21846e-21)
(33.4327 -1.41185 4.54386e-18)
(33.435 -1.40514 -3.79049e-24)
(33.4374 -1.39843 -3.79105e-24)
(33.4398 -1.39171 -4.54242e-18)
(33.4421 -1.38499 0)
(33.4445 -1.37826 4.54308e-18)
(33.4469 -1.37153 -4.54281e-18)
(33.4492 -1.36479 -3.46526e-23)
(33.4515 -1.35804 -2.77252e-22)
(33.4539 -1.35129 5.54346e-22)
(33.4565 -1.34452 1.46319e-21)
(33.9286 -1.63426 0)
(33.9321 -1.62577 -2.64055e-18)
(33.9356 -1.61728 2.64051e-18)
(33.939 -1.60878 0)
(33.9425 -1.60027 0)
(33.946 -1.59175 0)
(33.9494 -1.58322 -2.58072e-21)
(33.9529 -1.57468 0)
(33.9563 -1.56614 1.39399e-25)
(33.9597 -1.55758 0)
(33.9632 -1.54902 4.03159e-23)
(33.9666 -1.54045 -3.22425e-22)
(33.97 -1.53186 -6.44921e-22)
(33.9737 -1.52325 -1.69217e-21)
(34.4723 -1.88537 2.99947e-21)
(34.4772 -1.87477 2.99938e-21)
(34.4822 -1.86416 3.07164e-18)
(34.4871 -1.85354 -3.00457e-21)
(34.492 -1.8429 -6.14264e-18)
(34.4969 -1.83225 6.14223e-18)
(34.5019 -1.82158 -3.06939e-18)
(34.5068 -1.8109 -3.07062e-18)
(34.5117 -1.8002 3.07109e-18)
(34.5165 -1.78949 0)
(34.5214 -1.77877 4.68333e-23)
(34.5263 -1.76803 3.74711e-22)
(34.5311 -1.75727 0)
(34.5362 -1.74648 4.00774e-18)
(35.0433 -2.19926 -1.79117e-18)
(35.0501 -2.18626 1.78759e-18)
(35.057 -2.17323 -3.48477e-21)
(35.0638 -2.16019 3.56775e-18)
(35.0706 -2.14712 -7.13148e-18)
(35.0774 -2.13404 7.13435e-18)
(35.0842 -2.12093 -3.49157e-21)
(35.091 -2.10779 -8.80912e-24)
(35.0978 -2.09464 -1.74979e-21)
(35.1045 -2.08146 -8.79323e-24)
(35.1112 -2.06826 -3.56559e-18)
(35.118 -2.05504 -5.43986e-23)
(35.1246 -2.0418 0)
(35.1314 -2.02853 3.56355e-18)
(35.1383 -2.01521 -4.62761e-18)
(35.6459 -2.55439 2.08063e-18)
(35.6551 -2.53866 -8.09609e-21)
(35.6642 -2.5229 0)
(35.6734 -2.50711 -2.07193e-18)
(35.6825 -2.49129 2.0717e-18)
(35.6916 -2.47544 -2.07144e-18)
(35.7007 -2.45956 8.03606e-24)
(35.7098 -2.44364 2.07291e-18)
(35.7188 -2.4277 -2.06855e-18)
(35.7279 -2.41172 6.90065e-24)
(35.7369 -2.39571 2.07092e-18)
(35.7459 -2.37967 2.06948e-18)
(35.7548 -2.36359 -6.91461e-24)
(35.7638 -2.34748 2.06977e-18)
(35.7729 -2.33131 -5.34321e-18)
(36.2672 -2.9568 -1.88181e-20)
(36.2791 -2.93805 0)
(36.291 -2.91925 0)
(36.3029 -2.90042 -4.7019e-21)
(36.3147 -2.88154 -2.40737e-18)
(36.3265 -2.86262 1.05586e-23)
(36.3383 -2.84366 1.18906e-23)
(36.35 -2.82466 4.80991e-18)
(36.3618 -2.80561 -2.40803e-18)
(36.3734 -2.78653 2.40637e-18)
(36.3851 -2.7674 -2.40589e-18)
(36.3967 -2.74823 2.40426e-18)
(36.4083 -2.72902 -4.80732e-18)
(36.4199 -2.70976 2.40311e-18)
(36.4317 -2.69042 -3.09211e-18)
(36.8996 -3.39994 1.09493e-20)
(36.9146 -3.37784 1.09441e-20)
(36.9295 -3.35569 1.4008e-18)
(36.9444 -3.33349 -2.79559e-18)
(36.9593 -3.31124 1.39478e-18)
(36.9741 -3.28894 5.46768e-21)
(36.9888 -3.26659 1.64823e-24)
(37.0035 -3.24418 -2.73262e-21)
(37.0182 -3.22173 2.73281e-21)
(37.0328 -3.19922 -1.36608e-21)
(37.0474 -3.17667 6.82868e-22)
(37.0619 -3.15406 8.53105e-23)
(37.0763 -3.1314 -6.82303e-22)
(37.0908 -3.10869 -2.79578e-18)
(37.1055 -3.08588 -3.46915e-21)
(37.5372 -3.87199 0)
(37.5554 -3.84618 -2.55133e-20)
(37.5736 -3.82031 -6.37583e-21)
(37.5916 -3.79438 1.63845e-18)
(37.6096 -3.76839 6.36361e-21)
(37.6276 -3.74235 -1.644e-18)
(37.6454 -3.71626 6.37129e-21)
(37.6632 -3.69011 1.63355e-18)
(37.6809 -3.6639 -1.62992e-18)
(37.6986 -3.63764 -1.63103e-18)
(37.7162 -3.61133 1.07872e-23)
(37.7337 -3.58496 3.25685e-18)
(37.7511 -3.55853 -1.62718e-18)
(37.7686 -3.53205 0)
(37.7862 -3.50546 4.04341e-21)
(38.154 -4.38985 -9.69157e-19)
(38.1754 -4.35989 9.39085e-19)
(38.1968 -4.32988 1.4904e-20)
(38.2181 -4.29981 -1.89942e-18)
(38.2393 -4.26969 1.89888e-18)
(38.2603 -4.23951 1.8983e-18)
(38.2813 -4.20929 1.48689e-20)
(38.3021 -4.17901 -1.89714e-18)
(38.3229 -4.14867 1.90024e-18)
(38.3435 -4.11829 3.70202e-21)
(38.3641 -4.08786 -1.90086e-18)
(38.3846 -4.05738 0)
(38.4049 -4.02685 -1.16033e-22)
(38.4251 -3.99628 0)
(38.4454 -3.96565 0)
(38.4658 -3.93493 4.69215e-21)
(38.7877 -4.88212 0)
(38.8121 -4.84734 1.74657e-20)
(38.8364 -4.81251 0)
(38.8605 -4.77765 1.13435e-18)
(38.8844 -4.74274 -1.12525e-18)
(38.9082 -4.7078 8.7212e-21)
(38.9318 -4.67283 1.11575e-18)
(38.9553 -4.63782 -1.12409e-18)
(38.9786 -4.60278 4.35601e-21)
(39.0018 -4.56771 -1.12327e-18)
(39.0248 -4.53261 2.1853e-21)
(39.0477 -4.49748 1.11375e-18)
(39.0704 -4.46233 1.35925e-22)
(39.093 -4.42716 1.08663e-21)
(39.1155 -4.39195 1.11465e-18)
(39.1383 -4.35668 -1.39812e-18)
(39.4184 -5.35985 -1.31419e-18)
(39.4452 -5.31941 2.60692e-18)
(39.4717 -5.27897 -1.31325e-18)
(39.498 -5.23852 -1.33328e-18)
(39.524 -5.19808 1.32255e-18)
(39.5499 -5.15764 -1.02466e-20)
(39.5755 -5.1172 1.30106e-18)
(39.6009 -5.07678 -1.21815e-23)
(39.626 -5.03637 -1.30521e-18)
(39.651 -4.99597 5.1173e-21)
(39.6757 -4.95559 -2.55767e-21)
(39.7003 -4.91523 0)
(39.7246 -4.87489 1.59677e-22)
(39.7486 -4.83458 -4.26875e-25)
(39.7727 -4.79429 1.30471e-18)
(39.7969 -4.754 -6.39002e-21)
(40.0457 -5.80678 -2.42185e-20)
(40.0739 -5.75975 -7.5062e-19)
(40.1017 -5.71278 1.5491e-18)
(40.1293 -5.66587 -7.7426e-19)
(40.1565 -5.61903 0)
(40.1833 -5.57227 1.20905e-20)
(40.2099 -5.52559 -7.85458e-19)
(40.2361 -5.47899 7.1748e-24)
(40.262 -5.43247 -6.03134e-21)
(40.2876 -5.38605 7.78545e-19)
(40.313 -5.33973 0)
(40.338 -5.2935 -1.54384e-18)
(40.3627 -5.24738 3.08634e-18)
(40.3871 -5.20137 -1.54419e-18)
(40.4115 -5.15546 -1.54207e-18)
(40.436 -5.10966 1.91806e-18)
(40.6658 -6.21016 -8.88765e-19)
(40.6942 -6.1554 8.70704e-24)
(40.7222 -6.10081 9.16787e-19)
(40.7497 -6.04639 0)
(40.7767 -5.99217 0)
(40.8032 -5.93814 0)
(40.8293 -5.88431 1.43067e-20)
(40.855 -5.83069 0)
(40.8803 -5.77729 0)
(40.9052 -5.7241 -7.14595e-21)
(40.9297 -5.67114 0)
(40.9538 -5.61842 3.56936e-21)
(40.9775 -5.56592 9.13602e-19)
(41.0007 -5.51367 -9.13298e-19)
(41.0239 -5.46168 0)
(41.0471 -5.40996 -8.76648e-21)
(41.2768 -6.55671 -3.40084e-20)
(41.3038 -6.49328 -5.10071e-19)
(41.3301 -6.4302 5.77898e-19)
(41.3558 -6.36748 0)
(41.3808 -6.30511 0)
(41.4052 -6.2431 0)
(41.4291 -6.18148 0)
(41.4523 -6.12023 0)
(41.475 -6.05936 0)
(41.4972 -5.99889 0)
(41.5189 -5.93881 4.23909e-21)
(41.54 -5.87913 -4.23943e-21)
(41.5607 -5.81985 0)
(41.5808 -5.76098 0)
(41.6007 -5.70254 1.08435e-18)
(41.6208 -5.64461 -2.63134e-18)
(41.8644 -6.83753 8.06974e-20)
(41.8878 -6.76412 -6.45463e-19)
(41.9104 -6.69128 6.04983e-19)
(41.9323 -6.61902 0)
(41.9534 -6.54737 -2.01549e-20)
(41.9737 -6.47633 6.44955e-19)
(41.9934 -6.40591 -2.01508e-20)
(42.0123 -6.33615 -1.26934e-18)
(42.0307 -6.26703 6.44651e-19)
(42.0483 -6.19858 -1.00695e-20)
(42.0655 -6.1308 6.39441e-19)
(42.082 -6.06371 -1.2888e-18)
(42.0979 -5.99732 6.44013e-19)
(42.1132 -5.93163 -6.44257e-19)
(42.1282 -5.86666 6.49227e-19)
(42.1433 -5.80257 -1.21525e-20)
(42.4146 -7.04112 7.13587e-19)
(42.4324 -6.95793 -1.61733e-18)
(42.449 -6.87569 7.61034e-19)
(42.4646 -6.79443 0)
(42.4792 -6.71414 -7.37153e-19)
(42.4928 -6.63481 1.52181e-18)
(42.5054 -6.55645 -1.49798e-18)
(42.5171 -6.47904 7.37088e-19)
(42.5279 -6.40257 1.18865e-20)
(42.5378 -6.32702 3.66398e-24)
(42.5469 -6.25238 0)
(42.5552 -6.17863 7.54937e-19)
(42.5627 -6.10575 -7.60525e-19)
(42.5698 -6.03374 0)
(42.5764 -5.96263 -1.7163e-24)
(42.5828 -5.89271 -9.11321e-19)
(42.8272 -7.16979 -5.51991e-20)
(42.835 -7.07543 4.96882e-19)
(42.8414 -6.98213 -3.86467e-19)
(42.8466 -6.88964 4.41682e-19)
(42.8507 -6.7981 -8.8343e-19)
(42.8539 -6.70779 4.69371e-19)
(42.8561 -6.61875 0)
(42.8573 -6.531 -2.76155e-20)
(42.8578 -6.44455 -1.38149e-20)
(42.8574 -6.35942 2.76325e-20)
(42.8564 -6.27569 0)
(42.8546 -6.19389 6.91302e-21)
(42.8522 -6.11428 8.84588e-19)
(42.8492 -6.03639 -8.85295e-19)
(42.8455 -5.95997 -6.91949e-21)
(42.8409 -5.88544 -1.64941e-20)
(42.9758 -7.17726 6.35499e-20)
(42.9692 -7.07421 -5.0846e-19)
(42.9614 -6.97308 -2.39649e-23)
(42.9523 -6.87383 5.08743e-19)
(42.9421 -6.77648 0)
(42.9308 -6.68105 -3.18197e-20)
(42.9186 -6.58753 0)
(42.9057 -6.49592 5.41174e-19)
(42.8919 -6.40623 -5.09471e-19)
(42.8775 -6.31846 -5.25538e-19)
(42.8624 -6.23259 5.0973e-19)
(42.8468 -6.14858 5.09853e-19)
(42.8306 -6.06601 -5.09457e-19)
(42.8139 -5.98438 5.10064e-19)
(42.7962 -5.90395 6.24111e-24)
(42.7762 -5.82553 -6.07103e-19)
(42.7775 -7.10248 -3.62882e-19)
(42.7532 -6.99066 2.90386e-19)
(42.7274 -6.88122 -4.35702e-19)
(42.7001 -6.77412 2.1792e-19)
(42.6714 -6.66932 0)
(42.6412 -6.56689 5.81453e-19)
(42.6098 -6.46723 9.16146e-24)
(42.5771 -6.37028 -3.63498e-20)
(42.5431 -6.27561 -5.81999e-19)
(42.5079 -6.18308 0)
(42.4715 -6.09261 -9.09865e-21)
(42.4339 -6.00415 -9.10165e-21)
(42.3953 -5.91764 0)
(42.3557 -5.83308 0)
(42.3151 -5.75055 -9.11089e-21)
(42.2732 -5.67051 7.16633e-19)
(42.0903 -6.89828 1.6611e-19)
(42.038 -6.7797 0)
(41.984 -6.66408 3.32539e-19)
(41.9286 -6.55136 -2.49485e-19)
(41.8717 -6.44152 0)
(41.8135 -6.3345 -4.1617e-20)
(41.754 -6.23026 0)
(41.6931 -6.12873 3.74953e-19)
(41.6309 -6.02985 -3.33439e-19)
(41.5675 -5.93354 0)
(41.5029 -5.83977 1.04311e-20)
(41.4372 -5.74848 2.08703e-20)
(41.3704 -5.65964 0)
(41.3026 -5.57318 3.34252e-19)
(41.2334 -5.48917 -3.23956e-19)
(41.1625 -5.40824 3.99605e-19)
(40.988 -6.56975 -6.7064e-19)
(40.9058 -6.44691 4.79312e-19)
(40.8221 -6.32756 3.83735e-19)
(40.7369 -6.21162 1.1493e-23)
(40.6502 -6.09901 -4.32228e-19)
(40.5621 -5.98966 4.32534e-19)
(40.4727 -5.88348 1.13207e-23)
(40.3821 -5.78039 -3.84972e-19)
(40.2901 -5.68033 -2.40753e-20)
(40.1969 -5.58323 -3.61409e-19)
(40.1025 -5.48902 3.8575e-19)
(40.007 -5.39763 -3.98087e-19)
(39.9105 -5.30899 7.7256e-19)
(39.813 -5.22304 -3.86538e-19)
(39.7138 -5.13981 3.74727e-19)
(39.6124 -5.06 -9.26676e-19)
(39.6481 -6.16009 -2.2336e-19)
(39.536 -6.03479 -4.92867e-24)
(39.4224 -5.91338 1.11885e-19)
(39.3074 -5.79579 0)
(39.1911 -5.6819 2.24164e-19)
(39.0735 -5.57163 -2.80434e-19)
(38.9546 -5.46488 5.61355e-20)
(38.8344 -5.36156 0)
(38.713 -5.2616 3.64719e-24)
(38.5904 -5.16491 -2.81487e-20)
(38.4667 -5.07141 0)
(38.3418 -4.98101 -4.51196e-19)
(38.2159 -4.89365 4.51605e-19)
(38.0891 -4.80923 -4.52046e-19)
(37.9605 -4.72779 4.66602e-19)
(37.8291 -4.65009 5.42409e-19)
(38.2263 -5.6978 -1.31664e-19)
(38.086 -5.57178 1.84063e-23)
(37.9445 -5.44999 -1.31963e-19)
(37.8017 -5.33232 0)
(37.6577 -5.21865 3.30698e-19)
(37.5126 -5.10887 -2.64845e-19)
(37.3662 -5.0029 -6.62962e-20)
(37.2188 -4.90062 0)
(37.0702 -4.80195 6.64501e-20)
(36.9206 -4.7068 2.66125e-19)
(36.7698 -4.61507 -5.32885e-19)
(36.6179 -4.52667 2.50092e-19)
(36.4652 -4.44153 2.67105e-19)
(36.3118 -4.35956 9.99046e-24)
(36.1564 -4.28077 -2.67769e-19)
(35.9979 -4.20596 0)
(36.8337 -5.21549 4.71011e-19)
(36.6682 -5.09002 3.14461e-19)
(36.5016 -4.96899 2.43164e-23)
(36.334 -4.85228 -1.57659e-19)
(36.1655 -4.73976 -7.89489e-20)
(35.9959 -4.63134 4.74318e-19)
(35.8253 -4.52691 -4.75e-19)
(35.6537 -4.42638 7.92636e-20)
(35.4811 -4.32966 2.77884e-19)
(35.3075 -4.23666 0)
(35.1329 -4.14728 -3.98172e-20)
(34.9574 -4.06144 1.99405e-20)
(34.7811 -3.97906 0)
(34.6043 -3.90004 -1.0001e-20)
(34.4255 -3.82439 0)
(34.2435 -3.75295 -4.77166e-20)
(35.5308 -4.73548 -3.79951e-24)
(35.3433 -4.61146 -1.89604e-19)
(35.1551 -4.49198 1.89916e-19)
(34.9661 -4.37693 3.8045e-19)
(34.7762 -4.26619 -6.89517e-24)
(34.5855 -4.15966 9.54295e-20)
(34.3938 -4.05724 -9.55844e-20)
(34.2013 -3.95887 -1.91497e-19)
(34.008 -3.86447 0)
(33.8137 -3.77396 0)
(33.6186 -3.68726 -1.44388e-19)
(33.4226 -3.60429 -2.41168e-20)
(33.226 -3.52497 1.93221e-19)
(33.0291 -3.44922 1.20996e-20)
(32.8303 -3.37703 -1.93962e-19)
(32.6281 -3.30926 2.86435e-19)
(34.3388 -4.27371 -2.30789e-19)
(34.1327 -4.15168 -2.31227e-19)
(33.9259 -4.03421 -4.63353e-19)
(33.7186 -3.92118 -1.40294e-23)
(33.5105 -3.81249 1.16271e-19)
(33.3017 -3.70807 1.30531e-23)
(33.0922 -3.60784 -3.50109e-19)
(32.8818 -3.51174 5.14287e-24)
(32.6705 -3.41974 0)
(32.4585 -3.33178 2.93483e-19)
(32.2457 -3.24781 1.20726e-23)
(32.032 -3.16777 -4.42052e-19)
(31.8179 -3.09161 4.74378e-19)
(31.6038 -3.01924 -4.73554e-19)
(31.3877 -2.95066 2.37291e-19)
(31.1682 -2.88678 0)
(33.2533 -3.83942 4.26473e-19)
(33.0313 -3.71969 4.27419e-19)
(32.8089 -3.60446 -1.42774e-19)
(32.586 -3.49361 -1.43075e-19)
(32.3625 -3.38708 -2.86784e-19)
(32.1383 -3.28481 2.87396e-19)
(31.9134 -3.18674 -4.32013e-19)
(31.6876 -3.09287 2.88629e-19)
(31.4611 -3.00317 0)
(31.2337 -2.91766 -1.44963e-19)
(31.0055 -2.83631 7.26496e-20)
(30.7765 -2.75913 0)
(30.5471 -2.68609 -2.2813e-21)
(30.3179 -2.61714 -1.82949e-20)
(30.0867 -2.55228 0)
(29.852 -2.49252 8.45242e-20)
(32.2577 -3.43698 1.76173e-19)
(32.0222 -3.31972 -7.06514e-19)
(31.7864 -3.20683 1.77083e-19)
(31.5502 -3.09822 7.10174e-19)
(31.3135 -2.99383 0)
(31.0761 -2.89363 1.78445e-19)
(30.8379 -2.79762 1.78903e-19)
(30.5989 -2.70581 -1.79362e-19)
(30.359 -2.61823 1.79816e-19)
(30.1181 -2.53494 1.80307e-19)
(29.8763 -2.456 -3.61592e-19)
(29.6337 -2.38147 1.81298e-19)
(29.3907 -2.31137 2.84089e-21)
(29.1479 -2.2457 2.27928e-20)
(28.9031 -2.18452 -1.37166e-19)
(28.6545 -2.129 3.11053e-19)
(31.3353 -3.06786 1.09114e-19)
(31.0881 -2.95314 4.37859e-19)
(30.8408 -2.8426 0)
(30.5931 -2.73618 1.10135e-19)
(30.3448 -2.63386 -2.20965e-19)
(30.0959 -2.53562 -2.21653e-19)
(29.8461 -2.44149 1.11159e-19)
(29.5953 -2.35152 0)
(29.3435 -2.2658 1.11854e-19)
(29.0906 -2.18445 1.12216e-19)
(28.8365 -2.10761 1.12593e-19)
(28.5813 -2.03543 -1.69448e-19)
(28.3258 -1.96801 -3.54244e-21)
(28.0704 -1.90548 2.84387e-20)
(27.8126 -1.84807 2.28341e-19)
(27.5511 -1.79702 -2.54708e-19)
(30.4726 -2.73189 6.74228e-19)
(30.2153 -2.61969 0)
(29.9578 -2.51146 0)
(29.7 -2.40717 -1.24288e-23)
(29.4416 -2.3068 2.73677e-19)
(29.1824 -2.21036 -4.12016e-19)
(28.9223 -2.11792 -2.75687e-19)
(28.661 -2.02956 1.38344e-19)
(28.3985 -1.94541 1.38868e-19)
(28.1345 -1.86566 -1.39393e-19)
(27.8691 -1.79055 0)
(27.6023 -1.72035 1.40518e-19)
(27.3349 -1.65527 -1.36679e-19)
(27.0672 -1.59564 -1.02642e-25)
(26.7967 -1.54197 -7.11556e-20)
(26.523 -1.49538 -1.56274e-19)
(29.6563 -2.42757 -6.65497e-19)
(29.39 -2.31785 0)
(29.1237 -2.21187 0)
(28.857 -2.10962 -5.0552e-19)
(28.5897 -2.01109 -3.38428e-19)
(28.3214 -1.91632 3.39884e-19)
(28.0521 -1.8254 2.56068e-24)
(27.7814 -1.73843 -1.14127e-23)
(27.5092 -1.65557 -6.65945e-24)
(27.2352 -1.57708 -1.72912e-19)
(26.9594 -1.50331 -1.7371e-19)
(26.6817 -1.43466 -8.72651e-20)
(26.403 -1.37145 -5.48032e-21)
(26.1235 -1.31412 -8.81218e-20)
(25.8406 -1.26377 -8.85814e-20)
(25.5547 -1.22219 1.91689e-19)
(28.8695 -2.15268 -1.0268e-19)
(28.5956 -2.0454 1.03173e-19)
(28.3216 -1.94162 -1.03682e-19)
(28.0472 -1.84135 1.04175e-19)
(27.772 -1.7446 0)
(27.4959 -1.65142 1.05195e-19)
(27.2184 -1.5619 -2.11412e-19)
(26.9394 -1.47617 1.06226e-19)
(26.6585 -1.39441 2.13528e-19)
(26.3756 -1.31691 2.14628e-19)
(26.0902 -1.24414 2.15765e-19)
(25.8025 -1.17668 0)
(25.5134 -1.11487 0)
(25.2225 -1.05917 -3.45494e-24)
(24.9265 -1.01165 2.20723e-19)
(24.6277 -0.975967 2.35618e-19)
(28.0887 -1.90449 0)
(27.8084 -1.79965 1.27898e-19)
(27.5279 -1.69809 9.54698e-24)
(27.247 -1.59981 9.45095e-24)
(26.9652 -1.50483 -1.30009e-19)
(26.6823 -1.41323 -1.30737e-19)
(26.3979 -1.32509 6.57297e-19)
(26.1117 -1.24054 0)
(25.8233 -1.15979 -3.98893e-19)
(25.5324 -1.08312 2.67485e-19)
(25.2385 -1.01112 -1.34545e-19)
(24.9418 -0.944553 -2.70762e-19)
(24.6432 -0.88374 1.36235e-19)
(24.3414 -0.829009 4.54122e-24)
(24.0316 -0.783653 -2.76187e-19)
(23.7191 -0.75387 2.91279e-19)
(27.2743 -1.67939 -1.27106e-18)
(26.9894 -1.57713 0)
(26.7041 -1.47794 1.36742e-18)
(26.4183 -1.3818 -8.09352e-20)
(26.1315 -1.28876 -6.51552e-19)
(25.8433 -1.19889 -7.37612e-19)
(25.5534 -1.11227 -1.15838e-23)
(25.2614 -1.02905 7.4707e-19)
(24.9669 -0.949389 0)
(24.6693 -0.873578 -3.36442e-19)
(24.368 -0.802249 -3.38752e-19)
(24.0634 -0.736313 -5.34507e-24)
(23.7566 -0.67608 1.82532e-19)
(23.4448 -0.621609 8.65541e-20)
(23.1205 -0.577494 -1.74475e-19)
(22.793 -0.55343 0)
(26.3477 -1.4736 1.00796e-19)
(26.061 -1.37431 1.01514e-19)
(25.774 -1.27783 -3.37399e-18)
(25.4861 -1.18418 0)
(25.197 -1.09338 1.03739e-19)
(24.9061 -1.00552 7.31404e-19)
(24.6132 -0.920673 -1.57882e-18)
(24.3178 -0.838962 -9.54351e-19)
(24.0195 -0.760546 0)
(23.7173 -0.685696 4.30672e-19)
(23.4106 -0.6151 1.84092e-24)
(23.0998 -0.549851 1.0939e-19)
(22.7863 -0.490326 9.65126e-20)
(22.4655 -0.436041 0)
(22.1263 -0.391964 -4.73413e-25)
(21.7819 -0.37247 4.64525e-19)
(25.1195 -1.27509 4.19402e-18)
(24.837 -1.18008 0)
(24.5539 -1.0876 2.0673e-18)
(24.2697 -0.997679 2.22007e-18)
(23.9838 -0.910404 1.08596e-18)
(23.6957 -0.825881 1.09564e-18)
(23.405 -0.744166 1.10549e-18)
(23.1112 -0.665364 -9.76063e-19)
(22.8137 -0.589611 -1.40712e-19)
(22.5115 -0.517161 0)
(22.2032 -0.448707 7.1691e-19)
(21.8896 -0.38529 -7.23865e-19)
(21.5724 -0.326942 0)
(21.2453 -0.272369 1.4771e-19)
(20.8917 -0.226448 4.4783e-19)
(20.5284 -0.208731 -7.66489e-19)
(23.0596 -1.07311 -9.01524e-20)
(22.7913 -0.984377 0)
(22.5225 -0.898257 0)
(22.2524 -0.814464 -2.97729e-18)
(21.9805 -0.73296 9.40564e-20)
(21.7062 -0.653717 -1.90186e-19)
(21.4285 -0.576867 1.63451e-18)
(21.1467 -0.502425 1.55571e-18)
(20.8604 -0.430447 -7.8672e-19)
(20.568 -0.361059 9.94846e-20)
(20.268 -0.294798 7.04729e-19)
(19.9604 -0.232263 7.13459e-19)
(19.6474 -0.173647 7.74077e-20)
(19.3195 -0.119411 -2.09097e-19)
(18.9526 -0.0762435 0)
(18.5646 -0.0660601 -2.16845e-19)
(17.0051 -0.692239 -4.7207e-18)
(16.7865 -0.628469 -1.5412e-19)
(16.5688 -0.566085 4.99219e-18)
(16.3511 -0.50516 5.05364e-18)
(16.1327 -0.445647 -2.55833e-18)
(15.9127 -0.388323 -2.59074e-18)
(15.6898 -0.33275 -2.62422e-18)
(15.4634 -0.279023 1.6619e-19)
(15.2319 -0.227287 1.17916e-18)
(14.9927 -0.177955 -1.70843e-19)
(14.7422 -0.131543 -1.21378e-18)
(14.4806 -0.0886433 -1.40927e-18)
(14.2104 -0.0511026 4.47889e-20)
(13.9154 -0.0213735 0)
(13.5455 0.0015461 0)
(13.1124 0.0065106 0)
(29.6981 -0.947519 0)
(29.6962 -0.946365 0)
(29.6944 -0.945219 0)
(29.6925 -0.94409 0)
(29.6905 -0.942981 0)
(29.6886 -0.94189 0)
(29.6866 -0.94082 0)
(29.6846 -0.939769 0)
(29.6826 -0.938739 0)
(29.6805 -0.937731 0)
(29.6784 -0.936743 0)
(29.6763 -0.935777 0)
(29.6742 -0.934833 0)
(29.672 -0.933911 0)
(29.6698 -0.933013 0)
(29.6676 -0.932137 0)
(29.6653 -0.931284 0)
(29.6631 -0.930456 0)
(29.6608 -0.929651 0)
(29.6584 -0.928872 0)
(29.6561 -0.928117 0)
(29.6537 -0.927387 0)
(29.6512 -0.926684 0)
(29.6488 -0.926006 0)
(29.6463 -0.925355 0)
(29.6438 -0.924731 0)
(29.6412 -0.924135 0)
(29.6386 -0.923566 0)
(29.636 -0.923026 0)
(29.6333 -0.922514 0)
(29.6307 -0.922032 0)
(29.6279 -0.921579 0)
(29.6252 -0.921156 0)
(29.6224 -0.920763 0)
(29.6196 -0.920402 0)
(29.6167 -0.920072 0)
(29.6138 -0.919773 0)
(29.6109 -0.919507 0)
(29.6079 -0.919274 0)
(29.6049 -0.919074 0)
(29.6018 -0.918908 0)
(29.5987 -0.918777 0)
(29.5956 -0.91868 0)
(29.5924 -0.918618 0)
(29.5893 -0.918592 0)
(29.5862 -0.918602 0)
(29.5827 -0.918652 0)
(29.5781 -0.918742 -1.09305e-18)
(29.5739 -0.918867 1.28118e-18)
(30.3592 -0.705849 0)
(30.3587 -0.701637 0)
(30.3583 -0.697392 -7.88052e-17)
(30.3579 -0.693123 7.88066e-17)
(30.3575 -0.688832 0)
(30.3571 -0.68452 3.94048e-17)
(30.3566 -0.680185 -3.94055e-17)
(30.3561 -0.675829 0)
(30.3556 -0.67145 0)
(30.3551 -0.66705 3.9408e-17)
(30.3546 -0.662626 -3.94088e-17)
(30.354 -0.658181 3.94097e-17)
(30.3534 -0.653712 -3.94106e-17)
(30.3528 -0.649221 0)
(30.3522 -0.644707 3.94124e-17)
(30.3516 -0.640169 -7.88267e-17)
(30.3509 -0.635608 3.94143e-17)
(30.3502 -0.631023 0)
(30.3495 -0.626414 0)
(30.3488 -0.621781 3.94173e-17)
(30.348 -0.617123 1.57705e-23)
(30.3473 -0.612441 -3.94194e-17)
(30.3465 -0.607734 0)
(30.3457 -0.603002 0)
(30.3448 -0.598244 3.94227e-17)
(30.344 -0.593461 -3.94239e-17)
(30.3431 -0.588651 0)
(30.3422 -0.583815 0)
(30.3412 -0.578953 0)
(30.3403 -0.574063 -1.97144e-17)
(30.3393 -0.569147 3.943e-17)
(30.3383 -0.564202 9.6783e-24)
(30.3372 -0.55923 9.85087e-24)
(30.3362 -0.55423 -1.97169e-17)
(30.3351 -0.549201 1.97176e-17)
(30.334 -0.544143 -1.97183e-17)
(30.3329 -0.539056 -1.9719e-17)
(30.3317 -0.533939 1.97197e-17)
(30.3305 -0.528792 0)
(30.3293 -0.523614 9.86058e-18)
(30.3281 -0.518406 -9.86095e-18)
(30.3268 -0.513167 9.86133e-18)
(30.3255 -0.507896 -1.97234e-17)
(30.3242 -0.502593 9.86211e-18)
(30.3228 -0.497258 0)
(30.3214 -0.49189 -4.93146e-18)
(30.3199 -0.486485 4.93166e-18)
(30.3186 -0.480972 0)
(30.3176 -0.474462 0)
(30.4584 -0.876272 0)
(30.4595 -0.872684 0)
(30.4599 -0.869075 0)
(30.4604 -0.865465 0)
(30.4608 -0.861852 0)
(30.4613 -0.858235 0)
(30.4618 -0.854614 0)
(30.4623 -0.85099 0)
(30.4628 -0.847362 0)
(30.4633 -0.84373 0)
(30.4638 -0.840094 0)
(30.4642 -0.836456 0)
(30.4647 -0.832813 0)
(30.4652 -0.829167 0)
(30.4657 -0.825518 0)
(30.4662 -0.821866 0)
(30.4667 -0.818209 0)
(30.4672 -0.81455 4.50938e-17)
(30.4677 -0.810887 -4.50937e-17)
(30.4682 -0.807221 0)
(30.4687 -0.803552 0)
(30.4692 -0.799879 0)
(30.4697 -0.796203 0)
(30.4702 -0.792523 0)
(30.4707 -0.78884 0)
(30.4713 -0.785154 0)
(30.4718 -0.781464 0)
(30.4723 -0.777771 0)
(30.4728 -0.774074 0)
(30.4734 -0.770374 0)
(30.4739 -0.766671 0)
(30.4745 -0.762964 0)
(30.475 -0.759254 0)
(30.4756 -0.755539 2.25459e-17)
(30.4761 -0.751822 -2.25458e-17)
(30.4767 -0.7481 0)
(30.4773 -0.744375 0)
(30.4779 -0.740647 0)
(30.4785 -0.736914 0)
(30.4791 -0.733177 0)
(30.4797 -0.729437 0)
(30.4803 -0.725692 1.12725e-17)
(30.4809 -0.721944 -1.12724e-17)
(30.4816 -0.718191 0)
(30.4822 -0.714434 0)
(30.4829 -0.710673 5.63611e-18)
(30.4835 -0.706908 -5.63607e-18)
(30.4842 -0.703137 0)
(30.485 -0.699362 0)
(30.486 -0.695562 0)
(30.6367 -0.778169 -4.57032e-17)
(30.6375 -0.773953 -7.61607e-24)
(30.6372 -0.769762 5.15705e-17)
(30.6371 -0.765656 0)
(30.637 -0.761619 5.15712e-17)
(30.6369 -0.757556 -5.15717e-17)
(30.6367 -0.753472 -5.15723e-17)
(30.6365 -0.749373 5.15729e-17)
(30.6363 -0.74526 0)
(30.6361 -0.741137 0)
(30.6358 -0.737006 -2.57876e-17)
(30.6355 -0.732866 2.5788e-17)
(30.6352 -0.728717 0)
(30.6349 -0.724565 2.57889e-17)
(30.6346 -0.720411 3.9353e-24)
(30.6342 -0.716257 -2.57898e-17)
(30.6339 -0.712102 0)
(30.6335 -0.707948 2.57908e-17)
(30.6331 -0.703796 -2.57913e-17)
(30.6326 -0.699646 0)
(30.6322 -0.695498 0)
(30.6317 -0.691353 -2.57929e-17)
(30.6312 -0.687212 2.57934e-17)
(30.6307 -0.683075 -2.5794e-17)
(30.6302 -0.678942 2.57946e-17)
(30.6296 -0.674815 -2.57952e-17)
(30.6291 -0.670693 2.57958e-17)
(30.6285 -0.666576 -2.57964e-17)
(30.6279 -0.662466 -6.27843e-24)
(30.6272 -0.658363 2.57976e-17)
(30.6266 -0.654267 0)
(30.6259 -0.650177 1.28995e-17)
(30.6253 -0.646096 -1.28998e-17)
(30.6246 -0.642023 0)
(30.6239 -0.637959 -1.29005e-17)
(30.6231 -0.633905 1.29008e-17)
(30.6224 -0.62986 1.29011e-17)
(30.6216 -0.625826 -1.29015e-17)
(30.6208 -0.621802 -1.29018e-17)
(30.62 -0.617789 1.29022e-17)
(30.6192 -0.613788 0)
(30.6184 -0.609798 -6.45147e-18)
(30.6175 -0.60582 -2.11827e-24)
(30.6166 -0.601855 6.45184e-18)
(30.6157 -0.597903 0)
(30.6148 -0.593964 0)
(30.6139 -0.590038 0)
(30.6129 -0.586116 0)
(30.6119 -0.582102 0)
(30.6112 -0.577059 0)
(30.8531 -0.853588 2.61862e-17)
(30.8543 -0.847856 0)
(30.8548 -0.84251 0)
(30.8553 -0.8371 -2.94763e-17)
(30.8558 -0.831676 5.89526e-17)
(30.8563 -0.826233 -2.94763e-17)
(30.8567 -0.820769 2.94764e-17)
(30.8571 -0.815279 -5.89529e-17)
(30.8575 -0.80976 2.94765e-17)
(30.8579 -0.804207 -2.94765e-17)
(30.8582 -0.798629 2.94764e-17)
(30.8585 -0.79308 0)
(30.8588 -0.787711 0)
(30.859 -0.782339 -2.94762e-17)
(30.8592 -0.776963 2.94762e-17)
(30.8594 -0.771585 -2.94761e-17)
(30.8596 -0.766203 1.21391e-25)
(30.8597 -0.76082 2.94761e-17)
(30.8598 -0.755434 0)
(30.8599 -0.750046 0)
(30.8599 -0.744657 0)
(30.8599 -0.739266 0)
(30.8599 -0.733875 0)
(30.8599 -0.728483 0)
(30.8599 -0.723091 0)
(30.8598 -0.717699 1.47383e-17)
(30.8597 -0.712307 -1.47383e-17)
(30.8595 -0.706916 -1.47384e-17)
(30.8594 -0.701527 1.47385e-17)
(30.8592 -0.696144 0)
(30.8589 -0.690788 0)
(30.8587 -0.685561 0)
(30.8584 -0.680424 -1.47389e-17)
(30.858 -0.675194 1.47391e-17)
(30.8577 -0.669971 0)
(30.8573 -0.664724 0)
(30.8569 -0.659468 0)
(30.8564 -0.654203 0)
(30.856 -0.648931 0)
(30.8555 -0.643655 0)
(30.855 -0.638376 0)
(30.8544 -0.633095 -7.37058e-18)
(30.8538 -0.627815 7.37074e-18)
(30.8532 -0.622535 0)
(30.8526 -0.617256 0)
(30.852 -0.61198 0)
(30.8512 -0.606708 -1.84286e-18)
(30.8504 -0.601439 1.8429e-18)
(30.8498 -0.596171 -9.21476e-19)
(30.8496 -0.590868 1.06446e-18)
(31.049 -0.831501 6.00566e-17)
(31.0501 -0.825045 -3.37279e-17)
(31.0503 -0.818675 0)
(31.0507 -0.812301 3.37276e-17)
(31.051 -0.805921 -2.12233e-24)
(31.0513 -0.799537 -1.63451e-24)
(31.0515 -0.793149 -6.74545e-17)
(31.0517 -0.786756 3.37272e-17)
(31.0519 -0.780361 0)
(31.052 -0.773963 3.37272e-17)
(31.0521 -0.767563 -6.74544e-17)
(31.0521 -0.761162 3.37273e-17)
(31.0521 -0.75476 0)
(31.052 -0.748358 0)
(31.0519 -0.741958 0)
(31.0518 -0.73556 1.68639e-17)
(31.0516 -0.72917 -1.6864e-17)
(31.0513 -0.722814 -1.68641e-17)
(31.0511 -0.716618 3.37284e-17)
(31.0507 -0.710507 -1.68644e-17)
(31.0504 -0.704354 0)
(31.05 -0.698168 0)
(31.0495 -0.691954 1.68652e-17)
(31.049 -0.685714 -1.68656e-17)
(31.0485 -0.679465 1.6866e-17)
(31.0479 -0.673199 -1.68664e-17)
(31.0473 -0.666878 -1.68668e-17)
(31.0466 -0.660349 3.37345e-17)
(31.046 -0.653696 -1.68677e-17)
(31.0452 -0.647057 -1.68681e-17)
(31.0444 -0.640469 1.68685e-17)
(31.0436 -0.633947 1.68689e-17)
(31.0427 -0.627577 -8.4346e-18)
(31.0418 -0.621302 -1.68696e-17)
(31.0408 -0.615039 8.43496e-18)
(31.0398 -0.60879 0)
(31.0387 -0.602553 -8.43534e-18)
(31.0376 -0.59633 8.43553e-18)
(31.0365 -0.590121 8.43574e-18)
(31.0353 -0.583927 -1.68719e-17)
(31.034 -0.577749 1.68723e-17)
(31.0328 -0.571587 -1.26546e-17)
(31.0315 -0.565441 4.21831e-18)
(31.0301 -0.559313 0)
(31.0287 -0.553202 0)
(31.0273 -0.547109 0)
(31.0258 -0.541036 0)
(31.0241 -0.534984 0)
(31.0227 -0.528963 0)
(31.0217 -0.523012 0)
(31.2943 -0.876007 0)
(31.2959 -0.867815 0)
(31.2967 -0.859587 0)
(31.2976 -0.851452 0)
(31.2984 -0.84365 0)
(31.2992 -0.835391 0)
(31.2999 -0.826514 0)
(31.3005 -0.818095 1.9279e-17)
(31.301 -0.809772 -1.92789e-17)
(31.3015 -0.80144 0)
(31.3019 -0.793101 -1.92786e-17)
(31.3022 -0.784755 1.92785e-17)
(31.3025 -0.776403 0)
(31.3027 -0.768047 0)
(31.3028 -0.759687 1.92783e-17)
(31.3029 -0.751325 -1.92783e-17)
(31.3029 -0.742961 0)
(31.3028 -0.734597 0)
(31.3026 -0.726233 0)
(31.3024 -0.717871 0)
(31.3021 -0.709513 0)
(31.3017 -0.701172 0)
(31.3013 -0.692906 0)
(31.3008 -0.685004 0)
(31.3002 -0.676989 0)
(31.2995 -0.668939 0)
(31.2988 -0.660835 0)
(31.298 -0.652648 0)
(31.2971 -0.644108 0)
(31.2962 -0.635435 0)
(31.2952 -0.626813 0)
(31.2942 -0.618252 0)
(31.2931 -0.609763 0)
(31.2919 -0.601481 0)
(31.2907 -0.593256 0)
(31.2893 -0.585049 0)
(31.288 -0.576859 0)
(31.2865 -0.568687 0)
(31.285 -0.560535 0)
(31.2834 -0.552403 0)
(31.2818 -0.544293 0)
(31.2801 -0.536204 0)
(31.2783 -0.528139 0)
(31.2765 -0.520097 0)
(31.2746 -0.51208 2.41143e-18)
(31.2726 -0.504088 -2.41153e-18)
(31.2705 -0.496124 0)
(31.2683 -0.48819 0)
(31.2663 -0.480298 0)
(31.2649 -0.472495 0)
(31.556 -0.894411 1.97065e-17)
(31.5579 -0.884142 2.20452e-17)
(31.559 -0.873935 -2.20447e-17)
(31.5602 -0.863718 0)
(31.5613 -0.853214 0)
(31.5623 -0.842325 0)
(31.5631 -0.831663 2.20433e-17)
(31.5639 -0.821139 -2.20429e-17)
(31.5646 -0.810601 0)
(31.5651 -0.80005 0)
(31.5656 -0.789488 -2.20423e-17)
(31.566 -0.778917 2.20421e-17)
(31.5663 -0.768339 0)