/*--------------------------------*- C++ -*----------------------------------*\
  =========                 |
  \\      /  F ield         | OpenFOAM: The Open Source CFD Toolbox
   \\    /   O peration     | Website:  https://openfoam.org
    \\  /    A nd           | Version:  8
     \\/     M anipulation  |
\*---------------------------------------------------------------------------*/
FoamFile
{
    version     2.0;
    format      ascii;
    class       surfaceScalarField;
    location    "0.02176";
    object      phi;
}
// * * * * * * * * * * * * * * * * * * * * * * * * * * * * * * * * * * * * * //

dimensions      [0 3 -1 0 0 0 0];

internalField   nonuniform List<scalar> 
224369
(
-0.00359963
0.0263996
-0.00840025
0.0708006
-0.0119996
0.115199
-0.0167988
0.159599
-0.0215978
0.203999
-0.0251971
0.248399
-0.0287965
0.291599
-0.0323958
0.335999
-0.0359951
0.379199
-0.0395943
0.424799
-0.0419936
0.466799
-0.0455929
0.511199
-0.0491921
0.555599
-0.0527914
0.597599
-0.0539906
0.640799
-0.0575898
0.685199
-0.061189
0.727199
-0.0635882
0.770399
-0.0659875
0.812399
-0.0671867
0.854399
-0.0707859
0.897599
-0.0719851
0.938399
-0.0743843
0.980399
-0.0755836
1.0224
-0.0779827
1.0632
-0.079182
1.104
-0.0815811
1.146
-0.0827804
1.1844
-0.0839796
1.2252
-0.0863787
1.266
-0.0875779
1.3044
-0.0887771
1.344
-0.0899763
1.3824
-0.0899756
1.4208
-0.0911748
1.4592
-0.091174
1.4964
-0.0923733
1.5348
-0.0935725
1.572
-0.0935717
1.608
-0.0947709
1.644
-0.0947702
1.68
-0.0947694
1.716
-0.0947687
1.7496
-0.094768
1.7856
-0.0947672
1.8192
-0.0947665
1.8528
-0.0947658
1.8864
-0.0935651
1.9188
-0.0935644
1.9512
-0.0935637
1.9836
-0.0923631
2.0136
-0.0923624
2.046
-0.0911617
2.0748
-0.090561
2.10564
-0.0897204
2.13468
-0.0887598
2.16336
-0.0877992
2.19168
-0.0868386
2.2194
-0.085638
2.24652
-0.0844374
2.27304
-0.0832368
2.2992
-0.0819162
2.32464
-0.0804757
2.34948
-0.0790352
2.37384
-0.0775946
2.3976
-0.0760341
2.42076
-0.0743536
2.4432
-0.0727931
2.46528
-0.0711126
2.48664
-0.0693121
2.50728
-0.0675116
2.52744
-0.0655912
2.54688
-0.0636708
2.56572
-0.0616304
2.58396
-0.0595899
2.6016
-0.0576696
2.61864
-0.0555092
2.63484
-0.0533488
2.65044
-0.0511884
2.66556
-0.0489081
2.67984
-0.0467478
2.69364
-0.0445875
2.7066
-0.0421871
2.71884
-0.0399069
2.73072
-0.0375066
2.74164
-0.0351063
2.75196
-0.0327061
2.76168
-0.0303059
2.77068
-0.0279056
2.77896
-0.0253854
2.78652
-0.0228652
2.79348
-0.020345
2.79972
-0.0178248
2.80536
-0.0151847
2.81004
-0.0127846
2.81436
-0.0102045
2.8178
-0.00764837
2.82058
-0.00508024
2.82266
-0.00251222
2.82404
5.58926e-05
2.82475
0.0026239
2.82475
0.00519199
2.82404
0.00775998
2.82266
0.010316
2.82058
0.012896
2.8178
0.015296
2.81436
0.017936
2.81004
0.0204559
2.80536
0.0229759
2.79972
0.0254957
2.79348
0.0280156
2.78652
0.0304155
2.77896
0.0328154
2.77068
0.0352153
2.76168
0.0376151
2.75196
0.040015
2.74164
0.0422948
2.73072
0.0446946
2.71884
0.0468544
2.7066
0.0490141
2.69364
0.0512939
2.67984
0.0534537
2.66556
0.0556134
2.65044
0.0577731
2.63484
0.0596928
2.61864
0.0617325
2.6016
0.0637721
2.58396
0.0656918
2.56572
0.0676115
2.54688
0.0694111
2.52744
0.0712107
2.50728
0.0728903
2.48664
0.0744499
2.46528
0.0761294
2.4432
0.077689
2.42076
0.0791285
2.3976
0.080568
2.37384
0.0820076
2.34948
0.0833271
2.32464
0.0845266
2.2992
0.085726
2.27304
0.0869255
2.24652
0.087885
2.2194
0.0888444
2.19168
0.0898038
2.16336
0.0906432
2.13468
0.0912426
2.10564
0.092442
2.0748
0.0924413
2.046
0.0936407
2.0136
0.09364
1.9836
0.0936394
1.9512
0.0948387
1.9188
0.094838
1.8864
0.0948373
1.8528
0.0948365
1.8192
0.0948358
1.7856
0.0948351
1.7496
0.0948343
1.716
0.0948336
1.68
0.0936328
1.644
0.093632
1.608
0.0924312
1.572
0.0912304
1.5348
0.0912296
1.4964
0.0900288
1.4592
0.090028
1.4208
0.0888271
1.3824
0.0876263
1.344
0.0864254
1.3044
0.0840245
1.266
0.0828237
1.2252
0.0816228
1.1844
0.0792219
1.146
0.078021
1.104
0.0756202
1.0632
0.0744193
1.0224
0.0720184
0.980401
0.0708175
0.938401
0.0672166
0.897601
0.0660157
0.854401
0.0636148
0.812401
0.0612139
0.770401
0.057613
0.727201
0.054012
0.685201
0.0528111
0.640801
0.0492102
0.597601
0.0456093
0.555601
0.0420083
0.511201
0.0396075
0.466801
0.0360065
0.424801
0.0324056
0.379201
0.0288048
0.336001
0.025204
0.291601
0.0216029
0.248401
0.0168017
0.204001
0.0120004
0.159601
0.00839961
0.115201
0.00360051
0.0707991
0.0264005
-0.00479786
0.0311975
-0.0095983
0.075601
-0.0131988
0.1188
-0.0179976
0.164398
-0.0215952
0.207597
-0.0239928
0.250797
-0.0287906
0.296397
-0.0323886
0.339597
-0.0359865
0.382797
-0.0395843
0.428397
-0.0431821
0.470397
-0.0467799
0.514797
-0.0479777
0.556797
-0.0515754
0.601197
-0.055173
0.644397
-0.0575707
0.687597
-0.0599684
0.729597
-0.062366
0.772797
-0.0647636
0.814797
-0.0683611
0.857997
-0.0695588
0.898797
-0.0731563
0.941997
-0.0743539
0.981597
-0.0767514
1.0248
-0.0779491
1.0644
-0.0803465
1.1064
-0.0815441
1.1472
-0.0839417
1.1868
-0.0851392
1.2264
-0.0851369
1.266
-0.0863345
1.3056
-0.087532
1.3452
-0.0887296
1.3836
-0.0899271
1.422
-0.0911247
1.4604
-0.0923223
1.4976
-0.09232
1.5348
-0.0923177
1.572
-0.0935153
1.6092
-0.093513
1.644
-0.0947107
1.6812
-0.0935084
1.7148
-0.0947061
1.7508
-0.0947039
1.7856
-0.0947017
1.8192
-0.0946995
1.8528
-0.0946973
1.8864
-0.0934953
1.9176
-0.0934931
1.9512
-0.0922911
1.9824
-0.0934888
2.0148
-0.091087
2.0436
-0.0910849
2.0748
-0.0904829
2.10504
-0.089641
2.13384
-0.088799
2.16252
-0.0877171
2.1906
-0.0866353
2.21832
-0.0855535
2.24544
-0.0844717
2.27196
-0.0831499
2.29788
-0.0818283
2.32332
-0.0803865
2.34804
-0.0790649
2.37252
-0.0775033
2.39604
-0.0759417
2.4192
-0.0743801
2.44164
-0.0726987
2.4636
-0.0708972
2.48484
-0.0690958
2.50548
-0.0672944
2.52564
-0.0653729
2.54496
-0.0635717
2.56392
-0.0616504
2.58204
-0.0596092
2.59956
-0.0574479
2.61648
-0.0554068
2.6328
-0.0533656
2.6484
-0.0510845
2.66328
-0.0489235
2.67768
-0.0466425
2.69136
-0.0443616
2.70432
-0.0420806
2.71656
-0.0396798
2.72832
-0.0373989
2.73936
-0.0349981
2.74956
-0.0325974
2.75928
-0.0300766
2.76816
-0.027676
2.77656
-0.0252753
2.78412
-0.0227548
2.79096
-0.0202342
2.7972
-0.0177138
2.80284
-0.0151933
2.80752
-0.0126728
2.81184
-0.0100804
2.81521
-0.00752408
2.81802
-0.00495581
2.8201
-0.00239962
2.82149
0.000168604
2.82218
0.00273674
2.82218
0.0052929
2.82149
0.00786099
2.8201
0.0104171
2.81802
0.013009
2.81521
0.0155288
2.81184
0.0180487
2.80752
0.0205686
2.80284
0.0230884
2.7972
0.0256083
2.79096
0.0280078
2.78412
0.0304076
2.77656
0.0329272
2.76816
0.0353268
2.75928
0.0377263
2.74956
0.0400058
2.73936
0.0424053
2.72832
0.0446846
2.71656
0.0469641
2.70432
0.0492434
2.69136
0.0514026
2.67768
0.0536819
2.66328
0.055721
2.6484
0.0577602
2.6328
0.0599192
2.61648
0.0619582
2.59956
0.0638773
2.58204
0.0656763
2.56392
0.0675951
2.54496
0.069394
2.52564
0.0711928
2.50548
0.0729916
2.48484
0.0746704
2.4636
0.0762291
2.44164
0.0777876
2.4192
0.0793463
2.39604
0.0806649
2.37252
0.0821034
2.34804
0.0834219
2.32332
0.0847403
2.29788
0.0858187
2.27196
0.086897
2.24544
0.0879754
2.21832
0.0890537
2.1906
0.0898919
2.16252
0.0907301
2.13384
0.0913282
2.10504
0.0913262
2.0748
0.0937245
2.0436
0.0925224
2.0148
0.0937204
1.9824
0.0937183
1.9512
0.0949163
1.9176
0.0949142
1.8864
0.0949121
1.8528
0.0949098
1.8192
0.0949076
1.7856
0.0937053
1.7508
0.0949031
1.7148
0.0937007
1.6812
0.0936983
1.644
0.0924959
1.6092
0.0924935
1.572
0.0924911
1.5348
0.0912886
1.4976
0.0900861
1.4604
0.0888836
1.422
0.087681
1.3836
0.0864784
1.3452
0.0852758
1.3056
0.0852732
1.266
0.0840706
1.2264
0.0816679
1.1868
0.0804652
1.1472
0.0780625
1.1064
0.0768598
1.0644
0.0744571
1.0248
0.0732544
0.981604
0.0696515
0.942004
0.0684488
0.898804
0.064846
0.858004
0.0624432
0.814804
0.0600404
0.772804
0.0576376
0.729604
0.0552349
0.687604
0.051632
0.644404
0.0480292
0.601204
0.0468265
0.556804
0.0432237
0.514804
0.0396209
0.470404
0.0360181
0.428404
0.0324155
0.382804
0.0288129
0.339603
0.0240099
0.296404
0.0216066
0.250804
0.0180033
0.207605
0.0132017
0.164403
0.00960242
0.1188
0.00480307
0.0755985
0.0312036
-0.0047968
0.0359943
-0.00839517
0.0791994
-0.0131961
0.123601
-0.016796
0.167998
-0.0203934
0.211194
-0.0251894
0.255593
-0.0287853
0.299993
-0.0323818
0.343194
-0.0359784
0.386394
-0.0383749
0.430794
-0.0431711
0.475193
-0.0455675
0.517193
-0.0491637
0.560393
-0.0527598
0.604793
-0.055156
0.646793
-0.0575522
0.689993
-0.0611481
0.733193
-0.0635442
0.775193
-0.0659402
0.817193
-0.0671363
0.859193
-0.0707322
0.902393
-0.0719282
0.943193
-0.075524
0.985193
-0.07672
1.02599
-0.0791159
1.06679
-0.0803119
1.10759
-0.0815078
1.14839
-0.0827038
1.18799
-0.0838997
1.22759
-0.0862955
1.26839
-0.0874914
1.30679
-0.0886874
1.34639
-0.0898833
1.38479
-0.0910793
1.42319
-0.0910753
1.46039
-0.0922713
1.49879
-0.0922674
1.53479
-0.0934633
1.57319
-0.0934594
1.60919
-0.0946555
1.64519
-0.0934518
1.67999
-0.0946479
1.71599
-0.0946441
1.75079
-0.0946401
1.78559
-0.0946365
1.81919
-0.0946328
1.85279
-0.0934293
1.88519
-0.0946254
1.91879
-0.093422
1.94999
-0.0934184
1.98239
-0.092215
2.01359
-0.0922114
2.04359
-0.0922081
2.07479
-0.0904048
2.10323
-0.0895614
2.13299
-0.0885982
2.16155
-0.0876351
2.18963
-0.0866718
2.21735
-0.0854688
2.24423
-0.0842657
2.27075
-0.0829428
2.29655
-0.0816199
2.32199
-0.0804171
2.34683
-0.0788542
2.37095
-0.0774115
2.3946
-0.0758488
2.41764
-0.0741663
2.43996
-0.0724836
2.46192
-0.0708012
2.48316
-0.0691188
2.5038
-0.0671963
2.52372
-0.0653941
2.54316
-0.0633518
2.56188
-0.0614297
2.58012
-0.0595076
2.59764
-0.0574654
2.61444
-0.0553035
2.63064
-0.0531417
2.64624
-0.0509797
2.66112
-0.0488181
2.67552
-0.0465363
2.68908
-0.0442547
2.70204
-0.041973
2.71428
-0.0396916
2.72604
-0.0372902
2.73696
-0.0348888
2.74716
-0.0324875
2.75688
-0.0300863
2.76576
-0.0275651
2.77404
-0.0250441
2.7816
-0.0226431
2.78856
-0.0201221
2.79468
-0.0176012
2.80032
-0.0150804
2.805
-0.0125598
2.80932
-0.00997918
2.81263
-0.00742269
2.81546
-0.00485425
2.81753
-0.00228572
2.81892
0.000282637
2.81962
0.00285089
2.81962
0.00541896
2.81892
0.00798712
2.81753
0.0105432
2.81546
0.0131233
2.81263
0.0156432
2.80932
0.018163
2.805
0.0206827
2.80032
0.0232023
2.79468
0.0256019
2.78856
0.0281215
2.7816
0.0306408
2.77404
0.0330402
2.76576
0.0354395
2.75688
0.0378386
2.74716
0.0402378
2.73696
0.042517
2.72604
0.0447959
2.71428
0.0470747
2.70204
0.0493535
2.68908
0.0515124
2.67552
0.0536709
2.66112
0.0558297
2.64624
0.0579883
2.63064
0.0600266
2.61444
0.061945
2.59764
0.0638634
2.58012
0.0659015
2.56188
0.0676997
2.54316
0.0696178
2.52372
0.0712957
2.5038
0.0729738
2.48316
0.0746515
2.46192
0.0763294
2.43996
0.0778871
2.41764
0.0793248
2.3946
0.0808822
2.37096
0.0820797
2.34684
0.0833972
2.322
0.0847146
2.29656
0.0859118
2.27076
0.0871091
2.24424
0.0880661
2.21737
0.0890232
2.18965
0.0899803
2.16157
0.0908171
2.13301
0.0926141
2.10325
0.0926109
2.07481
0.0926075
2.04361
0.0938042
2.01361
0.0938008
1.98241
0.0949975
1.95001
0.0937937
1.91881
0.0949903
1.88521
0.0949866
1.85281
0.094983
1.81921
0.0949791
1.78561
0.0949753
1.75081
0.0937713
1.71601
0.0949676
1.68001
0.0937636
1.64521
0.0937596
1.60921
0.0925554
1.57321
0.0925514
1.53481
0.0913471
1.49881
0.091343
1.46041
0.0901388
1.42321
0.0889344
1.38481
0.0877301
1.34641
0.0865257
1.30681
0.0841211
1.26841
0.0829168
1.22761
0.0817124
1.18801
0.0805079
1.14841
0.0793034
1.10761
0.0768988
1.06681
0.0756943
1.02601
0.0720895
0.985208
0.070885
0.943208
0.0672802
0.902408
0.0660758
0.859208
0.0636711
0.817208
0.0612665
0.775208
0.0576617
0.733208
0.0552571
0.690008
0.0528525
0.646808
0.0492477
0.604808
0.0456431
0.560408
0.0432385
0.517208
0.0384337
0.475208
0.0360292
0.430808
0.0324248
0.386408
0.0288201
0.343208
0.0252147
0.300009
0.0204091
0.25561
0.0168055
0.211208
0.0132055
0.168003
0.00840695
0.123599
0.00480464
0.0792008
0.0360082
-0.00359675
0.039591
-0.00839251
0.0839952
-0.0131923
0.128401
-0.0167933
0.171599
-0.0215916
0.215992
-0.0251871
0.259188
-0.0287813
0.303587
-0.0323759
0.346788
-0.035971
0.389989
-0.0395661
0.434389
-0.0419611
0.477588
-0.0455559
0.520788
-0.0491505
0.563988
-0.0515453
0.607188
-0.0551398
0.650388
-0.0575344
0.692388
-0.0599289
0.735587
-0.0623234
0.777587
-0.0659177
0.820787
-0.0683121
0.861587
-0.0695066
0.903587
-0.0719009
0.945587
-0.0742951
0.987587
-0.0754894
1.02719
-0.0778837
1.06919
-0.079078
1.10879
-0.0814722
1.15079
-0.0826665
1.18919
-0.0850606
1.22999
-0.0862549
1.26959
-0.0874492
1.30799
-0.0874435
1.34639
-0.0886379
1.38599
-0.0898321
1.42439
-0.0910263
1.46159
-0.0910208
1.49879
-0.0934149
1.53719
-0.0934094
1.57319
-0.0934039
1.60919
-0.0933984
1.64519
-0.0945928
1.68119
-0.0945875
1.71599
-0.0945822
1.75079
-0.0945768
1.78559
-0.0945714
1.81919
-0.0945662
1.85279
-0.0945609
1.88519
-0.0933559
1.91759
-0.0933509
1.94999
-0.0933457
1.98239
-0.092141
2.01239
-0.092136
2.04359
-0.0909311
2.07359
-0.0903263
2.10263
-0.0894818
2.13215
-0.0885172
2.16059
-0.0876726
2.18879
-0.0864682
2.21615
-0.0853838
2.24315
-0.0841796
2.26955
-0.0829752
2.29535
-0.081651
2.32067
-0.080207
2.34539
-0.0787632
2.36951
-0.0773191
2.39315
-0.0756353
2.41595
-0.0741916
2.43851
-0.0725081
2.46023
-0.0707043
2.48135
-0.0689008
2.50199
-0.0670975
2.52191
-0.0652944
2.54135
-0.063371
2.55995
-0.0613281
2.57807
-0.0592849
2.59559
-0.0572422
2.61239
-0.0551992
2.62859
-0.0530365
2.64407
-0.0509941
2.65907
-0.0487113
2.67323
-0.0464288
2.68679
-0.0441466
2.69975
-0.0419845
2.71211
-0.0395823
2.72364
-0.0371801
2.73456
-0.0347783
2.74476
-0.0323765
2.75448
-0.0299748
2.76336
-0.0274532
2.77152
-0.0250516
2.7792
-0.0225302
2.78604
-0.0200088
2.79216
-0.0174875
2.7978
-0.0149665
2.80248
-0.0123254
2.80668
-0.00986457
2.81017
-0.00729563
2.81289
-0.00473901
2.81497
-0.00217045
2.81635
0.00039804
2.81705
0.00296641
2.81705
0.00553471
2.81635
0.00809095
2.81497
0.0106589
2.8129
0.0131189
2.81017
0.0157586
2.80668
0.0182785
2.80248
0.0207981
2.7978
0.0233175
2.79216
0.0258369
2.78604
0.0282362
2.7792
0.0307554
2.77152
0.0331545
2.76336
0.0355535
2.75448
0.0379525
2.74476
0.0403511
2.73456
0.0427497
2.72364
0.0449083
2.71212
0.0471869
2.69976
0.0494652
2.6868
0.0517432
2.67324
0.0537815
2.65908
0.0559395
2.64408
0.0579772
2.6286
0.0600153
2.6124
0.0620528
2.59561
0.0640905
2.57809
0.0660078
2.55997
0.0678053
2.54137
0.0696027
2.52193
0.0713998
2.50201
0.0731966
2.48137
0.0748737
2.46025
0.0763105
2.43853
0.0779873
2.41597
0.0794237
2.39317
0.0808605
2.36953
0.082297
2.34541
0.0836132
2.32069
0.0848093
2.29537
0.0860055
2.26957
0.0870814
2.24317
0.0882775
2.21617
0.0891133
2.18881
0.090069
2.16061
0.0909047
2.13217
0.0915002
2.10265
0.0926956
2.07361
0.0926909
2.04361
0.0938864
2.01241
0.0938814
1.98241
0.0938765
1.95001
0.0950716
1.91761
0.0950664
1.88521
0.0950613
1.85281
0.095056
1.81921
0.0950506
1.78561
0.0950453
1.75081
0.0950399
1.71601
0.0938342
1.68121
0.0938286
1.64521
0.0938229
1.60921
0.0938172
1.57321
0.0914111
1.53721
0.0914053
1.49881
0.0901993
1.46161
0.0889931
1.42441
0.0877872
1.38601
0.0877811
1.34641
0.086575
1.30801
0.0853688
1.26961
0.0829624
1.23001
0.0817561
1.18921
0.0793497
1.15081
0.0781434
1.10881
0.0757369
1.06921
0.0745306
1.02721
0.072124
0.987615
0.0697174
0.945615
0.0685112
0.903615
0.0661046
0.861615
0.0624979
0.820815
0.0600914
0.777615
0.0576849
0.735615
0.0552784
0.692415
0.0516718
0.650415
0.0492653
0.607215
0.0456587
0.564015
0.0420521
0.520815
0.0396458
0.477615
0.0360394
0.434415
0.032433
0.390014
0.0288257
0.346815
0.0252179
0.303617
0.0216117
0.259216
0.0168094
0.21601
0.013211
0.171601
0.00841083
0.128399
0.00360474
0.0840069
0.0396129
-0.00479645
0.0443875
-0.00959058
0.0887893
-0.0131882
0.131998
-0.0167892
0.1752
-0.0203891
0.219592
-0.0251852
0.263984
-0.0287784
0.307181
-0.0323712
0.350381
-0.0359645
0.393582
-0.039558
0.437982
-0.0431515
0.481182
-0.0467448
0.524381
-0.0491382
0.566381
-0.0527312
0.610781
-0.0551244
0.652781
-0.0587173
0.69598
-0.0611103
0.73798
-0.0635032
0.77998
-0.0646962
0.82198
-0.0682888
0.86518
-0.0706814
0.90598
-0.0730741
0.94798
-0.0742669
0.98878
-0.0766594
1.02958
-0.0778522
1.07038
-0.0802447
1.11118
-0.0814373
1.15198
-0.08263
1.19038
-0.0838225
1.23118
-0.085015
1.27078
-0.0862076
1.30918
-0.0886001
1.34878
-0.0897926
1.38718
-0.0897854
1.42438
-0.090978
1.46278
-0.0921705
1.49998
-0.0921634
1.53718
-0.0921563
1.57318
-0.093349
1.61038
-0.0933419
1.64518
-0.0933348
1.68118
-0.0945275
1.71718
-0.0945204
1.75078
-0.0945135
1.78558
-0.0945066
1.81918
-0.0933
1.85158
-0.0932933
1.88518
-0.0944864
1.91878
-0.0932799
1.94878
-0.0920735
1.98118
-0.0920668
2.01238
-0.0908605
2.04238
-0.0908543
2.07358
-0.0902481
2.10202
-0.0894019
2.1313
-0.0885559
2.15974
-0.0874699
2.1877
-0.0863842
2.21506
-0.0852984
2.24206
-0.0840929
2.26834
-0.0828872
2.29414
-0.0815619
2.31935
-0.0801167
2.34395
-0.0787913
2.36819
-0.0772262
2.39159
-0.0756612
2.41439
-0.0739763
2.43683
-0.0722915
2.45855
-0.0706071
2.47967
-0.0689224
2.50031
-0.0671179
2.52011
-0.0650738
2.53931
-0.0632697
2.55815
-0.0613452
2.57615
-0.0593017
2.59355
-0.0572576
2.61035
-0.0550942
2.62643
-0.0529304
2.64191
-0.050767
2.65691
-0.0486036
2.67107
-0.0463206
2.68451
-0.0440375
2.69747
-0.0417544
2.70983
-0.0393515
2.72123
-0.0370689
2.73227
-0.0346665
2.74235
-0.0322639
2.75207
-0.0297417
2.76083
-0.0274595
2.76923
-0.0248175
2.77655
-0.0224156
2.78363
-0.0198941
2.78964
-0.0173724
2.79528
-0.0148511
2.79996
-0.0123296
2.80416
-0.00973659
2.80758
-0.00719164
2.81035
-0.00462251
2.8124
-0.00205378
2.81378
0.000514853
2.81448
0.00308334
2.81448
0.00565174
2.81378
0.00821973
2.8124
0.0107639
2.81035
0.013356
2.80758
0.0158756
2.80416
0.0183955
2.79996
0.0209149
2.79528
0.0234344
2.78964
0.0258336
2.78364
0.0284727
2.77656
0.0307517
2.76924
0.0332705
2.76084
0.0356689
2.75208
0.0380676
2.74236
0.040346
2.73228
0.0427441
2.72124
0.0450221
2.70985
0.0473
2.69749
0.049578
2.68453
0.0517356
2.67109
0.0538931
2.65693
0.0560502
2.64193
0.0582078
2.62645
0.0602447
2.61037
0.062282
2.59357
0.0641984
2.57617
0.0659951
2.55817
0.0680319
2.53933
0.0698282
2.52013
0.0715044
2.50033
0.0731807
2.47969
0.0748566
2.45857
0.0765325
2.43685
0.0780882
2.41441
0.0796439
2.39161
0.0809591
2.36821
0.0823945
2.34397
0.0837098
2.31937
0.0849047
2.29417
0.0860997
2.26837
0.0871744
2.24209
0.0882492
2.21509
0.0893238
2.18773
0.0901581
2.15978
0.0909924
2.13134
0.0915865
2.10206
0.0915807
2.07362
0.0927747
2.04242
0.0927682
2.01242
0.0939621
1.98122
0.0951557
1.94882
0.093949
1.91882
0.0939424
1.88522
0.0951359
1.85162
0.095129
1.81922
0.0951221
1.78562
0.095115
1.75082
0.0939076
1.71722
0.0939004
1.68122
0.0938931
1.64522
0.0926855
1.61042
0.0926783
1.57322
0.0926708
1.53722
0.0914631
1.50002
0.0902552
1.46282
0.0902476
1.42442
0.0890396
1.38722
0.0866315
1.34882
0.0854236
1.30922
0.0842154
1.27082
0.0830072
1.23122
0.0817992
1.19042
0.080591
1.15202
0.0781827
1.11122
0.0769746
1.07042
0.0745662
1.02962
0.073358
0.988823
0.0709496
0.948023
0.0685411
0.906023
0.0649324
0.865223
0.0637242
0.822023
0.0613159
0.780023
0.0589075
0.738023
0.0552989
0.696023
0.0528905
0.652823
0.0492819
0.610824
0.0468737
0.566423
0.0432652
0.524423
0.0396569
0.481223
0.0360486
0.438023
0.0324397
0.393623
0.0288299
0.350425
0.0252207
0.307226
0.0204153
0.264022
0.0168155
0.21961
0.0132171
0.1752
0.00961368
0.132002
0.0048052
0.0888153
0.0444182
-0.0047963
0.0491838
-0.00838993
0.092383
-0.0131846
0.136793
-0.0179839
0.179999
-0.0215849
0.223193
-0.0251827
0.267582
-0.0287762
0.310774
-0.0323675
0.353972
-0.0371587
0.398373
-0.0395508
0.440374
-0.0431429
0.484774
-0.045535
0.526774
-0.0491267
0.569973
-0.0515185
0.613173
-0.0551099
0.656372
-0.0575014
0.698372
-0.0598928
0.740372
-0.0634839
0.783571
-0.0658751
0.824371
-0.0670665
0.866371
-0.0694577
0.908371
-0.0718486
0.950371
-0.0742395
0.991171
-0.0766304
1.03197
-0.0778214
1.07157
-0.0802122
1.11357
-0.0814031
1.15317
-0.0837938
1.19277
-0.0849847
1.23237
-0.0861756
1.27197
-0.0873666
1.31037
-0.0885573
1.34997
-0.0885484
1.38717
-0.0897393
1.42557
-0.0909301
1.46397
-0.092121
1.50117
-0.0921121
1.53717
-0.093303
1.57437
-0.0932942
1.61037
-0.0944852
1.64637
-0.0944766
1.68117
-0.0944678
1.71717
-0.0944593
1.75077
-0.0944506
1.78557
-0.0944422
1.81917
-0.0944336
1.85157
-0.0944253
1.88517
-0.0932171
1.91757
-0.0932089
1.94877
-0.0932008
1.98117
-0.0919929
2.01117
-0.0919849
2.04237
-0.090777
2.07237
-0.0901695
2.10142
-0.0893219
2.13046
-0.0883544
2.15878
-0.0873873
2.18674
-0.0864197
2.2141
-0.0852127
2.24086
-0.0840056
2.26714
-0.0827991
2.29294
-0.0814722
2.31802
-0.0801457
2.34262
-0.078579
2.36662
-0.077013
2.39002
-0.0755668
2.41294
-0.0740004
2.43526
-0.0723144
2.45686
-0.0706286
2.47798
-0.0687032
2.49838
-0.0668979
2.5183
-0.0650921
2.5375
-0.063167
2.55622
-0.0611221
2.5741
-0.059077
2.5915
-0.0570323
2.6083
-0.0549877
2.62439
-0.0529433
2.63987
-0.050659
2.65463
-0.0483751
2.66879
-0.0462107
2.68235
-0.0440468
2.69531
-0.0416434
2.70743
-0.03936
2.71895
-0.0368369
2.72975
-0.0345535
2.74007
-0.0321506
2.74967
-0.0297478
2.75843
-0.0272251
2.76671
-0.0248226
2.77415
-0.0221803
2.78099
-0.019778
2.78723
-0.0172563
2.79275
-0.014734
2.79743
-0.0122129
2.80164
-0.00963081
2.80499
-0.00706163
2.80778
-0.00450457
2.80984
-0.00193568
2.81121
0.000633107
2.81191
0.00320172
2.81191
0.00577022
2.81121
0.00832656
2.80985
0.0108948
2.80778
0.0134741
2.805
0.0159944
2.80164
0.0185135
2.79744
0.0210331
2.79276
0.0234322
2.78724
0.0260712
2.781
0.02847
2.77416
0.0309887
2.76672
0.0333873
2.75844
0.0357857
2.74969
0.0380636
2.74009
0.0405817
2.72977
0.0428597
2.71897
0.0452575
2.70745
0.0474148
2.69533
0.0495717
2.68237
0.0518491
2.66881
0.054126
2.65465
0.0561627
2.63989
0.0581993
2.62441
0.0602357
2.60833
0.0622717
2.59153
0.0643079
2.57413
0.0662239
2.55625
0.0680191
2.53753
0.0698148
2.51833
0.0717304
2.49841
0.0734055
2.47802
0.0750805
2.4569
0.076635
2.4353
0.0780697
2.41298
0.0796246
2.39006
0.0811786
2.36666
0.0824929
2.34266
0.0838067
2.31806
0.085001
2.29298
0.0861946
2.26718
0.0873883
2.2409
0.0883412
2.21414
0.0892947
2.18678
0.0902477
2.15882
0.0910805
2.1305
0.0916735
2.10146
0.092866
2.07242
0.0928583
2.04242
0.0940508
2.01122
0.094043
1.98123
0.094035
1.94883
0.0952269
1.91763
0.0952188
1.88523
0.0952103
1.85163
0.0952019
1.81923
0.0951932
1.78563
0.0951847
1.75083
0.0951758
1.71723
0.0951671
1.68123
0.0939577
1.64643
0.0939486
1.61043
0.0927392
1.57443
0.09273
1.53723
0.0915204
1.50123
0.0903107
1.46403
0.089101
1.42563
0.0890916
1.38723
0.0878816
1.35003
0.0866718
1.31043
0.0854619
1.27203
0.084252
1.23243
0.0818418
1.19283
0.0806317
1.15323
0.0782214
1.11363
0.0770113
1.07163
0.0746009
1.03203
0.0721906
0.991233
0.0697801
0.950434
0.0673698
0.908433
0.0661599
0.866433
0.0637495
0.824434
0.0601389
0.783634
0.0577286
0.740434
0.0553183
0.698434
0.0517078
0.656434
0.0492976
0.613234
0.0456872
0.570034
0.0432772
0.526833
0.039667
0.484833
0.0372568
0.440433
0.0324449
0.398435
0.0288332
0.354037
0.0252243
0.310835
0.0216215
0.267624
0.0180232
0.223208
0.0132224
0.180001
0.00841471
0.13681
0.00480546
0.0924246
0.0492236
-0.00359654
0.0527803
-0.00838965
0.0971761
-0.0119823
0.140385
-0.0167789
0.184796
-0.0215794
0.227994
-0.025179
0.271182
-0.0287738
0.314369
-0.0323647
0.357563
-0.0359544
0.401963
-0.0395445
0.443964
-0.0419353
0.487165
-0.0455257
0.530364
-0.0491159
0.573563
-0.0527059
0.616763
-0.0550961
0.658762
-0.0574861
0.700762
-0.0610757
0.743961
-0.0622657
0.784761
-0.0658551
0.827961
-0.0682446
0.868761
-0.070634
0.91076
-0.0718237
0.95156
-0.0742129
0.99356
-0.0754024
1.03316
-0.0789912
1.07516
-0.0789808
1.11356
-0.0813698
1.15556
-0.082559
1.19396
-0.0837482
1.23356
-0.0849374
1.27316
-0.0873261
1.31276
-0.0873156
1.34996
-0.0897044
1.38956
-0.0908935
1.42676
-0.0908829
1.46396
-0.0908723
1.50116
-0.0920615
1.53836
-0.0932506
1.57556
-0.0932401
1.61036
-0.0932298
1.64636
-0.094419
1.68236
-0.0932088
1.71596
-0.0943981
1.75196
-0.094388
1.78556
-0.093178
1.81796
-0.0943677
1.85276
-0.0943574
1.88516
-0.0931479
1.91636
-0.093138
1.94876
-0.0931283
1.98116
-0.0931186
2.01116
-0.0919093
2.04117
-0.0907001
2.07117
-0.0900909
2.10081
-0.0891218
2.12949
-0.0882727
2.15793
-0.0873038
2.18577
-0.0862154
2.21301
-0.085127
2.23977
-0.0839185
2.26593
-0.08271
2.29173
-0.0813821
2.31669
-0.0799339
2.34117
-0.0784865
2.36517
-0.0770386
2.38857
-0.0754712
2.41137
-0.0737842
2.43357
-0.072217
2.45529
-0.07041
2.47617
-0.0687231
2.4967
-0.0667964
2.51638
-0.0649901
2.5357
-0.0629437
2.55418
-0.0610177
2.57218
-0.0590919
2.58958
-0.0569263
2.60614
-0.0548804
2.62234
-0.0527151
2.6377
-0.0505499
2.65246
-0.0483849
2.66662
-0.0462204
2.68018
-0.0438157
2.6929
-0.0415315
2.70514
-0.0391271
2.71654
-0.0368429
2.72747
-0.0344392
2.73767
-0.0320357
2.74727
-0.0296324
2.75603
-0.0271087
2.76419
-0.0247061
2.77175
-0.0221833
2.77847
-0.0196606
2.78471
-0.0171381
2.79023
-0.0146161
2.79491
-0.0119739
2.79899
-0.0095123
2.80253
-0.00695444
2.80522
-0.00438517
2.80728
-0.0018161
2.80864
0.000752835
2.80934
0.00332158
2.80934
0.00589019
2.80865
0.0084586
2.80728
0.0110144
2.80523
0.0134744
2.80254
0.0161139
2.799
0.0186337
2.79492
0.0211528
2.79024
0.0236717
2.78472
0.0261905
2.77848
0.0285895
2.77176
0.0311075
2.76421
0.0335058
2.75605
0.0359038
2.74729
0.0383017
2.73769
0.040579
2.72749
0.0429762
2.71657
0.0452536
2.70517
0.0476503
2.69293
0.0498073
2.68021
0.0519638
2.66665
0.05412
2.65249
0.0562761
2.63773
0.0583116
2.62238
0.0604673
2.60618
0.0623829
2.58962
0.0642982
2.57222
0.066333
2.55422
0.068128
2.53574
0.0700425
2.51642
0.0717168
2.49674
0.0735109
2.47622
0.0750648
2.45534
0.076739
2.43362
0.0782926
2.41142
0.0797257
2.38862
0.0811593
2.36522
0.082592
2.34123
0.0839049
2.31675
0.0850973
2.29179
0.0862896
2.26599
0.087362
2.23983
0.0884343
2.21307
0.089386
2.18583
0.0902176
2.15799
0.0911691
2.12955
0.0917603
2.10087
0.0929516
2.07123
0.0941427
2.04123
0.0941334
2.01123
0.094124
1.98123
0.0941144
1.94883
0.0953051
1.91644
0.095295
1.88524
0.0940847
1.85284
0.0952748
1.81804
0.0952646
1.78564
0.0940537
1.75204
0.0952435
1.71604
0.0940324
1.68244
0.0940219
1.64644
0.094011
1.61044
0.0927997
1.57564
0.0915883
1.53844
0.0915772
1.50124
0.0915661
1.46404
0.0903545
1.42684
0.0879425
1.38964
0.0879312
1.35004
0.0855189
1.31284
0.0843071
1.27324
0.0830953
1.23364
0.0818834
1.19404
0.0794711
1.15565
0.0794595
1.11364
0.0758469
1.07525
0.074635
1.03325
0.0722226
0.993646
0.0710107
0.951645
0.0685984
0.910846
0.0661861
0.868846
0.0625735
0.828046
0.0613617
0.784846
0.0577491
0.744046
0.055337
0.700846
0.0529249
0.658846
0.0493125
0.616846
0.0457002
0.573646
0.042088
0.530446
0.039676
0.487245
0.036063
0.444046
0.0324491
0.402049
0.0288367
0.357649
0.0252298
0.314442
0.0216296
0.271225
0.0168306
0.228007
0.0120258
0.184805
0.0084152
0.14042
0.00360514
0.0972346
0.0528288
-0.00479588
0.0575762
-0.00958916
0.101969
-0.0131806
0.143977
-0.0167744
0.18839
-0.0203735
0.231593
-0.0239741
0.274782
-0.0287706
0.319166
-0.0323622
0.361155
-0.0359509
0.405552
-0.0395392
0.447553
-0.043128
0.490753
-0.0467169
0.533953
-0.049106
0.575952
-0.0514948
0.619151
-0.0550831
0.662351
-0.0574716
0.703151
-0.05986
0.74635
-0.0634479
0.788349
-0.0646363
0.829149
-0.0682238
0.872348
-0.069412
0.911949
-0.0729992
0.955147
-0.0741873
0.994748
-0.0765746
1.03555
-0.0777623
1.07635
-0.0801497
1.11595
-0.0813373
1.15675
-0.0825249
1.19515
-0.0849118
1.23595
-0.0860993
1.27435
-0.0860871
1.31275
-0.0884741
1.35235
-0.0884616
1.38955
-0.089649
1.42795
-0.0908363
1.46515
-0.0920239
1.50235
-0.0920114
1.53835
-0.091999
1.57555
-0.0931867
1.61155
-0.0943738
1.64755
-0.0931622
1.68115
-0.0943496
1.71715
-0.0943378
1.75195
-0.0943256
1.78555
-0.0943139
1.81795
-0.0943019
1.85275
-0.0930906
1.88395
-0.0942784
1.91755
-0.0930673
1.94755
-0.0918562
1.97995
-0.0918449
2.01115
-0.0918334
2.04115
-0.0906229
2.06996
-0.0900118
2.1002
-0.0891614
2.12864
-0.0883108
2.15708
-0.0872204
2.18468
-0.0862505
2.21204
-0.0850404
2.23856
-0.0839503
2.26484
-0.0825009
2.29028
-0.0811715
2.31536
-0.0798423
2.33984
-0.0785128
2.36384
-0.0769439
2.387
-0.0753752
2.4098
-0.0738066
2.432
-0.0719982
2.45349
-0.0703104
2.47449
-0.0685023
2.49489
-0.0666943
2.51457
-0.064767
2.53377
-0.0629594
2.55237
-0.0610324
2.57025
-0.0588652
2.58741
-0.0569385
2.60421
-0.0547721
2.62017
-0.0526058
2.63553
-0.0504402
2.6503
-0.0482738
2.66446
-0.0459886
2.6779
-0.043703
2.69062
-0.0414176
2.70286
-0.0391329
2.71426
-0.0367279
2.72506
-0.0343236
2.73526
-0.0319195
2.74486
-0.0293951
2.7535
-0.0269918
2.76178
-0.0244678
2.76923
-0.0220644
2.77607
-0.0195417
2.78219
-0.0170187
2.78771
-0.0144965
2.79239
-0.0119739
2.79647
-0.00937997
2.79994
-0.00682228
2.80266
-0.00426428
2.80472
-0.00169502
2.80607
0.000874074
2.80677
0.00344295
2.80677
0.00601166
2.80608
0.00856764
2.80472
0.0111239
2.80267
0.013716
2.79995
0.0162353
2.79648
0.018755
2.7924
0.021274
2.78772
0.0237932
2.7822
0.0261918
2.77609
0.0287096
2.76925
0.0311083
2.76181
0.0336257
2.75353
0.0360234
2.74489
0.038421
2.73529
0.0408178
2.72509
0.0430949
2.71429
0.0453713
2.70289
0.0476475
2.69066
0.049924
2.67794
0.0520793
2.6645
0.0542354
2.65034
0.0563907
2.63558
0.0585459
2.62022
0.0604608
2.60426
0.0626152
2.58746
0.0645297
2.5703
0.0663235
2.55242
0.0682377
2.53382
0.0700312
2.51463
0.0718245
2.49495
0.073498
2.47455
0.0752909
2.45355
0.0768435
2.43207
0.078396
2.40987
0.0799483
2.38707
0.0812599
2.36391
0.0825718
2.33991
0.0838835
2.31543
0.085315
2.29036
0.0863859
2.26492
0.0875766
2.23864
0.0885275
2.21212
0.0895979
2.18476
0.090428
2.15716
0.0912583
2.12872
0.0918477
2.10028
0.0930378
2.07004
0.0930267
2.04124
0.0930158
2.01124
0.0942051
1.98005
0.0953943
1.94765
0.0941822
1.91765
0.0953711
1.88405
0.0953592
1.85285
0.0953475
1.81805
0.0953353
1.78565
0.0953233
1.75205
0.0941105
1.71725
0.0952987
1.68125
0.0940854
1.64765
0.0928726
1.61165
0.0928598
1.57565
0.0928467
1.53845
0.0916336
1.50245
0.0904202
1.46526
0.0892067
1.42806
0.0891933
1.38966
0.0867793
1.35246
0.0867661
1.31286
0.0855524
1.27446
0.083138
1.23606
0.0819243
1.19526
0.0807105
1.15686
0.0782963
1.11606
0.0770824
1.07646
0.074668
1.03566
0.0734544
0.994859
0.0698395
0.95526
0.0686258
0.912059
0.065011
0.87246
0.0637973
0.82926
0.0601828
0.78846
0.0577688
0.74646
0.0553547
0.70326
0.0517403
0.66246