# Forces      
# CofR        : (-1.050000e-01 0.000000e+00 0.000000e+00)
# Time        forces(pressure viscous)	moments(pressure viscous)
2000          	((8.209104e-01 5.048858e+01 -4.133228e-18) (3.368251e-01 1.989852e-02 1.543800e-18)) ((1.376551e-20 -2.889783e-19 -1.247643e+00) (4.938227e-22 3.759486e-21 2.290764e-03))
