/*--------------------------------*- C++ -*----------------------------------*\
  =========                 |
  \\      /  F ield         | OpenFOAM: The Open Source CFD Toolbox
   \\    /   O peration     | Website:  https://openfoam.org
    \\  /    A nd           | Version:  9
     \\/     M anipulation  |
\*---------------------------------------------------------------------------*/
FoamFile
{
    format      ascii;
    class       volScalarField;
    location    "0.0075";
    object      alphat;
}
// * * * * * * * * * * * * * * * * * * * * * * * * * * * * * * * * * * * * * //

dimensions      [1 -1 -1 0 0 0 0];

internalField   nonuniform List<scalar> 
5373
(
0.0162952
0.0162596
0.0162596
0.0162595
0.0162595
0.0162187
0.0162187
0.0162186
0.0162185
0.0162185
0.0162184
0.0161804
0.0161805
0.0161805
0.0161806
0.0161807
0.0161807
0.0161808
0.0161809
0.0161352
0.0161353
0.0161354
0.0161355
0.0161356
0.0161357
0.0161358
0.0161359
0.016136
0.0160887
0.0160889
0.016089
0.0160891
0.0160893
0.0160894
0.0160895
0.0160897
0.0160898
0.0160899
0.0160901
0.0160352
0.0160354
0.0160356
0.0160358
0.016036
0.0160362
0.0160364
0.0160365
0.0160367
0.0160369
0.0160371
0.0159713
0.0159716
0.0159718
0.0159721
0.0159723
0.0159726
0.0159728
0.0159731
0.0159733
0.0159735
0.0159738
0.015974
0.0158947
0.015895
0.0158953
0.0158957
0.015896
0.0158963
0.0158967
0.015897
0.0158973
0.0158976
0.015898
0.0158983
0.0158986
0.0158035
0.015804
0.0158044
0.0158048
0.0158053
0.0158057
0.0158061
0.0158066
0.015807
0.0158074
0.0158078
0.0158082
0.0158086
0.0156943
0.0156949
0.0156955
0.0156961
0.0156966
0.0156972
0.0156978
0.0156983
0.0156989
0.0156994
0.0157
0.0157005
0.015701
0.0157016
0.0155642
0.015565
0.0155657
0.0155664
0.0155672
0.0155679
0.0155686
0.0155693
0.01557
0.0155707
0.0155714
0.0155721
0.0155728
0.0155734
0.0154066
0.0154075
0.0154085
0.0154094
0.0154103
0.0154112
0.0154122
0.0154131
0.015414
0.0154148
0.0154157
0.0154166
0.0154174
0.0154183
0.0154191
0.0152175
0.0152187
0.0152199
0.015221
0.0152222
0.0152233
0.0152245
0.0152256
0.0152267
0.0152278
0.0152288
0.0152299
0.015231
0.015232
0.015233
0.0149891
0.0149905
0.014992
0.0149934
0.0149948
0.0149962
0.0149975
0.0149989
0.0150002
0.0150016
0.0150029
0.0150042
0.0150054
0.0150067
0.0150079
0.0147131
0.0147149
0.0147166
0.0147183
0.0147199
0.0147216
0.0147232
0.0147248
0.0147264
0.014728
0.0147295
0.014731
0.0147325
0.0147339
0.0147354
0.0143806
0.0143826
0.0143846
0.0143865
0.0143884
0.0143903
0.0143922
0.014394
0.0143958
0.0143976
0.0143993
0.014401
0.0144027
0.0144043
0.0144059
0.0139799
0.0139821
0.0139844
0.0139866
0.0139887
0.0139908
0.0139929
0.0139949
0.0139969
0.0139989
0.0140008
0.0140026
0.0140044
0.0140062
0.0140079
0.0140096
0.0135073
0.0135097
0.0135121
0.0135143
0.0135166
0.0135187
0.0135208
0.0135229
0.0135249
0.0135268
0.0135287
0.0135305
0.0135323
0.013534
0.0135357
0.0135372
0.0129559
0.0129583
0.0129605
0.0129627
0.0129647
0.0129667
0.0129687
0.0129705
0.0129723
0.012974
0.0129756
0.0129771
0.0129786
0.01298
0.0129813
0.0129826
0.0123261
0.0123281
0.01233
0.0123318
0.0123336
0.0123352
0.0123366
0.012338
0.0123392
0.0123404
0.0123414
0.0123423
0.0123432
0.012344
0.0123447
0.0123454
0.0116283
0.0116295
0.0116307
0.0116317
0.0116326
0.0116333
0.011634
0.0116345
0.011635
0.0116352
0.0116354
0.0116354
0.0116354
0.0116352
0.0116349
0.0116345
0.0108885
0.0108886
0.0108885
0.0108883
0.010888
0.0108876
0.0108871
0.0108864
0.0108856
0.0108846
0.0108833
0.0108818
0.0108802
0.0108783
0.0108764
0.0108743
0.0101647
0.0101634
0.010162
0.0101604
0.0101587
0.0101568
0.0101548
0.0101524
0.0101498
0.0101471
0.0101441
0.0101409
0.0101376
0.0101341
0.0101304
0.0101265
0.00957131
0.00956897
0.0095665
0.00956388
0.00956103
0.00955798
0.00955478
0.00955143
0.00954794
0.00954432
0.00954057
0.00953669
0.0095327
0.00952858
0.00952434
0.00951997
0.0093004
0.00929848
0.00929606
0.00929294
0.00928913
0.00928471
0.00927971
0.00927419
0.00926817
0.00926167
0.00925473
0.00924753
0.00924019
0.00923274
0.0092252
0.00921758
0.00921406
0.00921022
0.00920639
0.00920256
0.00919876
0.00919501
0.00919136
0.00918785
0.00918452
0.00918143
0.00917862
0.00917612
0.00917364
0.00917097
0.00916808
0.009165
0.00932312
0.00932329
0.00932341
0.00932342
0.00932328
0.00932306
0.00932283
0.00932259
0.00932235
0.00932211
0.00932187
0.00932161
0.00932127
0.00932084
0.00932033
0.00931976
0.00946664
0.00946955
0.00947248
0.0094754
0.00947828
0.00948112
0.00948393
0.00948671
0.00948945
0.00949216
0.00949483
0.00949747
0.00950008
0.00950266
0.00950522
0.00950778
0.00951111
0.00951662
0.00952216
0.00952768
0.00953317
0.00953861
0.009544
0.00954933
0.00955461
0.00955984
0.00956501
0.00957014
0.00957522
0.00958026
0.00958526
0.00959026
0.00937079
0.00937827
0.00938576
0.0093932
0.00940054
0.00940778
0.00941492
0.00942195
0.00942886
0.00943565
0.00944232
0.00944887
0.00945529
0.00946157
0.00946774
0.0094738
0.00900764
0.00901677
0.00902595
0.00903484
0.0090435
0.00905196
0.00906019
0.00906822
0.00907602
0.00908359
0.00909092
0.009098
0.00910481
0.00911134
0.00911758
0.00912353
0.00842326
0.00843346
0.00844368
0.00845377
0.0084637
0.0084734
0.00848254
0.00849126
0.00849958
0.00850752
0.00851506
0.00852217
0.00852882
0.00853498
0.00854103
0.00854683
0.00764152
0.00765267
0.00766384
0.0076749
0.00768577
0.00769641
0.00770678
0.00771642
0.00772539
0.00773377
0.00774158
0.00774876
0.00775527
0.00776157
0.00776752
0.00777297
0.00670119
0.00671306
0.00672498
0.00673684
0.00674855
0.00676007
0.00677132
0.00678219
0.00679204
0.00680113
0.0068095
0.00681709
0.00682401
0.00683069
0.00683677
0.00684207
0.00566585
0.00567763
0.00568952
0.00570142
0.00571327
0.00572499
0.00573654
0.00574783
0.0057583
0.00576785
0.00577661
0.00578453
0.00579189
0.00579886
0.00580501
0.00581015
0.00463948
0.0046497
0.00466008
0.00467052
0.00468096
0.00469134
0.00470158
0.00471162
0.00472124
0.00472981
0.00473757
0.00474449
0.00475107
0.00475708
0.0047621
0.00476589
0.00371944
0.0037275
0.0037357
0.00374395
0.0037522
0.00376037
0.00376838
0.00377615
0.00378356
0.00379012
0.00379568
0.00380045
0.00380492
0.00380858
0.00381105
0.00381203
0.00292681
0.00293297
0.00293924
0.00294553
0.0029518
0.00295797
0.00296395
0.00296966
0.00297498
0.00297972
0.00298334
0.00298635
0.00298885
0.0029904
0.00299064
0.00298877
0.00225434
0.00225893
0.00226361
0.0022683
0.00227295
0.00227749
0.00228185
0.00228594
0.00228966
0.0022929
0.00229519
0.00229694
0.00229807
0.00229818
0.00229665
0.00229313
0.00169099
0.00169433
0.00169773
0.00170114
0.0017045
0.00170777
0.00171088
0.00171375
0.0017163
0.00171844
0.00171984
0.00172077
0.00172104
0.00172017
0.00171782
0.00171364
0.00122531
0.00122765
0.00123004
0.00123244
0.0012348
0.00123709
0.00123925
0.00124122
0.00124294
0.00124432
0.00124516
0.00124559
0.00124535
0.00124408
0.00124157
0.00123742
0.000846047
0.000847598
0.000849189
0.000850791
0.000852376
0.000853911
0.000855358
0.000856673
0.000857802
0.000858682
0.000859178
0.000859336
0.0008589
0.000857649
0.000855381
0.000851701
0.000542267
0.000543141
0.000544053
0.000544988
0.000545929
0.000546853
0.000547734
0.000548541
0.000549236
0.000549771
0.000550064
0.000550107
0.00054971
0.000548716
0.000546938
0.000544007
0.000306878
0.000306502
0.000306171
0.000305931
0.000305776
0.000305697
0.000305685
0.000305721
0.000305777
0.00030582
0.000305806
0.000305706
0.000305444
0.000304947
0.000303986
0.000302228
0.000144563
0.000143078
0.000141418
0.000140096
0.000138951
0.000137889
0.000136927
0.000136066
0.000135276
0.000134503
0.000133571
0.000132543
0.000131518
0.000130453
0.000128787
0.000126463
1.2522e-06
1.19881e-06
1.16823e-06
1.14455e-06
1.12522e-06
1.10741e-06
1.09159e-06
1.07801e-06
1.06597e-06
1.0508e-06
1.02067e-06
9.81786e-07
1.13281e-06
9.64189e-07
9.49963e-07
9.66801e-07
0.01634
0.0163401
0.0163403
0.0163404
0.0163405
0.0163406
0.0163408
0.0163409
0.016341
0.0163411
0.0163412
0.0163414
0.0163415
0.0163416
0.0163417
0.0163418
0.016342
0.0163421
0.0163422
0.0163423
0.0163425
0.0163426
0.0163427
0.0163428
0.0163429
0.0163431
0.0163432
0.0163433
0.0163434
0.0163436
0.0163437
0.0163438
0.0163439
0.0163441
0.0163442
0.0163443
0.0163444
0.0163446
0.0163447
0.0163448
0.0163449
0.0163451
0.0163452
0.0163453
0.0163454
0.0163456
0.0163457
0.0163458
0.0163459
0.0163435
0.0163434
0.0163433
0.0163431
0.016343
0.0163428
0.0163427
0.0163426
0.0163424
0.0163422
0.0163421
0.0163419
0.0163417
0.0163415
0.0163414
0.0163412
0.016341
0.0163408
0.0163406
0.0163404
0.0163402
0.0163399
0.0163397
0.0163395
0.0163393
0.016339
0.0163388
0.0163386
0.0163383
0.0163381
0.0163378
0.0163375
0.0163373
0.016337
0.0163367
0.0163365
0.0163362
0.0163359
0.0163356
0.0163353
0.016335
0.0163347
0.0163344
0.0163341
0.0163337
0.0163334
0.0163331
0.0163327
0.0163324
0.0163283
0.0163282
0.016328
0.0163279
0.0163278
0.0163277
0.0163276
0.0163275
0.0163273
0.0163272
0.0163271
0.016327
0.0163269
0.0163268
0.0163267
0.0163265
0.0163264
0.0163263
0.0163262
0.0163261
0.016326
0.0163258
0.0163257
0.0163256
0.0163255
0.0163254
0.0163252
0.0163251
0.016325
0.0163249
0.0163248
0.0163246
0.0163245
0.0163244
0.0163243
0.0163241
0.016324
0.0163239
0.0163237
0.0163236
0.0163235
0.0163234
0.0163232
0.0163231
0.016323
0.0163228
0.0163227
0.0163225
0.0163224
0.0163223
0.0162952
0.0162953
0.0162955
0.0162957
0.0162959
0.0162959
0.0162959
0.0162958
0.0162957
0.0162956
0.0162955
0.0162954
0.0162952
0.0162951
0.0162949
0.0162947
0.0162946
0.0162944
0.0162942
0.016294
0.0162938
0.0162936
0.0162934
0.0162932
0.016293
0.0162927
0.0162925
0.0162923
0.0162921
0.0162918
0.0162916
0.0162914
0.0162911
0.0162909
0.0162907
0.0162904
0.0162902
0.01629
0.0162897
0.0162895
0.0162892
0.016289
0.0162887
0.0162885
0.0162883
0.016288
0.0162878
0.0162875
0.0162873
0.016287
0.0162594
0.0162591
0.0162589
0.0162587
0.0162585
0.0162584
0.0162583
0.0162582
0.0162581
0.0162581
0.0162582
0.0162585
0.0162587
0.016259
0.0162593
0.0162595
0.0162598
0.0162601
0.0162603
0.0162606
0.0162608
0.0162611
0.0162614
0.0162616
0.0162619
0.0162622
0.0162625
0.0162627
0.016263
0.0162633
0.0162635
0.0162638
0.0162641
0.0162642
0.0162643
0.0162642
0.0162642
0.0162641
0.016264
0.0162639
0.0162638
0.0162636
0.0162635
0.0162633
0.0162631
0.016263
0.0162628
0.0162626
0.0162624
0.0162622
0.0162183
0.0162185
0.0162188
0.0162191
0.0162195
0.0162199
0.0162202
0.0162206
0.0162209
0.0162213
0.0162217
0.016222
0.0162224
0.0162227
0.0162231
0.0162235
0.0162238
0.0162242
0.0162246
0.0162249
0.0162251
0.0162251
0.016225
0.0162249
0.0162247
0.0162246
0.0162244
0.0162242
0.0162241
0.016224
0.016224
0.0162243
0.0162246
0.016225
0.0162253
0.0162257
0.0162261
0.0162264
0.0162268
0.0162272
0.0162276
0.0162279
0.0162283
0.0162287
0.0162291
0.0162294
0.0162298
0.0162302
0.0162306
0.0162309
0.0161811
0.0161814
0.0161819
0.0161824
0.0161828
0.016183
0.016183
0.0161834
0.0161839
0.0161843
0.0161848
0.0161853
0.0161858
0.0161863
0.0161868
0.0161872
0.0161877
0.0161882
0.0161887
0.0161892
0.0161897
0.0161902
0.0161907
0.0161912
0.0161914
0.0161914
0.0161913
0.0161912
0.0161911
0.0161909
0.0161909
0.0161911
0.0161914
0.0161919
0.0161924
0.0161929
0.0161934
0.0161939
0.0161944
0.0161949
0.0161954
0.0161959
0.0161964
0.0161969
0.0161974
0.0161979
0.0161984
0.0161989
0.0161994
0.0161999
0.0161363
0.0161368
0.0161373
0.0161379
0.0161383
0.0161388
0.0161394
0.01614
0.0161406
0.0161412
0.0161419
0.0161425
0.0161431
0.0161438
0.0161444
0.016145
0.0161457
0.0161463
0.016147
0.0161476
0.0161482
0.0161489
0.0161495
0.0161502
0.0161508
0.0161515
0.0161521
0.0161528
0.0161534
0.0161541
0.0161547
0.0161554
0.0161561
0.0161567
0.0161574
0.016158
0.0161587
0.0161594
0.01616
0.0161607
0.0161614
0.016162
0.0161627
0.0161634
0.0161641
0.0161647
0.0161654
0.0161661
0.0161668
0.0161674
0.0160904
0.0160911
0.0160918
0.0160926
0.0160935
0.0160943
0.0160951
0.0160959
0.0160968
0.0160976
0.0160984
0.0160992
0.0161001
0.0161009
0.0161018
0.0161026
0.0161034
0.0161043
0.0161051
0.016106
0.0161068
0.0161076
0.0161085
0.0161093
0.0161102
0.0161111
0.0161119
0.0161128
0.0161136
0.0161145
0.0161153
0.0161162
0.0161171
0.0161179
0.0161188
0.0161197
0.0161205
0.0161214
0.0161223
0.0161232
0.016124
0.0161249
0.0161258
0.0161267
0.0161276
0.0161284
0.0161293
0.0161302
0.0161311
0.016132
0.0160375
0.0160383
0.0160394
0.0160404
0.0160415
0.0160425
0.0160436
0.0160447
0.0160457
0.0160468
0.0160479
0.016049
0.0160501
0.0160511
0.0160522
0.0160533
0.0160544
0.0160555
0.0160566
0.0160577
0.0160588
0.0160599
0.016061
0.0160621
0.0160633
0.0160644
0.0160655
0.0160666
0.0160677
0.0160689
0.01607
0.0160711
0.0160722
0.0160734
0.0160745
0.0160757
0.0160768
0.0160779
0.0160791
0.0160802
0.0160814
0.0160825
0.0160837
0.0160849
0.016086
0.0160872
0.0160883
0.0160895
0.0160907
0.0160918
0.0159745
0.0159757
0.015977
0.0159783
0.0159797
0.0159811
0.0159824
0.0159838
0.0159852
0.0159866
0.015988
0.0159894
0.0159908
0.0159922
0.0159937
0.0159951
0.0159965
0.0159979
0.0159993
0.0160008
0.0160022
0.0160037
0.0160051
0.0160066
0.016008
0.0160095
0.0160109
0.0160124
0.0160139
0.0160153
0.0160168
0.0160183
0.0160198
0.0160213
0.0160228
0.0160243
0.0160257
0.0160273
0.0160288
0.0160303
0.0160318
0.0160333
0.0160348
0.0160363
0.0160379
0.0160394
0.0160409
0.0160425
0.016044
0.0160456
0.0158992
0.0159007
0.0159024
0.0159041
0.0159059
0.0159077
0.0159095
0.0159113
0.015913
0.0159149
0.0159167
0.0159185
0.0159203
0.0159221
0.015924
0.0159258
0.0159276
0.0159295
0.0159314
0.0159332
0.0159351
0.015937
0.0159389
0.0159408
0.0159427
0.0159446
0.0159465
0.0159484
0.0159503
0.0159522
0.0159542
0.0159561
0.0159581
0.01596
0.015962
0.0159639
0.0159659
0.0159679
0.0159699
0.0159719
0.0159739
0.0159759
0.0159779
0.0159799
0.0159819
0.015984
0.015986
0.0159881
0.0159902
0.0159922
0.0158094
0.0158114
0.0158135
0.0158158
0.015818
0.0158203
0.0158226
0.0158249
0.0158272
0.0158295
0.0158318
0.0158342
0.0158365
0.0158389
0.0158413
0.0158436
0.015846
0.0158484
0.0158509
0.0158533
0.0158557
0.0158582
0.0158606
0.0158631
0.0158655
0.015868
0.0158705
0.015873
0.0158755
0.0158781
0.0158806
0.0158831
0.0158857
0.0158882
0.0158908
0.0158934
0.015896
0.0158986
0.0159013
0.0159039
0.0159066
0.0159092
0.0159119
0.0159146
0.0159173
0.01592
0.0159227
0.0159255
0.0159282
0.0159309
0.0157025
0.015705
0.0157077
0.0157106
0.0157135
0.0157164
0.0157193
0.0157222
0.0157252
0.0157281
0.0157311
0.0157341
0.0157371
0.0157402
0.0157432
0.0157463
0.0157494
0.0157525
0.0157556
0.0157587
0.0157619
0.015765
0.0157682
0.0157714
0.0157746
0.0157778
0.0157811
0.0157843
0.0157876
0.0157909
0.0157942
0.0157975
0.0158009
0.0158043
0.0158077
0.0158111
0.0158146
0.015818
0.0158215
0.015825
0.0158285
0.0158321
0.0158356
0.0158392
0.0158427
0.0158463
0.0158499
0.0158536
0.0158572
0.0158608
0.0155747
0.0155778
0.0155812
0.0155848
0.0155884
0.0155921
0.0155958
0.0155995
0.0156032
0.015607
0.0156108
0.0156146
0.0156184
0.0156223
0.0156262
0.0156301
0.0156341
0.015638
0.015642
0.0156461
0.0156501
0.0156542
0.0156583
0.0156624
0.0156666
0.0156708
0.015675
0.0156792
0.0156835
0.0156878
0.0156921
0.0156965
0.0157009
0.0157054
0.0157099
0.0157144
0.0157189
0.0157235
0.0157281
0.0157327
0.0157373
0.015742
0.0157467
0.0157514
0.0157561
0.0157609
0.0157657
0.0157705
0.0157753
0.0157801
0.0154206
0.0154245
0.0154288
0.0154332
0.0154377
0.0154423
0.0154469
0.0154516
0.0154562
0.015461
0.0154657
0.0154706
0.0154754
0.0154803
0.0154853
0.0154902
0.0154953
0.0155003
0.0155054
0.0155106
0.0155158
0.015521
0.0155263
0.0155316
0.015537
0.0155424
0.0155478
0.0155533
0.0155589
0.0155645
0.0155702
0.015576
0.0155818
0.0155876
0.0155935
0.0155994
0.0156054
0.0156114
0.0156175
0.0156236
0.0156297
0.0156359
0.0156421
0.0156484
0.0156547
0.015661
0.0156674
0.0156737
0.0156801
0.0156865
0.0152348
0.0152395
0.0152448
0.0152503
0.0152559
0.0152615
0.0152672
0.0152729
0.0152788
0.0152847
0.0152906
0.0152966
0.0153027
0.0153089
0.0153151
0.0153214
0.0153278
0.0153342
0.0153407
0.0153472
0.0153539
0.0153606
0.0153673
0.0153742
0.0153811
0.015388
0.0153951
0.0154023
0.0154095
0.0154169
0.0154243
0.0154318
0.0154394
0.0154471
0.0154548
0.0154627
0.0154705
0.0154785
0.0154865
0.0154946
0.0155028
0.015511
0.0155192
0.0155276
0.0155359
0.0155444
0.0155528
0.0155613
0.0155699
0.0155784
0.01501
0.0150157
0.0150221
0.0150286
0.0150354
0.0150422
0.0150491
0.0150562
0.0150633
0.0150706
0.0150779
0.0150854
0.0150929
0.0151006
0.0151084
0.0151163
0.0151243
0.0151323
0.0151405
0.0151489
0.0151573
0.0151658
0.0151744
0.0151832
0.015192
0.015201
0.0152102
0.0152194
0.0152289
0.0152384
0.0152481
0.015258
0.0152679
0.015278
0.0152882
0.0152985
0.0153089
0.0153194
0.0153301
0.0153408
0.0153516
0.0153626
0.0153736
0.0153847
0.0153958
0.0154071
0.0154184
0.0154297
0.0154412
0.0154526
0.0147378
0.0147445
0.0147519
0.0147597
0.0147677
0.0147758
0.0147841
0.0147925
0.0148011
0.0148099
0.0148189
0.014828
0.0148373
0.0148467
0.0148563
0.0148661
0.014876
0.0148861
0.0148964
0.0149069
0.0149175
0.0149283
0.0149392
0.0149504
0.0149617
0.0149732
0.014985
0.014997
0.0150092
0.0150216
0.0150343
0.0150471
0.0150602
0.0150734
0.0150868
0.0151004
0.0151142
0.0151282
0.0151423
0.0151566
0.0151711
0.0151856
0.0152003
0.0152152
0.0152301
0.0152452
0.0152603
0.0152756
0.0152909
0.0153062
0.0144086
0.0144161
0.0144246
0.0144335
0.0144426
0.014452
0.0144617
0.0144716
0.0144818
0.0144922
0.0145029
0.0145138
0.014525
0.0145364
0.0145481
0.0145601
0.0145723
0.0145848
0.0145976
0.0146106
0.0146239
0.0146374
0.0146512
0.0146653
0.0146797
0.0146944
0.0147094
0.0147248
0.0147406
0.0147567
0.0147731
0.0147898
0.0148069
0.0148243
0.0148419
0.0148599
0.0148782
0.0148967
0.0149155
0.0149346
0.0149538
0.0149733
0.0149931
0.015013
0.015033
0.0150533
0.0150736
0.0150941
0.0151147
0.0151354
0.0140123
0.0140204
0.0140296
0.0140393
0.0140494
0.0140599
0.0140708
0.014082
0.0140936
0.0141057
0.0141181
0.0141309
0.0141441
0.0141576
0.0141716
0.014186
0.0142008
0.014216
0.0142316
0.0142476
0.014264
0.0142807
0.0142979
0.0143155
0.0143336
0.0143521
0.0143712
0.0143908
0.014411
0.0144317
0.0144529
0.0144746
0.0144968
0.0145195
0.0145427
0.0145664
0.0145906
0.0146152
0.0146402
0.0146656
0.0146913
0.0147175
0.0147439
0.0147706
0.0147976
0.0148249
0.0148523
0.0148799
0.0149077
0.0149355
0.0135398
0.0135478
0.0135571
0.013567
0.0135775
0.0135886
0.0136002
0.0136124
0.0136251
0.0136384
0.0136524
0.0136668
0.0136819
0.0136976
0.0137138
0.0137306
0.0137481
0.0137661
0.0137848
0.013804
0.0138239
0.0138443
0.0138654
0.0138871
0.0139094
0.0139324
0.0139562
0.0139809
0.0140063
0.0140326
0.0140597
0.0140876
0.0141163
0.0141458
0.0141761
0.0142072
0.014239
0.0142715
0.0143047
0.0143386
0.014373
0.014408
0.0144435
0.0144795
0.0145159
0.0145526
0.0145897
0.014627
0.0146644
0.014702
0.0129846
0.0129915
0.0129998
0.0130089
0.0130188
0.0130295
0.0130411
0.0130534
0.0130665
0.0130805
0.0130953
0.0131109
0.0131273
0.0131446
0.0131627
0.0131817
0.0132015
0.0132223
0.0132439
0.0132663
0.0132897
0.013314
0.0133392
0.0133653
0.0133922
0.0134201
0.0134492
0.0134794
0.0135109
0.0135437
0.0135777
0.013613
0.0136496
0.0136875
0.0137266
0.0137669
0.0138084
0.0138511
0.013895
0.0139398
0.0139857
0.0140325
0.0140801
0.0141285
0.0141775
0.0142271
0.0142772
0.0143276
0.0143782
0.014429
0.0123464
0.0123506
0.0123563
0.0123631
0.0123711
0.0123801
0.0123902
0.0124014
0.0124138
0.0124272
0.0124417
0.0124574
0.0124742
0.0124921
0.0125112
0.0125315
0.0125529
0.0125756
0.0125995
0.0126246
0.012651
0.0126786
0.0127076
0.0127379
0.0127696
0.0128022
0.0128365
0.0128724
0.0129102
0.0129499
0.0129915
0.013035
0.0130805
0.013128
0.0131775
0.0132289
0.0132824
0.0133377
0.0133948
0.0134538
0.0135144
0.0135765
0.01364
0.0137048
0.0137707
0.0138374
0.0139049
0.0139729
0.0140413
0.0141098
0.0116337
0.0116338
0.0116352
0.011638
0.0116421
0.0116475
0.0116545
0.0116629
0.0116727
0.0116839
0.0116966
0.0117107
0.0117262
0.0117432
0.0117616
0.0117816
0.0118031
0.0118262
0.0118509
0.0118772
0.0119053
0.011935
0.0119666
0.012
0.0120353
0.0120721
0.0121106
0.0121514
0.0121948
0.0122408
0.0122896
0.0123413
0.0123959
0.0124536
0.0125143
0.0125782
0.0126451
0.0127152
0.0127882
0.0128642
0.012943
0.0130244
0.0131082
0.0131942
0.013282
0.0133713
0.0134619
0.0135534
0.0136453
0.0137375
0.0108715
0.0108654
0.0108606
0.0108574
0.0108559
0.0108561
0.0108577
0.010861
0.010866
0.0108727
0.0108811
0.0108912
0.0109031
0.0109167
0.010932
0.0109492
0.0109682
0.0109892
0.0110121
0.0110371
0.0110643
0.0110936
0.0111253
0.0111594
0.011196
0.0112353
0.011276
0.0113194
0.0113661
0.0114165
0.0114706
0.0115288
0.0115911
0.0116579
0.0117293
0.0118054
0.0118863
0.011972
0.0120626
0.0121579
0.0122579
0.0123622
0.0124706
0.0125828
0.0126982
0.0128163
0.0129367
0.0130587
0.0131816
0.013305
0.0101211
0.0101078
0.010095
0.0100835
0.0100733
0.0100644
0.0100573
0.0100523
0.0100497
0.010049
0.01005
0.0100526
0.0100569
0.010063
0.010071
0.0100811
0.0100933
0.0101076
0.0101242
0.0101432
0.0101647
0.0101889
0.010216
0.0102461
0.0102794
0.0103161
0.0103564
0.0103985
0.0104443
0.0104947
0.0105499
0.0106105
0.0106769
0.0107493
0.0108282
0.0109138
0.0110066
0.0111066
0.011214
0.0113289
0.0114513
0.0115807
0.0117171
0.0118598
0.0120081
0.0121615
0.0123189
0.0124793
0.0126418
0.0128051
0.00951405
0.00949933
0.00948592
0.00947511
0.00946182
0.00943777
0.00940658
0.00937788
0.00935731
0.00934511
0.00933514
0.00932598
0.00931767
0.00931034
0.00930411
0.00929914
0.00929591
0.00929487
0.00929606
0.00929967
0.00930599
0.00931529
0.00932779
0.00934378
0.0093636
0.00938765
0.00941635
0.00944971
0.00948585
0.00952706
0.00957435
0.00962854
0.0096904
0.00976053
0.00983942
0.00992762
0.0100257
0.0101344
0.0102541
0.0103851
0.0105276
0.0106814
0.0108462
0.0110216
0.0112066
0.0114003
0.0116014
0.0118083
0.0120194
0.0122327
0.00920719
0.00918076
0.00914983
0.00911497
0.0090789
0.0090448
0.00901819
0.00900619
0.00899413
0.00897823
0.00895935
0.00893867
0.00891718
0.00889568
0.00887493
0.0088556
0.00883565
0.00881359
0.00878985
0.00876567
0.00874279
0.00872158
0.00870228
0.00868514
0.00867047
0.0086588
0.00865121
0.00864859
0.00865044
0.00865593
0.0086683
0.00869002
0.00872417
0.00877288
0.00883511
0.00890988
0.0089979
0.00910061
0.00921955
0.00935583
0.00950985
0.00968129
0.00987016
0.0100759
0.0102977
0.0105341
0.0107833
0.0110433
0.0113114
0.0115849
0.00916063
0.00914582
0.0091265
0.00910471
0.00908114
0.00905626
0.00902999
0.00900201
0.0089707
0.00893571
0.00889732
0.00885588
0.00881163
0.00876477
0.00871544
0.0086637
0.00860957
0.00855329
0.00849544
0.00843669
0.00837811
0.00832083
0.00826576
0.00821386
0.00816602
0.00812241
0.00808163
0.0080451
0.00801498
0.00799108
0.00797216
0.00796019
0.00795643
0.00796212
0.00797857
0.00800712
0.00804998
0.00811049
0.0081944
0.00830709
0.00845149
0.0086222
0.00882061
0.00904669
0.00929847
0.00957437
0.00987196
0.0101884
0.01052
0.0108627
0.00931895
0.00931357
0.00930412
0.00929113
0.00927455
0.00925419
0.00922974
0.00920087
0.00916725
0.00912877
0.00908538
0.00903704
0.00898371
0.00892532
0.00886183
0.00879325
0.00871961
0.00864119
0.00855831
0.00847123
0.00838031
0.00828603
0.00818898
0.00808994
0.00798977
0.00788943
0.0077901
0.00769359
0.0076026
0.00752048
0.00744879
0.00738666
0.00733328
0.00728831
0.00725506
0.00723752
0.00723821
0.00725901
0.00730274
0.00736658
0.00746176
0.00758807
0.00775869
0.00798047
0.00824324
0.00854637
0.00888506
0.00925567
0.00965308
0.0100713
0.00951146
0.00951928
0.00952392
0.00952475
0.00952201
0.00951512
0.0095038
0.00948783
0.00946698
0.00944102
0.00940973
0.00937287
0.00933015
0.0092813
0.00922602
0.00916402
0.00909501
0.0090187
0.00893477
0.0088429
0.00874278
0.0086342
0.00851701
0.0083912
0.00825697
0.00811478
0.00796553
0.00781064
0.00765223
0.00749282
0.00733559
0.00718406
0.00704061
0.00690514
0.006784
0.00668237
0.00660449
0.00655247
0.00652757
0.00653452
0.00657867
0.00666343
0.00678651
0.00696049
0.00718958
0.00749249
0.00785246
0.00826597
0.00872502
0.00922067
0.00959767
0.00961745
0.00963565
0.0096513
0.00966406
0.00967359
0.00967963
0.00968194
0.00968024
0.00967427
0.00966374
0.00964831
0.00962756
0.00960105
0.00956831
0.00952898
0.00948247
0.00942829
0.00936578
0.0092943
0.00921307
0.00912127
0.00901821
0.00890302
0.00877482
0.00863278
0.00847621
0.0083046
0.0081177
0.00791582
0.00770011
0.00747298
0.0072385
0.00700601
0.00677906
0.00656113
0.00635738
0.00617394
0.00602095
0.00591245
0.00585527
0.00585417
0.00591314
0.00603504
0.00622195
0.00647961
0.00681904
0.00724953
0.00775648
0.0083252
0.00948315
0.00951054
0.00953835
0.00956525
0.00959075
0.00961454
0.00963632
0.00965581
0.00967268
0.00968655
0.00969706
0.00970381
0.00970639
0.0097043
0.00969706
0.00968419
0.00966515
0.00963933
0.0096059
0.00956429
0.00951375
0.00945275
0.00938054
0.00929616
0.00919821
0.00908498
0.00895529
0.00880759
0.00864021
0.00845141
0.00823962
0.00800355
0.00774252
0.00745708
0.00715507
0.00684563
0.00653322
0.00622664
0.00593757
0.00567922
0.00546444
0.00530607
0.00522697
0.0052387
0.00534927
0.00555091
0.00584927
0.00624765
0.00677415
0.00740277
0.00913328
0.00916409
0.0091974
0.00923159
0.00926601
0.00930023
0.00933389
0.00936664
0.0093981
0.0094279
0.00945565
0.00948094
0.00950334
0.00952236
0.00953748
0.00954812
0.00955387
0.00955444
0.00954855
0.00953592
0.00951553
0.00948601
0.00944612
0.00939487
0.00933117
0.00925307
0.00915926
0.00904811
0.00891767
0.00876559
0.00858955
0.00838726
0.00815621
0.00789392
0.0075981
0.00726841
0.00691376
0.00653874
0.00615302
0.0057708
0.00541052
0.0050942
0.00484629
0.00468864
0.00464231
0.00472956
0.00495896
0.00531481
0.0058108
0.00647418
0.00855589
0.0085873
0.00862323
0.00866171
0.00870186
0.00874315
0.00878511
0.00882734
0.00886946
0.00891107
0.00895178
0.0089912
0.00902889
0.0090644
0.00909726
0.00912696
0.00915303
0.00917489
0.00919168
0.00920271
0.0092074
0.00920448
0.00919205
0.00917006
0.00913678
0.00909064
0.00903016
0.00895417
0.00886108
0.00874804
0.00861251
0.0084525
0.00826545
0.00804863
0.00779918
0.00751408
0.00718965
0.00682786
0.00643118
0.00600589
0.00556459
0.00512845
0.0047275
0.00439756
0.00417593
0.0040958
0.00418321
0.00446119
0.00490556
0.00556244
0.00778104
0.00781297
0.00785038
0.0078917
0.00793574
0.00798188
0.0080296
0.00807846
0.00812808
0.00817807
0.00822806
0.00827767
0.00832649
0.00837411
0.0084201
0.00846398
0.00850527
0.00854338
0.00857759
0.00860719
0.00863139
0.00864901
0.00865915
0.0086613
0.00865338
0.00863409
0.00860257
0.00855711
0.00849625
0.00841761
0.00831914
0.00819881
0.00805436
0.00788338
0.00768331
0.00745141
0.00718471
0.00688045
0.00653392
0.00614511
0.00571615
0.00525389
0.00477583
0.00431661
0.00392763
0.00366663
0.00358506
0.00371785
0.00409041
0.00469242
0.00684962
0.00688332
0.00692248
0.0069661
0.00701301
0.00706262
0.00711434
0.00716777
0.00722251
0.00727822
0.00733456
0.0073912
0.00744777
0.0075039
0.0075592
0.00761324
0.00766557
0.00771562
0.00776279
0.00780638
0.00784562
0.00787955
0.00790729
0.00792795
0.00794041
0.00794372
0.00793633
0.00791629
0.00788303
0.00783415
0.00776806
0.00768284
0.00757656
0.00744715
0.00729247
0.00711026
0.00689825
0.00665433
0.00637619
0.00605532
0.00569074
0.00528099
0.00482565
0.00433445
0.00384316
0.00342158
0.00315593
0.00311936
0.00335729
0.00389102
0.00581739
0.00585279
0.00589281
0.00593759
0.00598586
0.00603702
0.00609052
0.00614611
0.00620338
0.00626203
0.00632181
0.00638241
0.00644353
0.00650485
0.00656603
0.00662671
0.00668646
0.00674481
0.00680121
0.00685503
0.00690556
0.00695199
0.0069935
0.00702922
0.0070581
0.00707934
0.00709166
0.00709391
0.00708453
0.00706135
0.00702366
0.00696943
0.00689714
0.00680494
0.00669108
0.00655371
0.00639104
0.00620155
0.00598418
0.00573523
0.00544572
0.0051148
0.00473709
0.00430495
0.00381775
0.00331261
0.00288811
0.00266601
0.00274664
0.00318478
0.00477055
0.00480261
0.00483916
0.0048808
0.0049261
0.00497451
0.00502553
0.00507884
0.00513416
0.00519121
0.00524987
0.00530985
0.00537093
0.00543284
0.00549534
0.00555812
0.00562083
0.00568308
0.00574441
0.00580428
0.00586206
0.00591705
0.00596851
0.00601567
0.00605762
0.00609351
0.00612225
0.00614282
0.00615391
0.00615419
0.00614189
0.00611546
0.00607395
0.00601551
0.00593879
0.0058422
0.00572431
0.00558391
0.0054204
0.00523413
0.00501569
0.00476259
0.0044712
0.00413327
0.00373047
0.00325049
0.00274423
0.00235394
0.00224516
0.00254265
0.00381123
0.00383287
0.00386015
0.00389267
0.00392906
0.00396873
0.00401117
0.00405609
0.00410323
0.0041524
0.00420347
0.00425625
0.00431058
0.00436629
0.0044232
0.00448115
0.00453987
0.00459909
0.00465848
0.00471764
0.00477609
0.00483327
0.00488857
0.00494135
0.00499088
0.00503641
0.00507698
0.0051116
0.00513926
0.00515865
0.00516838
0.00516736
0.00515376
0.00512615
0.00508363
0.00502472
0.00494822
0.00485302
0.00473866
0.00460547
0.00445156
0.00426859
0.00405552
0.00381
0.00351387
0.00313507
0.00265616
0.00216256
0.00187807
0.00199205
0.00298413
0.00299619
0.00301408
0.00303673
0.00306297
0.0030922
0.00312398
0.00315801
0.00319409
0.00323206
0.00327179
0.00331316
0.00335605
0.00340033
0.00344592
0.00349271
0.00354054
0.00358929
0.00363876
0.00368874
0.00373895
0.00378907
0.0038387
0.00388747
0.00393493
0.00398056
0.00402371
0.00406357
0.00409944
0.00413019
0.00415482
0.00417206
0.00418058
0.00417933
0.00416677
0.00414158
0.00410288
0.00404927
0.00398014
0.00389557
0.00379646
0.00367535
0.0035325
0.00336812
0.00316965
0.00290873
0.00254001
0.00204357
0.00162352
0.00155489
0.00228674
0.00229241
0.00230338
0.00231838
0.00233647
0.0023571
0.00237987
0.00240452
0.00243089
0.00245885
0.00248828
0.00251907
0.0025511
0.00258429
0.00261856
0.0026538
0.00268992
0.00272683
0.00276436
0.00280237
0.00284068
0.00287908
0.00291727
0.00295503
0.00299216
0.0030284
0.00306342
0.0030968
0.00312836
0.00315722
0.00318309
0.00320529
0.003223
0.00323548
0.0032416
0.00324037
0.00323059
0.00321093
0.00318048
0.0031388
0.00308687
0.00301993
0.00293759
0.00284104
0.0027241
0.00257201
0.00233856
0.00193799
0.00145727
0.00122892
0.00170675
0.00170855
0.00171482
0.00172434
0.00173639
0.0017505
0.00176632
0.00178365
0.00180235
0.00182234
0.00184349
0.00186572
0.00188893
0.00191304
0.00193798
0.00196368
0.00199004
0.00201701
0.00204444