/*--------------------------------*- C++ -*----------------------------------*\
  =========                 |
  \\      /  F ield         | OpenFOAM: The Open Source CFD Toolbox
   \\    /   O peration     | Website:  https://openfoam.org
    \\  /    A nd           | Version:  9
     \\/     M anipulation  |
\*---------------------------------------------------------------------------*/
FoamFile
{
    format      ascii;
    class       volScalarField;
    location    "0.0075";
    object      nut;
}
// * * * * * * * * * * * * * * * * * * * * * * * * * * * * * * * * * * * * * //

dimensions      [0 2 -1 0 0 0 0];

internalField   nonuniform List<scalar> 
6127
(
1.42735e-07
2.27084e-07
4.51375e-07
5.30171e-07
7.39097e-07
1.37827e-06
4.47841e-07
5.55301e-07
9.7033e-07
1.00694e-06
6.91323e-07
1.06069e-06
2.137e-06
1.28676e-06
1.37462e-06
3.56781e-06
2.1417e-06
1.71607e-06
4.77674e-06
2.93124e-06
2.00912e-06
5.20425e-06
3.25704e-06
1.96783e-06
4.49997e-06
2.83199e-06
1.56554e-06
3.1541e-06
1.97836e-06
1.06733e-06
1.77452e-06
1.1307e-06
6.66126e-07
8.08829e-07
5.9269e-07
4.40102e-07
3.94632e-07
4.94166e-07
4.04496e-07
4.67398e-07
6.59398e-07
7.1306e-07
1.42449e-07
2.1309e-07
4.49064e-07
0.0140613
0.0141046
0.0140644
0.0140223
0.0140091
0.0139695
0.0139686
0.0139531
0.0139373
0.0139031
0.0138483
0.0138083
0.0137671
0.0141113
0.0141052
0.0140673
0.0140268
0.0140017
0.0139643
0.0139559
0.0139219
0.0139156
0.0138833
0.0138451
0.0138006
0.013755
0.0137105
0.0136698
0.0136311
0.0135927
0.0135538
0.0135134
0.013471
0.0134261
0.0133782
0.0133269
0.0132719
0.0132128
0.0131492
0.0130808
0.0130075
0.0129291
0.0128457
0.0127576
0.0126651
0.0125691
0.0124704
0.0123705
0.0122709
0.0121732
0.0120794
0.0119912
0.0119102
0.0118377
0.0117748
0.0117223
0.0116805
0.0116495
0.0116291
0.0116188
0.0116178
0.0116251
0.0116399
0.0116614
0.0116885
0.0117207
0.0117572
0.0117974
0.0118408
0.0118872
0.0119362
0.0119877
0.0120414
0.0141108
0.0141091
0.0140738
0.0140288
0.0140048
0.0139637
0.0139567
0.01392
0.0139164
0.0138809
0.0138412
0.0137941
0.0137463
0.0136999
0.0136585
0.0136187
0.0135788
0.0135378
0.0134948
0.0134492
0.0134004
0.0133478
0.0132911
0.0132295
0.0131627
0.0130902
0.0130115
0.0129262
0.0128343
0.0127355
0.0126304
0.0125193
0.0124035
0.0122842
0.0121636
0.0120442
0.0119287
0.0118203
0.0117219
0.0116363
0.0115657
0.0115111
0.0114734
0.0114525
0.0114492
0.0114609
0.0114868
0.0115251
0.0115739
0.0116315
0.0116962
0.0117664
0.011841
0.0119187
0.0119986
0.0120798
0.0121619
0.0122445
0.0123272
0.0124098
0.0141109
0.0141123
0.0140782
0.0140325
0.0140071
0.0139657
0.0139591
0.0139219
0.0139176
0.0138793
0.0138384
0.0137892
0.0137406
0.0136951
0.0136536
0.0136131
0.0135718
0.0135289
0.0134834
0.0134346
0.013382
0.0133249
0.0132625
0.0131943
0.0131197
0.0130378
0.0129481
0.0128501
0.0127434
0.0126278
0.0125037
0.0123719
0.0122337
0.0120915
0.0119481
0.0118076
0.0116745
0.011554
0.0114508
0.0113684
0.0113097
0.0112765
0.0112697
0.0112885
0.0113306
0.0113932
0.0114731
0.0115669
0.0116711
0.0117828
0.011899
0.0120173
0.0121359
0.0122532
0.0123682
0.0124801
0.0125886
0.0126935
0.0127946
0.0128921
0.014113
0.0141155
0.0140819
0.0140359
0.0140092
0.0139674
0.0139602
0.0139241
0.0139188
0.0138779
0.013836
0.0137848
0.0137358
0.0136917
0.0136502
0.0136088
0.0135662
0.0135214
0.0134735
0.0134217
0.0133654
0.0133036
0.0132358
0.013161
0.0130783
0.0129869
0.0128859
0.0127745
0.0126522
0.0125187
0.0123742
0.0122198
0.0120574
0.0118901
0.0117226
0.0115607
0.0114118
0.0112838
0.0111834
0.011116
0.0110854
0.0110937
0.0111396
0.0112196
0.0113287
0.0114613
0.0116111
0.0117722
0.0119393
0.0121077
0.012274
0.0124352
0.0125895
0.0127356
0.0128728
0.0130008
0.0131198
0.01323
0.013332
0.0134263
0.0141124
0.014121
0.014085
0.0140393
0.0140112
0.0139687
0.0139611
0.0139264
0.0139199
0.0138767
0.013834
0.0137813
0.0137331
0.0136898
0.013648
0.0136058
0.0135619
0.0135153
0.0134651
0.0134105
0.0133505
0.0132844
0.0132112
0.0131298
0.0130392
0.0129382
0.0128256
0.0127005
0.0125618
0.0124094
0.0122432
0.0120645
0.011876
0.0116819
0.0114891
0.0113063
0.0111448
0.0110165
0.0109302
0.0108941
0.010913
0.0109855
0.0111069
0.0112691
0.0114624
0.0116763
0.011901
0.0121282
0.0123511
0.0125644
0.0127647
0.0129499
0.0131187
0.013271
0.0134071
0.0135277
0.013634
0.0137272
0.0138084
0.0138792
0.0141107
0.0141235
0.0140875
0.0140422
0.0140132
0.0139694
0.013962
0.0139289
0.013921
0.0138759
0.0138325
0.0137789
0.0137322
0.013689
0.0136468
0.0136038
0.0135587
0.0135105
0.0134582
0.0134009
0.0133375
0.0132672
0.0131888
0.013101
0.0130026
0.012892
0.0127679
0.0126287
0.0124734
0.0123012
0.0121122
0.0119079
0.0116917
0.0114696
0.0112507
0.0110482
0.0108791
0.0107586
0.0107013
0.0107174
0.0108082
0.0109679
0.0111849
0.0114435
0.0117271
0.0120202
0.0123102
0.0125871
0.0128442
0.0130774
0.0132847
0.0134657
0.013621
0.0137521
0.013861
0.0139499
0.014021
0.0140766
0.0141187
0.0141493
0.0141083
0.014125
0.0140887
0.0140455
0.0140151
0.0139697
0.0139627
0.0139315
0.0139221
0.0138754
0.0138314
0.013778
0.0137322
0.0136889
0.0136464
0.0136027
0.0135566
0.0135069
0.0134527
0.0133928
0.0133263
0.013252
0.0131686
0.0130747
0.0129687
0.0128488
0.0127132
0.0125601
0.0123878
0.0121954
0.0119829
0.0117519
0.0115069
0.0112553
0.01101
0.0107893
0.0106178
0.0105161
0.0105067
0.0105959
0.0107812
0.0110476
0.0113721
0.0117292
0.0120952
0.012451
0.0127825
0.0130809
0.0133415
0.0135628
0.0137457
0.0138925
0.0140065
0.0140914
0.0141509
0.0141883
0.0142072
0.0142113
0.0142036
0.0141863
0.0141055
0.0141256
0.0140891
0.0140461
0.0140169
0.0139698
0.0139635
0.0139342
0.013923
0.0138754
0.0138306
0.0137782
0.0137328
0.0136895
0.0136466
0.0136024
0.0135554
0.0135044
0.0134483
0.0133862
0.0133168
0.0132388
0.0131507
0.0130511
0.0129378
0.0128089
0.0126621
0.0124951
0.0123059
0.0120932
0.0118567
0.0115985
0.0113236
0.0110419
0.0107699
0.0105332
0.0103655
0.0102961
0.0103508
0.010535
0.0108342
0.0112186
0.011651
0.0120957
0.0125236
0.0129145
0.0132559
0.0135425
0.0137735
0.0139516
0.0140816
0.0141691
0.0142198
0.0142396
0.0142352
0.0142115
0.014173
0.0141231
0.0140648
0.0140011
0.0141024
0.0141257
0.0140889
0.0140458
0.0140202
0.0139695
0.0139642
0.0139368
0.013924
0.0138759
0.0138301
0.013779
0.0137338
0.0136905
0.0136474
0.0136027
0.0135549
0.0135027
0.0134451
0.0133809
0.0133088
0.0132275
0.0131351
0.01303
0.0129099
0.0127724
0.0126148
0.0124344
0.0122285
0.0119955
0.011735
0.0114493
0.0111441
0.0108315
0.0105328
0.0102825
0.0101246
0.0101001
0.0102377
0.0105349
0.0109605
0.0114644
0.0119939
0.0125049
0.0129663
0.0133599
0.0136781
0.013921
0.0140934
0.014203
0.0142582
0.0142687
0.0142444
0.0141932
0.014122
0.0140369
0.0139433
0.0138457
0.0137472
0.0136503
0.0140992
0.0141254
0.0140882
0.0140447
0.0140211
0.0139713
0.0139652
0.0139393
0.0139248
0.0138769
0.01383
0.01378
0.0137351
0.0136918
0.0136487
0.0136036
0.0135551
0.0135019
0.013443
0.0133769
0.0133024
0.013218
0.0131217
0.0130115
0.0128851
0.0127394
0.0125716
0.0123782
0.0121561
0.0119033
0.0116191
0.0113058
0.0109701
0.0106265
0.0103009
0.0100392
0.00989558
0.00992792
0.0101648
0.0105895
0.0111462
0.0117619
0.0123695
0.0129199
0.0133841
0.0137493
0.0140149
0.014188
0.0142798
0.0143032
0.0142722
0.0142001
0.0140984
0.0139771
0.0138454
0.0137101
0.0135764
0.0134488
0.0133293
0.0132162
0.0140959
0.0141247
0.0140873
0.0140432
0.0140211
0.0139708
0.0139664
0.0139418
0.0139256
0.0138783
0.0138302
0.0137813
0.0137366
0.0136935
0.0136503
0.0136048
0.0135558
0.0135018
0.0134417
0.013374
0.0132974
0.0132102
0.0131103
0.0129955
0.0128632
0.01271
0.0125325
0.0123267
0.0120891
0.0118171
0.0115098
0.0111694
0.0108035
0.0104288
0.0100758
0.00980226
0.00967841
0.0097778
0.0101273
0.0106881
0.0113736
0.0120869
0.0127496
0.0133121
0.0137506
0.0140609
0.0142509
0.0143353
0.0143327
0.0142624
0.0141425
0.0139895
0.013818
0.0136398
0.0134642
0.0132996
0.0131432
0.012993
0.0128482
0.0127078
0.0140927
0.0141238
0.0140861
0.0140414
0.0140207
0.0139703
0.0139675
0.0139441
0.0139263
0.0138799
0.0138307
0.0137828
0.0137383
0.0136953
0.0136521
0.0136065
0.013557
0.0135023
0.0134411
0.0133721
0.0132936
0.0132039
0.0131008
0.0129819
0.0128441
0.012684
0.0124975
0.0122801
0.0120278
0.0117374
0.0114077
0.011041
0.0106456
0.0102404
0.00985924
0.00957344
0.00947238
0.00964654
0.0101178
0.0108179
0.0116248
0.0124185
0.0131132
0.0136629
0.0140524
0.0142872
0.0143851
0.01437
0.0142676
0.0141029
0.0138998
0.0136779
0.0134536
0.0132411
0.0130379
0.0128408
0.0126483
0.0124596
0.0122748
0.012094
0.0140895
0.0141227
0.0140849
0.0140394
0.01402
0.0139703
0.0139684
0.0139464
0.013927
0.0138817
0.0138316
0.0137844
0.01374
0.0136972
0.0136541
0.0136083
0.0135585
0.0135032
0.0134412
0.013371
0.0132909
0.013199
0.0130931
0.0129704
0.0128278
0.0126613
0.0124664
0.0122382
0.0119721
0.0116643
0.0113134
0.0109213
0.0104971
0.0100623
0.00965253
0.00935297
0.00927588
0.00952923
0.0101277
0.0109662
0.011884
0.0127405
0.0134469
0.0139637
0.0142864
0.0144319
0.014428
0.0143086
0.0141069
0.0138553
0.0135816
0.0133095
0.0130497
0.0127968
0.012548
0.0123022
0.0120596
0.011821
0.011588
0.0113619
0.0140865
0.0141215
0.0140835
0.0140374
0.0140191
0.0139716
0.0139692
0.0139485
0.0139276
0.0138834
0.0138328
0.013786
0.0137418
0.0136992
0.0136562
0.0136104
0.0135603
0.0135046
0.0134418
0.0133706
0.0132891
0.0131953
0.0130869
0.012961
0.0128139
0.0126417
0.0124392
0.012201
0.011922
0.011598
0.0112269
0.0108106
0.0103589
0.00989528
0.0094568
0.00914077
0.00908608
0.00942033
0.0101479
0.0111209
0.0121387
0.0130426
0.0137442
0.014213
0.0144568
0.0145038
0.0143937
0.0141698
0.0138747
0.0135471
0.0132205
0.012905
0.0125941
0.0122848
0.0119769
0.0116717
0.011372
0.0110805
0.0108002
0.0105335
0.0140836
0.0141203
0.0140822
0.0140354
0.0140179
0.013973
0.0139699
0.0139505
0.0139281
0.0138851
0.013834
0.0137876
0.0137436
0.0137013
0.0136583
0.0136125
0.0135622
0.0135061
0.0134428
0.0133708
0.0132881
0.0131927
0.0130821
0.0129532
0.0128023
0.0126249
0.0124155
0.0121682
0.0118773
0.0115382
0.0111482
0.0107091
0.0102311
0.0097397
0.00927317
0.0089368
0.00890183
0.00931495
0.0101703
0.0112724
0.01238
0.0133191
0.0140039
0.0144147
0.0145719
0.0145157
0.0142989
0.0139744
0.0135942
0.0132059
0.0128287
0.0124536
0.012077
0.0116996
0.0113246
0.010957
0.010602
0.0102645
0.00994834
0.00965646
0.0140809
0.014119
0.0140809
0.0140337
0.0140168
0.0139742
0.0139707
0.0139523
0.0139287
0.0138868
0.0138352
0.0137891
0.0137453
0.0137033
0.0136605
0.0136147
0.0135643
0.0135079
0.0134442
0.0133714
0.0132878
0.013191
0.0130785
0.0129471
0.0127927
0.0126107
0.012395
0.0121395
0.0118378
0.0114847
0.0110771
0.0106167
0.0101138
0.00959577
0.00910175
0.00874156
0.00872181
0.00920862
0.0101878
0.0114132
0.0126025
0.0135681
0.0142285
0.0145752
0.0146415
0.014482
0.01416
0.0137398
0.0132845
0.0128423
0.0123997
0.0119516
0.0114992
0.011048
0.0106059
0.0101817
0.00978334
0.00941709
0.00908701
0.00879494
0.0140783
0.0141178
0.0140796
0.0140322
0.0140158
0.0139745
0.0139713
0.0139541
0.0139292
0.0138883
0.0138364
0.0137906
0.013747
0.0137052
0.0136626
0.0136169
0.0135664
0.0135098
0.0134457
0.0133724
0.013288
0.0131901
0.0130759
0.0129423
0.0127849
0.0125988
0.0123775
0.0121145
0.0118029
0.0114371
0.0110133
0.010533
0.0100068
0.00946347
0.00894247
0.00855678
0.0085443
0.00909794
0.0101953
0.0115382
0.012803
0.01379
0.0144224
0.0147033
0.0146777
0.0144154
0.0139921
0.0134848
0.0129701
0.0124568
0.0119347
0.0114036
0.0108703
0.0103467
0.00984603
0.00938102
0.00896151
0.00859354
0.00827915
0.00801691
0.0140759
0.0141165
0.0140784
0.0140308
0.0140149
0.0139746
0.013972
0.0139557
0.0139296
0.0138898
0.0138375
0.013792
0.0137486
0.0137071
0.0136647
0.013619
0.0135685
0.0135118
0.0134475
0.0133737
0.0132886
0.0131897
0.0130742
0.0129386
0.0127786
0.0125889
0.0123627
0.0120929
0.0117724
0.0113949
0.0109563
0.0104576
0.00990971
0.00934253
0.00879552
0.00838293
0.00836954
0.00898121
0.0101893
0.0116441
0.0129803
0.0139865
0.0145905
0.0148069
0.0146915
0.0143281
0.0138057
0.0132169
0.0126355
0.0120427
0.0114342
0.0108166
0.0102051
0.00961909
0.00907793
0.00859738
0.00818704
0.00784958
0.00758168
0.00737587
0.0140737
0.0141154
0.0140772
0.0140297
0.0140142
0.0139746
0.0139728
0.0139571
0.0139301
0.0138912
0.0138385
0.0137934
0.0137501
0.0137089
0.0136667
0.0136211
0.0135706
0.0135138
0.0134493
0.0133751
0.0132895
0.0131898
0.0130732
0.012936
0.0127737
0.0125807
0.0123502
0.0120744
0.0117459
0.0113577
0.0109055
0.0103898
0.00982189
0.00923246
0.00866084
0.00822022
0.00819857
0.00885801
0.0101681
0.0117289
0.0131342
0.0141602
0.0147373
0.0148916
0.0146901
0.0142289
0.0136131
0.0129549
0.0122924
0.0116101
0.0109096
0.0102066
0.00952572
0.00889498
0.00833914
0.00787439
0.00750575
0.00722802
0.00702904
0.00689373
0.0140719
0.0141143
0.014076
0.0140287
0.0140136
0.0139747
0.0139741
0.0139585
0.0139305
0.0138925
0.0138395
0.0137946
0.0137515
0.0137107
0.0136686
0.0136231
0.0135727
0.0135158
0.0134511
0.0133767
0.0132906
0.0131903
0.0130727
0.0129341
0.0127698
0.0125741
0.0123397
0.0120585
0.0117228
0.0113251
0.0108604
0.0103292
0.00974273
0.00913261
0.00853806
0.00806865
0.00803291
0.00872939
0.0101309
0.0117918
0.0132652
0.0143136
0.0148688
0.0149645
0.0146814
0.0141242
0.0134129
0.0126831
0.0119363
0.0111616
0.0103702
0.00958953
0.00885562
0.00820501
0.00766513
0.00724748
0.00694678
0.00674583
0.00662266
0.00655612
0.0140703
0.0141132
0.014075
0.0140278
0.014013
0.0139749
0.0139752
0.0139598
0.0139309
0.0138937
0.0138403
0.0137958
0.0137529
0.0137123
0.0136703
0.013625
0.0135746
0.0135178
0.013453
0.0133784
0.0132919
0.013191
0.0130726
0.0129328
0.0127669
0.0125688
0.0123309
0.0120451
0.0117029
0.0112965
0.0108205
0.0102751
0.00967151
0.00904223
0.00842666
0.00792813
0.00787476
0.00859708
0.010078
0.0118328
0.0133743
0.0144494
0.0149905
0.0150351
0.0146758
0.0140257
0.0132129
0.0124142
0.0115784
0.0107077
0.00982918
0.00898479
0.00822039
0.00757842
0.00708362
0.00673602
0.0065151
0.00639094
0.0063345
0.00632761
0.014069
0.0141122
0.014074
0.014027
0.0140126
0.013975
0.0139757
0.0139609
0.0139313
0.0138948
0.0138411
0.0137969
0.0137541
0.0137138
0.013672
0.0136268
0.0135765
0.0135197
0.0134548
0.0133801
0.0132933
0.013192
0.0130729
0.0129321
0.0127648
0.0125645
0.0123237
0.0120336
0.0116856
0.0112714
0.0107852
0.0102269
0.00960754
0.00896055
0.00832603
0.00779867
0.00772587
0.00846207
0.0100106
0.0118527
0.0134626
0.0145694
0.0151048
0.0151043
0.0146799
0.0139515
0.0130681
0.0121664
0.0112261
0.0102656
0.00931321
0.00841955
0.00764349
0.00703152
0.00659953
0.00632996
0.00618556
0.00612724
0.00612991
0.00615524
0.0140679
0.0141112
0.0140731
0.0140264
0.0140122
0.0139752
0.0139757
0.0139611
0.0139317
0.0138958
0.0138418
0.0137979
0.0137553
0.0137152
0.0136736
0.0136285
0.0135782
0.0135215
0.0134566
0.0133817
0.0132948
0.0131931
0.0130734
0.0129318
0.0127632
0.0125612
0.0123177
0.0120239
0.0116708
0.0112496
0.0107541
0.0101839
0.00955012
0.00888678
0.00823565
0.00768316
0.00758617
0.00832626
0.00993072
0.0118529
0.0135317
0.0146744
0.0152082
0.0151783
0.0146913
0.0138819
0.0129139
0.0119179
0.010894
0.00985056
0.00882961
0.00789785
0.00712612
0.00655984
0.00619894
0.00600484
0.00592598
0.00592755
0.00595874
0.00601093
0.0140669
0.0141104
0.0140722
0.0140258
0.0140119
0.0139754
0.0139756
0.013961
0.0139321
0.0138967
0.0138424
0.0137988
0.0137563
0.0137165
0.013675
0.0136301
0.0135799
0.0135232
0.0134583
0.0133834
0.0132962
0.0131942
0.0130741
0.0129319
0.0127622
0.0125586
0.0123128
0.0120158
0.011658
0.0112305
0.0107266
0.0101456
0.00949861
0.00882016
0.00815443
0.00758013
0.00745631
0.00819206
0.00984118
0.0118371
0.0135839
0.0147676
0.0153094
0.0152543
0.0147129
0.0138258
0.0127713
0.0116981
0.0105908
0.00946707
0.00838352
0.00742378
0.00666861
0.00615649
0.00586612
0.00573823
0.00571842
0.00574871
0.00580722
0.0058778
0.0140661
0.0141095
0.0140714
0.0140254
0.0140118
0.0139755
0.0139754
0.0139608
0.0139325
0.0138976
0.013843
0.0137997
0.0137573
0.0137177
0.0136764
0.0136316
0.0135814
0.0135248
0.0134599
0.0133849
0.0132977
0.0131954
0.013075
0.0129321
0.0127616
0.0125566
0.0123088
0.0120089
0.011647
0.0112139
0.0107024
0.0101116
0.00945241
0.00875997
0.0080811
0.00748763
0.00733724
0.00806192
0.00974451
0.0118068
0.0136204
0.0148497
0.0154069
0.0153357
0.0147484
0.0137877
0.0126586
0.0115091
0.0103203
0.00911946
0.00797872
0.0069986
0.00626694
0.00581013
0.00558349
0.00551138
0.0055301
0.00558679
0.00566308
0.00574633
0.0140654
0.0141088
0.0140707
0.014025
0.0140119
0.0139756
0.0139752
0.0139606
0.0139329
0.0138984
0.0138436
0.0138005
0.0137582
0.0137188
0.0136776
0.0136329
0.0135829
0.0135263
0.0134614
0.0133864
0.0132991
0.0131967
0.0130759
0.0129325
0.0127612
0.0125551
0.0123055
0.0120031
0.0116376
0.0111994
0.0106811
0.0100813
0.00941098
0.00870558
0.00801477
0.00740472
0.00722877
0.0079375
0.00964342
0.0117643
0.0136426
0.0149214
0.0155014
0.0154235
0.0148003
0.0137743
0.0125776
0.0113533
0.0100857
0.00881125
0.00761745
0.0066211
0.00591441
0.00550783
0.00533298
0.00530997
0.00535165
0.00542795
0.00551762
0.00561054
0.0140648
0.0141081
0.01407
0.0140246
0.0140123
0.0139755
0.0139749
0.0139602
0.0139333
0.0138991
0.013844
0.0138012
0.013759
0.0137198
0.0136788
0.0136342
0.0135842
0.0135277
0.0134628
0.0133879
0.0133005
0.0131979
0.0130768
0.0129331
0.0127611
0.012554
0.0123029
0.0119982
0.0116295
0.0111867
0.0106622
0.0100544
0.00937384
0.00865646
0.00795471
0.00733046
0.00713062
0.00782002
0.00954029
0.0117119
0.013652
0.0149834
0.0155926
0.0155171
0.0148687
0.0137876
0.0125267
0.0112316
0.00988938
0.00854499
0.00730061
0.00628866
0.00560403
0.00524002
0.00510652
0.00511658
0.00517755
0.00526735
0.00536685
0.00546736
0.0140643
0.0141075
0.0140694
0.0140243
0.0140126
0.0139753
0.0139745
0.0139599
0.0139338
0.0138998
0.0138445
0.0138019
0.0137598
0.0137208
0.0136798
0.0136353
0.0135855
0.013529
0.0134642
0.0133892
0.0133017
0.0131991
0.0130778
0.0129337
0.0127612
0.0125532
0.0123007
0.0119941
0.0116225
0.0111756
0.0106456
0.0100304
0.00934054
0.0086121
0.00790027
0.00726386
0.00704213
0.00771021
0.00943718
0.011652
0.0136503
0.0150362
0.0156801
0.0156154
0.014952
0.0138258
0.0125068
0.0111456
0.00973357
0.00832253
0.00702821
0.00599774
0.00532835
0.00499728
0.00489588
0.00492432
0.00500107
0.00510106
0.00520814
0.00531488
0.0140639
0.0141069
0.0140688
0.0140241
0.0140127
0.0139751
0.0139742
0.0139595
0.0139344
0.0139005
0.0138448
0.0138025
0.0137605
0.0137216
0.0136808
0.0136364
0.0135866
0.0135302
0.0134654
0.0133905
0.013303
0.0132002
0.0130788
0.0129344
0.0127614
0.0125526
0.012299
0.0119906
0.0116165
0.011166
0.0106309
0.010009
0.00931069
0.00857206
0.00785092
0.00720423
0.00696238
0.00760849
0.00933579
0.0115868
0.0136402
0.0150806
0.0157635
0.0157167
0.0150484
0.013888
0.0125163
0.0110953
0.00961943
0.00814528
0.00680008
0.00574508
0.00508095
0.00477145
0.00469205
0.00473349
0.00482067
0.00492755
0.00504021
0.00515202
0.0140635
0.0141064
0.0140683
0.0140238
0.0140126
0.0139748
0.0139738
0.0139591
0.0139349
0.0139011
0.0138452
0.013803
0.0137611
0.0137224
0.0136817
0.0136374
0.0135876
0.0135313
0.0134666
0.0133916
0.0133041
0.0132013
0.0130797
0.012935
0.0127617
0.0125522
0.0122976
0.0119877
0.0116113
0.0111576
0.010618
0.00999005
0.00928394
0.00853593
0.00780617
0.00715091
0.00689078
0.00751504
0.00923744
0.0115178
0.0136223
0.0151165
0.0158423
0.0158191
0.0151554
0.013971
0.012549
0.011081
0.00954814
0.00801455
0.00661632
0.0055285
0.00485781
0.00455831
0.00449234
0.00454201
0.00463505
0.00474612
0.00486249
0.00497816
0.0140632
0.0141059
0.0140678
0.0140236
0.0140125
0.0139745
0.0139735
0.0139587
0.0139354
0.0139016
0.0138455
0.0138035
0.0137617
0.0137231
0.0136825
0.0136382
0.0135886
0.0135323
0.0134676
0.0133927
0.0133052
0.0132023
0.0130806
0.0129358
0.012762
0.012552
0.0122965
0.0119852
0.0116068
0.0111502
0.0106065
0.00997313
0.00925997
0.00850336
0.00776557
0.00710329
0.00682672
0.00742979
0.00914309
0.0114466
0.0135977
0.0151443
0.015915
0.0159216
0.015271
0.0140717
0.0126014
0.011098
0.00952107
0.00793162
0.00647724
0.00534683
0.00465663
0.00435537
0.00429571
0.00434895
0.00444392
0.00455693
0.00467507
0.0047931
0.0140629
0.0141056
0.0140673
0.0140235
0.0140124
0.0139742
0.0139731
0.0139583
0.0139358
0.0139021
0.0138458
0.013804
0.0137622
0.0137238
0.0136832
0.0136391
0.0135895
0.0135332
0.0134686
0.0133937
0.0133062
0.0132033
0.0130815
0.0129364
0.0127624
0.012552
0.0122957
0.0119832
0.0116029
0.0111437
0.0105964
0.00995807
0.00923849
0.00847399
0.00772873
0.00706077
0.00676983
0.00735245
0.00905341
0.0113745
0.0135677
0.0151641
0.015979
0.0160248
0.0153929
0.0141872
0.0126671
0.0111425
0.00953588
0.00789734
0.00638301
0.00519964
0.00447691
0.00416321
0.00410068
0.0041541
0.00424751
0.00435978
0.00447819
0.00459702
0.0140627
0.0141053
0.0140669
0.0140234
0.0140122
0.0139739
0.0139728
0.0139579
0.0139363
0.0139025
0.013846
0.0138044
0.0137627
0.0137243
0.0136839
0.0136398
0.0135903
0.0135341
0.0134695
0.0133947
0.0133071
0.0132042
0.0130823
0.0129371
0.0127628
0.012552
0.012295
0.0119814
0.0115996
0.011138
0.0105874
0.00994465
0.00921924
0.00844753
0.00769529
0.00702285
0.00672131
0.00728255
0.00896881
0.0113026
0.0135336
0.0151775
0.0160391
0.0161239
0.0155188
0.0143157
0.0127398
0.011215
0.00958637
0.00790917
0.0063334
0.00508723
0.00431882
0.00398201
0.00390851
0.00395874
0.00404742
0.0041562
0.00427255
0.00439082
0.0140624
0.0141051
0.0140666
0.0140232
0.014012
0.0139736
0.0139725
0.0139576
0.0139366
0.0139029
0.0138463
0.0138048
0.0137631
0.0137249
0.0136845
0.0136405
0.013591
0.0135349
0.0134703
0.0133955
0.013308
0.013205
0.0130831
0.0129378
0.0127633
0.012552
0.0122944
0.0119799
0.0115967
0.011133
0.0105795
0.00993269
0.00920199
0.00842371
0.00766492
0.00698908
0.00667904
0.00721962
0.00888948
0.0112317
0.0134966
0.0151851
0.0160938
0.0162201
0.015647
0.0144581
0.0128437
0.0113191
0.00967174
0.00795877
0.00633001
0.00501066
0.00418338
0.00381252
0.0037213
0.00376442
0.00384596
0.00394814
0.00405966
0.00417465
0.0140623
0.0141049
0.0140662
0.0140231
0.0140118
0.0139733
0.0139722
0.0139572
0.013937
0.0139032
0.0138465
0.0138051
0.0137635
0.0137254
0.0136851
0.0136411
0.0135917
0.0135356
0.0134711
0.0133963
0.0133088
0.0132058
0.0130838
0.0129384
0.0127637
0.0125521
0.012294
0.0119787
0.0115942
0.0111286
0.0105725
0.00992202
0.00918654
0.00840225
0.00763735
0.00695906
0.00664165
0.00716307
0.00881549
0.0111627
0.0134575
0.0151876
0.016143
0.0163114
0.0157749
0.0146116
0.0129837
0.011451
0.009787
0.00804349
0.00636324
0.00497076
0.00407256
0.00365617
0.00354137
0.00357276
0.00364542
0.0037382
0.00384214
0.00395099
0.0140621
0.0141048
0.0140659
0.0140231
0.0140116
0.013973
0.0139719
0.0139569
0.0139372
0.0139034
0.0138467
0.0138054
0.0137638
0.0137258
0.0136856
0.0136416
0.0135923
0.0135362
0.0134718
0.013397
0.0133095
0.0132065
0.0130845
0.012939
0.0127641
0.0125522
0.0122937
0.0119776
0.011592
0.0111248
0.0105662
0.00991251
0.0091727
0.00838293
0.00761234
0.00693226
0.00660844
0.00711235
0.00874678
0.011096
0.0134174
0.0151863
0.016187
0.0163966
0.0158997
0.0147706
0.0131497
0.0116021
0.00992475
0.00815871
0.00643394
0.00497274
0.00398953
0.0035159
0.00337049
0.00338561
0.00344648
0.00352922
0.00362297
0.00372251
0.014062
0.0141047
0.0140657
0.014023
0.0140114
0.0139728
0.0139716
0.0139565
0.0139374
0.0139035
0.0138468
0.0138057
0.0137642
0.0137262
0.013686
0.0136422
0.0135928
0.0135368
0.0134724
0.0133977
0.0133102
0.0132072
0.0130851
0.0129395
0.0127645
0.0125524
0.0122934
0.0119767
0.01159
0.0111214
0.0105607
0.00990402
0.00916029
0.00836553
0.00758967
0.00690819
0.00657884
0.00706691
0.00868318
0.011032
0.0133768
0.0151825
0.0162265
0.0164761
0.016019
0.0149292
0.0133354
0.0117628
0.0100769
0.00829842
0.00653834
0.00500846
0.00393691
0.00339479
0.00321128
0.00320455
0.00325199
0.00332221
0.00340414
0.00349278
0.0140619
0.0141046
0.0140654
0.014023
0.0140113
0.0139725
0.0139713
0.0139562
0.0139375
0.0139036
0.013847
0.013806
0.0137645
0.0137266
0.0136865
0.0136426
0.0135933
0.0135374
0.013473
0.0133982
0.0133108
0.0132078
0.0130857
0.01294
0.0127649
0.0125525
0.0122932
0.0119759
0.0115884
0.0111184
0.0105557
0.00989644
0.00914917
0.00834987
0.00756911
0.00688532
0.00655234
0.00702625
0.0086245
0.010971
0.0133363
0.0151762
0.0162614
0.0165501
0.0161311
0.0150817
0.0135325
0.0119231
0.010236
0.00845653
0.00667298
0.00508123
0.00392031
0.00329533
0.00306652
0.00303097
0.0030646
0.00312049
0.00318824
0.00326312
0.0140618
0.0141045
0.0140652
0.0140231
0.0140111
0.0139722
0.0139711
0.013956
0.0139375
0.0139036
0.0138471
0.0138062
0.0137647
0.0137269
0.0136868
0.013643
0.0135938
0.0135379
0.0134735
0.0133988
0.0133114
0.0132084
0.0130862
0.0129405
0.0127652
0.0125527
0.0122931
0.0119752
0.0115869
0.0111157
0.0105514
0.00988966
0.0091392
0.00833576
0.00755048
0.00686391
0.00652828
0.0069899
0.00857049
0.0109131
0.0132963
0.0151677
0.0162918
0.016618
0.0162348
0.0152232
0.0137141
0.0120736
0.0103957
0.00862669
0.00683256
0.00518901
0.00393815
0.0032189
0.00293613
0.0028684
0.00288648
0.00292643
0.0029779
0.00303629
0.0140617
0.0141045
0.0140651
0.0140231
0.0140109
0.013972
0.0139709
0.0139557
0.0139375
0.0139036
0.0138472
0.0138064
0.013765
0.0137272
0.0136872
0.0136434
0.0135942
0.0135383
0.013474
0.0133993
0.0133119
0.0132089
0.0130867
0.0129409
0.0127656
0.0125529
0.0122929
0.0119746
0.0115856
0.0111133
0.0105475
0.00988361
0.00913026
0.00832306
0.00753362
0.00684445
0.00650643
0.00695742
0.0085209
0.0108585
0.0132572
0.0151575
0.016318
0.0166799
0.0163298
0.0153533
0.0138785
0.0122095
0.0105507
0.00880319
0.00701056
0.00532756
0.00398875
0.00316845
0.00282139
0.00271877
0.00271883
0.00274192
0.0027756
0.00281496
0.0140616
0.0141045
0.0140649
0.0140232
0.0140107
0.0139718
0.0139707
0.0139554
0.0139376
0.0139036
0.0138474
0.0138066
0.0137652
0.0137275
0.0136875
0.0136438
0.0135946
0.0135387
0.0134744
0.0133997
0.0133123
0.0132093
0.0130872
0.0129414
0.0127659
0.012553
0.0122929
0.0119742
0.0115845
0.0111112
0.010544
0.00987819
0.00912224
0.00831162
0.00751837
0.00682685
0.00648671
0.00692842
0.00847544
0.0108071
0.0132193
0.0151459
0.0163402
0.016736
0.0164162
0.0154721
0.0140274
0.0123278
0.0106975
0.00897837
0.00719982
0.00549117
0.00407355
0.0031501
0.00272373
0.0025851
0.00256131
0.00256846
0.00258419
0.00260346
0.0140615
0.0141045
0.0140648
0.0140231
0.0140106
0.0139716
0.0139705
0.0139552
0.0139376
0.0139035
0.0138475
0.0138068
0.0137654
0.0137277
0.0136878
0.0136441
0.0135949
0.0135391
0.0134748
0.0134002
0.0133128
0.0132098
0.0130876
0.0129417
0.0127662
0.0125532
0.0122928
0.0119737
0.0115835
0.0111094
0.0105409
0.00987334
0.00911504
0.00830132
0.00750458
0.00681095
0.00646898
0.00690252
0.00843383
0.0107591
0.0131828
0.0151333
0.0163589
0.0167871
0.0164941
0.0155803
0.0141624
0.0124308
0.0108361
0.00914747
0.00739228
0.00567267
0.00418925
0.003163
0.00264595
0.00246493
0.00241547
0.00240565
0.00240429
0.00240377
0.0140615
0.0141044
0.0140647
0.0140231
0.0140104
0.0139714
0.0139703
0.013955
0.0139376
0.0139035
0.0138476
0.0138069
0.0137655
0.013728
0.013688
0.0136443
0.0135952
0.0135394
0.0134751
0.0134005
0.0133131
0.0132101
0.013088
0.0129421
0.0127665
0.0125533
0.0122928
0.0119734
0.0115826
0.0111077
0.0105381
0.009869
0.00910858
0.00829204
0.00749212
0.0067966
0.00645309
0.00687939
0.00839581
0.0107142
0.0131478
0.0151201
0.0163746
0.0168333
0.0165642
0.0156787
0.0142854
0.0125343
0.0109673
0.00930816
0.00757977
0.00586493
0.00433028
0.00320298
0.00258743
0.00235682
0.00227939
0.00225144
0.00223259
0.00221217
0.0140614
0.0141044
0.0140647
0.0140231
0.0140103
0.0139712
0.0139701
0.0139548
0.0139375
0.0139035
0.0138476
0.0138071
0.0137657
0.0137282
0.0136882
0.0136446
0.0135955
0.0135397
0.0134755
0.0134009
0.0133135
0.0132105
0.0130883
0.0129424
0.0127667
0.0125535
0.0122927
0.011973
0.0115818
0.0111063
0.0105356
0.00986511
0.00910278
0.00828367
0.00748085
0.00678364
0.00643888
0.00685873
0.00836111
0.0106725
0.0131146
0.0151065
0.0163876
0.0168742
0.0166269
0.0157681
0.0143973
0.012641
0.0110905
0.00945877
0.00775905
0.00605714
0.00449062
0.00327163
0.00255107
0.00225981
0.00214956
0.00209743
0.0020563
0.00202281
0.0140614
0.0141044
0.0140646
0.014023
0.0140102
0.013971
0.01397
0.0139546
0.0139375
0.0139034
0.0138477
0.0138072
0.0137659
0.0137284
0.0136885
0.0136448
0.0135957
0.01354
0.0134757
0.0134012
0.0133138
0.0132108
0.0130886
0.0129427
0.012767
0.0125536
0.0122927
0.0119728
0.0115811
0.011105
0.0105334
0.00986162
0.00909757
0.00827614
0.00747067
0.00677194
0.00642621
0.00684026
0.00832946
0.0106338
0.0130832
0.0150927
0.0163978
0.0169094
0.0166831
0.0158494
0.0144999
0.0127469
0.011205
0.00959832
0.00792783
0.0062442
0.00466176
0.00336739
0.00254518
0.00217397
0.00203164
0.0019638
0.00191088
0.00185732
0.0140614
0.0141044
0.0140645
0.014023
0.0140101
0.0139709
0.0139698
0.0139545
0.0139375
0.0139034
0.0138478
0.0138073
0.013766
0.0137285
0.0136886
0.013645
0.013596
0.0135402
0.013476
0.0134014
0.0133141
0.0132111
0.0130889
0.0129429
0.0127672
0.0125538
0.0122927
0.0119725
0.0115805
0.0111038
0.0105314
0.0098585
0.00909289
0.00826934
0.00746148
0.00676139
0.00641492
0.00682375
0.00830064
0.0105981
0.0130536
0.015079
0.0164054
0.0169403
0.0167336
0.0159227
0.0145941
0.0128501
0.0113105
0.00972638
0.00808474
0.00642279
0.00483452
0.00348326
0.00256282
0.00210833
0.00193749
0.00185093
0.00178067
0.00170394
0.0140613
0.0141045
0.0140645
0.0140229
0.01401
0.0139707
0.0139697
0.0139543
0.0139375
0.0139034
0.0138478
0.0138074
0.0137661
0.0137287
0.0136888
0.0136452
0.0135962
0.0135404
0.0134762
0.0134017
0.0133144
0.0132114
0.0130892
0.0129432
0.0127674
0.0125539
0.0122927
0.0119723
0.01158
0.0111027
0.0105296
0.00985569
0.00908869
0.00826322
0.00745317
0.00675187
0.0064049
0.00680897
0.0082744
0.0105651
0.013026
0.0150656
0.016411
0.0169675
0.0167787
0.0159892
0.0146808
0.0129495
0.0114068
0.00984306
0.00822921
0.00659068
0.00500432
0.00361029
0.00260109
0.00206512
0.00185858
0.00175042
0.00166067
0.00155837
0.0140613
0.0141045
0.0140645
0.0140229
0.0140099
0.0139706
0.0139696
0.0139542
0.0139375
0.0139033
0.0138479
0.0138075
0.0137662
0.0137288
0.013689