/*--------------------------------*- C++ -*----------------------------------*\
  =========                 |
  \\      /  F ield         | OpenFOAM: The Open Source CFD Toolbox
   \\    /   O peration     | Website:  https://openfoam.org
    \\  /    A nd           | Version:  9
     \\/     M anipulation  |
\*---------------------------------------------------------------------------*/
FoamFile
{
    format      ascii;
    class       volScalarField;
    location    "0.0075";
    object      nuTilda;
}
// * * * * * * * * * * * * * * * * * * * * * * * * * * * * * * * * * * * * * //

dimensions      [0 2 -1 0 0 0 0];

internalField   nonuniform List<scalar> 
10802
(
0.0141031
0.0141162
0.0140979
0.0140838
0.0140373
0.0140017
0.0139643
0.0139354
0.0139039
0.0138662
0.0138334
0.0137969
0.0137581
0.0137171
0.0136736
0.0136278
0.0135796
0.013529
0.0134761
0.0134219
0.0133662
0.0133088
0.013249
0.0131866
0.0131213
0.0130529
0.0129813
0.0129069
0.0128297
0.0127504
0.0126694
0.0125875
0.0125055
0.0124244
0.0123452
0.0122688
0.0121962
0.012128
0.012065
0.0120075
0.011956
0.0119106
0.0118712
0.0118379
0.0118101
0.0117877
0.0117702
0.0117571
0.011748
0.0117425
0.0117401
0.0117405
0.0117433
0.011748
0.0117545
0.0117623
0.0117713
0.0117813
0.0117921
0.0118034
0.0118151
0.0118271
0.0118392
0.0118513
0.0118634
0.0118754
0.0118871
0.0118987
0.0119099
0.0119208
0.0119313
0.0119415
0.0119513
0.0119607
0.0119697
0.0119783
0.0119864
0.0119942
0.0120016
0.0120086
0.0141001
0.014115
0.0141007
0.0140842
0.0140401
0.0140015
0.0139639
0.0139374
0.0139023
0.0138626
0.0138298
0.0137916
0.0137513
0.0137084
0.0136629
0.0136147
0.0135637
0.0135099
0.0134534
0.0133955
0.0133361
0.0132742
0.0132093
0.0131407
0.0130682
0.0129916
0.0129109
0.0128262
0.0127379
0.0126465
0.0125528
0.0124578
0.0123627
0.0122688
0.0121777
0.0120905
0.0120088
0.0119337
0.011866
0.0118066
0.0117558
0.0117138
0.0116805
0.0116554
0.0116379
0.0116275
0.0116234
0.0116253
0.0116318
0.0116426
0.0116569
0.0116741
0.0116935
0.0117147
0.0117374
0.011761
0.0117853
0.0118099
0.0118348
0.0118596
0.0118843
0.0119086
0.0119325
0.0119558
0.0119785
0.0120005
0.0120217
0.0120422
0.0120618
0.0120806
0.0120986
0.0121158
0.0121322
0.0121477
0.0121625
0.0121765
0.0121897
0.0122022
0.012214
0.0122251
0.0140976
0.0141154
0.0141009
0.0140847
0.014043
0.0140008
0.0139639
0.013937
0.013903
0.0138612
0.0138276
0.0137873
0.0137454
0.0137008
0.0136533
0.0136028
0.0135494
0.0134933
0.0134349
0.0133741
0.0133112
0.013245
0.0131746
0.0130997
0.0130196
0.0129343
0.0128437
0.0127479
0.0126473
0.0125425
0.0124348
0.0123253
0.0122158
0.0121082
0.0120044
0.0119067
0.0118169
0.0117368
0.0116678
0.011611
0.0115665
0.0115342
0.0115136
0.0115039
0.0115054
0.0115154
0.0115332
0.0115577
0.0115876
0.0116218
0.0116595
0.0116997
0.0117416
0.0117846
0.0118281
0.0118717
0.011915
0.0119577
0.0119995
0.0120403
0.0120798
0.0121181
0.0121549
0.0121903
0.0122243
0.0122567
0.0122877
0.0123171
0.0123451
0.0123717
0.0123968
0.0124206
0.0124431
0.0124644
0.0124844
0.0125032
0.012521
0.0125376
0.0125533
0.012568
0.0140955
0.014116
0.0141005
0.0140852
0.0140439
0.0139999
0.0139661
0.013937
0.0139029
0.0138599
0.0138254
0.0137831
0.0137398
0.0136935
0.013644
0.0135915
0.0135358
0.0134774
0.0134168
0.0133542
0.0132879
0.0132172
0.0131412
0.0130595
0.0129716
0.0128771
0.0127759
0.0126682
0.0125544
0.0124353
0.0123123
0.0121873
0.0120624
0.0119405
0.0118243
0.0117169
0.0116213
0.0115398
0.0114745
0.0114265
0.0113955
0.0113812
0.0113838
0.0114004
0.0114298
0.0114701
0.0115193
0.0115757
0.0116375
0.0117032
0.0117713
0.0118407
0.0119104
0.0119796
0.0120477
0.0121141
0.0121786
0.0122408
0.0123006
0.0123578
0.0124124
0.0124644
0.0125138
0.0125606
0.0126049
0.0126468
0.0126863
0.0127236
0.0127587
0.0127917
0.0128227
0.0128519
0.0128792
0.0129049
0.0129289
0.0129514
0.0129725
0.0129922
0.0130106
0.0130278
0.0140941
0.0141185
0.0141
0.0140856
0.014044
0.013999
0.0139684
0.0139371
0.013903
0.0138596
0.0138237
0.0137793
0.0137348
0.0136868
0.0136357
0.0135812
0.0135236
0.0134636
0.0134018
0.0133364
0.0132664
0.0131908
0.0131091
0.0130205
0.0129244
0.0128203
0.012708
0.0125876
0.0124597
0.0123252
0.0121858
0.0120441
0.011903
0.0117663
0.0116382
0.011523
0.011425
0.0113477
0.0112931
0.0112622
0.011255
0.0112705
0.0113065
0.0113605
0.0114294
0.0115106
0.0116009
0.0116976
0.0117983
0.011901
0.0120038
0.0121053
0.0122046
0.0123008
0.0123933
0.0124818
0.0125659
0.0126457
0.0127211
0.0127922
0.012859
0.0129218
0.0129806
0.0130357
0.0130872
0.0131354
0.0131804
0.0132225
0.0132617
0.0132983
0.0133324
0.0133643
0.0133939
0.0134216
0.0134473
0.0134713
0.0134936
0.0135144
0.0135337
0.0135517
0.014094
0.0141201
0.0140994
0.0140861
0.014044
0.0139982
0.0139693
0.0139373
0.0139032
0.0138599
0.0138222
0.0137759
0.0137303
0.0136807
0.013628
0.013572
0.0135131
0.0134524
0.0133886
0.0133202
0.0132463
0.013166
0.0130784
0.0129827
0.0128782
0.0127642
0.0126404
0.0125067
0.0123638
0.0122129
0.0120562
0.0118967
0.0117387
0.0115873
0.0114484
0.0113282
0.0112325
0.0111657
0.0111298
0.0111284
0.0111567
0.0112138
0.011296
0.011399
0.0115182
0.0116491
0.0117873
0.0119294
0.012072
0.0122129
0.0123502
0.0124823
0.0126085
0.0127281
0.0128408
0.0129465
0.0130453
0.0131374
0.013223
0.0133024
0.013376
0.0134441
0.0135072
0.0135655
0.0136193
0.0136692
0.0137152
0.0137577
0.0137971
0.0138334
0.0138671
0.0138981
0.0139269
0.0139535
0.0139781
0.0140009
0.014022
0.0140415
0.0140596
0.0140763
0.0140924
0.0141209
0.0140987
0.0140866
0.014044
0.0139973
0.0139697
0.0139377
0.0139035
0.0138605
0.0138209
0.0137728
0.0137263
0.0136753
0.0136213
0.013564
0.0135047
0.013443
0.0133769
0.0133054
0.0132276
0.0131425
0.0130491
0.0129464
0.0128333
0.0127092
0.0125734
0.0124259
0.0122673
0.0120992
0.0119241
0.011746
0.0115706
0.0114048
0.0112568
0.0111354
0.0110486
0.0110003
0.0109963
0.0110336
0.0111106
0.0112224
0.0113629
0.011525
0.011702
0.0118875
0.012076
0.0122631
0.0124455
0.0126206
0.0127868
0.012943
0.0130889
0.0132241
0.013349
0.0134638
0.0135691
0.0136654
0.0137535
0.0138338
0.013907
0.0139738
0.0140346
0.01409
0.0141405
0.0141866
0.0142286
0.014267
0.014302
0.0143341
0.0143634
0.0143902
0.0144147
0.0144372
0.0144579
0.0144768
0.0144943
0.0145102
0.014525
0.0145385
0.0140904
0.0141213
0.0140978
0.0140871
0.0140439
0.0139965
0.0139699
0.0139386
0.0139039
0.0138614
0.01382
0.0137702
0.0137229
0.0136705
0.0136155
0.0135577
0.0134982
0.0134349
0.0133665
0.0132919
0.0132103
0.0131205
0.0130213
0.0129115
0.0127899
0.0126555
0.0125075
0.0123457
0.0121709
0.0119847
0.0117904
0.011593
0.0113998
0.0112201
0.0110654
0.010948
0.0108766
0.010858
0.0108955
0.0109866
0.0111255
0.011304
0.0115121
0.0117394
0.0119768
0.0122161
0.0124513
0.0126776
0.0128919
0.0130921
0.0132773
0.0134472
0.0136019
0.0137422
0.0138689
0.0139828
0.014085
0.0141766
0.0142585
0.0143317
0.0143971
0.0144555
0.0145076
0.0145542
0.0145958
0.0146331
0.0146664
0.0146962
0.014723
0.0147471
0.0147687
0.0147881
0.0148056
0.0148214
0.0148357
0.0148486
0.0148603
0.0148709
0.0148805
0.0148892
0.0140881
0.0141213
0.0140969
0.0140876
0.0140437
0.0139958
0.0139703
0.01394
0.0139044
0.0138626
0.0138192
0.0137681
0.01372
0.0136665
0.0136109
0.0135533
0.0134929
0.0134279
0.0133571
0.0132797
0.0131944
0.0131
0.0129952
0.0128784
0.0127482
0.0126034
0.012443
0.0122667
0.0120751
0.0118703
0.011656
0.0114386
0.0112274
0.0110347
0.0108759
0.0107675
0.01072
0.0107425
0.0108355
0.0109935
0.0112064
0.0114603
0.0117406
0.0120338
0.0123282
0.012615
0.0128878
0.0131424
0.0133766
0.0135893
0.0137808
0.0139517
0.0141032
0.014237
0.0143544
0.0144572
0.0145468
0.0146248
0.0146926
0.0147512
0.014802
0.0148459
0.0148837
0.0149164
0.0149445
0.0149687
0.0149895
0.0150074
0.0150228
0.015036
0.0150473
0.0150571
0.0150654
0.0150726
0.0150788
0.0150841
0.0150886
0.0150925
0.0150958
0.0150987
0.0140857
0.014121
0.0140957
0.0140879
0.0140434
0.0139959
0.0139712
0.0139419
0.013905
0.013864
0.0138188
0.0137668
0.0137177
0.0136633
0.0136077
0.01355
0.0134885
0.0134218
0.0133489
0.0132686
0.0131798
0.013081
0.0129706
0.012847
0.0127083
0.0125532
0.0123803
0.0121893
0.0119806
0.0117566
0.0115218
0.0112838
0.0110545
0.0108498
0.0106904
0.0105967
0.0105834
0.0106584
0.0108199
0.011057
0.0113525
0.0116861
0.0120382
0.0123921
0.012735
0.0130579
0.0133553
0.0136243
0.013864
0.0140752
0.0142594
0.0144185
0.0145549
0.014671
0.0147691
0.0148516
0.0149203
0.0149773
0.0150241
0.0150623
0.0150931
0.0151177
0.0151371
0.0151521
0.0151635
0.0151718
0.0151775
0.0151811
0.015183
0.0151834
0.0151827
0.0151812
0.0151791
0.0151766
0.0151736
0.0151705
0.0151672
0.0151637
0.0151603
0.0151568
0.0140831
0.0141205
0.0140944
0.0140877
0.0140431
0.0139978
0.0139732
0.013944
0.0139058
0.0138656
0.0138186
0.0137662
0.0137159
0.0136612
0.0136057
0.0135475
0.0134849
0.0134166
0.0133416
0.0132587
0.0131665
0.0130635
0.0129478
0.0128174
0.0126705
0.0125051
0.0123198
0.0121139
0.011888
0.0116445
0.0113886
0.0111296
0.0108821
0.0106666
0.0105108
0.0104379
0.0104682
0.010608
0.0108501
0.0111756
0.0115584
0.0119709
0.0123891
0.012794
0.0131727
0.0135174
0.0138243
0.0140926
0.0143234
0.0145193
0.0146834
0.014819
0.0149297
0.0150188
0.0150893
0.015144
0.0151853
0.0152156
0.0152366
0.0152501
0.0152573
0.0152592
0.015257
0.0152518
0.0152444
0.0152352
0.0152246
0.0152132
0.0152011
0.0151887
0.0151763
0.0151638
0.0151515
0.0151393
0.0151275
0.0151161
0.015105
0.0150944
0.0150843
0.0150746
0.0140805
0.0141198
0.0140929
0.0140873
0.0140427
0.013998
0.0139753
0.0139461
0.0139067
0.0138672
0.0138188
0.0137661
0.0137148
0.0136601
0.0136045
0.0135456
0.0134819
0.0134122
0.0133353
0.0132499
0.0131546
0.0130475
0.0129266
0.0127898
0.0126347
0.0124593
0.0122617
0.012041
0.0117977
0.0115345
0.0112572
0.0109769
0.010711
0.0104855
0.0103357
0.0102916
0.0103757
0.0105917
0.0109247
0.0113445
0.0118148
0.0123009
0.0127752
0.0132181
0.0136179
0.0139689
0.0142701
0.0145232
0.0147317
0.0149001
0.0150332
0.0151357
0.0152123
0.0152671
0.0153038
0.0153256
0.0153351
0.0153345
0.0153265
0.0153128
0.0152947
0.0152734
0.0152498
0.0152248
0.0151989
0.0151724
0.015146
0.0151198
0.0150941
0.0150692
0.0150451
0.015022
0.0149998
0.0149787
0.0149586
0.0149395
0.0149215
0.0149045
0.0148884
0.0148734
0.014078
0.0141189
0.0140913
0.0140866
0.0140422
0.0139975
0.0139775
0.0139481
0.0139078
0.013869
0.0138192
0.0137665
0.0137142
0.0136596
0.0136038
0.0135443
0.0134796
0.0134085
0.0133298
0.0132422
0.0131438
0.0130329
0.0129072
0.0127641
0.0126012
0.0124159
0.0122062
0.0119709
0.0117103
0.0114273
0.0111285
0.0108267
0.0105423
0.0103076
0.0101664
0.0101596
0.0103061
0.0106084
0.0110397
0.011556
0.0121099
0.0126607
0.0131785
0.0136448
0.0140505
0.0143931
0.0146746
0.0148997
0.0150744
0.0152052
0.0152986
0.0153607
0.015397
0.0154125
0.0154108
0.0153961
0.0153718
0.01534
0.0153029
0.0152622
0.0152191
0.0151749
0.0151303
0.015086
0.0150424
0.0150001
0.0149591
0.0149198
0.0148823
0.0148466
0.0148127
0.0147807
0.0147506
0.0147222
0.0146955
0.0146705
0.0146471
0.0146253
0.0146048
0.0145858
0.0140754
0.0141179
0.0140896
0.0140856
0.0140414
0.0139967
0.0139796
0.0139501
0.013909
0.0138708
0.0138199
0.0137671
0.0137141
0.0136596
0.0136035
0.0135434
0.0134779
0.0134056
0.0133252
0.0132354
0.0131343
0.0130198
0.0128894
0.0127404
0.0125699
0.0123751
0.0121536
0.0119039
0.0116262
0.0113235
0.0110031
0.0106796
0.0103768
0.0101338
0.0100056
0.010038
0.0102574
0.010655
0.0111892
0.0118007
0.0124313
0.0130354
0.0135832
0.0140586
0.0144559
0.0147767
0.0150264
0.0152129
0.0153446
0.0154302
0.0154777
0.0154944
0.0154863
0.0154593
0.0154185
0.0153674
0.015309
0.0152461
0.0151806
0.015114
0.0150476
0.0149823
0.0149188
0.0148576
0.0147991
0.0147433
0.0146905
0.0146407
0.0145939
0.0145501
0.0145091
0.0144707
0.0144347
0.014401
0.0143694
0.0143399
0.0143122
0.0142864
0.0142623
0.0142398
0.0140728
0.0141168
0.0140879
0.0140846
0.0140404
0.0139957
0.0139808
0.0139521
0.0139104
0.0138726
0.0138207
0.0137678
0.0137144
0.0136599
0.0136035
0.0135429
0.0134766
0.0134032
0.0133214
0.0132296
0.0131259
0.013008
0.0128732
0.0127185
0.0125408
0.0123368
0.0121039
0.0118402
0.0115457
0.0112235
0.0108817
0.0105363
0.0102149
0.00996389
0.00985034
0.00992948
0.0102286
0.0107276
0.0113663
0.0120687
0.0127669
0.0134125
0.0139769
0.0144479
0.0148244
0.015112
0.0153201
0.0154597
0.0155418
0.015577
0.0155738
0.015542
0.0154887
0.0154197
0.0153398
0.0152531
0.0151626
0.0150709
0.0149798
0.0148906
0.0148044
0.014722
0.0146436
0.0145699
0.0145003
0.0144345
0.0143724
0.0143138
0.0142585
0.0142063
0.0141572
0.0141109
0.0140673
0.0140264
0.0139879
0.0139518
0.0139179
0.0138863
0.0138567
0.0138292
0.0140704
0.0141157
0.0140862
0.0140834
0.0140393
0.0139948
0.0139811
0.0139539
0.0139117
0.0138744
0.0138216
0.0137687
0.0137149
0.0136603
0.0136038
0.0135428
0.0134758
0.0134014
0.0133182
0.0132246
0.0131185
0.0129975
0.0128586
0.0126986
0.0125139
0.0123012
0.0120572
0.0117799
0.011469
0.0111278
0.0107646
0.0103976
0.0100573
0.00979823
0.00970114
0.00983147
0.0102163
0.0108208
0.0115632
0.0123506
0.0131066
0.0137818
0.0143506
0.0148056
0.0151507
0.0153961
0.015555
0.0156414
0.015669
0.0156496
0.0155952
0.015515
0.0154168
0.0153068
0.0151902
0.015071
0.0149521
0.0148359
0.014724
0.0146177
0.0145168
0.0144207
0.0143293
0.0142424
0.0141597
0.0140812
0.0140067
0.0139361
0.0138693
0.0138062
0.0137467
0.0136905
0.0136376
0.0135878
0.013541
0.0134971
0.0134558
0.0134172
0.0133809
0.013347
0.0140682
0.0141145
0.0140845
0.0140821
0.0140381
0.0139942
0.0139828
0.0139557
0.013913
0.0138762
0.0138226
0.0137696
0.0137156
0.013661
0.0136043
0.0135429
0.0134753
0.0134001
0.0133157
0.0132204
0.0131121
0.0129882
0.0128454
0.0126804
0.0124893
0.0122681
0.0120136
0.0117231
0.0113964
0.0110365
0.0106524
0.0102638
0.00990459
0.00963688
0.00955739
0.00974206
0.0102168
0.0109289
0.0117726
0.012638
0.0134422
0.0141362
0.014699
0.0151284
0.0154338
0.0156301
0.0157342
0.0157636
0.0157333
0.0156591
0.015553
0.0154251
0.0152838
0.0151358
0.0149864
0.0148393
0.0146975
0.014562
0.0144321
0.0143075
0.014188
0.0140736
0.013964
0.0138593
0.0137593
0.0136642
0.0135737
0.0134878
0.0134063
0.0133293
0.0132565
0.0131879
0.0131232
0.0130623
0.0130051
0.0129514
0.012901
0.0128538
0.0128095
0.0127682
0.0140662
0.0141133
0.0140828
0.0140808
0.0140368
0.0139937
0.0139846
0.0139574
0.0139142
0.0138779
0.0138235
0.0137705
0.0137164
0.0136618
0.0136049
0.0135433
0.0134752
0.0133992
0.0133137
0.013217
0.0131067
0.01298
0.0128337
0.012664
0.0124667
0.0122376
0.011973
0.0116699
0.0113279
0.0109499
0.0105454
0.0101354
0.00975713
0.00947977
0.00941837
0.00965903
0.0102265
0.0110465
0.0119878
0.0129241
0.0137676
0.0144713
0.0150194
0.0154157
0.015675
0.015817
0.0158629
0.0158314
0.0157433
0.015614
0.0154571
0.0152838
0.015103
0.0149216
0.0147448
0.0145747
0.0144104
0.0142516
0.014098
0.0139496
0.0138066
0.013669
0.0135369
0.0134105
0.0132897
0.0131745
0.013065
0.0129611
0.0128626
0.0127696
0.0126817
0.0125989
0.012521
0.0124478
0.012379
0.0123146
0.0122542
0.0121976
0.0121447
0.0120953
0.0140644
0.0141122
0.0140812
0.0140795
0.0140355
0.0139933
0.0139854
0.0139583
0.0139154
0.0138796
0.0138245
0.0137715
0.0137173
0.0136627
0.0136058
0.0135439
0.0134754
0.0133986
0.0133122
0.0132141
0.013102
0.0129729
0.0128233
0.0126492
0.0124461
0.0122096
0.0119353
0.0116203
0.0112635
0.010868
0.0104437
0.0100127
0.00961528
0.0093267
0.00928262
0.00958003
0.0102414
0.0111684
0.012203
0.0132037
0.0140789
0.0147848
0.0153114
0.0156688
0.0158774
0.0159617
0.0159454
0.0158537
0.0157075
0.0155243
0.015319
0.0151037
0.0148877
0.014679
0.014476
0.0142782
0.0140853
0.0138973
0.0137146
0.0135376
0.0133664
0.0132016
0.0130433
0.0128919
0.0127473
0.0126097
0.012479
0.0123553
0.0122383
0.012128
0.012024
0.0119263
0.0118345
0.0117484
0.0116678
0.0115923
0.0115217
0.0114558
0.0113942
0.0113368
0.0140628
0.014111
0.0140797
0.0140781
0.0140342
0.0139931
0.0139855
0.0139586
0.0139166
0.0138813
0.0138254
0.0137725
0.0137182
0.0136636
0.0136067
0.0135447
0.0134758
0.0133984
0.0133112
0.0132119
0.0130981
0.0129667
0.0128141
0.0126359
0.0124275
0.0121839
0.0119006
0.0115741
0.0112033
0.010791
0.0103474
0.00989596
0.00947937
0.00917755
0.00915043
0.00950314
0.0102579
0.01129
0.0124138
0.013473
0.0143736
0.015076
0.0155763
0.0158909
0.0160457
0.0160699
0.0159918
0.0158396
0.015636
0.015401
0.0151507
0.0148982
0.0146535
0.0144135
0.0141775
0.0139456
0.013718
0.0134954
0.0132787
0.0130684
0.0128652
0.0126698
0.0124825
0.0123037
0.0121334
0.0119719
0.011819
0.0116747
0.0115387
0.0114108
0.0112908
0.0111784
0.0110731
0.0109747
0.0108828
0.0107971
0.0107172
0.0106427
0.0105733
0.0105088
0.0140613
0.0141098
0.0140782
0.0140768
0.0140331
0.0139931
0.0139854
0.0139585
0.0139177
0.0138829
0.0138262
0.0137735
0.0137191
0.0136646
0.0136077
0.0135456
0.0134763
0.0133985
0.0133105
0.0132102
0.0130949
0.0129614
0.012806
0.0126241
0.0124106
0.0121605
0.0118687
0.0115314
0.0111472
0.0107188
0.0102567
0.00978528
0.00934976
0.00903335
0.00902075
0.00942627
0.0102728
0.0114075
0.0126164
0.0137293
0.0146508
0.0153457
0.0158164
0.0160858
0.0161857
0.0161477
0.0160078
0.0157957
0.0155365
0.0152521
0.0149599
0.0146773
0.0143976
0.01412
0.013845
0.0135731
0.0133057
0.0130439
0.0127889
0.012542
0.012304
0.0120757
0.0118577
0.0116503
0.0114538
0.0112681
0.0110933
0.0109289
0.0107749
0.0106308
0.0104961
0.0103705
0.0102535
0.0101447
0.0100434
0.00994935
0.00986201
0.00978096
0.00970578
0.00963607
0.01406
0.0141087
0.0140767
0.0140754
0.014032
0.0139938
0.0139852
0.0139583
0.0139188
0.0138844
0.0138271
0.0137745
0.01372
0.0136657
0.0136088
0.0135466
0.0134771
0.0133988
0.0133102
0.0132089
0.0130922
0.0129569
0.012799
0.0126136
0.0123955
0.0121392
0.0118393
0.0114918
0.0110949
0.0106513
0.0101715
0.00968071
0.00922664
0.00889497
0.00889253
0.00934774
0.0102834
0.0115178
0.0128082
0.0139712
0.0149103
0.015595
0.0160341
0.0162566
0.0162996
0.016201
0.0160001
0.0157297
0.0154186
0.0150906
0.0147657
0.0144427
0.0141202
0.0137983
0.0134781
0.0131611
0.0128492
0.0125442
0.012248
0.0119621
0.0116876
0.0114255
0.0111765
0.010941
0.0107192
0.0105109
0.0103159
0.0101339
0.00996445
0.00980689
0.00966068
0.00952518
0.00939975
0.00928376
0.00917656
0.00907756
0.00898616
0.00890181
0.00882398
0.00875218
0.0140589
0.0141076
0.0140754
0.0140741
0.0140309
0.0139947
0.0139849
0.013958
0.0139199
0.0138858
0.0138279
0.0137755
0.013721
0.0136668
0.01361
0.0135476
0.0134779
0.0133993
0.0133101
0.013208
0.0130901
0.0129532
0.0127928
0.0126043
0.0123819
0.0121199
0.0118125
0.0114554
0.0110464
0.0105883
0.0100916
0.00958221
0.0091102
0.00876265
0.00876549
0.00926662
0.0102877
0.0116187
0.0129874
0.0141978
0.0151526
0.0158261
0.0162332
0.016409
0.0163935
0.016235
0.0159737
0.0156464
0.0152853
0.0149179
0.014552
0.0141846
0.0138152
0.0134448
0.0130755
0.0127098
0.0123505
0.0120002
0.0116611
0.0113354
0.0110244
0.0107293
0.010451
0.0101896
0.00994526
0.00971775
0.00950661
0.00931123
0.00913087
0.00896473
0.00881193
0.00867159
0.00854284
0.00842481
0.00831667
0.00821762
0.00812692
0.00804387
0.00796781
0.00789815
0.0140578
0.0141066
0.0140741
0.0140729
0.01403
0.0139956
0.0139845
0.0139576
0.0139209
0.0138872
0.0138286
0.0137765
0.0137219
0.0136679
0.0136111
0.0135487
0.0134789
0.0133999
0.0133102
0.0132074
0.0130885
0.01295
0.0127876
0.0125961
0.0123697
0.0121024
0.011788
0.0114218
0.0110016
0.0105296
0.0100169
0.00948967
0.00900027
0.00863604
0.0086403
0.00918242
0.0102844
0.0117085
0.0131529
0.0144089
0.0153787
0.0160408
0.0164164
0.0165466
0.0164755
0.0162565
0.015935
0.0155508
0.0151381
0.0147336
0.014324
0.0139084
0.0134879
0.0130649
0.012643
0.0122257
0.0118169
0.0114199
0.0110377
0.0106727
0.0103269
0.0100015
0.00969715
0.00941418
0.00915241
0.00891132
0.00869013
0.00848786
0.0083034
0.00813557
0.00798313
0.00784486
0.00771958
0.00760612
0.00750341
0.00741044
0.00732628
0.00725007
0.00718103
0.00711844
0.0140569
0.0141055
0.0140728
0.0140716
0.0140291
0.0139964
0.0139841
0.0139571
0.0139219
0.0138886
0.0138293
0.0137774
0.0137228
0.0136689
0.0136123
0.0135499
0.0134799
0.0134007
0.0133106
0.0132071
0.0130873
0.0129474
0.012783
0.0125889
0.0123589
0.0120866
0.0117657
0.011391
0.0109601
0.0104751
0.00994708
0.00940289
0.0088968
0.00851539
0.00851747
0.00909483
0.0102729
0.0117863
0.0133039
0.0146047
0.0155897
0.0162413
0.016586
0.0166707
0.0165458
0.0162694
0.0158919
0.0154581
0.0150073
0.0145531
0.0140909
0.0136203
0.0131434
0.0126637
0.012186
0.0117151
0.0112557
0.0108122
0.0103881
0.00998654
0.00960954
0.00925849
0.00893405
0.00863624
0.00836452
0.00811794
0.0078952
0.00769478
0.00751503
0.00735424
0.00721069
0.00708272
0.00696874
0.00686727
0.00677695
0.00669653
0.00662489
0.00656102
0.00650403
0.00645312
0.0140561
0.0141046
0.0140717
0.0140705
0.0140283
0.0139968
0.0139837
0.0139566
0.0139229
0.0138898
0.01383
0.0137783
0.0137237
0.01367
0.0136134
0.0135511
0.0134809
0.0134015
0.0133111
0.013207
0.0130864
0.0129453
0.0127792
0.0125826
0.0123493
0.0120724
0.0117454
0.0113628
0.0109218
0.0104245
0.009882
0.00932166
0.00879963
0.00840121
0.00839704
0.00900394
0.0102528
0.0118513
0.0134404
0.0147858
0.0157871
0.01643
0.0167456
0.0167847
0.0166082
0.0162753
0.0158411
0.0153546
0.0148611
0.014358
0.0138425
0.0133155
0.0127805
0.0122428
0.0117086
0.011184
0.0106751
0.0101872
0.0097247
0.00929118
0.00888903
0.00851965
0.00818347
0.00788007
0.00760833
0.00736658
0.00715274
0.00696452
0.0067995
0.00665528
0.00652952
0.00642003
0.0063248
0.006242
0.00616999
0.00610734
0.00605277
0.00600519
0.00596365
0.00592731
0.0140554
0.0141036
0.0140706
0.0140693
0.0140276
0.0139967
0.0139832
0.0139561
0.0139238
0.013891
0.0138306
0.0137792
0.0137245
0.013671
0.0136146
0.0135522
0.013482
0.0134024
0.0133117
0.0132072
0.0130857
0.0129436
0.0127759
0.0125771
0.0123407
0.0120596
0.011727
0.0113369
0.0108864
0.0103776
0.00982136
0.00924571
0.00870842
0.00829349
0.00827952
0.00891067
0.0102242
0.0119037
0.0135623
0.0149527
0.0159721
0.0166092
0.0169008
0.0168934
0.0166682
0.0162807
0.0157919
0.0152564
0.0147157
0.01416
0.0135878
0.0130017
0.0124068
0.0118101
0.0112193
0.0106422
0.0100862
0.00955771
0.00906218
0.00860358
0.00818457
0.00780642
0.00746907
0.00717136
0.00691119
0.00668578
0.00649194
0.00632628
0.00618542
0.00606612
0.00596537
0.00588045
0.00580898
0.00574885
0.00569827
0.0056557
0.00561986
0.00558964
0.00556414
0.00554259
0.0140548
0.0141028
0.0140695
0.0140682
0.0140269
0.0139965
0.0139827
0.0139555
0.0139247
0.0138921
0.0138312
0.0137801
0.0137253
0.0136721
0.0136157
0.0135534
0.0134831
0.0134034
0.0133124
0.0132074
0.0130854
0.0129422
0.0127732
0.0125724
0.0123331
0.0120482
0.0117102
0.0113132
0.0108539
0.0103341
0.00976489
0.00917476
0.00862295
0.00819181
0.00816571
0.00881578
0.0101875
0.0119436
0.01367
0.015106
0.0161453
0.0167785
0.017045
0.0170055
0.0167298
0.0162878
0.0157458
0.0151645
0.0145716
0.0139598
0.0133285
0.0126818
0.0120266
0.0113714
0.0107255
0.0100988
0.00950025
0.00893731
0.0084162
0.00794148
0.00751589
0.00714028
0.00681373
0.0065338
0.00629687
0.0060986
0.00593428
0.00579921
0.00568894
0.00559942
0.00552708
0.00546885
0.00542213
0.00538477
0.00535499
0.00533134
0.00531263
0.00529792
0.00528643
0.00527752
0.0140542
0.0141019
0.0140686
0.0140672
0.0140264
0.0139962
0.0139822
0.0139549
0.0139256
0.0138932
0.0138317
0.0137809
0.0137261
0.013673
0.0136168
0.0135545
0.0134842
0.0134044
0.0133131
0.0132078
0.0130852
0.0129412
0.0127709
0.0125682
0.0123264
0.0120379
0.0116951
0.0112916
0.0108239
0.0102938
0.00971232
0.0091085
0.00854304
0.00809584
0.00805621
0.00872001
0.0101437
0.0119717
0.0137644
0.0152468
0.0163089
0.0169422
0.0171902
0.0171144
0.0167912
0.0162955
0.0156992
0.0150705
0.0144251
0.0137565
0.0130651
0.0123579
0.0116447
0.0109348
0.010239
0.00956808
0.00893255
0.00834169
0.00780298
0.00732163
0.00690025
0.00653877
0.00623466
0.00598346
0.00577936
0.00561596
0.00548684
0.00538598
0.00530803
0.0052484
0.00520328
0.00516955
0.00514472
0.00512684
0.00511432
0.00510592
0.00510068
0.00509888
0.00509934
0.0051006
0.0140537
0.0141012
0.0140677
0.0140662
0.0140258
0.0139958
0.0139816
0.0139542
0.0139265
0.0138942
0.0138322
0.0137816
0.0137269
0.013674
0.0136179
0.0135556
0.0134853
0.0134054
0.0133139
0.0132083
0.0130852
0.0129404
0.012769
0.0125647
0.0123205
0.0120287
0.0116813
0.0112718
0.0107964
0.0102565
0.00966341
0.00904662
0.00846837
0.00800535
0.00795138
0.00862419
0.0100938
0.0119889
0.0138463
0.0153761
0.0164633
0.0170999
0.0173319
0.0172236
0.0168554
0.0163067
0.0156549
0.0149788
0.0142809
0.0135552
0.0128094
0.0120481
0.0112804
0.0105178
0.00977332
0.00906042
0.00839189
0.00777896
0.00723044
0.0067519
0.0063452
0.00600843
0.0057365
0.00552202
0.00535648
0.00523124
0.00513828
0.00507063
0.00502249
0.00498919
0.00496712
0.00495341
0.00494588
0.00494511
0.00494682
0.00494995
0.00495438
0.00495997
0.00496629
0.00497304
0.0140533
0.0141005
0.0140668
0.0140653
0.0140254
0.0139955
0.0139811
0.0139536
0.0139273
0.0138952
0.0138326
0.0137824
0.0137276
0.0136749
0.0136189
0.0135567
0.0134863
0.0134064
0.0133148
0.0132089
0.0130854
0.0129399
0.0127674
0.0125616
0.0123153
0.0120204
0.0116689
0.0112538
0.010771
0.0102219
0.00961789
0.00898884
0.00839867
0.00792074
0.00785084
0.0085293
0.0100389
0.0119963
0.0139167
0.0154946
0.0166095
0.0172528
0.0174725
0.0173362
0.0169259
0.0163245
0.0156139
0.0148931
0.0141446
0.0133717
0.0125745
0.0117594
0.0109376
0.0101232
0.0093321
0.00858041
0.00788365
0.00725522
0.00670514
0.00623881
0.00585636
0.00555293
0.00531975
0.0051459
0.00502002
0.00493155
0.00487147
0.00483248
0.00480898
0.00479662
0.0047945
0.00479714
0.00480214
0.00480972
0.00481896
0.00482919
0.00483993
0.00485085
0.00486172
0.0048724
0.0140529
0.0140999
0.014066
0.0140644
0.014025
0.0139951
0.0139806
0.013953
0.013928
0.013896
0.0138331
0.013783
0.0137283
0.0136757
0.0136198
0.0135577
0.0134874
0.0134074
0.0133156
0.0132095
0.0130856
0.0129396
0.0127661
0.012559
0.0123107
0.012013
0.0116576
0.0112373
0.0107477
0.01019
0.00957555
0.00893486
0.00833359
0.00784189
0.00775474
0.00843646
0.00998044
0.0119951
0.0139767
0.0156031
0.016748
0.0174019
0.0176137
0.0174539
0.0170057
0.016354
0.0155823
0.0148209
0.0140316
0.0132118
0.0123634
0.0114949
0.01062
0.00975536
0.00891989
0.00813293
0.00741291
0.00677551
0.00623163
0.00578567
0.00543484
0.00517002
0.00497802
0.00484426
0.00475497
0.00469843
0.00466535
0.00464897
0.00464709
0.00465122
0.0046591
0.00467035
0.0046836
0.00469791
0.00471271
0.00472756
0.0047422
0.00475643
0.00477013
0.00478323
0.0140525
0.0140994
0.0140653
0.0140636
0.0140246
0.0139947
0.01398
0.0139523
0.0139285
0.0138968
0.0138334
0.0137837
0.0137289
0.0136766
0.0136208
0.0135587
0.0134883
0.0134083
0.0133165
0.0132102
0.0130859
0.0129394
0.0127651
0.0125567
0.0123066
0.0120064
0.0116474
0.0112222
0.0107262
0.0101604
0.00953616
0.00888443
0.00827271
0.00776859
0.00766431
0.00834649
0.00991945
0.0119872
0.0140272
0.0157022
0.0168795
0.0175472
0.0177556
0.0175775
0.0170972
0.0164028
0.0155829
0.0147783
0.0139453
0.0130777
0.0121783
0.0112575
0.0103308
0.00941786
0.00854065
0.00772193
0.00698333
0.00634277
0.00581152
0.0053919
0.00507687
0.0048521
0.00469976
0.00460214
0.00454396
0.00451325
0.00450143
0.0045046
0.0045129
0.00452628
0.00454259
0.00456046
0.004579
0.00459764
0.00461598
0.00463377
0.00465087
0.00466717
0.00468263
0.00469724
0.0140522
0.0140989
0.0140646
0.0140628
0.0140243
0.0139943
0.0139795
0.0139517
0.0139288
0.0138975
0.0138338
0.0137843
0.0137295
0.0136773
0.0136217
0.0135597
0.0134893
0.0134093
0.0133174
0.0132109
0.0130863
0.0129393
0.0127643
0.0125548
0.0123031
0.0120005
0.0116382
0.0112085
0.0107065
0.010133
0.00949953
0.0088373
0.00821568
0.00770049
0.00757923
0.00825991
0.00985691
0.0119733
0.0140692
0.0157926
0.017004
0.017689
0.0178983
0.0177068
0.0171991
0.0164662
0.0156001
0.0147572
0.013882
0.0129684
0.0120201
0.011049
0.0100729
0.00911399
0.0081977
0.00735041
0.0065971
0.00595783
0.00544357
0.00505341
0.00477492
0.00458813
0.00447096
0.00440345
0.00436976
0.00435981
0.0043651
0.00437699
0.00439427
0.00441447
0.00443607
0.00445812
0.00448001
0.00450134
0.00452189
0.0045415
0.00456011
0.00457768
0.00459422
0.00460974
0.014052
0.0140985
0.0140639
0.0140621
0.014024
0.0139938
0.013979
0.0139511
0.0139288
0.0138979
0.0138341
0.0137849
0.0137301
0.0136781
0.0136225
0.0135606
0.0134902
0.0134102
0.0133182
0.0132116
0.0130868
0.0129393
0.0127636
0.0125531
0.0122999
0.0119952
0.0116299
0.0111959
0.0106883
0.0101078
0.00946549
0.00879329
0.0081622
0.00763681
0.00749936
0.00817719
0.00979373
0.0119544
0.0141034
0.0158748
0.0171217
0.017827
0.0180413
0.0178409
0.0173107
0.0165435
0.0156344
0.0147579
0.0138424
0.0128853
0.011891
0.0108723
0.00984924
0.00884683
0.0078938
0.00702036
0.00625498
0.0056196
0.00512424
0.00476373
0.00451962
0.00436644
0.00427869
0.00423518
0.0042208
0.00422645
0.00423998
0.00425985
0.004283
0.00430766
0.00433272
0.00435748
0.00438153
0.0044046
0.00442655
0.00444733
0.0044669
0.00448529
0.00450252
0.00451864
0.0140517
0.0140982
0.0140633
0.0140614
0.0140237
0.0139934
0.0139785
0.0139505
0.0139288
0.013898
0.0138345
0.0137854
0.0137306
0.0136788
0.0136233
0.0135614
0.0134911
0.0134111
0.013319
0.0132123
0.0130873
0.0129394
0.0127631
0.0125517
0.0122972
0.0119905
0.0116223
0.0111845
0.0106717
0.0100844
0.00943385
0.00875219
0.00811205
0.0075769
0.00742508
0.00809865
0.00973063
0.0119313
0.0141308
0.0159493
0.0172327
0.017961
0.0181841
0.0179791
0.017431
0.0166338
0.0156853
0.0147776
0.0138272
0.01283
0.0117928
0.0107297
0.00966242
0.0086188
0.0076309
0.00673278
0.00595643
0.00532549
0.00484842
0.00451519
0.00430114
0.00417586
0.00411132
0.0040861
0.00408903
0.00410131
0.00412196
0.00414699
0.00417402
0.00420162
0.00422895
0.00425548
0.00428093
0.00430513
0.00432801
0.00434956
0.00436978
0.00438872
0.00440642
0.00442295
0.0140515
0.0140979
0.0140627
0.0140608
0.0140235
0.013993
0.0139781
0.0139499
0.0139287
0.013898
0.0138348
0.0137859
0.0137311
0.0136794
0.013624
0.0135622
0.0134919
0.0134119
0.0133198
0.013213
0.0130878
0.0129396
0.0127628
0.0125505
0.0122947
0.0119862
0.0116155
0.011174
0.0106564
0.0100628
0.00940447
0.00871384
0.00806505
0.00752072
0.00735919
0.00802442
0.00966825