/*--------------------------------*- C++ -*----------------------------------*\
  =========                 |
  \\      /  F ield         | OpenFOAM: The Open Source CFD Toolbox
   \\    /   O peration     | Website:  https://openfoam.org
    \\  /    A nd           | Version:  9
     \\/     M anipulation  |
\*---------------------------------------------------------------------------*/
FoamFile
{
    format      ascii;
    class       surfaceScalarField;
    location    "0.0075";
    object      phi;
}
// * * * * * * * * * * * * * * * * * * * * * * * * * * * * * * * * * * * * * //

dimensions      [1 0 -1 0 0 0 0];

internalField   nonuniform List<scalar> 
10580
(
0.000293673
-3.06319
-2.67918
0.000260129
-2.67921
0.000282217
-2.67924
0.000304303
0.00032638
-2.67927
-2.34166
0.000228431
-2.34168
0.000253473
-2.34169
0.000278514
-2.34172
0.000303554
-2.34174
0.000328588
0.00035362
-2.34177
-2.04979
0.000190824
-2.0498
0.000218461
-2.04982
0.000246101
-2.04984
0.00027374
-2.04986
0.000301377
-2.04989
0.000329013
-2.04992
0.000356646
0.000384275
-2.04995
-1.79513
0.000175929
-1.79515
0.000205848
-1.79517
0.000235769
-1.79519
0.000265692
-1.79521
0.000295606
-1.79523
0.000325526
-1.79526
0.000355439
-1.79529
0.00038535
0.000415262
-1.79532
-1.5739
0.000132138
-1.57392
0.000164048
-1.57394
0.00019596
-1.57396
0.000227876
-1.57399
0.000259794
-1.57401
0.000291703
-1.57404
0.00032362
-1.57407
0.000355528
-1.5741
0.000387433
-1.57414
0.000419343
0.00045124
-1.57417
-1.38118
0.000156234
-1.38121
0.000189881
-1.38123
0.000223528
-1.38126
0.000257174
-1.38129
0.000290822
-1.38133
0.000324471
-1.38136
0.000358114
-1.3814
0.000391755
-1.38144
0.000425398
-1.38148
0.000459034
0.000492669
-1.38152
-1.21347
0.000156507
-1.2135
0.000191643
-1.21354
0.000226774
-1.21358
0.000261916
-1.21362
0.000297057
-1.21366
0.000332195
-1.2137
0.000367331
-1.21375
0.000402468
-1.21379
0.000437604
-1.21384
0.000472736
-1.21389
0.000507863
0.000542986
-1.21394
-1.06732
0.000167522
-1.06737
0.000203915
-1.06742
0.000240313
-1.06747
0.000276714
-1.06752
0.000313118
-1.06757
0.00034952
-1.06763
0.000385924
-1.06768
0.000422326
-1.06774
0.000458726
-1.0678
0.000495124
-1.06785
0.000531524
-1.06791
0.000567917
0.000604303
-1.06798
-0.939958
0.000230385
-0.940022
0.000267823
-0.940087
0.000305269
-0.940153
0.000342714
-0.94022
0.000380167
-0.940288
0.000417613
-0.940357
0.000455066
-0.940427
0.000492513
-0.940498
0.000529962
-0.940571
0.000567409
-0.940644
0.000604854
-0.940718
0.000642301
0.00067973
-0.940794
-0.828626
0.000273907
-0.828708
0.000312178
-0.828791
0.000350458
-0.828874
0.00038874
-0.828959
0.000427025
-0.829044
0.000465312
-0.82913
0.000503598
-0.829217
0.000541887
-0.829304
0.000580178
-0.829393
0.000618463
-0.829482
0.000656746
-0.829572
0.000695036
-0.829663
0.000733316
0.000771585
-0.829755
-0.731234
0.000376023
-0.731336
0.000414935
-0.73144
0.000453845
-0.731544
0.000492764
-0.731648
0.000531686
-0.731754
0.000570611
-0.73186
0.000609535
-0.731966
0.000648457
-0.732073
0.000687382
-0.732181
0.000726311
-0.73229
0.000765233
-0.732399
0.000804159
-0.732509
0.000843079
0.000881985
-0.732619
-0.645635
0.000460759
-0.645759
0.000500096
-0.645883
0.000539449
-0.646008
0.0005788
-0.646134
0.000618164
-0.646259
0.000657528
-0.646386
0.000696895
-0.646512
0.000736265
-0.64664
0.00077563
-0.646767
0.000815003
-0.646895
0.000854371
-0.647024
0.000893742
-0.647153
0.000933113
-0.647282
0.000972482
0.00101183
-0.647412
-0.570406
0.000606077
-0.570552
0.000645669
-0.570698
0.000685269
-0.570844
0.000724879
-0.57099
0.000764494
-0.571137
0.000804114
-0.571283
0.000843737
-0.57143
0.000883363
-0.571578
0.00092299
-0.571725
0.00096262
-0.571873
0.00100225
-0.572021
0.00104188
-0.57217
0.00108151
-0.572319
0.00112115
0.00116076
-0.572467
-0.504055
0.000770915
-0.50422
0.000810567
-0.504385
0.00085023
-0.50455
0.000889905
-0.504715
0.000929587
-0.50488
0.000969276
-0.505045
0.00100897
-0.505211
0.00104867
-0.505376
0.00108837
-0.505541
0.00112807
-0.505707
0.00116778
-0.505873
0.0012075
-0.506038
0.00124721
-0.506204
0.00128692
0.00132662
-0.50637
-0.445419
0.000951461
-0.4456
0.00099097
-0.44578
0.00103049
-0.44596
0.00107003
-0.44614
0.00110959
-0.44632
0.00114915
-0.4465
0.00118872
-0.446679
0.00122829
-0.446859
0.00126788
-0.447038
0.00130747
-0.447217
0.00134707
-0.447397
0.00138667
-0.447576
0.00142628
-0.447755
0.0014659
0.00150549
-0.447934
-0.393535
0.00114249
-0.393726
0.00118162
-0.393916
0.00122078
-0.394106
0.00125996
-0.394296
0.00129915
-0.394485
0.00133836
-0.394674
0.00137759
-0.394862
0.00141682
-0.395051
0.00145608
-0.395238
0.00149534
-0.395426
0.00153462
-0.395613
0.00157392
-0.3958
0.00161322
-0.395987
0.00165254
0.00169184
-0.396173
-0.347395
0.00129927
-0.34759
0.00133772
-0.347784
0.0013762
-0.347978
0.00141472
-0.348172
0.00145326
-0.348364
0.00149183
-0.348556
0.00153043
-0.348748
0.00156905
-0.348939
0.0016077
-0.349129
0.00164637
-0.349319
0.00168507
-0.349508
0.00172379
-0.349697
0.00176254
-0.349885
0.00180131
-0.350072
0.0018401
0.00187889
-0.350259
-0.306706
0.00149302
-0.306899
0.00153046
-0.307091
0.00156795
-0.307282
0.00160548
-0.307472
0.00164307
-0.30766
0.00168069
-0.307848
0.00171836
-0.308035
0.00175607
-0.308221
0.00179383
-0.308407
0.00183163
-0.308591
0.00186947
-0.308775
0.00190736
-0.308957
0.00194529
-0.309139
0.00198326
-0.309321
0.00202127
0.00205931
-0.309501
-0.270679
0.0016779
-0.270862
0.00171392
-0.271044
0.00175002
-0.271225
0.00178619
-0.271404
0.00182244
-0.271582
0.00185875
-0.271759
0.00189514
-0.271935
0.00193159
-0.272109
0.00196812
-0.272282
0.00200472
-0.272454
0.00204139
-0.272625
0.00207813
-0.272794
0.00211494
-0.272963
0.00215183
-0.273131
0.00218878
0.0022258
-0.273297
-0.238789
0.0018476
-0.238957
0.00188174
-0.239123
0.001916
-0.239287
0.00195037
-0.239449
0.00198485
-0.23961
0.00201945
-0.239769
0.00205416
-0.239927
0.00208898
-0.240082
0.00212392
-0.240237
0.00215896
-0.240389
0.00219413
-0.240541
0.0022294
-0.24069
0.0022648
-0.240839
0.0023003
-0.240986
0.00233593
0.00237167
-0.241132
-0.210557
0.00199657
-0.210704
0.00202838
-0.210848
0.00206036
-0.21099
0.00209252
-0.21113
0.00212485
-0.211268
0.00215734
-0.211404
0.00219001
-0.211538
0.00222284
-0.21167
0.00225585
-0.2118
0.00228902
-0.211928
0.00232237
-0.212055
0.00235589
-0.212179
0.00238958
-0.212302
0.00242345
-0.212424
0.00245749
0.00249172
-0.212544
-0.185568
0.00211987
-0.185688
0.00214884
-0.185806
0.00217806
-0.185921
0.00220754
-0.186033
0.00223727
-0.186143
0.00226725
-0.186251
0.00229748
-0.186356
0.00232797
-0.186459
0.00235872
-0.186559
0.00238972
-0.186658
0.00242099
-0.186755
0.00245251
-0.186849
0.00248429
-0.186942
0.00251632
-0.187033
0.00254863
0.00258125
-0.187123
-0.163406
0.00221383
-0.163497
0.00223972
-0.163585
0.00226598
-0.16367
0.00229261
-0.163752
0.00231961
-0.163832
0.00234696
-0.163909
0.00237467
-0.163984
0.00240274
-0.164056
0.00243115
-0.164127
0.00245991
-0.164195
0.00248901
-0.164261
0.00251846
-0.164325
0.00254824
-0.164387
0.00257835
-0.164447
0.00260882
0.00263971
-0.164505
-0.143725
0.00227637
-0.143784
0.00229872
-0.143839
0.00232145
-0.143891
0.00234463
-0.14394
0.00236829
-0.143986
0.00239244
-0.144028
0.00241706
-0.144067
0.00244215
-0.144104
0.00246772
-0.144138
0.00249378
-0.144169
0.00252046
-0.144199
0.00254778
-0.144226
0.00257562
-0.144252
0.00260392
-0.144275
0.00263269
0.00266214
-0.144298
-0.125957
0.00230102
-0.125978
0.00231992
-0.125996
0.00233941
-0.126011
0.0023595
-0.126023
0.00238023
-0.126032
0.0024016
-0.126038
0.00242362
-0.126043
0.00244629
-0.126044
0.00246959
-0.126044
0.00249356
-0.126042
0.00251828
-0.126038
0.00254367
-0.126032
0.00256956
-0.126024
0.00259597
-0.126014
0.00262296
0.00265065
-0.126003
-0.109669
0.00228655
-0.109651
0.00230217
-0.109631
0.00231865
-0.109607
0.00233598
-0.109581
0.00235418
-0.109553
0.00237331
-0.109523
0.00239333
-0.10949
0.00241416
-0.109457
0.00243576
-0.109421
0.00245812
-0.109384
0.00248119
-0.109345
0.00250486
-0.109305
0.00252902
-0.109263
0.00255378
-0.109219
0.00257923
0.00260565
-0.109174
-0.0946965
0.00223434
-0.0946408
0.00224646
-0.0945817
0.0022596
-0.0945195
0.00227371
-0.0944541
0.00228883
-0.0943858
0.00230499
-0.0943146
0.00232214
-0.0942406
0.00234017
-0.0941639
0.00235907
-0.0940846
0.00237879
-0.0940027
0.0023993
-0.0939184
0.00242059
-0.0938321
0.00244265
-0.0937437
0.00246545
-0.0936535
0.00248901
0.00251357
-0.0935614
-0.0807872
0.0021347
-0.0806845
0.00214379
-0.080579
0.00215404
-0.0804707
0.00216542
-0.0803597
0.00217789
-0.0802462
0.00219142
-0.08013
0.00220597
-0.0800113
0.0022215
-0.0798903
0.00223799
-0.0797669
0.0022554
-0.0796413
0.00227371
-0.0795136
0.00229289
-0.0793838
0.0023129
-0.0792521
0.00233372
-0.0791184
0.00235535
0.0023781
-0.078983
-0.0682107
0.00199822
-0.0680716
0.00200467
-0.0679299
0.00201238
-0.0677858
0.00202132
-0.0676394
0.00203144
-0.0674906
0.00204269
-0.0673397
0.00205504
-0.0671867
0.00206845
-0.0670315
0.00208288
-0.0668744
0.00209829
-0.0667154
0.00211466
-0.0665544
0.00213193
-0.0663916
0.00215007
-0.0662269
0.00216906
-0.0660605
0.0021889
0.00220991
-0.0658923
-0.0572121
0.00183614
-0.0570479
0.00184045
-0.0568816
0.0018461
-0.0567133
0.00185304
-0.0565431
0.00186122
-0.056371
0.00187059
-0.0561971
0.00188111
-0.0560214
0.00189273
-0.0558439
0.00190542
-0.0556647
0.00191912
-0.0554839
0.0019338
-0.0553014
0.00194943
-0.0551173
0.00196595
-0.0549315
0.00198334
-0.0547442
0.00200159
0.00202105
-0.0545554
-0.0478371
0.00165979
-0.0476592
0.00166252
-0.0474797
0.00166661
-0.0472987
0.00167203
-0.0471162
0.00167871
-0.0469322
0.0016866
-0.0467468
0.00169567
-0.0465599
0.00170587
-0.0463716
0.00171715
-0.046182
0.00172947
-0.045991
0.0017428
-0.0457986
0.00175708
-0.045605
0.00177228
-0.04541
0.00178836
-0.0452137
0.00180533
0.00182351
-0.0450162
-0.0399817
0.00147901
-0.0397998
0.00148062
-0.0396168
0.00148361
-0.0394327
0.00148791
-0.0392475
0.00149347
-0.0390611
0.00150025
-0.0388736
0.0015082
-0.0386851
0.0015173
-0.0384954
0.00152749
-0.0383047
0.00153873
-0.0381129
0.001551
-0.0379201
0.00156425
-0.0377262
0.00157844
-0.0375314
0.00159354
-0.0373356
0.00160953
0.00162677
-0.0371389
-0.0334585
0.00130115
-0.0332799
0.00130204
-0.0331005
0.00130426
-0.0329204
0.00130777
-0.0327395
0.00131252
-0.0325577
0.00131846
-0.032375
0.00132556
-0.0321915
0.0013338
-0.0320072
0.00134314
-0.031822
0.00135356
-0.031636
0.00136501
-0.0314493
0.00137748
-0.0312617
0.00139093
-0.0310735
0.00140532
-0.0308847
0.00142065
0.00143728
-0.0306952
-0.0280564
0.00113123
-0.0278861
0.00113167
-0.0277152
0.00113339
-0.0275437
0.00113634
-0.0273717
0.00114047
-0.027199
0.00114577
-0.0270256
0.0011522
-0.0268516
0.00115975
-0.0266769
0.0011684
-0.0265014
0.00117814
-0.0263254
0.00118896
-0.0261487
0.00120083
-0.0259715
0.00121375
-0.0257939
0.00122767
-0.0256158
0.0012426
0.00125893
-0.0254375
-0.0235763
0.000972266
-0.0234171
0.000972461
-0.0232575
0.000973844
-0.0230976
0.00097638
-0.0229371
0.000980042
-0.0227762
0.00098481
-0.0226146
0.000990672
-0.0224525
0.000997625
-0.0222898
0.00100567
-0.0221265
0.00101483
-0.0219626
0.00102509
-0.0217983
0.00103647
-0.0216335
0.00104898
-0.0214684
0.00106259
-0.0213031
0.00107733
0.00109359
-0.0211378
-0.0198474
0.000825773
-0.0197008
0.000825846
-0.019554
0.000827007
-0.0194068
0.000829229
-0.0192593
0.000832497
-0.0191113
0.000836802
-0.0189627
0.000842148
-0.0188137
0.000848546
-0.018664
0.000856019
-0.0185138
0.000864602
-0.018363
0.000874335
-0.0182118
0.000885255
-0.0180602
0.000897395
-0.0179084
0.000910776
-0.0177565
0.000925442
0.000941635
-0.0176046
-0.0167326
0.000692207
-0.016599
0.000692237
-0.0164653
0.000693242
-0.0163312
0.000695207
-0.0161969
0.000698125
-0.0160621
0.000701999
-0.0159268
0.000706844
-0.0157909
0.000712688
-0.0156545
0.000719573
-0.0155174
0.000727559
-0.0153798
0.000736728
-0.0152417
0.000747155
-0.0151032
0.000758907
-0.0149645
0.000772084
-0.0148257
0.000786627
0.000803303
-0.0146874
-0.014123
0.000571407
-0.0140022
0.000571433
-0.0138813
0.000572318
-0.0137601
0.000574054
-0.0136387
0.000576642
-0.0135168
0.000580093
-0.0133943
0.000584434
-0.0132714
0.000589705
-0.0131478
0.000595964
-0.0130235
0.000603295
-0.0128986
0.000611826
-0.0127731
0.000621684
-0.0126472
0.000632962
-0.0125209
0.000645827
-0.0123947
0.000660362
0.000678044
-0.0122694
-0.0119302
0.000462857
-0.0118216
0.000462895
-0.011713
0.000463675
-0.0116041
0.000465195
-0.0114949
0.000467462
-0.0113853
0.000470493
-0.0112752
0.000474322
-0.0111645
0.000479
-0.0110532
0.000484592
-0.0109411
0.000491204
-0.0108282
0.000499009
-0.0107148
0.000508202
-0.0106007
0.00051891
-0.010486
0.000531165
-0.0103717
0.000546046
0.000564487
-0.0102582
-0.0100811
0.000365856
-0.00998408
0.000365907
-0.00988699
0.000366585
-0.00978969
0.000367893
-0.00969207
0.000369844
-0.00959404
0.000372458
-0.00949549
0.000375773
-0.00939633
0.000379844
-0.00929648
0.000384741
-0.00919586
0.000390579
-0.00909442
0.000397572
-0.00899221
0.000405995
-0.00888928
0.000415977
-0.00878556
0.00042745
-0.00868178
0.00044226
0.000461794
-0.00857908
-0.00851455
0.000279645
-0.00842834
0.000279697
-0.00834203
0.000280267
-0.00825549
0.000281362
-0.00816865
0.000282999
-0.00808139
0.0002852
-0.00799362
0.000288002
-0.00790524
0.000291462
-0.00781614
0.000295646
-0.00772623
0.000300667
-0.00763543
0.000306772
-0.00754375
0.000314313
-0.00745118
0.000323407
-0.00735763
0.000333899
-0.00726344
0.000348073
0.000368783
-0.00717043
-0.00717761
0.000203529
-0.00710148
0.00020356
-0.00702521
0.000204002
-0.00694872
0.000204874
-0.00687191
0.00020619
-0.00679469
0.000207975
-0.00671695
0.000210263
-0.00663859
0.000213104
-0.00655951
0.000216561
-0.00647958
0.000220737
-0.0063987
0.00022589
-0.00631682
0.000232438
-0.0062339
0.000240488
-0.00614978
0.000249778
-0.00606433
0.000262621
0.000284229
-0.00597978
-0.00602024
0.000137052
-0.00595371
0.000137027
-0.00588701
0.000137308
-0.00582006
0.000137926
-0.00575277
0.000138894
-0.00568503
0.000140242
-0.00561677
0.000141994
-0.00554785
0.000144191
-0.00547819
0.000146893
-0.00540764
0.000150188
-0.00533607
0.00015432
-0.00526335
0.000159725
-0.00518941
0.00016654
-0.00511403
0.000174404
-0.00503666
0.000185251
0.000206835
-0.00495927
-0.00498417
8.0147e-05
-0.00492719
8.00417e-05
-0.00487001
8.01301e-05
-0.00481255
8.04626e-05
-0.00475469
8.10398e-05
-0.00469636
8.19085e-05
-0.00463744
8.30772e-05
-0.00457783
8.45757e-05
-0.00451739
8.64541e-05
-0.00445599
8.87836e-05
-0.00439343
9.17658e-05
-0.00432949
9.5788e-05
-0.00426401
0.000101052
-0.00419689
0.000107289
-0.00412733
0.000115687
0.000135088
-0.00405558
-0.00397298
3.31508e-05
-0.00392588
3.29345e-05
-0.00387866
3.29136e-05
-0.00383124
3.30439e-05
-0.00378346
3.32618e-05
-0.00373519
3.36326e-05
-0.00368625
3.41408e-05
-0.00363653
3.48525e-05
-0.00358589
3.58116e-05
-0.00353417
3.70709e-05
-0.00348116
3.87505e-05
-0.00342639
4.10212e-05
-0.00336942
4.40757e-05
-0.00331009
4.79663e-05
-0.00324808
5.36763e-05
6.63373e-05
-0.00317933
-0.00254169
-0.00250875
-0.00247584
-0.00244279
-0.00240953
-0.0023759
-0.00234176
-0.00230691
-0.00227109
-0.00223402
-0.00219527
-0.00215425
-0.00211018
-0.00206221
-0.00200853
-0.0019422
-4.53083
0.00181926
-4.53051
0.00181307
-4.53018
0.00180685
-4.52986
0.00180063
-4.52953
0.00179439
-4.52919
0.00178815
-4.52886
0.00178191
-4.52851
0.00177566
-4.52817
0.00176941
-4.52782
0.00176315
-4.52747
0.00175688
-4.52711
0.00175062
-4.52675
0.00174434
-4.52638
0.00173807
-4.52601
0.00173178
-4.52563
0.0017255
-4.52526
0.00171921
-4.52487
0.00171292
-4.52449
0.00170662
-4.52409
0.00170032
-4.5237
0.00169402
-4.52329
0.00168772
-4.52289
0.00168141
-4.52248
0.0016751
-4.52206
0.00166878
-4.52164
0.00166246
-4.52122
0.00165614
-4.52079
0.00164982
-4.52035
0.0016435
-4.51991
0.00163717
-4.51946
0.00163084
-4.51901
0.00162451
-4.51856
0.00161817
-4.51809
0.00161184
-4.51763
0.0016055
-4.51715
0.00159916
-4.51667
0.00159281
-4.51619
0.00158647
-4.5157
0.00158012
-4.5152
0.00157378
-4.5147
0.00156743
-4.51419
0.00156108
-4.51368
0.00155472
-4.51316
0.00154837
-4.51263
0.00154201
-4.5121
0.00153565
-4.51156
0.0015293
-4.51102
0.00152288
0.0015155
-4.51046
-4.02387
0.00174791
-4.0238
0.0017394
-4.02372
0.00173085
-4.02364
0.00172227
-4.02356
0.00171366
-4.02348
0.00170503
-4.02339
0.00169638
-4.0233
0.00168769
-4.02321
0.00167898
-4.02312
0.00167025
-4.02303
0.00166148
-4.02293
0.00165269
-4.02283
0.00164388
-4.02272
0.00163503
-4.02262
0.00162616
-4.02251
0.00161726
-4.0224
0.00160833
-4.02229
0.00159938
-4.02217
0.0015904
-4.02205
0.00158138
-4.02193
0.00157234
-4.0218
0.00156328
-4.02168
0.00155418
-4.02155
0.00154505
-4.02141
0.00153589
-4.02128
0.00152671
-4.02114
0.00151749
-4.021
0.00150824
-4.02085
0.00149896
-4.02071
0.00148965
-4.02056
0.00148031
-4.0204
0.00147094
-4.02025
0.00146153
-4.02009
0.00145209
-4.01992
0.00144262
-4.01976
0.00143312
-4.01959
0.00142358
-4.01942
0.001414
-4.01924
0.00140439
-4.01906
0.00139475
-4.01888
0.00138507
-4.01869
0.00137535
-4.0185
0.0013656
-4.01831
0.00135581
-4.01811
0.00134598
-4.01791
0.00133612
-4.01771
0.00132621
-4.01751
0.00131617
0.00130545
-4.0173
-3.50636
0.00178739
-3.50639
0.00177867
-3.50642
0.00177016
-3.50645
0.00176174
-3.50649
0.00175341
-3.50652
0.00174504
-3.50655
0.00173665
-3.50658
0.00172823
-3.50661
0.0017198
-3.50664
0.00171135
-3.50668
0.00170288
-3.50671
0.0016944
-3.50674
0.00168591
-3.50678
0.00167741
-3.50681
0.0016689
-3.50684
0.00166039
-3.50688
0.00165188
-3.50691
0.00164336
-3.50695
0.00163484
-3.50699
0.00162632
-3.50702
0.0016178
-3.50706
0.00160928
-3.5071
0.00160076
-3.50713
0.00159223
-3.50717
0.00158372
-3.50721
0.0015752
-3.50725
0.00156668
-3.50729
0.00155817
-3.50733
0.00154967
-3.50738
0.00154116
-3.50742
0.00153266
-3.50746
0.00152417
-3.50751
0.00151568
-3.50755
0.00150719
-3.5076
0.00149872
-3.50765
0.00149024
-3.5077
0.00148178
-3.50775
0.00147333
-3.5078
0.00146488
-3.50785
0.00145644
-3.5079
0.00144801
-3.50796
0.00143959
-3.50801
0.00143118
-3.50807
0.00142277
-3.50813
0.00141438
-3.50819
0.001406
-3.50825
0.00139763
-3.50831
0.00138926
-3.50838
0.00138077
0.00137062
-3.50844
-3.06317
0.00176144
-3.06314
0.0017508
-3.06311
0.0017405
-3.06308
0.0017302
-3.06304
0.00171997
-3.06301
0.00170969
-3.06297
0.00169937
-3.06293
0.001689
-3.06289
0.00167859
-3.06285
0.00166813
-3.0628
0.00165763
-3.06275
0.00164713
-3.0627
0.00163683
-3.06265
0.00162654
-3.0626
0.00161625
-3.06255
0.00160595
-3.06249
0.00159565
-3.06243
0.00158534
-3.06237
0.00157504
-3.06231
0.00156473
-3.06225
0.00155443
-3.06218
0.00154413
-3.06212
0.00153383
-3.06205
0.00152353
-3.06198
0.00151324
-3.0619
0.00150295
-3.06183
0.00149267
-3.06175
0.0014824
-3.06168
0.00147213
-3.0616
0.00146188
-3.06152
0.00145165
-3.06143
0.00144152
-3.06135
0.00143163
-3.06126
0.00142157
-3.06118
0.00141155
-3.06109
0.0014015
-3.061
0.00139146
-3.06091
0.00138141
-3.06081
0.00137137
-3.06072
0.00136133
-3.06062
0.00135131
-3.06052
0.00134129
-3.06042
0.00133128
-3.06032
0.00132128
-3.06022
0.0013113
-3.06011
0.00130134
-3.06001
0.00129139
-3.0599
0.00128145
-3.05979
0.00127142
0.00126062
-3.05968
-2.6793
0.00179389
-2.67933
0.00178076
-2.67936
0.00176823
-2.67939
0.00175564
-2.67941
0.00174303
-2.67943
0.00173039
-2.67945
0.00171773
-2.67946
0.00170504
-2.67948
0.00169232
-2.67949
0.00167956
-2.6795
0.00166677
-2.67951
0.001654
-2.67951
0.00164139
-2.67951
0.00162881
-2.67951
0.00161622
-2.67951
0.00160363
-2.67951
0.00159104
-2.6795
0.00157849
-2.67949
0.0015661
-2.67948
0.00155384
-2.67947
0.00154152
-2.67945
0.00152916
-2.67943
0.00151677
-2.67941
0.00150435
-2.67939
0.00149192
-2.67937
0.00147947
-2.67934
0.00146696
-2.67932
0.00145425
-2.67929
0.00144137
-2.67925
0.0014285
-2.67922
0.0014157
-2.67918
0.00140305
-2.67914
0.00139074
-2.67909
0.00137843
-2.67905
0.00136616
-2.679
0.00135387
-2.67895
0.00134158
-2.6789
0.00132931
-2.67884
0.00131704
-2.67879
0.00130479
-2.67873
0.00129255
-2.67867
0.00128032
-2.6786
0.00126812
-2.67854
0.00125594
-2.67847
0.00124377
-2.6784
0.00123163
-2.67833
0.00121952
-2.67826
0.00120743
-2.67818
0.00119537
0.00118315
-2.6781
-2.34178
0.0018103
-2.3418
0.00179478
-2.34181
0.00177928
-2.34182
0.00176389
-2.34182
0.00174885
-2.34183
0.00173327
-2.34182
0.00171702
-2.34182
0.00170125
-2.34181
0.00168561
-2.3418
0.00166996
-2.34179
0.00165429
-2.34178
0.00163862
-2.34176
0.00162294
-2.34174
0.00160725
-2.34171
0.00159156
-2.34168
0.00157587
-2.34165
0.00156019
-2.34162
0.00154454
-2.34158
0.00152902
-2.34154
0.00151362
-2.3415
0.00149818
-2.34145
0.00148272
-2.3414
0.00146731
-2.34135
0.00145227
-2.3413
0.00143714
-2.34124
0.00142193
-2.34118
0.00140663
-2.34112
0.00139106
-2.34105
0.00137499
-2.34098
0.00135871
-2.34091
0.00134253
-2.34083
0.00132648
-2.34075
0.00131064
-2.34067
0.00129512
-2.34058
0.00127972
-2.34049
0.00126435
-2.3404
0.00124901
-2.3403
0.00123371
-2.3402
0.00121844
-2.3401
0.00120322
-2.34
0.00118802
-2.33989
0.00117287
-2.33978
0.00115777
-2.33967
0.0011427
-2.33955
0.00112768
-2.33943
0.00111271
-2.33931
0.00109779
-2.33918
0.00108292
-2.33906
0.00106813
0.00105361
-2.33893
-2.05
0.00186137
-2.05005
0.00184184
-2.05009
0.00182241
-2.05013
0.00180308
-2.05016
0.00178371
-2.05019
0.00176347
-2.05022
0.0017429
-2.05024
0.00172291
-2.05026
0.00170302
-2.05027
0.0016831
-2.05028
0.00166316
-2.05029
0.00164321
-2.05029
0.00162324
-2.05028
0.00160326
-2.05027
0.00158328
-2.05026
0.00156329
-2.05024
0.00154329
-2.05022
0.0015233
-2.0502
0.00150331
-2.05017
0.00148332
-2.05013
0.00146335
-2.05009
0.0014434
-2.05005
0.00142353
-2.05
0.001404
-2.04995
0.00138442
-2.04989
0.0013648
-2.04983
0.00134515
-2.04976
0.00132544
-2.04969
0.00130546
-2.04962
0.00128532
-2.04954
0.00126524
-2.04946
0.00124525
-2.04938
0.00122536
-2.04929
0.00120567
-2.04919
0.00118611
-2.0491
0.00116659
-2.04899
0.00114713
-2.04889
0.00112773
-2.04878
0.00110838
-2.04866
0.00108909
-2.04855
0.00106986
-2.04842
0.0010507
-2.0483
0.0010316
-2.04817
0.00101258
-2.04803
0.000993627
-2.0479
0.000974749
-2.04775
0.00095595
-2.04761
0.000937239
-2.04746
0.000918641
0.000900188
-2.0473
-1.79538
0.0019254
-1.79544
0.00190058
-1.79549
0.00187572
-1.79554
0.0018508
-1.79558
0.00182556
-1.79562
0.00179991
-1.79565
0.00177445
-1.79568
0.00174909
-1.7957
0.00172368
-1.79571
0.00169823
-1.79572
0.00167275
-1.79573
0.00164724
-1.79573
0.0016217
-1.79572
0.00159615
-1.79571
0.00157057
-1.79569
0.00154498
-1.79566
0.00151939
-1.79563
0.00149379
-1.7956
0.0014682
-1.79556
0.00144261
-1.79551
0.00141704
-1.79546
0.00139148
-1.7954
0.00136594
-1.79534
0.00134043
-1.79527
0.00131495
-1.79519
0.0012895
-1.79511
0.00126409
-1.79503
0.00123873
-1.79493
0.00121341
-1.79484
0.00118815
-1.79473
0.00116294
-1.79463
0.0011378
-1.79451
0.00111273
-1.7944
0.00108773
-1.79427
0.00106281
-1.79414
0.00103796
-1.79401
0.00101321
-1.79387
0.000988539
-1.79373
0.000963965
-1.79358
0.000939489
-1.79342
0.000915116
-1.79326
0.000890848
-1.7931
0.000866691
-1.79293
0.000842649
-1.79275
0.000818724
-1.79257
0.000794921
-1.79239
0.000771246
-1.7922
0.000747712
-1.792
0.000724361
0.00070138
-1.79181
-1.57427
0.00202388
-1.57436
0.00199192
-1.57445
0.00195979
-1.57452
0.00192754
-1.57459
0.00189519
-1.57466
0.00186274
-1.57471
0.0018302
-1.57476
0.00179758
-1.5748
0.00176487
-1.57484
0.0017321
-1.57486
0.00169926
-1.57488
0.00166637
-1.57489
0.00163344
-1.5749
0.00160046
-1.57489
0.00156745
-1.57488
0.00153441
-1.57487
0.00150137
-1.57484
0.00146831
-1.57481
0.00143525
-1.57477
0.0014022
-1.57472
0.00136916
-1.57466
0.00133615
-1.5746
0.00130317
-1.57453
0.00127023
-1.57445
0.00123733
-1.57437
0.00120449
-1.57428
0.00117171
-1.57418
0.001139
-1.57407
0.00110636
-1.57395
0.00107381
-1.57383
0.00104136
-1.5737
0.001009
-1.57357
0.000976754
-1.57342
0.000944622
-1.57327
0.000912611
-1.57312
0.000880731
-1.57295
0.000848987
-1.57278
0.000817388
-1.5726
0.000785939
-1.57242
0.000754649
-1.57223
0.000723523
-1.57203
0.000692568
-1.57182
0.000661791
-1.57161
0.000631199
-1.5714
0.000600797
-1.57117
0.000570591
-1.57094
0.000540591
-1.5707
0.000510814
-1.57046
0.000481315
0.000452269
-1.57021
-1.38165
0.00215704
-1.38177
0.0021162
-1.38189
0.00207506
-1.382
0.00203374
-1.38209
0.00199224
-1.38218
0.00195058
-1.38226
0.00190875
-1.38233
0.00186679
-1.38239
0.00182469
-1.38244
0.00178246
-1.38248
0.00174014
-1.38251
0.00169771
-1.38253
0.0016552
-1.38254
0.00161262
-1.38255
0.00157
-1.38254
0.00152731
-1.38252
0.00148459
-1.3825
0.00144185
-1.38246
0.00139911
-1.38241
0.00135637
-1.38236
0.00131365
-1.38229
0.00127097
-1.38222
0.00122832
-1.38213
0.00118574
-1.38204
0.00114322
-1.38194
0.00110079
-1.38182
0.00105845
-1.3817
0.00101623
-1.38157
0.000974118
-1.38143
0.000932145
-1.38128
0.000890318
-1.38112
0.00084865
-1.38095
0.000807153
-1.38077
0.000765838
-1.38058
0.000724719
-1.38038
0.000683807
-1.38018
0.000643113
-1.37996
0.000602649
-1.37974
0.000562427
-1.37951
0.000522456
-1.37927
0.000482749
-1.37902
0.000443316
-1.37876
0.000404168
-1.37849
0.000365314
-1.37822
0.000326764
-1.37794
0.000288529
-1.37765
0.00025062
-1.37735
0.000213064
-1.37704
0.000175937
0.000139533
-1.37673
-1.21412
0.00233915
-1.21429
0.00228702
-1.21445
0.00223448
-1.2146
0.00218164
-1.21474
0.0021285
-1.21486
0.00207508
-1.21497
0.00202141
-1.21507
0.00196749
-1.21516
0.00191335
-1.21524
0.00185901
-1.2153
0.00180449
-1.21536
0.0017498
-1.2154
0.00169497
-1.21542
0.00164001
-1.21544
0.00158495
-1.21544
0.00152981
-1.21543
0.00147459
-1.21541
0.00141934
-1.21537
0.00136407
-1.21533
0.0013088
-1.21527
0.00125355
-1.21519
0.00119833
-1.21511
0.00114318
-1.21501
0.00108811
-1.2149
0.00103315
-1.21478
0.000978309
-1.21464
0.000923614
-1.2145
0.000869085
-1.21434
0.000814742
-1.21416
0.000760606
-1.21398
0.000706696
-1.21379
0.000653034
-1.21358
0.000599638
-1.21336
0.000546528
-1.21313
0.000493725
-1.21289
0.000441245
-1.21263
0.00038911
-1.21237
0.000337336
-1.21209
0.000285942
-1.2118
0.000234945
-1.2115
0.000184363
-1.21119
0.000134212
-1.21087
8.45097e-05
-1.21054
3.52714e-05
-1.2102
-1.34873e-05
-1.20985
-6.17515e-05
-1.20949
-0.000109503
-1.20912
-0.000156704
-1.20874
-0.000203257
-0.000248795
-1.20836
-1.06821
0.0025787
-1.06844
0.00251264
-1.06865
0.00244595
-1.06885
0.00237876
-1.06903
0.0023111
-1.0692
0.002243
-1.06935
0.00217447
-1.06949
0.00210555
-1.06961
0.00203627
-1.06972
0.00196665
-1.06981
0.00189673
-1.06989
0.00182654
-1.06995
0.0017561
-1.07
0.00168546
-1.07003
0.00161464
-1.07004
0.00154367
-1.07004
0.00147258
-1.07002
0.0014014
-1.06999
0.00133018
-1.06994
0.00125894
-1.06987
0.00118772
-1.06979
0.00111654
-1.06969
0.00104545
-1.06958
0.000974474
-1.06945
0.000903644
-1.0693
0.000832995
-1.06914
0.00076256
-1.06896
0.000692372
-1.06877
0.000622464
-1.06856
0.000552867
-1.06834
0.000483615
-1.0681
0.000414739
-1.06785
0.00034627
-1.06758
0.000278241
-1.0673
0.00021068
-1.067
0.00014362
-1.06669
7.70882e-05
-1.06636
1.1115e-05
-1.06602
-5.42715e-05
-1.06567
-0.000119043
-1.0653
-0.000183173
-1.06492
-0.000246635
-1.06453
-0.000309404
-1.06412
-0.000371453
-1.0637
-0.000432759
-1.06327
-0.0004933
-1.06283
-0.000553048
-1.06237
-0.000611953
-1.0619
-0.000669883
-0.000726332
-1.06143
-0.941103
0.00288835
-0.941396
0.00280531
-0.941671
0.00272135
-0.941929
0.00263662
-0.942169
0.00255115
-0.942391
0.00246498
-0.942595
0.00237814
-0.94278
0.00229069
-0.942947
0.00220266
-0.943094
0.0021141
-0.943222
0.00202506
-0.943331
0.00193557
-0.943421
0.00184569
-0.943491
0.00175546
-0.943541
0.00166493
-0.943572
0.00157416
-0.943582
0.00148319
-0.943573
0.00139204
-0.943544
0.0013008
-0.943494
0.00120951
-0.943425
0.00111821
-0.943335
0.00102696
-0.943225
0.000935815
-0.943096
0.000844817
-0.942946
0.00075402
-0.942777
0.000663475
-0.942587
0.000573234
-0.942378
0.000483347
-0.94215
0.000393866
-0.941902
0.000304842
-0.941634
0.000216323
-0.941348
0.000128361
-0.941043
4.10041e-05
-0.940719
-4.56988e-05
-0.940376
-0.0001317
-0.940016
-0.000216951
-0.939637
-0.000301408
-0.939241
-0.000385023
-0.938828
-0.000467752
-0.938397
-0.000549553
-0.93795
-0.000630382
-0.937486
-0.000710198
-0.937007
-0.000788963
-0.936512
-0.000866637
-0.936001
-0.000943184
-0.935476
-0.00101857
-0.934936
-0.00109275
-0.934383
-0.00116566
-0.933815
-0.00123714
-0.00130652
-0.933235
-0.830144
0.00327759
-0.830513
0.00317438
-0.830862
0.00306985
-0.831189
0.00296414
-0.831496
0.00285731
-0.83178
0.00274942
-0.832042
0.00264053
-0.832282
0.0025307
-0.8325
0.00241998
-0.832694
0.00230845
-0.832865
0.00219616
-0.833013
0.00208319
-0.833137
0.00196959
-0.833237
0.00185545
-0.833313
0.00174081
-0.833364
0.00162577
-0.833391
0.00151038
-0.833394
0.00139474
-0.833372
0.00127887
-0.833326
0.00116289
-0.833254
0.00104686
-0.833158
0.000930854
-0.833037
0.000814952
-0.832892
0.000699226
-0.832721
0.000583755
-0.832527
0.000468614
-0.832307
0.00035388
-0.832063
0.000239631
-0.831796
0.000125944
-0.831504
1.2895e-05
-0.831188
-9.94383e-05
-0.830849
-0.00021098
-0.830486
-0.000321656
-0.8301
-0.000431389
-0.829692
-0.000540107
-0.829261
-0.000647737
-0.828808
-0.000754205
-0.828334
-0.000859443
-0.827838
-0.000963381
-0.827322
-0.00106595
-0.826785
-0.00116709
-0.826228
-0.00126673
-0.825653
-0.00136482
-0.825058
-0.00146129
-0.824445
-0.00155608
-0.823814
-0.00164915
-0.823167
-0.00174044
-0.822503
-0.00182985
-0.821823
-0.00191716
-0.00200155
-0.821128
-0.733096
0.00375454
-0.73355
0.00362791
-0.733979
0.0034994
-0.734384
0.00336921
-0.734764
0.00323739
-0.735119
0.00310403
-0.735448
0.0029692
-0.73575
0.002833
-0.736025
0.00269551
-0.736274
0.0025568
-0.736495
0.00241698
-0.736687
0.00227612
-0.736852
0.00213433
-0.736988
0.00199169
-0.737096
0.0018483
-0.737174
0.00170425
-0.737224
0.00155966
-0.737244
0.00141461
-0.737234
0.00126917
-0.737195
0.0011235
-0.737125
0.000977685
-0.737026
0.000831824
-0.736897
0.000686027
-0.736739
0.000540402
-0.73655
0.000395057
-0.736331
0.000250105
-0.736083
0.000105656
-0.735805
-3.81759e-05
-0.735498
-0.000181279
-0.735162
-0.000323539
-0.734796
-0.000464844
-0.734402
-0.000605078
-0.73398
-0.000744128
-0.733529
-0.00088188
-0.733051
-0.00101822
-0.732546
-0.00115304
-0.732014
-0.00128624
-0.731456