/*--------------------------------*- C++ -*----------------------------------*\
  =========                 |
  \\      /  F ield         | OpenFOAM: The Open Source CFD Toolbox
   \\    /   O peration     | Website:  https://openfoam.org
    \\  /    A nd           | Version:  9
     \\/     M anipulation  |
\*---------------------------------------------------------------------------*/
FoamFile
{
    format      ascii;
    class       volVectorField;
    location    "0.0075";
    object      U;
}
// * * * * * * * * * * * * * * * * * * * * * * * * * * * * * * * * * * * * * //

dimensions      [0 1 -1 0 0 0 0];

internalField   nonuniform List<vector> 
10802
(
(24.8914 -3.02445 -8.40635e-16)
(24.6743 -3.00638 2.75456e-15)
(24.7771 -3.05597 -1.99863e-15)
(24.7209 -3.04342 2.18995e-15)
(24.7986 -3.10922 -2.38839e-15)
(24.7348 -3.10188 -5.21509e-15)
(24.7644 -3.15794 5.55455e-15)
(24.7462 -3.1723 0)
(24.7464 -3.21277 0)
(24.7441 -3.23911 0)
(24.744 -3.27168 1.32373e-14)
(24.744 -3.30045 -1.37555e-14)
(24.7446 -3.32912 0)
(24.7455 -3.35629 0)
(24.7465 -3.38213 0)
(24.7473 -3.40659 -1.56543e-14)
(24.7478 -3.42962 -5.24027e-21)
(24.7479 -3.45125 1.64383e-14)
(24.7477 -3.47152 0)
(24.747 -3.49045 1.70672e-14)
(24.7461 -3.50812 -1.73143e-14)
(24.745 -3.52459 0)
(24.7437 -3.5399 0)
(24.7424 -3.55411 -1.77553e-14)
(24.741 -3.56728 1.77977e-14)
(24.7397 -3.57945 0)
(24.7384 -3.59068 -1.77247e-14)
(24.7372 -3.60094 -9.21695e-21)
(24.7362 -3.61037 -8.66231e-21)
(24.7353 -3.61898 1.72397e-14)
(24.7344 -3.62683 0)
(24.7337 -3.634 0)
(24.733 -3.64053 0)
(24.7324 -3.64645 0)
(24.7319 -3.65181 1.55942e-14)
(24.7315 -3.65669 3.96422e-21)
(24.7312 -3.66111 -1.47167e-14)
(24.7309 -3.66511 0)
(24.7307 -3.66875 1.37547e-14)
(24.7305 -3.67204 2.37722e-21)
(24.7303 -3.67502 -1.27363e-14)
(24.7301 -3.67772 0)
(24.7299 -3.68016 0)
(24.7296 -3.68238 -1.11622e-14)
(24.7293 -3.68438 1.0638e-14)
(24.729 -3.68619 0)
(24.7285 -3.68781 0)
(24.7279 -3.68928 0)
(24.7273 -3.69059 8.61663e-15)
(24.7264 -3.69176 -8.14084e-15)
(24.7255 -3.69281 0)
(24.7244 -3.69373 7.23561e-15)
(24.7232 -3.69455 -6.80815e-15)
(24.7218 -3.69527 0)
(24.7204 -3.69589 6.00662e-15)
(24.7188 -3.69642 2.56602e-22)
(24.7172 -3.69688 2.18143e-22)
(24.7155 -3.69727 -9.88113e-15)
(24.7137 -3.69759 -1.56689e-22)
(24.7119 -3.69785 -1.41113e-22)
(24.7101 -3.69806 -1.35953e-22)
(24.7082 -3.69822 -1.29089e-22)
(24.7063 -3.69834 -1.12747e-22)
(24.7044 -3.69842 6.5504e-15)
(24.7026 -3.69847 -3.05223e-15)
(24.7007 -3.69849 0)
(24.6989 -3.69848 -2.64733e-15)
(24.6971 -3.69845 4.92811e-15)
(24.6954 -3.69841 -2.29268e-15)
(24.6937 -3.69835 0)
(24.6921 -3.69827 -1.98304e-15)
(24.6905 -3.69819 3.68704e-15)
(24.6889 -3.6981 -1.7134e-15)
(24.6875 -3.698 -1.59212e-15)
(24.6861 -3.6979 1.47913e-15)
(24.6847 -3.6978 1.3739e-15)
(24.6834 -3.69769 1.80608e-23)
(24.6822 -3.69758 2.02655e-23)
(24.681 -3.69748 3.16059e-23)
(24.6799 -3.69736 2.84099e-23)
(24.9049 -3.01746 4.10108e-16)
(24.6466 -2.98779 -1.34511e-15)
(24.7528 -3.05221 9.74695e-16)
(24.6703 -3.026 2.13468e-15)
(24.75 -3.10665 -2.32504e-15)
(24.6727 -3.08937 0)
(24.6948 -3.15349 5.41238e-15)
(24.6702 -3.16568 -5.69281e-15)
(24.6643 -3.2101 0)
(24.6579 -3.23641 0)
(24.6535 -3.27162 0)
(24.6504 -3.30167 0)
(24.6484 -3.33224 -1.41976e-14)
(24.6473 -3.36093 1.47407e-14)
(24.6467 -3.3882 -1.52671e-14)
(24.6464 -3.41387 1.57718e-14)
(24.6461 -3.43788 0)
(24.6455 -3.46032 1.66972e-14)
(24.6448 -3.4814 -3.42164e-14)
(24.6439 -3.501 1.74784e-14)
(24.6431 -3.51904 0)
(24.6423 -3.5356 0)
(24.6416 -3.5508 -1.83046e-14)
(24.641 -3.56471 1.84756e-14)
(24.6406 -3.57742 0)
(24.6403 -3.58902 0)
(24.6402 -3.5996 -1.86549e-14)
(24.6401 -3.60925 1.86035e-14)
(24.6402 -3.61799 -1.84983e-14)
(24.6403 -3.62585 1.83412e-14)
(24.6404 -3.63303 0)
(24.6407 -3.63962 0)
(24.641 -3.64569 0)
(24.6413 -3.65128 0)
(24.6417 -3.65645 0)
(24.6422 -3.66122 0)
(24.6428 -3.66565 0)
(24.6433 -3.66975 0)
(24.6439 -3.67353 0)
(24.6444 -3.67703 -1.45162e-14)
(24.6447 -3.68027 1.39786e-14)
(24.645 -3.68324 0)
(24.6449 -3.68596 -1.28665e-14)
(24.6446 -3.68842 1.23e-14)
(24.6438 -3.69062 0)
(24.6426 -3.69257 0)
(24.6409 -3.69426 0)
(24.6386 -3.6957 0)
(24.6358 -3.6969 9.51182e-15)
(24.6324 -3.69787 -8.98467e-15)
(24.6285 -3.69863 0)
(24.6242 -3.69918 0)
(24.6194 -3.69956 0)
(24.6142 -3.69978 0)
(24.6087 -3.69986 0)
(24.6029 -3.69981 -6.19583e-15)
(24.597 -3.69964 5.80067e-15)
(24.5909 -3.69938 0)
(24.5847 -3.69903 0)
(24.5785 -3.69861 0)
(24.5723 -3.69814 0)
(24.5661 -3.69763 0)
(24.56 -3.69708 0)
(24.5541 -3.69651 0)
(24.5482 -3.69592 0)
(24.5425 -3.69531 0)
(24.537 -3.6947 0)
(24.5317 -3.69409 0)
(24.5265 -3.69348 0)
(24.5216 -3.69288 0)
(24.5168 -3.69228 0)
(24.5123 -3.6917 0)
(24.508 -3.69114 -1.86302e-15)
(24.5038 -3.69059 1.73034e-15)
(24.4999 -3.69006 0)
(24.4962 -3.68955 0)
(24.4927 -3.68907 0)
(24.4893 -3.6886 0)
(24.4862 -3.68814 0)
(24.4832 -3.68772 0)
(24.9198 -3.00607 0)
(24.6282 -2.97129 0)
(24.7415 -3.04036 0)
(24.6443 -3.0103 0)
(24.726 -3.09632 0)
(24.6398 -3.07631 0)
(24.6603 -3.14589 0)
(24.6302 -3.15624 0)
(24.6221 -3.2038 0)
(24.6127 -3.23106 0)
(24.6065 -3.2682 0)
(24.6018 -3.29965 -6.8128e-15)
(24.5986 -3.33203 -7.27784e-21)
(24.5966 -3.3623 1.4816e-14)
(24.5955 -3.39127 -7.69778e-15)
(24.5947 -3.41869 0)
(24.5943 -3.44437 0)
(24.5937 -3.46844 0)
(24.5932 -3.49134 -1.74938e-14)
(24.5928 -3.51286 1.79369e-14)
(24.5925 -3.53284 0)
(24.5923 -3.55136 -1.86903e-14)
(24.5924 -3.56853 3.79852e-14)
(24.5926 -3.58444 -1.92409e-14)
(24.5931 -3.59917 -1.94329e-14)
(24.5938 -3.6128 9.02018e-21)
(24.5946 -3.62539 1.96426e-14)
(24.5956 -3.63704 -1.96596e-14)
(24.5968 -3.64779 8.85139e-21)
(24.598 -3.6577 3.90418e-14)
(24.5993 -3.66684 -1.93681e-14)
(24.6006 -3.67524 0)
(24.602 -3.68296 0)
(24.6035 -3.69006 0)
(24.6049 -3.69656 -1.82488e-14)
(24.6063 -3.70253 1.78538e-14)
(24.6077 -3.70799 0)
(24.609 -3.71298 0)
(24.6101 -3.71752 -1.64355e-14)
(24.6109 -3.72162 1.58962e-14)
(24.6114 -3.72529 -1.53305e-14)
(24.6112 -3.72854 1.47433e-14)
(24.6103 -3.73136 0)
(24.6085 -3.73375 0)
(24.6057 -3.73571 0)
(24.6018 -3.73724 1.22782e-14)
(24.5966 -3.73834 -2.44497e-21)
(24.5903 -3.73903 -2.18235e-21)
(24.5828 -3.73934 -1.04436e-14)
(24.5742 -3.73929 0)
(24.5646 -3.7389 0)
(24.554 -3.73821 -8.73587e-15)
(24.5426 -3.73725 8.2062e-15)
(24.5306 -3.73606 0)
(24.5182 -3.7347 7.214e-15)
(24.5054 -3.73321 -6.75265e-15)
(24.4924 -3.73161 -6.31473e-15)
(24.4795 -3.72994 5.90006e-15)
(24.4665 -3.72824 0)
(24.4537 -3.72649 0)
(24.441 -3.72473 0)
(24.4286 -3.72296 4.46445e-15)
(24.4165 -3.7212 -4.15784e-15)
(24.4047 -3.71945 -3.87049e-15)
(24.3933 -3.71774 3.60148e-15)
(24.3823 -3.71608 0)
(24.3717 -3.71445 -3.11486e-15)
(24.3616 -3.71288 5.79083e-15)
(24.3519 -3.71136 -2.6907e-15)
(24.3427 -3.70989 -2.49985e-15)
(24.3339 -3.7085 2.32202e-15)
(24.3256 -3.70717 0)
(24.3177 -3.70589 2.00225e-15)
(24.3103 -3.70468 -1.85882e-15)
(24.3032 -3.70353 1.72541e-15)
(24.2966 -3.70243 -1.60137e-15)
(24.2903 -3.7014 0)
(24.2844 -3.70042 0)
(24.2789 -3.6995 0)
(24.2737 -3.69862 -2.28093e-15)
(24.9357 -2.98924 0)
(24.6084 -2.94845 -8.7429e-16)
(24.7273 -3.0251 1.89628e-15)
(24.613 -2.9884 1.03771e-15)
(24.6957 -3.07977 1.29227e-20)
(24.5992 -3.05766 -2.45832e-15)
(24.6172 -3.13255 0)
(24.5802 -3.14195 0)
(24.5692 -3.19293 0)
(24.5557 -3.22188 0)
(24.5471 -3.26144 0)
(24.5399 -3.2947 0)
(24.5349 -3.32943 -7.12163e-15)
(24.5315 -3.36172 1.488e-14)
(24.5293 -3.39284 -1.55099e-14)
(24.5277 -3.42227 8.064e-15)
(24.5267 -3.44976 8.36445e-15)
(24.5257 -3.47587 -1.73071e-14)
(24.5248 -3.50094 8.92833e-15)
(24.5243 -3.5243 9.18591e-15)
(24.524 -3.54594 -1.88471e-14)
(24.524 -3.56601 9.63879e-15)
(24.5244 -3.58459 9.82928e-15)
(24.525 -3.60176 -9.99308e-15)
(24.5259 -3.61761 2.02572e-14)
(24.527 -3.63222 -2.04693e-14)
(24.5283 -3.64568 2.06209e-14)
(24.5298 -3.65806 -2.07113e-14)
(24.5314 -3.66946 0)
(24.5331 -3.67994 0)
(24.5349 -3.68958 0)
(24.5368 -3.69846 0)
(24.5387 -3.70663 -2.02615e-14)
(24.5407 -3.71416 3.9998e-14)
(24.5426 -3.72109 -1.96821e-14)
(24.5446 -3.72746 0)
(24.5464 -3.73331 0)
(24.5479 -3.73864 1.84207e-14)
(24.5489 -3.74344 -1.7904e-14)
(24.5492 -3.7477 1.73448e-14)
(24.5485 -3.75139 -1.67482e-14)
(24.5464 -3.75449 -1.61196e-14)
(24.5426 -3.75697 7.42325e-21)
(24.5367 -3.75878 1.47919e-14)
(24.5287 -3.75992 1.41068e-14)
(24.5184 -3.76038 -2.68332e-14)
(24.5057 -3.7602 1.27275e-14)
(24.4907 -3.75939 0)
(24.4736 -3.75801 1.13749e-14)
(24.4547 -3.75612 -1.07207e-14)
(24.434 -3.75377 0)
(24.412 -3.75105 9.4741e-15)
(24.389 -3.748 -1.77728e-14)
(24.3651 -3.74472 8.32451e-15)
(24.3408 -3.74124 0)
(24.3162 -3.73764 7.28101e-15)
(24.2916 -3.73396 -6.79979e-15)
(24.2672 -3.73024 0)
(24.2432 -3.72653 -5.9169e-15)
(24.2196 -3.72286 5.51395e-15)
(24.1967 -3.71924 0)
(24.1744 -3.71571 4.78069e-15)
(24.1529 -3.71228 -4.44837e-15)
(24.1323 -3.70896 0)
(24.1125 -3.70576 3.84698e-15)
(24.0936 -3.7027 -7.15146e-15)
(24.0755 -3.69976 6.64534e-15)
(24.0584 -3.69695 -3.08674e-15)
(24.0422 -3.69429 0)
(24.0268 -3.69175 -2.66221e-15)
(24.0123 -3.68935 2.47169e-15)
(23.9986 -3.68708 -2.29442e-15)
(23.9856 -3.68493 1.06718e-22)
(23.9735 -3.6829 3.95262e-15)
(23.962 -3.68099 -3.66774e-15)
(23.9513 -3.6792 1.70152e-15)
(23.9412 -3.67751 0)
(23.9318 -3.67592 0)
(23.923 -3.67443 0)
(23.9147 -3.67304 0)
(24.9523 -2.96859 -3.93833e-16)
(24.5893 -2.92215 -4.32156e-16)
(24.7153 -3.00606 9.36334e-16)
(24.5854 -2.96335 0)
(24.6684 -3.06133 0)
(24.5629 -3.0362 0)
(24.5783 -3.11523 0)
(24.5343 -3.12461 -2.74454e-15)
(24.5212 -3.17947 2.90115e-15)
(24.5035 -3.2101 0)
(24.4925 -3.25253 0)
(24.483 -3.28787 0)
(24.4763 -3.32537 0)
(24.4716 -3.3601 7.46608e-15)
(24.4683 -3.39383 -7.80449e-15)
(24.466 -3.42575 -8.13965e-15)
(24.4644 -3.45573 1.69376e-14)
(24.4632 -3.4844 -8.78911e-15)
(24.4622 -3.51204 9.09747e-15)
(24.4617 -3.53785 -9.39085e-15)
(24.4617 -3.56184 -9.66626e-15)
(24.4622 -3.58417 1.98417e-14)
(24.4631 -3.60492 -9.65672e-21)
(24.4644 -3.62416 -1.03573e-14)
(24.4661 -3.64198 0)
(24.4681 -3.65845 0)
(24.4704 -3.67366 0)
(24.4728 -3.6877 0)
(24.4755 -3.70064 0)
(24.4782 -3.71256 0)
(24.481 -3.72354 0)
(24.484 -3.73366 -1.09115e-14)
(24.4869 -3.74296 1.08384e-14)
(24.49 -3.75151 -1.07336e-14)
(24.4929 -3.75935 1.05969e-14)
(24.4957 -3.76653 -1.04281e-14)
(24.4982 -3.77306 1.02271e-14)
(24.5 -3.77891 0)
(24.5007 -3.78401 0)
(24.4997 -3.7883 0)
(24.4965 -3.79172 -9.12109e-15)
(24.4903 -3.79417 5.48878e-21)
(24.4806 -3.79558 8.42245e-15)
(24.467 -3.79592 0)
(24.4492 -3.79516 -1.534e-14)
(24.4273 -3.79335 1.45705e-14)
(24.4013 -3.79053 0)
(24.3716 -3.7868 0)
(24.3385 -3.78227 0)
(24.3028 -3.77707 0)
(24.2648 -3.77133 -1.08609e-14)
(24.2252 -3.76517 3.21766e-21)
(24.1844 -3.75872 2.80076e-21)
(24.1432 -3.75208 8.91971e-15)
(24.1017 -3.74534 0)
(24.0606 -3.7386 -7.77957e-15)
(24.02 -3.73192 1.45126e-14)
(23.9803 -3.72535 -6.76349e-15)
(23.9417 -3.71893 0)
(23.9044 -3.71272 0)
(23.8684 -3.70672 0)
(23.8339 -3.70096 0)
(23.801 -3.69545 0)
(23.7696 -3.69019 0)
(23.7397 -3.6852 0)
(23.7114 -3.68046 0)
(23.6847 -3.67598 0)
(23.6595 -3.67175 0)
(23.6357 -3.66776 0)
(23.6133 -3.66401 0)
(23.5922 -3.66048 2.61435e-15)
(23.5725 -3.65716 -2.42628e-15)
(23.554 -3.65406 2.25148e-15)
(23.5367 -3.65114 -2.08905e-15)
(23.5204 -3.64842 0)
(23.5053 -3.64587 1.79803e-15)
(23.4911 -3.64348 -1.6679e-15)
(23.4778 -3.64126 -1.54709e-15)
(23.4655 -3.63917 1.43494e-15)
(23.4539 -3.63725 2.53661e-15)
(24.9692 -2.94498 3.89113e-16)
(24.5708 -2.89297 -4.27479e-16)
(24.7038 -2.98416 0)
(24.5586 -2.9354 0)
(24.6417 -3.03959 0)
(24.5276 -3.01199 2.39125e-15)
(24.5397 -3.09503 -5.11265e-15)
(24.4888 -3.10442 -1.67186e-20)
(24.4734 -3.16362 2.87519e-15)
(24.4512 -3.19585 -3.04194e-15)
(24.4376 -3.24152 9.63756e-15)
(24.4254 -3.27919 1.89401e-20)
(24.4168 -3.31979 -7.12869e-15)
(24.4105 -3.35728 0)
(24.406 -3.39396 0)
(24.4027 -3.4287 8.2073e-15)
(24.4004 -3.46151 -8.56375e-15)
(24.3987 -3.493 0)
(24.3974 -3.52347 -9.25503e-15)
(24.3968 -3.552 1.91672e-14)
(24.3969 -3.57859 -9.17662e-21)
(24.3976 -3.60339 -1.01906e-14)
(24.3989 -3.62648 0)
(24.4008 -3.64792 -1.07107e-14)
(24.4031 -3.66779 1.52248e-20)
(24.4058 -3.68619 1.11238e-14)
(24.4089 -3.70319 0)
(24.4121 -3.71888 0)
(24.4156 -3.73335 0)
(24.4192 -3.74669 0)
(24.4229 -3.75899 0)
(24.4267 -3.7703 0)
(24.4306 -3.78064 1.1568e-14)
(24.4346 -3.79009 -1.14948e-14)
(24.4384 -3.79876 0)
(24.4419 -3.80667 0)
(24.4446 -3.81379 1.10464e-14)
(24.446 -3.82002 -1.13709e-20)
(24.445 -3.82522 -1.05101e-20)
(24.4407 -3.82922 -9.65403e-21)
(24.4318 -3.83182 -8.81022e-21)
(24.4173 -3.83287 -9.52376e-15)
(24.3965 -3.83227 9.12748e-15)
(24.3688 -3.82998 -1.74273e-14)
(24.3342 -3.82603 1.65773e-14)
(24.293 -3.82054 -7.85879e-15)
(24.2457 -3.81366 0)
(24.1931 -3.80561 0)
(24.1363 -3.7966 0)
(24.0763 -3.78686 0)
(24.014 -3.77661 0)
(23.9503 -3.76605 0)
(23.8863 -3.75535 0)
(23.8225 -3.74466 0)
(23.7595 -3.73409 0)
(23.6979 -3.72376 0)
(23.6381 -3.71372 0)
(23.5804 -3.70404 3.58411e-15)
(23.5249 -3.69475 -3.3364e-15)
(23.4718 -3.68589 0)
(23.4212 -3.67746 0)
(23.3732 -3.66948 0)
(23.3277 -3.66193 0)
(23.2848 -3.65482 -2.31914e-15)
(23.2443 -3.64812 3.28087e-22)
(23.2062 -3.64184 2.82341e-22)
(23.1704 -3.63595 3.71732e-15)
(23.1369 -3.63044 -1.72584e-15)
(23.1054 -3.62528 1.60226e-15)
(23.076 -3.62047 -1.54626e-22)
(23.0485 -3.61597 -1.32971e-22)
(23.0228 -3.61177 -2.56229e-15)
(22.9988 -3.60786 2.3777e-15)
(22.9764 -3.60422 -2.2062e-15)
(22.9556 -3.60083 2.0469e-15)
(22.9361 -3.59767 -1.89895e-15)
(22.918 -3.59473 5.23393e-23)
(22.9012 -3.592 1.63405e-15)
(22.8855 -3.58946 -1.51566e-15)
(22.8709 -3.58711 2.66733e-15)
(24.9861 -2.91924 0)
(24.5528 -2.86184 0)
(24.693 -2.9602 0)
(24.5334 -2.9055 -1.00095e-15)
(24.6161 -3.01572 1.0853e-15)
(24.4939 -2.98568 -2.36118e-15)
(24.5025 -3.0726 2.52498e-15)
(24.4448 -3.08217 2.68634e-15)
(24.4271 -3.14577 -2.85041e-15)
(24.4 -3.1794 0)
(24.3836 -3.22874 -3.19781e-15)
(24.3686 -3.26901 -1.13591e-20)
(24.358 -3.31293 7.12762e-15)
(24.3499 -3.35343 3.75197e-15)
(24.344 -3.39338 -7.88458e-15)
(24.3396 -3.43126 0)
(24.3364 -3.4672 0)
(24.3341 -3.50179 -9.02873e-15)
(24.3323 -3.53542 9.40137e-15)
(24.3316 -3.56703 -9.76433e-15)
(24.3317 -3.59659 1.01143e-14)
(24.3327 -3.62424 1.04478e-14)
(24.3345 -3.65006 -2.15236e-14)
(24.3369 -3.6741 1.10531e-14)
(24.3399 -3.69644 0)
(24.3434 -3.71716 -1.15573e-14)
(24.3473 -3.73635 2.35317e-14)
(24.3515 -3.75409 -2.13536e-20)
(24.3559 -3.7705 -1.2088e-14)
(24.3605 -3.78564 0)
(24.3653 -3.79956 0)
(24.3702 -3.81226 0)
(24.3753 -3.82391 1.23209e-14)
(24.3803 -3.83465 -1.22847e-14)
(24.3852 -3.84451 0)
(24.3893 -3.85344 -1.20796e-14)
(24.3919 -3.8613 2.3808e-14)
(24.3918 -3.86788 -1.16766e-14)
(24.3873 -3.87288 -1.1397e-14)
(24.3765 -3.87595 2.21359e-14)
(24.3576 -3.8768 -1.06942e-14)
(24.329 -3.87522 0)
(24.2899 -3.8711 0)
(24.2401 -3.86449 0)
(24.1799 -3.85556 0)
(24.1105 -3.8446 8.42534e-15)
(24.0332 -3.83196 -7.9495e-15)
(23.9497 -3.81803 0)
(23.8618 -3.80317 0)
(23.771 -3.78774 0)
(23.6788 -3.77204 -6.16903e-15)
(23.5867 -3.75635 5.76857e-15)
(23.4955 -3.74086 0)
(23.4063 -3.72574 0)
(23.3197 -3.71113 4.69026e-15)
(23.2362 -3.6971 -4.37146e-15)
(23.1562 -3.68373 0)
(23.0799 -3.67104 0)
(23.0074 -3.65905 0)
(22.9388 -3.64776 0)
(22.8742 -3.63717 0)
(22.8133 -3.62725 0)
(22.7561 -3.61798 0)
(22.7026 -3.60934 2.45299e-15)
(22.6525 -3.60128 -4.17218e-22)
(22.6057 -3.59379 -2.1175e-15)
(22.562 -3.58683 -1.96685e-15)
(22.5212 -3.58037 2.65355e-22)
(22.4833 -3.57437 2.28162e-22)
(22.4479 -3.5688 1.57482e-15)
(22.415 -3.56364 0)
(22.3845 -3.55885 -1.35707e-15)
(22.3561 -3.55442 1.25956e-15)
(22.3297 -3.55031 1.16894e-15)
(22.3052 -3.54651 -2.1695e-15)
(22.2824 -3.54298 1.00654e-15)
(22.2613 -3.53972 -9.33899e-16)
(22.2417 -3.53669 1.73288e-15)
(22.2235 -3.53389 -7.26304e-23)
(22.2066 -3.53132 -1.40779e-15)
(25.0029 -2.89201 1.9022e-16)
(24.5354 -2.82936 -2.09455e-16)
(24.6827 -2.93464 0)
(24.5092 -2.87424 0)
(24.5912 -2.99019 1.07295e-15)
(24.4614 -2.95776 -1.16649e-15)
(24.4662 -3.04869 0)
(24.402 -3.05829 0)
(24.3817 -3.1262 0)
(24.3497 -3.161 0)
(24.3304 -3.2144 3.1831e-15)
(24.3123 -3.25749 1.34984e-20)
(24.2995 -3.30483 1.1445e-20)
(24.2892 -3.34848 8.69208e-21)
(24.2817 -3.39196 -3.95801e-15)
(24.2759 -3.43318 0)
(24.2716 -3.47256 0)
(24.2686 -3.51047 0)
(24.2662 -3.54746 0)
(24.2651 -3.58245 -9.93314e-15)
(24.2651 -3.61527 1.03195e-14)
(24.2663 -3.64606 1.06922e-14)
(24.2683 -3.6749 -1.10479e-14)
(24.2712 -3.70182 0)
(24.2748 -3.72689 -1.16954e-14)
(24.279 -3.7502 1.19814e-14)
(24.2837 -3.77184 0)
(24.2888 -3.79187 0)
(24.2941 -3.81045 -1.26624e-14)
(24.2997 -3.82754 2.56495e-14)
(24.3056 -3.84312 -1.29523e-14)
(24.3117 -3.85744 1.30428e-14)
(24.3179 -3.8707 -2.61868e-14)
(24.3241 -3.88293 1.30998e-14)
(24.3298 -3.89411 1.30563e-14)
(24.3343 -3.90409 -1.29567e-14)
(24.336 -3.9126 0)
(24.3327 -3.91921 0)
(24.3216 -3.92336 1.22755e-14)
(24.2996 -3.92453 -1.19194e-14)
(24.2642 -3.92228 0)
(24.2135 -3.91641 -1.10491e-14)
(24.1471 -3.90693 1.05564e-14)
(24.0654 -3.89409 0)
(23.9701 -3.87836 0)
(23.8635 -3.8603 0)
(23.7482 -3.84052 0)
(23.627 -3.81961 0)
(23.5024 -3.79812 -7.4632e-15)
(23.3767 -3.7765 6.99081e-15)
(23.2517 -3.75513 0)
(23.1291 -3.73428 0)
(23.01 -3.71419 0)
(22.8952 -3.69499 0)
(22.7855 -3.67678 0)
(22.6812 -3.65961 0)
(22.5824 -3.64351 0)
(22.4894 -3.62846 0)
(22.402 -3.61445 0)
(22.3202 -3.60144 0)
(22.2437 -3.58938 0)
(22.1724 -3.57822 0)
(22.106 -3.56792 0)
(22.0442 -3.5584 0)
(21.9869 -3.54963 0)
(21.9337 -3.54155 0)
(21.8843 -3.5341 0)
(21.8386 -3.52725 0)
(21.7962 -3.52094 1.8056e-15)
(21.757 -3.51513 -1.67712e-15)
(21.7207 -3.50978 0)
(21.687 -3.50485 0)
(21.6559 -3.50032 -1.34292e-15)
(21.6272 -3.49614 1.24674e-15)
(21.6005 -3.4923 0)
(21.5759 -3.48876 -1.07423e-15)
(21.5531 -3.48549 1.99401e-15)
(21.532 -3.48248 -9.25252e-16)
(21.5125 -3.47971 8.58595e-16)
(21.4944 -3.47718 -2.99182e-15)
(25.0194 -2.86383 0)
(24.5188 -2.79603 0)
(24.6733 -2.90783 0)
(24.4875 -2.84218 -9.79861e-16)
(24.5673 -2.9635 1.06125e-15)
(24.4314 -2.92867 -1.15322e-15)
(24.4311 -3.02381 2.46804e-15)
(24.3605 -3.03312 -1.31715e-15)
(24.3375 -3.10525 2.80409e-15)
(24.3005 -3.14114 -5.96633e-15)
(24.2783 -3.19869 3.16829e-15)
(24.2567 -3.24459 0)
(24.2415 -3.29549 0)
(24.2288 -3.34241 0)
(24.2194 -3.38961 -3.97107e-15)
(24.2119 -3.43432 4.18334e-15)
(24.2063 -3.47745 0)
(24.2023 -3.51887 0)
(24.1992 -3.55932 0)
(24.1976 -3.59796 0)
(24.1973 -3.63433 0)
(24.1984 -3.66855 0)
(24.2007 -3.7007 0)
(24.204 -3.7308 0)
(24.2081 -3.75892 -6.02962e-15)
(24.2129 -3.78512 6.19728e-15)
(24.2184 -3.8095 -6.35175e-15)
(24.2243 -3.83213 1.60875e-20)
(24.2305 -3.85316 6.61697e-15)
(24.2372 -3.87243 0)
(24.2442 -3.89003 0)
(24.2515 -3.90635 0)
(24.2589 -3.92149 0)
(24.2663 -3.93545 0)
(24.2729 -3.94813 0)
(24.2772 -3.95924 0)
(24.2768 -3.96826 0)
(24.2678 -3.97442 0)
(24.2458 -3.97684 0)
(24.2064 -3.97476 0)
(24.1464 -3.96771 0)
(24.0642 -3.95558 0)
(23.9604 -3.93872 0)
(23.8372 -3.91778 0)
(23.6979 -3.89362 0)
(23.5468 -3.8672 0)
(23.3878 -3.83941 8.9871e-15)
(23.2248 -3.81107 -8.43992e-15)
(23.0612 -3.78282 0)
(22.8996 -3.75519 0)
(22.742 -3.72855 0)
(22.5902 -3.70318 -6.48135e-15)
(22.4452 -3.67924 6.05448e-15)
(22.3076 -3.65682 5.65244e-15)
(22.1779 -3.63596 -5.27447e-15)
(22.0562 -3.61663 0)
(21.9425 -3.59881 0)
(21.8366 -3.58242 0)
(21.7382 -3.56738 0)
(21.647 -3.55362 3.7101e-15)
(21.5626 -3.54104 -3.45478e-15)
(21.4847 -3.52956 -3.21617e-15)
(21.4127 -3.51908 2.9933e-15)
(21.3463 -3.50954 0)
(21.2852 -3.50084 0)
(21.2288 -3.49291 0)
(21.177 -3.48569 -2.24084e-15)
(21.1292 -3.47911 4.16664e-15)
(21.0852 -3.47312 -1.93652e-15)
(21.0448 -3.46765 -1.79975e-15)
(21.0075 -3.46267 1.67236e-15)
(20.9732 -3.45812 1.55375e-15)
(20.9416 -3.45396 -1.44334e-15)
(20.9126 -3.45017 -1.34059e-15)
(20.8858 -3.4467 1.24499e-15)
(20.8611 -3.44354 0)
(20.8384 -3.44064 0)
(20.8174 -3.43799 0)
(20.7981 -3.43556 0)
(20.7803 -3.43336 1.60242e-15)
(25.0355 -2.83519 0)
(24.503 -2.76232 0)
(24.6642 -2.88026 0)
(24.4668 -2.80973 9.70022e-16)
(24.5443 -2.93607 -1.05013e-15)
(24.4025 -2.89881 1.14064e-15)
(24.3973 -2.99814 -1.22097e-15)
(24.3205 -3.007 1.30509e-15)
(24.2945 -3.08319 1.37043e-20)
(24.2526 -3.12008 1.48225e-15)
(24.2274 -3.18174 -3.1534e-15)
(24.2018 -3.2304 -3.35056e-15)
(24.1841 -3.28494 3.5544e-15)
(24.1687 -3.33516 3.76508e-15)
(24.1571 -3.38619 -7.96315e-15)
(24.1477 -3.43454 4.20321e-15)
(24.1406 -3.48162 4.42891e-15)
(24.1353 -3.52667 -4.65745e-15)
(24.1313 -3.57072 4.88752e-15)
(24.1289 -3.61322 -5.11751e-15)
(24.1282 -3.65338 0)
(24.1291 -3.69127 -5.57026e-15)
(24.1314 -3.72698 1.24257e-20)
(24.1349 -3.76053 6.00153e-15)
(24.1394 -3.79195 6.2047e-15)
(24.1448 -3.82132 -1.71793e-20)
(24.1509 -3.8487 -6.57837e-15)
(24.1575 -3.87419 0)
(24.1647 -3.89791 -6.89981e-15)
(24.1724 -3.91966 7.03811e-15)
(24.1805 -3.9396 -7.15964e-15)
(24.189 -3.95816 7.26247e-15)
(24.1976 -3.9754 7.34334e-15)
(24.2062 -3.99128 -7.39759e-15)
(24.2134 -4.00559 -7.41864e-15)
(24.217 -4.01782 7.39924e-15)
(24.2127 -4.02703 0)
(24.1946 -4.03199 0)
(24.156 -4.03143 0)
(24.0915 -4.02441 0)
(23.9974 -4.01053 6.58019e-15)
(23.8736 -3.99007 -1.25964e-14)
(23.7227 -3.96391 9.65915e-21)
(23.5494 -3.93329 8.49032e-21)
(23.3596 -3.89963 5.37496e-15)
(23.1593 -3.86425 0)
(22.954 -3.82833 0)
(22.7486 -3.79281 0)
(22.5468 -3.75841 4.19801e-15)
(22.3514 -3.72563 -7.86712e-15)
(22.1645 -3.6948 3.68276e-15)
(21.9875 -3.66609 -3.44561e-15)
(21.821 -3.63958 3.22188e-15)
(21.6656 -3.61526 -3.01115e-15)
(21.5211 -3.59308 5.62587e-15)
(21.3873 -3.57293 -2.62669e-15)
(21.2639 -3.55469 0)
(21.1504 -3.53822 -2.28778e-15)
(21.0462 -3.52339 2.13398e-15)
(20.9507 -3.51006 -1.98986e-15)
(20.8633 -3.49809 1.8549e-15)
(20.7834 -3.48735 0)
(20.7103 -3.47772 -1.61035e-15)
(20.6436 -3.46908 2.99961e-15)
(20.5828 -3.46136 -3.6664e-22)
(20.5272 -3.45444 -3.17988e-22)
(20.4765 -3.44825 -2.41951e-15)
(20.4302 -3.4427 1.12558e-15)
(20.3879 -3.43773 0)
(20.3492 -3.43327 0)
(20.314 -3.42926 0)
(20.2817 -3.42566 -8.41714e-16)
(20.2522 -3.42244 1.31421e-22)
(20.2252 -3.41953 1.45408e-15)
(20.2005 -3.41691 -1.19141e-22)
(20.1779 -3.41455 -1.25514e-15)
(20.1571 -3.41241 1.16586e-15)
(20.1381 -3.41049 -1.08278e-15)
(20.1206 -3.40871 3.17111e-23)
(20.1046 -3.40717 8.65495e-16)
(25.0512 -2.80646 0)
(24.488 -2.72869 0)
(24.6557 -2.85244 0)
(24.4473 -2.77723 4.80275e-16)
(24.5223 -2.90824 -5.19728e-16)
(24.375 -2.86863 -1.12866e-15)
(24.3649 -2.97192 1.20856e-15)
(24.2821 -2.98014 1.29349e-15)
(24.253 -3.06024 1.5211e-20)
(24.206 -3.09804 -1.47302e-15)
(24.1777 -3.16371 1.56918e-15)
(24.148 -3.21497 -1.6699e-15)
(24.1275 -3.27322 0)
(24.1091 -3.32672 0)
(24.0951 -3.38165 0)
(24.0835 -3.43372 0)
(24.0745 -3.48485 -4.45572e-15)
(24.0678 -3.53366 4.69587e-15)
(24.0627 -3.58144 0)
(24.0593 -3.62791 5.18403e-15)
(24.058 -3.67206 -5.42886e-15)
(24.0585 -3.71384 -5.67187e-15)
(24.0606 -3.75333 5.91132e-15)
(24.0641 -3.79055 -6.14535e-15)
(24.0689 -3.82552 1.78367e-20)
(24.0746 -3.8583 1.951e-20)
(24.0813 -3.88894 2.0881e-20)
(24.0886 -3.91755 6.99477e-15)
(24.0965 -3.94424 0)
(24.1051 -3.9688 0)
(24.1143 -3.99137 0)
(24.124 -4.01241 0)
(24.1339 -4.03199 7.75003e-15)
(24.1436 -4.05001 -2.31322e-20)
(24.1513 -4.0661 -7.87963e-15)
(24.1533 -4.07938 0)
(24.1428 -4.08835 0)
(24.1112 -4.09117 0)
(24.0494 -4.08613 -7.51394e-15)
(23.9508 -4.07221 7.27798e-15)
(23.8129 -4.0494 0)
(23.6378 -4.01866 6.69111e-15)
(23.4315 -3.98166 -1.27305e-14)
(23.202 -3.9404 6.03211e-15)
(22.9579 -3.89681 0)
(22.7071 -3.85261 0)
(22.4564 -3.80914 5.05709e-15)
(22.2109 -3.7674 -4.75324e-15)
(21.9747 -3.72807 0)
(21.7503 -3.69154 4.18715e-15)
(21.5396 -3.65802 -3.64e-21)
(21.3433 -3.62755 -3.67823e-15)
(21.1618 -3.60008 0)
(20.9948 -3.57548 0)
(20.842 -3.55356 0)
(20.7026 -3.53412 -2.82128e-15)
(20.5759 -3.51695 5.27479e-15)
(20.461 -3.50184 -4.92899e-15)
(20.3569 -3.48857 2.30201e-15)
(20.2628 -3.47696 0)
(20.1779 -3.46681 0)
(20.1013 -3.45796 0)
(20.0322 -3.4503 0)
(19.9698 -3.4436 0)
(19.9136 -3.43778 -1.51721e-15)
(19.863 -3.43276 1.41367e-15)
(19.8173 -3.42841 0)
(19.7761 -3.42465 0)
(19.739 -3.4214 0)
(19.7054 -3.41858 1.06234e-15)
(19.675 -3.41615 -9.88442e-16)
(19.6476 -3.41406 0)
(19.6227 -3.41227 0)
(19.6002 -3.41073 7.95072e-16)
(19.5799 -3.4094 -1.25064e-22)
(19.5614 -3.40827 -6.8696e-16)
(19.5447 -3.40731 0)
(19.5295 -3.40649 0)
(19.5157 -3.40577 0)
(19.5031 -3.40519 0)
(25.0662 -2.77797 0)
(24.474 -2.69546 0)
(24.6478 -2.82471 4.34981e-16)
(24.429 -2.74487 -9.51369e-16)
(24.5019 -2.88023 5.1458e-16)
(24.3487 -2.83852 0)
(24.3338 -2.94544 1.19671e-15)
(24.2454 -2.95281 1.70956e-20)
(24.2131 -3.03663 -1.37012e-15)
(24.1609 -3.07525 0)
(24.1295 -3.14472 -1.56152e-15)
(24.0954 -3.1984 1.66418e-15)
(24.0719 -3.26038 0)
(24.0503 -3.31707 0)
(24.0337 -3.37592 -1.99762e-15)
(24.0195 -3.43176 2.11679e-15)
(24.0085 -3.48695 0)
(23.9999 -3.53968 0)
(23.9936 -3.5913 0)
(23.989 -3.64172 0)
(23.9867 -3.69001 0)
(23.9866 -3.73585 5.76626e-15)
(23.9884 -3.7793 -1.44883e-20)
(23.9917 -3.82039 -1.71966e-20)
(23.9965 -3.85912 -6.53175e-15)
(24.0025 -3.89553 0)
(24.0095 -3.92967 0)
(24.0173 -3.96163 7.23646e-15)
(24.026 -3.99152 -7.45115e-15)
(24.0353 -4.0192 0)
(24.0455 -4.04471 0)
(24.0563 -4.06847 8.01178e-15)
(24.0675 -4.09063 -1.63191e-14)
(24.0783 -4.11103 2.74608e-20)
(24.0862 -4.12902 2.69035e-20)
(24.0853 -4.14321 2.60778e-20)
(24.0659 -4.15136 8.31056e-15)
(24.0156 -4.15085 0)
(23.923 -4.13959 0)
(23.7811 -4.11674 -7.72773e-15)
(23.5899 -4.08302 1.48498e-14)
(23.3553 -4.04042 -7.09279e-15)
(23.0878 -3.99161 0)
(22.7989 -3.93936 -6.39313e-15)
(22.4999 -3.88615 6.04426e-15)
(22.2001 -3.83392 0)
(21.9072 -3.78409 0)
(21.6265 -3.7376 5.05995e-15)
(21.3617 -3.69498 -4.75924e-15)
(21.1149 -3.65647 0)
(20.8873 -3.62208 4.20187e-15)
(20.679 -3.5917 -3.94475e-15)
(20.4897 -3.56509 0)
(20.3187 -3.54197 0)
(20.1648 -3.52203 -3.25386e-15)
(20.0268 -3.50495 3.04855e-15)
(19.9036 -3.49043 0)
(19.7938 -3.47815 0)
(19.6962 -3.46786 0)
(19.6095 -3.45931 2.3377e-15)
(19.5328 -3.45223 -4.36991e-15)
(19.4648 -3.44643 2.04126e-15)
(19.4047 -3.44174 0)
(19.3515 -3.43802 0)
(19.3046 -3.43508 -1.66007e-15)
(19.2632 -3.43284 1.54828e-15)
(19.2267 -3.43119 0)
(19.1945 -3.43004 1.34529e-15)
(19.166 -3.42927 -2.4109e-22)
(19.1409 -3.42881 -1.1673e-15)
(19.1186 -3.42862 0)
(19.0989 -3.42863 0)
(19.0814 -3.42882 0)
(19.066 -3.42914 0)
(19.0522 -3.42957 0)
(19.0401 -3.43008 0)
(19.0293 -3.43066 0)
(19.0196 -3.43127 0)
(19.0111 -3.4319 0)
(19.0034 -3.43259 0)
(25.0807 -2.74998 0)
(24.4608 -2.66291 0)
(24.6404 -2.79734 4.30915e-16)
(24.4119 -2.71286 -4.71211e-16)
(24.4828 -2.85227 0)
(24.3237 -2.8086 0)
(24.3039 -2.91895 0)
(24.2103 -2.92536 0)
(24.1748 -3.0126 -1.35997e-15)
(24.1175 -3.05192 1.45478e-15)
(24.0829 -3.12492 0)
(24.0443 -3.18077 0)
(24.0175 -3.24651 0)
(23.9925 -3.30628 0)
(23.973 -3.36898 0)
(23.9561 -3.42854 0)
(23.9427 -3.48778 0)
(23.9319 -3.5446 0)
(23.9242 -3.60014 0)
(23.9183 -3.65438 0)
(23.9148 -3.70692 0)
(23.9138 -3.75695 0)
(23.9149 -3.8045 0)
(23.9179 -3.84962 0)
(23.9225 -3.89228 0)
(23.9285 -3.9325 0)
(23.9357 -3.97034 0)
(23.9439 -4.00586 0)
(23.9531 -4.03915 0)
(23.9631 -4.07022 0)
(23.9741 -4.09899 0)
(23.986 -4.1257 0)
(23.9984 -4.15068 0)
(24.0102 -4.17367 0)
(24.0178 -4.19368 0)
(24.0129 -4.20862 0)
(23.9813 -4.21523 0)
(23.9066 -4.21004 0)
(23.7751 -4.19069 0)
(23.5809 -4.15692 0)
(23.3281 -4.11058 0)
(23.0281 -4.05501 0)
(22.696 -3.994 0)
(22.3472 -3.93107 -6.77667e-15)
(21.9952 -3.86909 6.41563e-15)
(21.6504 -3.81013 0)
(21.3207 -3.75555 0)
(21.0112 -3.70611 0)
(20.7249 -3.66214 5.0927e-15)
(20.4633 -3.62363 -4.79781e-15)
(20.2266 -3.59039 4.51726e-15)
(20.0142 -3.56207 -4.25065e-15)
(19.825 -3.53824 0)
(19.6576 -3.51847 0)
(19.5101 -3.5023 3.52929e-15)
(19.3809 -3.48929 -3.31326e-15)
(19.2682 -3.47903 3.10855e-15)
(19.1703 -3.47107 -5.82943e-15)
(19.0855 -3.46527 2.73134e-15)
(19.0125 -3.46102 0)
(18.9498 -3.45831 2.39427e-15)
(18.8961 -3.45683 -2.23976e-15)
(18.8502 -3.45629 0)
(18.8111 -3.45651 0)
(18.7779 -3.45738 0)
(18.7498 -3.45876 1.70623e-15)
(18.7261 -3.46054 -4.85083e-22)
(18.7062 -3.46261 -2.96997e-15)
(18.6896 -3.4649 2.76898e-15)
(18.6758 -3.46736 -3.17644e-22)
(18.6644 -3.46991 -2.40415e-15)
(18.655 -3.47253 1.1195e-15)
(18.6474 -3.47516 1.04225e-15)
(18.6412 -3.47779 -1.94009e-15)
(18.6363 -3.48039 1.80517e-15)
(18.6325 -3.48294 -1.3602e-22)
(18.6295 -3.48542 -7.80807e-16)
(18.6272 -3.48782 0)
(18.6256 -3.49013 0)
(18.6245 -3.49239 0)
(25.0945 -2.72272 8.95714e-17)
(24.4485 -2.63126 -9.9185e-17)
(24.6335 -2.77056 2.13464e-16)
(24.396 -2.6815 -2.33415e-16)
(24.4647 -2.8246 5.04712e-16)
(24.3001 -2.77889 1.07039e-20)
(24.277 -2.89254 -5.87073e-16)
(24.1769 -2.89818 0)
(24.1382 -2.98836 0)
(24.0758 -3.0282 0)
(24.0379 -3.10452 -1.54567e-15)
(23.9949 -3.16221 1.65156e-15)
(23.9645 -3.23163 0)
(23.9359 -3.29443 -1.8785e-15)
(23.9134 -3.36085 1.99967e-15)
(23.8934 -3.42405 0)
(23.8774 -3.48731 0)
(23.8643 -3.54821 2.39213e-15)
(23.8546 -3.60772 -5.06264e-15)
(23.8473 -3.66577 1.43852e-21)
(23.8424 -3.72254 2.81917e-15)
(23.8403 -3.77684 -2.96641e-15)
(23.8405 -3.82859 3.11485e-15)
(23.8429 -3.87784 0)
(23.8471 -3.92456 0)
(23.8529 -3.96874 0)
(23.8601 -4.01042 -3.70456e-15)
(23.8685 -4.04967 3.84731e-15)
(23.878 -4.08656 3.98682e-15)
(23.8885 -4.12123 -4.12245e-15)
(23.9001 -4.1535 -4.25299e-15)
(23.9129 -4.18345 8.75288e-15)
(23.9265 -4.21146 -8.97779e-15)
(23.9392 -4.23725 1.84006e-20)
(23.9462 -4.25939 1.82642e-20)
(23.9357 -4.27486 4.67679e-15)
(23.8884 -4.27913 4.65632e-15)
(23.7832 -4.2678 -4.58644e-15)
(23.6048 -4.23851 8.94478e-15)
(23.3503 -4.192 -8.64875e-15)
(23.0295 -4.13175 8.30743e-15)
(22.6602 -4.06263 -7.94097e-15)
(22.2627 -3.98957 7.56447e-15)
(21.8557 -3.91677 -7.18847e-15)
(21.4544 -3.84732 0)
(21.07 -3.78329 0)
(20.71 -3.72584 -6.11658e-15)
(20.379 -3.67548 5.78561e-15)
(20.0789 -3.63225 0)
(19.8104 -3.59587 0)
(19.5728 -3.56586 0)
(19.3644 -3.54164 0)
(19.1834 -3.52258 0)
(19.0273 -3.50809 0)
(18.894 -3.49752 3.84723e-15)
(18.7808 -3.49028 -3.61925e-15)
(18.6858 -3.48589 -3.40224e-15)
(18.6065 -3.48394 3.19587e-15)
(18.541 -3.48389 -2.9998e-15)