/*--------------------------------*- C++ -*----------------------------------*\
  =========                 |
  \\      /  F ield         | OpenFOAM: The Open Source CFD Toolbox
   \\    /   O peration     | Website:  https://openfoam.org
    \\  /    A nd           | Version:  9
     \\/     M anipulation  |
\*---------------------------------------------------------------------------*/
FoamFile
{
    format      ascii;
    class       volVectorField;
    location    "0.0075";
    object      U;
}
// * * * * * * * * * * * * * * * * * * * * * * * * * * * * * * * * * * * * * //

dimensions      [0 1 -1 0 0 0 0];

internalField   nonuniform List<vector> 
6127
(
(81.2211 7.59561 -7.97847e-17)
(85.6183 4.74762 0)
(93.484 0.37817 1.42158e-17)
(113.73 15.6215 7.00353e-17)
(133.11 12.6094 0)
(161.422 2.9146 6.9378e-21)
(118.344 13.4066 -6.75784e-17)
(142.278 11.5805 1.12436e-19)
(173.794 0.756841 -1.00587e-17)
(119.007 12.6831 6.59016e-17)
(142.482 10.8703 0)
(178.033 -0.0888773 4.75228e-18)
(119.597 11.3474 -3.22746e-17)
(141.172 9.68695 1.1136e-19)
(183.396 -1.05988 -4.5137e-18)
(120.013 10.2567 3.12463e-17)
(140.226 8.57058 0)
(186.422 -2.14373 0)
(120.286 9.01907 1.15465e-19)
(139.98 7.35861 -1.14005e-19)
(186.715 -3.25664 0)
(120.511 7.79798 -3.00957e-17)
(139.865 6.17567 1.16401e-19)
(186.883 -4.09318 0)
(120.733 6.53544 2.98089e-17)
(139.699 4.98084 0)
(187.252 -4.77364 0)
(120.949 5.26744 -1.15774e-19)
(139.466 3.79665 -1.45763e-17)
(187.821 -5.15644 2.08704e-18)
(121.156 4.04121 0)
(139.248 2.64439 1.45241e-17)
(188.609 -5.1645 -2.17135e-18)
(121.384 2.7629 -1.56982e-17)
(139.323 1.46711 1.69863e-19)
(188.738 -4.82697 -3.72068e-20)
(121.479 1.60507 2.35834e-17)
(138.708 0.463709 0)
(187.862 -3.72925 1.33782e-18)
(117.136 0.468321 -4.24648e-18)
(129.941 -0.433092 2.04062e-18)
(175.258 -1.88923 -1.75749e-18)
(84.1539 -2.21038 -5.18931e-18)
(83.8306 -2.2982 -2.33919e-18)
(104.424 -1.30516 0)
(25.1264 -2.37751 0)
(24.4484 -2.2473 0)
(24.5733 -2.40234 0)
(24.3078 -2.27064 0)
(24.2399 -2.40671 0)
(24.054 -2.3369 0)
(23.945 -2.44286 0)
(23.8022 -2.42622 0)
(23.6867 -2.51606 0)
(23.5547 -2.53564 0)
(23.4339 -2.62087 0)
(23.3061 -2.66808 0)
(23.1813 -2.75503 0)
(24.8371 -3.17014 0)
(24.7383 -3.16663 0)
(24.7834 -3.19448 0)
(24.7497 -3.1969 0)
(24.7689 -3.23762 0)
(24.7361 -3.24324 0)
(24.7565 -3.28755 0)
(24.7419 -3.30359 0)
(24.7481 -3.34124 0)
(24.7485 -3.36665 0)
(24.7502 -3.39841 0)
(24.7509 -3.42667 0)
(24.7509 -3.45519 0)
(24.7499 -3.48246 0)
(24.7482 -3.50875 0)
(24.746 -3.53395 0)
(24.7435 -3.55802 2.9569e-14)
(24.7409 -3.58097 -5.98481e-14)
(24.7383 -3.6028 3.02207e-14)
(24.7359 -3.62349 3.04567e-14)
(24.7336 -3.64305 -3.06305e-14)
(24.7316 -3.66152 3.07411e-14)
(24.7297 -3.67889 -6.15765e-14)
(24.7279 -3.69519 6.15449e-14)
(24.7263 -3.71043 -3.06947e-14)
(24.7248 -3.72464 3.05567e-14)
(24.7233 -3.73785 -3.03607e-14)
(24.722 -3.7501 0)
(24.7207 -3.76143 0)
(24.7194 -3.77186 0)
(24.7182 -3.78147 0)
(24.7171 -3.7903 0)
(24.7159 -3.79839 0)
(24.7149 -3.80583 0)
(24.7139 -3.81266 0)
(24.7129 -3.81892 0)
(24.712 -3.82462 0)
(24.7112 -3.82983 2.52405e-14)
(24.7104 -3.83458 -4.91549e-14)
(24.7097 -3.83895 2.38902e-14)
(24.7091 -3.84294 0)
(24.7084 -3.84659 0)
(24.7077 -3.84993 -2.17045e-14)
(24.7068 -3.85297 2.0943e-14)
(24.7057 -3.85573 0)
(24.7043 -3.85822 1.93897e-14)
(24.7023 -3.86043 -1.86053e-14)
(24.6997 -3.86237 1.78208e-14)
(24.6962 -3.86401 2.00584e-21)
(24.6919 -3.86534 1.73964e-21)
(24.6866 -3.86638 1.4776e-21)
(24.6801 -3.86712 1.4078e-21)
(24.6726 -3.86752 -2.805e-14)
(24.664 -3.86762 2.6624e-14)
(24.6543 -3.86738 -1.26196e-14)
(24.6435 -3.86681 0)
(24.6318 -3.86595 0)
(24.619 -3.86479 1.06785e-14)
(24.6053 -3.86324 -1.00795e-14)
(24.5908 -3.86126 -1.44073e-14)
(24.8453 -3.15303 0)
(24.7071 -3.14145 0)
(24.7516 -3.17816 0)
(24.6923 -3.17162 0)
(24.7074 -3.22228 -4.78646e-15)
(24.6554 -3.22122 1.04011e-14)
(24.669 -3.27574 5.62156e-15)
(24.644 -3.28832 -1.18939e-14)
(24.6425 -3.33087 -1.22993e-14)
(24.6364 -3.35669 2.54044e-14)
(24.6322 -3.3915 1.79206e-20)
(24.6278 -3.4216 1.45882e-20)
(24.6232 -3.45255 -1.38515e-14)
(24.6184 -3.48177 0)
(24.6134 -3.51002 0)
(24.6086 -3.53694 0)
(24.604 -3.56252 1.51415e-14)
(24.6 -3.58681 6.54164e-22)
(24.5965 -3.60989 -1.5634e-14)
(24.5935 -3.63196 -3.16693e-14)
(24.591 -3.6529 6.40114e-14)
(24.5892 -3.67249 -3.22751e-14)
(24.5879 -3.69075 0)
(24.587 -3.70774 3.26078e-14)
(24.5865 -3.72353 -2.08996e-20)
(24.5863 -3.73817 -3.26658e-14)
(24.5862 -3.75173 3.25947e-14)
(24.5864 -3.76425 -3.24598e-14)
(24.5866 -3.77582 3.2264e-14)
(24.5869 -3.78651 -3.20105e-14)
(24.5872 -3.79635 0)
(24.5876 -3.8054 3.13439e-14)
(24.588 -3.81376 -3.09373e-14)
(24.5884 -3.82151 0)
(24.5889 -3.82862 -2.99903e-14)
(24.5895 -3.83516 2.32431e-20)
(24.5901 -3.84123 2.88752e-14)
(24.5908 -3.8469 0)
(24.5915 -3.85219 0)
(24.592 -3.85709 0)
(24.5923 -3.86161 2.61565e-14)
(24.5919 -3.86571 -2.53796e-14)
(24.5906 -3.86935 0)
(24.588 -3.87246 -2.37274e-14)
(24.5833 -3.87496 4.57215e-14)
(24.5763 -3.87677 -2.19748e-14)
(24.5664 -3.8778 0)
(24.5533 -3.87807 -2.01705e-14)
(24.5368 -3.87755 1.92651e-14)
(24.5167 -3.87602 0)
(24.493 -3.8738 0)
(24.4662 -3.87065 1.66048e-14)
(24.4363 -3.86708 -1.57522e-14)
(24.4035 -3.86261 0)
(24.3683 -3.85756 0)
(24.3308 -3.85195 0)
(24.2916 -3.84587 0)
(24.251 -3.83939 -1.18799e-14)
(24.2093 -3.83252 1.11938e-14)
(24.1665 -3.8253 0)
(24.8561 -3.1327 0)
(24.6899 -3.11665 0)
(24.7377 -3.15844 0)
(24.6638 -3.14684 -4.36401e-15)
(24.6777 -3.20302 4.72112e-15)
(24.6149 -3.19895 0)
(24.6253 -3.25716 0)
(24.5933 -3.27021 -5.85466e-15)
(24.5885 -3.31674 -6.07931e-15)
(24.5776 -3.34467 1.26103e-14)
(24.5706 -3.38191 -1.30577e-14)
(24.5634 -3.41394 -2.70682e-20)
(24.5565 -3.44751 1.39316e-14)
(24.5498 -3.47914 0)
(24.5433 -3.50995 0)
(24.5374 -3.53948 0)
(24.5323 -3.56781 1.55056e-14)
(24.528 -3.59483 -1.58449e-14)
(24.5246 -3.6204 0)
(24.522 -3.64517 0)
(24.5202 -3.66915 0)
(24.5191 -3.69179 0)
(24.5187 -3.71304 0)
(24.5189 -3.73299 0)
(24.5195 -3.75169 0)
(24.5205 -3.76917 0)
(24.5216 -3.78549 0)
(24.523 -3.80069 0)
(24.5244 -3.81484 0)
(24.5259 -3.828 0)
(24.5274 -3.84022 0)
(24.529 -3.85156 0)
(24.5306 -3.86209 0)
(24.5323 -3.87186 0)
(24.534 -3.88093 0)
(24.5358 -3.88932 0)
(24.5376 -3.89709 0)
(24.5393 -3.90425 0)
(24.5406 -3.91081 0)
(24.5413 -3.91673 0)
(24.5406 -3.92192 0)
(24.5378 -3.92625 0)
(24.5319 -3.92955 0)
(24.5217 -3.93164 0)
(24.5063 -3.93234 0)
(24.4846 -3.93152 0)
(24.4561 -3.92911 0)
(24.4204 -3.925 0)
(24.3779 -3.919 0)
(24.329 -3.91229 0)
(24.2739 -3.90384 0)
(24.2136 -3.89421 0)
(24.149 -3.88363 0)
(24.081 -3.87235 0)
(24.0106 -3.86049 0)
(23.9385 -3.84821 0)
(23.8656 -3.83564 0)
(23.7924 -3.82292 0)
(23.7195 -3.8101 0)
(23.6472 -3.79733 0)
(24.8678 -3.1025 0)
(24.6706 -3.08141 0)
(24.7204 -3.1298 -1.98979e-15)
(24.6292 -3.112 2.15752e-15)
(24.6408 -3.17492 0)
(24.5655 -3.1675 0)
(24.5713 -3.23141 5.44503e-15)
(24.5309 -3.24357 3.16556e-20)
(24.522 -3.29507 -6.01195e-15)
(24.5047 -3.32484 0)
(24.4934 -3.36571 0)
(24.4823 -3.40022 0)
(24.4721 -3.43695 0)
(24.4624 -3.47163 0)
(24.4536 -3.50559 0)
(24.4457 -3.53818 0)
(24.4391 -3.56959 0)
(24.4338 -3.59948 1.62511e-14)
(24.4296 -3.62825 -3.32847e-14)
(24.4265 -3.65644 3.40123e-14)
(24.4245 -3.68355 -1.73397e-14)
(24.4235 -3.70911 1.76405e-14)
(24.4233 -3.73315 -1.79065e-14)
(24.4238 -3.75574 -1.8136e-14)
(24.4249 -3.77692 3.66561e-14)
(24.4264 -3.79672 -1.8482e-14)
(24.4281 -3.81519 1.85978e-14)
(24.43 -3.83239 -1.86759e-14)
(24.4321 -3.84839 0)
(24.4343 -3.86326 0)
(24.4365 -3.87706 1.86944e-14)
(24.4388 -3.88989 -1.86331e-14)
(24.4412 -3.9018 1.85399e-14)
(24.4437 -3.91286 -3.683e-14)
(24.4463 -3.92311 2.30144e-20)
(24.449 -3.93253 3.61317e-14)
(24.4517 -3.94119 -1.78363e-14)
(24.4538 -3.94914 0)
(24.4549 -3.95626 0)
(24.4539 -3.96237 0)
(24.449 -3.96718 0)
(24.4384 -3.9703 -1.60058e-14)
(24.4199 -3.97136 1.54979e-14)
(24.3914 -3.97001 0)
(24.3513 -3.96598 0)
(24.2987 -3.95913 -1.37753e-14)
(24.2333 -3.94949 1.31631e-14)
(24.1556 -3.93724 1.25463e-14)
(24.0669 -3.92267 -7.36327e-21)
(23.9687 -3.90615 -1.13265e-14)
(23.863 -3.88812 0)
(23.7517 -3.86898 1.01599e-14)
(23.6366 -3.84914 -9.60501e-15)
(23.5196 -3.82894 9.07166e-15)
(23.4022 -3.80868 -1.71217e-14)
(23.2856 -3.78861 3.03528e-21)
(23.1709 -3.76891 7.6082e-15)
(23.0589 -3.74972 0)
(22.9502 -3.73109 0)
(22.8451 -3.71324 0)
(24.8808 -3.06753 0)
(24.6521 -3.04141 0)
(24.706 -3.09671 0)
(24.5988 -3.0728 -2.13488e-15)
(24.6084 -3.14208 2.30428e-15)
(24.5217 -3.13154 0)
(24.5228 -3.20078 -5.36852e-15)
(24.475 -3.21292 1.13801e-14)
(24.4619 -3.26887 -5.94837e-15)
(24.4385 -3.30015 6.21373e-15)
(24.423 -3.34575 2.97934e-20)
(24.4077 -3.38362 -1.34998e-14)
(24.3944 -3.42381 7.0191e-15)
(24.3817 -3.46199 0)
(24.3704 -3.49977 0)
(24.3607 -3.53611 0)
(24.3526 -3.57135 0)
(24.3463 -3.60513 1.66204e-14)
(24.3417 -3.63775 -1.70897e-14)
(24.3382 -3.66983 -1.75351e-14)
(24.3361 -3.70094 1.79532e-14)
(24.3352 -3.7304 -1.83409e-14)
(24.3355 -3.75821 1.86954e-14)
(24.3366 -3.78444 -1.90144e-14)
(24.3384 -3.80913 3.85926e-14)
(24.3408 -3.83228 -1.95398e-14)
(24.3435 -3.85395 0)
(24.3464 -3.87418 0)
(24.3496 -3.89305 0)
(24.3529 -3.91062 0)
(24.3564 -3.92699 0)
(24.3601 -3.94219 0)
(24.3639 -3.95629 -2.01808e-14)
(24.3679 -3.96935 4.02566e-14)
(24.3721 -3.98139 -2.00377e-14)
(24.3764 -3.99248 1.99041e-14)
(24.3803 -4.00267 -1.97204e-14)
(24.383 -4.01182 1.94785e-14)
(24.3828 -4.0196 -2.72105e-20)
(24.3772 -4.02548 -3.75833e-14)
(24.3628 -4.02879 3.66773e-14)
(24.3356 -4.0288 -2.22109e-20)
(24.2919 -4.02485 -1.72286e-14)
(24.2289 -4.01649 -1.65911e-14)
(24.1449 -4.00354 1.67518e-20)
(24.0402 -3.98618 1.52179e-14)
(23.9163 -3.96487 -1.45093e-14)
(23.7759 -3.94029 1.19404e-20)
(23.6224 -3.91321 1.0587e-20)
(23.4595 -3.88442 1.24219e-14)
(23.2907 -3.85468 0)
(23.1191 -3.82464 0)
(22.9478 -3.79484 -1.05159e-14)
(22.7788 -3.76574 5.65784e-21)
(22.6142 -3.73767 4.97931e-21)
(22.4553 -3.71085 8.85011e-15)
(22.3032 -3.68546 -8.3484e-15)
(22.1585 -3.66158 1.57445e-14)
(22.0216 -3.6392 -3.15384e-21)
(21.8926 -3.61854 -9.93906e-15)
(24.8943 -3.02902 -4.19291e-16)
(24.634 -2.99761 4.53382e-16)
(24.6933 -3.05993 -9.75458e-16)
(24.5705 -3.03036 1.05678e-15)
(24.577 -3.10587 2.27924e-15)
(24.4795 -3.09199 -2.46812e-15)
(24.4756 -3.1664 -2.64916e-15)
(24.4202 -3.17858 8.42572e-15)
(24.4026 -3.23894 4.60569e-20)
(24.373 -3.27186 -1.23392e-14)
(24.3534 -3.32216 -3.75974e-20)
(24.3329 -3.36356 -3.17549e-20)
(24.3161 -3.40776 1.407e-14)
(24.2999 -3.4496 2.26174e-20)
(24.2858 -3.49165 -7.62043e-15)
(24.2737 -3.53212 0)
(24.2638 -3.57161 0)
(24.256 -3.60972 0)
(24.2503 -3.64656 0)
(24.2462 -3.68285 0)
(24.2435 -3.71837 -9.26395e-15)
(24.2425 -3.75214 9.50163e-15)
(24.2428 -3.78411 0)
(24.2441 -3.81437 0)
(24.2463 -3.84292 0)
(24.2492 -3.86978 -2.05757e-14)
(24.2526 -3.89497 4.26163e-20)
(24.2563 -3.91856 2.11379e-14)
(24.2604 -3.9406 -2.13608e-14)
(24.2647 -3.96118 2.15457e-14)
(24.2693 -3.98038 0)
(24.2742 -3.99812 0)
(24.2794 -4.01441 0)
(24.285 -4.02955 0)
(24.2908 -4.04369 0)
(24.2965 -4.0568 2.18473e-14)
(24.3014 -4.06872 -4.34418e-14)
(24.3034 -4.07903 2.15144e-14)
(24.2991 -4.08697 0)
(24.2832 -4.09145 2.08109e-14)
(24.2493 -4.09119 -2.03041e-14)
(24.191 -4.08502 0)
(24.1032 -4.07212 1.90198e-14)
(23.9834 -4.05227 -1.82783e-14)
(23.8322 -4.02587 -1.74987e-14)
(23.6529 -3.99386 2.15164e-20)
(23.4507 -3.95752 3.18016e-14)
(23.2317 -3.91824 -1.51115e-14)
(23.0021 -3.87737 -1.43417e-14)
(22.7677 -3.8361 1.35973e-14)
(22.5335 -3.79541 0)
(22.3036 -3.75607 -1.21974e-14)
(22.0812 -3.71865 1.15443e-14)
(21.8685 -3.68351 0)
(21.6673 -3.65089 -1.03306e-14)
(21.4785 -3.6209 9.76824e-15)
(21.3027 -3.59357 9.23404e-15)
(21.1399 -3.56884 -8.72669e-15)
(20.99 -3.54658 0)
(20.8527 -3.5269 1.08616e-14)
(24.9083 -2.98862 0)
(24.6168 -2.95188 -4.49663e-16)
(24.6808 -3.02097 4.83209e-16)
(24.5446 -2.98611 0)
(24.5474 -3.06785 -2.25558e-15)
(24.44 -3.05041 4.8824e-15)
(24.4309 -3.12946 3.02966e-20)
(24.3681 -3.1418 2.87099e-20)
(24.3459 -3.20643 -5.83226e-15)
(24.3101 -3.241 -2.45532e-20)
(24.2862 -3.29568 3.2132e-15)
(24.2604 -3.34054 0)
(24.2394 -3.38934 0)
(24.2195 -3.43493 0)
(24.2022 -3.48148 0)
(24.1873 -3.52642 7.99692e-15)
(24.1751 -3.57055 -8.31407e-15)
(24.1656 -3.61339 -8.62811e-15)
(24.1586 -3.6548 -1.58815e-21)
(24.1535 -3.69561 9.23874e-15)
(24.1501 -3.73594 0)
(24.1485 -3.77455 0)
(24.1487 -3.81123 -1.00813e-14)
(24.1501 -3.84606 1.88726e-20)
(24.1526 -3.87905 2.19695e-20)
(24.1559 -3.9102 1.07924e-14)
(24.1599 -3.93952 0)
(24.1644 -3.96706 0)
(24.1694 -3.99288 0)
(24.1747 -4.01707 0)
(24.1806 -4.03964 0)
(24.1869 -4.06041 1.17242e-14)
(24.1937 -4.07962 -1.18154e-14)
(24.201 -4.09763 1.18862e-14)
(24.2086 -4.11448 -2.3865e-14)
(24.216 -4.13006 1.19466e-14)
(24.2216 -4.14397 0)
(24.2214 -4.15531 0)
(24.2086 -4.16257 0)
(24.1738 -4.16372 0)
(24.1065 -4.15676 -1.11777e-14)
(23.998 -4.14019 1.08298e-14)
(23.8436 -4.11353 0)
(23.6439 -4.07746 0)
(23.4045 -4.03358 -9.57393e-15)
(23.1341 -3.98407 9.13156e-15)
(22.8427 -3.93123 0)
(22.5402 -3.8772 0)
(22.2354 -3.82376 0)
(21.9356 -3.77231 0)
(21.6465 -3.72384 7.08489e-15)
(21.372 -3.67901 -6.72494e-15)
(21.1151 -3.6382 -6.38193e-15)
(20.8772 -3.60157 6.05519e-15)
(20.6593 -3.56912 0)
(20.4614 -3.54073 5.44752e-15)
(20.283 -3.5162 -1.033e-14)
(20.1236 -3.49526 4.89553e-15)
(19.982 -3.47762 0)
(19.8571 -3.46342 -6.00262e-15)
(24.9223 -2.9475 0)
(24.6007 -2.90547 4.46029e-16)
(24.6696 -2.981 -4.78847e-16)
(24.5201 -2.94085 0)
(24.5206 -3.02866 0)
(24.4026 -3.00798 0)
(24.3884 -3.09109 0)
(24.3186 -3.10343 2.74359e-15)
(24.2917 -3.17213 3.13698e-20)
(24.2495 -3.20816 -3.04252e-15)
(24.2212 -3.26704 0)
(24.19 -3.31493 -3.3603e-15)
(24.1642 -3.36849 7.04998e-15)
(24.1402 -3.41809 -3.69297e-15)
(24.1193 -3.46912 -7.72675e-15)
(24.1011 -3.5187 -2.25379e-20)
(24.0863 -3.56772 -1.61759e-20)
(24.0745 -3.61547 8.76245e-15)
(24.0656 -3.66183 0)
(24.0593 -3.70738 0)
(24.0548 -3.75265 -9.77831e-15)
(24.0524 -3.79645 1.0103e-14)
(24.0519 -3.83824 1.04173e-14)
(24.0531 -3.87805 -1.07192e-14)
(24.0555 -3.91591 -1.1007e-14)
(24.059 -3.95179 2.95005e-20)
(24.0633 -3.98569 2.30703e-14)
(24.0684 -4.01764 -1.17738e-14)
(24.0741 -4.0477 0)
(24.0804 -4.07596 0)
(24.0874 -4.10232 -1.23865e-14)
(24.0951 -4.12666 1.25569e-14)
(24.1035 -4.14931 1.27096e-14)
(24.1126 -4.17063 -1.28419e-14)
(24.1222 -4.19061 0)
(24.1313 -4.209 1.30137e-14)
(24.1368 -4.22502 -1.30251e-14)
(24.1317 -4.23697 -1.29631e-14)
(24.1041 -4.24211 1.28131e-14)
(24.0385 -4.2372 0)
(23.9202 -4.21951 0)
(23.7397 -4.18779 0)
(23.4962 -4.14273 1.14004e-14)
(23.1972 -4.08675 -2.39554e-20)
(22.8559 -4.02325 -2.11755e-20)
(22.4875 -3.95581 -1.86195e-20)
(22.1073 -3.88769 -1.90361e-14)
(21.728 -3.82155 1.81455e-14)
(21.3603 -3.7593 -1.2483e-20)
(21.0116 -3.70225 -1.64762e-14)
(20.6871 -3.65114 7.8489e-15)
(20.3902 -3.60631 0)
(20.1223 -3.56778 0)
(19.8837 -3.53537 6.78329e-15)
(19.674 -3.5087 -5.80997e-21)
(19.4919 -3.48748 -6.14623e-15)
(19.3359 -3.47123 5.84667e-15)
(19.2038 -3.45912 -4.44987e-21)
(19.0936 -3.45099 -3.8632e-21)
(19.0033 -3.44632 -6.70511e-15)
(24.9361 -2.90659 0)
(24.5856 -2.85937 0)
(24.6593 -2.94099 0)
(24.4973 -2.89548 0)
(24.4952 -2.98874 0)
(24.3694 -2.96545 -1.19552e-15)
(24.3484 -3.05243 1.27894e-15)
(24.272 -3.06433 -2.71426e-15)
(24.2404 -3.13669 5.72822e-15)
(24.1918 -3.17395 -3.0221e-15)
(24.1588 -3.23682 -3.18426e-15)
(24.122 -3.28718 3.35241e-15)
(24.0915 -3.34543 0)
(24.0627 -3.39922 -3.70212e-15)
(24.0379 -3.45465 3.88287e-15)
(24.016 -3.50883 -4.06678e-15)
(23.998 -3.56284 -1.07632e-20)
(23.9835 -3.61559 4.44048e-15)
(23.9723 -3.6673 0)
(23.9643 -3.7178 4.81604e-15)
(23.9585 -3.76792 -5.00206e-15)
(23.9547 -3.81714 0)
(23.9533 -3.8644 1.07305e-14)
(23.9538 -3.90956 -1.10805e-14)
(23.9558 -3.95267 1.14193e-14)
(23.9592 -3.99369 -1.17453e-14)
(23.9636 -4.0326 -1.20572e-14)
(23.969 -4.06942 1.23544e-14)
(23.9753 -4.10419 0)
(23.9823 -4.13698 0)
(23.9903 -4.16777 1.31557e-14)
(23.9993 -4.19633 -1.33935e-14)
(24.0093 -4.22293 0)
(24.0202 -4.24805 0)
(24.0319 -4.27166 -1.39908e-14)
(24.0426 -4.2933 2.82365e-14)
(24.0472 -4.31157 -5.19521e-20)
(24.0338 -4.32354 -1.41369e-14)
(23.9832 -4.32469 0)
(23.8727 -4.31036 0)
(23.6838 -4.2775 -1.33441e-14)
(23.4103 -4.22608 3.83453e-20)
(23.0596 -4.15905 1.24176e-14)
(22.6494 -4.0813 0)
(22.2019 -3.99823 0)
(21.7394 -3.91477 0)
(21.2808 -3.83481 0)
(20.8409 -3.76109 0)
(20.4302 -3.69537 0)
(20.0556 -3.63854 9.16016e-15)
(19.721 -3.59089 -8.76664e-15)
(19.4278 -3.55224 -8.3891e-15)
(19.1758 -3.52209 1.60512e-14)
(18.9637 -3.50011 -7.67455e-15)
(18.7887 -3.4851 0)
(18.6483 -3.4762 -7.00544e-15)
(18.54 -3.47318 6.68556e-15)
(18.46 -3.47524 0)
(18.4047 -3.48123 0)
(18.371 -3.49078 0)
(24.9496 -2.86659 0)
(24.5717 -2.81435 -4.38872e-16)
(24.6502 -2.90168 9.40767e-16)
(24.4765 -2.85082 -1.52726e-15)
(24.4718 -2.94894 1.09494e-15)
(24.3384 -2.92336 -1.18359e-15)
(24.3112 -3.01392 -2.07715e-20)
(24.2285 -3.02511 1.34323e-15)
(24.1921 -3.10066 1.41984e-15)
(24.1371 -3.13887 -1.50095e-15)
(24.0994 -3.20536 0)
(24.0569 -3.25794 0)
(24.0216 -3.32057 0)
(23.9874 -3.37831 0)
(23.9585 -3.43811 0)
(23.9325 -3.49676 0)
(23.9109 -3.55576 0)
(23.8931 -3.61356 0)
(23.8793 -3.67064 0)
(23.8689 -3.72628 -4.8997e-15)
(23.8614 -3.78137 5.10428e-15)
(23.8561 -3.83597 0)
(23.8532 -3.8889 0)
(23.8526 -3.93968 0)
(23.8539 -3.98831 5.90342e-15)
(23.8567 -4.03478 -6.09348e-15)
(23.8608 -4.07905 6.27806e-15)
(23.8662 -4.12111 -6.45682e-15)
(23.8728 -4.16097 -6.62953e-15)
(23.8804 -4.1987 6.79636e-15)
(23.8891 -4.2344 6.95742e-15)
(23.8991 -4.26774 -3.06896e-20)
(23.9105 -4.29879 -7.26185e-15)
(23.9233 -4.32815 0)
(23.937 -4.35585 0)
(23.9492 -4.38115 0)
(23.9518 -4.40175 -7.68031e-15)
(23.926 -4.41288 7.67394e-15)
(23.843 -4.40775 0)
(23.6719 -4.38023 0)
(23.3935 -4.32783 0)
(23.0096 -4.25298 0)
(22.5402 -4.16193 0)
(22.0153 -4.06245 0)
(21.4666 -3.96187 0)
(20.9216 -3.86603 0)
(20.4018 -3.77904 -1.15309e-14)
(19.9223 -3.70339 1.10875e-14)
(19.4926 -3.64029 0)
(19.1179 -3.59007 1.02587e-14)
(18.7999 -3.55226 -9.8675e-15)
(18.5379 -3.52639 9.48795e-15)
(18.3291 -3.51099 -1.82353e-14)
(18.1704 -3.50476 1.75092e-14)
(18.0573 -3.50741 -1.67945e-14)
(17.9843 -3.5168 8.04472e-15)
(17.9465 -3.53192 0)
(17.9393 -3.55186 -7.35272e-15)
(17.958 -3.57565 7.10625e-21)
(17.9975 -3.60243 8.51953e-15)
(24.9626 -2.82802 0)
(24.559 -2.77093 -2.17643e-16)
(24.6419 -2.8636 2.33098e-16)
(24.4575 -2.8075 0)
(24.4502 -2.91012 -1.08451e-15)
(24.309 -2.88229 -2.29304e-20)
(24.2769 -2.97571 1.25222e-15)
(24.1881 -2.98619 0)
(24.147 -3.06453 1.40794e-15)
(24.0857 -3.1034 2.05157e-20)
(24.0433 -3.17318 -3.15299e-15)
(23.9949 -3.22769 1.66617e-15)
(23.9549 -3.29419 0)
(23.915 -3.35555 0)
(23.8816 -3.41974 -3.9088e-15)
(23.8511 -3.48255 4.113e-15)
(23.8256 -3.54642 -4.32226e-15)
(23.8042 -3.60918 9.07194e-15)
(23.7871 -3.67152 -4.75334e-15)
(23.7739 -3.73257 4.97356e-15)
(23.7643 -3.79275 -1.16907e-22)
(23.7571 -3.85243 -3.79757e-21)
(23.7524 -3.91109 -1.12836e-14)
(23.7502 -3.96766 5.86373e-15)
(23.7503 -4.02201 6.08359e-15)
(23.7521 -4.07415 -6.30059e-15)
(23.7557 -4.12403 0)
(23.7607 -4.1716 6.72347e-15)
(23.7672 -4.21688 -6.9289e-15)
(23.775 -4.2599 7.13035e-15)
(23.7842 -4.30074 -7.32823e-15)
(23.7949 -4.33932 0)
(23.8075 -4.3755 0)
(23.8219 -4.40956 7.89549e-15)
(23.8375 -4.44177 -1.61268e-14)
(23.8511 -4.47114 8.20087e-15)
(23.8506 -4.49414 0)
(23.8082 -4.50349 -8.29369e-15)
(23.6828 -4.48957 3.80403e-20)
(23.4358 -4.44508 8.05735e-15)
(23.0518 -4.3693 0)
(22.5454 -4.26851 0)
(21.9527 -4.15296 0)
(21.3169 -4.03338 0)
(20.6776 -3.91865 6.84136e-15)
(20.0664 -3.8151 -6.60833e-15)
(19.5056 -3.7266 -6.38732e-15)
(19.0094 -3.655 6.1771e-15)
(18.5855 -3.60088 0)
(18.2366 -3.564 0)
(17.9616 -3.54246 -5.58896e-15)
(17.7574 -3.53508 1.07994e-14)
(17.6183 -3.54059 -7.19745e-21)
(17.5375 -3.55649 -1.00417e-14)
(17.5086 -3.5813 4.82915e-15)
(17.5241 -3.6133 0)
(17.5758 -3.65071 4.44259e-15)
(17.6564 -3.6917 -5.18066e-21)
(17.7583 -3.73493 -8.12581e-15)
(17.8771 -3.77975 9.64515e-15)
(24.975 -2.79123 0)
(24.5473 -2.7295 2.15829e-16)
(24.6345 -2.82712 2.31014e-16)
(24.4403 -2.76595 -4.99866e-16)
(24.4303 -2.87273 0)
(24.2821 -2.84262 0)
(24.2456 -2.93818 0)
(24.1508 -2.94797 -1.31708e-15)
(24.1051 -3.02872 1.39618e-15)
(24.0377 -3.06799 1.48066e-15)
(23.9906 -3.1407 -1.56807e-15)
(23.9363 -3.19682 0)
(23.8915 -3.26671 0)
(23.8461 -3.33126 0)
(23.8076 -3.39973 -1.95773e-15)
(23.7726 -3.46641 2.06412e-15)
(23.7428 -3.53489 -2.17372e-15)
(23.7174 -3.60242 -2.28628e-15)
(23.6967 -3.6699 4.80284e-15)
(23.6802 -3.73631 5.03768e-15)
(23.6678 -3.80168 -5.27618e-15)
(23.6585 -3.86635 0)
(23.6516 -3.9305 0)
(23.6474 -3.99292 -6.00499e-15)
(23.6458 -4.05309 6.24922e-15)
(23.6463 -4.111 6.49265e-15)
(23.6488 -4.16663 -6.73473e-15)
(23.6531 -4.2199 0)
(23.6591 -4.27079 0)
(23.6668 -4.31934 -7.45056e-15)
(23.6762 -4.3656 3.7765e-20)
(23.6873 -4.40966 7.92166e-15)
(23.7005 -4.45138 -8.15521e-15)
(23.7162 -4.49069 8.38399e-15)
(23.7337 -4.52783 -8.59855e-15)
(23.7485 -4.56164 4.73169e-20)
(23.7438 -4.58713 8.89714e-15)
(23.6805 -4.59375 8.9232e-15)
(23.5032 -4.56853 -4.58187e-20)
(23.1671 -4.50358 -8.68588e-15)
(22.665 -4.40141 0)
(22.0296 -4.27333 -8.22624e-15)
(21.3146 -4.13405 7.97981e-15)
(20.5758 -3.99702 0)
(19.8596 -3.87224 0)
(19.1999 -3.76605 0)
(18.6185 -3.6817 7.10378e-15)
(18.128 -3.62028 -6.91316e-15)
(17.7331 -3.58219 6.72817e-15)
(17.4346 -3.56329 -6.54515e-15)
(17.2276 -3.5652 0)
(17.1043 -3.58269 -6.17142e-15)
(17.0569 -3.61412 5.97535e-15)
(17.0757 -3.657 -5.77182e-15)
(17.1484 -3.70823 5.56322e-15)
(17.2636 -3.76526 -5.35278e-15)
(17.4114 -3.82602 1.02861e-14)
(17.5832 -3.88885 -9.87148e-15)
(17.7717 -3.95217 9.46412e-15)
(17.9705 -4.01517 -5.49218e-15)
(24.9867 -2.75645 0)
(24.5368 -2.69029 2.13981e-16)
(24.628 -2.7925 -2.28888e-16)
(24.4249 -2.72645 4.95237e-16)
(24.4121 -2.83693 -5.31861e-16)
(24.2578 -2.80459 0)
(24.2169 -2.90178 0)
(24.1165 -2.91079 6.52217e-16)
(24.0664 -2.99363 -6.92238e-16)
(23.9931 -3.03302 0)
(23.9414 -3.10831 0)
(23.8814 -3.16569 -1.653e-15)
(23.8317 -3.23865 1.75064e-15)
(23.7809 -3.3058 0)
(23.7371 -3.37824 0)
(23.6973 -3.44862 -2.06922e-15)
(23.663 -3.52135 -1.33267e-20)
(23.6333 -3.59339 4.60182e-15)
(23.6087 -3.66579 -2.42194e-15)
(23.5885 -3.73728 0)
(23.5728 -3.80804 2.67292e-15)
(23.5609 -3.87768 -2.80209e-15)
(23.5517 -3.94687 0)
(23.5451 -4.01501 3.06595e-15)
(23.5414 -4.08101 -7.50621e-21)
(23.5402 -4.14472 -3.33432e-15)
(23.5412 -4.20612 0)
(23.5443 -4.26515 0)
(23.5494 -4.32177 0)
(23.5566 -4.37598 0)
(23.5657 -4.42783 -8.02881e-15)
(23.5769 -4.47737 1.66119e-14)
(23.5904 -4.5248 -8.58486e-15)
(23.6068 -4.56993 -8.8619e-15)
(23.6258 -4.6125 9.12668e-15)
(23.6418 -4.65111 0)
(23.6322 -4.67916 9.50988e-15)
(23.5443 -4.6822 -5.55199e-20)
(23.3068 -4.64339 -9.49045e-15)
(22.8707 -4.55501 0)
(22.2423 -4.42425 9.12439e-15)
(21.4755 -4.26849 -8.89826e-15)
(20.6426 -4.10702 0)
(19.8108 -3.95568 0)
(19.0318 -3.82516 0)
(18.3403 -3.72142 0)
(17.7573 -3.64694 -7.92458e-15)
(17.2926 -3.60221 7.76278e-15)
(16.9491 -3.58421 -7.60144e-15)
(16.7222 -3.59232 7.43488e-15)
(16.6029 -3.62176 -7.25762e-15)
(16.5818 -3.66977 7.06601e-15)
(16.6445 -3.73221 0)
(16.7737 -3.80482 0)
(16.9545 -3.88429 0)
(17.1735 -3.96767 0)
(17.419 -4.05256 0)
(17.681 -4.13706 0)
(17.9512 -4.21964 0)
(18.2227 -4.29941 0)
(24.9978 -2.72381 0)
(24.5272 -2.65343 1.06044e-16)
(24.6222 -2.75993 -1.1337e-16)
(24.4109 -2.6892 0)
(24.3956 -2.80287 0)
(24.2359 -2.76834 0)
(24.1907 -2.86683 0)
(24.0852 -2.87493 0)
(24.0307 -2.95957 0)
(23.9519 -2.99884 0)
(23.8956 -3.07636 7.74804e-16)
(23.8301 -3.13468 -8.22519e-16)
(23.7756 -3.21037 1.74466e-15)
(23.7194 -3.27954 -3.69842e-15)
(23.6705 -3.35559 -2.02783e-20)
(23.6256 -3.42947 2.07175e-15)
(23.5868 -3.50607 2.18971e-15)
(23.5524 -3.58228 1.31832e-20)
(23.5236 -3.6593 -4.87662e-15)
(23.4995 -3.73564 -7.6066e-21)
(23.4801 -3.81159 2.70231e-15)
(23.465 -3.88625 0)
(23.4534 -3.96031 -2.97942e-15)
(23.4442 -4.03374 3.56356e-21)
(23.4379 -4.10545 6.54349e-21)
(23.4345 -4.17487 3.41381e-15)
(23.4337 -4.24198 -3.5624e-15)
(23.4352 -4.30673 1.48648e-20)
(23.4391 -4.36905 3.86487e-15)
(23.4452 -4.42893 0)
(23.4537 -4.4864 0)
(23.4645 -4.54153 0)
(23.4781 -4.59446 -4.49846e-15)
(23.4948 -4.64542 4.66205e-15)
(23.5147 -4.69404 4.82078e-15)
(23.5316 -4.73797 -4.96052e-15)
(23.5166 -4.76872 0)
(23.4016 -4.76745 5.09592e-15)
(23.0975 -4.71307 -5.07003e-15)
(22.5536 -4.59882 -4.99858e-15)
(21.7939 -4.43798 2.52901e-20)
(20.896 -4.25473 4.80738e-15)
(19.951 -4.07292 4.71498e-15)
(19.036 -3.91043 -9.26338e-15)
(18.2068 -3.77832 4.55772e-15)
(17.4984 -3.6819 0)
(16.93 -3.6228 0)
(16.5093 -3.59896 0)
(16.2341 -3.60922 0)
(16.096 -3.64814 0)
(16.0841 -3.71182 -4.14505e-15)
(16.1791 -3.79437 9.63067e-21)
(16.3588 -3.89026 3.94596e-15)
(16.603 -3.99473 0)
(16.8937 -4.10365 0)
(17.2149 -4.21365 0)
(17.553 -4.32213 3.50926e-15)
(17.8968 -4.42707 -3.3997e-15)
(18.2373 -4.52699 0)
(18.5679 -4.62118 3.65858e-15)
(25.0081 -2.69335 -4.82209e-17)
(24.5186 -2.61898 5.25324e-17)
(24.617 -2.72948 0)
(24.3985 -2.65435 -2.42857e-16)
(24.3803 -2.77069 2.60651e-16)
(24.2162 -2.73397 0)
(24.167 -2.83352 0)
(24.0567 -2.8406 -6.39633e-16)
(23.998 -2.92677 6.80301e-16)
(23.914 -2.96571 7.24074e-16)
(23.8534 -3.04514 -7.69663e-16)
(23.7825 -3.10411 8.18068e-16)
(23.7234 -3.18215 -1.73733e-15)
(23.6618 -3.25298 9.21953e-16)
(23.6081 -3.33222 -9.77653e-16)
(23.5578 -3.4092 -1.03592e-15)
(23.5144 -3.48934 2.19316e-15)
(23.4753 -3.56935 -2.31951e-15)
(23.4422 -3.65068 2.45055e-15)
(23.4138 -3.73153 0)
(23.3906 -3.81232 2.72634e-15)
(23.3717 -3.89209 -2.87061e-15)
(23.3571 -3.97097 -3.0188e-15)
(23.3454 -4.04912 3.1707e-15)
(23.3363 -4.12622 3.326e-15)
(23.3304 -4.20122 -6.96897e-15)
(23.3273 -4.27389 3.64604e-15)
(23.3269 -4.3442 -3.81068e-15)
(23.3291 -4.41209 3.97869e-15)
(23.3339 -4.47752 0)
(23.3412 -4.54052 0)
(23.3512 -4.60114 -4.50768e-15)
(23.3643 -4.65958 2.70109e-20)
(23.3811 -4.71601 4.88272e-15)
(23.4016 -4.77058 -5.06874e-15)
(23.4191 -4.8204 5.23566e-15)
(23.3983 -4.85429 5.35684e-15)
(23.2546 -4.84839 -5.41008e-15)
(22.8798 -4.77683 0)
(22.2231 -4.63481 5.33773e-15)
(21.3295 -4.44281 -1.05245e-14)
(20.3023 -4.23239 5.18755e-15)
(19.2506 -4.03181 0)
(18.2609 -3.86075 -5.06848e-15)
(17.3919 -3.73063 5.02545e-15)
(16.6787 -3.64611 0)
(16.1385 -3.6072 4.95742e-15)
(15.7749 -3.61138 -4.92193e-15)
(15.5823 -3.65412 -4.87655e-15)
(15.5499 -3.73043 4.81537e-15)
(15.6561 -3.83231 -4.7378e-15)
(15.8722 -3.95224 9.29698e-15)
(16.1721 -4.08386 -1.29884e-20)
(16.5312 -4.22133 -4.45275e-15)
(16.928 -4.3599 0)
(17.3437 -4.49584 0)
(17.7632 -4.6264 -4.14428e-15)
(18.1744 -4.74962 4.03807e-15)
(18.5686 -4.86417 0)
(18.9397 -4.96976 0)
(25.0178 -2.66509 -4.77366e-17)
(24.5109 -2.58693 5.20268e-17)
(24.6124 -2.70114 -1.11147e-16)
(24.3876 -2.62187 1.20188e-16)
(24.3665 -2.74047 2.57938e-16)
(24.1986 -2.70155 -2.7791e-16)
(24.1454 -2.80198 0)
(24.0307 -2.80796 0)
(23.9681 -2.89542 -6.74104e-16)
(23.8793 -2.93386 -1.47104e-20)
(23.8145 -3.0149 7.64132e-16)
(23.7385 -3.07424 -8.13069e-16)
(23.6749 -3.1543 1.72864e-15)
(23.6081 -3.22649 -9.18446e-16)
(23.5498 -3.30843 0)
(23.4941 -3.3881 0)
(23.4461 -3.47153 0)
(23.4022 -3.55492 0)
(23.3646 -3.64022 0)
(23.3319 -3.72523 -1.29964e-15)
(23.3046 -3.81057 2.74501e-15)
(23.2819 -3.89511 2.93819e-21)
(23.2637 -3.97878 -1.52573e-15)
(23.2492 -4.06147 3.21183e-15)
(23.2374 -4.14344 -3.66607e-21)
(23.2286 -4.22373 -3.54613e-15)
(23.223 -4.30173 0)
(23.2204 -4.37735 3.89818e-15)
(23.2205 -4.45056 -8.16279e-15)
(23.2235 -4.52132 4.27009e-15)
(23.2294 -4.58963 0)
(23.2382 -4.65552 0)
(23.2502 -4.71927 4.87616e-15)
(23.2665 -4.78104 -5.09072e-15)
(23.2876 -4.84121 0)
(23.3057 -4.89651 0)
(23.2792 -4.93399 0)
(23.1061 -4.92386 0)
(22.6586 -4.83403 5.72035e-15)
(21.8862 -4.66254 -1.13631e-14)
(20.8577 -4.43808 1.12631e-14)
(19.7032 -4.2002 -1.11764e-14)
(18.5493 -3.9823 1.11169e-14)
(17.4911 -3.80577 -5.54325e-15)
(16.5899 -3.68155 0)
(15.8807 -3.61284 0)
(15.3781 -3.59981 0)
(15.0824 -3.63594 0)
(14.9855 -3.71733 0)
(15.0679 -3.83534 0)
(15.2956 -3.97856 5.42062e-15)
(15.635 -4.13852 -1.06964e-14)
(16.0539 -4.30738 1.05404e-14)
(16.523 -4.47838 -5.18919e-15)
(17.017 -4.64613 0)
(17.5147 -4.80663 -5.01841e-15)
(17.9996 -4.95711 4.92603e-15)
(18.4597 -5.09585 0)
(18.8872 -5.22194 4.71775e-15)
(19.2776 -5.33581 -5.03124e-15)
(25.0267 -2.63901 -4.72373e-17)
(24.504 -2.55723 1.54505e-16)
(24.6083 -2.67487 -2.19957e-16)
(24.378 -2.59169 1.1891e-16)
(24.354 -2.71219 0)
(24.183 -2.67113 0)
(24.1259 -2.7723 -2.93443e-16)
(24.0073 -2.77712 6.26651e-16)
(23.9409 -2.86566 7.84579e-21)
(23.8476 -2.90345 -3.55937e-16)
(23.7788 -2.98582 -7.58166e-16)
(23.6981 -3.04531 8.07475e-16)
(23.63 -3.12708 0)
(23.5583 -3.20035 0)
(23.4955 -3.28453 0)
(23.4347 -3.36649 1.03215e-15)
(23.3819 -3.45297 1.16427e-20)
(23.3334 -3.53934 -1.16201e-15)
(23.2912 -3.62824 -1.23143e-15)
(23.2542 -3.71705 1.30383e-15)
(23.2227 -3.80659 0)
(23.196 -3.89552 -1.4575e-15)
(23.1741 -3.98389 1.53868e-15)
(23.1563 -4.07102 0)
(23.1418 -4.15735 0)
(23.13 -4.24248 0)
(23.1217 -4.32554 0)
(23.1165 -4.40617 1.98742e-15)
(23.1144 -4.48438 -4.17247e-15)
(23.1154 -4.56012 9.48125e-21)
(23.1194 -4.6334 4.59038e-15)
(23.1265 -4.70424 -2.40633e-15)
(23.1371 -4.77295 0)
(23.1524 -4.83971 -2.64206e-15)
(23.1734 -4.9053 2.76285e-15)
(23.1922 -4.96561 -2.875e-15)
(23.1606 -5.0064 2.96145e-15)
(22.9592 -4.99221 0)
(22.4389 -4.88345 -3.02002e-15)
(21.5497 -4.68071 1.70335e-20)
(20.3858 -4.42283 3.00521e-15)
(19.1055 -4.15839 0)
(17.8526 -3.92502 0)
(16.73 -3.74532 -3.02742e-15)
(15.8014 -3.62988 7.64745e-21)
(15.1014 -3.58072 9.23564e-15)
(14.6427 -3.59682 -1.24199e-14)
(14.4229 -3.6706 6.24737e-15)
(14.4298 -3.7955 0)
(14.6289 -3.95792 6.24177e-15)
(14.9795 -4.14586 -6.20919e-15)
(15.4407 -4.34805 0)
(15.9738 -4.55527 0)
(16.5441 -4.75983 0)
(17.1225 -4.95576 0)
(17.6856 -5.13895 0)
(18.2166 -5.30685 0)
(18.7046 -5.45827 0)
(19.1443 -5.59305 0)
(19.5345 -5.71275 0)
(25.035 -2.61516 0)
(24.4978 -2.52979 0)
(24.6046 -2.6506 1.08769e-16)