# Forces      
# CofR        : (0.000000e+00 0.000000e+00 0.000000e+00)
# Time        forces(pressure viscous porous)	moments(pressure viscous porous)
0.05          	((9.375472e+00 1.061147e+02 -3.018084e-19) (5.952457e-01 4.060492e-03 1.393538e-19) (0.000000e+00 0.000000e+00 0.000000e+00)) ((-6.897453e+01 6.094057e+00 -1.035703e+03) (-2.639320e-03 3.869097e-01 -1.564480e-02) (0.000000e+00 0.000000e+00 0.000000e+00))
