# Forces      
# CofR        : (-1.050000e-01 0.000000e+00 0.000000e+00)
# Time        forces(pressure viscous)	moments(pressure viscous)
2522          	((8.051763e-01 5.105353e+01 -4.133256e-18) (3.343735e-01 2.001302e-02 1.540072e-18)) ((1.376592e-20 -2.889627e-19 -1.257591e+00) (4.746092e-22 3.746857e-21 2.288465e-03))
