/*--------------------------------*- C++ -*---------------------------------*\ 
| ========                 |                                                 | 
| \      /  F ield         | OpenFOAM: The Open Source CFD Toolbox           | 
|  \    /   O peration     | Version:  v1812                                 | 
|   \  /    A nd           | Web:      www.OpenFOAM.com                      | 
|    \/     M anipulation  |                                                 | 
\*--------------------------------------------------------------------------*/ 
FoamFile
{
    version     2.0;
    format      ascii;
    class       volVectorField;
    location    "/home/james/dafoam/myRuns/bezier_coanda_opt/0.00000000001/";
    object      sens_CL_shapey;
}
// * * * * * * * * * * * * * * * * * * * * * * * * * * * * * * * * * * * * * //

dimensions      [0 0 0 0 0 0 0];
internalField   uniform (0 0 0);
boundaryField
{
    allWalls
    {
        type  wall;
        value nonuniform List<vector>
196
(
(-0.021343 0.013807 0.000684)
(-0.102701 0.051166 0.000693)
(-0.152496 0.108200 0.000429)
(-0.146174 0.132144 0.000443)
(-0.096603 0.103789 0.000734)
(-0.048824 0.067437 0.000645)
(-0.032480 0.072178 0.000664)
(-0.045287 0.100058 0.000792)
(-0.044025 0.108122 0.000816)
(-0.039064 0.101777 0.000842)
(-0.037496 0.111082 0.000871)
(-0.038210 0.126923 0.001390)
(-0.032549 0.126402 0.001430)
(-0.026253 0.117767 0.001733)
(-0.027063 0.146157 0.002716)
(-0.026551 0.165034 0.003169)
(-0.021573 0.165152 0.003660)
(-0.019951 0.187363 0.004186)
(-0.016115 0.199227 0.004742)
(-0.012524 0.218842 0.005318)
(-0.008202 0.244247 0.006427)
(-0.002919 0.274845 0.007581)
(0.003659 0.315792 0.007141)
(0.011737 0.371997 0.006980)
(0.021246 0.425251 0.006027)
(0.029279 0.446282 0.004051)
(0.034886 0.444649 0.003200)
(0.039428 0.444574 0.002390)
(0.042278 0.427035 0.001723)
(0.044482 0.414568 0.001186)
(0.054216 0.484777 0.000764)
(0.059776 0.510644 0.000279)
(0.060174 0.484274 -0.000021)
(0.064568 0.498221 -0.000021)
(0.067401 0.501298 -0.000021)
(0.070847 0.510209 -0.000021)
(0.073978 0.517994 -0.000273)
(0.076752 0.524335 -0.000530)
(0.079226 0.529459 -0.000535)
(0.081371 0.533055 -0.000535)
(0.083260 0.535712 -0.000535)
(0.084431 0.534358 -0.000535)
(0.084622 0.527448 -0.000535)
(0.084397 0.518811 -0.000386)
(0.085257 0.516366 -0.000237)
(0.086092 0.511243 -0.000237)
(0.081082 0.464259 -0.000237)
(0.067996 0.376398 -0.000237)
(0.060643 0.321138 -0.000237)
(0.077079 0.415754 -0.000425)
(-0.061112 0.486109 -0.000425)
(0.044185 -0.286949 -0.000237)
(-0.009476 0.030637 -0.000237)
(-0.032666 0.194402 -0.000237)
(-0.026684 0.159120 -0.000237)
(-0.023908 0.145396 -0.000237)
(-0.026784 0.164282 -0.000386)
(-0.028966 0.180198 -0.000535)
(-0.030105 0.189831 -0.000535)
(-0.030841 0.197554 -0.000535)
(-0.031570 0.205769 -0.000535)
(-0.032126 0.213538 -0.000535)
(-0.032363 0.220149 -0.000278)
(-0.032362 0.225977 -0.000021)
(-0.032169 0.231067 -0.000021)
(-0.031757 0.235573 -0.000021)
(-0.031139 0.239599 -0.000021)
(-0.030402 0.243912 -0.000021)
(-0.029340 0.246792 -0.000021)
(-0.028362 0.252419 0.000454)
(-0.025859 0.244616 0.000966)
(-0.028573 0.296367 0.001031)
(-0.025288 0.280460 0.001072)
(-0.018371 0.234681 0.001082)
(-0.018196 0.274909 0.001034)
(-0.014750 0.289045 0.000078)
(-0.009210 0.259685 -0.000191)
(-0.003321 0.215815 0.000312)
(0.001074 0.199227 0.000073)
(0.005065 0.182487 -0.000630)
(0.008605 0.163296 -0.001222)
(0.011564 0.147620 -0.001189)
(0.013975 0.136540 -0.000804)
(0.014947 0.116072 -0.000436)
(0.018152 0.115714 -0.000418)
(0.022803 0.124582 -0.000391)
(0.021891 0.104880 -0.000367)
(0.018073 0.075495 -0.000306)
(0.025958 0.087710 -0.000275)
(0.030885 0.090481 -0.000281)
(0.030181 0.074514 -0.000254)
(0.030907 0.066446 -0.000231)
(0.019075 0.030730 -0.000211)
(0.011863 0.000778 -0.000264)
(-0.008572 -0.044490 -0.000249)
(0.003787 -0.038724 -0.000145)
(0.064182 0.051832 -0.000111)
(0.062176 0.104426 0.000283)
(0.029817 0.044040 0.000675)
(0.031338 -0.011523 0.000678)
(0.045828 0.712767 -0.000612)
(-0.006079 0.813235 -0.000612)
(0.010818 0.896052 -0.000612)
(0.060297 1.680487 -0.000612)
(0.091839 2.455339 -0.000612)
(0.086577 2.080807 -0.000565)
(0.097745 1.381815 -0.000518)
(0.538802 9.541313 -0.000518)
(1.893109 34.397388 -0.000518)
(-76.196860 -54.888380 -0.000280)
(799.034040 -992.455620 -0.000518)
(-18.591173 -22.446491 -0.000280)
(-69.250936 -83.868846 -0.000041)
(-751.110953 808.281366 -0.000280)
(-2.159007 463.364173 -0.000041)
(19.972563 185.735165 -0.000041)
(9.577441 67.314561 -0.000041)
(6.451827 30.920091 -0.000041)
(4.773716 18.572007 -0.000041)
(2.127077 7.785909 -0.000041)
(0.139497 1.098663 -0.000041)
(2.727039 6.557565 -0.000041)
(2.450048 5.978217 -0.000041)
(-0.709098 -1.136635 -0.000006)
(-1.494434 -2.281046 0.000030)
(0.475412 0.444058 0.000030)
(1.560399 2.137181 0.000030)
(0.527183 0.607894 0.000030)
(1.426435 1.867056 0.000030)
(1.703500 2.149323 0.000030)
(4.070437 4.407037 0.000030)
(3.084722 3.446446 0.000030)
(-0.764599 -0.213179 0.000030)
(-2.046475 -1.166391 0.000030)
(-2.030437 -1.053653 0.000030)
(0.419213 0.591543 0.000030)
(3.673927 2.386263 0.000030)
(8.289921 4.258895 0.000030)
(-4.183376 -1.273944 0.000030)
(27.283161 10.026921 0.000030)
(32.108505 11.673458 0.000030)
(3.120683 0.070458 0.000030)
(10.515219 -2.892978 0.000030)
(-30.164497 -19.665652 0.000030)
(-119.310454 -8.712374 0.000030)
(-119.860927 8.772568 0.000030)
(-21.066701 -3.860298 0.000030)
(48.362754 -11.640254 0.000030)
(62.281467 -9.180957 0.000030)
(32.449490 -6.158863 0.000030)
(10.782555 -1.853386 0.000030)
(6.257523 -0.688943 0.000030)
(2.155079 -0.924730 0.000030)
(1.175830 -1.412491 0.000030)
(1.232385 -1.869323 0.000030)
(2.413983 -2.105798 0.000030)
(3.660614 -1.818126 0.000030)
(3.005968 -0.860725 0.000030)
(2.656361 -0.232180 0.000030)
(1.652123 0.226820 0.000030)
(0.979108 0.302418 0.000030)
(0.680644 0.126725 0.000030)
(0.321082 0.081910 0.000030)
(0.032648 0.086698 0.000030)
(-0.128459 0.095134 0.000030)
(-0.215643 0.129583 0.000030)
(-0.261046 0.180414 0.000030)
(-0.274524 0.221309 0.000030)
(-0.262675 0.239840 0.000030)
(-0.234698 0.236619 0.000030)
(-0.199056 0.216091 0.000030)
(-0.157241 0.175645 0.000030)
(-0.110904 0.106719 -0.000006)
(-0.071521 0.052064 -0.000041)
(-0.058796 0.063072 -0.000041)
(-0.050810 0.058568 -0.000041)
(-0.025701 -0.006344 -0.000041)
(0.005599 -0.102104 -0.000041)
(0.039228 -0.207694 -0.000041)
(0.063761 -0.287509 -0.000041)
(0.057829 -0.274753 -0.000041)
(0.028629 -0.156143 -0.000041)
(-57.723217 -0.042084 -0.000280)
(57.786041 -0.002553 -0.000280)
(0.247534 -0.059235 -0.000041)
(0.507177 -3.412007 -0.000041)
(0.281219 -2.312169 -0.000280)
(-0.067229 1.350213 -0.000518)
(-0.029174 0.631225 -0.000518)
(-0.024176 0.567513 -0.000565)
(-0.014331 0.412289 -0.000612)
(-0.009244 0.267769 -0.000612)
(-0.012268 0.264689 -0.000612)
(0.000181 0.104785 -0.000612)
(0.032050 -0.137882 -0.000612)
(-0.074552 0.634588 -0.000612)
)
;
    }
}
