/*--------------------------------*- C++ -*----------------------------------*\
  =========                 |
  \\      /  F ield         | OpenFOAM: The Open Source CFD Toolbox
   \\    /   O peration     | Website:  https://openfoam.org
    \\  /    A nd           | Version:  8
     \\/     M anipulation  |
\*---------------------------------------------------------------------------*/
FoamFile
{
    version     2.0;
    format      ascii;
    class       surfaceScalarField;
    location    "0.02";
    object      phi;
}
// * * * * * * * * * * * * * * * * * * * * * * * * * * * * * * * * * * * * * //

dimensions      [0 3 -1 0 0 0 0];

internalField   nonuniform List<scalar> 
225079
(
-0.00355659
0.0263534
-0.00834509
0.0707847
-0.0119307
0.115182
-0.0167273
0.159594
-0.0215374
0.204008
-0.0251467
0.248407
-0.0287538
0.291605
-0.0323575
0.336002
-0.0359591
0.3792
-0.039559
0.424799
-0.0419582
0.466798
-0.0455567
0.511198
-0.0491549
0.555597
-0.052753
0.597597
-0.0539512
0.640797
-0.057549
0.685197
-0.0611468
0.727197
-0.0635446
0.770397
-0.0659424
0.812397
-0.0671402
0.854397
-0.0707377
0.897597
-0.0719355
0.938397
-0.0743331
0.980397
-0.0755307
1.0224
-0.0779281
1.0632
-0.0791257
1.104
-0.0815231
1.146
-0.0827206
1.1844
-0.0839181
1.2252
-0.0863154
1.266
-0.0875129
1.3044
-0.0887103
1.344
-0.0899077
1.3824
-0.0899052
1.4208
-0.0911026
1.4592
-0.0911001
1.4964
-0.0922976
1.5348
-0.0934949
1.572
-0.0934923
1.608
-0.0946897
1.644
-0.0946873
1.68
-0.0946847
1.716
-0.0946823
1.7496
-0.0946799
1.7856
-0.0946774
1.8192
-0.094675
1.8528
-0.0946725
1.8864
-0.0934702
1.9188
-0.0934679
1.9512
-0.0934656
1.9836
-0.0922634
2.0136
-0.092261
2.046
-0.0910588
2.0748
-0.0904566
2.10564
-0.0896145
2.13468
-0.0886524
2.16336
-0.0876903
2.19168
-0.0867284
2.2194
-0.0855264
2.24652
-0.0843244
2.27304
-0.0831226
2.2992
-0.0818007
2.32464
-0.0803589
2.34948
-0.0789172
2.37384
-0.0774753
2.3976
-0.0759137
2.42076
-0.0742319
2.4432
-0.0726702
2.46528
-0.0709885
2.48664
-0.0691871
2.50728
-0.0673855
2.52744
-0.0654641
2.54688
-0.0635427
2.56572
-0.0615012
2.58396
-0.0594597
2.6016
-0.0575385
2.61864
-0.0553771
2.63484
-0.0532158
2.65044
-0.0510546
2.66556
-0.0487735
2.67984
-0.0466124
2.69364
-0.0444512
2.7066
-0.0420502
2.71884
-0.0397692
2.73072
-0.0373683
2.74164
-0.0349674
2.75196
-0.0325664
2.76168
-0.0301657
2.77068
-0.0277649
2.77896
-0.0252442
2.78652
-0.0227234
2.79348
-0.0202028
2.79972
-0.0176822
2.80536
-0.0150417
2.81004
-0.0126412
2.81436
-0.0100608
2.8178
-0.00750445
2.82058
-0.004936
2.82266
-0.00236789
2.82404
0.000200534
2.82475
0.00276858
2.82475
0.00533694
2.82404
0.00790495
2.82266
0.0104611
2.82058
0.0130411
2.8178
0.0154411
2.81436
0.0180811
2.81004
0.020601
2.80536
0.0231209
2.79972
0.0256405
2.79348
0.0281603
2.78652
0.03056
2.77896
0.0329597
2.77068
0.0353593
2.76168
0.0377588
2.75196
0.0401584
2.74164
0.0424379
2.73072
0.0448373
2.71884
0.0469966
2.7066
0.0491559
2.69364
0.0514352
2.67984
0.0535945
2.66556
0.0557535
2.65044
0.0579125
2.63484
0.0598317
2.61864
0.0618705
2.6016
0.0639094
2.58396
0.0658283
2.56572
0.0677472
2.54688
0.0695459
2.52744
0.0713448
2.50728
0.0730235
2.48664
0.0745821
2.46528
0.0762605
2.4432
0.0778193
2.42076
0.0792577
2.3976
0.0806962
2.37384
0.0821347
2.34948
0.0834531
2.32464
0.0846516
2.2992
0.0858499
2.27304
0.0870482
2.24652
0.0880065
2.2194
0.0889647
2.19168
0.0899229
2.16336
0.0907611
2.13468
0.0913592
2.10564
0.0925572
2.0748
0.0925552
2.046
0.0937533
2.0136
0.0937512
1.9836
0.0937491
1.9512
0.0949472
1.9188
0.0949449
1.8864
0.0949426
1.8528
0.0949404
1.8192
0.0949381
1.7856
0.094936
1.7496
0.0949336
1.716
0.0949314
1.68
0.0937289
1.644
0.0937265
1.608
0.0925238
1.572
0.0913214
1.5348
0.091319
1.4964
0.0901164
1.4592
0.090114
1.4208
0.0889114
1.3824
0.0877087
1.344
0.0865062
1.3044
0.0841032
1.266
0.0829006
1.2252
0.081698
1.1844
0.0792951
1.146
0.0780925
1.104
0.0756897
1.0632
0.074487
1.0224
0.0720843
0.980403
0.0708818
0.938402
0.067279
0.897603
0.0660765
0.854402
0.0636739
0.812402
0.0612714
0.770402
0.0576689
0.727202
0.0540665
0.685202
0.0528645
0.640802
0.0492627
0.597602
0.0456612
0.555601
0.0420605
0.511201
0.039661
0.466799
0.0360631
0.424798
0.0324681
0.379195
0.0288771
0.335991
0.0252926
0.291584
0.0217138
0.248379
0.016942
0.203972
0.0121512
0.159591
0.00853865
0.115213
0.00370918
0.0708301
0.0265099
-0.00474205
0.0310917
-0.00949894
0.0755377
-0.0131091
0.118788
-0.0179054
0.164387
-0.0215125
0.207613
-0.0239164
0.25081
-0.0287192
0.296407
-0.0323186
0.3396
-0.0359159
0.382796
-0.0395111
0.428393
-0.0431054
0.470391
-0.0466989
0.51479
-0.0478924
0.55679
-0.0514851
0.601189
-0.0550776
0.644389
-0.0574701
0.687589
-0.0598625
0.729589
-0.0622547
0.772788
-0.0646469
0.814789
-0.0682387
0.857988
-0.069431
0.898788
-0.0730226
0.941988
-0.0742147
0.981589
-0.0766065
1.02479
-0.0777986
1.06439
-0.0801901
1.10639
-0.081382
1.14719
-0.0837737
1.18679
-0.0849655
1.22639
-0.0849576
1.26599
-0.0861495
1.30559
-0.0873413
1.34519
-0.088533
1.38359
-0.0897248
1.42199
-0.0909167
1.46039
-0.0921086
1.49759
-0.0921008
1.53479
-0.0920928
1.57199
-0.0932848
1.60919
-0.093277
1.64399
-0.094469
1.68119
-0.0932615
1.71479
-0.0944536
1.75079
-0.0944461
1.78559
-0.0944385
1.81919
-0.0944311
1.85279
-0.0944237
1.88639
-0.0932168
1.91759
-0.0932094
1.95119
-0.0920025
1.98239
-0.0931949
2.01479
-0.0907887
2.04359
-0.0907818
2.07479
-0.090175
2.10503
-0.0893284
2.13383
-0.0884819
2.16251
-0.0873954
2.19059
-0.0863094
2.21831
-0.0852231
2.24543
-0.0841372
2.27195
-0.0828112
2.29787
-0.0814855
2.32331
-0.0800397
2.34803
-0.0787142
2.37251
-0.077149
2.39603
-0.0755835
2.41919
-0.0740182
2.44163
-0.0723333
2.46359
-0.0705283
2.48483
-0.0687234
2.50547
-0.0669189
2.52563
-0.0649938
2.54495
-0.0631896
2.56391
-0.0612653
2.58203
-0.0592211
2.59955
-0.0570568
2.61647
-0.0550129
2.63279
-0.052969
2.64839
-0.0506853
2.66327
-0.0485218
2.67768
-0.0462383
2.69136
-0.0439552
2.70432
-0.0416718
2.71656
-0.039269
2.72832
-0.036986
2.73936
-0.0345834
2.74956
-0.0321808
2.75928
-0.029658
2.76816
-0.0272561
2.77656
-0.0248535
2.78412
-0.0223317
2.79096
-0.0198097
2.7972
-0.0172882
2.80284
-0.0147665
2.80752
-0.0122448
2.81184
-0.00965121
2.81521
-0.00709415
2.81802
-0.00452512
2.82009
-0.0019684
2.82149
0.000600474
2.82218
0.00316902
2.82218
0.00572572
2.82149
0.00829411
2.8201
0.0108505
2.81802
0.0134423
2.81521
0.015962
2.81184
0.0184817
2.80752
0.0210016
2.80284
0.023521
2.7972
0.0260407
2.79096
0.0284394
2.78412
0.0308389
2.77656
0.0333575
2.76816
0.0357563
2.75928
0.038155
2.74956
0.0404333
2.73936
0.0428319
2.72832
0.0451098
2.71656
0.0473881
2.70432
0.0496658
2.69136
0.0518236
2.67768
0.0541011
2.66328
0.0561385
2.6484
0.0581757
2.6328
0.0603326
2.61648
0.0623696
2.59956
0.0642865
2.58204
0.0660834
2.56392
0.0679994
2.54496
0.069796
2.52564
0.0715922
2.50548
0.0733882
2.48484
0.0750644
2.4636
0.0766201
2.44165
0.0781755
2.41921
0.0797314
2.39605
0.0810468
2.37253
0.0824818
2.34805
0.083797
2.32333
0.0851119
2.29789
0.0861868
2.27197
0.0872614
2.24545
0.0883362
2.21833
0.0894105
2.19061
0.0902447
2.16253
0.0910788
2.13385
0.0916727
2.10505
0.0916664
2.07481
0.0940609
2.04361
0.0928538
2.01481
0.0940475
1.98241
0.0940406
1.95121
0.0952342
1.91761
0.0952273
1.88641
0.0952203
1.85281
0.095213
1.81921
0.0952058
1.78561
0.0939981
1.75081
0.0951909
1.71481
0.093983
1.68121
0.0939753
1.64401
0.0927674
1.60921
0.0927594
1.57201
0.0927516
1.53481
0.0915434
1.49761
0.090335
1.46041
0.0891266
1.42201
0.087918
1.38361
0.0867094
1.34521
0.0855009
1.30561
0.0854925
1.26601
0.0842837
1.22641
0.0818748
1.18681
0.080666
1.14721
0.0782568
1.10641
0.0770481
1.06441
0.074639
1.02481
0.0734303
0.981611
0.0698208
0.942012
0.0686122
0.898811
0.0650029
0.858012
0.0625942
0.814811
0.0601855
0.772811
0.0577769
0.729611
0.0553687
0.68761
0.0517606
0.64441
0.0481529
0.601209
0.0469466
0.556807
0.0433408
0.514806
0.0397367
0.470403
0.0361344
0.4284
0.0325363
0.382793
0.0289423
0.339585
0.0241556
0.296371
0.0217725
0.250761
0.0181993
0.207545
0.013407
0.164383
0.00983914
0.118781
0.00494564
0.0757234
0.0314549
-0.00479818
0.0358863
-0.00831241
0.0790482
-0.0131006
0.123573
-0.0166862
0.16797
-0.0202863
0.211211
-0.0250856
0.255607
-0.028686
0.300006
-0.0322829
0.343196
-0.0358772
0.386389
-0.0382691
0.430783
-0.0430586
0.47518
-0.0454475
0.517178
-0.0490355
0.560377
-0.0526227
0.604775
-0.0550101
0.646775
-0.0573972
0.689975
-0.0609835
0.733174
-0.0633702
0.775174
-0.0657565
0.817174
-0.0669434
0.859174
-0.0705291
0.902373
-0.0717157
0.943174
-0.0753013
0.985174
-0.0764876
1.02597
-0.0788733
1.06677
-0.0800596
1.10757
-0.0812456
1.14837
-0.0824319
1.18797
-0.0836181
1.22757
-0.0860038
1.26837
-0.0871897
1.30677
-0.0883758
1.34637
-0.0895618
1.38477
-0.0907482
1.42317
-0.0907346
1.46037
-0.0919207
1.49877
-0.0919075
1.53478
-0.0930936
1.57317
-0.0930803
1.60917
-0.0942669
1.64517
-0.0930541
1.67998
-0.0942409
1.71598
-0.0942278
1.75078
-0.0942144
1.78558
-0.0942022
1.81918
-0.0941893
1.85278
-0.0929773
1.88518
-0.0941643
1.91878
-0.0929525
1.94998
-0.0929404
1.98238
-0.0917287
2.01358
-0.0917165
2.04358
-0.0917051
2.07478
-0.0898941
2.10322
-0.0890424
2.13298
-0.0880717
2.16154
-0.0871012
2.18962
-0.0861299
2.21734
-0.0849197
2.24422
-0.0837092
2.27074
-0.0823794
2.29654
-0.0810497
2.32198
-0.07984
2.34682
-0.0782702
2.37094
-0.076821
2.39458
-0.0752519
2.41762
-0.0735635
2.43994
-0.0718742
2.4619
-0.0701862
2.48314
-0.0684978
2.50378
-0.0665696
2.5237
-0.0647619
2.54315
-0.0627141
2.56187
-0.0607869
2.58011
-0.0588598
2.59763
-0.0568124
2.61443
-0.0546457
2.63063
-0.0524798
2.64623
-0.0503129
2.66111
-0.0481474
2.67551
-0.0458614
2.68907
-0.0435756
2.70203
-0.0412899
2.71427
-0.0390051
2.72603
-0.0366005
2.73695
-0.0341955
2.74715
-0.0317911
2.75687
-0.0293869
2.76575
-0.0268625
2.77403
-0.0243392
2.78159
-0.0219357
2.78855
-0.0194123
2.79467
-0.0168891
2.80031
-0.0143661
2.80499
-0.0118438
2.80931
-0.00926172
2.81263
-0.00670392
2.81546
-0.00413426
2.81752
-0.00156427
2.81892
0.00100511
2.81961
0.00357414
2.81961
0.00614256
2.81892
0.00871132
2.81753
0.0112679
2.81546
0.0138482
2.81263
0.0163683
2.80932
0.0188877
2.805
0.0214069
2.80032
0.0239259
2.79468
0.0263247
2.78856
0.0288438
2.7816
0.0313617
2.77404
0.0337598
2.76576
0.0361577
2.75688
0.038555
2.74716
0.0409526
2.73696
0.0432301
2.72604
0.0455066
2.71429
0.047783
2.70205
0.0500592
2.68909
0.0522159
2.67553
0.054371
2.66113
0.0565272
2.64625
0.0586826
2.63065
0.0607172
2.61445
0.0626321
2.59765
0.064547
2.58013
0.066581
2.56189
0.0683753
2.54317
0.070289
2.52373
0.0719624
2.50381
0.0736362
2.48317
0.0753086
2.46193
0.076982
2.43997
0.0785346
2.41765
0.079967
2.39461
0.0815188
2.37097
0.0827106
2.34685
0.0840225
2.32201
0.0853341
2.29657
0.086525
2.27078
0.0877162
2.24426
0.0886661
2.21738
0.0896169
2.18966
0.0905674
2.16158
0.0913968
2.13302
0.0931868
2.10326
0.0931765
2.07482
0.0931652
2.04362
0.0943544
2.01362
0.0943431
1.98242
0.0955321
1.95002
0.0943196
1.91882
0.0955083
1.88522
0.0954959
1.85282
0.0954842
1.81922
0.0954711
1.78562
0.0954583
1.75082
0.0942452
1.71602
0.0954326
1.68002
0.0942193
1.64522
0.0942059
1.60922
0.0929918
1.57322
0.0929784
1.53482
0.0917641
1.49882
0.09175
1.46042
0.0905359
1.42322
0.0893213
1.38483
0.0881066
1.34643
0.0868916
1.30683
0.0844762
1.26843
0.0832613
1.22763
0.0820465
1.18803
0.0808312
1.14843
0.0796162
1.10763
0.0772004
1.06683
0.0759852
1.02603
0.0723691
0.985227
0.0711542
0.943227
0.0675379
0.902427
0.0663232
0.859226
0.0639078
0.817226
0.0614929
0.775226
0.0578775
0.733226
0.0554634
0.690025
0.0530497
0.646823
0.0494362
0.604823
0.0458241
0.560419
0.0434139
0.517216
0.0386053
0.475212
0.0362009
0.430804
0.0326014
0.386392
0.029007
0.343179
0.0254207
0.299957
0.020635
0.255547
0.0170548
0.211125
0.0134443
0.167994
0.00863578
0.12359
0.00484271
0.079517
0.0362986
-0.0036257
0.0395083
-0.00836597
0.0837846
-0.0131246
0.128328
-0.0166951
0.171538
-0.0214795
0.215993
-0.0250697
0.259196
-0.0286632
0.303597
-0.0322552
0.346786
-0.0358453
0.389978
-0.0394326
0.43437
-0.0418183
0.477564
-0.0454021
0.520761
-0.0489847
0.563958
-0.051367
0.607157
-0.0549483
0.650356
-0.0573296
0.692355
-0.0597108
0.735555
-0.0620916
0.777555
-0.0656717
0.820754
-0.0680522
0.861554
-0.0692332
0.903554
-0.0716132
0.945553
-0.073993
0.987553
-0.0751734
1.02715
-0.0775533
1.06915
-0.0787338
1.10875
-0.0811135
1.15075
-0.0822937
1.18915
-0.0846734
1.22995
-0.0858536
1.26955
-0.0870339
1.30795
-0.0870144
1.34635
-0.088195
1.38595
-0.0893749
1.42435
-0.0905552
1.46155
-0.0905361
1.49875
-0.0929159
1.53715
-0.0928968
1.57315
-0.0928779
1.60916
-0.0928591
1.64516
-0.0940397
1.68116
-0.0940215
1.71596
-0.0940033
1.75076
-0.0939847
1.78556
-0.0939663
1.81916
-0.0939485
1.85276
-0.0939303
1.88516
-0.0927134
1.91756
-0.092696
1.94996
-0.0926782
1.98236
-0.0914623
2.01236
-0.0914453
2.04356
-0.0902285
2.07356
-0.0896122
2.1026
-0.0887567
2.13212
-0.087781
2.16056
-0.0869253
2.18876
-0.0857106
2.21612
-0.0846153
2.24312
-0.083401
2.26953
-0.0821862
2.29533
-0.0808517
2.32065
-0.0793981
2.34537
-0.0779453
2.36949
-0.0764914
2.39313
-0.0747985
2.41593
-0.0733458
2.43849
-0.0716539
2.46021
-0.069841
2.48133
-0.068029
2.50197
-0.0662179
2.52189
-0.0644071
2.54133
-0.0624758
2.55993
-0.0604256
2.57806
-0.0583748
2.59558
-0.0563257
2.61238
-0.0542754
2.62858
-0.0521062
2.64406
-0.0500578
2.65906
-0.0477684
2.67322
-0.0454798
2.68678
-0.0431924
2.69974
-0.0410251
2.7121
-0.0386174
2.72362
-0.03621
2.73454
-0.0338036
2.74474
-0.0313974
2.75447
-0.0289915
2.76335
-0.0264658
2.77151
-0.0240604
2.77919
-0.0215354
2.78603
-0.0190105
2.79215
-0.0164859
2.79779
-0.0139624
2.80247
-0.0113184
2.80667
-0.00885544
2.81016
-0.00628401
2.81289
-0.00372566
2.81497
-0.00115554
2.81635
0.00141439
2.81704
0.0039839
2.81704
0.00655322
2.81635
0.00911031
2.81497
0.0116783
2.81289
0.0141388
2.81017
0.0167781
2.80668
0.0192981
2.80248
0.0218169
2.7978
0.0243353
2.79216
0.0268536
2.78604
0.0292516
2.7792
0.0317692
2.77152
0.0341666
2.76337
0.0365637
2.75449
0.0389605
2.74477
0.0413562
2.73457
0.0437518
2.72365
0.0459076
2.71213
0.0481833
2.69977
0.0504578
2.68681
0.0527314
2.67325
0.054766
2.65909
0.0569198
2.64409
0.0589524
2.62861
0.0609862
2.61241
0.0630182
2.59562
0.0650509
2.5781
0.0669623
2.55998
0.0687542
2.54138
0.0705459
2.52194
0.0723364
2.50202
0.074126
2.48138
0.0757967
2.46026
0.0772264
2.43854
0.0788959
2.41598
0.0803243
2.39318
0.0817538
2.36954
0.0831823
2.34543
0.0844899
2.32071
0.0856771
2.29539
0.0868647
2.26959
0.0879313
2.24319
0.0891184
2.21619
0.0899444
2.18883
0.0908902
2.16063
0.0917163
2.13219
0.0923014
2.10267
0.0934859
2.07363
0.0934702
2.04363
0.0946555
2.01243
0.0946386
1.98244
0.0946222
1.95004
0.0958062
1.91764
0.0957887
1.88524
0.0957715
1.85284
0.0957536
1.81924
0.0957353
1.78564
0.0957175
1.75084
0.0956995
1.71604
0.0944801
1.68124
0.0944612
1.64524
0.094442
1.60924
0.0944226
1.57324
0.0920017
1.53724
0.091982
1.49884
0.0907614
1.46164
0.0895402
1.42445
0.0883197
1.38605
0.0882991
1.34645
0.087078
1.30805
0.0858567
1.26965
0.0834345
1.23005
0.0822128
1.18925
0.0797905
1.15085
0.0785689
1.10885
0.0761465
1.06925
0.0749246
1.02725
0.0725018
0.98765
0.0700791
0.945649
0.0688577
0.903649
0.0664354
0.861648
0.0628125
0.820849
0.0603906
0.777648
0.0579693
0.735647
0.0555481
0.692446
0.0519272
0.650444
0.0495078
0.607242
0.0458893
0.564038
0.0422728
0.520832
0.0398598
0.477625
0.0362499
0.434414
0.0326453
0.389996
0.0290452
0.346779
0.0254499
0.303552
0.021851
0.259146
0.0170455
0.21593
0.0134054
0.171634
0.00853929
0.128455
0.00358487
0.0844709
0.0398822
-0.00481601
0.0443209
-0.00959897
0.088564
-0.0131442
0.13187
-0.0167043
0.175096
-0.0202736
0.21956
-0.0250528
0.263973
-0.0286384
0.307182
-0.0322255
0.350372
-0.0358113
0.393563
-0.0393947
0.437952
-0.0429759
0.481144
-0.046555
0.524339
-0.0489335
0.566336
-0.05251
0.610732
-0.0548866
0.652732
-0.058462
0.69593
-0.0608375
0.737929
-0.063213
0.779929
-0.0643887
0.821929
-0.0679624
0.865127
-0.0703367
0.905928
-0.0727111
0.947927
-0.0738858
0.988727
-0.0762599
1.02953
-0.0774347
1.07033
-0.0798085
1.11113
-0.0809827
1.15193
-0.0821573
1.19033
-0.0833313
1.23113
-0.0845052
1.27073
-0.0856796
1.30913
-0.0880535
1.34873
-0.0892273
1.38713
-0.0892025
1.42433
-0.0903768
1.46273
-0.0915512
1.49993
-0.0915265
1.53713
-0.0915023
1.57313
-0.0926769
1.61033
-0.0926524
1.64513
-0.0926279
1.68113
-0.0938028
1.71713
-0.0937785
1.75073
-0.0937549
1.78553
-0.0937309
1.81913
-0.0925086
1.85154
-0.0924855
1.88514
-0.0936619
1.91874
-0.0924394
1.94874
-0.0912175
1.98114
-0.0911946
2.01234
-0.0899732
2.04234
-0.089952
2.07354
-0.0893307
2.10198
-0.0884698
2.13126
-0.0876091
2.1597
-0.0865088
2.18766
-0.0854095
2.21502
-0.0843096
2.24202
-0.0830909
2.26831
-0.0818715
2.29411
-0.0805333
2.31931
-0.0790755
2.34391
-0.0777371
2.36815
-0.0761598
2.39155
-0.0745828
2.41435
-0.0728862
2.43679
-0.0711899
2.45851
-0.0694947
2.47964
-0.0677989
2.50028
-0.0659836
2.52008
-0.0639295
2.53928
-0.0621157
2.55812
-0.0601803
2.57612
-0.0581281
2.59352
-0.0560743
2.61032
-0.0539028
2.62641
-0.0517297
2.64189
-0.0495579
2.65689
-0.0473863
2.67105
-0.0450962
2.68449
-0.0428055
2.69745
-0.0405149
2.70981
-0.0381048
2.72121
-0.035816
2.73225
-0.0334077
2.74234
-0.0309985
2.75206
-0.0284708
2.76082
-0.0261833
2.76922
-0.0235364
2.77654
-0.0211297
2.78362
-0.0186044
2.78962
-0.0160783
2.79526
-0.0135538
2.79995
-0.0110285
2.80415
-0.00843271
2.80757
-0.00588523
2.81034
-0.00331304
2.81239
-0.000742282
2.81378
0.00182821
2.81447
0.00439822
2.81447
0.00696795
2.81378
0.00953625
2.8124
0.0120812
2.81035
0.0146739
2.80758
0.017193
2.80416
0.019713
2.79996
0.0222314
2.79528
0.0247505
2.78964
0.0271481
2.78365
0.0297855
2.77657
0.0320624
2.76925
0.034579
2.76085
0.036974
2.75209
0.0393699
2.74237
0.0416453
2.73229
0.0440393
2.72125
0.0463128
2.70986
0.0485862
2.6975
0.05086
2.68454
0.0530125
2.6711
0.0551646
2.65694
0.0573153
2.64194
0.0594677
2.62646
0.0614976
2.61038
0.0635292
2.59358
0.0654373
2.57619
0.0672271
2.55819
0.0692566
2.53935
0.0710447
2.52015
0.0727123
2.50035
0.0743804
2.47971
0.0760473
2.45859
0.0777139
2.43687
0.07926
2.41444
0.0808057
2.39164
0.0821101
2.36824
0.0835351
2.344
0.0848397
2.3194
0.0860228
2.2942
0.0872066
2.2684
0.0882691
2.24213
0.0893321
2.21513
0.0903939
2.18777
0.0912152
2.15981
0.0920362
2.13137
0.0926167
2.10209
0.0925972
2.07365
0.0937774
2.04245
0.0937557
2.01246
0.0949352
1.98126
0.0961138
1.94886
0.0948912
1.91886
0.094869
1.88526
0.0960475
1.85166
0.096024
1.81926
0.0960008
1.78566
0.0959768
1.75086
0.0947517
1.71727
0.0947271
1.68127
0.0947024
1.64527
0.0934764
1.61047
0.0934518
1.57327
0.0934263
1.53727
0.0921997
1.50007
0.0909728
1.46287
0.0909467
1.42447
0.0897189
1.38727
0.087291
1.34887
0.0860634
1.30927
0.0848351
1.27088
0.0836067
1.23128
0.082379
1.19048
0.0811504
1.15208
0.0787213
1.11128
0.0774932
1.07048
0.0750641
1.02968
0.0738355
0.988878
0.0714063
0.948078
0.068977
0.906078
0.0653466
0.865279
0.0641188
0.822077
0.0616906
0.780076
0.0592625
0.738075
0.0556343
0.696074
0.0532078
0.652871
0.0495814
0.610868
0.0471581
0.566461
0.0435361
0.524454
0.0399175
0.481243
0.0363029
0.438028
0.0326932
0.393606
0.0290865
0.350385
0.0254802
0.307158
0.0206639
0.263962
0.0170318
0.219562
0.0133697
0.175296
0.00967348
0.132152
0.00479699
0.0893478
0.0446804
-0.00480434
0.0491215
-0.00841307
0.0921689
-0.0131579
0.136612
-0.0179117
0.179847
-0.0214682
0.223115
-0.0250375
0.267541
-0.0286146
0.310757
-0.0321956
0.353952
-0.036976
0.398342
-0.0393565
0.440331
-0.0429339
0.484721
-0.0453098
0.526714
-0.048883
0.569908
-0.0512558
0.613104
-0.0548264
0.656301
-0.0571971
0.6983
-0.0595673
0.740299
-0.063136
0.783497
-0.0655053
0.824297
-0.0666754
0.866297
-0.0690443
0.908296
-0.0714125
0.950295
-0.0737808
0.991095
-0.0761485
1.03189
-0.0773172
1.0715
-0.079685
1.11349
-0.0808531
1.15309
-0.0832208
1.19269
-0.0843893
1.23229
-0.0855576
1.27189
-0.0867261
1.3103
-0.0878938
1.34989
-0.0878632
1.3871
-0.0890316
1.4255
-0.0901998
1.4639
-0.0913682
1.5011
-0.0913377
1.5371
-0.0925063
1.5743
-0.0924758
1.6103
-0.0936445
1.6463
-0.093615
1.6811
-0.0935848
1.7171
-0.0935556
1.7507
-0.0935257
1.7855
-0.0934968
1.8191
-0.0934675
1.85151
-0.093439
1.88511
-0.0922107
1.91751
-0.0921827
1.94871
-0.0921548
1.98111
-0.0909281
2.01111
-0.0909008
2.04231
-0.0896736
2.07231
-0.0890481
2.10135
-0.0881822
2.1304
-0.0871965
2.15872
-0.0862122
2.18668
-0.0852262
2.21404
-0.0840026
2.2408
-0.0827784
2.26708
-0.0815564
2.29288
-0.0802128
2.31796
-0.0788706
2.34257
-0.0772878
2.36657
-0.0757074
2.38997
-0.0742463
2.41289
-0.0726645
2.43521
-0.0709642
2.45681
-0.0692642
2.47794
-0.0673258
2.49834
-0.0655079
2.51826
-0.063688
2.53746
-0.0617508
2.55618
-0.059694
2.57406
-0.0576365
2.59147
-0.0555805
2.60827
-0.053525
2.62435
-0.0514698
2.63983
-0.0491752
2.65459
-0.0468821
2.66875
-0.044707
2.68231
-0.0425335
2.69528
-0.0401217
2.7074
-0.0378303
2.71892
-0.0352995
2.72972
-0.0330078
2.74004
-0.0305976
2.74965
-0.028188
2.75841
-0.0256588
2.76669
-0.0232501
2.77413
-0.0206018
2.78097
-0.0181939
2.78721
-0.0156678
2.79274
-0.0131395
2.79742
-0.0106156
2.80162
-0.00802816
2.80498
-0.00545586
2.80777
-0.0028959
2.80983
-0.000324487
2.8112
0.00224659
2.8119
0.0048171
2.8119
0.00738727
2.81121
0.00994488
2.80984
0.0125142
2.80778
0.0150923
2.805
0.0176138
2.80164
0.0201311
2.79744
0.0226504
2.79276
0.025048
2.78725
0.0276851
2.78101
0.0300818
2.77417
0.0325979
2.76673
0.0349937
2.75845
0.0373888
2.7497
0.0396623
2.7401
0.0421767
2.72978
0.0444504
2.71898
0.0468437
2.70746
0.0489953
2.69534
0.051145
2.68239
0.0534169
2.66883
0.0556871
2.65467
0.0577167
2.63991
0.059746
2.62443
0.0617746
2.60836
0.0638017
2.59156
0.0658294
2.57416
0.0677367
2.55628
0.0695211
2.53756
0.0713074
2.51836
0.0732133
2.49845
0.0748774
2.47805
0.0765411
2.45693
0.0780831
2.43533
0.0795057
2.41301
0.0810491
2.39009
0.0825897
2.3667
0.083891
2.3427
0.0851906
2.3181
0.086372
2.29302
0.0875507
2.26722
0.08873
2.24095
0.0896666
2.21419
0.090605
2.18683
0.0915418
2.15887
0.0923582
2.13055
0.092935
2.10151
0.0941097
2.07248
0.0940842
2.04248
0.0952592
2.01128
0.0952328
1.98128
0.0952061
1.94888
0.0963791
1.91769
0.0963516
1.88529
0.096323
1.85169
0.0962948
1.81929
0.0962652
1.78569
0.0962364
1.75089
0.0962062
1.7173
0.0961767
1.6813
0.0949448
1.6465
0.0949138
1.6105
0.0936815
1.5745
0.09365
1.5373
0.092417
1.5013
0.0911837
1.4641
0.0899502
1.4257
0.0899178
1.38731
0.0886832
1.35011
0.0874492
1.31051
0.086215
1.27211
0.0849806
1.23251
0.082545
1.19291
0.0813098
1.15331
0.0788739
1.11371
0.0776389
1.07171
0.0752025
1.03211
0.0727665
0.991314
0.0703302
0.950514
0.0678946
0.908513
0.0666605
0.866513
0.0642251
0.824512
0.0605888
0.783712
0.0581545
0.740509
0.055721
0.698507
0.0520874
0.656504
0.049657
0.613298
0.0460274
0.57009
0.043602
0.52688
0.0399791
0.484866
0.0375615
0.440446
0.0327451
0.398422
0.0291308
0.353999
0.0255121
0.310776
0.02188
0.267594
0.0182248
0.223217
0.0133486
0.180172
0.00844524
0.137055
0.00481947
0.0929731
0.0494981
-0.00360457
0.0527229
-0.00841962
0.0969805
-0.0119739
0.140163
-0.0167254
0.184596
-0.0214715
0.227859
-0.0250296
0.271097
-0.0285967
0.314323
-0.0321704
0.357524
-0.0357461
0.401916
-0.0393215
0.443906
-0.0416956
0.487094
-0.0452665
0.530284
-0.0488354
0.573476
-0.0524022
0.61667
-0.0547689
0.658667
-0.0571348
0.700665
-0.0606984
0.743862
-0.0618638
0.784662
-0.0654265
0.827859
-0.0677897
0.868659
-0.0701524
0.910658
-0.0713163
0.951458
-0.0736783
0.993456
-0.0748416
1.03306
-0.0784023
1.07506
-0.0783661
1.11346
-0.0807275
1.15546
-0.0818896
1.19386
-0.0830521
1.23346
-0.0842145
1.27306
-0.086575
1.31266
-0.0865385
1.34986
-0.0888995
1.38946
-0.0900617
1.42666
-0.0900252
1.46386
-0.0899886
1.50106
-0.091151
1.53826
-0.0923134
1.57546
-0.0922771
1.61026
-0.0922416
1.64626
-0.0934044
1.68226
-0.0921696
1.71587
-0.0933326
1.75187
-0.0932977
1.78547
-0.0920634
1.81787
-0.093228
1.85267
-0.0931929
1.88507
-0.0919601
1.91627
-0.0919265
1.94867
-0.0918932
1.98108
-0.0918601
2.01108
-0.0906284
2.04108
-0.0893969
2.07108
-0.0887653
2.10072
-0.0877743
2.1294
-0.0869035
2.15785
-0.0859132
2.18569
-0.0848043
2.21293
-0.0836959
2.23969
-0.0824668
2.26585
-0.0812381
2.29166
-0.079891
2.31662
-0.0784232
2.3411
-0.0769581
2.3651
-0.0754911
2.3885
-0.0739058
2.41131
-0.0722022
2.43351
-0.0706177
2.45523
-0.0687939
2.47611
-0.0670903
2.49663
-0.0651475
2.51632
-0.0633262
2.53564
-0.0612642
2.55412
-0.059324
2.57212
-0.0573843
2.58953
-0.0552051
2.60609
-0.053145
2.62229
-0.0509668
2.63765
-0.0487891
2.65241
-0.046612
2.66658
-0.0444366
2.68014
-0.0420205
2.69286
-0.0397263
2.7051
-0.0373112
2.71651
-0.0350166
2.72743
-0.032604
2.73763
-0.0301918
2.74723
-0.0277803
2.756
-0.0252477
2.76416
-0.0228387
2.77172
-0.0203087
2.77844
-0.0177793
2.78469
-0.0152503
2.79021
-0.0127234
2.79489
-0.0100756
2.79897
-0.00760969
2.80251
-0.00504694
2.80521
-0.00247421
2.80726
9.78726e-05
2.80863
0.00266955
2.80933
0.00524058
2.80933
0.00781121
2.80864
0.0103812
2.80727
0.0129371
2.80522
0.0153978
2.80254
0.0180367
2.799
0.0205564
2.79492
0.023074
2.79025
0.0255911
2.78473
0.0281076
2.77849
0.0305051
2.77177
0.0330189
2.76422
0.0354137
2.75606
0.0378079
2.7473
0.0402016
2.7377
0.0424732
2.72751
0.0448642
2.71659
0.0471362
2.70519
0.049526
2.69295
0.0516767
2.68024
0.0538254
2.66668
0.0559735
2.65252
0.058121
2.63776
0.0601465
2.62241
0.062293
2.60621
0.0641987
2.58965
0.0661039
2.57225
0.0681272
2.55426
0.0699112
2.53578
0.0718134
2.51646
0.0734748
2.49678
0.0752558
2.47627
0.076796
2.45539
0.0784572
2.43367
0.0799963
2.41147
0.0814136
2.38868
0.0828329
2.36528
0.0842491
2.34128
0.0855458
2.3168
0.0867208
2.29185
0.0878952
2.26605
0.0889503
2.23989
0.0900048
2.21313
0.0909375
2.1859
0.0917495
2.15806
0.0926812
2.12962
0.0932521
2.10094
0.094423
2.07131
0.0955935
2.04131
0.0955624
2.01131
0.0955307
1.98131
0.0954987
1.94892
0.0966674
1.91652
0.0966333
1.88532
0.0953986
1.85292
0.0965651
1.81812
0.0965308
1.78573
0.0952938
1.75213
0.0964591
1.71613
0.0952214
1.68253
0.0951856
1.64653
0.0951485
1.61054
0.0939097
1.57574
0.0926707
1.53854
0.0926327
1.50134
0.0925944
1.46414
0.0913544
1.42694
0.0889127
1.38975
0.0888737
1.35015
0.0864308
1.31295
0.08519
1.27335
0.0839491
1.23375
0.0827075
1.19415
0.0802646
1.15575
0.0802245
1.11375
0.0765802
1.07536
0.075339
1.03335
0.0728958
0.993757
0.0716548
0.951755
0.0692121
0.910956
0.0667697
0.868955
0.0631266
0.828155
0.0618869
0.784952
0.0582448
0.744151
0.0558058
0.700946
0.0533679
0.658942
0.0497303
0.616936
0.0460959
0.573725
0.0424645
0.530511
0.0400382
0.487292
0.0364144
0.444069
0.0327924
0.402044
0.0291682
0.357623
0.0255352
0.314409
0.0218847
0.271244
0.01701
0.228092
0.0121267
0.185056
0.00843487
0.140747
0.00362451
0.0977836
0.0531241
-0.00480817
0.0575273
-0.00962468
0.101793
-0.0131895
0.143725
-0.0167423
0.188147
-0.020283
0.231398
-0.0238311
0.274643
-0.0285861
0.319076
-0.0321508
0.361088
-0.0357196
0.405484
-0.0392896
0.447474
-0.0428586
0.490662
-0.0464252
0.533849
-0.0487908
0.575841
-0.0511544
0.619033
-0.0547149
0.662227
-0.0570756
0.703025
-0.0594354
0.746221
-0.0629931
0.788219
-0.0641525
0.829018
-0.0677084
0.872215
-0.0688672
0.911816
-0.0724217
0.955012
-0.07358
0.994614
-0.0759357
1.03541
-0.0770923
1.07621
-0.079448
1.11581
-0.0806047
1.15661
-0.0817613
1.19501
-0.0841157
1.23581
-0.085272
1.27421
-0.0852295
1.31261
-0.0875842
1.35221
-0.0875409
1.38941
-0.0886969
1.42781
-0.089853
1.46501
-0.0910099
1.50222
-0.0909666
1.53822
-0.0909241
1.57542
-0.0920813
1.61142
-0.0932368
1.64742
-0.091997
1.68102
-0.0931537
1.71702
-0.0931128
1.75182
-0.0930711
1.78542
-0.0930309
1.81783
-0.0929897
1.85263
-0.091751
1.88383
-0.0929091
1.91743
-0.0916711
1.94744
-0.0904333
1.97984
-0.0903946
2.01104
-0.0903551
2.04104
-0.0891195
2.06984
-0.0884813
2.10008
-0.0876061
2.12853
-0.08673
2.15697
-0.0856146
2.18457
-0.0846207
2.21194
-0.0833863
2.23846
-0.082272
2.26474
-0.0807999
2.29018
-0.0794481
2.31526
-0.0780968
2.33975
-0.0767445
2.36375
-0.0751543
2.38691
-0.0735646
2.40972
-0.0719754
2.43192
-0.0701469
2.4534
-0.0684403
2.4744
-0.0666127
2.49481
-0.0647857
2.51449
-0.0628409
2.53369
-0.0610149
2.55229
-0.0590712
2.57018
-0.0568866
2.58734
-0.0549439
2.60414
-0.052762
2.62011
-0.0505806
2.63547
-0.0484015
2.65024
-0.0462196
2.6644
-0.0439218
2.67784
-0.0416227
2.69056
-0.0393244
2.70281
-0.0370283
2.71421
-0.0346111
2.72501
-0.0321963
2.73522
-0.029782
2.74482
-0.0272467
2.75346
-0.0248353
2.76175
-0.0223013
2.76919
-0.0198895
2.77603
-0.0173602
2.78216
-0.0148297
2.78768
-0.0123016
2.79236
-0.0097724
2.79644
-0.00717352
2.79992
-0.00461132
2.80264
-0.00204797
2.8047
0.000524832
2.80606
0.00309712
2.80676
0.0056687
2.80676
0.00823975
2.80607
0.0107962
2.80472
0.0133539
2.80267
0.0159468
2.79995
0.0184654
2.79648
0.0209851
2.7924
0.0235022
2.78773
0.0260206
2.78221
0.0284164
2.7761
0.0309299
2.76926
0.0333262
2.76182
0.0358383
2.75355
0.0382314
2.74491
0.040624
2.73531
0.043014
2.72512
0.0452852
2.71432
0.0475539
2.70292
0.0498219
2.69069
0.0520911
2.67797
0.054236
2.66453
0.0563838
2.65037
0.0585291
2.63562
0.0606738
2.62026
0.0625777
2.6043
0.0647193
2.58751
0.066622
2.57035
0.0684021
2.55248
0.0703034
2.53388
0.0720823
2.51468
0.0738605
2.49501
0.0755196
2.47461
0.0772966
2.45361
0.0788328
2.43213
0.0803683
2.40994
0.0819031
2.38714
0.0831956
2.36399
0.084489
2.33999
0.0857818
2.31551
0.0871941
2.29043
0.0882438
2.265
0.0894133
2.23872
0.0903432
2.2122
0.0913913
2.18485
0.0921985
2.15725
0.0930066
2.12881
0.093571
2.10038
0.0947383
2.07014
0.094701
2.04135
0.0946644
2.01135
0.0958287
1.98015
0.0969926
1.94775
0.0957518
1.91776
0.0969146
1.88416
0.0968742
1.85296
0.0968348
1.81816
0.0967934
1.78577
0.0967529
1.75217
0.0955092
1.71737
0.0966694
1.68137
0.0954238
1.64778
0.09418
1.61178
0.0941362
1.57578
0.0940912
1.53858
0.0928463
1.50259
0.0916
1.46539
0.0903533
1.42819
0.0903072
1.38979
0.0878583
1.3526
0.0878127
1.313
0.0865652
1.2746
0.084115
1.2362
0.0828674
1.1954
0.0816194
1.157
0.0791699
1.1162
0.0779213
1.0766
0.0754711
1.0358
0.0742241
0.995004
0.0705718
0.955407
0.0693247
0.912203
0.0656738
0.872606
0.0644272
0.829402
0.0607782
0.7886
0.0583319