/*--------------------------------*- C++ -*----------------------------------*\
  =========                 |
  \\      /  F ield         | OpenFOAM: The Open Source CFD Toolbox
   \\    /   O peration     | Website:  https://openfoam.org
    \\  /    A nd           | Version:  8
     \\/     M anipulation  |
\*---------------------------------------------------------------------------*/
FoamFile
{
    version     2.0;
    format      ascii;
    class       volScalarField;
    location    "30";
    object      nut;
}
// * * * * * * * * * * * * * * * * * * * * * * * * * * * * * * * * * * * * * //

dimensions      [0 2 -1 0 0 0 0];

internalField   nonuniform List<scalar> 
277560
(
0.139968
0.139923
0.139884
0.139844
0.1398
0.13975
0.139693
0.139627
0.139552
0.139467
0.13937
0.139262
0.139143
0.139012
0.13887
0.138718
0.138557
0.138387
0.13821
0.138027
0.137838
0.137646
0.137452
0.137255
0.137056
0.136857
0.136658
0.136458
0.13626
0.136061
0.135864
0.135668
0.135472
0.135277
0.135084
0.134891
0.134699
0.134508
0.134318
0.134128
0.133939
0.13375
0.133561
0.133373
0.133185
0.132998
0.132811
0.132624
0.132439
0.132255
0.132073
0.131894
0.131718
0.131545
0.131377
0.131215
0.131059
0.130911
0.130772
0.130642
0.130523
0.130416
0.130323
0.130244
0.13018
0.130132
0.130102
0.130089
0.130095
0.130119
0.130162
0.130223
0.130304
0.130402
0.130517
0.130648
0.130794
0.130954
0.131125
0.131307
0.131497
0.131694
0.131898
0.132106
0.132318
0.132532
0.132747
0.132963
0.133178
0.133391
0.133602
0.13381
0.134015
0.134215
0.13441
0.1346
0.134784
0.134963
0.135136
0.135301
0.13546
0.135611
0.135754
0.135888
0.136014
0.136132
0.136242
0.136344
0.136438
0.136524
0.136602
0.136674
0.136738
0.136796
0.136847
0.136892
0.136931
0.136965
0.136994
0.137017
0.139982
0.139945
0.139908
0.139869
0.139826
0.139776
0.139719
0.139652
0.139576
0.13949
0.139392
0.139283
0.139161
0.139028
0.138885
0.13873
0.138567
0.138394
0.138215
0.13803
0.137841
0.137647
0.137451
0.137253
0.137054
0.136854
0.136655
0.136455
0.136256
0.136058
0.135861
0.135665
0.135469
0.135275
0.135082
0.13489
0.134698
0.134508
0.134318
0.134129
0.13394
0.133752
0.133564
0.133376
0.133188
0.133001
0.132814
0.132629
0.132444
0.13226
0.132078
0.131899
0.131723
0.13155
0.131383
0.13122
0.131065
0.130916
0.130777
0.130647
0.130529
0.130422
0.130329
0.13025
0.130186
0.130139
0.130109
0.130098
0.130104
0.13013
0.130175
0.130239
0.130322
0.130425
0.130545
0.130682
0.130835
0.131001
0.131178
0.131366
0.131562
0.131765
0.131973
0.132186
0.132402
0.132621
0.13284
0.13306
0.133279
0.133496
0.13371
0.133922
0.134129
0.134332
0.13453
0.134722
0.134908
0.135088
0.135261
0.135426
0.135584
0.135735
0.135877
0.136011
0.136138
0.136256
0.136365
0.136467
0.136561
0.136648
0.136727
0.136798
0.136863
0.13692
0.136972
0.137016
0.137055
0.137088
0.137116
0.137139
0.139989
0.13996
0.139927
0.139889
0.139846
0.139796
0.139738
0.139671
0.139593
0.139504
0.139403
0.13929
0.139165
0.139029
0.13888
0.138722
0.138554
0.138378
0.138195
0.138007
0.137815
0.137619
0.137422
0.137223
0.137024
0.136824
0.136625
0.136427
0.13623
0.136034
0.135839
0.135645
0.135453
0.135261
0.13507
0.13488
0.134691
0.134503
0.134315
0.134127
0.13394
0.133753
0.133566
0.13338
0.133193
0.133007
0.132821
0.132636
0.132452
0.132269
0.132087
0.131908
0.131732
0.13156
0.131392
0.13123
0.131074
0.130926
0.130787
0.130657
0.130538
0.130432
0.130339
0.13026
0.130197
0.130151
0.130122
0.130112
0.13012
0.130148
0.130196
0.130264
0.130352
0.13046
0.130588
0.130733
0.130893
0.131066
0.131251
0.131445
0.131646
0.131855
0.132069
0.132288
0.13251
0.132733
0.132958
0.133183
0.133407
0.13363
0.13385
0.134066
0.134279
0.134486
0.134689
0.134885
0.135075
0.135259
0.135435
0.135603
0.135764
0.135917
0.136062
0.136199
0.136327
0.136447
0.136559
0.136663
0.136758
0.136846
0.136926
0.136998
0.137063
0.137121
0.137172
0.137216
0.137254
0.137286
0.137312
0.137332
0.139993
0.13997
0.13994
0.139905
0.139862
0.139812
0.139752
0.139682
0.139602
0.139509
0.139404
0.139287
0.139157
0.139014
0.13886
0.138696
0.138522
0.138341
0.138154
0.137962
0.137768
0.137571
0.137374
0.137176
0.136978
0.136782
0.136586
0.136391
0.136198
0.136005
0.135814
0.135623
0.135434
0.135246
0.135058
0.134871
0.134685
0.134499
0.134313
0.134128
0.133943
0.133758
0.133573
0.133388
0.133203
0.133018
0.132833
0.132649
0.132466
0.132283
0.132103
0.131924
0.131748
0.131576
0.131409
0.131246
0.131091
0.130942
0.130803
0.130673
0.130554
0.130448
0.130355
0.130276
0.130214
0.130169
0.130141
0.130132
0.130143
0.130174
0.130225
0.130298
0.130391
0.130506
0.130641
0.130794
0.130961
0.131142
0.131333
0.131533
0.131741
0.131957
0.132177
0.132402
0.132631
0.132861
0.133093
0.133324
0.133555
0.133784
0.134011
0.134234
0.134453
0.134667
0.134876
0.135078
0.135274
0.135463
0.135645
0.135818
0.135984
0.136142
0.136291
0.136432
0.136564
0.136687
0.136802
0.136908
0.137006
0.137096
0.137177
0.13725
0.137316
0.137374
0.137424
0.137467
0.137504
0.137533
0.137556
0.137573
0.139995
0.139977
0.139951
0.139916
0.139874
0.139822
0.139761
0.139688
0.139604
0.139507
0.139396
0.139273
0.139136
0.138986
0.138825
0.138654
0.138474
0.138287
0.138097
0.137903
0.137708
0.137513
0.137318
0.137124
0.13693
0.136737
0.136545
0.136355
0.136165
0.135976
0.135789
0.135602
0.135417
0.135232
0.135048
0.134864
0.134681
0.134499
0.134316
0.134134
0.133951
0.133769
0.133586
0.133403
0.13322
0.133037
0.132853
0.13267
0.132488
0.132307
0.132127
0.131949
0.131773
0.131602
0.131434
0.131272
0.131116
0.130967
0.130827
0.130697
0.130578
0.130472
0.130379
0.1303
0.130238
0.130194
0.130167
0.13016
0.130173
0.130207
0.130262
0.130339
0.130438
0.130559
0.130702
0.130862
0.131036
0.131223
0.131421
0.131628
0.131843
0.132065
0.132293
0.132525
0.132761
0.132999
0.133238
0.133477
0.133716
0.133953
0.134187
0.134418
0.134645
0.134867
0.135083
0.135293
0.135496
0.135692
0.13588
0.13606
0.136232
0.136396
0.13655
0.136696
0.136833
0.136961
0.137079
0.137189
0.13729
0.137381
0.137464
0.137539
0.137605
0.137662
0.137712
0.137754
0.137788
0.137815
0.137834
0.137847
0.139997
0.139982
0.139958
0.139925
0.139882
0.139829
0.139765
0.139688
0.139599
0.139497
0.13938
0.139249
0.139104
0.138946
0.138777
0.138599
0.138413
0.138223
0.138031
0.137838
0.137645
0.137453
0.137262
0.137072
0.136882
0.136693
0.136506
0.13632
0.136134
0.13595
0.135767
0.135585
0.135403
0.135223
0.135043
0.134863
0.134684
0.134505
0.134326
0.134147
0.133968
0.133788
0.133608
0.133428
0.133247
0.133066
0.132884
0.132703
0.132522
0.132341
0.132162
0.131985
0.13181
0.131638
0.131471
0.131308
0.131152
0.131003
0.130863
0.130732
0.130612
0.130505
0.130412
0.130334
0.130272
0.130227
0.130202
0.130196
0.130211
0.130247
0.130306
0.130387
0.130491
0.130618
0.130767
0.130934
0.131115
0.131308
0.131513
0.131727
0.131949
0.132178
0.132413
0.132653
0.132897
0.133143
0.13339
0.133638
0.133886
0.134131
0.134374
0.134614
0.134849
0.135079
0.135304
0.135522
0.135733
0.135937
0.136133
0.136321
0.1365
0.13667
0.13683
0.136982
0.137124
0.137257
0.13738
0.137493
0.137597
0.137691
0.137776
0.137851
0.137918
0.137975
0.138024
0.138064
0.138096
0.138119
0.138135
0.138142
0.139998
0.139986
0.139963
0.13993
0.139886
0.139831
0.139764
0.139683
0.139589
0.13948
0.139356
0.139216
0.139063
0.138896
0.138719
0.138534
0.138345
0.138154
0.137963
0.137773
0.137584
0.137396
0.137208
0.137022
0.136837
0.136653
0.13647
0.136288
0.136108
0.135928
0.13575
0.135573
0.135396
0.13522
0.135045
0.13487
0.134695
0.134521
0.134346
0.134171
0.133995
0.133819
0.133642
0.133465
0.133286
0.133108
0.132928
0.132749
0.132569
0.13239
0.132212
0.132035
0.131861
0.131689
0.131522
0.131359
0.131202
0.131052
0.130911
0.130779
0.130659
0.13055
0.130456
0.130377
0.130315
0.13027
0.130245
0.13024
0.130256
0.130295
0.130356
0.130441
0.130549
0.130682
0.130837
0.13101
0.131197
0.131396
0.131607
0.131828
0.132057
0.132294
0.132537
0.132784
0.133036
0.133291
0.133547
0.133804
0.13406
0.134315
0.134567
0.134815
0.13506
0.135299
0.135533
0.13576
0.13598
0.136193
0.136397
0.136592
0.136779
0.136956
0.137124
0.137282
0.13743
0.137567
0.137695
0.137812
0.13792
0.138017
0.138103
0.13818
0.138247
0.138304
0.138352
0.13839
0.138419
0.138439
0.13845
0.138453
0.139999
0.139988
0.139966
0.139932
0.139887
0.139829
0.139758
0.139673
0.139572
0.139456
0.139323
0.139175
0.139012
0.138837
0.138653
0.138465
0.138275
0.138086
0.137898
0.137711
0.137526
0.137341
0.137158
0.136976
0.136796
0.136617
0.136439
0.136263
0.136088
0.135914
0.135741
0.135569
0.135398
0.135228
0.135058
0.134888
0.134718
0.134548
0.134378
0.134207
0.134036
0.133864
0.133691
0.133517
0.133341
0.133165
0.132988
0.132811
0.132633
0.132455
0.132278
0.132102
0.131928
0.131757
0.131589
0.131425
0.131267
0.131117
0.130974
0.130841
0.130719
0.130609
0.130513
0.130433
0.130369
0.130324
0.130299
0.130294
0.130311
0.13035
0.130413
0.130501
0.130613
0.13075
0.13091
0.131088
0.131281
0.131486
0.131703
0.13193
0.132166
0.13241
0.132661
0.132917
0.133177
0.13344
0.133705
0.133971
0.134236
0.1345
0.134762
0.13502
0.135274
0.135523
0.135766
0.136003
0.136232
0.136453
0.136666
0.13687
0.137065
0.13725
0.137425
0.137589
0.137743
0.137887
0.138019
0.138141
0.138252
0.138352
0.138441
0.138519
0.138586
0.138643
0.13869
0.138726
0.138753
0.138769
0.138776
0.138773
0.14
0.139989
0.139967
0.139933
0.139885
0.139824
0.139748
0.139657
0.13955
0.139425
0.139284
0.139126
0.138954
0.138772
0.138584
0.138395
0.138208
0.138021
0.137837
0.137653
0.137472
0.137292
0.137113
0.136937
0.136761
0.136588
0.136416
0.136246
0.136077
0.135909
0.135742
0.135577
0.135412
0.135247
0.135083
0.134919
0.134755
0.134591
0.134426
0.13426
0.134094
0.133926
0.133756
0.133586
0.133414
0.133241
0.133067
0.132891
0.132715
0.132539
0.132363
0.132187
0.132013
0.131842
0.131673
0.131509
0.13135
0.131198
0.131053
0.130918
0.130794
0.130682
0.130584
0.130502
0.130436
0.13039
0.130363
0.130357
0.130374
0.130414
0.130478
0.130567
0.130682
0.130822
0.130987
0.131169
0.131366
0.131577
0.1318
0.132033
0.132276
0.132527
0.132785
0.133048
0.133316
0.133588
0.133862
0.134137
0.134411
0.134685
0.134956
0.135224
0.135488
0.135747
0.136
0.136246
0.136485
0.136715
0.136937
0.13715
0.137353
0.137546
0.137728
0.1379
0.13806
0.138209
0.138347
0.138473
0.138588
0.138691
0.138782
0.138862
0.138931
0.138988
0.139033
0.139068
0.139092
0.139105
0.139107
0.139099
0.14
0.13999
0.139967
0.139931
0.13988
0.139815
0.139734
0.139636
0.139521
0.139388
0.139237
0.13907
0.13889
0.138703
0.138515
0.138329
0.138144
0.137961
0.13778
0.137601
0.137424
0.137249
0.137076
0.136905
0.136736
0.136568
0.136403
0.136239
0.136077
0.135916
0.135756
0.135598
0.13544
0.135282
0.135125
0.134967
0.134809
0.134651
0.134491
0.134331
0.134169
0.134006
0.133841
0.133674
0.133506
0.133336
0.133164
0.132991
0.132817
0.132642
0.132467
0.132292
0.132118
0.131946
0.131777
0.131612
0.131451
0.131297
0.131151
0.131013
0.130886
0.130772
0.130671
0.130585
0.130517
0.130468
0.130438
0.130431
0.130446
0.130486
0.13055
0.13064
0.130756
0.130899
0.131066
0.131252
0.131454
0.131669
0.131897
0.132136
0.132385
0.132642
0.132907
0.133178
0.133454
0.133734
0.134016
0.1343
0.134584
0.134867
0.135148
0.135426
0.135699
0.135968
0.136231
0.136487
0.136735
0.136975
0.137206
0.137428
0.137639
0.13784
0.13803
0.138209
0.138376
0.138531
0.138675
0.138806
0.138925
0.139031
0.139125
0.139207
0.139277
0.139334
0.139379
0.139412
0.139433
0.139443
0.139441
0.139427
0.14
0.139989
0.139965
0.139926
0.139872
0.139802
0.139715
0.13961
0.139486
0.139344
0.139183
0.139008
0.138823
0.138635
0.138449
0.138266
0.138084
0.137906
0.137729
0.137555
0.137383
0.137214
0.137047
0.136883
0.13672
0.13656
0.136402
0.136246
0.136091
0.135938
0.135786
0.135635
0.135484
0.135334
0.135183
0.135033
0.134881
0.134729
0.134576
0.134421
0.134265
0.134106
0.133946
0.133784
0.133619
0.133452
0.133283
0.133113
0.13294
0.132767
0.132592
0.132418
0.132244
0.132071
0.131901
0.131734
0.131571
0.131415
0.131266
0.131126
0.130996
0.130878
0.130773
0.130684
0.130612
0.130559
0.130527
0.130516
0.130529
0.130567
0.130629
0.130719
0.130835
0.130979
0.131148
0.131337
0.131542
0.131761
0.131994
0.132238
0.132492
0.132755
0.133027
0.133305
0.133588
0.133876
0.134167
0.134459
0.134752
0.135044
0.135335
0.135622
0.135906
0.136184
0.136457
0.136722
0.13698
0.13723
0.13747
0.137701
0.137921
0.13813
0.138328
0.138514
0.138688
0.13885
0.138999
0.139136
0.139259
0.139369
0.139466
0.13955
0.139621
0.139679
0.139723
0.139755
0.139774
0.139781
0.139775
0.139757
0.14
0.139988
0.139962
0.13992
0.139861
0.139786
0.139692
0.139578
0.139446
0.139294
0.139124
0.138942
0.138756
0.138571
0.138388
0.138208
0.138031
0.137857
0.137686
0.137517
0.137352
0.137189
0.137029
0.136872
0.136718
0.136566
0.136416
0.136268
0.136122
0.135977
0.135833
0.13569
0.135547
0.135404
0.135261
0.135118
0.134974
0.134828
0.134681
0.134533
0.134382
0.134229
0.134073
0.133915
0.133754
0.133591
0.133425
0.133257
0.133086
0.132914
0.13274
0.132566
0.132391
0.132218
0.132046
0.131877
0.131712
0.131553
0.131401
0.131257
0.131123
0.131001
0.130892
0.130799
0.130723
0.130665
0.130628
0.130613
0.130623
0.130657
0.130717
0.130805
0.13092
0.131063
0.131233
0.131424
0.131632
0.131854
0.13209
0.132338
0.132597
0.132866
0.133144
0.133428
0.133719
0.134014
0.134312
0.134613
0.134914
0.135215
0.135515
0.135812
0.136105
0.136393
0.136675
0.13695
0.137218
0.137477
0.137727
0.137966
0.138195
0.138413
0.138619
0.138813
0.138994
0.139163
0.139318
0.13946
0.139588
0.139702
0.139802
0.139889
0.139962
0.14002
0.140065
0.140096
0.140114
0.140117
0.140108
0.140085
0.139999
0.139986
0.139956
0.139911
0.139847
0.139765
0.139663
0.139541
0.139399
0.139238
0.139061
0.138876
0.138692
0.13851
0.138332
0.138157
0.137985
0.137817
0.137651
0.13749
0.137331
0.137176
0.137025
0.136876
0.13673
0.136587
0.136446
0.136307
0.13617
0.136034
0.135898
0.135764
0.13563
0.135495
0.135361
0.135225
0.135088
0.13495
0.13481
0.134667
0.134523
0.134375
0.134225
0.134071
0.133915
0.133755
0.133592
0.133426
0.133257
0.133086
0.132913
0.132738
0.132563
0.132388
0.132214
0.132043
0.131875
0.131713
0.131556
0.131408
0.13127
0.131143
0.131029
0.13093
0.130848
0.130785
0.130743
0.130723
0.130728
0.130758
0.130814
0.130898
0.131011
0.131152
0.131322
0.131514
0.131723
0.131947
0.132186
0.132438
0.132701
0.132974
0.133257
0.133547
0.133844
0.134146
0.134451
0.13476
0.135069
0.135379
0.135687
0.135993
0.136295
0.136593
0.136884
0.137169
0.137446
0.137715
0.137974
0.138223
0.138461
0.138687
0.138902
0.139103
0.139292
0.139467
0.139629
0.139776
0.139909
0.140028
0.140132
0.140222
0.140297
0.140357
0.140402
0.140433
0.140449
0.140451
0.140438
0.140411
0.139999
0.139983
0.13995
0.139899
0.139829
0.13974
0.13963
0.139499
0.139347
0.139177
0.138996
0.138813
0.138633
0.138456
0.138283
0.138113
0.137947
0.137785
0.137628
0.137474
0.137324
0.137177
0.137035
0.136895
0.136759
0.136626
0.136494
0.136365
0.136237
0.13611
0.135985
0.135859
0.135734
0.135609
0.135483
0.135355
0.135227
0.135096
0.134963
0.134828
0.134689
0.134548
0.134403
0.134254
0.134102
0.133945
0.133785
0.133622
0.133455
0.133284
0.133112
0.132937
0.13276
0.132584
0.132407
0.132233
0.132062
0.131895
0.131734
0.131581
0.131437
0.131304
0.131184
0.131079
0.130991
0.130921
0.130873
0.130847
0.130845
0.130869
0.13092
0.131
0.131108
0.131246
0.131414
0.131605
0.131815
0.132041
0.132281
0.132535
0.132801
0.133079
0.133366
0.133661
0.133963
0.134271
0.134584
0.134899
0.135216
0.135534
0.13585
0.136165
0.136476
0.136783
0.137084
0.137378
0.137664
0.137942
0.138211
0.138469
0.138715
0.138951
0.139173
0.139383
0.139579
0.139762
0.13993
0.140083
0.140222
0.140346
0.140454
0.140547
0.140624
0.140686
0.140733
0.140764
0.140779
0.140779
0.140764
0.140734
0.139998
0.139979
0.139941
0.139885
0.139808
0.139711
0.139592
0.139451
0.139291
0.139115
0.138934
0.138755
0.13858
0.138408
0.138241
0.138078
0.13792
0.137766
0.137616
0.137471
0.137331
0.137194
0.137062
0.136933
0.136806
0.136683
0.136562
0.136443
0.136326
0.136209
0.136094
0.135978
0.135863
0.135747
0.13563
0.135511
0.135391
0.135269
0.135144
0.135016
0.134884
0.134749
0.134609
0.134466
0.134318
0.134166
0.134009
0.133847
0.133682
0.133512
0.133339
0.133163
0.132986
0.132806
0.132627
0.132449
0.132273
0.132101
0.131934
0.131775
0.131625
0.131485
0.131358
0.131246
0.13115
0.131073
0.131017
0.130983
0.130974
0.130991
0.131036
0.13111
0.131213
0.131346
0.13151
0.131699
0.131908
0.132134
0.132376
0.132631
0.1329
0.13318
0.13347
0.13377
0.134077
0.13439
0.134708
0.13503
0.135354
0.135679
0.136004
0.136326
0.136646
0.136961
0.137271
0.137574
0.13787
0.138157
0.138435
0.138702
0.138958
0.139202
0.139433
0.139651
0.139855
0.140045
0.14022
0.14038
0.140524
0.140653
0.140766
0.140863
0.140944
0.141008
0.141056
0.141088
0.141103
0.141102
0.141085
0.141052
0.139996
0.139973
0.139931
0.139868
0.139784
0.139677
0.139549
0.139399
0.139231
0.139053
0.138876
0.138703
0.138534
0.138369
0.138209
0.138053
0.137903
0.137759
0.137619
0.137484
0.137354
0.137228
0.137107
0.136989
0.136874
0.136761
0.136652
0.136544
0.136437
0.136332
0.136227
0.136122
0.136017
0.135912
0.135805
0.135696
0.135585
0.135471
0.135354
0.135234
0.135109
0.134981
0.134847
0.134709
0.134566
0.134417
0.134263
0.134104
0.13394
0.133771
0.133598
0.133421
0.133241
0.133058
0.132875
0.132692
0.132511
0.132333
0.13216
0.131993
0.131835
0.131687
0.131552
0.131432
0.131328
0.131242
0.131177
0.131135
0.131117
0.131126
0.131162
0.131228
0.131325
0.131452
0.13161
0.131796
0.132003
0.132228
0.132469
0.132726
0.132995
0.133277
0.13357
0.133873
0.134184
0.134502
0.134825
0.135153
0.135483
0.135815
0.136147
0.136477
0.136804
0.137128
0.137446
0.137758
0.138063
0.138359
0.138646
0.138922
0.139186
0.139439
0.139679
0.139905
0.140117
0.140315
0.140497
0.140664
0.140815
0.140949
0.141067
0.141169
0.141253
0.14132
0.141371
0.141404
0.14142
0.141418
0.1414
0.141365
0.139995
0.139967
0.139918
0.139848
0.139755
0.139639
0.139501
0.139342
0.13917
0.138996
0.138825
0.138658
0.138496
0.138339
0.138187
0.138041
0.137901
0.137766
0.137637
0.137514
0.137395
0.137281
0.137171
0.137065
0.136962
0.136862
0.136764
0.136668
0.136574
0.13648
0.136387
0.136294
0.1362
0.136105
0.136009
0.13591
0.135809
0.135704
0.135595
0.135482
0.135364
0.135241
0.135113
0.13498
0.134841
0.134696
0.134545
0.134388
0.134226
0.134058
0.133884
0.133707
0.133525
0.13334
0.133152
0.132964
0.132777
0.132591
0.13241
0.132235
0.132068
0.131912
0.131767
0.131637
0.131523
0.131428
0.131353
0.131301
0.131273
0.131272
0.131299
0.131356
0.131444
0.131563
0.131715
0.131896
0.1321
0.132323
0.132563
0.132818
0.133088
0.133371
0.133666
0.133971
0.134285
0.134606
0.134934
0.135267
0.135602
0.13594
0.136278
0.136616
0.136951
0.137282
0.137608
0.137929
0.138242
0.138547
0.138842
0.139127
0.139401
0.139662
0.139911
0.140145
0.140366
0.140571
0.140761
0.140935
0.141092
0.141233
0.141356
0.141463
0.141551
0.141622
0.141676
0.141711
0.141728
0.141727
0.141708
0.141671
0.139993
0.139959
0.139904
0.139825
0.139723
0.139597
0.139449
0.139284
0.139113
0.138945
0.138781
0.138621
0.138467
0.138319
0.138178
0.138042
0.137913
0.13779
0.137674
0.137562
0.137456
0.137355
0.137257
0.137164
0.137074
0.136987
0.136902
0.136819
0.136738
0.136657
0.136576
0.136495
0.136413
0.136329
0.136242
0.136152
0.136058
0.13596
0.135858
0.135751
0.135639
0.135521
0.135398
0.135268
0.135133
0.134991
0.134843
0.134689
0.134529
0.134362
0.13419
0.134012
0.13383
0.133643
0.133453
0.133261
0.133068
0.132876
0.132686
0.132502
0.132325
0.132158
0.132003
0.131862
0.131737
0.131631
0.131545
0.131481
0.131443
0.131431
0.131447
0.131494
0.131572
0.131682
0.131824
0.131999
0.132199
0.132418
0.132656
0.13291
0.133179
0.133461
0.133757
0.134063
0.134379
0.134704
0.135035
0.135371
0.135712
0.136055
0.136399
0.136742
0.137084
0.137423
0.137757
0.138085
0.138407
0.13872
0.139024
0.139317
0.1396
0.13987
0.140127
0.14037
0.140599
0.140812
0.14101
0.141191
0.141356
0.141503
0.141633
0.141744
0.141838
0.141913
0.14197
0.142008
0.142027
0.142027
0.142008
0.14197
0.13999
0.13995
0.139887
0.139798
0.139686
0.13955
0.139395
0.139229
0.139063
0.138902
0.138746
0.138595
0.138451
0.138313
0.138182
0.138059
0.137942
0.137832
0.137728
0.13763
0.137538
0.13745
0.137366
0.137287
0.137211
0.137138
0.137067
0.136998
0.13693
0.136862
0.136793
0.136722
0.136649
0.136573
0.136494
0.13641
0.136323
0.136231
0.136135
0.136033
0.135925
0.135812
0.135692
0.135567
0.135435
0.135296
0.135151
0.134999
0.134841
0.134676
0.134506
0.134329
0.134147
0.13396
0.133769
0.133574
0.133378
0.133181
0.132985
0.132792
0.132605
0.132426
0.132259
0.132106
0.131969
0.131851
0.131753
0.131677
0.131626
0.131602
0.131607
0.131642
0.131708
0.131808
0.13194
0.132106
0.1323
0.132515
0.132749
0.133
0.133267
0.133548
0.133843
0.13415
0.134467
0.134793
0.135127
0.135467
0.135811
0.136158
0.136508
0.136857
0.137205
0.13755
0.137891
0.138227
0.138556
0.138878
0.13919
0.139492
0.139783
0.140062
0.140327
0.140579
0.140816
0.141038
0.141244
0.141433
0.141605
0.141759
0.141895
0.142013
0.142112
0.142192
0.142252
0.142294
0.142315
0.142317
0.142299
0.142262
0.139987
0.13994
0.139867
0.139769
0.139646
0.139501
0.139341
0.139179
0.139021
0.138868
0.138721
0.13858
0.138446
0.138321
0.138203
0.138092
0.137989
0.137893
0.137803
0.13772
0.137642
0.137569
0.1375
0.137436
0.137375
0.137317
0.13726
0.137204
0.137147
0.137088
0.137028
0.136965
0.136899
0.136829
0.136756
0.136679
0.136597
0.13651
0.136418
0.136321
0.136217
0.136108
0.135992
0.13587
0.135742
0.135606
0.135464
0.135315
0.135159
0.134996
0.134827
0.134651
0.13447
0.134283
0.134092
0.133897
0.133699
0.133499
0.133298
0.133099
0.132904
0.132715
0.132535
0.132369
0.132219
0.132088
0.131976
0.131888
0.131824
0.131786
0.131778
0.1318
0.131854
0.131941
0.132062
0.132217
0.132403
0.132612
0.132841
0.133089
0.133353
0.133632
0.133925
0.134231
0.134549
0.134876
0.135211
0.135553
0.1359
0.136251
0.136605
0.136959
0.137312
0.137664
0.138011
0.138354
0.138691
0.13902
0.13934
0.13965
0.139949
0.140237
0.140511
0.140771
0.141017
0.141247
0.141461
0.141658
0.141838
0.141999
0.142143
0.142267
0.142372
0.142457
0.142523
0.142568
0.142593
0.142597
0.142581
0.142544
0.139984
0.139928
0.139844
0.139735
0.139602
0.13945
0.139293
0.139138
0.138988
0.138844
0.138707
0.138578
0.138457
0.138344
0.13824
0.138144
0.138056
0.137974
0.1379
0.137832
0.13777
0.137713
0.137661
0.137612
0.137565
0.137519
0.137473
0.137426
0.137377
0.137326
0.137273
0.137216
0.137157
0.137093
0.137025
0.136953
0.136876
0.136794
0.136706
0.136613
0.136513
0.136408
0.136295
0.136177
0.136051
0.135918
0.135779
0.135632
0.135478
0.135318
0.13515
0.134976
0.134796
0.13461
0.134419
0.134224
0.134025
0.133823
0.13362
0.133417
0.133216
0.133019
0.132829
0.13265
0.132486
0.132341
0.132215
0.132113
0.132034
0.131983
0.13196
0.131968
0.132008
0.132082
0.13219
0.132332
0.132509
0.132711
0.132934
0.133177
0.133437
0.133713
0.134004
0.134308
0.134624
0.134951
0.135287
0.13563
0.135979
0.136333
0.13669
0.137048
0.137407
0.137763
0.138117
0.138466
0.138809
0.139146
0.139473
0.139792
0.140099
0.140395
0.140678
0.140946
0.141201
0.141439
0.141662
0.141867
0.142055
0.142224
0.142375
0.142506
0.142617
0.142709
0.14278
0.14283
0.142859
0.142867
0.142853
0.142818
0.13998
0.139914
0.139819
0.139699
0.139557
0.139404
0.139252
0.139105
0.138965
0.138831
0.138706
0.13859
0.138483
0.138385
0.138296
0.138215
0.138143
0.138078
0.13802
0.137969
0.137923
0.137883
0.137845
0.137808
0.137772
0.137735
0.137697
0.137657
0.137616
0.137571
0.137524
0.137474
0.13742
0.137361
0.137298
0.137231
0.137158
0.13708
0.136997
0.136907
0.136811
0.136709
0.1366
0.136484
0.136362
0.136232
0.136095
0.135951
0.135799
0.13564
0.135475
0.135302
0.135124
0.134939
0.134749
0.134553
0.134354
0.134151
0.133946
0.133741
0.133536
0.133333
0.133136
0.132946
0.132769
0.132609
0.132469
0.132351
0.132258
0.132192
0.132154
0.132147
0.132172
0.132231
0.132325
0.132454
0.132618
0.132812
0.133028
0.133264
0.133519
0.13379
0.134078
0.134379
0.134694
0.135019
0.135355
0.135698
0.136049
0.136405
0.136764
0.137126
0.137488
0.137849
0.138208
0.138563
0.138913
0.139256
0.139591
0.139916
0.140232
0.140535
0.140826
0.141104
0.141367
0.141614
0.141845
0.142059
0.142255
0.142432
0.14259
0.142729
0.142848
0.142946
0.143023
0.143078
0.143112
0.143124
0.143114
0.143081
0.139975
0.139897
0.139791
0.13966
0.139512
0.139364
0.139221
0.139083
0.138953
0.138832
0.138721
0.138619
0.138527
0.138445
0.138372
0.138307
0.138252
0.138204
0.138164
0.13813
0.138099
0.138071
0.138043
0.138015
0.137987
0.137958
0.137928
0.137895
0.13786
0.137821
0.13778
0.137735
0.137686
0.137632
0.137574
0.137511
0.137442
0.137368
0.137289
0.137203
0.13711
0.137011
0.136905
0.136793
0.136673
0.136546
0.136411
0.136269
0.13612
0.135963
0.135799
0.135629
0.135451
0.135268
0.135078
0.134883
0.134684
0.134481
0.134275
0.134067
0.13386
0.133653
0.13345
0.133253
0.133065
0.132891
0.132736
0.132603
0.132494
0.132412
0.132359
0.132336
0.132345
0.132388
0.132467
0.132581
0.132731
0.132914
0.133122
0.133351
0.133599
0.133866
0.134148
0.134446
0.134757
0.135081
0.135415
0.135758
0.136109
0.136466
0.136827
0.137191
0.137556
0.137921
0.138285
0.138645
0.139
0.139349
0.139691
0.140024
0.140347
0.140658
0.140958
0.141243
0.141515
0.141771
0.14201
0.142233
0.142437
0.142623
0.142789
0.142936
0.143062
0.143167
0.143251
0.143313
0.143352
0.143369
0.143363
0.143334
0.139969
0.139879
0.13976
0.13962
0.139475
0.139334
0.139199
0.139072
0.138955
0.138847
0.138751
0.138665
0.138589
0.138523
0.138468
0.138422
0.138385
0.138355
0.13833
0.138308
0.138288
0.138268
0.138249
0.13823
0.138209
0.138187
0.138163
0.138136
0.138107
0.138074
0.138038
0.137998
0.137954
0.137905
0.137851
0.137792
0.137728
0.137658
0.137581
0.137499
0.13741
0.137314
0.137211
0.137101
0.136984
0.136859
0.136727
0.136587
0.13644
0.136285
0.136123
0.135954
0.135778
0.135596
0.135407
0.135213
0.135014
0.134811
0.134604
0.134395
0.134186
0.133976
0.133769
0.133566
0.13337
0.133185
0.133015
0.132867
0.132742
0.132644
0.132574
0.132534
0.132527
0.132554
0.132616
0.132714
0.132848
0.133019
0.133217
0.133438
0.133679
0.133939
0.134216
0.134509
0.134816
0.135136
0.135468
0.13581
0.13616
0.136516
0.136878
0.137244
0.137612
0.13798
0.138347
0.138711
0.139072
0.139427
0.139775
0.140114
0.140444
0.140763
0.141071
0.141365
0.141644
0.141909
0.142157
0.142388
0.142601
0.142796
0.142971
0.143126
0.14326
0.143373
0.143464
0.143533
0.143579
0.143601
0.1436
0.143575
0.139963
0.139858
0.139728
0.139586
0.139447
0.139314
0.139189
0.139074
0.138971
0.138878
0.138798
0.138728
0.13867
0.138623
0.138586
0.138559
0.138538
0.138521
0.138507
0.138495
0.138483
0.138472
0.138461
0.138448
0.138435
0.138419
0.138401
0.138381
0.138357
0.13833
0.138299
0.138264
0.138224
0.138179
0.13813
0.138075
0.138014
0.137948
0.137875
0.137795
0.137709
0.137617
0.137516
0.137409
0.137294
0.137172
0.137042
0.136905
0.136759
0.136607
0.136446
0.136279
0.136104
0.135923
0.135735
0.135542
0.135343
0.13514
0.134933
0.134723
0.134512
0.134301
0.13409
0.133883
0.133681
0.133487
0.133305
0.133141
0.133001
0.132886
0.1328
0.132743
0.132718
0.132728
0.132772
0.132853
0.132971
0.133126
0.133313
0.133525
0.133757
0.13401
0.13428
0.134567
0.13487
0.135186
0.135514
0.135853
0.136201
0.136557
0.136919
0.137286
0.137655
0.138025
0.138395
0.138763
0.139128
0.139488
0.139842
0.140188
0.140524
0.140851
0.141165
0.141467
0.141755
0.142028
0.142285
0.142525
0.142747
0.142951
0.143135
0.143298
0.143441
0.143562
0.143661
0.143737
0.14379
0.143819
0.143824
0.143804
0.139955
0.139836
0.139697
0.139559
0.139427
0.139304
0.139191
0.13909
0.139002
0.138926
0.138863
0.138811
0.138772
0.138744
0.138725
0.138712
0.138702
0.138696
0.138691
0.138687
0.138684
0.13868
0.138676
0.13867
0.138663
0.138654
0.138642
0.138627
0.138609
0.138587
0.138561
0.13853
0.138495
0.138455
0.138409
0.138358
0.138301
0.138238
0.138168
0.138092
0.138009
0.137919
0.137822
0.137717
0.137605
0.137485
0.137357
0.137221
0.137078
0.136927
0.136768
0.136602
0.136429
0.136249
0.136062
0.13587
0.135671
0.135468
0.135261
0.135051
0.134839
0.134625
0.134412
0.134201
0.133995
0.133794
0.133603
0.133426
0.133269
0.133138
0.133035
0.132961
0.132919
0.13291
0.132936
0.132999
0.1331
0.133237
0.133411
0.133612
0.133835
0.134079
0.134342
0.134622
0.134919
0.135229
0.135554
0.135889
0.136235
0.136589
0.13695
0.137316
0.137686
0.138058
0.13843
0.138801
0.13917
0.139534
0.139892
0.140244
0.140587
0.14092
0.141242
0.141552
0.141848
0.142129
0.142395
0.142644
0.142875
0.143087
0.14328
0.143453
0.143604
0.143734
0.143841
0.143926
0.143986
0.144022
0.144034
0.14402
0.139946
0.139813
0.139674
0.139542
0.139418
0.139306
0.139207
0.139121
0.139049
0.138991
0.138946
0.138915
0.138895
0.138883
0.138876
0.138873
0.138873
0.138875
0.138879
0.138883
0.138887
0.138891
0.138893
0.138894
0.138894
0.13889
0.138884
0.138875
0.138862
0.138845
0.138824
0.138798
0.138767
0.138731
0.138689
0.138642
0.138588
0.138529
0.138462
0.138389
0.138309
0.138221
0.138127
0.138024
0.137914
0.137796
0.137671
0.137537
0.137395
0.137246
0.137089
0.136925
0.136753
0.136574
0.136388
0.136196
0.135998
0.135796
0.135588
0.135378
0.135164
0.13495
0.134735
0.134521
0.13431
0.134104
0.133906
0.133719
0.133548
0.1334
0.133279
0.133188
0.133127
0.1331
0.133108
0.133152
0.133234
0.133354
0.133511
0.1337
0.133913
0.134147
0.134401
0.134674
0.134963
0.135268
0.135587
0.135918
0.13626
0.136611
0.13697
0.137336
0.137705
0.138078
0.138451
0.138825
0.139196
0.139564
0.139927
0.140284
0.140632
0.140972
0.141301
0.141618
0.141921
0.142211
0.142485
0.142743
0.142983
0.143205
0.143407
0.143589
0.14375
0.143888
0.144005
0.144097
0.144166
0.14421
0.144229
0.144222
0.139936
0.139795
0.139659
0.139533
0.13942
0.139321
0.139237
0.139168
0.139114
0.139074
0.13905
0.139036
0.13903
0.139029
0.139032
0.139039
0.139048
0.139058
0.139069
0.139081
0.139093
0.139103
0.139113
0.13912
0.139126
0.139128
0.139128
0.139124
0.139116
0.139104
0.139088
0.139066
0.13904
0.139008
0.13897
0.138926
0.138876
0.138819
0.138756
0.138686
0.138608
0.138523
0.138431
0.138331
0.138223
0.138107
0.137983
0.137852
0.137712
0.137564
0.137409
0.137246
0.137075
0.136897
0.136712
0.136521