# Forces      
# CofR        : (0.000000e+00 0.000000e+00 0.000000e+00)
# Time        forces(pressure viscous porous)	moments(pressure viscous porous)
0.15          	((6.907988e+02 1.746433e+02 -5.334578e-20) (3.122092e+00 -3.332451e+00 5.415798e-22) (0.000000e+00 0.000000e+00 0.000000e+00)) ((-4.032894e-22 3.134365e-21 2.137569e+00) (9.158418e-24 -4.586952e-23 -2.632745e-01) (0.000000e+00 0.000000e+00 0.000000e+00))
0.1525        	((6.872586e+02 9.037349e+01 -2.698448e-20) (2.485498e+00 -3.986591e+00 4.014734e-22) (0.000000e+00 0.000000e+00 0.000000e+00)) ((-2.783393e-22 1.570721e-21 -2.598266e+00) (7.178369e-24 -3.045341e-23 -3.011415e-01) (0.000000e+00 0.000000e+00 0.000000e+00))
0.155         	((6.441800e+02 9.332377e+01 -2.367341e-20) (2.024147e+00 -3.172237e+00 5.857667e-22) (0.000000e+00 0.000000e+00 0.000000e+00)) ((-2.455564e-22 1.366726e-21 -1.805186e+00) (6.199592e-24 -2.799516e-23 -2.521163e-01) (0.000000e+00 0.000000e+00 0.000000e+00))
0.1575        	((6.683917e+02 1.685474e+02 -4.385430e-20) (2.771197e+00 -3.105017e+00 1.011157e-21) (0.000000e+00 0.000000e+00 0.000000e+00)) ((-3.527052e-22 2.561673e-21 1.837866e+00) (8.283455e-24 -5.204203e-23 -2.495650e-01) (0.000000e+00 0.000000e+00 0.000000e+00))
0.16          	((6.881584e+02 9.646825e+01 -3.321945e-20) (2.719990e+00 -3.984555e+00 -9.746424e-23) (0.000000e+00 0.000000e+00 0.000000e+00)) ((-3.040492e-22 1.942609e-21 -1.498310e+00) (7.485955e-24 -1.201792e-23 -3.021690e-01) (0.000000e+00 0.000000e+00 0.000000e+00))
0.1625        	((6.479099e+02 9.473836e+01 -2.385196e-20) (2.019118e+00 -3.279588e+00 1.228195e-21) (0.000000e+00 0.000000e+00 0.000000e+00)) ((-2.501061e-22 1.378145e-21 -1.955651e+00) (6.334513e-24 -5.033271e-23 -2.577495e-01) (0.000000e+00 0.000000e+00 0.000000e+00))
0.165         	((6.716443e+02 1.677757e+02 -4.471541e-20) (2.698281e+00 -3.131167e+00 1.067888e-21) (0.000000e+00 0.000000e+00 0.000000e+00)) ((-3.584379e-22 2.612838e-21 1.908362e+00) (8.433706e-24 -5.299729e-23 -2.514117e-01) (0.000000e+00 0.000000e+00 0.000000e+00))
0.1675        	((6.905829e+02 9.435504e+01 -3.069672e-20) (2.531066e+00 -4.039456e+00 7.135145e-22) (0.000000e+00 0.000000e+00 0.000000e+00)) ((-2.967197e-22 1.791285e-21 -1.911367e+00) (7.439051e-24 -4.017941e-23 -3.054776e-01) (0.000000e+00 0.000000e+00 0.000000e+00))
0.17          	((6.485663e+02 1.012537e+02 -2.406402e-20) (1.836697e+00 -3.228589e+00 6.279253e-22) (0.000000e+00 0.000000e+00 0.000000e+00)) ((-2.479884e-22 1.389873e-21 -1.743937e+00) (6.271751e-24 -2.902311e-23 -2.552130e-01) (0.000000e+00 0.000000e+00 0.000000e+00))
0.1725        	((6.702551e+02 1.646024e+02 -4.613693e-20) (2.660167e+00 -3.159694e+00 1.062470e-21) (0.000000e+00 0.000000e+00 0.000000e+00)) ((-3.652885e-22 2.698922e-21 2.043070e+00) (8.497731e-24 -5.370143e-23 -2.536957e-01) (0.000000e+00 0.000000e+00 0.000000e+00))
0.175         	((6.829050e+02 7.685224e+01 -2.978250e-20) (2.416414e+00 -4.052683e+00 4.313129e-23) (0.000000e+00 0.000000e+00 0.000000e+00)) ((-2.943844e-22 1.737281e-21 -2.093750e+00) (7.403982e-24 -1.610555e-23 -3.062748e-01) (0.000000e+00 0.000000e+00 0.000000e+00))
0.1775        	((6.447477e+02 1.037837e+02 -2.444689e-20) (1.735052e+00 -3.238382e+00 7.848349e-22) (0.000000e+00 0.000000e+00 0.000000e+00)) ((-2.495121e-22 1.413239e-21 -1.689480e+00) (6.271693e-24 -3.483988e-23 -2.559738e-01) (0.000000e+00 0.000000e+00 0.000000e+00))
0.18          	((6.745647e+02 1.838944e+02 -4.574113e-20) (2.601218e+00 -3.185536e+00 1.110772e-21) (0.000000e+00 0.000000e+00 0.000000e+00)) ((-3.619814e-22 2.675674e-21 1.999003e+00) (8.405009e-24 -5.456382e-23 -2.552490e-01) (0.000000e+00 0.000000e+00 0.000000e+00))
0.1825        	((6.901395e+02 9.773717e+01 -2.902034e-20) (2.328451e+00 -4.057846e+00 -2.067935e-22) (0.000000e+00 0.000000e+00 0.000000e+00)) ((-2.906566e-22 1.690897e-21 -2.165600e+00) (7.327791e-24 -3.090848e-24 -3.059910e-01) (0.000000e+00 0.000000e+00 0.000000e+00))
