/*--------------------------------*- C++ -*----------------------------------*\
  =========                 |
  \\      /  F ield         | OpenFOAM: The Open Source CFD Toolbox
   \\    /   O peration     | Website:  https://openfoam.org
    \\  /    A nd           | Version:  8
     \\/     M anipulation  |
\*---------------------------------------------------------------------------*/
FoamFile
{
    version     2.0;
    format      ascii;
    class       volScalarField;
    location    "1.4";
    object      p;
}
// * * * * * * * * * * * * * * * * * * * * * * * * * * * * * * * * * * * * * //

dimensions      [0 2 -2 0 0 0 0];

internalField   nonuniform List<scalar> 
248760
(
0.152735
0.152687
0.152464
0.152143
0.151713
0.151178
0.150545
0.149818
0.149001
0.148098
0.147115
0.146053
0.144918
0.143712
0.142439
0.141102
0.139704
0.138248
0.136737
0.135174
0.133562
0.131902
0.130199
0.128454
0.126669
0.124848
0.122992
0.121104
0.119186
0.11724
0.115269
0.113274
0.111257
0.109221
0.107167
0.105097
0.103013
0.100917
0.0988102
0.0966942
0.0945708
0.0924415
0.0903077
0.0881708
0.0860322
0.0838933
0.0817552
0.0796191
0.0774862
0.0753576
0.0732343
0.0711175
0.0690078
0.0669064
0.0648139
0.0627314
0.0606594
0.0585989
0.0565503
0.0545145
0.0524918
0.0504831
0.0484887
0.0465093
0.0445451
0.0425968
0.0406645
0.038749
0.0368503
0.0349689
0.0331049
0.0312589
0.0294308
0.0276212
0.0258299
0.0240575
0.0223038
0.0205694
0.018854
0.0171582
0.0154816
0.0138249
0.0121876
0.0105705
0.00897292
0.00739569
0.00583826
0.00430133
0.00278437
0.0012881
-0.000188057
-0.00164333
-0.00307831
-0.00449221
-0.00588564
-0.00725778
-0.00860924
-0.00993918
-0.0112482
-0.0125355
-0.0138016
-0.0150457
-0.0162684
-0.0174687
-0.0186474
-0.0198034
-0.0209375
-0.0220487
-0.0231375
-0.0242032
-0.0252463
-0.0262659
-0.0272626
-0.0282356
-0.0291854
-0.0301111
-0.0310124
-0.031891
-0.0327616
-0.0336131
0.15275
0.152701
0.152479
0.152158
0.151729
0.151194
0.150562
0.149835
0.149018
0.148117
0.147133
0.146073
0.144938
0.143732
0.14246
0.141123
0.139726
0.138271
0.136761
0.135198
0.133586
0.131928
0.130225
0.12848
0.126696
0.124875
0.12302
0.121133
0.119216
0.11727
0.1153
0.113305
0.111289
0.109253
0.1072
0.105131
0.103047
0.100951
0.0988449
0.0967294
0.0946065
0.0924775
0.0903441
0.0882076
0.0860695
0.0839309
0.0817931
0.0796574
0.0775249
0.0753965
0.0732736
0.0711569
0.0690476
0.0669464
0.0648543
0.062772
0.0607003
0.0586399
0.0565916
0.0545559
0.0525336
0.050525
0.0485309
0.0465516
0.0445877
0.0426396
0.0407076
0.0387922
0.0368938
0.0350126
0.0331489
0.031303
0.0294753
0.0276658
0.0258749
0.0241027
0.0223493
0.0206151
0.0189
0.0172044
0.0155282
0.0138717
0.0122348
0.0106178
0.0090206
0.00744357
0.00588643
0.00434965
0.00283291
0.00133672
-0.000139328
-0.00159465
-0.00302968
-0.00444382
-0.00583753
-0.00721016
-0.0085622
-0.00989298
-0.011203
-0.0124916
-0.0137592
-0.0150051
-0.0162299
-0.0174327
-0.0186142
-0.0197736
-0.0209114
-0.0220268
-0.0231203
-0.0241913
-0.0252401
-0.0262662
-0.0272698
-0.0282504
-0.0292085
-0.030143
-0.0310538
-0.0319425
-0.032824
-0.0336856
0.152775
0.152726
0.152506
0.152185
0.151757
0.151223
0.150591
0.149865
0.14905
0.148149
0.147166
0.146107
0.144973
0.143768
0.142497
0.141162
0.139765
0.138311
0.136802
0.135241
0.13363
0.131972
0.13027
0.128527
0.126744
0.124925
0.12307
0.121184
0.119268
0.117324
0.115354
0.11336
0.111345
0.109311
0.107258
0.10519
0.103107
0.101012
0.0989063
0.0967915
0.0946693
0.0925411
0.0904083
0.0882725
0.0861349
0.0839969
0.0818597
0.0797246
0.0775924
0.0754647
0.0733421
0.0712259
0.0691169
0.0670161
0.0649242
0.0628423
0.0607708
0.0587108
0.0566627
0.0546273
0.0526051
0.0505968
0.0486027
0.0466238
0.0446598
0.042712
0.04078
0.0388649
0.0369663
0.0350853
0.0332215
0.0313759
0.029548
0.0277387
0.0259475
0.0241755
0.0224219
0.0206878
0.0189725
0.0172769
0.0156004
0.0139439
0.0123065
0.0106895
0.00909182
0.00751461
0.00595688
0.00441981
0.00290236
0.0014057
-7.1207e-05
-0.00152717
-0.00296326
-0.00437827
-0.00577328
-0.00714705
-0.00850067
-0.00983291
-0.0111448
-0.0124352
-0.0137052
-0.0149534
-0.0161809
-0.0173865
-0.0185713
-0.0197341
-0.0208757
-0.0219951
-0.0230932
-0.0241689
-0.0252231
-0.0262547
-0.0272646
-0.0282517
-0.0292169
-0.030159
-0.031078
-0.0319755
-0.0328667
-0.0337385
0.152812
0.152764
0.152545
0.152225
0.151798
0.151266
0.150635
0.14991
0.149096
0.148197
0.147216
0.146157
0.145025
0.143822
0.142552
0.141218
0.139824
0.138371
0.136864
0.135304
0.133695
0.132039
0.130339
0.128597
0.126816
0.124998
0.123145
0.121261
0.119346
0.117403
0.115435
0.113443
0.111429
0.109396
0.107345
0.105278
0.103196
0.101103
0.0989982
0.0968846
0.0947635
0.0926363
0.0905046
0.0883697
0.0862331
0.084096
0.0819596
0.0798252
0.077694
0.0755668
0.073445
0.0713294
0.069221
0.0671208
0.0650295
0.062948
0.0608771
0.0588175
0.0567698
0.0547348
0.052713
0.050705
0.0487113
0.0467325
0.044769
0.0428212
0.0408896
0.0389745
0.0370763
0.0351953
0.0333318
0.0314861
0.0296584
0.027849
0.0260581
0.0242858
0.0225325
0.0207981
0.0190829
0.0173869
0.0157105
0.0140535
0.0124162
0.0107985
0.00920078
0.00762273
0.00606482
0.00452672
0.0030089
0.00151097
3.34628e-05
-0.00142407
-0.00286106
-0.00427799
-0.00567426
-0.00705039
-0.00840574
-0.00974085
-0.0110551
-0.0123489
-0.0136218
-0.0148742
-0.0161055
-0.0173161
-0.0185055
-0.0196742
-0.0208215
-0.021948
-0.0230529
-0.0241368
-0.0251991
-0.0262402
-0.0272596
-0.0282576
-0.0292338
-0.0301883
-0.0311198
-0.0320312
-0.0329366
-0.0338243
0.152862
0.152815
0.152597
0.152279
0.151853
0.151322
0.150693
0.14997
0.149158
0.14826
0.147281
0.146224
0.145094
0.143893
0.142625
0.141294
0.139901
0.138451
0.136945
0.135388
0.133781
0.132127
0.130429
0.12869
0.126911
0.125095
0.123245
0.121362
0.119449
0.117509
0.115543
0.113553
0.111541
0.109509
0.10746
0.105394
0.103315
0.101223
0.0991198
0.0970078
0.0948881
0.0927623
0.0906319
0.0884983
0.0863629
0.0842269
0.0820916
0.0799583
0.077828
0.0757019
0.0735808
0.0714661
0.0693585
0.067259
0.0651684
0.0630876
0.0610172
0.0589582
0.056911
0.0548765
0.052855
0.0508475
0.0488541
0.0468757
0.0449124
0.0429649
0.0410335
0.0391186
0.0372205
0.0353397
0.0334762
0.0316306
0.0298029
0.0279935
0.0262025
0.0244301
0.0226766
0.020942
0.0192265
0.0175303
0.0158534
0.0141959
0.0125581
0.0109398
0.00934137
0.00776253
0.00620368
0.00466456
0.00314556
0.00164634
0.00016735
-0.00129179
-0.0027306
-0.00414953
-0.00554803
-0.00692658
-0.00828462
-0.00962267
-0.0109401
-0.0122375
-0.0135142
-0.0147708
-0.0160066
-0.0172221
-0.0184168
-0.0195913
-0.0207447
-0.0218778
-0.0229898
-0.0240813
-0.0251517
-0.0262015
-0.0272301
-0.028238
-0.0292246
-0.0301901
-0.0311333
-0.0320572
-0.0329757
-0.0338769
0.152923
0.152878
0.152661
0.152345
0.151921
0.151392
0.150765
0.150044
0.149234
0.148338
0.147362
0.146308
0.14518
0.143981
0.142716
0.141387
0.139997
0.138549
0.137047
0.135492
0.133888
0.132237
0.130542
0.128805
0.127028
0.125215
0.123368
0.121488
0.119578
0.11764
0.115676
0.113688
0.111679
0.109649
0.107602
0.105539
0.103461
0.101371
0.0992704
0.0971602
0.0950423
0.0929182
0.0907895
0.0886575
0.0865235
0.084389
0.0822551
0.080123
0.077994
0.0758689
0.0737491
0.0716353
0.0695287
0.06743
0.0653404
0.0632602
0.0611907
0.0591322
0.0570858
0.0550517
0.0530309
0.0510237
0.0490309
0.0470527
0.0450899
0.0431425
0.0412115
0.0392967
0.037399
0.0355181
0.0336549
0.0318091
0.0299816
0.028172
0.026381
0.0246083
0.0228548
0.0211197
0.0194041
0.0177072
0.0160301
0.0143719
0.0127336
0.0111144
0.00951524
0.00793528
0.00637553
0.00483504
0.00331485
0.00181397
0.00033348
-0.00112766
-0.00256836
-0.00398967
-0.00539049
-0.00677189
-0.00813276
-0.00947418
-0.010795
-0.0120964
-0.0133771
-0.0146384
-0.0158789
-0.0170999
-0.0183002
-0.0194809
-0.0206408
-0.0217811
-0.0229005
-0.0240003
-0.0250791
-0.0261382
-0.0271763
-0.0281946
-0.0291919
-0.030169
-0.0311241
-0.0320607
-0.0329922
-0.0339068
0.152995
0.152952
0.152738
0.152424
0.152002
0.151475
0.15085
0.150132
0.149324
0.148431
0.147458
0.146406
0.145281
0.144086
0.142824
0.141498
0.140111
0.138667
0.137167
0.135616
0.134015
0.132367
0.130675
0.128941
0.127168
0.125358
0.123514
0.121637
0.11973
0.117795
0.115834
0.113849
0.111842
0.109816
0.107771
0.105711
0.103636
0.101548
0.0994493
0.0973413
0.0952256
0.0931036
0.0909768
0.0888466
0.0867144
0.0845816
0.0824493
0.0803188
0.0781911
0.0760675
0.0739489
0.0718364
0.0697309
0.0676333
0.0655445
0.0634654
0.0613966
0.059339
0.0572932
0.0552599
0.0532396
0.0512331
0.0492407
0.047263
0.0453005
0.0433536
0.0414228
0.0395083
0.0376106
0.03573
0.0338667
0.0320212
0.0301934
0.0283839
0.0265926
0.0248199
0.0230658
0.0213306
0.0196143
0.0179173
0.0162392
0.0145807
0.0129413
0.0113215
0.00972106
0.00814033
0.00657901
0.00503751
0.00351545
0.00201328
0.000530594
-0.000932161
-0.00237543
-0.00379872
-0.00520252
-0.00658632
-0.00795063
-0.00929491
-0.0106197
-0.0119244
-0.0132097
-0.0144748
-0.0157205
-0.016946
-0.018152
-0.0193379
-0.0205043
-0.0216504
-0.022777
-0.0238834
-0.0249701
-0.0260366
-0.0270834
-0.0281098
-0.0291165
-0.0301026
-0.0310678
-0.0320142
-0.0329564
-0.0338805
0.153079
0.153038
0.152826
0.152514
0.152095
0.151571
0.150949
0.150233
0.149429
0.148539
0.147568
0.14652
0.145399
0.144207
0.142948
0.141626
0.140243
0.138802
0.137306
0.135758
0.134161
0.132517
0.130829
0.129099
0.12733
0.125523
0.123683
0.121809
0.119906
0.117974
0.116017
0.114035
0.112032
0.110008
0.107967
0.105909
0.103837
0.101752
0.0996561
0.0975506
0.0954373
0.0933177
0.0911932
0.0890652
0.086935
0.0848041
0.0826737
0.0805449
0.078419
0.0762969
0.0741798
0.0720686
0.0699645
0.0678681
0.0657805
0.0637023
0.0616346
0.0595778
0.0575329
0.0555003
0.0534808
0.0514748
0.049483
0.0475058
0.0455438
0.0435972
0.0416667
0.0397525
0.037855
0.0359745
0.0341114
0.0322658
0.030438
0.0286283
0.0268369
0.0250639
0.0233095
0.021574
0.0198572
0.0181596
0.016481
0.0148216
0.0131814
0.0115607
0.00995925
0.00837736
0.00681479
0.00527187
0.00374831
0.00224444
0.000759952
-0.000704799
-0.0021502
-0.00357583
-0.00498212
-0.00636862
-0.00773582
-0.00908321
-0.0104113
-0.0117196
-0.0130086
-0.0142778
-0.0155277
-0.0167577
-0.0179685
-0.0191595
-0.0203311
-0.0214829
-0.0226153
-0.0237278
-0.024821
-0.0258942
-0.026948
-0.0279818
-0.0289961
-0.02999
-0.0309634
-0.0319182
-0.0328688
-0.0338005
0.153173
0.153135
0.152925
0.152617
0.1522
0.151679
0.15106
0.150348
0.149547
0.148661
0.147693
0.146649
0.145531
0.144344
0.143089
0.141771
0.140392
0.138955
0.137463
0.13592
0.134327
0.132687
0.131003
0.129278
0.127512
0.12571
0.123874
0.122004
0.120105
0.118177
0.116223
0.114246
0.112246
0.110226
0.108188
0.106134
0.104065
0.101983
0.0998901
0.0977875
0.095677
0.0935601
0.0914381
0.0893125
0.0871847
0.085056
0.0829277
0.0808009
0.0786768
0.0765566
0.0744411
0.0723316
0.0702288
0.0681338
0.0660474
0.0639706
0.0619038
0.0598482
0.0578041
0.0557724
0.0537535
0.0517484
0.0497571
0.0477806
0.0458189
0.0438729
0.0419426
0.0400288
0.0381314
0.0362512
0.0343879
0.0325425
0.0307145
0.0289049
0.0271131
0.0253401
0.0235852
0.0218494
0.020132
0.0184339
0.0167545
0.0150946
0.0134534
0.0118319
0.0102293
0.00864639
0.00708244
0.00553831
0.00401314
0.00250783
0.00102149
-0.000444981
-0.00189248
-0.0033201
-0.00472877
-0.00611756
-0.00748741
-0.00883739
-0.0101684
-0.0114796
-0.0127719
-0.0140443
-0.0152978
-0.0165315
-0.0177462
-0.018941
-0.0201169
-0.0212729
-0.02241
-0.0235271
-0.0246252
-0.0257033
-0.0267623
-0.0278013
-0.028821
-0.0298204
-0.0307996
-0.0317603
-0.0327165
-0.0336527
0.153279
0.153243
0.153036
0.152731
0.152318
0.1518
0.151184
0.150476
0.149678
0.148796
0.147833
0.146793
0.145679
0.144496
0.143245
0.141932
0.140557
0.139125
0.137638
0.1361
0.134511
0.132877
0.131197
0.129476
0.127716
0.125918
0.124086
0.122221
0.120326
0.118403
0.116454
0.11448
0.112485
0.110469
0.108435
0.106384
0.104319
0.10224
0.100151
0.0980515
0.0959441
0.0938301
0.091711
0.0895881
0.0874629
0.0853367
0.0832107
0.0810861
0.0789641
0.0768458
0.0747323
0.0726244
0.0705233
0.0684298
0.0663449
0.0642693
0.0622038
0.0601492
0.0581062
0.0560754
0.0540575
0.052053
0.0500625
0.0480864
0.0461254
0.0441797
0.0422499
0.0403363
0.0384393
0.0365591
0.0346961
0.0328505
0.0310227
0.0292128
0.027421
0.0256475
0.0238925
0.022156
0.0204384
0.0187395
0.0170597
0.0153988
0.0137571
0.0121345
0.0105312
0.00894694
0.00738214
0.00583648
0.00431029
0.00280325
0.00131571
-0.000152687
-0.00160157
-0.00303132
-0.00444155
-0.00583268
-0.00720429
-0.00855681
-0.0098898
-0.0112037
-0.0124981
-0.0137735
-0.0150293
-0.016266
-0.0174832
-0.0186813
-0.0198599
-0.0210193
-0.0221591
-0.0232799
-0.0243809
-0.0254627
-0.0265248
-0.0275676
-0.0285906
-0.029594
-0.0305765
-0.0315413
-0.0325005
-0.033439
0.153394
0.153362
0.153158
0.152856
0.152446
0.151932
0.151321
0.150616
0.149823
0.148945
0.147986
0.146951
0.145842
0.144663
0.143418
0.142109
0.14074
0.139313
0.137831
0.136297
0.134714
0.133085
0.131411
0.129695
0.12794
0.126147
0.12432
0.12246
0.12057
0.118652
0.116707
0.114738
0.112747
0.110736
0.108706
0.106659
0.104598
0.102524
0.100438
0.098342
0.096238
0.0941273
0.0920113
0.0898914
0.0877691
0.0856455
0.0835221
0.0814
0.0792803
0.0771642
0.0750526
0.0729467
0.0708473
0.0687556
0.0666721
0.064598
0.0625338
0.0604805
0.0584385
0.0564088
0.0543918
0.0523882
0.0503983
0.048423
0.0464625
0.0445174
0.0425879
0.0406747
0.0387779
0.0368979
0.035035
0.0331895
0.0313616
0.0295516
0.0277597
0.0259859
0.0242306
0.0224938
0.0207757
0.0190764
0.017396
0.0157345
0.014092
0.0124686
0.0108644
0.00927934
0.00771355
0.00616687
0.00463956
0.00313138
0.00164261
0.000172952
-0.00127727
-0.00270839
-0.00412006
-0.00551264
-0.00688577
-0.00823982
-0.0095744
-0.0108899
-0.012186
-0.0134629
-0.0147204
-0.0159588
-0.0171777
-0.0183775
-0.0195577
-0.0207188
-0.0218603
-0.0229827
-0.0240853
-0.0251688
-0.0262325
-0.027277
-0.0283015
-0.0293065
-0.0302906
-0.0312571
-0.0322172
-0.0331552
0.15352
0.153491
0.153291
0.152992
0.152587
0.152076
0.151469
0.150769
0.14998
0.149107
0.148153
0.147122
0.146019
0.144845
0.143605
0.142302
0.140938
0.139517
0.138041
0.136513
0.134935
0.133311
0.131643
0.129933
0.128183
0.126397
0.124575
0.122721
0.120836
0.118923
0.116983
0.115019
0.113033
0.111027
0.109001
0.106959
0.104902
0.102832
0.10075
0.0986584
0.0965582
0.0944511
0.0923385
0.0902219
0.0881027
0.0859821
0.0838615
0.0817419
0.0796248
0.077511
0.0754017
0.0732978
0.0712005
0.0691104
0.0670287
0.0649561
0.0628934
0.0608413
0.0588007
0.0567719
0.054756
0.0527532
0.0507643
0.0487895
0.0468298
0.044885
0.0429562
0.0410432
0.0391468
0.0372669
0.0354043
0.0335587
0.031731
0.0299208
0.0281288
0.0263547
0.0245993
0.0228621
0.0211437
0.0194438
0.0177631
0.0161009
0.014458
0.0128339
0.0112291
0.00964321
0.00807679
0.00652923
0.00500123
0.00349213
0.00200261
0.000532011
-0.000918976
-0.00235103
-0.00376347
-0.00515697
-0.00653084
-0.00788576
-0.00922103
-0.0105373
-0.011834
-0.0131117
-0.0143697
-0.0156086
-0.0168279
-0.0180281
-0.0192086
-0.02037
-0.0215117
-0.0226342
-0.0237369
-0.0248204
-0.025884
-0.0269283
-0.0279527
-0.0289574
-0.0299413
-0.0309077
-0.0318669
-0.0328022
0.153656
0.153631
0.153434
0.153139
0.152738
0.152232
0.151629
0.150934
0.15015
0.149281
0.148333
0.147308
0.146209
0.145042
0.143807
0.14251
0.141152
0.139737
0.138267
0.136745
0.135174
0.133556
0.131894
0.13019
0.128447
0.126666
0.12485
0.123002
0.121123
0.119215
0.117281
0.115323
0.113342
0.111341
0.109321
0.107283
0.105231
0.103165
0.101088
0.0990004
0.0969042
0.094801
0.0926921
0.0905791
0.0884632
0.0863458
0.0842281
0.0821116
0.079997
0.0778859
0.0757789
0.0736773
0.071582
0.0694939
0.067414
0.0653431
0.0632819
0.0612313
0.0591918
0.0571644
0.0551494
0.0531476
0.0511595
0.0491856
0.0472264
0.0452824
0.0433539
0.0414414
0.0395452
0.0376657
0.0358031
0.0339578
0.0321299
0.0303198
0.0285276
0.0267536
0.0249978
0.0232605
0.0215417
0.0198417
0.0181603
0.016498
0.0148545
0.0132301
0.0116247
0.0100385
0.0084714
0.00692359
0.0053949
0.00388558
0.0023954
0.000924644
-0.000526941
-0.00195906
-0.003372
-0.00476544
-0.00613966
-0.00749436
-0.00882983
-0.0101457
-0.0114424
-0.0127194
-0.0139772
-0.0152153
-0.0164341
-0.0176333
-0.0188131
-0.0199731
-0.0211138
-0.0222348
-0.0233363
-0.024418
-0.0254803
-0.0265226
-0.0275455
-0.0285481
-0.0295305
-0.0304948
-0.0314514
-0.0323817
0.153802
0.15378
0.153587
0.153297
0.1529
0.152399
0.151801
0.15111
0.150331
0.149469
0.148526
0.147506
0.146414
0.145252
0.144024
0.142733
0.141382
0.139973
0.13851
0.136994
0.13543
0.133819
0.132163
0.130466
0.128729
0.126955
0.125146
0.123304
0.121431
0.119529
0.117601
0.115649
0.113674
0.111678
0.109663
0.107631
0.105584
0.103523
0.101451
0.0993674
0.0972756
0.0951765
0.0930716
0.0909623
0.0888501
0.0867361
0.0846218
0.0825081
0.0803966
0.078288
0.0761838
0.0740845
0.0719915
0.0699054
0.0678275
0.0657583
0.0636988
0.0616496
0.0596116
0.0575854
0.0555716
0.0535708
0.0515836
0.0496105
0.047652
0.0457085
0.0437806
0.0418685
0.0399727
0.0380935
0.0362311
0.0343859
0.0325582
0.0307481
0.0289559
0.0271818
0.0254259
0.0236885
0.0219695
0.0202693
0.0185878
0.0169252
0.0152815
0.0136568
0.0120512
0.0104649
0.0088976
0.00734966
0.00582091
0.00431155
0.00282144
0.0013508
-0.000100556
-0.00153239
-0.00294489
-0.00433781
-0.00571136
-0.00706529
-0.0083998
-0.00971464
-0.01101
-0.0122857
-0.0135419
-0.0147783
-0.0159952
-0.0171922
-0.0183698
-0.0195274
-0.0206656
-0.0217838
-0.0228824
-0.0239611
-0.0250202
-0.0260593
-0.0270788
-0.028078
-0.029057
-0.0300178
-0.03097
-0.031894
0.153957
0.15394
0.15375
0.153465
0.153072
0.152576
0.151983
0.151298
0.150525
0.149668
0.148731
0.147718
0.146632
0.145477
0.144255
0.142971
0.141626
0.140224
0.138768
0.13726
0.135703
0.134099
0.13245
0.13076
0.12903
0.127263
0.12546
0.123625
0.121759
0.119864
0.117943
0.115996
0.114027
0.112037
0.110028
0.108002
0.10596
0.103905
0.101837
0.099759
0.0976718
0.0955772
0.0934765
0.0913713
0.0892629
0.0871526
0.0850417
0.0829314
0.0808228
0.0787173
0.0766156
0.074519
0.0724283
0.0703445
0.0682685
0.0662013
0.0641435
0.062096
0.0600594
0.0580345
0.0560218
0.0540222
0.0520359
0.0500637
0.0481059
0.0461632
0.0442357
0.0423242
0.0404287
0.0385499
0.0366877
0.0348428
0.0330151
0.0312053
0.029413
0.027639
0.025883
0.0241456
0.0224265
0.0207264
0.0190447
0.0173822
0.0157384
0.0141139
0.0125083
0.0109221
0.00935498
0.00780737
0.00627892
0.00477008
0.00328048
0.00181058
0.000359997
-0.00107082
-0.00248224
-0.00387384
-0.00524596
-0.00659821
-0.00793091
-0.00924369
-0.0105369
-0.01181
-0.0130636
-0.0142971
-0.0155109
-0.0167047
-0.0178787
-0.0190327
-0.0201669
-0.0212811
-0.0223755
-0.0234498
-0.0245045
-0.025539
-0.0265538
-0.0275483
-0.0285226
-0.0294788
-0.0304252
-0.0313415
0.154121
0.154108
0.153924
0.153643
0.153255
0.152764
0.152177
0.151497
0.15073
0.149879
0.148949
0.147942
0.146863
0.145714
0.1445
0.143223
0.141885
0.140491
0.139042
0.137542
0.135992
0.134395
0.132754
0.131072
0.129349
0.127589
0.125794
0.123966
0.122107
0.120219
0.118305
0.116365
0.114403
0.112419
0.110416
0.108396
0.10636
0.10431
0.102248
0.100175
0.0980924
0.0960025
0.0939064
0.0918055
0.0897011
0.0875947
0.0854875
0.0833806
0.0812755
0.0791728
0.0770742
0.0749802
0.0728921
0.0708106
0.0687368
0.0666715
0.0646156
0.0625697
0.0605347
0.0585112
0.0564998
0.0545012
0.052516
0.0505447
0.0485877
0.0466456
0.0447189
0.0428078
0.0409128
0.0390342
0.0371725
0.0353277
0.0335003
0.0316905
0.0298985
0.0281245
0.0263688
0.0246313
0.0229125
0.0212123
0.0195309
0.0178684
0.016225
0.0146007
0.0129956
0.0114097
0.00984329
0.00829621
0.00676868
0.00526063
0.00377225
0.00230345
0.000854428
-0.000574923
-0.00198441
-0.00337413
-0.00474389
-0.00609381
-0.0074237
-0.00873367
-0.0100235
-0.0112934
-0.0125432
-0.0137729
-0.0149824
-0.0161719
-0.0173412
-0.0184905
-0.0196195
-0.0207286
-0.0218174
-0.0228863
-0.023935
-0.0249638
-0.0259724
-0.026961
-0.0279291
-0.0288795
-0.0298184
-0.030726
0.154294
0.154286
0.154106
0.153831
0.153448
0.152963
0.152381
0.151708
0.150947
0.150102
0.149178
0.148178
0.147106
0.145965
0.144758
0.143489
0.142159
0.140773
0.139332
0.137839
0.136297
0.134709
0.133076
0.131401
0.129686
0.127934
0.126147
0.124327
0.122475
0.120595
0.118687
0.116755
0.114799
0.112822
0.110826
0.108812
0.106782
0.104738
0.102681
0.100614
0.0985369
0.096452
0.0943607
0.0922643
0.0901644
0.0880621
0.0859587
0.0838556
0.0817537
0.0796545
0.0775587
0.0754677
0.0733821
0.0713032
0.0692316
0.0671685
0.0651145
0.0630704
0.0610369
0.0590149
0.0570049
0.0550075
0.0530233
0.0510529
0.0490968
0.0471555
0.0452293
0.0433188
0.0414243
0.0395462
0.0376847
0.0358403
0.0340132
0.0322036
0.0304118
0.0286381
0.0268825
0.0251453
0.0234267
0.0217268
0.0200458
0.0183838
0.0167408
0.0151171
0.0135127
0.0119276
0.0103621
0.00881616
0.00728987
0.00578326
0.00429649
0.00282952
0.00138252
-4.45522e-05
-0.00145155
-0.0028385
-0.00420528
-0.00555191
-0.00687828
-0.00818442
-0.00947022
-0.0107357
-0.0119808
-0.0132056
-0.01441
-0.015594
-0.0167576
-0.0179009
-0.0190238
-0.0201265
-0.0212088
-0.0222709
-0.0233128
-0.0243346
-0.0253362
-0.0263177
-0.0272788
-0.0282222
-0.0291528
-0.0300502
0.154476
0.154473
0.154298
0.154028
0.153651
0.153171
0.152596
0.151929
0.151174
0.150337
0.14942
0.148427
0.147362
0.146229
0.14503
0.143768
0.142447
0.141068
0.139636
0.138151
0.136618
0.135038
0.133413
0.131747
0.130041
0.128297
0.126518
0.124706
0.122862
0.12099
0.11909
0.117165
0.115216
0.113247
0.111257
0.10925
0.107227
0.105189
0.103138
0.101076
0.0990049
0.0969253
0.094839
0.0927475
0.0906521
0.0885541
0.0864549
0.0843556
0.0822575
0.0801615
0.0780691
0.0759809
0.0738983
0.0718218
0.0697527
0.0676917
0.0656397
0.0635974
0.0615658
0.0595452
0.0575366
0.0555404
0.0535574
0.0515879
0.0496327
0.0476921
0.0457667
0.0438567
0.0419628
0.040085
0.0382241
0.03638
0.0345533
0.0327439
0.0309525
0.029179
0.0274239
0.025687
0.0239689
0.0222695
0.0205891
0.0189276
0.0172855
0.0156626
0.0140593
0.0124754
0.0109112
0.00936676
0.00784222
0.00633754
0.00485294
0.00338838
0.00194404
0.000519898
-0.000883903
-0.00226735
-0.00363036
-0.00497289
-0.00629488
-0.0075963
-0.00887712
-0.0101373
-0.0113768
-0.0125956
-0.0137938
-0.0149713
-0.0161282
-0.0172645
-0.0183802
-0.0194754
-0.0205502
-0.0216045
-0.0226386
-0.0236523
-0.0246459
-0.0256192
-0.0265721
-0.0275075
-0.0284286
-0.0293147
0.154667
0.154669
0.154499
0.154234
0.153863
0.15339
0.15282
0.15216
0.151412
0.150582
0.149672
0.148687
0.147631
0.146505
0.145314
0.144061
0.142748
0.141378
0.139955
0.138479
0.136954
0.135383
0.133768
0.13211
0.130413
0.128678
0.126907
0.125103
0.123268
0.121404
0.119512
0.117595
0.115654
0.113692
0.11171
0.10971
0.107693
0.105662
0.103617
0.101562
0.099496
0.0974219
0.095341
0.0932545
0.0911639
0.0890705
0.0869755
0.0848804
0.082786
0.0806938
0.0786045
0.0765196
0.0744397
0.0723661
0.0702994
0.0682407
0.0661908
0.0641505
0.0621205
0.0601016
0.0580943
0.0560995
0.0541175
0.0521492
0.0501948
0.0482551
0.0463303
0.0444211
0.0425276
0.0406505
0.0387899
0.0369463
0.0351199
0.0333111
0.0315201
0.0297471
0.0279923
0.0262561
0.0245385
0.0228398
0.0211601
0.0194996
0.0178585
0.0162368
0.0146348
0.0130525
0.01149
0.00994755
0.00842514
0.00692293
0.00544097
0.0039794
0.00253828
0.0011177
-0.000282267
-0.00166155
-0.00302007
-0.00435779
-0.00567463
-0.00697059
-0.00824558
-0.00949964
-0.0107327
-0.0119448
-0.0131359
-0.0143061
-0.0154554
-0.0165839
-0.0176915
-0.0187784
-0.0198447
-0.0208904
-0.0219157
-0.0229206
-0.0239052
-0.0248695
-0.0258137
-0.0267401
-0.0276511
-0.0285248
0.154866
0.154873
0.154708
0.15445
0.154085
0.153617
0.153055
0.152401
0.151661
0.150838
0.149936
0.148959
0.147911
0.146794
0.145611
0.144367
0.143063
0.141702
0.140287
0.138821
0.137306
0.135744
0.134138
0.132489
0.130801
0.129075
0.127314
0.125519
0.123692
0.121837
0.119953
0.118044
0.116112
0.114157
0.112183
0.11019
0.108181
0.106156
0.104119
0.102069
0.10001
0.0979415
0.0958661
0.0937849
0.0916994
0.0896107
0.0875203
0.0854293
0.0833391
0.0812504
0.0791648
0.077083
0.0750063
0.0729354
0.0708714
0.068815
0.0667674
0.064729
0.0627008
0.0606835
0.0586778
0.0566842
0.0547035
0.0527362
0.0507828
0.0488439
0.0469199
0.0450113
0.0431185
0.0412419
0.0393819
0.0375388
0.0357129
0.0339046
0.032114
0.0303416
0.0285875
0.0268519
0.0251351
0.0234373
0.0217586
0.0200993
0.0184595
0.0168393
0.015239
0.0136586
0.0120982
0.0105581
0.00903838
0.00753908
0.00606035
0.00460228
0.003165
0.00174857
0.000353113
-0.00102135
-0.00237467
-0.00370687
-0.00501781
-0.00630755
-0.00757595
-0.00882312
-0.0100489
-0.0112535
-0.0124367
-0.0135988
-0.0147396
-0.0158594
-0.0169581
-0.0180359
-0.0190928
-0.0201291
-0.0211448
-0.02214
-0.0231148
-0.0240693
-0.0250038
-0.0259205
-0.0268203
-0.027681
0.155073
0.155086
0.154926
0.154674
0.154315
0.153855
0.153299
0.152653
0.15192
0.151104
0.150211
0.149242
0.148202
0.147094
0.145921
0.144685
0.143391
0.142039
0.140634
0.139178
0.137672
0.13612
0.134523
0.132884
0.131206
0.129489
0.127738
0.125952
0.124135
0.122288
0.120414
0.118513
0.116589
0.114643
0.112676
0.110691
0.108689
0.106672
0.104641
0.102599
0.100546
0.0984836
0.096414
0.0943384
0.0922581
0.0901745
0.0880887
0.0860023
0.083916
0.0818314
0.0797493
0.0776711
0.0755974
0.0735295
0.0714681
0.0694143
0.0673688
0.0653326
0.0633062
0.0612906
0.0592864
0.0572943
0.0553147
0.0533486
0.0513961
0.0494581
0.0475349
0.045627
0.0437348
0.0418589
0.0399994
0.0381569
0.0363316
0.0345239
0.0327339
0.0309622
0.0292088
0.0274742
0.0257583
0.0240616
0.0223842
0.0207262
0.019088
0.0174696
0.0158713
0.0142932
0.0127354
0.0111981
0.00968143
0.00818549
0.00671053
0.00525647
0.00382364
0.00241191
0.00102162
-0.000347414
-0.00169482
-0.00302087
-0.00432516
-0.00560802
-0.00686904
-0.00810862
-0.00932635
-0.0105227
-0.0116972
-0.0128504
-0.013982
-0.0150924
-0.0161814
-0.0172494
-0.0182963
-0.0193225
-0.0203279
-0.0213128
-0.0222772
-0.0232213
-0.0241455
-0.025052
-0.0259402
-0.0267873
0.155288
0.155306
0.155153
0.154907
0.154555
0.154101
0.153552
0.152914
0.152188
0.151381
0.150496
0.149536
0.148505
0.147406
0.146242
0.145016
0.143731
0.14239
0.140995
0.139548
0.138052
0.13651
0.134924
0.133295
0.131627
0.12992
0.128178
0.126402
0.124595
0.122757
0.120892
0.119001
0.117086
0.115148
0.11319
0.111213
0.109219
0.107209
0.105186
0.10315
0.101103
0.0990478
0.0969843
0.0949145
0.0928397
0.0907612
0.0886804
0.0865985
0.0845167
0.0824361
0.0803579
0.078283
0.0762128
0.0741478
0.0720893
0.0700379
0.0679948
0.0659607
0.0639363
0.0619224
0.0599198
0.057929
0.0559508
0.0539857
0.0520344
0.0500972
0.0481749
0.0462677
0.0443763
0.0425009
0.0406421
0.0388002
0.0369756
0.0351685
0.0333794
0.0316084
0.029856
0.0281223
0.0264076
0.0247121
0.0230362
0.0213799
0.0197435
0.0181272
0.0165312
0.0149557
0.0134008
0.0118667
0.0103536
0.00886152
0.00739068
0.00594124
0.00451323
0.00310687
0.00172213
0.000359247
-0.000981874
-0.00230099
-0.00359826
-0.00487342
-0.00612671
-0.00735787
-0.00856718
-0.00975443
-0.0109199
-0.0120635
-0.0131855
-0.0142857
-0.0153647
-0.0164222
-0.0174586
-0.018474
-0.0194686
-0.0204425
-0.0213961
-0.0223292
-0.0232425
-0.0241383
-0.0250138
-0.0258471
0.155511
0.155535
0.155387
0.155148
0.154803
0.154356
0.153815
0.153184
0.152467
0.151668
0.150791
0.14984
0.148819
0.147729
0.146575
0.145359
0.144084
0.142753
0.141368
0.139932
0.138447
0.136915
0.135339
0.133721
0.132063
0.130367
0.128635
0.12687
0.125072
0.123245
0.121389
0.119507
0.117601
0.115672
0.113723
0.111754
0.109768
0.107767
0.105751
0.103722
0.101683
0.0996337
0.0975766
0.0955128
0.0934437
0.0913707
0.089295
0.0872179
0.0851405
0.0830642
0.0809898
0.0789188
0.0768517
0.07479
0.0727343
0.0706857
0.0686449
0.066613
0.0645906
0.0625785
0.0605775
0.0585882
0.0566113
0.0546474
0.052697
0.0507609
0.0488393
0.046933
0.0450423
0.0431677
0.0413096
0.0394684
0.0376444
0.0358382
0.0340498
0.0322798
0.0305284
0.0287959
0.0270825
0.0253885
0.0237143
0.0220599
0.0204257
0.0188118
0.0172184
0.0156458
0.0140942
0.0125637
0.0110544
0.00956666
0.00810045
0.00665602
0.0052334
0.00383282
0.00245424
0.00109792
-0.000236254
-0.00154803
-0.00283759
-0.00410465
-0.00534949
-0.00657184
-0.00777203
-0.0089498
-0.0101056
-0.0112391
-0.0123508
-0.0134405
-0.0145087
-0.0155552
-0.0165806
-0.0175847
-0.018568
-0.0195306
-0.0204727
-0.0213944
-0.0222964
-0.0231809
-0.0240437
-0.0248626
0.155741
0.155771
0.15563
0.155397
0.155059
0.154619
0.154086
0.153463
0.152754
0.151964
0.151097
0.150155
0.149143
0.148063
0.146919
0.145713
0.144449
0.143128
0.141754
0.140329
0.138855
0.137334
0.135769
0.134162
0.132515
0.13083
0.129109
0.127354
0.125566
0.123749
0.121904
0.120032
0.118135
0.116216
0.114275
0.112315
0.110338
0.108344
0.106336
0.104315
0.102283
0.100241
0.0981905
0.096133
0.0940698
0.0920024
0.089932
0.0878599
0.0857873
0.0837152
0.0816451
0.0795776
0.0775143
0.0754556
0.073403
0.071357
0.0693188
0.0672891
0.0652688
0.0632585
0.0612592
0.0592713
0.0572958
0.055333
0.0533838
0.0514486
0.049528
0.0476224
0.0457326
0.0438587
0.0420013
0.0401609
0.0383378
0.0365324
0.034745
0.032976
0.0312258
0.0294946
0.0277827
0.0260904
0.024418
0.0227658
0.0211339
0.0195227
0.0179323
0.016363
0.0148149
0.0132884
0.0117834
0.0103004
0.0088391
0.0074002
0.00598331
0.00458906
0.003217
0.00186781
0.000540947
-0.000762908
-0.00204438
-0.00330277
-0.00453879
-0.00575177
-0.00694246
-0.00811024
-0.00925589
-0.0103789
-0.01148
-0.0125587
-0.0136159
-0.0146512
-0.0156652
-0.0166578
-0.0176296
-0.0185805
-0.019511
-0.0204211
-0.0213115
-0.0221845
-0.0230341
-0.0238383
0.155979
0.156015
0.15588
0.155655
0.155323
0.154891
0.154366
0.153751
0.153051
0.15227
0.151412
0.15048
0.149477
0.148408
0.147274
0.146079
0.144826
0.143516
0.142153
0.140739
0.139277
0.137767
0.136214
0.134618
0.132982
0.131308
0.129598
0.127854
0.126077
0.124271
0.122436
0.120574
0.118687
0.116778
0.114846
0.112896
0.110927
0.108942
0.106942
0.104929
0.102904
0.100869
0.0988257
0.0967746
0.0947177
0.0926561
0.0905912
0.0885243
0.0864564
0.084389
0.0823229
0.0802595
0.0781996
0.0761445
0.0740947
0.0720517
0.070016
0.0679886
0.0659704
0.063962
0.0619643
0.059978
0.0580038
0.0560423
0.0540942
0.05216
0.0502403
0.0483357
0.0464466
0.0445735
0.042717
0.0408774
0.0390552
0.0372507
0.0354644
0.0336966
0.0319477
0.0302179