/*--------------------------------*- C++ -*----------------------------------*\
  =========                 |
  \\      /  F ield         | OpenFOAM: The Open Source CFD Toolbox
   \\    /   O peration     | Website:  https://openfoam.org
    \\  /    A nd           | Version:  10
     \\/     M anipulation  |
\*---------------------------------------------------------------------------*/
FoamFile
{
    format      ascii;
    class       surfaceScalarField;
    location    "0.002";
    object      phi;
}
// * * * * * * * * * * * * * * * * * * * * * * * * * * * * * * * * * * * * * //

dimensions      [1 0 -1 0 0 0 0];

internalField   nonuniform List<scalar> 
17573
(
-6.00415e-05
-5.2833e-07
-5.97245e-05
-3.17664e-07
-5.94193e-05
-3.05835e-07
-5.91395e-05
-2.80973e-07
-5.90137e-05
-1.27692e-07
-5.8854e-05
-1.68999e-07
-5.85238e-05
-3.21265e-07
-5.81958e-05
-3.27749e-07
-5.78681e-05
-3.27974e-07
-5.75582e-05
-3.10357e-07
-5.72702e-05
-2.87998e-07
-5.69843e-05
-2.86023e-07
-5.67021e-05
-2.82073e-07
-5.64319e-05
-2.70324e-07
-5.60777e-05
-3.53981e-07
-5.57693e-05
-3.08603e-07
-5.56565e-05
-1.15331e-07
-5.5515e-05
-1.39841e-07
-5.52852e-05
-2.33716e-07
-5.50603e-05
-2.21045e-07
-5.48255e-05
-2.37184e-07
-5.45685e-05
-2.51835e-07
-5.42281e-05
-3.31637e-07
-5.39235e-05
-3.11929e-07
-5.38203e-05
-1.04441e-07
-5.36996e-05
-1.21257e-07
-5.34748e-05
-2.2541e-07
-5.32639e-05
-2.10792e-07
-5.30417e-05
-2.22828e-07
-5.2832e-05
-2.09396e-07
-5.26185e-05
-2.13572e-07
-5.2409e-05
-2.08945e-07
-5.22043e-05
-2.04703e-07
-5.19941e-05
-2.09592e-07
-5.17922e-05
-2.0112e-07
-5.15721e-05
-2.19374e-07
-5.12558e-05
-3.08426e-07
-5.09689e-05
-2.92749e-07
-5.09008e-05
-6.99423e-08
-5.07163e-05
-1.81588e-07
-5.05377e-05
-1.78104e-07
-5.03674e-05
-1.69662e-07
-5.02036e-05
-1.6545e-07
-5.01377e-05
-6.31067e-08
-4.98516e-05
-2.8577e-07
-4.95885e-05
-2.62265e-07
-4.94499e-05
-1.37822e-07
-4.93182e-05
-1.31412e-07
-4.92007e-05
-1.17071e-07
-4.90933e-05
-1.07317e-07
-4.89938e-05
-9.90704e-08
-4.89091e-05
-8.45957e-08
-4.88371e-05
-7.18967e-08
-4.87739e-05
-6.29409e-08
-4.87244e-05
-4.86213e-08
-4.86894e-05
-3.56555e-08
-4.86683e-05
-1.92939e-08
-4.86694e-05
-1.97609e-09
-4.86861e-05
2.20892e-08
-4.88198e-05
1.26605e-07
-4.89473e-05
1.12678e-07
-4.89571e-05
2.42913e-08
-4.88731e-05
-8.36135e-08
-4.88008e-05
-7.13972e-08
-4.88438e-05
4.34013e-08
-4.88999e-05
5.61526e-08
-4.89661e-05
6.96073e-08
-4.9055e-05
8.39562e-08
-4.92316e-05
1.73296e-07
-4.94017e-05
1.70891e-07
-4.95085e-05
1.01161e-07
-4.96149e-05
1.11772e-07
-4.97288e-05
1.09671e-07
-4.97802e-05
5.67673e-08
-4.99063e-05
1.29302e-07
-5.00965e-05
1.87583e-07
-5.02292e-05
1.32474e-07
-5.03149e-05
8.63768e-08
-5.04512e-05
1.36549e-07
-5.05843e-05
1.33543e-07
-5.06824e-05
9.84417e-08
-5.08252e-05
1.43064e-07
-5.09648e-05
1.39879e-07
-5.11062e-05
1.41485e-07
-5.12563e-05
1.50147e-07
-5.14034e-05
1.47047e-07
-5.15422e-05
1.39541e-07
-5.16949e-05
1.51896e-07
-5.18562e-05
1.60006e-07
-5.19938e-05
1.38821e-07
-5.21264e-05
1.30444e-07
-5.22256e-05
1.0184e-07
-5.23274e-05
1.03581e-07
-5.24663e-05
1.37586e-07
-5.25933e-05
1.26746e-07
-5.27384e-05
1.45507e-07
-5.28449e-05
1.0646e-07
-5.29496e-05
1.04867e-07
-5.30553e-05
1.05739e-07
-5.31405e-05
8.53186e-08
-5.32553e-05
1.14929e-07
-5.33386e-05
8.34956e-08
-5.34626e-05
1.24024e-07
-5.35496e-05
8.72623e-08
-5.36786e-05
1.2907e-07
-5.37642e-05
8.54255e-08
-5.38846e-05
1.21106e-07
-5.39619e-05
7.69685e-08
-5.40873e-05
1.26438e-07
-5.4156e-05
7.01204e-08
-5.43196e-05
1.62589e-07
-5.44638e-05
1.4333e-07
-5.46547e-05
1.92072e-07
-5.48042e-05
1.48981e-07
-5.5037e-05
2.33999e-07
-5.52336e-05
1.96748e-07
-5.54979e-05
2.64599e-07
-5.57358e-05
2.38179e-07
-5.59944e-05
2.58929e-07
-5.62354e-05
2.41381e-07
-5.64731e-05
2.38065e-07
-5.6922e-05
4.49289e-07
-5.73144e-05
3.92783e-07
-5.77702e-05
4.56258e-07
-5.81214e-05
3.52308e-07
-5.86196e-05
4.98804e-07
-5.91522e-05
5.33259e-07
4.4514e-07
-0.000170741
-1.04558e-06
-0.0001701
-9.59563e-07
-0.000169446
-9.60725e-07
-0.000168764
-9.64328e-07
-0.000167998
-8.95249e-07
-0.000167245
-9.27691e-07
-0.000166562
-9.9868e-07
-0.000165866
-1.02363e-06
-0.000165156
-1.03803e-06
-0.00016444
-1.02711e-06
-0.000163715
-1.01237e-06
-0.000162978
-1.02384e-06
-0.000162234
-1.02511e-06
-0.000161499
-1.00606e-06
-0.000160794
-1.05869e-06
-0.000160064
-1.03823e-06
-0.000159243
-9.38415e-07
-0.000158414
-9.67784e-07
-0.000157628
-1.02198e-06
-0.000156848
-9.99238e-07
-0.000156064
-1.02179e-06
-0.000155279
-1.03398e-06
-0.000154543
-1.06219e-06
-0.000153788
-1.07141e-06
-0.000152932
-9.61603e-07
-0.00015208
-9.73442e-07
-0.000151275
-1.03112e-06
-0.000150478
-1.00783e-06
-0.000149671
-1.03017e-06
-0.00014887
-1.01e-06
-0.000148066
-1.0181e-06
-0.000147262
-1.01199e-06
-0.000146461
-1.00605e-06
-0.000145654
-1.01578e-06
-0.000144856
-9.98049e-07
-0.000144058
-1.01661e-06
-0.000143318
-1.04419e-06
-0.000142566
-1.04789e-06
-0.00014171
-9.2692e-07
-0.000140907
-9.83103e-07
-0.000140108
-9.76226e-07
-0.000139312
-9.66158e-07
-0.000138515
-9.62374e-07
-0.000137679
-8.97866e-07
-0.000136957
-1.00721e-06
-0.000136241
-9.77667e-07
-0.000135472
-9.066e-07
-0.000134706
-8.96358e-07
-0.000133953
-8.70411e-07
-0.000133207
-8.53139e-07
-0.000132468
-8.37462e-07
-0.000131742
-8.10497e-07
-0.000131026
-7.87849e-07
-0.000130318
-7.71355e-07
-0.000129622
-7.44148e-07
-0.000128939
-7.18991e-07
-0.000128268
-6.89887e-07
-0.00012761
-6.6183e-07
-0.000126952
-6.32545e-07
-0.000126258
-5.71931e-07
-0.000125574
-5.78951e-07
-0.000124941
-6.01245e-07
-0.000124363
-6.61956e-07
-0.000123796
-6.37203e-07
-0.000123206
-5.45722e-07
-0.000122641
-5.08896e-07
-0.000122099
-4.71215e-07
-0.000121584
-4.34352e-07
-0.000121051
-3.61222e-07
-0.000120548
-3.32753e-07
-0.000120118
-3.31264e-07
-0.000119708
-2.96146e-07
-0.000119323
-2.76914e-07
-0.00011899
-2.73794e-07
-0.000118638
-2.20537e-07
-0.000118276
-1.75831e-07
-0.000117973
-1.70975e-07
-0.000117716
-1.70018e-07
-0.000117449
-1.30615e-07
-0.000117196
-1.18946e-07
-0.000116986
-1.10761e-07
-0.000116768
-7.54524e-08
-0.000116564
-6.39766e-08
-0.000116376
-4.67102e-08
-0.000116214
-1.11206e-08
-0.000116069
2.16385e-09
-0.000115936
6.64771e-09
-0.000115828
4.31763e-08
-0.00011572
5.15666e-08
-0.000115626
4.4698e-08
-0.000115581
8.40492e-08
-0.000115556
7.82335e-08
-0.000115548
9.64242e-08
-0.000115564
1.52872e-07
-0.000115581
1.44128e-07
-0.000115637
2.01182e-07
-0.000115712
1.82091e-07
-0.000115812
2.04485e-07
-0.000115944
2.37557e-07
-0.00011609
2.3198e-07
-0.000116286
3.10325e-07
-0.000116493
2.90985e-07
-0.000116755
3.85461e-07
-0.000117028
3.61125e-07
-0.000117358
4.58553e-07
-0.0001177
4.28016e-07
-0.000118098
5.19328e-07
-0.000118515
4.9369e-07
-0.000118998
6.09451e-07
-0.000119515
5.88109e-07
-0.000120094
7.41444e-07
-0.000120686
7.34494e-07
-0.000121373
8.7903e-07
-0.000122082
8.58468e-07
-0.000122888
1.04047e-06
-0.00012372
1.02849e-06
-0.000124647
1.19184e-06
-0.000125607
1.19834e-06
-0.000126666
1.31806e-06
-0.000127825
1.40076e-06
-0.000129046
1.45914e-06
-0.000130321
1.72408e-06
-0.00013165
1.72276e-06
-0.000133165
1.97164e-06
-0.000134758
1.94605e-06
-0.000136471
2.21161e-06
-0.000138296
2.35888e-06
2.42722e-06
-0.000227221
-1.8847e-06
-0.000226298
-1.88247e-06
-0.000225359
-1.89914e-06
-0.000224392
-1.93228e-06
-0.000223366
-1.92082e-06
-0.000222344
-1.95248e-06
-0.000221349
-1.99136e-06
-0.000220335
-2.03739e-06
-0.000219303
-2.06964e-06
-0.00021826
-2.07047e-06
-0.000217202
-2.07059e-06
-0.000216126
-2.09954e-06
-0.000215041
-2.11066e-06
-0.000213953
-2.09386e-06
-0.000212873
-2.13832e-06
-0.000211775
-2.13687e-06
-0.000210629
-2.08486e-06
-0.000209475
-2.12163e-06
-0.000208335
-2.1625e-06
-0.000207194
-2.13896e-06
-0.000206042
-2.17504e-06
-0.000204888
-2.18709e-06
-0.000203758
-2.1896e-06
-0.000202613
-2.21832e-06
-0.000201418
-2.15646e-06
-0.000200223
-2.16848e-06
-0.000199045
-2.20938e-06
-0.000197869
-2.18374e-06
-0.000196684
-2.2152e-06
-0.000195501
-2.19302e-06
-0.000194313
-2.20588e-06
-0.000193124
-2.2008e-06
-0.000191935
-2.1955e-06
-0.000190741
-2.2095e-06
-0.00018955
-2.18858e-06
-0.000188357
-2.20957e-06
-0.000187191
-2.20899e-06
-0.000186016
-2.22439e-06
-0.000184795
-2.14874e-06
-0.000183597
-2.18008e-06
-0.000182402
-2.1704e-06
-0.00018121
-2.15818e-06
-0.000180019
-2.15363e-06
-0.000178813
-2.10301e-06
-0.000177659
-2.16121e-06
-0.000176512
-2.12483e-06
-0.000175345
-2.07409e-06
-0.000174183
-2.0581e-06
-0.000173032
-2.02094e-06
-0.00017189
-1.995e-06
-0.000170758
-1.97002e-06
-0.000169639
-1.9295e-06
-0.000168531
-1.89545e-06
-0.000167434
-1.86833e-06
-0.000166352
-1.82539e-06
-0.000165287
-1.78469e-06
-0.000164236
-1.73986e-06
-0.000163202
-1.69717e-06
-0.000162175
-1.65741e-06
-0.000161145
-1.60372e-06
-0.000160127
-1.60039e-06
-0.000159136
-1.5884e-06
-0.000158181
-1.61749e-06
-0.00015725
-1.56801e-06
-0.000156335
-1.46095e-06
-0.000155455
-1.38904e-06
-0.00015461
-1.31468e-06
-0.000153804
-1.24116e-06
-0.00015302
-1.14594e-06
-0.000152274
-1.078e-06
-0.000151585
-1.02144e-06
-0.000150929
-9.51591e-07
-0.000150306
-9.00937e-07
-0.000149725
-8.53582e-07
-0.00014916
-7.84629e-07
-0.000148615
-7.20932e-07
-0.000148118
-6.6858e-07
-0.000147659
-6.28432e-07
-0.000147214
-5.76005e-07
-0.000146793
-5.40096e-07
-0.000146411
-4.92005e-07
-0.000146045
-4.41486e-07
-0.000145703
-4.06266e-07
-0.000145389
-3.6064e-07
-0.000145108
-2.92547e-07
-0.00014485
-2.55065e-07
-0.000144615
-2.28145e-07
-0.000144412
-1.59829e-07
-0.000144228
-1.33393e-07
-0.000144066
-1.16199e-07
-0.000143951
-3.14727e-08
-0.000143864
-8.80675e-09
-0.000143804
3.67943e-08
-0.000143781
1.29686e-07
-0.000143778
1.41405e-07
-0.000143818
2.40877e-07
-0.000143888
2.52195e-07
-0.000143992
3.08648e-07
-0.00014414
3.85652e-07
-0.000144318
4.1007e-07
-0.000144551
5.43566e-07
-0.000144816
5.55533e-07
-0.000145138
7.08032e-07
-0.000145495
7.17834e-07
-0.000145911
8.7514e-07
-0.000146366
8.82198e-07
-0.000146881
1.03514e-06
-0.000147442
1.05419e-06
-0.000148072
1.23986e-06
-0.000148757
1.27332e-06
-0.000149516
1.50055e-06
-0.000150322
1.54079e-06
-0.000151219
1.77558e-06
-0.000152169
1.80881e-06
-0.00015322
2.09152e-06
-0.000154325
2.13408e-06
-0.000155538
2.40468e-06
-0.00015681
2.47028e-06
-0.000158207
2.71556e-06
-0.0001597
2.89387e-06
-0.0001613
3.05859e-06
-0.000162998
3.42284e-06
-0.000164793
3.51752e-06
-0.00016676
3.93876e-06
-0.000168825
4.01123e-06
-0.000171073
4.45923e-06
-0.000173444
4.73058e-06
4.99372e-06
-0.000268125
-2.97939e-06
-0.000266992
-3.01566e-06
-0.000265843
-3.04776e-06
-0.000264671
-3.10526e-06
-0.000263466
-3.12667e-06
-0.000262252
-3.16916e-06
-0.000261031
-3.20985e-06
-0.000259791
-3.27778e-06
-0.000258533
-3.32787e-06
-0.000257263
-3.34072e-06
-0.000255976
-3.35713e-06
-0.000254672
-3.40334e-06
-0.000253358
-3.42505e-06
-0.000252036
-3.41605e-06
-0.000250706
-3.46817e-06
-0.000249365
-3.47795e-06
-0.000248007
-3.44325e-06
-0.000246637
-3.49133e-06
-0.000245265
-3.53542e-06
-0.000243888
-3.51542e-06
-0.000242497
-3.5656e-06
-0.0002411
-3.58312e-06
-0.000239708
-3.57981e-06
-0.000238309
-3.61897e-06
-0.000236892
-3.57323e-06
-0.000235471
-3.59049e-06
-0.000234048
-3.63225e-06
-0.000232625
-3.60723e-06
-0.000231192
-3.6477e-06
-0.00022976
-3.6256e-06
-0.000228322
-3.644e-06
-0.000226881
-3.64152e-06
-0.000225438
-3.63855e-06
-0.00022399
-3.65703e-06
-0.000222543
-3.63509e-06
-0.000221091
-3.66076e-06
-0.000219647
-3.65134e-06
-0.0002182
-3.6724e-06
-0.000216741
-3.60871e-06
-0.000215287
-3.63333e-06
-0.000213835
-3.62181e-06
-0.000212386
-3.60705e-06
-0.00021094
-3.59976e-06
-0.000209492
-3.55031e-06
-0.000208061
-3.59265e-06
-0.000206638
-3.54703e-06
-0.000205215
-3.49673e-06
-0.000203799
-3.4737e-06
-0.000202396
-3.42433e-06
-0.000201002
-3.38858e-06
-0.00019962
-3.35241e-06
-0.000198253
-3.29669e-06
-0.000196899
-3.24938e-06
-0.000195558
-3.20911e-06
-0.000194235
-3.14784e-06
-0.000192931
-3.08872e-06
-0.000191646
-3.02531e-06
-0.000190379
-2.96473e-06
-0.000189127
-2.90904e-06
-0.000187888
-2.84343e-06
-0.000186664
-2.82729e-06
-0.000185456
-2.79459e-06
-0.000184273
-2.79954e-06
-0.000183124
-2.71712e-06
-0.000182012
-2.57257e-06
-0.000180943
-2.45784e-06
-0.000179919
-2.33861e-06
-0.000178942
-2.21876e-06
-0.000178008
-2.08138e-06
-0.000177118
-1.96791e-06
-0.00017628
-1.86084e-06
-0.000175481
-1.74951e-06
-0.000174721
-1.66114e-06
-0.000174002
-1.57224e-06
-0.000173317
-1.46913e-06
-0.000172668
-1.3704e-06
-0.000172061
-1.27499e-06
-0.000171493
-1.19673e-06
-0.000170953
-1.11584e-06
-0.000170443
-1.04926e-06
-0.000169972
-9.62716e-07
-0.000169531
-8.83102e-07
-0.000169118
-8.18737e-07
-0.00016874
-7.38629e-07
-0.0001684
-6.32317e-07
-0.00016809
-5.65513e-07
-0.000167808
-5.10341e-07
-0.000167564
-4.03802e-07
-0.000167348
-3.49757e-07
-0.000167161
-3.02639e-07
-0.000167022
-1.70854e-07
-0.000166915
-1.15851e-07
-0.000166842
-3.5572e-08
-0.000166816
1.02929e-07
-0.000166819
1.44889e-07
-0.00016687
2.91994e-07
-0.000166958
3.3995e-07
-0.000167087
4.37536e-07
-0.000167268
5.66634e-07
-0.000167487
6.29477e-07
-0.000167769
8.254e-07
-0.000168092
8.78304e-07
-0.00016848
1.0957e-06
-0.000168912
1.15068e-06
-0.000169412
1.37497e-06
-0.000169962
1.43219e-06
-0.000170582
1.65465e-06
-0.000171259
1.73174e-06
-0.000172014
1.99477e-06
-0.000172834
2.09395e-06
-0.000173741
2.40717e-06
-0.000174713
2.51242e-06
-0.00017578
2.84258e-06
-0.000176917
2.94559e-06
-0.000178166
3.34087e-06
-0.000179486
3.45474e-06
-0.000180929
3.84784e-06
-0.000182446
3.98642e-06
-0.000184105
4.37563e-06
-0.000185863
4.65137e-06
-0.000187753
4.94926e-06
-0.000189773
5.44309e-06
-0.000191912
5.6565e-06
-0.000194231
6.25729e-06
-0.00019666
6.44094e-06
-0.000199314
7.11305e-06
-0.000202107
7.52418e-06
8.01559e-06
-0.000306787
-4.26836e-06
-0.000305472
-4.3308e-06
-0.00030414
-4.38024e-06
-0.000302783
-4.46206e-06
-0.000301399
-4.51e-06
-0.000300002
-4.56759e-06
-0.000298589
-4.62151e-06
-0.000297155
-4.71156e-06
-0.000295704
-4.77973e-06
-0.000294239
-4.80549e-06
-0.000292756
-4.8395e-06
-0.000291257
-4.90316e-06
-0.000289746
-4.93615e-06
-0.000288224
-4.93743e-06
-0.00028669
-5.00261e-06
-0.000285145
-5.02331e-06
-0.000283589
-4.99929e-06
-0.00028202
-5.05991e-06
-0.000280444
-5.11165e-06
-0.000278861
-5.09826e-06
-0.000277264
-5.16307e-06
-0.000275658
-5.18797e-06
-0.000274051
-5.18602e-06
-0.000272435
-5.2365e-06
-0.00027081
-5.19745e-06
-0.000269179
-5.22167e-06
-0.000267542
-5.26913e-06
-0.000265902
-5.24688e-06
-0.000264253
-5.29688e-06
-0.000262603
-5.27637e-06
-0.000260945
-5.30112e-06
-0.000259285
-5.3023e-06
-0.00025762
-5.30296e-06
-0.00025595
-5.3268e-06
-0.00025428
-5.30514e-06
-0.000252605
-5.33611e-06
-0.000250932
-5.32362e-06
-0.000249256
-5.34879e-06
-0.000247577
-5.288e-06
-0.000245899
-5.31108e-06
-0.000244223
-5.29771e-06
-0.00024255
-5.28058e-06
-0.000240879
-5.27015e-06
-0.000239212
-5.21741e-06
-0.000237552
-5.25222e-06
-0.000235902
-5.19735e-06
-0.000234257
-5.14206e-06
-0.00023262
-5.11009e-06
-0.000230997
-5.04743e-06
-0.000229385
-5.00037e-06
-0.000227786
-4.95128e-06
-0.000226205
-4.87839e-06
-0.000224638
-4.81583e-06
-0.000223087
-4.76009e-06
-0.000221557
-4.6777e-06
-0.000220049
-4.59733e-06
-0.000218561
-4.5122e-06
-0.000217096
-4.43023e-06
-0.000215649
-4.35547e-06
-0.000214223
-4.2699e-06
-0.000212815
-4.23691e-06
-0.000211424
-4.18383e-06
-0.000210062
-4.16194e-06
-0.000208738
-4.04058e-06
-0.000207463
-3.8478e-06
-0.000206239
-3.68221e-06
-0.000205066
-3.51022e-06
-0.000203949
-3.33623e-06
-0.000202884
-3.14668e-06
-0.000201871
-2.98049e-06
-0.000200914
-2.81856e-06
-0.000200003
-2.65948e-06
-0.000199139
-2.52634e-06
-0.000198319
-2.39159e-06
-0.000197541
-2.24635e-06
-0.000196808
-2.1042e-06
-0.000196121
-1.96129e-06
-0.000195477
-1.84115e-06
-0.000194868
-1.72448e-06
-0.000194297
-1.62095e-06
-0.000193768
-1.49175e-06
-0.000193275
-1.37581e-06
-0.000192817
-1.27676e-06
-0.000192399
-1.15633e-06
-0.000192025
-1.006e-06
-0.000191686
-9.04308e-07
-0.000191382
-8.15084e-07
-0.000191121
-6.64587e-07
-0.000190894
-5.76711e-07
-0.000190703
-4.93599e-07
-0.000190565
-3.09199e-07
-0.000190463
-2.17062e-07
-0.000190402
-9.59939e-08
-0.000190395
9.53113e-08
-0.000190424
1.74078e-07
-0.000190508
3.75672e-07
-0.000190635
4.66909e-07
-0.00019081
6.1268e-07
-0.000191044
8.0145e-07
-0.000191325
9.09878e-07
-0.000191675
1.17602e-06
-0.000192075
1.27745e-06
-0.000192547
1.56772e-06
-0.000193072
1.67638e-06
-0.000193674
1.97641e-06
-0.000194335
2.09338e-06
-0.000195075
2.39459e-06
-0.000195883
2.54014e-06
-0.000196778
2.88977e-06
-0.000197748
3.06477e-06
-0.000198817
3.4755e-06
-0.000199964
3.65933e-06
-0.000201216
4.09519e-06
-0.000202551
4.28058e-06
-0.000204012
4.80186e-06
-0.000205557
4.99956e-06
-0.000207242
5.53295e-06
-0.00020901
5.75517e-06
-0.000210943
6.30792e-06
-0.000212981
6.68979e-06
-0.000215174
7.1424e-06
-0.000217514
7.78307e-06
-0.000219993
8.13582e-06
-0.000222671
8.93564e-06
-0.000225477
9.24609e-06
-0.00022854
1.01767e-05
-0.000231777
1.0761e-05
1.15055e-05
-0.000346308
-5.73428e-06
-0.000344817
-5.82238e-06
-0.000343304
-5.89293e-06
-0.000341766
-6.00048e-06
-0.000340202
-6.0747e-06
-0.000338621
-6.14979e-06
-0.000337022
-6.2197e-06
-0.000335401
-6.3324e-06
-0.000333762
-6.41954e-06
-0.000332108
-6.45944e-06
-0.000330435
-6.51242e-06
-0.000328744
-6.59415e-06
-0.000327041
-6.63935e-06
-0.000325325
-6.65278e-06
-0.000323594
-6.73347e-06
-0.000321851
-6.76666e-06
-0.000320097
-6.75379e-06
-0.000318329
-6.82777e-06
-0.000316552
-6.88867e-06
-0.000314766
-6.88376e-06
-0.000312965
-6.96413e-06
-0.000311155
-6.99744e-06
-0.00030934
-6.99978e-06
-0.000307514
-7.06389e-06
-0.000305679
-7.03254e-06
-0.000303837
-7.06357e-06
-0.000301988
-7.11824e-06
-0.000300135
-7.10012e-06
-0.000298272
-7.16039e-06
-0.000296406
-7.14257e-06
-0.000294532
-7.17454e-06
-0.000292654
-7.18021e-06
-0.000290772
-7.18542e-06
-0.000288883
-7.21516e-06
-0.000286993
-7.19449e-06
-0.000285098
-7.23116e-06
-0.000283203
-7.21739e-06
-0.000281305
-7.24761e-06
-0.000279405
-7.18784e-06
-0.000277506
-7.21009e-06
-0.000275608
-7.19525e-06
-0.000273713
-7.17587e-06
-0.000271821
-7.16218e-06
-0.000269934
-7.10422e-06
-0.000268053
-7.13224e-06
-0.000266183
-7.06758e-06
-0.000264319
-7.00569e-06
-0.000262465
-6.96386e-06
-0.000260626
-6.88631e-06
-0.000258799
-6.82672e-06
-0.000256988
-6.76274e-06
-0.000255196
-6.67059e-06
-0.000253421
-6.59054e-06
-0.000251664
-6.51683e-06
-0.000249931
-6.41051e-06
-0.000248223
-6.30571e-06
-0.00024654
-6.1956e-06
-0.000244882
-6.0887e-06
-0.000243246
-5.99102e-06
-0.000241636
-5.88086e-06
-0.000240049
-5.82546e-06
-0.000238485
-5.74665e-06
-0.000236954
-5.69193e-06
-0.00023547
-5.52457e-06
-0.000234042
-5.27537e-06
-0.000232673
-5.0511e-06
-0.000231365
-4.81859e-06
-0.000230119
-4.58273e-06
-0.000228933
-4.33344e-06
-0.000227807
-4.10672e-06
-0.000226744
-3.8822e-06
-0.000225735
-3.66829e-06
-0.000224779
-3.48287e-06
-0.000223874
-3.29586e-06
-0.000223018
-3.10193e-06
-0.000222213
-2.9094e-06
-0.000221462
-2.71231e-06
-0.000220758
-2.54423e-06
-0.000220097
-2.38594e-06
-0.000219479
-2.23903e-06
-0.000218909
-2.06086e-06
-0.000218382
-1.90289e-06
-0.000217896
-1.76317e-06
-0.000217456
-1.59644e-06
-0.000217065
-1.39628e-06
-0.000216715
-1.25415e-06
-0.000216406
-1.12489e-06
-0.000216146
-9.24262e-07
-0.000215926
-7.96574e-07
-0.000215749
-6.71104e-07
-0.000215631
-4.2761e-07
-0.000215555
-2.92825e-07
-0.000215526
-1.24732e-07
-0.000215556
1.25794e-07
-0.00021563
2.47586e-07
-0.000215765
5.10827e-07
-0.000215951
6.5262e-07
-0.000216192
8.53773e-07
-0.0002165
1.11011e-06
-0.000216861
1.2707e-06
-0.0002173
1.61523e-06
-0.000217795
1.77204e-06
-0.000218371
2.14361e-06
-0.000219008
2.31383e-06
-0.00021973
2.69855e-06
-0.000220522
2.88461e-06
-0.000221401
3.27422e-06
-0.00022236
3.49888e-06
-0.000223415
3.94546e-06
-0.000224558
4.2077e-06
-0.000225809
4.72595e-06
-0.00022715
4.99996e-06
-0.000228608
5.55373e-06
-0.00023016
5.83293e-06
-0.000231852
6.49373e-06
-0.000233638
6.78507e-06
-0.000235582
7.47709e-06
-0.00023762
7.79407e-06
-0.000239845
8.53228e-06
-0.000242186
9.03088e-06
-0.000244702
9.65854e-06
-0.00024738
1.04612e-05
-0.000250216
1.09726e-05
-0.000253274
1.19937e-05
-0.000256482
1.24545e-05
-0.000259995
1.36895e-05
-0.000263676
1.44422e-05
1.54734e-05
-0.000388001
-7.37742e-06
-0.00038633
-7.49329e-06
-0.000384636
-7.5874e-06
-0.000382914
-7.7223e-06
-0.000381164
-7.82398e-06
-0.000379396
-7.91868e-06
-0.000377607
-8.00791e-06
-0.000375795
-8.14416e-06
-0.000373964
-8.25124e-06
-0.000372116
-8.30684e-06
-0.000370248
-8.38055e-06
-0.000368361
-8.48149e-06
-0.00036646
-8.54044e-06
-0.000364545
-8.56802e-06
-0.000362612
-8.66593e-06
-0.000360666
-8.71303e-06
-0.000358707
-8.71285e-06
-0.000356733
-8.80169e-06
-0.000354749
-8.87288e-06
-0.000352754
-8.87869e-06
-0.000350742
-8.97593e-06
-0.00034872
-9.01942e-06
-0.000346691
-9.02857e-06
-0.000344649
-9.10643e-06
-0.000342597
-9.08387e-06
-0.000340536
-9.12481e-06
-0.000338468
-9.18639e-06
-0.000336394
-9.17405e-06
-0.000334308
-9.24562e-06
-0.000332219
-9.23176e-06
-0.000330122
-9.27199e-06
-0.000328019
-9.28325e-06
-0.00032591
-9.29376e-06
-0.000323795
-9.33031e-06
-0.000321678
-9.31139e-06
-0.000319555
-9.35442e-06
-0.000317432
-9.34049e-06
-0.000315304
-9.37599e-06
-0.000313174
-9.31719e-06
-0.000311046
-9.33886e-06
-0.000308919
-9.32198e-06
-0.000306794
-9.30051e-06
-0.000304673
-9.28327e-06
-0.000302558
-9.21941e-06
-0.00030045
-9.24029e-06
-0.000298352
-9.16519e-06
-0.000296262
-9.09571e-06
-0.000294183
-9.04247e-06
-0.000292121
-8.94851e-06
-0.000290073
-8.87451e-06
-0.000288042
-8.79365e-06
-0.000286033
-8.67976e-06
-0.000284044
-8.57966e-06
-0.000282076
-8.48508e-06
-0.000280135
-8.35151e-06
-0.000278222
-8.21871e-06
-0.000276337
-8.07958e-06
-0.000274483
-7.94315e-06
-0.000272655
-7.81813e-06
-0.000270859
-7.67724e-06
-0.000269092
-7.59331e-06
-0.000267355
-7.48291e-06
-0.000265659
-7.38775e-06
-0.000264018
-7.16615e-06
-0.000262442
-6.85126e-06
-0.000260934
-6.55919e-06
-0.000259495
-6.25711e-06
-0.000258127
-5.95061e-06
-0.000256827
-5.63316e-06
-0.000255596
-5.33792e-06
-0.000254435
-5.04271e-06
-0.000253337
-4.76664e-06
-0.000252299
-4.5212e-06
-0.000251319
-4.27483e-06
-0.000250396
-4.02509e-06
-0.000249531
-3.77444e-06
-0.000248727
-3.51612e-06
-0.000247978
-3.2939e-06
-0.000247276
-3.08756e-06
-0.000246625
-2.89037e-06
-0.000246029
-2.65631e-06
-0.000245482
-2.4499e-06
-0.000244982
-2.26341e-06
-0.000244534
-2.0439e-06
-0.000244143
-1.78794e-06
-0.000243797
-1.59958e-06
-0.000243498
-1.42389e-06
-0.000243256
-1.16625e-06
-0.00024306
-9.92483e-07
-0.000242913
-8.18164e-07
-0.000242832
-5.08959e-07
-0.000242798
-3.26164e-07
-0.000242818
-1.04689e-07
-0.000242904
2.12107e-07
-0.00024304
3.83111e-07
-0.000243245
7.1582e-07
-0.000243508
9.15513e-07
-0.000243833
1.17972e-06
-0.000244235
1.51167e-06
-0.000244695
1.73084e-06
-0.000245242
2.16194e-06
-0.000245851
2.38097e-06
-0.00024655
2.84257e-06
-0.000247318
3.08196e-06
-0.00024818
3.5612e-06
-0.000249123
3.82693e-06
-0.000250164
4.31603e-06
-0.000251296
4.63053e-06
-0.000252535
5.18427e-06
-0.000253871
5.54443e-06
-0.000255326
6.181e-06
-0.00025688
6.55411e-06
-0.000258564
7.23804e-06
-0.000260353
7.62182e-06
-0.000262296
8.43686e-06
-0.000264343
8.83236e-06
-0.000266568
9.70164e-06
-0.000268898
1.01246e-05
-0.000271438
1.10716e-05
-0.000274104
1.16969e-05
-0.000276966
1.25207e-05
-0.000280004
1.34999e-05
-0.000283222
1.41909e-05
-0.000286704
1.54757e-05
-0.000290334
1.60843e-05
-0.000294298
1.76536e-05
-0.000298441
1.85856e-05
-0.000432653
-9.20523e-06
-0.000430796
-9.35058e-06
-0.000428912
-9.47113e-06
-0.000426999
-9.63579e-06
-0.000425057
-9.76677e-06
-0.000423093
-9.88347e-06
-0.000421107
-9.99369e-06
-0.000419096
-1.01549e-05
-0.000417064
-1.02834e-05
-0.000415014
-1.03566e-05
-0.000412941
-1.04531e-05
-0.000410848
-1.05747e-05
-0.000408739
-1.06493e-05
-0.000406614
-1.06932e-05
-0.00040447
-1.08102e-05
-0.00040231
-1.08729e-05
-0.000400136
-1.08874e-05
-0.000397945
-1.09928e-05
-0.000395742
-1.10757e-05
-0.000393526
-1.10941e-05
-0.000391293
-1.12095e-05
-0.000389047
-1.12647e-05
-0.000386792
-1.12829e-05
-0.000384523
-1.13762e-05
-0.000382243
-1.1364e-05
-0.000379951
-1.14168e-05
-0.00037765
-1.14873e-05
-0.000375343
-1.14811e-05
-0.000373024
-1.15652e-05
-0.000370699
-1.15565e-05
-0.000368365
-1.16061e-05
-0.000366024
-1.1624e-05
-0.000363677
-1.16407e-05
-0.000361322
-1.16849e-05
-0.000358965
-1.16682e-05
-0.000356601
-1.17183e-05
-0.000354236
-1.17044e-05
-0.000351866
-1.17462e-05
-0.000349495
-1.16888e-05
-0.000347122
-1.17109e-05
-0.000344753
-1.16913e-05
-0.000342386
-1.16674e-05
-0.000340023
-1.16461e-05
-0.000337667
-1.15758e-05
-0.000335318
-1.15889e-05
-0.000332981
-1.15019e-05
-0.000330652
-1.1424e-05
-0.000328336
-1.13581e-05
-0.000326039
-1.1246e-05
-0.000323757
-1.1156e-05
-0.000321495
-1.10557e-05
-0.000319257
-1.09173e-05
-0.000317043
-1.07943e-05
-0.000314852
-1.06756e-05
-0.000312693
-1.0511e-05
-0.000310566
-1.03461e-05
-0.000308472
-1.01735e-05
-0.000306413
-1.00024e-05
-0.000304387
-9.84406e-06
-0.000302399
-9.66588e-06
-0.000300448
-9.54541e-06
-0.000298535
-9.39447e-06
-0.000296673
-9.24931e-06
-0.000294876
-8.96303e-06
-0.000293155
-8.57212e-06
-0.000291512
-8.20268e-06
-0.000289947
-7.82147e-06
-0.000288463
-7.43502e-06
-0.000287056
-7.04072e-06
-0.000285727
-6.66799e-06
-0.000284477
-6.29286e-06
-0.000283297
-5.94617e-06
-0.000282186
-5.63212e-06
-0.000281143
-5.31823e-06
-0.000280162
-5.00487e-06
-0.000279248
-4.68863e-06
-0.000278403
-4.36154e-06
-0.000277619
-4.0782e-06
-0.000276889
-3.81685e-06
-0.000276217
-3.56199e-06
-0.000275609
-3.2646e-06
-0.000275055
-3.00319e-06
-0.000274555
-2.76345e-06
-0.000274114
-2.4848e-06
-0.000273736
-2.16664e-06
-0.000273409
-1.92613e-06
-0.000273136
-1.69723e-06
-0.000272927
-1.37543e-06
-0.000272771
-1.14881e-06
-0.00027267
-9.18743e-07
-0.000272642
-5.36872e-07
-0.000272668
-3.00291e-07
-0.000272754
-1.87892e-08
-0.000272913
3.71247e-07
-0.000273128
5.97959e-07
-0.00027342
1.00832e-06
-0.000273778
1.27368e-06
-0.000274208
1.60916e-06
-0.000274721
2.02493e-06
-0.000275299
2.30921e-06
-0.000275973
2.83537e-06
-0.000276715
3.12335e-06
-0.000277558
3.68502e-06
-0.000278479
4.00302e-06
-0.000279504
4.58662e-06
-0.000280619
4.94235e-06
-0.000281846
5.54278e-06
-0.000283173
5.9573e-06
-0.000284616
6.62792e-06
-0.000286167
7.09551e-06
-0.000287848
7.86126e-06
-0.000289637
8.34348e-06
-0.000291569
9.17003e-06
-0.000293616
9.669e-06
-0.000295832
1.06533e-05
-0.000298163
1.11632e-05
-0.00030069
1.22287e-05
-0.000303333
1.27674e-05
-0.000306207
1.39461e-05
-0.000309217
1.47068e-05
-0.000312444
1.5748e-05
-0.000315882
1.69372e-05
-0.000319507
1.78166e-05
-0.000323409
1.93778e-05
-0.00032747
2.01456e-05
-0.000331897
2.20804e-05
2.31983e-05
-0.000480875
-1.12262e-05
-0.000478823
-1.14028e-05
-0.000476741
-1.15527e-05
-0.000474628
-1.17496e-05
-0.000472482
-1.19117e-05
-0.000470313
-1.20529e-05
-0.000468119
-1.21874e-05
-0.000465898
-1.23755e-05
-0.000463655
-1.25272e-05
-0.000461391
-1.26203e-05
-0.000459102
-1.27418e-05
-0.000456791
-1.28862e-05
-0.000454462
-1.29784e-05
-0.000452114
-1.30414e-05
-0.000449744
-1.31795e-05
-0.000447358
-1.32594e-05
-0.000444955
-1.32906e-05
-0.000442533
-1.34148e-05
-0.000440097
-1.35111e-05
-0.000437647
-1.35443e-05
-0.000435177
-1.36794e-05
-0.000432693
-1.37484e-05
-0.000430198
-1.3778e-05
-0.000427687
-1.38876e-05
-0.000425164
-1.38871e-05
-0.000422627
-1.39532e-05
-0.000420078
-1.40362e-05
-0.000417523
-1.40364e-05
-0.000414954
-1.41345e-05
-0.000412377
-1.41325e-05
-0.000409791
-1.41928e-05
-0.000407196
-1.42187e-05
-0.000404594
-1.42426e-05
-0.000401983
-1.42956e-05
-0.00039937
-1.42819e-05
-0.000396748
-1.43401e-05
-0.000394126
-1.43268e-05
-0.000391497
-1.43748e-05
-0.000388868
-1.43185e-05
-0.000386236
-1.43422e-05
-0.000383607
-1.432e-05
-0.000380981
-1.42934e-05
-0.00037836
-1.42671e-05
-0.000375746
-1.41895e-05
-0.000373141
-1.41947e-05
-0.000370548
-1.40946e-05
-0.000367965
-1.40072e-05
-0.000365396
-1.3927e-05
-0.000362848
-1.37946e-05
-0.000360317
-1.36863e-05
-0.000357809
-1.35642e-05
-0.000355328
-1.3398e-05
-0.000352874
-1.32486e-05
-0.000350447
-1.31019e-05
-0.000348056
-1.29016e-05
-0.000345703
-1.26998e-05
-0.000343388
-1.24881e-05
-0.000341114
-1.2276e-05
-0.000338881
-1.20774e-05
-0.000336694
-1.18528e-05
-0.000334553
-1.16861e-05
-0.000332463
-1.14846e-05
-0.000330434
-1.12778e-05
-0.000328483
-1.09146e-05
-0.00032662
-1.04353e-05
-0.000324845
-9.97736e-06
-0.00032316
-9.50608e-06
-0.000321566
-9.02907e-06
-0.000320058
-8.54807e-06
-0.000318638
-8.08849e-06
-0.000317306
-7.62417e-06
-0.000316054
-7.19819e-06
-0.00031488
-6.80647e-06
-0.000313781
-6.41651e-06
-0.000312755
-6.03097e-06
-0.000311803
-5.64069e-06
-0.000310928
-5.23728e-06
-0.00031012
-4.88573e-06
-0.000309375
-4.56203e-06
-0.000308695
-4.24165e-06
-0.000308087
-3.87287e-06
-0.000307541
-3.54906e-06
-0.000307055
-3.24932e-06
-0.000306635
-2.9047e-06
-0.000306284
-2.51784e-06
-0.000305991
-2.21874e-06
-0.000305759
-1.9296e-06
-0.000305598
-1.53575e-06
-0.000305498
-1.24903e-06
-0.000305461
-9.55889e-07
-0.000305504
-4.94135e-07
-0.000305606
-1.98221e-07
-0.000305775
1.50386e-07
-0.000306024
6.21076e-07
-0.000306336
9.09991e-07
-0.000306734
1.40646e-06
-0.000307206
1.74564e-06
-0.000307759
2.16144e-06
-0.000308403
2.66979e-06
-0.000309121
3.02684e-06
-0.000309943
3.6575e-06
-0.000310842
4.02221e-06
-0.00031185
4.69337e-06
-0.000312946
5.09908e-06
-0.000314157
5.79748e-06
-0.000315466
6.25125e-06
-0.000316897
6.97366e-06
-0.000318437
7.49766e-06
-0.000320104
8.29517e-06
-0.000321889
8.87998e-06
-0.000323813
9.78569e-06
-0.000325856
1.0387e-05
-0.000328054
1.13681e-05
-0.000330378
1.19923e-05
-0.000332884
1.31599e-05
-0.000335514
1.37935e-05
-0.000338358
1.50728e-05
-0.000341325
1.57339e-05
-0.000344544
1.71656e-05
-0.000347919
1.80823e-05
-0.000351536
1.93643e-05
-0.000355359
2.07604e-05
-0.000359384
2.1842e-05
-0.000363703
2.36962e-05
-0.000368188
2.46311e-05
-0.000373066
2.69585e-05
2.8262e-05
-0.00053323
-1.34503e-05
-0.000530972
-1.36607e-05
-0.000528681
-1.38434e-05
-0.000526356
-1.40757e-05
-0.000523996
-1.42714e-05
-0.00052161