/*--------------------------------*- C++ -*----------------------------------*\
  =========                 |
  \\      /  F ield         | OpenFOAM: The Open Source CFD Toolbox
   \\    /   O peration     | Website:  https://openfoam.org
    \\  /    A nd           | Version:  10
     \\/     M anipulation  |
\*---------------------------------------------------------------------------*/
FoamFile
{
    format      ascii;
    class       volVectorField;
    location    "0.002";
    object      U;
}
// * * * * * * * * * * * * * * * * * * * * * * * * * * * * * * * * * * * * * //

dimensions      [0 1 -1 0 0 0 0];

internalField   nonuniform List<vector> 
8918
(
(3.83955 0.574764 5.41576e-15)
(3.83208 0.571043 -2.70332e-15)
(3.8238 0.567199 2.67279e-15)
(3.81595 0.563065 -4.12796e-17)
(3.81117 0.559267 -2.53754e-15)
(3.82625 0.558501 -5.20031e-15)
(3.81556 0.553777 2.50838e-15)
(3.80654 0.549209 3.93684e-17)
(3.79784 0.544815 3.90114e-17)
(3.78997 0.540538 -2.51094e-15)
(3.78373 0.53628 -4.86429e-15)
(3.77868 0.532201 0)
(3.77401 0.528275 0)
(3.77018 0.524257 0)
(3.7659 0.520005 -4.66676e-15)
(3.75052 0.51459 2.33594e-15)
(3.75429 0.512053 2.2618e-15)
(3.76889 0.510439 0)
(3.76851 0.506691 0)
(3.76926 0.503308 3.37221e-17)
(3.77055 0.499891 -6.64568e-17)
(3.77104 0.496537 -4.20323e-15)
(3.77026 0.492728 3.22066e-17)
(3.75716 0.487454 4.12036e-15)
(3.7636 0.484976 -3.14705e-17)
(3.78211 0.483426 -3.96345e-15)
(3.78465 0.479592 3.91706e-15)
(3.78826 0.475904 0)
(3.79273 0.472197 3.75581e-15)
(3.7972 0.468563 0)
(3.80263 0.464822 0)
(3.8083 0.461197 0)
(3.81462 0.457442 -3.5004e-15)
(3.82147 0.453771 6.93718e-15)
(3.82858 0.449998 -3.40412e-15)
(3.8362 0.446148 -2.60296e-17)
(3.84248 0.441974 -3.20719e-15)
(3.83396 0.436186 -2.52354e-17)
(3.84681 0.432929 -2.46428e-17)
(3.87411 0.430715 1.19739e-22)
(3.86819 0.424943 -3.0136e-15)
(3.8976 0.422747 -2.31943e-17)
(3.89347 0.41696 2.94659e-15)
(3.92577 0.414823 -2.84852e-15)
(3.93814 0.410155 0)
(3.93424 0.404044 -2.14721e-17)
(3.9519 0.399904 -2.69624e-15)
(3.97016 0.395592 2.06034e-17)
(3.98967 0.391212 4.02924e-17)
(4.01078 0.386685 4.97383e-15)
(4.03314 0.382077 3.85805e-17)
(4.05697 0.377348 0)
(4.08259 0.372421 0)
(4.10977 0.367343 -3.60322e-17)
(4.13843 0.362051 3.51382e-17)
(4.16889 0.356483 0)
(4.20129 0.350659 4.28713e-15)
(4.23571 0.344475 -3.2683e-17)
(4.27245 0.337975 4.11193e-15)
(4.31243 0.331245 4.00545e-15)
(4.37094 0.324926 -3.00613e-17)
(4.41062 0.316571 -2.92983e-17)
(4.45012 0.30744 3.65348e-15)
(4.47227 0.29652 -3.55334e-15)
(4.51473 0.285877 1.76999e-15)
(4.55874 0.274487 -2.77391e-17)
(4.60374 0.262591 2.78228e-17)
(4.64997 0.250095 -1.786e-15)
(4.69824 0.237028 -3.55485e-15)
(4.76232 0.223837 1.78696e-15)
(4.81024 0.20919 1.76435e-15)
(4.8594 0.193802 0)
(4.90897 0.177719 -2.8189e-17)
(4.9584 0.160878 -8.76878e-16)
(4.99562 0.143378 -9.12775e-16)
(5.06028 0.125375 -4.5587e-16)
(5.11066 0.106056 4.57564e-16)
(5.16121 0.0856837 -1.43544e-17)
(5.20148 0.0649665 2.89415e-17)
(5.26404 0.0440869 -1.44727e-17)
(5.30438 0.0219811 0)
(5.35619 -0.00114087 1.31856e-16)
(5.40711 -0.0245728 2.20767e-16)
(5.45783 -0.0491895 1.47872e-17)
(5.50868 -0.074496 -1.48592e-17)
(5.55961 -0.100655 -9.36909e-23)
(5.6101 -0.127241 -4.80411e-16)
(5.66041 -0.154677 9.81085e-16)
(5.71061 -0.18317 -1.51788e-17)
(5.76376 -0.212157 9.75648e-16)
(5.8104 -0.241781 1.96371e-15)
(5.85679 -0.272511 0)
(5.89848 -0.303133 2.03027e-22)
(5.94497 -0.335099 0)
(5.99119 -0.367771 0)
(6.03941 -0.401192 2.05695e-22)
(6.0835 -0.43551 1.04146e-15)
(6.12571 -0.469957 2.0695e-15)
(6.16673 -0.505536 -1.05885e-15)
(6.20671 -0.541544 1.64564e-17)
(6.24593 -0.578333 -1.65944e-17)
(6.28509 -0.616108 2.12949e-15)
(6.32322 -0.65434 3.38502e-17)
(6.36176 -0.693833 -3.15783e-22)
(6.39885 -0.733623 -2.22926e-15)
(6.43601 -0.7748 2.23542e-15)
(6.47062 -0.816098 0)
(6.50439 -0.858728 2.30449e-15)
(6.53622 -0.901637 -2.35173e-15)
(6.56888 -0.946131 2.34249e-15)
(6.5954 -0.990203 1.85725e-17)
(6.63608 -1.03832 2.40194e-15)
(6.66856 -1.08579 0)
(6.70337 -1.13536 0)
(6.73689 -1.18548 -2.49435e-15)
(6.77342 -1.23835 0)
(6.80841 -1.29162 -5.11686e-15)
(6.8453 -1.3476 -2.60721e-15)
(6.87906 -1.40373 0)
(6.91193 -1.46214 -2.70023e-15)
(6.9321 -1.51901 2.12172e-17)
(6.96892 -1.5813 2.74244e-15)
(7.02275 -1.65086 2.18051e-17)
(7.05742 -1.71726 2.84946e-15)
(7.09618 -1.78839 -2.25334e-17)
(7.11639 -1.85503 2.91774e-15)
(7.17311 -1.93682 -2.32122e-17)
(7.18965 -2.01006 3.5286e-17)
(10.0878 1.51398 -2.87429e-15)
(10.0803 1.50609 0)
(10.0717 1.49711 -1.41557e-15)
(10.0626 1.48772 1.42467e-15)
(10.0519 1.47802 2.76296e-15)
(10.0349 1.46689 1.39378e-15)
(10.0258 1.45654 -1.40199e-15)
(10.0173 1.44653 -1.32708e-15)
(10.0086 1.43649 -2.09206e-17)
(9.99981 1.42639 1.34971e-15)
(9.99134 1.41601 2.62489e-15)
(9.98285 1.40553 2.0347e-17)
(9.97418 1.39503 -2.01827e-17)
(9.9663 1.38437 -1.27548e-15)
(9.95921 1.37345 1.97335e-17)
(9.95599 1.36353 -1.27775e-15)
(9.94855 1.35333 -1.22127e-15)
(9.93657 1.34153 -1.90541e-17)
(9.92911 1.33012 0)
(9.92288 1.31908 0)
(9.91723 1.30787 1.83713e-17)
(9.91188 1.29691 2.30922e-15)
(9.90747 1.28567 0)
(9.90859 1.27537 -2.29416e-15)
(9.90439 1.26475 2.26344e-15)
(9.89513 1.25243 -2.19589e-15)
(9.89142 1.2405 -2.20521e-15)
(9.88894 1.22878 3.3345e-17)
(9.88733 1.21693 0)
(9.88604 1.20512 2.07308e-15)
(9.88574 1.19303 2.03707e-15)
(9.88589 1.18088 -2.00971e-15)
(9.88685 1.16843 3.93862e-15)
(9.88851 1.15598 -1.9435e-15)
(9.8908 1.14337 0)
(9.89437 1.13063 0)
(9.8987 1.11763 3.69977e-15)
(9.91036 1.10544 -2.84326e-17)
(9.91594 1.09268 0)
(9.91556 1.07839 0)
(9.92899 1.06549 -1.70844e-15)
(9.93065 1.0511 -2.60592e-17)
(9.94617 1.03781 -1.61519e-15)
(9.94972 1.02314 1.79185e-22)
(9.96121 1.00837 1.56401e-15)
(9.98148 0.994599 2.39939e-17)
(9.99613 0.979957 1.47983e-15)
(10.0114 0.964777 -1.46701e-15)
(10.028 0.94935 -1.43078e-15)
(10.0464 0.933529 -1.41931e-15)
(10.066 0.917332 1.38276e-15)
(10.0873 0.900746 1.32518e-15)
(10.1103 0.883641 2.60285e-15)
(10.1348 0.866023 2.49477e-15)
(10.1609 0.847821 -2.44167e-15)
(10.1888 0.828925 0)
(10.2185 0.809315 -2.30544e-15)
(10.2499 0.788847 1.74845e-17)
(10.2826 0.767441 -1.69594e-17)
(10.3164 0.745112 2.08586e-15)
(10.3439 0.720859 3.16415e-17)
(10.3798 0.695726 -1.97709e-15)
(10.4165 0.66912 0)
(10.4611 0.641375 1.85036e-15)
(10.5 0.611627 0)
(10.5402 0.580577 0)
(10.5814 0.548647 -9.16586e-16)
(10.6237 0.515761 2.95503e-22)
(10.6671 0.481891 1.80682e-15)
(10.7051 0.446667 1.39051e-17)
(10.7512 0.410622 -1.38644e-17)
(10.7987 0.373422 -4.42506e-16)
(10.8471 0.335187 -4.41476e-16)
(10.8965 0.295697 -1.37682e-17)
(10.9518 0.255255 4.55084e-16)
(10.9967 0.213604 -2.05866e-16)
(11.0482 0.170867 2.19316e-16)
(11.1008 0.12691 9.58719e-17)
(11.1583 0.0817216 -9.60746e-17)
(11.2073 0.0352409 -8.21029e-17)
(11.2656 -0.0121284 1.37175e-17)
(11.3201 -0.0607452 0)
(11.3747 -0.110863 -1.09863e-16)
(11.43 -0.161556 2.19975e-16)
(11.4863 -0.213523 0)
(11.5435 -0.267021 -4.41362e-16)
(11.601 -0.321478 1.38216e-17)
(11.6594 -0.37695 -4.71066e-16)
(11.7184 -0.433989 -4.30743e-16)
(11.7753 -0.491811 0)
(11.8359 -0.550915 -4.47557e-16)
(11.8979 -0.611864 -4.49618e-16)
(11.9619 -0.673607 9.047e-16)
(12.0259 -0.736749 0)
(12.0907 -0.801478 0)
(12.1553 -0.867054 4.59657e-16)
(12.2229 -0.934854 7.22855e-18)
(12.2909 -1.0035 -4.66355e-16)
(12.3606 -1.07416 4.69545e-16)
(12.4314 -1.14639 -7.40785e-18)
(12.5041 -1.22012 7.46711e-18)
(12.5788 -1.29624 -9.73182e-16)
(12.655 -1.37356 -9.67062e-16)
(12.7337 -1.45374 -7.69565e-18)
(12.8137 -1.53511 9.95624e-16)
(12.8963 -1.61968 -4.00094e-22)
(12.9799 -1.70553 -7.9621e-18)
(13.066 -1.79484 -1.0316e-15)
(13.1537 -1.88577 2.10818e-15)
(13.2448 -1.98061 -1.52295e-22)
(13.34 -2.07761 -1.6812e-17)
(13.434 -2.17832 8.51243e-18)
(13.532 -2.28152 -1.10503e-15)
(13.634 -2.38949 8.76607e-18)
(13.7378 -2.49986 1.12808e-15)
(13.846 -2.61576 0)
(13.9556 -2.73443 2.34946e-15)
(14.0691 -2.85869 1.17589e-15)
(14.1837 -2.98668 9.41647e-18)
(14.3024 -3.12102 1.2326e-15)
(14.4288 -3.2618 1.26018e-15)
(14.5521 -3.40634 -9.96252e-18)
(14.6729 -3.55713 1.00931e-17)
(14.8014 -3.71437 -1.3215e-15)
(14.9352 -3.88078 0)
(15.0763 -4.05417 0)
(15.208 -4.23417 -1.38589e-15)
(15.3555 -4.42685 0)
(12.4082 1.86399 1.27376e-17)
(12.3939 1.85235 -8.07457e-16)
(12.3793 1.84044 7.97575e-16)
(12.3644 1.82817 1.35193e-22)
(12.348 1.81538 -7.79378e-16)
(12.3286 1.80216 0)
(12.3133 1.78949 0)
(12.298 1.77653 7.49646e-16)
(12.2824 1.76348 7.30133e-16)
(12.2667 1.75037 1.14594e-17)
(12.2511 1.7369 -7.20805e-16)
(12.2352 1.72327 7.12631e-16)
(12.2192 1.70965 0)
(12.2037 1.69582 6.81632e-16)
(12.1886 1.68182 6.82832e-16)
(12.1753 1.66816 1.05514e-17)
(12.1601 1.65413 -2.07384e-17)
(12.1435 1.63948 3.8495e-24)
(12.1288 1.62505 2.01247e-17)
(12.1149 1.61055 1.24477e-15)
(12.1013 1.59578 3.88787e-17)
(12.0879 1.58116 -1.91776e-17)
(12.0755 1.5665 1.87813e-17)
(12.0657 1.55205 -1.85239e-17)
(12.0535 1.53728 -1.1663e-15)
(12.0398 1.52184 1.15852e-15)
(12.0286 1.50666 -1.7567e-17)
(12.0182 1.49138 -1.71957e-17)
(12.0084 1.4759 1.08154e-15)
(11.999 1.46046 1.6588e-17)
(11.9905 1.4447 -2.07833e-15)
(11.9824 1.42889 1.03792e-15)
(11.975 1.41276 -1.02843e-15)
(11.9682 1.39652 9.81255e-16)
(11.9621 1.38005 1.49425e-17)
(11.9569 1.36341 0)
(11.9524 1.34665 -3.85946e-23)
(11.9514 1.33002 -9.00518e-16)
(11.948 1.31285 -1.36935e-17)
(11.9431 1.2952 1.34234e-17)
(11.9439 1.27784 8.36645e-16)
(11.9409 1.2598 1.27897e-17)
(11.9438 1.24197 -7.51657e-23)
(11.9426 1.22343 1.54459e-15)
(11.9452 1.20482 -7.60009e-16)
(11.9521 1.18633 0)
(11.9574 1.16719 -7.21675e-16)
(11.9637 1.14766 7.01999e-16)
(11.9714 1.12785 1.35437e-15)
(11.9807 1.10759 1.03864e-17)
(11.9913 1.08689 0)
(12.0036 1.06574 -6.36411e-16)
(12.0177 1.044 -1.21795e-15)
(12.0332 1.02167 -2.36529e-15)
(12.0504 0.998683 1.15428e-15)
(12.0695 0.97491 -8.67443e-18)
(12.0904 0.950323 1.08464e-15)
(12.1132 0.924777 0)
(12.1373 0.89816 0)
(12.1628 0.870397 -1.95067e-15)
(12.187 0.841028 0)
(12.2148 0.810376 -9.11665e-16)
(12.2437 0.778034 8.8154e-16)
(12.2764 0.743968 8.52649e-16)
(12.3085 0.707944 6.54182e-18)
(12.3422 0.670638 -1.30445e-17)
(12.3773 0.632388 4.2274e-16)
(12.4139 0.593119 0)
(12.4521 0.552724 -4.14168e-16)
(12.4898 0.511159 0)
(12.5315 0.468602 0)
(12.5748 0.424709 1.04392e-22)
(12.6193 0.379679 4.11368e-16)
(12.665 0.333406 2.05466e-16)
(12.7137 0.285989 0)
(12.7597 0.237274 1.02644e-16)
(12.809 0.187342 -1.09056e-16)
(12.8596 0.135973 6.4172e-18)
(12.9125 0.0833933 5.13538e-17)
(12.9632 0.0298259 6.42788e-18)
(13.018 -0.0250032 1.28681e-17)
(13.0722 -0.0813675 -1.35998e-22)
(13.127 -0.138914 5.16893e-17)
(13.1829 -0.197658 -1.03659e-16)
(13.2403 -0.257654 -6.49825e-18)
(13.2988 -0.31919 1.04323e-16)
(13.358 -0.381829 6.54436e-18)
(13.4186 -0.445626 -1.31417e-17)
(13.4802 -0.511156 4.29052e-16)
(13.5417 -0.577687 -2.19029e-16)
(13.606 -0.645525 2.20238e-16)
(13.6719 -0.715389 4.22987e-16)
(13.7392 -0.786205 -2.09482e-16)
(13.8082 -0.858664 0)
(13.8786 -0.932942 6.85107e-18)
(13.9503 -1.00828 -1.3196e-22)
(14.0245 -1.086 -6.95818e-18)
(14.0999 -1.16483 7.0241e-18)
(14.1778 -1.24595 2.12445e-16)
(14.2574 -1.32896 2.36286e-16)
(14.3396 -1.41372 0)
(14.4243 -1.50125 -4.67915e-16)
(14.5115 -1.59025 2.04462e-22)
(14.6016 -1.68254 4.71069e-16)
(14.694 -1.77633 -4.76752e-16)
(14.7896 -1.87382 -4.82644e-16)
(14.8873 -1.97299 -7.76596e-18)
(14.9883 -2.0762 0)
(15.092 -2.18148 -1.02665e-15)
(15.1995 -2.29123 4.05121e-18)
(15.3107 -2.4035 4.11383e-18)
(15.4243 -2.52063 -4.17706e-18)
(15.5414 -2.64046 5.38719e-16)
(15.6628 -2.76582 7.94934e-23)
(15.7872 -2.89427 -5.55753e-16)
(15.9161 -3.02895 5.70874e-16)
(16.0476 -3.16725 -5.78097e-16)
(16.1834 -3.3119 5.86628e-16)
(16.3217 -3.46162 -5.97211e-16)
(16.4646 -3.6184 6.21497e-16)
(16.6122 -3.78202 -6.24509e-16)
(16.7617 -3.9517 0)
(16.913 -4.12944 0)
(17.0694 -4.31396 0)
(17.2303 -4.5086 6.71808e-16)
(17.3956 -4.71114 0)
(17.5617 -4.92413 1.396e-15)
(17.7338 -5.14816 -5.51982e-18)
(13.5309 2.03328 5.47322e-16)
(13.5128 2.02009 5.58408e-16)
(13.4946 2.00671 -5.42012e-16)
(13.4763 1.99296 -5.42372e-16)
(13.4572 1.97886 -1.17062e-23)
(13.4374 1.96468 8.15294e-18)
(13.4186 1.95056 5.29391e-16)
(13.3996 1.9361 -5.21698e-16)
(13.3803 1.92155 -4.99669e-16)
(13.3612 1.90695 -4.93202e-16)
(13.3421 1.89198 -4.83617e-16)
(13.3229 1.87684 -4.92306e-16)
(13.3037 1.86173 1.47239e-17)
(13.2849 1.84641 4.62265e-16)
(13.2662 1.83085 0)
(13.2481 1.81539 0)
(13.2302 1.79983 0)
(13.2123 1.7839 4.32921e-16)
(13.1947 1.76799 0)
(13.1777 1.75195 -8.23692e-16)
(13.161 1.7356 -1.28459e-17)
(13.1445 1.71934 -1.26593e-17)
(13.1286 1.70294 1.23768e-17)
(13.1138 1.68646 0)
(13.0988 1.66999 -7.53837e-16)
(13.084 1.65312 -1.17042e-17)
(13.0697 1.63627 1.15256e-17)
(13.0562 1.61928 6.98559e-16)
(13.0433 1.60206 -6.85846e-16)
(13.0307 1.58487 -7.15946e-16)
(13.019 1.56734 6.89414e-16)
(13.0077 1.54981 -6.56649e-16)
(12.9971 1.53197 -2.03187e-17)
(12.987 1.51401 -1.27877e-15)
(12.9777 1.49581 -6.12728e-16)
(12.9691 1.47739 -9.55577e-18)
(12.961 1.45878 -5.95346e-16)
(12.9544 1.44004 1.168e-15)
(12.9479 1.42102 5.76836e-16)
(12.9418 1.40175 0)
(12.9375 1.38231 5.41649e-16)
(12.9332 1.36258 0)
(12.9309 1.34263 -8.06902e-18)
(12.9287 1.32237 -4.96317e-16)
(12.9279 1.30182 0)
(12.9291 1.2811 0)
(12.9311 1.25994 7.28833e-18)
(12.9343 1.23839 -7.08917e-18)
(12.9389 1.21653 -6.89247e-18)
(12.9451 1.1942 4.36395e-16)
(12.9528 1.1714 -6.52237e-18)
(12.9622 1.1481 1.26624e-17)
(12.9733 1.1242 3.87771e-16)
(12.986 1.09967 1.81539e-22)
(13.0006 1.07442 0)
(13.017 1.04835 5.61912e-18)
(13.0354 1.02141 -7.0851e-16)
(13.0557 0.99346 6.76165e-16)
(13.0777 0.964382 7.66573e-23)
(13.1013 0.934101 6.33729e-16)
(13.1258 0.902277 8.04035e-23)
(13.1518 0.868934 5.94102e-16)
(13.1789 0.83377 -5.70591e-16)
(13.2081 0.796632 -8.30222e-16)
(13.239 0.757554 -4.27616e-18)
(13.2717 0.71713 0)
(13.3061 0.675709 4.26946e-18)
(13.3423 0.633215 -8.53539e-18)
(13.3804 0.589545 9.05765e-23)
(13.42 0.54471 8.54498e-18)
(13.4618 0.498744 -9.21224e-23)
(13.5053 0.451373 2.69381e-16)
(13.5502 0.402825 -1.36957e-16)
(13.5965 0.353013 -1.37125e-16)
(13.6445 0.301934 4.28846e-18)
(13.6932 0.249505 -7.3122e-17)
(13.7436 0.195775 0)
(13.7955 0.140553 0)
(13.8486 0.0840359 4.33227e-18)
(13.9023 0.0263161 -8.69982e-18)
(13.9578 -0.0326256 0)
(14.0142 -0.0932015 0)
(14.0713 -0.155063 -3.52145e-17)
(14.1297 -0.21814 0)
(14.1898 -0.282597 -4.44778e-18)
(14.2511 -0.348672 9.15814e-23)
(14.3134 -0.41586 7.65038e-17)
(14.3773 -0.484363 4.52877e-18)
(14.4424 -0.554695 -1.45914e-16)
(14.5083 -0.626159 2.84954e-16)
(14.5764 -0.699027 4.63179e-18)
(14.6462 -0.774018 -7.49027e-23)
(14.7174 -0.850037 0)
(14.7909 -0.927868 -1.51975e-16)
(14.866 -1.00764 0)
(14.9432 -1.08863 0)
(15.0226 -1.17211 -1.61365e-16)
(15.1035 -1.25687 -1.48376e-16)
(15.1872 -1.34408 -4.99561e-18)
(15.2729 -1.43335 1.61927e-16)
(15.3615 -1.52456 -5.11629e-18)
(15.4529 -1.61872 3.37003e-16)
(15.547 -1.71455 6.66555e-16)
(15.6443 -1.81387 -6.80855e-16)
(15.7443 -1.91493 6.95487e-16)
(15.8477 -2.01993 -5.46551e-18)
(15.9537 -2.12686 5.54791e-18)
(16.0633 -2.23812 0)
(16.176 -2.35173 3.66181e-16)
(16.2927 -2.4701 0)
(16.4129 -2.5912 3.77854e-16)
(16.5369 -2.7177 0)
(16.6643 -2.84713 0)
(16.7959 -2.98246 -3.91115e-16)
(16.9311 -3.12129 3.9715e-16)
(17.0708 -3.26685 -8.23073e-16)
(17.2136 -3.41654 -6.51613e-18)
(17.3609 -3.57305 -4.202e-16)
(17.5112 -3.73515 4.28044e-16)
(17.6662 -3.90458 -8.81343e-16)
(17.8245 -4.08109 -3.50013e-18)
(17.9872 -4.26466 6.64634e-23)
(18.1531 -4.4573 3.64844e-18)
(18.3228 -4.65697 0)
(18.4966 -4.86733 3.16711e-22)
(18.6739 -5.08604 0)
(18.8555 -5.31692 -5.06783e-16)
(19.0396 -5.55869 0)
(14.3065 2.1508 -4.20837e-16)
(14.2863 2.13669 -1.3417e-17)
(14.2661 2.12235 4.36175e-16)
(14.2458 2.10765 4.03427e-16)
(14.2251 2.09266 0)
(14.2042 2.07763 1.27037e-17)
(14.1835 2.06253 -4.12146e-16)
(14.1627 2.04711 3.93623e-16)
(14.1417 2.03161 4.00758e-16)
(14.1209 2.01604 3.59454e-16)
(14.1002 2.00011 7.63177e-16)
(14.0794 1.98401 0)
(14.0587 1.96793 -3.65805e-16)
(14.0385 1.95163 -3.47504e-16)
(14.0183 1.93508 -1.10322e-17)
(13.9983 1.91858 3.3719e-16)
(13.979 1.90202 2.13397e-17)
(13.96 1.88513 -3.46009e-16)
(13.9411 1.86823 6.71828e-16)
(13.9228 1.85116 -1.01279e-17)
(13.9047 1.83381 0)
(13.8868 1.81651 -6.27413e-16)
(13.8695 1.79903 0)
(13.8527 1.78134 -9.42474e-18)
(13.8363 1.76375 6.02095e-16)
(13.8205 1.74582 5.79704e-16)
(13.8049 1.72786 0)
(13.79 1.70974 8.71876e-18)
(13.7756 1.69138 -8.5602e-18)
(13.7617 1.67304 5.37246e-16)
(13.7485 1.65435 0)
(13.7358 1.63565 1.02448e-15)
(13.7238 1.61664 7.86254e-18)
(13.7123 1.59756 4.94938e-16)
(13.7016 1.57822 4.81845e-16)
(13.6915 1.55867 0)
(13.6821 1.5389 -4.68245e-16)
(13.6736 1.51891 -4.45415e-16)
(13.6658 1.49868 -4.47023e-16)
(13.6588 1.47821 6.75068e-18)
(13.6527 1.45747 -4.20028e-16)
(13.6476 1.43653 4.051e-16)
(13.6435 1.41525 6.2625e-18)
(13.6406 1.39375 -6.11523e-18)
(13.6386 1.37188 5.97255e-18)
(13.6381 1.34978 0)
(13.6389 1.32727 3.57112e-16)
(13.6409 1.30436 5.51682e-18)
(13.6446 1.28112 -6.8163e-16)
(13.6498 1.25737 -3.40063e-16)
(13.6565 1.23314 0)
(13.665 1.20839 -3.21161e-16)
(13.6754 1.183 -3.02868e-16)
(13.6874 1.15695 5.98276e-16)
(13.7013 1.13016 0)
(13.7172 1.10249 0)
(13.7352 1.07392 0)
(13.7552 1.04429 -5.30606e-16)
(13.7769 1.0135 4.01961e-18)
(13.8005 0.981447 -3.89356e-18)
(13.8256 0.947816 -3.77346e-18)
(13.8519 0.912567 6.48665e-23)
(13.8795 0.875401 3.54456e-18)
(13.9091 0.836129 4.39844e-16)
(13.9409 0.794837 0)
(13.9747 0.752125 -2.16985e-16)
(14.0104 0.708363 0)
(14.0481 0.663471 0)
(14.0878 0.61735 0)
(14.1294 0.57001 -2.2212e-16)
(14.1731 0.521461 3.42542e-18)
(14.2187 0.471447 -3.43503e-18)
(14.2658 0.4202 3.44595e-18)
(14.3144 0.367591 -1.07198e-16)
(14.3645 0.313618 -3.47043e-18)
(14.4161 0.258299 5.57915e-17)
(14.4694 0.201598 0)
(14.5241 0.143339 2.81655e-17)
(14.5801 0.0837145 -1.41542e-17)
(14.6372 0.0227978 1.77567e-24)
(14.6958 -0.0394084 -3.58018e-18)
(14.7557 -0.103321 3.60384e-18)
(14.8164 -0.168619 0)
(14.8787 -0.235194 3.65669e-18)
(14.9427 -0.303248 -3.68518e-18)
(15.0081 -0.373019 5.94397e-17)
(15.0746 -0.444005 -1.1988e-16)
(15.1429 -0.516386 0)
(15.2126 -0.590686 0)
(15.2834 -0.666219 -2.42691e-16)
(15.3564 -0.743287 -1.28419e-16)
(15.4313 -0.822574 -1.25844e-16)
(15.5076 -0.902978 1.27235e-16)
(15.5865 -0.985341 1.28588e-16)
(15.6672 -1.06974 4.06595e-18)
(15.7501 -1.15551 -1.31653e-16)
(15.8354 -1.2439 1.29065e-16)
(15.9225 -1.33369 1.35035e-16)
(16.0125 -1.42613 -1.32395e-16)
(16.1048 -1.52075 -5.59175e-16)
(16.2001 -1.6175 4.39103e-18)
(16.2983 -1.71734 -4.45783e-18)
(16.3995 -1.81905 -2.84796e-16)
(16.5039 -1.92443 5.87405e-16)
(16.6113 -2.03173 -3.02824e-16)
(16.7223 -2.14319 3.07455e-16)
(16.8362 -2.2568 3.02922e-16)
(16.9538 -2.37498 0)
(17.0747 -2.49573 0)
(17.1997 -2.6215 0)
(17.3283 -2.75024 -3.2922e-16)
(17.461 -2.88475 5.23312e-18)
(17.5971 -3.02255 -5.32479e-18)
(17.7376 -3.16648 3.47123e-16)
(17.8818 -3.31435 0)
(18.0305 -3.46922 7.14612e-16)
(18.1826 -3.62866 3.70898e-16)
(18.3392 -3.79532 -5.84428e-18)
(18.4991 -3.96785 5.91013e-18)
(18.6638 -4.14809 3.88096e-16)
(18.8317 -4.33576 -6.14647e-18)
(19.0041 -4.53103 6.28876e-18)
(19.18 -4.73588 0)
(19.3595 -4.94829 0)
(19.543 -5.17189 -8.56311e-16)
(19.7297 -5.40438 4.36106e-16)
(19.921 -5.64987 -3.48076e-18)
(20.1144 -5.9067 0)
(14.9228 2.24469 3.52405e-16)
(14.9014 2.22987 3.70704e-16)
(14.88 2.21481 0)
(14.8584 2.19939 1.0891e-17)
(14.8366 2.1837 3.33483e-16)
(14.8147 2.16796 0)
(14.7929 2.15212 0)
(14.7711 2.13598 1.02854e-17)
(14.7491 2.11974 -3.35069e-16)
(14.7274 2.10343 0)
(14.7058 2.08677 9.81432e-18)
(14.6842 2.06993 -9.68418e-18)
(14.6627 2.05311 -7.01026e-23)
(14.6417 2.03605 -9.36877e-18)
(14.6207 2.01875 9.22019e-18)
(14.5999 2.00148 -2.90951e-16)
(14.5798 1.98414 8.9187e-18)
(14.56 1.96648 -2.89172e-16)
(14.5404 1.9488 -5.52857e-16)
(14.5213 1.93093 -8.46453e-18)
(14.5024 1.91278 -5.23846e-16)
(14.4839 1.89469 5.24432e-16)
(14.4658 1.87639 -5.04589e-16)
(14.4482 1.85785 -7.88045e-18)
(14.431 1.83935 7.74619e-18)
(14.4144 1.82056 -4.99858e-16)
(14.3981 1.80174 -4.69944e-16)
(14.3824 1.78275 -9.33361e-16)
(14.3673 1.76351 0)
(14.3526 1.74428 3.62179e-23)
(14.3387 1.72469 6.86753e-18)
(14.3252 1.70509 6.7599e-24)
(14.3124 1.68516 6.58108e-18)
(14.3003 1.66515 -4.2732e-16)
(14.2888 1.6449 0)
(14.278 1.62444 -3.96628e-16)
(14.2679 1.60378 3.74169e-16)
(14.2587 1.58289 1.18524e-17)
(14.2502 1.56173 -1.1532e-17)
(14.2426 1.54029 -3.50926e-16)
(14.2358 1.51855 3.6338e-16)
(14.2302 1.49661 -3.56061e-16)
(14.2255 1.47432 0)
(14.222 1.45179 -3.28599e-16)
(14.2196 1.42888 0)
(14.2185 1.40572 -3.21956e-16)
(14.2189 1.38214 -6.00592e-16)
(14.2205 1.35815 0)
(14.2238 1.33379 2.98147e-16)
(14.2288 1.30892 2.73145e-16)
(14.2353 1.28355 -2.74254e-16)
(14.2436 1.25762 2.74888e-16)
(14.2539 1.23103 2.59498e-16)
(14.2659 1.20377 -2.60331e-16)
(14.2799 1.17572 -7.65446e-18)
(14.296 1.14677 1.48732e-17)
(14.3143 1.11687 4.55163e-16)
(14.3347 1.08589 0)
(14.357 1.0537 0)
(14.3813 1.02021 -4.22281e-16)
(14.4073 0.985089 0)
(14.4348 0.948292 -3.97147e-16)
(14.4639 0.909497 -6.0213e-18)
(14.4949 0.868492 -1.87092e-16)
(14.5285 0.825371 5.77069e-18)
(14.5643 0.780762 7.71385e-23)
(14.6021 0.73505 1.79951e-16)
(14.6421 0.688153 1.92221e-16)
(14.6843 0.639972 0)
(14.7285 0.590513 3.70008e-16)
(14.7749 0.53978 1.27232e-22)
(14.8234 0.487525 -1.89647e-16)
(14.8735 0.433979 -8.33976e-17)
(14.9254 0.379 8.98479e-17)
(14.9788 0.322599 9.64011e-17)
(15.0338 0.26478 0)
(15.0907 0.205495 -4.8847e-17)
(15.1492 0.144579 -1.84484e-17)
(15.209 0.0822384 3.81342e-24)
(15.2702 0.0185433 9.36582e-18)
(15.333 -0.046538 0)
(15.3972 -0.113403 0)
(15.4624 -0.181732 -2.56346e-17)
(15.5293 -0.251436 6.47043e-18)
(15.5982 -0.322711 -6.53475e-18)
(15.6684 -0.395781 -9.90215e-17)
(15.74 -0.470156 4.00252e-17)
(15.8135 -0.546032 1.14631e-16)
(15.8886 -0.62392 0)
(15.9649 -0.703141 1.10423e-16)
(16.0436 -0.784032 0)
(16.1242 -0.867237 3.53695e-18)
(16.2065 -0.951661 -2.32916e-16)
(16.2915 -1.03819 0)
(16.3783 -1.12685 3.67804e-18)
(16.4676 -1.21702 1.15573e-16)
(16.5594 -1.30995 -3.77933e-18)
(16.6533 -1.40441 -1.18954e-16)
(16.7501 -1.50169 -3.89015e-18)
(16.8493 -1.60128 5.14129e-16)
(16.9516 -1.70319 -4.01265e-18)
(17.057 -1.80833 4.0797e-18)
(17.1654 -1.91551 -4.14324e-18)
(17.2772 -2.02653 -2.69555e-16)
(17.3921 -2.13965 -4.2814e-18)
(17.5106 -2.25713 3.10758e-23)
(17.6323 -2.37694 -2.79066e-16)
(17.7578 -2.50156 2.83878e-16)
(17.8867 -2.62902 -2.89241e-16)
(18.0197 -2.76175 0)
(18.1564 -2.89776 0)
(18.2971 -3.03974 -3.10146e-16)
(18.4414 -3.18537 4.93493e-18)
(18.5899 -3.33731 -5.03066e-18)
(18.7423 -3.49358 5.11624e-18)
(18.899 -3.65698 -3.34469e-16)
(19.0594 -3.8253 -5.30288e-18)
(19.2242 -4.00117 -3.47774e-16)
(19.3925 -4.18326 0)
(19.5655 -4.37347 -3.61191e-16)
(19.7415 -4.57141 0)
(19.9219 -4.7774 0)
(20.1055 -4.99331 3.88088e-16)
(20.2928 -5.2173 -3.9514e-16)
(20.4836 -5.45288 7.98017e-16)
(20.6774 -5.69789 -4.03397e-16)
(20.8754 -5.95642 -4.08751e-16)
(21.0749 -6.22666 4.13939e-16)
(15.4493 2.32531 9.90068e-18)
(15.4271 2.30989 1.05214e-22)
(15.4049 2.29424 3.08372e-16)
(15.3826 2.27823 -3.13053e-16)
(15.3601 2.26195 1.8742e-17)
(15.3376 2.24563 -9.25657e-18)
(15.3151 2.22917 0)
(15.2926 2.21242 0)
(15.2701 2.19558 -8.84688e-18)
(15.2478 2.17865 1.74575e-17)
(15.2257 2.16137 8.50828e-23)
(15.2036 2.14392 -8.4407e-18)
(15.1817 2.12647 2.66532e-16)
(15.1602 2.10877 2.53205e-16)
(15.1387 2.09083 2.65306e-16)
(15.1175 2.07292 -7.92974e-18)
(15.0969 2.05492 4.86702e-25)
(15.0767 2.0366 2.52263e-16)
(15.0567 2.01825 -4.82373e-16)
(15.0371 1.99971 -1.4773e-17)
(15.0179 1.9809 4.64468e-16)
(14.9989 1.96213 -4.43499e-16)
(14.9804 1.94312 8.95127e-16)
(14.9623 1.9239 4.40493e-16)
(14.9447 1.90465 0)
(14.9276 1.88509 4.235e-16)
(14.9109 1.86554 4.17215e-16)
(14.8948 1.84581 -5.2287e-23)
(14.8792 1.82583 0)
(14.8641 1.80584 -3.80801e-16)
(14.8497 1.78549 -1.20151e-17)
(14.8358 1.76512 -7.56117e-16)
(14.8226 1.74442 1.15197e-17)
(14.81 1.72363 3.51424e-16)
(14.7981 1.70258 -3.53315e-16)
(14.787 1.68132 3.47413e-16)
(14.7765 1.65986 -1.05751e-17)
(14.7669 1.63819 3.42822e-16)
(14.7581 1.61626 -3.13436e-16)
(14.7502 1.59402 3.07741e-16)
(14.7432 1.57144 -6.27939e-16)
(14.7372 1.54863 1.8937e-17)
(14.7323 1.52546 -3.04648e-16)
(14.7286 1.50205 5.77152e-16)
(14.726 1.47825 0)
(14.7248 1.45417 5.40259e-16)
(14.7251 1.42967 2.76638e-16)
(14.7266 1.40473 2.53137e-16)
(14.7299 1.37941 2.62395e-16)
(14.7349 1.35357 -2.48253e-16)
(14.7415 1.32719 4.10882e-23)
(14.75 1.30025 0)
(14.7605 1.27262 -2.28797e-16)
(14.7729 1.2443 2.22683e-16)
(14.7874 1.21516 4.32363e-16)
(14.804 1.18508 0)
(14.8229 1.15403 -8.17116e-16)
(14.8441 1.12186 0)
(14.8674 1.08845 3.85388e-16)
(14.8928 1.05371 3.73824e-16)
(14.9202 1.01729 0)
(14.9493 0.979149 3.46586e-16)
(14.9803 0.938933 5.34363e-18)
(15.0135 0.896413 0)
(15.0495 0.851682 5.13566e-18)
(15.0878 0.805396 1.59917e-16)
(15.1284 0.757957 -1.65868e-16)
(15.1713 0.709277 -1.66729e-16)
(15.2165 0.659256 1.67676e-16)
(15.264 0.6079 -1.63434e-16)
(15.3138 0.555207 7.95689e-17)
(15.3657 0.500934 1.70874e-16)
(15.4195 0.445312 9.14163e-17)
(15.4752 0.388192 -5.4175e-18)
(15.5326 0.329589 -8.73648e-17)
(15.5918 0.269485 5.5068e-18)
(15.6529 0.207835 8.33232e-17)
(15.7158 0.144481 -2.8027e-17)
(15.7802 0.0796373 -5.65811e-18)
(15.846 0.013363 -5.71337e-18)
(15.9137 -0.0543889 -5.77101e-18)
(15.9829 -0.124008 0)
(16.0534 -0.195167 5.89829e-18)
(16.1256 -0.267804 -1.24481e-22)
(16.1998 -0.342109 -6.03692e-18)
(16.2755 -0.418287 2.18312e-23)
(16.3528 -0.495857 9.89561e-17)
(16.4321 -0.575047 -1.002e-16)
(16.513 -0.656343 0)
(16.5955 -0.739076 0)
(16.6805 -0.823617 0)
(16.7673 -0.910565 -6.61407e-18)
(16.8561 -0.998841 1.07385e-16)
(16.9475 -1.08936 6.80622e-18)
(17.0409 -1.18212 -1.03644e-16)
(17.137 -1.27653 1.12216e-16)
(17.2356 -1.37384 -1.42394e-17)
(17.3365 -1.47281 1.23054e-16)
(17.4404 -1.57477 2.27795e-16)
(17.5469 -1.67918 -2.24399e-16)
(17.6565 -1.78606 2.35557e-16)
(17.7692 -1.89633 0)
(17.8849 -2.00879 2.43787e-16)
(18.0041 -2.12525 8.00296e-18)
(18.1265 -2.24399 -2.60592e-16)
(18.2526 -2.36729 -2.0275e-23)
(18.3819 -2.49323 -2.70117e-16)
(18.5151 -2.62415 -2.7503e-16)
(18.6518 -2.75821 2.80469e-16)
(18.7925 -2.89768 2.85618e-16)
(18.9369 -3.04079 0)
(19.0852 -3.1899 -4.63612e-18)
(19.237 -3.34294 9.44855e-18)
(19.3931 -3.5025 3.03575e-16)
(19.5528 -3.66671 4.90345e-18)
(19.7168 -3.83824 -5.01107e-18)
(19.8844 -4.01501 -3.2049e-16)
(20.0565 -4.19964 6.62212e-16)
(20.2319 -4.39081 -3.37754e-16)
(20.4119 -4.59047 3.52161e-16)
(20.5947 -4.79811 -5.49576e-18)
(20.7815 -5.01423 0)
(20.9712 -5.2405 -3.7263e-16)
(21.1642 -5.47534 3.79393e-16)
(21.3601 -5.72202 -3.83006e-16)
(21.5587 -5.97861 -3.93233e-16)
(21.7606 -6.24903 4.04581e-16)
(21.9635 -6.53146 -4.09574e-16)
(15.9185 2.39749 0)
(15.8958 2.38156 8.73374e-18)
(15.8731 2.36539 -2.75321e-16)
(15.8504 2.34887 -8.47168e-18)
(15.8275 2.33209 -5.44076e-16)
(15.8045 2.31525 -1.048e-23)
(15.7817 2.29826 -2.52048e-16)
(15.7589 2.28099 8.00939e-18)
(15.7361 2.26361 2.45194e-16)
(15.7135 2.24614 -2.49782e-16)
(15.6911 2.22831 -2.44816e-16)
(15.6687 2.21032 0)
(15.6466 2.19231 0)
(15.6248 2.17405 7.20722e-23)
(15.6031 2.15555 -4.46347e-16)
(15.5817 2.13706 2.13084e-16)
(15.5609 2.11847 1.39406e-17)
(15.5404 2.09956 -1.37019e-17)
(15.5202 2.08063 -1.35134e-17)
(15.5004 2.06148 2.64941e-17)
(15.4809 2.04208 -4.29629e-16)
(15.4617 2.0227 4.23576e-16)
(15.4429 2.00307 -1.25526e-17)
(15.4246 1.98323 -3.95477e-16)
(15.4068 1.96335 0)
(15.3895 1.94311 -3.80466e-16)
(15.3725 1.92289 -1.17169e-17)
(15.3562 1.9025 3.78188e-16)
(15.3403 1.88185 1.12602e-17)
(15.325 1.8612 -3.53611e-16)
(15.3104 1.84017 -1.08122e-17)
(15.2963 1.81911 3.29685e-16)
(15.2828 1.79772 2.07469e-17)
(15.27 1.77623 -1.02115e-17)
(15.258 1.75447 6.36741e-16)
(15.2466 1.73249 0)
(15.236 1.71031 -3.05142e-16)
(15.2263 1.6879 -5.99734e-16)
(15.2173 1.66525 -5.07594e-24)
(15.2094 1.64231 2.77784e-16)
(15.2022 1.61902 2.87888e-16)
(15.1962 1.59545 0)
(15.1912 1.57149 2.66996e-16)
(15.1875 1.54728 -2.60917e-16)
(15.185 1.52267 -2.63106e-16)
(15.1838 1.49777 -2.40576e-16)
(15.1842 1.47242 -2.42867e-16)
(15.1859 1.44664 -4.73356e-16)
(15.1894 1.42045 -2.30572e-16)
(15.1946 1.39371 -2.18032e-16)
(15.2015 1.36644 4.38233e-16)
(15.2104 1.33857 -6.6616e-18)
(15.2214 1.31 0)
(15.2343 1.28071 0)
(15.2494 1.25058 -3.92954e-16)
(15.2669 1.21948 3.82204e-16)
(15.2867 1.18738 3.65948e-16)
(15.3089 1.15413 5.64663e-18)
(15.3334 1.11962 -3.51117e-16)
(15.3602 1.08374 0)
(15.3893 1.04614 0)
(15.4205 1.00678 0)
(15.4538 0.965273 0)
(15.4897 0.921374 0)
(15.5286 0.875173 1.50676e-16)
(15.5701 0.827348 1.51602e-16)
(15.614 0.778316 1.52591e-16)
(15.6604 0.727989 0)
(15.7092 0.676265 -1.54801e-16)
(15.7605 0.623144 0)
(15.8142 0.568622 -7.86394e-17)
(15.8702 0.512459 -7.93046e-17)
(15.9283 0.454888 -8.50079e-17)
(15.9884 0.39575 8.57945e-17)
(16.0504 0.33506 -4.0768e-17)
(16.1143 0.27279 0)
(16.1803 0.208893 -8.32475e-17)
(16.2481 0.143219 2.10382e-17)
(16.3176 0.0759848 1.06367e-17)
(16.3887 0.00723503 5.37929e-18)
(16.4618 -0.0630845 5.44277e-18)
(16.5365 -0.135356 0)
(16.6126 -0.209251 2.23255e-17)
(16.6906 -0.284725 -5.655e-18)
(16.7707 -0.361969 -4.58458e-17)
(16.8524 -0.441169 9.87464e-17)
(16.9358 -0.521854 -8.83329e-17)
(17.0213 -0.604282 -1.20599e-22)
(17.1086 -0.68891 9.08635e-17)
(17.1976 -0.775083 9.83978e-17)
(17.2892 -0.863204 0)
(17.3827 -0.953825 0)
(17.4782 -1.04589 1.09542e-16)
(17.5764 -1.14034 -1.11219e-16)
(17.6768 -1.23714 1.06394e-16)
(17.7798 -1.33574 -1.14875e-16)
(17.8855 -1.43736 1.29813e-22)
(17.9937 -1.5408 6.98926e-18)
(18.1049 -1.64737 -2.34395e-16)
(18.2187 -1.75652 -2.24367e-16)
(18.3357 -1.8683 -2.35511e-16)
(18.4557 -1.9836 7.49874e-18)
(18.5789 -2.10128 -2.51821e-16)
(18.7054 -2.22318 0)
(18.8352 -2.3476 5.06571e-16)
(18.9686 -2.4767 -5.15851e-16)
(19.1054 -2.60877 2.71139e-16)
(19.2461 -2.74594 -8.37123e-18)
(19.3902 -2.88648 0)
(19.5383 -3.03255 5.63966e-23)
(19.6899 -3.18249 -2.92971e-16)
(19.8453 -3.33859 5.88163e-16)