# Forces      
# CofR        : (0.000000e+00 0.000000e+00 0.000000e+00)
# Time        forces(pressure viscous porous)	moments(pressure viscous porous)
0             	((0.000000e+00 0.000000e+00 0.000000e+00) (3.758690e-01 1.894100e-02 4.989972e-19) (0.000000e+00 0.000000e+00 0.000000e+00)) ((0.000000e+00 0.000000e+00 0.000000e+00) (-1.231165e-02 2.443149e-01 -1.398232e-01) (0.000000e+00 0.000000e+00 0.000000e+00))
