# Forces      
# CofR        : (0.000000e+00 0.000000e+00 0.000000e+00)
# Time        forces(pressure viscous porous)	moments(pressure viscous porous)
0.05          	((6.253421e-01 9.647369e+01 -2.929773e-20) (7.502219e-01 8.567405e-03 -6.372769e-19) (0.000000e+00 0.000000e+00 0.000000e+00)) ((-6.270790e+01 4.064724e-01 -9.414442e+02) (-5.568813e-03 4.876443e-01 -8.182557e-02) (0.000000e+00 0.000000e+00 0.000000e+00))
