/*--------------------------------*- C++ -*----------------------------------*\
  =========                 |
  \\      /  F ield         | OpenFOAM: The Open Source CFD Toolbox
   \\    /   O peration     | Website:  https://openfoam.org
    \\  /    A nd           | Version:  8
     \\/     M anipulation  |
\*---------------------------------------------------------------------------*/
FoamFile
{
    version     2.0;
    format      ascii;
    class       volScalarField;
    location    "0.2";
    object      p;
}
// * * * * * * * * * * * * * * * * * * * * * * * * * * * * * * * * * * * * * //

dimensions      [0 2 -2 0 0 0 0];

internalField   nonuniform List<scalar> 
112120
(
1.8934
1.87709
1.86363
1.85073
1.83815
1.82555
1.81274
1.79976
1.78661
1.77331
1.75982
1.74616
1.73234
1.71836
1.70423
1.68995
1.67553
1.66098
1.64631
1.63151
1.61659
1.60156
1.58643
1.5712
1.55587
1.54046
1.52496
1.50937
1.4937
1.47796
1.46216
1.44628
1.43034
1.41434
1.39828
1.38217
1.36601
1.34979
1.33353
1.31722
1.30088
1.28449
1.26806
1.25159
1.23509
1.21856
1.20199
1.1854
1.16877
1.15212
1.13544
1.11874
1.102
1.08525
1.06848
1.05168
1.03487
1.01803
1.00118
0.984301
0.967413
0.950502
0.933575
0.916632
0.899674
0.8827
0.865709
0.848707
0.831689
0.814656
0.79761
0.780548
0.763473
0.746382
0.729279
0.712164
0.69503
0.677889
0.660731
0.643561
0.626374
0.609175
0.591962
0.574739
0.557496
0.540236
0.522971
0.505684
0.488384
0.471068
0.453736
0.436393
0.419031
0.401651
0.384256
0.366847
0.349419
0.331971
0.314508
0.297027
0.279526
0.262008
0.244471
0.226913
0.209338
0.191745
0.174128
0.156491
0.138833
0.121158
0.103455
0.0857324
0.067988
0.0502185
0.0324339
0.0146163
-0.0032222
-0.0210796
-0.0389643
-0.0568735
-0.0748107
-0.0927686
-0.110754
-0.128761
-0.146801
-0.164862
-0.182951
-0.201068
-0.219209
-0.237379
-0.255573
-0.273797
-0.292046
-0.310323
-0.32863
-0.346963
-0.365323
-0.383712
-0.402129
-0.420573
-0.43904
-0.457538
-0.476064
-0.494613
-0.513193
-0.531797
-0.550427
-0.569082
-0.587765
-0.60647
-0.625201
-0.643956
-0.662734
-0.681531
-0.700348
-0.71919
-0.73805
-0.756931
-0.775829
-0.79474
-0.813664
-0.832605
-0.851559
-0.870529
-0.889502
-0.908483
-0.927472
-0.946458
-0.965452
-0.984441
-1.00342
-1.02241
-1.04138
-1.06034
-1.07929
-1.09821
-1.11712
-1.136
-1.15486
-1.17367
-1.19246
-1.21121
-1.22991
-1.24856
-1.26716
-1.2857
-1.30418
-1.3226
-1.34094
-1.35922
-1.37743
-1.39555
-1.41363
-1.43166
-1.44964
-1.46755
-1.48563
-1.50444
-1.52437
-1.54855
1.90197
1.88614
1.87211
1.85855
1.8457
1.83311
1.82045
1.8076
1.79457
1.78137
1.76799
1.75444
1.74073
1.72684
1.7128
1.69861
1.68427
1.66979
1.65517
1.64043
1.62556
1.61058
1.59548
1.58028
1.56498
1.54958
1.53409
1.51851
1.50284
1.4871
1.47128
1.45539
1.43943
1.4234
1.40731
1.39116
1.37495
1.35869
1.34238
1.32601
1.3096
1.29315
1.27665
1.26011
1.24353
1.22692
1.21027
1.19358
1.17687
1.16011
1.14333
1.12653
1.10969
1.09283
1.07594
1.05902
1.04209
1.02513
1.00815
0.991144
0.974119
0.957077
0.940013
0.92293
0.905831
0.88871
0.871575
0.854423
0.837254
0.820065
0.802864
0.785644
0.76841
0.751159
0.733894
0.716611
0.699313
0.682002
0.664676
0.647332
0.629974
0.6126
0.595212
0.577809
0.560389
0.542952
0.525503
0.508035
0.490552
0.473053
0.455538
0.438007
0.420459
0.402892
0.385309
0.36771
0.350092
0.332458
0.314801
0.297132
0.279437
0.26173
0.243998
0.226251
0.208483
0.190695
0.172887
0.155056
0.137206
0.119335
0.101442
0.0835264
0.0655891
0.0476287
0.0296491
0.0116419
-0.0063864
-0.0244375
-0.0425117
-0.0606115
-0.0787351
-0.0968837
-0.115055
-0.133251
-0.151474
-0.169723
-0.187995
-0.206293
-0.224617
-0.242967
-0.261341
-0.279744
-0.298171
-0.316623
-0.3351
-0.353609
-0.372139
-0.390696
-0.409279
-0.427886
-0.446521
-0.465178
-0.483863
-0.502571
-0.521304
-0.540059
-0.558842
-0.577644
-0.596469
-0.615316
-0.634186
-0.653077
-0.671987
-0.690914
-0.709859
-0.728821
-0.747804
-0.766801
-0.78581
-0.804827
-0.823861
-0.842903
-0.861955
-0.881014
-0.900076
-0.919142
-0.938209
-0.957269
-0.976332
-0.995384
-1.01443
-1.03346
-1.05248
-1.07149
-1.09048
-1.10943
-1.12837
-1.14727
-1.16613
-1.18497
-1.20375
-1.22249
-1.24118
-1.25982
-1.2784
-1.2969
-1.31534
-1.33372
-1.35202
-1.37025
-1.3884
-1.40648
-1.42451
-1.44246
-1.46037
-1.47838
-1.497
-1.51692
-1.53784
-1.5616
1.90674
1.89435
1.88059
1.86663
1.85336
1.84065
1.82808
1.81537
1.80247
1.78939
1.77612
1.76268
1.74907
1.73529
1.72134
1.70724
1.69298
1.67858
1.66403
1.64935
1.63454
1.6196
1.60455
1.58938
1.57411
1.55874
1.54326
1.52769
1.51203
1.49629
1.48046
1.46456
1.44858
1.43253
1.41641
1.40023
1.38398
1.36768
1.35132
1.3349
1.31843
1.30192
1.28535
1.26874
1.25209
1.23539
1.21866
1.20188
1.18508
1.16823
1.15135
1.13444
1.11749
1.10052
1.08352
1.06649
1.04943
1.03235
1.01524
0.998111
0.980957
0.963777
0.946576
0.929354
0.912109
0.894845
0.877561
0.860257
0.842936
0.825592
0.808232
0.790856
0.773459
0.756043
0.738611
0.721164
0.703696
0.686213
0.668714
0.651197
0.633662
0.616109
0.598544
0.580959
0.563359
0.545737
0.528104
0.510452
0.492781
0.475097
0.457389
0.439671
0.42193
0.404173
0.386399
0.368607
0.350794
0.332965
0.315114
0.297249
0.27936
0.261456
0.243529
0.225584
0.207618
0.189633
0.171627
0.153601
0.135552
0.117486
0.0993918
0.0812826
0.0631464
0.044991
0.0268155
0.00861087
-0.00961125
-0.0278587
-0.0461248
-0.0644199
-0.0827366
-0.101077
-0.119439
-0.137827
-0.156239
-0.174673
-0.193134
-0.21162
-0.230129
-0.248659
-0.267217
-0.285801
-0.304406
-0.323037
-0.341693
-0.360372
-0.379076
-0.397804
-0.416555
-0.435331
-0.454128
-0.472949
-0.491792
-0.510658
-0.529547
-0.548454
-0.567384
-0.586335
-0.605303
-0.624295
-0.643301
-0.662328
-0.681366
-0.700424
-0.719494
-0.738582
-0.75768
-0.776792
-0.795908
-0.815034
-0.834169
-0.853312
-0.872458
-0.891604
-0.910753
-0.929897
-0.94904
-0.968173
-0.987299
-1.00641
-1.02551
-1.0446
-1.06366
-1.08271
-1.10172
-1.1207
-1.13966
-1.15857
-1.17745
-1.19628
-1.21507
-1.2338
-1.25247
-1.27108
-1.28963
-1.3081
-1.3265
-1.34483
-1.36308
-1.38125
-1.39935
-1.41738
-1.43534
-1.45323
-1.47112
-1.48945
-1.50885
-1.5295
-1.5502
-1.56918
1.90993
1.90111
1.88878
1.87495
1.86129
1.84831
1.8357
1.82309
1.81032
1.79736
1.78422
1.7709
1.75739
1.74372
1.72987
1.71586
1.70169
1.68737
1.67289
1.65828
1.64353
1.62865
1.61364
1.59852
1.58329
1.56794
1.55249
1.53693
1.52128
1.50554
1.48971
1.47381
1.45781
1.44174
1.4256
1.40939
1.39311
1.37676
1.36036
1.34389
1.32737
1.31079
1.29416
1.27749
1.26076
1.24398
1.22717
1.21031
1.19341
1.17647
1.1595
1.14248
1.12543
1.10835
1.09124
1.07409
1.05691
1.03971
1.02248
1.00522
0.987928
0.970613
0.953274
0.935911
0.918521
0.901111
0.883675
0.866221
0.848742
0.831245
0.813725
0.796185
0.778626
0.761044
0.743443
0.725826
0.708186
0.690528
0.672854
0.655156
0.637444
0.619711
0.601963
0.584192
0.566406
0.548599
0.530777
0.512935
0.495075
0.477196
0.459297
0.441384
0.423449
0.405496
0.387524
0.369534
0.351524
0.333496
0.315447
0.29738
0.279292
0.261185
0.243058
0.224912
0.206744
0.188557
0.170348
0.15212
0.133869
0.1156
0.097307
0.0789925
0.060658
0.0423003
0.0239229
0.00552069
-0.0129014
-0.0313495
-0.0498148
-0.0683069
-0.0868183
-0.105357
-0.123913
-0.142496
-0.161103
-0.179727
-0.198379
-0.217056
-0.235751
-0.254471
-0.273214
-0.291978
-0.310768
-0.329577
-0.348413
-0.367268
-0.386149
-0.405048
-0.423969
-0.442913
-0.461877
-0.48086
-0.499866
-0.518888
-0.537934
-0.556998
-0.576073
-0.59517
-0.614287
-0.633417
-0.652563
-0.671723
-0.690897
-0.710077
-0.729273
-0.74848
-0.767698
-0.786918
-0.806146
-0.825377
-0.844613
-0.863852
-0.883088
-0.90232
-0.921552
-0.94077
-0.959982
-0.979188
-0.998375
-1.01754
-1.0367
-1.05583
-1.07493
-1.09401
-1.11306
-1.13206
-1.15103
-1.16995
-1.18884
-1.20767
-1.22644
-1.24515
-1.2638
-1.28239
-1.3009
-1.31933
-1.33769
-1.35597
-1.37417
-1.39228
-1.41032
-1.42829
-1.44619
-1.46405
-1.48214
-1.50101
-1.52111
-1.54176
-1.56057
-1.57453
1.91448
1.90686
1.89621
1.88317
1.86946
1.85614
1.84337
1.83079
1.81814
1.80531
1.79229
1.77908
1.7657
1.75213
1.73839
1.72448
1.71041
1.69617
1.68177
1.66723
1.65255
1.63773
1.62278
1.60771
1.59251
1.57719
1.56177
1.54624
1.53061
1.51487
1.49905
1.48314
1.46713
1.45105
1.43489
1.41865
1.40234
1.38596
1.36951
1.353
1.33643
1.31979
1.3031
1.28636
1.26956
1.25271
1.23582
1.21887
1.20188
1.18486
1.16778
1.15067
1.13351
1.11632
1.0991
1.08184
1.06454
1.04721
1.02985
1.01246
0.995038
0.977589
0.960109
0.942602
0.925069
0.907511
0.889925
0.872314
0.854681
0.837024
0.819342
0.801637
0.783911
0.766161
0.74839
0.730597
0.712784
0.694948
0.677092
0.659217
0.641322
0.623403
0.605467
0.58751
0.569535
0.551537
0.533522
0.515485
0.497431
0.479356
0.461261
0.443147
0.425014
0.406859
0.388688
0.370494
0.352282
0.334049
0.315797
0.297525
0.279231
0.26092
0.242587
0.224232
0.205859
0.187464
0.169051
0.150613
0.132157
0.11368
0.0951809
0.07666
0.0581199
0.0395561
0.0209735
0.00236546
-0.0162603
-0.0349093
-0.0535791
-0.0722746
-0.0909876
-0.109723
-0.128481
-0.147262
-0.166063
-0.184887
-0.203732
-0.2226
-0.241487
-0.260398
-0.279331
-0.298282
-0.317254
-0.33625
-0.355266
-0.3743
-0.393355
-0.412432
-0.431527
-0.450639
-0.469769
-0.48892
-0.508087
-0.527271
-0.546473
-0.565689
-0.584918
-0.604165
-0.623426
-0.642695
-0.661982
-0.681272
-0.700577
-0.719889
-0.739207
-0.758534
-0.777866
-0.797194
-0.816531
-0.835869
-0.8552
-0.87453
-0.893856
-0.913175
-0.932483
-0.951777
-0.971058
-0.990324
-1.00957
-1.02879
-1.04799
-1.06717
-1.08631
-1.10541
-1.12448
-1.14351
-1.16249
-1.18142
-1.20029
-1.21911
-1.23787
-1.25657
-1.27519
-1.29374
-1.31221
-1.3306
-1.34891
-1.36713
-1.38527
-1.40333
-1.42131
-1.43921
-1.45707
-1.47502
-1.4935
-1.513
-1.53335
-1.55302
-1.56957
-1.58196
1.92007
1.91222
1.90276
1.89094
1.87765
1.86418
1.85116
1.8385
1.82592
1.81321
1.80032
1.78724
1.77397
1.76053
1.74689
1.73309
1.71911
1.70496
1.69066
1.6762
1.66159
1.64684
1.63195
1.61692
1.60177
1.5865
1.57111
1.5556
1.53999
1.52428
1.50846
1.49255
1.47654
1.46045
1.44427
1.42801
1.41168
1.39526
1.37878
1.36222
1.3456
1.32891
1.31216
1.29536
1.27849
1.26157
1.2446
1.22757
1.2105
1.19338
1.17621
1.15899
1.14174
1.12444
1.1071
1.08972
1.07231
1.05485
1.03737
1.01985
1.00229
0.984703
0.967083
0.949434
0.931754
0.914045
0.896307
0.878542
0.860749
0.842931
0.825085
0.807212
0.789317
0.771399
0.753451
0.735485
0.71749
0.699477
0.681437
0.663377
0.645294
0.627189
0.609062
0.590915
0.572744
0.554551
0.536341
0.518105
0.499852
0.481576
0.46328
0.444962
0.426626
0.408265
0.389888
0.371487
0.353067
0.334628
0.316165
0.297684
0.27918
0.260658
0.242112
0.223549
0.204964
0.186357
0.167732
0.149082
0.130416
0.111725
0.0930156
0.0742832
0.0555325
0.0367571
0.0179662
-0.000851333
-0.0196876
-0.0385438
-0.0574215
-0.0763204
-0.0952407
-0.11418
-0.133143
-0.152123
-0.171129
-0.190149
-0.209196
-0.228257
-0.24734
-0.266445
-0.285569
-0.30471
-0.323872
-0.343052
-0.362251
-0.381468
-0.400703
-0.419954
-0.439225
-0.45851
-0.47781
-0.497129
-0.516457
-0.535804
-0.555164
-0.574534
-0.593917
-0.613313
-0.632719
-0.652132
-0.671553
-0.690977
-0.710411
-0.729852
-0.749292
-0.768738
-0.788182
-0.807623
-0.827066
-0.846503
-0.865929
-0.885352
-0.904762
-0.924164
-0.943548
-0.962914
-0.98226
-1.00159
-1.02089
-1.04016
-1.0594
-1.07861
-1.09778
-1.11691
-1.136
-1.15504
-1.17402
-1.19295
-1.21182
-1.23063
-1.24937
-1.26803
-1.28662
-1.30513
-1.32356
-1.3419
-1.36015
-1.37831
-1.39639
-1.41439
-1.43231
-1.45016
-1.46805
-1.48625
-1.50523
-1.52513
-1.54504
-1.56311
-1.5781
-1.59101
1.926
1.91752
1.90869
1.89808
1.88561
1.87229
1.85909
1.84628
1.83369
1.82108
1.80831
1.79536
1.78222
1.76889
1.75537
1.74168
1.72781
1.71376
1.69955
1.68518
1.67065
1.65597
1.64114
1.62618
1.61108
1.59585
1.5805
1.56503
1.54944
1.53375
1.51794
1.50204
1.48603
1.46994
1.45375
1.43747
1.42111
1.40467
1.38815
1.37156
1.35489
1.33816
1.32135
1.30448
1.28755
1.27056
1.25351
1.23641
1.21925
1.20203
1.18477
1.16746
1.1501
1.13269
1.11524
1.09775
1.08022
1.06264
1.04503
1.02738
1.00969
0.991963
0.974201
0.956409
0.938578
0.920718
0.902828
0.884904
0.866951
0.848969
0.830956
0.812918
0.794849
0.776756
0.758634
0.740487
0.722311
0.704114
0.685889
0.66764
0.649369
0.631071
0.612749
0.594405
0.576038
0.557647
0.539234
0.520797
0.50234
0.483858
0.465357
0.446831
0.428284
0.409718
0.391125
0.372518
0.353882
0.33523
0.316553
0.297858
0.279138
0.260401
0.24164
0.222861
0.204056
0.185237
0.16639
0.147528
0.128642
0.109735
0.0908097
0.0718613
0.052895
0.0339048
0.0148972
-0.00413269
-0.0231817
-0.0422511
-0.0613427
-0.0804525
-0.0995803
-0.11873
-0.1379
-0.157086
-0.176296
-0.195522
-0.214768
-0.23403
-0.253314
-0.272613
-0.291932
-0.311267
-0.33062
-0.34999
-0.369374
-0.388774
-0.408195
-0.427623
-0.447071
-0.466527
-0.486003
-0.505487
-0.524985
-0.54449
-0.564011
-0.583535
-0.603071
-0.622617
-0.642165
-0.661719
-0.68128
-0.700842
-0.720405
-0.739967
-0.759533
-0.779094
-0.798651
-0.8182
-0.837747
-0.857279
-0.876806
-0.896314
-0.915808
-0.935287
-0.954745
-0.974177
-0.993585
-1.01297
-1.03232
-1.05163
-1.07092
-1.09016
-1.10935
-1.1285
-1.1476
-1.16665
-1.18563
-1.20455
-1.22341
-1.2422
-1.26091
-1.27954
-1.2981
-1.31656
-1.33493
-1.35322
-1.37141
-1.38952
-1.40753
-1.42547
-1.44333
-1.46118
-1.47921
-1.49778
-1.51718
-1.53702
-1.55592
-1.57243
-1.58667
-1.60066
1.93187
1.92295
1.91428
1.90461
1.89315
1.88033
1.86712
1.85416
1.8415
1.82893
1.81627
1.80344
1.79043
1.77722
1.76383
1.75025
1.73649
1.72255
1.70844
1.69416
1.67972
1.66511
1.65036
1.63546
1.62042
1.60524
1.58994
1.57451
1.55895
1.54328
1.5275
1.51161
1.49561
1.47951
1.46332
1.44703
1.43065
1.41419
1.39764
1.38101
1.3643
1.34752
1.33066
1.31373
1.29674
1.27968
1.26256
1.24538
1.22814
1.21084
1.19348
1.17607
1.15861
1.1411
1.12354
1.10593
1.08828
1.07058
1.05284
1.03506
1.01723
0.99937
0.981468
0.963527
0.945551
0.927538
0.909489
0.891408
0.873292
0.855144
0.836965
0.818753
0.800512
0.782241
0.763939
0.745609
0.727252
0.708866
0.690452
0.672012
0.653543
0.635052
0.616531
0.597988
0.57942
0.560825
0.542207
0.523563
0.504899
0.486205
0.467494
0.448756
0.429996
0.411213
0.392407
0.37358
0.354729
0.335857
0.316961
0.298046
0.279107
0.260148
0.241166
0.222164
0.20314
0.184096
0.16503
0.145943
0.126837
0.107708
0.0885621
0.06939
0.0502044
0.0309945
0.0117667
-0.00748351
-0.0267496
-0.0460356
-0.0653444
-0.0846677
-0.104013
-0.123376
-0.142757
-0.162156
-0.181572
-0.201005
-0.220457
-0.239925
-0.259409
-0.27891
-0.298427
-0.317957
-0.337505
-0.357065
-0.376641
-0.39623
-0.415829
-0.435443
-0.455068
-0.474703
-0.494349
-0.514001
-0.533668
-0.553339
-0.573017
-0.592698
-0.612388
-0.63208
-0.651772
-0.671469
-0.691169
-0.710866
-0.730556
-0.750245
-0.76993
-0.789607
-0.809273
-0.828932
-0.848577
-0.868206
-0.88782
-0.907417
-0.926993
-0.946545
-0.96607
-0.985567
-1.00503
-1.02447
-1.04386
-1.06322
-1.08253
-1.1018
-1.12102
-1.14018
-1.15929
-1.17834
-1.19731
-1.21623
-1.23506
-1.25383
-1.2725
-1.2911
-1.30961
-1.32802
-1.34634
-1.36457
-1.3827
-1.40074
-1.41869
-1.43656
-1.4544
-1.47233
-1.4906
-1.50955
-1.52911
-1.54841
-1.56602
-1.58134
-1.59553
-1.61035
1.93747
1.92839
1.91967
1.91061
1.90015
1.88809
1.87515
1.86213
1.84937
1.83678
1.8242
1.81149
1.7986
1.78553
1.77226
1.75881
1.74516
1.73133
1.71732
1.70314
1.68879
1.67428
1.6596
1.64477
1.6298
1.61468
1.59943
1.58404
1.56852
1.55288
1.53712
1.52125
1.50527
1.48917
1.47298
1.45668
1.44029
1.42381
1.40723
1.39057
1.37382
1.357
1.3401
1.32312
1.30607
1.28894
1.27175
1.25449
1.23717
1.21978
1.20233
1.18483
1.16727
1.14966
1.13198
1.11426
1.09649
1.07867
1.0608
1.04289
1.02493
1.00693
0.988885
0.970799
0.952671
0.934505
0.916299
0.898057
0.879776
0.861461
0.843112
0.824726
0.806308
0.787855
0.769373
0.750858
0.732313
0.713736
0.695127
0.676494
0.657826
0.639137
0.620415
0.601666
0.582893
0.564088
0.545261
0.526407
0.507527
0.488623
0.469694
0.450737
0.43176
0.412756
0.393731
0.37468
0.355607
0.336512
0.317391
0.29825
0.279086
0.259901
0.240691
0.221463
0.202212
0.182939
0.163647
0.144332
0.124999
0.105642
0.0862672
0.0668726
0.0474577
0.0280238
0.00857132
-0.0109036
-0.0303922
-0.0499028
-0.0694313
-0.0889733
-0.10854
-0.128117
-0.147717
-0.167331
-0.18696
-0.206606
-0.226266
-0.245944
-0.265633
-0.285339
-0.305056
-0.324787
-0.344532
-0.364287
-0.384055
-0.403832
-0.423619
-0.443416
-0.463221
-0.483035
-0.502856
-0.52268
-0.542512
-0.562348
-0.582186
-0.602025
-0.621872
-0.64171
-0.661552
-0.681386
-0.701222
-0.72105
-0.740873
-0.760682
-0.780486
-0.800277
-0.820053
-0.839814
-0.859559
-0.879279
-0.898986
-0.918663
-0.938317
-0.957938
-0.977527
-0.997088
-1.01661
-1.03609
-1.05553
-1.07492
-1.09426
-1.11355
-1.13278
-1.15195
-1.17106
-1.1901
-1.20907
-1.22796
-1.24678
-1.2655
-1.28415
-1.3027
-1.32116
-1.33952
-1.35778
-1.37594
-1.394
-1.41197
-1.42987
-1.4477
-1.46556
-1.48365
-1.50222
-1.52141
-1.54075
-1.55912
-1.57546
-1.59007
-1.60452
-1.61978
1.94279
1.93382
1.92504
1.91627
1.90662
1.89544
1.88303
1.87013
1.85731
1.84467
1.83212
1.8195
1.80674
1.7938
1.78066
1.76733
1.75381
1.7401
1.7262
1.71212
1.69787
1.68345
1.66886
1.65411
1.63921
1.62416
1.60896
1.59362
1.57815
1.56255
1.54682
1.53097
1.515
1.49892
1.48273
1.46643
1.45003
1.43354
1.41694
1.40025
1.38347
1.36661
1.34966
1.33263
1.31552
1.29833
1.28108
1.26374
1.24634
1.22887
1.21134
1.19374
1.17609
1.15837
1.14059
1.12275
1.10486
1.08692
1.06893
1.05088
1.03279
1.01465
0.996458
0.978222
0.959946
0.941623
0.923259
0.904855
0.886408
0.867922
0.8494
0.830839
0.812239
0.793607
0.774938
0.756236
0.737498
0.718726
0.699924
0.681088
0.662224
0.643326
0.6244
0.605442
0.586458
0.567443
0.5484
0.52933
0.510232
0.491108
0.471958
0.45278
0.433577
0.41435
0.395097
0.375819
0.356519
0.337191
0.317844
0.29847
0.279075
0.259656
0.240218
0.220754
0.201271
0.181766
0.162238
0.142693
0.123125
0.103536
0.0839288
0.0643023
0.0446563
0.0249907
0.00530714
-0.0143951
-0.0341128
-0.0538516
-0.0736044
-0.093376
-0.113162
-0.132965
-0.152782
-0.172617
-0.192465
-0.212325
-0.2322
-0.252087
-0.271989
-0.291901
-0.311823
-0.331759
-0.351704
-0.371656
-0.391617
-0.411588
-0.431562
-0.451547
-0.471535
-0.491529
-0.511524
-0.531522
-0.551525
-0.571523
-0.591522
-0.611521
-0.63152
-0.651511
-0.671495
-0.691473
-0.711441
-0.731403
-0.751349
-0.771287
-0.791203
-0.81111
-0.830989
-0.850851
-0.870693
-0.890505
-0.910293
-0.930051
-0.949779
-0.969469
-0.989119
-1.00874
-1.0283
-1.04783
-1.0673
-1.08672
-1.10609
-1.12539
-1.14463
-1.16381
-1.18292
-1.20195
-1.2209
-1.23977
-1.25855
-1.27724
-1.29584
-1.31434
-1.33274
-1.35104
-1.36923
-1.38733
-1.40533
-1.42323
-1.44107
-1.45891
-1.47686
-1.49516
-1.51397
-1.53316
-1.5519
-1.56918
-1.58451
-1.59888
-1.61362
-1.62892
1.94784
1.93915
1.93039
1.92172
1.91263
1.90232
1.89062
1.87806
1.86528
1.85261
1.84005
1.82751
1.81485
1.80204
1.78903
1.77583
1.76244
1.74885
1.73507
1.7211
1.70696
1.69263
1.67814
1.66347
1.64865
1.63367
1.61853
1.60325
1.58783
1.57227
1.55658
1.54076
1.52482
1.50875
1.49258
1.47628
1.45987
1.44336
1.42676
1.41004
1.39324
1.37634
1.35935
1.34228
1.32511
1.30787
1.29054
1.27314
1.25567
1.23812
1.2205
1.20281
1.18505
1.16723
1.14935
1.1314
1.11339
1.09533
1.07721
1.05903
1.04081
1.02252
1.00419
0.985809
0.967376
0.948897
0.930374
0.911804
0.893192
0.874534
0.855834
0.837096
0.818315
0.799497
0.780641
0.761745
0.742813
0.723845
0.704842
0.685805
0.666733
0.647628
0.628489
0.609322
0.590121
0.570888
0.551628
0.532334
0.513016
0.493666
0.474288
0.454884
0.435452
0.415993
0.39651
0.376999
0.357462
0.337902
0.318317
0.298708
0.279075
0.259419
0.23974
0.220041
0.200317
0.180572
0.160808
0.141021
0.121215
0.101389
0.0815429
0.0616768
0.0417968
0.0218919
0.00197452
-0.0179627
-0.0379166
-0.0578844
-0.077871
-0.097872
-0.117888
-0.137918
-0.157961
-0.178018
-0.198087
-0.218171
-0.238262
-0.258365
-0.27848
-0.298602
-0.318735
-0.338877
-0.359023
-0.379178
-0.399335
-0.419501
-0.439671
-0.459841
-0.480012
-0.500189
-0.520361
-0.540535
-0.560706
-0.580872
-0.601032
-0.621193
-0.641339
-0.661479
-0.681609
-0.701728
-0.721833
-0.741925
-0.761997
-0.782051
-0.802086
-0.822101
-0.842088
-0.862047
-0.881979
-0.901887
-0.921752
-0.941586
-0.961379
-0.981133
-1.00085
-1.02051
-1.04012
-1.05968
-1.07919
-1.09864
-1.11802
-1.13734
-1.15658
-1.17575
-1.19485
-1.21387
-1.23279
-1.25163
-1.27037
-1.28902
-1.30757
-1.32602
-1.34436
-1.36259
-1.38072
-1.39874
-1.41667
-1.43453
-1.45234
-1.47021
-1.48831
-1.50681
-1.52572
-1.54459
-1.56249
-1.57866
-1.59339
-1.6078
-1.62269
-1.63778
1.95267
1.94438
1.93574
1.92709
1.91832
1.90873
1.89782
1.88579
1.87321
1.86056
1.84801
1.8355
1.82294
1.81024
1.79736
1.7843
1.77104
1.75758
1.74392
1.73007
1.71604
1.70182
1.68742
1.67285
1.65811
1.64321
1.62815
1.61293
1.59757
1.58206
1.56641
1.55063
1.53471
1.51867
1.5025
1.48622
1.46982
1.4533
1.43668
1.41996
1.40313
1.3862
1.36917
1.35205
1.33484
1.31754
1.30015
1.28269
1.26514
1.24751
1.22981
1.21203
1.19418
1.17626
1.15827
1.14021
1.12209
1.1039
1.08566
1.06735
1.04898
1.03057
1.01209
0.993556
0.97497
0.956334
0.937647
0.918913
0.900131
0.881299
0.862423
0.843502
0.824539
0.805533
0.786482
0.767394
0.748263
0.729094
0.709887
0.690643
0.671362
0.652042
0.632691
0.613304
0.593885
0.574429
0.554945
0.535427
0.515878
0.496299
0.47669
0.457051
0.437386
0.417689
0.39797
0.378218
0.358444
0.338641
0.318814
0.298962
0.279087
0.259187
0.239264
0.219318
0.199351
0.179359
0.159352
0.139318
0.119269
0.0991971
0.0791076
0.0589999
0.0388724
0.0187289
-0.00143048
-0.0216099
-0.0418004
-0.0620094
-0.0822299
-0.102469
-0.122718
-0.14298
-0.163254
-0.18354
-0.203837
-0.224141
-0.244459
-0.264782
-0.285112
-0.305451
-0.325795
-0.346146
-0.366499
-0.386855
-0.407216
-0.427578
-0.447941
-0.468302
-0.488663
-0.509017
-0.529372
-0.54972
-0.570059
-0.590395
-0.610719
-0.631037
-0.651338
-0.671625
-0.691902
-0.712159
-0.732398
-0.752617
-0.772814
-0.792986
-0.813135
-0.833258
-0.853349
-0.873405
-0.893429
-0.913415
-0.933363
-0.953267
-0.973127
-0.992939
-1.0127
-1.03241
-1.05207
-1.07166
-1.09119
-1.11066
-1.13005
-1.14938
-1.16862
-1.18778
-1.20686
-1.22585
-1.24475
-1.26355
-1.28225
-1.30085
-1.31934
-1.33772
-1.356
-1.37416
-1.39222
-1.41017
-1.42804
-1.44585
-1.46368
-1.48163
-1.49988
-1.51852
-1.53729
-1.55557
-1.5725
-1.58781
-1.60224
-1.61683
-1.63175
-1.64647
1.95729
1.94943
1.94101
1.9324
1.92381
1.91474
1.90459
1.89322
1.88103
1.86851
1.85598
1.8435
1.83101
1.81841
1.80567
1.79274
1.77961
1.76628
1.75275
1.73903
1.72511
1.71101
1.69671
1.68224
1.6676
1.65278
1.6378
1.62265
1.60735
1.5919
1.5763
1.56056
1.54468
1.52867
1.51252
1.49625
1.47986
1.46335
1.44672
1.42998
1.41313
1.39618
1.37912
1.36196
1.3447
1.32735
1.30991
1.29238
1.27476
1.25706
1.23927
1.22141
1.20346
1.18544
1.16735
1.14918
1.13095
1.11264
1.09427
1.07583
1.05733
1.03877
1.02015
1.00147
0.982732
0.963937
0.945087
0.926183
0.90723
0.888226
0.869168
0.850064
0.830912
0.811715
0.792471
0.773183
0.75385
0.734478
0.715062
0.695606
0.676112
0.656576
0.637007
0.617395
0.597751
0.578071
0.558355
0.538607
0.518826
0.499009
0.479166
0.459284
0.43938
0.419441
0.399476
0.37948
0.359461
0.33941
0.319336
0.299235
0.27911
0.25896
0.238787
0.218588
0.198372
0.178129
0.157868
0.137584
0.117285
0.0969587
0.0766223
0.0562619
0.035887
0.0154964
-0.00491274
-0.0253354
-0.0457719
-0.0662263
-0.0866887
-0.107168
-0.127655
-0.148155
-0.168666
-0.189183
-0.209713
-0.230248
-0.25079
-0.271337
-0.291891
-0.312448
-0.33301
-0.353571
-0.374133
-0.394698
-0.415263
-0.435824
-0.45638
-0.476934
-0.497484
-0.518024
-0.538558
-0.559085
-0.579595
-0.600096
-0.620585
-0.64106
-0.661515
-0.681955
-0.702369
-0.722768
-0.743138
-0.763488
-0.783804
-0.804097
-0.824355
-0.844582
-0.864773
-0.884923
-0.905033
-0.925101
-0.945121
-0.965096
-0.985018
-1.00488
-1.02469
-1.04444
-1.06413
-1.08376
-1.10331
-1.12279
-1.14219
-1.16151
-1.18074
-1.19989
-1.21895
-1.23791
-1.25677
-1.27553
-1.29418
-1.31272
-1.33115
-1.34947
-1.36767
-1.38576
-1.40375
-1.42164
-1.43945
-1.45724
-1.4751
-1.49317
-1.51154
-1.53014
-1.54854
-1.56603
-1.58203
-1.59678
-1.61115
-1.62587
-1.64066
-1.65497
1.96169
1.95425
1.94618
1.9377
1.92919
1.92046
1.91095
1.90029
1.88863
1.87637
1.86394
1.8515
1.83906
1.82657
1.81394
1.80114
1.78815
1.77496
1.76157
1.74797
1.73418
1.72019
1.70602
1.69165
1.6771
1.66237
1.64748
1.63241
1.61718
1.6018
1.58625
1.57056
1.55472
1.53874
1.52263
1.50638
1.49
1.4735
1.45687
1.44012
1.42326
1.40628
1.3892
1.372
1.35471
1.33731
1.31981
1.30222
1.28454
1.26676
1.2489
1.23095
1.21291
1.1948
1.1766
1.15833
1.13998
1.12155
1.10306
1.08449
1.06586
1.04715
1.02839
1.00956
0.990664
0.971709
0.952696
0.933623
0.914496
0.895312
0.876075
0.856783
0.837441
0.818049
0.798607
0.779118
0.759582
0.740001
0.720371
0.700703
0.68099
0.661232
0.641438
0.6216
0.601728
0.581814
0.561863
0.54188
0.521856
0.501802
0.481712
0.461589
0.441435
0.42125
0.401033
0.380789
0.360514
0.340213
0.319883
0.299526
0.279146
0.258738
0.238307
0.217853
0.197376
0.176878
0.156358
0.135817
0.115258
0.0946779
0.0740807
0.0534685
0.032835
0.0121915
-0.0084711
-0.0291472
-0.0498339
-0.0705373
-0.0912478
-0.111974
-0.132707
-0.153447
-0.1742
-0.194956
-0.215719
-0.236488
-0.257262
-0.278039
-0.298818
-0.319599
-0.340379
-0.361158
-0.381934
-0.402709
-0.423477
-0.444241
-0.464998
-0.485744
-0.506484
-0.527213
-0.547927
-0.568631
-0.589317
-0.609985
-0.630636
-0.651267
-0.671876
-0.692463
-0.713022
-0.733558
-0.754061
-0.774538
-0.794975
-0.81538
-0.835746
-0.856077
-0.876363
-0.896605
-0.916797
-0.936941
-0.957034
-0.977069
-0.997051
-1.01697
-1.03682
-1.05661
-1.07632
-1.09597
-1.11553
-1.13502
-1.15442
-1.17373
-1.19295
-1.21208
-1.23111
-1.25003
-1.26885
-1.28756
-1.30616
-1.32463
-1.343
-1.36124
-1.37937
-1.39739
-1.4153
-1.43313
-1.45091
-1.4687
-1.48663
-1.50478
-1.52317
-1.54156
-1.55937
-1.576
-1.59127
-1.60571
-1.62015
-1.63488
-1.64937
-1.66328
1.96587
1.95887
1.95119
1.94292
1.93449
1.92596
1.91695
1.90697
1.89592
1.88407
1.87184
1.85949
1.84712
1.8347
1.82218
1.80951
1.79666
1.78361
1.77036
1.7569
1.74323
1.72937
1.71531
1.70106
1.68662
1.67199
1.65719
1.6422
1.62705
1.61174
1.59626
1.58062
1.56483
1.5489
1.53281
1.51659
1.50024
1.48374
1.46712
1.45037
1.4335
1.41651
1.3994
1.38218
1.36485
1.34741
1.32986
1.31222
1.29447
1.27662
1.25868
1.24065
1.22253
1.20432
1.18602
1.16764
1.14918
1.13064
1.11202
1.09333
1.07456
1.05571
1.0368
1.01782
0.998768
0.979656
0.960476
0.941234
0.921929
0.902567
0.883147
0.863666
0.844131
0.824542
0.804899
0.785208
0.765459
0.745668
0.725823
0.705934
0.685996
0.666016
0.64599
0.625926
0.605813
0.585665
0.565473
0.545246
0.524978
0.504676
0.484338
0.463964
0.443558
0.423116
0.402646
0.382143
0.361609
0.341045
0.320457
0.299836
0.279194
0.258521
0.237829
0.217109
0.196366
0.175603
0.15482
0.134014
0.11319
0.0923465
0.0714867
0.0506108
0.0297165
0.00881112
-0.0121118
-0.0330431
-0.0539928
-0.0749461
-0.0959136
-0.116888
-0.137874
-0.158862
-0.179861
-0.200859
-0.221867
-0.242872
-0.263882
-0.284891
-0.3059
-0.326908
-0.34791
-0.368908
-0.389903
-0.410889
-0.431868
-0.452834
-0.473794
-0.494738
-0.515669
-0.536585
-0.557485
-0.578365
-0.599222
-0.620062
-0.640875
-0.661666
-0.682429
-0.703159
-0.723866
-0.744534
-0.765167
-0.785769
-0.806324
-0.826841
-0.847313
-0.867741
-0.888122
-0.908449
-0.928723
-0.948937
-0.969099
-0.989193
-1.00922
-1.02919
-1.04908
-1.06889
-1.08863
-1.10829
-1.12787
-1.14736
-1.16675
-1.18605
-1.20525
-1.22435
-1.24334
-1.26222
-1.28099
-1.29964
-1.31817
-1.33659
-1.35488
-1.37305
-1.39109
-1.40903
-1.42688
-1.44466
-1.46242
-1.48024
-1.49822
-1.51641
-1.53468
-1.55266
-1.56975
-1.58558
-1.6003
-1.61465
-1.62918
-1.6438
-1.65794
-1.67141
1.96984
1.96325
1.95598
1.94804
1.93974
1.93135
1.92267
1.91328
1.90288
1.89154
1.87962
1.86742
1.85514
1.84281
1.83039
1.81785
1.80513
1.79222
1.77911
1.7658
1.75227
1.73854
1.72461
1.71048
1.69615
1.68163
1.66692
1.65203
1.63697
1.62173
1.60632
1.59075
1.57502
1.55913
1.54309
1.5269
1.51057
1.49409
1.47748
1.46074
1.44386
1.42686
1.40974
1.39249
1.37513
1.35765
1.34006
1.32236
1.30456
1.28665
1.26864
1.25052
1.23232
1.21402
1.19562
1.17714
1.15856
1.1399
1.12117
1.10234
1.08344
1.06445
1.0454
1.02626
1.00706
0.987781
0.968435
0.949021
0.929541
0.909997
0.890388
0.87072
0.850988
0.831199
0.811353
0.791452
0.771492
0.751481
0.73142
0.711305
0.691141
0.670933
0.650671
0.630368
0.610017
0.589624
0.56919
0.548711
0.528196
0.507637
0.487045
0.466413
0.445747
0.425045
0.404311
0.383543
0.362744
0.341915
0.321056
0.300167
0.279255
0.258312
0.237346
0.216357
0.195343
0.174307
0.153251
0.132174
0.111079
0.0899639
0.0688363
0.0476865
0.0265279
0.00535154
-0.0158351
-0.0370336
-0.0582438
-0.0794599
-0.100691
-0.12192
-0.143161
-0.164406
-0.185652
-0.206901
-0.228154
-0.249404
-0.270653
-0.2919
-0.313145
-0.334379
-0.355611
-0.376833
-0.398046
-0.419248
-0.440437
-0.461615
-0.482775
-0.503916
-0.525042
-0.546149
-0.567231
-0.588292
-0.609324
-0.630331
-0.65131
-0.672257
-0.693173
-0.714052
-0.734896
-0.755701
-0.776461
-0.797183
-0.817855
-0.838483
-0.859056
-0.879581
-0.90005
-0.92046
-0.940808
-0.961093
-0.981317
-1.00146
-1.02154
-1.04155
-1.06147
-1.08131
-1.10107
-1.12074
-1.14031
-1.1598
-1.17917
-1.19846
-1.21763
-1.23669
-1.25564
-1.27447
-1.29318
-1.31177
-1.33024
-1.34857
-1.36679
-1.38487
-1.40285
-1.42071
-1.43849
-1.45623
-1.47399
-1.49184
-1.50984
-1.52796
-1.54596
-1.56336
-1.5797
-1.59487
-1.6093
-1.62364
-1.63817
-1.65253
-1.66627
-1.67936
1.97355
1.96737
1.96055
1.95299
1.94492
1.93665
1.9282
1.91926
1.90948
1.89872
1.88721
1.87527
1.86312
1.85089
1.83858
1.82615
1.81357
1.8008
1.78784
1.77467
1.76129
1.74769
1.7339
1.71989
1.70568
1.69128
1.67668
1.66189
1.64692
1.63176
1.61644
1.60093
1.58527
1.56943
1.55344
1.53729
1.521
1.50455
1.48795
1.47122
1.45435
1.43734
1.42021
1.40294
1.38555
1.36804
1.35041
1.33266
1.3148
1.29683
1.27875
1.26057
1.24228
1.22388
1.2054
1.18681
1.16813
1.14936
1.13049
1.11154
1.0925
1.07338
1.05418
1.03489
1.01553
0.996094
0.976581
0.956993
0.937335
0.917605
0.89781
0.877946
0.858018
0.838025
0.81797
0.797857
0.777685
0.757453
0.737166
0.716824
0.696429
0.675982
0.655483
0.634935
0.614341
0.593698
0.573012
0.552281
0.531506
0.510691
0.489836
0.468939
0.448008
0.427036
0.406034
0.384992
0.363923
0.342818
0.321684
0.300519