/*--------------------------------*- C++ -*----------------------------------*\
  =========                 |
  \\      /  F ield         | OpenFOAM: The Open Source CFD Toolbox
   \\    /   O peration     | Website:  https://openfoam.org
    \\  /    A nd           | Version:  8
     \\/     M anipulation  |
\*---------------------------------------------------------------------------*/
FoamFile
{
    version     2.0;
    format      ascii;
    class       volScalarField;
    location    "0.18";
    object      p;
}
// * * * * * * * * * * * * * * * * * * * * * * * * * * * * * * * * * * * * * //

dimensions      [0 2 -2 0 0 0 0];

internalField   nonuniform List<scalar> 
112610
(
0.780833
0.77483
0.769566
0.764354
0.759138
0.753859
0.748493
0.743047
0.73752
0.731914
0.726229
0.720468
0.714638
0.708738
0.702776
0.696751
0.690665
0.684526
0.678333
0.672089
0.665795
0.659457
0.653074
0.646649
0.640183
0.63368
0.627139
0.620562
0.613953
0.607311
0.60064
0.593939
0.587209
0.580454
0.573672
0.566866
0.560036
0.553183
0.546309
0.539416
0.532503
0.525571
0.51862
0.511651
0.504666
0.497665
0.490649
0.483618
0.476572
0.469511
0.462438
0.455352
0.448252
0.441142
0.434019
0.426885
0.419739
0.412584
0.405417
0.39824
0.391054
0.383857
0.37665
0.369433
0.362208
0.354974
0.347729
0.340477
0.333216
0.325946
0.318668
0.31138
0.304084
0.296779
0.289465
0.282144
0.274813
0.267475
0.260128
0.252772
0.245406
0.238033
0.230651
0.223262
0.215862
0.208452
0.201036
0.193608
0.186173
0.178727
0.171272
0.163809
0.156335
0.148851
0.141357
0.133855
0.126341
0.118817
0.111282
0.103738
0.0961817
0.0886154
0.0810379
0.0734487
0.0658489
0.0582387
0.0506154
0.0429803
0.0353335
0.0276763
0.0200047
0.0123211
0.00462527
-0.003084
-0.0108032
-0.0185392
-0.0262872
-0.0340464
-0.0418202
-0.0496077
-0.0574101
-0.0652246
-0.0730534
-0.0808953
-0.0887538
-0.0966248
-0.104511
-0.112411
-0.120326
-0.128256
-0.136199
-0.144158
-0.152131
-0.160119
-0.168123
-0.176142
-0.184175
-0.192223
-0.200287
-0.208365
-0.216457
-0.224564
-0.232687
-0.240823
-0.248975
-0.257141
-0.265321
-0.273514
-0.281723
-0.289944
-0.29818
-0.306428
-0.31469
-0.322963
-0.331248
-0.339545
-0.347854
-0.356175
-0.364505
-0.372845
-0.381193
-0.38955
-0.397917
-0.406292
-0.414672
-0.423058
-0.43145
-0.439843
-0.448242
-0.456641
-0.465041
-0.473442
-0.481841
-0.490239
-0.498631
-0.507015
-0.515396
-0.523765
-0.532125
-0.54047
-0.548805
-0.557121
-0.565419
-0.573695
-0.581951
-0.59018
-0.598377
-0.606545
-0.614679
-0.622777
-0.630833
-0.638843
-0.646812
-0.654739
-0.662625
-0.670468
-0.678305
-0.686228
-0.694344
-0.703672
0.783386
0.778072
0.77275
0.767458
0.762238
0.757003
0.751695
0.746307
0.740835
0.735282
0.729648
0.723938
0.718153
0.712295
0.706371
0.700383
0.694332
0.688222
0.682057
0.675836
0.669567
0.663245
0.656879
0.650468
0.644013
0.637518
0.630983
0.624409
0.617801
0.611159
0.604483
0.597776
0.591038
0.584273
0.577478
0.570657
0.563811
0.55694
0.550045
0.543128
0.53619
0.529232
0.522253
0.515254
0.508237
0.501203
0.494151
0.487084
0.479999
0.472899
0.465783
0.458655
0.451511
0.444355
0.437184
0.430002
0.422806
0.415599
0.40838
0.401149
0.393907
0.386654
0.37939
0.372115
0.364831
0.357535
0.35023
0.342915
0.33559
0.328255
0.320911
0.313557
0.306194
0.298821
0.291439
0.284047
0.276646
0.269236
0.261817
0.254388
0.24695
0.239502
0.232046
0.22458
0.217104
0.209618
0.202124
0.19462
0.187106
0.179582
0.172048
0.164504
0.156951
0.149386
0.141812
0.134228
0.126633
0.119028
0.11141
0.103784
0.0961445
0.0884967
0.080835
0.0731638
0.0654806
0.057786
0.0500797
0.0423606
0.0346306
0.0268883
0.0191336
0.0113664
0.00358659
-0.00420597
-0.0120101
-0.0198288
-0.0276598
-0.0355036
-0.0433603
-0.0512312
-0.0591153
-0.0670133
-0.0749241
-0.0828487
-0.0907876
-0.098741
-0.106707
-0.114688
-0.122683
-0.130692
-0.138715
-0.146753
-0.154805
-0.16287
-0.17095
-0.179046
-0.187154
-0.195277
-0.203415
-0.211566
-0.219731
-0.22791
-0.236104
-0.244311
-0.252531
-0.260764
-0.269012
-0.277271
-0.285544
-0.293828
-0.302126
-0.310436
-0.318757
-0.327088
-0.33543
-0.343782
-0.352146
-0.360519
-0.3689
-0.377287
-0.385684
-0.394088
-0.402498
-0.410914
-0.419335
-0.427759
-0.436186
-0.444613
-0.453043
-0.461472
-0.469901
-0.478324
-0.486745
-0.495164
-0.503572
-0.511972
-0.520363
-0.528742
-0.537106
-0.545459
-0.553789
-0.562105
-0.570397
-0.578664
-0.586907
-0.595117
-0.603296
-0.611444
-0.61955
-0.627616
-0.635639
-0.643617
-0.651551
-0.659438
-0.66729
-0.675118
-0.683016
-0.691123
-0.699389
-0.707749
0.78588
0.781101
0.775915
0.770611
0.765361
0.760144
0.754892
0.749559
0.744142
0.738645
0.733062
0.727402
0.721662
0.71585
0.709967
0.704016
0.697999
0.691923
0.685785
0.679593
0.673344
0.667046
0.660696
0.6543
0.647858
0.641374
0.634847
0.628279
0.621673
0.615031
0.608353
0.601642
0.594898
0.588124
0.581318
0.574484
0.567622
0.560734
0.55382
0.546882
0.53992
0.532937
0.525932
0.518903
0.511856
0.504788
0.497702
0.490598
0.483477
0.476337
0.469182
0.462009
0.454823
0.44762
0.440403
0.433173
0.425927
0.418669
0.411397
0.404113
0.396816
0.389506
0.382185
0.374852
0.367506
0.36015
0.352783
0.345404
0.338016
0.330615
0.323204
0.315785
0.308353
0.30091
0.293458
0.285996
0.278523
0.271041
0.263548
0.256046
0.248533
0.241009
0.233477
0.225934
0.218381
0.210817
0.203244
0.195661
0.188066
0.180463
0.172847
0.165223
0.157587
0.149941
0.142285
0.134618
0.126939
0.11925
0.111549
0.103838
0.0961145
0.0883816
0.0806354
0.0728788
0.0651099
0.0573301
0.0495382
0.0417343
0.0339176
0.0260906
0.0182487
0.0103969
0.00253057
-0.00534703
-0.0132365
-0.0211415
-0.0290572
-0.0369868
-0.0449276
-0.0528839
-0.0608527
-0.0688345
-0.0768293
-0.0848378
-0.0928603
-0.100895
-0.108945
-0.117008
-0.125085
-0.133173
-0.141277
-0.149395
-0.157526
-0.165671
-0.173829
-0.182001
-0.190187
-0.198386
-0.206598
-0.214824
-0.223062
-0.231314
-0.239578
-0.247855
-0.256145
-0.264446
-0.27276
-0.281086
-0.289422
-0.297772
-0.306131
-0.314502
-0.322881
-0.331271
-0.339669
-0.348078
-0.356494
-0.364919
-0.373349
-0.381785
-0.390228
-0.398678
-0.407131
-0.415587
-0.424046
-0.432506
-0.440969
-0.449429
-0.457888
-0.466344
-0.474798
-0.483246
-0.491688
-0.500123
-0.508548
-0.516959
-0.52536
-0.533746
-0.542117
-0.550468
-0.558801
-0.567109
-0.575394
-0.583649
-0.591878
-0.600072
-0.60823
-0.616352
-0.624433
-0.632468
-0.64046
-0.648401
-0.656301
-0.664155
-0.671973
-0.67983
-0.687833
-0.696018
-0.704142
-0.711755
0.788148
0.783907
0.779003
0.773775
0.768508
0.763294
0.758074
0.752795
0.747435
0.741992
0.736465
0.730856
0.725165
0.7194
0.713559
0.707648
0.701671
0.695627
0.689521
0.683357
0.677136
0.670858
0.664529
0.658151
0.651725
0.645253
0.638735
0.632174
0.625573
0.618933
0.612254
0.605542
0.598793
0.592009
0.585195
0.578351
0.571475
0.564572
0.55764
0.550682
0.543698
0.53669
0.529658
0.522604
0.515526
0.508426
0.501307
0.494169
0.48701
0.479832
0.472636
0.465422
0.458191
0.450944
0.443682
0.436402
0.429107
0.421798
0.414474
0.407136
0.399784
0.392417
0.385038
0.377646
0.37024
0.362823
0.355392
0.347951
0.340496
0.333031
0.325553
0.318064
0.310564
0.303051
0.295527
0.287994
0.280448
0.272891
0.265325
0.257746
0.250157
0.242557
0.234947
0.227325
0.219693
0.21205
0.204397
0.196732
0.189057
0.18137
0.173672
0.165965
0.158246
0.150516
0.142774
0.135022
0.127258
0.119484
0.111697
0.1039
0.09609
0.0882695
0.0804371
0.0725932
0.0647371
0.0568696
0.0489896
0.0410981
0.033194
0.0252788
0.0173499
0.00940893
0.0014561
-0.00650971
-0.0144873
-0.0224786
-0.0304817
-0.0384991
-0.046527
-0.0545697
-0.0626239
-0.070693
-0.0787728
-0.0868672
-0.094975
-0.103094
-0.111228
-0.119375
-0.127534
-0.135706
-0.143892
-0.15209
-0.160302
-0.168526
-0.176765
-0.185014
-0.193278
-0.201554
-0.209841
-0.218142
-0.226455
-0.234779
-0.243116
-0.251463
-0.259823
-0.268194
-0.276573
-0.284965
-0.293368
-0.30178
-0.310202
-0.318633
-0.327073
-0.335518
-0.343973
-0.352436
-0.360906
-0.36938
-0.377861
-0.386345
-0.394834
-0.403327
-0.411822
-0.420317
-0.428815
-0.437309
-0.445803
-0.454297
-0.462785
-0.471267
-0.479745
-0.488215
-0.496675
-0.505127
-0.513565
-0.521988
-0.530395
-0.538786
-0.547159
-0.555512
-0.563838
-0.57214
-0.580414
-0.588659
-0.596868
-0.605043
-0.61318
-0.621274
-0.629325
-0.637329
-0.645284
-0.653191
-0.661055
-0.66888
-0.676704
-0.684613
-0.692701
-0.700836
-0.708596
-0.715448
0.790614
0.786551
0.781954
0.776897
0.771669
0.766445
0.761245
0.756012
0.750706
0.745319
0.739849
0.734294
0.728656
0.722939
0.717145
0.711277
0.705339
0.699333
0.693262
0.687127
0.680934
0.674684
0.668378
0.66202
0.655611
0.649152
0.642647
0.636096
0.629502
0.622866
0.61619
0.609476
0.602724
0.595937
0.589115
0.582261
0.575373
0.568455
0.561507
0.55453
0.547527
0.540495
0.533437
0.526357
0.519251
0.512121
0.504969
0.497796
0.4906
0.483386
0.476149
0.468895
0.461621
0.454328
0.447019
0.439692
0.432347
0.424987
0.41761
0.410218
0.402811
0.395389
0.387951
0.380499
0.373033
0.365554
0.35806
0.350552
0.343033
0.335501
0.327955
0.320396
0.312826
0.305242
0.297647
0.290039
0.28242
0.274788
0.267145
0.259491
0.251825
0.244145
0.236456
0.228754
0.221042
0.213317
0.205582
0.197834
0.190076
0.182305
0.174523
0.16673
0.158926
0.151109
0.143282
0.135443
0.127592
0.119729
0.111855
0.103969
0.0960707
0.0881615
0.08024
0.0723062
0.0643612
0.0564036
0.0484346
0.0404526
0.032459
0.0244533
0.016435
0.00840406
0.000361643
-0.00769409
-0.0157613
-0.0238425
-0.0319346
-0.04004
-0.0481575
-0.0562893
-0.0644319
-0.0725873
-0.0807559
-0.0889376
-0.0971308
-0.105337
-0.113556
-0.121788
-0.130032
-0.138289
-0.146558
-0.154839
-0.163132
-0.171439
-0.179757
-0.188086
-0.196428
-0.204782
-0.213147
-0.221523
-0.22991
-0.238309
-0.246718
-0.255137
-0.263567
-0.272007
-0.280455
-0.288914
-0.297382
-0.305856
-0.314342
-0.322831
-0.33133
-0.339835
-0.348346
-0.356863
-0.365385
-0.373908
-0.382438
-0.390971
-0.399503
-0.408038
-0.416574
-0.425109
-0.433642
-0.442171
-0.450697
-0.459218
-0.467735
-0.476242
-0.484741
-0.493231
-0.501708
-0.510172
-0.518622
-0.527056
-0.535469
-0.543862
-0.552234
-0.560581
-0.568902
-0.577195
-0.585456
-0.593684
-0.601874
-0.610026
-0.618136
-0.626201
-0.634219
-0.642188
-0.650107
-0.65798
-0.665811
-0.673621
-0.68147
-0.689454
-0.697545
-0.705483
-0.71284
-0.719487
0.793155
0.789118
0.784746
0.779927
0.77481
0.769607
0.764414
0.759213
0.753957
0.748629
0.743214
0.737715
0.73213
0.726466
0.72072
0.714899
0.709004
0.703036
0.697003
0.690905
0.684742
0.678518
0.672238
0.665903
0.659514
0.653072
0.646581
0.640042
0.633458
0.62683
0.620158
0.613444
0.606692
0.599901
0.593074
0.586211
0.579314
0.572382
0.56542
0.558426
0.551404
0.544351
0.53727
0.530163
0.52303
0.51587
0.508687
0.501479
0.494249
0.486997
0.479723
0.472427
0.46511
0.457773
0.450417
0.443043
0.435649
0.428237
0.420809
0.413361
0.405899
0.398419
0.390923
0.383411
0.375884
0.368342
0.360784
0.353213
0.345626
0.338026
0.330411
0.322782
0.315141
0.307486
0.299816
0.292136
0.28444
0.276733
0.269012
0.261279
0.253533
0.245775
0.238005
0.230222
0.222427
0.214618
0.2068
0.198967
0.191124
0.183268
0.1754
0.167519
0.159628
0.151723
0.143807
0.135879
0.127939
0.119987
0.112022
0.104046
0.0960571
0.0880571
0.0800436
0.0720195
0.0639826
0.0559331
0.0478726
0.0397982
0.0317132
0.0236146
0.0155048
0.00738173
-0.000752499
-0.00890052
-0.0170587
-0.0252315
-0.0334157
-0.0416117
-0.0498203
-0.0580413
-0.0662749
-0.0745201
-0.0827786
-0.0910477
-0.099331
-0.107624
-0.115932
-0.124249
-0.132579
-0.140922
-0.149277
-0.157641
-0.166018
-0.174407
-0.182807
-0.191217
-0.199639
-0.208071
-0.216514
-0.224967
-0.23343
-0.241904
-0.250385
-0.258877
-0.267378
-0.275886
-0.284404
-0.29293
-0.301463
-0.310002
-0.318548
-0.327098
-0.335655
-0.344218
-0.352784
-0.361356
-0.369928
-0.378503
-0.387081
-0.395659
-0.404235
-0.412812
-0.421387
-0.42996
-0.438528
-0.44709
-0.455646
-0.464196
-0.472736
-0.481267
-0.489787
-0.498293
-0.506784
-0.51526
-0.523718
-0.532159
-0.540575
-0.548968
-0.557337
-0.565679
-0.573992
-0.58227
-0.590514
-0.598724
-0.606891
-0.615016
-0.623099
-0.63113
-0.639114
-0.647047
-0.654931
-0.662767
-0.670577
-0.678393
-0.686289
-0.694301
-0.702287
-0.709928
-0.717008
-0.723687
0.795685
0.791631
0.787425
0.782842
0.777894
0.772758
0.767584
0.762406
0.757194
0.751917
0.74656
0.741118
0.735591
0.729979
0.724285
0.718512
0.712663
0.70674
0.700745
0.694683
0.688555
0.682363
0.67611
0.669801
0.663433
0.657011
0.650537
0.644013
0.637441
0.630821
0.624154
0.617447
0.610695
0.603903
0.597072
0.590203
0.583297
0.576355
0.569379
0.562371
0.555328
0.548257
0.541153
0.534023
0.526863
0.519675
0.51246
0.505221
0.497957
0.490667
0.483353
0.476018
0.468659
0.461278
0.453876
0.446455
0.439011
0.43155
0.424068
0.416567
0.409047
0.401511
0.393956
0.386385
0.378795
0.37119
0.363569
0.355931
0.348277
0.340609
0.332924
0.325225
0.31751
0.309783
0.302039
0.294282
0.28651
0.278725
0.270926
0.263113
0.255287
0.247448
0.239594
0.231728
0.223849
0.215956
0.208052
0.200133
0.192203
0.184259
0.176303
0.168333
0.160352
0.152358
0.14435
0.136333
0.1283
0.120257
0.1122
0.104131
0.0960495
0.0879564
0.0798497
0.0717322
0.0636002
0.0554589
0.0473022
0.0391353
0.0309555
0.0227627
0.0145588
0.00634174
-0.00188653
-0.0101283
-0.0183811
-0.0266467
-0.034924
-0.0432134
-0.0515157
-0.0598292
-0.0681539
-0.0764915
-0.0848409
-0.093201
-0.101574
-0.109958
-0.118354
-0.12676
-0.135179
-0.143607
-0.152048
-0.160499
-0.168961
-0.177433
-0.185915
-0.194407
-0.202911
-0.211422
-0.219945
-0.228474
-0.237015
-0.245563
-0.25412
-0.262684
-0.271257
-0.279834
-0.288421
-0.297014
-0.305611
-0.314214
-0.322823
-0.331435
-0.340051
-0.348669
-0.357292
-0.365915
-0.37454
-0.383163
-0.391789
-0.40041
-0.409032
-0.417649
-0.426262
-0.434871
-0.443472
-0.452065
-0.46065
-0.469226
-0.47779
-0.48634
-0.494879
-0.5034
-0.511904
-0.52039
-0.528854
-0.537297
-0.545716
-0.554105
-0.562469
-0.570802
-0.579102
-0.587365
-0.595592
-0.603776
-0.611919
-0.620016
-0.628064
-0.636063
-0.644009
-0.651906
-0.659753
-0.667563
-0.675361
-0.683199
-0.691127
-0.699099
-0.706892
-0.714241
-0.721138
-0.727914
0.798144
0.79412
0.790013
0.785638
0.780896
0.775877
0.770745
0.765593
0.760417
0.755188
0.749887
0.744504
0.739035
0.733479
0.727839
0.722117
0.716317
0.710438
0.704486
0.698463
0.692372
0.686213
0.679993
0.67371
0.667368
0.660968
0.654514
0.648006
0.641447
0.634839
0.628183
0.621479
0.614732
0.607941
0.601108
0.594235
0.587323
0.580372
0.573384
0.566361
0.559304
0.552214
0.545091
0.537935
0.530751
0.523536
0.516292
0.509021
0.501723
0.494398
0.487046
0.47967
0.472271
0.464847
0.457399
0.449931
0.442439
0.434926
0.42739
0.419837
0.412262
0.404667
0.397054
0.389421
0.381771
0.374101
0.366414
0.35871
0.350988
0.34325
0.335496
0.327724
0.319937
0.312134
0.304315
0.296481
0.288632
0.280768
0.272889
0.264995
0.257086
0.249164
0.241226
0.233275
0.225311
0.217332
0.209339
0.201332
0.193314
0.185279
0.177234
0.169173
0.1611
0.153014
0.144915
0.136803
0.128678
0.12054
0.112388
0.104225
0.0960483
0.0878597
0.0796577
0.0714435
0.0632165
0.0549778
0.0467258
0.0384618
0.0301856
0.0218964
0.0135967
0.00528212
-0.00304173
-0.0113795
-0.0197284
-0.0280903
-0.0364626
-0.0448469
-0.0532444
-0.0616517
-0.0700718
-0.078503
-0.0869454
-0.0953988
-0.103863
-0.112339
-0.120825
-0.129322
-0.13783
-0.146348
-0.154876
-0.163413
-0.171962
-0.180519
-0.189086
-0.197662
-0.206246
-0.21484
-0.223441
-0.23205
-0.240668
-0.249291
-0.257923
-0.266561
-0.275205
-0.283853
-0.292508
-0.301168
-0.30983
-0.318497
-0.327169
-0.335842
-0.344516
-0.353191
-0.361868
-0.370544
-0.379218
-0.387892
-0.396563
-0.405229
-0.413891
-0.422548
-0.431199
-0.439841
-0.448474
-0.457097
-0.465709
-0.474309
-0.482894
-0.491464
-0.500018
-0.508552
-0.517066
-0.525559
-0.534027
-0.542472
-0.550887
-0.559274
-0.567626
-0.57595
-0.584232
-0.592478
-0.600682
-0.608844
-0.616957
-0.625022
-0.633037
-0.640999
-0.648907
-0.656764
-0.66458
-0.672371
-0.680172
-0.688029
-0.695954
-0.703812
-0.711358
-0.718458
-0.725273
-0.732077
0.800527
0.796567
0.792529
0.788322
0.783789
0.778934
0.773887
0.768772
0.763629
0.758443
0.753196
0.747871
0.742459
0.736962
0.73138
0.725711
0.719961
0.714131
0.708223
0.702244
0.696191
0.690071
0.683882
0.677631
0.671317
0.664941
0.658509
0.652021
0.64548
0.638884
0.632239
0.625545
0.618803
0.612015
0.605183
0.598307
0.59139
0.584433
0.577436
0.570401
0.563328
0.556222
0.549079
0.541903
0.534694
0.527454
0.520181
0.51288
0.505549
0.498189
0.4908
0.483387
0.475945
0.46848
0.460986
0.45347
0.44593
0.438366
0.43078
0.423172
0.415541
0.407889
0.400216
0.392523
0.384809
0.377076
0.369324
0.361552
0.353762
0.345954
0.338128
0.330283
0.322422
0.314543
0.306648
0.298736
0.290808
0.282863
0.274901
0.266926
0.258932
0.250926
0.242903
0.234865
0.226814
0.218745
0.210664
0.202567
0.194457
0.186332
0.178193
0.17004
0.161874
0.153692
0.145499
0.137291
0.12907
0.120836
0.112588
0.104328
0.0960536
0.0877671
0.0794668
0.071155
0.0628297
0.0544915
0.0461419
0.0377783
0.0294038
0.0210155
0.012616
0.00420447
-0.00421938
-0.0126549
-0.021102
-0.0295622
-0.038032
-0.0465146
-0.0550085
-0.0635118
-0.0720292
-0.0805547
-0.0890935
-0.0976417
-0.1062
-0.114769
-0.123347
-0.131937
-0.140535
-0.149144
-0.157762
-0.166388
-0.175024
-0.183668
-0.19232
-0.20098
-0.209648
-0.218323
-0.227005
-0.235694
-0.24439
-0.25309
-0.261797
-0.270508
-0.279224
-0.287944
-0.29667
-0.305395
-0.314125
-0.322854
-0.331587
-0.34032
-0.349053
-0.357784
-0.366515
-0.375243
-0.383967
-0.392688
-0.401404
-0.410112
-0.418816
-0.42751
-0.436197
-0.444871
-0.453534
-0.462187
-0.470823
-0.479445
-0.48805
-0.496636
-0.505203
-0.513749
-0.52227
-0.530767
-0.539237
-0.547681
-0.556091
-0.564468
-0.572813
-0.581116
-0.589384
-0.597606
-0.605788
-0.61392
-0.622003
-0.630035
-0.63801
-0.645933
-0.653805
-0.661627
-0.669415
-0.677196
-0.685004
-0.692866
-0.700725
-0.708399
-0.715694
-0.722607
-0.72939
-0.736171
0.802828
0.798963
0.794999
0.790913
0.786578
0.781906
0.776984
0.771932
0.766828
0.761685
0.756487
0.751217
0.745865
0.740429
0.734904
0.729291
0.723596
0.717817
0.711958
0.706022
0.700013
0.693932
0.68778
0.681561
0.675278
0.668931
0.662524
0.656058
0.649534
0.642957
0.636324
0.629641
0.622906
0.616124
0.609296
0.602419
0.5955
0.588538
0.581533
0.574488
0.567403
0.560281
0.55312
0.545925
0.538695
0.531428
0.52413
0.516798
0.509436
0.502042
0.494619
0.487166
0.479685
0.472176
0.464639
0.457076
0.449488
0.441875
0.434236
0.426573
0.418887
0.411177
0.403445
0.395689
0.387914
0.380116
0.372297
0.364459
0.356599
0.348719
0.340821
0.332903
0.324966
0.317011
0.309037
0.301047
0.293037
0.28501
0.276967
0.268906
0.260829
0.252735
0.244626
0.236499
0.228357
0.2202
0.212026
0.203838
0.195634
0.187416
0.179183
0.170934
0.162671
0.154395
0.146104
0.137798
0.12948
0.121146
0.1128
0.104439
0.0960657
0.0876783
0.079279
0.0708649
0.0624396
0.0540005
0.0455486
0.0370851
0.0286084
0.0201192
0.0116186
0.00310592
-0.00541884
-0.0139555
-0.0225036
-0.0310633
-0.0396333
-0.048216
-0.0568084
-0.0654124
-0.074026
-0.082651
-0.0912853
-0.099931
-0.108586
-0.117249
-0.125923
-0.134605
-0.143298
-0.151998
-0.160706
-0.169423
-0.178148
-0.18688
-0.195618
-0.204365
-0.213116
-0.221875
-0.230639
-0.239409
-0.248182
-0.256961
-0.265744
-0.274528
-0.283317
-0.292108
-0.300903
-0.309697
-0.318491
-0.327286
-0.336079
-0.344872
-0.353662
-0.36245
-0.371233
-0.380013
-0.388785
-0.397552
-0.406312
-0.415062
-0.423805
-0.432536
-0.441256
-0.449963
-0.458654
-0.467334
-0.475992
-0.484634
-0.493257
-0.501857
-0.510437
-0.518989
-0.527516
-0.536015
-0.544485
-0.552922
-0.561325
-0.569692
-0.578021
-0.586308
-0.594553
-0.602753
-0.610904
-0.619007
-0.627053
-0.635049
-0.642988
-0.650869
-0.658702
-0.666495
-0.674263
-0.682038
-0.689845
-0.697674
-0.705406
-0.712869
-0.719931
-0.72673
-0.733475
-0.740184
0.805048
0.8013
0.797422
0.793434
0.789256
0.784784
0.780017
0.77506
0.770012
0.764912
0.75976
0.754546
0.749254
0.743876
0.738412
0.732858
0.727218
0.721494
0.715687
0.709798
0.703834
0.697795
0.691683
0.685501
0.679251
0.672934
0.666555
0.660113
0.653612
0.647053
0.640437
0.633767
0.627043
0.620269
0.613446
0.606571
0.599651
0.592685
0.585676
0.578622
0.571529
0.564391
0.557216
0.550002
0.54275
0.535461
0.528137
0.520778
0.513385
0.505958
0.4985
0.49101
0.483489
0.475939
0.46836
0.46075
0.453114
0.445451
0.43776
0.430043
0.422302
0.414533
0.406742
0.398926
0.391086
0.383223
0.375338
0.36743
0.359501
0.35155
0.343577
0.335586
0.327572
0.319539
0.311488
0.303415
0.295324
0.287214
0.279086
0.27094
0.262776
0.254594
0.246394
0.238179
0.229945
0.221695
0.213429
0.205145
0.196848
0.188533
0.180203
0.171857
0.163497
0.155121
0.14673
0.138325
0.129905
0.121471
0.113023
0.10456
0.0960847
0.0875947
0.0790916
0.0705757
0.0620456
0.053503
0.0449484
0.03638
0.0278
0.0192074
0.0106026
0.00198549
-0.00664136
-0.0152825
-0.0239329
-0.0325955
-0.0412689
-0.0499521
-0.058647
-0.0673518
-0.0760666
-0.0847912
-0.0935255
-0.102269
-0.111022
-0.119784
-0.128553
-0.137331
-0.146118
-0.154911
-0.163713
-0.172522
-0.181336
-0.190158
-0.198984
-0.207817
-0.216656
-0.225498
-0.234344
-0.243196
-0.252048
-0.260905
-0.269764
-0.278624
-0.287486
-0.29635
-0.305211
-0.314072
-0.322932
-0.331791
-0.340646
-0.349499
-0.358346
-0.367188
-0.376024
-0.384854
-0.393675
-0.402486
-0.411288
-0.420082
-0.42886
-0.437627
-0.446378
-0.455114
-0.463834
-0.472537
-0.481217
-0.489876
-0.498514
-0.507127
-0.515714
-0.524273
-0.532802
-0.541301
-0.549766
-0.558197
-0.566588
-0.574941
-0.583252
-0.591519
-0.599739
-0.607912
-0.616033
-0.624099
-0.632111
-0.640067
-0.647964
-0.65581
-0.663606
-0.671368
-0.679123
-0.68689
-0.694676
-0.702422
-0.709987
-0.717212
-0.724105
-0.730827
-0.737514
-0.744124
0.807184
0.803581
0.799801
0.795895
0.79185
0.787558
0.782967
0.778137
0.773167
0.768121
0.76302
0.757858
0.752622
0.747305
0.741901
0.736409
0.730828
0.72516
0.719406
0.71357
0.707653
0.70166
0.695589
0.689446
0.683233
0.676951
0.670601
0.664187
0.657711
0.651173
0.644576
0.637922
0.631212
0.624448
0.617631
0.610762
0.603844
0.596878
0.589865
0.582807
0.575702
0.568555
0.561365
0.554135
0.546863
0.539552
0.532203
0.524818
0.517396
0.509938
0.502446
0.494921
0.48736
0.47977
0.472148
0.464493
0.456809
0.449095
0.441354
0.433584
0.425785
0.417961
0.410109
0.402232
0.394328
0.3864
0.378447
0.370471
0.362471
0.354447
0.346401
0.338333
0.330243
0.322131
0.313998
0.305845
0.29767
0.289476
0.281261
0.273028
0.264775
0.256503
0.248213
0.239904
0.231578
0.223233
0.214872
0.206493
0.198097
0.189684
0.181255
0.17281
0.164349
0.155871
0.14738
0.138871
0.130349
0.121811
0.113258
0.104691
0.0961108
0.0875156
0.0789069
0.0702843
0.0616491
0.0529995
0.0443392
0.0356638
0.0269777
0.0182784
0.00956743
0.000844943
-0.00788989
-0.0166354
-0.0253916
-0.0341601
-0.0429373
-0.0517262
-0.0605238
-0.0693331
-0.078151
-0.0869775
-0.0958135
-0.104658
-0.113511
-0.122371
-0.13124
-0.140116
-0.148998
-0.157888
-0.166783
-0.175685
-0.184592
-0.193503
-0.20242
-0.211341
-0.220266
-0.229193
-0.238124
-0.247055
-0.25599
-0.264925
-0.27386
-0.282797
-0.291731
-0.300667
-0.309598
-0.318526
-0.327453
-0.336374
-0.34529
-0.3542
-0.363104
-0.372
-0.380888
-0.389768
-0.398636
-0.407492
-0.416337
-0.425167
-0.433983
-0.442782
-0.451564
-0.460328
-0.469072
-0.477796
-0.486496
-0.495172
-0.503822
-0.512443
-0.521037
-0.529599
-0.538128
-0.546623
-0.555082
-0.563501
-0.571879
-0.580215
-0.588506
-0.596748
-0.604942
-0.613082
-0.62117
-0.6292
-0.637172
-0.645085
-0.652943
-0.660749
-0.668515
-0.676255
-0.683991
-0.691738
-0.699468
-0.707087
-0.714449
-0.72147
-0.728232
-0.734904
-0.741516
-0.747979
0.809239
0.805788
0.802122
0.798302
0.794369
0.790234
0.785825
0.781147
0.776281
0.771304
0.766258
0.761148
0.755971
0.750714
0.745374
0.739943
0.734422
0.728813
0.723116
0.717334
0.711469
0.705523
0.699498
0.693398
0.687224
0.680978
0.674662
0.668279
0.66183
0.655317
0.648741
0.642106
0.635412
0.62866
0.621853
0.614992
0.608079
0.601115
0.5941
0.587037
0.579927
0.57277
0.565568
0.558323
0.551033
0.543702
0.536332
0.52892
0.521471
0.513983
0.506459
0.498897
0.491301
0.483669
0.476005
0.468306
0.460575
0.452812
0.44502
0.437195
0.429342
0.42146
0.413548
0.405608
0.397642
0.389648
0.381627
0.373581
0.36551
0.357414
0.349292
0.341147
0.332979
0.324787
0.316572
0.308336
0.300076
0.291796
0.283494
0.275171
0.266828
0.258464
0.250082
0.241679
0.233257
0.224817
0.216357
0.20788
0.199385
0.190871
0.182342
0.173793
0.16523
0.156649
0.148052
0.139438
0.130811
0.122166
0.113507
0.104833
0.0961444
0.087441
0.0787245
0.0699926
0.0612491
0.0524907
0.0437203
0.0349361
0.0261414
0.0173314
0.00851289
-0.000319807
-0.00916265
-0.0180162
-0.0268816
-0.0357567
-0.0446417
-0.0535383
-0.0624422
-0.071357
-0.0802794
-0.0892113
-0.0981514
-0.107098
-0.116054
-0.125016
-0.133985
-0.14296
-0.151941
-0.160927
-0.16992
-0.178915
-0.187915
-0.196919
-0.205927
-0.214937
-0.223948
-0.232963
-0.241978
-0.250993
-0.260008
-0.269024
-0.278036
-0.287047
-0.296056
-0.305062
-0.314063
-0.32306
-0.33205
-0.341035
-0.350011
-0.358981
-0.367939
-0.37689
-0.385828
-0.394756
-0.40367
-0.41257
-0.421453
-0.430322
-0.439171
-0.448004
-0.456815
-0.465604
-0.47437
-0.483112
-0.491829
-0.500519
-0.509179
-0.517807
-0.526405
-0.534967
-0.543493
-0.551981
-0.560429
-0.568835
-0.577197
-0.585512
-0.593778
-0.601995
-0.610156
-0.618263
-0.626313
-0.634304
-0.642237
-0.650109
-0.657924
-0.665693
-0.673426
-0.681145
-0.688858
-0.696562
-0.704197
-0.711652
-0.718806
-0.725658
-0.732322
-0.738938
-0.745454
-0.751762
0.811207
0.80791
0.80438
0.800662
0.796824
0.792827
0.788586
0.784075
0.779339
0.774452
0.769471
0.76442
0.7593
0.754105
0.748825
0.743459
0.738001
0.732453
0.726815
0.72109
0.715279
0.709385
0.703409
0.697354
0.691222
0.685015
0.678736
0.672386
0.665967
0.659482
0.652932
0.646316
0.639642
0.632905
0.626111
0.61926
0.612354
0.605394
0.59838
0.591316
0.5842
0.577036
0.569825
0.562566
0.555262
0.547912
0.540521
0.533086
0.525611
0.518093
0.510537
0.502941
0.495309
0.487638
0.479932
0.47219
0.464414
0.456603
0.448759
0.440881
0.432973
0.425032
0.41706
0.40906
0.401029
0.392969
0.384881
0.376764
0.368621
0.36045
0.352254
0.34403
0.335782
0.327509
0.319212
0.31089
0.302545
0.294177
0.285785
0.277373
0.268938
0.26048
0.252003
0.243504
0.234985
0.226446
0.217886
0.209309
0.200711
0.192096
0.183462
0.174809
0.166139
0.157452
0.148748
0.140028
0.131291
0.122538
0.113769
0.104984
0.0961859
0.0873714
0.0785432
0.069701
0.0608447
0.0519755
0.0430924
0.0341969
0.0252892
0.0163685
0.00743638
-0.00150628
-0.010462
-0.0194261
-0.0284025
-0.0373886
-0.0463833
-0.0553892
-0.0644022
-0.0734258
-0.0824563
-0.0914937
-0.100541
-0.109593
-0.118652
-0.127718
-0.136789
-0.145866
-0.154947
-0.164033
-0.173122
-0.182215
-0.19131
-0.200408
-0.209507
-0.218608
-0.227709
-0.236809
-0.24591
-0.25501
-0.264106
-0.273202
-0.282293
-0.291379
-0.300461
-0.309539
-0.318609
-0.327673
-0.336728
-0.345776
-0.354812
-0.36384
-0.372854
-0.381856
-0.390844
-0.399819
-0.408778
-0.417719
-0.426641
-0.435545
-0.444429
-0.453289
-0.462128
-0.47094
-0.479727
-0.488486
-0.497216
-0.505918
-0.514584
-0.523219
-0.531817
-0.540375
-0.548895
-0.557374
-0.565809
-0.574198
-0.58254
-0.590832
-0.599071
-0.607255
-0.615384
-0.623454
-0.631465
-0.639413
-0.647302
-0.655131
-0.662909
-0.670641
-0.678346
-0.686034
-0.693709
-0.701341
-0.708844
-0.716111
-0.723081
-0.729794
-0.736387
-0.742924
-0.749308
-0.755461
0.813081
0.809952
0.806571
0.802966
0.79922
0.795337
0.791256
0.786915
0.782328
0.777551
0.772652
0.767668
0.762608
0.757474
0.752258
0.746955
0.741561
0.736077
0.730503
0.724838
0.719082
0.713242
0.707318
0.701311
0.695225
0.68906
0.682821
0.676507
0.670122
0.663667
0.657144
0.650555
0.6439
0.637183
0.630404
0.623566
0.616669
0.609715
0.602706
0.595642
0.588524
0.581355
0.574136
0.566866
0.559548
0.552183
0.544772
0.537315
0.529815
0.52227
0.514684
0.507057
0.499387
0.49168
0.483933
0.476147
0.468326
0.460466
0.452572
0.444643
0.436678
0.42868
0.420649
0.412586
0.40449
0.396365
0.388208
0.380021
0.371804
0.363559
0.355286
0.346984
0.338655
0.3303
0.321918
0.313512
0.305078
0.296622
0.288139
0.279634
0.271105
0.262553
0.253978
0.245382
0.236762
0.228123
0.219461
0.210781
0.202079
0.193358
0.184618
0.175858
0.16708
0.158284
0.149471
0.14064
0.131791
0.122925
0.114045
0.105147
0.0962355
0.0873065
0.0783655
0.069408
0.0604366
0.0514524
0.0424555
0.0334443
0.0244217
0.0153862
0.00633951
-0.00271812
-0.0117878
-0.0208665
-0.0299567
-0.0390548
-0.0481648
-0.0572805
-0.0664064
-0.0755394
-0.0846812
-0.0938283
-0.102984
-0.112143
-0.121311
-0.13048
-0.139657
-0.148836
-0.15802
-0.167207
-0.176395
-0.185585
-0.194778
-0.20397
-0.213164
-0.222355
-0.231547
-0.240736
-0.249922
-0.259106
-0.268286
-0.277461
-0.28663
-0.295794
-0.30495
-0.314099
-0.323239
-0.332369
-0.341491
-0.350599
-0.359695
-0.36878
-0.377848
-0.386901
-0.395938
-0.404958
-0.41396
-0.422941
-0.431901
-0.440838
-0.449753
-0.458641
-0.467503
-0.476338
-0.485143
-0.493917
-0.502659
-0.511367
-0.520041
-0.528674
-0.53727
-0.545823
-0.554333
-0.5628
-0.571219
-0.579588
-0.587906
-0.596171
-0.604379
-0.612531
-0.620624
-0.628654
-0.63662
-0.644525
-0.652369
-0.660157
-0.667894
-0.675591
-0.683263
-0.690912
-0.698527
-0.706054
-0.713399
-0.720478
-0.727274
-0.733888
-0.740416
-0.746856
-0.753089
-0.759063
0.814861
0.811901
0.808676
0.805206
0.801561
0.797786
0.79384
0.789663
0.785235
0.780591
0.775791
0.770881
0.76589
0.760819
0.755667
0.750431
0.745104
0.739685
0.734174
0.728571
0.722877
0.717094
0.711223
0.705269
0.69923
0.693113
0.686916
0.680642
0.674293
0.667871
0.661379
0.654817
0.648187
0.641491
0.634731
0.627908
0.621024
0.614079
0.607076
0.600015
0.592897
0.585725
0.5785
0.571222
0.563893
0.556513
0.549085
0.541608
0.534085
0.526514
0.518901
0.511241
0.503539
0.495794
0.488007
0.48018
0.472313
0.464406
0.456463
0.44848
0.440462
0.432405
0.424315
0.41619
0.408031
0.399837
0.391611
0.383353
0.375064
0.366744
0.358392
0.350012
0.341602
0.333163
0.324696
0.316202
0.307679
0.299131
0.290558
0.281957
0.273332
0.264684
0.256009
0.247313
0.238592
0.229849
0.221085
0.212297
0.20349
0.194659
0.185811
0.176941
0.168053
0.159145
0.150218
0.141273
0.132311
0.123331
0.114335
0.105321
0.0962934
0.0872478
0.0781884