/*--------------------------------*- C++ -*----------------------------------*\
  =========                 |
  \\      /  F ield         | OpenFOAM: The Open Source CFD Toolbox
   \\    /   O peration     | Website:  https://openfoam.org
    \\  /    A nd           | Version:  8
     \\/     M anipulation  |
\*---------------------------------------------------------------------------*/
FoamFile
{
    version     2.0;
    format      ascii;
    class       surfaceScalarField;
    location    "0.18";
    object      phi;
}
// * * * * * * * * * * * * * * * * * * * * * * * * * * * * * * * * * * * * * //

dimensions      [0 3 -1 0 0 0 0];

internalField   nonuniform List<scalar> 
225025
(
-0.00359984
0.0263998
-0.00840008
0.0708002
-0.0119999
0.1152
-0.0167997
0.1596
-0.0215994
0.204
-0.0251993
0.2484
-0.0287991
0.2916
-0.0323989
0.336
-0.0359986
0.3792
-0.0395983
0.4248
-0.0419981
0.4668
-0.0455978
0.5112
-0.0491975
0.5556
-0.0527971
0.5976
-0.0539968
0.6408
-0.0575965
0.6852
-0.0611961
0.7272
-0.0635957
0.7704
-0.0659954
0.8124
-0.067195
0.8544
-0.0707946
0.8976
-0.0719943
0.9384
-0.0743939
0.9804
-0.0755935
1.0224
-0.0779931
1.0632
-0.0791928
1.104
-0.0815924
1.146
-0.082792
1.1844
-0.0839916
1.2252
-0.0863912
1.266
-0.0875909
1.3044
-0.0887905
1.344
-0.0899901
1.3824
-0.0899897
1.4208
-0.0911893
1.4592
-0.091189
1.4964
-0.0923886
1.5348
-0.0935882
1.572
-0.0935879
1.608
-0.0947875
1.644
-0.0947871
1.68
-0.0947868
1.716
-0.0947864
1.7496
-0.0947861
1.7856
-0.0947857
1.8192
-0.0947854
1.8528
-0.094785
1.8864
-0.0935847
1.9188
-0.0935844
1.9512
-0.093584
1.9836
-0.0923837
2.0136
-0.0923834
2.046
-0.0911831
2.0748
-0.0905828
2.10564
-0.0897425
2.13468
-0.0887821
2.16336
-0.0878219
2.19168
-0.0868616
2.2194
-0.0856613
2.24652
-0.084461
2.27304
-0.0832607
2.2992
-0.0819404
2.32464
-0.0805002
2.34948
-0.0790599
2.37384
-0.0776196
2.3976
-0.0760594
2.42076
-0.0743791
2.4432
-0.0728189
2.46528
-0.0711387
2.48664
-0.0693384
2.50728
-0.0675382
2.52744
-0.065618
2.54688
-0.0636978
2.56572
-0.0616576
2.58396
-0.0596174
2.6016
-0.0576972
2.61864
-0.055537
2.63484
-0.0533768
2.65044
-0.0512166
2.66556
-0.0489365
2.67984
-0.0467763
2.69364
-0.0446161
2.7066
-0.042216
2.71884
-0.0399358
2.73072
-0.0375357
2.74164
-0.0351356
2.75196
-0.0327354
2.76168
-0.0303353
2.77068
-0.0279352
2.77896
-0.0254151
2.78652
-0.022895
2.79348
-0.0203749
2.79972
-0.0178548
2.80536
-0.0152147
2.81004
-0.0128147
2.81436
-0.0102346
2.8178
-0.00767854
2.82058
-0.00511048
2.82266
-0.00254245
2.82404
2.56072e-05
2.82475
0.00259362
2.82475
0.00516167
2.82404
0.00772968
2.82266
0.0102857
2.82058
0.0128657
2.8178
0.0152657
2.81436
0.0179057
2.81004
0.0204257
2.80536
0.0229457
2.79972
0.0254656
2.79348
0.0279856
2.78652
0.0303855
2.77896
0.0327855
2.77068
0.0351854
2.76168
0.0375854
2.75196
0.0399853
2.74164
0.0422652
2.73072
0.0446651
2.71884
0.046825
2.7066
0.0489849
2.69364
0.0512648
2.67984
0.0534247
2.66556
0.0555846
2.65044
0.0577445
2.63484
0.0596643
2.61864
0.0617042
2.6016
0.063744
2.58396
0.0656639
2.56572
0.0675837
2.54688
0.0693835
2.52744
0.0711834
2.50728
0.0728632
2.48664
0.074423
2.46528
0.0761027
2.4432
0.0776626
2.42076
0.0791023
2.3976
0.0805421
2.37384
0.0819819
2.34948
0.0833016
2.32464
0.0845014
2.2992
0.0857012
2.27304
0.0869009
2.24652
0.0878606
2.2194
0.0888204
2.19168
0.0897801
2.16336
0.0906198
2.13468
0.0912195
2.10564
0.0924192
2.0748
0.0924189
2.046
0.0936186
2.0136
0.0936182
1.9836
0.0936179
1.9512
0.0948176
1.9188
0.0948172
1.8864
0.0948169
1.8528
0.0948165
1.8192
0.0948162
1.7856
0.0948158
1.7496
0.0948155
1.716
0.0948151
1.68
0.0936147
1.644
0.0936143
1.608
0.0924139
1.572
0.0912135
1.5348
0.0912131
1.4964
0.0900127
1.4592
0.0900123
1.4208
0.0888119
1.3824
0.0876114
1.344
0.086411
1.3044
0.0840106
1.266
0.0828101
1.2252
0.0816097
1.1844
0.0792092
1.146
0.0780088
1.104
0.0756084
1.0632
0.0744079
1.0224
0.0720075
0.9804
0.070807
0.9384
0.0672065
0.8976
0.0660061
0.8544
0.0636057
0.8124
0.0612052
0.7704
0.0576048
0.7272
0.0540043
0.6852
0.0528039
0.6408
0.0492035
0.5976
0.045603
0.5556
0.0420026
0.5112
0.0396023
0.4668
0.0360019
0.4248
0.0324016
0.3792
0.0288013
0.336
0.025201
0.2916
0.0216008
0.2484
0.0168005
0.204
0.0120001
0.1596
0.00839985
0.1152
0.00360023
0.0707996
0.0264002
-0.0047989
0.0311987
-0.00959903
0.0756004
-0.0131991
0.1188
-0.0179985
0.164399
-0.0215975
0.207599
-0.0239967
0.250799
-0.0287959
0.296399
-0.0323951
0.339599
-0.0359943
0.382799
-0.0395935
0.428399
-0.0431926
0.470399
-0.0467917
0.514799
-0.0479908
0.556799
-0.0515899
0.601199
-0.0551889
0.644399
-0.0575879
0.687599
-0.0599868
0.729599
-0.0623858
0.772799
-0.0647847
0.814799
-0.0683836
0.857999
-0.0695826
0.898799
-0.0731814
0.941998
-0.0743803
0.981599
-0.0767792
1.0248
-0.0779781
1.0644
-0.080377
1.1064
-0.0815758
1.1472
-0.0839747
1.1868
-0.0851736
1.2264
-0.0851725
1.266
-0.0863714
1.3056
-0.0875702
1.3452
-0.0887691
1.3836
-0.089968
1.422
-0.0911668
1.4604
-0.0923657
1.4976
-0.0923646
1.5348
-0.0923635
1.572
-0.0935624
1.6092
-0.0935614
1.644
-0.0947603
1.6812
-0.0935592
1.7148
-0.0947581
1.7508
-0.0947571
1.7856
-0.094756
1.8192
-0.094755
1.8528
-0.094754
1.8864
-0.093553
1.9176
-0.093552
1.9512
-0.092351
1.9824
-0.09355
2.0148
-0.0911491
2.0436
-0.0911481
2.0748
-0.0905472
2.10504
-0.0897063
2.13384
-0.0888653
2.16252
-0.0877844
2.1906
-0.0867036
2.21832
-0.0856227
2.24544
-0.0845419
2.27196
-0.083221
2.29788
-0.0819002
2.32332
-0.0804594
2.34804
-0.0791386
2.37252
-0.0775778
2.39604
-0.0760171
2.4192
-0.0744563
2.44164
-0.0727756
2.4636
-0.0709749
2.48484
-0.0691742
2.50548
-0.0673735
2.52564
-0.0654528
2.54496
-0.0636522
2.56392
-0.0617316
2.58204
-0.059691
2.59956
-0.0575304
2.61648
-0.0554898
2.6328
-0.0534493
2.6484
-0.0511687
2.66328
-0.0490082
2.67768
-0.0467277
2.69136
-0.0444473
2.70432
-0.0421668
2.71656
-0.0397664
2.72832
-0.0374859
2.73936
-0.0350855
2.74956
-0.0326852
2.75928
-0.0301648
2.76816
-0.0277645
2.77656
-0.0253641
2.78412
-0.0228438
2.79096
-0.0203235
2.7972
-0.0178033
2.80284
-0.015283
2.80752
-0.0127628
2.81184
-0.0101706
2.81521
-0.00761439
2.81802
-0.00504623
2.8201
-0.00249011
2.82149
7.80221e-05
2.82218
0.00264611
2.82218
0.00520222
2.82149
0.00777029
2.8201
0.0103263
2.81802
0.0129183
2.81521
0.0154383
2.81184
0.0179583
2.80752
0.0204783
2.80284
0.0229982
2.7972
0.0255181
2.79096
0.027918
2.78412
0.0303179
2.77656
0.0328377
2.76816
0.0352375
2.75928
0.0376374
2.74956
0.0399171
2.73936
0.0423169
2.72832
0.0445966
2.71656
0.0468764
2.70432
0.0491561
2.69136
0.0513158
2.67768
0.0535954
2.66328
0.055635
2.6484
0.0576747
2.6328
0.0598342
2.61648
0.0618738
2.59956
0.0637934
2.58204
0.0655929
2.56392
0.0675124
2.54496
0.0693119
2.52564
0.0711113
2.50548
0.0729108
2.48484
0.0745902
2.4636
0.0761496
2.44164
0.0777089
2.4192
0.0792683
2.39604
0.0805877
2.37252
0.082027
2.34804
0.0833463
2.32332
0.0846655
2.29788
0.0857448
2.27196
0.086824
2.24544
0.0879032
2.21832
0.0889824
2.1906
0.0898216
2.16252
0.0906607
2.13384
0.0912598
2.10504
0.0912589
2.0748
0.0936581
2.0436
0.0924571
2.0148
0.0936562
1.9824
0.0936552
1.9512
0.0948542
1.9176
0.0948532
1.8864
0.0948522
1.8528
0.0948511
1.8192
0.0948501
1.7856
0.0936489
1.7508
0.0948479
1.7148
0.0936467
1.6812
0.0936456
1.644
0.0924444
1.6092
0.0924433
1.572
0.0924421
1.5348
0.0912409
1.4976
0.0900397
1.4604
0.0888385
1.422
0.0876372
1.3836
0.086436
1.3452
0.0852347
1.3056
0.0852335
1.266
0.0840322
1.2264
0.0816309
1.1868
0.0804296
1.1472
0.0780283
1.1064
0.076827
1.0644
0.0744257
1.0248
0.0732244
0.981602
0.069623
0.942002
0.0684217
0.898802
0.0648204
0.858002
0.0624191
0.814802
0.0600178
0.772802
0.0576165
0.729602
0.0552152
0.687602
0.0516139
0.644402
0.0480127
0.601202
0.0468115
0.556802
0.0432104
0.514802
0.0396092
0.470402
0.036008
0.428402
0.032407
0.382801
0.0288059
0.339601
0.0240048
0.296401
0.0216036
0.250801
0.0180022
0.207602
0.0132013
0.164401
0.00960144
0.1188
0.00480167
0.0755994
0.0312019
-0.00479871
0.0359975
-0.00839776
0.0791994
-0.0131979
0.1236
-0.0167976
0.167999
-0.0203963
0.211198
-0.0251946
0.255597
-0.0287931
0.299998
-0.0323917
0.343198
-0.0359903
0.386398
-0.0383889
0.430797
-0.0431873
0.475197
-0.0455858
0.517197
-0.0491842
0.560397
-0.0527826
0.604797
-0.055181
0.646797
-0.0575793
0.689997
-0.0611775
0.733197
-0.0635758
0.775197
-0.065974
0.817197
-0.0671723
0.859197
-0.0707704
0.902397
-0.0719686
0.943197
-0.0755667
0.985197
-0.0767649
1.026
-0.079163
1.0668
-0.0803612
1.1076
-0.0815593
1.1484
-0.0827574
1.188
-0.0839556
1.2276
-0.0863537
1.2684
-0.0875518
1.3068
-0.0887499
1.3464
-0.089948
1.3848
-0.0911462
1.4232
-0.0911443
1.4604
-0.0923424
1.4988
-0.0923406
1.5348
-0.0935388
1.5732
-0.0935369
1.6092
-0.0947351
1.6452
-0.0935334
1.68
-0.0947316
1.716
-0.0947298
1.7508
-0.0947279
1.7856
-0.0947263
1.8192
-0.0947245
1.8528
-0.0935228
1.8852
-0.0947211
1.9188
-0.0935194
1.95
-0.0935178
1.9824
-0.0923161
2.0136
-0.0923145
2.0436
-0.0923129
2.0748
-0.0905113
2.10324
-0.0896697
2.133
-0.0887082
2.16156
-0.0877468
2.18964
-0.0867852
2.21736
-0.0855838
2.24424
-0.0843823
2.27076
-0.0830609
2.29656
-0.0817396
2.322
-0.0805382
2.34684
-0.0789768
2.37096
-0.0775355
2.3946
-0.0759742
2.41764
-0.0742931
2.43996
-0.0726118
2.46192
-0.0709306
2.48316
-0.0692494
2.5038
-0.0673282
2.52372
-0.0655272
2.54316
-0.063486
2.56188
-0.061565
2.58012
-0.059644
2.59764
-0.057603
2.61444
-0.055442
2.63064
-0.0532811
2.64624
-0.0511202
2.66112
-0.0489594
2.67552
-0.0466785
2.68908
-0.0443977
2.70204
-0.0421168
2.71428
-0.0398361
2.72604
-0.0374355
2.73696
-0.0350347
2.74716
-0.0326341
2.75688
-0.0302335
2.76576
-0.0277128
2.77404
-0.0251924
2.7816
-0.0227918
2.78856
-0.0202713
2.79468
-0.0177509
2.80032
-0.0152304
2.805
-0.0127101
2.80932
-0.0101298
2.81263
-0.00757348
2.81546
-0.00500522
2.81753
-0.00243692
2.81892
0.000131292
2.81962
0.00269946
2.81962
0.00526754
2.81892
0.00783567
2.81753
0.0103918
2.81546
0.0129718
2.81263
0.0154919
2.80932
0.0180118
2.805
0.0205317
2.80032
0.0230516
2.79468
0.0254514
2.78856
0.0279713
2.7816
0.030491
2.77404
0.0328908
2.76576
0.0352905
2.75688
0.0376901
2.74716
0.0400898
2.73696
0.0423694
2.72604
0.044649
2.71428
0.0469285
2.70204
0.0492079
2.68908
0.0513675
2.67552
0.0535268
2.66112
0.0556863
2.64624
0.0578456
2.63064
0.0598849
2.61444
0.0618042
2.59764
0.0637234
2.58012
0.0657626
2.56188
0.0675618
2.54316
0.0694809
2.52372
0.07116
2.5038
0.0728391
2.48316
0.074518
2.46192
0.0761971
2.43996
0.077756
2.41764
0.0791949
2.3946
0.0807538
2.37096
0.0819526
2.34684
0.0832714
2.322
0.0845903
2.29656
0.085789
2.27076
0.0869877
2.24424
0.0879463
2.21736
0.0889049
2.18964
0.0898636
2.16156
0.0907021
2.133
0.0925007
2.10324
0.0924992
2.0748
0.0924976
2.0436
0.093696
2.0136
0.0936944
1.9824
0.0948928
1.95
0.0936911
1.9188
0.0948894
1.8852
0.0948877
1.8528
0.094886
1.8192
0.0948841
1.7856
0.0948823
1.7508
0.0936805
1.716
0.0948787
1.68
0.0936768
1.6452
0.0936748
1.6092
0.0924728
1.5732
0.0924709
1.5348
0.0912689
1.4988
0.0912669
1.4604
0.0900649
1.4232
0.0888628
1.3848
0.0876607
1.3464
0.0864586
1.3068
0.0840564
1.2684
0.0828543
1.2276
0.0816522
1.188
0.0804501
1.1484
0.0792479
1.1076
0.0768457
1.0668
0.0756436
1.026
0.0720413
0.985204
0.0708392
0.943204
0.0672369
0.902404
0.0660348
0.859204
0.0636326
0.817204
0.0612305
0.775204
0.0576283
0.733204
0.0552262
0.690004
0.0528241
0.646804
0.0492219
0.604804
0.0456199
0.560404
0.0432179
0.517204
0.0384158
0.475204
0.0360139
0.430803
0.0324119
0.386403
0.02881
0.343203
0.0252079
0.300003
0.0204055
0.255604
0.0168036
0.211204
0.0132031
0.168002
0.00840341
0.1236
0.00480199
0.0792008
0.0360039
-0.00359872
0.0395962
-0.00839683
0.0839975
-0.0131964
0.1284
-0.0167964
0.171599
-0.0215951
0.215996
-0.025193
0.259195
-0.0287908
0.303595
-0.0323887
0.346796
-0.0359867
0.389996
-0.0395846
0.434395
-0.0419825
0.477595
-0.0455803
0.520795
-0.049178
0.563995
-0.0515758
0.607195
-0.0551734
0.650395
-0.057571
0.692395
-0.0599686
0.735594
-0.0623662
0.777594
-0.0659636
0.820794
-0.0683611
0.861594
-0.0695587
0.903594
-0.0719561
0.945594
-0.0743535
0.987594
-0.0755509
1.02719
-0.0779483
1.06919
-0.0791457
1.10879
-0.081543
1.15079
-0.0827404
1.18919
-0.0851377
1.22999
-0.0863351
1.26959
-0.0875325
1.30799
-0.0875299
1.34639
-0.0887273
1.38599
-0.0899246
1.42439
-0.0911219
1.46159
-0.0911194
1.49879
-0.0935167
1.53719
-0.0935141
1.57319
-0.0935115
1.60919
-0.093509
1.64519
-0.0947064
1.68119
-0.0947039
1.71599
-0.0947015
1.75079
-0.0946989
1.78559
-0.0946964
1.81919
-0.094694
1.85279
-0.0946915
1.88519
-0.0934892
1.91759
-0.0934868
1.94999
-0.0934844
1.98239
-0.0922822
2.01239
-0.0922799
2.04359
-0.0910776
2.07359
-0.0904753
2.10263
-0.0896332
2.13216
-0.088671
2.1606
-0.0878288
2.1888
-0.0866268
2.21616
-0.0855447
2.24316
-0.0843427
2.26956
-0.0831406
2.29536
-0.0818186
2.32068
-0.0803767
2.3454
-0.0789349
2.36952
-0.0774929
2.39316
-0.0758111
2.41596
-0.0743693
2.43852
-0.0726877
2.46024
-0.0708858
2.48136
-0.0690841
2.502
-0.0672826
2.52192
-0.065481
2.54136
-0.0635594
2.55996
-0.061518
2.57808
-0.0594765
2.5956
-0.0574351
2.6124
-0.0553937
2.6286
-0.0532324
2.64408
-0.0511912
2.65908
-0.0489098
2.67324
-0.0466286
2.6868
-0.0443475
2.69976
-0.0421865
2.71212
-0.0397854
2.72364
-0.0373843
2.73456
-0.0349833
2.74476
-0.0325824
2.75448
-0.0301816
2.76336
-0.0276607
2.77152
-0.02526
2.7792
-0.0227392
2.78604
-0.0202185
2.79216
-0.0176978
2.7978
-0.0151773
2.80248
-0.0125367
2.80668
-0.0100762
2.81017
-0.00750774
2.81289
-0.00495137
2.81497
-0.00238304
2.81635
0.000185259
2.81705
0.0027535
2.81705
0.00532172
2.81635
0.0078779
2.81497
0.0104459
2.8129
0.012906
2.81017
0.015546
2.80668
0.018066
2.80248
0.0205858
2.7978
0.0231056
2.79216
0.0256254
2.78604
0.0280252
2.7792
0.0305449
2.77152
0.0329445
2.76336
0.0353441
2.75448
0.0377437
2.74476
0.0401431
2.73456
0.0425425
2.72364
0.0447019
2.71212
0.0469813
2.69976
0.0492606
2.6868
0.0515397
2.67324
0.053579
2.65908
0.0557381
2.64408
0.0577771
2.6286
0.0598162
2.6124
0.0618551
2.5956
0.0638941
2.57808
0.0658129
2.55996
0.0676117
2.54136
0.0694105
2.52192
0.0712092
2.502
0.0730078
2.48136
0.0746864
2.46024
0.076125
2.43852
0.0778035
2.41596
0.0792419
2.39316
0.0806804
2.36952
0.0821188
2.3454
0.083437
2.32068
0.0846352
2.29536
0.0858335
2.26956
0.0869116
2.24316
0.0881097
2.21616
0.0889478
2.1888
0.0899058
2.1606
0.0907438
2.13216
0.0913417
2.10264
0.0925395
2.0736
0.0925373
2.0436
0.0937352
2.0124
0.0937328
1.98241
0.0937305
1.95001
0.0949283
1.91761
0.0949258
1.88521
0.0949234
1.85281
0.0949209
1.81921
0.0949183
1.78561
0.0949158
1.75081
0.0949133
1.71601
0.0937105
1.68121
0.0937079
1.64521
0.0937052
1.60921
0.0937025
1.57321
0.0912996
1.53721
0.0912968
1.49881
0.0900939
1.46161
0.088891
1.42441
0.0876881
1.38601
0.0876853
1.34641
0.0864823
1.30801
0.0852794
1.26961
0.0828763
1.23001
0.0816733
1.18921
0.0792702
1.15081
0.0780673
1.10881
0.0756642
1.06921
0.0744611
1.02721
0.072058
0.987607
0.0696549
0.945607
0.0684519
0.903607
0.0660489
0.861607
0.0624457
0.820807
0.0600427
0.777607
0.0576397
0.735607
0.0552367
0.692407
0.0516337
0.650407
0.0492307
0.607207
0.0456278
0.564007
0.0420249
0.520806
0.0396221
0.477606
0.0360192
0.434406
0.0324164
0.390006
0.0288135
0.346806
0.0252103
0.303607
0.0216073
0.259207
0.0168055
0.216005
0.0132054
0.171602
0.00840487
0.1284
0.00360198
0.0840037
0.0396059
-0.00479861
0.0443948
-0.00959618
0.0887951
-0.0131949
0.131998
-0.0167948
0.175199
-0.0203939
0.219595
-0.0251917
0.263993
-0.0287888
0.307192
-0.032386
0.350393
-0.0359833
0.393593
-0.0395806
0.437993
-0.0431778
0.481192
-0.0467749
0.524392
-0.0491721
0.566392
-0.0527691
0.610792
-0.0551661
0.652792
-0.058763
0.695991
-0.0611599
0.737991
-0.0635568
0.779991
-0.0647537
0.821991
-0.0683504
0.865191
-0.0707471
0.905991
-0.0731438
0.947991
-0.0743405
0.988791
-0.0767371
1.02959
-0.0779339
1.07039
-0.0803304
1.11119
-0.0815271
1.15199
-0.0827237
1.19039
-0.0839203
1.23119
-0.0851169
1.27079
-0.0863135
1.30919
-0.08871
1.34879
-0.0899066
1.38719
-0.0899032
1.42439
-0.0910998
1.46279
-0.0922964
1.49999
-0.0922931
1.53719
-0.0922898
1.57319
-0.0934864
1.61039
-0.0934831
1.64519
-0.0934798
1.68119
-0.0946765
1.71719
-0.0946732
1.75079
-0.09467
1.78559
-0.0946667
1.81919
-0.0934637
1.85159
-0.0934605
1.88519
-0.0946573
1.91879
-0.0934543
1.94879
-0.0922513
1.98119
-0.0922481
2.01239
-0.0910452
2.04239
-0.0910423
2.07359
-0.0904394
2.10203
-0.0895965
2.13131
-0.0887536
2.15975
-0.0876708
2.18771
-0.0865881
2.21507
-0.0855054
2.24207
-0.0843028
2.26835
-0.0831001
2.29415
-0.0817775
2.31935
-0.0803351
2.34395
-0.0790125
2.36819
-0.0774501
2.39159
-0.0758877
2.41439
-0.0742054
2.43683
-0.0725231
2.45855
-0.0708409
2.47967
-0.0691587
2.50031
-0.0673565
2.52011
-0.0653145
2.53931
-0.0635126
2.55815
-0.0615904
2.57615
-0.0595487
2.59355
-0.0575067
2.61035
-0.055345
2.62644
-0.0531832
2.64192
-0.0510215
2.65692
-0.0488598
2.67108
-0.0465784
2.68452
-0.0442968
2.69748
-0.0420153
2.70984
-0.0396139
2.72124
-0.0373326
2.73228
-0.0349314
2.74236
-0.03253
2.75208
-0.0300089
2.76084
-0.0277278
2.76924
-0.0250868
2.77656
-0.0226858
2.78364
-0.020165
2.78964
-0.0176441
2.79528
-0.0151235
2.79996
-0.0126027
2.80416
-0.0100101
2.80758
-0.00746555
2.81035
-0.00489692
2.8124
-0.00232849
2.81378
0.000239898
2.81448
0.00280822
2.81448
0.0053765
2.81378
0.00794459
2.8124
0.0104888
2.81035
0.0130809
2.80758
0.0156008
2.80416
0.0181208
2.79996
0.0206406
2.79528
0.0231605
2.78964
0.0255602
2.78364
0.0281999
2.77656
0.0304795
2.76924
0.032999
2.76084
0.0353984
2.75208
0.0377978
2.74236
0.0400772
2.73228
0.0424764
2.72124
0.0447555
2.70984
0.0470346
2.69748
0.0493138
2.68452
0.0514727
2.67108
0.0536316
2.65692
0.0557904
2.64192
0.0579493
2.62644
0.0599879
2.61036
0.0620267
2.59356
0.0639451
2.57616
0.0657436
2.55816
0.0677822
2.53932
0.0695805
2.52012
0.0712588
2.50032
0.0729371
2.47968
0.0746152
2.45856
0.0762934
2.43685
0.0778514
2.41441
0.0794094
2.39161
0.0807272
2.36821
0.0821651
2.34397
0.0834829
2.31937
0.0846806
2.29417
0.0858783
2.26837
0.0869558
2.24209
0.0880334
2.21509
0.0891109
2.18773
0.0899482
2.15977
0.0907856
2.13133
0.0913828
2.10205
0.0913801
2.07361
0.0925773
2.04241
0.0925743
2.01241
0.0937714
1.98121
0.0949684
1.94881
0.0937652
1.91881
0.0937621
1.88521
0.0949591
1.85161
0.0949558
1.81921
0.0949525
1.78561
0.0949492
1.75081
0.0937457
1.71721
0.0937423
1.68121
0.0937388
1.64521
0.0925352
1.61041
0.0925318
1.57321
0.0925282
1.53721
0.0913245
1.50001
0.0901208
1.46281
0.0901172
1.42441
0.0889134
1.38721
0.0865095
1.34881
0.0853057
1.30921
0.0841018
1.27081
0.0828979
1.23121
0.0816941
1.19041
0.0804902
1.15201
0.0780862
1.11121
0.0768824
1.07041
0.0744784
1.02961
0.0732745
0.988811
0.0708705
0.948011
0.0684665
0.906011
0.0648624
0.865211
0.0636586
0.822011
0.0612547
0.780011
0.0588508
0.738011
0.0552469
0.696011
0.0528431
0.652811
0.0492392
0.610811
0.0468355
0.56641
0.0432316
0.52441
0.0396279
0.48121
0.0360242
0.43801
0.0324204
0.39361
0.0288165
0.35041
0.0252124
0.307211
0.0204091
0.26401
0.0168079
0.219607
0.0132078
0.175202
0.0096059
0.132002
0.00480216
0.0888074
0.044408
-0.00479853
0.0491933
-0.008396
0.0923926
-0.0131937
0.136796
-0.0179929
0.179998
-0.0215923
0.223195
-0.0251904
0.267591
-0.0287872
0.310789
-0.0323837
0.353989
-0.0371802
0.398389
-0.039577
0.440389
-0.0431735
0.484789
-0.0455701
0.526789
-0.0491666
0.569989
-0.051563
0.613188
-0.0551593
0.656388
-0.0575556
0.698388
-0.0599518
0.740388
-0.0635478
0.783587
-0.0659439
0.824387
-0.0671401
0.866387
-0.0695361
0.908387
-0.071932
0.950387
-0.0743279
0.991187
-0.0767238
1.03199
-0.0779197
1.07159
-0.0803155
1.11359
-0.0815114
1.15319
-0.0839072
1.19279
-0.085103
1.23239
-0.0862989
1.27199
-0.0874947
1.31039
-0.0886904
1.34999
-0.0886864
1.38719
-0.0898822
1.42559
-0.091078
1.46399
-0.0922737
1.50119
-0.0922697
1.53719
-0.0934655
1.57439
-0.0934614
1.61039
-0.0946572
1.64639
-0.0946532
1.68119
-0.0946491
1.71719
-0.0946452
1.75079
-0.0946412
1.78559
-0.0946372
1.81919
-0.0946333
1.85159
-0.0946294
1.88519
-0.0934256
1.91759
-0.0934217
1.94879
-0.0934179
1.98119
-0.0922143
2.01119
-0.0922105
2.04239
-0.0910068
2.07239
-0.0904033
2.10143
-0.0895597
2.13047
-0.0885962
2.15879
-0.0876328
2.18675
-0.0866692
2.21411
-0.0854659
2.24087
-0.0842626
2.26715
-0.0830595
2.29295
-0.0817362
2.31803
-0.0804131
2.34263
-0.07885
2.36663
-0.0772871
2.39003
-0.0758441
2.41295
-0.0742811
2.43527
-0.0725982
2.45687
-0.0709154
2.47799
-0.0689928
2.49839
-0.0671903
2.51831
-0.0653875
2.53751
-0.0634651
2.55623
-0.0614227
2.57411
-0.0593802
2.59151
-0.0573379
2.60831
-0.0552957
2.62439
-0.0532535
2.63987
-0.0509714
2.65463
-0.0486895
2.66879
-0.0465274
2.68235
-0.0443654
2.69531
-0.0419637
2.70743
-0.0396821
2.71895
-0.0371605
2.72975
-0.0348788
2.74007
-0.0324773
2.74968
-0.0300759
2.75844
-0.0275546
2.76672
-0.0251533
2.77416
-0.0225121
2.781
-0.0201109
2.78724
-0.01759
2.79276
-0.0150688
2.79744
-0.0125482
2.80164
-0.00996708
2.805
-0.00739842
2.80778
-0.0048418
2.80985
-0.00227327
2.81121
0.000295213
2.81191
0.00286362
2.81191
0.00543197
2.81121
0.00798824
2.80985
0.0105565
2.80778
0.0131363
2.805
0.0156565
2.80164
0.0181762
2.79744
0.0206961
2.79276
0.0230958
2.78724
0.0257355
2.781
0.028135
2.77416
0.0306545
2.76672
0.033054
2.75844
0.0354533
2.74968
0.0377325
2.74008
0.0402517
2.72976
0.0425308
2.71896
0.0449299
2.70744
0.0470888
2.69532
0.0492474
2.68236
0.0515263
2.6688
0.0538049
2.65464
0.0558435
2.63988
0.057882
2.6244
0.0599204
2.60833
0.0619586
2.59153
0.0639969
2.57413
0.0659151
2.55625
0.0677129
2.53753
0.069511
2.51833
0.071429
2.49841
0.0731068
2.47801
0.0747845
2.45689
0.076342
2.43529
0.0777795
2.41297
0.0793372
2.39005
0.0808945
2.36665
0.0822119
2.34265
0.083529
2.31805
0.0847264
2.29297
0.0859234
2.26717
0.0871205
2.24089
0.0880772
2.21413
0.0890341
2.18677
0.0899909
2.15881
0.0908276
2.13049
0.0914243
2.10145
0.0926208
2.07241
0.0926172
2.04241
0.0938137
2.01121
0.09381
1.98121
0.0938063
1.94881
0.0950025
1.91761
0.0949986
1.88521
0.0949946
1.85161
0.0949907
1.81921
0.0949866
1.78561
0.0949825
1.75081
0.0949783
1.71721
0.0949742
1.68121
0.0937698
1.64641
0.0937655
1.61041
0.092561
1.57441
0.0925566
1.53721
0.0913521
1.50121
0.0901475
1.46401
0.0889429
1.42561
0.0889384
1.38721
0.0877336
1.35002
0.086529
1.31042
0.0853242
1.27202
0.0841195
1.23242
0.0817147
1.19282
0.0805099
1.15322
0.078105
1.11362
0.0769002
1.07162
0.0744953
1.03202
0.0720904
0.991216
0.0696854
0.950416
0.0672806
0.908416
0.0660759
0.866416
0.0636711
0.824416
0.0600661
0.783616
0.0576613
0.740416
0.0552566
0.698416
0.0516518
0.656415
0.0492472
0.613215
0.0456425
0.570015
0.0432379
0.526815
0.0396333
0.484815
0.0372288
0.440415
0.0324239
0.398415
0.028819
0.354015
0.0252144
0.310815
0.0216116
0.267613
0.0180109
0.223207
0.0132097
0.180003
0.00840621
0.136806
0.0048023
0.0924114
0.0492103
-0.00359862
0.0527919
-0.00839592
0.0971899
-0.0119929
0.140393
-0.0167912
0.184796
-0.0215905
0.227994
-0.0251889
0.271189
-0.0287857
0.314386
-0.0323817
0.357585
-0.0359777
0.401985
-0.0395737
0.443985
-0.0419697
0.487185
-0.0455656
0.530385
-0.0491614
0.573584
-0.052757
0.616784
-0.0551527
0.658784
-0.0575484
0.700783
-0.0611438
0.743983
-0.0623394
0.784783
-0.0659347
0.827983
-0.06833
0.868782
-0.0707252
0.910782
-0.0719206
0.951582
-0.0743157
0.993582
-0.075511
1.03318
-0.0791059
1.07518
-0.0791012
1.11358
-0.0814962
1.15558
-0.0826912
1.19398
-0.0838863
1.23358
-0.0850814
1.27318
-0.0874762
1.31278
-0.0874714
1.34998
-0.0898662
1.38958
-0.0910612
1.42678
-0.0910564
1.46398
-0.0910515
1.50118
-0.0922465
1.53838
-0.0934415
1.57558
-0.0934366
1.61038
-0.0934319
1.64638
-0.0946269
1.68238
-0.0934222
1.71598
-0.0946172
1.75198
-0.0946125
1.78558
-0.0934078
1.81798
-0.0946031
1.85278
-0.0945983
1.88518
-0.0933938
1.91638
-0.0933893
1.94878
-0.0933847
1.98118
-0.0933802
2.01118
-0.0921758
2.04118
-0.0909715
2.07118
-0.0903672
2.10082
-0.0894029
2.1295
-0.0885586
2.15794
-0.0875945
2.18578
-0.0865105
2.21302
-0.0854265
2.23979
-0.0842225
2.26595
-0.0830185
2.29175
-0.0816947
2.31671
-0.0802509
2.34119
-0.0788073
2.36519
-0.0773636
2.38859
-0.0758
2.41139
-0.0741167
2.43359
-0.0725533
2.45531
-0.0707499
2.47619
-0.0690666
2.49671
-0.0671434
2.51639
-0.0653404
2.53571
-0.0632973
2.55419
-0.0613744
2.57219
-0.0594516
2.58959
-0.0572888
2.60615
-0.055246
2.62235
-0.0530834
2.63771
-0.0509209
2.65247
-0.0487584
2.66663
-0.0465962
2.68019
-0.0441939
2.69291
-0.0419118
2.70515
-0.0395096
2.71655
-0.0372275
2.72747
-0.0348257
2.73767
-0.0324239
2.74727
-0.0300222
2.75603
-0.0275004
2.76419
-0.025099
2.77175
-0.0225776
2.77847
-0.0200562
2.78472
-0.0175348
2.79024
-0.0150138
2.79492
-0.0123726
2.799
-0.00991174
2.80254
-0.00735473
2.80522
-0.004786
2.80728
-0.00221736
2.80865
0.000351219
2.80934
0.00291971
2.80934
0.00548813
2.80865
0.00805647
2.80728
0.0106125
2.80523
0.0130727
2.80254
0.0157126
2.799
0.0182326
2.79492
0.0207523
2.79024
0.023272
2.78472
0.0257915
2.77848
0.0281912
2.77176
0.0307104
2.7642
0.0331097
2.75604
0.0355089
2.74728
0.0379081
2.73768
0.0401869
2.72748
0.0425857
2.71656
0.0448646
2.70516
0.0472632
2.69292
0.0494219
2.68021
0.0515804
2.66665
0.0537388
2.65249
0.055897
2.63773
0.057935
2.62237
0.0600931
2.60617
0.0620112
2.58961
0.0639291
2.57221
0.0659667
2.55421
0.0677645
2.53573
0.069682
2.51641
0.0713594
2.49673
0.0731567
2.47621
0.074714
2.45533
0.0763913
2.43361
0.0779484
2.41141
0.0793852
2.38861
0.0808223
2.36521
0.082259
2.34121
0.0835757
2.31673
0.0847722
2.29177
0.0859686
2.26597
0.0870451
2.23981
0.0881215
2.21305
0.0890777
2.18581
0.0899137
2.15797
0.0908698
2.12953
0.0914657
2.10085
0.0926616
2.07122
0.0938575
2.04122
0.0938531
2.01122
0.0938487
1.98122
0.0938442
1.94882
0.0950398
1.91642
0.0950351
1.88522
0.0938302
1.85282
0.0950256
1.81802
0.0950208
1.78562
0.0938156
1.75202
0.0950108
1.71602
0.0938055
1.68242
0.0938006
1.64642
0.0937954
1.61042
0.0925901
1.57562
0.0913847
1.53842
0.0913794
1.50122
0.0913741
1.46402
0.0901686
1.42682
0.0877629
1.38962
0.0877575
1.35002
0.0853516
1.31282
0.0841461
1.27322
0.0829405
1.23362
0.0817348
1.19402
0.0793289
1.15562
0.0793234
1.11362
0.0757174
1.07522
0.0745118
1.03322
0.072106
0.993622
0.0709004
0.951622
0.0684946
0.910822
0.0660888
0.868822
0.0624829
0.828022
0.0612774
0.784821
0.0576716
0.744021
0.055266
0.700821
0.0528605
0.658821
0.0492548
0.616821
0.0456492
0.573621
0.0420436
0.53042
0.0396382
0.48722
0.0360327
0.44402
0.032427
0.40202
0.0288213
0.357621
0.0252167
0.31442
0.0216145
0.271215
0.0168135
0.228008
0.012011
0.184806
0.00840638
0.14041
0.00360218
0.0972156
0.0528125
-0.00479834
0.0575903
-0.0095957
0.101987
-0.0131923
0.14399
-0.0167897
0.188394
-0.0203886
0.231593
-0.0239873
0.274788
-0.0287842
0.319183
-0.03238
0.361181
-0.0359754
0.405581
-0.0395707
0.447581
-0.043166
0.49078
-0.0467612
0.53398
-0.0491565
0.57598
-0.0515517
0.619179
-0.0551466
0.662379
-0.0575415
0.703178
-0.0599364
0.746378
-0.0635311
0.788378
-0.0647259
0.829177
-0.0683203
0.872377
-0.0695151
0.911977
-0.0731093
0.955176
-0.0743039
0.994776
-0.0766982
1.03558
-0.0778926
1.07638
-0.0802869
1.11598
-0.0814812
1.15678
-0.0826756
1.19518
-0.0850697
1.23598
-0.0862639
1.27438
-0.0862584
1.31278
-0.0886524
1.35238
-0.0886467
1.38958
-0.0898409
1.42798
-0.0910351
1.46518
-0.0922293
1.50238
-0.0922236
1.53838
-0.0922179
1.57558
-0.0934122
1.61158
-0.0946063
1.64758
-0.0934009
1.68118
-0.0945951
1.71718
-0.0945896
1.75198
-0.094584
1.78558
-0.0945785
1.81798
-0.094573
1.85278
-0.0933677
1.88398
-0.094562
1.91758
-0.0933568
1.94758
-0.0921517
1.97998
-0.0921464
2.01118
-0.092141
2.04118
-0.0909361
2.06998
-0.0903309
2.10022
-0.089486
2.12866
-0.088641
2.1571
-0.0875562
2.1847
-0.0865915
2.21206
-0.0853867
2.23858
-0.0843019
2.26486
-0.0828575
2.2903
-0.081533
2.31538
-0.0802087
2.33986
-0.0788842
2.36386
-0.07732
2.38702
-0.0757558
2.40982
-0.0741917
2.43202
-0.0723877
2.4535
-0.0707039
2.4745
-0.0689001
2.4949
-0.0670962
2.51458
-0.0651727
2.53379
-0.0633691
2.55239
-0.0614457
2.57027
-0.0592822
2.58743
-0.057359
2.60423
-0.0551958
2.62019
-0.0530328
2.63555
-0.05087
2.65031
-0.0487069
2.66447
-0.0464243
2.67791
-0.0441416
2.69063
-0.0418589
2.70287
-0.0395766
2.71427
-0.0371741
2.72507
-0.0347719
2.73527
-0.0323698
2.74487
-0.0298476
2.75351
-0.0274459
2.76179
-0.0249239
2.76923
-0.0225222
2.77607
-0.0200008
2.78219
-0.0174792
2.78771
-0.014958
2.79239
-0.0124366
2.79647
-0.00984355
2.79994
-0.0072866
2.80267
-0.0047295
2.80472
-0.00216075
2.80608
0.000407931
2.80677
0.00297651
2.80677
0.00554501
2.80608
0.00810116
2.80472
0.0106574
2.80267
0.0132496
2.79995
0.0157695
2.79648
0.0182895
2.7924
0.0208092
2.78772
0.023329
2.7822
0.0257285
2.77608
0.0282477
2.76924
0.0306472
2.7618
0.0331661
2.75352
0.0355652
2.74488
0.0379642
2.73528
0.0403629
2.72509
0.0426417
2.71429
0.0449201
2.70289
0.0471985
2.69065
0.049477
2.67793
0.0516349
2.66449
0.0537932
2.65033
0.0559512
2.63557
0.0581091
2.62021
0.0600268
2.60425
0.0621843
2.58745
0.0641018
2.57029
0.0658991
2.55241
0.0678164
2.53381
0.0696135
2.51461
0.0714104
2.49493
0.0730875
2.47453
0.0748843
2.45353
0.0764409
2.43205
0.0779975
2.40985
0.079554
2.38705
0.0808701
2.3639
0.0821864
2.3399
0.0835026
2.31542
0.0849387
2.29034
0.0860144
2.2649
0.0872101
2.23862
0.0881659
2.2121
0.0892414
2.18474
0.0900768
2.15714
0.0909123
2.1287
0.0915074
2.10026
0.0927028
2.07002
0.0926976
2.04122
0.0926925
2.01122
0.0938875
1.98002
0.0950824
1.94762
0.0938767
1.91762
0.0950715
1.88402
0.0950659
1.85282
0.0950604
1.81802
0.0950546
1.78562
0.095049
1.75202
0.0938429
1.71722
0.0950374
1.68122
0.0938311
1.64763
0.092625
1.61163
0.0926189
1.57563
0.0926127
1.53843
0.0914065
1.50243
0.0902001
1.46523
0.0889937
1.42803
0.0889874
1.38963
0.0865807
1.35243
0.0865744
1.31283
0.0853679
1.27443
0.0829611
1.23603
0.0817546
1.19523
0.080548
1.15683
0.0781413
1.11603
0.0769347
1.07643
0.0745279
1.03563
0.0733215
0.994828
0.0697144
0.955229
0.068508
0.912028
0.0649011
0.872428
0.0636946
0.829228
0.0600879
0.788428
0.0576814
0.746428
0.0552749
0.703228
0.0516683
0.662428
0.0492619
0.619227
0.0468556
0.576027
0.0432492
0.534027
0.0396428
0.490827
0.0360363
0.447627
0.0324297
0.405627
0.0288237
0.361227
0.0240193
0.319224
0.0204174