/*--------------------------------*- C++ -*----------------------------------*\
  =========                 |
  \\      /  F ield         | OpenFOAM: The Open Source CFD Toolbox
   \\    /   O peration     | Website:  https://openfoam.org
    \\  /    A nd           | Version:  8
     \\/     M anipulation  |
\*---------------------------------------------------------------------------*/
FoamFile
{
    version     2.0;
    format      ascii;
    class       volVectorField;
    location    "0.18";
    object      U;
}
// * * * * * * * * * * * * * * * * * * * * * * * * * * * * * * * * * * * * * //

dimensions      [0 1 -1 0 0 0 0];

internalField   nonuniform List<vector> 
112610
(
(15 2.40374e-08 -1.42975e-24)
(15 3.55959e-07 -3.72407e-23)
(15 9.1501e-07 -2.22568e-22)
(15 2.15829e-06 7.03428e-23)
(14.9999 3.41081e-06 1.27129e-21)
(14.9999 4.6194e-06 -1.32416e-21)
(14.9999 5.90705e-06 -5.0922e-23)
(14.9999 7.4796e-06 5.32752e-22)
(14.9999 9.22968e-06 1.70349e-21)
(14.9999 1.12397e-05 -2.83461e-21)
(14.9999 1.32862e-05 -7.58507e-23)
(14.9999 1.54961e-05 5.03141e-21)
(14.9999 1.7924e-05 3.33991e-21)
(14.9999 2.03451e-05 3.56079e-21)
(14.9999 2.29373e-05 3.22611e-21)
(14.9999 2.55112e-05 5.45503e-21)
(14.9999 2.81571e-05 -4.11948e-21)
(14.9999 3.09764e-05 7.35418e-21)
(14.9999 3.36806e-05 -5.49816e-21)
(14.9999 3.64185e-05 -8.22997e-21)
(14.9999 3.9182e-05 -1.49161e-20)
(14.9999 4.2041e-05 -6.40357e-21)
(14.9999 4.47752e-05 -6.65598e-21)
(14.9999 4.76341e-05 -3.84575e-21)
(14.9999 5.03827e-05 3.31084e-21)
(14.9999 5.32742e-05 7.34263e-21)
(14.9999 5.60679e-05 -1.15735e-20)
(14.9999 5.88236e-05 1.55061e-20)
(14.9999 6.16466e-05 -1.07472e-22)
(14.9999 6.44475e-05 8.10205e-21)
(14.9999 6.72744e-05 8.02542e-21)
(14.9999 6.99889e-05 9.86691e-23)
(14.9999 7.27291e-05 8.22847e-21)
(14.9999 7.54852e-05 8.49518e-21)
(14.9999 7.80843e-05 -8.55417e-21)
(14.9999 8.08001e-05 9.59382e-23)
(14.9999 8.34254e-05 -1.33247e-20)
(14.9999 8.60602e-05 8.57259e-21)
(14.9999 8.87827e-05 -3.69872e-21)
(14.9999 9.13066e-05 1.72843e-20)
(14.9999 9.39365e-05 -1.72723e-20)
(14.9999 9.64608e-05 1.38186e-20)
(14.9999 9.89077e-05 3.30167e-21)
(14.9999 0.000101389 -8.25487e-23)
(14.9999 0.000103881 8.54829e-21)
(14.9999 0.000106256 2.85064e-21)
(14.9999 0.000108745 8.36261e-21)
(14.9999 0.000111132 -1.39455e-20)
(14.9999 0.000113383 -8.30914e-21)
(14.9999 0.000115739 1.97924e-20)
(14.9999 0.000117965 5.91894e-21)
(14.9999 0.000120248 1.59562e-20)
(14.9999 0.000122422 1.5775e-20)
(14.9999 0.000124677 -6.04782e-21)
(14.9999 0.000126797 -6.17329e-21)
(14.9999 0.000128877 -7.56926e-21)
(14.9999 0.000130946 -1.49156e-20)
(14.9999 0.000133028 6.27698e-21)
(14.9999 0.000134965 7.27561e-21)
(14.9999 0.000136981 -7.14696e-21)
(14.9999 0.000138929 7.02014e-21)
(14.9999 0.000140737 -5.20509e-23)
(14.9999 0.000142634 6.74168e-21)
(14.9999 0.000144425 -5.28757e-23)
(14.9999 0.000146231 6.45135e-21)
(14.9999 0.000147996 -1.2992e-20)
(14.9999 0.000149647 0)
(14.9999 0.00015141 -5.95748e-21)
(14.9999 0.000153038 5.80579e-21)
(14.9999 0.000154609 5.64574e-21)
(14.9999 0.000156147 1.2386e-20)
(14.9999 0.000157646 -6.89596e-21)
(14.9999 0.000159084 -1.039e-20)
(14.9999 0.000160492 1.20768e-20)
(14.9999 0.000161942 -1.41497e-20)
(14.9999 0.000163303 7.04605e-21)
(14.9999 0.000164526 1.61495e-20)
(14.9999 0.000165879 -2.89077e-21)
(14.9999 0.000167077 0)
(14.9999 0.000168257 0)
(14.9999 0.000169328 0)
(14.9999 0.000170467 -3.59135e-21)
(15 0.000171529 0)
(15 0.000172583 -4.13092e-21)
(15 0.000173506 1.47314e-20)
(15 0.000174389 5.76512e-21)
(15 0.000175339 -2.50358e-20)
(15 0.000176149 4.98834e-21)
(15 0.000176944 5.22302e-21)
(15 0.00017769 -7.51394e-21)
(15 0.000178432 -1.91045e-21)
(15 0.00017913 1.71714e-21)
(15 0.000179732 1.50031e-21)
(15 0.000180298 1.39275e-20)
(15 0.000180796 1.63927e-20)
(15 0.000181291 -6.73752e-21)
(15 0.00018171 -1.53602e-20)
(15 0.000182133 0)
(15 0.000182455 3.05939e-22)
(15 0.000182751 7.73515e-21)
(15 0.00018301 -9.62781e-23)
(15 0.000183233 -7.44473e-21)
(15 0.000183428 0)
(15 0.000183522 1.55135e-20)
(15 0.00018362 -3.67214e-21)
(15 0.000183639 -6.62605e-21)
(15 0.000183654 -2.6649e-21)
(15 0.000183599 -7.75707e-21)
(15 0.000183506 -9.50466e-21)
(15 0.000183312 3.9018e-21)
(15 0.000183072 2.13045e-21)
(15 0.000182824 7.77251e-21)
(15 0.000182525 -2.59576e-21)
(15 0.000182207 7.7943e-21)
(15 0.000181741 -5.99391e-21)
(15 0.000181343 -4.49212e-21)
(15 0.000180899 -1.11601e-20)
(15.0001 0.000180316 3.65301e-21)
(15.0001 0.00017972 1.92817e-20)
(15.0001 0.000179038 -1.1686e-20)
(15.0001 0.000178425 -7.66273e-21)
(15.0001 0.000177692 8.77817e-21)
(15.0001 0.000176937 7.67654e-21)
(15.0001 0.000176009 2.83403e-21)
(15.0001 0.000175218 -2.52728e-20)
(15.0001 0.000174274 5.26045e-21)
(15.0001 0.000173228 2.15029e-21)
(15.0001 0.000172221 -1.5146e-20)
(15.0001 0.000171177 1.91812e-20)
(15.0001 0.00017006 1.50321e-21)
(15.0001 0.000168895 -7.49409e-21)
(15.0001 0.000167687 -5.19271e-21)
(15.0001 0.000166411 1.3995e-20)
(15.0001 0.000164978 -1.41992e-20)
(15.0001 0.000163662 6.44785e-21)
(15.0001 0.000162213 7.41798e-21)
(15.0001 0.00016071 7.33045e-21)
(15.0001 0.000159215 -1.48274e-20)
(15.0001 0.000157593 -2.22374e-20)
(15.0001 0.000156063 7.09442e-23)
(15.0001 0.000154366 7.20632e-21)
(15.0001 0.000152585 0)
(15.0001 0.000150883 8.32351e-21)
(15.0001 0.000149006 0)
(15.0001 0.000147134 -7.11348e-21)
(15.0001 0.000145239 8.88279e-21)
(15.0001 0.000143289 -2.00063e-21)
(15.0001 0.00014117 9.10011e-21)
(15.0001 0.000139134 6.93146e-21)
(15.0001 0.00013696 -1.88198e-20)
(15.0001 0.000134841 -4.06257e-21)
(15.0001 0.000132556 2.95089e-21)
(15.0001 0.000130383 1.64676e-20)
(15.0001 0.000128036 -3.29173e-21)
(15.0001 0.000125555 0)
(15.0001 0.000123194 3.5319e-21)
(15.0001 0.000120681 1.66875e-20)
(15.0001 0.000118165 1.63813e-20)
(15.0002 0.000115675 -1.6491e-20)
(15.0002 0.000113076 4.12638e-21)
(15.0002 0.000110334 1.07501e-22)
(15.0002 0.000107703 5.94136e-21)
(15.0002 0.000104813 -5.94965e-21)
(15.0002 0.000102012 1.18349e-20)
(15.0002 9.92041e-05 7.05813e-22)
(15.0002 9.62657e-05 -2.16271e-20)
(15.0002 9.34522e-05 -5.422e-21)
(15.0002 9.0424e-05 -4.94407e-21)
(15.0002 8.73945e-05 -1.23434e-22)
(15.0002 8.4376e-05 1.33772e-22)
(15.0002 8.11934e-05 4.92089e-21)
(15.0002 7.80205e-05 1.67643e-25)
(15.0002 7.4795e-05 -2.91423e-20)
(15.0002 7.16311e-05 1.49548e-20)
(15.0002 6.83933e-05 -1.45834e-20)
(15.0002 6.50025e-05 1.35035e-20)
(15.0002 6.17691e-05 -1.32285e-20)
(15.0002 5.83641e-05 1.11675e-21)
(15.0002 5.50926e-05 1.21694e-20)
(15.0002 5.16269e-05 -1.10048e-21)
(15.0002 4.82552e-05 -7.85949e-21)
(15.0001 4.48852e-05 7.48932e-21)
(15.0001 4.15265e-05 2.81039e-21)
(15.0001 3.79774e-05 -3.76702e-21)
(15.0001 3.46252e-05 -1.46667e-20)
(15.0001 3.13335e-05 6.78604e-21)
(15.0001 2.79779e-05 -5.0445e-21)
(15.0001 2.48178e-05 2.70004e-21)
(15.0001 2.16069e-05 5.69249e-21)
(15.0001 1.86602e-05 -2.30648e-21)
(15.0001 1.59026e-05 7.28445e-22)
(15.0001 1.3156e-05 2.54356e-21)
(15.0001 1.07408e-05 -2.83384e-21)
(15.0001 8.54629e-06 1.68014e-21)
(15.0001 6.73629e-06 7.58888e-22)
(15.0001 5.01333e-06 1.0775e-21)
(15.0001 3.17158e-06 -5.17953e-22)
(15 1.34632e-06 -3.41607e-22)
(15 5.00363e-07 1.70684e-22)
(15 5.84418e-08 -2.01251e-23)
(14.9994 3.64965e-06 2.68518e-23)
(14.9997 8.92948e-06 -3.03821e-22)
(14.9999 5.14944e-06 -7.56042e-23)
(14.9998 8.59072e-06 -1.26481e-21)
(14.9997 1.57439e-05 1.80136e-21)
(14.9997 2.27273e-05 -1.34833e-21)
(14.9997 2.84793e-05 -2.90875e-21)
(14.9997 3.4059e-05 1.09444e-22)
(14.9997 3.98603e-05 9.97425e-22)
(14.9997 4.61252e-05 2.34155e-22)
(14.9997 5.24858e-05 -3.37086e-21)
(14.9997 5.90242e-05 1.806e-21)
(14.9997 6.58762e-05 5.45543e-21)
(14.9996 7.28447e-05 -3.68035e-21)
(14.9996 8.01431e-05 1.52141e-20)
(14.9996 8.75531e-05 1.33215e-21)
(14.9996 9.50713e-05 -1.00486e-20)
(14.9996 0.000102877 -1.39459e-21)
(14.9996 0.000110658 6.66014e-21)
(14.9996 0.000118549 -2.90284e-23)
(14.9996 0.000126497 -3.56912e-21)
(14.9996 0.000134624 -1.2497e-20)
(14.9996 0.000142629 -8.88834e-21)
(14.9996 0.00015081 -2.75821e-23)
(14.9996 0.000158877 -4.13275e-21)
(14.9996 0.000167128 8.43417e-21)
(14.9996 0.000175353 3.53607e-22)
(14.9996 0.000183508 2.61796e-22)
(14.9996 0.000191682 -4.98173e-21)
(14.9996 0.000199867 -4.74046e-21)
(14.9996 0.000208047 4.75621e-21)
(14.9996 0.000216134 2.46581e-22)
(14.9996 0.000224259 -1.52598e-20)
(14.9996 0.000232367 4.0502e-20)
(14.9996 0.000240276 5.37039e-21)
(14.9996 0.000248283 1.00218e-20)
(14.9996 0.000256122 -1.0932e-20)
(14.9996 0.000263968 -1.94305e-22)
(14.9996 0.000271938 1.0163e-20)
(14.9996 0.000279587 2.53466e-20)
(14.9996 0.000287363 1.59477e-20)
(14.9996 0.000294953 -2.09182e-21)
(14.9996 0.000302419 9.76619e-21)
(14.9996 0.000309872 0)
(14.9996 0.000317301 3.535e-21)
(14.9996 0.000324544 -6.22989e-21)
(14.9996 0.000331903 2.18597e-20)
(14.9996 0.000339011 -1.22038e-20)
(14.9996 0.00034593 -2.20002e-20)
(14.9996 0.000352956 6.32969e-21)
(14.9996 0.000359825 9.15765e-21)
(14.9996 0.000366615 4.58234e-21)
(14.9997 0.000373219 3.06851e-20)
(14.9997 0.000379941 1.54224e-20)
(14.9997 0.00038638 -7.21304e-23)
(14.9997 0.000392747 5.18533e-21)
(14.9997 0.000399055 -6.74464e-21)
(14.9997 0.000405244 -1.38356e-20)
(14.9997 0.00041124 2.2784e-20)
(14.9997 0.000417287 1.56367e-20)
(14.9997 0.000423134 5.90246e-22)
(14.9997 0.000428791 0)
(14.9997 0.000434495 7.33353e-21)
(14.9997 0.000439988 -7.16561e-21)
(14.9997 0.000445412 1.41769e-20)
(14.9997 0.000450706 4.09761e-23)
(14.9997 0.000455883 -5.24609e-23)
(14.9997 0.000461057 -1.3741e-20)
(14.9997 0.000466 -1.4772e-20)
(14.9998 0.000470809 3.10451e-24)
(14.9998 0.000475486 1.48372e-20)
(14.9998 0.00048011 1.50025e-20)
(14.9998 0.000484561 -7.51234e-21)
(14.9998 0.00048885 3.27172e-21)
(14.9998 0.00049317 -7.56603e-21)
(14.9998 0.000497285 -1.26908e-20)
(14.9998 0.000501186 4.87137e-21)
(14.9998 0.000505172 7.67589e-21)
(14.9998 0.000508871 1.22201e-20)
(14.9998 0.000512463 -4.28519e-21)
(14.9998 0.000515845 1.18674e-20)
(14.9998 0.000519237 3.91991e-21)
(14.9999 0.00052247 -1.9387e-20)
(14.9999 0.000525617 -7.88748e-21)
(14.9999 0.000528503 7.89349e-21)
(14.9999 0.00053128 1.41355e-20)
(14.9999 0.000534038 -1.81665e-24)
(14.9999 0.000536613 7.97967e-21)
(14.9999 0.000539017 1.97695e-23)
(14.9999 0.000541308 -1.03137e-20)
(14.9999 0.000543571 -1.01161e-20)
(14.9999 0.000545606 -1.80181e-20)
(14.9999 0.000547461 1.45456e-20)
(14.9999 0.000549183 1.62689e-20)
(15 0.000550792 3.63774e-21)
(15 0.000552367 3.00551e-21)
(15 0.000553679 -8.99127e-21)
(15 0.000554938 -8.21933e-21)
(15 0.000555925 -2.76413e-24)
(15 0.000556848 8.12736e-21)
(15 0.000557649 8.18162e-21)
(15 0.000558329 -2.41953e-24)
(15 0.000558943 -8.27858e-21)
(15 0.000559282 -1.65799e-20)
(15 0.000559564 6.36354e-21)
(15 0.000559579 7.07559e-21)
(15.0001 0.000559555 -9.67924e-21)
(15.0001 0.000559412 -1.53312e-23)
(15.0001 0.00055913 6.44846e-21)
(15.0001 0.000558657 1.65608e-20)
(15.0001 0.000557945 -1.88778e-20)
(15.0001 0.000557198 -8.24564e-21)
(15.0001 0.000556326 -1.55151e-23)
(15.0001 0.00055527 2.98112e-21)
(15.0001 0.000554015 1.89149e-21)
(15.0001 0.000552732 6.80821e-21)
(15.0001 0.000551325 -8.27868e-21)
(15.0002 0.000549636 3.87207e-21)
(15.0002 0.000547844 1.00913e-22)
(15.0002 0.000545873 -4.2913e-21)
(15.0002 0.000543901 2.10073e-20)
(15.0002 0.000541695 -6.4786e-23)
(15.0002 0.00053936 -1.63909e-20)
(15.0002 0.000536705 -1.33943e-20)
(15.0002 0.000534126 2.91991e-23)
(15.0002 0.000531302 1.93559e-20)
(15.0002 0.000528241 -5.82409e-21)
(15.0002 0.000525197 8.18107e-21)
(15.0003 0.000521959 1.24721e-20)
(15.0003 0.000518514 -1.45583e-20)
(15.0003 0.000514994 -1.62531e-20)
(15.0003 0.000511308 2.3207e-20)
(15.0003 0.000507457 1.59553e-20)
(15.0003 0.000503328 -7.21309e-21)
(15.0003 0.000499173 -9.01906e-23)
(15.0003 0.000494867 -1.65422e-22)
(15.0003 0.000490392 -8.01549e-21)
(15.0003 0.000485816 -2.40888e-20)
(15.0003 0.000480978 4.4781e-22)
(15.0003 0.000476165 2.5059e-20)
(15.0004 0.000471114 1.66017e-20)
(15.0004 0.000465807 -1.06906e-21)
(15.0004 0.000460529 -7.17006e-23)
(15.0004 0.000455002 1.59755e-21)
(15.0004 0.000449308 0)
(15.0004 0.000443514 1.97607e-21)
(15.0004 0.000437605 7.81331e-21)
(15.0004 0.000431336 7.52752e-21)
(15.0004 0.000425169 -1.52317e-20)
(15.0004 0.00041875 -2.76498e-21)
(15.0004 0.000412202 7.39481e-21)
(15.0004 0.000405431 3.36369e-21)
(15.0004 0.000398747 1.44054e-20)
(15.0004 0.0003918 -1.10034e-20)
(15.0004 0.000384516 1.46831e-20)
(15.0005 0.000377325 -1.14748e-20)
(15.0005 0.00036987 1.89656e-20)
(15.0005 0.00036234 -1.91219e-20)
(15.0005 0.000354747 4.94917e-21)
(15.0005 0.000346958 1.16706e-20)
(15.0005 0.000338895 1.72067e-20)
(15.0005 0.000330934 6.84491e-21)
(15.0005 0.00032253 5.28356e-21)
(15.0005 0.000314222 6.96803e-21)
(15.0005 0.000305869 6.44661e-21)
(15.0005 0.00029725 -1.89355e-20)
(15.0005 0.000288694 -1.8998e-20)
(15.0005 0.00027983 6.59821e-21)
(15.0005 0.000270883 -6.36534e-21)
(15.0005 0.000261919 1.56798e-22)
(15.0005 0.00025277 -6.40622e-21)
(15.0005 0.000243548 -3.69048e-20)
(15.0005 0.000234269 2.74041e-22)
(15.0005 0.000224941 1.83588e-20)
(15.0005 0.000215448 1.25444e-20)
(15.0005 0.000205845 1.05726e-20)
(15.0005 0.0001964 -2.88623e-20)
(15.0005 0.000186724 1.16395e-20)
(15.0005 0.000177195 6.34467e-21)
(15.0005 0.000167415 1.12727e-20)
(15.0005 0.000157785 9.13845e-21)
(15.0005 0.000148136 -6.12676e-21)
(15.0005 0.000138536 -4.26599e-21)
(15.0005 0.000128807 -1.34712e-20)
(15.0005 0.000119362 -1.07568e-20)
(15.0005 0.000109963 -3.87567e-21)
(15.0005 0.000100608 -1.07018e-20)
(15.0005 9.15927e-05 2.6159e-21)
(15.0005 8.26345e-05 -2.47545e-21)
(15.0005 7.40024e-05 2.36097e-21)
(15.0005 6.54976e-05 -1.54875e-22)
(15.0004 5.70136e-05 -3.34287e-21)
(15.0004 4.90782e-05 2.41223e-21)
(15.0004 4.13606e-05 7.12793e-21)
(15.0004 3.32394e-05 -6.14709e-22)
(15.0004 2.31082e-05 -1.06217e-22)
(15.0003 1.25288e-05 -1.84742e-21)
(15.0002 7.66034e-06 9.61182e-22)
(15.0004 1.35475e-05 -1.56732e-22)
(15.001 5.74574e-06 -1.40591e-22)
(14.9989 2.05471e-06 5.10894e-23)
(14.9994 1.70934e-05 4.79984e-23)
(14.9997 1.50569e-05 2.39543e-22)
(14.9997 1.46833e-05 -7.33583e-22)
(14.9996 2.27095e-05 -7.47071e-22)
(14.9995 3.51272e-05 3.18057e-21)
(14.9995 4.68074e-05 -8.2471e-22)
(14.9995 5.73176e-05 0)
(14.9994 6.76568e-05 -6.3025e-21)
(14.9994 7.85565e-05 9.79063e-21)
(14.9994 8.97274e-05 -8.65012e-21)
(14.9994 0.000101098 1.91093e-21)
(14.9994 0.000112704 2.0006e-21)
(14.9994 0.000124544 -7.95278e-21)
(14.9994 0.000136805 6.0326e-21)
(14.9994 0.000149247 2.91479e-21)
(14.9994 0.00016182 -1.4386e-20)
(14.9993 0.000174724 -1.48613e-20)
(14.9993 0.000187668 4.49968e-21)
(14.9993 0.00020079 4.76645e-21)
(14.9993 0.000214048 1.67208e-20)
(14.9993 0.000227444 3.85442e-21)
(14.9993 0.000240859 5.03454e-21)
(14.9993 0.000254413 -9.22161e-21)
(14.9993 0.000267859 4.28836e-21)
(14.9993 0.000281482 -1.89142e-20)
(14.9993 0.000295138 1.92159e-20)
(14.9993 0.000308685 4.52576e-21)
(14.9993 0.000322237 4.77305e-21)
(14.9993 0.000335855 -4.79918e-21)
(14.9993 0.000349396 -1.01182e-20)
(14.9993 0.000362926 1.51524e-20)
(14.9993 0.00037646 -2.54199e-20)
(14.9993 0.000389953 -1.56471e-20)
(14.9993 0.000403232 2.09493e-20)
(14.9993 0.000416612 2.0239e-20)
(14.9993 0.000429748 1.01198e-20)
(14.9993 0.000442851 -5.59741e-21)
(14.9993 0.000456048 4.34041e-21)
(14.9993 0.000468929 -2.0049e-20)
(14.9993 0.00048181 2.58424e-20)
(14.9993 0.000494583 5.99884e-21)
(14.9993 0.000507153 9.85884e-21)
(14.9993 0.000519741 9.79824e-21)
(14.9994 0.000532186 0)
(14.9994 0.000544361 -6.20958e-21)
(14.9994 0.000556584 2.8845e-21)
(14.9994 0.000568555 1.6022e-20)
(14.9994 0.000580323 -1.297e-20)
(14.9994 0.00059206 -9.26056e-21)
(14.9994 0.000603653 1.1757e-20)
(14.9994 0.000615129 -1.56781e-20)
(14.9994 0.000626243 -1.11606e-20)
(14.9994 0.000637445 2.43161e-20)
(14.9994 0.000648356 6.758e-21)
(14.9994 0.000659165 8.58631e-21)
(14.9994 0.000669733 1.8184e-20)
(14.9995 0.000680167 1.30828e-21)
(14.9995 0.000690394 -1.39986e-20)
(14.9995 0.000700522 1.49151e-20)
(14.9995 0.000710413 2.20497e-20)
(14.9995 0.000720033 7.6207e-21)
(14.9995 0.000729609 7.15738e-21)
(14.9995 0.000738971 5.11521e-23)
(14.9995 0.000748107 -2.1593e-20)
(14.9995 0.000757041 1.39503e-20)
(14.9995 0.000765826 7.33513e-21)
(14.9996 0.000774446 6.67499e-21)
(14.9996 0.000782819 -1.39373e-20)
(14.9996 0.000790971 -8.87869e-24)
(14.9996 0.000798933 1.40536e-21)
(14.9996 0.00080678 -7.4933e-21)
(14.9996 0.000814387 -9.5136e-21)
(14.9996 0.000821675 1.31689e-20)
(14.9996 0.000828843 1.30501e-20)
(14.9997 0.000835872 -5.17086e-21)
(14.9997 0.000842617 -4.97962e-21)
(14.9997 0.000849188 -1.73216e-20)
(14.9997 0.000855496 3.18196e-21)
(14.9997 0.000861625 -4.31613e-21)
(14.9997 0.000867415 -1.5775e-20)
(14.9997 0.000873134 1.97815e-20)
(14.9997 0.000878628 3.99387e-22)
(14.9998 0.00088393 -1.59459e-20)
(14.9998 0.000888843 -2.67159e-23)
(14.9998 0.000893616 1.96628e-23)
(14.9998 0.000898227 -1.10333e-20)
(14.9998 0.000902642 8.07262e-21)
(14.9998 0.000906759 1.36734e-20)
(14.9998 0.000910666 2.35482e-21)
(14.9999 0.000914395 2.10926e-21)
(14.9999 0.000917819 1.10295e-23)
(14.9999 0.00092103 -9.91369e-21)
(14.9999 0.000924002 -1.49924e-20)
(14.9999 0.000926782 -8.27558e-21)
(14.9999 0.000929414 2.48387e-20)
(14.9999 0.000931655 7.48979e-21)
(15 0.000933711 -8.31999e-21)
(15 0.000935456 7.9658e-21)
(15 0.00093709 1.53389e-22)
(15 0.000938455 -8.44793e-21)
(15 0.000939549 3.00844e-22)
(15 0.000940531 0)
(15.0001 0.000941197 7.47025e-22)
(15.0001 0.000941673 -7.41776e-21)
(15.0001 0.000941748 -1.19238e-21)
(15.0001 0.000941666 9.82007e-21)
(15.0001 0.000941383 -1.17025e-20)
(15.0001 0.000940847 -8.38413e-21)
(15.0001 0.000940085 5.5247e-25)
(15.0002 0.000938999 -7.13562e-24)
(15.0002 0.000937719 1.67923e-20)
(15.0002 0.000936209 8.35127e-21)
(15.0002 0.000934378 -8.36693e-21)
(15.0002 0.000932329 8.38392e-21)
(15.0002 0.000930095 1.18163e-20)
(15.0002 0.0009277 -1.67613e-20)
(15.0003 0.000924877 -1.27808e-20)
(15.0003 0.000921836 4.22654e-21)
(15.0003 0.000918536 2.10372e-20)
(15.0003 0.000915142 4.54973e-21)
(15.0003 0.000911364 -1.31207e-20)
(15.0003 0.000907375 0)
(15.0004 0.000903079 8.32862e-21)
(15.0004 0.000898571 1.37615e-20)
(15.0004 0.000893732 -8.29245e-21)
(15.0004 0.000888715 -8.24302e-21)
(15.0004 0.000883538 8.27375e-21)
(15.0004 0.000877986 -1.27812e-20)
(15.0004 0.000872141 -8.19618e-21)
(15.0005 0.000866136 8.22473e-21)
(15.0005 0.000859891 1.51981e-20)
(15.0005 0.000853366 -2.26659e-20)
(15.0005 0.000846535 -6.62358e-22)
(15.0005 0.00083948 -7.19031e-21)
(15.0005 0.000832222 7.81993e-21)
(15.0005 0.000824699 -1.61371e-20)
(15.0006 0.00081688 8.08385e-21)
(15.0006 0.000808779 1.65098e-20)
(15.0006 0.000800582 8.72447e-21)
(15.0006 0.000792034 -7.10149e-21)
(15.0006 0.00078317 -7.83392e-21)
(15.0006 0.000774143 2.51126e-20)
(15.0006 0.00076483 -7.61355e-23)
(15.0006 0.000755311 -7.80528e-21)
(15.0007 0.00074546 0)
(15.0007 0.000735436 2.01349e-20)
(15.0007 0.000725018 -2.05148e-20)
(15.0007 0.000714643 0)
(15.0007 0.000703785 1.0611e-20)
(15.0007 0.000692728 -1.07854e-20)
(15.0007 0.000681437 7.61587e-21)
(15.0007 0.000670041 3.44834e-21)
(15.0007 0.00065834 1.51847e-20)
(15.0008 0.000646268 -1.04791e-22)
(15.0008 0.000634181 -2.2985e-20)
(15.0008 0.000621697 7.24757e-21)
(15.0008 0.000608965 -2.81396e-20)
(15.0008 0.000596174 1.90596e-20)
(15.0008 0.000583058 -1.20279e-20)
(15.0008 0.000569727 -7.06508e-21)
(15.0008 0.00055631 -1.21083e-20)
(15.0008 0.000542419 5.24151e-21)
(15.0008 0.000528551 1.95533e-20)
(15.0008 0.000514549 -6.0555e-21)
(15.0008 0.00050015 -3.23641e-20)
(15.0009 0.000485777 -2.49667e-20)
(15.0009 0.000471036 1.89834e-20)
(15.0009 0.000456137 -2.51825e-20)
(15.0009 0.000441135 0)
(15.0009 0.000426009 -1.87743e-20)
(15.0009 0.000410671 -6.23681e-21)
(15.0009 0.000395299 2.4097e-20)
(15.0009 0.000379812 -1.23219e-20)
(15.0009 0.000364062 1.87508e-20)
(15.0009 0.000348224 -2.30675e-20)
(15.0009 0.000332482 1.20408e-20)
(15.0009 0.000316465 1.67478e-20)
(15.0009 0.000300488 1.65465e-20)
(15.0009 0.000284391 1.59525e-20)
(15.0009 0.000268325 1.44444e-21)
(15.0009 0.000252286 2.95739e-22)
(15.0009 0.000236327 -6.23882e-21)
(15.0009 0.00022026 5.81415e-21)
(15.0009 0.000204464 0)
(15.0009 0.000188678 -1.22986e-20)
(15.0009 0.000172957 1.63892e-20)
(15.0008 0.000157629 -7.67218e-21)
(15.0008 0.000142437 -3.89485e-21)
(15.0008 0.000127384 2.05869e-21)
(15.0008 0.000112384 -1.47105e-20)
(15.0008 9.75778e-05 1.94169e-21)
(15.0008 8.33628e-05 5.0124e-21)
(15.0008 6.86552e-05 8.24317e-22)
(15.0007 5.19062e-05 1.06349e-22)
(15.0006 3.3726e-05 -1.1316e-21)
(15.0005 2.19749e-05 4.55329e-22)
(15.0005 2.30963e-05 -6.26994e-23)
(15.0009 2.63237e-05 -6.7451e-22)
(15.0018 3.31203e-06 5.08156e-23)
(14.9985 3.2999e-06 -4.48789e-23)
(14.9991 1.9426e-05 2.32662e-22)
(14.9994 2.65263e-05 0)
(14.9995 2.44677e-05 0)
(14.9994 2.90279e-05 -3.80379e-22)
(14.9993 4.37185e-05 -6.1465e-22)
(14.9993 6.12448e-05 -1.35867e-21)
(14.9992 7.73067e-05 -6.69402e-22)
(14.9992 9.24073e-05 -2.14856e-21)
(14.9992 0.000107916 3.37831e-21)
(14.9992 0.000123833 -2.35048e-21)
(14.9992 0.000140056 -2.04308e-21)
(14.9991 0.000156534 -3.166e-21)
(14.9991 0.000173367 1.91626e-23)
(14.9991 0.00019062 -1.25677e-20)
(14.9991 0.000208115 9.37795e-21)
(14.9991 0.000225825 2.96708e-21)
(14.9991 0.000243889 4.45002e-21)
(14.9991 0.000262113 -1.11927e-20)
(14.9991 0.000280531 4.76248e-21)
(14.999 0.000299057 -1.70008e-20)
(14.999 0.000317814 1.43543e-22)
(14.999 0.00033665 3.76114e-21)
(14.999 0.00035568 -4.86946e-21)
(14.999 0.000374577 9.17757e-21)
(14.999 0.000393651 1.3122e-22)
(14.999 0.000412763 -1.86285e-20)
(14.999 0.00043182 -9.8669e-21)
(14.999 0.000450826 4.82941e-21)
(14.999 0.000469978 1.85302e-23)
(14.999 0.000489045 0)
(14.999 0.000508046 1.01059e-20)
(14.999 0.000527022 1.52672e-20)
(14.999 0.00054597 -1.01194e-20)
(14.999 0.000564743 -1.07734e-20)
(14.999 0.000583521 -1.02978e-20)
(14.999 0.00060211 -1.00908e-20)
(14.999 0.000620638 -1.0296e-20)
(14.999 0.000639153 1.31682e-21)
(14.999 0.000657333 -2.01994e-20)
(14.9991 0.0006755 -1.60823e-20)
(14.9991 0.00069348 4.10572e-21)
(14.9991 0.000711258 3.88112e-21)
(14.9991 0.000729042 6.11016e-21)
(14.9991 0.000746643 9.94413e-21)
(14.9991 0.00076388 -8.39806e-23)
(14.9991 0.00078112 6.39254e-21)
(14.9991 0.000798057 1.92115e-20)
(14.9991 0.000814813 9.49163e-21)
(14.9991 0.000831396 -6.51755e-21)
(14.9991 0.000847807 9.19969e-21)
(14.9992 0.000863984 -4.98139e-21)
(14.9992 0.000879898 -6.64609e-21)
(14.9992 0.000895711 -6.90997e-21)
(14.9992 0.000911179 6.89689e-21)
(14.9992 0.000926503 1.04449e-20)
(14.9992 0.000941455 -6.98795e-21)
(14.9992 0.000956284 1.53606e-20)
(14.9992 0.000970855 -1.13388e-21)
(14.9993 0.000985193 -2.32509e-20)
(14.9993 0.000999254 -7.19275e-21)
(14.9993 0.00101301 7.20025e-21)
(14.9993 0.00102658 7.30364e-21)
(14.9993 0.00103985 2.2011e-20)
(14.9993 0.00105286 -7.23607e-21)
(14.9993 0.00106563 -1.49205e-20)
(14.9994 0.00107808 5.33052e-22)
(14.9994 0.00109027 6.77396e-21)
(14.9994 0.00110224 -7.50807e-21)
(14.9994 0.00111391 6.37207e-21)
(14.9994 0.00112528 1.52379e-20)
(14.9994 0.00113635 1.2141e-20)
(14.9995 0.00114719 -2.12478e-20)
(14.9995 0.00115763 -1.34257e-20)
(14.9995 0.0011678 7.75525e-21)
(14.9995 0.0011778 2.54005e-21)
(14.9995 0.00118746 7.82029e-21)
(14.9995 0.00119676 2.99237e-21)
(14.9996 0.00120572 -9.40415e-21)
(14.9996 0.00121448 1.07053e-21)
(14.9996 0.00122284 -1.65959e-20)
(14.9996 0.00123096 1.18882e-20)
(14.9996 0.00123876 -4.07376e-21)
(14.9997 0.00124629 -2.42293e-20)
(14.9997 0.00125337 4.6186e-21)
(14.9997 0.00126022 1.62627e-20)
(14.9997 0.00126676 1.62126e-23)
(14.9997 0.00127301 5.3149e-21)
(14.9998 0.00127892 -8.16751e-21)
(14.9998 0.00128452 -2.23317e-20)
(14.9998 0.00128975 2.18972e-21)
(14.9998 0.00129469 1.75045e-24)
(14.9998 0.00129936 8.3145e-21)
(14.9999 0.00130363 8.34817e-21)
(14.9999 0.00130757 4.4482e-21)
(14.9999 0.00131124 6.23304e-21)
(14.9999 0.00131445 -7.5536e-21)
(14.9999 0.00131739 -8.43848e-21)
(15 0.00131992 -8.45241e-21)
(15 0.00132229 -8.30279e-21)
(15 0.00132424 2.53999e-20)
(15 0.00132577 8.4869e-21)
(15.0001 0.00132712 -9.00675e-21)
(15.0001 0.00132807 -8.50129e-21)
(15.0001 0.00132874 -9.46371e-21)
(15.0001 0.00132894 9.70871e-21)
(15.0001 0.00132884 -1.99002e-20)
(15.0002 0.00132841 -8.49093e-21)
(15.0002 0.00132756 2.74118e-20)
(15.0002 0.00132641 1.69857e-20)
(15.0002 0.00132495 -1.46405e-20)
(15.0002 0.00132311 -3.26791e-21)
(15.0003 0.00132091 -2.41156e-23)
(15.0003 0.00131834 1.9773e-23)
(15.0003 0.00131546 1.69753e-20)
(15.0003 0.00131223 -3.5459e-21)
(15.0004 0.00130874 -1.22112e-20)
(15.0004 0.00130474 -4.49265e-21)
(15.0004 0.00130044 1.27296e-20)
(15.0004 0.00129576 1.68841e-20)
(15.0004 0.00129081 0)
(15.0005 0.00128541 -8.44267e-21)
(15.0005 0.00127974 -3.27082e-21)
(15.0005 0.00127368 0)
(15.0005 0.00126721 -5.58991e-21)
(15.0005 0.00126032 -5.81752e-21)
(15.0006 0.00125321 -6.03735e-21)
(15.0006 0.00124577 -8.37582e-21)
(15.0006 0.00123785 -6.44139e-21)
(15.0006 0.00122963 8.29846e-21)
(15.0006 0.00122103 -8.33705e-21)
(15.0007 0.00121206 3.87535e-23)
(15.0007 0.00120272 9.14495e-21)
(15.0007 0.00119306 7.53706e-21)
(15.0007 0.00118307 6.38547e-23)
(15.0007 0.00117267 -1.60914e-20)
(15.0008 0.00116194 -8.13412e-21)
(15.0008 0.00115086 0)
(15.0008 0.00113937 -9.62206e-24)
(15.0008 0.00112762 -7.39218e-22)
(15.0008 0.00111545 -1.82015e-20)
(15.0009 0.0011029 2.66773e-20)
(15.0009 0.00109001 9.31263e-21)
(15.0009 0.00107675 -3.51842e-20)
(15.0009 0.00106328 0)
(15.0009 0.0010493 7.94322e-21)
(15.0009 0.00103508 2.24622e-21)
(15.001 0.00102037 2.71344e-21)
(15.001 0.00100546 7.72011e-21)
(15.001 0.000990155 -1.07643e-20)
(15.001 0.000974485 0)
(15.001 0.000958521 7.68877e-21)
(15.001 0.000942257 -3.72156e-21)
(15.0011 0.000925679 3.85046e-21)
(15.0011 0.000908642 -2.65286e-20)
(15.0011 0.000891504 1.1812e-20)
(15.0011 0.000873824 -1.16843e-22)
(15.0011 0.000855813 -1.18528e-20)
(15.0011 0.000837696 7.16065e-21)
(15.0011 0.000819218 -7.25422e-21)
(15.0012 0.000800394 -7.07045e-21)
(15.0012 0.000781432 2.65758e-20)
(15.0012 0.000761934 6.7526e-21)
(15.0012 0.000742288 5.75063e-21)
(15.0012 0.000722435 -1.94918e-20)
(15.0012 0.00070221 -2.60515e-20)
(15.0012 0.00068185 1.94491e-20)
(15.0012 0.000661129 -6.41637e-21)
(15.0012 0.00064022 1.31214e-22)
(15.0012 0.000619127 6.21787e-21)
(15.0012 0.000597793 0)
(15.0012 0.000576189 2.52004e-20)
(15.0013 0.000554604 -1.25258e-20)
(15.0013 0.000532781 -1.2426e-20)
(15.0013 0.000510712 -2.45742e-20)
(15.0013 0.000488509 -6.51638e-21)
(15.0013 0.000466347 1.72802e-20)
(15.0013 0.000443819 -1.1707e-20)
(15.0013 0.000421344 -5.07419e-21)
(15.0013 0.000398768 -1.10573e-20)
(15.0013 0.000376286 -1.73017e-20)
(15.0013 0.00035373 1.66343e-20)
(15.0013 0.000331204 1.67475e-22)
(15.0012 0.000308662 -1.74497e-22)
(15.0012 0.000286353 9.43131e-21)
(15.0012 0.000264096 1.211e-20)
(15.0012 0.000241902 4.85871e-21)
(15.0012 0.000220023 1.62557e-21)
(15.0012 0.000198362 -6.61399e-21)
(15.0012 0.000176763 -6.33461e-21)
(15.0012 0.000155291 1.57967e-22)
(15.0011 0.000134104 6.28026e-21)
(15.0011 0.000113166 -7.72972e-21)
(15.0011 9.04059e-05 3.11751e-21)
(15.001 6.50077e-05 1.18031e-23)
(15.0009 4.35159e-05 0)
(15.0008 3.71773e-05 -4.72918e-22)
(15.0009 4.09466e-05 -5.92425e-22)
(15.0014 3.00559e-05 1.04847e-22)
(15.0023 5.27931e-06 7.50993e-23)
(14.9982 3.30923e-06 -7.29886e-23)
(14.9987 2.03817e-05 -3.47341e-22)
(14.9991 3.64068e-05 0)
(14.9993 3.76775e-05 7.60973e-22)
(14.9992 3.79839e-05 3.91792e-22)
(14.9991 5.08847e-05 -1.01189e-21)
(14.999 7.22852e-05 -2.15031e-21)
(14.999 9.41482e-05 -9.41041e-22)
(14.999 0.000114416 8.03704e-22)
(14.9989 0.000134616 -3.88574e-21)
(14.9989 0.000155233 6.01993e-21)
(14.9989 0.00017623 -3.04922e-21)
(14.9989 0.000197546 7.47584e-21)
(14.9989 0.000219306 -2.17625e-23)
(14.9988 0.000241489 3.83349e-21)
(14.9988 0.00026406 -2.7966e-21)
(14.9988 0.000286898 1.42976e-20)
(14.9988 0.000310051 1.05597e-20)
(14.9988 0.000333478 -3.09304e-21)
(14.9988 0.000357248 -2.66453e-22)
(14.9988 0.000381154 -4.64611e-21)
(14.9988 0.000405237 -3.87256e-21)
(14.9987 0.000429529 -8.97936e-21)
(14.9987 0.000453989 -4.00965e-21)
(14.9987 0.000478369 -9.47976e-21)
(14.9987 0.000502914 1.82936e-20)
(14.9987 0.000527574 -5.12948e-21)
(14.9987 0.000552201 -9.85019e-21)
(14.9987 0.000576753 -9.94096e-21)
(14.9987 0.000601529 -1.48587e-20)
(14.9987 0.000626141 -5.05935e-21)
(14.9987 0.000650715 0)
(14.9987 0.000675256 -1.53742e-20)
(14.9987 0.000699739 -1.03393e-20)
(14.9987 0.000724093 5.43293e-22)
(14.9987 0.000748421 -4.77015e-21)
(14.9987 0.000772523 -1.03246e-20)
(14.9988 0.000796553 -1.59426e-20)
(14.9988 0.000820468 -1.03774e-20)
(14.9988 0.000844092 2.05816e-20)
(14.9988 0.000867657 -1.69639e-21)
(14.9988 0.000891083 -1.6238e-20)
(14.9988 0.000914198 -4.04754e-21)
(14.9988 0.000937247 9.14468e-23)
(14.9988 0.000960128 -8.19232e-23)
(14.9988 0.000982543 -9.81783e-21)
(14.9988 0.00100489 9.72621e-21)
(14.9988 0.00102701 -9.63596e-21)
(14.9989 0.00104879 9.55576e-21)
(14.9989 0.00107039 9.12452e-23)
(14.9989 0.00109178 6.55185e-21)
(14.9989 0.0011128 9.46956e-21)
(14.9989 0.0011336 2.27785e-21)
(14.9989 0.00115418 -2.17656e-21)
(14.9989 0.00117435 2.06196e-21)
(14.999 0.00119432 8.73724e-21)
(14.999 0.00121389 -8.60242e-21)
(14.999 0.0012332 -8.59978e-21)
(14.999 0.00125221 1.55462e-20)
(14.999 0.0012709 0)
(14.999 0.00128927 -8.08269e-21)
(14.9991 0.00130734 -1.58457e-20)
(14.9991 0.00132505 7.7584e-21)
(14.9991 0.00134234 -7.59552e-21)
(14.9991 0.00135938 1.48731e-20)
(14.9991 0.00137611 7.45193e-21)
(14.9992 0.00139238 7.14018e-21)
(14.9992 0.00140831 -6.91875e-22)
(14.9992 0.00142393 -7.58649e-21)
(14.9992 0.00143925 -1.31465e-20)
(14.9993 0.00145416 6.41737e-21)
(14.9993 0.00146856 6.14118e-21)
(14.9993 0.0014827 1.81283e-21)
(14.9993 0.00149647 -5.8049e-21)
(14.9993 0.00150982 -3.38219e-21)
(14.9994 0.00152284 -5.37822e-21)
(14.9994 0.00153545 -5.25729e-21)
(14.9994 0.00154766 1.2996e-20)
(14.9994 0.00155944 -1.59756e-20)