/*--------------------------------*- C++ -*----------------------------------*\
  =========                 |
  \\      /  F ield         | OpenFOAM: The Open Source CFD Toolbox
   \\    /   O peration     | Website:  https://openfoam.org
    \\  /    A nd           | Version:  10
     \\/     M anipulation  |
\*---------------------------------------------------------------------------*/
FoamFile
{
    format      ascii;
    class       volScalarField;
    location    "0.0004";
    object      p;
}
// * * * * * * * * * * * * * * * * * * * * * * * * * * * * * * * * * * * * * //

dimensions      [1 -1 -2 0 0 0 0];

internalField   nonuniform List<scalar> 
13320
(
101281
101222
101127
101044
100963
100901
100855
100818
100788
100764
100750
100732
100716
100718
100745
100785
100775
100691
100555
100397
100238
100090
99952
99823.9
99702.6
99593.7
99502.1
99426.8
99363.7
99310.1
99265.6
99232.6
99218.5
99231.1
99266.7
99293.7
99270.7
99196
99135.2
99154.3
99241.8
99324.4
99357.8
99358.9
99377.7
99400.3
99424.7
99429
99463.2
99456.4
101262
101228
101166
101084
101006
100941
100888
100844
100809
100779
100763
100743
100723
100721
100746
100788
100785
100706
100572
100413
100252
100101
99961.1
99831.3
99708.5
99598.7
99506.5
99430.7
99367.2
99313.3
99268.4
99234.7
99219.4
99230.5
99265.4
99293.9
99274.6
99201.9
99138
99151
99235.1
99319.4
99356.3
99358.3
99376.2
99398.2
99423.4
99427.1
99459.2
99451.2
101242
101210
101152
101085
101011
100944
100890
100847
100812
100782
100765
100745
100726
100722
100745
100787
100784
100707
100574
100415
100253
100102
99962.2
99832.4
99709.6
99599.6
99507.2
99431.3
99367.7
99313.8
99268.7
99235
99219.4
99229.9
99264.9
99294.1
99276
99203.2
99138.3
99148.8
99233.2
99318.5
99356.4
99358.5
99375.8
99397.7
99423
99426.5
99457.4
99451.9
101223
101204
101166
101110
101045
100979
100921
100873
100834
100799
100778
100757
100734
100725
100748
100791
100795
100723
100592
100432
100268
100114
99971.9
99840.2
99715.9
99604.9
99511.8
99435.3
99371.4
99317.1
99271.7
99237.3
99220.4
99229.6
99263.3
99294
99279.5
99209.7
99142.1
99146.9
99226.1
99312.6
99354
99357.4
99373.6
99395.1
99420.4
99423.6
99450.4
99445.3
101201
101184
101153
101107
101050
100988
100931
100883
100843
100808
100785
100763
100740
100728
100746
100790
100798
100727
100597
100437
100272
100118
99975.3
99843.2
99718.5
99606.9
99513.5
99436.9
99372.8
99318.4
99272.9
99238.1
99220.6
99228.7
99262.2
99294.2
99282.4
99213.4
99143.7
99143.3
99222
99309.5
99353.5
99357.3
99372.3
99393.6
99418.6
99422.6
99446.8
99444.4
101184
101173
101151
101116
101070
101013
100957
100907
100864
100825
100799
100775
100750
100734
100751
100794
100808
100744
100615
100455
100288
100131
99985.5
99851.3
99725.2
99612.6
99518.4
99441.2
99376.7
99321.9
99275.9
99240.4
99221.5
99228
99260
99293.4
99285.6
99220.5
99148.4
99140.9
99213.1
99301.2
99349.7
99355.5
99369
99389.6
99414.5
99418.9
99438.7
99437.8
101166
101156
101139
101111
101071
101023
100970
100921
100879
100838
100810
100785
100760
100739
100751
100795
100813
100751
100625
100464
100294
100137
99991.3
99856.4
99729.4
99615.9
99521.2
99443.7
99379
99324.1
99277.8
99241.9
99222
99227
99258.2
99293.3
99289.5
99227.2
99152.3
99138.3
99205.2
99295.1
99348.1
99355.7
99367
99387
99411.2
99417.2
99434.1
99435.2
101151
101144
101132
101110
101081
101039
100992
100944
100900
100856
100825
100799
100771
100747
100756
100800
100823
100769
100645
100484
100314
100152
100003
99865.5
99736.9
99622.4
99526.9
99448.8
99383.6
99328.2
99281.4
99244.5
99223
99225.7
99255
99291.1
99292.6
99234.7
99157.9
99135.2
99193.6
99282.4
99341
99352.5
99362
99380.6
99404.6
99411.9
99425.7
99428.8
101136
101130
101120
101103
101078
101044
101004
100961
100919
100874
100840
100814
100785
100756
100761
100803
100830
100778
100656
100494
100321
100160
100010
99872.3
99742.8
99627.1
99530.6
99451.8
99386.2
99330.6
99283.6
99246.2
99223.4
99224.2
99252
99289.8
99297.1
99244.5
99165.9
99134
99183.3
99272.4
99337.3
99353.3
99361.1
99378.2
99401.3
99410.3
99421.6
99426
101126
101121
101114
101099
101081
101052
101017
100977
100935
100890
100856
100829
100800
100767
100769
100810
100841
100800
100683
100521
100347
100180
100025
99883.7
99751.4
99634.3
99537.2
99458.2
99392.4
99336.7
99289.2
99250.8
99225.7
99223.1
99248.2
99286.4
99300.1
99254.5
99175.3
99132.7
99168.9
99254.6
99325.8
99348.2
99354.8
99369.7
99392.4
99403.6
99413.8
99419.3
101116
101111
101105
101093
101079
101057
101030
100995
100957
100913
100876
100848
100816
100778
100774
100812
100846
100809
100693
100531
100354
100188
100033
99891.4
99759.4
99641.6
99543.3
99462.9
99395.9
99339
99290.6
99251.1
99224.7
99219
99240.5
99279
99299.9
99263.7
99185.6
99131.8
99152.8
99231.7
99308.6
99340.3
99348.3
99360.9
99382.2
99395.4
99405.7
99412.7
101103
101100
101095
101085
101073
101054
101030
101000
100970
100932
100898
100872
100842
100801
100792
100828
100866
100837
100726
100562
100384
100211
100052
99906
99769.3
99648.2
99548.5
99467.9
99401.2
99345
99297.2
99257.6
99229.6
99220.6
99239.5
99277.6
99305.5
99281.6
99208.9
99144.8
99149.1
99218.3
99301.1
99343.4
99354
99364.1
99383.6
99397.4
99406
99411.6
101110
101107
101103
101094
101084
101067
101045
101015
100984
100945
100908
100881
100850
100808
100797
100832
100875
100854
100748
100585
100405
100228
100065
99916.6
99779.6
99659.2
99559.6
99478.6
99411
99353.5
99304
99262.2
99230.9
99216.9
99228.8
99264
99296.9
99284.5
99218.4
99144.4
99126.6
99176.1
99255.2
99309.3
99328.3
99338
99357.8
99377.4
99390.8
99398.9
101103
101100
101098
101092
101086
101075
101061
101042
101021
100986
100950
100919
100885
100835
100811
100837
100885
100870
100763
100599
100416
100240
100078
99929.5
99791.7
99667.9
99564.5
99480.3
99410.7
99352
99301.7
99259.2
99226.5
99209.3
99216.3
99248.8
99288.2
99293.2
99242.8
99166.9
99129.3
99160.9
99234.3
99297.1
99324.9
99331.8
99343.8
99362.7
99380.5
99394.1
101073
101073
101069
101060
101054
101042
101031
101016
101004
100981
100959
100943
100924
100884
100863
100893
100936
100923
100822
100656
100467
100281
100109
99950.7
99803.3
99675.5
99572.5
99490.5
99423.5
99367.5
99319.9
99279.3
99246.8
99227.1
99228.2
99255.8
99297.8
99319.6
99287.2
99213.8
99155.5
99157.9
99220.1
99299
99346.9
99360.8
99363.7
99369.6
99378.2
99386.8
101140
101142
101140
101129
101121
101101
101078
101048
101022
100981
100946
100922
100897
100854
100831
100861
100922
100922
100827
100665
100477
100289
100116
99960
99819.2
99695.4
99592.3
99508.6
99438.7
99379
99326.8
99280.9
99241.7
99212.4
99201
99213.5
99249.2
99281.6
99272.4
99209.2
99130.3
99088.1
99108.1
99172.9
99245
99292.2
99316.1
99329.3
99339.1
99346.1
101162
101154
101156
101154
101159
101157
101154
101143
101133
101099
101060
101027
100985
100925
100881
100894
100946
100947
100850
100683
100494
100308
100137
99979.2
99833.2
99700.9
99590.1
99499.6
99424.1
99360.3
99305.8
99259.3
99220.2
99190.2
99174.7
99180.9
99212.1
99255.7
99280.9
99259.3
99194.9
99129.7
99100.1
99119.5
99170.7
99231
99280.2
99317
99344.9
99366
101023
101019
101014
101012
101014
101014
101027
101038
101060
101064
101073
101090
101086
101052
101026
101055
101102
101079
100970
100791
100584
100378
100188
100013
99848.8
99709.4
99599.6
99514.3
99447.1
99393.2
99349.1
99312.2
99281.1
99256.1
99240.1
99239.2
99259
99298.1
99341
99359.6
99339.3
99292.4
99246.1
99220.6
99223.4
99247.4
99280.7
99315.3
99345.8
99374
101088
101116
101110
101095
101081
101041
101017
100983
100959
100929
100922
100933
100930
100906
100902
100960
101024
101042
100947
100775
100575
100373
100185
100017
99869.4
99742.7
99641.3
99561.9
99497.1
99441.6
99392.3
99347.4
99306.2
99268.8
99237
99214.7
99207.5
99217.9
99242.9
99267.2
99273.9
99256.5
99226.1
99193.9
99170.4
99160.2
99161.6
99172.2
99187
99206.2
101441
101464
101475
101456
101452
101408
101375
101316
101251
101174
101107
101045
100965
100888
100869
100922
100997
101001
100904
100737
100544
100361
100188
100030
99888.3
99755.7
99641.1
99544.5
99460.2
99385.3
99318.1
99257.5
99202.9
99153.8
99110.7
99075.2
99050.5
99039.8
99043.3
99056.8
99070.8
99076.5
99071.8
99060.2
99046.9
99035.5
99029.9
99028.4
99032.4
99038.6
101550
101513
101539
101526
101558
101565
101587
101592
101587
101567
101537
101488
101413
101350
101341
101370
101378
101302
101139
100925
100699
100479
100276
100085
99903.3
99738.6
99601.2
99490.2
99400.1
99326.2
99265.4
99214.8
99172.6
99137.3
99107.8
99084.1
99066.9
99057.8
99058.7
99067.8
99082.1
99097
99109.3
99117.5
99122.8
99126
99129.5
99132.6
99138.3
99142.5
101175
101094
101117
101111
101159
101206
101273
101344
101420
101493
101560
101609
101640
101674
101718
101737
101695
101559
101345
101091
100829
100578
100341
100125
99924.2
99755.2
99628.6
99538.7
99475.3
99430.7
99399.1
99376.8
99361
99349.9
99342.2
99337.3
99335.2
99336.2
99341.2
99350.2
99362.5
99376.7
99391
99404.1
99415.5
99424.8
99433.3
99440.1
99447.7
99452.3
100639
100567
100579
100577
100612
100655
100716
100790
100877
100974
101076
101177
101275
101370
101449
101480
101440
101323
101144
100932
100711
100495
100293
100110
99950.9
99826.9
99744.9
99695.2
99666.5
99651.1
99643.7
99641.4
99641.9
99644.3
99647.6
99651.5
99655.9
99660.7
99666.3
99673
99680.8
99689.5
99698.5
99707.3
99715.5
99722.8
99729.5
99735
99740.5
99744
100258
100218
100222
100222
100238
100261
100295
100337
100390
100454
100525
100604
100686
100767
100832
100863
100847
100783
100682
100558
100426
100295
100173
100065
99975.1
99910
99872
99853
99844.9
99843.2
99844.7
99847.8
99851.7
99855.8
99859.9
99863.8
99867.5
99870.9
99874.4
99877.9
99881.5
99885.3
99889.2
99893
99896.7
99900.1
99903.2
99905.9
99908.5
99910.1
100080
100064
100065
100065
100071
100079
100092
100108
100130
100157
100189
100227
100268
100309
100343
100361
100358
100334
100293
100241
100184
100127
100074
100027
99990.1
99965.1
99952.2
99947
99946
99947
99948.9
99951.2
99953.5
99955.7
99957.7
99959.5
99961.1
99962.6
99963.9
99965.2
99966.5
99967.7
99969
99970.2
99971.4
99972.5
99973.5
99974.4
99975.2
99975.8
100019
100015
100015
100015
100016
100019
100022
100027
100033
100042
100052
100064
100079
100093
100105
100113
100113
100107
100094
100078
100059
100041
100023
100008
99997
99989.7
99986.4
99985.4
99985.6
99986.2
99987.1
99987.9
99988.7
99989.5
99990.1
99990.7
99991.1
99991.6
99992
99992.3
99992.6
99992.9
99993.2
99993.5
99993.8
99994.1
99994.3
99994.5
99994.7
99994.9
100004
100003
100003
100003
100003
100004
100004
100005
100007
100009
100011
100014
100018
100022
100025
100027
100027
100026
100023
100019
100015
100010
100006
100002
99999.3
99997.6
99997
99996.9
99997
99997.2
99997.4
99997.7
99997.9
99998
99998.2
99998.3
99998.4
99998.5
99998.6
99998.7
99998.7
99998.8
99998.8
99998.9
99998.9
99999
99999
99999.1
99999.1
99999.1
100001
100000
100000
100000
100000
100001
100001
100001
100001
100001
100002
100002
100003
100004
100005
100005
100005
100005
100004
100004
100003
100002
100001
100000
99999.9
99999.6
99999.5
99999.5
99999.5
99999.5
99999.6
99999.6
99999.7
99999.7
99999.7
99999.8
99999.8
99999.8
99999.8
99999.8
99999.8
99999.8
99999.8
99999.8
99999.9
99999.9
99999.9
99999.9
99999.9
99999.9
100000
100000
100000
100000
100000
100000
100000
100000
100000
100000
100000
100000
100000
100001
100001
100001
100001
100001
100001
100001
100000
100000
100000
100000
100000
99999.9
99999.9
99999.9
99999.9
99999.9
99999.9
100000
100000
100000
100000
100000
100000
100000
100000
100000
100000
100000
100000
100000
100000
100000
100000
100000
100000
100000
100000
100000
100000
100000
100000
100000
100000
100000
100000
100000
100000
100000
100000
100000
100000
100000
100000
100000
100000
100000
100000
100000
100000
100000
100000
100000
100000
100000
100000
100000
100000
100000
100000
100000
100000
100000
100000
100000
100000
100000
100000
100000
100000
100000
100000
100000
100000
100000
100000
100000
100000
100000
100000
100000
100000
100000
100000
100000
100000
100000
100000
100000
100000
100000
100000
100000
100000
100000
100000
100000
100000
100000
100000
100000
100000
100000
100000
100000
100000
100000
100000
100000
100000
100000
100000
100000
100000
100000
100000
100000
100000
100000
100000
100000
100000
100000
100000
100000
100000
100000
100000
100000
100000
100000
100000
100000
100000
100000
100000
100000
100000
100000
100000
100000
100000
100000
100000
100000
100000
100000
100000
100000
100000
100000
100000
100000
100000
100000
100000
100000
100000
100000
100000
100000
100000
100000
100000
100000
100000
100000
100000
100000
100000
100000
100000
100000
100000
100000
100000
100000
100000
100000
100000
100000
100000
100000
100000
100000
100000
100000
100000
100000
100000
100000
100000
100000
100000
100000
100000
100000
100000
100000
100000
100000
100000
100000
100000
100000
100000
100000
100000
100000
100000
100000
100000
100000
100000
100000
100000
100000
100000
100000
100000
100000
100000
100000
100000
100000
100000
100000
100000
100000
100000
100000
100000
100000
100000
100000
100000
100000
100000
100000
100000
100000
100000
100000
100000
100000
100000
100000
100000
100000
100000
100000
100000
100000
100000
100000
100000
100000
100000
100000
100000
100000
100000
100000
100000
100000
100000
100000
100000
100000
100000
100000
100000
100000
100000
100000
100000
100000
100000
100000
100000
100000
100000
100000
100000
100000
100000
100000
100000
100000
100000
100000
100000
100000
100000
100000
100000
100000
100000
100000
100000
100000
100000
100000
100000
100000
100000
100000
100000
100000
100000
100000
100000
100000
100000
100000
100000
100000
100000
100000
100000
100000
100000
100000
100000
100000
100000
100000
100000
100000
100000
100000
100000
100000
100000
100000
100000
100000
100000
100000
100000
100000
100000
100000
100000
100000
100000
100000
100000
100000
100000
100000
100000
100000
100000
100000
100000
100000
100000
100000
100000
100000
100000
100000
100000
100000
100000
100000
100000
100000
100000
100000
100000
100000
100000
100000
100000
100000
100000
100000
100000
100000
100000
100000
100000
100000
100000
100000
100000
100000
100000
100000
100000
100000
100000
100000
100000
100000
100000
100000
100000
100000
100000
100000
100000
100000
100000
100000
100000
100000
100000
100000
100000
100000
100000
100000
100000
100000
100000
100000
100000
100000
100000
100000
100000
100000
100000
100000
100000
100000
100000
100000
100000
100000
100000
100000
100000
100000
100000
100000
100000
100000
100000
100000
100000
100000
100000
100000
100000
100000
100000
100000
100000
100000
100000
100000
100000
100000
100000
100000
100000
100000
100000
100000
100000
100000
100000
100000
100000
100000
100000
100000
100000
100000
100000
100000
100000
100000
100000
100000
100000
100000
100000
100000
100000
100000
100000
100000
100000
100000
100000
100000
100000
100000
100000
100000
100000
100000
100000
100000
100000
100000
100000
100000
100000
100000
100000
100000
100000
100000
100000
100000
100000
100000
100000
100000
100000
100000
100000
100000
100000
100000
100000
100000
100000
100000
100000
100000
100000
100000
100000
100000
100000
100000
100000
100000
100000
100000
100000
100000
100000
100000
100000
100000
100000
100000
100000
100000
100000
100000
100000
100000
100000
100000
100000
100000
100000
100000
100000
100000
100000
100000
100000
100000
100000
100000
100000
100000
100000
100000
100000
100000
100000
100000
100000
100000
100000
100000
100000
100000
100000
100000
100000
100000
100000
100000
100000
100000
100000
100000
100000
100000
100000
100000
100000
100000
100000
100000
100000
100000
100000
100000
100000
100000
100000
100000
100000
100000
100000
100000
100000
100000
100000
100000
100000
100000
100000
100000
100000
100000
100000
100000
100000
100000
100000
100000
100000
100000
100000
100000
100000
100000
100000
100000
100000
100000
100000
100000
100000
100000
100000
100000
100000
100000
100000
100000
100000
100000
100000
100000
100000
100000
100000
100000
100000
100000
100000
100000
100000
100000
100000
100000
100000
100000
100000
100000
100000
100000
100000
100000
100000
100000
100000
100000
100000
100000
100000
100000
100000
100000
100000
100000
100000
100000
100000
100000
100000
100000
100000
100000
100000
100000
100000
100000
100000
100000
100000
100000
100000
100000
100000
100000
100000
100000
100000
100000
100000
100000
100000
100000
100000
100000
100000
100000
100000
100000
100000
100000
100000
100000
100000
100000
100000
100000
100000
100000
100000
100000
100000
100000
100000
100000
100000
100000
100000
100000
100000
100000
100000
100000
100000
100000
100000
100000
100000
100000
100000
100000
100000
100000
100000
100000
100000
100000
100000
100000
100000
100000
100000
100000
100000
100000
100000
100000
100000
100000
100000
100000
100000
100000
100000
100000
100000
100000
100000
100000
100000
100000
100000
100000
100000
100000
100000
100000
100000
100000
100000
100000
100000
100000
100000
100000
100000
100000
100000
100000
100000
100000
100000
100000
100000
100000
100000
100000
100000
100000
100000
100000
100000
100000
100000
100000
100000
100000
100000
100000
100000
100000
100000
100000
100000
100000
100000
100000
100000
100000
100000
100000
100000
100000
100000
100000
100000
100000
100000
100000
100000
100000
100000
100000
100000
100000
100000
100000
100000
100000
100000
100000
100000
100000
100000
100000
100000
100000
100000
100000
100000
100000
100000
100000
100000
100000
100000
100000
100000
100000
100000
100000
100000
100000
100000
100000
100000
100000
100000
100000
100000
100000
100000
100000
100000
100000
100000
100000
100000
100000
100000
100000
100000
100000
100000
100000
100000
100000
100000
100000
100000
100000
100000
100000
100000
100000
100000
100000
100000
100000
100000
100000
100000
100000
100000
100000
100000
100000
100000
100000
100000
100000
100000
100000
100000
100000
100000
100000
100000
100000
100000
100000
100000
100000
100000
100000
100000
100000
100000
100000
100000
100000
100000
100000
100000
100000
100000
100000
100000
100000
100000
100000
100000
100000
100000
100000
100000
100000
100000
100000
100000
100000
100000
100000
100000
100000
100000
100000
100000
100000
100000
100000
100000
100000
100000
100000
100000
100000
100000
100000
100000
100000
100000
100000
100000
100000
100000
100000
100000
100000
100000
100000
100000
100000
100000
100000
100000
100000
100000
100000
100000
100000
100000
100000
100000
100000
100000
100000
100000
100000
100000
100000
100000
100000
100000
100000
100000
100000
100000
100000
100000
100000
100000
100000
100000
100000
100000
100000
100000
100000
100000
100000
100000
100000
100000
100000
100000
100000
100000
100000
100000
100000
100000
100000
100000
100000
100000
100000
100000
100000
100000
100000
100000
100000
100000
100000
100000
100000
100000
100000
100000
100000
100000
100000
100000
100000
100000
100000
100000
100000
100000
100000
100000
100000
100000
100000
100000
100000
100000
100000
100000
100000
100000
100000
100000
100000
100000
100000
100000
100000
100000
100000
100000
100000
100000
100000
100000
100000
100000
100000
100000
100000
100000
100000
100000
100000
100000
100000
100000
100000
100000
100000
100000
100000
100000
100000
100000
100000
100000
100000
100000
100000
100000
100000
100000
100000
100000
100000
100000
100000
100000
100000
100000
100000
100000
100000
100000
100000
100000
100000
100000
100000
100000
100000
100000
100000
100000
100000
100000
100000
100000
100000
100000
100000
100000
100000
100000
100000
100000
100000
100000
100000
100000
100000
100000
100000
100000
100000
100000
100000
100000
100000
100000
100000
100000
100000
100000
100000
100000
100000
100000
100000
100000
100000
100000
100000
100000
100000
100000
100000
100000
100000
100000
100000
100000
100000
100000
100000
100000
100000
100000
100000
100000
100000
100000
100000
100000
100000
100000
100000
100000
100000
100000
100000
100000
100000
100000
100000
100000
100000
100000
100000
100000
100000
100000
100000
100000
100000
100000
100000
100000
100000
100000
100000
100000
100000
100000
100000
100000
100000
100000
100000
100000
100000
100000
100000
100000
100000
100000
100000
100000
100000
100000
100000
100000
100000
100000
100000
100000
100000
100000
100000
100000
100000
100000
100000
100000
100000
100000
100000
100000
100000
100000
100000
100000
100000
100000
100000
100000
100000
100000
100000
100000
100000
100000
100000
100000
100000
100000
100000
100000
100000
100000
100000
100000
100000
100000
100000
100000
100000
100000
100000
100000
100000
100000
100000
100000
100000
100000
100000
100000
100000
100000
100000
100000
100000
100000
100000
100000
100000
100000
100000
100000
100000
100000
100000
100000
100000
100000
100000
100000
100000
100000
100000
100000
100000
100000
100000
100000
100000
100000
100000
100000
100000
100000
100000
100000
100000
100000
100000
100000
100000
100000
100000
100000
100000
100000
100000
100000
100000
100000
100000
100000
100000
100000
100000
100000
100000
100000
100000
100000
100000
100000
100000
100000
100000
100000
100000
100000
100000
100000
100000
100000
100000
100000
100000
100000
100000
100000
100000
100000
100000
100000
100000
100000
100000
100000
100000
100000
100000
100000
100000
100000
100000
100000
100000
100000
100000
100000
100000
100000
100000
100000
100000
100000
100000
100000
100000
100000
100000
100000
100000
100000
100000
100000
100000
100000
100000
100000
100000
100000
100000
100000
100000
100000
100000
100000
100000
100000
100000
100000
100000
100000
100000
100000
100000
100000
100000
100000
100000
100000
100000
100000
100000
100000
100000
100000
100000
100000
100000
100000
100000
100000
100000
100000
100000
100000
100000
100000
100000
100000
100000
100000
100000
100000
100000
100000
100000
100000
100000
100000
100000
100000
100000
100000
100000
100000
100000
100000
100000
100000
100000
100000
100000
100000
100000
100000
100000
100000
100000
100000
100000
100000
100000
100000
100000
100000
100000
100000
100000
100000
100000
100000
100000
100000
100000
100000
100000
100000
100000
100000
100000
100000
100000
100000
100000
100000
100000
100000
100000
100000
100000
100000
100000
100000
100000
100000
100000
100000
100000
100000
100000
100000
100000
100000
100000
100000
100000
100000
100000
100000
100000
100000
100000
100000
100000
100000
100000
100000
100000
100000
100000
100000
100000
100000
100000
100000
100000
100000
100000
100000
100000
100000
100000
100000
100000
100000
100000
100000
100000
100000
100000
99566.4
99451.2
99475.3
99453.6
99454.6
99447.3
99443.5
99436.8
99431.5
99420.3
99413.4
99389.3
99383.8
99313.8
99345.3
99519.3
99450.9
99472.2
99453.4
99453.8
99446.9
99443.2
99436.6
99431.5
99420.5
99414.2
99390.1
99384.3
99317.8
99312.2
99517.9
99451.6
99469.6
99452.5
99452.8
99446.6
99443.1
99437.2
99432.7
99423.5
99418.7
99402.6
99401.8
99376.3
99396.6
99485.4
99448.8
99464
99451.4
99451.4
99446.1
99442.9
99437.7
99433.5
99425.4
99420.4
99406.1
99400.7
99376.8
99372.3
99481.5
99447.5
99460
99450.1
99450.1
99446
99443.5
99439.5
99436.7
99431.7
99429.5
99423.8
99425
99422.6
99431.1
99461.2
99444.8
99454.2
99448
99448.3
99445.5
99443.6
99440.7
99438.4
99434.6
99432.2
99427.5
99425.7
99421.6
99421.6
99455.2
99442.8
99450
99446.3
99447
99445.4
99444.7
99443.4
99442.9
99442
99442.5
99443
99445.9
99449.6
99455.8
99442.7
99438.5
99444.5
99443.5
99445
99444.8
99445
99444.8
99444.9
99444.8
99445.3
99445.9
99447.5
99449.6
99453
99437.3
99436.2
99441.3
99442
99444.2
99445.4
99446.9
99448.3
99450.1
99452.1
99454.8
99458
99462
99466.7
99472.1
99428.5
99430.2
99435.1
99437.2
99440
99442.1
99444.2
99446.2
99448.4
99450.7
99453.3
99456.1
99459.4
99463.2
99467.4
99422.6
99427.3
99433.4
99437.5
99441.8
99445.6
99449.3
99452.8
99456.6
99460.3
99464.2
99468.2
99472.5
99477
99481.6
99419
99423.5
99428.8
99432.7
99436.8
99440.7
99444.5
99448.3
99452.2
99456.2
99460.2
99464.3
99468.6
99473.1
99477.6
99406.8
99412.4
99418.2
99422.6
99426.9
99431
99435.1
99439.1
99443.2
99447.3
99451.3
99455.5
99459.7
99464
99468.3
99407.3
99418
99428.2
99436.5
99443.9
99450.5
99456.5
99462.1
99467.3
99472.2
99476.8
99481.2
99485.4
99489.5
99493.4
99395.3
99401.9
99409.4
99416.1
99422.7
99428.9
99434.9
99440.8
99446.5
99452
99457.5
99462.9
99468.2
99473.3
99478.5
99352
99357.1
99362.9
99368.4
99374.1
99379.7
99385.5
99391.3
99397.1
99403
99409
99415
99420.9
99426.9
99432.7
99385.1
99401.1
99416
99428.2
99439.1
99448.8
99457.4
99465.2
99472.3
99478.8
99484.8
99490.3
99495.3
99499.9
99504
99398.4
99416.1
99433.7
99448
99460.4
99471.2
99480.5
99488.8
99496.1
99502.5
99508.3
99513.5
99518.2
99522.4
99526.3
99220.5
99230
99242.1
99253.7
99264.9
99275.8
99286.1
99296
99305.5
99314.5
99323.2
99331.5
99339.6
99347.3
99355.1
99048.4
99059.8
99071.1
99084.4
99097.7
99111.5
99125.5
99139.5
99153.5
99167.3
99181
99194.4
99207.4
99220.3
99232.7
99151.7
99168.9
99183.1
99199
99214.9
99230.8
99246.7
99262.4
99277.9
99293
99307.7
99322
99335.8
99349.3
99361.8
99461.5
99477.9
99490.9
99504.5
99517.6
99530.4
99542.8
99554.8
99566.3
99577.5
99588.1
99598.4
99608.1
99617.6
99626.1
99750.1
99760
99767.9
99775.8
99783.3
99790.4
99797.1
99803.6
99809.6
99815.4
99820.9
99826.1
99830.9
99835.6
99839.8
99912.8
99917
99920.3
99923.6
99926.6
99929.4
99932.1
99934.6
99936.9
99939.1
99941.2
99943.1
99944.9
99946.6
99948.1
99976.6
99977.9
99978.9
99979.9
99980.8
99981.6
99982.4
99983.1
99983.8
99984.5
99985
99985.6
99986.1
99986.6
99987
99995.1
99995.4
99995.6
99995.8
99996
99996.2
99996.4
99996.6
99996.7
99996.9
99997
99997.1
99997.2
99997.3
99997.4
99999.2
99999.2
99999.3
99999.3
99999.3
99999.4
99999.4
99999.4
99999.5
99999.5
99999.5
99999.5
99999.6
99999.6
99999.6
99999.9
99999.9
99999.9
99999.9
99999.9
99999.9
99999.9
99999.9
99999.9
99999.9
99999.9
99999.9
99999.9
99999.9
99999.9
100000
100000
100000
100000
100000
100000
100000
100000
100000
100000
100000
100000
100000
100000
100000
100000
100000
100000
100000
100000
100000
100000
100000
100000
100000
100000
100000
100000
100000
100000
100000
100000
100000
100000
100000
100000
100000
100000
100000
100000
100000
100000
100000
100000
100000
100000
100000
100000
100000
100000
100000
100000
100000
100000
100000
100000
100000
100000
100000
100000
100000
100000
100000
100000
100000
100000
100000
100000
100000
100000
100000
100000
100000
100000
100000
100000
100000
100000
100000
100000
100000
100000
100000
100000
100000
100000
100000
100000
100000
100000
100000
100000
100000
100000
100000
100000
100000
100000
100000
100000
100000
100000
100000
100000
100000
100000
100000
100000
100000
100000
100000
100000
100000
100000
100000
100000
100000
100000
100000
100000
100000
100000
100000
100000
100000
100000
100000
100000
100000
100000
100000
100000
100000
100000
100000
100000
100000
100000
100000
100000
100000
100000
100000
100000
100000
100000
100000
100000
100000
100000
100000
100000
100000
100000
100000
100000
100000
100000
100000
100000
100000
100000
100000
100000
100000
100000
100000
100000
100000
100000
100000
100000
100000
100000
100000
100000
100000
100000
100000
100000
100000
100000
100000
100000
100000
100000
100000
100000
100000
100000
100000
100000
100000
100000
100000
100000
100000
100000
100000
100000
100000
100000
100000
100000
100000
100000
100000
100000
100000
100000
100000
100000
100000
100000
100000
100000
100000
100000
100000
100000
100000
100000
100000
100000
100000
100000
100000
100000
100000
100000
100000
100000
100000
100000
100000
100000
100000
100000
100000
100000
100000
100000
100000
100000
100000
100000
100000
100000
100000
100000
100000
100000
100000
100000
100000
100000
100000
100000
100000
100000
100000
100000
100000
100000
100000
100000
100000
100000
100000
100000
100000
100000
100000
100000
100000
100000
100000
100000
100000
100000
100000
100000
100000
100000
100000
100000
100000
100000
100000
100000
100000
100000
100000
100000
100000
100000
100000
100000
100000
100000
100000
100000
100000
100000
100000
100000
100000
100000
100000
100000
100000
100000
100000
100000
100000
100000
100000
100000
100000
100000
100000
100000
100000
100000
100000
100000
100000
100000
100000
100000
100000
100000
100000
100000
100000
100000
100000
100000
100000
100000
100000
100000
100000
100000
100000
100000
100000
100000
100000
100000
100000
100000
100000
100000
100000
100000
100000
100000
100000
100000
100000
100000
100000
100000
100000
100000
100000
100000
100000
100000
100000
100000
100000
100000
100000
100000
100000
100000
100000
100000
100000
100000
100000
100000
100000
100000
100000
100000
100000
100000
100000
100000
100000
100000
100000
100000
100000
100000
100000
100000
100000
100000
100000
100000
100000
100000
100000
100000
100000
100000
100000
100000
100000
100000
100000
100000
100000
100000
100000
100000
100000
100000
100000
100000
100000
100000
100000
100000
100000
100000
100000
100000
100000
100000
100000
100000
100000
100000
100000
100000
100000
100000
100000
100000
100000
100000
100000
100000
100000
100000
100000
100000
100000
100000
100000
100000
100000
100000
100000
100000
100000
100000
100000
100000
100000
100000
100000
100000
100000
100000
100000
100000
100000
100000
100000
100000
100000
100000
100000
100000
99162.1
99361.8
99406.6
99379.6
99356.6
99341.2
99328.2
99314.1
99303.3
99298.4
99295.8
99294.2
99296
99302
99310.9
99321.4
99333.3
99346.2
99360.1
99374.9
99390.6
99407.1
99424.4
99442.5
99461.1
99480.5
99500.7
99521.9
99544
99565.3
99590.8
99618.9
99639.9
99670.3
99706.4
99731.7
99749.4
99763.1
99772.7
99779.1
99783.2
99785.4
99786
99784.5
99780.9
99775.6
99768.8
99760.8
99751.6
99741.3
99730.2
99718.4
99706.3
99694
99681.8
99669.7
99658
99646.2
99634.3
99621.9
99608.7
99594.7
99579.8
99563.8
99546.7
99528.4
99509.5
99490.6
99471.9
99452.5
99432.4
99412.4
99392.9
99375.5
99361.9
99354.5
99355.6
99365
99381.9
99409.2
99171.1
99167.4
99183.6
99197.3
99210.9
99224.5
99236.2
99248
99259.7
99271.1
99283.7
99295.5
99306.6
99319.5
99332.2
99344.5
99357.3
99370.5
99384.1
99397.9
99411.9
99426.4
99441.1
99455.8
99471.5
99488.1
99505.3
99523.8
99544.2
99566.9
99593.8
99624.4
99658.5
99690.1
99718.6
99744.6
99765.9
99780.6
99789.6
99793.9
99795
99793.9
99790.8
99786
99779.7
99772.4
99764.5
99755.9
99746.5
99736.6
99726.2
99715.5
99704.4
99693.1
99681.6
99670.1
99658.6