/*--------------------------------*- C++ -*----------------------------------*\
  =========                 |
  \\      /  F ield         | OpenFOAM: The Open Source CFD Toolbox
   \\    /   O peration     | Website:  https://openfoam.org
    \\  /    A nd           | Version:  10
     \\/     M anipulation  |
\*---------------------------------------------------------------------------*/
FoamFile
{
    format      ascii;
    class       volScalarField;
    location    "0.0004";
    object      T;
}
// * * * * * * * * * * * * * * * * * * * * * * * * * * * * * * * * * * * * * //

dimensions      [0 0 0 1 0 0 0];

internalField   nonuniform List<scalar> 
13320
(
300.131
300.104
300.059
300.043
300.042
300.045
300.042
300.033
300.013
299.994
299.99
299.975
299.95
299.97
300.052
300.16
300.145
299.936
299.594
299.203
298.81
298.446
298.102
297.779
297.476
297.206
296.982
296.801
296.651
296.525
296.42
296.34
296.298
296.312
296.368
296.407
296.349
296.195
296.067
296.1
296.253
296.404
296.457
296.458
296.479
296.519
296.539
296.558
296.567
296.604
300.022
300.001
299.965
299.93
299.905
299.891
299.879
299.87
299.856
299.849
299.861
299.864
299.851
299.874
299.962
300.087
300.094
299.908
299.58
299.195
298.805
298.443
298.105
297.79
297.492
297.227
297.007
296.83
296.683
296.559
296.456
296.377
296.336
296.347
296.405
296.449
296.399
296.25
296.118
296.137
296.289
296.443
296.504
296.506
296.526
296.566
296.588
296.606
296.615
296.639
299.986
299.969
299.936
299.896
299.858
299.828
299.804
299.789
299.776
299.771
299.789
299.8
299.796
299.825
299.918
300.053
300.074
299.9
299.576
299.194
298.805
298.445
298.111
297.801
297.506
297.242
297.024
296.848
296.703
296.58
296.478
296.4
296.359
296.369
296.427
296.473
296.425
296.279
296.146
296.162
296.313
296.467
296.531
296.532
296.552
296.593
296.615
296.632
296.644
296.664
299.974
299.96
299.931
299.891
299.848
299.808
299.772
299.751
299.736
299.729
299.746
299.762
299.761
299.784
299.876
300.016
300.052
299.892
299.575
299.197
298.812
298.453
298.12
297.811
297.518
297.256
297.038
296.862
296.716
296.594
296.492
296.414
296.371
296.38
296.437
296.486
296.444
296.303
296.165
296.172
296.314
296.472
296.542
296.548
296.566
296.606
296.63
296.647
296.659
296.675
299.968
299.957
299.932
299.895
299.85
299.804
299.762
299.736
299.717
299.707
299.718
299.735
299.735
299.756
299.844
299.992
300.043
299.897
299.588
299.212
298.824
298.463
298.13
297.82
297.528
297.265
297.047
296.872
296.727
296.604
296.502
296.422
296.378
296.385
296.44
296.492
296.455
296.317
296.177
296.173
296.316
296.475
296.549
296.556
296.572
296.611
296.636
296.652
296.664
296.679
299.963
299.956
299.936
299.907
299.866
299.819
299.772
299.739
299.717
299.703
299.709
299.724
299.723
299.732
299.819
299.969
300.035
299.906
299.606
299.23
298.843
298.48
298.143
297.831
297.537
297.273
297.055
296.878
296.733
296.61
296.507
296.426
296.379
296.384
296.437
296.492
296.463
296.331
296.186
296.168
296.3
296.46
296.544
296.555
296.569
296.607
296.636
296.651
296.663
296.677
299.96
299.955
299.94
299.916
299.881
299.838
299.791
299.755
299.729
299.709
299.71
299.725
299.725
299.728
299.805
299.961
300.041
299.926
299.632
299.256
298.863
298.496
298.157
297.842
297.545
297.28
297.06
296.882
296.736
296.613
296.509
296.427
296.378
296.379
296.432
296.49
296.468
296.342
296.191
296.16
296.284
296.448
296.539
296.552
296.564
296.601
296.631
296.646
296.659
296.672
299.957
299.954
299.943
299.925
299.896
299.86
299.816
299.78
299.75
299.724
299.72
299.732
299.73
299.726
299.795
299.95
300.044
299.946
299.662
299.286
298.892
298.52
298.174
297.856
297.556
297.288
297.067
296.888
296.741
296.616
296.511
296.428
296.376
296.373
296.422
296.482
296.472
296.352
296.197
296.149
296.259
296.419
296.522
296.543
296.554
296.588
296.62
296.637
296.65
296.663
299.954
299.954
299.945
299.93
299.907
299.877
299.84
299.807
299.776
299.744
299.735
299.746
299.744
299.732
299.793
299.946
300.053
299.968
299.69
299.314
298.912
298.537
298.19
297.869
297.567
297.297
297.073
296.892
296.743
296.618
296.512
296.428
296.373
296.366
296.412
296.476
296.478
296.366
296.209
296.143
296.235
296.399
296.514
296.543
296.549
296.581
296.614
296.633
296.645
296.658
299.955
299.956
299.949
299.937
299.917
299.892
299.859
299.828
299.796
299.761
299.748
299.759
299.756
299.738
299.789
299.94
300.061
299.998
299.734
299.359
298.957
298.573
298.217
297.889
297.581
297.307
297.082
296.901
296.752
296.626
296.52
296.433
296.374
296.36
296.402
296.466
296.482
296.384
296.223
296.136
296.206
296.364
296.491
296.53
296.538
296.567
296.602
296.623
296.636
296.648
299.958
299.962
299.955
299.945
299.929
299.913
299.888
299.862
299.828
299.791
299.771
299.777
299.772
299.743
299.785
299.931
300.062
300.014
299.758
299.383
298.976
298.589
298.232
297.903
297.596
297.321
297.093
296.909
296.757
296.628
296.52
296.43
296.369
296.348
296.384
296.449
296.48
296.396
296.239
296.132
296.173
296.313
296.453
296.512
296.524
296.548
296.582
296.606
296.622
296.636
299.954
299.961
299.954
299.946
299.932
299.917
299.893
299.873
299.85
299.819
299.798
299.805
299.803
299.767
299.796
299.938
300.077
300.051
299.81
299.437
299.028
298.631
298.266
297.929
297.613
297.331
297.1
296.915
296.764
296.637
296.529
296.44
296.375
296.349
296.378
296.446
296.489
296.429
296.286
296.158
296.16
296.29
296.444
296.522
296.538
296.557
296.59
296.615
296.628
296.64
299.979
299.987
299.981
299.974
299.96
299.946
299.92
299.895
299.87
299.835
299.803
299.805
299.802
299.768
299.794
299.93
300.089
300.079
299.856
299.484
299.072
298.666
298.292
297.95
297.632
297.351
297.121
296.935
296.782
296.652
296.542
296.448
296.376
296.34
296.357
296.418
296.471
296.437
296.301
296.151
296.112
296.209
296.354
296.452
296.486
296.506
296.542
296.577
296.601
296.617
299.995
300.003
299.997
299.998
299.987
299.98
299.964
299.952
299.938
299.908
299.869
299.854
299.844
299.789
299.789
299.913
300.076
300.092
299.87
299.5
299.084
298.683
298.312
297.972
297.654
297.367
297.128
296.936
296.778
296.645
296.532
296.437
296.362
296.319
296.327
296.381
296.45
296.452
296.341
296.191
296.115
296.174
296.309
296.427
296.478
296.491
296.514
296.55
296.584
296.61
299.954
299.97
299.956
299.954
299.941
299.936
299.92
299.916
299.918
299.905
299.894
299.9
299.907
299.877
299.875
300.002
300.17
300.182
299.982
299.612
299.184
298.764
298.373
298.012
297.674
297.379
297.141
296.953
296.801
296.674
296.567
296.476
296.402
296.355
296.351
296.398
296.475
296.509
296.434
296.289
296.173
296.176
296.293
296.444
296.531
296.559
296.562
296.572
296.587
296.603
300.074
300.094
300.083
300.076
300.06
300.038
300.001
299.966
299.937
299.892
299.855
299.846
299.836
299.795
299.798
299.919
300.117
300.168
299.978
299.619
299.196
298.772
298.38
298.025
297.703
297.417
297.18
296.989
296.831
296.697
296.581
296.478
296.39
296.323
296.292
296.311
296.372
296.428
296.401
296.27
296.112
296.026
296.064
296.186
296.325
296.414
296.46
296.486
296.504
296.518
300.158
300.161
300.159
300.167
300.17
300.179
300.17
300.165
300.158
300.115
300.066
300.037
299.989
299.903
299.864
299.954
300.134
300.195
300.006
299.641
299.218
298.803
298.416
298.06
297.728
297.424
297.171
296.966
296.796
296.652
296.53
296.425
296.337
296.268
296.229
296.237
296.29
296.371
296.413
296.367
296.234
296.103
296.041
296.079
296.175
296.294
296.391
296.465
296.521
296.562
299.92
299.931
299.907
299.921
299.919
299.934
299.96
299.997
300.047
300.073
300.111
300.175
300.197
300.155
300.138
300.268
300.433
300.439
300.232
299.848
299.393
298.938
298.514
298.122
297.753
297.436
297.185
296.991
296.838
296.716
296.617
296.533
296.463
296.407
296.369
296.362
296.397
296.471
296.551
296.588
296.541
296.448
296.353
296.3
296.302
296.347
296.412
296.479
296.539
296.595
300.039
300.107
300.083
300.074
300.039
299.979
299.934
299.884
299.848
299.805
299.814
299.869
299.89
299.862
299.882
300.053
300.261
300.343
300.166
299.799
299.36
298.914
298.498
298.122
297.789
297.501
297.269
297.089
296.943
296.819
296.708
296.608
296.517
296.433
296.362
296.31
296.289
296.303
296.349
296.394
296.402
296.364
296.3
296.233
296.182
296.159
296.158
296.178
296.207
296.247
300.684
300.752
300.756
300.742
300.728
300.664
300.604
300.51
300.399
300.27
300.163
300.07
299.938
299.806
299.795
299.958
300.178
300.234
300.047
299.693
299.275
298.872
298.491
298.141
297.822
297.522
297.264
297.047
296.858
296.691
296.541
296.406
296.285
296.175
296.079
295.998
295.941
295.912
295.915
295.937
295.96
295.969
295.956
295.932
295.903
295.879
295.866
295.865
295.872
295.888
300.933
300.883
300.92
300.913
300.973
300.998
301.046
301.067
301.069
301.044
301.007
300.935
300.821
300.732
300.754
300.862
300.945
300.831
300.508
300.062
299.58
299.106
298.663
298.244
297.843
297.475
297.167
296.92
296.719
296.554
296.417
296.305
296.21
296.131
296.065
296.012
295.972
295.949
295.948
295.964
295.991
296.02
296.044
296.061
296.073
296.081
296.089
296.097
296.108
296.124
300.248
300.108
300.143
300.144
300.234
300.33
300.465
300.61
300.765
300.922
301.071
301.19
301.277
301.382
301.515
301.6
301.56
301.32
300.894
300.37
299.821
299.286
298.778
298.308
297.871
297.497
297.216
297.016
296.874
296.775
296.704
296.654
296.618
296.593
296.575
296.564
296.559
296.56
296.57
296.587
296.612
296.641
296.671
296.699
296.723
296.743
296.762
296.778
296.793
296.808
299.239
299.105
299.124
299.126
299.193
299.28
299.402
299.55
299.725
299.922
300.132
300.345
300.557
300.771
300.962
301.057
301.003
300.788
300.433
299.998
299.537
299.082
298.651
298.258
297.913
297.641
297.459
297.349
297.285
297.251
297.234
297.228
297.229
297.233
297.24
297.249
297.258
297.268
297.28
297.294
297.31
297.328
297.347
297.365
297.383
297.399
297.413
297.425
297.437
297.447
298.505
298.428
298.435
298.436
298.468
298.515
298.581
298.667
298.774
298.902
299.049
299.21
299.383
299.557
299.705
299.782
299.763
299.644
299.441
299.188
298.913
298.638
298.379
298.149
297.954
297.812
297.729
297.687
297.669
297.665
297.668
297.674
297.682
297.691
297.7
297.708
297.716
297.723
297.731
297.738
297.746
297.754
297.762
297.77
297.778
297.785
297.792
297.798
297.803
297.808
298.157
298.127
298.129
298.129
298.14
298.157
298.182
298.216
298.259
298.314
298.38
298.456
298.542
298.629
298.703
298.746
298.745
298.7
298.618
298.511
298.392
298.272
298.16
298.061
297.981
297.927
297.899
297.887
297.885
297.887
297.891
297.896
297.901
297.906
297.91
297.914
297.917
297.92
297.923
297.926
297.929
297.931
297.934
297.937
297.939
297.941
297.944
297.945
297.947
297.949
298.039
298.03
298.03
298.03
298.033
298.038
298.045
298.054
298.067
298.084
298.105
298.131
298.16
298.19
298.216
298.233
298.235
298.222
298.198
298.164
298.126
298.087
298.05
298.019
297.994
297.978
297.971
297.969
297.969
297.971
297.973
297.974
297.976
297.978
297.979
297.98
297.981
297.982
297.983
297.984
297.984
297.985
297.986
297.986
297.987
297.987
297.988
297.988
297.989
297.989
298.008
298.006
298.006
298.006
298.006
298.007
298.009
298.011
298.014
298.018
298.023
298.029
298.037
298.044
298.051
298.056
298.057
298.054
298.048
298.04
298.031
298.021
298.012
298.004
297.999
297.995
297.994
297.993
297.994
297.994
297.995
297.995
297.995
297.996
297.996
297.996
297.997
297.997
297.997
297.997
297.997
297.997
297.998
297.998
297.998
297.998
297.998
297.998
297.998
297.998
298.001
298.001
298.001
298.001
298.001
298.001
298.001
298.002
298.002
298.003
298.004
298.005
298.007
298.008
298.01
298.01
298.011
298.01
298.009
298.008
298.006
298.004
298.002
298.001
298
297.999
297.999
297.999
297.999
297.999
297.999
297.999
297.999
297.999
297.999
297.999
298
298
298
298
298
298
298
298
298
298
298
298
298
298
298
298
298
298
298
298
298
298
298
298
298.001
298.001
298.001
298.001
298.001
298.002
298.002
298.002
298.001
298.001
298.001
298.001
298
298
298
298
298
298
298
298
298
298
298
298
298
298
298
298
298
298
298
298
298
298
298
298
298
298
298
298
298
298
298
298
298
298
298
298
298
298
298
298
298
298
298
298
298
298
298
298
298
298
298
298
298
298
298
298
298
298
298
298
298
298
298
298
298
298
298
298
298
298
298
298
298
298
298
298
298
298
298
298
298
298
298
298
298
298
298
298
298
298
298
298
298
298
298
298
298
298
298
298
298
298
298
298
298
298
298
298
298
298
298
298
298
298
298
298
298
298
298
298
298
298
298
298
298
298
298
298
298
298
298
298
298
298
298
298
298
298
298
298
298
298
298
298
298
298
298
298
298
298
298
298
298
298
298
298
298
298
298
298
298
298
298
298
298
298
298
298
298
298
298
298
298
298
298
298
298
298
298
298
298
298
298
298
298
298
298
298
298
298
298
298
298
298
298
298
298
298
298
298
298
298
298
298
298
298
298
298
298
298
298
298
298
298
298
298
298
298
298
298
298
298
298
298
298
298
298
298
298
298
298
298
298
298
298
298
298
298
298
298
298
298
298
298
298
298
298
298
298
298
298
298
298
298
298
298
298
298
298
298
298
298
298
298
298
298
298
298
298
298
298
298
298
298
298
298
298
298
298
298
298
298
298
298
298
298
298
298
298
298
298
298
298
298
298
298
298
298
298
298
298
298
298
298
298
298
298
298
298
298
298
298
298
298
298
298
298
298
298
298
298
298
298
298
298
298
298
298
298
298
298
298
298
298
298
298
298
298
298
298
298
298
298
298
298
298
298
298
298
298
298
298
298
298
298
298
298
298
298
298
298
298
298
298
298
298
298
298
298
298
298
298
298
298
298
298
298
298
298
298
298
298
298
298
298
298
298
298
298
298
298
298
298
298
298
298
298
298
298
298
298
298
298
298
298
298
298
298
298
298
298
298
298
298
298
298
298
298
298
298
298
298
298
298
298
298
298
298
298
298
298
298
298
298
298
298
298
298
298
298
298
298
298
298
298
298
298
298
298
298
298
298
298
298
298
298
298
298
298
298
298
298
298
298
298
298
298
298
298
298
298
298
298
298
298
298
298
298
298
298
298
298
298
298
298
298
298
298
298
298
298
298
298
298
298
298
298
298
298
298
298
298
298
298
298
298
298
298
298
298
298
298
298
298
298
298
298
298
298
298
298
298
298
298
298
298
298
298
298
298
298
298
298
298
298
298
298
298
298
298
298
298
298
298
298
298
298
298
298
298
298
298
298
298
298
298
298
298
298
298
298
298
298
298
298
298
298
298
298
298
298
298
298
298
298
298
298
298
298
298
298
298
298
298
298
298
298
298
298
298
298
298
298
298
298
298
298
298
298
298
298
298
298
298
298
298
298
298
298
298
298
298
298
298
298
298
298
298
298
298
298
298
298
298
298
298
298
298
298
298
298
298
298
298
298
298
298
298
298
298
298
298
298
298
298
298
298
298
298
298
298
298
298
298
298
298
298
298
298
298
298
298
298
298
298
298
298
298
298
298
298
298
298
298
298
298
298
298
298
298
298
298
298
298
298
298
298
298
298
298
298
298
298
298
298
298
298
298
298
298
298
298
298
298
298
298
298
298
298
298
298
298
298
298
298
298
298
298
298
298
298
298
298
298
298
298
298
298
298
298
298
298
298
298
298
298
298
298
298
298
298
298
298
298
298
298
298
298
298
298
298
298
298
298
298
298
298
298
298
298
298
298
298
298
298
298
298
298
298
298
298
298
298
298
298
298
298
298
298
298
298
298
298
298
298
298
298
298
298
298
298
298
298
298
298
298
298
298
298
298
298
298
298
298
298
298
298
298
298
298
298
298
298
298
298
298
298
298
298
298
298
298
298
298
298
298
298
298
298
298
298
298
298
298
298
298
298
298
298
298
298
298
298
298
298
298
298
298
298
298
298
298
298
298
298
298
298
298
298
298
298
298
298
298
298
298
298
298
298
298
298
298
298
298
298
298
298
298
298
298
298
298
298
298
298
298
298
298
298
298
298
298
298
298
298
298
298
298
298
298
298
298
298
298
298
298
298
298
298
298
298
298
298
298
298
298
298
298
298
298
298
298
298
298
298
298
298
298
298
298
298
298
298
298
298
298
298
298
298
298
298
298
298
298
298
298
298
298
298
298
298
298
298
298
298
298
298
298
298
298
298
298
298
298
298
298
298
298
298
298
298
298
298
298
298
298
298
298
298
298
298
298
298
298
298
298
298
298
298
298
298
298
298
298
298
298
298
298
298
298
298
298
298
298
298
298
298
298
298
298
298
298
298
298
298
298
298
298
298
298
298
298
298
298
298
298
298
298
298
298
298
298
298
298
298
298
298
298
298
298
298
298
298
298
298
298
298
298
298
298
298
298
298
298
298
298
298
298
298
298
298
298
298
298
298
298
298
298
298
298
298
298
298
298
298
298
298
298
298
298
298
298
298
298
298
298
298
298
298
298
298
298
298
298
298
298
298
298
298
298
298
298
298
298
298
298
298
298
298
298
298
298
298
298
298
298
298
298
298
298
298
298
298
298
298
298
298
298
298
298
298
298
298
298
298
298
298
298
298
298
298
298
298
298
298
298
298
298
298
298
298
298
298
298
298
298
298
298
298
298
298
298
298
298
298
298
298
298
298
298
298
298
298
298
298
298
298
298
298
298
298
298
298
298
298
298
298
298
298
298
298
298
298
298
298
298
298
298
298
298
298
298
298
298
298
298
298
298
298
298
298
298
298
298
298
298
298
298
298
298
298
298
298
298
298
298
298
298
298
298
298
298
298
298
298
298
298
298
298
298
298
298
298
298
298
298
298
298
298
298
298
298
298
298
298
298
298
298
298
298
298
298
298
298
298
298
298
298
298
298
298
298
298
298
298
298
298
298
298
298
298
298
298
298
298
298
298
298
298
298
298
298
298
298
298
298
298
298
298
298
298
298
298
298
298
298
298
298
298
298
298
298
298
298
298
298
298
298
298
298
298
298
298
298
298
298
298
298
298
298
298
298
298
298
298
298
298
298
298
298
298
298
298
298
298
298
298
298
298
298
298
298
298
298
298
298
298
298
298
298
298
298
298
298
298
298
298
298
298
298
298
298
298
298
298
298
298
298
298
298
298
298
298
298
298
298
298
298
298
298
298
298
298
298
298
298
298
298
298
298
298
298
298
298
298
298
298
298
298
298
298
298
298
298
298
298
298
298
298
298
298
298
298
298
298
298
298
298
298
298
298
298
298
298
298
298
298
298
298
298
298
298
298
298
298
298
298
298
298
298
298
298
298
298
298
298
298
298
298
298
298
298
298
298
298
298
298
298
298
298
298
298
298
298
298
298
298
298
298
298
298
298
298
298
298
298
298
298
298
298
298
298
298
298
298
298
298
298
298
298
298
298
298
298
298
298
298
298
298
298
298
298
298
298
298
298
298
298
298
298
298
298
298
298
298
298
298
298
298
298
298
298
298
298
298
298
298
298
298
298
298
298
298
298
298
298
298
298
298
298
298
298
298
298
298
298
298
298
298
298
298
298
298
298
298
298
298
298
298
298
298
298
298
298
298
298
298
298
296.612
296.574
296.571
296.562
296.563
296.571
296.597
296.63
296.656
296.674
296.676
296.676
296.651
296.635
296.531
296.649
296.629
296.625
296.618
296.618
296.625
296.639
296.656
296.671
296.682
296.683
296.682
296.664
296.652
296.592
296.67
296.658
296.657
296.653
296.654
296.656
296.663
296.673
296.682
296.689
296.692
296.694
296.689
296.688
296.687
296.682
296.676
296.676
296.674
296.674
296.675
296.679
296.684
296.691
296.696
296.7
296.702
296.702
296.702
296.706
296.686
296.683
296.686
296.686
296.686
296.687
296.689
296.693
296.698
296.703
296.708
296.713
296.718
296.723
296.731
296.684
296.685
296.689
296.691
296.692
296.693
296.695
296.699
296.704
296.709
296.715
296.721
296.728
296.735
296.744
296.68
296.684
296.689
296.692
296.695
296.697
296.699
296.704
296.709
296.715
296.722
296.73
296.738
296.747
296.757
296.673
296.68
296.686
296.691
296.695
296.698
296.702
296.707
296.713
296.72
296.728
296.736
296.744
296.754
296.764
296.668
296.676
296.684
296.69
296.696
296.701
296.706
296.712
296.719
296.727
296.735
296.744
296.754
296.764
296.774
296.659
296.669
296.678
296.685
296.692
296.697
296.703
296.71
296.717
296.725
296.734
296.742
296.752
296.761
296.771
296.651
296.665
296.677
296.687
296.696
296.704
296.712
296.72
296.729
296.738
296.747
296.757
296.766
296.776
296.785
296.652
296.664
296.675
296.684
296.692
296.699
296.707
296.716
296.725
296.735
296.745
296.755
296.765
296.775
296.785
296.63
296.644
296.655
296.663
296.671
296.678
296.686
296.695
296.704
296.713
296.723
296.732
296.741
296.75
296.76
296.635
296.659
296.679
296.695
296.709
296.721
296.734
296.746
296.758
296.769
296.779
296.789
296.798
296.806
296.815
296.618
296.634
296.649
296.661
296.673
296.686
296.698
296.711
296.723
296.734
296.746
296.757
296.768
296.779
296.79
296.528
296.54
296.551
296.562
296.572
296.583
296.595
296.607
296.62
296.632
296.645
296.658
296.672
296.685
296.698
296.599
296.637
296.667
296.692
296.713
296.732
296.75
296.766
296.781
296.795
296.808
296.82
296.832
296.842
296.852
296.645
296.687
296.72
296.747
296.77
296.792
296.811
296.828
296.843
296.856
296.869
296.88
296.89
296.899
296.908
296.278
296.299
296.319
296.34
296.362
296.384
296.406
296.426
296.446
296.466
296.484
296.503
296.52
296.537
296.555
295.913
295.932
295.955
295.982
296.011
296.041
296.071
296.102
296.133
296.164
296.194
296.224
296.254
296.283
296.31
296.148
296.178
296.211
296.246
296.281
296.316
296.352
296.387
296.422
296.456
296.489
296.521
296.553
296.583
296.61
296.831
296.861
296.892
296.922
296.951
296.979
297.007
297.034
297.06
297.085
297.109
297.132
297.154
297.175
297.193
297.461
297.48
297.498
297.515
297.532
297.548
297.563
297.577
297.59
297.603
297.615
297.627
297.638
297.648
297.657
297.813
297.821
297.829
297.836
297.842
297.849
297.855
297.86
297.865
297.87
297.875
297.879
297.883
297.887
297.89
297.95
297.953
297.955
297.957
297.959
297.961
297.963
297.964
297.966
297.967
297.968
297.97
297.971
297.972
297.973
297.99
297.99
297.991
297.991
297.992
297.992
297.992
297.993
297.993
297.993
297.994
297.994
297.994
297.994
297.995
297.998
297.998
297.998
297.999
297.999
297.999
297.999
297.999
297.999
297.999
297.999
297.999
297.999
297.999
297.999
298
298
298
298
298
298
298
298
298
298
298
298
298
298
298
298
298
298
298
298
298
298
298
298
298
298
298
298
298
298
298
298
298
298
298
298
298
298
298
298
298
298
298
298
298
298
298
298
298
298
298
298
298
298
298
298
298
298
298
298
298
298
298
298
298
298
298
298
298
298
298
298
298
298
298
298
298
298
298
298
298
298
298
298
298
298
298
298
298
298
298
298
298
298
298
298
298
298
298
298
298
298
298
298
298
298
298
298
298
298
298
298
298
298
298
298
298
298
298
298
298
298
298
298
298
298
298
298
298
298
298
298
298
298
298
298
298
298
298
298
298
298
298
298
298
298
298
298
298
298
298
298
298
298
298
298
298
298
298
298
298
298
298
298
298
298
298
298
298
298
298
298
298
298
298
298
298
298
298
298
298
298
298
298
298
298
298
298
298
298
298
298
298
298
298
298
298
298
298
298
298
298
298
298
298
298
298
298
298
298
298
298
298
298
298
298
298
298
298
298
298
298
298
298
298
298
298
298
298
298
298
298
298
298
298
298
298
298
298
298
298
298
298
298
298
298
298
298
298
298
298
298
298
298
298
298
298
298
298
298
298
298
298
298
298
298
298
298
298
298
298
298
298
298
298
298
298
298
298
298
298
298
298
298
298
298
298
298
298
298
298
298
298
298
298
298
298
298
298
298
298
298
298
298
298
298
298
298
298
298
298
298
298
298
298
298
298
298
298
298
298
298
298
298
298
298
298
298
298
298
298
298
298
298
298
298
298
298
298
298
298
298
298
298
298
298
298
298
298
298
298
298
298
298
298
298
298
298
298
298
298
298
298
298
298
298
298
298
298
298
298
298
298
298
298
298
298
298
298
298
298
298
298
298
298
298
298
298
298
298
298
298
298
298
298
298
298
298
298
298
298
298
298
298
298
298
298
298
298
298
298
298
298
298
298
298
298
298
298
298
298
298
298
298
298
298
298
298
298
298
298
298
298
298
298
298
298
298
298
298
298
298
298
298
298
298
298
298
298
298
298
298
298
298
298
298
298
298
298
298
298
298
298
298
298
298
298
298
298
298
298
298
298
298
298
298
298
298
298
298
298
298
298
298
298
298
298
298
298
298
298
298
298
298
298
296.559
296.648
296.676
296.696
296.72
296.745
296.771
296.799
296.829
296.863
296.901
296.945
296.994
297.05
297.112
297.18
297.257
297.341
297.433
297.534
297.644
297.764
297.896
298.042
298.203
298.386
298.587
298.804
299.032
299.255
299.438
299.588
299.668
299.63
299.497
299.278
298.869
298.254
297.461
296.664
296.192
296.351
297.121
298.07
298.627
298.658
298.4
298.087
297.837
297.671
297.567
297.5
297.453
297.415
297.381
297.35
297.32
297.293
297.266
297.239
297.212
297.185
297.158
297.131
297.103
297.076
297.048
297.022
296.996
296.97
296.944
296.918
296.893
296.868
296.845
296.826
296.813
296.806
296.805
296.815
296.566
296.578
296.6
296.62
296.637
296.655
296.67
296.686
296.701
296.716
296.731
296.747
296.763
296.781
296.798
296.817
296.836
296.855
296.876
296.897
296.919
296.942
296.966
296.991
297.021
297.062
297.118
297.196
297.303
297.447
297.626
297.825
298.032
298.229
298.35
298.356
298.187
297.792
297.216
296.677
296.508
296.825
297.482
298.079
298.325
298.25
298.029
297.804
297.632
297.517
297.443
297.394
297.357
297.327
297.299
297.274
297.25
297.226
297.202
297.18
297.158
297.136
297.116
297.096
297.076
297.057
297.039
297.02
297.002
296.984
296.965
296.947
296.929
296.912
296.897
296.884
296.873
296.865
296.86
296.857
296.686
296.688
296.69
296.692
296.695
296.698
296.702
296.708
296.715
296.724
296.733
296.742
296.754
296.767
296.781
296.796
296.811
296.827
296.843
296.859
296.874
296.887
296.896
296.898
296.894
296.883
296.862
296.832
296.796
296.77
296.767
296.788
296.829
296.874
296.89
296.838
296.704
296.52
296.446
296.545
296.889
297.399
297.883
298.164
298.209
298.09
297.907
297.731
297.59
297.489
297.419
297.369
297.33
297.299
297.271
297.245
297.221
297.198
297.176
297.155
297.134
297.114
297.095
297.077
297.06
297.044
297.028
297.013
296.999
296.985
296.973
296.961
296.949
296.939
296.93
296.922
296.916
296.91
296.906
296.902
296.71
296.714
296.719
296.725
296.732
296.739
296.747
296.755
296.763
296.771
296.779
296.788
296.797
296.807
296.817
296.828
296.839
296.851
296.863
296.874
296.883
296.89
296.892
296.887
296.87
296.839
296.787
296.714
296.619
296.51
296.394
296.28
296.175
296.096
296.056
296.07
296.147
296.317
296.579
296.959
297.407
297.809
298.076
298.176
298.144
298.026
297.876
297.73
297.605
297.507
297.431
297.373
297.328
297.291
297.26
297.233
297.209
297.187
297.166
297.147
297.129
297.112
297.096
297.08
297.066
297.053
297.04
297.027
297.015
297.004
296.993
296.983
296.972
296.963
296.954
296.946
296.938
296.931
296.925
296.919
296.738
296.742
296.747
296.751
296.757
296.763
296.769
296.776
296.784
296.792
296.801
296.81
296.819
296.829
296.839
296.85
296.861
296.872
296.883
296.893
296.902
296.909
296.91
296.905
296.889
296.858
296.809
296.738
296.644
296.532
296.41
296.294
296.21
296.169
296.185
296.277
296.462
296.74
297.078
297.436
297.755
297.985
298.104
298.125
298.07
297.97
297.85
297.731
297.622
297.528
297.451
297.388
297.336
297.294
297.259
297.229
297.203
297.18
297.159
297.14
297.122
297.106
297.091
297.076
297.063
297.05
297.037
297.026
297.014
297.004
296.993
296.983
296.974
296.965
296.957
296.95
296.943
296.937
296.931
296.925
296.752
296.757
296.762
296.768
296.774
296.781
296.788
296.795
296.803
296.811
296.819
296.828
296.838
296.848
296.858
296.869
296.88
296.892
296.904
296.916
296.927
296.937
296.944
296.946
296.942
296.929
296.905
296.868
296.819
296.761
296.701
296.65
296.624
296.643
296.718
296.85
297.036
297.261
297.495
297.706
297.87
297.969
298.009
297.993
297.94
297.863
297.773
297.682
297.595
297.516
297.447
297.388
297.337
297.294
297.258
297.226
297.199
297.175
297.154
297.135
297.118
297.102
297.087
297.073
297.06
297.048
297.036
297.025
297.015
297.005
296.995
296.986
296.977
296.969
296.961
296.954
296.946
296.94
296.933
296.927
296.765
296.77
296.776
296.782
296.788
296.795
296.802
296.81
296.818
296.826
296.835
296.844
296.854
296.865
296.876
296.887
296.899
296.912
296.926
296.94
296.955
296.969
296.983
296.996
297.007
297.015
297.019
297.02
297.019
297.019
297.022
297.035
297.065
297.117
297.194
297.292
297.405
297.527
297.639
297.729
297.791
297.82
297.82
297.797
297.756
297.702
297.643
297.581
297.52
297.462
297.409
297.361
297.319
297.281
297.248
297.219
297.192
297.169
297.148
297.129
297.111
297.095
297.081
297.067
297.054
297.042
297.03
297.02
297.009
297
296.99
296.981
296.973
296.964
296.957
296.949
296.942
296.935
296.929
296.923
296.772
296.777
296.783
296.79
296.797
296.804
296.811
296.819
296.827
296.836
296.845
296.855
296.865
296.876
296.888
296.9
296.914
296.928
296.942
296.958
296.975
296.992
297.01
297.029
297.048
297.067
297.087
297.108
297.129
297.153
297.18
297.212
297.25
297.295
297.347
297.403
297.46
297.511
297.552
297.58
297.595
297.597
297.588
297.569
297.544
297.513
297.479
297.444
297.408
297.372
297.338
297.306
297.276
297.248
297.222
297.198
297.176
297.156
297.137
297.119
297.103
297.087
297.073
297.06
297.047
297.035
297.024
297.013
297.003
296.994
296.985
296.976
296.968
296.96
296.952
296.944
296.937
296.93
296.924
296.918
296.782
296.788
296.795
296.802
296.809
296.817
296.825
296.833
296.842
296.851
296.861
296.871
296.882
296.893
296.905
296.918
296.932
296.946
296.961
296.976
296.992
297.01
297.027
297.046
297.065
297.085
297.106
297.127
297.149
297.173
297.197
297.223
297.25
297.278
297.304
297.329
297.351
297.367
297.378
297.384
297.385
297.382
297.376
297.367
297.356
297.342
297.327
297.312
297.295
297.278
297.26
297.242
297.225
297.208
297.191
297.174
297.158
297.142
297.126
297.111
297.097
297.083
297.069
297.057
297.044
297.033
297.022
297.011
297.001
296.991
296.982
296.973
296.965
296.957
296.949
296.941
296.934
296.927
296.92
296.914
296.779
296.786
296.793
296.801
296.809
296.817
296.826
296.835
296.845
296.855
296.866
296.877
296.888
296.9
296.913
296.926
296.939
296.952
296.966
296.98
296.995
297.01
297.025
297.04
297.055
297.071
297.087
297.102
297.118
297.133
297.149
297.163
297.176
297.189
297.199
297.207
297.213
297.217
297.219
297.22
297.22
297.22
297.218
297.217
297.214
297.211
297.208
297.204
297.199
297.193
297.186
297.178
297.17
297.161
297.151
297.141
297.13
297.119
297.107
297.096
297.084
297.072
297.06
297.048
297.037
297.025
297.014
297.003
296.993
296.983
296.973
296.963
296.954
296.945
296.937
296.929
296.921
296.913
296.906
296.899
296.793
296.8
296.808
296.816
296.824
296.832
296.841
296.85
296.86
296.87
296.88
296.891
296.902
296.913
296.924
296.936
296.947
296.958
296.97
296.981
296.993
297.004
297.016
297.027
297.038
297.048
297.058
297.068
297.077
297.085
297.092
297.098
297.103
297.106
297.109
297.11
297.111
297.111
297.112
297.112
297.113
297.114
297.116
297.118
297.12
297.123
297.125
297.126
297.127
297.127
297.126
297.124
297.121