/*--------------------------------*- C++ -*----------------------------------*\
  =========                 |
  \\      /  F ield         | OpenFOAM: The Open Source CFD Toolbox
   \\    /   O peration     | Website:  https://openfoam.org
    \\  /    A nd           | Version:  10
     \\/     M anipulation  |
\*---------------------------------------------------------------------------*/
FoamFile
{
    format      ascii;
    class       volVectorField;
    location    "0.0004";
    object      U;
}
// * * * * * * * * * * * * * * * * * * * * * * * * * * * * * * * * * * * * * //

dimensions      [0 1 -1 0 0 0 0];

internalField   nonuniform List<vector> 
13320
(
(1.99961 3.36902 0)
(4.42538 8.86526 2.14067e-17)
(8.55078 12.8787 2.14093e-17)
(12.7642 14.1683 -1.20732e-18)
(16.2432 14.1108 -3.54059e-17)
(18.8459 13.3321 3.30696e-17)
(20.8247 12.3042 0)
(22.3977 11.2448 6.0849e-17)
(23.673 10.225 -3.39682e-18)
(24.7286 9.25968 2.79716e-17)
(25.6157 8.35303 -1.4202e-18)
(26.3472 7.48055 -8.13459e-17)
(26.939 6.63214 -2.35176e-18)
(27.5049 5.83398 3.52445e-17)
(28.0913 5.09261 0)
(28.6092 4.3955 0)
(28.8673 3.67343 2.6267e-17)
(28.7922 2.92365 -1.4386e-18)
(28.4925 2.17907 2.14407e-17)
(28.0982 1.4653 1.87453e-17)
(27.6908 0.788783 -5.27027e-19)
(27.3054 0.169745 -1.89568e-18)
(26.9467 -0.399044 -6.37861e-18)
(26.6085 -0.913454 -2.47363e-17)
(26.3033 -1.37308 3.39845e-19)
(26.0573 -1.76297 -2.16411e-17)
(25.8862 -2.07905 -2.26253e-17)
(25.7762 -2.33837 3.88465e-19)
(25.7053 -2.56171 2.64459e-17)
(25.6575 -2.7598 -2.91198e-17)
(25.6158 -2.9375 0)
(25.5568 -3.09615 -2.68634e-19)
(25.4421 -3.23336 3.64164e-25)
(25.231 -3.34746 3.1837e-19)
(24.9371 -3.43288 3.47064e-19)
(24.6779 -3.50282 -3.79065e-19)
(24.6258 -3.58292 -1.30368e-17)
(24.7777 -3.68622 1.4472e-17)
(24.8815 -3.78339 1.55807e-17)
(24.6598 -3.83429 -2.76058e-22)
(24.1712 -3.83368 9.4931e-18)
(23.6785 -3.81905 2.45011e-22)
(23.4039 -3.82127 0)
(23.1963 -3.82673 -1.95616e-19)
(22.9647 -3.82374 7.06559e-18)
(22.5803 -3.79107 1.51931e-17)
(22.3157 -3.75616 -8.38194e-18)
(21.7707 -3.68537 -7.08114e-20)
(21.5323 -3.50683 -4.85908e-18)
(19.9474 -3.28655 -4.26908e-20)
(4.00154 2.43916 4.97164e-18)
(5.78465 6.84312 -9.23999e-18)
(8.98486 10.2328 -1.74528e-17)
(12.4559 12.3556 3.35458e-17)
(15.845 12.9968 6.36169e-17)
(18.682 12.7474 -2.97715e-17)
(20.9285 12.0579 -2.80427e-17)
(22.6763 11.1853 -5.32754e-17)
(24.0473 10.2521 1.48982e-18)
(25.1464 9.32333 1.36879e-18)
(26.0566 8.43122 -1.24906e-18)
(26.803 7.57308 -2.49493e-21)
(27.4005 6.74458 0)
(27.9671 5.9579 0)
(28.5696 5.20158 0)
(29.1178 4.44401 0)
(29.3897 3.67258 -2.25151e-17)
(29.3264 2.89926 -6.35936e-19)
(29.0218 2.1452 -1.83967e-17)
(28.6167 1.4304 -1.6595e-17)
(28.2005 0.763424 4.67598e-19)
(27.8052 0.135899 1.68042e-18)
(27.436 -0.441268 -3.21641e-22)
(27.0865 -0.961256 -4.79526e-22)
(26.7645 -1.42311 0)
(26.4986 -1.81909 1.9205e-17)
(26.3105 -2.13871 -2.072e-17)
(26.1875 -2.39992 -2.20506e-17)
(26.104 -2.6244 -4.73286e-17)
(26.047 -2.82348 5.13031e-17)
(25.9981 -3.00134 -2.80436e-17)
(25.9338 -3.15853 3.04948e-17)
(25.8195 -3.29153 -2.59234e-19)
(25.6141 -3.39421 2.827e-19)
(25.3208 -3.46821 1.97205e-17)
(25.0461 -3.53483 0)
(24.9616 -3.6261 -1.17599e-17)
(25.0881 -3.74417 -1.3251e-17)
(25.2039 -3.84607 1.44925e-17)
(25.0171 -3.87992 -3.07691e-17)
(24.5616 -3.85448 -8.42723e-18)
(24.0597 -3.82076 9.23252e-18)
(23.7631 -3.81537 1.01219e-17)
(23.5426 -3.81776 0)
(23.3313 -3.80395 0)
(22.9521 -3.75703 -1.31633e-17)
(22.7246 -3.69331 -2.28685e-19)
(22.2219 -3.61358 1.59611e-17)
(22.0429 -3.37258 4.54679e-18)
(21.2233 -3.16663 0)
(5.99249 1.99328 -4.27218e-18)
(7.08602 5.81741 0)
(9.24177 8.97475 -1.41622e-17)
(12.127 11.1286 -3.0006e-17)
(15.2078 12.2357 -2.76589e-17)
(17.9998 12.4236 0)
(20.3376 12.0086 -3.86512e-21)
(22.2245 11.2784 4.52129e-17)
(23.7282 10.4086 -2.08945e-17)
(24.9305 9.50139 3.60815e-21)
(25.9167 8.61249 -3.51422e-17)
(26.7204 7.74079 6.6058e-17)
(27.3621 6.88299 -3.65328e-18)
(27.9571 6.07237 1.66209e-18)
(28.5726 5.33173 -1.51057e-18)
(29.1354 4.62293 -2.79804e-22)
(29.4295 3.87845 2.48764e-18)
(29.3852 3.103 -1.1262e-18)
(29.0927 2.32843 0)
(28.6931 1.58164 1.46973e-17)
(28.2785 0.874696 -8.27165e-19)
(27.8834 0.232435 7.4525e-19)
(27.5144 -0.358429 2.00579e-18)
(27.1643 -0.894225 1.01788e-17)
(26.8404 -1.3712 0)
(26.571 -1.77599 1.67832e-17)
(26.3782 -2.10249 1.78254e-17)
(26.2509 -2.36906 -1.92694e-17)
(26.1648 -2.59756 2.11744e-17)
(26.1038 -2.79951 -2.29542e-17)
(26.0518 -2.97974 4.97997e-17)
(25.9863 -3.13989 -2.75007e-17)
(25.8714 -3.27705 1.51914e-17)
(25.6658 -3.38642 0)
(25.3732 -3.4665 -3.5021e-17)
(25.0971 -3.53105 0)
(25.0097 -3.6085 1.04413e-17)
(25.1354 -3.71312 -3.56401e-19)
(25.2539 -3.81322 -1.2086e-17)
(25.07 -3.85707 4.27245e-19)
(24.619 -3.84629 -4.67301e-19)
(24.1184 -3.81343 -2.56104e-19)
(23.8213 -3.79651 -8.70145e-18)
(23.6068 -3.78869 -1.01636e-17)
(23.4026 -3.75791 5.72924e-18)
(23.041 -3.70429 5.92984e-18)
(22.8244 -3.604 0)
(22.378 -3.50827 -1.22769e-22)
(22.2059 -3.21555 -6.10427e-20)
(21.5129 -3.01078 -4.21911e-18)
(7.68619 1.58337 4.58682e-19)
(8.47045 4.7152 -6.44537e-18)
(10.1237 7.51918 2.3689e-17)
(12.3647 9.74319 -2.20829e-17)
(15.011 11.0905 -2.55566e-17)
(17.6502 11.61 2.26264e-17)
(19.994 11.4948 2.13911e-17)
(21.9444 10.9827 -2.22656e-17)
(23.5155 10.2486 -1.83332e-17)
(24.7715 9.41976 -2.94851e-17)
(25.7974 8.5762 2.89971e-17)
(26.6277 7.73996 -2.82294e-17)
(27.2804 6.91219 -2.57898e-17)
(27.8796 6.10951 -2.49575e-17)
(28.5034 5.35293 -4.31478e-22)
(29.0824 4.61592 2.42577e-18)
(29.4021 3.85567 -1.1013e-18)
(29.3782 3.07508 -1.59556e-17)
(29.0992 2.30077 0)
(28.7041 1.55928 -2.60611e-17)
(28.2914 0.862027 0)
(27.8975 0.219611 -6.60381e-19)
(27.528 -0.37113 6.55309e-22)
(27.1777 -0.904741 5.3206e-19)
(26.853 -1.37936 0)
(26.5823 -1.78571 -4.65179e-19)
(26.3878 -2.11304 1.6593e-17)
(26.2586 -2.37974 1.79369e-17)
(26.1711 -2.60807 -5.88177e-19)
(26.1086 -2.80951 -3.18641e-19)
(26.0559 -2.98888 -2.17807e-17)
(25.9914 -3.14721 -3.76317e-19)
(25.8794 -3.28074 -1.26809e-17)
(25.6786 -3.38343 -1.4276e-17)
(25.3908 -3.45257 3.11178e-17)
(25.1107 -3.51052 0)
(25.0067 -3.58978 -2.89796e-19)
(25.1241 -3.70697 3.16848e-19)
(25.2504 -3.81233 0)
(25.0929 -3.85184 1.17506e-17)
(24.6639 -3.81484 7.47276e-18)
(24.1647 -3.76404 6.82081e-18)
(23.8571 -3.73541 0)
(23.6437 -3.72405 9.02193e-18)
(23.4494 -3.68021 -9.87014e-18)
(23.1113 -3.6176 -5.26118e-18)
(22.9032 -3.49213 0)
(22.5322 -3.39046 -1.27331e-22)
(22.389 -3.08001 0)
(21.9656 -2.85141 3.79762e-18)
(9.21517 1.31704 7.8751e-19)
(9.70599 3.96415 5.18587e-18)
(10.8299 6.47744 -1.13021e-17)
(12.5761 8.63535 2.18734e-17)
(14.8183 10.1611 3.91855e-17)
(17.2092 10.9536 -1.72441e-17)
(19.4711 11.1036 0)
(21.4423 10.793 0)
(23.0829 10.1911 3.2159e-17)
(24.4182 9.44469 2.96281e-17)
(25.5177 8.64487 -1.70231e-18)
(26.4118 7.82562 3.1124e-18)
(27.1111 7.00066 -2.84869e-18)
(27.7347 6.20249 4.41286e-17)
(28.3706 5.46989 3.57639e-22)
(28.9746 4.76459 -1.82621e-17)
(29.3344 4.02697 -1.5617e-17)
(29.3413 3.24771 2.91823e-17)
(29.0832 2.46046 -8.00841e-19)
(28.6972 1.69655 1.1567e-17)
(28.2878 0.970259 0)
(27.895 0.311717 0)
(27.5274 -0.294577 1.58248e-18)
(27.1787 -0.843441 -6.61734e-18)
(26.8547 -1.3314 1.30942e-17)
(26.5834 -1.74614 5.02466e-22)
(26.3874 -2.07949 -1.38624e-17)
(26.2566 -2.3505 -9.66849e-19)
(26.1677 -2.58171 5.23096e-19)
(26.1042 -2.78531 0)
(26.051 -2.96654 0)
(25.9871 -3.12693 1.06986e-17)
(25.8782 -3.26275 0)
(25.6824 -3.36689 1.30907e-17)
(25.3963 -3.43861 -8.34119e-23)
(25.1123 -3.49398 -9.44354e-19)
(25.0003 -3.56638 -8.24698e-18)
(25.1137 -3.67317 5.63298e-19)
(25.248 -3.77635 0)
(25.1073 -3.81994 -1.0779e-17)
(24.6892 -3.78889 -5.9022e-18)
(24.1891 -3.73518 -1.25225e-17)
(23.8771 -3.69583 -8.85298e-19)
(23.6716 -3.67623 -7.28341e-18)
(23.4884 -3.61915 4.2488e-18)
(23.1759 -3.54961 9.33953e-18)
(22.9736 -3.40711 5.26714e-18)
(22.6607 -3.29877 -1.13907e-17)
(22.5243 -3.00605 0)
(22.1957 -2.80653 -3.36591e-18)
(10.5778 1.08209 0)
(10.9304 3.27896 1.27519e-18)
(11.7512 5.44681 8.53885e-18)
(13.0634 7.44507 0)
(14.8636 9.02855 -1.81323e-17)
(16.9551 10.042 2.14299e-18)
(19.0735 10.4501 1.22187e-17)
(21.0143 10.3729 5.68046e-18)
(22.6858 9.94467 2.46625e-17)
(24.074 9.3169 -2.60186e-17)
(25.2298 8.59504 0)
(26.178 7.82767 2.74369e-18)
(26.918 7.03405 1.50819e-17)
(27.5696 6.24037 -1.37693e-17)
(28.2299 5.49655 -1.88223e-17)
(28.8585 4.79207 1.52265e-17)
(29.2521 4.04743 -1.07717e-21)
(29.2885 3.26641 -2.51059e-17)
(29.0481 2.47362 -1.41984e-18)
(28.6711 1.70607 1.28532e-18)
(28.2669 0.982257 -4.63556e-18)
(27.8782 0.320703 2.0875e-18)
(27.5126 -0.285909 0)
(27.1661 -0.834401 6.72655e-18)
(26.8439 -1.32218 -1.20261e-17)
(26.5734 -1.73958 5.40348e-22)
(26.3774 -2.07531 0)
(26.2461 -2.34805 1.41956e-17)
(26.1565 -2.58036 -4.65466e-19)
(26.0926 -2.78449 0)
(26.0394 -2.96586 -5.47033e-19)
(25.9772 -3.12567 1.07085e-17)
(25.8722 -3.25965 -6.47277e-19)
(25.6826 -3.35994 -3.52934e-19)
(25.4027 -3.42399 -1.19204e-17)
(25.1162 -3.4712 0)
(24.9889 -3.5397 7.33432e-18)
(25.0885 -3.65164 -8.51285e-18)
(25.2311 -3.7626 5.47577e-19)
(25.1214 -3.80745 1.01813e-17)
(24.7285 -3.76296 -6.55474e-19)
(24.2345 -3.69204 5.74364e-18)
(23.9121 -3.63685 0)
(23.7093 -3.60926 6.90107e-18)
(23.5382 -3.543 3.53725e-18)
(23.2553 -3.46638 -3.88678e-18)
(23.0628 -3.31432 -1.70374e-22)
(22.813 -3.19952 -1.55354e-19)
(22.6948 -2.92652 1.70188e-19)
(22.4905 -2.73247 2.98416e-18)
(11.7872 0.914717 -1.15537e-18)
(12.0211 2.772 -8.76584e-18)
(12.5985 4.64905 -8.41313e-18)
(13.5603 6.47634 0)
(14.9888 8.05205 -1.7674e-17)
(16.7564 9.19355 -1.30358e-17)
(18.6765 9.80951 -1.41849e-17)
(20.5399 9.94501 0)
(22.2155 9.69203 -4.93375e-17)
(23.6481 9.19493 0)
(24.8639 8.55984 0)
(25.8765 7.84709 0)
(26.6684 7.09034 -1.77456e-17)
(27.3505 6.32372 1.4197e-17)
(28.0341 5.60397 1.48035e-17)
(28.6983 4.92031 1.68564e-18)
(29.1401 4.20293 1.22757e-17)
(29.2205 3.43044 1.11385e-17)
(29.0078 2.62625 0)
(28.6459 1.83919 7.98821e-18)
(28.2469 1.09421 -3.08997e-18)
(27.8605 0.410692 -1.85604e-18)
(27.4983 -0.21176 0)
(27.1548 -0.77526 -7.47747e-19)
(26.8344 -1.27657 6.6948e-19)
(26.5643 -1.70345 -1.05048e-17)
(26.3676 -2.04551 -1.20434e-17)
(26.2351 -2.32231 7.66553e-19)
(26.1445 -2.55693 -1.3254e-17)
(26.0799 -2.76243 1.43668e-17)
(26.0269 -2.94472 0)
(25.9662 -3.10532 -7.94167e-18)
(25.8659 -3.2405 -5.75979e-19)
(25.6836 -3.34138 0)
(25.4086 -3.40465 0)
(25.118 -3.4478 -1.12086e-17)
(24.9774 -3.50956 -7.33958e-18)
(25.0674 -3.61361 4.44685e-19)
(25.2193 -3.72452 -4.86943e-19)
(25.137 -3.7737 0)
(24.7683 -3.72961 5.83121e-19)
(24.2773 -3.6504 -1.27597e-18)
(23.9449 -3.58235 3.49285e-19)
(23.7472 -3.54909 3.83141e-19)
(23.5891 -3.4777 -3.35102e-18)
(23.3362 -3.39611 3.91075e-18)
(23.1507 -3.24418 -2.51637e-19)
(22.9448 -3.12882 4.41426e-18)
(22.8401 -2.89493 -7.54793e-20)
(22.6874 -2.72261 8.26755e-20)
(12.8788 0.770582 1.07423e-22)
(13.0523 2.3335 2.34846e-17)
(13.4736 3.93687 0)
(14.1821 5.54507 0)
(15.2742 7.02334 1.35839e-17)
(16.715 8.24078 -1.40256e-21)
(18.3938 9.02913 -1.23343e-17)
(20.1304 9.37909 0)
(21.7722 9.32285 2.15593e-17)
(23.2223 8.979 -1.75015e-17)
(24.4783 8.45325 -1.85049e-17)
(25.5476 7.81443 -2.12669e-18)
(26.3927 7.10116 1.56387e-17)
(27.1125 6.35188 -1.43226e-17)
(27.8253 5.63875 1.30885e-17)
(28.5212 4.97236 0)
(29.0098 4.25876 0)
(29.133 3.48827 0)
(28.9471 2.68052 -8.96096e-18)
(28.5997 1.88338 -1.52029e-17)
(28.2099 1.13644 -9.17238e-19)
(27.8311 0.446761 0)
(27.4732 -0.181603 7.4168e-19)
(27.1336 -0.74926 -6.66281e-19)
(26.8165 -1.25321 0)
(26.5483 -1.68362 0)
(26.3522 -2.02892 1.0721e-17)
(26.2194 -2.30844 -6.81522e-19)
(26.1283 -2.54528 -7.37579e-19)
(26.0632 -2.75257 -1.27867e-17)
(26.0103 -2.93638 8.66975e-19)
(25.9515 -3.09813 8.00964e-18)
(25.856 -3.23354 -8.19986e-18)
(25.6819 -3.33284 -5.587e-19)
(25.415 -3.39172 -1.03476e-17)
(25.1225 -3.42662 2.19351e-17)
(24.9652 -3.47957 -2.19015e-22)
(25.0363 -3.58368 1.2675e-17)
(25.1939 -3.70331 -4.32787e-19)
(25.1499 -3.75845 -9.42486e-23)
(24.8147 -3.71375 5.17874e-19)
(24.3364 -3.62054 -4.53533e-18)
(23.9915 -3.53617 0)
(23.7934 -3.49305 3.40342e-19)
(23.6495 -3.41783 -7.43928e-19)
(23.4279 -3.33112 -2.85911e-18)
(23.2529 -3.1826 -3.79383e-18)
(23.088 -3.06522 2.44726e-19)
(22.9969 -2.86121 1.33864e-19)
(22.8962 -2.70323 -1.46568e-19)
(13.8534 0.66062 8.39699e-19)
(13.9765 1.99374 -1.2049e-17)
(14.2851 3.36608 -3.10397e-18)
(14.8005 4.77979 1.51704e-18)
(15.626 6.14409 0)
(16.7727 7.34812 1.118e-17)
(18.1933 8.23553 1.33764e-17)
(19.7558 8.76126 -2.50939e-17)
(21.3191 8.89511 2.11696e-17)
(22.7638 8.71704 1.74946e-17)
(24.0527 8.31562 -2.4999e-21)
(25.1737 7.77275 3.73634e-18)
(26.0725 7.12422 -3.44249e-18)
(26.8268 6.41649 0)
(27.5671 5.73014 -1.15587e-17)
(28.3021 5.08999 -1.05605e-17)
(28.8449 4.40883 0)
(29.0249 3.64779 -2.18867e-18)
(28.8786 2.82673 1.98748e-18)
(28.5539 2.00996 1.61982e-17)
(28.1733 1.23845 3.25299e-18)
(27.7981 0.530542 2.2761e-21)
(27.4461 -0.109541 2.64033e-18)
(27.1116 -0.689112 -5.9359e-19)
(26.7979 -1.20542 -1.06017e-18)
(26.5313 -1.64685 5.2062e-19)
(26.3351 -2.00049 -5.6114e-19)
(26.2016 -2.28545 -1.94162e-17)
(26.1096 -2.52533 1.05001e-17)
(26.044 -2.73403 7.11429e-19)
(25.9913 -2.91813 0)
(25.9346 -3.07959 6.70779e-18)
(25.8451 -3.21429 7.29511e-18)
(25.6812 -3.31344 0)
(25.4231 -3.36927 8.66236e-18)
(25.1285 -3.39776 -9.45829e-18)
(24.9528 -3.44015 5.15998e-18)
(25.0039 -3.53588 5.61881e-22)
(25.1696 -3.65406 0)
(25.1646 -3.71545 0)
(24.8675 -3.67483 -3.68189e-18)
(24.4046 -3.57238 4.02929e-18)
(24.0453 -3.47245 -5.51549e-19)
(23.8449 -3.41965 -7.1156e-23)
(23.7139 -3.34513 6.60336e-19)
(23.5227 -3.25902 0)
(23.3566 -3.12024 0)
(23.2179 -3.00813 3.25526e-18)
(23.1388 -2.8422 3.55974e-19)
(23.0639 -2.70527 -1.29875e-19)
(14.725 0.56746 7.1276e-19)
(14.818 1.70682 -6.84763e-19)
(15.0553 2.8811 7.96664e-18)
(15.4331 4.10391 2.60297e-18)
(16.0551 5.31531 0)
(16.9454 6.46736 1.44793e-17)
(18.1163 7.39768 2.31648e-17)
(19.4802 8.05662 -2.97331e-21)
(20.9253 8.36289 -2.86784e-17)
(22.3215 8.3527 -1.51436e-21)
(23.6123 8.08865 1.06499e-17)
(24.7744 7.6562 0)
(25.7267 7.08401 0)
(26.522 6.42006 0)
(27.2908 5.76327 -1.01963e-17)
(28.0603 5.15345 6.99585e-18)
(28.6548 4.49444 2.13016e-18)
(28.8869 3.75012 0)
(28.779 2.93353 -1.32024e-21)
(28.4787 2.10517 -7.9838e-18)
(28.1156 1.32604 7.22441e-18)
(27.7537 0.604582 0)
(27.4085 -0.0504837 0)
(27.0798 -0.64305 1.053e-18)
(26.7713 -1.1695 -8.48978e-18)
(26.5079 -1.6172 0)
(26.3131 -1.97382 -8.99103e-18)
(26.1796 -2.2603 9.71775e-18)
(26.0873 -2.50132 -9.34174e-18)
(26.0213 -2.71126 -6.3257e-19)
(25.9689 -2.89685 6.86262e-19)
(25.9144 -3.06016 -5.96587e-18)
(25.8309 -3.19745 -6.48773e-18)
(25.6778 -3.29871 0)
(25.4315 -3.35173 0)
(25.1373 -3.37221 1.05104e-18)
(24.9418 -3.40543 -1.14655e-18)
(24.9665 -3.49533 -4.38194e-18)
(25.1331 -3.61927 -6.15493e-18)
(25.1709 -3.6961 7.47562e-19)
(24.9236 -3.66183 -1.63468e-18)
(24.4865 -3.55742 1.34121e-18)
(24.1126 -3.44189 -4.89358e-19)
(23.9011 -3.37849 0)
(23.7805 -3.30572 2.34336e-18)
(23.62 -3.21941 3.21464e-19)
(23.4661 -3.09005 -3.50991e-19)
(23.3458 -2.97892 -3.07757e-18)
(23.2752 -2.83811 0)
(23.2171 -2.71692 1.84027e-18)
(15.5098 0.493152 0)
(15.5774 1.47801 -1.16384e-18)
(15.7638 2.48767 -1.69878e-17)
(16.0423 3.54976 0)
(16.5063 4.62023 0)
(17.1804 5.68416 -1.66196e-17)
(18.1129 6.60997 -3.20013e-17)
(19.2612 7.3538 -1.85544e-21)
(20.5559 7.80362 1.06793e-17)
(21.8785 7.95464 3.32965e-18)
(23.1503 7.83104 0)
(24.3364 7.52193 0)
(25.3394 7.03996 -1.06253e-17)
(26.176 6.43562 -9.78303e-18)
(26.9784 5.81233 6.73559e-18)
(27.787 5.23768 -7.36088e-22)
(28.4382 4.62259 3.76388e-18)
(28.736 3.89043 -1.27829e-21)
(28.6751 3.06055 1.09244e-17)
(28.4025 2.21625 0)
(28.0516 1.41432 -5.12631e-18)
(27.6975 0.679941 0)
(27.3631 0.0149669 -1.04181e-18)
(27.043 -0.583681 1.28335e-21)
(26.7406 -1.11488 7.54883e-18)
(26.4808 -1.57098 0)
(26.2873 -1.9377 7.99556e-18)
(26.1537 -2.23317 -7.08358e-22)
(26.0609 -2.48118 7.26765e-18)
(25.9943 -2.69612 -9.00128e-18)
(25.9419 -2.88512 -1.03695e-17)
(25.8894 -3.05065 6.63038e-19)
(25.8123 -3.18894 -1.02256e-22)
(25.6723 -3.28962 -7.06923e-18)
(25.4409 -3.34315 7.69791e-18)
(25.1491 -3.35622 -9.33745e-19)
(24.9329 -3.37428 4.07424e-18)
(24.9245 -3.45258 2.22367e-18)
(25.0876 -3.57538 8.50112e-18)
(25.1687 -3.66355 -6.63592e-19)
(24.981 -3.6429 3.62745e-18)
(24.5805 -3.53605 -7.93693e-19)
(24.1949 -3.40658 8.68058e-19)
(23.9667 -3.32507 3.80485e-18)
(23.8538 -3.25266 -2.07762e-18)
(23.723 -3.173 -5.69772e-19)
(23.5833 -3.05772 3.10982e-18)
(23.4744 -2.95526 2.38474e-18)
(23.4088 -2.83857 1.86133e-18)
(23.3571 -2.73413 -1.62864e-18)
(16.2337 0.430325 1.01726e-18)
(16.2802 1.28317 -9.85906e-19)
(16.4384 2.15125 1.34805e-17)
(16.65 3.0669 1.89844e-18)
(17.0109 3.99075 -1.11043e-17)
(17.5248 4.94573 3.56704e-18)
(18.2563 5.82271 1.03338e-17)
(19.1935 6.59706 1.63138e-17)
(20.3051 7.14575 6.17369e-18)
(21.4981 7.44083 1.73677e-17)
(22.7041 7.4674 -1.082e-17)
(23.8772 7.30606 0)
(24.9071 6.94979 1.86165e-17)
(25.7827 6.42655 8.58761e-18)
(26.615 5.86369 3.95081e-18)
(27.4654 5.33429 -1.81287e-17)
(28.174 4.75572 0)
(28.534 4.04416 3.03034e-18)
(28.5291 3.21672 -1.10436e-17)
(28.2945 2.35575 7.52563e-18)
(27.9712 1.53227 4.54449e-18)
(27.6348 0.783973 -2.05528e-18)
(27.3093 0.103649 -1.85236e-18)
(26.9984 -0.514286 0)
(26.703 -1.06741 0)
(26.4475 -1.53937 0)
(26.2559 -1.91317 -7.89261e-19)
(26.1227 -2.2104 6.28718e-22)
(26.0298 -2.45714 9.22933e-19)
(25.9631 -2.66908 -5.74781e-22)
(25.9113 -2.85476 -5.81558e-22)
(25.8617 -3.01755 0)
(25.7922 -3.15449 3.8412e-18)
(25.6668 -3.25478 6.97524e-18)
(25.4534 -3.30568 -6.07558e-18)
(25.1694 -3.30897 -6.63017e-18)
(24.9334 -3.30771 -3.61604e-18)
(24.8849 -3.36749 -9.86503e-19)
(25.0334 -3.48615 -3.23217e-18)
(25.1563 -3.59383 0)
(25.0414 -3.59535 6.43534e-19)
(24.6919 -3.48878 -7.03074e-19)
(24.3019 -3.33817 -2.308e-18)
(24.05 -3.23559 -4.21385e-18)
(23.9313 -3.16181 -2.30022e-18)
(23.8223 -3.08829 -7.6047e-23)
(23.6969 -2.98718 -1.65175e-18)
(23.5945 -2.89605 -2.41161e-18)
(23.5329 -2.80546 -1.31715e-18)
(23.4892 -2.72383 1.43985e-18)
(16.8022 0.380688 8.55159e-19)
(16.835 1.13841 -8.32431e-19)
(16.9733 1.89668 -6.52727e-18)
(17.1373 2.70036 -3.22689e-18)
(17.4235 3.50616 6.31305e-18)
(17.8222 4.35953 3.05278e-18)
(18.4038 5.16345 -5.91622e-18)
(19.173 5.92054 -1.12454e-17)
(20.1263 6.51046 -5.33377e-18)
(21.1993 6.89457 -1.00398e-17)
(22.3223 7.03907 9.40997e-18)
(23.4654 7.00233 0)
(24.505 6.75034 -2.84869e-17)
(25.4 6.31712 3.76382e-18)
(26.2573 5.81939 0)
(27.133 5.36337 1.27567e-17)
(27.8942 4.85379 0)
(28.3213 4.18681 0)
(28.3661 3.38102 1.21959e-17)
(28.1665 2.51413 -4.43893e-18)
(27.8633 1.67246 -6.03568e-18)
(27.5455 0.893966 3.6385e-18)
(27.2378 0.186548 -1.64003e-18)
(26.94 -0.445528 2.11116e-21)
(26.6553 -1.00281 1.32442e-18)
(26.4073 -1.47659 1.29948e-18)
(26.2195 -1.85429 -2.80488e-18)
(26.0877 -2.15704 -4.54559e-18)
(25.9951 -2.41048 0)
(25.9283 -2.62986 -2.68475e-22)
(25.8765 -2.82357 7.6967e-18)
(25.8285 -2.99513 1.04519e-18)
(25.7657 -3.14225 -1.13646e-18)
(25.6555 -3.25305 4.95084e-18)
(25.464 -3.31229 0)
(25.1909 -3.31748 1.17609e-17)
(24.9369 -3.30886 -2.40479e-18)
(24.8455 -3.34926 -1.74972e-18)
(24.9641 -3.46447 6.76033e-22)
(25.1182 -3.5921 1.04361e-18)
(25.0835 -3.63325 0)
(24.8083 -3.55573 -2.49078e-18)
(24.4291 -3.42108 2.72559e-18)
(24.1422 -3.3013 0)
(24.0061 -3.21624 1.62843e-18)
(23.9154 -3.14174 1.7846e-18)
(23.8035 -3.04138 1.94694e-18)
(23.6972 -2.94133 1.8648e-18)
(23.6283 -2.84963 1.45437e-19)
(23.582 -2.77247 -1.1128e-18)
(17.4029 0.335455 0)
(17.4258 1.00174 -2.80133e-18)
(17.5506 1.6581 0)
(17.6626 2.36155 0)
(17.8821 3.06045 5.36528e-18)
(18.1689 3.82637 -5.20819e-18)
(18.6015 4.55858 1.01231e-17)
(19.194 5.29547 0)
(19.9611 5.92022 1.37979e-17)
(20.8814 6.39407 -8.68557e-18)
(21.8976 6.65427 4.08369e-18)
(22.983 6.74231 -1.14349e-17)
(24.0255 6.60087 1.06487e-17)
(24.9489 6.25115 0)
(25.837 5.81695 0)
(26.7678 5.38024 1.12042e-17)
(27.5781 4.92915 0)
(28.075 4.28878 2.35554e-18)
(28.1903 3.47852 -1.93705e-17)
(28.0355 2.59513 0)
(27.7635 1.73571 0)
(27.4608 0.959524 -3.221e-18)
(27.1639 0.256417 -1.45392e-18)
(26.8791 -0.376572 1.30767e-18)
(26.6039 -0.94204 -2.34806e-18)
(26.3617 -1.43409 -3.46023e-18)
(26.1768 -1.83063 -3.73338e-18)
(26.0458 -2.1476 2.68854e-18)
(25.9529 -2.4105 -5.81285e-18)
(25.8855 -2.63521 7.87252e-18)
(25.8337 -2.83065 0)
(25.7876 -3.00093 2.78132e-18)
(25.7319 -3.14465 2.01487e-18)
(25.6381 -3.25381 -5.48601e-18)
(25.4715 -3.31181 4.77644e-18)
(25.2195 -3.31036 -5.21055e-18)
(24.9566 -3.27632 -1.42031e-18)
(24.814 -3.28111 1.55007e-18)
(24.8865 -3.37148 0)
(25.054 -3.50249 -9.2356e-19)
(25.0974 -3.56328 2.01779e-18)
(24.903 -3.50966 -1.10149e-18)
(24.5668 -3.36902 0)
(24.2717 -3.23008 0)
(24.1112 -3.14296 -7.19607e-19)
(24.0331 -3.08635 7.88542e-19)
(23.9519 -3.01341 -1.71973e-18)
(23.8568 -2.92461 -1.88171e-18)
(23.7777 -2.83312 0)
(23.7209 -2.7523 1.12167e-18)
(17.9989 0.298604 0)
(17.996 0.880368 2.34963e-18)
(18.1212 1.44911 -4.6408e-18)
(18.2204 2.06106 -1.38466e-17)
(18.4102 2.65131 4.54434e-18)
(18.6471 3.31225 -1.32831e-17)
(18.9906 3.93596 5.52304e-22)
(19.4531 4.60296 4.13617e-18)
(20.0542 5.21036 -7.90564e-18)
(20.7951 5.73476 -7.48905e-18)
(21.651 6.10272 1.41311e-17)
(22.6091 6.34187 2.64601e-17)
(23.575 6.36395 6.18193e-18)
(24.4715 6.16194 -5.74357e-18)
(25.352 5.85009 2.07319e-22)
(26.2902 5.56391 -1.9633e-17)
(27.1759 5.17595 -9.04228e-18)
(27.7435 4.58676 1.24399e-17)
(27.926 3.79232 -2.52373e-21)
(27.8278 2.89325 0)
(27.5983 2.00326 -9.42141e-18)
(27.3325 1.16529 5.69368e-18)
(27.0625 0.41677 -3.49228e-21)
(26.7967 -0.262371 -1.77324e-21)
(26.537 -0.870674 -1.04108e-18)
(26.3046 -1.38329 4.08999e-18)
(26.1252 -1.78159 4.41111e-18)
(25.9969 -2.09238 5.95746e-18)
(25.9055 -2.34555 3.8634e-18)
(25.8392 -2.55913 5.58117e-18)
(25.7888 -2.74375 0)
(25.7458 -2.90543 -3.28463e-18)
(25.6979 -3.0444 5.35412e-18)
(25.6215 -3.15362 9.71238e-19)
(25.4847 -3.21617 -3.17152e-18)
(25.2639 -3.2178 0)
(24.998 -3.17069 2.51383e-18)
(24.8099 -3.14543 -1.37146e-18)
(24.8172 -3.20787 8.12554e-22)
(24.9783 -3.34219 -1.6336e-18)
(25.1056 -3.44762 0)
(25.0233 -3.43544 6.76026e-22)
(24.7487 -3.29868 3.19224e-18)
(24.4172 -3.12408 -1.16417e-18)
(24.194 -2.99382 -1.90537e-18)
(24.0934 -2.93029 6.95562e-19)
(24.035 -2.89411 0)
(23.9723 -2.8542 0)
(23.9083 -2.80591 2.26266e-19)
(23.8573 -2.75487 -1.23508e-18)
(18.1731 0.267506 0)
(18.159 0.830426 3.92927e-18)
(18.2741 1.34953 1.94531e-18)
(18.3679 1.92844 7.76592e-18)
(18.55 2.46322 -7.67735e-18)
(18.7752 3.05904 7.50318e-18)
(19.0989 3.6011 0)
(19.5268 4.18781 0)
(20.0657 4.72094 6.77186e-18)
(20.7392 5.1851 -6.44142e-18)
(21.5156 5.54171 -2.43879e-17)
(22.3972 5.7983 -1.71765e-17)
(23.3053 5.8691 1.07292e-17)
(24.1635 5.73583 1.50009e-17)
(25.0304 5.5153 4.64013e-18)
(25.962 5.31655 8.58852e-18)
(26.832 5.04489 -7.92272e-18)
(27.453 4.55539 -1.68193e-21)
(27.6944 3.81117 1.00015e-17)
(27.6416 2.92393 -6.08709e-18)
(27.4425 2.03379 1.10784e-17)
(27.1985 1.21352 5.02356e-18)
(26.9501 0.459716 -2.27499e-18)
(26.7027 -0.208725 -2.0481e-18)
(26.4582 -0.791434 2.76388e-18)
(26.2389 -1.2906 3.621e-18)
(26.0678 -1.69182 -1.46324e-22)
(25.9436 -2.01327 2.11099e-18)
(25.8545 -2.28239 0)
(25.7891 -2.5157 -1.23528e-18)
(25.7388 -2.72267 1.33769e-18)
(25.6965 -2.90832 -2.9065e-18)
(25.653 -3.07282 -3.15803e-18)
(25.5906 -3.21013 -6.87519e-18)
(25.4822 -3.30351 0)
(25.2972 -3.33876 2.03794e-18)
(25.0473 -3.30336 -2.22094e-18)
(24.8192 -3.25704 -1.21154e-18)
(24.7383 -3.2796 -1.32264e-18)
(24.8482 -3.40846 2.88664e-18)
(25.018 -3.57764 -1.57515e-18)
(25.0734 -3.67607 3.43685e-18)
(24.9345 -3.63464 -2.81617e-18)
(24.6617 -3.47985 -1.02592e-18)
(24.3762 -3.29077 1.11991e-18)
(24.1791 -3.1456 -2.45144e-18)
(24.0716 -3.0498 0)
(24.0014 -2.98495 -1.46023e-18)
(23.9473 -2.93195 0)
(23.9018 -2.88775 8.68921e-19)
(18.5478 0.238712 8.26261e-19)
(18.5651 0.770207 -1.63679e-18)
(18.6655 1.22478 3.25354e-18)
(18.7116 1.75314 0)
(18.8304 2.23346 6.45844e-18)
(18.9537 2.79516 6.34055e-18)
(19.1553 3.30825 -6.22619e-18)
(19.4592 3.90253 -1.20184e-17)
(19.8592 4.4495 -1.15727e-17)
(20.4072 4.94271 0)
(21.087 5.34385 1.0488e-17)
(21.9052 5.66765 0)
(22.7773 5.7981 4.65361e-18)
(23.646 5.70905 -4.33838e-18)
(24.518 5.5355 -4.04085e-18)
(25.4901 5.37732 -1.19102e-21)
(26.4388 5.16329 -9.43529e-22)
(27.1001 4.72558 3.19021e-18)
(27.4033 3.98215 -2.9208e-18)
(27.4109 3.08039 1.07023e-17)
(27.2633 2.166 -7.31714e-18)
(27.0529 1.33521 0)
(26.827 0.581447 0)
(26.6044 -0.0994651 -1.80917e-18)
(26.3774 -0.710604 4.08332e-19)
(26.1676 -1.24929 1.11073e-22)
(26.0018 -1.6896 -3.45348e-18)
(25.8801 -2.04324 -1.09187e-22)
(25.791 -2.33603 -2.01624e-18)
(25.7246 -2.5837 2.18338e-18)
(25.673 -2.79595 -3.54989e-18)
(25.6305 -2.97927 1.28445e-18)
(25.5903 -3.13664 0)
(25.5406 -3.26618 1.51773e-18)
(25.4598 -3.35656 -3.3027e-18)
(25.3186 -3.38967 -3.66812e-22)
(25.1113 -3.34935 3.92227e-18)
(24.8733 -3.26153 2.13906e-18)
(24.7073 -3.19357 -1.16695e-18)
(24.7008 -3.22325 1.27374e-18)
(24.8338 -3.3504 1.38881e-18)
(24.9755 -3.49857 -1.51463e-18)
(25.006 -3.57459 -1.65367e-18)
(24.8892 -3.53573 2.71014e-18)
(24.6877 -3.40679 5.56579e-22)
(24.4795 -3.23591 1.07896e-18)
(24.3108 -3.07852 -5.86888e-19)
(24.1914 -2.94833 6.41987e-19)
(24.1026 -2.8388 1.74931e-19)
(24.031 -2.75296 -9.53742e-19)
(19.4445 0.208846 -6.83889e-19)
(19.4316 0.629045 2.71674e-18)
(19.5514 0.993687 -5.42386e-18)
(19.5753 1.433 0)
(19.6806 1.80684 5.41201e-18)
(19.7714 2.27919 -1.06641e-17)
(19.8829 2.70544 5.2536e-18)
(20.0633 3.24245 1.52859e-17)
(20.2854 3.76799 4.92745e-18)
(20.613 4.28367 1.88766e-17)
(21.0576 4.77845 -1.79925e-17)
(21.6474 5.27378 0)
(22.343 5.621 2.95112e-21)
(23.0859 5.71005 -7.52905e-18)
(23.9215 5.70746 -7.01992e-18)
(24.8461 5.71337 0)
(25.8063 5.6119 0)
(26.5769 5.20217 5.5828e-18)
(26.9619 4.45215 -5.12918e-18)
(27.0512 3.51818 -4.69881e-18)
(26.9761 2.55233 0)
(26.8304 1.6309 -3.89693e-18)
(26.6511 0.806225 5.30576e-18)
(26.4612 0.0546922 -1.59869e-18)
(26.2631 -0.629553 1.79618e-18)
(26.0719 -1.19867 -1.41665e-18)
(25.9159 -1.63421 -3.05225e-18)
(25.7995 -1.96613 -1.64845e-18)
(25.7144 -2.22537 -3.56262e-18)
(25.6517 -2.43345 0)
(25.604 -2.60527 0)
(25.5659 -2.75084 0)
(25.5322 -2.87604 0)
(25.4953 -2.98208 2.68026e-18)
(25.441 -3.06231 0)
(25.3482 -3.10146 1.58778e-18)
(25.1999 -3.0802 7.88661e-22)
(24.9996 -2.99724 -1.88537e-18)
(24.8038 -2.88248 -2.0577e-18)
(24.6937 -2.80543 7.81262e-22)
(24.7161 -2.82332 2.44823e-18)
(24.8143 -2.91648 -2.66999e-18)
(24.9055 -3.03051 0)
(24.9297 -3.10313 1.58934e-18)
(24.8692 -3.1063 0)
(24.753 -3.04638 -9.46729e-19)
(24.6185 -2.95117 0)
(24.4981 -2.8436 -1.12555e-18)
(24.3874 -2.74202 -9.19426e-19)
(24.3068 -2.64365 -3.34373e-19)
(19.4721 0.194441 -1.1284e-18)
(19.3273 0.620669 -1.95621e-21)
(19.461 0.96315 4.50814e-18)
(19.5366 1.41144 -4.54476e-18)
(19.6988 1.73005 -4.52708e-18)
(19.9238 2.13521 -8.96491e-18)
(20.1422 2.45767 0)
(20.4386 2.8464 -8.61235e-18)
(20.7421 3.1986 8.35045e-18)
(21.0967 3.54576 7.91597e-21)
(21.5048 3.93599 -4.84469e-22)
(21.994 4.36321 0)
(22.5403 4.67124 6.90531e-18)
(23.1374 4.79218 -6.49504e-18)
(23.8223 4.88464 1.2162e-17)
(24.6613 5.07034 -5.66612e-18)
(25.5176 5.20988 0)
(26.2097 4.93685 4.86656e-18)
(26.6211 4.3098 -8.97378e-18)
(26.7503 3.4356 4.27575e-21)
(26.7133 2.50963 7.50801e-21)
(26.6062 1.62018 6.65312e-21)
(26.4658 0.812475 3.11594e-18)
(26.304 0.096414 2.81614e-18)
(26.1294 -0.527338 3.17019e-19)
(25.9625 -1.0481 0)
(25.8239 -1.45297 -1.34639e-18)
(25.7189 -1.76535 1.45391e-18)
(25.6423 -2.02029 -1.43869e-22)
(25.5855 -2.23983 0)
(25.5416 -2.43636 -1.84267e-18)
(25.5057 -2.61656 4.00112e-18)
(25.474 -2.7834 -6.51523e-18)
(25.4422 -2.93711 2.3631e-18)
(25.4026 -3.07302 1.2831e-18)
(25.3418 -3.18071 -1.39831e-18)
(25.2445 -3.24339 0)
(25.1033 -3.24845 1.6187e-21)
(24.9335 -3.19704 -3.61522e-18)
(24.7826 -3.12585 2.93875e-21)
(24.7038 -3.08571 -1.07603e-18)
(24.7024 -3.10655 4.12102e-22)
(24.7422 -3.17234 1.27887e-18)
(24.7822 -3.25483 0)
(24.8001 -3.3216 0)
(24.777 -3.3545 8.76971e-22)
(24.7262 -3.35475 0)
(24.655 -3.3235 9.86312e-19)
(24.5723 -3.28178 1.34231e-18)
(24.5033 -3.21968 -2.92192e-19)
(18.446 0.182756 0)
(18.3332 0.78228 9.299e-19)
(18.42 1.13487 -3.74275e-18)
(18.54 1.68741 7.54774e-18)
(18.6704 2.05581 3.78085e-18)
(18.9313 2.5088 -1.32419e-20)
(19.1943 2.87099 3.36164e-21)
(19.5646 3.24292 1.45394e-17)
(19.9828 3.54456 -7.07998e-18)
(20.4704 3.80959 -6.8382e-18)
(21.0199 4.07925 -8.58277e-21)
(21.6351 4.30983 -6.26255e-18)
(22.2733 4.39617 5.929e-18)
(22.9258 4.4027 -5.59622e-18)
(23.6319 4.50669 -5.26267e-18)
(24.4343 4.75861 4.91195e-18)
(25.2581 4.91704 -9.15676e-18)
(25.9206 4.74471 -8.47899e-18)
(26.3189 4.14278 1.17398e-17)
(26.4742 3.30729 -3.59972e-18)
(26.4758 2.42578 0)
(26.3964 1.60213 0)
(26.2848 0.847001 -5.46506e-18)
(26.1568 0.167452 -1.23539e-18)
(26.0077 -0.433883 1.39738e-18)
(25.8582 -0.98007 -2.19872e-18)
(25.7334 -1.44558 5.93035e-18)
(25.6365 -1.83267 -1.28232e-18)
(25.5623 -2.16756 6.65366e-22)
(25.5041 -2.46468 -1.49715e-18)
(25.4565 -2.73159 4.86627e-18)
(25.4159 -2.97268 1.75854e-18)
(25.3795 -3.19072 -1.90939e-18)
(25.3449 -3.38726 2.07662e-18)
(25.3085 -3.5617 -1.12995e-18)
(25.2637 -3.71011 -2.45683e-18)
(25.2008 -3.82312 4.00887e-18)
(25.1094 -3.89035 -4.3653e-18)
(24.9918 -3.90348 6.34712e-18)
(24.8678 -3.87328 -1.72746e-18)
(24.7643 -3.82668 1.88505e-18)
(24.6999 -3.79253 1.02723e-18)
(24.675 -3.78297 0)
(24.6741 -3.7962 -1.22207e-18)
(24.6837 -3.81962 1.3293e-18)
(24.6827 -3.84274 7.16227e-22)
(24.6747 -3.85415 0)
(24.6475 -3.85113 0)
(24.6237 -3.83753 7.03021e-19)
(24.5816 -3.80455 2.54881e-19)
(18.3947 0.126669 1.52701e-18)
(18.5323 0.805914 -2.29993e-18)
(18.5519 1.1094 -3.09152e-18)
(18.6561 1.65779 -3.12042e-18)
(18.6438 2.05326 -1.17262e-20)
(18.727 2.55293 1.01084e-20)
(18.791 3.01527 0)
(18.9504 3.50246 -1.22203e-17)
(19.1755 3.96009 5.97801e-18)
(19.5031 4.4021 5.78422e-18)
(19.9404 4.82262 1.11752e-17)