/*--------------------------------*- C++ -*----------------------------------*\
  =========                 |
  \\      /  F ield         | OpenFOAM: The Open Source CFD Toolbox
   \\    /   O peration     | Website:  https://openfoam.org
    \\  /    A nd           | Version:  8
     \\/     M anipulation  |
\*---------------------------------------------------------------------------*/
FoamFile
{
    version     2.0;
    format      ascii;
    class       volScalarField;
    location    "0.01";
    object      nut;
}
// * * * * * * * * * * * * * * * * * * * * * * * * * * * * * * * * * * * * * //

dimensions      [0 2 -1 0 0 0 0];

internalField   nonuniform List<scalar> 
104000
(
0.0191899
0.00570477
0.00238108
0.0014455
0.000996403
0.000743563
0.000584244
0.000475702
0.000397482
0.000338614
0.000292733
0.00025591
0.000225613
0.000200133
0.000178294
0.000159254
0.000142413
0.000127326
0.000113675
0.000101224
8.98071e-05
7.93076e-05
6.96502e-05
6.07943e-05
5.27264e-05
4.54162e-05
3.88442e-05
3.2994e-05
2.78339e-05
2.35579e-05
1.99364e-05
1.68368e-05
1.41928e-05
1.19498e-05
1.00559e-05
8.46236e-06
7.12515e-06
6.00503e-06
5.06789e-06
4.28417e-06
3.62873e-06
3.08026e-06
2.62087e-06
2.23567e-06
1.91063e-06
1.64945e-06
1.49125e-06
1.44621e-06
1.41824e-06
1.37815e-06
1.32597e-06
1.26508e-06
1.19929e-06
1.13113e-06
1.06251e-06
9.94908e-07
9.29483e-07
8.67107e-07
8.08595e-07
7.55178e-07
7.09378e-07
6.74897e-07
6.53633e-07
6.43458e-07
6.39663e-07
6.37578e-07
6.34115e-07
6.27937e-07
6.18929e-07
6.07569e-07
5.94514e-07
5.80389e-07
5.6572e-07
5.50908e-07
5.36234e-07
5.21886e-07
5.07983e-07
4.94592e-07
4.81751e-07
4.69475e-07
4.57766e-07
4.46615e-07
4.36011e-07
4.25941e-07
4.16403e-07
4.07405e-07
3.9898e-07
3.91188e-07
3.84134e-07
3.77962e-07
3.72829e-07
3.68863e-07
3.66122e-07
3.64574e-07
3.64105e-07
3.64539e-07
3.65665e-07
3.67272e-07
3.69169e-07
3.712e-07
3.73246e-07
3.75224e-07
3.77083e-07
3.78792e-07
3.80345e-07
3.8175e-07
3.83031e-07
3.84213e-07
3.85326e-07
3.86394e-07
3.8744e-07
3.88483e-07
3.89538e-07
3.90617e-07
3.9173e-07
3.92881e-07
3.94075e-07
3.9531e-07
3.96592e-07
3.97904e-07
3.99222e-07
4.0053e-07
4.01827e-07
4.03118e-07
4.0441e-07
4.05712e-07
4.07027e-07
4.08359e-07
4.09709e-07
4.11077e-07
4.12463e-07
4.13866e-07
4.15285e-07
4.16717e-07
4.18161e-07
4.19617e-07
4.21083e-07
4.22559e-07
4.24045e-07
4.2554e-07
4.27045e-07
4.28559e-07
4.30083e-07
4.31616e-07
4.33158e-07
4.34708e-07
4.36266e-07
4.37832e-07
4.39408e-07
4.40993e-07
4.42588e-07
4.44195e-07
4.45815e-07
4.47447e-07
4.49093e-07
4.5075e-07
4.52419e-07
4.54099e-07
4.55789e-07
4.57488e-07
4.59197e-07
4.60915e-07
4.62634e-07
4.6441e-07
4.6591e-07
4.67007e-07
4.67784e-07
4.68378e-07
4.689e-07
4.69418e-07
4.69968e-07
4.70567e-07
4.71221e-07
4.71929e-07
4.72688e-07
4.73494e-07
4.74343e-07
4.75232e-07
4.76158e-07
4.77118e-07
4.78111e-07
4.79132e-07
4.8018e-07
4.81252e-07
4.82346e-07
4.83465e-07
4.84282e-07
4.86713e-07
5.01049e-07
6.78899e-07
7.61145e-07
8.9973e-07
1.01333e-06
1.08085e-06
1.11553e-06
1.13298e-06
1.14228e-06
1.14782e-06
1.1516e-06
1.15455e-06
1.1571e-06
1.15945e-06
1.1617e-06
1.1639e-06
1.16608e-06
1.16825e-06
1.17042e-06
1.17258e-06
1.17474e-06
1.17689e-06
1.17904e-06
1.18118e-06
1.18331e-06
1.18543e-06
1.18754e-06
1.18964e-06
1.19173e-06
1.1938e-06
1.19585e-06
1.19786e-06
1.19971e-06
1.20032e-06
1.20687e-06
1.19121e-06
5.99432e-07
4.83187e-07
4.87742e-07
5.08508e-07
5.22134e-07
5.294e-07
5.33361e-07
5.35775e-07
5.37462e-07
5.38799e-07
5.39962e-07
5.41039e-07
5.42075e-07
5.43094e-07
5.44108e-07
5.45126e-07
5.46153e-07
5.47192e-07
5.48243e-07
5.49308e-07
5.50384e-07
5.5147e-07
5.52563e-07
5.53659e-07
5.54747e-07
5.55834e-07
5.56912e-07
5.5779e-07
5.58805e-07
5.67591e-07
7.20546e-07
8.49e-07
1.0218e-06
1.13895e-06
1.2003e-06
1.22903e-06
1.24171e-06
1.24679e-06
1.24816e-06
1.24761e-06
1.24602e-06
1.24389e-06
1.24157e-06
1.2357e-06
1.17451e-06
5.81309e-07
4.99729e-07
5.34937e-07
5.77925e-07
6.10917e-07
6.42789e-07
6.74672e-07
6.90024e-07
7.9738e-07
1.10162e-06
1.4871e-06
1.89944e-06
2.60185e-06
3.72088e-06
5.21592e-06
7.01251e-06
9.09437e-06
1.14626e-05
1.41064e-05
1.70158e-05
2.01906e-05
2.36577e-05
2.73671e-05
3.12321e-05
3.51706e-05
3.90739e-05
4.27901e-05
4.61161e-05
4.87739e-05
5.02485e-05
4.88068e-05
0.0636168
0.0242381
0.011745
0.0070776
0.00487417
0.00363409
0.00285264
0.00232126
0.00193964
0.001654
0.0014331
0.00125767
0.00111528
0.000997531
0.000898635
0.00081444
0.000741926
0.000678837
0.000623468
0.000574499
0.000530903
0.000491858
0.000456708
0.000424931
0.000396181
0.000370014
0.000346103
0.000324182
0.000304029
0.00028544
0.000268256
0.000252335
0.000237551
0.000223792
0.000210959
0.000198963
0.000187726
0.000177177
0.000167254
0.000157903
0.000149075
0.000140726
0.000132818
0.000125317
0.000118196
0.000111431
0.00010501
9.89054e-05
9.30821e-05
8.7536e-05
8.22617e-05
7.72499e-05
7.24919e-05
6.79801e-05
6.37082e-05
5.96706e-05
5.58634e-05
5.22879e-05
4.89647e-05
4.59748e-05
4.35286e-05
4.19122e-05
4.1177e-05
4.10405e-05
4.11349e-05
4.1196e-05
4.10943e-05
4.07954e-05
4.03159e-05
3.96928e-05
3.89657e-05
3.81715e-05
3.73404e-05
3.64952e-05
3.56521e-05
3.48216e-05
3.40107e-05
3.32235e-05
3.24627e-05
3.17295e-05
3.10247e-05
3.0348e-05
2.96993e-05
2.90787e-05
2.8487e-05
2.79262e-05
2.74002e-05
2.69161e-05
2.64847e-05
2.61193e-05
2.58333e-05
2.56351e-05
2.5526e-05
2.55e-05
2.55453e-05
2.56467e-05
2.57879e-05
2.59538e-05
2.6132e-05
2.63127e-05
2.64889e-05
2.66562e-05
2.6812e-05
2.69553e-05
2.70862e-05
2.7206e-05
2.73163e-05
2.74193e-05
2.75168e-05
2.76107e-05
2.77027e-05
2.77942e-05
2.78862e-05
2.79796e-05
2.80751e-05
2.81729e-05
2.82734e-05
2.83764e-05
2.84826e-05
2.85897e-05
2.86959e-05
2.88004e-05
2.89036e-05
2.90061e-05
2.91086e-05
2.92114e-05
2.9315e-05
2.94195e-05
2.9525e-05
2.96314e-05
2.97387e-05
2.98467e-05
2.99555e-05
3.00648e-05
3.01746e-05
3.02847e-05
3.03953e-05
3.05061e-05
3.06173e-05
3.07288e-05
3.08406e-05
3.09528e-05
3.10654e-05
3.11782e-05
3.12913e-05
3.14046e-05
3.15182e-05
3.16321e-05
3.17463e-05
3.1861e-05
3.19761e-05
3.20918e-05
3.22081e-05
3.23251e-05
3.24428e-05
3.25611e-05
3.26799e-05
3.27992e-05
3.2919e-05
3.30393e-05
3.31601e-05
3.32817e-05
3.34031e-05
3.35308e-05
3.36256e-05
3.36878e-05
3.37294e-05
3.37609e-05
3.37895e-05
3.38191e-05
3.38516e-05
3.38878e-05
3.3928e-05
3.39719e-05
3.40193e-05
3.40698e-05
3.41232e-05
3.41792e-05
3.42377e-05
3.42984e-05
3.43611e-05
3.44257e-05
3.4492e-05
3.45598e-05
3.4629e-05
3.47001e-05
3.47681e-05
3.48372e-05
3.50014e-05
3.52903e-05
3.5361e-05
3.54053e-05
3.54717e-05
3.55593e-05
3.56543e-05
3.57482e-05
3.58379e-05
3.59231e-05
3.60045e-05
3.6083e-05
3.61594e-05
3.62345e-05
3.63088e-05
3.63828e-05
3.64568e-05
3.6531e-05
3.66055e-05
3.66803e-05
3.67556e-05
3.68312e-05
3.69072e-05
3.69836e-05
3.70604e-05
3.71376e-05
3.72153e-05
3.72934e-05
3.7372e-05
3.74511e-05
3.75306e-05
3.76106e-05
3.76914e-05
3.77651e-05
3.78622e-05
3.80446e-05
3.79876e-05
3.78956e-05
3.7859e-05
3.78896e-05
3.79608e-05
3.80477e-05
3.81379e-05
3.82267e-05
3.83131e-05
3.83974e-05
3.84803e-05
3.85625e-05
3.86445e-05
3.87268e-05
3.88099e-05
3.8894e-05
3.89795e-05
3.90664e-05
3.91551e-05
3.92457e-05
3.93384e-05
3.94333e-05
3.95309e-05
3.96312e-05
3.97345e-05
3.98411e-05
3.99526e-05
4.00633e-05
4.01822e-05
4.04204e-05
4.07029e-05
4.0799e-05
4.08997e-05
4.10526e-05
4.12411e-05
4.14507e-05
4.16759e-05
4.19181e-05
4.21823e-05
4.24756e-05
4.28074e-05
4.31913e-05
4.36407e-05
4.41658e-05
4.48781e-05
4.55391e-05
4.6388e-05
4.76061e-05
4.94486e-05
5.2169e-05
5.6248e-05
6.25964e-05
7.22267e-05
8.51803e-05
9.94155e-05
0.000111191
0.000121101
0.000136073
0.000154282
0.000172975
0.000191197
0.000208999
0.000226548
0.000243878
0.000261047
0.000278146
0.000295398
0.000312673
0.000329689
0.000346245
0.000362057
0.000376706
0.000389602
0.000399943
0.000406441
0.000404582
0.0848905
0.0410542
0.0228595
0.0145314
0.0101985
0.00766309
0.00603808
0.0049235
0.00411898
0.0035148
0.0030465
0.00267403
0.00237135
0.00212088
0.00191039
0.00173114
0.00157674
0.00144244
0.0013246
0.00122045
0.00112779
0.0010449
0.000970377
0.000903093
0.000842121
0.000786685
0.000736133
0.000689913
0.000647555
0.000608652
0.000572852
0.00053985
0.000509377
0.000481195
0.000455092
0.000430881
0.000408393
0.000387478
0.000367999
0.000349833
0.000332871
0.000317011
0.000302162
0.000288242
0.000275173
0.000262889
0.000251331
0.000240482
0.000230275
0.000220641
0.000211528
0.000202894
0.000194705
0.000186927
0.000179534
0.000172499
0.000165801
0.00015942
0.000153339
0.000147544
0.000142029
0.000136799
0.000131862
0.000127215
0.000122837
0.000118699
0.000114768
0.000111018
0.000107427
0.000103981
0.000100666
9.74837e-05
9.44327e-05
9.151e-05
8.8712e-05
8.60351e-05
8.34761e-05
8.10321e-05
7.87003e-05
7.64782e-05
7.43616e-05
7.2346e-05
7.04292e-05
6.86111e-05
6.68952e-05
6.52903e-05
6.3814e-05
6.24964e-05
6.1378e-05
6.04981e-05
5.9876e-05
5.94993e-05
5.93298e-05
5.93174e-05
5.94149e-05
5.95793e-05
5.97794e-05
5.99958e-05
6.02174e-05
6.04378e-05
6.06538e-05
6.08637e-05
6.10671e-05
6.12645e-05
6.14563e-05
6.1643e-05
6.18261e-05
6.20071e-05
6.21876e-05
6.23691e-05
6.25526e-05
6.27388e-05
6.29283e-05
6.31212e-05
6.33177e-05
6.35175e-05
6.37205e-05
6.39263e-05
6.41375e-05
6.43373e-05
6.45266e-05
6.47102e-05
6.48917e-05
6.50727e-05
6.52538e-05
6.5435e-05
6.5616e-05
6.57968e-05
6.59771e-05
6.61569e-05
6.6336e-05
6.65142e-05
6.66914e-05
6.68675e-05
6.70426e-05
6.72166e-05
6.73896e-05
6.75618e-05
6.77333e-05
6.79041e-05
6.80744e-05
6.82441e-05
6.84132e-05
6.85815e-05
6.87492e-05
6.89163e-05
6.90829e-05
6.92492e-05
6.94154e-05
6.95816e-05
6.9748e-05
6.99149e-05
7.00823e-05
7.02501e-05
7.04181e-05
7.05863e-05
7.07544e-05
7.09226e-05
7.10909e-05
7.12596e-05
7.14286e-05
7.15987e-05
7.17668e-05
7.19603e-05
7.19409e-05
7.18986e-05
7.18683e-05
7.18509e-05
7.18421e-05
7.18388e-05
7.18392e-05
7.18422e-05
7.18471e-05
7.18537e-05
7.18619e-05
7.1872e-05
7.18841e-05
7.18986e-05
7.19155e-05
7.19348e-05
7.19566e-05
7.19806e-05
7.20069e-05
7.20353e-05
7.20655e-05
7.2098e-05
7.21312e-05
7.21629e-05
7.22015e-05
7.22502e-05
7.22837e-05
7.23067e-05
7.23291e-05
7.23567e-05
7.23902e-05
7.24275e-05
7.24666e-05
7.25059e-05
7.25448e-05
7.25832e-05
7.2621e-05
7.26587e-05
7.26962e-05
7.27339e-05
7.27717e-05
7.28098e-05
7.2848e-05
7.28864e-05
7.29248e-05
7.29634e-05
7.30021e-05
7.30413e-05
7.30808e-05
7.3121e-05
7.31617e-05
7.32031e-05
7.32453e-05
7.32881e-05
7.33317e-05
7.3376e-05
7.34217e-05
7.34659e-05
7.35111e-05
7.35703e-05
7.36325e-05
7.3678e-05
7.37117e-05
7.37412e-05
7.37729e-05
7.38086e-05
7.3848e-05
7.38904e-05
7.39351e-05
7.39817e-05
7.403e-05
7.40803e-05
7.41326e-05
7.41875e-05
7.42452e-05
7.43061e-05
7.43706e-05
7.4439e-05
7.45118e-05
7.45893e-05
7.46719e-05
7.47603e-05
7.48549e-05
7.49562e-05
7.5065e-05
7.5182e-05
7.53089e-05
7.54431e-05
7.55814e-05
7.57386e-05
7.59122e-05
7.6089e-05
7.62706e-05
7.64737e-05
7.67077e-05
7.69775e-05
7.72867e-05
7.76399e-05
7.80449e-05
7.85138e-05
7.90637e-05
7.97203e-05
8.05176e-05
8.14982e-05
8.27578e-05
8.44015e-05
8.65619e-05
8.94687e-05
9.35019e-05
9.92061e-05
0.000107509
0.000120071
0.000138386
0.000162542
0.000191453
0.000223294
0.000256225
0.000289543
0.000323163
0.000356925
0.000390731
0.000424882
0.000459414
0.000494045
0.000528671
0.000563238
0.000597691
0.00063191
0.000665645
0.000698508
0.000729941
0.000759165
0.000785141
0.000806537
0.000821732
0.000828738
0.0975792
0.0548957
0.0336231
0.0224789
0.0161724
0.0123055
0.00976273
0.00799266
0.00670324
0.00572903
0.00497074
0.00436577
0.00387301
0.00346453
0.00312078
0.00282773
0.00257509
0.00235517
0.00216212
0.00199142
0.00183952
0.00170361
0.00158142
0.00147111
0.00137116
0.0012803
0.00119748
0.00112178
0.00105246
0.000988828
0.000930325
0.000876444
0.000826744
0.000780836
0.000738374
0.000699048
0.000662583
0.000628731
0.00059727
0.000567997
0.000540732
0.000515309
0.000491577
0.0004694
0.000448653
0.000429221
0.000411001
0.000393898
0.000377829
0.000362711
0.000348474
0.000335052
0.000322386
0.000310424
0.000299117
0.00028842
0.000278295
0.000268707
0.000259621
0.000251006
0.000242833
0.000235078
0.00022772
0.000220733
0.000214094
0.00020778
0.000201771
0.000196046
0.000190586
0.000185375
0.000180389
0.000175649
0.000171136
0.000166833
0.000162726
0.000158805
0.000155063
0.000151491
0.000148084
0.000144836
0.000141734
0.000138772
0.000135946
0.000133259
0.00013071
0.000128297
0.000126021
0.000123881
0.000121879
0.00012002
0.000118307
0.000116742
0.000115323
0.000114044
0.000112901
0.000111862
0.000110924
0.000110084
0.000109339
0.000108684
0.000108111
0.000107614
0.000107187
0.000106824
0.000106522
0.000106277
0.000106084
0.00010594
0.00010584
0.00010578
0.000105757
0.000105766
0.000105805
0.00010587
0.000105959
0.000106068
0.000106195
0.000106337
0.000106501
0.000106597
0.000106699
0.000106815
0.000106944
0.000107082
0.000107227
0.000107376
0.000107528
0.000107684
0.000107841
0.000108
0.000108161
0.000108322
0.000108483
0.000108644
0.000108806
0.000108967
0.000109129
0.000109292
0.000109455
0.000109619
0.000109783
0.000109947
0.000110112
0.000110276
0.00011044
0.000110604
0.000110769
0.000110935
0.000111102
0.00011127
0.00011144
0.000111612
0.000111785
0.00011196
0.000112135
0.00011231
0.000112485
0.000112661
0.000112838
0.000113017
0.000113197
0.000113379
0.000113562
0.000113753
0.000113935
0.000114104
0.000114265
0.000114422
0.000114578
0.000114736
0.000114895
0.000115053
0.000115212
0.00011537
0.00011553
0.000115691
0.000115855
0.000116023
0.000116193
0.000116368
0.000116546
0.000116727
0.000116913
0.000117101
0.000117294
0.00011749
0.00011769
0.000117892
0.000118098
0.000118308
0.000118522
0.000118737
0.000118953
0.000119169
0.000119382
0.000119594
0.000119804
0.000120015
0.000120227
0.000120441
0.000120657
0.000120876
0.000121096
0.000121318
0.000121541
0.000121766
0.000121991
0.000122216
0.000122442
0.000122667
0.000122893
0.00012312
0.000123347
0.000123575
0.000123803
0.000124033
0.000124262
0.000124493
0.000124724
0.000124956
0.000125189
0.000125423
0.000125658
0.000125896
0.000126137
0.000126371
0.000126593
0.000126807
0.000127017
0.000127226
0.000127438
0.000127654
0.000127876
0.000128102
0.000128335
0.000128575
0.000128823
0.000129079
0.000129345
0.00012962
0.000129906
0.000130203
0.000130512
0.000130833
0.000131167
0.000131515
0.000131876
0.000132251
0.000132639
0.000133041
0.000133459
0.000133893
0.00013434
0.000134803
0.000135283
0.000135782
0.000136295
0.000136825
0.000137373
0.000137944
0.000138543
0.000139181
0.000139871
0.000140637
0.000141515
0.000142558
0.000143844
0.000145491
0.000147677
0.000150673
0.000154874
0.000160865
0.000169484
0.000181815
0.000199223
0.000223032
0.00025401
0.000291934
0.000335644
0.000383508
0.000433953
0.000486084
0.000539368
0.000593395
0.000648019
0.000703252
0.000759119
0.000815539
0.000872372
0.000929444
0.000986523
0.00104329
0.0010993
0.00115387
0.00120613
0.00125489
0.00129859
0.00133525
0.00136234
0.0013765
0.105875
0.0660252
0.0434248
0.0303299
0.0223791
0.0172781
0.0138271
0.0113814
0.00957875
0.00820574
0.0071309
0.00626975
0.00556609
0.00498132
0.00448825
0.00406724
0.00370383
0.00338715
0.00310894
0.00286276
0.00264359
0.00244741
0.00227098
0.00211167
0.0019673
0.00183606
0.00171643
0.00160711
0.001507
0.00141515
0.00133072
0.00125299
0.00118133
0.00111516
0.001054
0.000997392
0.000944938
0.000896281
0.000851097
0.000809095
0.000770011
0.000733605
0.00069966
0.000667976
0.000638371
0.000610678
0.000584745
0.000560432
0.000537614
0.000516178
0.000496024
0.000477059
0.000459198
0.000442366
0.00042649
0.000411507
0.000397362
0.000384002
0.000371375
0.000359431
0.000348131
0.000337439
0.000327318
0.000317723
0.000308621
0.000299984
0.000291787
0.000284004
0.00027661
0.000269581
0.000262877
0.000256485
0.000250396
0.000244602
0.000239089
0.000233846
0.00022886
0.000224119
0.000219613
0.000215334
0.000211241
0.000207341
0.000203643
0.000200144
0.000196841
0.000193727
0.000190796
0.000188045
0.000185467
0.000183061
0.000180822
0.000178747
0.000176833
0.000175075
0.000173474
0.000171936
0.00017054
0.000169289
0.000168171
0.000167175
0.000166294
0.000165518
0.000164839
0.000164255
0.000163761
0.000163351
0.000163017
0.000162753
0.00016255
0.000162402
0.000162304
0.00016225
0.000162236
0.000162257
0.000162309
0.000162388
0.000162491
0.000162613
0.000162755
0.000162907
0.000163066
0.000163232
0.000163404
0.000163584
0.000163769
0.000163959
0.000164154
0.000164352
0.000164553
0.000164757
0.000164962
0.000165167
0.000165374
0.00016558
0.000165788
0.000165996
0.000166206
0.000166418
0.000166631
0.000166845
0.00016706
0.000167275
0.000167489
0.000167703
0.000167918
0.000168134
0.000168351
0.00016857
0.000168792
0.000169016
0.000169243
0.000169473
0.000169704
0.000169936
0.000170167
0.000170398
0.000170629
0.000170863
0.000171098
0.000171336
0.000171578
0.000171822
0.000172069
0.00017232
0.000172575
0.000172832
0.00017309
0.000173349
0.00017361
0.000173871
0.000174132
0.000174389
0.000174644
0.0001749
0.000175158
0.00017542
0.000175685
0.000175956
0.000176231
0.00017651
0.000176793
0.000177081
0.000177373
0.00017767
0.000177972
0.000178279
0.00017859
0.000178906
0.000179226
0.000179551
0.000179881
0.000180214
0.000180549
0.000180877
0.000181197
0.000181513
0.00018183
0.000182149
0.000182472
0.000182798
0.000183129
0.000183462
0.000183799
0.000184138
0.000184478
0.000184819
0.00018516
0.000185501
0.000185842
0.000186184
0.000186526
0.00018687
0.000187214
0.00018756
0.000187906
0.000188253
0.000188601
0.000188949
0.000189298
0.000189649
0.00019
0.000190353
0.000190707
0.000191062
0.000191416
0.000191742
0.000192053
0.000192362
0.000192673
0.000192988
0.000193309
0.000193636
0.000193969
0.000194311
0.000194661
0.000195022
0.000195393
0.000195777
0.000196173
0.000196584
0.000197009
0.000197449
0.000197906
0.000198381
0.000198875
0.000199387
0.000199919
0.000200469
0.000201039
0.000201631
0.000202247
0.000202889
0.000203556
0.00020425
0.000204972
0.000205722
0.000206502
0.000207313
0.000208158
0.000209044
0.000209983
0.000210994
0.000212104
0.000213357
0.000214816
0.000216576
0.000218777
0.000221624
0.000225424
0.000230629
0.000237895
0.000248156
0.000262665
0.000282801
0.000310331
0.00034654
0.000391793
0.000445427
0.000506014
0.000571848
0.000641386
0.000713537
0.000787658
0.000863397
0.000940583
0.00101915
0.00109903
0.0011801
0.00126214
0.00134485
0.00142781
0.00151046
0.00159208
0.00167172
0.00174812
0.00181969
0.00188441
0.00193977
0.00198261
0.0020087
0.111632
0.0749683
0.052104
0.0377768
0.0285491
0.0223771
0.0180813
0.0149774
0.0126588
0.0108762
0.00947095
0.00833931
0.00741095
0.00663707
0.00598293
0.00542328
0.00493942
0.00451723
0.00414591
0.00381707
0.00352409
0.00326169
0.0030256
0.00281234
0.00261903
0.00244327
0.00228305
0.00213663
0.00200256
0.00187955
0.0017665
0.00166245
0.00156654
0.00147801
0.00139621
0.00132053
0.00125043
0.00118544
0.00112512
0.00106908
0.00101697
0.000968453
0.000923249
0.000881086
0.000841717
0.000804916
0.000770478
0.000738215
0.000707958
0.000679559
0.000652882
0.000627805
0.000604214
0.000582006
0.000561083
0.000541364
0.000522776
0.000505247
0.000488695
0.000473059
0.000458289
0.000444336
0.000431147
0.000418649
0.000406805
0.000395588
0.000384966
0.000374903
0.000365364
0.000356316
0.00034768
0.000339463
0.000331664
0.000324265
0.000317247
0.000310589
0.000304274
0.000298287
0.000292614
0.000287245
0.000282058
0.000277165
0.000272563
0.000268232
0.00026416
0.000260337
0.000256754
0.000253403
0.000250277
0.00024737
0.000244675
0.000242185
0.000239895
0.000237796
0.000235885
0.000234143
0.000232562
0.000231139
0.000229869
0.000228744
0.000227754
0.000226891
0.000226145
0.000225509
0.000224973
0.000224531
0.000224175
0.000223896
0.000223688
0.000223543
0.000223455
0.000223419
0.000223427
0.000223475
0.000223557
0.000223669
0.000223807
0.000223969
0.00022415
0.000224347
0.000224558
0.000224778
0.000225006
0.000225241
0.000225482
0.000225729
0.000225982
0.000226239
0.000226499
0.00022676
0.000227022
0.000227285
0.000227548
0.000227813
0.00022808
0.000228348
0.000228619
0.000228893
0.000229169
0.000229445
0.000229721
0.000229995
0.000230269
0.000230543
0.000230819
0.000231098
0.000231379
0.000231663
0.000231952
0.000232244
0.000232539
0.000232838
0.000233137
0.000233432
0.000233727
0.000234022
0.000234319
0.00023462
0.000234924
0.000235233
0.000235545
0.000235863
0.000236184
0.000236511
0.000236843
0.000237179
0.00023752
0.000237864
0.000238211
0.00023856
0.000238902
0.000239237
0.000239571
0.000239908
0.000240252
0.000240602
0.000240959
0.000241321
0.000241688
0.000242061
0.000242438
0.000242821
0.000243209
0.000243604
0.000244004
0.000244411
0.000244824
0.000245243
0.000245668
0.000246097
0.000246531
0.000246969
0.000247408
0.00024782
0.000248222
0.000248627
0.000249038
0.000249456
0.000249881
0.000250312
0.000250747
0.000251187
0.00025163
0.000252075
0.000252522
0.000252967
0.000253412
0.000253857
0.000254303
0.00025475
0.000255198
0.000255649
0.000256101
0.000256555
0.000257009
0.000257464
0.000257921
0.000258378
0.000258837
0.000259297
0.00025976
0.000260224
0.000260689
0.000261153
0.000261616
0.000261988
0.00026237
0.000262767
0.000263175
0.000263591
0.000264015
0.000264447
0.000264888
0.00026534
0.000265803
0.00026628
0.000266771
0.000267278
0.000267802
0.000268344
0.000268904
0.000269485
0.000270086
0.000270711
0.000271362
0.000272038
0.000272736
0.000273459
0.00027421
0.000274995
0.000275817
0.000276676
0.000277575
0.000278514
0.000279496
0.000280523
0.000281598
0.000282726
0.000283914
0.000285176
0.000286534
0.000288021
0.000289686
0.000291602
0.000293875
0.000296659
0.000300182
0.00030477
0.000310902
0.00031926
0.000330803
0.000346819
0.00036893
0.000398901
0.000438356
0.0004883
0.000548751
0.000618824
0.000696967
0.000781464
0.000870826
0.000963969
0.00106021
0.00115916
0.00126062
0.00136445
0.00147054
0.00157866
0.0016885
0.00179959
0.00191133
0.00202293
0.00213338
0.0022414
0.0023454
0.00244336
0.00253283
0.00261079
0.00267355
0.00271613
0.115814
0.0822096
0.0596945
0.0446796
0.0345159
0.0274586
0.022411
0.0186917
0.0158738
0.0136847
0.0119457
0.010537
0.00937603
0.00840474
0.00758136
0.00687527
0.00626362
0.0057291
0.00525838
0.00484107
0.00446893
0.00413539
0.00383512
0.00356377
0.00331771
0.00309393
0.00288989
0.00270342
0.00253265
0.00237597
0.002232
0.00209949
0.00197737
0.00186469
0.00176058
0.00166429
0.00157514
0.00149251
0.00141585
0.00134466
0.00127848
0.00121691
0.00115957
0.00110612
0.00105623
0.00100962
0.000966017
0.000925192
0.000886927
0.000851033
0.00081734
0.000785692
0.000755942
0.000727959
0.000701615
0.000676813
0.000653464
0.000631468
0.000610703
0.000591107
0.000572622
0.000555182
0.000538712
0.000523084
0.000508298
0.000494325
0.000481117
0.000468622
0.000456795
0.000445593
0.000434838
0.000424673
0.000415064
0.000405971
0.000397362
0.00038921
0.000381493
0.000374193
0.000367292
0.000360775
0.000354606
0.000348782
0.000343297
0.000338144
0.000333313
0.000328793
0.000324573
0.000320644
0.000316996
0.000313619
0.000310506
0.000307646
0.00030503
0.000302649
0.000300492
0.000298548
0.000296806
0.000295254
0.000293882
0.000292679
0.000291634
0.000290737
0.000289975
0.000289338
0.000288817
0.0002884
0.000288079
0.000287844
0.000287687
0.000287598
0.000287572
0.000287601
0.000287678
0.000287797
0.000287951
0.000288137
0.00028835
0.000288586
0.000288843
0.000289117
0.000289402
0.000289698
0.000290001
0.000290312
0.000290629
0.000290953
0.000291282
0.000291616
0.00029195
0.000292285
0.000292618
0.000292951
0.000293285
0.000293621
0.00029396
0.000294302
0.000294647
0.000294995
0.000295345
0.000295692
0.000296035
0.000296376
0.000296716
0.000297059
0.000297404
0.000297754
0.000298107
0.000298465
0.000298828
0.000299195
0.000299567
0.000299941
0.000300307
0.000300667
0.000301027
0.00030139
0.000301758
0.000302131
0.00030251
0.000302893
0.000303283
0.000303677
0.000304078
0.000304485
0.000304899
0.000305317
0.00030574
0.000306167
0.000306599
0.000307032
0.000307438
0.000307838
0.000308245
0.000308662
0.00030909
0.000309527
0.000309971
0.000310421
0.000310876
0.000311337
0.000311803
0.000312276
0.000312757
0.000313244
0.00031374
0.000314242
0.000314753
0.00031527
0.000315795
0.000316323
0.000316855
0.000317391
0.00031793
0.000318383
0.000318854
0.000319345
0.000319851
0.000320367
0.00032089
0.00032142
0.000321956
0.000322497
0.00032304
0.000323586
0.00032413
0.000324671
0.000325212
0.000325753
0.000326296
0.000326842
0.000327392
0.000327944
0.000328498
0.000329053
0.000329609
0.000330166
0.000330724
0.000331284
0.000331846
0.000332411
0.000332979
0.000333549
0.000334118
0.000334683
0.000335245
0.000335792
0.000336329
0.000336865
0.000337406
0.000337954
0.000338512
0.00033908
0.00033966
0.000340253
0.000340862
0.000341487
0.00034213
0.000342794
0.000343479
0.000344186
0.000344915
0.000345669
0.00034645
0.000347261
0.000348107
0.000348984
0.000349885
0.000350818
0.000351794
0.000352819
0.000353897
0.000355029
0.000356217
0.000357463
0.000358771
0.000360147
0.000361596
0.000363128
0.000364758
0.000366509
0.000368418
0.000370538
0.000372949
0.000375764
0.000379144
0.000383325
0.000388642
0.000395577
0.000404808
0.000417279
0.000434254
0.000457338
0.000488405
0.000529353
0.000581706
0.000646187
0.0007225
0.000809676
0.000906117
0.00101012
0.00112025
0.00123547
0.00135507
0.00147865
0.00160595
0.0017368
0.00187099
0.00200824
0.00214809
0.00228995
0.002433
0.00257621
0.00271832
0.00285771
0.00299243
0.00312009
0.00323782
0.00334211
0.00342863
0.00349152
0.118964
0.0881372
0.0663047
0.0509936
0.0401842
0.0324241
0.0267304
0.0224538
0.0191667
0.0165851
0.0145172
0.0128312
0.0114347
0.0102616
0.0092639
0.00840605
0.00766131
0.00700932
0.0064343
0.00592388
0.00546825
0.00505954
0.00469135
0.00435842
0.00405639
0.00378161
0.003531
0.00330192
0.00309211
0.00289961
0.00272271
0.00255991
0.00240988
0.00227147
0.00214361
0.00202538
0.00191594
0.00181454
0.0017205
0.00163319
0.00155207
0.00147663
0.00140639
0.00134094
0.00127988
0.00122285
0.00116953
0.00111962
0.00107286
0.00102902
0.000987893
0.000949288
0.00091302
0.000878933
0.000846854
0.000816688
0.000788325
0.000761631
0.000736409
0.000712643
0.00069026
0.000669166
0.000649261
0.000630295
0.000612432
0.000595589
0.000579683
0.000564651
0.000550436
0.000536989
0.000524233
0.000512147
0.000500711
0.000489894
0.000479665
0.000469996
0.00046086
0.000452234
0.000444097
0.000436429
0.000429208
0.000422417
0.000416041
0.000410068
0.000404485
0.00039928
0.00039444
0.000389953
0.000385807
0.00038199
0.000378489
0.000375293
0.000372388
0.000369762
0.000367401
0.000365292
0.000363419
0.00036177
0.000360329
0.000359082
0.000358016
0.000357116
0.000356369
0.000355762
0.000355283
0.00035492
0.000354661
0.000354495
0.000354411
0.000354402
0.000354459
0.000354574
0.000354739
0.000354945
0.000355187
0.00035546
0.000355762
0.000356088
0.000356434
0.000356794
0.000357164
0.000357542
0.000357928
0.000358321
0.000358722
0.00035913
0.000359543
0.00035996
0.000360373
0.000360782
0.000361188
0.000361595
0.000362005
0.000362417
0.000362833
0.000363253
0.000363676
0.000364102
0.000364529
0.000364945
0.000365352
0.000365758
0.000366166
0.00036658
0.000366997
0.00036742
0.000367848
0.000368282
0.000368721
0.000369165
0.000369614
0.000370064
0.000370485
0.000370902
0.000371325
0.000371758
0.000372198
0.000372646
0.000373099
0.000373558
0.000374023
0.000374495
0.000374976
0.000375463
0.000375958
0.000376458
0.000376961
0.000377469
0.000377982
0.000378499
0.000378932
0.00037939
0.000379873
0.000380373
0.000380887
0.000381409
0.000381938
0.000382471
0.000383009
0.000383553
0.000384105
0.000384665
0.000385234
0.000385812
0.000386399
0.000386994
0.000387599
0.000388213
0.000388832
0.000389455
0.000390079
0.000390707
0.000391341
0.000391964
0.000392582
0.000393204
0.000393835
0.000394475
0.000395123
0.000395779
0.000396439
0.000397105
0.000397773
0.000398442
0.000399105
0.000399763
0.000400421
0.000401083
0.000401749
0.00040242
0.000403096
0.000403775
0.000404456
0.000405137
0.00040582
0.000406503
0.000407189
0.000407877
0.000408568
0.000409263
0.000409962
0.000410664
0.000411364
0.000412049
0.000412727
0.000413403
0.000414078
0.000414756
0.00041544
0.000416131
0.000416834
0.000417549
0.000418278
0.000419024
0.000419789
0.000420575
0.000421383
0.000422215
0.000423073
0.000423957
0.000424866
0.000425805
0.000426777
0.000427789
0.000428845
0.000429941
0.000431049
0.000432206
0.000433428
0.000434719
0.000436082
0.000437516
0.000439025
0.000440614
0.000442288
0.000444058
0.000445934
0.000447931
0.000450073
0.000452397
0.00045496
0.000457844
0.000461163
0.000465081
0.000469832
0.000475744
0.000483286
0.000493112
0.000506119
0.000523513
0.000546838
0.000577949
0.000618873
0.000671514
0.000737267
0.00081665
0.000909059
0.00101366
0.00112882
0.00125284
0.00138436
0.00152239
0.00166621
0.00181539
0.00196964
0.00212875
0.00229243
0.0024603
0.00263182
0.00280622
0.00298252
0.00315946
0.0033355
0.00350872
0.00367686
0.00383714
0.00398628
0.00412039
0.00423434
0.0043221
0.121413
0.0930477
0.0720621
0.0567268
0.0455059
0.0372091
0.0309766
0.0262083
0.0224907
0.0195384
0.017153
0.0151948
0.0135639
0.0121879
0.0110135
0.0100007
0.00911938
0.00834625
0.00766326
0.00705616
0.00651361
0.00602647
0.00558727
0.00518987
0.00482917
0.00450087
0.00420135
0.00392749
0.00367663
0.00344643
0.00323487
0.00304018
0.00286078
0.00269526
0.0025424
0.00240107
0.00227028
0.00214912
0.00203678
0.00193252
0.00183568
0.00174564
0.00166185
0.00158379
0.001511
0.00144304
0.0013795
0.00132005
0.00126437
0.00121219
0.00116327
0.00111738
0.00107429
0.00103382
0.000995734
0.000959974
0.000926398
0.000894824
0.000864911
0.000836823
0.000810407
0.000785529
0.000762075
0.000739902
0.000718963
0.000699199
0.000680539
0.000662915
0.000646262
0.000630525
0.000615643
0.000601569
0.000588264
0.000575693
0.000563821
0.000552616
0.000542047
0.000532087
0.000522711
0.000513895
0.000505617
0.000497856
0.000490594
0.000483813
0.000477496
0.00047163
0.000466197
0.000461182
0.000456572
0.000452349
0.000448499
0.000445006
0.000441852
0.000439022
0.000436498
0.000434263
0.000432299
0.000430587
0.00042911
0.000427852
0.000426794
0.00042592
0.000425213