/*--------------------------------*- C++ -*----------------------------------*\
  =========                 |
  \\      /  F ield         | OpenFOAM: The Open Source CFD Toolbox
   \\    /   O peration     | Website:  https://openfoam.org
    \\  /    A nd           | Version:  8
     \\/     M anipulation  |
\*---------------------------------------------------------------------------*/
FoamFile
{
    version     2.0;
    format      ascii;
    class       surfaceScalarField;
    location    "0.01";
    object      phi;
}
// * * * * * * * * * * * * * * * * * * * * * * * * * * * * * * * * * * * * * //

dimensions      [0 3 -1 0 0 0 0];

internalField   nonuniform List<scalar> 
206740
(
0.00135925
-0.00136497
0.00189975
-0.000542591
0.00202219
-0.000123987
0.00200893
1.24546e-05
0.00195508
5.31977e-05
0.00190163
5.34717e-05
0.00185626
4.58174e-05
0.00181846
3.90296e-05
0.00178646
3.33446e-05
0.00175945
2.87475e-05
0.00173602
2.49764e-05
0.00171571
2.20494e-05
0.00169757
1.96234e-05
0.00168146
1.77548e-05
0.00166666
1.61826e-05
0.00165316
1.50083e-05
0.00164041
1.40093e-05
0.00162847
1.33031e-05
0.0016169
1.26965e-05
0.0016058
1.2312e-05
0.00159482
1.1979e-05
0.00158408
1.18178e-05
0.00157329
1.1676e-05
0.00156258
1.16708e-05
0.0015517
1.1666e-05
0.00154078
1.17684e-05
0.00152963
1.18529e-05
0.00151838
1.20062e-05
0.00150685
1.21415e-05
0.00149516
1.23697e-05
0.00148314
1.2564e-05
0.00147093
1.28029e-05
0.00145842
1.29959e-05
0.00144573
1.32237e-05
0.00143274
1.34098e-05
0.00141958
1.36283e-05
0.00140614
1.38095e-05
0.00139253
1.40202e-05
0.00137866
1.41975e-05
0.00136462
1.44022e-05
0.00135033
1.45775e-05
0.00133586
1.47782e-05
0.00132116
1.49523e-05
0.00130629
1.51458e-05
0.00129121
1.53017e-05
0.00127598
1.54691e-05
0.00126054
1.56266e-05
0.00124494
1.58143e-05
0.00122912
1.59835e-05
0.00121314
1.61683e-05
0.00119696
1.63299e-05
0.00118062
1.65014e-05
0.0011641
1.66482e-05
0.00114745
1.67978e-05
0.00113064
1.6915e-05
0.00111375
1.702e-05
0.00109678
1.70738e-05
0.00107981
1.70825e-05
0.00106291
1.6987e-05
0.00104625
1.67542e-05
0.00103004
1.62875e-05
0.00101458
1.55547e-05
0.00100009
1.45548e-05
0.000986765
1.34103e-05
0.000974586
1.22403e-05
0.000963481
1.11788e-05
0.000953259
1.02764e-05
0.000943753
9.57182e-06
0.000934762
9.03946e-06
0.000926154
8.66639e-06
0.000917794
8.40361e-06
0.000909616
8.23011e-06
0.000901552
8.10248e-06
0.00089359
8.0089e-06
0.000885704
7.91952e-06
0.000877913
7.83326e-06
0.000870212
7.73133e-06
0.000862629
7.61953e-06
0.00085517
7.48574e-06
0.000847865
7.33886e-06
0.000840719
7.17018e-06
0.000833759
6.98922e-06
0.000826992
6.78865e-06
0.000820442
6.57721e-06
0.000814114
6.34743e-06
0.000808032
6.10601e-06
0.000802205
5.84423e-06
0.000796661
5.56614e-06
0.000791415
5.26163e-06
0.000786502
4.93308e-06
0.000781944
4.5715e-06
0.00077778
4.18212e-06
0.00077403
3.76265e-06
0.000770721
3.32573e-06
0.000767855
2.87687e-06
0.000765437
2.43333e-06
0.000763444
2.00298e-06
0.000761856
1.60155e-06
0.000760632
1.23335e-06
0.000759736
9.08222e-07
0.000759119
6.2495e-07
0.000758742
3.87847e-07
0.000758559
1.91331e-07
0.000758529
3.97087e-08
0.000758608
-7.20445e-08
0.000758769
-1.52032e-07
0.000758989
-2.14276e-07
0.000759259
-2.61379e-07
0.000759564
-2.99925e-07
0.000759902
-3.2994e-07
0.000760263
-3.5628e-07
0.000760647
-3.78001e-07
0.000761051
-3.98785e-07
0.000761474
-4.17081e-07
0.000761913
-4.35747e-07
0.000762372
-4.52847e-07
0.000762846
-4.70761e-07
0.000763338
-4.87414e-07
0.000763846
-5.04697e-07
0.000764371
-5.20257e-07
0.000764908
-5.35031e-07
0.000765459
-5.46844e-07
0.000766019
-5.5761e-07
0.000766589
-5.66126e-07
0.000767165
-5.74511e-07
0.00076775
-5.81651e-07
0.000768341
-5.89351e-07
0.00076894
-5.96384e-07
0.000769545
-6.04278e-07
0.000770159
-6.11762e-07
0.00077078
-6.20148e-07
0.00077141
-6.28155e-07
0.000772048
-6.3696e-07
0.000772695
-6.45317e-07
0.000773349
-6.54303e-07
0.000774013
-6.6277e-07
0.000774685
-6.7173e-07
0.000775366
-6.80119e-07
0.000776055
-6.88931e-07
0.000776752
-6.97197e-07
0.000777458
-7.05878e-07
0.000778172
-7.14087e-07
0.000778894
-7.22695e-07
0.000779624
-7.30829e-07
0.000780363
-7.39307e-07
0.000781109
-7.47296e-07
0.000781864
-7.55564e-07
0.000782626
-7.63361e-07
0.000783396
-7.71424e-07
0.000784174
-7.79051e-07
0.000784959
-7.86959e-07
0.000785753
-7.94473e-07
0.000786553
-8.02263e-07
0.000787361
-8.09708e-07
0.000788176
-8.17403e-07
0.000788999
-8.24682e-07
0.000789829
-8.3207e-07
0.000790665
-8.38886e-07
0.000791508
-8.45574e-07
0.000792357
-8.51377e-07
0.000793211
-8.56552e-07
0.000794068
-8.59877e-07
0.000794926
-8.60433e-07
0.000795781
-8.58573e-07
0.000796628
-8.50052e-07
0.000797453
-8.28227e-07
0.000798247
-7.97035e-07
0.000799005
-7.61587e-07
0.000799727
-7.26537e-07
0.000800418
-6.94268e-07
0.000801081
-6.66892e-07
0.000801722
-6.44721e-07
0.000802345
-6.28205e-07
0.000802958
-6.16567e-07
0.000803563
-6.09654e-07
0.000804165
-6.06437e-07
0.000804766
-6.0669e-07
0.000805371
-6.09468e-07
0.00080598
-6.14616e-07
0.000806597
-6.21285e-07
0.00080722
-6.29397e-07
0.000807853
-6.38163e-07
0.000808494
-6.47471e-07
0.000809145
-6.56498e-07
0.000809802
-6.64442e-07
0.000810468
-6.71405e-07
0.000811121
-6.59119e-07
0.000811705
-5.90667e-07
0.000812255
-5.57592e-07
0.000812852
-6.04146e-07
0.000813495
-6.50499e-07
0.000814171
-6.82797e-07
0.00081487
-7.06642e-07
0.000815591
-7.28161e-07
0.000816333
-7.4841e-07
0.000817091
-7.6526e-07
0.000817861
-7.77427e-07
0.000818639
-7.84574e-07
0.000819419
-7.8738e-07
0.000820199
-7.86505e-07
0.000820975
-7.82878e-07
0.000821746
-7.77073e-07
0.000822509
-7.69751e-07
0.000823263
-7.61203e-07
0.000824008
-7.5184e-07
0.000824743
-7.41724e-07
0.000825468
-7.31046e-07
0.000826181
-7.19727e-07
0.000826882
-7.07829e-07
0.000827571
-6.95224e-07
0.000828246
-6.81967e-07
0.000828908
-6.67944e-07
0.000829555
-6.53214e-07
0.000830186
-6.3771e-07
0.000830801
-6.21483e-07
0.0008314
-6.04477e-07
0.00083198
-5.86779e-07
0.000832543
-5.68436e-07
0.000833087
-5.49668e-07
0.000833611
-5.30254e-07
0.000834119
-5.13684e-07
0.000834591
-4.78167e-07
0.000835041
-4.56075e-07
0.000835498
-4.6268e-07
0.000835954
-4.62222e-07
0.000836397
-4.48696e-07
0.000836808
-4.16483e-07
0.000837183
-3.8146e-07
0.000837531
-3.54386e-07
0.000837859
-3.34382e-07
0.00083817
-3.17939e-07
0.000838466
-3.02333e-07
0.000838745
-2.86742e-07
0.000839009
-2.70916e-07
0.000839257
-2.55385e-07
0.000839489
-2.40367e-07
0.000839708
-2.26405e-07
0.000839913
-2.13513e-07
0.000840106
-2.01904e-07
0.000840289
-1.91214e-07
0.000840461
-1.81317e-07
0.000840623
-1.71416e-07
0.000840775
-1.60881e-07
0.000840914
-1.48394e-07
0.000841036
-1.32856e-07
0.000841138
-1.12399e-07
0.000841213
-8.52876e-08
0.00084125
-4.84766e-08
0.000841235
3.40682e-09
0.000841146
7.7433e-08
0.000840958
1.76702e-07
0.000840619
3.28007e-07
0.000840032
5.74795e-07
0.000839245
7.74821e-07
0.00083834
8.91975e-07
0.000837244
1.08257e-06
0.000835873
1.35836e-06
0.00083417
1.69038e-06
0.000832092
2.06584e-06
0.000829594
2.48518e-06
0.00082663
2.9516e-06
0.000823153
3.46486e-06
0.000819121
4.01986e-06
0.000814503
4.60668e-06
0.00080928
5.21081e-06
0.000803459
5.80869e-06
0.000797076
6.37005e-06
0.000790168
6.89629e-06
0.000782838
7.31816e-06
0.000775299
7.52757e-06
0.000767769
7.51893e-06
0.000760516
7.24156e-06
0.000753952
6.55338e-06
0.000748611
5.32934e-06
0.000745136
3.46331e-06
0.000744182
9.40738e-07
0.000746301
-2.1317e-06
0.000751704
-5.4136e-06
0.000759836
-8.14285e-06
0.000769476
-9.65252e-06
0.000779592
-1.0129e-05
0.00078958
-1.00004e-05
0.000798482
-8.9153e-06
0.000804683
-6.21277e-06
0.000805819
-1.14711e-06
0.0007994
6.40778e-06
0.000783789
1.55984e-05
0.000758165
2.56116e-05
0.000722351
3.58003e-05
0.000676757
4.55793e-05
0.000622328
5.44141e-05
0.000560519
6.17933e-05
0.00049327
6.72338e-05
0.000422927
7.03295e-05
0.00035211
7.08041e-05
0.000283518
6.85767e-05
0.000219671
6.38279e-05
0.00016261
5.7043e-05
0.00011362
4.89793e-05
4.05595e-05
7.30657e-05
0.00135112
-0.00129819
0.00155671
-0.000748482
0.00170724
-0.000274585
0.00177603
-5.62108e-05
0.00179981
2.96546e-05
0.00179804
5.56534e-05
0.00178464
5.98415e-05
0.00176752
5.69697e-05
0.00174993
5.18775e-05
0.00173326
4.64046e-05
0.00171794
4.13076e-05
0.00170417
3.68159e-05
0.00169182
3.29562e-05
0.00168085
2.96824e-05
0.00167104
2.69379e-05
0.0016623
2.46518e-05
0.00165443
2.27657e-05
0.00164737
2.12171e-05
0.00164093
1.99615e-05
0.00163508
1.89504e-05
0.00162967
1.81522e-05
0.00162469
1.75296e-05
0.00162001
1.70613e-05
0.00161563
1.67197e-05
0.00161145
1.64911e-05
0.00160748
1.63519e-05
0.00160364
1.62917e-05
0.00159992
1.62864e-05
0.00159627
1.63417e-05
0.00159271
1.64519e-05
0.00158917
1.66028e-05
0.00158568
1.67756e-05
0.00158216
1.69673e-05
0.00157865
1.71674e-05
0.0015751
1.73773e-05
0.00157153
1.75895e-05
0.00156792
1.78067e-05
0.00156427
1.80226e-05
0.00156057
1.82407e-05
0.00155684
1.84556e-05
0.00155305
1.86711e-05
0.00154923
1.88824e-05
0.00154537
1.9093e-05
0.00154148
1.92972e-05
0.00153753
1.94958e-05
0.00153354
1.96892e-05
0.0015295
1.98908e-05
0.00152543
2.00938e-05
0.00152132
2.02938e-05
0.00151719
2.04852e-05
0.00151303
2.06701e-05
0.00150886
2.08448e-05
0.00150465
2.10106e-05
0.00150044
2.11615e-05
0.0014962
2.12955e-05
0.00149196
2.14026e-05
0.00148768
2.14745e-05
0.00148339
2.14927e-05
0.00147906
2.14363e-05
0.00147465
2.12744e-05
0.00147006
2.09849e-05
0.00146516
2.05509e-05
0.00145984
1.99721e-05
0.00145407
1.92664e-05
0.00144791
1.84825e-05
0.00144149
1.76783e-05
0.00143493
1.69099e-05
0.00142836
1.62132e-05
0.00142186
1.56085e-05
0.0014155
1.50963e-05
0.00140929
1.46695e-05
0.00140327
1.43111e-05
0.00139742
1.40054e-05
0.00139175
1.37345e-05
0.00138623
1.34852e-05
0.00138087
1.32448e-05
0.00137564
1.30055e-05
0.00137054
1.27596e-05
0.00136556
1.25041e-05
0.0013607
1.22348e-05
0.00135596
1.19514e-05
0.00135133
1.16518e-05
0.00134682
1.13363e-05
0.00134242
1.10034e-05
0.00133814
1.0653e-05
0.00133399
1.02825e-05
0.00132998
9.8902e-06
0.00132609
9.47172e-06
0.00132236
9.02413e-06
0.00131877
8.54365e-06
0.00131533
8.03021e-06
0.00131205
7.48538e-06
0.00130891
6.91583e-06
0.00130593
6.32983e-06
0.00130308
5.73912e-06
0.00130038
5.15487e-06
0.00129781
4.58922e-06
0.00129537
4.05154e-06
0.00129307
3.5503e-06
0.0012909
3.09036e-06
0.00128886
2.67539e-06
0.00128696
2.30584e-06
0.00128518
1.98156e-06
0.00128353
1.70016e-06
0.00128201
1.45913e-06
0.00128061
1.2528e-06
0.00127933
1.07506e-06
0.00127816
9.19839e-07
0.00127708
7.83157e-07
0.0012761
6.61072e-07
0.0012752
5.5118e-07
0.00127438
4.50875e-07
0.00127363
3.58832e-07
0.00127294
2.73391e-07
0.00127232
1.93835e-07
0.00127175
1.19088e-07
0.00127124
4.97557e-08
0.00127077
-1.39637e-08
0.00127034
-7.28902e-08
0.00126995
-1.28046e-07
0.0012696
-1.78668e-07
0.00126928
-2.25306e-07
0.001269
-2.68204e-07
0.00126874
-3.08163e-07
0.00126852
-3.45444e-07
0.00126832
-3.80718e-07
0.00126814
-4.14054e-07
0.001268
-4.46007e-07
0.00126787
-4.76573e-07
0.00126777
-5.06176e-07
0.00126768
-5.34738e-07
0.00126762
-5.62575e-07
0.00126757
-5.8954e-07
0.00126754
-6.15882e-07
0.00126753
-6.41425e-07
0.00126754
-6.6639e-07
0.00126755
-6.90597e-07
0.00126759
-7.14253e-07
0.00126764
-7.37196e-07
0.0012677
-7.59652e-07
0.00126777
-7.8151e-07
0.00126786
-8.02997e-07
0.00126796
-8.23974e-07
0.00126808
-8.44616e-07
0.0012682
-8.64774e-07
0.00126834
-8.84607e-07
0.00126848
-9.03968e-07
0.00126864
-9.23022e-07
0.00126881
-9.41641e-07
0.00126899
-9.59984e-07
0.00126918
-9.77923e-07
0.00126938
-9.95588e-07
0.00126959
-1.01285e-06
0.00126981
-1.02985e-06
0.00127003
-1.04644e-06
0.00127027
-1.0627e-06
0.00127051
-1.07842e-06
0.00127076
-1.09362e-06
0.00127102
-1.10804e-06
0.00127129
-1.12153e-06
0.00127157
-1.1336e-06
0.00127185
-1.14357e-06
0.00127213
-1.14891e-06
0.00127242
-1.14763e-06
0.0012727
-1.13697e-06
0.00127299
-1.11718e-06
0.00127328
-1.09256e-06
0.00127358
-1.06636e-06
0.00127389
-1.04059e-06
0.00127421
-1.01709e-06
0.00127453
-9.97059e-07
0.00127487
-9.81386e-07
0.0012752
-9.70246e-07
0.00127555
-9.63646e-07
0.00127589
-9.61203e-07
0.00127625
-9.6262e-07
0.0012766
-9.67363e-07
0.00127696
-9.75076e-07
0.00127733
-9.85201e-07
0.0012777
-9.97359e-07
0.00127808
-1.011e-06
0.00127846
-1.02572e-06
0.00127885
-1.04091e-06
0.00127924
-1.05614e-06
0.00127964
-1.06981e-06
0.00128004
-1.08189e-06
0.00128046
-1.08329e-06
0.00128092
-1.05952e-06
0.00128143
-1.07044e-06
0.00128194
-1.12279e-06
0.00128244
-1.15937e-06
0.00128294
-1.18305e-06
0.00128342
-1.19876e-06
0.0012839
-1.21214e-06
0.00128437
-1.22554e-06
0.00128484
-1.23842e-06
0.0012853
-1.24935e-06
0.00128577
-1.25737e-06
0.00128624
-1.262e-06
0.00128671
-1.26325e-06
0.00128718
-1.26129e-06
0.00128765
-1.25649e-06
0.00128813
-1.24909e-06
0.0012886
-1.2394e-06
0.00128907
-1.22761e-06
0.00128953
-1.2139e-06
0.00128999
-1.19832e-06
0.00129045
-1.18091e-06
0.0012909
-1.16163e-06
0.00129133
-1.14046e-06
0.00129176
-1.11736e-06
0.00129218
-1.09235e-06
0.00129259
-1.06539e-06
0.00129298
-1.03651e-06
0.00129336
-1.0057e-06
0.00129372
-9.73009e-07
0.00129407
-9.38429e-07
0.0012944
-9.0222e-07
0.00129471
-8.64589e-07
0.00129499
-8.24986e-07
0.00129526
-7.87258e-07
0.00129552
-7.43521e-07
0.00129576
-6.98309e-07
0.00129594
-6.53188e-07
0.00129608
-6.07881e-07
0.0012962
-5.68014e-07
0.0012963
-5.21574e-07
0.00129638
-4.71161e-07
0.00129644
-4.22802e-07
0.00129648
-3.78506e-07
0.00129649
-3.37478e-07
0.00129648
-2.9858e-07
0.00129645
-2.60981e-07
0.0012964
-2.24503e-07
0.00129633
-1.89199e-07
0.00129623
-1.55394e-07
0.00129612
-1.23299e-07
0.001296
-9.31394e-08
0.00129585
-6.48133e-08
0.00129569
-3.81488e-08
0.00129551
-1.24971e-08
0.00129532
1.29706e-08
0.00129511
3.95088e-08
0.00129489
6.86386e-08
0.00129464
1.02545e-07
0.00129438
1.43786e-07
0.00129409
1.95706e-07
0.00129377
2.62157e-07
0.00129341
3.47627e-07
0.00129302
4.59051e-07
0.00129259
6.00503e-07
0.00129212
7.87855e-07
0.00129163
1.05313e-06
0.00129107
1.32339e-06
0.00129037
1.58252e-06
0.00128952
1.92064e-06
0.00128852
2.35386e-06
0.00128732
2.87788e-06
0.00128589
3.4877e-06
0.00128418
4.18299e-06
0.00128215
4.96658e-06
0.00127977
5.84038e-06
0.00127698
6.80266e-06
0.00127373
7.84618e-06
0.00126997
8.95833e-06
0.00126565
1.01137e-05
0.00126074
1.12739e-05
0.00125519
1.24419e-05
0.00124894
1.3559e-05
0.00124197
1.44811e-05
0.00123434
1.5145e-05
0.00122607
1.54962e-05
0.00121721
1.54079e-05
0.00120779
1.47406e-05
0.00119785
1.33999e-05
0.00118737
1.14108e-05
0.00117617
9.05596e-06
0.00116389
6.85229e-06
0.00115046
5.28125e-06
0.00113601
4.78936e-06
0.00111984
6.02881e-06
0.00110045
9.3857e-06
0.0010767
1.48304e-05
0.00104813
2.23414e-05
0.00101497
3.20039e-05
0.000977372
4.40028e-05
0.000934726
5.82364e-05
0.000886239
7.40915e-05
0.000831375
9.06564e-05
0.000770076
0.00010687
0.000702876
0.000121606
0.0006309
0.000133761
0.000555778
0.000142349
0.000479494
0.000146606
0.000404202
0.00014609
0.000332008
0.000140763
0.000264777
0.000131051
0.000203978
0.000117834
0.000150561
0.000102395
8.67731e-05
0.000104339
0.00144466
-0.00108721
0.00144703
-0.000751444
0.00154146
-0.000369418
0.00161877
-0.000133709
0.0016639
-1.56304e-05
0.00168345
3.60296e-05
0.00168754
5.57349e-05
0.0016837
6.09218e-05
0.00167613
5.96116e-05
0.00166711
5.56705e-05
0.00165778
5.08713e-05
0.00164881
4.60812e-05
0.00164043
4.16063e-05
0.0016328
3.76277e-05
0.00162589
3.41324e-05
0.00161971
3.11485e-05
0.00161417
2.85922e-05
0.00160923
2.64605e-05
0.0016048
2.46628e-05
0.00160085
2.31959e-05
0.00159728
2.19778e-05
0.00159407
2.10114e-05
0.00159114
2.0226e-05
0.00158849
1.96309e-05
0.00158603
1.9166e-05
0.00158378
1.8844e-05
0.00158166
1.86122e-05
0.00157968
1.84842e-05
0.00157779
1.84194e-05
0.001576
1.84407e-05
0.00157427
1.8504e-05
0.0015726
1.86234e-05
0.00157096
1.87617e-05
0.00156936
1.89365e-05
0.00156776
1.91172e-05
0.00156617
1.93222e-05
0.00156458
1.95253e-05
0.00156299
1.97445e-05
0.00156139
1.9957e-05
0.00155978
2.018e-05
0.00155816
2.03934e-05
0.00155653
2.06135e-05
0.00155489
2.08222e-05
0.00155324
2.10341e-05
0.00155158
2.12324e-05
0.00154992
2.14333e-05
0.00154825
2.16276e-05
0.00154659
2.18283e-05
0.00154492
2.20175e-05
0.00154326
2.22039e-05
0.00154161
2.23735e-05
0.00153997
2.25359e-05
0.00153835
2.26787e-05
0.00153675
2.28091e-05
0.00153517
2.29132e-05
0.00153362
2.2994e-05
0.00153209
2.30335e-05
0.00153059
2.30283e-05
0.0015291
2.29544e-05
0.0015276
2.28031e-05
0.00152606
2.25552e-05
0.00152442
2.22138e-05
0.00152264
2.17741e-05
0.00152068
2.12533e-05
0.00151851
2.06688e-05
0.00151615
2.00593e-05
0.00151362
1.94516e-05
0.00151097
1.88765e-05
0.00150825
1.83441e-05
0.0015055
1.78657e-05
0.00150274
1.74348e-05
0.00150002
1.70491e-05
0.00149734
1.66952e-05
0.00149472
1.63671e-05
0.00149216
1.60516e-05
0.00148967
1.57443e-05
0.00148725
1.5435e-05
0.0014849
1.51218e-05
0.00148261
1.47977e-05
0.00148039
1.44635e-05
0.00147823
1.41143e-05
0.00147614
1.37516e-05
0.00147411
1.33718e-05
0.00147214
1.29768e-05
0.00147024
1.25635e-05
0.00146839
1.21333e-05
0.0014666
1.16827e-05
0.00146487
1.12129e-05
0.00146317
1.07208e-05
0.00146151
1.02081e-05
0.00145987
9.67301e-06
0.00145824
9.11913e-06
0.00145661
8.54779e-06
0.00145498
7.96591e-06
0.00145335
7.37884e-06
0.00145171
6.79635e-06
0.00145007
6.22534e-06
0.00144845
5.67526e-06
0.00144685
5.15156e-06
0.00144529
4.66095e-06
0.00144376
4.20577e-06
0.00144228
3.78916e-06
0.00144085
3.4105e-06
0.00143948
3.07017e-06
0.00143818
2.76491e-06
0.00143694
2.49214e-06
0.00143577
2.24639e-06
0.00143467
2.0245e-06
0.00143363
1.82213e-06
0.00143266
1.63728e-06
0.00143174
1.46671e-06
0.00143089
1.30928e-06
0.00143008
1.16258e-06
0.00142933
1.02608e-06
0.00142863
8.97994e-07
0.00142797
7.78223e-07
0.00142736
6.65519e-07
0.00142678
5.60417e-07
0.00142625
4.62286e-07
0.00142575
3.71399e-07
0.00142529
2.86538e-07
0.00142486
2.07578e-07
0.00142446
1.3351e-07
0.00142408
6.44887e-08
0.00142374
-2.88916e-10
0.00142342
-6.08815e-08
0.00142313
-1.18425e-07
0.00142286
-1.72878e-07
0.0014226
-2.2498e-07
0.00142237
-2.74593e-07
0.00142216
-3.22385e-07
0.00142197
-3.68162e-07
0.00142179
-4.12465e-07
0.00142163
-4.55056e-07
0.00142149
-4.96397e-07
0.00142136
-5.36227e-07
0.00142124
-5.74948e-07
0.00142114
-6.1229e-07
0.00142105
-6.48609e-07
0.00142098
-6.83677e-07
0.00142092
-7.17896e-07
0.00142086
-7.51082e-07
0.00142082
-7.83578e-07
0.00142079
-8.1517e-07
0.00142078
-8.4616e-07
0.00142077
-8.76329e-07
0.00142077
-9.05941e-07
0.00142078
-9.34785e-07
0.0014208
-9.63114e-07
0.00142084
-9.90725e-07
0.00142088
-1.01783e-06
0.00142092
-1.0442e-06
0.00142098
-1.07003e-06
0.00142105
-1.09516e-06
0.00142112
-1.11978e-06
0.0014212
-1.14366e-06
0.00142129
-1.16694e-06
0.00142138
-1.18936e-06
0.00142149
-1.21096e-06
0.0014216
-1.23132e-06
0.00142171
-1.25014e-06
0.00142184
-1.26692e-06
0.00142196
-1.27868e-06
0.0014221
-1.28659e-06
0.00142226
-1.29265e-06
0.00142243
-1.29359e-06
0.00142263
-1.28964e-06
0.00142285
-1.28233e-06
0.00142308
-1.27378e-06
0.00142333
-1.26558e-06
0.00142359
-1.2592e-06
0.00142386
-1.25549e-06
0.00142414
-1.25507e-06
0.00142444
-1.25799e-06
0.00142474
-1.26429e-06
0.00142505
-1.27367e-06
0.00142537
-1.28597e-06
0.00142569
-1.30074e-06
0.00142602
-1.31774e-06
0.00142636
-1.33646e-06
0.0014267
-1.35657e-06
0.00142705
-1.37752e-06
0.00142741
-1.39892e-06
0.00142777
-1.4201e-06
0.00142814
-1.43979e-06
0.00142851
-1.4571e-06
0.0014289
-1.46691e-06
0.0014293
-1.46618e-06
0.00142972
-1.48657e-06
0.00143013
-1.5335e-06
0.00143054
-1.57702e-06
0.00143097
-1.60932e-06
0.0014314
-1.63109e-06
0.00143183
-1.64716e-06
0.00143226
-1.66116e-06
0.0014327
-1.67402e-06
0.00143313
-1.68535e-06
0.00143357
-1.69433e-06
0.001434
-1.70044e-06
0.00143444
-1.70331e-06
0.00143488
-1.70288e-06
0.00143532
-1.69915e-06
0.00143576
-1.69221e-06
0.0014362
-1.68214e-06
0.00143664
-1.66906e-06
0.00143708
-1.65303e-06
0.00143752
-1.6341e-06
0.00143794
-1.61222e-06
0.00143837
-1.58737e-06
0.00143879
-1.55948e-06
0.0014392
-1.52852e-06
0.0014396
-1.49444e-06
0.00143999
-1.45725e-06
0.00144037
-1.41692e-06
0.00144073
-1.37349e-06
0.00144108
-1.32697e-06
0.00144142
-1.2774e-06
0.00144174
-1.22501e-06
0.00144205
-1.16994e-06
0.00144233
-1.1117e-06
0.00144259
-1.05209e-06
0.00144284
-9.86371e-07
0.00144305
-9.14402e-07
0.00144324
-8.44832e-07
0.00144341
-7.8291e-07
0.00144357
-7.24228e-07
0.0014437
-6.58617e-07
0.00144381
-5.86119e-07
0.0014439
-5.1195e-07
0.00144396
-4.39475e-07
0.00144399
-3.69783e-07
0.00144399
-3.02713e-07
0.00144397
-2.38007e-07
0.00144392
-1.75459e-07
0.00144384
-1.15166e-07
0.00144374
-5.72154e-08
0.00144362
-1.77895e-09
0.00144347
5.10656e-08
0.0014433
1.01236e-07
0.00144311
1.49056e-07
0.0014429
1.95034e-07
0.00144267
2.402e-07
0.00144242
2.8596e-07
0.00144215
3.34372e-07
0.00144186
3.87929e-07
0.00144155
4.49895e-07
0.00144122
5.24113e-07
0.00144086
6.15309e-07
0.00144048
7.28974e-07
0.00144006
8.73076e-07
0.0014396
1.05411e-06
0.0014391
1.28502e-06
0.00143857
1.58157e-06
0.00143798
1.91197e-06
0.00143729
2.27106e-06
0.0014365
2.71104e-06
0.00143559
3.25902e-06
0.00143454
3.92234e-06
0.00143332
4.70232e-06
0.0014319
5.60167e-06
0.00143024
6.6253e-06
0.00142829
7.7778e-06
0.00142603
9.06099e-06
0.0014234
1.04717e-05
0.00142036
1.20011e-05
0.00141684
1.36297e-05
0.00141278
1.53288e-05
0.00140813
1.70851e-05
0.00140285
1.88382e-05
0.00139685
2.04762e-05
0.00139005
2.19353e-05
0.00138238
2.31649e-05
0.00137371
2.40801e-05
0.00136384
2.46033e-05
0.0013525
2.47398e-05
0.00133928
2.46279e-05
0.00132377
2.4558e-05
0.00130566
2.49664e-05
0.00128462
2.63132e-05
0.00126035
2.90582e-05
0.00123255
3.38317e-05
0.00120079
4.11457e-05
0.00116449
5.11288e-05
0.00112315
6.36805e-05
0.0010766
7.85576e-05
0.0010251
9.55031e-05
0.000969109
0.000114227
0.000909022
0.00013418
0.000845197
0.000154481
0.000778078
0.00017399
0.000708284
0.0001914
0.00063666
0.000205386
0.000564256
0.000214753
0.00049227
0.000218593
0.000421952
0.000216409
0.000354509
0.000208206
0.000291029
0.00019453
0.000232422
0.000176441
0.000179353
0.000155463
0.00013395
0.000132181
0.0015059
-0.000908546
0.00144388
-0.000689547
0.0014759
-0.00040133
0.00152857
-0.000186158
0.00157007
-5.6857e-05
0.00159493
1.14474e-05
0.00160684
4.41404e-05
0.00161047
5.76433e-05
0.00160924
6.12212e-05
0.00160538
5.99124e-05
0.00160026
5.63891e-05
0.00159469
5.20365e-05
0.00158912
4.75563e-05
0.00158383
4.3297e-05
0.00157893
3.94164e-05
0.00157447
3.59729e-05
0.00157046
3.29704e-05
0.00156688
3.03874e-05
0.0015637
2.81891e-05
0.00156089
2.63369e-05
0.00155841
2.47916e-05
0.00155622
2.35161e-05
0.00155428
2.24764e-05
0.00155257
2.16417e-05
0.00155105
2.0985e-05
0.00154969
2.04814e-05
0.00154847
2.01094e-05
0.00154738
1.98488e-05
0.00154637
1.96857e-05
0.00154546
1.96078e-05
0.00154461
1.96009e-05
0.00154383
1.965e-05
0.00154308
1.97442e-05
0.00154236
1.98732e-05
0.00154167
2.00298e-05
0.001541
2.02067e-05
0.00154033
2.03994e-05
0.00153966
2.06024e-05
0.001539
2.08129e-05
0.00153833
2.10269e-05
0.00153766
2.12429e-05
0.00153698
2.14579e-05
0.00153629
2.1671e-05
0.0015356
2.18798e-05
0.00153489
2.20839e-05
0.00153418
2.22826e-05
0.00153347
2.24791e-05
0.00153275
2.26721e-05
0.00153204
2.28586e-05
0.00153132
2.30342e-05
0.00153061
2.31971e-05
0.00152991
2.33446e-05
0.00152922
2.34753e-05
0.00152854
2.35855e-05
0.00152787
2.3672e-05
0.00152723
2.3728e-05
0.0015266
2.37469e-05
0.00152599
2.37184e-05
0.00152539
2.36317e-05
0.00152479
2.3474e-05
0.00152418
2.32381e-05
0.00152353
2.29225e-05
0.00152284
2.2533e-05
0.00152207
2.20798e-05
0.00152122
2.15809e-05
0.00152027
2.10581e-05
0.00151924
2.05345e-05
0.00151814
2.00275e-05
0.00151698
1.95491e-05
0.00151579
1.91039e-05
0.00151458
1.86919e-05
0.00151336
1.83081e-05
0.00151215
1.79463e-05
0.00151095
1.75991e-05
0.00150978
1.72598e-05
0.00150863
1.69219e-05
0.00150752
1.65806e-05
0.00150644
1.62315e-05
0.00150539
1.58718e-05
0.00150438
1.54993e-05
0.00150341
1.51128e-05
0.00150248
1.47108e-05
0.00150158
1.4293e-05
0.00150072
1.38588e-05
0.0014999
1.34083e-05
0.00149911
1.29407e-05
0.00149835
1.24562e-05
0.00149763
1.19545e-05
0.00149693
1.1436e-05
0.00149625
1.09013e-05
0.00149559
1.03517e-05
0.00149494
9.789e-06
0.00149428
9.21604e-06
0.00149362
8.63665e-06
0.00149296
8.05634e-06
0.00149229
7.48103e-06
0.00149161
6.91741e-06
0.00149092
6.37177e-06
0.00149023
5.85003e-06
0.00148955
5.35663e-06
0.00148887
4.89507e-06
0.0014882
4.46709e-06
0.00148754
4.07359e-06
0.00148691
3.71401e-06
0.00148629
3.3869e-06
0.0014857
3.08943e-06
0.00148514
2.81831e-06
0.0014846
2.57e-06
0.00148408
2.34165e-06
0.0014836
2.13061e-06
0.00148313
1.93487e-06
0.0014827
1.75253e-06
0.00148228
1.58224e-06
0.00148189
1.42263e-06
0.00148152
1.2728e-06
0.00148117
1.13186e-06
0.00148084
9.99226e-07
0.00148053
8.74562e-07
0.00148024
7.57363e-07
0.00147997
6.4692e-07
0.00147971
5.43332e-07
0.00147948
4.46191e-07
0.00147926
3.55138e-07
0.00147906
2.69575e-07
0.00147887
1.89073e-07
0.0014787
1.13105e-07
0.00147854
4.13722e-08
0.0014784
-2.65952e-08
0.00147826
-9.11722e-08
0.00147814
-1.52874e-07
0.00147804
-2.1196e-07
0.00147794
-2.68759e-07
0.00147785
-3.23407e-07
0.00147777
-3.76147e-07
0.0014777
-4.27052e-07
0.00147765
-4.76295e-07
0.0014776
-5.239e-07
0.00147755
-5.6999e-07
0.00147752
-6.1454e-07
0.0014775
-6.57693e-07
0.00147748
-6.99551e-07
0.00147747
-7.40312e-07
0.00147746
-7.8002e-07
0.00147747
-8.18808e-07
0.00147748
-8.56683e-07
0.0014775
-8.93733e-07
0.00147752
-9.29929e-07
0.00147755
-9.65342e-07
0.00147759
-9.99946e-07
0.00147763
-1.03381e-06
0.00147768
-1.06688e-06
0.00147773
-1.09914e-06
0.00147779
-1.13055e-06
0.00147786
-1.16124e-06
0.00147793
-1.19119e-06
0.001478
-1.22042e-06
0.00147809
-1.24885e-06
0.00147817
-1.27646e-06
0.00147826
-1.30307e-06
0.00147836
-1.32853e-06
0.00147846
-1.35236e-06
0.00147857
-1.37437e-06
0.00147868
-1.3929e-06
0.0014788
-1.40896e-06
0.00147893
-1.42416e-06
0.00147907
-1.43657e-06
0.00147923
-1.44535e-06
0.00147939
-1.45127e-06
0.00147957
-1.45563e-06
0.00147977
-1.45968e-06
0.00147997
-1.46456e-06
0.00148018
-1.4713e-06
0.00148041
-1.48047e-06
0.00148064
-1.49236e-06
0.00148088
-1.50694e-06
0.00148113
-1.52414e-06
0.00148138
-1.54373e-06
0.00148165
-1.56549e-06
0.00148192
-1.58909e-06
0.00148219
-1.61422e-06
0.00148247
-1.64046e-06
0.00148276
-1.66743e-06
0.00148305
-1.69467e-06
0.00148335
-1.72164e-06
0.00148366
-1.74725e-06
0.00148397
-1.77079e-06
0.00148429
-1.79002e-06
0.00148462
-1.80514e-06
0.00148496
-1.83051e-06
0.0014853
-1.87029e-06
0.00148563
-1.91196e-06
0.00148597
-1.94839e-06
0.00148631
-1.97729e-06
0.00148666
-2.00031e-06
0.00148702
-2.01967e-06
0.00148738
-2.03647e-06
0.00148774
-2.05075e-06
0.0014881
-2.06216e-06
0.00148847
-2.07029e-06
0.00148884
-2.07487e-06
0.00148921
-2.07572e-06
0.00148958
-2.07278e-06
0.00148995
-2.06601e-06
0.00149032
-2.05539e-06
0.00149069
-2.04096e-06
0.00149105
-2.02278e-06
0.00149142
-2.00081e-06
0.00149178
-1.975e-06
0.00149213
-1.94524e-06
0.00149248
-1.91144e-06
0.00149282
-1.87351e-06
0.00149316
-1.83138e-06
0.00149348
-1.78501e-06
0.0014938
-1.73439e-06
0.0014941
-1.67952e-06
0.00149439
-1.62042e-06
0.00149467
-1.55713e-06
0.00149493
-1.48989e-06
0.00149518
-1.41874e-06
0.00149541
-1.34344e-06
0.00149562
-1.26477e-06
0.00149581
-1.18028e-06
0.00149598
-1.08855e-06
0.00149613
-9.95697e-07
0.00149625
-9.07903e-07
0.00149635
-8.23476e-07
0.00149642
-7.35877e-07
0.00149648
-6.43088e-07
0.00149651
-5.47194e-07
0.00149652
-4.50735e-07
0.0014965
-3.55232e-07
0.00149645
-2.61416e-07
0.00149638
-1.69596e-07
0.00149628
-8.00187e-08
0.00149616
7.10394e-09
0.00149601
9.14295e-08
0.00149583
1.72649e-07
0.00149563
2.50565e-07
0.0014954
3.25209e-07
0.00149515
3.96773e-07
0.00149487
4.65792e-07
0.00149458
5.33175e-07
0.00149426
6.00431e-07
0.00149392
6.69634e-07
0.00149356
7.43604e-07
0.00149318
8.25834e-07
0.00149278
9.20603e-07
0.00149236
1.03294e-06
0.00149191
1.16909e-06
0.00149144
1.33717e-06
0.00149095
1.54493e-06
0.00149043
1.80336e-06
0.00148988
2.12441e-06
0.00148929
2.50041e-06
0.00148862
2.93321e-06
0.00148787
3.45215e-06
0.00148705
4.08335e-06
0.00148612
4.84291e-06
0.00148508
5.74065e-06
0.00148389
6.78492e-06
0.00148253
7.98445e-06
0.00148095
9.34745e-06
0.00147913
1.08798e-05
0.00147701
1.25833e-05
0.00147456
1.44544e-05
0.0014717
1.64811e-05
0.00146838
1.86445e-05
0.00146453
2.09279e-05
0.00146008
2.32857e-05
0.00145491
2.56411e-05
0.0014489
2.79402e-05
0.00144191
3.01507e-05
0.00143375
3.22454e-05
0.00142412
3.42314e-05
0.00141264
3.62098e-05
0.00139885
3.84132e-05
0.00138221
4.11947e-05
0.00136218
4.49943e-05
0.00133825
5.02463e-05
0.00130997
5.73373e-05
0.00127707
6.67256e-05
0.00123939
7.88293e-05
0.00119673
9.37814e-05
0.001149
0.000111417
0.00109624
0.000131321
0.0010388
0.000152935
0.000977371
0.00017566
0.00091276
0.000198791
0.000845808
0.000221434
0.000777314
0.000242485
0.000708031
0.000260685
0.000638677
0.00027474
0.000569954
0.000283477
0.000502542
0.000286006
0.000437094
0.000281859
0.000374225
0.000271075
0.000314514
0.00025424
0.000258497
0.000232457
0.000206652
0.000207311
0.000181162
0.000159437
0.00152548
-0.000768198
0.00144977
-0.000614137
0.00144521
-0.000397028
0.0014721
-0.000213216
0.00150245
-8.73383e-05
0.00152552
-1.17187e-05
0.00153994
2.96646e-05
0.00154744
5.01228e-05
0.00155016
5.85064e-05
0.00154986
6.02507e-05
0.00154778
5.85168e-05
0.00154477
5.51194e-05
0.00154134
5.10533e-05
0.00153784
4.6883e-05
0.00153446
4.28887e-05
0.0015313
3.92266e-05
0.00152841
3.59441e-05
0.00152583
3.30658e-05
0.00152354
3.05664e-05
0.00152154
2.84315e-05
0.0015198
2.66176e-05
0.0015183
2.51022e-05
0.00151702
2.38415e-05
0.00151593
2.28154e-05
0.001515
2.19851e-05
0.00151422
2.13347e-05
0.00151357
2.08312e-05
0.00151303
2.04628e-05
0.00151257
2.02033e-05
0.0015122
2.00468e-05
0.00151189
1.99691e-05
0.00151163
1.99637e-05
0.00151142
2.00101e-05
0.00151124
2.0105e-05
0.00151108
2.02322e-05
0.00151095
2.03905e-05
0.00151082
2.05671e-05
0.0015107
2.07624e-05
0.00151059
2.09659e-05
0.00151047
2.11794e-05
0.00151035
2.13941e-05
0.00151023
2.16127e-05
0.0015101
2.18279e-05
0.00150997
2.20427e-05
0.00150983
2.2251e-05
0.00150968
2.24568e-05
0.00150952
2.26562e-05
0.00150936
2.28523e-05
0.0015092
2.30378e-05
0.00150903
2.32132e-05
0.00150887
2.33724e-05
0.00150872