/*--------------------------------*- C++ -*----------------------------------*\
  =========                 |
  \\      /  F ield         | OpenFOAM: The Open Source CFD Toolbox
   \\    /   O peration     | Website:  https://openfoam.org
    \\  /    A nd           | Version:  8
     \\/     M anipulation  |
\*---------------------------------------------------------------------------*/
FoamFile
{
    version     2.0;
    format      ascii;
    class       volScalarField;
    location    "3.2";
    object      nut;
}
// * * * * * * * * * * * * * * * * * * * * * * * * * * * * * * * * * * * * * //

dimensions      [0 2 -1 0 0 0 0];

internalField   nonuniform List<scalar> 
248760
(
0.139974
0.139922
0.139869
0.139817
0.139764
0.139711
0.139658
0.139605
0.139552
0.139499
0.139446
0.139393
0.13934
0.139288
0.139235
0.139183
0.139131
0.139079
0.139027
0.138976
0.138925
0.138874
0.138823
0.138773
0.138723
0.138673
0.138623
0.138574
0.138526
0.138477
0.13843
0.138382
0.138335
0.138288
0.138242
0.138196
0.138151
0.138106
0.138062
0.138018
0.137974
0.137931
0.137889
0.137847
0.137805
0.137764
0.137723
0.137683
0.137644
0.137605
0.137566
0.137528
0.13749
0.137453
0.137416
0.13738
0.137345
0.137309
0.137275
0.13724
0.137207
0.137174
0.137141
0.137108
0.137077
0.137045
0.137014
0.136984
0.136954
0.136924
0.136895
0.136867
0.136839
0.136811
0.136784
0.136757
0.13673
0.136704
0.136679
0.136653
0.136628
0.136604
0.13658
0.136556
0.136533
0.13651
0.136488
0.136466
0.136444
0.136422
0.136401
0.136381
0.13636
0.13634
0.136321
0.136301
0.136282
0.136264
0.136245
0.136227
0.13621
0.136193
0.136176
0.13616
0.136144
0.136129
0.136114
0.136101
0.136088
0.136077
0.136068
0.13606
0.136055
0.136053
0.136055
0.136063
0.136076
0.136097
0.136128
0.136172
0.139974
0.139922
0.139869
0.139816
0.139763
0.13971
0.139657
0.139604
0.139551
0.139498
0.139445
0.139392
0.13934
0.139287
0.139234
0.139182
0.13913
0.139078
0.139026
0.138974
0.138923
0.138872
0.138821
0.138771
0.138721
0.138671
0.138621
0.138572
0.138524
0.138475
0.138427
0.13838
0.138333
0.138286
0.13824
0.138194
0.138148
0.138103
0.138059
0.138015
0.137971
0.137928
0.137885
0.137843
0.137802
0.13776
0.13772
0.137679
0.13764
0.137601
0.137562
0.137524
0.137486
0.137449
0.137412
0.137376
0.13734
0.137305
0.13727
0.137236
0.137202
0.137168
0.137136
0.137103
0.137071
0.13704
0.137009
0.136978
0.136948
0.136919
0.13689
0.136861
0.136833
0.136805
0.136777
0.13675
0.136724
0.136698
0.136672
0.136647
0.136622
0.136597
0.136573
0.13655
0.136526
0.136503
0.136481
0.136458
0.136437
0.136415
0.136394
0.136373
0.136353
0.136333
0.136313
0.136294
0.136275
0.136256
0.136237
0.136219
0.136202
0.136185
0.136168
0.136152
0.136136
0.136121
0.136106
0.136093
0.13608
0.136069
0.136059
0.136052
0.136047
0.136045
0.136047
0.136054
0.136068
0.136089
0.136121
0.136164
0.139974
0.139921
0.139869
0.139816
0.139763
0.13971
0.139657
0.139603
0.13955
0.139497
0.139444
0.139391
0.139338
0.139285
0.139233
0.13918
0.139128
0.139076
0.139024
0.138972
0.13892
0.138869
0.138818
0.138768
0.138717
0.138668
0.138618
0.138569
0.13852
0.138471
0.138423
0.138375
0.138328
0.138281
0.138235
0.138189
0.138143
0.138098
0.138053
0.138009
0.137965
0.137922
0.137879
0.137837
0.137795
0.137753
0.137713
0.137672
0.137632
0.137593
0.137554
0.137516
0.137478
0.13744
0.137403
0.137367
0.137331
0.137296
0.137261
0.137226
0.137192
0.137159
0.137126
0.137093
0.137061
0.13703
0.136998
0.136968
0.136938
0.136908
0.136879
0.13685
0.136821
0.136793
0.136766
0.136739
0.136712
0.136686
0.13666
0.136634
0.136609
0.136585
0.136561
0.136537
0.136513
0.13649
0.136467
0.136445
0.136423
0.136402
0.13638
0.136359
0.136339
0.136319
0.136299
0.136279
0.13626
0.136241
0.136223
0.136205
0.136187
0.13617
0.136153
0.136137
0.136121
0.136105
0.136091
0.136077
0.136065
0.136053
0.136044
0.136036
0.136031
0.136029
0.136032
0.136039
0.136053
0.136074
0.136106
0.136149
0.139974
0.139921
0.139868
0.139815
0.139762
0.139709
0.139655
0.139602
0.139549
0.139495
0.139442
0.139389
0.139336
0.139283
0.13923
0.139177
0.139125
0.139072
0.13902
0.138968
0.138917
0.138865
0.138814
0.138763
0.138713
0.138663
0.138613
0.138563
0.138514
0.138466
0.138417
0.138369
0.138322
0.138274
0.138228
0.138181
0.138136
0.13809
0.138045
0.138001
0.137957
0.137913
0.13787
0.137828
0.137786
0.137744
0.137703
0.137662
0.137622
0.137582
0.137543
0.137505
0.137466
0.137429
0.137392
0.137355
0.137319
0.137283
0.137248
0.137213
0.137179
0.137145
0.137112
0.137079
0.137047
0.137015
0.136984
0.136953
0.136922
0.136893
0.136863
0.136834
0.136805
0.136777
0.136749
0.136722
0.136695
0.136669
0.136643
0.136617
0.136592
0.136567
0.136543
0.136519
0.136495
0.136472
0.136449
0.136426
0.136404
0.136382
0.136361
0.13634
0.136319
0.136299
0.136279
0.136259
0.13624
0.136221
0.136202
0.136184
0.136166
0.136149
0.136132
0.136115
0.136099
0.136084
0.136069
0.136056
0.136043
0.136032
0.136022
0.136014
0.136009
0.136007
0.13601
0.136017
0.136031
0.136053
0.136084
0.136128
0.139974
0.139921
0.139868
0.139814
0.139761
0.139707
0.139654
0.1396
0.139547
0.139493
0.13944
0.139387
0.139333
0.13928
0.139227
0.139174
0.139121
0.139069
0.139016
0.138964
0.138912
0.138861
0.138809
0.138758
0.138707
0.138657
0.138607
0.138557
0.138508
0.138458
0.13841
0.138362
0.138314
0.138266
0.138219
0.138173
0.138126
0.138081
0.138035
0.137991
0.137946
0.137903
0.137859
0.137816
0.137774
0.137732
0.13769
0.13765
0.137609
0.137569
0.13753
0.137491
0.137452
0.137414
0.137377
0.13734
0.137303
0.137267
0.137232
0.137197
0.137162
0.137128
0.137095
0.137062
0.137029
0.136997
0.136965
0.136934
0.136904
0.136873
0.136844
0.136814
0.136785
0.136757
0.136729
0.136701
0.136674
0.136648
0.136621
0.136595
0.13657
0.136545
0.13652
0.136496
0.136472
0.136449
0.136425
0.136403
0.13638
0.136358
0.136337
0.136316
0.136295
0.136274
0.136254
0.136234
0.136215
0.136195
0.136177
0.136158
0.13614
0.136123
0.136105
0.136089
0.136072
0.136057
0.136042
0.136028
0.136016
0.136004
0.135994
0.135987
0.135981
0.13598
0.135982
0.135989
0.136003
0.136025
0.136057
0.136102
0.139973
0.13992
0.139867
0.139813
0.13976
0.139706
0.139652
0.139599
0.139545
0.139491
0.139437
0.139384
0.13933
0.139277
0.139223
0.13917
0.139117
0.139064
0.139011
0.138959
0.138907
0.138855
0.138803
0.138752
0.138701
0.13865
0.138599
0.138549
0.1385
0.13845
0.138401
0.138353
0.138304
0.138257
0.138209
0.138162
0.138116
0.13807
0.138024
0.137979
0.137934
0.13789
0.137846
0.137803
0.13776
0.137718
0.137676
0.137635
0.137594
0.137554
0.137514
0.137474
0.137436
0.137397
0.137359
0.137322
0.137285
0.137249
0.137213
0.137178
0.137143
0.137109
0.137075
0.137041
0.137008
0.136976
0.136944
0.136912
0.136881
0.136851
0.136821
0.136791
0.136762
0.136733
0.136705
0.136677
0.13665
0.136623
0.136596
0.13657
0.136544
0.136519
0.136494
0.136469
0.136445
0.136421
0.136398
0.136375
0.136352
0.13633
0.136308
0.136287
0.136266
0.136245
0.136224
0.136204
0.136185
0.136165
0.136146
0.136128
0.136109
0.136091
0.136074
0.136057
0.136041
0.136025
0.13601
0.135996
0.135983
0.135972
0.135962
0.135954
0.135949
0.135947
0.135949
0.135957
0.135971
0.135993
0.136026
0.136071
0.139973
0.13992
0.139866
0.139812
0.139759
0.139705
0.139651
0.139597
0.139543
0.139489
0.139435
0.139381
0.139327
0.139273
0.139219
0.139166
0.139112
0.139059
0.139006
0.138953
0.138901
0.138849
0.138797
0.138745
0.138693
0.138642
0.138591
0.138541
0.138491
0.138441
0.138391
0.138342
0.138294
0.138246
0.138198
0.13815
0.138104
0.138057
0.138011
0.137965
0.13792
0.137876
0.137832
0.137788
0.137745
0.137702
0.13766
0.137618
0.137577
0.137536
0.137496
0.137456
0.137417
0.137378
0.13734
0.137302
0.137265
0.137228
0.137192
0.137156
0.137121
0.137086
0.137052
0.137018
0.136985
0.136952
0.13692
0.136888
0.136856
0.136825
0.136795
0.136765
0.136735
0.136706
0.136677
0.136649
0.136621
0.136594
0.136567
0.136541
0.136515
0.136489
0.136464
0.136439
0.136414
0.13639
0.136367
0.136343
0.136321
0.136298
0.136276
0.136254
0.136233
0.136212
0.136191
0.13617
0.13615
0.136131
0.136112
0.136093
0.136074
0.136056
0.136039
0.136021
0.136005
0.135989
0.135974
0.13596
0.135946
0.135935
0.135925
0.135917
0.135912
0.13591
0.135912
0.13592
0.135934
0.135957
0.13599
0.136035
0.139973
0.139919
0.139865
0.139811
0.139757
0.139703
0.139649
0.139594
0.13954
0.139486
0.139431
0.139377
0.139323
0.139269
0.139215
0.139161
0.139107
0.139054
0.139
0.138947
0.138894
0.138842
0.138789
0.138737
0.138685
0.138634
0.138582
0.138531
0.138481
0.138431
0.138381
0.138331
0.138282
0.138234
0.138185
0.138138
0.13809
0.138043
0.137997
0.137951
0.137905
0.13786
0.137815
0.137771
0.137728
0.137684
0.137642
0.1376
0.137558
0.137517
0.137476
0.137436
0.137396
0.137357
0.137318
0.13728
0.137242
0.137205
0.137168
0.137132
0.137096
0.137061
0.137027
0.136992
0.136959
0.136925
0.136893
0.13686
0.136828
0.136797
0.136766
0.136736
0.136706
0.136676
0.136647
0.136619
0.136591
0.136563
0.136536
0.136509
0.136482
0.136456
0.136431
0.136405
0.136381
0.136356
0.136332
0.136309
0.136285
0.136262
0.13624
0.136218
0.136196
0.136175
0.136154
0.136133
0.136113
0.136093
0.136073
0.136054
0.136035
0.136017
0.135999
0.135982
0.135965
0.135949
0.135934
0.135919
0.135906
0.135894
0.135884
0.135876
0.13587
0.135868
0.135871
0.135879
0.135893
0.135916
0.13595
0.135996
0.139973
0.139919
0.139865
0.13981
0.139756
0.139701
0.139647
0.139592
0.139538
0.139483
0.139428
0.139374
0.139319
0.139265
0.13921
0.139156
0.139102
0.139048
0.138994
0.138941
0.138887
0.138834
0.138781
0.138729
0.138677
0.138625
0.138573
0.138521
0.13847
0.13842
0.138369
0.13832
0.13827
0.138221
0.138172
0.138124
0.138076
0.138029
0.137982
0.137935
0.137889
0.137843
0.137798
0.137754
0.137709
0.137666
0.137622
0.13758
0.137538
0.137496
0.137455
0.137414
0.137374
0.137334
0.137295
0.137256
0.137218
0.13718
0.137143
0.137106
0.13707
0.137034
0.136999
0.136965
0.13693
0.136897
0.136863
0.136831
0.136798
0.136767
0.136735
0.136704
0.136674
0.136644
0.136615
0.136586
0.136557
0.136529
0.136501
0.136474
0.136447
0.136421
0.136395
0.136369
0.136344
0.136319
0.136295
0.136271
0.136247
0.136224
0.136201
0.136179
0.136157
0.136135
0.136114
0.136093
0.136072
0.136052
0.136032
0.136012
0.135993
0.135975
0.135957
0.135939
0.135922
0.135905
0.13589
0.135875
0.135862
0.13585
0.135839
0.135831
0.135826
0.135824
0.135826
0.135834
0.135849
0.135872
0.135907
0.135954
0.139973
0.139919
0.139864
0.139809
0.139755
0.1397
0.139645
0.13959
0.139535
0.13948
0.139425
0.13937
0.139315
0.13926
0.139205
0.139151
0.139096
0.139042
0.138988
0.138934
0.13888
0.138826
0.138773
0.13872
0.138667
0.138615
0.138563
0.138511
0.138459
0.138408
0.138357
0.138307
0.138257
0.138207
0.138158
0.138109
0.138061
0.138013
0.137965
0.137918
0.137872
0.137825
0.13778
0.137735
0.13769
0.137646
0.137602
0.137559
0.137516
0.137474
0.137432
0.137391
0.13735
0.13731
0.13727
0.137231
0.137192
0.137154
0.137116
0.137079
0.137042
0.137006
0.13697
0.136935
0.1369
0.136866
0.136832
0.136799
0.136766
0.136734
0.136702
0.136671
0.13664
0.13661
0.13658
0.13655
0.136521
0.136493
0.136464
0.136437
0.13641
0.136383
0.136356
0.13633
0.136305
0.136279
0.136255
0.13623
0.136206
0.136183
0.13616
0.136137
0.136114
0.136092
0.13607
0.136049
0.136028
0.136008
0.135987
0.135968
0.135948
0.135929
0.135911
0.135893
0.135876
0.135859
0.135843
0.135828
0.135814
0.135802
0.135792
0.135783
0.135778
0.135776
0.135778
0.135787
0.135802
0.135826
0.13586
0.135909
0.139973
0.139918
0.139863
0.139808
0.139753
0.139698
0.139643
0.139587
0.139532
0.139477
0.139421
0.139366
0.139311
0.139255
0.1392
0.139145
0.13909
0.139036
0.138981
0.138927
0.138872
0.138818
0.138765
0.138711
0.138658
0.138605
0.138552
0.1385
0.138448
0.138396
0.138345
0.138294
0.138243
0.138193
0.138143
0.138094
0.138045
0.137996
0.137948
0.137901
0.137853
0.137807
0.13776
0.137715
0.137669
0.137624
0.13758
0.137536
0.137493
0.13745
0.137408
0.137366
0.137325
0.137284
0.137244
0.137204
0.137165
0.137126
0.137088
0.13705
0.137013
0.136976
0.13694
0.136904
0.136869
0.136834
0.1368
0.136766
0.136732
0.1367
0.136667
0.136636
0.136604
0.136573
0.136543
0.136513
0.136483
0.136454
0.136426
0.136398
0.13637
0.136342
0.136316
0.136289
0.136263
0.136238
0.136212
0.136187
0.136163
0.136139
0.136115
0.136092
0.136069
0.136047
0.136025
0.136003
0.135982
0.135961
0.13594
0.13592
0.1359
0.135881
0.135862
0.135844
0.135826
0.13581
0.135793
0.135778
0.135764
0.135752
0.135741
0.135733
0.135727
0.135725
0.135728
0.135736
0.135752
0.135776
0.135811
0.135861
0.139973
0.139918
0.139862
0.139807
0.139752
0.139696
0.139641
0.139585
0.139529
0.139473
0.139418
0.139362
0.139306
0.139251
0.139195
0.13914
0.139084
0.139029
0.138974
0.138919
0.138864
0.13881
0.138756
0.138702
0.138648
0.138594
0.138541
0.138488
0.138436
0.138383
0.138331
0.13828
0.138229
0.138178
0.138128
0.138078
0.138028
0.137979
0.13793
0.137882
0.137834
0.137787
0.13774
0.137694
0.137648
0.137602
0.137558
0.137513
0.137469
0.137426
0.137383
0.13734
0.137298
0.137257
0.137216
0.137176
0.137136
0.137097
0.137058
0.137019
0.136982
0.136944
0.136907
0.136871
0.136835
0.1368
0.136765
0.136731
0.136697
0.136664
0.136631
0.136598
0.136567
0.136535
0.136504
0.136474
0.136444
0.136414
0.136385
0.136356
0.136328
0.1363
0.136273
0.136246
0.13622
0.136193
0.136168
0.136143
0.136118
0.136093
0.136069
0.136046
0.136022
0.135999
0.135977
0.135955
0.135933
0.135912
0.135891
0.13587
0.13585
0.135831
0.135812
0.135793
0.135775
0.135758
0.135741
0.135726
0.135712
0.135699
0.135688
0.135679
0.135674
0.135672
0.135675
0.135683
0.135699
0.135724
0.13576
0.13581
0.139972
0.139917
0.139862
0.139806
0.13975
0.139694
0.139638
0.139582
0.139526
0.13947
0.139414
0.139358
0.139302
0.139246
0.13919
0.139134
0.139078
0.139022
0.138967
0.138911
0.138856
0.138801
0.138746
0.138692
0.138637
0.138583
0.13853
0.138476
0.138423
0.13837
0.138318
0.138266
0.138214
0.138163
0.138112
0.138061
0.138011
0.137961
0.137912
0.137863
0.137815
0.137767
0.137719
0.137672
0.137626
0.13758
0.137534
0.137489
0.137444
0.1374
0.137357
0.137314
0.137271
0.137229
0.137188
0.137147
0.137106
0.137066
0.137027
0.136988
0.136949
0.136911
0.136874
0.136837
0.136801
0.136765
0.136729
0.136694
0.13666
0.136626
0.136593
0.13656
0.136527
0.136495
0.136464
0.136433
0.136402
0.136372
0.136343
0.136313
0.136285
0.136256
0.136229
0.136201
0.136174
0.136148
0.136121
0.136096
0.13607
0.136046
0.136021
0.135997
0.135973
0.13595
0.135927
0.135904
0.135882
0.135861
0.135839
0.135818
0.135798
0.135778
0.135758
0.135739
0.135721
0.135704
0.135687
0.135671
0.135657
0.135644
0.135632
0.135624
0.135618
0.135616
0.135619
0.135628
0.135644
0.135669
0.135706
0.135758
0.139972
0.139917
0.139861
0.139805
0.139749
0.139693
0.139636
0.13958
0.139523
0.139467
0.13941
0.139354
0.139297
0.139241
0.139184
0.139128
0.139072
0.139015
0.138959
0.138903
0.138848
0.138792
0.138737
0.138682
0.138627
0.138572
0.138518
0.138464
0.13841
0.138357
0.138304
0.138251
0.138199
0.138147
0.138095
0.138044
0.137993
0.137943
0.137893
0.137843
0.137794
0.137746
0.137698
0.13765
0.137603
0.137556
0.13751
0.137464
0.137419
0.137374
0.13733
0.137286
0.137243
0.1372
0.137158
0.137117
0.137075
0.137035
0.136995
0.136955
0.136916
0.136877
0.136839
0.136802
0.136765
0.136728
0.136692
0.136657
0.136622
0.136587
0.136553
0.13652
0.136487
0.136454
0.136422
0.136391
0.136359
0.136329
0.136299
0.136269
0.13624
0.136211
0.136182
0.136155
0.136127
0.1361
0.136073
0.136047
0.136021
0.135996
0.135971
0.135946
0.135922
0.135899
0.135875
0.135852
0.13583
0.135808
0.135786
0.135764
0.135744
0.135723
0.135703
0.135684
0.135665
0.135647
0.13563
0.135614
0.135599
0.135586
0.135575
0.135566
0.13556
0.135558
0.135561
0.13557
0.135587
0.135613
0.135651
0.135703
0.139972
0.139916
0.13986
0.139804
0.139747
0.139691
0.139634
0.139577
0.13952
0.139463
0.139407
0.13935
0.139293
0.139236
0.139179
0.139122
0.139065
0.139008
0.138952
0.138895
0.138839
0.138783
0.138727
0.138672
0.138616
0.138561
0.138506
0.138451
0.138397
0.138343
0.138289
0.138236
0.138183
0.13813
0.138078
0.138026
0.137975
0.137924
0.137873
0.137823
0.137773
0.137724
0.137675
0.137627
0.137579
0.137532
0.137485
0.137439
0.137393
0.137347
0.137302
0.137258
0.137214
0.137171
0.137128
0.137086
0.137044
0.137002
0.136962
0.136921
0.136882
0.136842
0.136804
0.136766
0.136728
0.136691
0.136654
0.136618
0.136582
0.136547
0.136513
0.136478
0.136445
0.136412
0.136379
0.136347
0.136315
0.136284
0.136253
0.136223
0.136193
0.136164
0.136135
0.136106
0.136078
0.136051
0.136024
0.135997
0.135971
0.135945
0.135919
0.135894
0.13587
0.135845
0.135822
0.135798
0.135775
0.135753
0.13573
0.135709
0.135687
0.135667
0.135646
0.135627
0.135608
0.135589
0.135572
0.135555
0.13554
0.135527
0.135515
0.135506
0.135501
0.135499
0.135502
0.135511
0.135528
0.135554
0.135593
0.135647
0.139972
0.139916
0.139859
0.139803
0.139746
0.139689
0.139632
0.139575
0.139517
0.13946
0.139403
0.139345
0.139288
0.13923
0.139173
0.139116
0.139058
0.139001
0.138944
0.138887
0.13883
0.138774
0.138717
0.138661
0.138605
0.138549
0.138494
0.138439
0.138384
0.138329
0.138275
0.138221
0.138167
0.138114
0.138061
0.138008
0.137956
0.137905
0.137853
0.137803
0.137752
0.137702
0.137653
0.137604
0.137555
0.137507
0.137459
0.137412
0.137366
0.13732
0.137274
0.137229
0.137184
0.13714
0.137097
0.137054
0.137011
0.136969
0.136928
0.136887
0.136846
0.136807
0.136767
0.136728
0.13669
0.136652
0.136615
0.136578
0.136542
0.136506
0.136471
0.136436
0.136402
0.136368
0.136335
0.136302
0.13627
0.136238
0.136207
0.136176
0.136145
0.136115
0.136086
0.136057
0.136028
0.136
0.135972
0.135945
0.135918
0.135892
0.135866
0.135841
0.135815
0.135791
0.135766
0.135743
0.135719
0.135696
0.135673
0.135651
0.135629
0.135608
0.135588
0.135567
0.135548
0.135529
0.135512
0.135495
0.13548
0.135466
0.135454
0.135445
0.135439
0.135437
0.13544
0.13545
0.135467
0.135494
0.135534
0.135588
0.139972
0.139915
0.139859
0.139802
0.139744
0.139687
0.13963
0.139572
0.139514
0.139457
0.139399
0.139341
0.139283
0.139225
0.139167
0.139109
0.139052
0.138994
0.138936
0.138879
0.138822
0.138764
0.138707
0.138651
0.138594
0.138538
0.138482
0.138426
0.13837
0.138315
0.13826
0.138205
0.138151
0.138097
0.138043
0.13799
0.137937
0.137885
0.137833
0.137781
0.13773
0.13768
0.13763
0.13758
0.13753
0.137482
0.137433
0.137386
0.137338
0.137291
0.137245
0.137199
0.137154
0.137109
0.137065
0.137021
0.136978
0.136935
0.136893
0.136851
0.13681
0.13677
0.13673
0.13669
0.136651
0.136613
0.136575
0.136537
0.1365
0.136464
0.136428
0.136393
0.136358
0.136323
0.136289
0.136256
0.136223
0.136191
0.136159
0.136127
0.136096
0.136066
0.136036
0.136006
0.135977
0.135948
0.13592
0.135892
0.135865
0.135838
0.135811
0.135785
0.13576
0.135735
0.13571
0.135685
0.135661
0.135638
0.135615
0.135592
0.13557
0.135548
0.135527
0.135507
0.135487
0.135468
0.13545
0.135433
0.135417
0.135403
0.135391
0.135382
0.135376
0.135374
0.135377
0.135387
0.135404
0.135432
0.135473
0.135529
0.139972
0.139915
0.139858
0.1398
0.139743
0.139685
0.139627
0.139569
0.139511
0.139453
0.139395
0.139337
0.139278
0.13922
0.139162
0.139103
0.139045
0.138987
0.138929
0.138871
0.138813
0.138755
0.138697
0.13864
0.138583
0.138526
0.138469
0.138412
0.138356
0.1383
0.138245
0.138189
0.138134
0.13808
0.138026
0.137972
0.137918
0.137865
0.137812
0.13776
0.137708
0.137657
0.137606
0.137555
0.137505
0.137456
0.137407
0.137358
0.13731
0.137263
0.137216
0.137169
0.137123
0.137078
0.137033
0.136988
0.136944
0.136901
0.136858
0.136815
0.136774
0.136732
0.136691
0.136651
0.136612
0.136572
0.136534
0.136495
0.136458
0.136421
0.136384
0.136348
0.136313
0.136277
0.136243
0.136209
0.136175
0.136142
0.13611
0.136078
0.136046
0.136015
0.135984
0.135954
0.135924
0.135895
0.135866
0.135838
0.13581
0.135782
0.135755
0.135729
0.135703
0.135677
0.135652
0.135627
0.135602
0.135578
0.135555
0.135532
0.135509
0.135487
0.135465
0.135445
0.135424
0.135405
0.135386
0.135369
0.135353
0.135339
0.135327
0.135317
0.135311
0.135309
0.135312
0.135322
0.13534
0.135369
0.13541
0.135468
0.139972
0.139914
0.139857
0.139799
0.139741
0.139683
0.139625
0.139567
0.139508
0.13945
0.139391
0.139332
0.139273
0.139215
0.139156
0.139097
0.139038
0.138979
0.138921
0.138862
0.138804
0.138745
0.138687
0.138629
0.138571
0.138514
0.138456
0.138399
0.138342
0.138286
0.138229
0.138173
0.138118
0.138062
0.138007
0.137953
0.137899
0.137845
0.137791
0.137738
0.137686
0.137634
0.137582
0.137531
0.13748
0.13743
0.13738
0.137331
0.137282
0.137233
0.137186
0.137138
0.137092
0.137045
0.136999
0.136954
0.13691
0.136865
0.136822
0.136779
0.136736
0.136694
0.136652
0.136611
0.136571
0.136531
0.136492
0.136453
0.136415
0.136377
0.136339
0.136303
0.136266
0.136231
0.136195
0.136161
0.136127
0.136093
0.13606
0.136027
0.135995
0.135963
0.135932
0.135901
0.135871
0.135841
0.135811
0.135782
0.135754
0.135726
0.135698
0.135671
0.135644
0.135618
0.135592
0.135567
0.135542
0.135517
0.135493
0.13547
0.135447
0.135424
0.135402
0.135381
0.13536
0.13534
0.135322
0.135304
0.135288
0.135273
0.135261
0.135251
0.135245
0.135243
0.135246
0.135256
0.135275
0.135304
0.135347
0.135405
0.139971
0.139914
0.139856
0.139798
0.13974
0.139682
0.139623
0.139564
0.139505
0.139446
0.139387
0.139328
0.139269
0.139209
0.13915
0.139091
0.139031
0.138972
0.138913
0.138854
0.138795
0.138736
0.138677
0.138618
0.13856
0.138502
0.138443
0.138386
0.138328
0.138271
0.138214
0.138157
0.138101
0.138045
0.137989
0.137934
0.137879
0.137824
0.13777
0.137716
0.137663
0.13761
0.137558
0.137506
0.137454
0.137403
0.137353
0.137302
0.137253
0.137204
0.137155
0.137107
0.137059
0.137012
0.136966
0.13692
0.136874
0.136829
0.136785
0.136741
0.136698
0.136655
0.136613
0.136571
0.13653
0.136489
0.136449
0.13641
0.13637
0.136332
0.136294
0.136256
0.136219
0.136183
0.136147
0.136112
0.136077
0.136042
0.136009
0.135975
0.135942
0.13591
0.135878
0.135847
0.135816
0.135785
0.135755
0.135726
0.135697
0.135668
0.13564
0.135612
0.135585
0.135558
0.135532
0.135506
0.13548
0.135455
0.135431
0.135407
0.135383
0.13536
0.135338
0.135316
0.135295
0.135275
0.135255
0.135237
0.135221
0.135206
0.135193
0.135183
0.135177
0.135175
0.135179
0.135189
0.135208
0.135238
0.135282
0.135342
0.139971
0.139913
0.139855
0.139797
0.139739
0.13968
0.139621
0.139562
0.139502
0.139443
0.139383
0.139324
0.139264
0.139204
0.139144
0.139084
0.139024
0.138965
0.138905
0.138845
0.138785
0.138726
0.138666
0.138607
0.138548
0.138489
0.138431
0.138372
0.138314
0.138256
0.138198
0.138141
0.138084
0.138027
0.137971
0.137914
0.137859
0.137803
0.137749
0.137694
0.13764
0.137586
0.137533
0.13748
0.137428
0.137376
0.137325
0.137274
0.137223
0.137174
0.137124
0.137075
0.137027
0.136979
0.136932
0.136885
0.136839
0.136793
0.136748
0.136703
0.136659
0.136615
0.136572
0.13653
0.136488
0.136447
0.136406
0.136365
0.136326
0.136286
0.136248
0.136209
0.136172
0.136135
0.136098
0.136062
0.136026
0.135991
0.135957
0.135923
0.135889
0.135856
0.135823
0.135791
0.13576
0.135729
0.135698
0.135668
0.135638
0.135609
0.13558
0.135552
0.135524
0.135497
0.13547
0.135443
0.135417
0.135392
0.135367
0.135342
0.135318
0.135295
0.135272
0.13525
0.135228
0.135207
0.135188
0.135169
0.135153
0.135137
0.135125
0.135115
0.135108
0.135106
0.13511
0.135121
0.13514
0.135171
0.135216
0.135277
0.139971
0.139913
0.139855
0.139796
0.139737
0.139678
0.139618
0.139559
0.139499
0.139439
0.139379
0.139319
0.139259
0.139199
0.139138
0.139078
0.139017
0.138957
0.138897
0.138836
0.138776
0.138716
0.138656
0.138596
0.138536
0.138477
0.138417
0.138358
0.138299
0.138241
0.138182
0.138124
0.138066
0.138009
0.137952
0.137895
0.137839
0.137782
0.137727
0.137671
0.137617
0.137562
0.137508
0.137455
0.137401
0.137349
0.137297
0.137245
0.137194
0.137143
0.137093
0.137043
0.136994
0.136945
0.136897
0.13685
0.136803
0.136756
0.13671
0.136665
0.13662
0.136575
0.136531
0.136488
0.136445
0.136403
0.136362
0.136321
0.13628
0.13624
0.1362
0.136162
0.136123
0.136085
0.136048
0.136011
0.135975
0.135939
0.135904
0.135869
0.135835
0.135801
0.135768
0.135735
0.135703
0.135671
0.13564
0.135609
0.135579
0.135549
0.13552
0.135491
0.135462
0.135434
0.135407
0.13538
0.135353
0.135327
0.135302
0.135277
0.135252
0.135228
0.135205
0.135182
0.13516
0.135139
0.135119
0.1351
0.135083
0.135068
0.135055
0.135045
0.135038
0.135036
0.13504
0.135051
0.135071
0.135103
0.135148
0.135211
0.139971
0.139913
0.139854
0.139795
0.139736
0.139676
0.139616
0.139556
0.139496
0.139436
0.139375
0.139315
0.139254
0.139193
0.139132
0.139071
0.13901
0.138949
0.138889
0.138828
0.138767
0.138706
0.138645
0.138585
0.138525
0.138464
0.138404
0.138345
0.138285
0.138226
0.138166
0.138108
0.138049
0.137991
0.137933
0.137875
0.137818
0.137761
0.137705
0.137649
0.137593
0.137538
0.137483
0.137429
0.137375
0.137321
0.137268
0.137216
0.137164
0.137112
0.137061
0.137011
0.136961
0.136911
0.136862
0.136814
0.136766
0.136719
0.136672
0.136625
0.13658
0.136535
0.13649
0.136446
0.136402
0.136359
0.136317
0.136275
0.136234
0.136193
0.136153
0.136113
0.136074
0.136035
0.135997
0.13596
0.135922
0.135886
0.13585
0.135815
0.13578
0.135745
0.135711
0.135678
0.135645
0.135613
0.135581
0.135549
0.135518
0.135488
0.135458
0.135429
0.1354
0.135371
0.135343
0.135315
0.135288
0.135262
0.135236
0.13521
0.135185
0.13516
0.135137
0.135113
0.135091
0.13507
0.135049
0.13503
0.135013
0.134997
0.134984
0.134973
0.134967
0.134965
0.134969
0.13498
0.135001
0.135033
0.13508
0.135144
0.139971
0.139912
0.139853
0.139794
0.139734
0.139674
0.139614
0.139554
0.139493
0.139432
0.139371
0.13931
0.139249
0.139188
0.139126
0.139065
0.139003
0.138942
0.13888
0.138819
0.138758
0.138696
0.138635
0.138574
0.138513
0.138452
0.138391
0.138331
0.13827
0.13821
0.13815
0.138091
0.138032
0.137973
0.137914
0.137856
0.137798
0.13774
0.137683
0.137626
0.137569
0.137513
0.137458
0.137402
0.137348
0.137293
0.137239
0.137186
0.137133
0.137081
0.137029
0.136978
0.136927
0.136877
0.136827
0.136777
0.136729
0.136681
0.136633
0.136586
0.136539
0.136493
0.136448
0.136403
0.136359
0.136315
0.136272
0.136229
0.136187
0.136145
0.136104
0.136064
0.136024
0.135984
0.135945
0.135907
0.135869
0.135832
0.135795
0.135759
0.135724
0.135689
0.135654
0.13562
0.135586
0.135553
0.135521
0.135489
0.135457
0.135426
0.135395
0.135365
0.135336
0.135307
0.135278
0.13525
0.135222
0.135195
0.135168
0.135142
0.135117
0.135092
0.135067
0.135044
0.135021
0.134999
0.134978
0.134959
0.134941
0.134925
0.134911
0.134901
0.134894
0.134892
0.134896
0.134908
0.134929
0.134962
0.13501
0.135077
0.139971
0.139912
0.139852
0.139793
0.139733
0.139672
0.139612
0.139551
0.13949
0.139429
0.139367
0.139306
0.139244
0.139182
0.13912
0.139058
0.138996
0.138934
0.138872
0.13881
0.138748
0.138686
0.138624
0.138562
0.138501
0.138439
0.138378
0.138317
0.138256
0.138195
0.138134
0.138074
0.138014
0.137954
0.137895
0.137836
0.137777
0.137718
0.13766
0.137603
0.137545
0.137488
0.137432
0.137376
0.13732
0.137265
0.13721
0.137156
0.137103
0.137049
0.136997
0.136944
0.136893
0.136841
0.136791
0.136741
0.136691
0.136642
0.136594
0.136546
0.136498
0.136451
0.136405
0.136359
0.136314
0.13627
0.136226
0.136182
0.136139
0.136097
0.136055
0.136014
0.135973
0.135933
0.135893
0.135854
0.135816
0.135778
0.13574
0.135703
0.135667
0.135631
0.135596
0.135561
0.135527
0.135493
0.13546
0.135427
0.135395
0.135363
0.135332
0.135301
0.135271
0.135241
0.135212
0.135183
0.135155
0.135127
0.1351
0.135073
0.135047
0.135022
0.134997
0.134973
0.13495
0.134927
0.134906
0.134886
0.134868
0.134852
0.134838
0.134827
0.134821
0.134819
0.134823
0.134835
0.134857
0.134891
0.13494
0.135008
0.139971
0.139911
0.139851
0.139791
0.139731
0.13967
0.13961
0.139548
0.139487
0.139425
0.139363
0.139301
0.139239
0.139177
0.139114
0.139052
0.138989
0.138927
0.138864
0.138801
0.138739
0.138676
0.138614
0.138551
0.138489
0.138427
0.138364
0.138303
0.138241
0.138179
0.138118
0.138057
0.137996
0.137936
0.137875
0.137815
0.137756
0.137697
0.137638
0.137579
0.137521
0.137463
0.137406
0.137349
0.137293
0.137237
0.137181
0.137126
0.137071
0.137017
0.136964
0.136911
0.136858
0.136806
0.136755
0.136704
0.136653
0.136603
0.136554
0.136505
0.136457
0.136409
0.136362
0.136315
0.136269
0.136224
0.136179
0.136135
0.136091
0.136048
0.136005
0.135963
0.135921
0.13588
0.13584
0.1358
0.135761
0.135722
0.135684
0.135646
0.135609
0.135573
0.135537
0.135501
0.135466
0.135432
0.135398
0.135364
0.135331
0.135299
0.135267
0.135236
0.135205
0.135175
0.135145
0.135115
0.135087
0.135058
0.135031
0.135003
0.134977
0.134951
0.134925
0.134901
0.134877
0.134854
0.134833
0.134813
0.134794
0.134778
0.134764
0.134753
0.134746
0.134744
0.134749
0.134761
0.134783
0.134818
0.134869
0.134938
0.13997
0.139911
0.139851
0.13979
0.13973
0.139669
0.139607
0.139546
0.139484
0.139422
0.139359
0.139297
0.139234
0.139171
0.139109
0.139045
0.138982
0.138919
0.138856
0.138793
0.138729
0.138666
0.138603
0.13854
0.138477
0.138414
0.138351
0.138288
0.138226
0.138164
0.138102
0.13804
0.137978
0.137917
0.137856
0.137795
0.137735
0.137675
0.137615
0.137556
0.137497
0.137438
0.13738
0.137322
0.137265
0.137208
0.137152
0.137096
0.13704
0.136985
0.136931
0.136877
0.136823
0.13677
0.136718
0.136666
0.136615
0.136564
0.136514
0.136464
0.136415
0.136366
0.136318
0.136271
0.136224
0.136178
0.136132
0.136087
0.136042
0.135998
0.135955
0.135912
0.135869
0.135828
0.135786
0.135746
0.135706
0.135666
0.135627
0.135589
0.135551
0.135513
0.135477
0.13544
0.135405
0.13537
0.135335
0.135301
0.135267
0.135234
0.135202
0.13517
0.135138
0.135107
0.135077
0.135047
0.135017
0.134989
0.13496
0.134932
0.134905
0.134879
0.134853
0.134828
0.134804
0.134781
0.134759
0.134738
0.134719
0.134702
0.134688
0.134677
0.13467
0.134669
0.134673
0.134686
0.134709
0.134745
0.134796
0.134867
0.13997
0.13991
0.13985
0.139789
0.139728
0.139667
0.139605
0.139543
0.139481
0.139418
0.139355
0.139292
0.139229
0.139166
0.139103
0.139039
0.138975
0.138911
0.138848
0.138784
0.13872
0.138656
0.138592
0.138528
0.138465
0.138401
0.138338
0.138274
0.138211
0.138148
0.138085
0.138023
0.13796
0.137898
0.137836
0.137775
0.137713
0.137653
0.137592
0.137532
0.137472
0.137413
0.137353
0.137295
0.137237
0.137179
0.137122
0.137065
0.137008
0.136953
0.136897
0.136842
0.136788
0.136734
0.136681
0.136628
0.136576