/*--------------------------------*- C++ -*----------------------------------*\
  =========                 |
  \\      /  F ield         | OpenFOAM: The Open Source CFD Toolbox
   \\    /   O peration     | Website:  https://openfoam.org
    \\  /    A nd           | Version:  8
     \\/     M anipulation  |
\*---------------------------------------------------------------------------*/
FoamFile
{
    version     2.0;
    format      ascii;
    class       volScalarField;
    location    "0.03";
    object      nut;
}
// * * * * * * * * * * * * * * * * * * * * * * * * * * * * * * * * * * * * * //

dimensions      [0 2 -1 0 0 0 0];

internalField   nonuniform List<scalar> 
104000
(
0.0159553
0.00531392
0.00242577
0.00146957
0.00101804
0.000764913
0.000605209
0.000496272
0.000417664
0.000358455
0.000312295
0.000275272
0.000244854
0.00021934
0.00019755
0.000178642
0.000162006
0.000147198
0.000133918
0.00012192
0.000111054
0.000101235
9.23964e-05
8.44269e-05
7.71667e-05
7.04399e-05
6.40888e-05
5.79888e-05
5.20597e-05
4.62717e-05
4.06714e-05
3.54111e-05
3.06965e-05
2.66407e-05
2.32051e-05
2.02791e-05
1.77608e-05
1.55784e-05
1.36826e-05
1.20364e-05
1.06085e-05
9.37173e-06
8.30147e-06
7.37651e-06
6.5804e-06
5.90634e-06
5.36336e-06
4.94669e-06
4.58809e-06
4.32858e-06
4.17967e-06
4.05491e-06
3.9262e-06
3.79226e-06
3.65622e-06
3.52032e-06
3.38867e-06
3.26847e-06
3.16756e-06
3.08877e-06
3.02815e-06
2.97861e-06
2.93392e-06
2.89027e-06
2.84593e-06
2.80044e-06
2.75389e-06
2.70656e-06
2.65875e-06
2.61073e-06
2.56272e-06
2.51487e-06
2.46731e-06
2.42012e-06
2.3734e-06
2.32725e-06
2.28181e-06
2.23726e-06
2.19393e-06
2.15232e-06
2.11319e-06
2.07736e-06
2.04549e-06
2.01788e-06
1.99431e-06
1.9742e-06
1.95677e-06
1.9412e-06
1.92675e-06
1.91285e-06
1.89908e-06
1.88516e-06
1.87097e-06
1.85648e-06
1.84182e-06
1.82716e-06
1.81276e-06
1.7989e-06
1.78583e-06
1.7737e-06
1.76257e-06
1.75239e-06
1.74303e-06
1.73431e-06
1.72605e-06
1.71806e-06
1.71021e-06
1.70239e-06
1.69454e-06
1.68665e-06
1.67874e-06
1.67087e-06
1.66312e-06
1.65556e-06
1.64825e-06
1.64125e-06
1.63457e-06
1.62819e-06
1.62212e-06
1.61625e-06
1.61044e-06
1.60464e-06
1.5988e-06
1.59296e-06
1.58715e-06
1.58138e-06
1.57571e-06
1.57016e-06
1.56476e-06
1.55952e-06
1.55447e-06
1.5496e-06
1.54492e-06
1.54041e-06
1.53607e-06
1.53187e-06
1.5278e-06
1.52385e-06
1.52e-06
1.51626e-06
1.51262e-06
1.50908e-06
1.50563e-06
1.50229e-06
1.49905e-06
1.49591e-06
1.49287e-06
1.48992e-06
1.48706e-06
1.48428e-06
1.48159e-06
1.47896e-06
1.47641e-06
1.47393e-06
1.47152e-06
1.46917e-06
1.46688e-06
1.46466e-06
1.4625e-06
1.4604e-06
1.45835e-06
1.45636e-06
1.4544e-06
1.45252e-06
1.45038e-06
1.4479e-06
1.44519e-06
1.44236e-06
1.43951e-06
1.43668e-06
1.43389e-06
1.43115e-06
1.42845e-06
1.4258e-06
1.4232e-06
1.42064e-06
1.41812e-06
1.41563e-06
1.41318e-06
1.41076e-06
1.40836e-06
1.406e-06
1.40366e-06
1.40135e-06
1.39906e-06
1.39681e-06
1.39457e-06
1.39236e-06
1.39017e-06
1.388e-06
1.38586e-06
1.38373e-06
1.38162e-06
1.37952e-06
1.37744e-06
1.37537e-06
1.37331e-06
1.37125e-06
1.36919e-06
1.36713e-06
1.36506e-06
1.36299e-06
1.36091e-06
1.35882e-06
1.35671e-06
1.35458e-06
1.35244e-06
1.35027e-06
1.34808e-06
1.34586e-06
1.34361e-06
1.34132e-06
1.33899e-06
1.33661e-06
1.33418e-06
1.33169e-06
1.32914e-06
1.32652e-06
1.32382e-06
1.32105e-06
1.31818e-06
1.31522e-06
1.31215e-06
1.30897e-06
1.30566e-06
1.30223e-06
1.29864e-06
1.29489e-06
1.29097e-06
1.28687e-06
1.28255e-06
1.27802e-06
1.27326e-06
1.26825e-06
1.26298e-06
1.25742e-06
1.25156e-06
1.24538e-06
1.23885e-06
1.23194e-06
1.22464e-06
1.21691e-06
1.20873e-06
1.20005e-06
1.19085e-06
1.18108e-06
1.17071e-06
1.15969e-06
1.14798e-06
1.13553e-06
1.12228e-06
1.10818e-06
1.09317e-06
1.07718e-06
1.06015e-06
1.042e-06
1.02266e-06
1.00205e-06
9.80079e-07
9.56665e-07
9.31714e-07
9.05131e-07
8.76824e-07
8.467e-07
8.14676e-07
7.8069e-07
7.44719e-07
7.06816e-07
6.67207e-07
6.26063e-07
5.84874e-07
5.48137e-07
5.21256e-07
5.01855e-07
4.843e-07
4.66108e-07
4.47042e-07
4.27419e-07
4.07663e-07
3.91111e-07
3.74961e-07
3.58542e-07
3.41743e-07
3.24327e-07
3.0581e-07
2.85578e-07
2.63618e-07
2.38988e-07
2.0828e-07
1.68997e-07
1.22571e-07
7.78362e-08
5.30116e-08
5.4137e-08
5.50472e-08
5.20762e-08
4.42752e-08
3.40739e-08
2.59828e-08
2.22983e-08
0.0648432
0.0242859
0.0118098
0.00715827
0.0049585
0.00371961
0.00293799
0.00240572
0.00202287
0.00173584
0.00151352
0.00133672
0.00119301
0.00107405
0.00097403
0.0008888
0.000815331
0.000751392
0.000695411
0.000645912
0.000601816
0.000562289
0.000526666
0.000494411
0.000465085
0.000438325
0.000413829
0.00039134
0.000370667
0.000351615
0.000334008
0.00031769
0.000302521
0.000288381
0.000275172
0.000262812
0.000251232
0.000240369
0.000230162
0.000220552
0.000211489
0.000202928
0.000194829
0.000187158
0.000179882
0.000172971
0.000166397
0.000160136
0.000154188
0.000148528
0.000143102
0.000137897
0.000132904
0.000128116
0.000123538
0.000119209
0.000115243
0.000111857
0.000109254
0.000107428
0.000106167
0.000105216
0.000104384
0.000103559
0.000102691
0.000101764
0.000100776
9.97367e-05
9.86544e-05
9.75391e-05
9.6399e-05
9.52405e-05
9.40687e-05
9.2888e-05
9.17026e-05
9.05171e-05
8.9337e-05
8.81703e-05
8.70304e-05
8.59391e-05
8.49266e-05
8.4025e-05
8.32581e-05
8.26329e-05
8.21388e-05
8.17526e-05
8.14457e-05
8.11897e-05
8.09603e-05
8.0738e-05
8.0509e-05
8.02645e-05
8.00005e-05
7.97174e-05
7.94204e-05
7.9118e-05
7.88206e-05
7.85398e-05
7.82853e-05
7.8063e-05
7.78744e-05
7.77168e-05
7.75848e-05
7.74714e-05
7.73693e-05
7.72718e-05
7.71738e-05
7.70713e-05
7.69626e-05
7.68474e-05
7.67274e-05
7.66054e-05
7.64848e-05
7.63691e-05
7.62609e-05
7.61623e-05
7.60738e-05
7.59951e-05
7.59261e-05
7.58608e-05
7.57939e-05
7.57229e-05
7.56477e-05
7.55693e-05
7.54892e-05
7.54089e-05
7.533e-05
7.5254e-05
7.51822e-05
7.51155e-05
7.50547e-05
7.5e-05
7.49513e-05
7.49083e-05
7.48703e-05
7.48368e-05
7.48071e-05
7.47808e-05
7.47573e-05
7.47367e-05
7.47187e-05
7.47035e-05
7.46912e-05
7.4682e-05
7.46759e-05
7.46728e-05
7.46729e-05
7.46758e-05
7.46814e-05
7.46896e-05
7.47001e-05
7.47129e-05
7.47277e-05
7.47445e-05
7.47634e-05
7.47843e-05
7.48072e-05
7.4832e-05
7.48588e-05
7.48875e-05
7.49179e-05
7.495e-05
7.49833e-05
7.50212e-05
7.50394e-05
7.50381e-05
7.50247e-05
7.50051e-05
7.49834e-05
7.49618e-05
7.49412e-05
7.49224e-05
7.49053e-05
7.48901e-05
7.48765e-05
7.48646e-05
7.48541e-05
7.48449e-05
7.48369e-05
7.48301e-05
7.48244e-05
7.48198e-05
7.48163e-05
7.48139e-05
7.48126e-05
7.48124e-05
7.48133e-05
7.48153e-05
7.48185e-05
7.48228e-05
7.48282e-05
7.48348e-05
7.48424e-05
7.48512e-05
7.4861e-05
7.48718e-05
7.48835e-05
7.48959e-05
7.4909e-05
7.49228e-05
7.49372e-05
7.49522e-05
7.49678e-05
7.4984e-05
7.50008e-05
7.50183e-05
7.50364e-05
7.50552e-05
7.50746e-05
7.50946e-05
7.51153e-05
7.51366e-05
7.51585e-05
7.5181e-05
7.5204e-05
7.52275e-05
7.52516e-05
7.52761e-05
7.5301e-05
7.53263e-05
7.53521e-05
7.53782e-05
7.54046e-05
7.54313e-05
7.54583e-05
7.54855e-05
7.55127e-05
7.55396e-05
7.55661e-05
7.5592e-05
7.56173e-05
7.56418e-05
7.56656e-05
7.56887e-05
7.5711e-05
7.57326e-05
7.57534e-05
7.57733e-05
7.57923e-05
7.58103e-05
7.58272e-05
7.58429e-05
7.58572e-05
7.58699e-05
7.58809e-05
7.589e-05
7.58969e-05
7.59014e-05
7.59031e-05
7.59018e-05
7.58971e-05
7.58884e-05
7.58755e-05
7.58577e-05
7.58344e-05
7.58052e-05
7.57691e-05
7.57254e-05
7.56732e-05
7.56114e-05
7.55389e-05
7.54543e-05
7.53562e-05
7.52427e-05
7.51118e-05
7.49615e-05
7.4789e-05
7.45908e-05
7.43726e-05
7.39811e-05
7.35227e-05
7.30152e-05
7.24647e-05
7.1877e-05
7.12519e-05
7.05837e-05
6.98638e-05
6.90835e-05
6.82326e-05
6.73031e-05
6.62852e-05
6.51626e-05
6.39118e-05
6.24983e-05
6.08685e-05
5.89552e-05
5.67072e-05
5.39849e-05
5.04267e-05
4.55192e-05
3.86389e-05
2.90491e-05
2.00005e-05
1.84712e-05
1.79578e-05
1.69526e-05
1.49586e-05
1.20817e-05
8.86764e-06
6.21146e-06
0.0851596
0.0411464
0.0229717
0.0146698
0.01035
0.00782179
0.00620026
0.00508697
0.00428242
0.00367743
0.00320791
0.002834
0.00252979
0.00227778
0.00206579
0.00188509
0.0017293
0.00159365
0.00147451
0.00136909
0.00127518
0.00119103
0.00111524
0.00104668
0.000984395
0.000927611
0.000875676
0.000828042
0.000784329
0.000744071
0.000706895
0.000672486
0.000640572
0.000610918
0.000583319
0.000557599
0.00053361
0.000511202
0.000490235
0.000470586
0.000452146
0.000434819
0.000418521
0.000403177
0.000388715
0.000375067
0.000362169
0.000349964
0.000338405
0.000327446
0.000317041
0.000307149
0.000297736
0.000288769
0.00028022
0.000272065
0.000264286
0.00025687
0.000249811
0.000243099
0.000236721
0.000230655
0.000224876
0.000219361
0.000214083
0.000209024
0.000204166
0.000199496
0.000195003
0.000190677
0.000186508
0.000182484
0.000178596
0.00017484
0.00017121
0.000167707
0.000164336
0.000161114
0.000158078
0.000155288
0.000152818
0.000150719
0.000148992
0.00014759
0.000146435
0.000145452
0.000144577
0.000143764
0.00014298
0.000142204
0.000141423
0.000140632
0.00013983
0.000139027
0.000138241
0.00013749
0.000136795
0.000136172
0.000135629
0.000135162
0.000134759
0.000134406
0.000134085
0.000133784
0.00013349
0.000133196
0.000132897
0.000132591
0.000132279
0.000131965
0.000131655
0.000131356
0.000131073
0.00013081
0.000130569
0.00013035
0.00013015
0.000129965
0.000129796
0.000129614
0.000129418
0.000129214
0.000129008
0.000128802
0.000128599
0.000128402
0.000128212
0.000128032
0.000127861
0.000127702
0.000127553
0.000127415
0.000127286
0.000127166
0.000127053
0.000126946
0.000126845
0.000126749
0.000126658
0.000126572
0.000126491
0.000126416
0.000126346
0.000126283
0.000126225
0.000126173
0.000126126
0.000126083
0.000126045
0.000126011
0.000125981
0.000125954
0.00012593
0.00012591
0.000125894
0.000125881
0.000125871
0.000125865
0.000125862
0.000125861
0.000125863
0.000125868
0.000125874
0.000125894
0.000125803
0.000125698
0.000125598
0.000125501
0.000125409
0.000125317
0.000125228
0.000125139
0.000125052
0.000124965
0.000124879
0.000124794
0.00012471
0.000124627
0.000124544
0.000124463
0.000124383
0.000124305
0.000124227
0.000124152
0.000124077
0.000124004
0.000123933
0.000123863
0.000123795
0.000123729
0.000123664
0.0001236
0.000123538
0.000123478
0.000123419
0.000123362
0.000123305
0.000123249
0.000123194
0.00012314
0.000123087
0.000123034
0.000122983
0.000122932
0.000122882
0.000122833
0.000122785
0.000122738
0.000122692
0.000122647
0.000122603
0.000122559
0.000122517
0.000122475
0.000122434
0.000122393
0.000122353
0.000122314
0.000122276
0.000122238
0.000122201
0.000122164
0.000122128
0.000122093
0.000122058
0.000122023
0.000121987
0.000121952
0.000121915
0.000121877
0.000121839
0.0001218
0.00012176
0.00012172
0.000121679
0.000121637
0.000121594
0.000121551
0.000121508
0.000121463
0.000121418
0.000121371
0.000121324
0.000121275
0.000121226
0.000121175
0.000121122
0.000121068
0.000121011
0.000120953
0.000120893
0.00012083
0.000120764
0.000120695
0.000120623
0.000120547
0.000120467
0.000120384
0.000120295
0.000120202
0.000120103
0.000119999
0.000119888
0.00011977
0.000119645
0.000119512
0.00011937
0.000119218
0.000119059
0.000118879
0.000118668
0.000118427
0.000118159
0.000117861
0.000117535
0.000117181
0.0001168
0.000116389
0.000115947
0.000115468
0.000114948
0.000114381
0.000113755
0.000113058
0.000112266
0.000111348
0.000110271
0.000108982
0.000107376
0.000105285
0.000102519
9.87536e-05
9.42416e-05
9.09518e-05
8.86894e-05
8.61221e-05
8.18901e-05
7.51577e-05
6.55208e-05
5.42414e-05
0.0976669
0.055005
0.0337765
0.0226695
0.0163873
0.012536
0.0100027
0.00823824
0.00695176
0.00597881
0.0052207
0.00461523
0.00412156
0.00371193
0.00336689
0.00307247
0.00281841
0.00259704
0.00240251
0.00223029
0.00207682
0.00193929
0.00181541
0.00170332
0.00160151
0.00150871
0.00142385
0.00134603
0.00127449
0.00120857
0.0011477
0.00109137
0.00103914
0.000990646
0.000945532
0.000903531
0.000864392
0.000827851
0.000793679
0.000761675
0.000731665
0.000703491
0.000677017
0.000652122
0.000628682
0.000606581
0.000585714
0.000565986
0.000547313
0.000529622
0.000512847
0.000496924
0.000481795
0.000467409
0.000453716
0.000440675
0.000428252
0.000416413
0.000405125
0.000394356
0.000384078
0.000374266
0.000364896
0.000355937
0.000347362
0.000339147
0.000331273
0.000323722
0.000316477
0.000309521
0.000302831
0.000296386
0.000290175
0.000284189
0.00027842
0.00027286
0.0002675
0.000262333
0.000257352
0.000252558
0.000247937
0.000243492
0.000239231
0.000235156
0.000231264
0.000227545
0.000223984
0.000220569
0.000217286
0.000214126
0.000211083
0.000208159
0.00020537
0.000202745
0.000200332
0.000198149
0.000196228
0.000194573
0.00019315
0.000191905
0.000190786
0.000189749
0.000188762
0.000187803
0.000186858
0.00018592
0.000184989
0.00018407
0.000183173
0.000182311
0.000181496
0.000180739
0.000180043
0.000179407
0.000178823
0.000178282
0.000177776
0.000177293
0.00017684
0.000176273
0.000175707
0.000175162
0.000174636
0.000174129
0.000173641
0.000173176
0.000172735
0.000172319
0.000171927
0.000171558
0.000171209
0.000170878
0.000170562
0.000170258
0.000169965
0.000169681
0.000169407
0.000169142
0.000168888
0.000168644
0.000168413
0.000168193
0.000167985
0.000167788
0.000167602
0.000167425
0.000167256
0.000167095
0.000166942
0.000166795
0.000166654
0.00016652
0.000166393
0.000166272
0.000166158
0.000166051
0.000165949
0.000165853
0.000165762
0.000165676
0.000165595
0.000165518
0.000165443
0.000165376
0.000165304
0.000165225
0.000165141
0.000165055
0.000164968
0.000164881
0.000164794
0.000164709
0.000164624
0.000164539
0.000164455
0.000164372
0.000164289
0.000164207
0.000164127
0.000164048
0.00016397
0.000163895
0.000163821
0.000163749
0.00016368
0.000163612
0.000163547
0.000163484
0.000163423
0.000163365
0.000163308
0.000163254
0.000163202
0.000163152
0.000163104
0.000163056
0.00016301
0.000162964
0.000162919
0.000162876
0.000162834
0.000162793
0.000162753
0.000162714
0.000162677
0.000162641
0.000162607
0.000162574
0.000162541
0.00016251
0.00016248
0.000162451
0.000162423
0.000162396
0.00016237
0.000162344
0.000162319
0.000162295
0.000162272
0.000162249
0.000162227
0.000162205
0.000162184
0.000162163
0.000162142
0.00016212
0.000162096
0.00016207
0.000162042
0.000162012
0.00016198
0.000161948
0.000161914
0.000161878
0.000161841
0.000161802
0.000161762
0.00016172
0.000161676
0.00016163
0.000161581
0.000161529
0.000161475
0.000161417
0.000161356
0.000161292
0.000161223
0.000161149
0.000161071
0.000160987
0.000160896
0.0001608
0.000160696
0.000160584
0.000160464
0.000160335
0.000160195
0.000160046
0.000159884
0.000159711
0.000159523
0.000159322
0.000159105
0.000158871
0.00015862
0.000158349
0.000158058
0.000157745
0.00015741
0.000157052
0.000156666
0.00015625
0.000155803
0.000155315
0.000154789
0.00015423
0.00015364
0.000153025
0.000152388
0.000151735
0.000151071
0.000150402
0.000149736
0.000149076
0.000148425
0.00014778
0.000147131
0.000146463
0.000145739
0.000144894
0.000143845
0.000142455
0.000140587
0.000138606
0.000136944
0.000135431
0.000133382
0.000130052
0.000124927
0.000118187
0.105933
0.0661522
0.0436134
0.0305677
0.0226528
0.0175769
0.0141431
0.0117088
0.00991354
0.00854518
0.00747307
0.00661337
0.00591027
0.00532547
0.00483195
0.00441019
0.0040458
0.00372797
0.00344844
0.00320081
0.00298002
0.00278206
0.0026037
0.00244229
0.00229565
0.00216198
0.00203974
0.00192765
0.00182461
0.00172968
0.00164201
0.00156092
0.00148575
0.00141597
0.00135108
0.00129066
0.00123432
0.00118171
0.00113252
0.00108647
0.0010433
0.00100279
0.000964751
0.000929001
0.000895351
0.000863629
0.000833685
0.000805382
0.000778598
0.000753236
0.000729197
0.00070639
0.00068473
0.000664142
0.000644556
0.000625916
0.000608172
0.000591275
0.00057517
0.000559807
0.000545146
0.000531151
0.000517786
0.000505003
0.000492762
0.000481039
0.00046981
0.000459052
0.000448739
0.000438846
0.000429323
0.000420149
0.000411318
0.000402822
0.000394647
0.000386778
0.0003792
0.000371897
0.000364857
0.000358068
0.000351469
0.000345075
0.000338901
0.000332949
0.00032721
0.000321677
0.000316338
0.000311183
0.000306203
0.000301387
0.000296728
0.000292218
0.000287853
0.00028363
0.000279561
0.000275522
0.000271645
0.000267945
0.000264416
0.000261045
0.000257817
0.000254719
0.000251739
0.000248867
0.000246098
0.000243435
0.000240887
0.000238472
0.000236214
0.000234135
0.000232249
0.00023055
0.00022902
0.00022763
0.00022635
0.000225153
0.000224014
0.000222919
0.000221859
0.000220815
0.000219786
0.00021878
0.000217807
0.000216878
0.000215999
0.000215174
0.000214404
0.000213685
0.00021301
0.000212372
0.000211766
0.000211183
0.00021062
0.000210074
0.000209544
0.00020903
0.000208534
0.000208058
0.000207604
0.000207173
0.000206764
0.000206378
0.000206011
0.000205662
0.000205328
0.000205008
0.0002047
0.000204404
0.000204118
0.000203843
0.00020358
0.000203329
0.000203089
0.000202861
0.000202645
0.000202438
0.000202241
0.000202053
0.000201872
0.000201699
0.000201532
0.000201371
0.000201216
0.000201067
0.000200924
0.000200785
0.000200649
0.000200516
0.000200386
0.000200259
0.000200135
0.000200011
0.000199889
0.000199768
0.000199647
0.000199529
0.000199412
0.000199297
0.000199185
0.000199076
0.00019897
0.000198868
0.000198768
0.000198672
0.000198579
0.00019849
0.000198404
0.000198321
0.000198241
0.000198164
0.000198091
0.000198021
0.000197954
0.000197889
0.000197825
0.000197761
0.000197698
0.000197636
0.000197577
0.000197519
0.000197463
0.000197409
0.000197357
0.000197308
0.00019726
0.000197214
0.00019717
0.000197128
0.000197087
0.000197048
0.00019701
0.000196973
0.000196938
0.000196904
0.000196871
0.000196839
0.000196808
0.000196777
0.000196748
0.00019672
0.000196692
0.000196666
0.000196639
0.000196613
0.000196588
0.000196557
0.00019652
0.00019648
0.000196438
0.000196395
0.000196351
0.000196306
0.00019626
0.000196212
0.000196162
0.00019611
0.000196056
0.000195999
0.00019594
0.000195879
0.000195813
0.000195745
0.000195672
0.000195595
0.000195514
0.000195427
0.000195335
0.000195237
0.000195131
0.000195018
0.000194897
0.000194766
0.000194626
0.000194476
0.000194314
0.000194139
0.000193952
0.000193749
0.000193531
0.000193296
0.000193042
0.000192769
0.000192474
0.000192155
0.000191811
0.00019144
0.00019104
0.000190608
0.000190143
0.000189642
0.000189104
0.000188524
0.000187904
0.000187206
0.00018646
0.00018567
0.000184836
0.000183959
0.000183043
0.000182094
0.000181121
0.000180136
0.000179155
0.000178193
0.000177269
0.000176403
0.000175609
0.000174901
0.000174281
0.000173732
0.000173222
0.000172688
0.000172012
0.00017118
0.000170372
0.000169694
0.000168941
0.000167628
0.000165202
0.000161392
0.11169
0.075113
0.0523237
0.0380576
0.028877
0.0227402
0.01847
0.0153846
0.013079
0.0113055
0.00990661
0.00877926
0.00785375
0.00708166
0.00642854
0.0058693
0.00538539
0.00496276
0.00459066
0.00426072
0.00396635
0.00370227
0.00346421
0.00324871
0.00305288
0.00287432
0.00271103
0.00256129
0.00242364
0.00229681
0.00217972
0.00207141
0.00197105
0.0018779
0.0017913
0.00171068
0.00163552
0.00156535
0.00149977
0.00143838
0.00138087
0.00132691
0.00127623
0.00122858
0.00118373
0.00114145
0.00110155
0.00106383
0.00102815
0.000994376
0.000962373
0.000932016
0.000903192
0.000875801
0.00084975
0.000824971
0.0008014
0.000778969
0.000757587
0.000737193
0.000717738
0.000699178
0.00068146
0.000664494
0.000648247
0.000632697
0.000617816
0.000603566
0.000589912
0.000576817
0.000564168
0.000551992
0.000540295
0.000529057
0.000518255
0.000507861
0.000497855
0.000488215
0.000478922
0.000469965
0.00046115
0.000452662
0.000444493
0.000436619
0.000429017
0.000421674
0.000414576
0.000407712
0.00040107
0.000394639
0.000388411
0.000382375
0.000376524
0.000370849
0.000365348
0.000359998
0.000354799
0.000349754
0.000344864
0.000340126
0.000335536
0.000331087
0.000326773
0.000322587
0.000318523
0.000314577
0.000310746
0.000307029
0.000303429
0.000299949
0.000296594
0.000293366
0.000290264
0.000287284
0.000284419
0.000281662
0.000279005
0.000276445
0.000273981
0.000271617
0.00026936
0.000267225
0.000265227
0.000263376
0.000261674
0.000260114
0.000258678
0.000257347
0.000256099
0.000254917
0.000253785
0.000252696
0.000251642
0.000250623
0.000249642
0.000248702
0.000247808
0.000246962
0.000246166
0.000245416
0.00024471
0.00024404
0.000243403
0.000242792
0.000242205
0.000241637
0.000241089
0.00024056
0.000240051
0.000239563
0.000239097
0.000238654
0.000238232
0.000237829
0.000237444
0.000237075
0.000236719
0.000236377
0.000236045
0.000235724
0.000235414
0.000235113
0.000234822
0.000234542
0.000234272
0.000234012
0.000233761
0.00023352
0.000233287
0.000233061
0.000232839
0.000232618
0.0002324
0.000232185
0.000231973
0.000231766
0.000231565
0.000231369
0.00023118
0.000230996
0.000230818
0.000230646
0.00023048
0.000230319
0.000230164
0.000230014
0.000229869
0.000229729
0.000229594
0.000229464
0.000229339
0.000229218
0.000229103
0.000228985
0.000228865
0.000228747
0.000228632
0.000228521
0.000228413
0.000228308
0.000228208
0.00022811
0.000228016
0.000227924
0.000227836
0.000227751
0.000227668
0.000227587
0.000227509
0.000227433
0.000227359
0.000227287
0.000227216
0.000227148
0.000227081
0.000227016
0.000226952
0.00022689
0.00022683
0.000226771
0.000226713
0.000226657
0.000226602
0.000226547
0.000226496
0.000226412
0.000226328
0.000226246
0.000226167
0.000226088
0.000226008
0.000225928
0.000225847
0.000225765
0.000225681
0.000225596
0.000225508
0.000225417
0.000225324
0.000225228
0.000225129
0.000225026
0.000224918
0.000224806
0.000224689
0.000224566
0.000224437
0.0002243
0.000224156
0.000224002
0.00022384
0.000223667
0.000223483
0.000223288
0.000223079
0.000222857
0.00022262
0.000222366
0.000222095
0.000221804
0.000221492
0.000221158
0.000220799
0.000220413
0.000219998
0.000219552
0.000219072
0.000218556
0.000218
0.000217401
0.000216758
0.000216066
0.000215324
0.000214522
0.000213658
0.000212729
0.000211737
0.000210681
0.000209564
0.00020839
0.000207165
0.0002059
0.000204609
0.000203311
0.000202028
0.000200789
0.000199626
0.00019857
0.000197652
0.000196897
0.000196315
0.0001959
0.000195604
0.000195363
0.000195184
0.00019513
0.000195182
0.000195119
0.00019452
0.000192971
0.115875
0.0823711
0.0599425
0.0449997
0.0348942
0.0278821
0.0228691
0.0191759
0.0163775
0.0142029
0.0124746
0.0110738
0.00991874
0.00895172
0.00813141
0.00742742
0.00681711
0.00628327
0.00581266
0.00539494
0.00502191
0.00468704
0.00438499
0.00411144
0.00386276
0.00363597
0.00342852
0.00323827
0.00306336
0.00290222
0.00275345
0.00261585
0.00248837
0.00237006
0.0022601
0.00215775
0.00206235
0.00197332
0.00189012
0.00181228
0.00173936
0.00167098
0.00160676
0.0015464
0.00148959
0.00143604
0.0013855
0.00133775
0.00129256
0.00124977
0.00120922
0.00117076
0.00113425
0.00109956
0.00106657
0.00103521
0.00100541
0.000977068
0.000950032
0.00092425
0.000899676
0.000876248
0.000853891
0.00083243
0.000811897
0.000792274
0.000773508
0.000755545
0.000738337
0.000721835
0.00070577
0.000690392
0.000675658
0.000661512
0.000647915
0.000634833
0.000622238
0.000610105
0.00059841
0.000587135
0.000576225
0.000565675
0.000555483
0.000545638
0.000536125
0.000526927
0.000518031
0.000509422
0.000501088
0.000493016
0.000485193
0.00047761
0.000470255
0.000463119
0.000456193
0.000449467
0.000442932
0.000436581
0.000430409
0.000424411
0.000418581
0.000412915
0.000407405
0.000402047
0.000396835
0.000391762
0.000386825
0.000382018
0.000377339
0.000372785
0.000368355
0.000364046
0.000359857
0.000355786
0.00035183
0.000347984
0.000344245
0.00034061
0.000337074
0.000333635
0.000330293
0.000327049
0.000323903
0.000320861
0.000317924
0.000315094
0.000312369
0.000309747
0.000307222
0.000304789
0.000302447
0.000300195
0.000298039
0.000295987
0.000294049
0.000292233
0.000290543
0.000288976
0.000287523
0.000286168
0.000284896
0.000283691
0.000282541
0.000281438
0.000280377
0.000279356
0.000278376
0.000277438
0.000276544
0.000275696
0.000274894
0.000274135
0.000273413
0.000272722
0.000272059
0.00027142
0.000270803
0.000270205
0.000269626
0.000269064
0.000268521
0.000267996
0.00026749
0.000267003
0.000266534
0.000266084
0.000265651
0.000265234
0.00026483
0.00026444
0.000264047
0.000263655
0.00026327
0.000262895
0.000262532
0.000262181
0.000261841
0.000261513
0.000261196
0.000260889
0.000260593
0.000260306
0.000260029
0.00025976
0.0002595
0.000259247
0.000259003
0.000258767
0.000258538
0.000258317
0.000258104
0.000257898
0.000257701
0.000257474
0.000257254
0.000257044
0.000256843
0.000256648
0.000256461
0.000256278
0.000256101
0.000255929
0.000255762
0.0002556
0.000255442
0.000255288
0.000255137
0.00025499
0.000254846
0.000254705
0.000254567
0.000254432
0.0002543
0.000254171
0.000254044
0.000253921
0.0002538
0.000253682
0.000253567
0.000253454
0.000253343
0.000253234
0.000253128
0.000253023
0.00025292
0.000252814
0.000252704
0.000252592
0.000252479
0.000252364
0.00025225
0.000252134
0.000252018
0.000251901
0.000251782
0.000251662
0.000251539
0.000251415
0.000251288
0.000251158
0.000251024
0.000250887
0.000250746
0.0002506
0.000250448
0.000250291
0.000250126
0.000249953
0.00024977
0.000249579
0.000249377
0.000249165
0.000248941
0.000248705
0.000248455
0.00024819
0.000247909
0.000247611
0.000247294
0.000246956
0.000246596
0.000246211
0.000245799
0.000245359
0.000244888
0.000244382
0.00024384
0.000243259
0.000242634
0.000241964
0.000241244
0.00024047
0.00023964
0.00023875
0.000237793
0.000236766
0.000235663
0.000234483
0.000233227
0.000231894
0.000230489
0.000229016
0.000227486
0.000225911
0.000224312
0.000222715
0.000221153
0.000219665
0.000218297
0.000217094
0.000216101
0.000215356
0.000214877
0.000214647
0.000214643
0.000214869
0.000215331
0.000215956
0.000216502
0.000216596
0.119031
0.0883143
0.0665787
0.0513503
0.0406093
0.0329044
0.0272543
0.0230119
0.0197513
0.0171902
0.0151382
0.0134645
0.0120774
0.0109117
0.00991962
0.00906604
0.00832446
0.00767466
0.00710099
0.00659117
0.00613545
0.00572599
0.00535643
0.00502153
0.00471697
0.00443911
0.00418489
0.00395169
0.00373729
0.00353974
0.00335737
0.00318869
0.00303243
0.00288744
0.0027527
0.0026273
0.00251045
0.00240143
0.00229957
0.00220429
0.00211506
0.0020314
0.00195287
0.00187906
0.0018096
0.00174415
0.00168238
0.00162401
0.00156879
0.0015165
0.00146695
0.00141997
0.00137537
0.00133302
0.00129274
0.00125447
0.00121811
0.00118354
0.00115052
0.00111905
0.0010891
0.00106057
0.00103335
0.00100707
0.000982047
0.000958167
0.000935336
0.00091348
0.000892544
0.000872472
0.000853162
0.000834598
0.000816763
0.000799622
0.000783139
0.00076728
0.000752011
0.000737302
0.000723123
0.00070945
0.000696251
0.000683503
0.000671187
0.000659283
0.000647777
0.000636648
0.000625881
0.000615459
0.000605367
0.00059559
0.000586113
0.000576925
0.000568011
0.000559361
0.000550963
0.000542807
0.000534883
0.000527181
0.000519693
0.000512411
0.000505327
0.000498436
0.00049173
0.000485202
0.000478846
0.000472657
0.000466628
0.000460754
0.000455029
0.000449448
0.000444008
0.000438705
0.000433536
0.000428496
0.000423581
0.000418789
0.000414116
0.000409558
0.000405112
0.000400774
0.000396541
0.000392409
0.000388378
0.000384446
0.000380614
0.000376881
0.000373246
0.000369708
0.000366263
0.000362907
0.000359638
0.000356454
0.000353356
0.000350345
0.000347422
0.00034459
0.000341851
0.000339207
0.000336659
0.000334199
0.000331824
0.000329534
0.000327329
0.00032521
0.000323181
0.000321249
0.000319419
0.000317697
0.000316084
0.000314577
0.000313168
0.000311845
0.000310585
0.00030938
0.000308225
0.000307115
0.000306045
0.000305013
0.000304017
0.00030306
0.00030214
0.000301259
0.000300416
0.000299609
0.000298838
0.000298098
0.000297386
0.0002967
0.000296036
0.000295397
0.000294709
0.000294045
0.000293411
0.000292805
0.000292223
0.000291663
0.000291125
0.000290606
0.000290105
0.000289622
0.000289155
0.000288702
0.000288263
0.000287837
0.000287424
0.000287024
0.000286637
0.000286262
0.000285899
0.000285548
0.000285208
0.000284878
0.00028456
0.000284246
0.000283936
0.000283631
0.000283333
0.000283042
0.000282758
0.000282482
0.000282213
0.000281951
0.000281696
0.000281448
0.000281205
0.000280967
0.000280733
0.000280503
0.000280278
0.000280057
0.000279841
0.00027963
0.000279423
0.00027922
0.000279022
0.000278829
0.000278639
0.000278454
0.000278273
0.000278095
0.000277921
0.000277751
0.000277583
0.000277417
0.000277252
0.000277088
0.000276924
0.000276761
0.000276597
0.000276433
0.000276269
0.000276105
0.00027594
0.000275775
0.000275609
0.000275442
0.000275273
0.000275103
0.000274931
0.000274756
0.000274578
0.000274396
0.000274211
0.000274021
0.000273825
0.000273624
0.000273413
0.000273191
0.000272961
0.000272722
0.000272473
0.000272213
0.000271943
0.00027166
0.000271363
0.000271051
0.000270722
0.000270376
0.00027001
0.000269623
0.000269213
0.000268777
0.000268313
0.00026782
0.000267295
0.000266734
0.000266136
0.000265497
0.000264813
0.000264081
0.000263298
0.000262459
0.00026156
0.000260597
0.000259566
0.000258463
0.00025727
0.000255996
0.00025464
0.000253197
0.000251668
0.000250053
0.000248356
0.000246585
0.000244753
0.00024288
0.00024099
0.000239119
0.000237311
0.000235617
0.000234098
0.000232815
0.000231829
0.000231181
0.000230892
0.000230968
0.000231418
0.000232229
0.000233293
0.000234355
0.121484
0.0932395
0.0723606
0.0571178
0.0459751
0.0377429
0.0315631
0.0268372
0.0231535
0.0202281
0.0178642
0.0159231
0.0143059
0.0129408
0.0117751
0.0107692
0.00989328
0.00912423
0.00844416
0.00783897
0.00729738
0.00681032
0.00637037
0.00597144
0.00560846
0.00527717
0.00497397
0.00469578
0.00443997
0.00420425
0.00398662
0.00378535
0.00359889
0.00342589
0.00326515
0.00311558
0.00297623
0.00284623
0.0027248
0.00261125
0.00250493
0.00240527
0.00231174
0.00222386
0.00214117
0.00206325
0.00198972
0.00192023
0.00185449
0.00179227
0.00173331
0.00167743
0.00162439
0.00157405
0.00152615
0.00148069
0.00143756
0.00139657
0.00135725
0.00131993
0.00128444
0.00125062
0.00121837
0.00118749
0.00115797
0.00112974
0.00110273
0.00107687
0.0010521
0.00102835
0.00100556
0.000983654
0.000962603
0.000942364
0.0009229
0.000904171
0.000886138
0.000868766
0.00085202
0.00083587
0.000820288
0.000805244
0.000790712
0.00077667
0.000763093
0.000749961
0.000737254
0.000724953
0.00071304
0.000701497
0.000690308
0.000679457
0.00066893
0.000658713
0.000648792
0.000639157
0.000629794
0.000620694
0.000611845
0.000603238
0.000594864
0.000586714
0.000578781