/*--------------------------------*- C++ -*----------------------------------*\
  =========                 |
  \\      /  F ield         | OpenFOAM: The Open Source CFD Toolbox
   \\    /   O peration     | Website:  https://openfoam.org
    \\  /    A nd           | Version:  8
     \\/     M anipulation  |
\*---------------------------------------------------------------------------*/
FoamFile
{
    version     2.0;
    format      ascii;
    class       volScalarField;
    location    "0.03";
    object      nuTilda;
}
// * * * * * * * * * * * * * * * * * * * * * * * * * * * * * * * * * * * * * //

dimensions      [0 2 -1 0 0 0 0];

internalField   nonuniform List<scalar> 
104000
(
0.0159553
0.00531393
0.00242583
0.00146974
0.00101839
0.000765524
0.000606183
0.000497714
0.000419688
0.000361179
0.000315844
0.000279772
0.000250435
0.00022613
0.000205677
0.00018823
0.000173171
0.000160048
0.000148543
0.000138387
0.000129398
0.000121454
0.000114447
0.000108239
0.000102665
9.75578e-05
9.27704e-05
8.81862e-05
8.37236e-05
7.9336e-05
7.50306e-05
7.08933e-05
6.70615e-05
6.36235e-05
6.05652e-05
5.7817e-05
5.53122e-05
5.30057e-05
5.08705e-05
4.88895e-05
4.70499e-05
4.53416e-05
4.37552e-05
4.22838e-05
4.09249e-05
3.96931e-05
3.86435e-05
3.78807e-05
3.77409e-05
3.8539e-05
3.9404e-05
4.01293e-05
4.07057e-05
4.11473e-05
4.14601e-05
4.16586e-05
4.17609e-05
4.17892e-05
4.17687e-05
4.17191e-05
4.16498e-05
4.15636e-05
4.14627e-05
4.1351e-05
4.12328e-05
4.11118e-05
4.09902e-05
4.08691e-05
4.07488e-05
4.06292e-05
4.051e-05
4.03907e-05
4.0271e-05
4.01505e-05
4.00291e-05
3.99067e-05
3.97833e-05
3.96591e-05
3.95348e-05
3.94116e-05
3.92914e-05
3.91765e-05
3.9069e-05
3.89703e-05
3.88802e-05
3.87977e-05
3.87208e-05
3.86479e-05
3.85772e-05
3.85075e-05
3.84381e-05
3.83684e-05
3.82984e-05
3.82281e-05
3.81579e-05
3.80883e-05
3.80199e-05
3.79535e-05
3.78895e-05
3.78284e-05
3.77702e-05
3.77146e-05
3.76612e-05
3.76096e-05
3.75592e-05
3.75096e-05
3.74605e-05
3.74118e-05
3.73632e-05
3.7315e-05
3.7267e-05
3.72196e-05
3.71729e-05
3.71271e-05
3.70823e-05
3.70385e-05
3.69958e-05
3.6954e-05
3.69133e-05
3.68731e-05
3.68333e-05
3.67937e-05
3.67542e-05
3.67151e-05
3.66763e-05
3.66379e-05
3.66e-05
3.65627e-05
3.65261e-05
3.649e-05
3.64546e-05
3.64198e-05
3.63856e-05
3.63519e-05
3.63188e-05
3.62861e-05
3.62539e-05
3.6222e-05
3.61906e-05
3.61595e-05
3.61289e-05
3.60985e-05
3.60686e-05
3.6039e-05
3.60098e-05
3.5981e-05
3.59524e-05
3.59243e-05
3.58964e-05
3.58688e-05
3.58415e-05
3.58144e-05
3.57876e-05
3.5761e-05
3.57347e-05
3.57086e-05
3.56828e-05
3.56571e-05
3.56316e-05
3.56064e-05
3.55812e-05
3.55563e-05
3.55314e-05
3.55069e-05
3.54818e-05
3.54564e-05
3.54308e-05
3.54056e-05
3.53807e-05
3.53562e-05
3.53319e-05
3.53077e-05
3.52838e-05
3.52599e-05
3.52362e-05
3.52125e-05
3.51889e-05
3.51654e-05
3.51419e-05
3.51185e-05
3.50952e-05
3.50719e-05
3.50486e-05
3.50254e-05
3.50022e-05
3.49791e-05
3.49559e-05
3.49328e-05
3.49096e-05
3.48865e-05
3.48633e-05
3.48401e-05
3.48168e-05
3.47935e-05
3.47701e-05
3.47466e-05
3.4723e-05
3.46993e-05
3.46754e-05
3.46514e-05
3.46272e-05
3.46028e-05
3.45782e-05
3.45533e-05
3.45281e-05
3.45027e-05
3.44769e-05
3.44508e-05
3.44243e-05
3.43973e-05
3.43699e-05
3.4342e-05
3.43135e-05
3.42844e-05
3.42547e-05
3.42242e-05
3.4193e-05
3.4161e-05
3.41281e-05
3.40942e-05
3.40594e-05
3.40234e-05
3.39862e-05
3.39477e-05
3.39078e-05
3.38664e-05
3.38234e-05
3.37787e-05
3.37321e-05
3.36835e-05
3.36328e-05
3.35797e-05
3.35242e-05
3.3466e-05
3.34048e-05
3.33405e-05
3.32729e-05
3.32015e-05
3.31262e-05
3.30465e-05
3.29622e-05
3.28728e-05
3.27779e-05
3.2677e-05
3.25697e-05
3.24553e-05
3.23332e-05
3.22028e-05
3.20631e-05
3.19135e-05
3.17529e-05
3.15803e-05
3.13945e-05
3.11941e-05
3.09776e-05
3.07433e-05
3.04893e-05
3.02133e-05
2.99128e-05
2.95849e-05
2.92262e-05
2.88329e-05
2.84006e-05
2.79243e-05
2.73982e-05
2.68161e-05
2.61715e-05
2.54585e-05
2.46753e-05
2.38392e-05
2.28762e-05
2.18908e-05
2.12078e-05
2.08229e-05
2.05662e-05
2.03414e-05
2.01172e-05
1.98856e-05
1.96473e-05
1.94414e-05
1.92343e-05
1.9017e-05
1.87869e-05
1.85393e-05
1.82652e-05
1.7951e-05
1.75929e-05
1.71627e-05
1.65747e-05
1.57214e-05
1.44974e-05
1.29334e-05
1.17516e-05
1.1816e-05
1.1866e-05
1.17034e-05
1.12447e-05
1.05702e-05
9.97763e-06
1.06084e-05
0.0648432
0.0242859
0.0118098
0.00715828
0.00495851
0.00371964
0.00293803
0.00240578
0.00202296
0.00173596
0.00151368
0.00133692
0.00119326
0.00107436
0.000974407
0.000889253
0.000815868
0.000752025
0.000696149
0.000646767
0.000602799
0.000563414
0.000527947
0.000495862
0.000466722
0.000440165
0.000415888
0.000393637
0.000373219
0.000354441
0.000337128
0.000321123
0.000306289
0.000292505
0.000279674
0.000267713
0.000256556
0.000246138
0.000236396
0.000227275
0.000218722
0.000210692
0.000203145
0.000196045
0.000189361
0.00018306
0.000177114
0.000171501
0.000166228
0.000161278
0.000156583
0.000152122
0.000147883
0.000143856
0.000140042
0.000136468
0.000133228
0.000130494
0.00012842
0.000126982
0.000125996
0.000125251
0.000124594
0.000123938
0.000123245
0.000122503
0.000121714
0.000120885
0.000120024
0.000119139
0.000118237
0.000117323
0.000116402
0.000115476
0.000114549
0.000113625
0.000112707
0.000111802
0.00011092
0.000110078
0.000109298
0.000108605
0.000108015
0.000107536
0.000107157
0.000106861
0.000106625
0.000106429
0.000106253
0.000106083
0.000105907
0.00010572
0.000105519
0.000105302
0.000105076
0.000104846
0.000104619
0.000104405
0.000104212
0.000104043
0.000103899
0.00010378
0.000103679
0.000103593
0.000103515
0.000103441
0.000103366
0.000103288
0.000103205
0.000103118
0.000103027
0.000102934
0.000102842
0.000102754
0.000102672
0.000102597
0.00010253
0.00010247
0.000102418
0.000102368
0.000102317
0.000102263
0.000102206
0.000102146
0.000102085
0.000102024
0.000101964
0.000101906
0.000101852
0.000101801
0.000101755
0.000101713
0.000101676
0.000101643
0.000101614
0.000101588
0.000101565
0.000101545
0.000101527
0.000101511
0.000101497
0.000101485
0.000101475
0.000101468
0.000101463
0.00010146
0.000101459
0.000101461
0.000101465
0.000101471
0.000101478
0.000101487
0.000101498
0.00010151
0.000101524
0.000101539
0.000101556
0.000101574
0.000101593
0.000101614
0.000101637
0.00010166
0.000101685
0.000101713
0.000101726
0.000101725
0.000101714
0.000101699
0.000101682
0.000101665
0.000101649
0.000101634
0.000101621
0.000101609
0.000101598
0.000101589
0.00010158
0.000101573
0.000101567
0.000101561
0.000101556
0.000101552
0.000101549
0.000101546
0.000101545
0.000101544
0.000101544
0.000101545
0.000101547
0.00010155
0.000101553
0.000101557
0.000101563
0.000101569
0.000101575
0.000101583
0.000101591
0.0001016
0.000101609
0.000101619
0.000101629
0.000101639
0.00010165
0.000101662
0.000101674
0.000101686
0.000101699
0.000101712
0.000101726
0.00010174
0.000101755
0.00010177
0.000101786
0.000101802
0.000101818
0.000101835
0.000101852
0.00010187
0.000101887
0.000101905
0.000101924
0.000101942
0.000101961
0.00010198
0.000101999
0.000102018
0.000102037
0.000102056
0.000102075
0.000102093
0.00010211
0.000102127
0.000102143
0.000102159
0.000102173
0.000102188
0.000102201
0.000102214
0.000102226
0.000102237
0.000102247
0.000102256
0.000102264
0.00010227
0.000102275
0.000102278
0.000102279
0.000102278
0.000102275
0.000102268
0.000102259
0.000102247
0.000102231
0.00010221
0.000102185
0.000102154
0.000102117
0.000102074
0.000102023
0.000101963
0.000101894
0.000101814
0.000101722
0.000101615
0.000101493
0.000101353
0.000101192
0.000101007
0.000100803
0.000100462
0.000100063
9.96229e-05
9.91635e-05
9.8693e-05
9.82064e-05
9.76944e-05
9.71475e-05
9.65574e-05
9.59154e-05
9.52153e-05
9.44495e-05
9.36058e-05
9.26666e-05
9.16059e-05
9.03834e-05
8.89486e-05
8.72647e-05
8.52206e-05
8.25361e-05
7.88056e-05
7.34787e-05
6.56947e-05
5.75615e-05
5.60517e-05
5.55303e-05
5.44916e-05
5.23414e-05
4.89689e-05
4.46512e-05
4.04117e-05
0.0851596
0.0411464
0.0229717
0.0146698
0.01035
0.0078218
0.00620027
0.00508699
0.00428244
0.00367746
0.00320794
0.00283404
0.00252985
0.00227785
0.00206588
0.00188519
0.00172942
0.00159379
0.00147468
0.00136928
0.0012754
0.00119128
0.00111553
0.00104701
0.000984764
0.000928027
0.000876142
0.000828563
0.000784909
0.000744716
0.000707609
0.000673274
0.00064144
0.000611873
0.000584365
0.000558743
0.000534858
0.00051256
0.00049171
0.000472185
0.000453877
0.000436688
0.000420535
0.000405343
0.000391041
0.00037756
0.000364837
0.000352815
0.000341447
0.000330688
0.00032049
0.000310814
0.000301624
0.000292889
0.00028458
0.000276673
0.000269149
0.000261996
0.000255206
0.00024877
0.000242671
0.000236888
0.000231398
0.000226173
0.000221192
0.000216433
0.000211879
0.000207518
0.000203338
0.00019933
0.000195481
0.000191781
0.000188222
0.000184797
0.000181501
0.000178335
0.000175301
0.000172413
0.000169704
0.000167226
0.000165041
0.000163191
0.000161674
0.000160445
0.000159434
0.000158575
0.000157811
0.000157102
0.000156419
0.000155744
0.000155066
0.000154379
0.000153684
0.00015299
0.000152311
0.000151663
0.000151063
0.000150527
0.00015006
0.00014966
0.000149314
0.000149011
0.000148736
0.000148478
0.000148227
0.000147976
0.00014772
0.000147459
0.000147193
0.000146925
0.000146661
0.000146406
0.000146165
0.000145942
0.000145737
0.00014555
0.00014538
0.000145223
0.00014508
0.000144925
0.000144759
0.000144586
0.000144411
0.000144236
0.000144065
0.000143898
0.000143737
0.000143584
0.00014344
0.000143305
0.000143179
0.000143062
0.000142954
0.000142852
0.000142757
0.000142666
0.000142581
0.0001425
0.000142423
0.00014235
0.000142282
0.000142218
0.00014216
0.000142106
0.000142058
0.000142013
0.000141974
0.000141938
0.000141906
0.000141877
0.000141851
0.000141829
0.000141809
0.000141792
0.000141778
0.000141767
0.000141759
0.000141754
0.000141751
0.00014175
0.000141752
0.000141756
0.000141761
0.000141778
0.000141702
0.000141613
0.000141528
0.000141447
0.000141369
0.000141293
0.000141217
0.000141143
0.000141069
0.000140996
0.000140924
0.000140852
0.000140781
0.000140711
0.000140642
0.000140574
0.000140507
0.000140441
0.000140376
0.000140312
0.00014025
0.000140189
0.000140129
0.00014007
0.000140013
0.000139957
0.000139903
0.000139849
0.000139797
0.000139747
0.000139697
0.000139649
0.000139602
0.000139555
0.000139509
0.000139463
0.000139419
0.000139375
0.000139331
0.000139289
0.000139247
0.000139206
0.000139166
0.000139127
0.000139088
0.00013905
0.000139013
0.000138976
0.000138941
0.000138906
0.000138871
0.000138837
0.000138804
0.000138771
0.000138739
0.000138707
0.000138676
0.000138645
0.000138615
0.000138585
0.000138556
0.000138527
0.000138497
0.000138467
0.000138436
0.000138405
0.000138373
0.00013834
0.000138307
0.000138273
0.000138238
0.000138203
0.000138168
0.000138132
0.000138095
0.000138058
0.00013802
0.000137981
0.000137941
0.000137901
0.000137859
0.000137816
0.000137772
0.000137727
0.000137679
0.000137631
0.00013758
0.000137527
0.000137472
0.000137414
0.000137353
0.00013729
0.000137223
0.000137152
0.000137078
0.000136999
0.000136916
0.000136828
0.000136734
0.000136635
0.000136529
0.000136416
0.000136295
0.000136165
0.000136029
0.000135875
0.000135694
0.000135489
0.000135261
0.000135011
0.000134738
0.000134444
0.000134128
0.000133788
0.000133422
0.000133027
0.000132598
0.000132131
0.000131616
0.000131044
0.000130394
0.000129643
0.000128763
0.000127714
0.000126409
0.000124718
0.000122491
0.000119482
0.000115911
0.000113329
0.000111562
0.000109566
0.000106295
0.000101133
9.38176e-05
8.5319e-05
0.0976669
0.055005
0.0337765
0.0226695
0.0163873
0.012536
0.0100027
0.00823824
0.00695177
0.00597882
0.00522071
0.00461525
0.00412158
0.00371196
0.00336692
0.0030725
0.00281845
0.00259709
0.00240257
0.00223036
0.0020769
0.00193938
0.00181551
0.00170345
0.00160165
0.00150887
0.00142402
0.00134622
0.00127471
0.00120881
0.00114797
0.00109167
0.00103948
0.00099101
0.000945932
0.000903969
0.00086487
0.000828372
0.000794245
0.000762291
0.000732332
0.000704212
0.000677795
0.00065296
0.000629583
0.000607549
0.000586752
0.000567096
0.000548499
0.000530889
0.000514197
0.000498361
0.000483323
0.00046903
0.000455435
0.000442496
0.000430178
0.000418447
0.000407272
0.000396619
0.00038646
0.000376772
0.000367527
0.000358698
0.000350256
0.000342178
0.000334444
0.000327036
0.000319937
0.00031313
0.000306592
0.000300304
0.000294252
0.000288429
0.000282826
0.000277435
0.000272246
0.000267253
0.000262449
0.000257833
0.000253393
0.00024913
0.000245051
0.000241159
0.000237449
0.00023391
0.00023053
0.000227295
0.000224191
0.000221208
0.000218343
0.000215596
0.000212981
0.000210525
0.000208271
0.000206236
0.000204449
0.000202911
0.00020159
0.000200436
0.0001994
0.000198441
0.000197529
0.000196644
0.000195773
0.000194909
0.000194052
0.000193207
0.000192383
0.000191591
0.000190845
0.000190151
0.000189514
0.000188931
0.000188397
0.000187904
0.000187441
0.000187
0.000186588
0.00018607
0.000185555
0.000185058
0.000184579
0.000184118
0.000183675
0.000183253
0.000182852
0.000182475
0.000182119
0.000181785
0.000181469
0.000181169
0.000180882
0.000180607
0.000180342
0.000180086
0.000179837
0.000179598
0.000179368
0.000179148
0.000178939
0.000178741
0.000178553
0.000178375
0.000178207
0.000178048
0.000177896
0.000177751
0.000177612
0.00017748
0.000177353
0.000177232
0.000177118
0.000177009
0.000176906
0.000176809
0.000176718
0.000176632
0.00017655
0.000176473
0.000176399
0.00017633
0.000176263
0.000176202
0.000176138
0.000176067
0.000175991
0.000175913
0.000175835
0.000175757
0.000175679
0.000175602
0.000175526
0.00017545
0.000175374
0.000175299
0.000175225
0.000175152
0.000175079
0.000175008
0.000174939
0.000174871
0.000174805
0.000174741
0.000174678
0.000174618
0.000174559
0.000174503
0.000174448
0.000174396
0.000174345
0.000174296
0.00017425
0.000174205
0.000174161
0.000174119
0.000174077
0.000174036
0.000173996
0.000173957
0.000173919
0.000173883
0.000173847
0.000173812
0.000173779
0.000173747
0.000173716
0.000173686
0.000173657
0.000173629
0.000173603
0.000173577
0.000173551
0.000173527
0.000173504
0.000173481
0.000173458
0.000173437
0.000173416
0.000173395
0.000173375
0.000173356
0.000173337
0.000173318
0.000173299
0.00017328
0.000173258
0.000173235
0.000173209
0.000173183
0.000173155
0.000173125
0.000173095
0.000173063
0.00017303
0.000172995
0.000172959
0.000172921
0.000172882
0.00017284
0.000172797
0.000172751
0.000172702
0.000172651
0.000172596
0.000172538
0.000172476
0.000172411
0.00017234
0.000172265
0.000172184
0.000172098
0.000172005
0.000171905
0.000171798
0.000171682
0.000171558
0.000171424
0.00017128
0.000171125
0.000170958
0.000170778
0.000170584
0.000170375
0.000170151
0.00016991
0.00016965
0.000169371
0.000169073
0.000168753
0.00016841
0.00016804
0.000167641
0.000167208
0.000166742
0.000166246
0.000165724
0.000165179
0.000164616
0.00016404
0.000163454
0.000162865
0.000162278
0.000161698
0.000161126
0.000160561
0.000159993
0.000159408
0.000158775
0.000158037
0.000157122
0.000155912
0.000154292
0.000152578
0.000151145
0.000149844
0.000148086
0.000145243
0.000140901
0.000135259
0.105933
0.0661522
0.0436134
0.0305677
0.0226528
0.0175769
0.0141431
0.0117088
0.00991355
0.00854518
0.00747308
0.00661338
0.00591028
0.00532548
0.00483196
0.00441021
0.00404582
0.003728
0.00344847
0.00320084
0.00298006
0.00278211
0.00260375
0.00244235
0.00229572
0.00216206
0.00203983
0.00192775
0.00182472
0.00172979
0.00164215
0.00156106
0.00148592
0.00141615
0.00135128
0.00129087
0.00123455
0.00118196
0.0011328
0.00108677
0.00104363
0.00100315
0.000965135
0.000929416
0.000895796
0.000864108
0.000834199
0.000805932
0.000779187
0.000753865
0.000729868
0.000707105
0.00068549
0.00066495
0.000645414
0.000626825
0.000609135
0.000592294
0.000576246
0.000560942
0.000546342
0.00053241
0.000519111
0.000506394
0.000494223
0.000482571
0.000471415
0.000460732
0.000450496
0.000440681
0.000431238
0.000422147
0.000413401
0.000404992
0.000396906
0.000389127
0.000381641
0.000374433
0.000367488
0.000360797
0.000354297
0.000348005
0.000341935
0.000336087
0.000330455
0.000325029
0.000319799
0.000314754
0.000309885
0.000305182
0.000300636
0.000296241
0.000291991
0.000287885
0.000283932
0.000280013
0.000276256
0.000272675
0.000269263
0.000266008
0.000262895
0.000259911
0.000257043
0.000254283
0.000251626
0.000249073
0.000246633
0.000244324
0.000242166
0.000240183
0.000238384
0.000236766
0.00023531
0.000233989
0.000232773
0.000231635
0.000230556
0.000229517
0.000228513
0.000227524
0.000226551
0.000225599
0.00022468
0.000223802
0.000222972
0.000222194
0.000221468
0.00022079
0.000220155
0.000219555
0.000218984
0.000218436
0.000217906
0.000217393
0.000216895
0.000216412
0.000215946
0.0002155
0.000215074
0.000214669
0.000214286
0.000213924
0.00021358
0.000213253
0.00021294
0.000212641
0.000212352
0.000212075
0.000211808
0.000211551
0.000211304
0.000211069
0.000210845
0.000210632
0.00021043
0.000210237
0.000210053
0.000209877
0.000209708
0.000209546
0.00020939
0.00020924
0.000209095
0.000208956
0.000208822
0.000208693
0.000208566
0.000208442
0.000208321
0.000208203
0.000208086
0.000207971
0.000207857
0.000207744
0.000207632
0.000207521
0.000207412
0.000207305
0.000207201
0.000207099
0.000207001
0.000206905
0.000206812
0.000206723
0.000206636
0.000206553
0.000206473
0.000206395
0.000206321
0.00020625
0.000206182
0.000206117
0.000206054
0.000205994
0.000205934
0.000205874
0.000205815
0.000205758
0.000205703
0.000205649
0.000205597
0.000205547
0.000205499
0.000205452
0.000205408
0.000205365
0.000205324
0.000205285
0.000205247
0.00020521
0.000205175
0.000205141
0.000205108
0.000205077
0.000205046
0.000205016
0.000204987
0.000204959
0.000204932
0.000204906
0.00020488
0.000204855
0.000204831
0.000204807
0.000204783
0.000204754
0.000204719
0.000204682
0.000204644
0.000204604
0.000204563
0.000204521
0.000204478
0.000204433
0.000204386
0.000204338
0.000204288
0.000204236
0.000204181
0.000204123
0.000204063
0.000203999
0.000203932
0.00020386
0.000203784
0.000203704
0.000203618
0.000203527
0.000203429
0.000203324
0.000203211
0.00020309
0.00020296
0.00020282
0.00020267
0.000202508
0.000202334
0.000202146
0.000201944
0.000201726
0.000201491
0.000201237
0.000200963
0.000200668
0.00020035
0.000200006
0.000199636
0.000199236
0.000198806
0.000198343
0.000197845
0.00019731
0.000196737
0.000196093
0.000195406
0.000194678
0.000193911
0.000193104
0.000192262
0.000191391
0.000190499
0.000189597
0.000188699
0.00018782
0.000186977
0.000186186
0.000185464
0.000184819
0.000184255
0.000183756
0.000183293
0.000182808
0.000182194
0.00018144
0.000180708
0.000180095
0.000179414
0.000178228
0.000176041
0.00017262
0.11169
0.075113
0.0523237
0.0380576
0.028877
0.0227402
0.01847
0.0153846
0.013079
0.0113055
0.00990661
0.00877927
0.00785376
0.00708167
0.00642854
0.00586931
0.0053854
0.00496277
0.00459067
0.00426074
0.00396637
0.00370229
0.00346424
0.00324874
0.00305292
0.00287437
0.00271108
0.00256134
0.0024237
0.00229688
0.0021798
0.0020715
0.00197115
0.001878
0.00179141
0.0017108
0.00163565
0.0015655
0.00149993
0.00143856
0.00138105
0.00132711
0.00127645
0.00122882
0.00118399
0.00114173
0.00110184
0.00106415
0.00102849
0.000994737
0.000962759
0.000932427
0.00090363
0.000876267
0.000850245
0.000825496
0.000801956
0.000779558
0.000758209
0.000737849
0.000718431
0.000699908
0.000682228
0.000665302
0.000649095
0.000633587
0.000618749
0.000604544
0.000590935
0.000577887
0.000565286
0.000553159
0.000541512
0.000530327
0.000519577
0.000509237
0.000499286
0.000489702
0.000480467
0.000471569
0.000462815
0.000454388
0.000446283
0.000438472
0.000430936
0.000423659
0.000416628
0.000409831
0.000403258
0.000396898
0.000390741
0.000384777
0.000378999
0.000373398
0.000367972
0.000362698
0.000357576
0.000352609
0.000347797
0.000343139
0.000338629
0.00033426
0.000330026
0.000325922
0.000321939
0.000318075
0.000314327
0.000310693
0.000307176
0.000303779
0.000300506
0.000297359
0.000294338
0.000291437
0.000288651
0.000285972
0.000283392
0.000280908
0.000278519
0.000276229
0.000274044
0.000271979
0.000270047
0.000268258
0.000266616
0.00026511
0.000263726
0.000262442
0.00026124
0.000260101
0.000259012
0.000257964
0.000256951
0.000255972
0.000255029
0.000254126
0.000253267
0.000252456
0.000251692
0.000250973
0.000250296
0.000249654
0.000249043
0.000248458
0.000247896
0.000247352
0.000246828
0.000246322
0.000245835
0.000245368
0.000244923
0.000244499
0.000244095
0.00024371
0.000243342
0.00024299
0.00024265
0.000242323
0.000242007
0.0002417
0.000241404
0.000241117
0.000240839
0.000240572
0.000240314
0.000240066
0.000239828
0.000239597
0.000239375
0.00023916
0.000238948
0.000238738
0.00023853
0.000238325
0.000238123
0.000237926
0.000237734
0.000237548
0.000237367
0.000237193
0.000237023
0.00023686
0.000236701
0.000236548
0.0002364
0.000236257
0.000236119
0.000235986
0.000235858
0.000235734
0.000235615
0.000235501
0.000235391
0.000235279
0.000235165
0.000235053
0.000234943
0.000234837
0.000234735
0.000234635
0.000234539
0.000234447
0.000234357
0.00023427
0.000234186
0.000234105
0.000234026
0.00023395
0.000233876
0.000233803
0.000233733
0.000233664
0.000233597
0.000233532
0.000233469
0.000233407
0.000233346
0.000233288
0.00023323
0.000233174
0.00023312
0.000233066
0.000233013
0.000232962
0.000232913
0.000232834
0.000232753
0.000232676
0.0002326
0.000232525
0.00023245
0.000232374
0.000232297
0.000232219
0.000232139
0.000232058
0.000231975
0.000231889
0.000231801
0.000231709
0.000231615
0.000231517
0.000231415
0.000231309
0.000231198
0.000231081
0.000230958
0.000230829
0.000230692
0.000230546
0.000230392
0.000230228
0.000230054
0.000229869
0.000229671
0.00022946
0.000229235
0.000228995
0.000228738
0.000228463
0.000228167
0.000227851
0.000227511
0.000227146
0.000226753
0.000226331
0.000225877
0.000225389
0.000224863
0.000224298
0.00022369
0.000223037
0.000222337
0.000221581
0.000220766
0.000219891
0.000218957
0.000217964
0.000216914
0.000215812
0.000214663
0.000213477
0.000212267
0.000211052
0.000209854
0.000208697
0.000207611
0.000206627
0.000205773
0.00020507
0.000204529
0.000204143
0.000203868
0.000203644
0.000203478
0.000203428
0.000203476
0.000203417
0.000202861
0.000201423
0.115875
0.0823711
0.0599425
0.0449997
0.0348942
0.0278821
0.0228691
0.0191759
0.0163775
0.0142029
0.0124746
0.0110738
0.00991874
0.00895173
0.00813141
0.00742743
0.00681712
0.00628328
0.00581267
0.00539495
0.00502193
0.00468705
0.00438501
0.00411146
0.00386279
0.003636
0.00342855
0.0032383
0.0030634
0.00290226
0.0027535
0.0026159
0.00248842
0.00237012
0.00226017
0.00215783
0.00206244
0.00197341
0.00189022
0.00181239
0.00173948
0.0016711
0.0016069
0.00154655
0.00148975
0.00143621
0.00138569
0.00133795
0.00129277
0.00125
0.00120947
0.00117102
0.00113452
0.00109985
0.00106688
0.00103555
0.00100577
0.000977443
0.000950428
0.000924668
0.000900117
0.000876714
0.000854381
0.000832945
0.000812439
0.000792843
0.000774105
0.000756171
0.000738991
0.00072252
0.000706487
0.00069114
0.000676439
0.000662327
0.000648764
0.000635717
0.000623159
0.000611062
0.000599405
0.000588167
0.000577297
0.000566787
0.000556636
0.000546832
0.000537361
0.000528207
0.000519354
0.00051079
0.000502501
0.000494475
0.000486699
0.000479164
0.000471857
0.00046477
0.000457894
0.000451218
0.000444734
0.000438435
0.000432315
0.00042637
0.000420595
0.000414983
0.000409528
0.000404226
0.000399069
0.000394053
0.000389173
0.000384425
0.000379804
0.000375309
0.000370937
0.000366688
0.000362559
0.000358548
0.000354652
0.000350867
0.000347189
0.000343614
0.000340139
0.000336762
0.000333481
0.000330297
0.000327212
0.00032423
0.000321353
0.000318582
0.000315915
0.00031335
0.000310881
0.000308504
0.000306217
0.000304019
0.000301915
0.000299914
0.000298025
0.000296256
0.00029461
0.000293084
0.00029167
0.000290352
0.000289115
0.000287944
0.000286827
0.000285755
0.000284725
0.000283734
0.000282782
0.000281872
0.000281005
0.000280183
0.000279405
0.000278669
0.000277969
0.0002773
0.000276658
0.000276039
0.000275442
0.000274863
0.000274302
0.000273759
0.000273233
0.000272725
0.000272236
0.000271765
0.000271312
0.000270877
0.000270458
0.000270054
0.000269664
0.000269288
0.000268908
0.000268529
0.000268158
0.000267796
0.000267445
0.000267106
0.000266778
0.000266461
0.000266155
0.000265859
0.000265573
0.000265297
0.000265029
0.00026477
0.000264519
0.000264275
0.00026404
0.000263812
0.000263592
0.000263379
0.000263173
0.000262974
0.000262785
0.000262566
0.000262354
0.000262151
0.000261957
0.00026177
0.000261589
0.000261414
0.000261243
0.000261078
0.000260917
0.000260761
0.000260608
0.00026046
0.000260315
0.000260173
0.000260035
0.000259899
0.000259766
0.000259636
0.000259509
0.000259384
0.000259263
0.000259144
0.000259028
0.000258914
0.000258803
0.000258695
0.000258588
0.000258484
0.000258381
0.00025828
0.000258181
0.000258079
0.000257974
0.000257866
0.000257756
0.000257647
0.000257536
0.000257425
0.000257314
0.000257201
0.000257087
0.000256971
0.000256853
0.000256734
0.000256611
0.000256486
0.000256358
0.000256226
0.000256091
0.00025595
0.000255805
0.000255653
0.000255495
0.000255328
0.000255153
0.000254969
0.000254775
0.000254571
0.000254356
0.000254129
0.000253889
0.000253635
0.000253366
0.00025308
0.000252775
0.000252451
0.000252105
0.000251736
0.000251341
0.000250919
0.000250467
0.000249983
0.000249463
0.000248906
0.000248308
0.000247666
0.000246976
0.000246236
0.000245442
0.000244591
0.000243676
0.000242695
0.000241642
0.000240516
0.000239318
0.000238048
0.00023671
0.000235309
0.000233853
0.000232357
0.00023084
0.000229326
0.000227846
0.000226438
0.000225144
0.000224007
0.00022307
0.000222367
0.000221915
0.000221698
0.000221695
0.000221908
0.000222344
0.000222933
0.000223448
0.000223537
0.119031
0.0883143
0.0665787
0.0513503
0.0406093
0.0329044
0.0272543
0.0230119
0.0197513
0.0171902
0.0151382
0.0134645
0.0120774
0.0109117
0.00991962
0.00906605
0.00832447
0.00767467
0.007101
0.00659118
0.00613546
0.005726
0.00535644
0.00502155
0.00471699
0.00443913
0.00418491
0.00395172
0.00373732
0.00353977
0.0033574
0.00318873
0.00303247
0.00288748
0.00275274
0.00262736
0.00251051
0.00240149
0.00229963
0.00220436
0.00211514
0.00203149
0.00195296
0.00187916
0.00180971
0.00174427
0.00168251
0.00162415
0.00156893
0.00151665
0.00146712
0.00142014
0.00137556
0.00133322
0.00129295
0.00125469
0.00121835
0.0011838
0.00115079
0.00111934
0.0010894
0.00106088
0.00103368
0.00100743
0.000982418
0.000958556
0.000935744
0.000913909
0.000892992
0.000872942
0.000853653
0.000835111
0.000817298
0.000800181
0.000783722
0.000767887
0.000752642
0.000737958
0.000723805
0.000710159
0.000696987
0.000684267
0.000671978
0.000660104
0.000648626
0.000637527
0.000626791
0.000616399
0.000606339
0.000596593
0.000587149
0.000577994
0.000569114
0.000560498
0.000552135
0.000544014
0.000536125
0.000528459
0.000521008
0.000513763
0.000506717
0.000499864
0.000493197
0.000486708
0.000480392
0.000474243
0.000468255
0.000462421
0.000456738
0.000451199
0.000445802
0.000440542
0.000435415
0.000430419
0.000425548
0.0004208
0.000416172
0.000411659
0.000407258
0.000402966
0.000398779
0.000394693
0.000390708
0.000386823
0.000383038
0.000379352
0.000375764
0.000372273
0.000368874
0.000365565
0.000362343
0.000359207
0.000356156
0.000353191
0.000350314
0.000347528
0.000344835
0.000342236
0.000339731
0.000337315
0.000334984
0.000332736
0.000330572
0.000328493
0.000326504
0.00032461
0.000322818
0.000321131
0.000319552
0.000318076
0.000316697
0.000315403
0.00031417
0.000312992
0.000311862
0.000310777
0.000309732
0.000308723
0.000307751
0.000306816
0.000305917
0.000305057
0.000304234
0.000303448
0.000302695
0.000301973
0.000301279
0.00030061
0.000299962
0.00029934
0.000298669
0.000298021
0.000297404
0.000296813
0.000296246
0.000295701
0.000295177
0.000294672
0.000294184
0.000293714
0.000293259
0.000292818
0.000292391
0.000291977
0.000291575
0.000291186
0.000290809
0.000290444
0.000290091
0.00028975
0.00028942
0.000289099
0.00028879
0.000288484
0.000288183
0.000287887
0.000287597
0.000287314
0.000287039
0.00028677
0.000286509
0.000286255
0.000286007
0.000285765
0.000285529
0.000285298
0.000285071
0.000284848
0.00028463
0.000284415
0.000284205
0.000284
0.000283799
0.000283602
0.00028341
0.000283222
0.000283039
0.000282859
0.000282683
0.000282511
0.000282342
0.000282176
0.000282013
0.000281852
0.000281692
0.000281533
0.000281375
0.000281216
0.000281057
0.000280898
0.000280739
0.00028058
0.00028042
0.00028026
0.000280099
0.000279937
0.000279774
0.000279608
0.000279441
0.000279272
0.000279099
0.000278923
0.000278743
0.000278559
0.00027837
0.000278175
0.00027797
0.000277755
0.000277532
0.0002773
0.000277059
0.000276808
0.000276546
0.000276272
0.000275984
0.000275682
0.000275364
0.000275029
0.000274675
0.0002743
0.000273903
0.000273481
0.000273033
0.000272556
0.000272048
0.000271506
0.000270927
0.000270309
0.000269648
0.000268941
0.000268184
0.000267374
0.000266507
0.000265578
0.000264583
0.00026352
0.00026237
0.000261142
0.000259836
0.000258448
0.000256977
0.000255425
0.000253795
0.000252095
0.000250338
0.000248543
0.000246733
0.000244944
0.000243216
0.000241599
0.000240149
0.000238926
0.000237986
0.000237369
0.000237093
0.000237166
0.000237595
0.000238367
0.000239381
0.000240393
0.121484
0.0932395
0.0723606
0.0571178
0.0459751
0.0377429
0.0315631
0.0268372
0.0231535
0.0202281
0.0178642
0.0159231
0.0143059
0.0129408
0.0117751
0.0107692
0.00989328
0.00912423
0.00844417
0.00783897
0.00729739
0.00681033
0.00637038
0.00597145
0.00560847
0.00527719
0.00497399
0.0046958
0.00443999
0.00420427
0.00398664
0.00378537
0.00359892
0.00342592
0.00326518
0.00311562
0.00297627
0.00284627
0.00272485
0.0026113
0.00250499
0.00240533
0.00231181
0.00222393
0.00214124
0.00206333
0.00198981
0.00192033
0.0018546
0.00179238
0.00173343
0.00167756
0.00162453
0.0015742
0.0015263
0.00148086
0.00143773
0.00139675
0.00135744
0.00132013
0.00128465
0.00125085
0.00121861
0.00118775
0.00115823
0.00113002
0.00110302
0.00107718
0.00105242
0.00102869
0.00100591
0.000984024
0.000962989
0.000942767
0.00092332
0.000904608
0.000886593
0.000869239
0.000852512
0.000836382
0.000820818
0.000805794
0.000791283
0.000777261
0.000763706
0.000750596
0.000737911
0.000725632
0.000713742
0.000702222
0.000691056
0.00068023
0.000669727
0.000659534
0.000649639
0.000640029
0.000630693
0.000621618
0.000612796
0.000604216