/*--------------------------------*- C++ -*----------------------------------*\
  =========                 |
  \\      /  F ield         | OpenFOAM: The Open Source CFD Toolbox
   \\    /   O peration     | Website:  https://openfoam.org
    \\  /    A nd           | Version:  8
     \\/     M anipulation  |
\*---------------------------------------------------------------------------*/
FoamFile
{
    version     2.0;
    format      ascii;
    class       surfaceScalarField;
    location    "0.03";
    object      phi;
}
// * * * * * * * * * * * * * * * * * * * * * * * * * * * * * * * * * * * * * //

dimensions      [0 3 -1 0 0 0 0];

internalField   nonuniform List<scalar> 
206740
(
0.00174438
-0.00131066
0.00246368
-0.000719314
0.00274496
-0.000281285
0.00280805
-6.31091e-05
0.00278926
1.87777e-05
0.00275
3.92266e-05
0.00270877
4.11963e-05
0.00266936
3.93768e-05
0.00263247
3.68492e-05
0.00259817
3.42582e-05
0.00256624
3.18949e-05
0.00253637
2.98176e-05
0.00250834
2.79916e-05
0.00248191
2.63741e-05
0.00245691
2.49422e-05
0.00243317
2.36728e-05
0.00241055
2.25472e-05
0.00238892
2.15492e-05
0.00236817
2.06678e-05
0.00234819
1.98892e-05
0.0023289
1.92077e-05
0.00231018
1.86221e-05
0.00229195
1.81313e-05
0.00227412
1.77257e-05
0.00225662
1.73929e-05
0.00223939
1.7119e-05
0.00222239
1.68947e-05
0.00220557
1.67094e-05
0.00218891
1.65538e-05
0.00217238
1.64134e-05
0.00215599
1.6282e-05
0.00213971
1.61666e-05
0.00212351
1.60862e-05
0.00210736
1.60438e-05
0.00209122
1.60303e-05
0.00207508
1.60276e-05
0.00205894
1.60266e-05
0.00204282
1.60199e-05
0.0020267
1.60098e-05
0.0020106
1.5995e-05
0.00199452
1.59799e-05
0.00197846
1.59624e-05
0.00196242
1.5945e-05
0.0019464
1.59232e-05
0.00193041
1.58967e-05
0.00191446
1.58602e-05
0.00189855
1.58154e-05
0.00188271
1.57546e-05
0.00186693
1.56987e-05
0.00185119
1.56573e-05
0.00183549
1.56241e-05
0.00181982
1.5594e-05
0.00180418
1.55647e-05
0.00178859
1.55249e-05
0.00177305
1.54641e-05
0.00175763
1.5356e-05
0.0017424
1.51668e-05
0.00172748
1.48526e-05
0.00171303
1.43942e-05
0.00169917
1.3806e-05
0.00168597
1.31436e-05
0.00167345
1.24678e-05
0.00166156
1.18333e-05
0.00165024
1.12694e-05
0.0016394
1.07917e-05
0.00162896
1.03981e-05
0.00161883
1.00834e-05
0.00160896
9.8342e-06
0.00159928
9.64034e-06
0.00158975
9.4882e-06
0.00158035
9.36968e-06
0.00157104
9.27446e-06
0.0015618
9.19761e-06
0.00155264
9.13174e-06
0.00154354
9.07369e-06
0.00153449
9.0172e-06
0.0015255
8.95908e-06
0.00151658
8.89227e-06
0.00150775
8.8116e-06
0.00149902
8.70781e-06
0.00149042
8.57384e-06
0.001482
8.40129e-06
0.00147379
8.18781e-06
0.00146583
7.93401e-06
0.00145817
7.64849e-06
0.00145081
7.34202e-06
0.00144376
7.02918e-06
0.00143702
6.72203e-06
0.00143057
6.43226e-06
0.00142439
6.16665e-06
0.00141845
5.9303e-06
0.00141271
5.72369e-06
0.00140715
5.54618e-06
0.00140175
5.39371e-06
0.00139647
5.26179e-06
0.00139132
5.1438e-06
0.00138627
5.03421e-06
0.00138134
4.92672e-06
0.00137651
4.81687e-06
0.0013718
4.70118e-06
0.00136721
4.57914e-06
0.00136275
4.45155e-06
0.00135843
4.32127e-06
0.00135423
4.19135e-06
0.00135016
4.06542e-06
0.0013462
3.94617e-06
0.00134236
3.83594e-06
0.00133862
3.73579e-06
0.00133497
3.64608e-06
0.0013314
3.56604e-06
0.0013279
3.4943e-06
0.00132447
3.42881e-06
0.0013211
3.36738e-06
0.00131779
3.30789e-06
0.00131453
3.24865e-06
0.00131134
3.18864e-06
0.00130821
3.12744e-06
0.00130514
3.0655e-06
0.00130214
3.00286e-06
0.00129919
2.94077e-06
0.00129631
2.88187e-06
0.00129348
2.82778e-06
0.0012907
2.77847e-06
0.00128797
2.73355e-06
0.00128527
2.69198e-06
0.00128262
2.65287e-06
0.00128
2.61496e-06
0.00127742
2.57751e-06
0.00127488
2.53958e-06
0.00127238
2.50082e-06
0.00126992
2.46075e-06
0.0012675
2.41957e-06
0.00126512
2.3772e-06
0.00126279
2.33424e-06
0.0012605
2.29087e-06
0.00125825
2.24776e-06
0.00125605
2.2051e-06
0.00125388
2.16343e-06
0.00125176
2.1227e-06
0.00124968
2.08323e-06
0.00124764
2.04477e-06
0.00124563
2.00743e-06
0.00124366
1.97088e-06
0.00124172
1.93523e-06
0.00123983
1.90014e-06
0.00123796
1.86581e-06
0.00123613
1.83201e-06
0.00123433
1.79898e-06
0.00123257
1.76657e-06
0.00123083
1.73506e-06
0.00122913
1.70427e-06
0.00122746
1.67446e-06
0.00122582
1.6454e-06
0.0012242
1.6173e-06
0.00122261
1.58993e-06
0.00122105
1.56349e-06
0.00121952
1.53774e-06
0.00121801
1.51292e-06
0.00121652
1.48888e-06
0.00121506
1.46595e-06
0.00121361
1.44414e-06
0.00121219
1.42415e-06
0.00121079
1.40663e-06
0.0012094
1.39116e-06
0.00120802
1.37992e-06
0.00120665
1.37654e-06
0.00120527
1.37895e-06
0.00120389
1.38428e-06
0.00120251
1.39009e-06
0.00120111
1.39506e-06
0.00119972
1.39817e-06
0.00119832
1.39927e-06
0.00119693
1.3982e-06
0.00119554
1.39537e-06
0.00119415
1.39089e-06
0.00119277
1.38529e-06
0.00119139
1.37873e-06
0.00119002
1.37167e-06
0.00118866
1.3642e-06
0.00118731
1.3567e-06
0.00118596
1.34917e-06
0.00118463
1.34188e-06
0.0011833
1.33481e-06
0.00118197
1.32815e-06
0.00118065
1.32184e-06
0.00117934
1.31607e-06
0.00117803
1.31075e-06
0.00117673
1.30607e-06
0.00117544
1.30194e-06
0.00117414
1.29853e-06
0.00117285
1.29577e-06
0.00117156
1.29382e-06
0.00117027
1.29259e-06
0.00116898
1.29226e-06
0.0011677
1.29282e-06
0.00116641
1.29448e-06
0.00116511
1.29724e-06
0.00116382
1.3013e-06
0.00116251
1.30664e-06
0.00116121
1.31347e-06
0.00115989
1.32174e-06
0.00115856
1.33163e-06
0.00115722
1.3431e-06
0.00115587
1.35633e-06
0.0011545
1.37129e-06
0.00115312
1.38817e-06
0.00115172
1.40697e-06
0.0011503
1.42787e-06
0.00114885
1.45093e-06
0.00114738
1.47636e-06
0.00114588
1.50419e-06
0.00114435
1.5347e-06
0.00114279
1.56796e-06
0.00114119
1.60423e-06
0.00113955
1.64362e-06
0.00113787
1.68644e-06
0.00113614
1.73281e-06
0.00113436
1.78306e-06
0.00113253
1.83735e-06
0.00113064
1.89602e-06
0.00112868
1.95929e-06
0.00112666
2.02754e-06
0.00112456
2.10099e-06
0.00112239
2.18005e-06
0.00112013
2.26498e-06
0.00111778
2.35625e-06
0.00111533
2.45432e-06
0.00111277
2.55982e-06
0.0011101
2.67319e-06
0.00110731
2.79508e-06
0.00110439
2.92597e-06
0.00110133
3.0665e-06
0.00109812
3.2172e-06
0.00109475
3.37877e-06
0.0010912
3.55182e-06
0.00108747
3.73716e-06
0.00108354
3.93553e-06
0.00107939
4.14786e-06
0.00107502
4.37504e-06
0.00107041
4.61816e-06
0.00106554
4.87827e-06
0.00106038
5.15663e-06
0.00105494
5.45447e-06
0.00104917
5.77323e-06
0.00104306
6.11435e-06
0.00103658
6.47948e-06
0.00102972
6.87027e-06
0.00102243
7.28865e-06
0.0010147
7.73653e-06
0.00100649
8.21608e-06
0.000997767
8.72951e-06
0.000988492
9.2793e-06
0.000978629
9.86797e-06
0.000968136
1.04983e-05
0.000956968
1.11732e-05
0.000945077
1.18957e-05
0.000932413
1.26691e-05
0.000918922
1.34968e-05
0.000904545
1.43822e-05
0.000889221
1.53292e-05
0.000872885
1.63412e-05
0.000855468
1.74222e-05
0.000836898
1.85758e-05
0.000817099
1.98055e-05
0.00079599
2.11145e-05
0.00077349
2.25059e-05
0.000749513
2.39828e-05
0.000723973
2.55469e-05
0.000696774
2.72053e-05
0.000667816
2.89653e-05
0.000637014
3.08087e-05
0.000604316
3.27048e-05
0.000569695
3.46288e-05
0.00053315
3.65532e-05
0.000494716
3.84418e-05
0.000454474
4.02506e-05
0.000412556
4.19269e-05
0.000369155
4.34101e-05
0.000324535
4.46307e-05
0.000279032
4.55137e-05
0.000233062
4.59821e-05
0.000187109
4.59655e-05
0.000141714
4.54092e-05
9.7444e-05
4.42862e-05
5.48346e-05
4.26282e-05
1.42527e-05
4.0604e-05
-2.35371e-05
3.78128e-05
-5.77011e-05
3.41852e-05
-8.84685e-05
3.07857e-05
-0.000116758
2.83072e-05
-0.000142984
2.62411e-05
-0.000165582
2.26143e-05
-0.000182468
1.69022e-05
-0.000190986
8.53583e-06
-0.000189815
-1.15391e-06
-0.000182753
-7.04389e-06
-0.000174306
-8.43052e-06
-0.000167067
-7.22106e-06
-0.000162836
-4.20967e-06
-1.61293e-07
-0.000162633
0.00173816
-0.00149212
0.00202107
-0.00100223
0.00221992
-0.000480135
0.00234813
-0.000191319
0.00242258
-5.56768e-05
0.00246052
1.28656e-06
0.00247693
2.47783e-05
0.00248166
3.46332e-05
0.00248004
3.84481e-05
0.00247489
3.93947e-05
0.00246778
3.89882e-05
0.00245962
3.79497e-05
0.00245097
3.66181e-05
0.00244214
3.51687e-05
0.00243334
3.37011e-05
0.0024247
3.22719e-05
0.00241629
3.09117e-05
0.00240815
2.96384e-05
0.00240031
2.84607e-05
0.00239275
2.7381e-05
0.0023855
2.6402e-05
0.00237852
2.55267e-05
0.00237183
2.4756e-05
0.00236539
2.40844e-05
0.00235921
2.35026e-05
0.00235325
2.29991e-05
0.0023475
2.25638e-05
0.00234194
2.21864e-05
0.00233654
2.18582e-05
0.0023313
2.15695e-05
0.00232618
2.13162e-05
0.00232115
2.11025e-05
0.00231621
2.09375e-05
0.00231134
2.08218e-05
0.00230654
2.07469e-05
0.00230177
2.07002e-05
0.00229704
2.06723e-05
0.00229231
2.06566e-05
0.00228758
2.065e-05
0.00228284
2.06501e-05
0.00227808
2.06556e-05
0.00227329
2.06651e-05
0.00226847
2.06774e-05
0.00226362
2.06904e-05
0.00225874
2.07024e-05
0.00225381
2.07115e-05
0.00224883
2.07178e-05
0.00224378
2.07205e-05
0.00223868
2.07283e-05
0.00223352
2.07423e-05
0.00222832
2.07524e-05
0.00222309
2.07552e-05
0.00221784
2.07496e-05
0.00221257
2.07319e-05
0.00220728
2.06947e-05
0.00220195
2.06262e-05
0.00219654
2.05127e-05
0.002191
2.03413e-05
0.00218523
2.01022e-05
0.0021792
1.97912e-05
0.00217287
1.94159e-05
0.0021663
1.89955e-05
0.00215953
1.85555e-05
0.00215263
1.81197e-05
0.00214567
1.77067e-05
0.0021387
1.73279e-05
0.00213175
1.69888e-05
0.00212486
1.669e-05
0.00211803
1.64291e-05
0.00211128
1.62019e-05
0.00210461
1.60035e-05
0.00209802
1.5829e-05
0.00209151
1.56736e-05
0.00208508
1.5533e-05
0.00207872
1.54026e-05
0.00207244
1.52779e-05
0.00206621
1.51538e-05
0.00206006
1.50241e-05
0.00205396
1.48819e-05
0.00204793
1.47193e-05
0.00204195
1.45289e-05
0.00203602
1.43054e-05
0.00203014
1.40472e-05
0.0020243
1.37566e-05
0.00201849
1.34394e-05
0.00201271
1.31038e-05
0.00200696
1.27595e-05
0.00200126
1.24156e-05
0.00199559
1.20805e-05
0.00198998
1.17607e-05
0.00198444
1.14604e-05
0.00197897
1.11819e-05
0.00197358
1.09254e-05
0.00196827
1.06891e-05
0.00196305
1.04699e-05
0.00195792
1.02633e-05
0.00195288
1.00654e-05
0.00194792
9.87191e-06
0.00194305
9.67917e-06
0.00193826
9.48492e-06
0.00193354
9.28844e-06
0.00192889
9.0904e-06
0.00192431
8.89254e-06
0.0019198
8.69709e-06
0.00191535
8.50649e-06
0.00191097
8.32286e-06
0.00190665
8.14791e-06
0.0019024
7.98267e-06
0.00189821
7.82751e-06
0.00189409
7.68202e-06
0.00189004
7.54523e-06
0.00188605
7.41558e-06
0.00188212
7.29136e-06
0.00187825
7.17084e-06
0.00187445
7.05266e-06
0.00187069
6.93588e-06
0.001867
6.82017e-06
0.00186336
6.70601e-06
0.00185976
6.59316e-06
0.00185622
6.48241e-06
0.00185272
6.37623e-06
0.00184927
6.27519e-06
0.00184587
6.17917e-06
0.00184252
6.08777e-06
0.00183921
6.00044e-06
0.00183594
5.91634e-06
0.00183272
5.83465e-06
0.00182954
5.7545e-06
0.00182641
5.67519e-06
0.00182331
5.59613e-06
0.00182025
5.51699e-06
0.00181723
5.43761e-06
0.00181425
5.35808e-06
0.00181131
5.27857e-06
0.0018084
5.19944e-06
0.00180553
5.121e-06
0.00180269
5.04362e-06
0.00179989
4.9675e-06
0.00179712
4.89286e-06
0.00179438
4.8197e-06
0.00179168
4.74805e-06
0.00178901
4.67779e-06
0.00178637
4.60888e-06
0.00178376
4.54118e-06
0.00178119
4.47466e-06
0.00177865
4.40926e-06
0.00177614
4.34505e-06
0.00177366
4.28201e-06
0.0017712
4.22026e-06
0.00176878
4.15982e-06
0.00176638
4.10075e-06
0.00176402
4.04304e-06
0.00176168
3.98672e-06
0.00175937
3.93174e-06
0.00175708
3.87813e-06
0.00175482
3.82583e-06
0.00175258
3.7749e-06
0.00175037
3.72531e-06
0.00174819
3.67719e-06
0.00174602
3.63065e-06
0.00174388
3.58598e-06
0.00174177
3.54358e-06
0.00173967
3.50499e-06
0.00173759
3.4709e-06
0.00173553
3.44252e-06
0.00173349
3.42031e-06
0.00173147
3.40222e-06
0.00172947
3.38671e-06
0.00172749
3.37273e-06
0.00172553
3.35929e-06
0.00172359
3.34572e-06
0.00172166
3.33153e-06
0.00171974
3.3166e-06
0.00171784
3.30085e-06
0.00171595
3.28441e-06
0.00171407
3.26741e-06
0.0017122
3.25007e-06
0.00171034
3.23256e-06
0.00170849
3.21509e-06
0.00170666
3.19781e-06
0.00170483
3.18091e-06
0.00170301
3.16449e-06
0.0017012
3.14871e-06
0.00169939
3.13363e-06
0.0016976
3.11938e-06
0.00169581
3.10603e-06
0.00169403
3.09369e-06
0.00169226
3.08242e-06
0.00169049
3.07232e-06
0.00168873
3.06346e-06
0.00168698
3.05595e-06
0.00168522
3.04985e-06
0.00168347
3.04523e-06
0.00168173
3.04217e-06
0.00167998
3.04085e-06
0.00167824
3.04142e-06
0.0016765
3.04406e-06
0.00167475
3.04889e-06
0.00167301
3.0561e-06
0.00167126
3.06579e-06
0.0016695
3.07813e-06
0.00166775
3.09324e-06
0.00166598
3.11128e-06
0.00166421
3.13238e-06
0.00166243
3.15672e-06
0.00166064
3.18445e-06
0.00165883
3.2158e-06
0.00165701
3.25093e-06
0.00165518
3.29011e-06
0.00165332
3.33353e-06
0.00165145
3.3815e-06
0.00164955
3.43426e-06
0.00164763
3.49215e-06
0.00164568
3.55547e-06
0.00164371
3.62458e-06
0.0016417
3.69985e-06
0.00163965
3.78168e-06
0.00163757
3.87049e-06
0.00163544
3.96674e-06
0.00163327
4.0709e-06
0.00163105
4.1835e-06
0.00162878
4.30509e-06
0.00162645
4.43626e-06
0.00162405
4.5776e-06
0.00162159
4.72975e-06
0.00161906
4.89338e-06
0.00161645
5.06945e-06
0.00161375
5.25887e-06
0.00161097
5.46262e-06
0.00160808
5.68163e-06
0.0016051
5.91695e-06
0.001602
6.16964e-06
0.00159878
6.44085e-06
0.00159543
6.73178e-06
0.00159194
7.04377e-06
0.0015883
7.3782e-06
0.0015845
7.73662e-06
0.00158053
8.12066e-06
0.00157638
8.53212e-06
0.00157203
8.9729e-06
0.00156747
9.44512e-06
0.00156268
9.95099e-06
0.00155764
1.0493e-05
0.00155234
1.10737e-05
0.00154677
1.16959e-05
0.00154089
1.23627e-05
0.00153468
1.30774e-05
0.00152813
1.38435e-05
0.00152121
1.4665e-05
0.00151388
1.55459e-05
0.00150612
1.64908e-05
0.0014979
1.75044e-05
0.00148918
1.85921e-05
0.00147992
1.97594e-05
0.00147009
2.10124e-05
0.00145963
2.23576e-05
0.0014485
2.38022e-05
0.00143664
2.53536e-05
0.00142401
2.70199e-05
0.00141053
2.88097e-05
0.00139615
3.07323e-05
0.00138077
3.27974e-05
0.00136434
3.50151e-05
0.00134675
3.73962e-05
0.00132792
3.99517e-05
0.00130774
4.26928e-05
0.00128609
4.56311e-05
0.00126286
4.87828e-05
0.00123791
5.21558e-05
0.00121113
5.57565e-05
0.00118235
5.95916e-05
0.0011514
6.36531e-05
0.00111811
6.79231e-05
0.0010823
7.23733e-05
0.00104378
7.69643e-05
0.00100239
8.16411e-05
0.000957993
8.63307e-05
0.000910469
9.09384e-05
0.000859758
9.53466e-05
0.000805864
9.94129e-05
0.000748877
0.000102974
0.000688996
0.000105851
0.000626546
0.000107865
0.000561992
0.000108845
0.000495943
0.000108682
0.000429314
0.000107239
0.000362885
0.000104247
0.000297122
9.99541e-05
0.000232829
9.50853e-05
0.000170984
9.01595e-05
0.000112575
8.46584e-05
5.84563e-05
7.67421e-05
9.70082e-06
6.56701e-05
-3.37931e-05
5.20436e-05
-7.29364e-05
3.80033e-05
-0.000106814
2.68468e-05
-0.000135036
1.9804e-05
-0.000158643
1.63989e-05
-0.000178858
1.60202e-05
1.78462e-05
-0.000196836
0.0017438
-0.00143728
0.00182172
-0.00108016
0.00197626
-0.00063468
0.00211453
-0.0003296
0.00221464
-0.000155798
0.00227989
-6.39733e-05
0.00232052
-1.58615e-05
0.00234542
9.71875e-06
0.00236045
2.34071e-05
0.0023692
3.06288e-05
0.00237392
3.4259e-05
0.00237602
3.58391e-05
0.0023764
3.62186e-05
0.00237566
3.58867e-05
0.0023742
3.51408e-05
0.00237229
3.41644e-05
0.0023701
3.30741e-05
0.00236777
3.19447e-05
0.00236537
3.08254e-05
0.00236298
2.97473e-05
0.00236061
2.87322e-05
0.00235831
2.77951e-05
0.00235608
2.69456e-05
0.00235394
2.61865e-05
0.00235188
2.55155e-05
0.00234991
2.49266e-05
0.00234802
2.44126e-05
0.00234619
2.39659e-05
0.00234442
2.35788e-05
0.0023427
2.32436e-05
0.00234101
2.29561e-05
0.00233935
2.27167e-05
0.00233771
2.25294e-05
0.00233608
2.23941e-05
0.00233448
2.23056e-05
0.00233287
2.22545e-05
0.00233126
2.22328e-05
0.00232963
2.22329e-05
0.00232798
2.22505e-05
0.0023263
2.22808e-05
0.00232459
2.23216e-05
0.00232283
2.23696e-05
0.00232104
2.24233e-05
0.0023192
2.24795e-05
0.00231732
2.25369e-05
0.0023154
2.25928e-05
0.00231342
2.26476e-05
0.0023114
2.27002e-05
0.00230933
2.27541e-05
0.00230722
2.28091e-05
0.00230507
2.28611e-05
0.00230289
2.29049e-05
0.00230066
2.29381e-05
0.0022984
2.29556e-05
0.00229611
2.29533e-05
0.00229377
2.2924e-05
0.00229139
2.2863e-05
0.00228893
2.27659e-05
0.00228637
2.2631e-05
0.00228368
2.24548e-05
0.00228083
2.22387e-05
0.00227781
2.19881e-05
0.00227462
2.17149e-05
0.00227128
2.1431e-05
0.00226782
2.11487e-05
0.00226425
2.08759e-05
0.00226059
2.06194e-05
0.00225688
2.03812e-05
0.00225313
2.01628e-05
0.00224935
1.99627e-05
0.00224555
1.97796e-05
0.00224175
1.96107e-05
0.00223795
1.9454e-05
0.00223416
1.93061e-05
0.00223038
1.91645e-05
0.00222662
1.90255e-05
0.00222288
1.8886e-05
0.00221914
1.87414e-05
0.00221542
1.85879e-05
0.00221171
1.84205e-05
0.00220799
1.82359e-05
0.00220426
1.80309e-05
0.00220049
1.78043e-05
0.00219668
1.75557e-05
0.00219282
1.72873e-05
0.00218891
1.7003e-05
0.00218495
1.67082e-05
0.00218095
1.64085e-05
0.00217692
1.61098e-05
0.00217285
1.58167e-05
0.00216877
1.55329e-05
0.00216469
1.52599e-05
0.00216061
1.49985e-05
0.00215654
1.47476e-05
0.0021525
1.45052e-05
0.00214849
1.42685e-05
0.00214452
1.40359e-05
0.00214058
1.38055e-05
0.00213668
1.35761e-05
0.00213281
1.33472e-05
0.00212898
1.31191e-05
0.00212517
1.28925e-05
0.00212139
1.26687e-05
0.00211764
1.24488e-05
0.0021139
1.22343e-05
0.0021102
1.20263e-05
0.00210652
1.18255e-05
0.00210287
1.16324e-05
0.00209924
1.14469e-05
0.00209566
1.12686e-05
0.0020921
1.10968e-05
0.00208858
1.09302e-05
0.00208511
1.0768e-05
0.00208167
1.06092e-05
0.00207826
1.04532e-05
0.0020749
1.02995e-05
0.00207157
1.01482e-05
0.00206827
1.00001e-05
0.00206501
9.8556e-06
0.00206178
9.71524e-06
0.00205857
9.57935e-06
0.0020554
9.4476e-06
0.00205226
9.31994e-06
0.00204915
9.19637e-06
0.00204607
9.07645e-06
0.00204303
8.95969e-06
0.00204002
8.84536e-06
0.00203704
8.73291e-06
0.00203409
8.62173e-06
0.00203118
8.51151e-06
0.00202829
8.40196e-06
0.00202544
8.29307e-06
0.00202261
8.18487e-06
0.00201981
8.07758e-06
0.00201704
7.97138e-06
0.00201429
7.86656e-06
0.00201157
7.76326e-06
0.00200888
7.66166e-06
0.00200621
7.56176e-06
0.00200357
7.46359e-06
0.00200095
7.36703e-06
0.00199836
7.27209e-06
0.00199579
7.17861e-06
0.00199324
7.08662e-06
0.00199072
6.99605e-06
0.00198822
6.90698e-06
0.00198575
6.81939e-06
0.0019833
6.73342e-06
0.00198087
6.64905e-06
0.00197847
6.56642e-06
0.00197608
6.48545e-06
0.00197372
6.40621e-06
0.00197138
6.3286e-06
0.00196906
6.25267e-06
0.00196676
6.17834e-06
0.00196448
6.10569e-06
0.00196222
6.03467e-06
0.00195998
5.96541e-06
0.00195776
5.89794e-06
0.00195556
5.83247e-06
0.00195338
5.76923e-06
0.00195122
5.70852e-06
0.00194907
5.65209e-06
0.00194695
5.59966e-06
0.00194484
5.55022e-06
0.00194276
5.50508e-06
0.0019407
5.46404e-06
0.00193866
5.42642e-06
0.00193664
5.39131e-06
0.00193464
5.3579e-06
0.00193267
5.32546e-06
0.00193071
5.29367e-06
0.00192876
5.26227e-06
0.00192683
5.23121e-06
0.00192492
5.20043e-06
0.00192302
5.17003e-06
0.00192113
5.14004e-06
0.00191926
5.11064e-06
0.00191739
5.08187e-06
0.00191554
5.05392e-06
0.00191369
5.02686e-06
0.00191186
5.00083e-06
0.00191003
4.97591e-06
0.00190822
4.95224e-06
0.00190641
4.92989e-06
0.00190461
4.909e-06
0.00190282
4.88964e-06
0.00190103
4.87194e-06
0.00189925
4.85598e-06
0.00189747
4.84191e-06
0.0018957
4.8298e-06
0.00189393
4.81981e-06
0.00189217
4.81196e-06
0.00189041
4.80641e-06
0.00188865
4.80335e-06
0.00188689
4.80307e-06
0.00188513
4.8057e-06
0.00188337
4.81147e-06
0.00188161
4.82053e-06
0.00187984
4.83308e-06
0.00187807
4.8493e-06
0.0018763
4.8694e-06
0.00187452
4.89356e-06
0.00187273
4.92204e-06
0.00187094
4.95503e-06
0.00186913
4.99284e-06
0.00186731
5.03571e-06
0.00186548
5.08397e-06
0.00186364
5.13793e-06
0.00186178
5.19794e-06
0.0018599
5.26435e-06
0.001858
5.33759e-06
0.00185607
5.41806e-06
0.00185413
5.50624e-06
0.00185215
5.60259e-06
0.00185015
5.70765e-06
0.00184811
5.82197e-06
0.00184604
5.94615e-06
0.00184392
6.08082e-06
0.00184177
6.22666e-06
0.00183957
6.38439e-06
0.00183733
6.55481e-06
0.00183503
6.73871e-06
0.00183267
6.93702e-06
0.00183025
7.15053e-06
0.00182777
7.38029e-06
0.00182521
7.62757e-06
0.00182258
7.89366e-06
0.00181987
8.17978e-06
0.00181706
8.48727e-06
0.00181417
8.81752e-06
0.00181117
9.17205e-06
0.00180806
9.55246e-06
0.00180483
9.9605e-06
0.00180148
1.0398e-05
0.00179799
1.0867e-05
0.00179436
1.13696e-05
0.00179058
1.19081e-05
0.00178663
1.24851e-05
0.0017825
1.31032e-05
0.00177818
1.37653e-05
0.00177366
1.44746e-05
0.00176893
1.52344e-05
0.00176395
1.60484e-05
0.00175873
1.69204e-05
0.00175324
1.78547e-05
0.00174747
1.88559e-05
0.00174138
1.99289e-05
0.00173497
2.1079e-05
0.00172821
2.2312e-05
0.00172107
2.3634e-05
0.00171352
2.50519e-05
0.00170555
2.65727e-05
0.0016971
2.82044e-05
0.00168816
2.99554e-05
0.00167869
3.18347e-05
0.00166864
3.38523e-05
0.00165798
3.60186e-05
0.00164666
3.83451e-05
0.00163463
4.08441e-05
0.00162183
4.35286e-05
0.00160822
4.64128e-05
0.00159373
4.95115e-05
0.00157828
5.28407e-05
0.00156182
5.64171e-05
0.00154426
6.02583e-05
0.00152551
6.4382e-05
0.00150549
6.88091e-05
0.00148409
7.35551e-05
0.00146122
7.86354e-05
0.00143674
8.40673e-05
0.00141054
8.98597e-05
0.00138245
9.60124e-05
0.00135231
0.000102515
0.00131994
0.000109347
0.00128511
0.000116467
0.00124763
0.000123818
0.00120726
0.000131314
0.00116376
0.000138842
0.00111693
0.000146252
0.00106655
0.000153357
0.00101247
0.000159933
0.000954615
0.000165723
0.000893015
0.000170448
0.000827867
0.000173834
0.00075951
0.0001756
0.000688345
0.000175415
0.000615134
0.000173169
0.000541123
0.000169099
0.000467747
0.000163539
0.000396082
0.000156328
0.000326219
0.000146609
0.000257913
0.000133981
0.000191624
0.000118338
0.000128636
0.000100997
7.09233e-05
8.45662e-05
1.98107e-05
7.09237e-05
-2.44695e-05
6.06872e-05
-6.21436e-05
5.37048e-05
5.01574e-05
-9.44344e-05
0.00179766
-0.00134269
0.00179548
-0.00107798
0.00188411
-0.000723311
0.00199384
-0.000439338
0.00208835
-0.000250302
0.00215927
-0.000134899
0.00220973
-6.63312e-05
0.00224508
-2.56365e-05
0.00226983
-1.35049e-06
0.00228725
1.32035e-05
0.0022996
2.19022e-05
0.00230842
2.70054e-05
0.00231477
2.98542e-05
0.00231938
3.12674e-05
0.00232274
3.17613e-05
0.00232522
3.16685e-05
0.00232706
3.12079e-05
0.00232846
3.05265e-05
0.00232953
2.97242e-05
0.00233038
2.88693e-05
0.00233107
2.80096e-05
0.00233166
2.71788e-05
0.00233217
2.63998e-05
0.00233263
2.56863e-05
0.00233306
2.50445e-05
0.00233347
2.44755e-05
0.00233386
2.39772e-05
0.00233424
2.35458e-05
0.00233459
2.31761e-05
0.00233493
2.2863e-05
0.00233523
2.26029e-05
0.0023355
2.23952e-05
0.00233574
2.22411e-05
0.00233594
2.21396e-05
0.00233611
2.20863e-05
0.00233624
2.2074e-05
0.00233632
2.20951e-05
0.00233636
2.21428e-05
0.00233634
2.22117e-05
0.00233627
2.2297e-05
0.00233615
2.23951e-05
0.00233596
2.25027e-05
0.00233571
2.26167e-05
0.00233541
2.27345e-05
0.00233504
2.28537e-05
0.00233461
2.29722e-05
0.00233411
2.3089e-05
0.00233356
2.32034e-05
0.00233295
2.33159e-05
0.00233228
2.34262e-05
0.00233157
2.35313e-05
0.0023308
2.36268e-05
0.00232998
2.37091e-05
0.00232912
2.37743e-05
0.00232821
2.38183e-05
0.00232725
2.38365e-05
0.00232625
2.38254e-05
0.00232519
2.37837e-05
0.00232407
2.37115e-05
0.00232288
2.36093e-05
0.0023216
2.34786e-05
0.00232023
2.33233e-05
0.00231876
2.31498e-05
0.0023172
2.29656e-05
0.00231553
2.2778e-05
0.00231379
2.25927e-05
0.00231196
2.24139e-05
0.00231007
2.22439e-05
0.00230812
2.20837e-05
0.00230612
2.19329e-05
0.00230409
2.17907e-05
0.00230202
2.16557e-05
0.00229992
2.15262e-05
0.0022978
2.14003e-05
0.00229567
2.12758e-05
0.00229352
2.11507e-05
0.00229136
2.10223e-05
0.0022892
2.08883e-05
0.00228702
2.07462e-05
0.00228483
2.05937e-05
0.00228262
2.04292e-05
0.00228038
2.02511e-05
0.00227811
2.00582e-05
0.0022758
1.98499e-05
0.00227345
1.96266e-05
0.00227105
1.93904e-05
0.0022686
1.91444e-05
0.0022661
1.88922e-05
0.00226356
1.86379e-05
0.00226098
1.8385e-05
0.00225837
1.81361e-05
0.00225572
1.78931e-05
0.00225305
1.76567e-05
0.00225036
1.74269e-05
0.00224766
1.72029e-05
0.00224493
1.69835e-05
0.00224219
1.67672e-05
0.00223944
1.65525e-05
0.00223667
1.63383e-05
0.00223389
1.6124e-05
0.00223109
1.59094e-05
0.00222828
1.56951e-05
0.00222546
1.54816e-05
0.00222263
1.52701e-05
0.0022198
1.50613e-05
0.00221697
1.48562e-05
0.00221413
1.46553e-05
0.0022113
1.44589e-05
0.00220848
1.42669e-05
0.00220566
1.40791e-05
0.00220286
1.38951e-05
0.00220007
1.37148e-05
0.0021973
1.35377e-05
0.00219454
1.33637e-05
0.0021918
1.31927e-05
0.00218907
1.30245e-05
0.00218636
1.28592e-05
0.00218366
1.26977e-05
0.00218097
1.25397e-05
0.0021783
1.23845e-05
0.00217565
1.22331e-05
0.00217301
1.20853e-05
0.00217038
1.19412e-05
0.00216778
1.18003e-05
0.00216519
1.16624e-05
0.00216262
1.1527e-05
0.00216007
1.13937e-05
0.00215754
1.1262e-05
0.00215503
1.11318e-05
0.00215254
1.10029e-05
0.00215007
1.08751e-05
0.00214761
1.07484e-05
0.00214517
1.0623e-05
0.00214275
1.0499e-05
0.00214035
1.03764e-05
0.00213796
1.02554e-05
0.00213559
1.01361e-05
0.00213323
1.00184e-05
0.00213089
9.90245e-06
0.00212857
9.78809e-06
0.00212626
9.67532e-06
0.00212397
9.5641e-06
0.00212169
9.45445e-06
0.00211943
9.34636e-06
0.00211719
9.2399e-06
0.00211496
9.1351e-06
0.00211275
9.03204e-06
0.00211055
8.93077e-06
0.00210837
8.83135e-06
0.00210621
8.73377e-06
0.00210406
8.63805e-06
0.00210192
8.5441e-06
0.0020998
8.45191e-06
0.00209769
8.36146e-06
0.0020956
8.27278e-06
0.00209352
8.18588e-06
0.00209145
8.10083e-06
0.0020894
8.0177e-06
0.00208737
7.93662e-06
0.00208534
7.85772e-06
0.00208333
7.78129e-06
0.00208133
7.70744e-06
0.00207935
7.63718e-06
0.00207738
7.56984e-06
0.00207543
7.50453e-06
0.0020735
7.44252e-06
0.00207158
7.38435e-06
0.00206968
7.32972e-06
0.00206779
7.27802e-06
0.00206592
7.22854e-06
0.00206407
7.18075e-06
0.00206223
7.13432e-06
0.00206041
7.0891e-06
0.0020586
7.04493e-06
0.0020568
7.00176e-06
0.00205501
6.95959e-06
0.00205323
6.91847e-06
0.00205147
6.87844e-06
0.00204971
6.83961e-06
0.00204797
6.80207e-06
0.00204623
6.76592e-06
0.0020445
6.73128e-06
0.00204278
6.69825e-06
0.00204107
6.66696e-06
0.00203937
6.63751e-06
0.00203767
6.61001e-06
0.00203597
6.5846e-06
0.00203429
6.56138e-06
0.00203261
6.54048e-06
0.00203093
6.52204e-06
0.00202926
6.5062e-06
0.00202758
6.4931e-06
0.00202592
6.48282e-06
0.00202425
6.47549e-06
0.00202258
6.47146e-06
0.00202092
6.47097e-06
0.00201925
6.47422e-06
0.00201759
6.4814e-06
0.00201592
6.49273e-06
0.00201425
6.50842e-06
0.00201257
6.52871e-06
0.00201089
6.55385e-06
0.0020092
6.58411e-06
0.0020075
6.61977e-06
0.0020058
6.66114e-06
0.00200409
6.70856e-06
0.00200237
6.7624e-06
0.00200063
6.82304e-06
0.00199888
6.89089e-06
0.00199711
6.96639e-06
0.00199533
7.05001e-06
0.00199353
7.14225e-06
0.00199171
7.24366e-06
0.00198986
7.35479e-06
0.00198799
7.47627e-06
0.00198609
7.60874e-06
0.00198416
7.75292e-06
0.0019822
7.90953e-06
0.00198021
8.07939e-06
0.00197817
8.26334e-06
0.0019761
8.46231e-06
0.00197398
8.67727e-06
0.00197181
8.90926e-06
0.00196959
9.15946e-06
0.00196732
9.4289e-06
0.00196498
9.71889e-06
0.00196258
1.00311e-05
0.00196011
1.03669e-05
0.00195757
1.07278e-05
0.00195494
1.11154e-05
0.00195223
1.15316e-05
0.00194943
1.19783e-05
0.00194652
1.24574e-05
0.00194352
1.29711e-05
0.0019404
1.35219e-05
0.00193715
1.41122e-05
0.00193378
1.47447e-05
0.00193027
1.54223e-05
0.00192661
1.61482e-05
0.00192279
1.69256e-05
0.0019188
1.77583e-05
0.00191463
1.865e-05
0.00191026
1.96051e-05
0.00190568
2.06279e-05
0.00190088
2.17234e-05
0.00189584
2.28968e-05
0.00189055
2.41537e-05
0.00188498
2.55002e-05
0.00187912
2.6943e-05
0.00187294
2.8489e-05
0.00186643
3.0146e-05
0.00185957
3.19222e-05
0.00185232
3.38265e-05
0.00184465
3.58685e-05
0.00183655
3.80585e-05
0.00182798
4.04077e-05
0.00181891
4.29282e-05
0.0018093
4.5633e-05
0.00179911
4.8536e-05
0.00178831
5.16523e-05
0.00177684
5.4998e-05
0.00176466
5.85905e-05
0.00175173
6.24483e-05
0.00173798
6.6591e-05
0.00172336
7.10395e-05
0.00170781
7.58159e-05
0.00169125
8.09429e-05
0.00167362
8.64454e-05
0.00165483
9.23464e-05
0.0016348
9.86672e-05
0.00161344
0.000105429
0.00159065
0.000112652
0.00156632
0.000120348
0.00154031
0.000128522
0.0015125
0.000137167
0.0014827
0.000146265
0.00145074
0.000155779
0.00141641
0.000165648
0.00137947
0.000175784
0.00133966
0.000186063
0.0012967
0.000196322
0.00125029
0.00020635
0.00120013
0.000215889
0.00114595
0.000224632
0.00108755
0.000232237
0.00102482
0.000238332
0.000957744
0.000242489
0.000886576
0.00024434
0.000811955
0.000243723
0.000734866
0.000240631
0.000656316
0.000234881
0.000576984
0.000225943
0.000497386
0.00021358
0.00041798
0.000197747
0.000339904
0.000179076
0.000265229
0.000159244
0.000196071
0.000140085
0.000133869
0.000122894
7.92128e-05
0.000108366
9.73403e-05
3.20412e-05
0.00184248
-0.00124655
0.00181075
-0.00104626
0.00185337
-0.000765935
0.00192964
-0.000515613
0.0020079
-0.00032857
0.00207456
-0.000201564
0.00212707
-0.000118846
0.00216715
-6.57315e-05
0.00219748
-3.16881e-05
0.00222049
-9.80716e-06
0.00223809
4.29312e-06
0.00225173
1.33581e-05
0.00226245
1.91195e-05
0.00227103
2.26855e-05
0.002278
2.47809e-05
0.00228377
2.58867e-05
0.00228863
2.63291e-05
0.00229282
2.63321e-05
0.00229647
2.60521e-05
0.00229973
2.55991e-05
0.00230267
2.50514e-05
0.00230537
2.44648e-05
0.00230787
2.38791e-05
0.00231021
2.33207e-05
0.00231243
2.28063e-05
0.00231454
2.23453e-05
0.00231655
2.19419e-05
0.00231848
2.15969e-05
0.00232032
2.13091e-05
0.00232209
2.10761e-05
0.00232377
2.08958e-05
0.00232537
2.07676e-05
0.00232689
2.06914e-05
0.00232834
2.06659e-05
0.00232971
2.0687e-05
0.00233101
2.07486e-05
0.00233224
2.08443e-05
0.00233338
2.09677e-05
0.00233446
2.11135e-05
0.00233545
2.12766e-05
0.00233636
2.1453e-05
0.0023372
2.16389e-05
0.00233796
2.18312e-05
0.00233864
2.20267e-05
0.00233925
2.22229e-05
0.00233978
2.24175e-05
0.00234023
2.26093e-05
0.00234061
2.27967e-05
0.00234092
2.29795e-05
0.00234117
2.31564e-05
0.00234135
2.33251e-05
0.00234148
2.34819e-05
0.00234154
2.36234e-05
0.00234155
2.3746e-05
0.0023415
2.38463e-05
0.00234139
2.39205e-05
0.00234123
2.39664e-05
0.00234101
2.39828e-05
0.00234074
2.3971e-05
0.0023404
2.3932e-05
0.00233999
2.38685e-05
0.00233951
2.37838e-05
0.00233896
2.36832e-05
0.00233834
2.3572e-05
0.00233765
2.34558e-05
0.00233689
2.33386e-05
0.00233606
2.32235e-05
0.00233518
2.31122e-05
0.00233425
2.30056e-05
0.00233326
2.29031e-05
0.00233224
2.28043e-05
0.00233118
2.27078e-05
0.00233008
2.26125e-05
0.00232895
2.25167e-05
0.0023278
2.2419e-05
0.00232662
2.23176e-05
0.00232543
2.22106e-05
0.00232421
2.20963e-05
0.00232297