# Forces      
# CofR        : (-1.050000e-01 0.000000e+00 0.000000e+00)
# Time        forces(pressure viscous)	moments(pressure viscous)
1300          	((6.922286e-01 4.900461e+01 -4.132448e-18) (3.397064e-01 1.945532e-02 1.525313e-18)) ((1.376871e-20 -2.890028e-19 -1.294227e+00) (4.508894e-22 1.068060e-21 2.284861e-03))
