/*--------------------------------*- C++ -*----------------------------------*\
  =========                 |
  \\      /  F ield         | OpenFOAM: The Open Source CFD Toolbox
   \\    /   O peration     | Website:  https://openfoam.org
    \\  /    A nd           | Version:  8
     \\/     M anipulation  |
\*---------------------------------------------------------------------------*/
FoamFile
{
    version     2.0;
    format      ascii;
    class       volScalarField;
    location    "20";
    object      nuTilda;
}
// * * * * * * * * * * * * * * * * * * * * * * * * * * * * * * * * * * * * * //

dimensions      [0 2 -1 0 0 0 0];

internalField   nonuniform List<scalar> 
277560
(
0.139716
0.139151
0.138577
0.137986
0.137374
0.136741
0.136085
0.13541
0.134717
0.134008
0.133287
0.132555
0.131817
0.131074
0.130329
0.129586
0.128848
0.128117
0.127397
0.12669
0.126
0.125329
0.124682
0.12406
0.123467
0.122907
0.12238
0.121891
0.121442
0.121034
0.120671
0.120352
0.12008
0.119855
0.119678
0.119548
0.119466
0.119431
0.119441
0.119495
0.119591
0.119726
0.119899
0.120107
0.120347
0.120615
0.120909
0.121226
0.121563
0.121916
0.122283
0.122661
0.123047
0.123438
0.123833
0.124229
0.124625
0.125018
0.125407
0.125791
0.126169
0.126539
0.126902
0.127256
0.127601
0.127936
0.128262
0.128578
0.128883
0.129179
0.129464
0.12974
0.130006
0.130262
0.130509
0.130746
0.130975
0.131196
0.131408
0.131612
0.131809
0.131998
0.132181
0.132356
0.132525
0.132688
0.132845
0.132996
0.133142
0.133283
0.133418
0.133549
0.133676
0.133798
0.133916
0.13403
0.13414
0.134247
0.13435
0.13445
0.134547
0.13464
0.134731
0.134819
0.134905
0.134988
0.135068
0.135147
0.135223
0.135297
0.135369
0.135439
0.135507
0.135573
0.135638
0.135701
0.135763
0.135823
0.135882
0.13594
0.139721
0.139161
0.13859
0.138
0.137388
0.136754
0.136098
0.135422
0.134728
0.134018
0.133295
0.132563
0.131823
0.131079
0.130333
0.12959
0.12885
0.128119
0.127397
0.12669
0.125999
0.125328
0.12468
0.124058
0.123465
0.122904
0.122377
0.121888
0.121438
0.12103
0.120666
0.120348
0.120075
0.119851
0.119674
0.119545
0.119463
0.119428
0.119439
0.119494
0.119591
0.119728
0.119902
0.120111
0.120353
0.120623
0.12092
0.121239
0.121579
0.121935
0.122305
0.122685
0.123074
0.123469
0.123867
0.124267
0.124665
0.125062
0.125454
0.125841
0.126221
0.126594
0.126959
0.127316
0.127663
0.128001
0.128329
0.128647
0.128954
0.129252
0.129539
0.129816
0.130083
0.130341
0.130589
0.130828
0.131058
0.131279
0.131492
0.131698
0.131895
0.132085
0.132268
0.132444
0.132614
0.132777
0.132935
0.133086
0.133233
0.133374
0.13351
0.133641
0.133768
0.13389
0.134008
0.134123
0.134233
0.134339
0.134443
0.134542
0.134639
0.134732
0.134823
0.13491
0.134995
0.135078
0.135157
0.135235
0.13531
0.135383
0.135453
0.135522
0.135589
0.135653
0.135716
0.135777
0.135836
0.135893
0.135949
0.136002
0.13973
0.139181
0.138614
0.138027
0.137415
0.13678
0.136122
0.135444
0.134748
0.134036
0.133311
0.132576
0.131834
0.131088
0.130341
0.129596
0.128855
0.128122
0.127399
0.12669
0.125998
0.125326
0.124677
0.124054
0.12346
0.122898
0.122371
0.121881
0.121431
0.121023
0.120658
0.12034
0.120067
0.119843
0.119666
0.119538
0.119457
0.119423
0.119436
0.119492
0.119591
0.119731
0.119908
0.120121
0.120366
0.12064
0.120941
0.121266
0.12161
0.121972
0.122347
0.122734
0.12313
0.123531
0.123935
0.124341
0.124746
0.125148
0.125546
0.125939
0.126325
0.126703
0.127073
0.127435
0.127787
0.12813
0.128462
0.128784
0.129095
0.129396
0.129687
0.129967
0.130237
0.130497
0.130747
0.130988
0.13122
0.131443
0.131657
0.131864
0.132062
0.132253
0.132437
0.132614
0.132784
0.132948
0.133105
0.133257
0.133403
0.133544
0.133679
0.13381
0.133936
0.134057
0.134174
0.134287
0.134396
0.134502
0.134603
0.134702
0.134797
0.134888
0.134977
0.135063
0.135146
0.135226
0.135303
0.135378
0.135451
0.135521
0.135589
0.135655
0.135719
0.13578
0.13584
0.135897
0.135952
0.136006
0.136058
0.136107
0.139744
0.139208
0.138649
0.138065
0.137454
0.136818
0.136158
0.135477
0.134777
0.134062
0.133334
0.132596
0.131851
0.131102
0.130352
0.129605
0.128862
0.128126
0.127402
0.126691
0.125998
0.125324
0.124674
0.124049
0.123454
0.122891
0.122363
0.121872
0.121421
0.121012
0.120648
0.120329
0.120056
0.119832
0.119656
0.119529
0.119449
0.119417
0.119432
0.119491
0.119593
0.119736
0.119917
0.120135
0.120385
0.120666
0.120973
0.121304
0.121657
0.122026
0.122411
0.122807
0.123212
0.123622
0.124036
0.124452
0.124866
0.125278
0.125684
0.126084
0.126477
0.126861
0.127237
0.127602
0.127958
0.128304
0.128639
0.128963
0.129276
0.129579
0.129872
0.130153
0.130425
0.130687
0.130939
0.131181
0.131414
0.131638
0.131854
0.132061
0.13226
0.132452
0.132636
0.132813
0.132983
0.133147
0.133304
0.133455
0.133601
0.133741
0.133876
0.134005
0.13413
0.13425
0.134366
0.134478
0.134585
0.134689
0.134788
0.134885
0.134977
0.135067
0.135153
0.135236
0.135317
0.135394
0.135469
0.135541
0.135611
0.135678
0.135742
0.135805
0.135865
0.135923
0.135978
0.136032
0.136084
0.136133
0.136181
0.136226
0.139757
0.139238
0.13869
0.138112
0.137503
0.136867
0.136204
0.135519
0.134816
0.134096
0.133364
0.132622
0.131873
0.131121
0.130368
0.129617
0.128871
0.128133
0.127406
0.126693
0.125998
0.125322
0.12467
0.124044
0.123447
0.122882
0.122353
0.121861
0.121409
0.121
0.120635
0.120315
0.120043
0.119819
0.119644
0.119518
0.11944
0.11941
0.119427
0.119489
0.119596
0.119743
0.11993
0.120153
0.120411
0.120699
0.121015
0.121356
0.121718
0.122099
0.122495
0.122903
0.12332
0.123743
0.124169
0.124594
0.125018
0.125436
0.125849
0.126254
0.126652
0.12704
0.127419
0.127788
0.128147
0.128495
0.128833
0.129159
0.129475
0.12978
0.130075
0.130358
0.130632
0.130895
0.131148
0.131392
0.131626
0.131852
0.132068
0.132276
0.132476
0.132668
0.132852
0.13303
0.1332
0.133363
0.13352
0.133671
0.133816
0.133955
0.134088
0.134217
0.13434
0.134459
0.134573
0.134683
0.134788
0.13489
0.134987
0.135081
0.135172
0.135258
0.135342
0.135422
0.1355
0.135574
0.135646
0.135714
0.135781
0.135844
0.135905
0.135964
0.13602
0.136074
0.136126
0.136175
0.136223
0.136268
0.136311
0.136353
0.13977
0.139269
0.138733
0.138163
0.137559
0.136924
0.13626
0.135571
0.134863
0.134138
0.1334
0.132653
0.1319
0.131143
0.130386
0.129632
0.128883
0.128142
0.127412
0.126697
0.125998
0.125321
0.124666
0.124038
0.123439
0.122873
0.122342
0.121849
0.121396
0.120986
0.12062
0.1203
0.120028
0.119805
0.119631
0.119506
0.11943
0.119402
0.119422
0.119489
0.119599
0.119753
0.119946
0.120177
0.120442
0.12074
0.121066
0.121418
0.121793
0.122187
0.122597
0.123019
0.12345
0.123884
0.124319
0.124752
0.125181
0.125606
0.126024
0.126434
0.126836
0.127228
0.127611
0.127983
0.128345
0.128696
0.129037
0.129366
0.129684
0.129992
0.130288
0.130574
0.13085
0.131115
0.13137
0.131615
0.13185
0.132077
0.132294
0.132503
0.132704
0.132896
0.133081
0.133258
0.133428
0.133591
0.133747
0.133897
0.134041
0.134179
0.134312
0.134439
0.134561
0.134678
0.13479
0.134898
0.135001
0.1351
0.135195
0.135286
0.135374
0.135458
0.135538
0.135616
0.13569
0.135761
0.135829
0.135894
0.135956
0.136016
0.136073
0.136128
0.13618
0.13623
0.136277
0.136322
0.136365
0.136406
0.136445
0.136482
0.139781
0.139298
0.138775
0.138215
0.137619
0.136987
0.136323
0.135632
0.134917
0.134186
0.133443
0.13269
0.131932
0.13117
0.130408
0.12965
0.128897
0.128152
0.127419
0.126701
0.126
0.125319
0.124663
0.124032
0.123432
0.122864
0.122331
0.121836
0.121382
0.12097
0.120604
0.120284
0.120012
0.119789
0.119616
0.119492
0.119418
0.119394
0.119418
0.119488
0.119605
0.119764
0.119964
0.120204
0.120479
0.120787
0.121125
0.121491
0.12188
0.122289
0.122714
0.123149
0.123589
0.124032
0.124474
0.124914
0.125349
0.125779
0.126202
0.126617
0.127023
0.127419
0.127806
0.128182
0.128548
0.128903
0.129246
0.129578
0.1299
0.13021
0.130509
0.130797
0.131074
0.131341
0.131598
0.131845
0.132082
0.13231
0.132528
0.132738
0.132939
0.133132
0.133317
0.133494
0.133663
0.133826
0.133982
0.134131
0.134274
0.134411
0.134542
0.134668
0.134788
0.134903
0.135013
0.135118
0.135219
0.135316
0.135408
0.135496
0.135581
0.135662
0.135739
0.135813
0.135883
0.135951
0.136015
0.136076
0.136135
0.13619
0.136243
0.136294
0.136342
0.136387
0.13643
0.136471
0.13651
0.136546
0.13658
0.136612
0.139791
0.139325
0.138816
0.138267
0.137679
0.137053
0.136391
0.135698
0.134979
0.134241
0.133491
0.132732
0.131967
0.1312
0.130434
0.12967
0.128913
0.128165
0.127428
0.126706
0.126002
0.125319
0.12466
0.124027
0.123424
0.122854
0.122319
0.121823
0.121367
0.120954
0.120587
0.120267
0.119995
0.119772
0.1196
0.119478
0.119407
0.119385
0.119413
0.119488
0.11961
0.119777
0.119985
0.120234
0.120519
0.120839
0.121191
0.121571
0.121976
0.1224
0.122837
0.123281
0.12373
0.12418
0.124629
0.125075
0.125516
0.125952
0.12638
0.126799
0.12721
0.127611
0.128002
0.128383
0.128752
0.129111
0.129458
0.129793
0.130118
0.130431
0.130733
0.131023
0.131303
0.131572
0.131831
0.13208
0.132318
0.132547
0.132767
0.132977
0.133179
0.133372
0.133557
0.133734
0.133904
0.134066
0.134221
0.13437
0.134511
0.134647
0.134777
0.1349
0.135019
0.135132
0.135239
0.135342
0.135441
0.135534
0.135624
0.135709
0.135791
0.135868
0.135942
0.136012
0.136079
0.136142
0.136203
0.13626
0.136314
0.136366
0.136414
0.13646
0.136504
0.136545
0.136583
0.13662
0.136653
0.136685
0.136715
0.136742
0.1398
0.13935
0.138856
0.138318
0.137738
0.137118
0.13646
0.135767
0.135045
0.134302
0.133544
0.132777
0.132006
0.131233
0.130461
0.129693
0.128931
0.128179
0.127439
0.126713
0.126006
0.12532
0.124657
0.124022
0.123416
0.122844
0.122307
0.121809
0.121351
0.120938
0.120569
0.120249
0.119976
0.119754
0.119583
0.119463
0.119394
0.119376
0.119408
0.119488
0.119616
0.11979
0.120007
0.120266
0.120563
0.120896
0.121262
0.121658
0.122077
0.122513
0.122959
0.123413
0.123869
0.124326
0.124782
0.125234
0.125681
0.126122
0.126555
0.12698
0.127396
0.127802
0.128198
0.128582
0.128956
0.129319
0.129669
0.130009
0.130337
0.130653
0.130958
0.131251
0.131534
0.131805
0.132066
0.132317
0.132557
0.132787
0.133008
0.133219
0.133422
0.133615
0.133801
0.133978
0.134147
0.134309
0.134463
0.134611
0.134751
0.134885
0.135013
0.135135
0.135252
0.135362
0.135468
0.135568
0.135664
0.135755
0.135841
0.135923
0.136001
0.136075
0.136145
0.136212
0.136275
0.136334
0.136391
0.136444
0.136494
0.136541
0.136585
0.136627
0.136665
0.136702
0.136736
0.136767
0.136796
0.136823
0.136847
0.13687
0.139808
0.139374
0.138892
0.138366
0.137795
0.137182
0.136529
0.135838
0.135114
0.134366
0.133601
0.132827
0.132048
0.131269
0.130491
0.129718
0.128951
0.128194
0.12745
0.126721
0.12601
0.125321
0.124655
0.124017
0.123409
0.122834
0.122295
0.121795
0.121336
0.120921
0.120551
0.12023
0.119957
0.119736
0.119565
0.119447
0.11938
0.119366
0.119402
0.119488
0.119622
0.119804
0.12003
0.120299
0.120608
0.120954
0.121335
0.121745
0.122177
0.122623
0.123079
0.12354
0.124004
0.124468
0.12493
0.125388
0.125841
0.126288
0.126727
0.127157
0.127579
0.12799
0.12839
0.12878
0.129158
0.129525
0.12988
0.130223
0.130554
0.130874
0.131182
0.131479
0.131764
0.132038
0.132301
0.132554
0.132796
0.133028
0.13325
0.133462
0.133666
0.13386
0.134045
0.134222
0.134391
0.134553
0.134706
0.134853
0.134992
0.135125
0.135251
0.135371
0.135486
0.135594
0.135697
0.135795
0.135888
0.135976
0.136059
0.136138
0.136212
0.136282
0.136349
0.136411
0.13647
0.136526
0.136578
0.136627
0.136672
0.136715
0.136754
0.136791
0.136825
0.136857
0.136886
0.136912
0.136936
0.136958
0.136978
0.136995
0.139816
0.139396
0.138927
0.138411
0.13785
0.137244
0.136596
0.135908
0.135184
0.134432
0.13366
0.132878
0.132093
0.131307
0.130523
0.129744
0.128973
0.128211
0.127463
0.12673
0.126016
0.125323
0.124654
0.124013
0.123402
0.122824
0.122283
0.121781
0.12132
0.120903
0.120533
0.12021
0.119938
0.119716
0.119547
0.11943
0.119366
0.119355
0.119395
0.119486
0.119628
0.119817
0.120052
0.120331
0.120653
0.121013
0.121408
0.121831
0.122274
0.122729
0.123193
0.123661
0.124132
0.124603
0.125072
0.125537
0.125996
0.126449
0.126894
0.12733
0.127757
0.128173
0.128579
0.128973
0.129356
0.129728
0.130087
0.130435
0.13077
0.131094
0.131405
0.131705
0.131993
0.13227
0.132536
0.13279
0.133034
0.133268
0.133491
0.133705
0.133909
0.134104
0.13429
0.134467
0.134636
0.134796
0.134949
0.135095
0.135233
0.135364
0.135489
0.135607
0.135719
0.135826
0.135926
0.136021
0.136111
0.136196
0.136276
0.136351
0.136422
0.136489
0.136551
0.13661
0.136665
0.136716
0.136764
0.136808
0.136849
0.136887
0.136922
0.136954
0.136983
0.13701
0.137034
0.137055
0.137074
0.137091
0.137105
0.137117
0.139823
0.139417
0.13896
0.138454
0.137902
0.137304
0.136661
0.135977
0.135254
0.134499
0.133721
0.132932
0.132138
0.131345
0.130556
0.129771
0.128995
0.128229
0.127476
0.12674
0.126022
0.125325
0.124653
0.124009
0.123395
0.122815
0.122271
0.121767
0.121304
0.120886
0.120514
0.120191
0.119918
0.119696
0.119528
0.119412
0.119351
0.119342
0.119387
0.119484
0.119631
0.119828
0.120073
0.120363
0.120696
0.12107
0.121479
0.121913
0.122364
0.122828
0.1233
0.123776
0.124254
0.124732
0.125207
0.125678
0.126144
0.126603
0.127054
0.127496
0.127929
0.128351
0.128762
0.129162
0.12955
0.129927
0.130291
0.130643
0.130982
0.13131
0.131625
0.131928
0.13222
0.1325
0.132768
0.133025
0.133271
0.133506
0.133731
0.133946
0.134151
0.134347
0.134533
0.13471
0.134879
0.135039
0.135191
0.135336
0.135473
0.135603
0.135726
0.135842
0.135953
0.136056
0.136154
0.136247
0.136334
0.136415
0.136492
0.136564
0.136631
0.136694
0.136753
0.136807
0.136858
0.136905
0.136948
0.136988
0.137024
0.137058
0.137088
0.137115
0.137139
0.137161
0.13718
0.137196
0.13721
0.137221
0.13723
0.137237
0.13983
0.139436
0.13899
0.138495
0.137951
0.13736
0.136723
0.136042
0.135321
0.134565
0.133782
0.132986
0.132185
0.131385
0.130589
0.129799
0.129018
0.128247
0.12749
0.12675
0.126028
0.125328
0.124653
0.124006
0.123389
0.122806
0.12226
0.121753
0.121288
0.120868
0.120495
0.12017
0.119897
0.119676
0.119507
0.119393
0.119334
0.119329
0.119377
0.119479
0.119633
0.119838
0.120091
0.120392
0.120737
0.121124
0.121544
0.121988
0.122448
0.12292
0.123399
0.123883
0.124368
0.124853
0.125335
0.125813
0.126285
0.126751
0.127208
0.127656
0.128095
0.128523
0.12894
0.129345
0.129739
0.13012
0.130489
0.130846
0.13119
0.131522
0.131841
0.132148
0.132443
0.132726
0.132997
0.133257
0.133505
0.133742
0.133969
0.134185
0.134391
0.134588
0.134774
0.134952
0.13512
0.13528
0.135432
0.135576
0.135712
0.13584
0.135962
0.136076
0.136184
0.136286
0.136381
0.136471
0.136555
0.136634
0.136707
0.136775
0.136839
0.136898
0.136953
0.137003
0.13705
0.137092
0.137131
0.137166
0.137198
0.137226
0.137252
0.137274
0.137293
0.137309
0.137323
0.137334
0.137342
0.137348
0.137351
0.137353
0.139836
0.139453
0.139018
0.138533
0.137997
0.137413
0.136782
0.136105
0.135385
0.134628
0.133842
0.133039
0.132231
0.131424
0.130622
0.129827
0.129041
0.128266
0.127505
0.12676
0.126035
0.125332
0.124653
0.124003
0.123383
0.122798
0.122249
0.121739
0.121272
0.12085
0.120475
0.12015
0.119875
0.119654
0.119486
0.119373
0.119316
0.119313
0.119366
0.119473
0.119633
0.119845
0.120107
0.120417
0.120774
0.121173
0.121603
0.122056
0.122524
0.123004
0.12349
0.123981
0.124473
0.124965
0.125454
0.125939
0.126418
0.126891
0.127354
0.127809
0.128254
0.128688
0.129111
0.129522
0.129921
0.130308
0.130682
0.131044
0.131393
0.131729
0.132052
0.132363
0.132662
0.132948
0.133222
0.133485
0.133735
0.133975
0.134204
0.134421
0.134629
0.134826
0.135013
0.135191
0.13536
0.13552
0.135671
0.135814
0.135949
0.136076
0.136196
0.136309
0.136415
0.136514
0.136607
0.136694
0.136775
0.13685
0.136921
0.136985
0.137045
0.137101
0.137151
0.137198
0.13724
0.137278
0.137312
0.137343
0.137369
0.137393
0.137413
0.13743
0.137444
0.137455
0.137464
0.137469
0.137472
0.137472
0.13747
0.137466
0.139841
0.13947
0.139045
0.138568
0.13804
0.137462
0.136836
0.136163
0.135446
0.134689
0.1339
0.133091
0.132276
0.131463
0.130655
0.129854
0.129063
0.128284
0.127519
0.126771
0.126042
0.125335
0.124654
0.124
0.123378
0.122789
0.122238
0.121726
0.121257
0.120832
0.120456
0.120129
0.119853
0.119631
0.119464
0.119352
0.119296
0.119296
0.119352
0.119463
0.119629
0.119848
0.120118
0.120438
0.120806
0.121215
0.121655
0.122116
0.122592
0.123079
0.123573
0.124071
0.12457
0.125069
0.125565
0.126057
0.126543
0.127022
0.127493
0.127954
0.128406
0.128846
0.129275
0.129692
0.130097
0.13049
0.130869
0.131236
0.13159
0.131931
0.132258
0.132573
0.132876
0.133166
0.133443
0.133709
0.133962
0.134204
0.134434
0.134654
0.134863
0.135061
0.135249
0.135428
0.135597
0.135757
0.135907
0.13605
0.136184
0.13631
0.136428
0.136539
0.136643
0.13674
0.136831
0.136915
0.136993
0.137066
0.137133
0.137194
0.13725
0.137302
0.137348
0.137391
0.137428
0.137462
0.137492
0.137517
0.137539
0.137558
0.137573
0.137585
0.137594
0.137599
0.137602
0.137602
0.137599
0.137594
0.137586
0.137576
0.139847
0.139485
0.139069
0.1386
0.13808
0.137508
0.136887
0.136218
0.135503
0.134746
0.133955
0.133141
0.13232
0.1315
0.130686
0.129881
0.129085
0.128302
0.127533
0.126781
0.126049
0.125339
0.124655
0.123998
0.123373
0.122781
0.122227
0.121713
0.121241
0.120814
0.120436
0.120107
0.119831
0.119608
0.119441
0.119329
0.119274
0.119276
0.119336
0.119451
0.119622
0.119847
0.120125
0.120454
0.120832
0.12125
0.121698
0.122167
0.122651
0.123145
0.123646
0.124151
0.124658
0.125164
0.125667
0.126166
0.126659
0.127145
0.127623
0.128091
0.128549
0.128996
0.129431
0.129855
0.130266
0.130664
0.131049
0.131422
0.13178
0.132126
0.132459
0.132778
0.133085
0.133378
0.133659
0.133928
0.134184
0.134429
0.134661
0.134883
0.135093
0.135293
0.135482
0.135661
0.135831
0.135991
0.136141
0.136283
0.136416
0.136542
0.136659
0.136768
0.13687
0.136965
0.137053
0.137135
0.13721
0.13728
0.137343
0.137401
0.137454
0.137502
0.137544
0.137582
0.137616
0.137645
0.13767
0.137691
0.137708
0.137721
0.137732
0.137738
0.137742
0.137742
0.137739
0.137733
0.137725
0.137714
0.1377
0.137684
0.139851
0.139499
0.139091
0.13863
0.138116
0.13755
0.136934
0.136268
0.135555
0.134799
0.134006
0.133188
0.13236
0.131535
0.130716
0.129906
0.129107
0.128319
0.127547
0.126792
0.126056
0.125343
0.124656
0.123996
0.123368
0.122774
0.122217
0.1217
0.121225
0.120797
0.120416
0.120086
0.119808
0.119584
0.119416
0.119305
0.119251
0.119255
0.119316
0.119435
0.119611
0.119842
0.120127
0.120464
0.12085
0.121278
0.121733
0.12221
0.122701
0.123202
0.12371
0.124223
0.124736
0.125249
0.12576
0.126266
0.126766
0.127259
0.127744
0.128219
0.128684
0.129138
0.12958
0.13001
0.130427
0.130831
0.131222
0.1316
0.131964
0.132315
0.132653
0.132977
0.133287
0.133585
0.13387
0.134142
0.134401
0.134649
0.134884
0.135108
0.13532
0.135521
0.135712
0.135892
0.136062
0.136222
0.136372
0.136514
0.136647
0.136771
0.136887
0.136995
0.137095
0.137188
0.137274
0.137353
0.137426
0.137492
0.137553
0.137607
0.137656
0.1377
0.137739
0.137773
0.137802
0.137826
0.137847
0.137863
0.137875
0.137884
0.137889
0.13789
0.137888
0.137883
0.137874
0.137863
0.137849
0.137832
0.137812
0.13779
0.139856
0.139511
0.139111
0.138657
0.138149
0.137589
0.136977
0.136314
0.135603
0.134847
0.134052
0.133231
0.132398
0.131568
0.130744
0.12993
0.129127
0.128336
0.12756
0.126802
0.126063
0.125348
0.124657
0.123995
0.123363
0.122766
0.122207
0.121687
0.12121
0.120779
0.120396
0.120063
0.119784
0.119559
0.11939
0.119279
0.119225
0.11923
0.119294
0.119416
0.119595
0.119831
0.120122
0.120467
0.120862
0.121297
0.12176
0.122243
0.122741
0.123249
0.123765
0.124284
0.124805
0.125325
0.125843
0.126356
0.126864
0.127364
0.127856
0.128338
0.12881
0.129271
0.129719
0.130156
0.13058
0.13099
0.131387
0.131771
0.132141
0.132497
0.13284
0.133169
0.133484
0.133786
0.134075
0.134351
0.134613
0.134864
0.135102
0.135328
0.135542
0.135745
0.135937
0.136118
0.136289
0.13645
0.136601
0.136742
0.136874
0.136998
0.137113
0.137219
0.137318
0.137409
0.137493
0.13757
0.13764
0.137703
0.137761
0.137812
0.137858
0.137898
0.137932
0.137962
0.137987
0.138007
0.138023
0.138034
0.138042
0.138045
0.138045
0.138041
0.138033
0.138022
0.138008
0.137991
0.137971
0.137948
0.137923
0.137894
0.13986
0.139523
0.13913
0.138682
0.13818
0.137624
0.137015
0.136355
0.135645
0.13489
0.134094
0.133269
0.132432
0.131597
0.13077
0.129952
0.129145
0.128351
0.127573
0.126811
0.12607
0.125352
0.124658
0.123993
0.123359
0.122759
0.122197
0.121674
0.121195
0.120761
0.120375
0.120041
0.11976
0.119533
0.119363
0.119251
0.119198
0.119203
0.119269
0.119393
0.119576
0.119816
0.120112
0.120463
0.120865
0.121307
0.121777
0.122267
0.122772
0.123287
0.123809
0.124335
0.124863
0.125391
0.125916
0.126437
0.126951
0.127459
0.127958
0.128448
0.128927
0.129394
0.12985
0.130294
0.130724
0.131141
0.131545
0.131934
0.13231
0.132672
0.13302
0.133354
0.133674
0.133981
0.134274
0.134553
0.13482
0.135074
0.135315
0.135543
0.13576
0.135965
0.136159
0.136341
0.136513
0.136674
0.136826
0.136967
0.137099
0.137222
0.137336
0.137442
0.137539
0.137628
0.13771
0.137785
0.137852
0.137913
0.137968
0.138016
0.138058
0.138094
0.138125
0.138151
0.138171
0.138187
0.138198
0.138205
0.138208
0.138206
0.1382
0.138191
0.138178
0.138162
0.138142
0.138119
0.138093
0.138064
0.138032
0.137997
0.139863
0.139533
0.139147
0.138704
0.138206
0.137655
0.137049
0.136391
0.135683
0.134927
0.13413
0.133303
0.132462
0.131624
0.130793
0.129972
0.129162
0.128365
0.127584
0.12682
0.126077
0.125355
0.12466
0.123992
0.123355
0.122753
0.122187
0.121662
0.12118
0.120743
0.120355
0.120018
0.119735
0.119506
0.119335
0.119222
0.119168
0.119174
0.11924
0.119366
0.119551
0.119795
0.120096
0.120452
0.12086
0.121308
0.121785
0.122281
0.122792
0.123314
0.123843
0.124377
0.124912
0.125447
0.125979
0.126507
0.127029
0.127544
0.12805
0.128547
0.129034
0.129509
0.129972
0.130422
0.13086
0.131283
0.131693
0.13209
0.132472
0.132839
0.133193
0.133532
0.133858
0.134169
0.134466
0.13475
0.135021
0.135278
0.135522
0.135754
0.135973
0.136181
0.136376
0.13656
0.136733
0.136896
0.137047
0.137189
0.137321
0.137444
0.137557
0.137662
0.137758
0.137846
0.137926
0.137999
0.138064
0.138122
0.138173
0.138218
0.138257
0.13829
0.138317
0.138339
0.138355
0.138367
0.138373
0.138375
0.138373
0.138366
0.138355
0.138341
0.138322
0.1383
0.138275
0.138246
0.138214
0.138179
0.138141
0.1381
0.139867
0.139543
0.139161
0.138724
0.13823
0.137682
0.137079
0.136423
0.135716
0.13496
0.134161
0.133332
0.132488
0.131646
0.130813
0.129989
0.129177
0.128378
0.127595
0.126829
0.126083
0.125359
0.124661
0.123991
0.123352
0.122746
0.122178
0.12165
0.121165
0.120726
0.120335
0.119995
0.119709
0.119479
0.119305
0.119191
0.119136
0.119142
0.119208
0.119335
0.119522
0.119768
0.120073
0.120434
0.120847
0.121301
0.121783
0.122286
0.122803
0.123332
0.123867
0.124408
0.12495
0.125492
0.126031
0.126567
0.127096
0.127619
0.128133
0.128637
0.129131
0.129614
0.130084
0.130542
0.130986
0.131417
0.131834
0.132236
0.132625
0.132999
0.133358
0.133703
0.134034
0.13435
0.134652
0.134941
0.135215
0.135476
0.135724
0.135959
0.136181
0.136391
0.136589
0.136775
0.13695
0.137113
0.137266
0.137408
0.13754
0.137663
0.137776
0.13788
0.137975
0.138062
0.13814
0.138211
0.138274
0.13833
0.138378
0.13842
0.138456
0.138485
0.138509
0.138527
0.138539
0.138546
0.138548
0.138546
0.138538
0.138526
0.13851
0.13849
0.138466
0.138439
0.138407
0.138373
0.138334
0.138293
0.138249
0.138202
0.13987
0.139551
0.139174
0.138741
0.138251
0.137705
0.137105
0.13645
0.135743
0.134986
0.134187
0.133355
0.132509
0.131665
0.130829
0.130004
0.12919
0.128389
0.127604
0.126836
0.126088
0.125363
0.124663
0.12399
0.123348
0.122741
0.12217
0.121639
0.121151
0.120709
0.120315
0.119972
0.119684
0.11945
0.119275
0.119158
0.119102
0.119107
0.119173
0.1193
0.119488
0.119736
0.120043
0.120408
0.120825
0.121284
0.121772
0.122281
0.122804
0.123339
0.123881
0.124428
0.124978
0.125527
0.126074
0.126616
0.127153
0.127684
0.128205
0.128717
0.129219
0.129709
0.130186
0.130651
0.131103
0.131541
0.131965
0.132374
0.132769
0.133149
0.133515
0.133866
0.134202
0.134524
0.134831
0.135124
0.135403
0.135669
0.13592
0.136159
0.136384
0.136597
0.136797
0.136985
0.137162
0.137327
0.137481
0.137624
0.137757
0.137879
0.137992
0.138096
0.13819
0.138275
0.138353
0.138421
0.138483
0.138536
0.138582
0.138622
0.138654
0.13868
0.1387
0.138714
0.138723
0.138725
0.138723
0.138716
0.138704
0.138687
0.138666
0.13864
0.138611
0.138577
0.13854
0.138499
0.138455
0.138408
0.138357
0.138303
0.139872
0.139558
0.139185
0.138755
0.138268
0.137725
0.137126
0.136472
0.135765
0.135007
0.134206
0.133373
0.132525
0.131679
0.130843
0.130016
0.129201
0.128399
0.127613
0.126843
0.126094
0.125367
0.124664
0.12399
0.123346
0.122735
0.122162
0.121628
0.121137
0.120692
0.120295
0.11995
0.119658
0.119422
0.119243
0.119124
0.119066
0.119069
0.119134
0.119261
0.119449
0.119698
0.120007
0.120374
0.120795
0.121259
0.121752
0.122266
0.122795
0.123336
0.123885
0.124439
0.124995
0.125551
0.126105
0.126655
0.1272
0.127738
0.128267
0.128786
0.129296
0.129793
0.130279
0.130751
0.13121
0.131656
0.132087
0.132503
0.132905
0.133292
0.133664
0.134021
0.134363
0.13469
0.135003
0.135301
0.135585
0.135855
0.136111
0.136353
0.136582
0.136797
0.137001
0.137191
0.13737
0.137537
0.137692
0.137836
0.13797
0.138093
0.138206
0.138309
0.138403
0.138487
0.138563
0.138631
0.13869
0.138741
0.138785
0.138822
0.138852
0.138875
0.138891
0.138902
0.138906
0.138905
0.138898
0.138886
0.138869
0.138847
0.138821
0.13879
0.138755
0.138716
0.138673
0.138627
0.138576
0.138523
0.138466
0.138405
0.139874
0.139564
0.139195
0.138768
0.138283
0.137741
0.137143
0.136489
0.135781
0.135023
0.13422
0.133385
0.132536
0.13169
0.130853
0.130026
0.12921
0.128408
0.12762
0.12685
0.126099
0.12537
0.124666
0.12399
0.123344
0.122731
0.122155
0.121618
0.121124
0.120676
0.120276
0.119927
0.119632
0.119392
0.119211
0.119089
0.119028
0.119029
0.119092
0.119218
0.119406
0.119655
0.119964
0.120333
0.120757
0.121224
0.121722
0.122241
0.122776
0.123323
0.123878
0.124438
0.125001
0.125564
0.126126
0.126683
0.127236
0.127781
0.128318
0.128845
0.129362
0.129868
0.130361
0.130841
0.131308
0.13176
0.132199
0.132623
0.133031
0.133425
0.133804
0.134167
0.134516
0.134849
0.135167
0.135471
0.13576
0.136034
0.136294
0.136541
0.136773
0.136993
0.137199
0.137392
0.137573
0.137742
0.137899
0.138045
0.138179
0.138303
0.138416
0.13852
0.138613
0.138697
0.138772
0.138838
0.138896
0.138946
0.138988
0.139022
0.139049
0.139069
0.139082
0.139089
0.139089
0.139084
0.139073
0.139057
0.139035
0.139009
0.138977
0.138941
0.138901
0.138856
0.138807
0.138754
0.138698
0.138638
0.138575
0.138508
0.139876
0.139569
0.139202
0.138777
0.138294
0.137753
0.137155
0.136501
0.135792
0.135032
0.134228
0.133391
0.132542
0.131697
0.13086
0.130033
0.129217
0.128415
0.127627
0.126856
0.126104
0.125374
0.124669
0.12399
0.123342
0.122727
0.122149
0.121609
0.121112
0.12066
0.120257
0.119905
0.119606
0.119363
0.119178
0.119053
0.118989
0.118987
0.119048
0.119171
0.119358
0.119606
0.119915
0.120284
0.12071
0.12118
0.121682
0.122206
0.122747
0.123299
0.12386
0.124427
0.124997
0.125567
0.126136
0.126701
0.12726
0.127813
0.128358
0.128893
0.129418
0.129931
0.130432
0.13092
0.131395
0.131855
0.132301
0.132732
0.133149
0.133549
0.133935
0.134305
0.13466
0.134999
0.135324
0.135633
0.135927
0.136207
0.136472
0.136722
0.136959
0.137182
0.137392
0.137588
0.137772
0.137943
0.138102
0.13825
0.138386
0.13851
0.138624
0.138728
0.138821
0.138905
0.138979
0.139045
0.139101
0.139149
0.139189
0.139221
0.139245
0.139262
0.139273
0.139276
0.139273
0.139264
0.139249
0.139228
0.139202
0.13917
0.139134
0.139093
0.139047
0.138996
0.138942
0.138883
0.138821
0.138754
0.138684
0.138611
0.139878
0.139573
0.139208
0.138784
0.138302
0.137761
0.137163
0.136508
0.135798
0.135036
0.13423
0.133392
0.132544
0.1317
0.130864
0.130038
0.129223
0.128421
0.127633
0.126861
0.126109
0.125378
0.124672
0.123992
0.123342
0.122725
0.122144
0.121601
0.121101
0.120646
0.120239
0.119883
0.11958
0.119333
0.119145
0.119016
0.118948
0.118942
0.119
0.119121
0.119305
0.119552
0.11986
0.120229
0.120655
0.121128
0.121633
0.122162
0.122707
0.123265
0.123833
0.124406
0.124982
0.125559
0.126134
0.126707
0.127274
0.127835
0.128387
0.12893
0.129463
0.129984
0.130493
0.130989
0.131472
0.13194
0.132394
0.132832
0.133256
0.133664
0.134057
0.134434
0.134796
0.135141
0.135472
0.135787
0.136087
0.136372
0.136642
0.136897
0.137139
0.137366
0.137579
0.137779
0.137966
0.13814
0.138301
0.138451
0.138588
0.138714
0.138829
0.138933
0.139027
0.139111
0.139185
0.139249
0.139304
0.139351
0.139389
0.139419
0.139441
0.139456
0.139463
0.139463
0.139457
0.139444
0.139425
0.1394
0.139369
0.139333
0.139291
0.139245
0.139194
0.139138
0.139077
0.139013
0.138944
0.138871
0.138795
0.138715
0.139879
0.139576
0.139212
0.138789
0.138307
0.137766
0.137166
0.13651
0.135798
0.135034
0.134226
0.133388
0.132541
0.1317
0.130866
0.130041
0.129227
0.128425
0.127638
0.126867
0.126114
0.125383
0.124675
0.123994
0.123343
0.122724
0.12214
0.121595
0.121092
0.120633
0.120222
0.119862
0.119555
0.119304
0.119111
0.118978
0.118906
0.118896
0.11895
0.119068
0.119249
0.119493
0.119799
0.120166
0.120592
0.121066
0.121575
0.122107
0.122658
0.123221
0.123794
0.124373
0.124956
0.12554
0.126122
0.126702
0.127277
0.127845
0.128405
0.128956
0.129497
0.130026
0.130543
0.131047
0.131538
0.132014
0.132476
0.132922
0.133354
0.133769
0.134169
0.134554
0.134922
0.135275
0.135612
0.135933
0.136239
0.13653
0.136805
0.137066
0.137311
0.137543
0.13776
0.137964
0.138154
0.138331
0.138495
0.138647
0.138787
0.138914
0.139031
0.139136
0.13923
0.139314
0.139388
0.139452
0.139506
0.139552
0.139588
0.139616
0.139636
0.139648
0.139653
0.13965
0.13964
0.139624
0.139601
0.139572
0.139537
0.139496
0.13945
0.139398
0.139341
0.13928
0.139214
0.139143
0.139068
0.13899
0.138907
0.13882
0.139879
0.139578
0.139215
0.138791
0.138308
0.137766
0.137165
0.136507
0.135793
0.135026
0.134217
0.133379
0.132535
0.131696
0.130865
0.130042
0.12923
0.12843
0.127643
0.126872
0.12612
0.125388
0.12468
0.123998
0.123345
0.122724
0.122138
0.12159
0.121084
0.120622
0.120207
0.119842
0.119531
0.119275
0.119077
0.118939
0.118862
0.118848
0.118898
0.119011
0.119188
0.119429
0.119733
0.120097
0.120521
0.120996
0.121507
0.122044
0.122598
0.123167
0.123745
0.12433
0.124919
0.12551
0.126099
0.126686
0.127268
0.127844