# Forces      
# CofR        : (0.000000e+00 0.000000e+00 0.000000e+00)
# Time        forces(pressure viscous porous)	moments(pressure viscous porous)
0             	((0.000000e+00 0.000000e+00 0.000000e+00) (-6.721010e+01 1.861203e-13 -7.652362e-19) (0.000000e+00 0.000000e+00 0.000000e+00)) ((0.000000e+00 0.000000e+00 0.000000e+00) (-1.069474e-21 3.443349e-19 8.792309e-14) (0.000000e+00 0.000000e+00 0.000000e+00))
0.00625       	((1.412691e+00 -1.717702e-03 1.008796e-21) (2.258739e-01 -1.254028e-06 3.432977e-18) (0.000000e+00 0.000000e+00 0.000000e+00)) ((4.314371e-23 -3.525859e-23 -1.706439e-03) (-1.772068e-20 -1.544843e-18 3.021426e-06) (0.000000e+00 0.000000e+00 0.000000e+00))
0.0125        	((1.185530e+00 -9.170730e-05 7.606891e-22) (2.190891e-01 2.133568e-08 3.432960e-18) (0.000000e+00 0.000000e+00 0.000000e+00)) ((3.468173e-23 -1.098528e-23 -1.620456e-03) (-1.772011e-20 -1.544834e-18 -1.036821e-06) (0.000000e+00 0.000000e+00 0.000000e+00))
0.01875       	((8.582133e-01 -3.430737e-04 6.536890e-22) (2.173465e-01 8.944768e-06 3.432962e-18) (0.000000e+00 0.000000e+00 0.000000e+00)) ((3.330326e-23 9.588486e-24 -1.748252e-03) (-1.772017e-20 -1.544835e-18 1.393534e-06) (0.000000e+00 0.000000e+00 0.000000e+00))
0.025         	((5.942238e-01 -1.994836e-03 5.492205e-22) (2.170238e-01 1.383781e-05 3.432967e-18) (0.000000e+00 0.000000e+00 0.000000e+00)) ((3.034394e-23 4.738838e-23 -1.812660e-03) (-1.772025e-20 -1.544838e-18 2.368285e-06) (0.000000e+00 0.000000e+00 0.000000e+00))
0.03125       	((4.021080e-01 -4.935258e-03 4.687914e-22) (2.175428e-01 1.815005e-05 3.432971e-18) (0.000000e+00 0.000000e+00 0.000000e+00)) ((2.503855e-23 8.458464e-23 -1.923756e-03) (-1.772028e-20 -1.544840e-18 4.821999e-06) (0.000000e+00 0.000000e+00 0.000000e+00))
0.0375        	((2.533177e-01 -6.771837e-03 4.147603e-22) (2.180693e-01 2.479518e-05 3.432970e-18) (0.000000e+00 0.000000e+00 0.000000e+00)) ((1.868938e-23 1.120345e-22 -1.942372e-03) (-1.772030e-20 -1.544840e-18 1.006962e-05) (0.000000e+00 0.000000e+00 0.000000e+00))
0.04375       	((1.423211e-01 -7.546981e-03 3.750001e-22) (2.180733e-01 4.511271e-05 3.432972e-18) (0.000000e+00 0.000000e+00 0.000000e+00)) ((1.233805e-23 1.320664e-22 -1.857985e-03) (-1.772034e-20 -1.544841e-18 2.251683e-05) (0.000000e+00 0.000000e+00 0.000000e+00))
0.05          	((6.450736e-02 -7.601984e-03 3.590928e-22) (2.178800e-01 2.555537e-05 3.432972e-18) (0.000000e+00 0.000000e+00 0.000000e+00)) ((7.219710e-24 1.389867e-22 -1.728900e-03) (-1.772038e-20 -1.544840e-18 1.395371e-05) (0.000000e+00 0.000000e+00 0.000000e+00))
0.05625       	((4.306669e-03 -6.480763e-03 3.495323e-22) (2.177655e-01 1.660944e-05 3.432971e-18) (0.000000e+00 0.000000e+00 0.000000e+00)) ((3.238492e-24 1.414423e-22 -1.343534e-03) (-1.772033e-20 -1.544840e-18 1.012823e-05) (0.000000e+00 0.000000e+00 0.000000e+00))
0.0625        	((-3.685228e-02 -6.547865e-03 3.420283e-22) (2.177610e-01 1.100942e-05 3.432973e-18) (0.000000e+00 0.000000e+00 0.000000e+00)) ((1.031967e-24 1.421597e-22 -1.256269e-03) (-1.772036e-20 -1.544841e-18 7.842879e-06) (0.000000e+00 0.000000e+00 0.000000e+00))
0.06875       	((-6.647743e-02 -6.676982e-03 3.356214e-22) (2.178097e-01 5.924875e-06 3.432973e-18) (0.000000e+00 0.000000e+00 0.000000e+00)) ((-5.549111e-25 1.423325e-22 -1.189897e-03) (-1.772038e-20 -1.544841e-18 5.773447e-06) (0.000000e+00 0.000000e+00 0.000000e+00))
0.075         	((-9.038182e-02 -7.148152e-03 3.303340e-22) (2.178224e-01 3.020278e-06 3.432972e-18) (0.000000e+00 0.000000e+00 0.000000e+00)) ((-2.106002e-24 1.424921e-22 -1.223122e-03) (-1.772035e-20 -1.544840e-18 4.916003e-06) (0.000000e+00 0.000000e+00 0.000000e+00))
0.08125       	((-1.106397e-01 -7.281437e-03 3.265899e-22) (2.177408e-01 8.792126e-07 3.432973e-18) (0.000000e+00 0.000000e+00 0.000000e+00)) ((-3.529218e-24 1.424076e-22 -1.165806e-03) (-1.772034e-20 -1.544841e-18 4.363465e-06) (0.000000e+00 0.000000e+00 0.000000e+00))
0.0875        	((-1.262823e-01 -6.594331e-03 3.244119e-22) (2.175883e-01 -8.963623e-07 3.432973e-18) (0.000000e+00 0.000000e+00 0.000000e+00)) ((-4.673007e-24 1.420398e-22 -9.001144e-04) (-1.772033e-20 -1.544841e-18 3.696635e-06) (0.000000e+00 0.000000e+00 0.000000e+00))
0.09375       	((-1.360766e-01 -4.964166e-03 3.238431e-22) (2.174265e-01 -2.157155e-06 3.432973e-18) (0.000000e+00 0.000000e+00 0.000000e+00)) ((-5.401979e-24 1.417110e-22 -4.667270e-04) (-1.772033e-20 -1.544841e-18 2.841416e-06) (0.000000e+00 0.000000e+00 0.000000e+00))
0.1           	((-1.408005e-01 -3.540540e-03 3.246778e-22) (2.173036e-01 -2.780655e-06 3.432973e-18) (0.000000e+00 0.000000e+00 0.000000e+00)) ((-5.719679e-24 1.419853e-22 -1.028631e-04) (-1.772033e-20 -1.544841e-18 2.110052e-06) (0.000000e+00 0.000000e+00 0.000000e+00))
0.10625       	((-1.424187e-01 -2.708990e-03 3.258383e-22) (2.172337e-01 -2.990771e-06 3.432973e-18) (0.000000e+00 0.000000e+00 0.000000e+00)) ((-5.793079e-24 1.425156e-22 9.424808e-05) (-1.772033e-20 -1.544841e-18 1.660286e-06) (0.000000e+00 0.000000e+00 0.000000e+00))
0.1125        	((-1.427977e-01 -2.119163e-03 3.264847e-22) (2.172045e-01 -2.959956e-06 3.432973e-18) (0.000000e+00 0.000000e+00 0.000000e+00)) ((-5.791347e-24 1.428301e-22 1.625056e-04) (-1.772032e-20 -1.544841e-18 1.400808e-06) (0.000000e+00 0.000000e+00 0.000000e+00))
0.11875       	((-1.430074e-01 -1.682568e-03 3.266862e-22) (2.171916e-01 -2.822726e-06 3.432973e-18) (0.000000e+00 0.000000e+00 0.000000e+00)) ((-5.785863e-24 1.429507e-22 1.630616e-04) (-1.772032e-20 -1.544841e-18 1.219954e-06) (0.000000e+00 0.000000e+00 0.000000e+00))
0.125         	((-1.434635e-01 -1.619640e-03 3.272786e-22) (2.171738e-01 -3.177867e-06 3.432973e-18) (0.000000e+00 0.000000e+00 0.000000e+00)) ((-5.762248e-24 1.433701e-22 1.494456e-04) (-1.772032e-20 -1.544841e-18 9.301383e-07) (0.000000e+00 0.000000e+00 0.000000e+00))
0.13125       	((-1.439983e-01 -1.591365e-03 3.279061e-22) (2.171444e-01 -2.164532e-06 3.432973e-18) (0.000000e+00 0.000000e+00 0.000000e+00)) ((-5.733985e-24 1.438100e-22 1.305322e-04) (-1.772033e-20 -1.544841e-18 1.325357e-06) (0.000000e+00 0.000000e+00 0.000000e+00))
0.1375        	((-1.445593e-01 -1.588296e-03 3.284804e-22) (2.171081e-01 -3.764793e-06 3.432973e-18) (0.000000e+00 0.000000e+00 0.000000e+00)) ((-5.710141e-24 1.442115e-22 1.498344e-04) (-1.772032e-20 -1.544841e-18 5.449410e-07) (0.000000e+00 0.000000e+00 0.000000e+00))
0.14375       	((-1.451177e-01 -1.435122e-03 3.289472e-22) (2.170689e-01 -6.100334e-07 3.432973e-18) (0.000000e+00 0.000000e+00 0.000000e+00)) ((-5.685758e-24 1.445219e-22 1.523675e-04) (-1.772033e-20 -1.544841e-18 1.882475e-06) (0.000000e+00 0.000000e+00 0.000000e+00))
0.15          	((-1.455060e-01 -1.401933e-03 3.293124e-22) (2.170300e-01 -2.830214e-06 3.432972e-18) (0.000000e+00 0.000000e+00 0.000000e+00)) ((-5.658241e-24 1.447825e-22 1.551323e-04) (-1.772032e-20 -1.544841e-18 7.843292e-07) (0.000000e+00 0.000000e+00 0.000000e+00))
0.15625       	((-1.458568e-01 -1.308853e-03 3.295925e-22) (2.169936e-01 -4.093313e-06 3.432972e-18) (0.000000e+00 0.000000e+00 0.000000e+00)) ((-5.633543e-24 1.449832e-22 1.507725e-04) (-1.772032e-20 -1.544841e-18 1.139090e-07) (0.000000e+00 0.000000e+00 0.000000e+00))
0.1625        	((-1.461567e-01 -1.147751e-03 3.297896e-22) (2.169604e-01 -2.702304e-06 3.432972e-18) (0.000000e+00 0.000000e+00 0.000000e+00)) ((-5.610264e-24 1.451232e-22 1.423563e-04) (-1.772032e-20 -1.544841e-18 6.297708e-07) (0.000000e+00 0.000000e+00 0.000000e+00))
0.16875       	((-1.463470e-01 -1.131889e-03 3.299266e-22) (2.169311e-01 -1.086706e-06 3.432973e-18) (0.000000e+00 0.000000e+00 0.000000e+00)) ((-5.588355e-24 1.452220e-22 1.322241e-04) (-1.772033e-20 -1.544841e-18 1.244473e-06) (0.000000e+00 0.000000e+00 0.000000e+00))
0.175         	((-1.465059e-01 -1.020926e-03 3.299942e-22) (2.169060e-01 -2.388891e-06 3.432973e-18) (0.000000e+00 0.000000e+00 0.000000e+00)) ((-5.570351e-24 1.452830e-22 1.288735e-04) (-1.772032e-20 -1.544841e-18 5.412794e-07) (0.000000e+00 0.000000e+00 0.000000e+00))
0.18125       	((-1.466501e-01 -9.150956e-04 3.300368e-22) (2.168844e-01 -1.015263e-06 3.432973e-18) (0.000000e+00 0.000000e+00 0.000000e+00)) ((-5.555874e-24 1.453067e-22 1.169093e-04) (-1.772032e-20 -1.544841e-18 1.045028e-06) (0.000000e+00 0.000000e+00 0.000000e+00))
0.1875        	((-1.467427e-01 -8.409242e-04 3.300149e-22) (2.168670e-01 -1.821962e-06 3.432973e-18) (0.000000e+00 0.000000e+00 0.000000e+00)) ((-5.544479e-24 1.453028e-22 1.100387e-04) (-1.772032e-20 -1.544841e-18 5.591072e-07) (0.000000e+00 0.000000e+00 0.000000e+00))
0.19375       	((-1.468086e-01 -7.538307e-04 3.299774e-22) (2.168528e-01 -1.727564e-06 3.432973e-18) (0.000000e+00 0.000000e+00 0.000000e+00)) ((-5.535839e-24 1.452831e-22 1.022280e-04) (-1.772032e-20 -1.544841e-18 4.833478e-07) (0.000000e+00 0.000000e+00 0.000000e+00))
0.2           	((-1.468487e-01 -6.724646e-04 3.299177e-22) (2.168419e-01 -1.617039e-06 3.432973e-18) (0.000000e+00 0.000000e+00 0.000000e+00)) ((-5.529818e-24 1.452475e-22 9.439580e-05) (-1.772032e-20 -1.544841e-18 4.171392e-07) (0.000000e+00 0.000000e+00 0.000000e+00))
0.20625       	((-1.468701e-01 -5.949736e-04 3.298432e-22) (2.168338e-01 -1.508685e-06 3.432973e-18) (0.000000e+00 0.000000e+00 0.000000e+00)) ((-5.526046e-24 1.452016e-22 8.661404e-05) (-1.772032e-20 -1.544841e-18 3.527313e-07) (0.000000e+00 0.000000e+00 0.000000e+00))
0.2125        	((-1.468767e-01 -5.220793e-04 3.297590e-22) (2.168281e-01 -1.403071e-06 3.432973e-18) (0.000000e+00 0.000000e+00 0.000000e+00)) ((-5.524165e-24 1.451491e-22 7.883419e-05) (-1.772032e-20 -1.544841e-18 2.908441e-07) (0.000000e+00 0.000000e+00 0.000000e+00))
0.21875       	((-1.468724e-01 -4.530023e-04 3.296702e-22) (2.168245e-01 -1.301133e-06 3.432973e-18) (0.000000e+00 0.000000e+00 0.000000e+00)) ((-5.523794e-24 1.450934e-22 7.113089e-05) (-1.772032e-20 -1.544841e-18 2.320305e-07) (0.000000e+00 0.000000e+00 0.000000e+00))
0.225         	((-1.468599e-01 -3.895022e-04 3.295811e-22) (2.168225e-01 -1.203839e-06 3.432973e-18) (0.000000e+00 0.000000e+00 0.000000e+00)) ((-5.524563e-24 1.450371e-22 6.355923e-05) (-1.772032e-20 -1.544841e-18 1.767428e-07) (0.000000e+00 0.000000e+00 0.000000e+00))
0.23125       	((-1.468416e-01 -3.319139e-04 3.294952e-22) (2.168219e-01 -1.112098e-06 3.432973e-18) (0.000000e+00 0.000000e+00 0.000000e+00)) ((-5.526140e-24 1.449829e-22 5.621715e-05) (-1.772032e-20 -1.544841e-18 1.253384e-07) (0.000000e+00 0.000000e+00 0.000000e+00))
0.2375        	((-1.468202e-01 -2.798923e-04 3.294143e-22) (2.168223e-01 -1.026511e-06 3.432973e-18) (0.000000e+00 0.000000e+00 0.000000e+00)) ((-5.528287e-24 1.449318e-22 4.920700e-05) (-1.772032e-20 -1.544841e-18 7.805032e-08) (0.000000e+00 0.000000e+00 0.000000e+00))
0.24375       	((-1.467973e-01 -2.336226e-04 3.293403e-22) (2.168235e-01 -9.475669e-07 3.432973e-18) (0.000000e+00 0.000000e+00 0.000000e+00)) ((-5.530769e-24 1.448851e-22 4.258964e-05) (-1.772032e-20 -1.544841e-18 3.500942e-08) (0.000000e+00 0.000000e+00 0.000000e+00))
0.25          	((-1.467742e-01 -1.928930e-04 3.292743e-22) (2.168252e-01 -8.755712e-07 3.432973e-18) (0.000000e+00 0.000000e+00 0.000000e+00)) ((-5.533397e-24 1.448436e-22 3.643453e-05) (-1.772032e-20 -1.544841e-18 -3.754025e-09) (0.000000e+00 0.000000e+00 0.000000e+00))
0.25625       	((-1.467522e-01 -1.574545e-04 3.292167e-22) (2.168271e-01 -8.106479e-07 3.432973e-18) (0.000000e+00 0.000000e+00 0.000000e+00)) ((-5.536022e-24 1.448075e-22 3.078326e-05) (-1.772032e-20 -1.544841e-18 -3.828869e-08) (0.000000e+00 0.000000e+00 0.000000e+00))
0.2625        	((-1.467319e-01 -1.269745e-04 3.291676e-22) (2.168292e-01 -7.527862e-07 3.432973e-18) (0.000000e+00 0.000000e+00 0.000000e+00)) ((-5.538541e-24 1.447768e-22 2.566228e-05) (-1.772032e-20 -1.544841e-18 -6.872840e-08) (0.000000e+00 0.000000e+00 0.000000e+00))
0.26875       	((-1.467137e-01 -1.010729e-04 3.291267e-22) (2.168314e-01 -7.018169e-07 3.432973e-18) (0.000000e+00 0.000000e+00 0.000000e+00)) ((-5.540870e-24 1.447514e-22 2.108864e-05) (-1.772032e-20 -1.544841e-18 -9.525707e-08) (0.000000e+00 0.000000e+00 0.000000e+00))
0.275         	((-1.466979e-01 -7.936160e-05 3.290937e-22) (2.168334e-01 -6.574686e-07 3.432973e-18) (0.000000e+00 0.000000e+00 0.000000e+00)) ((-5.542952e-24 1.447310e-22 1.705382e-05) (-1.772032e-20 -1.544841e-18 -1.181154e-07) (0.000000e+00 0.000000e+00 0.000000e+00))
0.28125       	((-1.466847e-01 -6.139059e-05 3.290676e-22) (2.168353e-01 -6.193717e-07 3.432973e-18) (0.000000e+00 0.000000e+00 0.000000e+00)) ((-5.544769e-24 1.447151e-22 1.355178e-05) (-1.772032e-20 -1.544841e-18 -1.375759e-07) (0.000000e+00 0.000000e+00 0.000000e+00))
0.2875        	((-1.466739e-01 -4.675015e-05 3.290480e-22) (2.168370e-01 -5.870749e-07 3.432973e-18) (0.000000e+00 0.000000e+00 0.000000e+00)) ((-5.546295e-24 1.447032e-22 1.055251e-05) (-1.772032e-20 -1.544841e-18 -1.539316e-07) (0.000000e+00 0.000000e+00 0.000000e+00))
0.29375       	((-1.466654e-01 -3.499299e-05 3.290338e-22) (2.168385e-01 -5.600937e-07 3.432973e-18) (0.000000e+00 0.000000e+00 0.000000e+00)) ((-5.547549e-24 1.446949e-22 8.027285e-06) (-1.772032e-20 -1.544841e-18 -1.674975e-07) (0.000000e+00 0.000000e+00 0.000000e+00))
0.3           	((-1.466589e-01 -2.577023e-05 3.290243e-22) (2.168398e-01 -5.378903e-07 3.432973e-18) (0.000000e+00 0.000000e+00 0.000000e+00)) ((-5.548530e-24 1.446894e-22 5.938187e-06) (-1.772032e-20 -1.544841e-18 -1.785773e-07) (0.000000e+00 0.000000e+00 0.000000e+00))
0.30625       	((-1.466544e-01 -1.863693e-05 3.290187e-22) (2.168409e-01 -5.199371e-07 3.432973e-18) (0.000000e+00 0.000000e+00 0.000000e+00)) ((-5.549271e-24 1.446863e-22 4.237759e-06) (-1.772032e-20 -1.544841e-18 -1.874893e-07) (0.000000e+00 0.000000e+00 0.000000e+00))
0.3125        	((-1.466514e-01 -1.325325e-05 3.290160e-22) (2.168417e-01 -5.056880e-07 3.432973e-18) (0.000000e+00 0.000000e+00 0.000000e+00)) ((-5.549799e-24 1.446852e-22 2.892318e-06) (-1.772032e-20 -1.544841e-18 -1.945189e-07) (0.000000e+00 0.000000e+00 0.000000e+00))
0.31875       	((-1.466498e-01 -9.350198e-06 3.290159e-22) (2.168423e-01 -4.946343e-07 3.432973e-18) (0.000000e+00 0.000000e+00 0.000000e+00)) ((-5.550133e-24 1.446855e-22 1.842824e-06) (-1.772032e-20 -1.544841e-18 -1.999546e-07) (0.000000e+00 0.000000e+00 0.000000e+00))
0.325         	((-1.466493e-01 -6.595542e-06 3.290173e-22) (2.168428e-01 -4.862815e-07 3.432973e-18) (0.000000e+00 0.000000e+00 0.000000e+00)) ((-5.550324e-24 1.446869e-22 1.060971e-06) (-1.772032e-20 -1.544841e-18 -2.040517e-07) (0.000000e+00 0.000000e+00 0.000000e+00))
0.33125       	((-1.466495e-01 -4.754150e-06 3.290203e-22) (2.168431e-01 -4.801659e-07 3.432973e-18) (0.000000e+00 0.000000e+00 0.000000e+00)) ((-5.550374e-24 1.446890e-22 4.892518e-07) (-1.772032e-20 -1.544841e-18 -2.070463e-07) (0.000000e+00 0.000000e+00 0.000000e+00))
0.3375        	((-1.466497e-01 -2.416600e-06 3.290242e-22) (2.168433e-01 -4.785053e-07 3.432972e-18) (0.000000e+00 0.000000e+00 0.000000e+00)) ((-5.550233e-24 1.446920e-22 8.424576e-08) (-1.772032e-20 -1.544841e-18 -2.138450e-07) (0.000000e+00 0.000000e+00 0.000000e+00))
0.34375       	((-1.466517e-01 -8.383677e-07 3.290284e-22) (2.168433e-01 -4.749197e-07 3.432972e-18) (0.000000e+00 0.000000e+00 0.000000e+00)) ((-5.550086e-24 1.446948e-22 -2.575348e-07) (-1.772032e-20 -1.544841e-18 -2.155050e-07) (0.000000e+00 0.000000e+00 0.000000e+00))
0.35          	((-1.466536e-01 -7.510113e-07 3.290321e-22) (2.168433e-01 -4.730039e-07 3.432972e-18) (0.000000e+00 0.000000e+00 0.000000e+00)) ((-5.549943e-24 1.446975e-22 -3.314013e-07) (-1.772032e-20 -1.544841e-18 -2.163658e-07) (0.000000e+00 0.000000e+00 0.000000e+00))
0.35625       	((-1.466552e-01 -1.531733e-06 3.290356e-22) (2.168432e-01 -4.719351e-07 3.432972e-18) (0.000000e+00 0.000000e+00 0.000000e+00)) ((-5.549777e-24 1.446998e-22 -4.426545e-07) (-1.772032e-20 -1.544841e-18 -2.167866e-07) (0.000000e+00 0.000000e+00 0.000000e+00))
0.3625        	((-1.466569e-01 -1.875212e-06 3.290391e-22) (2.168431e-01 -4.714335e-07 3.432972e-18) (0.000000e+00 0.000000e+00 0.000000e+00)) ((-5.549582e-24 1.447023e-22 -4.986515e-07) (-1.772032e-20 -1.544841e-18 -2.169194e-07) (0.000000e+00 0.000000e+00 0.000000e+00))
0.36875       	((-1.466587e-01 -2.177500e-06 3.290421e-22) (2.168430e-01 -4.714953e-07 3.432972e-18) (0.000000e+00 0.000000e+00 0.000000e+00)) ((-5.549409e-24 1.447042e-22 -4.896084e-07) (-1.772032e-20 -1.544841e-18 -2.168514e-07) (0.000000e+00 0.000000e+00 0.000000e+00))
0.375         	((-1.466176e-01 8.229408e-06 3.290212e-22) (2.168346e-01 -4.837263e-06 3.432974e-18) (0.000000e+00 0.000000e+00 0.000000e+00)) ((-5.548342e-24 1.447172e-22 3.892369e-06) (-1.772032e-20 -1.544841e-18 -2.433233e-06) (0.000000e+00 0.000000e+00 0.000000e+00))
0.38125       	((-1.466127e-01 -4.933232e-06 3.290186e-22) (2.168346e-01 -4.811370e-06 3.432974e-18) (0.000000e+00 0.000000e+00 0.000000e+00)) ((-5.547945e-24 1.447223e-22 2.173209e-07) (-1.772032e-20 -1.544841e-18 -2.413879e-06) (0.000000e+00 0.000000e+00 0.000000e+00))
0.3875        	((-1.466154e-01 -3.381823e-06 3.290199e-22) (2.168345e-01 -4.811089e-06 3.432974e-18) (0.000000e+00 0.000000e+00 0.000000e+00)) ((-5.547831e-24 1.447234e-22 -9.977583e-08) (-1.772032e-20 -1.544841e-18 -2.411578e-06) (0.000000e+00 0.000000e+00 0.000000e+00))
0.39375       	((-1.466161e-01 -4.143087e-06 3.290217e-22) (2.168343e-01 -4.812186e-06 3.432974e-18) (0.000000e+00 0.000000e+00 0.000000e+00)) ((-5.547677e-24 1.447245e-22 1.660222e-08) (-1.772032e-20 -1.544841e-18 -2.410921e-06) (0.000000e+00 0.000000e+00 0.000000e+00))
0.4           	((-1.466171e-01 -3.697850e-06 3.290229e-22) (2.168342e-01 -4.813025e-06 3.432974e-18) (0.000000e+00 0.000000e+00 0.000000e+00)) ((-5.547564e-24 1.447252e-22 1.688113e-07) (-1.772032e-20 -1.544841e-18 -2.410507e-06) (0.000000e+00 0.000000e+00 0.000000e+00))
0.40625       	((-1.466177e-01 -3.887289e-06 3.290238e-22) (2.168341e-01 -4.813830e-06 3.432974e-18) (0.000000e+00 0.000000e+00 0.000000e+00)) ((-5.547462e-24 1.447256e-22 2.669461e-07) (-1.772032e-20 -1.544841e-18 -2.410201e-06) (0.000000e+00 0.000000e+00 0.000000e+00))
0.4125        	((-1.466183e-01 -3.900782e-06 3.290242e-22) (2.168340e-01 -4.814458e-06 3.432974e-18) (0.000000e+00 0.000000e+00 0.000000e+00)) ((-5.547386e-24 1.447259e-22 3.502028e-07) (-1.772032e-20 -1.544841e-18 -2.409963e-06) (0.000000e+00 0.000000e+00 0.000000e+00))
0.41875       	((-1.466186e-01 -3.812192e-06 3.290245e-22) (2.168339e-01 -4.876339e-06 3.432973e-18) (0.000000e+00 0.000000e+00 0.000000e+00)) ((-5.547329e-24 1.447260e-22 4.119374e-07) (-1.772032e-20 -1.544841e-18 -2.443597e-06) (0.000000e+00 0.000000e+00 0.000000e+00))
0.425         	((-1.466189e-01 -3.837904e-06 3.290245e-22) (2.168338e-01 -4.877221e-06 3.432973e-18) (0.000000e+00 0.000000e+00 0.000000e+00)) ((-5.547282e-24 1.447260e-22 4.659564e-07) (-1.772032e-20 -1.544841e-18 -2.443733e-06) (0.000000e+00 0.000000e+00 0.000000e+00))
0.43125       	((-1.466191e-01 -3.888831e-06 3.290243e-22) (2.168338e-01 -4.877497e-06 3.432973e-18) (0.000000e+00 0.000000e+00 0.000000e+00)) ((-5.547248e-24 1.447259e-22 5.061699e-07) (-1.772032e-20 -1.544841e-18 -2.443664e-06) (0.000000e+00 0.000000e+00 0.000000e+00))
0.4375        	((-1.466193e-01 -3.805338e-06 3.290241e-22) (2.168337e-01 -4.877695e-06 3.432973e-18) (0.000000e+00 0.000000e+00 0.000000e+00)) ((-5.547223e-24 1.447258e-22 5.400769e-07) (-1.772032e-20 -1.544841e-18 -2.443645e-06) (0.000000e+00 0.000000e+00 0.000000e+00))
0.44375       	((-1.466193e-01 -3.737655e-06 3.290239e-22) (2.168337e-01 -4.877817e-06 3.432973e-18) (0.000000e+00 0.000000e+00 0.000000e+00)) ((-5.547205e-24 1.447256e-22 5.647939e-07) (-1.772032e-20 -1.544841e-18 -2.443662e-06) (0.000000e+00 0.000000e+00 0.000000e+00))
0.45          	((-1.466194e-01 -3.618664e-06 3.290237e-22) (2.168337e-01 -4.877865e-06 3.432973e-18) (0.000000e+00 0.000000e+00 0.000000e+00)) ((-5.547192e-24 1.447253e-22 5.838952e-07) (-1.772032e-20 -1.544841e-18 -2.443710e-06) (0.000000e+00 0.000000e+00 0.000000e+00))
0.45625       	((-1.466194e-01 -3.469396e-06 3.290234e-22) (2.168336e-01 -4.877837e-06 3.432973e-18) (0.000000e+00 0.000000e+00 0.000000e+00)) ((-5.547186e-24 1.447250e-22 5.972135e-07) (-1.772032e-20 -1.544841e-18 -2.443784e-06) (0.000000e+00 0.000000e+00 0.000000e+00))
0.4625        	((-1.466194e-01 -3.296337e-06 3.290230e-22) (2.168336e-01 -4.877748e-06 3.432973e-18) (0.000000e+00 0.000000e+00 0.000000e+00)) ((-5.547190e-24 1.447247e-22 6.055273e-07) (-1.772032e-20 -1.544841e-18 -2.443877e-06) (0.000000e+00 0.000000e+00 0.000000e+00))
0.46875       	((-1.466193e-01 -3.104944e-06 3.290225e-22) (2.168336e-01 -4.877610e-06 3.432973e-18) (0.000000e+00 0.000000e+00 0.000000e+00)) ((-5.547204e-24 1.447245e-22 6.084677e-07) (-1.772032e-20 -1.544841e-18 -2.443987e-06) (0.000000e+00 0.000000e+00 0.000000e+00))
0.475         	((-1.466192e-01 -2.913637e-06 3.290219e-22) (2.168336e-01 -4.877440e-06 3.432973e-18) (0.000000e+00 0.000000e+00 0.000000e+00)) ((-5.547226e-24 1.447244e-22 6.048033e-07) (-1.772032e-20 -1.544841e-18 -2.444110e-06) (0.000000e+00 0.000000e+00 0.000000e+00))
0.48125       	((-1.466191e-01 -2.731881e-06 3.290213e-22) (2.168336e-01 -4.877250e-06 3.432973e-18) (0.000000e+00 0.000000e+00 0.000000e+00)) ((-5.547248e-24 1.447242e-22 5.934631e-07) (-1.772032e-20 -1.544841e-18 -2.444243e-06) (0.000000e+00 0.000000e+00 0.000000e+00))
0.4875        	((-1.466190e-01 -2.571579e-06 3.290209e-22) (2.168336e-01 -4.877052e-06 3.432973e-18) (0.000000e+00 0.000000e+00 0.000000e+00)) ((-5.547263e-24 1.447240e-22 5.745294e-07) (-1.772032e-20 -1.544841e-18 -2.444382e-06) (0.000000e+00 0.000000e+00 0.000000e+00))
0.49375       	((-1.466189e-01 -2.434688e-06 3.290209e-22) (2.168336e-01 -4.876845e-06 3.432973e-18) (0.000000e+00 0.000000e+00 0.000000e+00)) ((-5.547265e-24 1.447237e-22 5.506526e-07) (-1.772032e-20 -1.544841e-18 -2.444519e-06) (0.000000e+00 0.000000e+00 0.000000e+00))
0.5           	((-1.466188e-01 -2.314619e-06 3.290211e-22) (2.168336e-01 -4.876629e-06 3.432973e-18) (0.000000e+00 0.000000e+00 0.000000e+00)) ((-5.547259e-24 1.447232e-22 5.268360e-07) (-1.772032e-20 -1.544841e-18 -2.444645e-06) (0.000000e+00 0.000000e+00 0.000000e+00))
0.50625       	((-1.466187e-01 -2.198850e-06 3.290212e-22) (2.168336e-01 -4.876403e-06 3.432973e-18) (0.000000e+00 0.000000e+00 0.000000e+00)) ((-5.547257e-24 1.447229e-22 5.084910e-07) (-1.772032e-20 -1.544841e-18 -2.444754e-06) (0.000000e+00 0.000000e+00 0.000000e+00))
0.5125        	((-1.466186e-01 -2.076994e-06 3.290210e-22) (2.168336e-01 -4.876176e-06 3.432973e-18) (0.000000e+00 0.000000e+00 0.000000e+00)) ((-5.547272e-24 1.447227e-22 4.982442e-07) (-1.772032e-20 -1.544841e-18 -2.444846e-06) (0.000000e+00 0.000000e+00 0.000000e+00))
0.51875       	((-1.466185e-01 -1.950606e-06 3.290202e-22) (2.168337e-01 -4.875964e-06 3.432973e-18) (0.000000e+00 0.000000e+00 0.000000e+00)) ((-5.547310e-24 1.447229e-22 4.934338e-07) (-1.772032e-20 -1.544841e-18 -2.444927e-06) (0.000000e+00 0.000000e+00 0.000000e+00))
0.525         	((-1.466184e-01 -1.836778e-06 3.290191e-22) (2.168337e-01 -4.875789e-06 3.432973e-18) (0.000000e+00 0.000000e+00 0.000000e+00)) ((-5.547363e-24 1.447233e-22 4.864677e-07) (-1.772032e-20 -1.544841e-18 -2.445007e-06) (0.000000e+00 0.000000e+00 0.000000e+00))
0.53125       	((-1.466184e-01 -1.761879e-06 3.290182e-22) (2.168337e-01 -4.875663e-06 3.432973e-18) (0.000000e+00 0.000000e+00 0.000000e+00)) ((-5.547404e-24 1.447235e-22 4.688729e-07) (-1.772032e-20 -1.544841e-18 -2.445095e-06) (0.000000e+00 0.000000e+00 0.000000e+00))
0.5375        	((-1.466184e-01 -1.744863e-06 3.290183e-22) (2.168337e-01 -4.875584e-06 3.432973e-18) (0.000000e+00 0.000000e+00 0.000000e+00)) ((-5.547405e-24 1.447234e-22 4.376028e-07) (-1.772032e-20 -1.544841e-18 -2.445185e-06) (0.000000e+00 0.000000e+00 0.000000e+00))
0.54375       	((-1.466183e-01 -1.778733e-06 3.290194e-22) (2.168337e-01 -4.875519e-06 3.432973e-18) (0.000000e+00 0.000000e+00 0.000000e+00)) ((-5.547357e-24 1.447228e-22 4.000301e-07) (-1.772032e-20 -1.544841e-18 -2.445263e-06) (0.000000e+00 0.000000e+00 0.000000e+00))
0.55          	((-1.466183e-01 -1.823204e-06 3.290213e-22) (2.168337e-01 -4.875428e-06 3.432973e-18) (0.000000e+00 0.000000e+00 0.000000e+00)) ((-5.547282e-24 1.447219e-22 3.732426e-07) (-1.772032e-20 -1.544841e-18 -2.445305e-06) (0.000000e+00 0.000000e+00 0.000000e+00))
0.55625       	((-1.466182e-01 -1.820468e-06 3.290224e-22) (2.168337e-01 -4.875293e-06 3.432973e-18) (0.000000e+00 0.000000e+00 0.000000e+00)) ((-5.547237e-24 1.447213e-22 3.748320e-07) (-1.772032e-20 -1.544841e-18 -2.445300e-06) (0.000000e+00 0.000000e+00 0.000000e+00))
0.5625        	((-1.466181e-01 -1.733822e-06 3.290217e-22) (2.168337e-01 -4.875143e-06 3.432973e-18) (0.000000e+00 0.000000e+00 0.000000e+00)) ((-5.547275e-24 1.447216e-22 4.080095e-07) (-1.772032e-20 -1.544841e-18 -2.445265e-06) (0.000000e+00 0.000000e+00 0.000000e+00))
0.56875       	((-1.466181e-01 -1.590789e-06 3.290187e-22) (2.168337e-01 -4.875039e-06 3.432973e-18) (0.000000e+00 0.000000e+00 0.000000e+00)) ((-5.547407e-24 1.447230e-22 4.510177e-07) (-1.772032e-20 -1.544841e-18 -2.445238e-06) (0.000000e+00 0.000000e+00 0.000000e+00))
0.575         	((-1.466181e-01 -1.495397e-06 3.290153e-22) (2.168337e-01 -4.875048e-06 3.432973e-18) (0.000000e+00 0.000000e+00 0.000000e+00)) ((-5.547554e-24 1.447246e-22 4.629394e-07) (-1.772032e-20 -1.544841e-18 -2.445263e-06) (0.000000e+00 0.000000e+00 0.000000e+00))
0.58125       	((-1.466182e-01 -1.570142e-06 3.290147e-22) (2.168337e-01 -4.875200e-06 3.432973e-18) (0.000000e+00 0.000000e+00 0.000000e+00)) ((-5.547578e-24 1.447250e-22 4.121112e-07) (-1.772032e-20 -1.544841e-18 -2.445359e-06) (0.000000e+00 0.000000e+00 0.000000e+00))
0.5875        	((-1.466183e-01 -1.828638e-06 3.290189e-22) (2.168337e-01 -4.875375e-06 3.432973e-18) (0.000000e+00 0.000000e+00 0.000000e+00)) ((-5.547393e-24 1.447230e-22 3.183702e-07) (-1.772032e-20 -1.544841e-18 -2.445461e-06) (0.000000e+00 0.000000e+00 0.000000e+00))
0.59375       	((-1.466182e-01 -2.064445e-06 3.290254e-22) (2.168337e-01 -4.875330e-06 3.432973e-18) (0.000000e+00 0.000000e+00 0.000000e+00)) ((-5.547116e-24 1.447200e-22 2.720229e-07) (-1.772032e-20 -1.544841e-18 -2.445433e-06) (0.000000e+00 0.000000e+00 0.000000e+00))
0.6           	((-1.466181e-01 -1.964405e-06 3.290266e-22) (2.168337e-01 -4.875069e-06 3.432973e-18) (0.000000e+00 0.000000e+00 0.000000e+00)) ((-5.547074e-24 1.447195e-22 3.603544e-07) (-1.772032e-20 -1.544841e-18 -2.445266e-06) (0.000000e+00 0.000000e+00 0.000000e+00))
0.60625       	((-1.466180e-01 -1.534814e-06 3.290181e-22) (2.168337e-01 -4.874883e-06 3.432973e-18) (0.000000e+00 0.000000e+00 0.000000e+00)) ((-5.547448e-24 1.447235e-22 5.160681e-07) (-1.772032e-20 -1.544841e-18 -2.445125e-06) (0.000000e+00 0.000000e+00 0.000000e+00))
0.6125        	((-1.466182e-01 -1.381306e-06 3.290099e-22) (2.168337e-01 -4.875086e-06 3.432973e-18) (0.000000e+00 0.000000e+00 0.000000e+00)) ((-5.547796e-24 1.447275e-22 5.107555e-07) (-1.772032e-20 -1.544841e-18 -2.445217e-06) (0.000000e+00 0.000000e+00 0.000000e+00))
0.61875       	((-1.466184e-01 -1.942580e-06 3.290174e-22) (2.168337e-01 -4.875597e-06 3.432973e-18) (0.000000e+00 0.000000e+00 0.000000e+00)) ((-5.547459e-24 1.447239e-22 2.891839e-07) (-1.772032e-20 -1.544841e-18 -2.445488e-06) (0.000000e+00 0.000000e+00 0.000000e+00))
0.625         	((-1.466182e-01 -2.356556e-06 3.290308e-22) (2.168337e-01 -4.875390e-06 3.432973e-18) (0.000000e+00 0.000000e+00 0.000000e+00)) ((-5.546885e-24 1.447176e-22 2.312980e-07) (-1.772032e-20 -1.544841e-18 -2.445359e-06) (0.000000e+00 0.000000e+00 0.000000e+00))
0.63125       	((-1.466180e-01 -1.699343e-06 3.290224e-22) (2.168337e-01 -4.874945e-06 3.432973e-18) (0.000000e+00 0.000000e+00 0.000000e+00)) ((-5.547265e-24 1.447216e-22 5.164882e-07) (-1.772032e-20 -1.544841e-18 -2.445053e-06) (0.000000e+00 0.000000e+00 0.000000e+00))
0.6375        	((-1.466183e-01 -1.312575e-06 3.290072e-22) (2.168337e-01 -4.875146e-06 3.432973e-18) (0.000000e+00 0.000000e+00 0.000000e+00)) ((-5.547912e-24 1.447288e-22 5.577014e-07) (-1.772032e-20 -1.544841e-18 -2.445144e-06) (0.000000e+00 0.000000e+00 0.000000e+00))
0.64375       	((-1.466185e-01 -2.228973e-06 3.290214e-22) (2.168337e-01 -4.875792e-06 3.432973e-18) (0.000000e+00 0.000000e+00 0.000000e+00)) ((-5.547279e-24 1.447221e-22 2.197344e-07) (-1.772032e-20 -1.544841e-18 -2.445500e-06) (0.000000e+00 0.000000e+00 0.000000e+00))
0.65          	((-1.466181e-01 -2.293214e-06 3.290322e-22) (2.168337e-01 -4.875236e-06 3.432973e-18) (0.000000e+00 0.000000e+00 0.000000e+00)) ((-5.546831e-24 1.447170e-22 3.257848e-07) (-1.772032e-20 -1.544841e-18 -2.445165e-06) (0.000000e+00 0.000000e+00 0.000000e+00))
0.65625       	((-1.466181e-01 -1.287389e-06 3.290110e-22) (2.168337e-01 -4.874969e-06 3.432973e-18) (0.000000e+00 0.000000e+00 0.000000e+00)) ((-5.547755e-24 1.447271e-22 6.396473e-07) (-1.772032e-20 -1.544841e-18 -2.444969e-06) (0.000000e+00 0.000000e+00 0.000000e+00))
0.6625        	((-1.466186e-01 -1.879410e-06 3.290130e-22) (2.168337e-01 -4.875768e-06 3.432973e-18) (0.000000e+00 0.000000e+00 0.000000e+00)) ((-5.547644e-24 1.447262e-22 3.356165e-07) (-1.772032e-20 -1.544841e-18 -2.445418e-06) (0.000000e+00 0.000000e+00 0.000000e+00))
0.66875       	((-1.466183e-01 -2.536430e-06 3.290337e-22) (2.168337e-01 -4.875483e-06 3.432973e-18) (0.000000e+00 0.000000e+00 0.000000e+00)) ((-5.546757e-24 1.447164e-22 2.235521e-07) (-1.772032e-20 -1.544841e-18 -2.445263e-06) (0.000000e+00 0.000000e+00 0.000000e+00))
0.675         	((-1.466181e-01 -1.449657e-06 3.290163e-22) (2.168337e-01 -4.874990e-06 3.432973e-18) (0.000000e+00 0.000000e+00 0.000000e+00)) ((-5.547530e-24 1.447246e-22 6.252420e-07) (-1.772032e-20 -1.544841e-18 -2.444932e-06) (0.000000e+00 0.000000e+00 0.000000e+00))