/*--------------------------------*- C++ -*----------------------------------*\
  =========                 |
  \\      /  F ield         | OpenFOAM: The Open Source CFD Toolbox
   \\    /   O peration     | Website:  https://openfoam.org
    \\  /    A nd           | Version:  8
     \\/     M anipulation  |
\*---------------------------------------------------------------------------*/
FoamFile
{
    version     2.0;
    format      ascii;
    class       surfaceScalarField;
    location    "0.2";
    object      phi;
}
// * * * * * * * * * * * * * * * * * * * * * * * * * * * * * * * * * * * * * //

dimensions      [0 3 -1 0 0 0 0];

internalField   nonuniform List<scalar> 
223058
(
-0.00359965
0.0263996
-0.00840024
0.0708006
-0.0119997
0.115199
-0.0167988
0.159599
-0.0215979
0.203999
-0.0251972
0.248399
-0.0287966
0.291599
-0.032396
0.335999
-0.0359953
0.379199
-0.0395946
0.424799
-0.0419939
0.466799
-0.0455932
0.511199
-0.0491925
0.555599
-0.0527918
0.597599
-0.0539911
0.640799
-0.0575903
0.685199
-0.0611895
0.727199
-0.0635888
0.770399
-0.0659881
0.812399
-0.0671873
0.854399
-0.0707865
0.897599
-0.0719858
0.938399
-0.0743851
0.980399
-0.0755843
1.0224
-0.0779835
1.0632
-0.0791828
1.104
-0.081582
1.146
-0.0827813
1.1844
-0.0839805
1.2252
-0.0863797
1.266
-0.087579
1.3044
-0.0887782
1.344
-0.0899774
1.3824
-0.0899767
1.4208
-0.091176
1.4592
-0.0911752
1.4964
-0.0923745
1.5348
-0.0935737
1.572
-0.093573
1.608
-0.0947723
1.644
-0.0947716
1.68
-0.0947708
1.716
-0.0947702
1.7496
-0.0947694
1.7856
-0.0947688
1.8192
-0.0947681
1.8528
-0.0947674
1.8864
-0.0935667
1.9188
-0.0935661
1.9512
-0.0935654
1.9836
-0.0923648
2.0136
-0.0923641
2.046
-0.0911635
2.0748
-0.0905628
2.10564
-0.0897223
2.13468
-0.0887616
2.16336
-0.087801
2.19168
-0.0868405
2.2194
-0.0856399
2.24652
-0.0844393
2.27304
-0.0832388
2.2992
-0.0819183
2.32464
-0.0804777
2.34948
-0.0790372
2.37384
-0.0775967
2.3976
-0.0760362
2.42076
-0.0743557
2.4432
-0.0727952
2.46528
-0.0711147
2.48664
-0.0693143
2.50728
-0.0675139
2.52744
-0.0655935
2.54688
-0.0636731
2.56572
-0.0616326
2.58396
-0.0595922
2.6016
-0.0576719
2.61864
-0.0555115
2.63484
-0.0533511
2.65044
-0.0511908
2.66556
-0.0489105
2.67984
-0.0467502
2.69364
-0.0445899
2.7066
-0.0421896
2.71884
-0.0399093
2.73072
-0.037509
2.74164
-0.0351088
2.75196
-0.0327085
2.76168
-0.0303083
2.77068
-0.0279081
2.77896
-0.0253879
2.78652
-0.0228677
2.79348
-0.0203475
2.79972
-0.0178274
2.80536
-0.0151872
2.81004
-0.0127871
2.81436
-0.010207
2.8178
-0.00765091
2.82058
-0.00508279
2.82266
-0.00251476
2.82404
5.33424e-05
2.82475
0.00262135
2.82475
0.00518944
2.82404
0.00775743
2.82266
0.0103134
2.82058
0.0128935
2.8178
0.0152934
2.81436
0.0179334
2.81004
0.0204534
2.80536
0.0229733
2.79972
0.0254932
2.79348
0.0280131
2.78652
0.030413
2.77896
0.0328129
2.77068
0.0352128
2.76168
0.0376126
2.75196
0.0400125
2.74164
0.0422923
2.73072
0.0446921
2.71884
0.0468519
2.7066
0.0490117
2.69364
0.0512915
2.67984
0.0534512
2.66556
0.055611
2.65044
0.0577707
2.63484
0.0596904
2.61864
0.0617301
2.6016
0.0637698
2.58396
0.0656895
2.56572
0.0676091
2.54688
0.0694088
2.52744
0.0712084
2.50728
0.072888
2.48664
0.0744476
2.46528
0.0761272
2.4432
0.0776868
2.42076
0.0791263
2.3976
0.0805659
2.37384
0.0820054
2.34948
0.0833249
2.32464
0.0845245
2.2992
0.085724
2.27304
0.0869234
2.24652
0.0878829
2.2194
0.0888424
2.19168
0.0898018
2.16336
0.0906413
2.13468
0.0912407
2.10564
0.0924401
2.0748
0.0924395
2.046
0.0936389
2.0136
0.0936382
1.9836
0.0936376
1.9512
0.094837
1.9188
0.0948363
1.8864
0.0948356
1.8528
0.0948349
1.8192
0.0948342
1.7856
0.0948335
1.7496
0.0948328
1.716
0.0948321
1.68
0.0936313
1.644
0.0936306
1.608
0.0924298
1.572
0.091229
1.5348
0.0912283
1.4964
0.0900275
1.4592
0.0900267
1.4208
0.0888259
1.3824
0.0876251
1.344
0.0864243
1.3044
0.0840234
1.266
0.0828226
1.2252
0.0816218
1.1844
0.0792209
1.146
0.0780201
1.104
0.0756192
1.0632
0.0744184
1.0224
0.0720176
0.980401
0.0708167
0.938401
0.0672158
0.897601
0.066015
0.854401
0.0636141
0.812401
0.0612133
0.770401
0.0576124
0.727201
0.0540115
0.685201
0.0528106
0.640801
0.0492098
0.597601
0.0456088
0.555601
0.042008
0.511201
0.0396071
0.466801
0.0360062
0.424801
0.0324053
0.379201
0.0288045
0.336001
0.0252038
0.291601
0.0216028
0.248401
0.0168016
0.204001
0.0120004
0.159601
0.00839963
0.115201
0.00360048
0.0707991
0.0264005
-0.00479796
0.0311976
-0.00959837
0.075601
-0.0131988
0.1188
-0.0179977
0.164398
-0.0215954
0.207597
-0.0239931
0.250797
-0.028791
0.296397
-0.0323891
0.339597
-0.0359872
0.382797
-0.039585
0.428397
-0.0431829
0.470397
-0.0467808
0.514797
-0.0479787
0.556797
-0.0515765
0.601197
-0.0551743
0.644397
-0.057572
0.687597
-0.0599698
0.729597
-0.0623675
0.772797
-0.0647653
0.814797
-0.0683629
0.857997
-0.0695607
0.898797
-0.0731583
0.941997
-0.074356
0.981597
-0.0767537
1.0248
-0.0779514
1.0644
-0.080349
1.1064
-0.0815467
1.1472
-0.0839444
1.1868
-0.085142
1.2264
-0.0851398
1.266
-0.0863375
1.3056
-0.0875352
1.3452
-0.0887328
1.3836
-0.0899305
1.422
-0.0911282
1.4604
-0.0923259
1.4976
-0.0923237
1.5348
-0.0923215
1.572
-0.0935192
1.6092
-0.0935171
1.644
-0.0947148
1.6812
-0.0935127
1.7148
-0.0947105
1.7508
-0.0947084
1.7856
-0.0947062
1.8192
-0.0947041
1.8528
-0.0947021
1.8864
-0.0935001
1.9176
-0.093498
1.9512
-0.0922961
1.9824
-0.093494
2.0148
-0.0910922
2.0436
-0.0910902
2.0748
-0.0904883
2.10504
-0.0896465
2.13384
-0.0888046
2.16252
-0.0877228
2.1906
-0.0866411
2.21832
-0.0855593
2.24544
-0.0844776
2.27196
-0.0831559
2.29788
-0.0818343
2.32332
-0.0803927
2.34804
-0.0790711
2.37252
-0.0775096
2.39604
-0.0759481
2.4192
-0.0743866
2.44164
-0.0727052
2.4636
-0.0709038
2.48484
-0.0691024
2.50548
-0.0673011
2.52564
-0.0653797
2.54496
-0.0635785
2.56392
-0.0616573
2.58204
-0.0596161
2.59956
-0.0574549
2.61648
-0.0554138
2.6328
-0.0533727
2.6484
-0.0510917
2.66328
-0.0489307
2.67768
-0.0466497
2.69136
-0.0443688
2.70432
-0.0420879
2.71656
-0.0396871
2.72832
-0.0374063
2.73936
-0.0350055
2.74956
-0.0326048
2.75928
-0.0300841
2.76816
-0.0276835
2.77656
-0.0252828
2.78412
-0.0227623
2.79096
-0.0202418
2.7972
-0.0177214
2.80284
-0.0152009
2.80752
-0.0126805
2.81184
-0.010088
2.81521
-0.00753175
2.81802
-0.00496349
2.8201
-0.0024073
2.82149
0.000160912
2.82218
0.00272904
2.82218
0.0052852
2.82149
0.00785328
2.8201
0.0104093
2.81802
0.0130013
2.81521
0.0155212
2.81184
0.018041
2.80752
0.020561
2.80284
0.0230808
2.7972
0.0256006
2.79096
0.0280002
2.78412
0.0304
2.77656
0.0329196
2.76816
0.0353192
2.75928
0.0377188
2.74956
0.0399983
2.73936
0.0423978
2.72832
0.0446772
2.71656
0.0469566
2.70432
0.0492359
2.69136
0.0513953
2.67768
0.0536745
2.66328
0.0557137
2.6484
0.0577529
2.6328
0.059912
2.61648
0.0619511
2.59956
0.0638702
2.58204
0.0656692
2.56392
0.0675881
2.54496
0.069387
2.52564
0.0711859
2.50548
0.0729847
2.48484
0.0746636
2.4636
0.0762223
2.44164
0.077781
2.4192
0.0793397
2.39604
0.0806584
2.37252
0.0820969
2.34804
0.0834155
2.32332
0.084734
2.29788
0.0858125
2.27196
0.0868909
2.24544
0.0879693
2.21832
0.0890476
2.1906
0.0898859
2.16252
0.0907242
2.13384
0.0913224
2.10504
0.0913206
2.0748
0.0937189
2.0436
0.0925169
2.0148
0.093715
1.9824
0.093713
1.9512
0.0949111
1.9176
0.0949091
1.8864
0.094907
1.8528
0.0949049
1.8192
0.0949028
1.7856
0.0937006
1.7508
0.0948985
1.7148
0.0936962
1.6812
0.0936939
1.644
0.0924916
1.6092
0.0924893
1.572
0.092487
1.5348
0.0912847
1.4976
0.0900823
1.4604
0.0888798
1.422
0.0876773
1.3836
0.0864749
1.3452
0.0852724
1.3056
0.08527
1.266
0.0840674
1.2264
0.0816649
1.1868
0.0804623
1.1472
0.0780597
1.1064
0.0768571
1.0644
0.0744545
1.0248
0.073252
0.981603
0.0696492
0.942004
0.0684467
0.898803
0.0648439
0.858004
0.0624413
0.814803
0.0600386
0.772804
0.057636
0.729604
0.0552333
0.687604
0.0516306
0.644404
0.0480279
0.601204
0.0468253
0.556803
0.0432227
0.514804
0.03962
0.470404
0.0360173
0.428404
0.0324148
0.382803
0.0288123
0.339603
0.0240095
0.296404
0.0216063
0.250804
0.0180032
0.207604
0.0132016
0.164403
0.00960231
0.1188
0.00480293
0.0755985
0.0312034
-0.00479694
0.0359946
-0.00839539
0.0791994
-0.0131963
0.123601
-0.0167962
0.167998
-0.0203937
0.211194
-0.0251898
0.255593
-0.028786
0.299993
-0.0323826
0.343194
-0.0359794
0.386394
-0.0383761
0.430794
-0.0431725
0.475194
-0.045569
0.517194
-0.0491654
0.560394
-0.0527617
0.604793
-0.055158
0.646793
-0.0575544
0.689993
-0.0611505
0.733193
-0.0635468
0.775193
-0.065943
0.817193
-0.0671393
0.859193
-0.0707353
0.902393
-0.0719315
0.943193
-0.0755276
0.985193
-0.0767237
1.02599
-0.0791198
1.06679
-0.0803159
1.10759
-0.081512
1.14839
-0.0827082
1.18799
-0.0839044
1.22759
-0.0863004
1.26839
-0.0874965
1.30679
-0.0886926
1.34639
-0.0898887
1.38479
-0.0910849
1.42319
-0.0910811
1.46039
-0.0922772
1.49879
-0.0922735
1.53479
-0.0934696
1.57319
-0.0934659
1.60919
-0.0946622
1.64519
-0.0934586
1.67999
-0.0946549
1.71599
-0.0946513
1.75079
-0.0946475
1.78559
-0.0946441
1.81919
-0.0946405
1.85279
-0.0934371
1.88519
-0.0946335
1.91879
-0.0934302
1.94999
-0.0934268
1.98239
-0.0922235
2.01359
-0.0922201
2.04359
-0.0922169
2.07479
-0.0904138
2.10323
-0.0895705
2.13299
-0.0886075
2.16155
-0.0876446
2.18963
-0.0866814
2.21735
-0.0854785
2.24423
-0.0842756
2.27075
-0.0829528
2.29656
-0.0816301
2.322
-0.0804274
2.34684
-0.0788646
2.37096
-0.077422
2.3946
-0.0758595
2.41764
-0.0741771
2.43996
-0.0724945
2.46192
-0.0708122
2.48316
-0.0691298
2.5038
-0.0672075
2.52372
-0.0654054
2.54316
-0.0633632
2.56188
-0.0614412
2.58012
-0.0595192
2.59764
-0.0574771
2.61444
-0.0553152
2.63064
-0.0531536
2.64624
-0.0509916
2.66112
-0.0488301
2.67552
-0.0465484
2.68908
-0.0442668
2.70204
-0.0419852
2.71428
-0.0397039
2.72604
-0.0373026
2.73696
-0.0349012
2.74716
-0.0325
2.75688
-0.0300989
2.76576
-0.0275776
2.77404
-0.0250567
2.7816
-0.0226558
2.78856
-0.0201348
2.79468
-0.017614
2.80032
-0.0150932
2.805
-0.0125726
2.80932
-0.00999201
2.81263
-0.00743553
2.81546
-0.00486711
2.81753
-0.0022986
2.81892
0.000269743
2.81962
0.00283799
2.81962
0.00540606
2.81892
0.00797422
2.81753
0.0105303
2.81546
0.0131103
2.81263
0.0156303
2.80932
0.0181501
2.805
0.0206698
2.80032
0.0231894
2.79468
0.025589
2.78856
0.0281087
2.7816
0.030628
2.77404
0.0330275
2.76576
0.0354268
2.75688
0.037826
2.74716
0.0402252
2.73696
0.0425044
2.72604
0.0447833
2.71428
0.0470623
2.70204
0.0493411
2.68908
0.0515001
2.67552
0.0536587
2.66112
0.0558175
2.64624
0.0579761
2.63064
0.0600145
2.61444
0.061933
2.59764
0.0638514
2.58012
0.0658897
2.56188
0.067688
2.54316
0.0696061
2.52372
0.0712842
2.5038
0.0729623
2.48316
0.0746401
2.46192
0.0763181
2.43996
0.0778759
2.41764
0.0793137
2.3946
0.0808713
2.37096
0.0820689
2.34684
0.0833865
2.322
0.084704
2.29656
0.0859014
2.27076
0.0870988
2.24424
0.0880559
2.21736
0.0890132
2.18964
0.0899704
2.16157
0.0908073
2.13301
0.0926044
2.10325
0.0926014
2.07481
0.0925982
2.04361
0.093795
2.01361
0.0937918
1.98241
0.0949886
1.95001
0.093785
1.91881
0.0949817
1.88521
0.0949782
1.85281
0.0949748
1.81921
0.0949711
1.78561
0.0949674
1.75081
0.0937637
1.71601
0.09496
1.68001
0.0937562
1.64521
0.0937524
1.60921
0.0925484
1.57321
0.0925446
1.53481
0.0913406
1.49881
0.0913366
1.46041
0.0901325
1.42321
0.0889284
1.38481
0.0877243
1.34641
0.08652
1.30681
0.0841157
1.26841
0.0829115
1.22761
0.0817073
1.18801
0.080503
1.14841
0.0792988
1.10761
0.0768944
1.06681
0.0756901
1.02601
0.0720855
0.985208
0.0708812
0.943208
0.0672766
0.902408
0.0660724
0.859208
0.0636679
0.817208
0.0612635
0.775208
0.0576589
0.733208
0.0552545
0.690008
0.0528501
0.646808
0.0492456
0.604808
0.0456411
0.560408
0.0432367
0.517208
0.0384322
0.475208
0.0360279
0.430808
0.0324237
0.386408
0.0288192
0.343208
0.025214
0.300009
0.0204087
0.25561
0.0168053
0.211208
0.0132052
0.168003
0.00840664
0.123599
0.00480443
0.0792007
0.0360078
-0.00359689
0.0395914
-0.00839286
0.0839954
-0.0131927
0.128401
-0.0167936
0.171599
-0.021592
0.215993
-0.0251877
0.259189
-0.0287822
0.303588
-0.032377
0.346789
-0.0359723
0.389989
-0.0395676
0.434389
-0.0419629
0.477589
-0.0455579
0.520789
-0.0491528
0.563989
-0.0515478
0.607188
-0.0551426
0.650388
-0.0575374
0.692388
-0.0599322
0.735588
-0.062327
0.777588
-0.0659215
0.820788
-0.0683161
0.861588
-0.0695109
0.903588
-0.0719055
0.945588
-0.0742999
0.987587
-0.0754946
1.02719
-0.077889
1.06919
-0.0790837
1.10879
-0.0814781
1.15079
-0.0826726
1.18919
-0.085067
1.22999
-0.0862616
1.26959
-0.0874561
1.30799
-0.0874508
1.34639
-0.0886454
1.38599
-0.0898398
1.42439
-0.0910344
1.46159
-0.0910291
1.49879
-0.0934235
1.53719
-0.0934182
1.57319
-0.093413
1.60919
-0.0934077
1.64519
-0.0946024
1.68119
-0.0945973
1.71599
-0.0945923
1.75079
-0.0945871
1.78559
-0.094582
1.81919
-0.094577
1.85279
-0.094572
1.88519
-0.0933672
1.91759
-0.0933624
1.94999
-0.0933574
1.98239
-0.0921529
2.01239
-0.0921482
2.04359
-0.0909435
2.07359
-0.090339
2.10263
-0.0894946
2.13215
-0.0885302
2.16059
-0.0876858
2.18879
-0.0864817
2.21615
-0.0853974
2.24315
-0.0841934
2.26955
-0.0829893
2.29535
-0.0816652
2.32067
-0.0802214
2.34539
-0.0787778
2.36951
-0.0773339
2.39315
-0.0756503
2.41595
-0.0742067
2.43851
-0.0725234
2.46023
-0.0707198
2.48135
-0.0689164
2.50199
-0.0671133
2.52191
-0.0653102
2.54135
-0.0633871
2.55995
-0.0613442
2.57807
-0.0593012
2.59559
-0.0572586
2.61239
-0.0552158
2.62859
-0.0530532
2.64407
-0.0510109
2.65907
-0.0487282
2.67323
-0.0464458
2.68679
-0.0441638
2.69976
-0.0420017
2.71212
-0.0395996
2.72364
-0.0371975
2.73456
-0.0347958
2.74476
-0.032394
2.75448
-0.0299924
2.76336
-0.0274709
2.77152
-0.0250694
2.7792
-0.022548
2.78604
-0.0200267
2.79216
-0.0175054
2.7978
-0.0149845
2.80248
-0.0123434
2.80668
-0.00988264
2.81017
-0.00731373
2.81289
-0.00475713
2.81497
-0.00218859
2.81635
0.000379881
2.81705
0.00294824
2.81705
0.00551653
2.81635
0.00807276
2.81497
0.0106407
2.8129
0.0131007
2.81017
0.0157405
2.80668
0.0182604
2.80248
0.0207799
2.7978
0.0232994
2.79216
0.0258188
2.78604
0.0282182
2.7792
0.0307374
2.77152
0.0331366
2.76336
0.0355356
2.75448
0.0379347
2.74476
0.0403334
2.73456
0.042732
2.72364
0.0448907
2.71212
0.0471694
2.69976
0.0494477
2.6868
0.0517258
2.67324
0.0537642
2.65908
0.0559223
2.64408
0.0579601
2.6286
0.0599983
2.6124
0.0620359
2.59561
0.0640737
2.57809
0.0659912
2.55997
0.0677888
2.54137
0.0695863
2.52193
0.0713835
2.50201
0.0731805
2.48137
0.0748577
2.46025
0.0762947
2.43853
0.0779716
2.41597
0.0794082
2.39317
0.0808451
2.36953
0.0822818
2.34541
0.0835981
2.32069
0.0847944
2.29537
0.0859908
2.26957
0.0870669
2.24317
0.0882632
2.21617
0.0890991
2.18881
0.0900551
2.16061
0.090891
2.13217
0.0914867
2.10265
0.0926823
2.07361
0.0926778
2.04361
0.0938735
2.01241
0.0938687
1.98241
0.093864
1.95001
0.0950594
1.91761
0.0950545
1.88521
0.0950496
1.85281
0.0950445
1.81921
0.0950393
1.78561
0.0950343
1.75081
0.0950292
1.71601
0.0938237
1.68121
0.0938183
1.64521
0.0938129
1.60921
0.0938075
1.57321
0.0914016
1.53721
0.0913961
1.49881
0.0901904
1.46161
0.0889845
1.42441
0.0877788
1.38601
0.087773
1.34641
0.0865672
1.30801
0.0853612
1.26961
0.0829551
1.23001
0.0817491
1.18921
0.079343
1.15081
0.078137
1.10881
0.0757308
1.06921
0.0745247
1.02721
0.0721185
0.987614
0.0697122
0.945614
0.0685062
0.903614
0.0660999
0.861614
0.0624935
0.820814
0.0600873
0.777614
0.0576811
0.735614
0.0552749
0.692414
0.0516685
0.650414
0.0492624
0.607214
0.045656
0.564014
0.0420498
0.520814
0.0396437
0.477614
0.0360377
0.434414
0.0324315
0.390014
0.0288246
0.346815
0.0252171
0.303616
0.0216111
0.259216
0.016809
0.21601
0.0132105
0.171601
0.00841034
0.128399
0.00360452
0.0840066
0.0396124
-0.00479661
0.0443881
-0.00959101
0.0887898
-0.0131887
0.131998
-0.0167897
0.1752
-0.0203896
0.219593
-0.0251858
0.263985
-0.0287794
0.307182
-0.0323725
0.350382
-0.0359661
0.393583
-0.03956
0.437983
-0.0431538
0.481183
-0.0467474
0.524382
-0.049141
0.566382
-0.0527344
0.610782
-0.0551279
0.652782
-0.0587211
0.695981
-0.0611144
0.737981
-0.0635077
0.779981
-0.064701
0.821981
-0.0682939
0.865181
-0.0706869
0.905981
-0.0730799
0.947981
-0.074273
0.988781
-0.0766659
1.02958
-0.0778591
1.07038
-0.0802519
1.11118
-0.0814448
1.15198
-0.0826379
1.19038
-0.0838307
1.23118
-0.0850236
1.27078
-0.0862165
1.30918
-0.0886094
1.34878
-0.0898022
1.38718
-0.0897953
1.42438
-0.0909882
1.46278
-0.0921812
1.49998
-0.0921743
1.53718
-0.0921676
1.57318
-0.0933606
1.61038
-0.0933538
1.64518
-0.093347
1.68118
-0.0945401
1.71718
-0.0945334
1.75078
-0.0945268
1.78558
-0.0945201
1.81918
-0.0933139
1.85158
-0.0933075
1.88518
-0.0945009
1.91878
-0.0932946
1.94878
-0.0920885
1.98118
-0.0920822
2.01238
-0.0908762
2.04238
-0.0908703
2.07358
-0.0902643
2.10202
-0.0894185
2.1313
-0.0885727
2.15974
-0.087487
2.1877
-0.0864016
2.21506
-0.085316
2.24206
-0.0841108
2.26835
-0.0829053
2.29415
-0.0815802
2.31935
-0.0801353
2.34395
-0.0788101
2.36819
-0.0772452
2.39159
-0.0756805
2.41439
-0.0739958
2.43683
-0.0723113
2.45855
-0.070627
2.47967
-0.0689426
2.50031
-0.0671383
2.52011
-0.0650943
2.53931
-0.0632904
2.55815
-0.0613661
2.57615
-0.0593227
2.59355
-0.0572789
2.61035
-0.0551156
2.62643
-0.052952
2.64191
-0.0507887
2.65691
-0.0486255
2.67107
-0.0463426
2.68451
-0.0440596
2.69747
-0.0417767
2.70983
-0.0393739
2.72123
-0.0370914
2.73227
-0.0346891
2.74235
-0.0322866
2.75207
-0.0297645
2.76083
-0.0274824
2.76923
-0.0248405
2.77655
-0.0224387
2.78364
-0.0199172
2.78964
-0.0173956
2.79528
-0.0148744
2.79996
-0.012353
2.80416
-0.00975995
2.80758
-0.00721503
2.81035
-0.00464595
2.8124
-0.00207725
2.81378
0.000491365
2.81448
0.00305984
2.81448
0.00562823
2.81378
0.00819622
2.8124
0.0107404
2.81035
0.0133325
2.80758
0.0158521
2.80416
0.018372
2.79996
0.0208914
2.79528
0.023411
2.78964
0.0258103
2.78364
0.0284494
2.77656
0.0307284
2.76924
0.0332473
2.76084
0.0356458
2.75208
0.0380445
2.74236
0.0403231
2.73228
0.0427212
2.72124
0.0449993
2.70985
0.0472773
2.69749
0.0495554
2.68453
0.0517131
2.67109
0.0538708
2.65693
0.056028
2.64193
0.0581857
2.62645
0.0602227
2.61037
0.0622602
2.59357
0.0641767
2.57617
0.0659736
2.55817
0.0680105
2.53933
0.069807
2.52013
0.0714834
2.50033
0.0731599
2.47969
0.074836
2.45857
0.0765121
2.43685
0.078068
2.41441
0.0796238
2.39161
0.0809393
2.36821
0.0823749
2.34397
0.0836904
2.31937
0.0848855
2.29417
0.0860808
2.26837
0.0871557
2.24209
0.0882308
2.21509
0.0893056
2.18773
0.0901402
2.15977
0.0909747
2.13133
0.0915691
2.10206
0.0915635
2.07362
0.0927578
2.04242
0.0927517
2.01242
0.0939458
1.98122
0.0951397
1.94882
0.0939333
1.91882
0.093927
1.88522
0.0951209
1.85162
0.0951142
1.81922
0.0951077
1.78562
0.0951009
1.75082
0.0938938
1.71722
0.0938869
1.68122
0.09388
1.64522
0.0926727
1.61042
0.0926658
1.57322
0.0926587
1.53722
0.0914513
1.50002
0.0902438
1.46282
0.0902366
1.42442
0.0890289
1.38722
0.0866212
1.34882
0.0854135
1.30922
0.0842058
1.27082
0.082998
1.23122
0.0817903
1.19042
0.0805825
1.15202
0.0781745
1.11122
0.0769668
1.07042
0.0745588
1.02962
0.0733509
0.988822
0.0709429
0.948022
0.0685348
0.906022
0.0649264
0.865222
0.0637186
0.822022
0.0613107
0.780022
0.0589027
0.738022
0.0552945
0.696022
0.0528865
0.652822
0.0492783
0.610823
0.0468704
0.566422
0.0432623
0.524422
0.0396544
0.481222
0.0360464
0.438022
0.0324379
0.393622
0.0288286
0.350424
0.0252198
0.307225
0.0204146
0.264021
0.0168148
0.21961
0.0132163
0.1752
0.00961307
0.132002
0.00480497
0.0888147
0.0444173
-0.00479646
0.0491845
-0.00839038
0.0923837
-0.0131853
0.136793
-0.0179846
0.179999
-0.0215856
0.223194
-0.0251835
0.267583
-0.0287773
0.310775
-0.032369
0.353974
-0.0371606
0.398375
-0.0395531
0.440376
-0.0431455
0.484775
-0.045538
0.526775
-0.04913
0.569974
-0.0515222
0.613174
-0.055114
0.656373
-0.0575059
0.698373
-0.0598978
0.740373
-0.0634892
0.783573
-0.0658809
0.824373
-0.0670727
0.866373
-0.0694642
0.908372
-0.0718556
0.950372
-0.074247
0.991172
-0.0766382
1.03197
-0.0778296
1.07157
-0.0802209
1.11357
-0.0814122
1.15317
-0.0838033
1.19277
-0.0849947
1.23237
-0.086186
1.27197
-0.0873774
1.31037
-0.0885685
1.34997
-0.0885601
1.38717
-0.0897514
1.42557
-0.0909426
1.46397
-0.0921339
1.50117
-0.0921255
1.53717
-0.0933168
1.57437
-0.0933084
1.61037
-0.0944997
1.64637
-0.0944915
1.68117
-0.0944832
1.71717
-0.0944751
1.75077
-0.0944668
1.78557
-0.0944587
1.81917
-0.0944506
1.85157
-0.0944427
1.88517
-0.0932348
1.91757
-0.093227
1.94878
-0.0932192
1.98118
-0.0920117
2.01118
-0.0920041
2.04238
-0.0907965
2.07238
-0.0901894
2.10142
-0.0893421
2.13046
-0.088375
2.15878
-0.0874082
2.18674
-0.0864409
2.2141
-0.0852343
2.24086
-0.0840275
2.26714
-0.0828213
2.29294
-0.0814947
2.31802
-0.0801685
2.34262
-0.0786021
2.36662
-0.0770364
2.39002
-0.0755904
2.41294
-0.0740243
2.43526
-0.0723386
2.45686
-0.070653
2.47798
-0.0687279
2.49838
-0.0669228
2.5183
-0.0651173
2.5375
-0.0631924
2.55622
-0.0611477
2.5741
-0.0591028
2.59151
-0.0570583
2.60831
-0.055014
2.62439
-0.0529697
2.63987
-0.0506856
2.65463
-0.048402
2.66879
-0.0462378
2.68235
-0.044074
2.69531
-0.0416707
2.70743
-0.0393875
2.71895
-0.0368645
2.72975
-0.0345813
2.74007
-0.0321785
2.74967
-0.0297758
2.75843
-0.0272533
2.76671
-0.0248509
2.77415
-0.0222086
2.78099
-0.0198065
2.78723
-0.0172848
2.79275
-0.0147626
2.79743
-0.0122415
2.80164
-0.00965954
2.805
-0.00709042
2.80778
-0.0045334
2.80984
-0.00196454
2.81121
0.000604223
2.81191
0.00317282
2.81191
0.00574131
2.81121
0.00829763
2.80985
0.0108659
2.80778
0.0134452
2.805
0.0159655
2.80164
0.0184846
2.79744
0.0210043
2.79276
0.0234034
2.78724
0.0260425
2.781
0.0284414
2.77416
0.0309602
2.76672
0.0333588
2.75844
0.0357572
2.74969
0.0380353
2.74009
0.0405535
2.72977
0.0428316
2.71897
0.0452295
2.70745
0.0473869
2.69533
0.0495439
2.68237
0.0518214
2.66881
0.0540985
2.65465
0.0561354
2.63989
0.0581722
2.62441
0.0602088
2.60833
0.0622449
2.59153
0.0642813
2.57413
0.0661975
2.55625
0.0679929
2.53753
0.0697889
2.51833
0.0717047
2.49841
0.07338
2.47801
0.0750552
2.4569
0.0766099
2.4353
0.0780449
2.41298
0.0796
2.39006
0.0811543
2.36666
0.0824689
2.34266
0.083783
2.31806
0.0849775
2.29298
0.0861714
2.26718
0.0873654
2.2409
0.0883186
2.21414
0.0892724
2.18678
0.0902257
2.15882
0.0910589
2.1305
0.0916522
2.10146
0.092845
2.07242
0.0928377
2.04242
0.0940306
2.01122
0.0940231
1.98122
0.0940155
1.94882
0.0952078
1.91762
0.0952
1.88523
0.0951919
1.85163
0.0951839
1.81923
0.0951756
1.78563
0.0951674
1.75083
0.0951589
1.71723
0.0951506
1.68123
0.0939417
1.64643
0.093933
1.61043
0.092724
1.57443
0.0927152
1.53723
0.091506
1.50123
0.0902968
1.46403
0.0890875
1.42563
0.0890785
1.38723
0.087869
1.35003
0.0866596
1.31043
0.0854502
1.27203
0.0842407
1.23243
0.081831
1.19283
0.0806213
1.15323
0.0782115
1.11363
0.0770019
1.07163
0.0745919
1.03203
0.072182
0.991232
0.0697721
0.950432
0.0673622
0.908432
0.0661527
0.866432
0.0637429
0.824432
0.0601327
0.783632
0.0577229
0.740432
0.055313
0.698432
0.051703
0.656432
0.0492933
0.613232
0.0456833
0.570032
0.0432738
0.526832
0.039664
0.484832
0.0372542
0.440432
0.0324429
0.398434
0.0288317
0.354035
0.0252232
0.310834
0.0216206
0.267623
0.0180222
0.223208
0.0132214
0.180001
0.00841405
0.136809
0.00480522
0.0924235
0.0492226
-0.0035967
0.0527812
-0.00839013
0.0971772
-0.0119831
0.140386
-0.0167798
0.184796
-0.0215804
0.227994
-0.02518
0.271182
-0.028775
0.31437
-0.0323663
0.357565
-0.0359565
0.401965
-0.0395471
0.443966
-0.0419382
0.487166
-0.0455291
0.530366
-0.0491198
0.573565
-0.0527103
0.616764
-0.0551009
0.658764
-0.0574914
0.700764
-0.0610814
0.743963
-0.0622719
0.784763
-0.0658618
0.827963
-0.0682518
0.868763
-0.0706417
0.910762
-0.0718319
0.951562
-0.0742215
0.993562
-0.0754115
1.03316
-0.0790009
1.07516
-0.078991
1.11356
-0.0813805
1.15556
-0.0825701
1.19396
-0.0837599
1.23356
-0.0849496
1.27316
-0.0873388
1.31276
-0.0873287
1.34996
-0.089718
1.38956
-0.0909077
1.42676
-0.0908976
1.46396
-0.0908875
1.50116
-0.0920771
1.53836
-0.0932668
1.57556
-0.0932567
1.61036
-0.0932469
1.64636
-0.0944366
1.68236
-0.0932269
1.71596
-0.0944167
1.75196
-0.094407
1.78556
-0.0931975
1.81796
-0.0943876
1.85276
-0.0943779
1.88516
-0.0931688
1.91637
-0.0931594
1.94877
-0.0931501
1.98117
-0.0931409
2.01117
-0.091932
2.04117
-0.0907232
2.07117
-0.0901144
2.10081
-0.0891457
2.12949
-0.0882971
2.15793
-0.0873286
2.18577
-0.0862405
2.21301
-0.0851525
2.23977
-0.0839444
2.26593
-0.0827363
2.29173
-0.0814087
2.31669
-0.0799609
2.34117
-0.0785139
2.36517
-0.0770663
2.38857
-0.0754992
2.41137
-0.0738126
2.43357
-0.0722457
2.4553
-0.070439
2.47618
-0.0687524
2.4967
-0.066826
2.51638
-0.06502
2.5357
-0.0629739
2.55418
-0.0610482
2.57218
-0.0591226
2.58958
-0.0569572
2.60614
-0.0549116
2.62234
-0.0527465
2.6377
-0.0505816
2.65246
-0.0484168
2.66662
-0.0462525
2.68018
-0.043848
2.6929
-0.041564
2.70514
-0.0391598
2.71655
-0.0368757
2.72747
-0.0344722
2.73767
-0.0320689
2.74727
-0.0296657
2.75603
-0.0271422
2.76419
-0.0247397
2.77175
-0.022217
2.77847
-0.0196944
2.78471
-0.017172
2.79023
-0.0146501
2.79491
-0.012008
2.79899
-0.00954645
2.80253
-0.00698867
2.80522
-0.00441945
2.80728
-0.00185042
2.80864
0.000718489
2.80934
0.00328721
2.80934
0.0058558
2.80865
0.00842421
2.80728
0.01098
2.80523
0.0134401
2.80254
0.0160796
2.799
0.0185993
2.79492
0.0211185
2.79024
0.0236375
2.78472
0.0261564
2.77848
0.0285555
2.77176
0.0310735
2.76421
0.0334719
2.75605
0.03587
2.74729
0.0382681
2.73769
0.0405455
2.72749
0.0429428
2.71657
0.0452203
2.70517
0.0476172
2.69293
0.0497744
2.68021
0.051931
2.66665
0.0540874
2.65249
0.0562436
2.63773
0.0582794
2.62237
0.0604353
2.60618
0.062351
2.58962
0.0642666
2.57222
0.0663017
2.55422
0.0680969
2.53574
0.0700117
2.51642
0.0716862
2.49674
0.0734806
2.47622
0.0750348
2.45534
0.0767092
2.43362
0.0782631
2.41142
0.0796965
2.38862
0.0811304
2.36522
0.0825635
2.34122
0.0838768
2.31675
0.0850695
2.29179
0.0862621
2.26599
0.0873349
2.23983
0.0884075
2.21307
0.0893596
2.18583
0.0901916
2.15799
0.0911435
2.12955
0.0917351
2.10087
0.0929268
2.07123
0.0941183
2.04123
0.0941094
2.01123
0.0941004
1.98123
0.0940913
1.94883
0.0952824
1.91643
0.0952727
1.88523
0.094063
1.85284
0.0952535
1.81804
0.0952438
1.78564
0.0940334
1.75204
0.0952236
1.71604
0.094013
1.68244
0.094003
1.64644
0.0939926
1.61044
0.0927818
1.57564
0.0915709
1.53844
0.0915603
1.50124
0.0915497
1.46404
0.0903386
1.42684
0.0879272
1.38964
0.0879164
1.35004
0.0855046
1.31284
0.0842934
1.27324
0.0830821
1.23364
0.0818707
1.19404
0.0794589
1.15564
0.0794479
1.11364
0.0758358
1.07524
0.0746245
1.03324
0.0722126
0.993644
0.0710013
0.951643
0.0685895
0.910844
0.0661778
0.868844
0.0625658
0.828044
0.0613545
0.784844
0.0577424
0.744044
0.0553309
0.700844
0.0529193
0.658844
0.0493074
0.616844
0.0456957
0.573644
0.0420841
0.530443
0.0396726
0.487243
0.0360602
0.444044
0.0324469
0.402047
0.0288351
0.357647
0.0252285
0.31444
0.0216282
0.271224
0.0168292
0.228007
0.0120247
0.184805
0.00841452
0.14042
0.00360491
0.0972331
0.0528275
-0.00479607
0.0575773
-0.00958966
0.101971
-0.0131814
0.143978
-0.0167756
0.18839
-0.0203747
0.231593
-0.0239753
0.274783
-0.028772
0.319167
-0.0323639
0.361157
-0.0359531
0.405554
-0.039542
0.447555
-0.0431313
0.490756
-0.0467207
0.533955
-0.0491103
0.575955
-0.0514997
0.619154
-0.0550885
0.662353
-0.0574776
0.703153
-0.0598665
0.746352
-0.063455
0.788352
-0.0646439
0.829152
-0.068232
0.872351
-0.0694207
0.911951
-0.0730084
0.95515
-0.0741971
0.99475
-0.0765851
1.03555
-0.0777733
1.07635
-0.0801612
1.11595
-0.0813494
1.15675
-0.0825376
1.19515
-0.0849252
1.23595
-0.0861132
1.27435
-0.0861016
1.31275
-0.0884892
1.35235
-0.0884773
1.38955
-0.0896652
1.42795
-0.0908531
1.46515
-0.0920413
1.50235
-0.0920293
1.53835
-0.0920176
1.57555
-0.0932058
1.61155
-0.0943935
1.64755
-0.0931825
1.68115
-0.0943705
1.71715
-0.0943591
1.75195
-0.0943476
1.78555
-0.0943364
1.81795
-0.094325
1.85275
-0.0931142
1.88395
-0.0943025
1.91755
-0.0930919
1.94756
-0.0918814
1.97996
-0.0918706
2.01116
-0.0918596
2.04116
-0.0906496
2.06996
-0.0900389
2.1002
-0.0891891
2.12864
-0.088339
2.15708
-0.087249
2.18468
-0.0862795
2.21204
-0.0850699
2.23856
-0.0839803
2.26484
-0.0825312
2.29028
-0.0812023
2.31536
-0.0798735
2.33984
-0.0785445
2.36384
-0.076976
2.387
-0.0754077
2.40981
-0.0738395
2.43201
-0.0720314
2.45349
-0.070344
2.47449
-0.0685362
2.49489
-0.0667286
2.51457
-0.0648017
2.53377
-0.0629944
2.55237
-0.0610677
2.57025
-0.0589008
2.58741
-0.0569744
2.60421
-0.0548083
2.62017
-0.0526423
2.63554
-0.0504769
2.6503
-0.0483108
2.66446
-0.0460258
2.6779
-0.0437405
2.69062
-0.0414554
2.70286
-0.0391708
2.71426
-0.0367661
2.72506
-0.034362
2.73526
-0.031958
2.74486
-0.0294338
2.7535
-0.0270306
2.76179
-0.0245068
2.76923
-0.0221035
2.77607
-0.019581
2.78219
-0.0170581
2.78771
-0.0145359
2.79239
-0.0120135
2.79647
-0.00941962
2.79994
-0.00686199
2.80266
-0.00430408
2.80472
-0.00173486
2.80607
0.000834196
2.80677
0.00340305
2.80677
0.00597174
2.80608
0.00852772
2.80472
0.011084
2.80267
0.0136761
2.79995
0.0161955
2.79648
0.0187152
2.7924
0.0212342
2.78772
0.0237535
2.7822
0.0261521
2.77609
0.0286701
2.76925
0.0310688
2.76181
0.0335864
2.75353
0.0359842
2.74489
0.0383819
2.73529
0.0407788
2.72509
0.0430561
2.71429
0.0453327
2.70289
0.047609
2.69065
0.0498857
2.67793
0.0520412
2.6645
0.0541975
2.65034
0.0563531
2.63558
0.0585085
2.62022
0.0604237
2.60426
0.0625783
2.58746
0.0644931
2.5703
0.0662872
2.55242
0.0682016
2.53382
0.0699954
2.51462
0.071789
2.49495
0.0734628
2.47455
0.0752561
2.45355
0.0768091
2.43207
0.0783619
2.40987
0.0799145
2.38707
0.0812266
2.36391
0.0825388
2.33991
0.0838509
2.31543
0.0852828
2.29035
0.0863541
2.26492
0.0875452
2.23864
0.0884965
2.21212
0.0895674
2.18476
0.0903979
2.15716
0.0912287
2.12872
0.0918185
2.10028
0.0930091
2.07004
0.0929985
2.04124
0.0929881
2.01124
0.0941779
1.98004
0.0953676
1.94764
0.0941561
1.91765
0.0953455
1.88405
0.0953341
1.85285
0.0953229
1.81805
0.0953113
1.78565
0.0952998
1.75205
0.0940876
1.71725
0.0952764
1.68125
0.0940637
1.64765
0.0928514
1.61165
0.0928392
1.57565
0.0928267
1.53845
0.0916142
1.50245
0.0904014
1.46525
0.0891885
1.42805
0.0891757
1.38965
0.0867623
1.35245
0.0867497
1.31285
0.0855366
1.27446
0.0831229
1.23606
0.0819098
1.19526
0.0806966
1.15686
0.0782831
1.11606
0.0770698
1.07646
0.074656
1.03566
0.073443
0.994857
0.0698287
0.955258
0.0686157
0.912057
0.0650016
0.872458
0.0637885
0.829257
0.0601746
0.788457
0.0577612
0.746458
0.0553478
0.703257
0.051734