/*--------------------------------*- C++ -*----------------------------------*\
  =========                 |
  \\      /  F ield         | OpenFOAM: The Open Source CFD Toolbox
   \\    /   O peration     | Website:  https://openfoam.org
    \\  /    A nd           | Version:  8
     \\/     M anipulation  |
\*---------------------------------------------------------------------------*/
FoamFile
{
    version     2.0;
    format      ascii;
    class       surfaceScalarField;
    location    "2";
    object      phi;
}
// * * * * * * * * * * * * * * * * * * * * * * * * * * * * * * * * * * * * * //

dimensions      [0 3 -1 0 0 0 0];

internalField   nonuniform List<scalar> 
19800
(
0.00955418
0.0321278
0.019165
0.0213826
0.0213788
0.00689749
0.0186492
-0.00846666
0.0122677
-0.0226034
0.00364439
-0.0338837
-0.0058694
-0.0412882
-0.0150748
-0.0444142
-0.0230156
-0.0434194
-0.0290369
-0.0389106
-0.0328027
-0.031796
-0.0342748
-0.0231259
-0.0336607
-0.0139436
-0.031343
-0.00516583
-0.0278019
0.00249668
-0.0235435
0.00857696
-0.0190413
0.0128517
-0.0146948
0.0153124
-0.0108061
0.0161196
-0.00757274
0.0155489
-0.00509287
0.0139388
-0.00337914
0.0116457
-0.00237697
0.00900786
-0.0019845
0.00632081
-0.00207164
0.00382243
-0.00249685
0.00168653
-0.00312095
2.30408e-05
-0.00381744
-0.00111699
-0.00447973
-0.00173321
-0.00502522
-0.00186593
-0.00539691
-0.00158532
-0.0055627
-0.000980692
-0.00551318
-0.000150534
-0.00525813
0.00080624
-0.0048223
0.00179743
-0.00424092
0.00274295
-0.00355529
0.00357834
-0.00280868
0.00425664
-0.00204293
0.00474863
-0.00129571
0.00504177
-0.000598602
0.00513819
2.39797e-05
0.00505205
0.000555235
0.00480649
0.000985755
0.00443061
0.00131285
0.00395657
0.00153955
0.00341708
0.00167342
0.00284332
0.00172532
0.00226335
0.00170817
0.00170114
0.0016359
0.00117588
0.00152247
0.00070191
0.00138115
0.00028881
0.00122403
-5.81608e-05
0.00106157
-0.000337512
0.000902533
-0.00055086
0.000753839
-0.000702253
0.000620688
-0.000797511
0.00050668
-0.000843628
0.000414
-0.00084825
0.00034363
-0.000819252
0.000295563
-0.000764391
0.000269004
-0.000691063
0.000262552
-0.00060612
0.000274355
-0.00051576
0.000302245
-0.000425467
0.00034384
-0.00033998
0.000396623
-0.000263299
0.000458011
-0.000198701
0.0005254
-0.000148767
0.000596206
-0.000115415
0.000667894
-9.99348e-05
0.000738009
-0.00010302
0.000804204
-0.000124801
0.000864261
-0.000164877
0.000916129
-0.000222348
0.000957946
-0.000295846
0.000988075
-0.000383565
0.00100514
-0.000483301
0.00100806
-0.000592489
0.000996081
-0.000708244
0.000968827
-0.000827419
0.000926312
-0.00094666
0.00086898
-0.00106248
0.000797713
-0.00117135
0.000713841
-0.00126978
0.000619121
-0.00135445
0.000515707
-0.00142232
0.000406095
-0.00147074
0.000293051
-0.00149758
0.000179541
-0.0015013
6.86819e-05
-0.00148098
-3.62249e-05
-0.0014363
-0.000131457
-0.00136734
-0.000212217
-0.00127434
-0.000271065
-0.0011574
-0.000295246
-0.00101656
-0.000273851
-0.000853704
-0.000248672
-0.000681679
-0.000319888
-0.000529086
-0.000379677
0.0189514
0.0277536
0.0241373
0.0187605
0.0269279
0.00823488
0.0263035
-0.00350032
0.0222676
-0.0152609
0.015478
-0.0257548
0.00691229
-0.0339175
-0.00234812
-0.0390714
-0.011283
-0.0409746
-0.0190527
-0.0397912
-0.0250699
-0.0360092
-0.0290258
-0.0303279
-0.0308756
-0.0235374
-0.0307937
-0.0164098
-0.0291113
-0.00961446
-0.0262489
-0.00366333
-0.0226532
0.00111163
-0.0187462
0.00455507
-0.0148891
0.00666548
-0.0113615
0.00756098
-0.00835455
0.00744106
-0.00597407
0.00654985
-0.00425127
0.0051443
-0.0031571
0.00346934
-0.00261831
0.00174028
-0.00253312
0.000131947
-0.00278538
-0.00122634
-0.00325651
-0.00225119
-0.00383499
-0.00290213
-0.00442325
-0.00317612
-0.00494217
-0.00310056
-0.00533334
-0.0027256
-0.0055594
-0.00211627
-0.00560289
-0.00134507
-0.00546381
-0.00048539
-0.00515648
0.000393934
-0.00470587
0.00123279
-0.00414393
0.00198255
-0.00350607
0.00260757
-0.00282803
0.00308543
-0.00214336
0.00340626
-0.00148151
0.00357125
-0.000866569
0.00359068
-0.000316674
0.00348173
0.000156128
0.00326617
0.000545523
0.0029682
0.000850287
0.00261261
0.00107343
0.00222315
0.00122124
0.00182141
0.00130235
0.00142596
0.00132679
0.00105193
0.00130525
0.000710838
0.0012484
0.000410708
0.00116636
0.000156317
0.0010684
-5.03863e-05
0.000962621
-0.000209814
0.000855936
-0.000324253
0.000753978
-0.000397383
0.000661169
-0.000433844
0.00058081
-0.000438852
0.000515196
-0.000417887
0.000465743
-0.00037644
0.000433122
-0.000319824
0.000417372
-0.000253039
0.000418015
-0.000180687
0.000434138
-0.000106914
0.000464479
-3.53864e-05
0.000507483
3.07158e-05
0.000561357
8.86963e-05
0.000624118
0.000136331
0.000693627
0.000171852
0.000767626
0.000193937
0.000843777
0.000201687
0.000919699
0.000194623
0.000992998
0.000172662
0.00106132
0.000136115
0.00112238
8.56674e-05
0.00117403
2.23708e-05
0.00121429
-5.23735e-05
0.00124141
-0.000136832
0.00125392
-0.000228964
0.0012507
-0.000326449
0.00123101
-0.000426731
0.00119457
-0.000527066
0.00114157
-0.000624592
0.00107271
-0.000716406
0.0009892
-0.000799659
0.000892741
-0.000871654
0.000785488
-0.000929953
0.000669975
-0.000972468
0.000549041
-0.000997521
0.000425777
-0.00100384
0.000303573
-0.000990443
0.000186354
-0.000956431
7.89677e-05
-0.000900496
-1.32611e-05
-0.000820068
-8.90136e-05
-0.000710242
-0.000155713
-0.000571562
-0.000218663
-0.000447471
-0.000407613
0.0262553
0.0268603
0.0294897
0.0188993
0.031809
0.00955258
0.032026
-0.00102002
0.0295668
-0.0120768
0.0245033
-0.0225961
0.017362
-0.0315689
0.00893836
-0.038205
0.000124609
-0.0420459
-0.00823392
-0.0429961
-0.0154449
-0.0412897
-0.0210317
-0.037413
-0.024755
-0.0320056
-0.0265974
-0.0257581
-0.0267246
-0.0193241
-0.0254308
-0.0132546
-0.0230822
-0.00795996
-0.0200645
-0.00369665
-0.0167416
-0.000575005
-0.0134259
0.00141887
-0.0103621
0.00239368
-0.00772141
0.00252136
-0.00560334
0.00200746
-0.0040444
0.00106598
-0.00302911
-0.000100269
-0.00250285
-0.00131352
-0.00238443
-0.00242969
-0.00257794
-0.00334241
-0.0029828
-0.00398341
-0.00350221
-0.0043201
-0.00404939
-0.00435106
-0.00455201
-0.00410025
-0.00495471
-0.00361052
-0.00521989
-0.002937
-0.00532716
-0.00214085
-0.00527169
-0.00128363
-0.0050617
-0.000422793
-0.00471554
0.000391848
-0.00425856
0.00112037
-0.00372011
0.00173388
-0.0031308
0.00221473
-0.00252019
0.00255574
-0.00191508
0.00275896
-0.00133818
0.00283396
-0.000807466
0.00279589
-0.000335926
0.0026636
6.83397e-05
0.00245782
0.000401671
0.0021996
0.000664241
0.00190905
0.000859325
0.00160436
0.000992544
0.00130117
0.00107113
0.00101227
0.00110325
0.000747406
0.00109745
0.000513475
0.0010622
0.00031471
0.00100553
0.000153039
0.000934783
2.84709e-05
0.000856493
-6.05037e-05
0.000776285
-0.00011653
0.000698869
-0.000143039
0.000628068
-0.00014395
0.000566871
-0.000123424
0.000517506
-8.56718e-05
0.000481517
-3.48077e-05
0.000459836
2.52474e-05
0.000452853
9.08339e-05
0.000460481
0.000158593
0.00048221
0.000225487
0.000517154
0.000288807
0.000564095
0.000346172
0.000621521
0.000395532
0.000687664
0.000435157
0.000760536
0.000463639
0.000837968
0.000479889
0.000917651
0.000483141
0.000997174
0.000472952
0.00107408
0.000449204
0.0011459
0.000412113
0.00121022
0.000362231
0.00126475
0.000300444
0.00130736
0.000227978
0.00133616
0.000146385
0.00134959
5.75293e-05
0.00134644
-3.6438e-05
0.00132596
-0.000133123
0.00128789
-0.000229945
0.00123248
-0.00032421
0.00116055
-0.0004132
0.00107343
-0.000494267
0.000972929
-0.000564942
0.000861244
-0.000623003
0.000740842
-0.000666525
0.000614329
-0.000693824
0.000484306
-0.000703276
0.000353049
-0.000692882
0.000221768
-0.000659277
9.18832e-05
-0.000596227
-2.18171e-05
-0.00050127
-9.33109e-05
-0.00041279
-0.000391088
0.0326863
0.0255836
0.0349557
0.0186281
0.0369095
0.0104101
0.0375596
0.000999411
0.0361875
-0.00914472
0.0325388
-0.0192651
0.0267888
-0.0284963
0.0194422
-0.03605
0.0111999
-0.0413521
0.00282421
-0.0441156
-0.00497806
-0.0443521
-0.0116411
-0.0423337
-0.0167884
-0.0385223
-0.0202461
-0.0334849
-0.0220262
-0.0278105
-0.0222906
-0.0220417
-0.0213046
-0.0166256
-0.0193892
-0.0118884
-0.0168785
-0.00802891
-0.0140859
-0.00512756
-0.0112811
-0.00316603
-0.00867668
-0.00205145
-0.00642325
-0.00164172
-0.00461141
-0.00176881
-0.00327793
-0.00225854
-0.00241472
-0.00294596
-0.00197911
-0.00368635
-0.00190428
-0.00436219
-0.0021091
-0.00488644
-0.0025069
-0.00520306
-0.0030129
-0.00528506
-0.00354993
-0.00513091
-0.00405262
-0.00475985
-0.00446988
-0.00420652
-0.00476599
-0.00351551
-0.00492032
-0.00273619
-0.00492613
-0.00191816
-0.00478853
-0.00110743
-0.004522
-0.000343683
-0.00414771
0.000341561
-0.0036909
0.000925819
-0.00317843
0.00139568
-0.00263678
0.00174621
-0.00209035
0.00197978
-0.00156033
0.00210472
-0.001064
0.0021337
-0.000614376
0.00208221
-0.000220263
0.00196712
0.00011346
0.00180543
0.000385377
0.00161331
0.000596952
0.00140537
0.000751908
0.00119415
0.000855608
0.000989941
0.000914488
0.000800666
0.000935559
0.000632024
0.000925991
0.00048768
0.000892792
0.000369537
0.000842567
0.000278041
0.00078136
0.00021249
0.000714551
0.000171315
0.000646819
0.000152344
0.000582125
0.000153014
0.000523739
0.000170544
0.000474271
0.000202069
0.000435715
0.000244732
0.0004095
0.000295756
0.000396527
0.000352478
0.00039722
0.000412379
0.00041156
0.000473097
0.000439124
0.00053243
0.000479115
0.000588346
0.000530398
0.000638986
0.000591531
0.000682669
0.0006608
0.000717907
0.000736252
0.000743412
0.000815733
0.000758115
0.000896933
0.000761183
0.000977428
0.000752041
0.00105473
0.000730391
0.00112636
0.000696234
0.00118986
0.00064989
0.00124294
0.000592013
0.00128347
0.000523602
0.0013096
0.000445998
0.00131985
0.000360875
0.00131313
0.00027021
0.00128885
0.000176232
0.00124692
8.13634e-05
0.0011878
-1.18672e-05
0.00111246
-0.000100919
0.00102225
-0.000183331
0.000918846
-0.000256797
0.000803912
-0.000319191
0.00067879
-0.000368484
0.000543853
-0.000402482
0.00039784
-0.000418148
0.000241801
-0.00041056
9.92306e-05
-0.000376753
1.00803e-05
-0.000337016
-0.000324571
0.0382917
0.0244143
0.0400644
0.0182932
0.0417841
0.0110118
0.0426892
0.00259381
0.0420882
-0.0066743
0.0395788
-0.0162438
0.0351021
-0.0254083
0.0289172
-0.0334452
0.0215223
-0.039746
0.0135482
-0.0439081
0.00564989
-0.0457775
-0.00158504
-0.0454438
-0.00770213
-0.0431991
-0.0124137
-0.0394743
-0.0156037
-0.0347676
-0.0173098
-0.0295788
-0.0176901
-0.0243567
-0.0169839
-0.0194643
-0.0154719
-0.0151614
-0.0134422
-0.0116033
-0.0111631
-0.00884991
-0.00886493
-0.00688251
-0.00672982
-0.0056235
-0.00488757
-0.00495654
-0.0034173
-0.00474491
-0.00235237
-0.00484713
-0.00168764
-0.00512913
-0.0013879
-0.00547309
-0.00139659
-0.00578304
-0.00164421
-0.00598767
-0.0020559
-0.0060408
-0.00255796
-0.00591983
-0.00308296
-0.00562285
-0.00357356
-0.00516478
-0.00398477
-0.00457295
-0.00428497
-0.00388265
-0.00445585
-0.00313291
-0.00449126
-0.00236272
-0.00439554
-0.00160809
-0.00418135
-0.00089982
-0.0038673
-0.000262072
-0.00347567
0.000288207
-0.00303028
0.000741264
-0.00255468
0.00109398
-0.00207071
0.0013489
-0.00159747
0.00151313
-0.00115069
0.00159702
-0.000742416
0.00161298
-0.000381027
0.00157436
-7.14663e-05
0.00149452
0.000184374
0.0013861
0.000387162
0.00126046
0.000539605
0.0011274
0.000645917
0.00099496
0.000711341
0.000869454
0.000741712
0.000755527
0.000743103
0.000656344
0.000721541
0.000573797
0.000682791
0.000508734
0.000632211
0.000461178
0.000574654
0.000430529
0.000514422
0.000415743
0.000455241
0.000415468
0.00040027
0.000428155
0.000352119
0.000452136
0.000312873
0.000485679
0.000284122
0.000527021
0.000266995
0.000574389
0.000262181
0.000626011
0.000269963
0.000680123
0.000290238
0.000734978
0.000322543
0.00078885
0.000366079
0.00084005
0.000419735
0.000886943
0.000482113
0.000927962
0.000551557
0.00096164
0.000626184
0.000986632
0.000703919
0.00100175
0.000782534
0.00100601
0.000859695
0.00099863
0.000933011
0.000979114
0.0010001
0.000947258
0.00105864
0.000903191
0.00110646
0.000847397
0.00114162
0.00078073
0.00116246
0.000704418
0.00116771
0.000620038
0.00115655
0.000529486
0.0011286
0.000434913
0.00108398
0.000338644
0.0010232
0.000243083
0.000947048
0.000150617
0.000856296
6.35229e-05
0.000751285
-1.60766e-05
0.000631216
-8.61735e-05
0.000493567
-0.000144684
0.000338266
-0.000189103
0.00018853
-0.000217158
9.01627e-05
-0.000230441
-0.000236375
0.0432477
0.0233642
0.044743
0.017921
0.0463213
0.0114305
0.0473974
0.00387778
0.0473583
-0.00456528
0.0457554
-0.013508
0.0423897
-0.0223916
0.037336
-0.0305868
0.0309097
-0.0375035
0.0235955
-0.0426842
0.0159589
-0.0458637
0.00855932
-0.0469887
0.00187895
-0.046202
-0.00372446
-0.0438008
-0.00803887
-0.0401801
-0.0109962
-0.0357743
-0.0126534
-0.0310054
-0.0131627
-0.0262443
-0.0127383
-0.0217855
-0.0116244
-0.0178369
-0.0100674
-0.0145206
-0.00829496
-0.0118818
-0.00650152
-0.00990293
-0.00484028
-0.00851946
-0.0034204
-0.00763624
-0.00230816
-0.00714191
-0.00153122
-0.00692138
-0.00108457
-0.00686558
-0.000937662
-0.00687861
-0.00104181
-0.00688232
-0.00133739
-0.00681858
-0.00176043
-0.00664971
-0.00224815
-0.00635711
-0.0027435
-0.00593895
-0.00319832
-0.00540686
-0.00357531
-0.00478231
-0.00384881
-0.00409299
-0.00400467
-0.00336929
-0.00403914
-0.00264137
-0.00395738
-0.00193677
-0.00377149
-0.00127874
-0.00349848
-0.000685177
-0.00315825
-0.00016825
-0.00277178
0.000265473
-0.00235959
0.000614511
-0.00194058
0.000881672
-0.00153114
0.0010731
-0.00114468
0.00119729
-0.000791402
0.00126414
-0.000478369
0.00128412
-0.000209708
0.00126757
1.30277e-05
0.00122421
0.000190433
0.00116273
0.000324792
0.00109064
0.000419638
0.00101414
0.000479343
0.000938165
0.000508761
0.000866499
0.000512941
0.000801875
0.000496889
0.000746162
0.000465406
0.000700521
0.000422969
0.000665556
0.000373657
0.000641449
0.000321118
0.000628065
0.00026855
0.000625034
0.000218708
0.000631804
0.00017392
0.000647683
0.000136101
0.000671852
0.000106778
0.000703379
8.71048e-05
0.000741221
7.78829e-05
0.000784225
7.95758e-05
0.000831128
9.2323e-05
0.000880569
0.000115953
0.000931094
0.000149997
0.000981175
0.000193702
0.00102923
0.000246044
0.00107367
0.000305748
0.00111289
0.000371306
0.00114534
0.000441003
0.00116957
0.000512943
0.00118426
0.000585089
0.00118827
0.000655303
0.00118068
0.000721403
0.00116087
0.000781219
0.00112852
0.00083267
0.0010837
0.000873832
0.00102684
0.000903022
0.000958782
0.000918868
0.000880752
0.000920361
0.000794334
0.000906885
0.000701407
0.00087818
0.000604064
0.000834236
0.000504492
0.000775061
0.000404845
0.00070028
0.00030708
0.000608508
0.000212784
0.000496803
0.000122936
0.000363769
3.77429e-05
0.000227334
-4.1265e-05
0.000131256
-0.000100667
-0.000123755
0.0476949
0.0224375
0.0490189
0.0175447
0.0505055
0.0117219
0.0516998
0.00492311
0.0520748
-0.00275928
0.0511867
-0.0110534
0.0487624
-0.0195267
0.0447482
-0.0276496
0.0393099
-0.0348806
0.032793
-0.0407512
0.0256576
-0.0449314
0.0184036
-0.0472651
0.0115023
-0.0477737
0.00534308
-0.0466339
0.000201054
-0.0441367
-0.00377408
-0.0406396
-0.00655179
-0.0365187
-0.00820163
-0.0321293
-0.00886736
-0.027777
-0.008739
-0.0237006
-0.00802689
-0.0200661
-0.00693979
-0.0169691
-0.0056684
-0.0144429
-0.00437425
-0.0124705
-0.00318357
-0.0109974
-0.00218536
-0.00994507
-0.00143261
-0.00922207
-0.000946009
-0.00873454
-0.000719138
-0.00839393
-0.00072456
-0.00812278
-0.000920194
-0.00785837
-0.00125548
-0.00755454
-0.00167696
-0.00718178
-0.00213301
-0.00672611
-0.00257751
-0.00618689
-0.00297241
-0.00557406
-0.00328921
-0.00490508
-0.00350945
-0.00420191
-0.00362425
-0.0034882
-0.00363338
-0.00278694
-0.00354368
-0.00211866
-0.00336739
-0.00150018
-0.00312036
-0.000943958
-0.00282031
-0.000457853
-0.00248539
-4.53983e-05
-0.00213291
0.000293708
-0.00177844
0.000562895
-0.0014352
0.000767935
-0.00111375
0.000916154
-0.00082189
0.00101571
-0.000564765
0.00107496
-0.000345143
0.00110201
-0.000163745
0.00110432
-1.96325e-05
0.00108852
8.94015e-05
0.00106029
0.00016646
0.00102435
0.000215212
0.000984519
0.000239622
0.000943795
0.000243724
0.000904498
0.000231462
0.000868386
0.000206574
0.000836771
0.000172519
0.000810623
0.000132444
0.000790647
8.91625e-05
0.000777343
4.51621e-05
0.000771038
2.61513e-06
0.000771906
-3.66052e-05
0.000779968
-7.09079e-05
0.00079509
-9.89695e-05
0.000816973
-0.000119722
0.000845141
-0.000132346
0.000878936
-0.000136261
0.000917516
-0.00013113
0.000959855
-0.000116849
0.00100476
-9.35543e-05
0.00105089
-6.16146e-05
0.00109678
-2.16339e-05
0.00114086
2.55547e-05
0.00118151
7.88949e-05
0.00121709
0.000137118
0.00124601
0.00019876
0.00126675
0.000262184
0.00127792
0.000325616
0.00127834
0.000387185
0.00126709
0.000444977
0.00124355
0.000497101
0.00120744
0.000541757
0.00115888
0.000577311
0.0010984
0.000602357
0.00102692
0.000615765
0.000945732
0.000616683
0.000856426
0.000604478
0.000760779
0.000578571
0.000660594
0.000538116
0.000557464
0.000481484
0.000452428
0.000405693
0.000345452
0.000308113
0.000235045
0.000199492
0.000122398
0.000116666
3.24861e-05
5.34778e-06
0.0517415
0.0216197
0.0529473
0.0171813
0.0543654
0.0119271
0.0556384
0.00578767
0.0563183
-0.00120068
0.0559895
-0.00885508
0.054347
-0.0168474
0.0512538
-0.0247422
0.0467611
-0.0320604
0.0410931
-0.0383516
0.0346038
-0.043257
0.0277179
-0.0465532
0.0208696
-0.0481696
0.0144494
-0.0481814
0.00876579
-0.0467839
0.00402486
-0.0442546
0.000326179
-0.040913
-0.00232783
-0.0370827
-0.00401372
-0.033061
-0.00486462
-0.0290985
-0.00504715
-0.0253872
-0.00474053
-0.022058
-0.00411937
-0.0191837
-0.00334089
-0.0167866
-0.00253645
-0.0148487
-0.00180712
-0.0133227
-0.00122257
-0.0121423
-0.000822548
-0.0112322
-0.000620285
-0.0105162
-0.000607165
-0.00992333
-0.000758055
-0.00939258
-0.00103681
-0.0088757
-0.00140148
-0.0083383
-0.00180899
-0.00775966
-0.00221894
-0.00713151
-0.00259648
-0.00645591
-0.00291413
-0.00574285
-0.00315278
-0.00500756
-0.00330168
-0.00426801
-0.00335786
-0.00354269
-0.00332503
-0.00284879
-0.00321217
-0.00220088
-0.00303193
-0.00161014
-0.00279919
-0.00108401
-0.00252959
-0.000626181
-0.0022384
-0.000237028
-0.00193962
8.59053e-05
-0.00164537
0.000347226
-0.00136548
0.000553015
-0.0011074
0.00071019
-0.000876255
0.000825944
-0.000675047
0.000907305
-0.000504935
0.000960811
-0.000365586
0.00099231
-0.000255524
0.00100685
-0.000172465
0.00100869
-0.000113614
0.00100131
-7.59172e-05
0.000987529
-5.62516e-05
0.000969629
-5.15729e-05
0.000949437
-5.90081e-05
0.000928454
-7.59104e-05
0.000907941
-9.98822e-05
0.000888984
-0.000128775
0.000872538
-0.000160676
0.000859452
-0.000193886
0.000850473
-0.000226893
0.000846233
-0.000258354
0.000847231
-0.000287079
0.00085381
-0.000312013
0.000866131
-0.000332236
0.000884158
-0.000346959
0.000907636
-0.000355532
0.000936092
-0.000357443
0.000968828
-0.000352339
0.00100494
-0.000340025
0.00104331
-0.000320486
0.00108268
-0.000293891
0.00112162
-0.000260605
0.00115862
-0.000221199
0.00119207
-0.000176451
0.00122039
-0.000127342
0.00124202
-7.50491e-05
0.00125549
-2.09221e-05
0.0012595
3.35482e-05
0.00125295
8.67735e-05
0.00123504
0.000137124
0.0012053
0.000182992
0.0011636
0.000222859
0.00111024
0.00025535
0.00104586
0.000279275
0.000971466
0.00029361
0.000888295
0.000297402
0.000797659
0.000289536
0.000700653
0.000268275
0.000597717
0.000230572
0.000487922
0.000172403
0.00036851
9.75819e-05
0.000240346
3.67399e-05
0.000138685
0.000136533
0.055463
0.0208897
0.0565784
0.0168393
0.0579382
0.012078
0.0592592
0.00652077
0.0601619
0.000164051
0.0602682
-0.00687588
0.0592672
-0.0143548
0.0569717
-0.0219214
0.0533498
-0.0291627
0.0485263
-0.0356625
0.042758
-0.0410593
0.0363899
-0.0450914
0.0298043
-0.0476232
0.0233708
-0.0486498
0.017407
-0.0482832
0.012152
-0.0467258
0.0077548
-0.0442365
0.00427539
-0.0410974
0.00169588
-0.0375841
-6.29826e-05
-0.033943
-0.00112242
-0.0303767
-0.00162675
-0.0270368
-0.00172665
-0.024023
-0.00156569
-0.0213873
-0.00127056
-0.0191412
-0.000944872
-0.0172643
-0.0006662
-0.0157137
-0.000485811
-0.0144331
-0.000430494
-0.0133607
-0.000505907
-0.0124358
-0.000700872
-0.0116037
-0.000992106
-0.0108192
-0.00134896
-0.0100485
-0.00173776
-0.00926928
-0.00212557
-0.00847074
-0.00248307
-0.00765146
-0.00278664
-0.00681763
-0.00301942
-0.00598069
-0.00317172
-0.00515505
-0.00324064
-0.004356
-0.0032292
-0.00359794
-0.00314521
-0.00289314
-0.00299986
-0.00225089
-0.00280637
-0.00167711
-0.00257872
-0.00117435
-0.00233059
-0.000742118
-0.00207447
-0.000377326
-0.00182115
-7.49545e-05
-0.00157931
0.000171319
-0.00135548
0.000368499
-0.00115403
0.000523739
-0.000977453
0.000643912
-0.000826575
0.000735311
-0.00070094
0.000803458
-0.000599131
0.000853029
-0.000519093
0.00088786
-0.000458412
0.00091102
-0.000414542
0.000924921
-0.00038498
0.000931459
-0.000367382
0.00093214
-0.000359633
0.000928211
-0.000359877
0.000920761
-0.000366508
0.000910796
-0.000378156
0.000899288
-0.000393638
0.000887203
-0.000411927
0.000875496
-0.000432102
0.000865099
-0.000453319
0.000856887
-0.000474779
0.00085165
-0.000495708
0.00085005
-0.000515353
0.00085259
-0.000532972
0.000859583
-0.000547847
0.000871132
-0.00055929
0.000887118
-0.00056666
0.00090719
-0.000569382
0.000930776
-0.00056697
0.000957086
-0.000559048
0.000985138
-0.000545373
0.00101378
-0.000525861
0.00104172
-0.000500602
0.00106756
-0.000469883
0.00108986
-0.000434198
0.00110717
-0.000394245
0.00111809
-0.000350925
0.00112132
-0.000305317
0.00111577
-0.000258643
0.00110056
-0.000212223
0.00107509
-0.000167412
0.00103912
-0.000125545
0.000992731
-8.78725e-05
0.000936345
-5.55407e-05
0.000870639
-2.96233e-05
0.000796386
-1.12965e-05
0.000714157
-2.28088e-06
0.000623807
-5.73475e-06
0.000523633
-2.71165e-05
0.000409741
-6.82764e-05
0.000282104
-0.000104948
0.000183323
0.000215853
0.0589058
0.0202242
0.0599456
0.016521
0.0612513
0.0121993
0.0625973
0.0071645
0.0636618
0.00138543
0.0641063
-0.00507133
0.0636287
-0.0120282
0.0620156
-0.0192058
0.0591772
-0.0262547
0.055161
-0.0328012
0.0501399
-0.0384976
0.0443826
-0.043066
0.038213
-0.0463287
0.0319665
-0.048221
0.0259513
-0.0487869
0.02042
-0.0481618
0.0155524
-0.046546
0.0114508
-0.0441764
0.00814428
-0.0412983
0.00560038
-0.038143
0.00374028
-0.0349109
0.0024552
-0.0317617
0.0016219
-0.0288105
0.00111601
-0.0261286
0.000822418
-0.0237487
0.00064254
-0.0216712
0.00049854
-0.0198725
0.000334942
-0.0183132
0.00011803
-0.0169456
-0.000166425
-0.0157202
-0.000516564
-0.0145911
-0.000918483
-0.0135196
-0.00135046
-0.0124763
-0.00178699
-0.011442
-0.0022023
-0.0104077
-0.0025732
-0.00937271
-0.00288111
-0.00834359
-0.00311325
-0.00733151
-0.00326308
-0.00635028
-0.00333004
-0.0054143
-0.00331885
-0.00453687
-0.00323837
-0.00372894
-0.00310038
-0.00299833
-0.00291828
-0.00234935
-0.00270589
-0.00178285
-0.00247645
-0.00129657
-0.00224181
-0.000885688
-0.00201196
-0.000543489
-0.00179468
-0.00026209
-0.00159554
-3.30918e-05
-0.00141797
0.000151836
-0.00126356
0.000300502
-0.00113231
0.000419875
-0.0010231
0.000515897
-0.000933965
0.000593415
-0.000862486
0.00065622
-0.000806063
0.000707149
-0.000762145
0.000748243
-0.000728393
0.000780924
-0.000702787
0.000806173
-0.000683671
0.000824697
-0.000669755
0.000837071
-0.000660088
0.000843845
-0.000654003
0.00084562
-0.000651049
0.000843087
-0.000650926
0.000837043
-0.000653412
0.000828377
-0.000658312
0.000818041
-0.000665406
0.00080701
-0.000674418
0.000796236
-0.000684991
0.000786602
-0.000696682
0.000778878
-0.000708956
0.000773686
-0.000721202
0.000771472
-0.000732743
0.000772483
-0.00074286
0.000776755
-0.00075082
0.000784112
-0.000755901
0.000794164
-0.000757425
0.000806321
-0.000754795
0.000819808
-0.000747522
0.000833687
-0.000735266
0.000846892
-0.000717858
0.000858261
-0.000695326
0.000866585
-0.00066791
0.000870659
-0.000636066
0.000869342
-0.000600451
0.000861614
-0.000561899
0.000846638
-0.000521375
0.000823815
-0.00047992
0.000792817
-0.00043858
0.000753599
-0.000398351
0.000706358
-0.000360156
0.000651402
-0.000324964
0.000588863
-0.000294211
0.00051815
-0.000270847
0.000437002
-0.000261275
0.000340575
-0.000273522
0.000227277
-0.000300285
0.000140995
0.000192411
0.0620908
0.0196012
0.0630625
0.0162249
0.0643162
0.0123086
0.0656705
0.007753
0.0668523
0.002508
0.0675609
-0.00339657
0.067511
-0.00983536
0.0664784
-0.0165894
0.0643361
-0.0233669
0.0610731
-0.0298388
0.0567933
-0.0356808
0.051697
-0.0406144
0.0460499
-0.0444381
0.0401457
-0.0470451
0.0342715
-0.0484265
0.028678
-0.0486613
0.0235602
-0.0478969
0.0190478
-0.0463253
0.0152045
-0.044158
0.0120353
-0.0416043
0.0094975
-0.0388536
0.00751483
-0.0360641
0.00599118
-0.0333562
0.00482336
-0.0308114
0.00391156
-0.028475
0.00316715
-0.0263615
0.00251778
-0.024461
0.00190985
-0.0227468
0.00130882
-0.021183
0.000697749
-0.0197302
7.44908e-05
-0.0183513
-0.000551777
-0.0170154
-0.00116442
-0.0156996
-0.00174311
-0.0143907
-0.00226718
-0.0130845
-0.00271835
-0.0117851
-0.00308269
-0.0105027
-0.00335179
-0.00925196
-0.00352318
-0.00804925
-0.00360002
-0.00691103
-0.0035904
-0.00585193
-0.00350618
-0.00488354
-0.00336171
-0.00401359
-0.00317251
-0.00324566
-0.00295411
-0.0025793
-0.00272095
-0.00201045
-0.00248565
-0.00153214
-0.00225855
-0.00113529
-0.00204738
-0.000809572
-0.00185735
-0.000544185
-0.00169127
-0.000328561
-0.00154991
-0.000152907
-0.00143238
-8.59387e-06
-0.00133659
0.000111619
-0.00125968
0.000213505
-0.0011984
0.00030141
-0.00114945
0.000378393
-0.00110977
0.000446422
-0.00107668
0.000506603
-0.001048
0.000559427
-0.00102212
0.000604987
-0.00099795
0.000643184
-0.0009749
0.000673884
-0.000952783
0.000697038
-0.000931725
0.000712762
-0.000912066
0.000721375
-0.000894262
0.000723409
-0.000878802
0.000719588
-0.000866133
0.000710794
-0.000856606
0.00069802
-0.000850433
0.000682312
-0.000847666
0.000664724
-0.000848182
0.000646262
-0.000851687
0.000627843
-0.000857721
0.000610261
-0.000865679
0.000594155
-0.000874835
0.000579992
-0.000884369
0.000568048
-0.000893406
0.000558405
-0.000901049
0.000550949
-0.000906423
0.000545375
-0.000908715
0.000541198
-0.000907219
0.000537777
-0.000901371
0.000534343
-0.000890788
0.000530032
-0.000875288
0.000523939
-0.000854903
0.000515166
-0.000829876
0.00050288
-0.000800634
0.000486375
-0.000767739
0.000465123
-0.000731823
0.000438807
-0.000693495
0.000407321
-0.00065328
0.000370681
-0.000611645
0.000328791
-0.000569355
0.000280917
-0.000528545
0.000224675
-0.000495601
0.000154825
-0.000484726
6.80771e-05
-0.000509991
2.95522e-06
6.06754e-05
0.0650192
0.0190016
0.065926
0.0159469
0.0671286
0.0124171
0.0684796
0.00831136
0.0697463
0.0035673
0.0706629
-0.0018123
0.0709643
-0.00774285
0.0704259
-0.014055
0.068898
-0.0205078
0.0663273
-0.0268149
0.0627629
-0.0326807
0.0583466
-0.0378357
0.0532895
-0.0420679
0.0478422
-0.0452434
0.0422634
-0.0473139
0.0367917
-0.048313
0.0316251
-0.0483427
0.0269076
-0.0475538
0.0227261
-0.0461242
0.0191126
-0.0442382
0.016053
-0.0420692
0.013498
-0.0397669
0.0113754
-0.03745
0.00960213
-0.0352024
0.0080943
-0.0330752
0.00677546
-0.0310898
0.00558204
-0.0292441
0.00446652
-0.0275194
0.00339826
-0.0258873
0.00236262
-0.0243157
0.00135854
-0.0227746
0.000395367
-0.0212396
-0.000510801
-0.0196947
-0.00134079
-0.0181333
-0.00207563
-0.016558
-0.00269927
-0.0149796
-0.0032005
-0.0134149
-0.0035741
-0.0118846
-0.00382114
-0.0104109
-0.00394871
-0.00901529
-0.00396894
-0.00771648
-0.00389782
-0.00652924
-0.00375377
-0.00546337
-0.00355612
-0.00452348
-0.00332384
-0.0037091
-0.00307438
-0.00301526
-0.00282281
-0.00243329
-0.00258132
-0.00195182
-0.00235895
-0.00155786
-0.0021616
-0.0012377
-0.00199229
-0.000977861
-0.00185158
-0.000765785
-0.00173798
-0.000590328
-0.0016486
-0.000442095
-0.00157958
-0.000313581
-0.00152666
-0.000199147
-0.00148554
-9.48854e-05
-0.0014522
1.6115e-06
-0.00142318
9.15284e-05
-0.00139571
0.000175128
-0.00136774
0.000252043
-0.00133797
0.000321545
-0.00130576
0.000382775
-0.00127109
0.000434918
-0.00123439
0.000477339
-0.00119642
0.000509666
-0.00115818
0.000531828
-0.00112076
0.00054407
-0.00108525
0.00054692
-0.00105266
0.000541161
-0.00102385
0.000527772
-0.000999508
0.000507874
-0.000980074
0.000482672
-0.000965768
0.0004534
-0.000956568
0.000421275
-0.000952222
0.000387451
-0.000952264
0.000352983
-0.000956037
0.000318798
-0.000962726
0.00028567
-0.000971391
0.000254201
-0.000981009
0.000224809
-0.00099052
0.000197717
-0.000998876
0.000172961
-0.00100509
0.000150395
-0.00100828
0.000129708
-0.00100772
0.000110461
-0.00100285
9.21179e-05
-0.000993318
7.41033e-05
-0.000978969
5.58552e-05
-0.000959799
3.6889e-05
-0.000935898
1.68561e-05
-0.000907343
-4.41763e-06
-0.000874072
-2.69481e-05
-0.000835813
-5.0743e-05
-0.000792271
-7.6232e-05
-0.000744056
-0.000105222
-0.000696335
-0.000142333
-0.000668769
-0.000192127
-0.000697993
-0.000228522
-0.000175981
0.0676786
0.0184107
0.0685208
0.0156816
0.0696721
0.0125297
0.0710114
0.00885523
0.0723395
0.00458795
0.0734215
-0.000289051
0.0740137
-0.00572288
0.0738973
-0.0115847
0.0729101
-0.0176768
0.0709694
-0.0237528
0.0680824
-0.0295464
0.0643419
-0.0348032
0.0599109
-0.03931
0.0549984
-0.0429168
0.0498322
-0.0455474
0.0446326
-0.0472005
0.0395912
-0.0479408
0.0348572
-0.0478834
0.0305301
-0.047175
0.0266599
-0.0459752
0.0232527
-0.0444396
0.0202795
-0.0427059
0.0176872
-0.0408864
0.0154093
-0.0390623
0.0133763
-0.0372847
0.0115232
-0.0355764
0.00979625
-0.033938
0.00815583
-0.0323535
0.00657802
-0.0307972
0.00505395
-0.0292404
0.00358765
-0.0276565
0.00219294
-0.0260253
0.00088978
-0.0243356
-0.000299483
-0.0225866
-0.00135352
-0.0207874
-0.00225486
-0.018956
-0.00299188
-0.0171169
-0.00356005
-0.0152988
-0.00396218
-0.013532
-0.00420808
-0.0118453
-0.00431345
-0.0102643
-0.00429851
-0.00880964
-0.00418628
-0.00749577
-0.00400095
-0.00633063
-0.00376626
-0.00531579
-0.00350415
-0.00444703
-0.00323379
-0.00371529
-0.00297084
-0.00310779
-0.00272716
-0.00260937
-0.00251076
-0.00220361
-0.00232608
-0.001874
-0.00217441
-0.00160485
-0.00205446
-0.00138196
-0.00196304
-0.00119314
-0.00189563
-0.00102843
-0.00184704
-0.00088018
-0.0018119
-0.000742936
-0.0017851
-0.000613214
-0.00176209
-0.0004892
-0.00173911
-0.000370403
-0.00171332
-0.000257301
-0.00168276
-0.000151
-0.00164638
-5.29402e-05
-0.00160392
3.536e-05
-0.00155576
0.000112497
-0.00150282
0.000177324