/*--------------------------------*- C++ -*----------------------------------*\
  =========                 |
  \\      /  F ield         | OpenFOAM: The Open Source CFD Toolbox
   \\    /   O peration     | Website:  https://openfoam.org
    \\  /    A nd           | Version:  8
     \\/     M anipulation  |
\*---------------------------------------------------------------------------*/
FoamFile
{
    version     2.0;
    format      ascii;
    class       volVectorField;
    location    "2";
    object      U;
}
// * * * * * * * * * * * * * * * * * * * * * * * * * * * * * * * * * * * * * //

dimensions      [0 1 -1 0 0 0 0];

internalField   nonuniform List<vector> 
10000
(
(0.0607926 0.906832 0)
(0.416916 0.606553 0)
(0.541332 0.159373 1.295e-26)
(0.527608 -0.302181 -6.21481e-29)
(0.404851 -0.709024 -7.86221e-27)
(0.208532 -1.0151 0)
(-0.0263126 -1.19587 0)
(-0.267157 -1.24583 0)
(-0.48658 -1.17556 0)
(-0.6642 -1.0077 0)
(-0.787647 -0.772264 0)
(-0.852489 -0.501798 0)
(-0.861249 -0.227162 0)
(-0.821786 0.0257255 0)
(-0.745364 0.237853 0)
(-0.644729 0.397833 0)
(-0.532444 0.501547 0)
(-0.419621 0.551013 0)
(-0.31512 0.552839 0)
(-0.225186 0.516541 0)
(-0.153451 0.452984 -4.70041e-26)
(-0.101193 0.373073 -3.45445e-28)
(-0.067764 0.286784 4.77689e-26)
(-0.0510844 0.202517 0)
(-0.0481406 0.126761 0)
(-0.0554412 0.0639896 -9.88072e-27)
(-0.0694015 0.0167506 3.78111e-29)
(-0.0866458 -0.0141256 4.26035e-27)
(-0.104226 -0.0292354 0)
(-0.11976 -0.0302743 0)
(-0.131501 -0.0196999 0)
(-0.138344 -0.000409855 3.84513e-27)
(-0.13979 0.0245479 6.17057e-29)
(-0.135868 0.0522207 -5.14064e-27)
(-0.127038 0.0799448 0)
(-0.114077 0.105483 0)
(-0.0979691 0.127107 0)
(-0.0797952 0.143632 0)
(-0.0606387 0.154403 -5.70009e-27)
(-0.0415078 0.159247 1.19091e-29)
(-0.0232775 0.158404 2.55178e-27)
(-0.00665258 0.152437 -1.14739e-27)
(0.00785157 0.142142 3.52474e-29)
(0.0199102 0.12845 -1.06442e-27)
(0.0293775 0.112352 1.83522e-27)
(0.0362649 0.0948199 3.6226e-29)
(0.0407125 0.0767569 -2.73628e-27)
(0.0429585 0.0589529 0)
(0.0433074 0.0420614 0)
(0.0421013 0.0265874 0)
(0.0396938 0.0128877 0)
(0.0364295 0.00117943 0)
(0.0326281 -0.00844416 2.09277e-27)
(0.0285731 -0.0159951 1.77544e-27)
(0.0245055 -0.0215699 2.44278e-30)
(0.0206211 -0.0253282 -1.10915e-27)
(0.0170708 -0.027474 -7.92815e-28)
(0.0139636 -0.028238 0)
(0.0113704 -0.0278627 0)
(0.00932957 -0.0265911 0)
(0.00785193 -0.0246575 -2.23515e-28)
(0.00692624 -0.0222806 -4.67105e-30)
(0.00652398 -0.01966 5.3125e-28)
(0.0066036 -0.016973 3.13614e-28)
(0.00711414 -0.0143736 3.38909e-31)
(0.00799812 -0.0119924 -3.48901e-28)
(0.00919386 -0.00993697 3.35931e-28)
(0.0106373 -0.00829286 -3.18608e-30)
(0.0122633 -0.0071245 -2.50561e-28)
(0.0140067 -0.00647648 1.79883e-28)
(0.0158035 -0.00637469 -7.53272e-30)
(0.0175911 -0.00682744 1.05128e-29)
(0.0193093 -0.00782664 0)
(0.0209009 -0.00934881 0)
(0.0223122 -0.0113562 0)
(0.0234943 -0.0137978 0)
(0.024403 -0.0166108 0)
(0.0250007 -0.0197212 1.63806e-27)
(0.0252563 -0.0230458 3.28023e-29)
(0.0251466 -0.0264934 -2.18756e-27)
(0.0246574 -0.0299666 0)
(0.0237839 -0.0333638 0)
(0.0225317 -0.0365815 0)
(0.0209173 -0.039517 0)
(0.0189684 -0.0420712 0)
(0.0167237 -0.0441524 0)
(0.0142324 -0.0456791 0)
(0.011553 -0.0465839 0)
(0.00875175 -0.0468163 0)
(0.00590079 -0.0463445 0)
(0.00307627 -0.0451566 0)
(0.000357825 -0.0432579 0)
(-0.00216907 -0.0406668 0)
(-0.0044038 -0.0374069 0)
(-0.00620707 -0.0335042 0)
(-0.00734618 -0.029006 -5.26443e-28)
(-0.0074161 -0.0240922 4.01401e-30)
(-0.00627646 -0.0193328 -2.22468e-29)
(-0.00615714 -0.0151461 0)
(-0.00983727 -0.00910135 0)
(0.399021 0.699558 0)
(0.548548 0.462577 0)
(0.658316 0.185502 5.54685e-27)
(0.68808 -0.121152 -1.2982e-28)
(0.627096 -0.421144 -6.06676e-27)
(0.486285 -0.679085 0)
(0.287616 -0.868541 0)
(0.0579991 -0.97488 0)
(-0.175405 -0.995413 0)
(-0.388747 -0.937827 0)
(-0.563889 -0.817538 0)
(-0.689607 -0.654499 0)
(-0.761685 -0.470018 0)
(-0.782097 -0.284017 0)
(-0.757588 -0.113019 0)
(-0.697977 0.0310148 0)
(-0.614467 0.141037 0)
(-0.518193 0.214609 0)
(-0.419119 0.253142 0)
(-0.325337 0.260902 0)
(-0.242739 0.243957 -2.4037e-26)
(-0.174988 0.209212 -9.89914e-28)
(-0.123715 0.163609 3.07774e-26)
(-0.0888481 0.113523 0)
(-0.0690067 0.0643608 0)
(-0.0619087 0.020337 -8.56042e-27)
(-0.0647474 -0.0155985 5.22515e-29)
(-0.0745216 -0.0417239 5.43345e-27)
(-0.0883039 -0.057425 0)
(-0.103445 -0.063022 0)
(-0.117717 -0.0595659 0)
(-0.129392 -0.0486247 6.39579e-28)
(-0.137275 -0.0320746 1.52554e-28)
(-0.140695 -0.0119087 -2.27565e-27)
(-0.13945 0.00992688 0)
(-0.133741 0.0316645 0)
(-0.124083 0.0518097 0)
(-0.11121 0.0691999 0)
(-0.0959862 0.0830289 -4.4322e-27)
(-0.0793175 0.0928416 1.20119e-29)
(-0.0620843 0.0985058 2.74375e-27)
(-0.0450839 0.100165 -1.86839e-27)
(-0.0289915 0.0981829 7.86535e-29)
(-0.014337 0.0930804 3.07849e-28)
(-0.00149671 0.085477 3.19013e-28)
(0.00930309 0.0760343 8.927e-29)
(0.0179731 0.0654089 -1.20812e-27)
(0.0245413 0.0542147 0)
(0.0291301 0.0429954 0)
(0.031932 0.0322066 0)
(0.0331854 0.0222078 0)
(0.0331541 0.0132611 0)
(0.0321086 0.00553612 1.50055e-27)
(0.0303114 -0.000880441 1.36223e-27)
(0.0280068 -0.00597314 1.00299e-29)
(0.025413 -0.00978447 -9.6454e-28)
(0.0227181 -0.0124015 -7.64735e-28)
(0.0200787 -0.0139434 0)
(0.0176202 -0.0145498 0)
(0.0154383 -0.0143715 0)
(0.0136022 -0.0135621 -3.10786e-30)
(0.0121576 -0.0122725 -1.41487e-29)
(0.0111296 -0.0106459 3.05593e-28)
(0.0105265 -0.008815 2.13114e-28)
(0.0103421 -0.00689975 3.33761e-30)
(0.0105586 -0.00500663 -2.97952e-28)
(0.0111483 -0.003228 3.2084e-28)
(0.0120756 -0.0016422 -4.70984e-30)
(0.0132985 -0.000313844 -3.24985e-28)
(0.0147694 0.000705729 3.06001e-28)
(0.0164365 0.00137794 -1.54983e-29)
(0.0182448 0.00167645 -2.2712e-28)
(0.0201365 0.0015866 0)
(0.0220524 0.00110495 0)
(0.0239325 0.000238767 0)
(0.0257174 -0.000994459 0)
(0.0273486 -0.0025675 0)
(0.0287705 -0.00444391 5.44626e-28)
(0.0299312 -0.00657867 8.21032e-29)
(0.0307835 -0.00891881 -9.73009e-28)
(0.0312871 -0.0114043 0)
(0.0314091 -0.0139692 0)
(0.031126 -0.0165426 0)
(0.0304247 -0.0190506 0)
(0.029304 -0.0214179 0)
(0.0277747 -0.0235703 0)
(0.0258609 -0.025437 0)
(0.0235991 -0.0269531 0)
(0.0210379 -0.0280627 0)
(0.0182365 -0.0287203 0)
(0.0152623 -0.0288924 0)
(0.0121898 -0.0285571 0)
(0.0090991 -0.0277004 0)
(0.00607953 -0.0263102 0)
(0.00323817 -0.024366 0)
(0.000710217 -0.0218219 -7.82141e-28)
(-0.00137327 -0.0185931 7.47199e-30)
(-0.00307741 -0.0147512 3.03993e-28)
(-0.00470822 -0.0113083 0)
(-0.00622493 -0.00988249 0)
(0.614699 0.688121 -2.14873e-27)
(0.698064 0.475448 -3.63893e-27)
(0.776419 0.226242 1.40164e-27)
(0.814031 -0.053864 2.05048e-27)
(0.787268 -0.341898 2.21973e-27)
(0.691072 -0.608654 1.39893e-26)
(0.534095 -0.827332 1.92038e-26)
(0.334007 -0.97869 2.27544e-26)
(0.112911 -1.05332 2.4136e-26)
(-0.10668 -1.05173 0)
(-0.305015 -0.982925 1.99758e-26)
(-0.467228 -0.861895 1.48786e-26)
(-0.584359 -0.70685 8.41131e-27)
(-0.653389 -0.536475 1.19704e-27)
(-0.676482 -0.367704 -6.09483e-27)
(-0.659748 -0.214181 0)
(-0.611794 -0.0854554 -1.85548e-26)
(-0.542317 0.0131449 -2.28213e-26)
(-0.46091 0.0801319 -2.54233e-26)
(-0.376168 0.117147 -2.63198e-26)
(-0.295125 0.128096 -3.78816e-26)
(-0.222982 0.11828 3.5219e-26)
(-0.163088 0.0936056 3.55607e-27)
(-0.117079 0.0599437 -1.63272e-26)
(-0.0851407 0.0226533 -1.20117e-26)
(-0.066315 -0.0137396 -1.63979e-26)
(-0.0588272 -0.0457184 -3.46408e-27)
(-0.0603945 -0.0708357 6.75686e-27)
(-0.0685023 -0.0876817 2.97702e-27)
(-0.0806378 -0.0957839 0)
(-0.0944725 -0.0954621 6.70418e-27)
(-0.107997 -0.0876553 6.35989e-27)
(-0.119604 -0.0737389 -3.83608e-27)
(-0.128132 -0.0553446 6.43787e-27)
(-0.132863 -0.0341964 6.60446e-27)
(-0.133495 -0.0119678 0)
(-0.130089 0.00982955 4.45372e-27)
(-0.122996 0.0299275 3.24831e-27)
(-0.112781 0.0473495 -4.33963e-27)
(-0.100147 0.0614299 9.89201e-28)
(-0.0858586 0.0718072 3.26756e-27)
(-0.0706812 0.0783971 -2.52287e-27)
(-0.0553285 0.0813511 -1.35839e-27)
(-0.0404254 0.0810061 -6.41696e-28)
(-0.0264834 0.0778313 -1.58157e-27)
(-0.0138899 0.0723758 -2.23792e-27)
(-0.00290639 0.0652216 -4.69902e-28)
(0.00632338 0.0569429 2.12445e-27)
(0.0137602 0.0480751 -9.58816e-28)
(0.0194519 0.0390913 9.23926e-28)
(0.0235144 0.0303885 8.04976e-28)
(0.0261128 0.0222808 -6.32325e-28)
(0.0274435 0.0149993 2.96855e-27)
(0.0277188 0.00869627 4.84227e-28)
(0.0271537 0.00345382 -5.63069e-28)
(0.0259563 -0.000706248 -1.37324e-27)
(0.02432 -0.00381111 -9.95434e-28)
(0.0224191 -0.00592572 -2.66435e-30)
(0.0204056 -0.00714234 -7.87345e-30)
(0.0184087 -0.00757112 3.791e-28)
(0.0165348 -0.00733225 1.49481e-28)
(0.0148686 -0.00654949 5.46692e-28)
(0.0134749 -0.00534526 7.57743e-28)
(0.0124004 -0.00383697 7.44287e-28)
(0.0116755 -0.00213461 5.25353e-28)
(0.0113163 -0.000339063 1.79046e-28)
(0.0113263 0.00145868 7.16253e-28)
(0.0116977 0.00317799 -1.20621e-28)
(0.0124128 0.00474866 -3.23498e-28)
(0.0134449 0.00611081 3.16086e-28)
(0.0147598 0.00721467 1.5295e-28)
(0.0163162 0.00802038 -9.27324e-28)
(0.018067 0.00849777 -7.61997e-28)
(0.0199598 0.00862619 0)
(0.0219386 0.00839435 -1.24893e-27)
(0.023944 0.00780021 -1.49108e-27)
(0.0259148 0.00685086 -1.7238e-27)
(0.0277891 0.00556245 -2.00844e-27)
(0.0295057 0.00395999 -2.13867e-27)
(0.0310053 0.0020772 -2.64745e-27)
(0.0322322 -4.38698e-05 -2.44296e-27)
(0.0331358 -0.00235327 -2.5388e-27)
(0.0336724 -0.00479395 -2.58935e-27)
(0.0338071 -0.00730273 -2.5922e-27)
(0.0335151 -0.00981171 0)
(0.0327832 -0.01225 -2.44599e-27)
(0.0316113 -0.014546 -2.29923e-27)
(0.0300128 -0.0166295 -2.1092e-27)
(0.0280147 -0.018435 -1.88216e-27)
(0.0256568 -0.0199031 -1.62757e-27)
(0.0229897 -0.0209836 0)
(0.0200725 -0.0216347 -1.07783e-27)
(0.0169696 -0.0218218 -8.05986e-28)
(0.0137469 -0.0215114 -5.51383e-28)
(0.0104684 -0.0206588 -3.24914e-28)
(0.00718407 -0.0191816 -1.15311e-27)
(0.00390434 -0.016919 -5.48239e-30)
(0.000689822 -0.0138269 5.97792e-28)
(-0.00178068 -0.0110653 5.30756e-29)
(-0.00288487 -0.0104982 1.81572e-29)
(0.790029 0.654893 6.47619e-29)
(0.844284 0.469517 7.54586e-30)
(0.903499 0.251387 2.44455e-27)
(0.941978 0.00286295 4.6303e-41)
(0.936004 -0.261944 -5.13966e-27)
(0.873373 -0.521153 -1.39573e-40)
(0.753568 -0.751113 3.87403e-40)
(0.585873 -0.931559 -1.66616e-40)
(0.386235 -1.04898 -1.20659e-26)
(0.173758 -1.09807 -1.02157e-39)
(-0.0325481 -1.08156 2.47117e-26)
(-0.216355 -1.00876 8.13244e-40)
(-0.365698 -0.893432 -3.6985e-40)
(-0.473722 -0.751432 -1.88419e-40)
(-0.538582 -0.5985 -3.30631e-26)
(-0.562727 -0.448549 5.0676e-40)
(-0.551803 -0.312543 2.57665e-26)
(-0.513428 -0.197977 5.28928e-40)
(-0.456033 -0.108882 -5.88537e-40)
(-0.387891 -0.0462032 4.16916e-40)
(-0.316404 -0.0084123 -8.06928e-28)
(-0.247652 0.0077876 9.86861e-40)
(-0.186182 0.00676747 -9.32625e-27)
(-0.134981 -0.00664482 -2.9733e-40)
(-0.09559 -0.0276667 -3.51311e-40)
(-0.0683063 -0.0519365 -7.30441e-27)
(-0.0524295 -0.0757663 -5.17071e-41)
(-0.0465262 -0.0962847 6.64375e-27)
(-0.048688 -0.111489 1.23571e-26)
(-0.0567668 -0.120221 1.83152e-41)
(-0.0685782 -0.122091 -7.6019e-27)
(-0.0820667 -0.117357 5.1184e-27)
(-0.09543 -0.106787 -1.40724e-41)
(-0.107201 -0.0915056 -7.57338e-28)
(-0.116293 -0.0728461 -9.21415e-28)
(-0.122006 -0.0522138 2.81223e-43)
(-0.12401 -0.0309692 3.08483e-27)
(-0.122297 -0.0103351 -3.70876e-27)
(-0.11713 0.00866879 -3.77582e-27)
(-0.10897 0.0252643 3.80454e-27)
(-0.0984152 0.0389292 -1.08298e-28)
(-0.0861296 0.0493897 -2.94511e-27)
(-0.072792 0.0565968 2.48805e-27)
(-0.059047 0.0606917 9.18452e-28)
(-0.0454704 0.0619631 -1.26324e-27)
(-0.0325462 0.0608041 -3.6089e-28)
(-0.0206538 0.0576694 -2.26861e-28)
(-0.010065 0.0530372 -8.63268e-29)
(-0.000948195 0.0473774 -2.47108e-28)
(0.00662119 0.0411265 7.6873e-28)
(0.0126477 0.0346703 -9.54429e-28)
(0.0172 0.0283325 1.07304e-27)
(0.0203954 0.022371 5.47262e-28)
(0.022385 0.0169775 -1.72643e-27)
(0.0233395 0.0122817 3.46404e-41)
(0.0234385 0.00835819 -1.06045e-27)
(0.0228611 0.00523465 3.04572e-29)
(0.0217785 0.00290054 8.4825e-28)
(0.0203498 0.00131586 -6.941e-28)
(0.0187182 0.000419188 9.75622e-43)
(0.0170094 0.000134752 3.39706e-28)
(0.0153315 0.000378274 -1.70408e-28)
(0.0137747 0.00106167 9.59789e-30)
(0.0124122 0.00209659 8.4513e-29)
(0.0113013 0.00339697 2.34827e-41)
(0.0104845 0.00488076 -2.32822e-28)
(0.00999052 0.00647098 -6.36669e-28)
(0.00983582 0.00809636 -1.83126e-42)
(0.0100252 0.00969166 8.6155e-28)
(0.0105528 0.0111978 -9.42104e-28)
(0.0114033 0.0125619 -4.15473e-42)
(0.0125524 0.0137375 1.02957e-27)
(0.0139675 0.0146842 -1.03368e-27)
(0.0156091 0.0153683 -5.67706e-42)
(0.017431 0.0157627 9.59057e-28)
(0.0193816 0.0158474 9.55018e-42)
(0.021405 0.0156093 1.18628e-41)
(0.0234416 0.0150432 -6.41766e-28)
(0.0254298 0.0141515 2.31842e-41)
(0.0273069 0.012945 3.06066e-28)
(0.0290109 0.0114428 4.39482e-41)
(0.0304821 0.0096725 -4.00395e-44)
(0.0316647 0.00767042 5.04847e-41)
(0.0325086 0.00548084 5.52232e-28)
(0.0329715 0.00315555 9.71847e-41)
(0.033021 0.000752742 -9.83144e-28)
(0.0326356 -0.00166456 -6.50814e-42)
(0.0318068 -0.00403044 -1.09641e-40)
(0.0305392 -0.00627841 -1.61849e-41)
(0.0288509 -0.00834393 1.54077e-27)
(0.0267718 -0.0101666 3.35814e-41)
(0.0243409 -0.0116916 -1.56912e-27)
(0.0216015 -0.0128694 4.61265e-43)
(0.0185942 -0.0136524 -9.87191e-42)
(0.0153453 -0.0139853 9.62698e-42)
(0.0118473 -0.0137823 1.13306e-27)
(0.00804467 -0.0128923 2.39869e-41)
(0.00404536 -0.0112365 -6.72763e-28)
(0.000916172 -0.00957421 -6.87228e-42)
(-0.000412155 -0.00905623 9.14504e-43)
(0.93702 0.624287 6.7612e-28)
(0.977564 0.461888 1.53917e-27)
(1.02566 0.26912 2.91381e-27)
(1.06355 0.0471076 -9.91424e-28)
(1.07092 -0.195292 -9.63751e-27)
(1.03349 -0.442103 -1.02473e-26)
(0.945448 -0.6737 -1.59277e-26)
(0.809656 -0.870939 -2.12602e-26)
(0.636206 -1.01863 -2.55263e-26)
(0.439911 -1.10771 0)
(0.237497 -1.13605 -2.88985e-26)
(0.044998 -1.10793 -2.75635e-26)
(-0.12425 -1.03268 -2.42969e-26)
(-0.260856 -0.922813 -1.94018e-26)
(-0.359828 -0.792027 -1.33301e-26)
(-0.420358 -0.653534 0)
(-0.445132 -0.518736 2.1495e-28)
(-0.439375 -0.396444 6.62082e-27)
(-0.409821 -0.292564 1.21685e-26)
(-0.363776 -0.210175 1.65443e-26)
(-0.308334 -0.149889 3.50357e-26)
(-0.249819 -0.11036 -3.16938e-26)
(-0.193428 -0.0888533 2.33809e-26)
(-0.143063 -0.0817957 2.03461e-26)
(-0.101315 -0.0852603 1.83732e-26)
(-0.0695497 -0.0953613 9.83594e-27)
(-0.0480687 -0.108551 1.2185e-26)
(-0.0363132 -0.121825 1.58169e-26)
(-0.0330818 -0.132833 6.13598e-27)
(-0.0367479 -0.139932 0)
(-0.0454627 -0.142162 6.93136e-28)
(-0.0573324 -0.139189 -4.81811e-27)
(-0.0705653 -0.131206 1.43123e-27)
(-0.0835829 -0.11882 -2.46853e-27)
(-0.0950953 -0.102929 -4.41211e-27)
(-0.104143 -0.0845959 0)
(-0.110106 -0.0649387 -4.35378e-27)
(-0.112687 -0.0450364 -3.91362e-27)
(-0.111876 -0.0258529 -2.95675e-27)
(-0.107901 -0.00818626 -2.60452e-27)
(-0.101167 0.00736174 1.41591e-27)
(-0.0921983 0.0203946 -3.04827e-27)
(-0.081585 0.0307135 -4.95545e-28)
(-0.0699289 0.0382974 2.39198e-27)
(-0.057805 0.0432729 -1.54504e-27)
(-0.0457304 0.045881 9.42716e-28)
(-0.0341432 0.0464412 8.55326e-28)
(-0.0233914 0.0453186 -1.35451e-27)
(-0.0137294 0.0428939 6.98511e-28)
(-0.00532192 0.039539 -7.5512e-28)
(0.0017486 0.0355981 -7.32205e-28)
(0.00747008 0.0313751 6.39918e-28)
(0.011888 0.027126 -9.02554e-28)
(0.0150922 0.0230558 2.04898e-27)
(0.0172037 0.0193195 8.73696e-28)
(0.0183634 0.0160258 -3.39382e-28)
(0.0187222 0.0132422 -4.99924e-28)
(0.018433 0.0110015 -8.1838e-30)
(0.0176441 0.00930862 -1.68476e-30)
(0.0164954 0.00814655 -1.41449e-28)
(0.0151151 0.00748246 5.17381e-28)
(0.0136176 0.00727244 -4.8575e-28)
(0.0121035 0.00746555 -8.11042e-28)
(0.0106586 0.00800685 -7.53233e-28)
(0.00935494 0.00883963 -8.14558e-28)
(0.00825102 0.00990702 -1.0741e-27)
(0.00739261 0.0111529 -6.89344e-28)
(0.0068135 0.0125226 4.71594e-28)
(0.00653623 0.0139632 -1.3158e-27)
(0.00657281 0.0154237 -3.84904e-28)
(0.00692532 0.0168554 3.78974e-28)
(0.00758656 0.0182118 -1.20048e-27)
(0.00854059 0.0194493 -4.79811e-28)
(0.00976337 0.0205271 0)
(0.0112234 0.0214079 -9.55278e-29)
(0.0128823 0.0220583 1.28734e-28)
(0.0146956 0.0224498 3.68434e-28)
(0.0166136 0.0225588 -5.1259e-28)
(0.0185823 0.022368 8.74369e-28)
(0.0205444 0.0218667 2.03105e-27)
(0.0224404 0.0210517 1.37273e-27)
(0.0242102 0.0199281 1.60099e-27)
(0.0257947 0.0185097 1.80434e-27)
(0.0271372 0.0168191 1.97589e-27)
(0.0281858 0.0148882 0)
(0.028895 0.0127577 2.19516e-27)
(0.0292279 0.0104761 2.23298e-27)
(0.0291578 0.0080986 2.21991e-27)
(0.0286697 0.00568505 2.15599e-27)
(0.0277605 0.003298 2.04475e-27)
(0.0264386 0.00100005 0)
(0.0247215 -0.00114829 1.70474e-27)
(0.0226309 -0.00309013 1.49381e-27)
(0.020184 -0.00477178 1.26975e-27)
(0.0173803 -0.00613884 1.04397e-27)
(0.0141805 -0.0071251 -1.98006e-28)
(0.0104979 -0.00763571 -6.0078e-28)
(0.00641544 -0.00760112 1.08302e-27)
(0.00301107 -0.0072766 1.75179e-28)
(0.00149706 -0.0071723 6.00693e-29)
(1.06459 0.596428 0)
(1.09779 0.452773 0)
(1.13936 0.281468 1.14375e-27)
(1.17671 0.0825828 2.44889e-41)
(1.19316 -0.138423 -4.2061e-27)
(1.17475 -0.370087 0)
(1.11302 -0.596714 0)
(1.00647 -0.801319 0)
(0.860334 -0.968673 0)
(0.68515 -1.0877 0)
(0.494622 -1.15283 0)
(0.303322 -1.16426 0)
(0.124644 -1.12727 0)
(-0.0306969 -1.0509 0)
(-0.155526 -0.946352 0)
(-0.246418 -0.825407 0)
(-0.303394 -0.699102 0)
(-0.329276 -0.57677 0)
(-0.328857 -0.465507 0)
(-0.308057 -0.36999 0)
(-0.273162 -0.292606 2.967e-26)
(-0.230208 -0.233765 -7.63347e-40)
(-0.18454 -0.192322 -1.12216e-26)
(-0.140536 -0.166031 0)
(-0.101478 -0.151985 0)
(-0.0695415 -0.146995 -3.03228e-27)
(-0.0458667 -0.147905 -1.03389e-40)
(-0.0306944 -0.15183 4.96348e-27)
(-0.0235341 -0.156319 0)
(-0.023349 -0.159452 0)
(-0.0287415 -0.159878 0)
(-0.0381282 -0.156803 -3.78571e-27)
(-0.0498931 -0.149937 3.25751e-42)
(-0.0625144 -0.139419 2.06118e-27)
(-0.0746608 -0.125718 0)
(-0.0852554 -0.109537 0)
(-0.0935099 -0.0917066 0)
(-0.0989308 -0.0730995 0)
(-0.101303 -0.0545518 -2.27996e-27)
(-0.100654 -0.0368047 -4.2643e-41)
(-0.0972145 -0.0204653 3.00591e-27)
(-0.0913599 -0.00598421 -3.02856e-27)
(-0.083564 0.00634969 -1.2204e-42)
(-0.0743483 0.0164014 2.59865e-27)
(-0.0642404 0.0241723 -2.23093e-27)
(-0.0537392 0.0297757 -6.49402e-42)
(-0.0432899 0.0334099 1.37597e-27)
(-0.0332672 0.0353304 0)
(-0.0239667 0.0358241 0)
(-0.0156034 0.0351872 0)
(-0.00831509 0.0337069 0)
(-0.00217033 0.0316479 0)
(0.00282172 0.0292438 5.95534e-28)
(0.00669991 0.0266922 7.4731e-28)
(0.00953968 0.0241532 -7.44137e-43)
(0.0114422 0.0217506 -9.04761e-28)
(0.0125249 0.019575 -9.18894e-28)
(0.0129132 0.0176883 0)
(0.0127339 0.0161281 0)
(0.0121106 0.0149123 0)
(0.0111597 0.014044 6.48696e-28)
(0.00998869 0.0135147 3.43411e-43)
(0.00869417 0.0133079 -3.74342e-28)
(0.00736173 0.0134009 -1.07619e-28)
(0.00606575 0.0137672 1.27569e-41)
(0.00486966 0.0143769 -6.47181e-29)
(0.00382635 0.0151982 1.53977e-28)
(0.00297872 0.0161969 3.39552e-42)
(0.00236018 0.0173374 -3.29655e-28)
(0.00199506 0.0185825 4.12551e-28)
(0.00189908 0.0198935 2.01288e-41)
(0.00207971 0.0212306 -5.60158e-28)
(0.00253645 0.0225532 0)
(0.00326122 0.02382 0)
(0.00423865 0.0249902 0)
(0.00544644 0.0260236 0)
(0.00685575 0.0268818 0)
(0.00843164 0.0275288 -1.50744e-27)
(0.0101337 0.0279324 -1.59466e-41)
(0.0119165 0.0280648 1.41041e-27)
(0.0137307 0.027904 0)
(0.0155238 0.0274348 0)
(0.0172414 0.0266499 0)
(0.0188288 0.0255508 0)
(0.0202322 0.0241483 0)
(0.0214013 0.0224631 0)
(0.0222903 0.0205258 0)
(0.0228608 0.0183757 0)
(0.0230826 0.0160606 0)
(0.0229355 0.0136342 0)
(0.0224088 0.0111541 0)
(0.0215002 0.00867915 0)
(0.0202116 0.00626627 0)
(0.0185415 0.00396796 0)
(0.0164725 0.00183016 0)
(0.0139529 -0.000109124 -8.17091e-28)
(0.0108873 -0.00181945 5.72896e-42)
(0.00730119 -0.00325677 6.10432e-28)
(0.00406553 -0.00424546 0)
(0.00249727 -0.00464643 0)
(1.17799 0.57178 0)
(1.20676 0.443276 0)
(1.24418 0.290057 7.36793e-28)
(1.28109 0.111306 -5.39857e-41)
(1.3039 -0.0898409 -3.84713e-27)
(1.29984 -0.305314 0)
(1.25949 -0.522867 0)
(1.17863 -0.728019 0)
(1.05878 -0.9065 0)
(0.90671 -1.04651 0)
(0.732941 -1.14036 0)
(0.54994 -1.18517 0)
(0.370242 -1.18283 0)
(0.204875 -1.13914 0)
(0.0622791 -1.06265 0)
(-0.0522264 -0.963305 0)
(-0.136478 -0.85117 0)
(-0.191112 -0.735446 0)
(-0.21897 -0.62377 0)
(-0.224398 -0.521857 0)
(-0.212552 -0.433425 4.29617e-26)
(-0.188792 -0.360327 -6.84595e-40)
(-0.158197 -0.302824 -2.49493e-26)
(-0.125223 -0.259942 0)
(-0.0934896 -0.229827 0)
(-0.065689 -0.2101 4.64305e-28)
(-0.0435789 -0.198164 9.42574e-42)
(-0.0280516 -0.191449 2.61922e-27)
(-0.0192489 -0.187612 0)
(-0.016708 -0.184664 0)
(-0.01952 -0.181051 0)
(-0.0264897 -0.175682 -3.4459e-27)
(-0.0362843 -0.167918 5.11216e-42)
(-0.0475638 -0.157529 2.26038e-27)
(-0.0590867 -0.144625 0)
(-0.0697886 -0.129579 0)
(-0.0788318 -0.112943 0)
(-0.085629 -0.0953648 0)
(-0.0898434 -0.0775166 -1.60155e-27)
(-0.0913693 -0.060034 -2.85261e-41)
(-0.0902996 -0.0434718 2.67412e-27)
(-0.0868842 -0.0282747 -2.87911e-27)
(-0.0814853 -0.0147622 6.47749e-42)
(-0.0745326 -0.0031278 2.76468e-27)
(-0.0664831 0.00655328 -2.51588e-27)
(-0.0577866 0.0143079 -6.4697e-42)
(-0.0488589 0.0202451 1.8096e-27)
(-0.0400629 0.0245341 0)
(-0.0316971 0.0273829 0)
(-0.0239906 0.0290187 0)
(-0.0171039 0.0296718 0)
(-0.0111343 0.0295627 0)
(-0.00612286 0.0288929 2.56217e-28)
(-0.00206441 0.0278398 4.64005e-28)
(0.00108278 0.0265536 -6.3604e-42)
(0.00338729 0.0251577 -7.39843e-28)
(0.00493569 0.0237499 -8.12513e-28)
(0.00582493 0.0224054 0)
(0.00615618 0.02118 0)
(0.00603003 0.0201137 0)
(0.00554307 0.0192338 7.43819e-28)
(0.00478561 0.0185577 1.51657e-42)
(0.00384036 0.0180954 -5.3951e-28)
(0.00278184 0.0178508 -2.02801e-28)
(0.00167628 0.017823 2.80691e-42)
(0.000581824 0.0180072 4.47584e-29)
(-0.000451068 0.0183944 4.31665e-29)
(-0.00137919 0.0189721 1.15664e-41)
(-0.0021662 0.0197237 -2.2862e-28)
(-0.00278227 0.0206288 3.22702e-28)
(-0.00320384 0.0216629 1.91356e-41)
(-0.00341344 0.0227978 -5.04677e-28)
(-0.00339962 0.0240015 0)
(-0.00315687 0.0252387 0)
(-0.0026856 0.0264715 0)
(-0.00199212 0.0276598 0)
(-0.00108861 0.0287625 0)
(6.9201e-06 0.0297382 -1.75528e-27)
(0.00127082 0.0305463 -1.13311e-41)
(0.00267393 0.0311484 1.8014e-27)
(0.00418198 0.0315094 0)
(0.00575602 0.0315992 0)
(0.0073532 0.0313934 0)
(0.00892762 0.0308753 0)
(0.0104316 0.0300367 0)
(0.0118172 0.0288789 0)
(0.0130378 0.0274134 0)
(0.01405 0.0256619 0)
(0.0148155 0.0236561 0)
(0.0153023 0.0214362 0)
(0.0154859 0.0190491 0)
(0.0153482 0.0165455 0)
(0.0148757 0.013976 0)
(0.0140529 0.0113861 0)
(0.0128529 0.00880904 0)
(0.0112213 0.00625591 -5.00718e-28)
(0.00906332 0.0037066 2.71094e-41)
(0.00634231 0.00119352 4.39884e-28)
(0.0036323 -0.000787875 0)
(0.00220101 -0.0015413 0)
(1.28064 0.550095 0)
(1.30643 0.433957 0)
(1.34093 0.29604 4.07632e-28)
(1.37734 0.13485 2.28511e-41)
(1.40458 -0.0481232 -3.5463e-27)
(1.41134 -0.247353 0)
(1.38814 -0.45347 0)
(1.32921 -0.654463 0)
(1.23348 -0.837529 0)
(1.10458 -0.991046 0)
(0.950079 -1.10621 0)
(0.780112 -1.17808 0)
(0.605784 -1.20586 0)
(0.437697 -1.19255 0)
(0.284773 -1.14418 0)
(0.153517 -1.06868 0)
(0.0477263 -0.974766 0)
(-0.0314173 -0.871021 0)
(-0.084974 -0.765081 0)
(-0.115712 -0.663173 0)
(-0.127519 -0.56988 5.45771e-26)
(-0.124838 -0.488128 -1.10875e-39)
(-0.112188 -0.41932 -3.82307e-26)
(-0.0937808 -0.363581 0)
(-0.0732637 -0.320045 0)
(-0.0535586 -0.287153 4.38661e-27)
(-0.0367973 -0.26294 -4.9933e-41)
(-0.0243312 -0.245278 -3.77859e-28)
(-0.0167962 -0.232085 0)
(-0.014218 -0.221475 0)
(-0.0161402 -0.211868 0)
(-0.0217626 -0.202045 -2.43979e-27)
(-0.0300777 -0.191171 -4.95405e-41)
(-0.0399962 -0.178777 1.93186e-27)
(-0.0504534 -0.16472 0)
(-0.0604938 -0.149124 0)
(-0.06933 -0.132311 0)
(-0.0763767 -0.114731 0)
(-0.0812624 -0.0968933 -1.21425e-27)
(-0.0838215 -0.0793128 -1.89216e-41)
(-0.0840714 -0.0624611 2.44293e-27)
(-0.0821802 -0.0467346 -2.76625e-27)
(-0.0784281 -0.0324357 -2.18519e-41)
(-0.0731686 -0.0197649 2.895e-27)
(-0.0667909 -0.00882319 -2.75107e-27)
(-0.0596883 0.000377458 -2.87864e-42)
(-0.0522315 0.00789959 2.19459e-27)
(-0.0447497 0.0138626 0)
(-0.0375188 0.0184248 0)
(-0.030755 0.0217666 0)
(-0.0246148 0.0240761 0)
(-0.0191979 0.0255376 0)
(-0.0145544 0.0263229 -1.18684e-28)
(-0.0106924 0.0265861 1.32806e-28)
(-0.00758696 0.0264609 3.5156e-42)
(-0.00518924 0.0260599 -5.09175e-28)
(-0.003434 0.025476 -6.34965e-28)
(-0.00224672 0.0247843 0)
(-0.00154914 0.0240449 0)
(-0.00126344 0.0233056 0)
(-0.0013152 0.0226048 7.67911e-28)
(-0.0016352 0.0219734 1.63716e-42)
(-0.00216032 0.021437 -6.46271e-28)
(-0.00283379 0.0210164 -2.73387e-28)
(-0.00360497 0.0207289 8.15171e-43)
(-0.00442885 0.0205881 1.41155e-28)
(-0.00526544 0.0206039 -6.12018e-29)
(-0.00607919 0.0207824 7.33027e-42)
(-0.00683853 0.021125 -1.19292e-28)
(-0.00751542 0.0216283 2.16742e-28)
(-0.00808523 0.0222839 2.23348e-42)
(-0.00852657 0.023078 -4.17871e-28)
(-0.00882141 0.0239913 0)
(-0.00895517 0.0249994 0)
(-0.008917 0.0260732 0)
(-0.00869995 0.0271792 0)
(-0.00830133 0.0282804 0)
(-0.00772298 0.0293373 -1.87755e-27)
(-0.00697155 0.0303084 -3.70011e-41)
(-0.00605869 0.0311522 2.06359e-27)
(-0.00500126 0.0318278 0)
(-0.00382127 0.0322966 0)
(-0.00254582 0.0325236 0)
(-0.00120664 0.0324793 0)
(0.000160532 0.0321407 0)
(0.00151688 0.031493 0)
(0.0028218 0.0305306 0)
(0.0040344 0.0292581 0)
(0.0051152 0.0276899 0)
(0.00602772 0.0258504 0)
(0.00673979 0.0237722 0)
(0.00722398 0.0214935 0)
(0.00745653 0.0190537 0)
(0.00741359 0.0164871 0)
(0.00706322 0.0138124 0)
(0.00635055 0.0110167 -1.09396e-28)
(0.00517806 0.00804564 -5.20606e-42)
(0.00344208 0.00492636 1.9164e-28)
(0.00143702 0.00241218 0)
(0.000399977 0.00180869 0)
(1.37479 0.530892 0)
(1.39836 0.425111 0)
(1.43056 0.300316 1.24762e-28)
(1.46635 0.154534 -6.11486e-28)
(1.49661 -0.0119107 -3.26737e-27)
(1.51148 -0.195401 0)
(1.50193 -0.3889 0)
(1.46143 -0.582646 0)
(1.38715 -0.765493 0)
(1.28034 -0.926534 0)
(1.14598 -1.05664 0)
(0.99192 -1.14958 0)
(0.827577 -1.20262 0)
(0.662638 -1.21652 0)
(0.505904 -1.19501 0)
(0.364449 -1.14405 0)
(0.243153 -1.07088 0)
(0.144587 -0.983113 0)
(0.0691831 -0.887971 0)
(0.0156106 -0.791753 0)
(-0.0187597 -0.699482 6.39929e-26)
(-0.0373611 -0.614774 -1.09281e-26)
(-0.0439764 -0.539864 -5.03338e-26)
(-0.0423562 -0.475747 0)
(-0.0359284 -0.422389 0)
(-0.0275996 -0.378979 8.47962e-27)
(-0.0196439 -0.344173 -9.63139e-27)
(-0.013666 -0.316333 -3.82531e-27)
(-0.0106245 -0.293726 0)
(-0.0109002 -0.274691 1.37905e-26)
(-0.0143952 -0.257761 0)
(-0.0206484 -0.24174 -8.15103e-28)
(-0.0289569 -0.225744 2.46596e-27)
(-0.0384909 -0.209207 1.05884e-27)
(-0.0483969 -0.191856 0)
(-0.0578813 -0.173672 7.96709e-28)
(-0.0662724 -0.154831 0)
(-0.0730596 -0.135647 0)
(-0.0779116 -0.116507 -1.34014e-27)
(-0.0806747 -0.0978218 2.1357e-27)
(-0.0813572 -0.0799782 2.4671e-27)
(-0.0801029 -0.0633093 -2.9037e-27)
(-0.0771578 -0.0480715 1.97802e-27)
(-0.0728354 -0.0344354 3.10433e-27)
(-0.0674832 -0.0224859 -3.0351e-27)
(-0.061453 -0.0122289 9.87924e-28)
(-0.0550763 -0.00360433 2.60051e-27)
(-0.0486471 0.00349869 -2.59983e-28)
(-0.0424101 0.00922599 2.57898e-29)
(-0.0365554 0.0137429 1.65817e-28)
(-0.0312184 0.017221 2.83028e-28)
(-0.0264833 0.0198276 3.76365e-28)
(-0.0223894 0.0217176 7.59005e-28)
(-0.0189394 0.0230294 -1.24796e-27)
(-0.0161076 0.0238818 -1.033e-27)
(-0.0138489 0.0243746 -1.23838e-27)
(-0.0121058 0.0245893 -3.69444e-28)
(-0.0108149 0.0245921 3.03942e-29)
(-0.00991225 0.0244365 2.74581e-29)
(-0.00933675 0.0241662 0)
(-0.00903235 0.023818 7.15047e-28)
(-0.00894932 0.0234236 -4.37223e-28)
(-0.00904451 0.0230122 -6.63712e-28)
(-0.00928091 0.0226105 -3.02375e-28)
(-0.00962687 0.0222437 1.28612e-28)
(-0.010055 0.0219356 2.04802e-28)
(-0.0105413 0.0217077 -1.38571e-28)
(-0.0110638 0.0215792 -3.759e-28)
(-0.0116022 0.0215655 -2.35186e-29)
(-0.0121368 0.0216783 1.16926e-28)
(-0.0126486 0.021924 -6.55939e-28)
(-0.013119 0.0223038 -3.21274e-28)
(-0.0135296 0.0228133 0)
(-0.0138628 0.023442 -2.50611e-27)
(-0.0141017 0.0241736 0)
(-0.0142312 0.0249865 0)
(-0.0142379 0.0258536 0)
(-0.0141106 0.0267439 -1.89441e-27)
(-0.0138417 0.0276223 1.7586e-27)
(-0.0134269 0.0284514 2.20437e-27)
(-0.0128661 0.0291919 0)
(-0.012164 0.0298045 0)
(-0.0113302 0.0302509 0)
(-0.0103797 0.0304955 0)
(-0.00933256 0.0305068 0)
(-0.00821371 0.0302592 0)
(-0.00705216 0.0297343 0)
(-0.00588002 0.0289221 0)
(-0.00473112 0.027822 0)
(-0.00363949 0.0264425 0)
(-0.00263774 0.0248011 0)
(-0.00175588 0.0229213 0)
(-0.00102115 0.0208292 0)
(-0.000460017 0.0185455 0)
(-0.000104809 0.0160735 0)
(-9.23513e-06 0.0133794 3.19604e-28)
(-0.000277502 0.0103799 5.44464e-28)
(-0.00107832 0.00709092 -1.06277e-28)
(-0.0023355 0.00452205 0)
(-0.00291188 0.00501796 0)
(1.46178 0.513594 0)
(1.48351 0.416856 0)
(1.51377 0.303585 0)
(1.5488 0.171504 -1.49568e-41)
(1.58107 0.0201133 0)
(1.60202 -0.148393 0)
(1.60329 -0.328841 0)
(1.57814 -0.513424 0)
(1.52263 -0.692641 0)
(1.43623 -0.85659 0)
(1.32182 -0.996325 0)
(1.18517 -1.10499 0)
(1.03396 -1.17854 0)
(0.876692 -1.21597 0)
(0.721633 -1.21915 0)
(0.575934 -1.19224 0)
(0.445067 -1.14094 0)
(0.332555 -1.07175 0)
(0.239985 -0.991232 0)
(0.167228 -0.905397 0)
(0.11279 -0.819355 0)
(0.0742237 -0.737066 -7.61943e-40)
(0.0485363 -0.661286 0)
(0.0325585 -0.59362 0)
(0.0232418 -0.534672 0)
(0.0178792 -0.484234 3.66549e-26)
(0.0142478 -0.44151 -2.44055e-40)
(0.0106791 -0.405322 -2.20172e-26)
(0.00606797 -0.374311 -1.58937e-26)
(-0.00016648 -0.347101 2.74178e-40)
(-0.00815478 -0.322426 6.83982e-27)
(-0.0176734 -0.299222 0)
(-0.0282508 -0.276678 6.93176e-41)
(-0.0392724 -0.254257 0)
(-0.0500771 -0.231681 -6.58769e-28)
(-0.0600377 -0.208901 4.70753e-41)
(-0.0686221 -0.18605 1.35191e-27)
(-0.0754332 -0.163387 -4.5082e-29)
(-0.0802292 -0.141245 6.62152e-43)
(-0.0829247 -0.119978 7.858e-29)
(-0.0835776 -0.0999187 -9.25724e-29)
(-0.0823651 -0.0813477 -1.27811e-42)
(-0.0795536 -0.064473 1.0979e-28)
(-0.0754657 -0.0494199 0)
(-0.0704486 -0.0362318 0)
(-0.0648462 -0.024877 1.72446e-41)
(-0.0589763 -0.015262 -3.01529e-27)
(-0.0531144 -0.00724642 -1.41241e-27)
(-0.0474836 -0.00066005 1.1661e-27)
(-0.0422505 0.00468204 -1.4941e-42)