/*--------------------------------*- C++ -*----------------------------------*\
  =========                 |
  \\      /  F ield         | OpenFOAM: The Open Source CFD Toolbox
   \\    /   O peration     | Website:  https://openfoam.org
    \\  /    A nd           | Version:  8
     \\/     M anipulation  |
\*---------------------------------------------------------------------------*/
FoamFile
{
    version     2.0;
    format      ascii;
    class       volScalarField;
    location    "13";
    object      p;
}
// * * * * * * * * * * * * * * * * * * * * * * * * * * * * * * * * * * * * * //

dimensions      [0 2 -2 0 0 0 0];

internalField   nonuniform List<scalar> 
277560
(
-0.0113022
0.00303125
0.00395224
0.00711055
0.0100061
0.0128411
0.0156363
0.0183894
0.0211069
0.023793
0.0264513
0.0290842
0.0316938
0.0342807
0.0368458
0.0393883
0.0419077
0.0444025
0.0468713
0.0493116
0.0517213
0.0540976
0.056438
0.0587392
0.0609986
0.0632129
0.0653793
0.0674949
0.069557
0.0715629
0.0735101
0.0753966
0.0772199
0.0789791
0.080672
0.0822983
0.0838563
0.0853464
0.0867677
0.0881212
0.0894066
0.0906255
0.0917785
0.0928675
0.093894
0.0948603
0.0957683
0.0966208
0.0974204
0.09817
0.0988724
0.099531
0.100149
0.10073
0.101277
0.101794
0.102284
0.102751
0.103196
0.103625
0.104039
0.104442
0.104836
0.105224
0.105609
0.105993
0.106378
0.106767
0.107162
0.107564
0.107975
0.108397
0.108832
0.10928
0.109744
0.110223
0.11072
0.111235
0.11177
0.112324
0.112898
0.113494
0.114111
0.11475
0.115411
0.116096
0.116803
0.117534
0.118289
0.119067
0.119869
0.120695
0.121545
0.12242
0.123319
0.124242
0.12519
0.126162
0.12716
0.128181
0.129227
0.130298
0.131394
0.132514
0.13366
0.13483
0.136025
0.137246
0.138492
0.139763
0.14106
0.142382
0.143731
0.145105
0.146505
0.147934
0.149401
0.150871
0.152207
0.15357
-0.0103427
0.00221143
0.00407454
0.0070728
0.00998801
0.0128226
0.0156141
0.0183638
0.0210776
0.0237599
0.0264143
0.0290435
0.0316493
0.0342326
0.0367939
0.0393329
0.0418489
0.0443404
0.0468058
0.0492429
0.0516495
0.0540229
0.0563602
0.0586587
0.0609153
0.063127
0.0652909
0.067404
0.0694637
0.0714673
0.0734124
0.0752965
0.0771181
0.0788749
0.0805661
0.0821901
0.0837466
0.0852346
0.0866544
0.0880058
0.0892898
0.0905067
0.0916583
0.0927454
0.0937704
0.0947348
0.0956415
0.0964922
0.0972903
0.0980381
0.0987392
0.0993959
0.100012
0.100591
0.101137
0.101653
0.102141
0.102606
0.103051
0.103478
0.103891
0.104292
0.104685
0.105071
0.105455
0.105837
0.106222
0.106609
0.107003
0.107404
0.107814
0.108235
0.108669
0.109116
0.109579
0.110058
0.110554
0.111068
0.111602
0.112155
0.112729
0.113324
0.113941
0.114579
0.11524
0.115924
0.116631
0.117361
0.118115
0.118892
0.119694
0.12052
0.12137
0.122244
0.123142
0.124065
0.125013
0.125984
0.126981
0.128001
0.129047
0.130117
0.131212
0.132331
0.133475
0.134644
0.135839
0.137058
0.138302
0.139571
0.140866
0.142187
0.143533
0.144904
0.146301
0.147727
0.14919
0.150653
0.151982
0.153344
-0.0102343
0.00202971
0.00410024
0.00704174
0.00996239
0.012792
0.0155771
0.0183204
0.0210275
0.0237032
0.026351
0.0289735
0.0315727
0.0341496
0.0367046
0.0392374
0.0417473
0.0442329
0.0466925
0.049124
0.0515251
0.0538932
0.0562254
0.0585188
0.0607706
0.0629776
0.0651369
0.0672456
0.069301
0.0713004
0.0732415
0.0751218
0.0769395
0.0786926
0.0803802
0.0820006
0.0835537
0.0850382
0.0864548
0.0878029
0.0890836
0.0902974
0.0914458
0.0925299
0.0935519
0.0945133
0.0954169
0.0962647
0.0970599
0.0978049
0.098503
0.099157
0.0997706
0.100347
0.10089
0.101403
0.101889
0.102352
0.102794
0.103218
0.103629
0.104028
0.104419
0.104803
0.105185
0.105566
0.105949
0.106335
0.106727
0.107127
0.107536
0.107956
0.108389
0.108836
0.109298
0.109776
0.110272
0.110786
0.11132
0.111873
0.112447
0.113042
0.113658
0.114297
0.114958
0.115643
0.11635
0.117081
0.117836
0.118614
0.119417
0.120243
0.121094
0.121969
0.122868
0.123793
0.124741
0.125714
0.126711
0.127733
0.128779
0.129851
0.130946
0.132067
0.133213
0.134383
0.135578
0.136798
0.138043
0.139313
0.140608
0.141929
0.143275
0.144647
0.146043
0.147469
0.148931
0.150393
0.151718
0.153078
-0.0102691
0.00201392
0.00408964
0.00700831
0.00992597
0.0127461
0.0155216
0.0182551
0.0209524
0.0236181
0.0262561
0.0288689
0.0314584
0.0340258
0.0365714
0.039095
0.0415959
0.0440727
0.0465238
0.048947
0.05134
0.0537002
0.0560248
0.0583108
0.0605554
0.0627554
0.0649079
0.0670101
0.069059
0.0710523
0.0729873
0.0748618
0.0766737
0.0784215
0.0801035
0.0817189
0.0832665
0.0847462
0.0861576
0.0875011
0.0887768
0.0899861
0.0911296
0.0922094
0.0932266
0.0941837
0.0950826
0.0959263
0.0967168
0.0974577
0.0981513
0.0988014
0.0994105
0.099983
0.100522
0.101031
0.101513
0.101971
0.102409
0.102831
0.103237
0.103633
0.10402
0.104402
0.104781
0.105159
0.105539
0.105923
0.106312
0.10671
0.107117
0.107536
0.107967
0.108412
0.108873
0.10935
0.109845
0.110358
0.11089
0.111443
0.112016
0.112611
0.113227
0.113866
0.114527
0.115211
0.115919
0.11665
0.117404
0.118183
0.118986
0.119813
0.120664
0.12154
0.122439
0.123364
0.124313
0.125286
0.126284
0.127307
0.128354
0.129426
0.130522
0.131644
0.132789
0.13396
0.135156
0.136376
0.137621
0.138892
0.140187
0.141509
0.142855
0.144226
0.145623
0.147049
0.148511
0.149973
0.151297
0.152654
-0.0102853
0.00202807
0.00406403
0.00697137
0.00987876
0.0126856
0.0154482
0.0181686
0.0208527
0.0235054
0.0261304
0.0287303
0.0313072
0.0338621
0.0363954
0.038907
0.0413961
0.0438614
0.0463012
0.0487135
0.0510959
0.0534458
0.0557603
0.0580366
0.0602717
0.0624625
0.0646062
0.0666997
0.0687403
0.0707254
0.0726525
0.0745194
0.0763239
0.0780645
0.0797393
0.0813478
0.0828886
0.0843618
0.0857666
0.0871038
0.0883733
0.0895764
0.0907139
0.0917876
0.0927989
0.0937502
0.0946433
0.0954811
0.096266
0.0970011
0.0976891
0.0983335
0.0989372
0.0995041
0.100038
0.100541
0.101018
0.101472
0.101905
0.102321
0.102723
0.103115
0.103498
0.103875
0.10425
0.104625
0.105001
0.105382
0.105769
0.106164
0.106568
0.106985
0.107414
0.107858
0.108317
0.108793
0.109286
0.109799
0.110331
0.110883
0.111456
0.11205
0.112666
0.113305
0.113967
0.114652
0.11536
0.116092
0.116847
0.117627
0.118431
0.119259
0.120112
0.120989
0.121891
0.122816
0.123767
0.124742
0.125743
0.126767
0.127816
0.12889
0.129989
0.131112
0.132261
0.133433
0.134632
0.135854
0.137102
0.138375
0.139673
0.140996
0.142345
0.143719
0.145118
0.146546
0.148011
0.149474
0.1508
0.152156
-0.0102977
0.00206098
0.00403032
0.00693062
0.00982143
0.0126114
0.0153576
0.0180617
0.0207295
0.0233661
0.025975
0.0285591
0.0311203
0.0336597
0.0361779
0.0386747
0.0411493
0.0436005
0.0460265
0.0484253
0.0507946
0.0531318
0.0554339
0.0576982
0.0599216
0.0621012
0.0642339
0.0663168
0.068347
0.0703221
0.0722394
0.0740968
0.0758923
0.0776236
0.0792901
0.0808897
0.0824225
0.0838871
0.0852843
0.0866132
0.0878754
0.0890705
0.0902008
0.0912667
0.0922709
0.0932145
0.0941007
0.094931
0.095709
0.0964367
0.097118
0.097755
0.0983522
0.0989119
0.0994389
0.0999356
0.100406
0.100853
0.10128
0.10169
0.102087
0.102473
0.102851
0.103223
0.103593
0.103963
0.104336
0.104712
0.105096
0.105487
0.105889
0.106302
0.10673
0.107171
0.107629
0.108103
0.108595
0.109106
0.109638
0.110189
0.110762
0.111356
0.111972
0.112611
0.113273
0.113958
0.114667
0.1154
0.116157
0.116937
0.117743
0.118572
0.119427
0.120305
0.121209
0.122137
0.12309
0.124067
0.12507
0.126096
0.127148
0.128225
0.129326
0.130452
0.131604
0.132779
0.13398
0.135206
0.136457
0.137733
0.139034
0.140361
0.141713
0.14309
0.144493
0.145924
0.147393
0.14886
0.150188
0.151545
-0.0103136
0.00210864
0.00399107
0.0068854
0.00975424
0.0125237
0.0152502
0.0179347
0.0205832
0.0232005
0.0257904
0.0283557
0.0308983
0.0334195
0.0359198
0.038399
0.0408565
0.0432909
0.0457006
0.0480835
0.0504373
0.0527594
0.0550469
0.057297
0.0595066
0.0616727
0.0637924
0.0658627
0.0678807
0.0698438
0.0717496
0.0735957
0.0753801
0.0771011
0.0787569
0.0803466
0.0818692
0.0833244
0.0847116
0.0860315
0.087284
0.0884703
0.0895912
0.0906485
0.0916435
0.0925786
0.0934557
0.0942777
0.0950467
0.0957663
0.0964387
0.0970677
0.0976561
0.098208
0.0987264
0.0992155
0.0996778
0.100117
0.100537
0.10094
0.101329
0.101709
0.10208
0.102447
0.102811
0.103176
0.103543
0.103915
0.104294
0.104682
0.105081
0.105491
0.105915
0.106355
0.10681
0.107283
0.107773
0.108283
0.108813
0.109364
0.109936
0.11053
0.111146
0.111786
0.112448
0.113134
0.113844
0.114578
0.115336
0.116119
0.116925
0.117757
0.118614
0.119495
0.120401
0.121332
0.122288
0.123269
0.124274
0.125305
0.12636
0.127441
0.128547
0.129677
0.130833
0.132013
0.133219
0.13445
0.135705
0.136987
0.138293
0.139625
0.140982
0.142366
0.143774
0.145211
0.146685
0.14816
0.14949
0.15085
-0.0103303
0.00216536
0.00394731
0.00683532
0.0096774
0.0124229
0.0151265
0.0177882
0.0204142
0.0230093
0.0255772
0.0281207
0.0306419
0.0331421
0.0356217
0.0380808
0.0405184
0.0429336
0.0453245
0.0476891
0.050025
0.0523297
0.0546004
0.056834
0.0590277
0.0611784
0.063283
0.0653387
0.0673425
0.0692919
0.0711842
0.0730173
0.074789
0.0764976
0.0781414
0.0797194
0.0812303
0.0826742
0.0840503
0.0853591
0.0866008
0.0877764
0.0888867
0.0899335
0.0909182
0.091843
0.0927098
0.0935216
0.0942806
0.09499
0.0956525
0.0962715
0.0968502
0.0973922
0.0979012
0.0983807
0.0988339
0.0992643
0.0996751
0.10007
0.100451
0.100822
0.101186
0.101546
0.101904
0.102262
0.102624
0.102991
0.103365
0.103748
0.104143
0.10455
0.10497
0.105406
0.105859
0.106329
0.106818
0.107326
0.107855
0.108405
0.108976
0.109569
0.110186
0.110825
0.111488
0.112175
0.112886
0.113621
0.114381
0.115165
0.115975
0.116809
0.117668
0.118553
0.119462
0.120397
0.121357
0.122342
0.123352
0.124387
0.125448
0.126533
0.127644
0.12878
0.129941
0.131127
0.132339
0.133576
0.134839
0.136126
0.13744
0.138778
0.140143
0.141533
0.142949
0.144394
0.145876
0.147357
0.148694
0.150057
-0.0103454
0.00222671
0.00389917
0.00677986
0.00959084
0.0123092
0.0149864
0.0176222
0.0202227
0.0227926
0.0253357
0.0278546
0.0303516
0.032828
0.0352843
0.0377205
0.0401359
0.0425292
0.0448988
0.0472427
0.0495585
0.0518436
0.0540952
0.0563103
0.058486
0.0606191
0.0627067
0.0647459
0.0667336
0.0686674
0.0705445
0.0723627
0.0741199
0.0758144
0.0774446
0.079009
0.0805069
0.0819376
0.0833011
0.0845972
0.0858266
0.0869898
0.0880881
0.0891227
0.0900956
0.0910083
0.0918636
0.0926634
0.0934109
0.0941084
0.0947596
0.095367
0.0959345
0.0964651
0.0969632
0.0974315
0.0978742
0.0982939
0.0986948
0.0990793
0.0994513
0.0998133
0.100169
0.10052
0.100871
0.101222
0.101577
0.101937
0.102306
0.102684
0.103073
0.103475
0.103892
0.104324
0.104774
0.10524
0.105727
0.106233
0.10676
0.107308
0.107878
0.108471
0.109087
0.109727
0.110391
0.111078
0.111791
0.112528
0.11329
0.114077
0.11489
0.115727
0.116591
0.117479
0.118393
0.119332
0.120297
0.121287
0.122303
0.123344
0.124412
0.125503
0.126621
0.127764
0.128933
0.130127
0.131347
0.132591
0.133862
0.135158
0.136481
0.137828
0.139202
0.140601
0.142027
0.143481
0.144974
0.146465
0.147809
0.149177
-0.0103576
0.00228978
0.00384652
0.00671851
0.00949446
0.0121825
0.0148303
0.0174371
0.0200092
0.022551
0.0250663
0.0275578
0.0300279
0.0324777
0.0349081
0.0373189
0.0397094
0.0420785
0.0444245
0.0467453
0.0490387
0.0513019
0.0535322
0.0557266
0.0578822
0.0599958
0.0620644
0.064085
0.0660549
0.0679711
0.0698312
0.0716327
0.0733738
0.0750524
0.0766671
0.0782164
0.0796995
0.0811155
0.0824646
0.0837465
0.0849619
0.0861111
0.0871957
0.0882167
0.0891759
0.0900752
0.090917
0.0917035
0.0924376
0.093122
0.09376
0.0943544
0.0949088
0.0954266
0.0959118
0.0963677
0.096798
0.0972058
0.0975948
0.0979682
0.0983292
0.0986809
0.0990264
0.0993684
0.0997096
0.100053
0.1004
0.100753
0.101114
0.101486
0.101869
0.102266
0.102677
0.103105
0.10355
0.104014
0.104497
0.105
0.105525
0.106072
0.106641
0.107233
0.107849
0.10849
0.109154
0.109844
0.110558
0.111297
0.112062
0.112853
0.113669
0.114511
0.115378
0.116272
0.117191
0.118136
0.119107
0.120104
0.121127
0.122176
0.12325
0.12435
0.125476
0.126628
0.127805
0.129008
0.130237
0.131492
0.132773
0.13408
0.135412
0.136771
0.138155
0.139566
0.141003
0.14247
0.143974
0.145478
0.14683
0.148206
-0.0103659
0.00235272
0.00378913
0.00665078
0.00938798
0.0120427
0.0146581
0.017233
0.0197737
0.0222846
0.0247693
0.0272306
0.029671
0.0320917
0.0344935
0.0368763
0.0392395
0.041582
0.0439019
0.0461974
0.0484661
0.0507052
0.0529121
0.0550838
0.0572171
0.0593092
0.0613568
0.063357
0.0653069
0.0672038
0.069045
0.0708282
0.0725512
0.0742123
0.0758097
0.0773422
0.0788086
0.0802085
0.0815413
0.0828075
0.084007
0.0851409
0.0862099
0.0872156
0.0881595
0.0890437
0.0898702
0.0906418
0.0913607
0.0920304
0.0926533
0.0932331
0.0937726
0.0942759
0.0947464
0.0951883
0.0956043
0.0959986
0.0963741
0.0967347
0.097083
0.0974229
0.0977567
0.098088
0.0984188
0.0987522
0.0990898
0.0994345
0.0997876
0.100152
0.100528
0.100918
0.101324
0.101746
0.102187
0.102646
0.103126
0.103627
0.104149
0.104694
0.105262
0.105854
0.10647
0.107111
0.107776
0.108468
0.109184
0.109927
0.110695
0.11149
0.11231
0.113157
0.11403
0.11493
0.115855
0.116807
0.117785
0.118791
0.119821
0.120879
0.121962
0.123072
0.124207
0.12537
0.126557
0.127772
0.129012
0.130279
0.131571
0.132891
0.134235
0.135607
0.137005
0.13843
0.13988
0.141361
0.142879
0.144398
0.145761
0.147145
-0.0103697
0.00241435
0.00372689
0.00657638
0.00927126
0.0118899
0.0144698
0.0170098
0.0195163
0.0219935
0.0244449
0.0268734
0.0292814
0.0316704
0.034041
0.0363934
0.0387269
0.0410402
0.0433319
0.0455997
0.0478414
0.0500543
0.0522356
0.0543823
0.0564915
0.0585599
0.0605845
0.0625624
0.0644906
0.0663662
0.0681867
0.0699496
0.0716529
0.0732945
0.0748729
0.0763868
0.077835
0.0792168
0.0805318
0.0817803
0.0829624
0.084079
0.0851308
0.0861194
0.0870463
0.0879136
0.0887232
0.0894779
0.09018
0.0908328
0.091439
0.0920021
0.0925251
0.0930119
0.0934661
0.0938917
0.0942919
0.0946705
0.0950309
0.0953765
0.0957108
0.0960369
0.0963579
0.0966766
0.0969957
0.0973178
0.097645
0.0979796
0.0983236
0.0986789
0.0990472
0.09943
0.0998291
0.100245
0.100681
0.101135
0.101611
0.102108
0.102628
0.103171
0.103738
0.10433
0.104946
0.105587
0.106255
0.106948
0.107667
0.108413
0.109185
0.109984
0.11081
0.111663
0.112542
0.113448
0.114382
0.115342
0.116329
0.117343
0.118383
0.11945
0.120545
0.121665
0.122813
0.123986
0.125187
0.126414
0.127667
0.128947
0.130254
0.131587
0.132947
0.134334
0.135747
0.137187
0.138654
0.14015
0.141687
0.143222
0.144598
0.145991
-0.0103683
0.00247385
0.00365969
0.00649514
0.00914422
0.0117239
0.0142654
0.0167677
0.0192372
0.021678
0.0240933
0.0264863
0.0288593
0.031214
0.033551
0.0358705
0.0381718
0.0404538
0.0427147
0.0449526
0.0471652
0.0493496
0.0515032
0.053623
0.0557058
0.0577486
0.0597483
0.0617018
0.0636062
0.0654587
0.0672566
0.0689974
0.070679
0.0722995
0.0738572
0.0753506
0.0767787
0.0781406
0.0794361
0.0806651
0.081828
0.0829254
0.0839583
0.0849279
0.0858361
0.0866844
0.0874754
0.0882111
0.0888947
0.0895286
0.0901163
0.0906606
0.0911652
0.0916333
0.0920693
0.0924764
0.0928588
0.0932196
0.0935629
0.0938917
0.0942101
0.0945207
0.0948273
0.0951318
0.0954378
0.095747
0.0960625
0.0963856
0.0967193
0.0970646
0.097424
0.0977984
0.09819
0.0985994
0.0990287
0.099478
0.0999495
0.100443
0.10096
0.101501
0.102066
0.102657
0.103273
0.103916
0.104585
0.10528
0.106003
0.106752
0.107529
0.108333
0.109165
0.110024
0.110911
0.111825
0.112767
0.113736
0.114733
0.115757
0.116809
0.117887
0.118994
0.120127
0.121288
0.122475
0.12369
0.124931
0.1262
0.127495
0.128818
0.130168
0.131545
0.132949
0.13438
0.135838
0.137323
0.138838
0.140394
0.141949
0.143341
0.144744
-0.0103616
0.00253064
0.00358748
0.00640694
0.00900686
0.0115449
0.014045
0.0165067
0.0189365
0.0213381
0.0237148
0.0260696
0.0284051
0.0307229
0.0330239
0.0353081
0.0375748
0.0398231
0.0420511
0.0442568
0.0464379
0.0485918
0.0507155
0.0528062
0.0548606
0.0568758
0.0588485
0.0607757
0.0626545
0.0644819
0.0662552
0.0679721
0.0696302
0.0712276
0.0727626
0.0742337
0.0756399
0.0769802
0.0782543
0.0794619
0.0806038
0.0816801
0.0826922
0.0836409
0.0845283
0.0853558
0.086126
0.086841
0.0875038
0.088117
0.0886839
0.0892074
0.0896913
0.0901387
0.090554
0.0909406
0.0913027
0.0916438
0.0919677
0.0922781
0.0925786
0.0928722
0.0931622
0.0934513
0.0937422
0.0940373
0.0943392
0.0946499
0.0949715
0.0953059
0.0956548
0.09602
0.0964028
0.0968047
0.0972269
0.0976705
0.0981365
0.0986259
0.0991393
0.0996777
0.100241
0.100831
0.101448
0.102091
0.102762
0.10346
0.104185
0.104939
0.105721
0.106531
0.107369
0.108236
0.109131
0.110054
0.111005
0.111985
0.112993
0.114029
0.115092
0.116184
0.117304
0.118451
0.119627
0.12083
0.12206
0.123319
0.124604
0.125918
0.127258
0.128627
0.130023
0.131447
0.132898
0.134376
0.135882
0.13742
0.138997
0.140575
0.141983
0.1434
-0.0103492
0.00258428
0.0035102
0.00631173
0.00885919
0.0113529
0.0138087
0.016227
0.0186143
0.0209741
0.0233095
0.0256235
0.027919
0.0301975
0.03246
0.0347064
0.0369364
0.0391485
0.0413413
0.0435127
0.0456602
0.0477813
0.049873
0.0519325
0.0539565
0.0559419
0.0578856
0.0597846
0.0616357
0.0634361
0.065183
0.0668739
0.0685066
0.0700791
0.0715895
0.0730365
0.0744187
0.0757355
0.0769861
0.0781707
0.0792894
0.0803429
0.0813319
0.082258
0.0831224
0.0839272
0.0846744
0.0853667
0.0860063
0.0865967
0.0871404
0.0876411
0.0881016
0.0885262
0.0889182
0.0892822
0.0896215
0.0899407
0.0902433
0.0905333
0.0908139
0.0910887
0.0913602
0.091632
0.091906
0.0921854
0.092472
0.0927687
0.0930767
0.0933989
0.0937361
0.0940908
0.0944636
0.094857
0.095271
0.0957079
0.0961678
0.0966524
0.0971616
0.0976971
0.0982586
0.0988476
0.0994635
0.100108
0.10078
0.101481
0.10221
0.102969
0.103756
0.104572
0.105417
0.106292
0.107196
0.108129
0.109091
0.110082
0.111101
0.112151
0.113228
0.114334
0.115469
0.116633
0.117824
0.119045
0.120293
0.12157
0.122875
0.124208
0.125569
0.126959
0.128376
0.129822
0.131296
0.132798
0.134327
0.135889
0.137492
0.139095
0.140523
0.141955
-0.0103309
0.00263442
0.00342785
0.00620943
0.00870127
0.011148
0.0135568
0.0159288
0.0182707
0.020586
0.0228776
0.0251484
0.0274013
0.0296381
0.0318597
0.0340661
0.0362568
0.0384307
0.040586
0.0427207
0.0448325
0.0469186
0.0489762
0.0510024
0.0529938
0.0549475
0.0568602
0.0587288
0.0605503
0.0623216
0.0640401
0.0657032
0.0673086
0.0688541
0.070338
0.0717588
0.0731152
0.0744064
0.0756317
0.0767911
0.0778847
0.0789132
0.0798772
0.0807783
0.0816177
0.0823976
0.0831197
0.0837868
0.0844013
0.0849662
0.0854845
0.0859597
0.0863948
0.0867937
0.0871601
0.0874986
0.0878131
0.0881081
0.0883873
0.0886546
0.0889134
0.089167
0.0894184
0.0896705
0.0899261
0.0901876
0.0904575
0.090738
0.0910313
0.0913392
0.0916635
0.0920059
0.0923679
0.0927509
0.0931563
0.093585
0.0940381
0.0945166
0.0950213
0.0955528
0.096112
0.0966991
0.0973148
0.0979594
0.0986333
0.0993366
0.10007
0.100833
0.101626
0.102449
0.103302
0.104185
0.105099
0.106042
0.107015
0.108019
0.109052
0.110115
0.111208
0.11233
0.113481
0.114662
0.115873
0.117112
0.11838
0.119677
0.121004
0.122359
0.123743
0.125156
0.126598
0.128068
0.129567
0.131095
0.132651
0.13424
0.135872
0.137502
0.138953
0.140401
-0.0103064
0.0026808
0.00334039
0.00610004
0.00853309
0.0109303
0.0132892
0.0156123
0.0179061
0.0201742
0.0224192
0.0246443
0.0268523
0.029045
0.0312233
0.0333875
0.0355367
0.03767
0.0397856
0.0418815
0.0439553
0.0460043
0.0480256
0.0500163
0.0519732
0.053893
0.0557726
0.0576088
0.0593986
0.0611389
0.062827
0.0644602
0.0660362
0.0675528
0.0690082
0.0704008
0.0717293
0.0729928
0.0741908
0.0753229
0.0763893
0.0773905
0.0783275
0.0792014
0.0800136
0.080766
0.0814609
0.0821003
0.0826872
0.0832242
0.0837147
0.0841616
0.0845687
0.084939
0.0852774
0.0855877
0.0858752
0.0861435
0.0863972
0.0866394
0.0868742
0.0871043
0.0873334
0.0875637
0.0877987
0.0880402
0.0882914
0.0885539
0.0888304
0.0891222
0.089432
0.0897605
0.0901101
0.0904814
0.0908766
0.0912959
0.0917412
0.0922125
0.0927117
0.0932385
0.0937944
0.0943791
0.094994
0.0956385
0.0963139
0.0970195
0.0977564
0.0985239
0.099323
0.100153
0.101014
0.101906
0.10283
0.103785
0.104771
0.105787
0.106835
0.107913
0.109022
0.110162
0.111332
0.112532
0.113762
0.115022
0.116313
0.117632
0.118982
0.120361
0.121771
0.123209
0.124678
0.126175
0.127703
0.129259
0.130845
0.132464
0.134128
0.135789
0.137264
0.138732
-0.0102758
0.0027232
0.00324787
0.00598353
0.00835476
0.0107
0.0130063
0.0152777
0.0175207
0.0197389
0.0219349
0.0241118
0.0262724
0.0284187
0.0305515
0.032671
0.0347765
0.0368669
0.0389406
0.0409954
0.0430291
0.0450388
0.0470217
0.0489748
0.0508949
0.0527788
0.0546232
0.056425
0.058181
0.0598883
0.0615439
0.0631451
0.0646897
0.0661752
0.0676
0.0689624
0.0702609
0.0714947
0.0726631
0.0737657
0.0748027
0.0757745
0.0766821
0.0775264
0.0783091
0.0790318
0.0796967
0.0803061
0.0808628
0.0813693
0.0818291
0.0822451
0.0826211
0.0829604
0.0832677
0.0835476
0.0838052
0.0840446
0.08427
0.0844848
0.0846929
0.0848973
0.0851013
0.0853077
0.0855195
0.085739
0.085969
0.0862116
0.086469
0.0867431
0.0870359
0.087349
0.0876841
0.0880425
0.0884254
0.0888342
0.0892698
0.0897333
0.0902253
0.0907467
0.091298
0.09188
0.0924928
0.0931371
0.093813
0.0945209
0.0952609
0.0960333
0.0968379
0.0976751
0.0985446
0.0994466
0.100381
0.101348
0.102346
0.103377
0.10444
0.105535
0.106661
0.10782
0.109009
0.11023
0.111482
0.112765
0.114079
0.115424
0.116799
0.118205
0.119641
0.121109
0.122606
0.124134
0.125692
0.127281
0.128898
0.130551
0.132249
0.133946
0.135448
0.136939
-0.0102389
0.00276143
0.0031503
0.00585991
0.0081663
0.0104572
0.0127082
0.0149253
0.0171148
0.0192804
0.0214248
0.0235511
0.025662
0.0277595
0.0298445
0.0319171
0.0339766
0.036022
0.0380515
0.0400631
0.0420544
0.0440226
0.045965
0.0478784
0.0497596
0.0516054
0.0534125
0.0551778
0.0568979
0.05857
0.060191
0.0617582
0.0632691
0.0647217
0.0661137
0.0674436
0.06871
0.0699118
0.0710483
0.0721192
0.0731244
0.0740647
0.0749403
0.0757528
0.0765032
0.0771938
0.077826
0.0784029
0.0789263
0.0793999
0.0798259
0.0802084
0.0805501
0.0808556
0.0811288
0.0813758
0.0816007
0.0818086
0.0820027
0.0821877
0.0823661
0.0825423
0.0827184
0.0828984
0.0830842
0.0832794
0.0834855
0.0837058
0.0839416
0.0841959
0.0844695
0.0847652
0.0850835
0.085427
0.085796
0.0861925
0.0866168
0.0870708
0.0875542
0.0880689
0.0886144
0.0891924
0.0898023
0.0904455
0.0911212
0.0918309
0.0925735
0.0933504
0.0941604
0.0950048
0.0958825
0.0967944
0.0977395
0.0987188
0.099731
0.100777
0.101856
0.102968
0.104113
0.105292
0.106502
0.107745
0.10902
0.110328
0.111667
0.113039
0.114441
0.115877
0.117343
0.118841
0.12037
0.121931
0.123523
0.125146
0.126799
0.128489
0.130225
0.131961
0.133493
0.135007
-0.0101955
0.00279531
0.00304774
0.00572918
0.0079678
0.0102019
0.0123951
0.0145552
0.0166887
0.0187991
0.0208894
0.0229627
0.0250216
0.0270681
0.029103
0.0311264
0.0331377
0.0351357
0.0371188
0.039085
0.0410318
0.0429564
0.044856
0.0467275
0.0485677
0.0503733
0.052141
0.0538675
0.0555497
0.0571844
0.0587686
0.0602996
0.0617749
0.063192
0.0645491
0.0658444
0.0670763
0.0682439
0.0693462
0.070383
0.0713542
0.0722601
0.0731015
0.0738794
0.0745953
0.0752507
0.0758479
0.0763891
0.0768769
0.077314
0.0777038
0.0780491
0.0783539
0.078622
0.0788589
0.0790695
0.0792593
0.0794322
0.0795927
0.0797442
0.0798906
0.0800349
0.0801809
0.080331
0.0804886
0.0806559
0.080836
0.0810307
0.0812429
0.081474
0.0817266
0.0820017
0.0823018
0.0826274
0.0829808
0.0833625
0.0837741
0.084216
0.0846898
0.0851955
0.0857345
0.0863065
0.0869128
0.0875531
0.0882284
0.0889382
0.0896835
0.0904634
0.0912792
0.0921297
0.0930161
0.0939372
0.0948939
0.0958852
0.096912
0.097973
0.0990692
0.100199
0.101364
0.102563
0.103796
0.105062
0.106363
0.107696
0.109063
0.110463
0.111896
0.113361
0.11486
0.116391
0.117955
0.119551
0.12118
0.12284
0.124533
0.126262
0.12804
0.129817
0.131384
0.132923
-0.0101457
0.00282472
0.00294023
0.00559137
0.00775933
0.00993437
0.012067
0.0141678
0.0162426
0.0182953
0.0203291
0.022347
0.0243517
0.0263448
0.0283273
0.0302993
0.0322602
0.0342087
0.0361433
0.0380618
0.0399618
0.0418406
0.0436953
0.0455228
0.0473198
0.049083
0.050809
0.0524947
0.0541367
0.0557318
0.0572771
0.0587697
0.060207
0.0615866
0.0629065
0.0641648
0.0653599
0.0664908
0.0675566
0.0685568
0.0694913
0.0703605
0.071165
0.0719057
0.0725841
0.0732018
0.0737609
0.0742636
0.0747125
0.0751104
0.0754604
0.0757656
0.07603
0.076258
0.0764551
0.0766266
0.0767777
0.0769127
0.077036
0.0771511
0.0772619
0.0773716
0.0774837
0.0776011
0.0777269
0.0778637
0.0780143
0.0781809
0.078366
0.0785716
0.0787997
0.0790522
0.0793306
0.0796365
0.0799712
0.0803361
0.0807322
0.0811606
0.081622
0.0821174
0.0826473
0.0832123
0.0838128
0.0844495
0.0851223
0.0858318
0.0865779
0.0873609
0.0881808
0.0890378
0.0899315
0.0908622
0.0918296
0.0928338
0.0938743
0.0949514
0.0960645
0.0972138
0.0983986
0.0996194
0.100875
0.102167
0.103493
0.104854
0.10625
0.10768
0.109145
0.110644
0.112176
0.113744
0.115344
0.116979
0.118647
0.120348
0.122082
0.123855
0.125678
0.127501
0.129103
0.130672
-0.0100893
0.00284952
0.00282787
0.00544653
0.00754102
0.00965473
0.0117244
0.0137632
0.015777
0.0177695
0.0197444
0.0217047
0.0236527
0.0255903
0.0275182
0.0294366
0.0313448
0.0332416
0.0351254
0.036994
0.0388451
0.040676
0.0424836
0.0442648
0.0460163
0.0477349
0.0494172
0.0510597
0.0526593
0.0542127
0.0557167
0.0571686
0.0585657
0.0599054
0.0611857
0.0624047
0.0635607
0.0646524
0.0656791
0.0666402
0.0675355
0.0683652
0.06913
0.0698308
0.0704689
0.0710459
0.0715639
0.0720251
0.0724319
0.0727873
0.0730942
0.073356
0.0735766
0.0737612
0.0739151
0.0740441
0.074153
0.0742469
0.0743293
0.0744047
0.0744762
0.0745478
0.0746224
0.0747037
0.0747941
0.074897
0.0750146
0.0751498
0.0753044
0.0754813
0.0756818
0.0759084
0.0761621
0.0764453
0.0767586
0.077104
0.0774819
0.0778941
0.0783408
0.0788235
0.0793421
0.0798981
0.0804909
0.081122
0.0817908
0.0824984
0.083244
0.0840288
0.0848518
0.0857141
0.0866145
0.0875541
0.0885318
0.0895484
0.0906027
0.0916957
0.092826
0.0939946
0.0952
0.0964434
0.0977232
0.0990405
0.100394
0.101784
0.10321
0.104673
0.10617
0.107705
0.109273
0.110879
0.112518
0.114194
0.115904
0.117649
0.119428
0.121247
0.123118
0.12499
0.126631
0.128231
-0.0100264
0.00286958
0.00271073
0.00529468
0.00731294
0.00936311
0.0113673
0.0133418
0.015292
0.017222
0.0191358
0.0210361
0.0229253
0.0248051
0.0266763
0.0285388
0.0303921
0.032235
0.0340658
0.0358824
0.0376824
0.039463
0.0412213
0.042954
0.044658
0.0463297
0.0479659
0.0495631
0.051118
0.0526273
0.0540879
0.0554968
0.0568512
0.0581487
0.059387
0.0605641
0.0616785
0.0627286
0.0637136
0.0646328
0.0654861
0.0662737
0.066996
0.067654
0.0682487
0.068782
0.0692557
0.0696721
0.0700336
0.0703431
0.0706034
0.0708182
0.0709916
0.0711292
0.0712365
0.0713192
0.0713825
0.0714311
0.0714691
0.0715007
0.0715293
0.0715588
0.0715923
0.0716334
0.0716849
0.0717498
0.0718308
0.0719306
0.0720514
0.0721956
0.0723651
0.072562
0.072788
0.0730448
0.0733336
0.073656
0.0740131
0.0744058
0.0748353
0.0753022
0.0758074
0.0763513
0.0769345
0.0775574
0.0782205
0.0789237
0.0796676
0.080452
0.0812772
0.0821429
0.0830494
0.0839964
0.0849841
0.0860118
0.08708
0.0881879
0.0893359
0.0905231
0.09175
0.0930156
0.0943205
0.0956636
0.0970455
0.0984652
0.0999233
0.101419
0.102952
0.104522
0.10613
0.107774
0.109456
0.111174
0.112929
0.11472
0.116547
0.118415
0.120339
0.122262
0.123945
0.125578
-0.00995684
0.00288482
0.00258893
0.0051359
0.00707526
0.00905974
0.010996
0.0129038
0.0147881
0.0166535
0.0185038
0.020342
0.0221702
0.02399
0.0258021
0.0276066
0.0294029
0.0311896
0.0329653
0.0347277
0.0364743
0.0382025
0.0399092
0.0415913
0.0432454
0.0448681
0.0464559
0.0480055
0.0495134
0.0509763
0.052391
0.0537545
0.0550639
0.0563166
0.0575105
0.0586433
0.0597133
0.0607192
0.0616598
0.0625345
0.0633431
0.0640855
0.0647624
0.0653744
0.0659228
0.066409
0.0668352
0.0672034
0.0675162
0.0677761
0.0679864
0.0681504
0.0682729
0.0683596
0.0684166
0.0684492
0.0684629
0.0684622
0.0684518
0.0684353
0.0684169
0.0684
0.0683883
0.0683849
0.0683933
0.068416
0.0684564
0.0685165
0.0685994
0.0687068
0.0688415
0.0690048
0.0691991
0.0694256
0.0696864
0.0699821
0.0703147
0.0706846
0.0710935
0.0715415
0.07203
0.072559
0.0731298
0.0737419
0.0743966
0.0750933
0.075833
0.076615
0.0774403
0.0783079
0.0792188
0.0801718
0.081168
0.082206
0.0832869
0.0844093
0.0855741
0.0867798
0.0880276
0.0893158
0.0906456
0.0920152
0.0934259
0.094876
0.0963667
0.0978962
0.0994659
0.101074
0.102722
0.104408
0.106133
0.107896
0.109699
0.111538
0.113415
0.115336
0.117314
0.119293
0.12102
0.122688
-0.00988063
0.00289512
0.00246255
0.00497025
0.00682807
0.00874476
0.0106107
0.0124496
0.0142657
0.0160642
0.017849
0.0196228
0.0213878
0.0231455
0.0248965
0.0266408
0.0283778
0.0301063
0.0318245
0.0335305
0.0352216
0.0368952
0.0385481
0.0401773
0.0417792
0.0433506
0.0448878
0.0463874
0.0478459
0.0492601
0.0506265
0.0519421
0.053204
0.0544095
0.0555563
0.0566422
0.0576653
0.0586242
0.0595176
0.060345
0.0611058
0.0618002
0.0624285
0.0629914
0.0634902
0.0639262
0.0643014
0.0646179
0.0648782
0.0650849
0.0652413
0.0653507
0.0654184
0.0654503
0.0654528
0.0654312
0.0653909
0.0653367
0.0652733
0.0652045
0.0651345
0.0650668
0.0650052
0.0649529
0.0649134
0.0648895
0.0648844
0.0649006
0.0649407
0.0650072
0.0651022
0.0652278
0.0653859
0.0655781
0.0658062
0.0660715
0.0663753
0.0667188
0.0671029
0.0675286
0.0679966
0.0685076
0.0690621
0.0696607
0.0703036
0.0709912
0.0717236
0.0725011
0.0733235
0.0741912
0.0751038
0.0760616
0.077064
0.0781113
0.0792029
0.080339
0.081519
0.0827431
0.0840104
0.0853214
0.086675
0.0880718
0.0895106
0.0909921
0.0925151
0.0940802
0.0956864
0.0973342
0.0990225
0.100752
0.102522
0.104333
0.106183
0.108074
0.110003
0.111979
0.114014
0.116052
0.117826
0.119531
-0.00979776
0.00290041
0.00233174
0.00479782
0.00657157
0.00841842
0.0102117
0.0119795
0.0137253
0.0154549
0.0171721
0.0188794
0.0205791
0.0222724
0.0239601
0.025642
0.0273176
0.0289856
0.0306444
0.0322917
0.0339251
0.0355418
0.0371388
0.0387127
0.0402603
0.0417779
0.0432622
0.0447095
0.0461163
0.0474792
0.0487948
0.05006
0.0512719
0.0524276
0.0535247
0.054561
0.0555345
0.0564435
0.057287
0.058064
0.0587741
0.0594173
0.0599939
0.0605045
0.0609502
0.0613325
0.0616531
0.0619143
0.0621184
0.0622682
0.0623665
0.0624174
0.062426
0.0623991
0.0623425
0.0622623
0.0621635
0.0620512
0.06193
0.0618041
0.0616775
0.0615542