/*--------------------------------*- C++ -*----------------------------------*\
  =========                 |
  \\      /  F ield         | OpenFOAM: The Open Source CFD Toolbox
   \\    /   O peration     | Website:  https://openfoam.org
    \\  /    A nd           | Version:  8
     \\/     M anipulation  |
\*---------------------------------------------------------------------------*/
FoamFile
{
    version     2.0;
    format      ascii;
    class       volScalarField;
    location    "10";
    object      p;
}
// * * * * * * * * * * * * * * * * * * * * * * * * * * * * * * * * * * * * * //

dimensions      [0 2 -2 0 0 0 0];

internalField   nonuniform List<scalar> 
277560
(
-0.589254
-0.590023
-0.59193
-0.594741
-0.598352
-0.602748
-0.607899
-0.613757
-0.620274
-0.627409
-0.635124
-0.643379
-0.652138
-0.661365
-0.671026
-0.681087
-0.691518
-0.702289
-0.713369
-0.724733
-0.736353
-0.748205
-0.760263
-0.772507
-0.784914
-0.797463
-0.810134
-0.82291
-0.835771
-0.848702
-0.861687
-0.874709
-0.887757
-0.900816
-0.913873
-0.926917
-0.939937
-0.952922
-0.965863
-0.97875
-0.991575
-1.00433
-1.01701
-1.0296
-1.04211
-1.05451
-1.06682
-1.07902
-1.09111
-1.10308
-1.11493
-1.12667
-1.13827
-1.14975
-1.1611
-1.17232
-1.1834
-1.19434
-1.20515
-1.21582
-1.22635
-1.23674
-1.24698
-1.25709
-1.26706
-1.27688
-1.28656
-1.29611
-1.30551
-1.31477
-1.32389
-1.33287
-1.34172
-1.35043
-1.359
-1.36743
-1.37574
-1.3839
-1.39194
-1.39985
-1.40763
-1.41528
-1.4228
-1.4302
-1.43747
-1.44462
-1.45166
-1.45857
-1.46536
-1.47204
-1.47861
-1.48506
-1.4914
-1.49763
-1.50375
-1.50977
-1.51568
-1.52149
-1.5272
-1.5328
-1.53831
-1.54372
-1.54903
-1.55425
-1.55938
-1.56442
-1.56936
-1.57422
-1.579
-1.58368
-1.58828
-1.59281
-1.59724
-1.6016
-1.60589
-1.61009
-1.61422
-1.61827
-1.62225
-1.62616
-0.588834
-0.589579
-0.59147
-0.594276
-0.597884
-0.602277
-0.607425
-0.613281
-0.619796
-0.62693
-0.634643
-0.642898
-0.651656
-0.660883
-0.670544
-0.680606
-0.691037
-0.701809
-0.712891
-0.724256
-0.735879
-0.747732
-0.759794
-0.77204
-0.78445
-0.797003
-0.809678
-0.822457
-0.835323
-0.848258
-0.861247
-0.874275
-0.887328
-0.900392
-0.913454
-0.926504
-0.93953
-0.952521
-0.965468
-0.978361
-0.991193
-1.00396
-1.01664
-1.02924
-1.04175
-1.05417
-1.06648
-1.07869
-1.09078
-1.10276
-1.11462
-1.12636
-1.13798
-1.14946
-1.16082
-1.17204
-1.18313
-1.19408
-1.2049
-1.21558
-1.22611
-1.23651
-1.24676
-1.25688
-1.26685
-1.27669
-1.28638
-1.29593
-1.30534
-1.3146
-1.32373
-1.33272
-1.34158
-1.35029
-1.35887
-1.36731
-1.37562
-1.3838
-1.39184
-1.39976
-1.40754
-1.4152
-1.42273
-1.43014
-1.43742
-1.44458
-1.45161
-1.45853
-1.46534
-1.47202
-1.47859
-1.48505
-1.4914
-1.49764
-1.50377
-1.50979
-1.51571
-1.52152
-1.52723
-1.53284
-1.53836
-1.54377
-1.54909
-1.55432
-1.55945
-1.56449
-1.56945
-1.57431
-1.57909
-1.58378
-1.58839
-1.59291
-1.59736
-1.60172
-1.606
-1.61021
-1.61435
-1.6184
-1.62239
-1.6263
-0.588045
-0.588793
-0.590682
-0.593487
-0.597092
-0.601481
-0.606627
-0.612481
-0.618994
-0.626127
-0.63384
-0.642095
-0.650854
-0.660083
-0.669745
-0.67981
-0.690245
-0.70102
-0.712106
-0.723476
-0.735103
-0.746963
-0.75903
-0.771283
-0.7837
-0.79626
-0.808943
-0.82173
-0.834604
-0.847548
-0.860547
-0.873584
-0.886646
-0.899721
-0.912794
-0.925854
-0.938891
-0.951893
-0.964851
-0.977756
-0.9906
-1.00337
-1.01607
-1.02868
-1.04121
-1.05363
-1.06596
-1.07818
-1.09029
-1.10228
-1.11415
-1.12591
-1.13753
-1.14903
-1.1604
-1.17164
-1.18274
-1.1937
-1.20453
-1.21522
-1.22577
-1.23618
-1.24645
-1.25658
-1.26656
-1.27641
-1.28611
-1.29567
-1.30509
-1.31437
-1.32351
-1.33252
-1.34138
-1.35011
-1.3587
-1.36715
-1.37547
-1.38366
-1.39171
-1.39964
-1.40743
-1.4151
-1.42264
-1.43006
-1.43735
-1.44452
-1.45157
-1.45849
-1.46531
-1.472
-1.47858
-1.48505
-1.49141
-1.49765
-1.50379
-1.50982
-1.51575
-1.52157
-1.52729
-1.53291
-1.53843
-1.54385
-1.54918
-1.55442
-1.55956
-1.5646
-1.56956
-1.57444
-1.57922
-1.58392
-1.58853
-1.59306
-1.59752
-1.60189
-1.60618
-1.61039
-1.61453
-1.6186
-1.62259
-1.62651
-0.586879
-0.587617
-0.589496
-0.592291
-0.595888
-0.600271
-0.605411
-0.61126
-0.61777
-0.6249
-0.632611
-0.640865
-0.649625
-0.658854
-0.668518
-0.678585
-0.689024
-0.699803
-0.710894
-0.72227
-0.733904
-0.74577
-0.757846
-0.770107
-0.782533
-0.795103
-0.807796
-0.820595
-0.833481
-0.846438
-0.859449
-0.872499
-0.885576
-0.898664
-0.911752
-0.924828
-0.93788
-0.950898
-0.963873
-0.976795
-0.989655
-1.00245
-1.01516
-1.02779
-1.04033
-1.05278
-1.06512
-1.07736
-1.08949
-1.1015
-1.11339
-1.12516
-1.13681
-1.14833
-1.15972
-1.17097
-1.18209
-1.19308
-1.20393
-1.21463
-1.2252
-1.23563
-1.24592
-1.25607
-1.26607
-1.27594
-1.28566
-1.29524
-1.30468
-1.31398
-1.32314
-1.33216
-1.34104
-1.34979
-1.35839
-1.36687
-1.3752
-1.38341
-1.39148
-1.39942
-1.40724
-1.41492
-1.42248
-1.42991
-1.43722
-1.4444
-1.45147
-1.45842
-1.46524
-1.47195
-1.47855
-1.48503
-1.4914
-1.49767
-1.50382
-1.50986
-1.51581
-1.52164
-1.52738
-1.53301
-1.53855
-1.54398
-1.54932
-1.55457
-1.55972
-1.56479
-1.56976
-1.57464
-1.57944
-1.58415
-1.58878
-1.59332
-1.59778
-1.60216
-1.60647
-1.61069
-1.61484
-1.61892
-1.62292
-1.62685
-0.585338
-0.586063
-0.58793
-0.590715
-0.594303
-0.598678
-0.603811
-0.609655
-0.616161
-0.623289
-0.630998
-0.639252
-0.648012
-0.657242
-0.66691
-0.676981
-0.687424
-0.698209
-0.709308
-0.720691
-0.732334
-0.744211
-0.756297
-0.768571
-0.78101
-0.793593
-0.806301
-0.819115
-0.832017
-0.844991
-0.858019
-0.871088
-0.884184
-0.897292
-0.9104
-0.923496
-0.936569
-0.949609
-0.962606
-0.975551
-0.988434
-1.00125
-1.01399
-1.02664
-1.03921
-1.05168
-1.06405
-1.07631
-1.08846
-1.1005
-1.11242
-1.12421
-1.13589
-1.14743
-1.15884
-1.17013
-1.18127
-1.19228
-1.20316
-1.21389
-1.22449
-1.23494
-1.24525
-1.25542
-1.26545
-1.27534
-1.28509
-1.2947
-1.30416
-1.31348
-1.32267
-1.33171
-1.34062
-1.34939
-1.35802
-1.36652
-1.37488
-1.3831
-1.3912
-1.39916
-1.407
-1.41471
-1.42228
-1.42974
-1.43707
-1.44427
-1.45136
-1.45832
-1.46517
-1.4719
-1.47852
-1.48502
-1.49141
-1.49769
-1.50386
-1.50993
-1.51589
-1.52174
-1.52749
-1.53314
-1.53869
-1.54415
-1.54951
-1.55477
-1.55994
-1.56502
-1.57
-1.5749
-1.57971
-1.58444
-1.58908
-1.59364
-1.59812
-1.60251
-1.60683
-1.61107
-1.61523
-1.61932
-1.62334
-1.62728
-0.583432
-0.58414
-0.585993
-0.588764
-0.592341
-0.596706
-0.601831
-0.607668
-0.614169
-0.621292
-0.628999
-0.637252
-0.646012
-0.655245
-0.664915
-0.674991
-0.68544
-0.696233
-0.70734
-0.718733
-0.730387
-0.742276
-0.754376
-0.766664
-0.779118
-0.791718
-0.804443
-0.817276
-0.830198
-0.843192
-0.856242
-0.869333
-0.882451
-0.895583
-0.908716
-0.921837
-0.934936
-0.948003
-0.961027
-0.973999
-0.98691
-0.999753
-1.01252
-1.0252
-1.0378
-1.0503
-1.0627
-1.07499
-1.08718
-1.09924
-1.11119
-1.12302
-1.13473
-1.1463
-1.15775
-1.16906
-1.18024
-1.19128
-1.20219
-1.21295
-1.22358
-1.23406
-1.24441
-1.25461
-1.26467
-1.27459
-1.28437
-1.29401
-1.3035
-1.31286
-1.32207
-1.33115
-1.34008
-1.34888
-1.35754
-1.36607
-1.37446
-1.38271
-1.39084
-1.39883
-1.40669
-1.41442
-1.42203
-1.42951
-1.43687
-1.4441
-1.45121
-1.4582
-1.46508
-1.47183
-1.47847
-1.485
-1.49141
-1.49772
-1.50391
-1.51
-1.51598
-1.52186
-1.52763
-1.5333
-1.53888
-1.54435
-1.54973
-1.55502
-1.56021
-1.5653
-1.57031
-1.57523
-1.58006
-1.58481
-1.58947
-1.59404
-1.59854
-1.60295
-1.60729
-1.61154
-1.61572
-1.61983
-1.62386
-1.62782
-0.581167
-0.581855
-0.583691
-0.586447
-0.59001
-0.594363
-0.599478
-0.605307
-0.611801
-0.61892
-0.626624
-0.634876
-0.643637
-0.652872
-0.662546
-0.672627
-0.683083
-0.693885
-0.705002
-0.716407
-0.728074
-0.739977
-0.752093
-0.764398
-0.776871
-0.78949
-0.802237
-0.815092
-0.828037
-0.841055
-0.854131
-0.867249
-0.880395
-0.893555
-0.906717
-0.919868
-0.932998
-0.946096
-0.959153
-0.972158
-0.985103
-0.99798
-1.01078
-1.0235
-1.03613
-1.04867
-1.0611
-1.07343
-1.08565
-1.09776
-1.10975
-1.12161
-1.13335
-1.14497
-1.15645
-1.1678
-1.17902
-1.1901
-1.20104
-1.21184
-1.22251
-1.23303
-1.24341
-1.25365
-1.26375
-1.27371
-1.28352
-1.2932
-1.30273
-1.31212
-1.32137
-1.33048
-1.33945
-1.34828
-1.35698
-1.36554
-1.37396
-1.38225
-1.39041
-1.39844
-1.40633
-1.4141
-1.42174
-1.42925
-1.43664
-1.4439
-1.45104
-1.45806
-1.46497
-1.47175
-1.47842
-1.48498
-1.49142
-1.49775
-1.50397
-1.51009
-1.5161
-1.522
-1.5278
-1.5335
-1.5391
-1.5446
-1.55
-1.55531
-1.56052
-1.56565
-1.57068
-1.57562
-1.58047
-1.58524
-1.58992
-1.59452
-1.59903
-1.60347
-1.60782
-1.6121
-1.6163
-1.62043
-1.62448
-1.62845
-0.578551
-0.579215
-0.581032
-0.58377
-0.587317
-0.591656
-0.59676
-0.602579
-0.609066
-0.616179
-0.62388
-0.63213
-0.640892
-0.650129
-0.659808
-0.669895
-0.68036
-0.691171
-0.702299
-0.713718
-0.7254
-0.73732
-0.749454
-0.761779
-0.774272
-0.786915
-0.799685
-0.812566
-0.825538
-0.838584
-0.85169
-0.864838
-0.878015
-0.891208
-0.904404
-0.91759
-0.930755
-0.94389
-0.956983
-0.970026
-0.98301
-0.995926
-1.00877
-1.02153
-1.0342
-1.04678
-1.05925
-1.07163
-1.08389
-1.09604
-1.10807
-1.11998
-1.13176
-1.14342
-1.15494
-1.16634
-1.1776
-1.18872
-1.19971
-1.21056
-1.22126
-1.23183
-1.24226
-1.25254
-1.26268
-1.27268
-1.28254
-1.29225
-1.30183
-1.31126
-1.32055
-1.3297
-1.33872
-1.34759
-1.35633
-1.36492
-1.37339
-1.38172
-1.38991
-1.39798
-1.40591
-1.41371
-1.42139
-1.42894
-1.43636
-1.44366
-1.45084
-1.4579
-1.46483
-1.47165
-1.47836
-1.48495
-1.49142
-1.49779
-1.50404
-1.51019
-1.51623
-1.52216
-1.52799
-1.53372
-1.53935
-1.54488
-1.55031
-1.55565
-1.56089
-1.56604
-1.5711
-1.57606
-1.58094
-1.58574
-1.59044
-1.59507
-1.59961
-1.60407
-1.60845
-1.61275
-1.61697
-1.62112
-1.62519
-1.62919
-0.57559
-0.576228
-0.578022
-0.58074
-0.584268
-0.588592
-0.593683
-0.599491
-0.60597
-0.613077
-0.620774
-0.629022
-0.637785
-0.647025
-0.656708
-0.666803
-0.677276
-0.688098
-0.699239
-0.710673
-0.722372
-0.734311
-0.746465
-0.758812
-0.77133
-0.783998
-0.796796
-0.809705
-0.822707
-0.835786
-0.848924
-0.862107
-0.87532
-0.88855
-0.901783
-0.915009
-0.928214
-0.94139
-0.954525
-0.967611
-0.980639
-0.9936
-1.00649
-1.01929
-1.03201
-1.04463
-1.05716
-1.06958
-1.08189
-1.09409
-1.10616
-1.11812
-1.12996
-1.14166
-1.15324
-1.16468
-1.17599
-1.18717
-1.1982
-1.2091
-1.21986
-1.23047
-1.24095
-1.25128
-1.26147
-1.27152
-1.28142
-1.29119
-1.30081
-1.31029
-1.31963
-1.32882
-1.33788
-1.3468
-1.35558
-1.36423
-1.37274
-1.38111
-1.38935
-1.39746
-1.40543
-1.41328
-1.421
-1.42859
-1.43605
-1.44339
-1.45061
-1.45771
-1.46468
-1.47154
-1.47829
-1.48491
-1.49142
-1.49783
-1.50412
-1.5103
-1.51637
-1.52234
-1.52821
-1.53397
-1.53963
-1.5452
-1.55066
-1.55603
-1.5613
-1.56648
-1.57157
-1.57657
-1.58148
-1.5863
-1.59104
-1.59569
-1.60026
-1.60475
-1.60915
-1.61348
-1.61773
-1.62191
-1.626
-1.63003
-0.572291
-0.5729
-0.574669
-0.577364
-0.580872
-0.585178
-0.590255
-0.596051
-0.60252
-0.60962
-0.617313
-0.625559
-0.634322
-0.643565
-0.653253
-0.663355
-0.673839
-0.684673
-0.695829
-0.707279
-0.718996
-0.730956
-0.743133
-0.755505
-0.768049
-0.780745
-0.793574
-0.806514
-0.81955
-0.832664
-0.845839
-0.85906
-0.872313
-0.885584
-0.89886
-0.912129
-0.925379
-0.9386
-0.951783
-0.964916
-0.977992
-0.991003
-1.00394
-1.0168
-1.02957
-1.04224
-1.05482
-1.06729
-1.07966
-1.09191
-1.10404
-1.11605
-1.12794
-1.1397
-1.15133
-1.16283
-1.1742
-1.18543
-1.19652
-1.20747
-1.21828
-1.22895
-1.23948
-1.24987
-1.26011
-1.27021
-1.28017
-1.28999
-1.29967
-1.3092
-1.31859
-1.32784
-1.33695
-1.34592
-1.35475
-1.36345
-1.37201
-1.38043
-1.38872
-1.39687
-1.4049
-1.41279
-1.42056
-1.42819
-1.4357
-1.44309
-1.45035
-1.45749
-1.46451
-1.47142
-1.4782
-1.48487
-1.49143
-1.49787
-1.5042
-1.51042
-1.51654
-1.52254
-1.52845
-1.53425
-1.53995
-1.54555
-1.55105
-1.55645
-1.56176
-1.56698
-1.5721
-1.57713
-1.58208
-1.58693
-1.5917
-1.59638
-1.60098
-1.6055
-1.60994
-1.6143
-1.61858
-1.62278
-1.62691
-1.63096
-0.56866
-0.569238
-0.570979
-0.573648
-0.577134
-0.581421
-0.586481
-0.592264
-0.598722
-0.605815
-0.613503
-0.621747
-0.630509
-0.639755
-0.64945
-0.65956
-0.670054
-0.680901
-0.692073
-0.703541
-0.715279
-0.727261
-0.739463
-0.751862
-0.764436
-0.777163
-0.790024
-0.803
-0.816072
-0.829225
-0.84244
-0.855703
-0.869
-0.882316
-0.895638
-0.908955
-0.922254
-0.935526
-0.948759
-0.961945
-0.975075
-0.988139
-1.00113
-1.01404
-1.02687
-1.0396
-1.05224
-1.06477
-1.07719
-1.0895
-1.1017
-1.11377
-1.12572
-1.13754
-1.14923
-1.16079
-1.17222
-1.18351
-1.19466
-1.20567
-1.21654
-1.22727
-1.23786
-1.24831
-1.25862
-1.26878
-1.2788
-1.28867
-1.2984
-1.308
-1.31744
-1.32675
-1.33592
-1.34495
-1.35383
-1.36259
-1.3712
-1.37968
-1.38802
-1.39623
-1.40431
-1.41225
-1.42007
-1.42776
-1.43532
-1.44276
-1.45007
-1.45726
-1.46433
-1.47128
-1.47811
-1.48482
-1.49142
-1.49791
-1.50429
-1.51056
-1.51671
-1.52276
-1.52871
-1.53455
-1.54029
-1.54593
-1.55148
-1.55692
-1.56227
-1.56752
-1.57268
-1.57775
-1.58273
-1.58762
-1.59243
-1.59715
-1.60178
-1.60633
-1.6108
-1.6152
-1.61951
-1.62374
-1.6279
-1.63198
-0.564705
-0.565247
-0.566958
-0.5696
-0.573061
-0.577328
-0.58237
-0.588138
-0.594584
-0.601668
-0.60935
-0.617591
-0.626354
-0.635603
-0.645304
-0.655423
-0.665928
-0.67679
-0.687978
-0.699466
-0.711225
-0.723232
-0.735461
-0.747889
-0.760494
-0.773255
-0.786152
-0.799166
-0.812278
-0.825473
-0.838732
-0.852041
-0.865384
-0.878749
-0.892122
-0.90549
-0.918843
-0.932169
-0.945459
-0.958702
-0.971889
-0.985013
-0.998065
-1.01104
-1.02393
-1.03672
-1.04942
-1.06202
-1.0745
-1.08688
-1.09914
-1.11127
-1.12329
-1.13518
-1.14693
-1.15856
-1.17005
-1.18141
-1.19262
-1.2037
-1.21464
-1.22544
-1.23609
-1.24661
-1.25698
-1.2672
-1.27729
-1.28723
-1.29702
-1.30668
-1.31619
-1.32556
-1.33479
-1.34388
-1.35283
-1.36164
-1.37031
-1.37885
-1.38725
-1.39552
-1.40366
-1.41166
-1.41953
-1.42728
-1.43489
-1.44238
-1.44975
-1.45699
-1.46412
-1.47112
-1.478
-1.48477
-1.49142
-1.49796
-1.50438
-1.5107
-1.5169
-1.523
-1.52899
-1.53488
-1.54067
-1.54635
-1.55194
-1.55743
-1.56282
-1.56811
-1.57332
-1.57843
-1.58345
-1.58838
-1.59322
-1.59798
-1.60265
-1.60724
-1.61175
-1.61618
-1.62052
-1.62479
-1.62899
-1.6331
-0.56043
-0.560935
-0.562612
-0.565225
-0.56866
-0.572903
-0.577926
-0.583678
-0.590111
-0.597186
-0.604861
-0.6131
-0.621863
-0.631115
-0.640821
-0.650949
-0.661467
-0.672344
-0.68355
-0.695058
-0.706842
-0.718874
-0.731132
-0.743592
-0.75623
-0.769027
-0.781963
-0.795017
-0.808173
-0.821412
-0.834718
-0.848076
-0.861471
-0.874888
-0.888316
-0.90174
-0.91515
-0.928535
-0.941885
-0.95519
-0.96844
-0.981627
-0.994744
-1.00778
-1.02074
-1.0336
-1.04637
-1.05903
-1.07159
-1.08403
-1.09636
-1.10857
-1.12065
-1.13261
-1.14444
-1.15614
-1.1677
-1.17913
-1.19042
-1.20157
-1.21258
-1.22345
-1.23418
-1.24476
-1.2552
-1.2655
-1.27565
-1.28566
-1.29553
-1.30525
-1.31483
-1.32427
-1.33356
-1.34272
-1.35174
-1.36061
-1.36935
-1.37795
-1.38642
-1.39475
-1.40295
-1.41101
-1.41895
-1.42675
-1.43443
-1.44198
-1.44941
-1.45671
-1.46389
-1.47095
-1.47788
-1.48471
-1.49141
-1.498
-1.50448
-1.51085
-1.51711
-1.52326
-1.5293
-1.53524
-1.54107
-1.54681
-1.55244
-1.55797
-1.56341
-1.56875
-1.574
-1.57915
-1.58422
-1.58919
-1.59408
-1.59888
-1.60359
-1.60822
-1.61277
-1.61723
-1.62162
-1.62593
-1.63016
-1.63431
-0.555843
-0.556306
-0.557949
-0.560529
-0.563936
-0.568154
-0.573156
-0.57889
-0.58531
-0.592374
-0.600043
-0.608277
-0.61704
-0.626295
-0.636008
-0.646146
-0.656676
-0.667569
-0.678794
-0.690324
-0.702132
-0.714193
-0.726481
-0.738974
-0.751649
-0.764485
-0.777461
-0.790559
-0.80376
-0.817048
-0.830404
-0.843815
-0.857264
-0.870737
-0.884223
-0.897707
-0.911179
-0.924627
-0.938041
-0.951411
-0.964729
-0.977985
-0.991171
-1.00428
-1.01731
-1.03024
-1.04308
-1.05582
-1.06845
-1.08097
-1.09337
-1.10566
-1.11782
-1.12985
-1.14176
-1.15353
-1.16517
-1.17668
-1.18805
-1.19927
-1.21036
-1.2213
-1.23211
-1.24277
-1.25328
-1.26366
-1.27388
-1.28397
-1.29391
-1.30371
-1.31336
-1.32287
-1.33224
-1.34147
-1.35055
-1.3595
-1.36831
-1.37698
-1.38552
-1.39392
-1.40218
-1.41031
-1.41831
-1.42619
-1.43393
-1.44154
-1.44903
-1.45639
-1.46363
-1.47075
-1.47775
-1.48464
-1.4914
-1.49805
-1.50458
-1.51101
-1.51732
-1.52353
-1.52962
-1.53562
-1.5415
-1.54729
-1.55297
-1.55856
-1.56404
-1.56943
-1.57473
-1.57993
-1.58504
-1.59006
-1.59499
-1.59984
-1.6046
-1.60927
-1.61386
-1.61837
-1.6228
-1.62714
-1.63142
-1.63561
-0.550948
-0.551368
-0.552973
-0.555519
-0.558895
-0.563087
-0.568066
-0.573781
-0.580186
-0.587238
-0.594899
-0.60313
-0.611892
-0.621151
-0.63087
-0.641018
-0.651561
-0.66247
-0.673715
-0.685269
-0.697103
-0.709193
-0.721514
-0.734042
-0.746755
-0.759631
-0.772651
-0.785795
-0.799045
-0.812384
-0.825794
-0.83926
-0.852766
-0.8663
-0.879847
-0.893395
-0.906932
-0.920447
-0.93393
-0.947371
-0.96076
-0.974088
-0.987349
-1.00053
-1.01364
-1.02665
-1.03957
-1.05238
-1.06509
-1.07769
-1.09018
-1.10254
-1.11478
-1.1269
-1.13889
-1.15074
-1.16247
-1.17405
-1.1855
-1.19681
-1.20798
-1.21901
-1.22989
-1.24063
-1.25123
-1.26168
-1.27199
-1.28216
-1.29218
-1.30205
-1.31178
-1.32137
-1.33082
-1.34012
-1.34929
-1.35831
-1.36719
-1.37594
-1.38455
-1.39302
-1.40136
-1.40956
-1.41763
-1.42557
-1.43338
-1.44107
-1.44862
-1.45605
-1.46336
-1.47055
-1.47761
-1.48455
-1.49138
-1.49809
-1.50469
-1.51117
-1.51755
-1.52381
-1.52997
-1.53601
-1.54196
-1.5478
-1.55354
-1.55918
-1.56472
-1.57016
-1.57551
-1.58076
-1.58592
-1.59099
-1.59597
-1.60086
-1.60567
-1.61039
-1.61503
-1.61958
-1.62405
-1.62844
-1.63276
-1.63699
-0.545752
-0.546126
-0.54769
-0.5502
-0.553543
-0.557707
-0.562661
-0.568357
-0.574745
-0.581785
-0.589438
-0.597663
-0.606425
-0.615686
-0.625412
-0.63557
-0.646127
-0.657053
-0.668319
-0.679897
-0.691759
-0.703879
-0.716234
-0.728799
-0.741552
-0.754472
-0.767538
-0.78073
-0.794031
-0.807423
-0.82089
-0.834415
-0.847983
-0.861579
-0.875192
-0.888807
-0.902414
-0.916
-0.929555
-0.94307
-0.956535
-0.96994
-0.983279
-0.996543
-1.00973
-1.02282
-1.03582
-1.04872
-1.06151
-1.0742
-1.08677
-1.09922
-1.11155
-1.12375
-1.13583
-1.14777
-1.15958
-1.17125
-1.18279
-1.19419
-1.20544
-1.21656
-1.22753
-1.23835
-1.24904
-1.25958
-1.26997
-1.28022
-1.29032
-1.30028
-1.3101
-1.31977
-1.3293
-1.33869
-1.34793
-1.35704
-1.366
-1.37482
-1.38351
-1.39206
-1.40047
-1.40875
-1.4169
-1.42491
-1.4328
-1.44056
-1.44818
-1.45568
-1.46306
-1.47032
-1.47745
-1.48446
-1.49136
-1.49813
-1.5048
-1.51134
-1.51778
-1.52411
-1.53032
-1.53643
-1.54244
-1.54834
-1.55413
-1.55983
-1.56543
-1.57093
-1.57633
-1.58164
-1.58685
-1.59197
-1.59701
-1.60195
-1.60681
-1.61157
-1.61626
-1.62086
-1.62538
-1.62982
-1.63418
-1.63846
-0.54026
-0.540585
-0.542107
-0.544578
-0.547886
-0.55202
-0.556948
-0.562622
-0.568993
-0.57602
-0.583663
-0.591883
-0.600644
-0.609907
-0.61964
-0.629808
-0.640379
-0.651323
-0.662611
-0.674213
-0.686104
-0.698257
-0.710647
-0.723251
-0.736046
-0.74901
-0.762124
-0.775368
-0.788723
-0.802171
-0.815697
-0.829283
-0.842916
-0.856579
-0.87026
-0.883946
-0.897626
-0.911287
-0.924919
-0.938512
-0.952056
-0.965543
-0.978965
-0.992313
-1.00558
-1.01876
-1.03185
-1.04484
-1.05772
-1.07049
-1.08315
-1.0957
-1.10812
-1.12041
-1.13258
-1.14461
-1.15651
-1.16828
-1.17991
-1.1914
-1.20275
-1.21395
-1.22501
-1.23593
-1.24671
-1.25734
-1.26782
-1.27816
-1.28836
-1.29841
-1.30831
-1.31807
-1.32769
-1.33716
-1.34649
-1.35568
-1.36473
-1.37363
-1.3824
-1.39104
-1.39953
-1.40789
-1.41612
-1.42421
-1.43217
-1.44001
-1.44771
-1.45529
-1.46274
-1.47007
-1.47727
-1.48436
-1.49132
-1.49817
-1.5049
-1.51152
-1.51802
-1.52442
-1.5307
-1.53687
-1.54294
-1.5489
-1.55476
-1.56052
-1.56618
-1.57173
-1.5772
-1.58256
-1.58783
-1.59301
-1.5981
-1.60309
-1.608
-1.61283
-1.61756
-1.62222
-1.62679
-1.63128
-1.63568
-1.64001
-0.534478
-0.534752
-0.536228
-0.538658
-0.541929
-0.546031
-0.550932
-0.556583
-0.562935
-0.569947
-0.57758
-0.585795
-0.594553
-0.603819
-0.613558
-0.623737
-0.634323
-0.645285
-0.656595
-0.668223
-0.680143
-0.692329
-0.704756
-0.7174
-0.730239
-0.743251
-0.756415
-0.769712
-0.783123
-0.79663
-0.810218
-0.823869
-0.837569
-0.851302
-0.865055
-0.878816
-0.892571
-0.906311
-0.920023
-0.933698
-0.947326
-0.960899
-0.974408
-0.987844
-1.0012
-1.01447
-1.02765
-1.04073
-1.05371
-1.06658
-1.07933
-1.09197
-1.10449
-1.11688
-1.12914
-1.14127
-1.15327
-1.16514
-1.17686
-1.18845
-1.19989
-1.2112
-1.22236
-1.23337
-1.24424
-1.25497
-1.26555
-1.27598
-1.28627
-1.29641
-1.30641
-1.31626
-1.32597
-1.33554
-1.34496
-1.35424
-1.36337
-1.37237
-1.38123
-1.38995
-1.39853
-1.40697
-1.41528
-1.42346
-1.43151
-1.43942
-1.44721
-1.45486
-1.46239
-1.4698
-1.47708
-1.48424
-1.49128
-1.4982
-1.50501
-1.5117
-1.51827
-1.52473
-1.53109
-1.53733
-1.54346
-1.54949
-1.55542
-1.56124
-1.56696
-1.57258
-1.5781
-1.58353
-1.58886
-1.5941
-1.59925
-1.6043
-1.60927
-1.61414
-1.61894
-1.62364
-1.62827
-1.63281
-1.63727
-1.64164
-0.52841
-0.52863
-0.530059
-0.532445
-0.535678
-0.539746
-0.544618
-0.550244
-0.556576
-0.563573
-0.571195
-0.579403
-0.588159
-0.597427
-0.607172
-0.617361
-0.627962
-0.638943
-0.650275
-0.661931
-0.673881
-0.686102
-0.698567
-0.711253
-0.724137
-0.737197
-0.750413
-0.763766
-0.777235
-0.790805
-0.804457
-0.818175
-0.831945
-0.845751
-0.859579
-0.873417
-0.887253
-0.901074
-0.914871
-0.928632
-0.942348
-0.95601
-0.96961
-0.983139
-0.99659
-1.00996
-1.02323
-1.03641
-1.04948
-1.06245
-1.07531
-1.08804
-1.10066
-1.11315
-1.12552
-1.13775
-1.14985
-1.16182
-1.17365
-1.18534
-1.19688
-1.20829
-1.21955
-1.23067
-1.24164
-1.25247
-1.26315
-1.27368
-1.28407
-1.29431
-1.30441
-1.31436
-1.32416
-1.33382
-1.34334
-1.35271
-1.36194
-1.37103
-1.37998
-1.38879
-1.39746
-1.406
-1.4144
-1.42266
-1.4308
-1.4388
-1.44667
-1.45441
-1.46202
-1.46951
-1.47687
-1.48411
-1.49123
-1.49823
-1.50511
-1.51188
-1.51853
-1.52506
-1.53149
-1.5378
-1.54401
-1.55011
-1.5561
-1.56199
-1.56778
-1.57347
-1.57906
-1.58455
-1.58994
-1.59524
-1.60045
-1.60556
-1.61059
-1.61553
-1.62038
-1.62514
-1.62982
-1.63442
-1.63893
-1.64336
-0.522063
-0.522226
-0.523605
-0.525946
-0.529138
-0.53317
-0.538012
-0.543612
-0.549923
-0.556903
-0.564513
-0.572713
-0.581466
-0.590736
-0.600487
-0.610686
-0.621302
-0.632302
-0.643658
-0.65534
-0.667322
-0.679578
-0.692082
-0.704811
-0.717742
-0.730853
-0.744123
-0.757533
-0.771063
-0.784697
-0.798415
-0.812204
-0.826046
-0.839928
-0.853835
-0.867754
-0.881673
-0.89558
-0.909464
-0.923315
-0.937122
-0.950878
-0.964572
-0.978198
-0.991747
-1.00521
-1.01859
-1.03187
-1.04504
-1.05812
-1.07107
-1.08392
-1.09664
-1.10924
-1.12171
-1.13405
-1.14626
-1.15833
-1.17027
-1.18206
-1.19372
-1.20523
-1.2166
-1.22782
-1.2389
-1.24983
-1.26062
-1.27126
-1.28175
-1.29209
-1.30229
-1.31235
-1.32225
-1.33201
-1.34163
-1.3511
-1.36043
-1.36962
-1.37867
-1.38757
-1.39634
-1.40497
-1.41346
-1.42182
-1.43004
-1.43813
-1.44609
-1.45392
-1.46162
-1.46919
-1.47664
-1.48397
-1.49117
-1.49825
-1.50521
-1.51206
-1.51879
-1.5254
-1.5319
-1.53829
-1.54457
-1.55075
-1.55681
-1.56277
-1.56863
-1.57439
-1.58005
-1.58561
-1.59107
-1.59643
-1.6017
-1.60688
-1.61197
-1.61697
-1.62188
-1.62671
-1.63144
-1.6361
-1.64067
-1.64515
-0.515442
-0.515545
-0.516871
-0.519165
-0.522315
-0.526309
-0.531118
-0.53669
-0.542979
-0.549941
-0.557538
-0.56573
-0.574479
-0.58375
-0.593507
-0.603717
-0.614347
-0.625366
-0.636745
-0.648456
-0.66047
-0.672762
-0.685307
-0.69808
-0.711059
-0.724222
-0.737548
-0.751017
-0.76461
-0.77831
-0.792098
-0.805959
-0.819877
-0.833837
-0.847825
-0.861829
-0.875834
-0.88983
-0.903805
-0.917749
-0.931652
-0.945504
-0.959298
-0.973023
-0.986675
-1.00024
-1.01372
-1.02711
-1.04039
-1.05357
-1.06664
-1.07959
-1.09242
-1.10513
-1.11772
-1.13017
-1.14249
-1.15467
-1.16672
-1.17863
-1.19039
-1.20202
-1.2135
-1.22483
-1.23602
-1.24706
-1.25796
-1.26871
-1.27931
-1.28976
-1.30007
-1.31023
-1.32024
-1.33011
-1.33983
-1.34941
-1.35884
-1.36813
-1.37728
-1.38629
-1.39515
-1.40388
-1.41247
-1.42092
-1.42924
-1.43743
-1.44548
-1.4534
-1.46119
-1.46886
-1.47639
-1.48381
-1.4911
-1.49826
-1.50531
-1.51224
-1.51905
-1.52575
-1.53233
-1.5388
-1.54516
-1.55141
-1.55755
-1.56359
-1.56952
-1.57535
-1.58108
-1.58671
-1.59224
-1.59767
-1.60301
-1.60826
-1.61341
-1.61848
-1.62345
-1.62834
-1.63314
-1.63785
-1.64248
-1.64702
-0.50855
-0.508592
-0.509863
-0.512107
-0.515212
-0.519167
-0.523942
-0.529485
-0.535749
-0.542692
-0.550275
-0.558458
-0.567203
-0.576475
-0.586237
-0.596457
-0.607101
-0.61814
-0.629543
-0.641282
-0.653329
-0.665658
-0.678244
-0.691063
-0.704091
-0.717308
-0.730691
-0.744221
-0.757879
-0.771647
-0.785507
-0.799442
-0.813439
-0.82748
-0.841552
-0.855642
-0.869737
-0.883825
-0.897895
-0.911935
-0.925937
-0.93989
-0.953786
-0.967617
-0.981374
-0.99505
-1.00864
-1.02213
-1.03553
-1.04882
-1.062
-1.07507
-1.08801
-1.10084
-1.11354
-1.12611
-1.13854
-1.15084
-1.16301
-1.17503
-1.18691
-1.19865
-1.21025
-1.2217
-1.23301
-1.24416
-1.25517
-1.26604
-1.27675
-1.28732
-1.29774
-1.30801
-1.31814
-1.32811
-1.33794
-1.34763
-1.35717
-1.36657
-1.37582
-1.38493
-1.3939
-1.40273
-1.41142
-1.41998
-1.4284
-1.43668
-1.44483
-1.45285
-1.46074
-1.46849
-1.47613
-1.48363
-1.49101
-1.49827
-1.5054
-1.51242
-1.51932
-1.5261
-1.53276
-1.53932
-1.54576
-1.55209
-1.55831
-1.56443
-1.57044
-1.57634
-1.58215
-1.58785
-1.59345
-1.59896
-1.60437
-1.60969
-1.61491
-1.62004
-1.62508
-1.63003
-1.6349
-1.63968
-1.64437
-1.64897
-0.501394
-0.501371
-0.502585
-0.504777
-0.507835
-0.511749
-0.516488
-0.522001
-0.528239
-0.535162
-0.54273
-0.550903
-0.559643
-0.568914
-0.578681
-0.58891
-0.59957
-0.610628
-0.622055
-0.633822
-0.645902
-0.658269
-0.670897
-0.683763
-0.696842
-0.710113
-0.723556
-0.737148
-0.750873
-0.76471
-0.778644
-0.792657
-0.806734
-0.820859
-0.835018
-0.849198
-0.863385
-0.877568
-0.891736
-0.905876
-0.91998
-0.934038
-0.94804
-0.961979
-0.975846
-0.989633
-1.00334
-1.01694
-1.03046
-1.04386
-1.05716
-1.07035
-1.08341
-1.09636
-1.10917
-1.12186
-1.13442
-1.14684
-1.15913
-1.17127
-1.18328
-1.19514
-1.20686
-1.21843
-1.22985
-1.24113
-1.25226
-1.26324
-1.27408
-1.28476
-1.2953
-1.30569
-1.31593
-1.32602
-1.33596
-1.34576
-1.35542
-1.36492
-1.37429
-1.38351
-1.39259
-1.40153
-1.41032
-1.41898
-1.42751
-1.43589
-1.44414
-1.45226
-1.46025
-1.46811
-1.47583
-1.48344
-1.49091
-1.49826
-1.50549
-1.5126
-1.51958
-1.52645
-1.53321
-1.53985
-1.54637
-1.55279
-1.55909
-1.56529
-1.57138
-1.57737
-1.58325
-1.58903
-1.59471
-1.60029
-1.60578
-1.61117
-1.61646
-1.62166
-1.62677
-1.6318
-1.63673
-1.64157
-1.64633
-1.651
-0.493977
-0.493887
-0.495042
-0.497181
-0.50019
-0.50406
-0.508762
-0.514242
-0.520454
-0.527355
-0.534906
-0.543068
-0.551802
-0.561073
-0.570844
-0.581082
-0.591756
-0.602833
-0.614284
-0.626081
-0.638194
-0.6506
-0.663271
-0.676183
-0.689315
-0.702642
-0.716144
-0.729801
-0.743594
-0.757504
-0.771513
-0.785605
-0.799765
-0.813976
-0.828225
-0.842497
-0.85678
-0.871061
-0.885329
-0.899573
-0.913782
-0.927948
-0.94206
-0.95611
-0.970091
-0.983994
-0.997812
-1.01154
-1.02517
-1.0387
-1.05212
-1.06542
-1.07861
-1.09168
-1.10462
-1.11744
-1.13012
-1.14267
-1.15508
-1.16735
-1.17948
-1.19147
-1.20331
-1.21501
-1.22656
-1.23796
-1.24922
-1.26032
-1.27128
-1.28209
-1.29275
-1.30326
-1.31362
-1.32383
-1.33389
-1.34381
-1.35358
-1.3632
-1.37268
-1.38202
-1.39121
-1.40026
-1.40917
-1.41794
-1.42657
-1.43506
-1.44342
-1.45164
-1.45973
-1.46769
-1.47552
-1.48322
-1.49079
-1.49824
-1.50557
-1.51277
-1.51985
-1.52681
-1.53366
-1.54039
-1.547
-1.55351
-1.5599
-1.56618
-1.57236
-1.57843
-1.58439
-1.59025
-1.59601
-1.60167
-1.60723
-1.6127
-1.61807
-1.62334
-1.62853
-1.63362
-1.63862
-1.64354
-1.64836
-1.6531
-0.486305
-0.486146
-0.48724
-0.489322
-0.49228
-0.496105
-0.500767
-0.506214
-0.512397
-0.519275
-0.526809
-0.534959
-0.543686
-0.552955
-0.562729
-0.572977
-0.583664
-0.59476
-0.606236
-0.618061
-0.630209
-0.642653
-0.655367
-0.668328
-0.681512
-0.694896
-0.70846
-0.722183
-0.736045
-0.750029
-0.764116
-0.778289
-0.792534
-0.806834
-0.821174
-0.835541
-0.849922
-0.864304
-0.878676
-0.893026
-0.907344
-0.921621
-0.935846
-0.950012
-0.96411
-0.978132
-0.992071
-1.00592
-1.01968
-1.03333
-1.04687
-1.06031
-1.07362
-1.08682
-1.09989
-1.11283
-1.12565
-1.13833
-1.15087
-1.16327
-1.17553
-1.18765
-1.19962
-1.21145
-1.22313
-1.23466
-1.24604
-1.25728
-1.26836
-1.2793
-1.29008
-1.30072
-1.3112
-1.32154
-1.33173
-1.34177
-1.35166
-1.3614
-1.371
-1.38045
-1.38976
-1.39893
-1.40795
-1.41683
-1.42558
-1.43418
-1.44265
-1.45098
-1.45918
-1.46725
-1.47518
-1.48299
-1.49066
-1.49821
-1.50564
-1.51294
-1.52012
-1.52718
-1.53412
-1.54094
-1.54765
-1.55424
-1.56073
-1.5671
-1.57336
-1.57951
-1.58556
-1.59151
-1.59735
-1.60309
-1.60873
-1.61428
-1.61973
-1.62508
-1.63034
-1.6355
-1.64058
-1.64557
-1.65047
-1.65527
-0.478383
-0.478152
-0.479182
-0.481205
-0.48411
-0.487889
-0.49251
-0.497921
-0.504074
-0.510928
-0.518443
-0.526579
-0.535298
-0.544564
-0.554342
-0.564598
-0.575299
-0.586414
-0.597913
-0.609767
-0.621949
-0.634432
-0.64719
-0.6602
-0.673437
-0.686879
-0.700506
-0.714295
-0.728229
-0.742288
-0.756454
-0.770711
-0.785043
-0.799433
-0.813868
-0.828332
-0.842814
-0.8573
-0.871778
-0.886238
-0.900668
-0.915059
-0.929401
-0.943685
-0.957904
-0.972049
-0.986112
-1.00009
-1.01397
-1.02775
-1.04143
-1.05499
-1.06844
-1.08177
-1.09497
-1.10805
-1.121
-1.13381
-1.14649
-1.15902
-1.17142
-1.18367
-1.19578
-1.20774
-1.21956
-1.23122
-1.24274
-1.25411
-1.26532
-1.27639
-1.28731
-1.29807
-1.30869
-1.31915
-1.32947
-1.33963
-1.34965
-1.35952
-1.36924
-1.37882
-1.38825
-1.39753
-1.40668
-1.41568
-1.42454
-1.43326
-1.44184
-1.45029
-1.4586
-1.46677
-1.47482
-1.48273
-1.49051
-1.49817
-1.5057
-1.5131
-1.52038
-1.52754
-1.53458
-1.5415
-1.54831
-1.55499
-1.56157
-1.56803
-1.57439
-1.58063
-1.58677
-1.5928
-1.59873
-1.60456
-1.61028
-1.61591
-1.62144
-1.62687
-1.63221
-1.63745
-1.6426
-1.64767
-1.65264
-1.65751
-0.470214
-0.469909
-0.470872
-0.472835
-0.475686
-0.479415
-0.483993
-0.489367
-0.495489
-0.502317
-0.509811
-0.517933
-0.526643
-0.535906
-0.545686
-0.555949
-0.566663
-0.577796
-0.589319
-0.601202
-0.613418
-0.62594
-0.638743
-0.651801
-0.665093
-0.678594
-0.692284
-0.706142
-0.720148
-0.734284
-0.748531
-0.762873
-0.777293
-0.791776
-0.806307
-0.820872
-0.835456
-0.850048
-0.864636
-0.879208
-0.893753
-0.908261
-0.922723
-0.93713
-0.951473
-0.965744
-0.979935
-0.99404
-1.00805
-1.02197
-1.03578