/*--------------------------------*- C++ -*----------------------------------*\
  =========                 |
  \\      /  F ield         | OpenFOAM: The Open Source CFD Toolbox
   \\    /   O peration     | Website:  https://openfoam.org
    \\  /    A nd           | Version:  9
     \\/     M anipulation  |
\*---------------------------------------------------------------------------*/
FoamFile
{
    format      ascii;
    class       volScalarField;
    location    "0.0075";
    object      alphat;
}
// * * * * * * * * * * * * * * * * * * * * * * * * * * * * * * * * * * * * * //

dimensions      [1 -1 -1 0 0 0 0];

internalField   nonuniform List<scalar> 
12628
(
0.0164072
0.0163599
0.0162996
0.0163361
0.0163683
0.0163766
0.0164071
0.0163599
0.0161658
0.0162007
0.0162371
0.0162707
0.0162995
0.0163361
0.0163682
0.0163765
0.0164071
0.0163599
0.0159459
0.0159892
0.0160291
0.0160658
0.0161001
0.0161322
0.0161658
0.0162007
0.016237
0.0162707
0.0162994
0.016336
0.0163682
0.0163765
0.016407
0.0163599
0.0152874
0.0153951
0.015492
0.0155791
0.0156572
0.0157273
0.0157903
0.0158472
0.0158988
0.0159459
0.0159891
0.0160291
0.0160658
0.0161001
0.0161322
0.0161658
0.0162007
0.016237
0.0162706
0.0162994
0.016336
0.0163681
0.0163764
0.016407
0.0163599
0.000233484
0.000405372
0.000561653
0.000733651
0.000921133
0.00112383
0.00134019
0.0015687
0.00180798
0.00205675
0.0023137
0.00257745
0.00284645
0.00311887
0.00339309
0.00366719
0.00393911
0.0042067
0.00446798
0.00472129
0.00496566
0.00520139
0.00543048
0.00565672
0.00588526
0.00612188
0.00637229
0.00664148
0.00693325
0.00724981
0.00759155
0.00795699
0.00834304
0.00874557
0.00915993
0.00958141
0.0100055
0.0104279
0.0108447
0.0112525
0.0116481
0.0120287
0.0123919
0.0127358
0.013059
0.0133607
0.0136405
0.0138984
0.0141351
0.0143513
0.0145481
0.0147269
0.0148888
0.0150353
0.0151677
0.0152871
0.0153948
0.0154918
0.015579
0.0156571
0.0157273
0.0157903
0.0158472
0.0158987
0.0159459
0.0159891
0.0160291
0.0160658
0.0161001
0.0161322
0.0161658
0.0162007
0.0162369
0.0162706
0.0162993
0.0163359
0.0163681
0.0163764
0.0164069
0.0163599
0.000116661
0.000336481
0.000491642
0.000663171
0.000850161
0.00105329
0.00127086
0.00150121
0.00174285
0.00199438
0.00225444
0.0025216
0.0027943
0.00307052
0.00334868
0.00362681
0.00390274
0.00417428
0.00443932
0.00469607
0.00494344
0.00518158
0.00541241
0.00563975
0.00586883
0.0061056
0.00635592
0.00662494
0.00691659
0.00723318
0.00757519
0.00794114
0.00832794
0.00873138
0.0091468
0.00956941
0.00999463
0.0104182
0.0108362
0.011245
0.0116416
0.0120231
0.0123871
0.0127317
0.0130556
0.0133579
0.0136382
0.0138966
0.0141336
0.0143501
0.0145472
0.0147261
0.0148882
0.0150348
0.0151673
0.0152868
0.0153946
0.0154917
0.0155788
0.0156571
0.0157272
0.0157902
0.0158471
0.0158987
0.0159459
0.0159891
0.0160291
0.0160658
0.0161001
0.0161322
0.0161658
0.0162007
0.0162369
0.0162705
0.0162993
0.0163359
0.0163681
0.0163764
0.0164069
0.0163599
0.0163599
0.0163599
0.0163599
0.0163599
0.0163599
0.0163599
0.0163599
0.0163599
0.0163599
0.0163599
0.0163599
0.0163599
0.0163599
0.0163599
0.0163599
0.01636
0.01636
0.01636
0.01636
0.01636
0.01636
0.01636
0.01636
0.01636
0.01636
0.01636
0.01636
0.01636
0.01636
0.0163601
0.0163601
0.0163601
0.0163601
0.0163601
0.0163601
0.0163601
0.0163601
0.0163601
0.0163601
0.0163601
0.0163601
0.0163601
0.0163602
0.0163602
0.0163602
0.0163602
0.0163602
0.0163602
0.0163602
0.0163602
0.0163602
0.0163602
0.0163602
0.0163602
0.0163603
0.0163603
0.0163603
0.0163603
0.0163603
0.0163603
0.0163603
0.0163603
0.0163603
0.0163603
0.0163603
0.0163603
0.0163604
0.0163604
0.0163604
0.0163604
0.0163604
0.0163604
0.0163604
0.0163604
0.0163604
0.0163604
0.0163604
0.0163605
0.0163605
0.0163605
0.0163605
0.0163605
0.0163605
0.0163605
0.0163605
0.0163605
0.0163605
0.0163605
0.0163605
0.0163606
0.0163606
0.0163606
0.0163606
0.0163606
0.0163606
0.0163606
0.0163606
0.0163606
0.0163606
0.0163606
0.0163607
0.0163607
0.0163607
0.0163607
0.0163607
0.0163607
0.0163607
0.0163607
0.0163607
0.0163607
0.0164069
0.0164068
0.0164068
0.0164068
0.0164067
0.0164067
0.0164067
0.0164066
0.0164066
0.0164066
0.0164065
0.0164065
0.0164065
0.0164064
0.0164064
0.0164064
0.0164063
0.0164063
0.0164063
0.0164062
0.0164062
0.0164062
0.0164061
0.0164061
0.0164061
0.016406
0.016406
0.016406
0.0164059
0.0164059
0.0164059
0.0164058
0.0164058
0.0164058
0.0164057
0.0164057
0.0164057
0.0164056
0.0164056
0.0164056
0.0164055
0.0164055
0.0164055
0.0164054
0.0164054
0.0164054
0.0164053
0.0164053
0.0164053
0.0164052
0.0164052
0.0164052
0.0164051
0.0164051
0.0164051
0.016405
0.016405
0.016405
0.016405
0.0164049
0.0164049
0.0164049
0.0164048
0.0164048
0.0164048
0.0164047
0.0164047
0.0164047
0.0164046
0.0164046
0.0164046
0.0164045
0.0164045
0.0164045
0.0164044
0.0164044
0.0164044
0.0164043
0.0164043
0.0164043
0.0164042
0.0164042
0.0164042
0.0164042
0.0164041
0.0164041
0.0164041
0.016404
0.016404
0.016404
0.0164039
0.0164039
0.0164039
0.0164038
0.0164038
0.0164038
0.0164037
0.0164037
0.0164037
0.0164037
0.0164036
0.0164036
0.0164036
0.0164035
0.0164035
0.0164035
0.0164034
0.0164034
0.0164034
0.0164033
0.0163763
0.0163763
0.0163762
0.0163762
0.0163762
0.0163762
0.0163761
0.0163761
0.0163761
0.0163761
0.016376
0.016376
0.016376
0.016376
0.0163759
0.0163759
0.0163759
0.0163758
0.0163758
0.0163758
0.0163758
0.0163757
0.0163757
0.0163757
0.0163757
0.0163756
0.0163756
0.0163756
0.0163755
0.0163755
0.0163755
0.0163755
0.0163754
0.0163754
0.0163754
0.0163754
0.0163753
0.0163753
0.0163753
0.0163752
0.0163752
0.0163752
0.0163752
0.0163751
0.0163751
0.0163751
0.0163751
0.016375
0.016375
0.016375
0.0163749
0.0163749
0.0163749
0.0163749
0.0163748
0.0163748
0.0163748
0.0163748
0.0163747
0.0163747
0.0163747
0.0163746
0.0163746
0.0163746
0.0163746
0.0163745
0.0163745
0.0163745
0.0163744
0.0163744
0.0163744
0.0163744
0.0163743
0.0163743
0.0163743
0.0163743
0.0163742
0.0163742
0.0163742
0.0163741
0.0163741
0.0163741
0.0163741
0.016374
0.016374
0.016374
0.0163739
0.0163739
0.0163739
0.0163739
0.0163738
0.0163738
0.0163738
0.0163738
0.0163737
0.0163737
0.0163737
0.0163736
0.0163736
0.0163736
0.0163736
0.0163735
0.0163735
0.0163735
0.0163734
0.0163734
0.0163734
0.0163734
0.0163733
0.0163733
0.016368
0.016368
0.016368
0.016368
0.016368
0.0163679
0.0163679
0.0163679
0.0163679
0.0163679
0.0163678
0.0163678
0.0163678
0.0163678
0.0163677
0.0163677
0.0163677
0.0163677
0.0163677
0.0163676
0.0163676
0.0163676
0.0163676
0.0163675
0.0163675
0.0163675
0.0163675
0.0163674
0.0163674
0.0163674
0.0163674
0.0163674
0.0163673
0.0163673
0.0163673
0.0163673
0.0163672
0.0163672
0.0163672
0.0163672
0.0163672
0.0163671
0.0163671
0.0163671
0.0163671
0.016367
0.016367
0.016367
0.016367
0.0163669
0.0163669
0.0163669
0.0163669
0.0163668
0.0163668
0.0163668
0.0163668
0.0163668
0.0163667
0.0163667
0.0163667
0.0163667
0.0163666
0.0163666
0.0163666
0.0163666
0.0163665
0.0163665
0.0163665
0.0163665
0.0163665
0.0163664
0.0163664
0.0163664
0.0163664
0.0163663
0.0163663
0.0163663
0.0163663
0.0163662
0.0163662
0.0163662
0.0163662
0.0163661
0.0163661
0.0163661
0.0163661
0.0163661
0.016366
0.016366
0.016366
0.016366
0.0163659
0.0163659
0.0163659
0.0163659
0.0163658
0.0163658
0.0163658
0.0163658
0.0163657
0.0163657
0.0163657
0.0163657
0.0163657
0.0163656
0.0163656
0.0163656
0.0163656
0.0163655
0.0163358
0.0163358
0.0163358
0.0163358
0.0163358
0.0163357
0.0163357
0.0163357
0.0163357
0.0163356
0.0163356
0.0163356
0.0163356
0.0163355
0.0163355
0.0163355
0.0163355
0.0163354
0.0163354
0.0163354
0.0163354
0.0163353
0.0163353
0.0163353
0.0163353
0.0163352
0.0163352
0.0163352
0.0163352
0.0163351
0.0163351
0.0163351
0.0163351
0.016335
0.016335
0.016335
0.016335
0.0163349
0.0163349
0.0163349
0.0163349
0.0163348
0.0163348
0.0163348
0.0163348
0.0163347
0.0163347
0.0163347
0.0163346
0.0163346
0.0163346
0.0163346
0.0163345
0.0163345
0.0163345
0.0163345
0.0163344
0.0163344
0.0163344
0.0163344
0.0163343
0.0163343
0.0163343
0.0163343
0.0163342
0.0163342
0.0163342
0.0163341
0.0163341
0.0163341
0.0163341
0.016334
0.016334
0.016334
0.016334
0.0163339
0.0163339
0.0163339
0.0163338
0.0163338
0.0163338
0.0163338
0.0163337
0.0163337
0.0163337
0.0163337
0.0163336
0.0163336
0.0163336
0.0163335
0.0163335
0.0163335
0.0163335
0.0163334
0.0163334
0.0163334
0.0163333
0.0163333
0.0163333
0.0163333
0.0163332
0.0163332
0.0163332
0.0163332
0.0163331
0.0163331
0.0163331
0.016333
0.016333
0.016333
0.0162992
0.0162991
0.0162991
0.0162991
0.0162991
0.016299
0.016299
0.016299
0.0162989
0.0162989
0.0162989
0.0162988
0.0162988
0.0162988
0.0162987
0.0162987
0.0162987
0.0162986
0.0162986
0.0162986
0.0162985
0.0162985
0.0162985
0.0162984
0.0162984
0.0162984
0.0162983
0.0162983
0.0162983
0.0162982
0.0162982
0.0162982
0.0162981
0.0162981
0.0162981
0.016298
0.016298
0.016298
0.0162979
0.0162979
0.0162979
0.0162978
0.0162978
0.0162977
0.0162977
0.0162977
0.0162976
0.0162976
0.0162976
0.0162975
0.0162975
0.0162975
0.0162974
0.0162974
0.0162974
0.0162973
0.0162973
0.0162973
0.0162972
0.0162972
0.0162972
0.0162971
0.0162971
0.016297
0.016297
0.016297
0.0162969
0.0162969
0.0162969
0.0162968
0.0162968
0.0162968
0.0162967
0.0162967
0.0162967
0.0162966
0.0162966
0.0162965
0.0162965
0.0162965
0.0162964
0.0162964
0.0162964
0.0162963
0.0162963
0.0162963
0.0162962
0.0162962
0.0162961
0.0162961
0.0162961
0.016296
0.016296
0.016296
0.0162959
0.0162959
0.0162958
0.0162958
0.0162958
0.0162957
0.0162957
0.0162957
0.0162956
0.0162956
0.0162955
0.0162955
0.0162955
0.0162954
0.0162954
0.0162954
0.0162705
0.0162704
0.0162704
0.0162704
0.0162704
0.0162704
0.0162703
0.0162703
0.0162703
0.0162703
0.0162702
0.0162702
0.0162702
0.0162702
0.0162701
0.0162701
0.0162701
0.01627
0.01627
0.01627
0.01627
0.0162699
0.0162699
0.0162699
0.0162699
0.0162698
0.0162698
0.0162698
0.0162698
0.0162697
0.0162697
0.0162697
0.0162696
0.0162696
0.0162696
0.0162696
0.0162695
0.0162695
0.0162695
0.0162694
0.0162694
0.0162694
0.0162694
0.0162693
0.0162693
0.0162693
0.0162692
0.0162692
0.0162692
0.0162692
0.0162691
0.0162691
0.0162691
0.016269
0.016269
0.016269
0.0162689
0.0162689
0.0162689
0.0162688
0.0162688
0.0162688
0.0162688
0.0162687
0.0162687
0.0162687
0.0162686
0.0162686
0.0162686
0.0162685
0.0162685
0.0162685
0.0162684
0.0162684
0.0162684
0.0162683
0.0162683
0.0162683
0.0162682
0.0162682
0.0162682
0.0162681
0.0162681
0.0162681
0.016268
0.016268
0.016268
0.0162679
0.0162679
0.0162679
0.0162678
0.0162678
0.0162678
0.0162677
0.0162677
0.0162677
0.0162676
0.0162676
0.0162676
0.0162675
0.0162675
0.0162675
0.0162674
0.0162674
0.0162674
0.0162673
0.0162673
0.0162672
0.0162672
0.0162672
0.0162368
0.0162368
0.0162368
0.0162368
0.0162367
0.0162367
0.0162367
0.0162367
0.0162366
0.0162366
0.0162366
0.0162366
0.0162365
0.0162365
0.0162365
0.0162364
0.0162364
0.0162364
0.0162364
0.0162363
0.0162363
0.0162363
0.0162363
0.0162362
0.0162362
0.0162362
0.0162361
0.0162361
0.0162361
0.0162361
0.016236
0.016236
0.016236
0.0162359
0.0162359
0.0162359
0.0162359
0.0162358
0.0162358
0.0162358
0.0162357
0.0162357
0.0162357
0.0162356
0.0162356
0.0162356
0.0162355
0.0162355
0.0162355
0.0162355
0.0162354
0.0162354
0.0162354
0.0162353
0.0162353
0.0162353
0.0162352
0.0162352
0.0162352
0.0162351
0.0162351
0.0162351
0.016235
0.016235
0.016235
0.0162349
0.0162349
0.0162349
0.0162348
0.0162348
0.0162348
0.0162347
0.0162347
0.0162347
0.0162346
0.0162346
0.0162345
0.0162345
0.0162345
0.0162344
0.0162344
0.0162344
0.0162343
0.0162343
0.0162343
0.0162342
0.0162342
0.0162341
0.0162341
0.0162341
0.016234
0.016234
0.016234
0.0162339
0.0162339
0.0162338
0.0162338
0.0162338
0.0162337
0.0162337
0.0162337
0.0162336
0.0162336
0.0162335
0.0162335
0.0162335
0.0162334
0.0162334
0.0162333
0.0162333
0.0162007
0.0162007
0.0162007
0.0162007
0.0162007
0.0162007
0.0162008
0.0162008
0.0162008
0.0162008
0.0162008
0.0162008
0.0162009
0.0162009
0.0162009
0.0162009
0.016201
0.016201
0.016201
0.016201
0.016201
0.0162011
0.0162011
0.0162011
0.0162011
0.0162011
0.0162012
0.0162012
0.0162012
0.0162012
0.0162012
0.0162013
0.0162013
0.0162013
0.0162013
0.0162014
0.0162014
0.0162014
0.0162014
0.0162014
0.0162015
0.0162015
0.0162015
0.0162015
0.0162015
0.0162016
0.0162016
0.0162016
0.0162016
0.0162016
0.0162017
0.0162017
0.0162017
0.0162017
0.0162017
0.0162018
0.0162018
0.0162018
0.0162018
0.0162018
0.0162019
0.0162019
0.0162019
0.0162019
0.0162019
0.016202
0.016202
0.016202
0.016202
0.016202
0.0162021
0.0162021
0.0162021
0.0162021
0.0162021
0.0162022
0.0162022
0.0162022
0.0162022
0.0162022
0.0162023
0.0162023
0.0162023
0.0162023
0.0162023
0.0162023
0.0162024
0.0162024
0.0162024
0.0162024
0.0162024
0.0162025
0.0162025
0.0162025
0.0162025
0.0162025
0.0162025
0.0162026
0.0162026
0.0162026
0.0162026
0.0162026
0.0162027
0.0162027
0.0162027
0.0162027
0.0162027
0.0162027
0.0162028
0.0162028
0.0161658
0.0161658
0.0161658
0.0161658
0.0161658
0.0161658
0.0161658
0.0161659
0.0161659
0.0161659
0.0161659
0.016166
0.016166
0.016166
0.016166
0.0161661
0.0161661
0.0161661
0.0161661
0.0161662
0.0161662
0.0161662
0.0161662
0.0161663
0.0161663
0.0161663
0.0161663
0.0161664
0.0161664
0.0161664
0.0161664
0.0161665
0.0161665
0.0161665
0.0161665
0.0161666
0.0161666
0.0161666
0.0161667
0.0161667
0.0161667
0.0161667
0.0161668
0.0161668
0.0161668
0.0161668
0.0161669
0.0161669
0.0161669
0.0161669
0.016167
0.016167
0.016167
0.016167
0.016167
0.0161671
0.0161671
0.0161671
0.0161671
0.0161672
0.0161672
0.0161672
0.0161672
0.0161673
0.0161673
0.0161673
0.0161673
0.0161674
0.0161674
0.0161674
0.0161674
0.0161674
0.0161675
0.0161675
0.0161675
0.0161675
0.0161676
0.0161676
0.0161676
0.0161676
0.0161676
0.0161677
0.0161677
0.0161677
0.0161677
0.0161677
0.0161678
0.0161678
0.0161678
0.0161678
0.0161679
0.0161679
0.0161679
0.0161679
0.0161679
0.016168
0.016168
0.016168
0.016168
0.016168
0.0161681
0.0161681
0.0161681
0.0161681
0.0161681
0.0161682
0.0161682
0.0161682
0.0161682
0.0161682
0.0161322
0.0161322
0.0161322
0.0161322
0.0161322
0.0161322
0.0161323
0.0161323
0.0161323
0.0161323
0.0161324
0.0161324
0.0161324
0.0161324
0.0161325
0.0161325
0.0161325
0.0161326
0.0161326
0.0161326
0.0161327
0.0161327
0.0161327
0.0161327
0.0161328
0.0161328
0.0161328
0.0161329
0.0161329
0.0161329
0.016133
0.016133
0.016133
0.0161331
0.0161331
0.0161331
0.0161331
0.0161332
0.0161332
0.0161332
0.0161333
0.0161333
0.0161333
0.0161334
0.0161334
0.0161334
0.0161334
0.0161335
0.0161335
0.0161335
0.0161336
0.0161336
0.0161336
0.0161336
0.0161337
0.0161337
0.0161337
0.0161338
0.0161338
0.0161338
0.0161338
0.0161339
0.0161339
0.0161339
0.016134
0.016134
0.016134
0.016134
0.0161341
0.0161341
0.0161341
0.0161342
0.0161342
0.0161342
0.0161342
0.0161343
0.0161343
0.0161343
0.0161343
0.0161344
0.0161344
0.0161344
0.0161345
0.0161345
0.0161345
0.0161345
0.0161346
0.0161346
0.0161346
0.0161346
0.0161347
0.0161347
0.0161347
0.0161347
0.0161348
0.0161348
0.0161348
0.0161348
0.0161349
0.0161349
0.0161349
0.0161349
0.016135
0.016135
0.016135
0.016135
0.0161351
0.0161351
0.0161351
0.0161351
0.0161001
0.0161001
0.0161001
0.0161001
0.0161002
0.0161002
0.0161002
0.0161002
0.0161003
0.0161003
0.0161003
0.0161004
0.0161004
0.0161005
0.0161005
0.0161005
0.0161006
0.0161006
0.0161006
0.0161007
0.0161007
0.0161007
0.0161008
0.0161008
0.0161009
0.0161009
0.0161009
0.016101
0.016101
0.0161011
0.0161011
0.0161011
0.0161012
0.0161012
0.0161012
0.0161013
0.0161013
0.0161013
0.0161014
0.0161014
0.0161015
0.0161015
0.0161015
0.0161016
0.0161016
0.0161016
0.0161017
0.0161017
0.0161018
0.0161018
0.0161018
0.0161019
0.0161019
0.0161019
0.016102
0.016102
0.016102
0.0161021
0.0161021
0.0161021
0.0161022
0.0161022
0.0161022
0.0161023
0.0161023
0.0161023
0.0161024
0.0161024
0.0161024
0.0161025
0.0161025
0.0161026
0.0161026
0.0161026
0.0161027
0.0161027
0.0161027
0.0161028
0.0161028
0.0161028
0.0161028
0.0161029
0.0161029
0.0161029
0.016103
0.016103
0.016103
0.0161031
0.0161031
0.0161031
0.0161032
0.0161032
0.0161032
0.0161033
0.0161033
0.0161033
0.0161034
0.0161034
0.0161034
0.0161035
0.0161035
0.0161035
0.0161035
0.0161036
0.0161036
0.0161036
0.0161037
0.0161037
0.0161037
0.0161038
0.0160658
0.0160658
0.0160658
0.0160658
0.0160659
0.0160659
0.0160659
0.016066
0.016066
0.0160661
0.0160661
0.0160661
0.0160662
0.0160662
0.0160663
0.0160663
0.0160664
0.0160664
0.0160664
0.0160665
0.0160665
0.0160666
0.0160666
0.0160667
0.0160667
0.0160668
0.0160668
0.0160668
0.0160669
0.0160669
0.016067
0.016067
0.0160671
0.0160671
0.0160672
0.0160672
0.0160672
0.0160673
0.0160673
0.0160674
0.0160674
0.0160675
0.0160675
0.0160675
0.0160676
0.0160676
0.0160677
0.0160677
0.0160678
0.0160678
0.0160678
0.0160679
0.0160679
0.016068
0.016068
0.0160681
0.0160681
0.0160681
0.0160682
0.0160682
0.0160683
0.0160683
0.0160683
0.0160684
0.0160684
0.0160685
0.0160685
0.0160685
0.0160686
0.0160686
0.0160687
0.0160687
0.0160687
0.0160688
0.0160688
0.0160689
0.0160689
0.0160689
0.016069
0.016069
0.016069
0.0160691
0.0160691
0.0160692
0.0160692
0.0160692
0.0160693
0.0160693
0.0160694
0.0160694
0.0160694
0.0160695
0.0160695
0.0160695
0.0160696
0.0160696
0.0160696
0.0160697
0.0160697
0.0160698
0.0160698
0.0160698
0.0160699
0.0160699
0.0160699
0.01607
0.01607
0.01607
0.0160701
0.0160701
0.0160291
0.0160291
0.0160291
0.0160292
0.0160292
0.0160292
0.0160293
0.0160293
0.0160294
0.0160294
0.0160295
0.0160295
0.0160296
0.0160296
0.0160297
0.0160297
0.0160298
0.0160298
0.0160299
0.0160299
0.01603
0.01603
0.0160301
0.0160301
0.0160302
0.0160302
0.0160303
0.0160303
0.0160304
0.0160304
0.0160305
0.0160305
0.0160306
0.0160306
0.0160307
0.0160308
0.0160308
0.0160309
0.0160309
0.016031
0.016031
0.0160311
0.0160311
0.0160312
0.0160312
0.0160313
0.0160313
0.0160314
0.0160314
0.0160315
0.0160315
0.0160316
0.0160316
0.0160317
0.0160317
0.0160318
0.0160318
0.0160319
0.0160319
0.016032
0.016032
0.016032
0.0160321
0.0160321
0.0160322
0.0160322
0.0160323
0.0160323
0.0160324
0.0160324
0.0160325
0.0160325
0.0160326
0.0160326
0.0160327
0.0160327
0.0160328
0.0160328
0.0160328
0.0160329
0.0160329
0.016033
0.016033
0.0160331
0.0160331
0.0160332
0.0160332
0.0160332
0.0160333
0.0160333
0.0160334
0.0160334
0.0160335
0.0160335
0.0160336
0.0160336
0.0160336
0.0160337
0.0160337
0.0160338
0.0160338
0.0160338
0.0160339
0.0160339
0.016034
0.016034
0.0160341
0.0160341
0.0160341
0.0160342
0.0159891
0.0159891
0.0159891
0.0159892
0.0159892
0.0159893
0.0159893
0.0159894
0.0159894
0.0159895
0.0159895
0.0159896
0.0159896
0.0159897
0.0159898
0.0159898
0.0159899
0.0159899
0.01599
0.0159901
0.0159901
0.0159902
0.0159902
0.0159903
0.0159904
0.0159904
0.0159905
0.0159906
0.0159906
0.0159907
0.0159907
0.0159908
0.0159909
0.0159909
0.015991
0.015991
0.0159911
0.0159912
0.0159912
0.0159913
0.0159913
0.0159914
0.0159915
0.0159915
0.0159916
0.0159916
0.0159917
0.0159918
0.0159918
0.0159919
0.0159919
0.015992
0.015992
0.0159921
0.0159922
0.0159922
0.0159923
0.0159923
0.0159924
0.0159924
0.0159925
0.0159926
0.0159926
0.0159927
0.0159927
0.0159928
0.0159928
0.0159929
0.0159929
0.015993
0.015993
0.0159931
0.0159932
0.0159932
0.0159933
0.0159933
0.0159934
0.0159934
0.0159935
0.0159935
0.0159936
0.0159936
0.0159937
0.0159937
0.0159938
0.0159938
0.0159939
0.0159939
0.015994
0.015994
0.0159941
0.0159941
0.0159942
0.0159942
0.0159943
0.0159943
0.0159944
0.0159944
0.0159945
0.0159945
0.0159946
0.0159946
0.0159947
0.0159947
0.0159948
0.0159948
0.0159949
0.0159949
0.015995
0.015995
0.0159459
0.0159459
0.0159459
0.0159459
0.015946
0.015946
0.0159461
0.0159462
0.0159462
0.0159463
0.0159463
0.0159464
0.0159465
0.0159466
0.0159466
0.0159467
0.0159468
0.0159468
0.0159469
0.015947
0.0159471
0.0159471
0.0159472
0.0159473
0.0159473
0.0159474
0.0159475
0.0159476
0.0159476
0.0159477
0.0159478
0.0159478
0.0159479
0.015948
0.0159481
0.0159481
0.0159482
0.0159483
0.0159483
0.0159484
0.0159485
0.0159485
0.0159486
0.0159487
0.0159487
0.0159488
0.0159489
0.0159489
0.015949
0.0159491
0.0159492
0.0159492
0.0159493
0.0159494
0.0159494
0.0159495
0.0159496
0.0159496
0.0159497
0.0159497
0.0159498
0.0159499
0.0159499
0.01595
0.0159501
0.0159501
0.0159502
0.0159503
0.0159503
0.0159504
0.0159505
0.0159505
0.0159506
0.0159506
0.0159507
0.0159508
0.0159508
0.0159509
0.0159509
0.015951
0.0159511
0.0159511
0.0159512
0.0159512
0.0159513
0.0159514
0.0159514
0.0159515
0.0159515
0.0159516
0.0159517
0.0159517
0.0159518
0.0159518
0.0159519
0.015952
0.015952
0.0159521
0.0159521
0.0159522
0.0159522
0.0159523
0.0159523
0.0159524
0.0159525
0.0159525
0.0159526
0.0159526
0.0159527
0.0159527
0.0158987
0.0158987
0.0158987
0.0158988
0.0158988
0.0158989
0.0158989
0.015899
0.0158991
0.0158992
0.0158992
0.0158993
0.0158994
0.0158995
0.0158996
0.0158996
0.0158997
0.0158998
0.0158999
0.0159
0.0159001
0.0159001
0.0159002
0.0159003
0.0159004
0.0159005
0.0159006
0.0159006
0.0159007
0.0159008
0.0159009
0.015901
0.0159011
0.0159011
0.0159012
0.0159013
0.0159014
0.0159015
0.0159015
0.0159016
0.0159017
0.0159018
0.0159019
0.0159019
0.015902
0.0159021
0.0159022
0.0159023
0.0159023
0.0159024
0.0159025
0.0159026
0.0159026
0.0159027
0.0159028
0.0159029
0.0159029
0.015903
0.0159031
0.0159032
0.0159032
0.0159033
0.0159034
0.0159035
0.0159035
0.0159036
0.0159037
0.0159038
0.0159038
0.0159039
0.015904
0.0159041
0.0159041
0.0159042
0.0159043
0.0159043
0.0159044
0.0159045
0.0159045
0.0159046
0.0159047
0.0159048
0.0159048
0.0159049
0.015905
0.015905
0.0159051
0.0159052
0.0159052
0.0159053
0.0159054
0.0159054
0.0159055
0.0159056
0.0159056
0.0159057
0.0159058
0.0159058
0.0159059
0.015906
0.015906
0.0159061
0.0159062
0.0159062
0.0159063
0.0159063
0.0159064
0.0159065
0.0159065
0.0159066
0.0158471
0.0158471
0.0158471
0.0158472
0.0158472
0.0158473
0.0158474
0.0158475
0.0158476
0.0158476
0.0158477
0.0158478
0.0158479
0.015848
0.0158481
0.0158482
0.0158483
0.0158484
0.0158485
0.0158486
0.0158487
0.0158488
0.0158489
0.015849
0.0158491
0.0158492
0.0158493
0.0158494
0.0158495
0.0158495
0.0158496
0.0158497
0.0158498
0.0158499
0.01585
0.0158501
0.0158502
0.0158503
0.0158504
0.0158505
0.0158506
0.0158507
0.0158508
0.0158509
0.0158509
0.015851
0.0158511
0.0158512
0.0158513
0.0158514
0.0158515
0.0158516
0.0158517
0.0158517
0.0158518
0.0158519
0.015852
0.0158521
0.0158522
0.0158523
0.0158524
0.0158524
0.0158525
0.0158526
0.0158527
0.0158528
0.0158529
0.0158529
0.015853
0.0158531
0.0158532
0.0158533
0.0158534
0.0158534
0.0158535
0.0158536
0.0158537
0.0158538
0.0158538
0.0158539
0.015854
0.0158541
0.0158542
0.0158542
0.0158543
0.0158544
0.0158545
0.0158545
0.0158546
0.0158547
0.0158548
0.0158549
0.0158549
0.015855
0.0158551
0.0158552
0.0158552
0.0158553
0.0158554
0.0158554
0.0158555
0.0158556
0.0158557
0.0158557
0.0158558
0.0158559
0.015856
0.015856
0.0158561
0.0158562
0.0157902
0.0157902
0.0157902
0.0157903
0.0157903
0.0157904
0.0157905
0.0157906
0.0157907
0.0157908
0.0157909
0.015791
0.0157912
0.0157913
0.0157914
0.0157915
0.0157916
0.0157917
0.0157918
0.0157919
0.015792
0.0157921
0.0157923
0.0157924
0.0157925
0.0157926
0.0157927
0.0157928
0.0157929
0.015793
0.0157931
0.0157932
0.0157934
0.0157935
0.0157936
0.0157937
0.0157938
0.0157939
0.015794
0.0157941
0.0157942
0.0157943
0.0157944
0.0157945
0.0157946
0.0157947
0.0157948
0.0157949
0.015795
0.0157951
0.0157952
0.0157953
0.0157954
0.0157955
0.0157956
0.0157957
0.0157958
0.0157959
0.015796
0.0157961
0.0157962
0.0157963
0.0157964
0.0157965
0.0157966
0.0157967
0.0157968
0.0157969
0.015797
0.0157971
0.0157972
0.0157973
0.0157974
0.0157975
0.0157976
0.0157976
0.0157977
0.0157978
0.0157979
0.015798
0.0157981
0.0157982
0.0157983
0.0157984
0.0157985
0.0157985
0.0157986
0.0157987
0.0157988
0.0157989
0.015799
0.0157991
0.0157992
0.0157992
0.0157993
0.0157994
0.0157995
0.0157996
0.0157997
0.0157997
0.0157998
0.0157999
0.0158
0.0158001
0.0158001
0.0158002
0.0158003
0.0158004
0.0158005
0.0158005
0.0157272
0.0157271
0.0157272
0.0157272
0.0157273
0.0157274
0.0157275
0.0157276
0.0157278
0.0157279
0.015728
0.0157281
0.0157283
0.0157284
0.0157285
0.0157286
0.0157288
0.0157289
0.015729
0.0157291
0.0157293
0.0157294
0.0157295
0.0157297
0.0157298
0.0157299
0.01573
0.0157302
0.0157303
0.0157304
0.0157305
0.0157307
0.0157308
0.0157309
0.015731
0.0157312
0.0157313
0.0157314
0.0157315
0.0157316
0.0157318
0.0157319
0.015732
0.0157321
0.0157322
0.0157323
0.0157325
0.0157326
0.0157327
0.0157328
0.0157329
0.015733
0.0157332
0.0157333
0.0157334
0.0157335
0.0157336
0.0157337
0.0157338
0.0157339
0.0157341
0.0157342
0.0157343
0.0157344
0.0157345
0.0157346
0.0157347
0.0157348
0.0157349
0.015735
0.0157351
0.0157352
0.0157353
0.0157355
0.0157356
0.0157357
0.0157358
0.0157359
0.015736
0.0157361
0.0157362
0.0157363
0.0157364
0.0157365
0.0157366
0.0157367
0.0157368
0.0157369
0.015737
0.0157371
0.0157372
0.0157372
0.0157373
0.0157374
0.0157375
0.0157376
0.0157377
0.0157378
0.0157379
0.015738
0.0157381
0.0157382
0.0157383
0.0157384
0.0157385
0.0157385
0.0157386
0.0157387
0.0157388
0.0157389
0.015657
0.015657
0.015657
0.015657
0.0156571
0.0156572
0.0156574
0.0156575
0.0156576
0.0156578
0.0156579
0.0156581
0.0156582
0.0156584
0.0156585
0.0156587
0.0156588
0.015659
0.0156591
0.0156592
0.0156594
0.0156595
0.0156597
0.0156598
0.01566
0.0156601
0.0156603
0.0156604
0.0156605
0.0156607
0.0156608
0.015661
0.0156611
0.0156613
0.0156614
0.0156615
0.0156617
0.0156618
0.0156619
0.0156621
0.0156622
0.0156624
0.0156625
0.0156626
0.0156628
0.0156629
0.015663
0.0156632
0.0156633
0.0156634
0.0156635
0.0156637
0.0156638
0.0156639
0.0156641
0.0156642
0.0156643
0.0156644
0.0156646
0.0156647
0.0156648
0.0156649
0.0156651
0.0156652
0.0156653
0.0156654
0.0156655
0.0156657
0.0156658
0.0156659
0.015666
0.0156661
0.0156663
0.0156664
0.0156665
0.0156666
0.0156667
0.0156668
0.015667
0.0156671
0.0156672
0.0156673
0.0156674
0.0156675
0.0156676
0.0156677
0.0156678
0.015668
0.0156681
0.0156682
0.0156683
0.0156684
0.0156685
0.0156686
0.0156687
0.0156688
0.0156689
0.015669
0.0156691
0.0156692
0.0156693
0.0156694
0.0156695
0.0156696
0.0156697
0.0156698
0.0156699
0.01567
0.0156701
0.0156702
0.0155787
0.0155787
0.0155787
0.0155788
0.0155789
0.015579
0.0155791
0.0155793
0.0155794
0.0155796
0.0155798
0.0155799
0.0155801
0.0155803
0.0155805
0.0155806
0.0155808
0.015581
0.0155811
0.0155813
0.0155815
0.0155816
0.0155818
0.015582
0.0155821
0.0155823
0.0155825
0.0155826
0.0155828
0.0155829
0.0155831
0.0155833
0.0155834
0.0155836
0.0155837
0.0155839
0.015584
0.0155842
0.0155844
0.0155845
0.0155847
0.0155848
0.015585
0.0155851
0.0155853
0.0155854
0.0155856
0.0155857
0.0155859
0.015586
0.0155862
0.0155863
0.0155865
0.0155866
0.0155867
0.0155869
0.015587
0.0155872
0.0155873
0.0155874
0.0155876
0.0155877
0.0155879
0.015588
0.0155881
0.0155883
0.0155884
0.0155885
0.0155887
0.0155888
0.0155889
0.0155891
0.0155892
0.0155893
0.0155895
0.0155896
0.0155897
0.0155898
0.01559
0.0155901
0.0155902
0.0155903
0.0155905
0.0155906
0.0155907
0.0155908
0.015591
0.0155911
0.0155912
0.0155913
0.0155914
0.0155916
0.0155917
0.0155918
0.0155919
0.015592
0.0155921
0.0155922
0.0155924
0.0155925
0.0155926
0.0155927
0.0155928
0.0155929
0.015593
0.0155931
0.0155932
0.0155933
0.0155934
0.0155935
0.0154915
0.0154915
0.0154915
0.0154915
0.0154916
0.0154918
0.0154919
0.0154921
0.0154923
0.0154925
0.0154926
0.0154928
0.015493
0.0154932
0.0154934
0.0154936
0.0154938
0.015494
0.0154942
0.0154944
0.0154946
0.0154948
0.015495
0.0154951
0.0154953
0.0154955
0.0154957
0.0154959
0.0154961
0.0154963
0.0154964
0.0154966
0.0154968
0.015497
0.0154971
0.0154973
0.0154975
0.0154977
0.0154978
0.015498
0.0154982
0.0154984
0.0154985
0.0154987
0.0154989
0.015499
0.0154992
0.0154994
0.0154995
0.0154997
0.0154999
0.0155
0.0155002
0.0155004
0.0155005
0.0155007
0.0155008
0.015501
0.0155011
0.0155013
0.0155015
0.0155016
0.0155018
0.0155019
0.0155021
0.0155022
0.0155024
0.0155025
0.0155027
0.0155028
0.015503
0.0155031
0.0155032
0.0155034
0.0155035
0.0155037
0.0155038
0.015504
0.0155041
0.0155042
0.0155044
0.0155045
0.0155046
0.0155048
0.0155049
0.015505
0.0155052
0.0155053
0.0155054
0.0155056
0.0155057
0.0155058
0.015506
0.0155061
0.0155062
0.0155063
0.0155065
0.0155066
0.0155067
0.0155068
0.0155069
0.0155071
0.0155072
0.0155073
0.0155074
0.0155075
0.0155076
0.0155078
0.0155079
0.015508
0.0153944
0.0153944
0.0153944
0.0153944
0.0153945
0.0153947
0.0153948
0.015395
0.0153952
0.0153954
0.0153957
0.0153959
0.0153961
0.0153963
0.0153965
0.0153967
0.015397
0.0153972
0.0153974
0.0153976
0.0153978
0.0153981
0.0153983
0.0153985
0.0153987
0.0153989
0.0153991
0.0153993
0.0153995
0.0153997
0.0153999
0.0154001
0.0154003
0.0154005
0.0154007
0.0154009
0.0154011
0.0154013
0.0154015
0.0154017
0.0154019
0.0154021
0.0154023
0.0154025
0.0154027
0.0154029
0.0154031
0.0154032
0.0154034
0.0154036
0.0154038
0.015404
0.0154041
0.0154043
0.0154045
0.0154047
0.0154048
0.015405
0.0154052
0.0154054
0.0154055
0.0154057
0.0154059
0.015406
0.0154062
0.0154064
0.0154065
0.0154067
0.0154069
0.015407
0.0154072
0.0154074
0.0154075
0.0154077
0.0154078
0.015408
0.0154081
0.0154083
0.0154084
0.0154086
0.0154087
0.0154089
0.015409
0.0154092
0.0154093
0.0154095
0.0154096
0.0154098
0.0154099
0.01541
0.0154102
0.0154103
0.0154105
0.0154106
0.0154107
0.0154109
0.015411
0.0154111
0.0154113
0.0154114
0.0154115
0.0154117
0.0154118
0.0154119
0.015412
0.0154122
0.0154123
0.0154124
0.0154125
0.0154126
0.0152866
0.0152865
0.0152865
0.0152865
0.0152866
0.0152868
0.015287
0.0152872
0.0152874
0.0152876
0.0152879
0.0152881
0.0152884
0.0152886
0.0152889
0.0152891
0.0152893
0.0152896
0.0152898
0.0152901
0.0152903
0.0152906
0.0152908
0.015291
0.0152913
0.0152915
0.0152917
0.015292
0.0152922
0.0152924
0.0152927
0.0152929
0.0152931
0.0152934
0.0152936
0.0152938
0.015294
0.0152942
0.0152945
0.0152947
0.0152949
0.0152951
0.0152953
0.0152955
0.0152957
0.015296
0.0152962
0.0152964
0.0152966
0.0152968
0.015297
0.0152972
0.0152974
0.0152976
0.0152978
0.0152979
0.0152981
0.0152983
0.0152985
0.0152987
0.0152989
0.0152991
0.0152993
0.0152995
0.0152996
0.0152998
0.0153
0.0153002
0.0153004
0.0153005
0.0153007
0.0153009
0.015301
0.0153012
0.0153014
0.0153016
0.0153017
0.0153019
0.0153021
0.0153022
0.0153024
0.0153025
0.0153027
0.0153029
0.015303
0.0153032
0.0153033
0.0153035
0.0153036
0.0153038
0.0153039
0.0153041
0.0153042
0.0153044
0.0153045
0.0153047
0.0153048
0.0153049