/*--------------------------------*- C++ -*----------------------------------*\
  =========                 |
  \\      /  F ield         | OpenFOAM: The Open Source CFD Toolbox
   \\    /   O peration     | Website:  https://openfoam.org
    \\  /    A nd           | Version:  9
     \\/     M anipulation  |
\*---------------------------------------------------------------------------*/
FoamFile
{
    format      ascii;
    class       volVectorField;
    location    "0.0075";
    object      U;
}
// * * * * * * * * * * * * * * * * * * * * * * * * * * * * * * * * * * * * * //

dimensions      [0 1 -1 0 0 0 0];

internalField   nonuniform List<vector> 
7168
(
(25.3234 -2.00713 1.74071e-21)
(25.1468 -1.88471 8.06492e-22)
(24.618 -1.89783 -7.50958e-22)
(24.618 -1.89748 0)
(24.618 -1.89722 1.39489e-22)
(24.618 -1.89695 1.39494e-22)
(24.6179 -1.89669 -1.39499e-22)
(24.6179 -1.89642 0)
(24.6179 -1.89616 -2.28575e-18)
(24.6179 -1.8959 4.57181e-18)
(24.6179 -1.89565 -2.28591e-18)
(24.6179 -1.89539 0)
(24.6178 -1.89513 -1.39528e-22)
(24.6178 -1.89487 -4.57228e-18)
(24.6178 -1.89462 4.57229e-18)
(24.6178 -1.89436 0)
(24.6178 -1.89411 4.57272e-18)
(24.6177 -1.89385 -4.573e-18)
(24.6177 -1.8936 1.39555e-22)
(24.6177 -1.89334 0)
(24.6177 -1.89309 4.57327e-18)
(24.6177 -1.89283 -4.57341e-18)
(24.6176 -1.89258 0)
(24.6176 -1.89233 1.39575e-22)
(24.6176 -1.89207 0)
(24.6176 -1.89182 -9.14786e-18)
(24.6176 -1.89156 9.14811e-18)
(24.6176 -1.89131 -9.14835e-18)
(24.6175 -1.89106 -2.80323e-26)
(24.6175 -1.8908 1.82977e-17)
(24.6175 -1.89055 -9.14921e-18)
(24.6175 -1.8903 0)
(24.6175 -1.89004 9.14953e-18)
(24.6174 -1.88979 -1.82996e-17)
(24.6174 -1.88953 9.14997e-18)
(24.6174 -1.88928 0)
(24.6174 -1.88903 -9.15039e-18)
(24.6174 -1.88877 1.83011e-17)
(24.6174 -1.88852 2.64866e-26)
(24.6173 -1.88827 1.39657e-22)
(24.6173 -1.88801 -1.39608e-22)
(24.6173 -1.88776 -1.39611e-22)
(24.6173 -1.8875 2.58492e-26)
(24.6173 -1.88725 -9.15184e-18)
(24.6172 -1.887 1.83039e-17)
(24.6172 -1.88674 -1.83042e-17)
(24.6172 -1.88649 -6.98254e-23)
(24.6172 -1.88624 -1.83049e-17)
(24.6172 -1.88598 3.66105e-17)
(24.6172 -1.88573 4.95707e-26)
(24.6171 -1.88547 -1.83059e-17)
(24.6171 -1.88522 1.83062e-17)
(24.6171 -1.88497 -1.83066e-17)
(24.6171 -1.88471 0)
(24.6171 -1.88446 -6.98349e-23)
(24.6171 -1.88421 1.83074e-17)
(24.617 -1.88395 -3.66153e-17)
(24.617 -1.8837 1.83079e-17)
(24.617 -1.88344 -1.83081e-17)
(24.617 -1.88319 1.83084e-17)
(24.617 -1.88294 -1.83086e-17)
(24.617 -1.88268 6.97959e-23)
(24.6169 -1.88243 1.83091e-17)
(24.6169 -1.88217 -1.83092e-17)
(24.6169 -1.88192 1.83095e-17)
(24.6169 -1.88167 1.83097e-17)
(24.6169 -1.88141 -3.66197e-17)
(24.6168 -1.88116 1.83101e-17)
(24.6168 -1.88091 0)
(24.6168 -1.88065 0)
(24.6168 -1.8804 0)
(24.6168 -1.88014 1.83107e-17)
(24.6168 -1.87989 -3.66218e-17)
(24.6167 -1.87964 -3.4967e-23)
(24.6167 -1.87938 1.83112e-17)
(24.6167 -1.87913 0)
(24.6167 -1.87888 0)
(24.6167 -1.87862 1.83115e-17)
(24.6167 -1.87837 3.49666e-23)
(24.6167 -1.87811 -1.83117e-17)
(24.6166 -1.87786 0)
(24.6166 -1.87761 0)
(24.6166 -1.87735 0)
(24.6166 -1.8771 0)
(24.6166 -1.87684 -3.6624e-17)
(24.6166 -1.87659 -7.64379e-26)
(24.6165 -1.87634 3.66242e-17)
(24.6165 -1.87608 -1.74635e-23)
(24.6165 -1.87583 0)
(24.6165 -1.87558 0)
(24.6165 -1.87532 0)
(24.6165 -1.87507 0)
(24.6164 -1.87481 0)
(25.1471 -1.8843 0)
(25.1471 -1.88396 -1.55066e-22)
(25.1472 -1.88363 1.2702e-18)
(25.1473 -1.8833 4.6524e-22)
(25.1474 -1.88297 -1.27019e-18)
(25.1475 -1.88264 -3.10189e-22)
(25.1476 -1.88232 -1.5511e-22)
(25.1477 -1.882 0)
(25.1478 -1.88167 2.54156e-18)
(25.1479 -1.88135 -2.54154e-18)
(25.148 -1.88103 0)
(25.1481 -1.88072 -5.08376e-18)
(25.1482 -1.8804 5.08418e-18)
(25.1484 -1.88008 0)
(25.1485 -1.87976 1.55175e-22)
(25.1486 -1.87944 -1.55182e-22)
(25.1487 -1.87912 -3.10365e-22)
(25.1488 -1.87881 -5.08512e-18)
(25.1489 -1.87849 5.08567e-18)
(25.149 -1.87817 0)
(25.1491 -1.87786 -1.55219e-22)
(25.1492 -1.87754 0)
(25.1493 -1.87722 0)
(25.1494 -1.8769 -1.0174e-17)
(25.1495 -1.87659 2.03479e-17)
(25.1496 -1.87627 -1.01745e-17)
(25.1497 -1.87595 0)
(25.1498 -1.87564 1.01755e-17)
(25.1499 -1.87532 -1.01758e-17)
(25.15 -1.875 3.10544e-22)
(25.1501 -1.87468 -1.55271e-22)
(25.1502 -1.87437 0)
(25.1503 -1.87405 1.01777e-17)
(25.1504 -1.87373 -1.01781e-17)
(25.1505 -1.87341 1.55309e-22)
(25.1506 -1.8731 1.01783e-17)
(25.1507 -1.87278 -1.01791e-17)
(25.1508 -1.87246 1.01794e-17)
(25.1509 -1.87214 -2.03594e-17)
(25.151 -1.87183 1.01803e-17)
(25.1511 -1.87151 3.8834e-22)
(25.1512 -1.87119 1.5534e-22)
(25.1513 -1.87087 1.55345e-22)
(25.1514 -1.87055 -7.76711e-23)
(25.1515 -1.87024 0)
(25.1516 -1.86992 0)
(25.1518 -1.8696 -2.03646e-17)
(25.1519 -1.86928 4.073e-17)
(25.152 -1.86896 -4.07315e-17)
(25.1521 -1.86864 4.07325e-17)
(25.1522 -1.86833 -2.03668e-17)
(25.1523 -1.86801 -7.7689e-23)
(25.1524 -1.86769 1.55389e-22)
(25.1525 -1.86737 2.03682e-17)
(25.1526 -1.86705 -2.03689e-17)
(25.1527 -1.86673 0)
(25.1528 -1.86641 -1.55405e-22)
(25.1529 -1.86609 1.55408e-22)
(25.153 -1.86578 2.03707e-17)
(25.1531 -1.86546 -2.03713e-17)
(25.1532 -1.86514 -2.03717e-17)
(25.1533 -1.86482 4.07441e-17)
(25.1534 -1.8645 -2.03723e-17)
(25.1536 -1.86418 -7.77173e-23)
(25.1537 -1.86386 -2.03732e-17)
(25.1538 -1.86354 4.07471e-17)
(25.1539 -1.86322 -2.03739e-17)
(25.154 -1.8629 0)
(25.1541 -1.86258 -7.77203e-23)
(25.1542 -1.86226 2.03748e-17)
(25.1543 -1.86194 -2.03751e-17)
(25.1544 -1.86162 -7.77237e-23)
(25.1545 -1.8613 0)
(25.1546 -1.86098 0)
(25.1547 -1.86067 3.88651e-23)
(25.1548 -1.86035 -3.88656e-23)
(25.1549 -1.86003 2.03767e-17)
(25.1551 -1.85971 -2.03768e-17)
(25.1552 -1.85939 0)
(25.1553 -1.85906 0)
(25.1554 -1.85874 2.03773e-17)
(25.1555 -1.85842 -2.03776e-17)
(25.1556 -1.8581 0)
(25.1557 -1.85778 -3.88664e-23)
(25.1558 -1.85746 1.94342e-23)
(25.1559 -1.85714 3.88668e-23)
(25.156 -1.85682 0)
(25.1561 -1.8565 0)
(25.1562 -1.85617 1.94336e-23)
(25.1564 -1.85585 0)
(25.3236 -2.00675 0)
(25.3236 -2.00643 0)
(25.3237 -2.00611 -7.07277e-19)
(25.3237 -2.00579 2.11957e-18)
(25.3237 -2.00547 -2.82709e-18)
(25.3238 -2.00515 1.41382e-18)
(25.3238 -2.00483 -2.82714e-18)
(25.3239 -2.00451 2.82733e-18)
(25.3239 -2.00419 0)
(25.324 -2.00387 0)
(25.324 -2.00355 -6.90394e-22)
(25.3241 -2.00323 2.82808e-18)
(25.3241 -2.00291 -5.65653e-18)
(25.3241 -2.00259 2.82914e-18)
(25.3242 -2.00227 0)
(25.3242 -2.00195 6.90613e-22)
(25.3243 -2.00164 3.45344e-22)
(25.3243 -2.00132 3.45333e-22)
(25.3244 -2.001 5.65862e-18)
(25.3244 -2.00068 -5.65895e-18)
(25.3245 -2.00036 5.65928e-18)
(25.3245 -2.00004 -5.6596e-18)
(25.3245 -1.99972 0)
(25.3246 -1.9994 3.45484e-22)
(25.3246 -1.99908 3.45502e-22)
(25.3247 -1.99877 -5.66085e-18)
(25.3247 -1.99845 5.66115e-18)
(25.3248 -1.99813 -1.13225e-17)
(25.3248 -1.99781 1.13238e-17)
(25.3249 -1.99749 -3.45593e-22)
(25.3249 -1.99717 1.59514e-26)
(25.325 -1.99686 -1.13252e-17)
(25.325 -1.99654 1.13257e-17)
(25.325 -1.99622 3.4566e-22)
(25.3251 -1.9959 0)
(25.3251 -1.99558 -1.13269e-17)
(25.3252 -1.99527 1.13278e-17)
(25.3252 -1.99495 0)
(25.3253 -1.99463 3.45737e-22)
(25.3253 -1.99431 -3.45752e-22)
(25.3254 -1.994 -1.59607e-26)
(25.3254 -1.99368 -1.7289e-22)
(25.3255 -1.99336 1.72881e-22)
(25.3255 -1.99304 -1.13309e-17)
(25.3256 -1.99273 1.13315e-17)
(25.3256 -1.99241 0)
(25.3257 -1.99209 1.72924e-22)
(25.3257 -1.99177 1.7293e-22)
(25.3258 -1.99146 1.72936e-22)
(25.3258 -1.99114 3.45868e-22)
(25.3259 -1.99082 0)
(25.3259 -1.99051 1.72953e-22)
(25.3259 -1.99019 -5.18861e-22)
(25.326 -1.98987 1.72964e-22)
(25.326 -1.98956 0)
(25.3261 -1.98924 0)
(25.3261 -1.98892 -2.26716e-17)
(25.3262 -1.98861 4.53456e-17)
(25.3262 -1.98829 -2.18562e-25)
(25.3263 -1.98797 -4.53475e-17)
(25.3263 -1.98766 2.26747e-17)
(25.3264 -1.98734 0)
(25.3264 -1.98702 -1.73007e-22)
(25.3265 -1.98671 0)
(25.3265 -1.98639 0)
(25.3266 -1.98608 0)
(25.3266 -1.98576 0)
(25.3267 -1.98545 -2.2678e-17)
(25.3267 -1.98513 8.67418e-23)
(25.3268 -1.98481 2.2679e-17)
(25.3268 -1.9845 -2.26791e-17)
(25.3269 -1.98418 2.26799e-17)
(25.3269 -1.98387 -2.26798e-17)
(25.327 -1.98355 4.53607e-17)
(25.327 -1.98324 -2.33524e-25)
(25.3271 -1.98292 -2.34489e-25)
(25.3271 -1.98261 -2.35594e-25)
(25.3272 -1.98229 -4.53631e-17)
(25.3272 -1.98198 2.26818e-17)
(25.3273 -1.98166 0)
(25.3273 -1.98135 2.26823e-17)
(25.3274 -1.98103 -2.26824e-17)
(25.3274 -1.98072 0)
(25.3275 -1.9804 2.26827e-17)
(25.3275 -1.98009 -2.2683e-17)
(25.3276 -1.97977 4.32617e-23)
(25.3276 -1.97946 -2.26831e-17)
(25.3277 -1.97914 4.36466e-23)
(25.3277 -1.97883 4.53664e-17)
(25.3278 -1.97851 -3.96296e-17)
(25.4946 -1.9446 0)
(25.4946 -1.94419 -7.63817e-22)
(25.4946 -1.94379 -7.80711e-19)
(25.4947 -1.94339 7.81541e-19)
(25.4947 -1.943 -1.56474e-18)
(25.4947 -1.9426 1.56487e-18)
(25.4948 -1.94222 7.64136e-22)
(25.4948 -1.94183 -7.64198e-22)
(25.4949 -1.94144 0)
(25.4949 -1.94106 -3.13151e-18)
(25.4949 -1.94068 3.13175e-18)
(25.495 -1.94029 -7.64437e-22)
(25.495 -1.93991 3.1307e-18)
(25.495 -1.93953 -7.64594e-22)
(25.4951 -1.93915 -3.13193e-18)
(25.4951 -1.93877 -7.64699e-22)
(25.4952 -1.93839 0)
(25.4952 -1.93801 -7.64808e-22)
(25.4952 -1.93763 -6.26642e-18)
(25.4953 -1.93725 6.26609e-18)
(25.4953 -1.93687 -6.26575e-18)
(25.4954 -1.93649 6.26694e-18)
(25.4954 -1.93611 0)
(25.4954 -1.93573 6.26776e-18)
(25.4955 -1.93535 -6.26817e-18)
(25.4955 -1.93496 0)
(25.4956 -1.93458 -7.6523e-22)
(25.4956 -1.9342 -3.82656e-22)
(25.4956 -1.93382 -1.148e-21)
(25.4957 -1.93344 0)
(25.4957 -1.93306 -1.25405e-17)
(25.4958 -1.93268 1.25417e-17)
(25.4958 -1.9323 -3.82768e-22)
(25.4959 -1.93192 0)
(25.4959 -1.93153 0)
(25.4959 -1.93115 0)
(25.496 -1.93077 7.65668e-22)
(25.496 -1.93039 7.65708e-22)
(25.4961 -1.93001 7.65747e-22)
(25.4961 -1.92962 -1.2547e-17)
(25.4961 -1.92924 1.25472e-17)
(25.4962 -1.92886 1.25475e-17)
(25.4962 -1.92848 -5.98394e-26)
(25.4963 -1.92809 -1.2549e-17)
(25.4963 -1.92771 -1.25503e-17)
(25.4964 -1.92733 3.83043e-22)
(25.4964 -1.92694 1.25511e-17)
(25.4964 -1.92656 3.83033e-22)
(25.4965 -1.92618 -3.83048e-22)
(25.4965 -1.92579 -3.83081e-22)
(25.4966 -1.92541 1.25531e-17)
(25.4966 -1.92503 -2.51068e-17)
(25.4967 -1.92464 1.25545e-17)
(25.4967 -1.92426 0)
(25.4967 -1.92387 -3.83136e-22)
(25.4968 -1.92349 0)
(25.4968 -1.92311 -3.83179e-22)
(25.4969 -1.92272 -1.74498e-26)
(25.4969 -1.92234 0)
(25.497 -1.92195 -1.25576e-17)
(25.497 -1.92157 -1.2558e-17)
(25.4971 -1.92118 2.51155e-17)
(25.4971 -1.9208 2.51162e-17)
(25.4971 -1.92041 -5.02338e-17)
(25.4972 -1.92003 5.02351e-17)
(25.4972 -1.91964 -5.0236e-17)
(25.4973 -1.91926 5.02379e-17)
(25.4973 -1.91887 3.83173e-22)
(25.4974 -1.91848 -2.51199e-17)
(25.4974 -1.9181 1.91648e-22)
(25.4975 -1.91771 2.51208e-17)
(25.4975 -1.91733 -2.51216e-17)
(25.4976 -1.91694 -1.91668e-22)
(25.4976 -1.91655 2.51223e-17)
(25.4976 -1.91617 -2.51227e-17)
(25.4977 -1.91578 -2.51233e-17)
(25.4977 -1.91539 2.51235e-17)
(25.4978 -1.915 2.5124e-17)
(25.4978 -1.91462 -2.51241e-17)
(25.4979 -1.91423 2.51244e-17)
(25.4979 -1.91384 -2.51247e-17)
(25.498 -1.91346 -2.51251e-17)
(25.498 -1.91307 2.51252e-17)
(25.4981 -1.91268 -2.51253e-17)
(25.4981 -1.91229 2.51257e-17)
(25.4982 -1.9119 -1.91692e-22)
(25.4982 -1.91152 -9.58442e-23)
(25.4983 -1.91113 2.51259e-17)
(25.4983 -1.91074 -2.51259e-17)
(25.4984 -1.91033 4.36703e-17)
(25.6276 -2.04388 2.27995e-19)
(25.6276 -2.04349 -6.46837e-19)
(25.6277 -2.0431 4.30986e-19)
(25.6278 -2.04271 8.64584e-19)
(25.6279 -2.04232 -8.63823e-19)
(25.628 -2.04192 -1.72949e-18)
(25.628 -2.04153 1.72544e-18)
(25.6281 -2.04113 -1.72728e-18)
(25.6282 -2.04073 5.18484e-18)
(25.6283 -2.04034 -3.45771e-18)
(25.6284 -2.03994 -3.45718e-18)
(25.6285 -2.03954 3.45832e-18)
(25.6286 -2.03915 1.68838e-21)
(25.6286 -2.03875 3.45722e-18)
(25.6287 -2.03835 -3.45836e-18)
(25.6288 -2.03795 0)
(25.6289 -2.03755 0)
(25.629 -2.03716 0)
(25.6291 -2.03676 8.44624e-22)
(25.6292 -2.03636 0)
(25.6293 -2.03596 -6.92088e-18)
(25.6293 -2.03557 1.38411e-17)
(25.6294 -2.03517 -1.22192e-25)
(25.6295 -2.03477 -1.3844e-17)
(25.6296 -2.03437 6.9221e-18)
(25.6297 -2.03398 -6.92345e-18)
(25.6298 -2.03358 1.3847e-17)
(25.6299 -2.03318 -6.92442e-18)
(25.63 -2.03278 8.45245e-22)
(25.6301 -2.03239 -6.92452e-18)
(25.6301 -2.03199 6.92498e-18)
(25.6302 -2.03159 -6.92543e-18)
(25.6303 -2.03119 6.92588e-18)
(25.6304 -2.0308 -8.45482e-22)
(25.6305 -2.0304 0)
(25.6306 -2.03 0)
(25.6307 -2.0296 -1.69131e-21)
(25.6308 -2.02921 -8.45726e-22)
(25.6309 -2.02881 -3.9277e-26)
(25.631 -2.02841 1.38576e-17)
(25.631 -2.02802 -1.38583e-17)
(25.6311 -2.02762 1.69179e-21)
(25.6312 -2.02722 4.22941e-22)
(25.6313 -2.02683 4.22963e-22)
(25.6314 -2.02643 -4.22985e-22)
(25.6315 -2.02603 -4.23045e-22)
(25.6316 -2.02564 -8.46093e-22)
(25.6317 -2.02524 -4.23086e-22)
(25.6318 -2.02484 4.23106e-22)
(25.6319 -2.02445 -8.46211e-22)
(25.632 -2.02405 1.38652e-17)
(25.6321 -2.02366 -4.2343e-22)
(25.6322 -2.02326 -1.38672e-17)
(25.6322 -2.02286 0)
(25.6323 -2.02247 4.23215e-22)
(25.6324 -2.02207 0)
(25.6325 -2.02168 -1.38686e-17)
(25.6326 -2.02128 1.38691e-17)
(25.6327 -2.02088 0)
(25.6328 -2.02049 4.23293e-22)
(25.6329 -2.02009 4.23308e-22)
(25.633 -2.0197 4.23302e-22)
(25.6331 -2.0193 1.38714e-17)
(25.6332 -2.01891 -4.23604e-22)
(25.6333 -2.01851 -1.38727e-17)
(25.6334 -2.01812 -1.38731e-17)
(25.6335 -2.01772 1.38726e-17)
(25.6336 -2.01733 -4.23394e-22)
(25.6337 -2.01693 1.38737e-17)
(25.6338 -2.01654 -1.38739e-17)
(25.6339 -2.01614 -2.77488e-17)
(25.6339 -2.01575 5.64826e-25)
(25.634 -2.01535 5.54999e-17)
(25.6341 -2.01496 -5.6772e-25)
(25.6342 -2.01456 -2.7751e-17)
(25.6343 -2.01417 2.11733e-22)
(25.6344 -2.01377 2.77519e-17)
(25.6345 -2.01338 -5.55049e-17)
(25.6346 -2.01299 5.75313e-25)
(25.6347 -2.01259 5.55059e-17)
(25.6348 -2.0122 -5.55068e-17)
(25.6349 -2.0118 5.55076e-17)
(25.635 -2.01141 -2.77541e-17)
(25.6351 -2.01102 -1.05867e-22)
(25.6352 -2.01062 -2.77545e-17)
(25.6353 -2.01023 1.06439e-22)
(25.6354 -2.00983 2.77548e-17)
(25.6355 -2.00944 -1.05879e-22)
(25.6356 -2.00905 -5.29399e-23)
(25.6357 -2.00865 1.83128e-22)
(25.7834 -2.02849 -1.94387e-21)
(25.7834 -2.02801 -4.74774e-19)
(25.7835 -2.02754 4.74825e-19)
(25.7836 -2.02708 0)
(25.7837 -2.02662 1.8997e-18)
(25.7838 -2.02616 -1.89804e-18)
(25.7839 -2.0257 1.90195e-18)
(25.7839 -2.02524 -1.90214e-18)
(25.784 -2.02479 1.90047e-18)
(25.7841 -2.02433 -1.8988e-18)
(25.7842 -2.02388 -1.85624e-21)
(25.7843 -2.02343 0)
(25.7844 -2.02297 -9.28339e-22)
(25.7844 -2.02252 9.28427e-22)
(25.7845 -2.02207 0)
(25.7846 -2.02162 0)
(25.7847 -2.02117 0)
(25.7848 -2.02072 0)
(25.7849 -2.02026 -1.85761e-21)
(25.785 -2.01981 0)
(25.785 -2.01936 0)
(25.7851 -2.01891 -7.61092e-18)
(25.7852 -2.01846 7.61155e-18)
(25.7853 -2.01801 -9.29151e-22)
(25.7854 -2.01756 0)
(25.7855 -2.0171 9.29384e-22)
(25.7856 -2.01665 0)
(25.7857 -2.0162 9.29528e-22)
(25.7857 -2.01575 0)
(25.7858 -2.01529 0)
(25.7859 -2.01484 7.61627e-18)
(25.786 -2.01439 -7.61682e-18)
(25.7861 -2.01394 9.29826e-22)
(25.7862 -2.01348 9.29934e-22)
(25.7863 -2.01303 7.61748e-18)
(25.7864 -2.01258 -1.52378e-17)
(25.7865 -2.01213 7.62036e-18)
(25.7865 -2.01167 -7.61992e-18)
(25.7866 -2.01122 -9.30116e-22)
(25.7867 -2.01076 7.62088e-18)
(25.7868 -2.01031 0)
(25.7869 -2.00986 1.52427e-17)
(25.787 -2.0094 -1.52445e-17)
(25.7871 -2.00895 -9.3052e-22)
(25.7872 -2.0085 9.30573e-22)
(25.7873 -2.00804 -9.30581e-22)
(25.7874 -2.00759 9.30674e-22)
(25.7874 -2.00713 -9.30681e-22)
(25.7875 -2.00668 -9.30729e-22)
(25.7876 -2.00622 1.52512e-17)
(25.7877 -2.00577 -1.5251e-17)
(25.7878 -2.00531 9.30866e-22)
(25.7879 -2.00486 9.30952e-22)
(25.788 -2.0044 0)
(25.7881 -2.00395 9.30993e-22)
(25.7882 -2.00349 0)
(25.7883 -2.00304 1.52542e-17)
(25.7884 -2.00258 -1.52562e-17)
(25.7885 -2.00213 0)
(25.7886 -2.00167 0)
(25.7887 -2.00121 4.65609e-22)
(25.7887 -2.00076 -2.13183e-26)
(25.7888 -2.0003 0)
(25.7889 -1.99985 -1.52586e-17)
(25.789 -1.99939 1.52596e-17)
(25.7891 -1.99893 0)
(25.7892 -1.99848 4.657e-22)
(25.7893 -1.99802 0)
(25.7894 -1.99756 1.52614e-17)
(25.7895 -1.9971 -3.0524e-17)
(25.7896 -1.99665 1.52622e-17)
(25.7897 -1.99619 0)
(25.7898 -1.99573 1.52629e-17)
(25.7899 -1.99528 -1.52632e-17)
(25.79 -1.99482 -1.52635e-17)
(25.7901 -1.99436 1.52638e-17)
(25.7902 -1.9939 0)
(25.7903 -1.99344 1.52643e-17)
(25.7904 -1.99299 -3.05293e-17)
(25.7905 -1.99253 1.52648e-17)
(25.7906 -1.99207 2.32918e-22)
(25.7907 -1.99161 0)
(25.7908 -1.99115 0)
(25.7909 -1.99069 3.05309e-17)
(25.791 -1.99024 2.32348e-22)
(25.7911 -1.98978 -3.05313e-17)
(25.7912 -1.98932 -3.05315e-17)
(25.7912 -1.98886 3.05317e-17)
(25.7913 -1.9884 0)
(25.7915 -1.98793 5.25716e-17)
(25.9328 -2.11377 5.2248e-19)
(25.933 -2.11329 -5.20507e-19)
(25.9331 -2.1128 0)
(25.9332 -2.11231 2.03364e-21)
(25.9334 -2.11182 0)
(25.9335 -2.11132 0)
(25.9336 -2.11082 2.0344e-21)
(25.9338 -2.11032 0)
(25.9339 -2.10982 2.08361e-18)
(25.934 -2.10932 -2.08382e-18)
(25.9342 -2.10882 4.16807e-18)
(25.9343 -2.10832 -4.16849e-18)
(25.9344 -2.10782 0)
(25.9346 -2.10732 -2.03576e-21)
(25.9347 -2.10681 -4.16972e-18)
(25.9348 -2.10631 4.17012e-18)
(25.935 -2.10581 0)
(25.9351 -2.10531 9.82405e-26)
(25.9352 -2.1048 0)
(25.9354 -2.1043 4.17166e-18)
(25.9355 -2.1038 -4.17203e-18)
(25.9357 -2.1033 0)
(25.9358 -2.10279 9.83506e-26)
(25.9359 -2.10229 0)
(25.9361 -2.10179 2.03778e-21)
(25.9362 -2.10129 8.34761e-18)
(25.9363 -2.10079 -8.34829e-18)
(25.9365 -2.10029 -8.34691e-18)
(25.9366 -2.09978 8.35165e-18)
(25.9368 -2.09928 0)
(25.9369 -2.09878 0)
(25.937 -2.09828 -3.0584e-21)
(25.9372 -2.09778 0)
(25.9373 -2.09728 1.01965e-21)
(25.9375 -2.09678 0)
(25.9376 -2.09628 0)
(25.9377 -2.09578 0)
(25.9379 -2.09527 0)
(25.938 -2.09477 0)
(25.9382 -2.09427 1.02001e-21)
(25.9383 -2.09377 0)
(25.9385 -2.09327 -1.02019e-21)
(25.9386 -2.09277 0)
(25.9387 -2.09227 1.02026e-21)
(25.9389 -2.09177 -1.67162e-17)
(25.939 -2.09127 1.67182e-17)
(25.9392 -2.09077 -1.67181e-17)
(25.9393 -2.09027 1.67221e-17)
(25.9395 -2.08978 -1.02054e-21)
(25.9396 -2.08928 -1.67218e-17)
(25.9397 -2.08878 -1.02016e-21)
(25.9399 -2.08828 1.67244e-17)
(25.94 -2.08778 0)
(25.9402 -2.08728 -1.02084e-21)
(25.9403 -2.08678 0)
(25.9405 -2.08628 1.02093e-21)
(25.9406 -2.08578 1.67282e-17)
(25.9408 -2.08529 -1.67288e-17)
(25.9409 -2.08479 0)
(25.9411 -2.08429 -1.53159e-21)
(25.9412 -2.08379 -5.10565e-22)
(25.9413 -2.08329 0)
(25.9415 -2.0828 1.02115e-21)
(25.9416 -2.0823 -1.6731e-17)
(25.9418 -2.0818 1.67325e-17)
(25.9419 -2.0813 -5.1065e-22)
(25.9421 -2.08081 0)
(25.9422 -2.08031 -1.6734e-17)
(25.9424 -2.07981 1.67339e-17)
(25.9425 -2.07931 -5.1068e-22)
(25.9427 -2.07882 -5.10692e-22)
(25.9428 -2.07832 -1.67351e-17)
(25.943 -2.07782 1.67355e-17)
(25.9431 -2.07733 1.67358e-17)
(25.9433 -2.07683 -3.34717e-17)
(25.9434 -2.07633 5.63716e-25)
(25.9436 -2.07584 5.6505e-25)
(25.9437 -2.07534 2.55958e-22)
(25.9439 -2.07485 2.55963e-22)
(25.944 -2.07435 1.67371e-17)
(25.9442 -2.07385 -1.67373e-17)
(25.9443 -2.07336 1.67377e-17)
(25.9445 -2.07286 2.55406e-22)
(25.9446 -2.07237 -2.55408e-22)
(25.9448 -2.07187 0)
(25.9449 -2.07138 -1.67381e-17)
(25.9451 -2.07088 1.6738e-17)
(25.9452 -2.07039 1.67382e-17)
(25.9454 -2.0699 -2.87003e-17)
(26.0808 -2.1326 -2.86891e-19)
(26.081 -2.13203 5.69403e-19)
(26.0811 -2.13147 5.69471e-19)
(26.0813 -2.13091 -1.13908e-18)
(26.0814 -2.13036 -1.14144e-18)
(26.0815 -2.1298 -1.13934e-18)
(26.0817 -2.12925 4.55789e-18)
(26.0818 -2.12869 -2.28143e-18)
(26.0819 -2.12814 -2.22597e-21)
(26.0821 -2.12758 -2.27748e-18)
(26.0822 -2.12703 4.55991e-18)
(26.0824 -2.12647 -2.2802e-18)
(26.0825 -2.12592 -4.56088e-18)
(26.0826 -2.12537 2.2274e-21)
(26.0828 -2.12481 4.56405e-18)
(26.0829 -2.12426 0)
(26.0831 -2.1237 0)
(26.0832 -2.12315 4.45623e-21)
(26.0833 -2.1226 -4.56142e-18)
(26.0835 -2.12204 4.56408e-18)
(26.0836 -2.12149 -2.22871e-21)
(26.0837 -2.12093 -2.22891e-21)
(26.0839 -2.12038 2.22923e-21)
(26.084 -2.11983 2.22932e-21)
(26.0842 -2.11927 -4.45915e-21)
(26.0843 -2.11872 0)
(26.0844 -2.11816 0)
(26.0846 -2.11761 -2.2302e-21)
(26.0847 -2.11705 9.13327e-18)
(26.0849 -2.1165 -9.13625e-18)
(26.085 -2.11594 0)
(26.0852 -2.11539 1.05992e-25)
(26.0853 -2.11483 0)
(26.0854 -2.11428 0)
(26.0856 -2.11372 0)
(26.0857 -2.11317 -9.14273e-18)
(26.0859 -2.11261 9.14339e-18)
(26.086 -2.11206 0)
(26.0862 -2.1115 0)
(26.0863 -2.11095 -1.11612e-21)
(26.0865 -2.11039 -1.11614e-21)
(26.0866 -2.10983 0)
(26.0867 -2.10928 0)
(26.0869 -2.10872 -1.11641e-21)
(26.087 -2.10817 0)
(26.0872 -2.10761 -9.14768e-18)
(26.0873 -2.10705 9.1471e-18)
(26.0875 -2.1065 -2.2333e-21)
(26.0876 -2.10594 9.14925e-18)
(26.0878 -2.10538 -1.82973e-17)
(26.0879 -2.10483 9.14912e-18)
(26.0881 -2.10427 -1.83003e-17)
(26.0882 -2.10372 3.65991e-17)
(26.0884 -2.10316 -1.82999e-17)
(26.0885 -2.1026 1.11703e-21)
(26.0887 -2.10205 0)
(26.0888 -2.10149 -5.32979e-26)
(26.089 -2.10093 1.11723e-21)
(26.0891 -2.10037 -1.83062e-17)
(26.0893 -2.09982 1.8307e-17)
(26.0894 -2.09926 0)
(26.0896 -2.0987 -1.83073e-17)
(26.0897 -2.09815 1.83068e-17)
(26.0899 -2.09759 0)
(26.09 -2.09703 1.83086e-17)
(26.0902 -2.09647 -1.83098e-17)
(26.0903 -2.09592 1.11754e-21)
(26.0905 -2.09536 1.83115e-17)
(26.0906 -2.0948 -1.83114e-17)
(26.0908 -2.09424 1.11767e-21)
(26.0909 -2.09368 5.5886e-22)
(26.0911 -2.09313 1.83122e-17)
(26.0912 -2.09257 -1.83132e-17)
(26.0914 -2.09201 1.83136e-17)
(26.0915 -2.09145 -1.83151e-17)
(26.0917 -2.09089 -1.83143e-17)
(26.0918 -2.09034 1.83146e-17)
(26.092 -2.08978 0)
(26.0921 -2.08922 0)
(26.0923 -2.08866 0)
(26.0925 -2.0881 -1.83159e-17)
(26.0926 -2.08754 1.83161e-17)
(26.0928 -2.08698 0)
(26.0929 -2.08643 1.83161e-17)
(26.0931 -2.08587 -3.66321e-17)
(26.0932 -2.08531 5.99351e-25)
(26.0934 -2.08475 1.83165e-17)
(26.0935 -2.08419 1.39739e-22)
(26.0937 -2.08363 -3.12816e-17)
(26.2286 -2.20869 -2.428e-21)
(26.2288 -2.20808 0)
(26.229 -2.20747 -1.24348e-18)
(26.2292 -2.20685 -2.42898e-21)
(26.2294 -2.20624 2.42938e-21)
(26.2296 -2.20562 -2.42945e-21)
(26.2298 -2.205 1.24408e-18)
(26.23 -2.20438 2.43019e-21)
(26.2302 -2.20376 2.43048e-21)
(26.2304 -2.20315 0)
(26.2306 -2.20253 2.43091e-21)
(26.2307 -2.20191 0)
(26.2309 -2.20129 0)
(26.2311 -2.20067 4.98025e-18)
(26.2313 -2.20005 -4.98322e-18)
(26.2315 -2.19942 0)
(26.2317 -2.1988 -2.43248e-21)
(26.2319 -2.19818 -1.20742e-25)
(26.2321 -2.19756 -2.43309e-21)
(26.2323 -2.19694 0)
(26.2325 -2.19632 -4.98139e-18)
(26.2327 -2.19571 9.97105e-18)
(26.2329 -2.19509 -4.98478e-18)
(26.2331 -2.19447 -2.43426e-21)
(26.2333 -2.19385 4.86886e-21)
(26.2335 -2.19323 4.98616e-18)
(26.2337 -2.19261 -4.98904e-18)
(26.2339 -2.19199 -4.98947e-18)
(26.2341 -2.19137 4.98747e-18)
(26.2343 -2.19075 0)
(26.2345 -2.19013 9.97661e-18)
(26.2347 -2.18951 -1.99548e-17)
(26.2349 -2.18889 1.9954e-17)
(26.2351 -2.18827 -9.97658e-18)
(26.2353 -2.18766 0)
(26.2355 -2.18704 2.43672e-21)
(26.2357 -2.18642 -1.21413e-25)
(26.2359 -2.1858 2.43696e-21)
(26.2361 -2.18518 0)
(26.2363 -2.18456 0)
(26.2365 -2.18395 3.65626e-21)
(26.2367 -2.18333 0)
(26.2369 -2.18271 -9.98543e-18)
(26.2371 -2.18209 9.98364e-18)
(26.2373 -2.18148 0)
(26.2375 -2.18086 -1.21906e-21)
(26.2377 -2.18024 -1.2192e-21)
(26.2379 -2.17962 1.21933e-21)
(26.2381 -2.17901 9.98784e-18)
(26.2383 -2.17839 -9.98961e-18)
(26.2385 -2.17777 1.21947e-21)
(26.2387 -2.17716 0)
(26.2389 -2.17654 6.09695e-26)
(26.2391 -2.17592 9.98923e-18)
(26.2393 -2.17531 -1.99855e-17)
(26.2395 -2.17469 9.99262e-18)
(26.2397 -2.17407 -1.21989e-21)
(26.2399 -2.17346 1.9987e-17)
(26.2401 -2.17284 -1.99866e-17)
(26.2403 -2.17222 0)
(26.2405 -2.17161 -1.22003e-21)
(26.2408 -2.17099 1.9989e-17)
(26.241 -2.17038 -1.99921e-17)
(26.2412 -2.16976 -1.99916e-17)
(26.2414 -2.16915 9.77205e-25)
(26.2416 -2.16853 1.99929e-17)
(26.2418 -2.16792 -1.22034e-21)
(26.242 -2.1673 0)
(26.2422 -2.16669 0)
(26.2424 -2.16607 6.10159e-22)
(26.2426 -2.16546 0)
(26.2428 -2.16484 6.10249e-22)
(26.2431 -2.16423 -1.99965e-17)
(26.2433 -2.16361 1.99963e-17)
(26.2435 -2.163 6.10286e-22)
(26.2437 -2.16239 1.99977e-17)
(26.2439 -2.16177 -1.9998e-17)
(26.2441 -2.16116 -1.99989e-17)
(26.2443 -2.16055 1.99979e-17)
(26.2445 -2.15993 -1.99981e-17)
(26.2448 -2.15932 1.99995e-17)
(26.245 -2.15871 -3.0517e-22)
(26.2452 -2.15809 -3.05157e-22)
(26.2454 -2.15748 -3.05159e-22)
(26.2456 -2.15687 -3.05175e-22)
(26.2458 -2.15625 1.99995e-17)
(26.246 -2.15564 -1.99995e-17)
(26.2463 -2.15503 -4.57749e-22)
(26.2465 -2.15442 3.40278e-17)
(26.3794 -2.25457 -5.1062e-19)
(26.3796 -2.25387 3.38694e-19)
(26.3798 -2.25318 -6.72184e-19)
(26.3801 -2.25249 2.03269e-18)
(26.3803 -2.2518 -5.29406e-21)
(26.3805 -2.25112 -1.35812e-18)
(26.3807 -2.25043 1.35564e-18)
(26.3809 -2.24974 -1.3558e-18)
(26.3811 -2.24906 2.70929e-18)
(26.3813 -2.24837 -2.71226e-18)
(26.3816 -2.24769 -2.71787e-18)
(26.3818 -2.247 5.42313e-18)
(26.382 -2.24632 -5.4264e-18)
(26.3822 -2.24563 2.71351e-18)
(26.3824 -2.24495 -2.65013e-21)
(26.3826 -2.24426 -5.42556e-18)
(26.3829 -2.24358 5.4288e-18)
(26.3831 -2.2429 -2.65112e-21)
(26.3833 -2.24221 0)
(26.3835 -2.24153 0)
(26.3837 -2.24084 0)
(26.3839 -2.24016 5.43161e-18)
(26.3842 -2.23947 -5.4348e-18)
(26.3844 -2.23879 -5.43268e-18)
(26.3846 -2.2381 5.43055e-18)
(26.3848 -2.23742 0)
(26.385 -2.23673 1.32485e-25)
(26.3853 -2.23605 2.65373e-21)
(26.3855 -2.23536 0)
(26.3857 -2.23468 5.43568e-18)
(26.3859 -2.23399 -5.43881e-18)
(26.3861 -2.23331 2.65466e-21)
(26.3864 -2.23262 2.65488e-21)
(26.3866 -2.23194 -2.6551e-21)
(26.3868 -2.23125 0)
(26.387 -2.23057 0)
(26.3873 -2.22988 1.08749e-17)
(26.3875 -2.2292 -1.08811e-17)
(26.3877 -2.22851 1.08792e-17)
(26.3879 -2.22783 -1.088e-17)
(26.3882 -2.22714 -1.08835e-17)
(26.3884 -2.22646 1.08789e-17)
(26.3886 -2.22577 0)
(26.3888 -2.22509 2.65705e-21)
(26.3891 -2.2244 0)
(26.3893 -2.22372 2.65739e-21)
(26.3895 -2.22303 3.9862e-21)
(26.3897 -2.22235 -1.08858e-17)
(26.39 -2.22166 1.08877e-17)
(26.3902 -2.22098 1.0887e-17)
(26.3904 -2.22029 -1.0889e-17)
(26.3907 -2.2196 0)
(26.3909 -2.21892 1.32923e-21)
(26.3911 -2.21823 1.3293e-21)
(26.3913 -2.21755 0)
(26.3916 -2.21686 -1.08918e-17)
(26.3918 -2.21618 1.08896e-17)
(26.392 -2.21549 -1.08915e-17)
(26.3923 -2.2148 1.08933e-17)
(26.3925 -2.21412 0)
(26.3927 -2.21343 1.32972e-21)
(26.393 -2.21275 -1.08919e-17)
(26.3932 -2.21206 1.0895e-17)
(26.3934 -2.21138 1.3298e-21)
(26.3937 -2.21069 1.32985e-21)
(26.3939 -2.21 1.32989e-21)
(26.3941 -2.20932 0)
(26.3944 -2.20863 0)
(26.3946 -2.20795 0)
(26.3948 -2.20726 -1.33012e-21)
(26.3951 -2.20657 0)
(26.3953 -2.20589 2.17945e-17)
(26.3955 -2.2052 -1.20979e-24)
(26.3958 -2.20452 -2.17928e-17)
(26.396 -2.20383 -6.65098e-22)
(26.3962 -2.20314 0)
(26.3965 -2.20246 0)
(26.3967 -2.20177 1.33029e-21)
(26.397 -2.20109 6.65172e-22)
(26.3972 -2.2004 -2.17968e-17)
(26.3974 -2.19971 -6.63956e-22)
(26.3977 -2.19903 2.17959e-17)
(26.3979 -2.19834 -2.17963e-17)
(26.3982 -2.19766 2.17971e-17)
(26.3984 -2.19697 0)
(26.3986 -2.19628 0)
(26.3989 -2.1956 -3.32585e-22)
(26.3991 -2.19491 3.32602e-22)
(26.3994 -2.19422 0)
(26.5352 -2.3317 -3.62707e-19)
(26.5355 -2.33094 -5.75817e-21)
(26.5358 -2.33017 1.47425e-18)
(26.536 -2.32941 -1.46868e-18)
(26.5363 -2.32864 2.9804e-25)
(26.5366 -2.32787 -5.76088e-21)
(26.5369 -2.32711 0)
(26.5371 -2.32634 2.88132e-21)
(26.5374 -2.32557 0)
(26.5377 -2.32481 2.88202e-21)
(26.538 -2.32404 2.88237e-21)
(26.5382 -2.32327 0)
(26.5385 -2.32251 2.95216e-18)
(26.5388 -2.32174 2.88318e-21)
(26.5391 -2.32097 -5.90855e-18)
(26.5393 -2.32021 2.88422e-21)
(26.5396 -2.31944 2.95061e-18)
(26.5399 -2.31867 2.88451e-21)
(26.5402 -2.31791 -5.91114e-18)
(26.5404 -2.31714 5.90888e-18)
(26.5407 -2.31637 -5.90661e-18)
(26.541 -2.31561 5.91298e-18)
(26.5413 -2.31484 -5.90781e-18)
(26.5416 -2.31408 5.91128e-18)
(26.5418 -2.31331 5.91185e-18)
(26.5421 -2.31254 -5.90953e-18)
(26.5424 -2.31178 0)
(26.5427 -2.31101 0)
(26.543 -2.31025 -5.91407e-18)
(26.5433 -2.30948 5.77637e-21)
(26.5435 -2.30871 1.18302e-17)
(26.5438 -2.30795 -5.91562e-18)
(26.5441 -2.30718 2.88866e-21)
(26.5444 -2.30642 0)
(26.5447 -2.30565 5.9171e-18)
(26.545 -2.30489 -5.91757e-18)
(26.5452 -2.30412 2.88959e-21)
(26.5455 -2.30336 -2.88981e-21)
(26.5458 -2.30259 0)
(26.5461 -2.30183 0)
(26.5464 -2.30106 1.18454e-17)
(26.5467 -2.3003 -8.10441e-25)
(26.547 -2.29953 -1.18412e-17)
(26.5473 -2.29877 0)
(26.5475 -2.298 0)
(26.5478 -2.29724 -1.18465e-17)
(26.5481 -2.29647 1.18443e-17)
(26.5484 -2.29571 -1.1845e-17)
(26.5487 -2.29494 1.18457e-17)
(26.549 -2.29418 0)
(26.5493 -2.29342 1.18471e-17)
(26.5496 -2.29265 -1.18477e-17)
(26.5499 -2.29189 0)
(26.5502 -2.29112 0)
(26.5504 -2.29036 1.44651e-21)
(26.5507 -2.2896 -1.18487e-17)
(26.551 -2.28883 1.18507e-17)
(26.5513 -2.28807 -1.44672e-21)
(26.5516 -2.28731 -1.4467e-21)
(26.5519 -2.28654 -1.18522e-17)
(26.5522 -2.28578 1.18541e-17)
(26.5525 -2.28502 1.44688e-21)
(26.5528 -2.28425 1.18507e-17)
(26.5531 -2.28349 -2.37108e-17)
(26.5534 -2.28273 1.18529e-17)
(26.5537 -2.28196 -1.44708e-21)
(26.554 -2.2812 1.18537e-17)
(26.5543 -2.28044 -1.18555e-17)
(26.5546 -2.27968 0)
(26.5549 -2.27891 -1.44724e-21)
(26.5552 -2.27815 -7.62158e-26)
(26.5555 -2.27739 1.44731e-21)
(26.5558 -2.27663 -7.23706e-22)
(26.5561 -2.27586 -1.18564e-17)
(26.5564 -2.2751 -1.18573e-17)
(26.5567 -2.27434 2.3715e-17)
(26.557 -2.27358 -7.23755e-22)
(26.5573 -2.27282 0)
(26.5576 -2.27205 2.3716e-17)
(26.5579 -2.27129 -2.37155e-17)
(26.5582 -2.27053 3.82193e-26)
(26.5585 -2.26977 0)
(26.5588 -2.26901 7.23756e-22)
(26.5591 -2.26825 -2.37171e-17)
(26.5594 -2.26749 4.74336e-17)
(26.5597 -2.26673 -4.74332e-17)
(26.56 -2.26596 3.64293e-22)
(26.5603 -2.2652 8.01458e-17)
(26.6939 -2.39862 -6.25432e-21)
(26.6942 -2.39777 6.25486e-21)
(26.6946 -2.39691 8.00755e-19)
(26.6949 -2.39606 -7.94607e-19)
(26.6952 -2.39521 6.25773e-21)
(26.6955 -2.39436 1.25168e-20)
(26.6958 -2.39351 -1.5961e-18)
(26.6961 -2.39267 1.20053e-25)
(26.6965 -2.39182 3.20554e-18)
(26.6968 -2.39097 -1.60297e-18)
(26.6971 -2.39012 -3.2126e-18)
(26.6974 -2.38927 3.20673e-18)
(26.6977 -2.38843 -6.26371e-21)
(26.698 -2.38758 -3.20749e-18)
(26.6984 -2.38673 3.20786e-18)
(26.6987 -2.38588 3.20197e-18)
(26.699 -2.38504 -6.41406e-18)
(26.6993 -2.38419 3.21209e-18)
(26.6997 -2.38334 3.21244e-18)
(26.7 -2.38249 -3.20966e-18)
(26.7003 -2.38165 -6.42313e-18)
(26.7006 -2.3808 6.42067e-18)
(26.7009 -2.37995 -6.27082e-21)
(26.7013 -2.3791 -3.13565e-21)