/*--------------------------------*- C++ -*----------------------------------*\
  =========                 |
  \\      /  F ield         | OpenFOAM: The Open Source CFD Toolbox
   \\    /   O peration     | Website:  https://openfoam.org
    \\  /    A nd           | Version:  9
     \\/     M anipulation  |
\*---------------------------------------------------------------------------*/
FoamFile
{
    format      ascii;
    class       volVectorField;
    location    "0.0075";
    object      U;
}
// * * * * * * * * * * * * * * * * * * * * * * * * * * * * * * * * * * * * * //

dimensions      [0 1 -1 0 0 0 0];

internalField   nonuniform List<vector> 
12628
(
(25.2209 -1.79975 1.78302e-21)
(24.4766 -1.82221 1.66451e-21)
(25.8391 -1.95682 9.07237e-21)
(25.6781 -1.99635 -8.40152e-21)
(25.5671 -1.86484 3.89029e-21)
(25.3703 -1.95725 -1.80425e-21)
(25.2212 -1.79923 -1.67139e-21)
(24.4766 -1.82181 0)
(26.4936 -2.22358 1.15507e-20)
(26.3319 -2.17855 -1.06979e-20)
(26.1716 -2.08086 9.90613e-21)
(26.0058 -2.07116 0)
(25.8393 -1.95619 0)
(25.6783 -1.99586 3.93583e-21)
(25.5672 -1.86427 -3.64436e-21)
(25.3704 -1.95682 0)
(25.2214 -1.79875 7.82828e-22)
(24.4766 -1.82143 -7.30356e-22)
(27.5402 -2.82446 -1.71562e-20)
(27.3572 -2.70719 0)
(27.1771 -2.59153 0)
(27.0008 -2.49504 0)
(26.8278 -2.39191 0)
(26.659 -2.31868 0)
(26.494 -2.22284 1.08191e-20)
(26.3323 -2.17794 5.40071e-25)
(26.1719 -2.08021 -9.27675e-21)
(26.0061 -2.07063 0)
(25.8395 -1.95561 -3.9796e-21)
(25.6785 -1.99541 3.68475e-21)
(25.5673 -1.86375 0)
(25.3705 -1.95643 1.58235e-21)
(25.2216 -1.79831 -1.46549e-21)
(24.4766 -1.82108 0)
(29.302 -4.29021 0)
(29.0944 -4.09473 0)
(28.8908 -3.90723 0)
(28.6906 -3.72744 0)
(28.4933 -3.55611 0)
(28.2986 -3.39241 0)
(28.1061 -3.23804 0)
(27.9157 -3.09076 0)
(27.7273 -2.95435 0)
(27.5413 -2.82343 0)
(27.3582 -2.70624 -1.48724e-20)
(27.178 -2.59064 1.37682e-20)
(27.0015 -2.49423 0)
(26.8284 -2.39114 0)
(26.6596 -2.31799 0)
(26.4945 -2.22217 0)
(26.3327 -2.17738 4.68848e-21)
(26.1722 -2.0796 -4.34085e-21)
(26.0064 -2.07013 0)
(25.8397 -1.95507 0)
(25.6786 -1.99499 3.44783e-21)
(25.5674 -1.86326 -3.19215e-21)
(25.3706 -1.95606 0)
(25.2218 -1.79789 -6.85504e-22)
(24.4766 -1.82076 6.39268e-22)
(61.5638 -25.7911 -4.23791e-18)
(61.5604 -22.1782 0)
(60.4341 -20.6357 0)
(59.293 -20.0826 0)
(58.1397 -19.6197 0)
(56.9912 -19.478 0)
(55.8493 -19.3427 2.87573e-18)
(54.7213 -19.2528 -2.65874e-18)
(53.6172 -19.1445 2.45694e-18)
(52.5414 -19.0201 -2.2616e-18)
(51.4988 -18.8656 0)
(50.4929 -18.6819 1.91012e-18)
(49.5255 -18.4676 1.28662e-21)
(48.5977 -18.2248 1.12507e-21)
(47.7102 -17.955 -1.46337e-18)
(46.8618 -17.661 0)
(46.0513 -17.3452 0)
(45.2769 -17.0101 -1.11473e-18)
(44.5365 -16.6581 1.01705e-18)
(43.8274 -16.2915 0)
(43.1466 -15.9124 0)
(42.4915 -15.5226 -7.75878e-19)
(41.8591 -15.1238 1.41827e-18)
(41.2467 -14.7178 -6.48072e-19)
(40.6525 -14.3063 5.92279e-19)
(40.0747 -13.8909 -5.40225e-19)
(39.512 -13.4735 0)
(38.9639 -13.0557 4.47599e-19)
(38.4305 -12.6393 -4.05895e-19)
(37.9121 -12.226 3.67487e-19)
(37.4094 -11.8172 -6.63707e-19)
(36.9227 -11.4143 2.99147e-19)
(36.4525 -11.0183 2.69416e-19)
(35.9988 -10.6299 -2.42312e-19)
(35.5615 -10.2498 0)
(35.1403 -9.87844 0)
(34.735 -9.51602 0)
(34.345 -9.16273 -1.58879e-19)
(33.9699 -8.81867 1.43209e-19)
(33.6091 -8.48386 0)
(33.2622 -8.15824 0)
(32.9286 -7.84173 0)
(32.6076 -7.53422 -9.59397e-20)
(32.2986 -7.23557 -1.23976e-23)
(32.0012 -6.94562 7.92546e-20)
(31.7145 -6.66421 -7.22234e-20)
(31.4381 -6.39116 -8.01211e-24)
(31.1712 -6.12631 1.20469e-19)
(30.9132 -5.86951 -1.10258e-19)
(30.6634 -5.6206 5.05194e-20)
(30.4213 -5.37948 0)
(30.1863 -5.14605 0)
(29.9577 -4.92022 0)
(29.735 -4.702 3.60343e-20)
(29.5176 -4.49134 -3.31872e-20)
(29.3052 -4.28838 0)
(29.0973 -4.09304 0)
(28.8933 -3.90566 0)
(28.6928 -3.72599 -2.40475e-20)
(28.4954 -3.55477 2.22151e-20)
(28.3004 -3.39116 0)
(28.1077 -3.23687 1.89865e-20)
(27.917 -3.08967 -1.756e-20)
(27.7286 -2.95334 1.62475e-20)
(27.5424 -2.82248 -1.50346e-20)
(27.3591 -2.70537 1.39168e-20)
(27.1788 -2.58981 -1.28826e-20)
(27.0022 -2.49349 0)
(26.829 -2.39042 0)
(26.6601 -2.31736 -5.11473e-21)
(26.4949 -2.22154 9.47216e-21)
(26.333 -2.17686 -4.38509e-21)
(26.1725 -2.07903 4.06012e-21)
(26.0066 -2.06968 -3.75946e-21)
(25.8399 -1.95457 0)
(25.6788 -1.9946 0)
(25.5675 -1.86281 -1.49247e-21)
(25.3707 -1.95572 1.38404e-21)
(25.222 -1.79751 0)
(24.4766 -1.82046 0)
(66.7766 -25.1942 7.15763e-20)
(63.8172 -21.2659 -4.09484e-18)
(61.5254 -19.194 3.9186e-18)
(59.8177 -19.0662 -3.68339e-18)
(58.4772 -18.7446 0)
(57.2199 -18.7167 0)
(56.0362 -18.6682 0)
(54.8895 -18.6544 0)
(53.7791 -18.6123 0)
(52.7011 -18.5472 0)
(51.6574 -18.4461 0)
(50.6496 -18.3107 0)
(49.6793 -18.1395 1.78227e-18)
(48.7473 -17.9354 1.13718e-21)
(47.854 -17.7001 -1.48532e-18)
(46.9992 -17.4364 0)
(46.1818 -17.1475 1.23614e-18)
(45.4006 -16.8363 -1.12635e-18)
(44.6532 -16.5054 0)
(43.9371 -16.1574 -9.37548e-19)
(43.2498 -15.7947 8.55346e-19)
(42.5881 -15.4194 0)
(41.9494 -15.0335 0)
(41.3309 -14.6387 6.52375e-19)
(40.7306 -14.237 2.4624e-22)
(40.1468 -13.8303 2.13125e-22)
(39.5784 -13.4204 -9.89465e-19)
(39.0247 -13.0093 8.99308e-19)
(38.486 -12.5986 1.3594e-22)
(37.9627 -12.1903 -3.68898e-19)
(37.4553 -11.7859 3.33174e-19)
(36.9643 -11.3868 -3.00189e-19)
(36.4901 -10.9941 0)
(36.0327 -10.6087 0)
(35.5921 -10.2312 0)
(35.1679 -9.86201 0)
(34.7598 -9.50154 0)
(34.3673 -9.14998 0)
(33.9899 -8.80743 0)
(33.6271 -8.47393 0)
(33.2783 -8.14947 0)
(32.943 -7.83398 0)
(32.6205 -7.52736 0)
(32.3103 -7.22949 0)
(32.0116 -6.94022 0)
(31.7239 -6.6594 0)
(31.4464 -6.38688 0)
(31.1787 -6.12249 0)
(30.9199 -5.86608 0)
(30.6694 -5.61753 5.02243e-20)
(30.4267 -5.37672 -4.60384e-20)
(30.1911 -5.14355 0)
(29.962 -4.91795 3.88122e-20)
(29.7388 -4.69994 3.16323e-24)
(29.5211 -4.48946 2.80148e-24)
(29.3083 -4.28665 -3.02157e-20)
(29.1 -4.09145 0)
(28.8958 -3.9042 -2.56493e-20)
(28.695 -3.72463 4.7291e-20)
(28.4973 -3.55351 -2.1806e-20)
(28.3021 -3.38999 0)
(28.1092 -3.23579 0)
(27.9183 -3.08865 0)
(27.7297 -2.9524 0)
(27.5433 -2.8216 0)
(27.3599 -2.70456 0)
(27.1795 -2.58904 0)
(27.0028 -2.4928 0)
(26.8294 -2.38975 0)
(26.6605 -2.31678 0)
(26.4952 -2.22096 0)
(26.3333 -2.17639 0)
(26.1727 -2.07851 0)
(26.0068 -2.06926 3.51019e-21)
(25.84 -1.9541 -3.22952e-21)
(25.6789 -1.99424 0)
(25.5675 -1.8624 0)
(25.3707 -1.95541 6.26294e-22)
(25.222 -1.79716 -8.61276e-22)
(24.4766 -1.82019 2.6464e-22)
(24.4766 -1.81995 0)
(24.4766 -1.81976 0)
(24.4765 -1.81957 0)
(24.4765 -1.81939 0)
(24.4765 -1.81921 -1.0404e-22)
(24.4765 -1.81903 -1.70456e-18)
(24.4764 -1.81885 1.70471e-18)
(24.4764 -1.81867 1.70476e-18)
(24.4764 -1.8185 1.0406e-22)
(24.4764 -1.81832 -1.70496e-18)
(24.4763 -1.81815 0)
(24.4763 -1.81798 0)
(24.4763 -1.8178 0)
(24.4763 -1.81763 1.04067e-22)
(24.4762 -1.81746 -3.4102e-18)
(24.4762 -1.81729 3.4104e-18)
(24.4762 -1.81712 -3.41028e-18)
(24.4762 -1.81695 -1.42407e-26)
(24.4762 -1.81678 3.41067e-18)
(24.4761 -1.81661 3.41065e-18)
(24.4761 -1.81644 -3.41084e-18)
(24.4761 -1.81627 6.82165e-18)
(24.4761 -1.8161 -6.82172e-18)
(24.476 -1.81593 1.04094e-22)
(24.476 -1.81576 1.04097e-22)
(24.476 -1.81559 0)
(24.476 -1.81542 0)
(24.4759 -1.81525 0)
(24.4759 -1.81508 0)
(24.4759 -1.81492 6.82291e-18)
(24.4759 -1.81475 -6.82317e-18)
(24.4758 -1.81458 5.20568e-23)
(24.4758 -1.81441 -5.2058e-23)
(24.4758 -1.81424 6.82357e-18)
(24.4758 -1.81406 -1.36474e-17)
(24.4758 -1.81389 6.82386e-18)
(24.4757 -1.81372 6.824e-18)
(24.4757 -1.81355 -6.8242e-18)
(24.4757 -1.81338 0)
(24.4757 -1.81321 1.36488e-17)
(24.4756 -1.81304 -1.36491e-17)
(24.4756 -1.81287 -1.36494e-17)
(24.4756 -1.8127 1.36497e-17)
(24.4756 -1.81253 -1.36499e-17)
(24.4756 -1.81235 1.36501e-17)
(24.4755 -1.81218 0)
(24.4755 -1.81201 0)
(24.4755 -1.81184 0)
(24.4755 -1.81166 1.36511e-17)
(24.4754 -1.81149 -1.36514e-17)
(24.4754 -1.81132 0)
(24.4754 -1.81114 -5.20769e-23)
(24.4754 -1.81097 -5.20778e-23)
(24.4753 -1.8108 1.36523e-17)
(24.4753 -1.81062 -1.36525e-17)
(24.4753 -1.81045 -5.20802e-23)
(24.4753 -1.81028 0)
(24.4753 -1.8101 0)
(24.4752 -1.80993 0)
(24.4752 -1.80975 0)
(24.4752 -1.80958 0)
(24.4752 -1.8094 -1.36539e-17)
(24.4752 -1.80923 1.3654e-17)
(24.4751 -1.80905 1.36542e-17)
(24.4751 -1.80887 -1.36543e-17)
(24.4751 -1.8087 -1.36545e-17)
(24.4751 -1.80852 2.73094e-17)
(24.475 -1.80834 4.77764e-26)
(24.475 -1.80817 -1.3655e-17)
(24.475 -1.80799 0)
(24.475 -1.80781 0)
(24.475 -1.80764 0)
(24.4749 -1.80746 2.60457e-23)
(24.4749 -1.80728 0)
(24.4749 -1.8071 1.36559e-17)
(24.4749 -1.80692 -1.3656e-17)
(24.4748 -1.80675 1.36562e-17)
(24.4748 -1.80657 -2.73125e-17)
(24.4748 -1.80639 2.73128e-17)
(24.4748 -1.80621 -1.36565e-17)
(24.4748 -1.80603 -2.73132e-17)
(24.4747 -1.80585 2.73134e-17)
(24.4747 -1.80567 0)
(24.4747 -1.80549 -2.60482e-23)
(24.4747 -1.80531 0)
(24.4747 -1.80513 -2.73142e-17)
(24.4746 -1.80495 -8.83946e-26)
(24.4746 -1.80477 -8.79983e-26)
(24.4746 -1.80458 2.73147e-17)
(24.4746 -1.8044 2.60492e-23)
(24.4745 -1.80422 -2.60493e-23)
(24.4745 -1.80404 0)
(24.4745 -1.80386 2.73152e-17)
(24.4745 -1.80367 8.57615e-26)
(24.4745 -1.80349 -5.46309e-17)
(24.4744 -1.80331 5.46311e-17)
(24.4744 -1.80313 8.45434e-26)
(24.4744 -1.80294 -2.73157e-17)
(24.4744 -1.80276 0)
(24.4744 -1.80257 -1.30251e-23)
(24.4743 -1.80239 2.73159e-17)
(24.4743 -1.80221 -2.7316e-17)
(24.4743 -1.80202 0)
(24.4743 -1.80184 2.7316e-17)
(24.4743 -1.80165 -2.73161e-17)
(24.4742 -1.80147 6.51259e-24)
(24.4742 -1.80128 2.73161e-17)
(24.4742 -1.8011 -5.46322e-17)
(24.4742 -1.80091 2.73161e-17)
(24.4742 -1.80072 4.87745e-17)
(25.2223 -1.79686 -2.55872e-19)
(25.2223 -1.7966 2.40166e-19)
(25.2224 -1.79634 -9.60945e-19)
(25.2225 -1.79608 -9.54773e-28)
(25.2226 -1.79583 9.60688e-19)
(25.2227 -1.79558 -1.92182e-18)
(25.2228 -1.79533 1.9218e-18)
(25.2229 -1.79507 1.92189e-18)
(25.223 -1.79482 -1.17316e-22)
(25.2231 -1.79457 -1.92195e-18)
(25.2232 -1.79432 2.34629e-22)
(25.2233 -1.79407 -2.3464e-22)
(25.2234 -1.79383 -2.3465e-22)
(25.2235 -1.79358 -3.51997e-22)
(25.2236 -1.79333 0)
(25.2236 -1.79308 3.84506e-18)
(25.2237 -1.79283 -3.84546e-18)
(25.2238 -1.79258 0)
(25.2239 -1.79233 -3.84579e-18)
(25.224 -1.79209 3.84583e-18)
(25.2241 -1.79184 -3.84588e-18)
(25.2242 -1.79159 7.69254e-18)
(25.2243 -1.79134 -3.84643e-18)
(25.2244 -1.79109 -1.17386e-22)
(25.2245 -1.79085 -1.17391e-22)
(25.2246 -1.7906 0)
(25.2247 -1.79035 -7.69361e-18)
(25.2248 -1.7901 1.53883e-17)
(25.2249 -1.78985 -1.53889e-17)
(25.225 -1.7896 7.69466e-18)
(25.2251 -1.78936 1.76121e-22)
(25.2252 -1.78911 -1.76127e-22)
(25.2253 -1.78886 -7.69551e-18)
(25.2253 -1.78861 1.53917e-17)
(25.2254 -1.78836 -2.45982e-26)
(25.2255 -1.78811 -7.69639e-18)
(25.2256 -1.78786 -7.69666e-18)
(25.2257 -1.78761 7.69698e-18)
(25.2258 -1.78737 0)
(25.2259 -1.78712 7.69743e-18)
(25.226 -1.78687 -7.69768e-18)
(25.2261 -1.78662 7.69793e-18)
(25.2262 -1.78637 -1.76217e-22)
(25.2263 -1.78612 -7.69842e-18)
(25.2264 -1.78587 0)
(25.2265 -1.78562 -1.17471e-22)
(25.2266 -1.78537 -1.53982e-17)
(25.2267 -1.78512 1.53987e-17)
(25.2268 -1.78487 0)
(25.2269 -1.78462 1.17485e-22)
(25.227 -1.78437 0)
(25.2271 -1.78412 -1.54004e-17)
(25.2272 -1.78387 1.54009e-17)
(25.2273 -1.78362 -1.54012e-17)
(25.2274 -1.78337 1.54016e-17)
(25.2275 -1.78311 -5.8749e-23)
(25.2276 -1.78286 0)
(25.2277 -1.78261 1.1751e-22)
(25.2277 -1.78236 1.54031e-17)
(25.2278 -1.78211 -1.54036e-17)
(25.2279 -1.78186 -1.17518e-22)
(25.228 -1.78161 5.87636e-23)
(25.2281 -1.78136 0)
(25.2282 -1.7811 1.54052e-17)
(25.2283 -1.78085 -1.54054e-17)
(25.2284 -1.7806 -1.54059e-17)
(25.2285 -1.78035 1.54061e-17)
(25.2286 -1.7801 0)
(25.2287 -1.77984 0)
(25.2288 -1.77959 0)
(25.2289 -1.77934 0)
(25.229 -1.77909 0)
(25.2291 -1.77883 1.54078e-17)
(25.2292 -1.77858 -1.54081e-17)
(25.2293 -1.77833 -5.87759e-23)
(25.2294 -1.77807 -8.81668e-23)
(25.2295 -1.77782 -1.54089e-17)
(25.2296 -1.77757 3.74794e-26)
(25.2297 -1.77731 1.54094e-17)
(25.2298 -1.77706 1.54096e-17)
(25.2299 -1.77681 -1.54098e-17)
(25.23 -1.77655 5.87823e-23)
(25.2301 -1.7763 -1.54102e-17)
(25.2302 -1.77604 3.08209e-17)
(25.2303 -1.77579 -3.50678e-26)
(25.2304 -1.77553 -5.88204e-23)
(25.2305 -1.77528 -1.5411e-17)
(25.2306 -1.77503 0)
(25.2307 -1.77477 -2.93952e-23)
(25.2308 -1.77452 -1.54115e-17)
(25.2309 -1.77426 1.54118e-17)
(25.231 -1.77401 5.87891e-23)
(25.2311 -1.77375 -5.87897e-23)
(25.2312 -1.7735 0)
(25.2313 -1.77324 3.08245e-17)
(25.2314 -1.77298 -3.08247e-17)
(25.2315 -1.77273 -3.08249e-17)
(25.2316 -1.77247 3.08251e-17)
(25.2317 -1.77222 2.93962e-23)
(25.2318 -1.77196 -1.46974e-23)
(25.2319 -1.7717 0)
(25.232 -1.77145 -2.93967e-23)
(25.2321 -1.77119 0)
(25.2322 -1.77094 0)
(25.2323 -1.77068 1.46993e-23)
(25.2324 -1.77042 -7.34965e-24)
(25.2325 -1.77016 -3.08264e-17)
(25.2326 -1.76991 3.08265e-17)
(25.2327 -1.76965 0)
(25.2329 -1.7694 0)
(25.3709 -1.95514 -2.84901e-19)
(25.3708 -1.95489 2.7076e-19)
(25.3709 -1.95464 2.64441e-22)
(25.3709 -1.9544 2.64445e-22)
(25.3709 -1.95415 1.08351e-18)
(25.371 -1.9539 -1.08331e-18)
(25.371 -1.95366 0)
(25.371 -1.95341 0)
(25.3711 -1.95316 2.16702e-18)
(25.3711 -1.95291 -2.16689e-18)
(25.3711 -1.95266 -2.64571e-22)
(25.3712 -1.95241 2.16767e-18)
(25.3712 -1.95217 -2.16727e-18)
(25.3712 -1.95192 2.64617e-22)
(25.3713 -1.95167 4.33583e-18)
(25.3713 -1.95142 -2.47649e-26)
(25.3713 -1.95117 -4.33605e-18)
(25.3714 -1.95092 4.33655e-18)
(25.3714 -1.95067 -8.67305e-18)
(25.3714 -1.95042 2.64717e-22)
(25.3715 -1.95017 4.33672e-18)
(25.3715 -1.94992 4.33695e-18)
(25.3715 -1.94967 -8.67489e-18)
(25.3716 -1.94942 4.33793e-18)
(25.3716 -1.94918 -4.33815e-18)
(25.3716 -1.94893 4.33784e-18)
(25.3717 -1.94868 -2.648e-22)
(25.3717 -1.94843 0)
(25.3717 -1.94818 0)
(25.3718 -1.94793 -8.67778e-18)
(25.3718 -1.94768 8.67819e-18)
(25.3718 -1.94743 -8.6786e-18)
(25.3719 -1.94718 8.67914e-18)
(25.3719 -1.94694 0)
(25.3719 -1.94669 -8.67993e-18)
(25.372 -1.94644 1.73606e-17)
(25.372 -1.94619 -8.6807e-18)
(25.372 -1.94594 0)
(25.3721 -1.94569 0)
(25.3721 -1.94544 0)
(25.3721 -1.9452 0)
(25.3722 -1.94495 8.68253e-18)
(25.3722 -1.9447 1.32439e-22)
(25.3722 -1.94445 -8.68297e-18)
(25.3723 -1.9442 0)
(25.3723 -1.94396 3.9752e-22)
(25.3723 -1.94371 -8.68424e-18)
(25.3724 -1.94346 8.68484e-18)
(25.3724 -1.94321 -8.68489e-18)
(25.3724 -1.94296 8.68508e-18)
(25.3725 -1.94271 0)
(25.3725 -1.94247 2.65067e-22)
(25.3725 -1.94222 -2.65076e-22)
(25.3726 -1.94197 -1.32549e-22)
(25.3726 -1.94172 1.32554e-22)
(25.3727 -1.94148 3.97661e-22)
(25.3727 -1.94123 0)
(25.3727 -1.94098 -1.32567e-22)
(25.3728 -1.94073 1.32571e-22)
(25.3728 -1.94048 1.32568e-22)
(25.3728 -1.94024 1.32579e-22)
(25.3729 -1.93999 1.73772e-17)
(25.3729 -1.93974 -1.73779e-17)
(25.3729 -1.93949 -2.65174e-22)
(25.373 -1.93925 -1.32587e-22)
(25.373 -1.939 1.32598e-22)
(25.373 -1.93875 -2.65196e-22)
(25.3731 -1.9385 -1.73802e-17)
(25.3731 -1.93826 3.47611e-17)
(25.3731 -1.93801 -3.4762e-17)
(25.3732 -1.93776 3.47628e-17)
(25.3732 -1.93751 -1.73819e-17)
(25.3733 -1.93727 0)
(25.3733 -1.93702 1.73826e-17)
(25.3733 -1.93677 -1.73829e-17)
(25.3734 -1.93652 -1.73833e-17)
(25.3734 -1.93628 1.73837e-17)
(25.3734 -1.93603 0)
(25.3735 -1.93578 -6.63187e-23)
(25.3735 -1.93554 0)
(25.3735 -1.93529 1.32636e-22)
(25.3736 -1.93504 6.63158e-23)
(25.3736 -1.93479 0)
(25.3737 -1.93455 0)
(25.3737 -1.9343 -1.32645e-22)
(25.3737 -1.93405 -1.73866e-17)
(25.3738 -1.93381 1.73868e-17)
(25.3738 -1.93356 0)
(25.3738 -1.93331 0)
(25.3739 -1.93307 -6.63305e-23)
(25.3739 -1.93282 -6.63313e-23)
(25.374 -1.93257 -6.63321e-23)
(25.374 -1.93232 6.63329e-23)
(25.374 -1.93208 6.63303e-23)
(25.3741 -1.93183 0)
(25.3741 -1.93158 1.73886e-17)
(25.3741 -1.93134 -1.73887e-17)
(25.3742 -1.93109 3.3168e-23)
(25.3742 -1.93084 1.7389e-17)
(25.3743 -1.9306 -1.73892e-17)
(25.3743 -1.93035 0)
(25.3743 -1.9301 3.3169e-23)
(25.3744 -1.92986 -3.31675e-23)
(25.3744 -1.92961 0)
(25.3744 -1.92936 -1.73897e-17)
(25.3745 -1.92912 1.73898e-17)
(25.3745 -1.92887 3.3168e-23)
(25.3746 -1.92862 -3.47797e-17)
(25.3746 -1.92838 -3.09507e-23)
(25.3747 -1.92813 3.50917e-24)
(25.5676 -1.86203 -3.08858e-22)
(25.5676 -1.86169 0)
(25.5677 -1.86136 5.92418e-22)
(25.5677 -1.86104 -1.2137e-18)
(25.5677 -1.86072 2.42699e-18)
(25.5678 -1.8604 -1.21359e-18)
(25.5678 -1.86008 0)
(25.5678 -1.85977 2.42693e-18)
(25.5679 -1.85945 -4.40912e-27)
(25.5679 -1.85914 -2.42876e-18)
(25.5679 -1.85883 -5.9276e-22)
(25.568 -1.85852 0)
(25.568 -1.85821 0)
(25.568 -1.8579 0)
(25.5681 -1.85759 -2.96475e-22)
(25.5681 -1.85728 0)
(25.5681 -1.85698 0)
(25.5682 -1.85667 4.85806e-18)
(25.5682 -1.85636 5.93067e-22)
(25.5682 -1.85605 -9.71884e-18)
(25.5683 -1.85574 2.96601e-22)
(25.5683 -1.85544 1.01089e-26)
(25.5683 -1.85513 1.01546e-26)
(25.5684 -1.85482 4.85988e-18)
(25.5684 -1.85451 8.89961e-22)
(25.5684 -1.85421 4.86106e-18)
(25.5685 -1.8539 -4.86164e-18)
(25.5685 -1.85359 0)
(25.5686 -1.85328 0)
(25.5686 -1.85297 0)
(25.5686 -1.85267 0)
(25.5687 -1.85236 0)
(25.5687 -1.85205 -2.96785e-22)
(25.5687 -1.85174 0)
(25.5688 -1.85143 0)
(25.5688 -1.85112 0)
(25.5688 -1.85082 -2.96847e-22)
(25.5689 -1.85051 9.72795e-18)
(25.5689 -1.8502 -2.96901e-22)
(25.5689 -1.84989 -2.34863e-26)
(25.569 -1.84958 -9.72941e-18)
(25.569 -1.84927 0)
(25.5691 -1.84896 0)
(25.5691 -1.84865 -5.93914e-22)
(25.5691 -1.84834 0)
(25.5692 -1.84803 -9.732e-18)
(25.5692 -1.84772 9.73214e-18)
(25.5692 -1.84741 9.73227e-18)
(25.5693 -1.8471 -2.52878e-26)
(25.5693 -1.84679 2.97004e-22)
(25.5693 -1.84648 -9.73382e-18)
(25.5694 -1.84617 9.73423e-18)
(25.5694 -1.84586 -9.73463e-18)
(25.5695 -1.84555 9.73502e-18)
(25.5695 -1.84524 -2.64022e-26)
(25.5695 -1.84492 -2.97142e-22)
(25.5696 -1.84461 -9.73585e-18)
(25.5696 -1.8443 0)
(25.5696 -1.84399 0)
(25.5697 -1.84368 -1.4858e-22)
(25.5697 -1.84337 0)
(25.5697 -1.84305 0)
(25.5698 -1.84274 1.94763e-17)
(25.5698 -1.84243 -3.89541e-17)
(25.5699 -1.84212 4.45857e-22)
(25.5699 -1.84181 1.94784e-17)
(25.5699 -1.84149 -1.486e-22)
(25.57 -1.84118 1.48619e-22)
(25.57 -1.84087 0)
(25.57 -1.84055 2.97241e-22)
(25.5701 -1.84024 0)
(25.5701 -1.83993 1.9482e-17)
(25.5702 -1.83961 -3.89647e-17)
(25.5702 -1.8393 3.89658e-17)
(25.5702 -1.83899 -6.02681e-26)
(25.5703 -1.83867 -6.10474e-26)
(25.5703 -1.83836 -1.94842e-17)
(25.5704 -1.83804 -1.94848e-17)
(25.5704 -1.83773 3.89706e-17)
(25.5704 -1.83742 -1.94858e-17)
(25.5705 -1.8371 -1.94861e-17)
(25.5705 -1.83679 1.94863e-17)
(25.5705 -1.83647 -1.94867e-17)
(25.5706 -1.83616 3.89744e-17)
(25.5706 -1.83584 -1.94874e-17)
(25.5707 -1.83553 1.94881e-17)
(25.5707 -1.83521 -1.94884e-17)
(25.5707 -1.8349 1.94887e-17)
(25.5708 -1.83458 -1.94889e-17)
(25.5708 -1.83426 0)
(25.5709 -1.83395 -1.94895e-17)
(25.5709 -1.83363 1.94898e-17)
(25.5709 -1.83332 0)
(25.571 -1.833 -7.43503e-23)
(25.571 -1.83268 0)
(25.5711 -1.83237 0)
(25.5711 -1.83205 -7.43527e-23)
(25.5711 -1.83173 1.94911e-17)
(25.5712 -1.83142 -3.89825e-17)
(25.5712 -1.8311 1.94914e-17)
(25.5713 -1.83078 -7.43517e-23)
(25.5713 -1.83047 -1.94916e-17)
(25.5713 -1.83015 1.94919e-17)
(25.5714 -1.82983 7.4353e-23)
(25.5714 -1.82951 -1.9492e-17)
(25.5715 -1.82919 3.89842e-17)
(25.5715 -1.82888 -3.89844e-17)
(25.5715 -1.82856 1.94922e-17)
(25.5716 -1.82824 3.7179e-23)
(25.5716 -1.82791 -6.51991e-23)
(25.6791 -1.99391 0)
(25.6791 -1.99361 3.38851e-19)
(25.6792 -1.9933 -3.39542e-19)
(25.6792 -1.99298 6.78479e-19)
(25.6793 -1.99267 -6.77212e-19)
(25.6794 -1.99235 0)
(25.6794 -1.99203 0)
(25.6795 -1.99171 3.30629e-26)
(25.6796 -1.99139 0)
(25.6797 -1.99107 6.62279e-22)
(25.6797 -1.99075 2.71282e-18)
(25.6798 -1.99042 -5.42606e-18)
(25.6799 -1.9901 2.71324e-18)
(25.6799 -1.98977 -2.71345e-18)
(25.68 -1.98945 5.42731e-18)
(25.6801 -1.98912 -5.42772e-18)
(25.6801 -1.9888 2.71472e-18)
(25.6802 -1.98847 0)
(25.6803 -1.98814 -1.32543e-21)
(25.6804 -1.98782 1.32553e-21)
(25.6804 -1.98749 -5.42903e-18)
(25.6805 -1.98717 -6.6276e-22)
(25.6806 -1.98684 1.08616e-17)
(25.6806 -1.98651 -5.43083e-18)
(25.6807 -1.98619 5.4312e-18)
(25.6808 -1.98586 -1.08631e-17)
(25.6809 -1.98553 5.43259e-18)
(25.6809 -1.98521 0)
(25.681 -1.98488 0)
(25.6811 -1.98456 5.43299e-18)
(25.6811 -1.98423 -5.43334e-18)
(25.6812 -1.9839 5.43368e-18)
(25.6813 -1.98358 -5.43302e-18)
(25.6814 -1.98325 -5.43435e-18)
(25.6814 -1.98293 5.43534e-18)
(25.6815 -1.9826 0)
(25.6816 -1.98227 9.95237e-22)
(25.6817 -1.98195 0)
(25.6817 -1.98162 3.31795e-22)
(25.6818 -1.9813 6.63595e-22)
(25.6819 -1.98097 1.08724e-17)
(25.6819 -1.98065 -1.08737e-17)
(25.682 -1.98032 -6.63704e-22)
(25.6821 -1.97999 3.31886e-22)
(25.6822 -1.97967 1.08761e-17)
(25.6822 -1.97934 -1.0876e-17)
(25.6823 -1.97902 0)
(25.6824 -1.97869 1.08771e-17)
(25.6825 -1.97837 -2.17553e-17)
(25.6825 -1.97804 -6.63782e-22)
(25.6826 -1.97772 1.08787e-17)
(25.6827 -1.97739 -1.66552e-26)
(25.6828 -1.97707 1.08804e-17)
(25.6828 -1.97674 -2.17604e-17)
(25.6829 -1.97642 1.08807e-17)
(25.683 -1.97609 -3.32062e-22)
(25.6831 -1.97577 1.08813e-17)
(25.6831 -1.97544 -1.08821e-17)
(25.6832 -1.97512 0)
(25.6833 -1.97479 -3.32117e-22)
(25.6834 -1.97447 0)
(25.6834 -1.97415 1.08842e-17)
(25.6835 -1.97382 -1.65217e-25)
(25.6836 -1.9735 -1.82517e-25)
(25.6837 -1.97317 -1.08854e-17)
(25.6837 -1.97285 1.08851e-17)
(25.6838 -1.97253 -1.08852e-17)
(25.6839 -1.9722 1.08866e-17)
(25.684 -1.97188 -1.08863e-17)
(25.684 -1.97155 -3.32255e-22)
(25.6841 -1.97123 -1.08873e-17)
(25.6842 -1.97091 1.08876e-17)
(25.6843 -1.97058 0)
(25.6843 -1.97026 1.66131e-22)
(25.6844 -1.96994 0)
(25.6845 -1.96961 0)
(25.6846 -1.96929 -1.66162e-22)
(25.6847 -1.96896 3.32316e-22)
(25.6847 -1.96864 -4.98495e-22)
(25.6848 -1.96832 2.17803e-17)
(25.6849 -1.968 -2.17808e-17)
(25.685 -1.96767 2.17812e-17)
(25.685 -1.96735 -4.35635e-17)
(25.6851 -1.96703 2.17821e-17)
(25.6852 -1.9667 0)
(25.6853 -1.96638 -1.66189e-22)
(25.6853 -1.96606 1.662e-22)
(25.6854 -1.96573 2.17837e-17)
(25.6855 -1.96541 1.65809e-22)
(25.6856 -1.96509 -3.90395e-25)
(25.6857 -1.96477 -4.35699e-17)
(25.6857 -1.96444 2.17853e-17)
(25.6858 -1.96412 1.66209e-22)
(25.6859 -1.9638 1.66211e-22)
(25.686 -1.96348 1.66213e-22)
(25.6861 -1.96316 0)
(25.6861 -1.96283 0)
(25.6862 -1.96251 0)
(25.6863 -1.96219 2.17874e-17)
(25.6864 -1.96187 -2.17873e-17)
(25.6864 -1.96155 1.66228e-22)
(25.6865 -1.96122 -1.66229e-22)
(25.6866 -1.9609 -8.3113e-23)
(25.6867 -1.96058 -8.31177e-23)
(25.6868 -1.96026 -2.17882e-17)
(25.6868 -1.95994 2.17883e-17)
(25.6869 -1.95962 0)
(25.687 -1.9593 0)
(25.6871 -1.95897 0)
(25.6872 -1.95865 7.25403e-23)
(25.8402 -1.95368 0)
(25.8402 -1.95328 -7.36728e-22)
(25.8403 -1.95289 0)
(25.8403 -1.9525 -7.36902e-22)
(25.8404 -1.95212 7.53909e-19)
(25.8405 -1.95173 -7.54716e-19)
(25.8406 -1.95135 1.50883e-18)
(25.8406 -1.95097 7.37153e-22)
(25.8407 -1.95059 -1.50984e-18)
(25.8408 -1.95022 7.37267e-22)
(25.8408 -1.94984 3.02021e-18)
(25.8409 -1.94946 -3.02047e-18)
(25.841 -1.94909 0)
(25.8411 -1.94871 0)
(25.8411 -1.94834 7.37584e-22)
(25.8412 -1.94796 0)
(25.8413 -1.94759 -1.47545e-21)
(25.8413 -1.94721 -7.37766e-22)
(25.8414 -1.94684 7.37861e-22)
(25.8415 -1.94646 -7.3792e-22)
(25.8416 -1.94609 -3.02419e-18)
(25.8416 -1.94571 3.02295e-18)
(25.8417 -1.94534 6.04637e-18)
(25.8418 -1.94496 -6.04757e-18)
(25.8419 -1.94459 -3.56903e-26)
(25.8419 -1.94422 -6.047e-18)
(25.842 -1.94384 -7.382e-22)
(25.8421 -1.94347 6.04863e-18)
(25.8422 -1.94309 0)
(25.8422 -1.94272 0)
(25.8423 -1.94234 -6.04992e-18)
(25.8424 -1.94196 8.03728e-26)
(25.8424 -1.94159 6.05001e-18)
(25.8425 -1.94121 -6.0519e-18)
(25.8426 -1.94084 1.21031e-17)
(25.8427 -1.94046 -6.05197e-18)
(25.8427 -1.94009 -7.38824e-22)
(25.8428 -1.93971 0)
(25.8429 -1.93933 0)
(25.843 -1.93896 -7.38965e-22)
(25.843 -1.93858 6.05462e-18)
(25.8431 -1.9382 -6.05351e-18)
(25.8432 -1.93783 3.58211e-26)
(25.8433 -1.93745 7.39108e-22)
(25.8434 -1.93707 -7.39186e-22)
(25.8434 -1.9367 7.39193e-22)
(25.8435 -1.93632 0)
(25.8436 -1.93594 0)
(25.8437 -1.93556 0)
(25.8437 -1.93519 3.69696e-22)
(25.8438 -1.93481 -1.21147e-17)
(25.8439 -1.93443 1.21149e-17)
(25.844 -1.93405 -1.21163e-17)
(25.844 -1.93368 1.21158e-17)
(25.8441 -1.9333 0)
(25.8442 -1.93292 -1.21173e-17)
(25.8443 -1.93254 2.42366e-17)
(25.8443 -1.93216 -1.21189e-17)
(25.8444 -1.93178 3.69843e-22)
(25.8445 -1.9314 3.69878e-22)
(25.8446 -1.93102 1.21201e-17)
(25.8447 -1.93065 -1.21214e-17)
(25.8447 -1.93027 3.69926e-22)
(25.8448 -1.92989 0)
(25.8449 -1.92951 1.21229e-17)
(25.845 -1.92913 3.69795e-22)
(25.8451 -1.92875 -1.21239e-17)
(25.8451 -1.92837 1.2124e-17)
(25.8452 -1.92799 -1.21244e-17)
(25.8453 -1.92761 0)
(25.8454 -1.92723 0)
(25.8454 -1.92685 0)
(25.8455 -1.92647 -3.70048e-22)
(25.8456 -1.92609 -3.70078e-22)
(25.8457 -1.92571 0)
(25.8458 -1.92533 -1.21273e-17)
(25.8458 -1.92494 1.21277e-17)
(25.8459 -1.92456 -1.80247e-26)
(25.846 -1.92418 7.40251e-22)
(25.8461 -1.9238 0)
(25.8462 -1.92342 -3.70137e-22)
(25.8463 -1.92304 -1.21294e-17)
(25.8463 -1.92266 2.42594e-17)
(25.8464 -1.92227 -1.213e-17)
(25.8465 -1.92189 0)
(25.8466 -1.92151 -2.42609e-17)
(25.8467 -1.92113 4.85229e-17)
(25.8467 -1.92075 -3.72471e-25)
(25.8468 -1.92036 -4.85254e-17)
(25.8469 -1.91998 2.42631e-17)
(25.847 -1.9196 0)
(25.8471 -1.91922 0)
(25.8471 -1.91883 -1.85125e-22)
(25.8472 -1.91845 -1.85128e-22)
(25.8473 -1.91807 -3.70253e-22)
(25.8474 -1.91768 2.42653e-17)
(25.8475 -1.9173 -4.85315e-17)
(25.8476 -1.91692 3.81908e-25)
(25.8476 -1.91653 2.42662e-17)
(25.8477 -1.91615 -9.25711e-23)
(25.8478 -1.91577 -9.2572e-23)
(25.8479 -1.91538 -9.25638e-23)
(25.848 -1.915 9.25736e-23)
(25.8481 -1.91461 0)
(25.8481 -1.91423 0)
(25.8482 -1.91384 -2.42679e-17)
(25.8483 -1.91346 2.42677e-17)
(25.8484 -1.91307 2.42679e-17)
(25.8485 -1.91269 -2.42679e-17)
(25.8486 -1.9123 -8.04228e-23)
(26.0071 -2.06889 0)
(26.0072 -2.0685 -8.17109e-22)
(26.0073 -2.0681 0)
(26.0074 -2.0677 0)
(26.0075 -2.06729 0)
(26.0077 -2.06688 -8.37115e-19)
(26.0078 -2.06647 8.39649e-19)
(26.0079 -2.06605 1.67619e-18)
(26.008 -2.06563 -3.34943e-18)
(26.0081 -2.06521 1.67406e-18)
(26.0083 -2.06479 -1.67258e-18)
(26.0084 -2.06437 3.35037e-18)
(26.0085 -2.06394 -1.67534e-18)
(26.0086 -2.06352 0)
(26.0088 -2.06309 3.34883e-18)
(26.0089 -2.06267 -6.70317e-18)
(26.009 -2.06224 3.3527e-18)
(26.0091 -2.06182 8.18428e-22)
(26.0093 -2.06139 -3.35246e-18)
(26.0094 -2.06096 3.35193e-18)
(26.0095 -2.06054 8.18637e-22)
(26.0096 -2.06011 8.18706e-22)
(26.0098 -2.05969 -3.35441e-18)
(26.0099 -2.05926 3.35468e-18)
(26.01 -2.05883 -4.27755e-26)
(26.0101 -2.05841 -6.70962e-18)
(26.0103 -2.05798 1.34195e-17)
(26.0104 -2.05755 -6.70986e-18)
(26.0105 -2.05713 -6.70956e-18)
(26.0107 -2.0567 6.71089e-18)
(26.0108 -2.05628 -6.71057e-18)
(26.0109 -2.05585 6.71107e-18)
(26.011 -2.05542 -8.19366e-22)
(26.0112 -2.055 6.71369e-18)
(26.0113 -2.05457 -6.71417e-18)
(26.0114 -2.05415 0)
(26.0115 -2.05372 -8.19598e-22)
(26.0117 -2.0533 6.71475e-18)
(26.0118 -2.05287 -6.7152e-18)
(26.0119 -2.05244 0)
(26.0121 -2.05202 0)
(26.0122 -2.05159 -8.19915e-22)
(26.0123 -2.05117 1.63989e-21)
(26.0124 -2.05074 -8.20019e-22)
(26.0126 -2.05032 8.20027e-22)
(26.0127 -2.04989 -6.71903e-18)
(26.0128 -2.04947 6.71862e-18)
(26.013 -2.04905 0)
(26.0131 -2.04862 6.71941e-18)
(26.0132 -2.0482 6.72062e-18)
(26.0134 -2.04777 -3.88791e-25)
(26.0135 -2.04735 -3.8932e-25)
(26.0136 -2.04692 -2.68845e-17)
(26.0137 -2.0465 1.34434e-17)
(26.0139 -2.04608 0)
(26.014 -2.04565 0)
(26.0141 -2.04523 -1.34455e-17)
(26.0143 -2.0448 1.34445e-17)
(26.0144 -2.04438 -1.34472e-17)
(26.0145 -2.04396 2.68933e-17)
(26.0147 -2.04353 -1.34469e-17)
(26.0148 -2.04311 0)
(26.0149 -2.04269 0)
(26.0151 -2.04226 0)
(26.0152 -2.04184 -4.10465e-22)
(26.0153 -2.04142 1.34503e-17)
(26.0155 -2.041 -1.34508e-17)
(26.0156 -2.04057 1.34505e-17)
(26.0157 -2.04015 -4.10933e-22)
(26.0159 -2.03973 -1.34524e-17)
(26.016 -2.03931 -1.34533e-17)
(26.0161 -2.03888 1.3453e-17)
(26.0163 -2.03846 2.15866e-26)
(26.0164 -2.03804 1.34544e-17)
(26.0165 -2.03762 -2.69097e-17)
(26.0167 -2.03719 1.34557e-17)
(26.0168 -2.03677 0)
(26.0169 -2.03635 -2.16055e-26)
(26.0171 -2.03593 -4.10675e-22)
(26.0172 -2.03551 0)
(26.0174 -2.03509 2.16166e-26)
(26.0175 -2.03466 -1.34577e-17)
(26.0176 -2.03424 1.34585e-17)
(26.0178 -2.03382 0)
(26.0179 -2.0334 0)
(26.018 -2.03298 -1.34591e-17)
(26.0182 -2.03256 1.34602e-17)
(26.0183 -2.03214 -1.34601e-17)
(26.0184 -2.03172 2.69199e-17)
(26.0186 -2.0313 -1.34602e-17)
(26.0187 -2.03088 0)
(26.0189 -2.03045 0)
(26.019 -2.03003 0)
(26.0191 -2.02961 1.34612e-17)
(26.0193 -2.02919 -1.34614e-17)
(26.0194 -2.02877 2.05414e-22)
(26.0196 -2.02835 2.05406e-22)
(26.0197 -2.02793 1.3462e-17)
(26.0198 -2.02751 1.34621e-17)
(26.02 -2.02709 -2.69245e-17)
(26.0201 -2.02667 0)
(26.0202 -2.02625 4.10846e-22)
(26.0204 -2.02583 -2.05419e-22)
(26.0205 -2.02542 2.69257e-17)
(26.0207 -2.025 -5.38511e-17)
(26.0208 -2.02458 5.38515e-17)
(26.0209 -2.02416 -2.69258e-17)
(26.0211 -2.02374 0)
(26.0212 -2.02332 2.69259e-17)
(26.0214 -2.0229 -4.65864e-17)
(26.173 -2.07805 2.34278e-19)
(26.173 -2.07756 -2.31459e-19)
(26.1731 -2.07708 0)
(26.1733 -2.0766 -1.8086e-21)
(26.1734 -2.07612 0)
(26.1735 -2.07564 9.26228e-19)
(26.1736 -2.07517 -1.162e-25)
(26.1737 -2.07469 9.2461e-19)
(26.1739 -2.07421 -1.85484e-18)
(26.174 -2.07374 0)
(26.1741 -2.07326 -9.22984e-26)
(26.1742 -2.07279 1.81008e-21)
(26.1744 -2.07231 0)
(26.1745 -2.07184 1.85213e-18)
(26.1746 -2.07136 -5.56055e-18)
(26.1747 -2.07089 3.70859e-18)
(26.1749 -2.07041 3.70713e-18)
(26.175 -2.06994 -1.81121e-21)
(26.1751 -2.06946 -3.70962e-18)
(26.1752 -2.06898 -9.05677e-22)
(26.1754 -2.06851 0)
(26.1755 -2.06803 0)
(26.1756 -2.06756 0)
(26.1757 -2.06708 -3.71127e-18)
(26.1759 -2.06661 3.70887e-18)
(26.176 -2.06613 -3.71372e-18)
(26.1761 -2.06566 3.71222e-18)
(26.1762 -2.06518 0)
(26.1764 -2.0647 -9.0647e-22)
(26.1765 -2.06423 7.42626e-18)
(26.1766 -2.06375 -7.42776e-18)
(26.1767 -2.06327 9.06688e-22)
(26.1769 -2.0628 7.42802e-18)
(26.177 -2.06232 -1.48572e-17)
(26.1771 -2.06185 7.42916e-18)
(26.1773 -2.06137 0)
(26.1774 -2.06089 7.43117e-18)
(26.1775 -2.06042 -7.43081e-18)
(26.1776 -2.05994 -9.07118e-22)
(26.1778 -2.05946 0)
(26.1779 -2.05898 -7.4333e-18)
(26.178 -2.05851 2.0853e-25)
(26.1782 -2.05803 7.43251e-18)
(26.1783 -2.05755 -9.07431e-22)
(26.1784 -2.05708 7.4335e-18)
(26.1785 -2.0566 -7.43489e-18)