/*--------------------------------*- C++ -*----------------------------------*\
  =========                 |
  \\      /  F ield         | OpenFOAM: The Open Source CFD Toolbox
   \\    /   O peration     | Website:  https://openfoam.org
    \\  /    A nd           | Version:  8
     \\/     M anipulation  |
\*---------------------------------------------------------------------------*/
FoamFile
{
    version     2.0;
    format      ascii;
    class       volScalarField;
    location    "0.1386";
    object      nuTilda;
}
// * * * * * * * * * * * * * * * * * * * * * * * * * * * * * * * * * * * * * //

dimensions      [0 2 -1 0 0 0 0];

internalField   nonuniform List<scalar> 
119000
(
0.000761763
0.000118256
5.53633e-05
3.6455e-05
2.75401e-05
2.24108e-05
1.91145e-05
1.69382e-05
1.55637e-05
1.53132e-05
1.50249e-05
1.47193e-05
1.43619e-05
1.44355e-05
1.50734e-05
1.55617e-05
1.56023e-05
1.52401e-05
1.49051e-05
1.49857e-05
1.51683e-05
1.53466e-05
1.54982e-05
1.56526e-05
1.58852e-05
1.6121e-05
1.62247e-05
1.63346e-05
1.6457e-05
1.65847e-05
1.67137e-05
1.68386e-05
1.69501e-05
1.70432e-05
1.71193e-05
1.71889e-05
1.72572e-05
1.73146e-05
1.73626e-05
1.74008e-05
1.74294e-05
1.74509e-05
1.74655e-05
1.74737e-05
1.74741e-05
1.74505e-05
1.74014e-05
1.73384e-05
1.72599e-05
1.71662e-05
1.70644e-05
1.69605e-05
1.68552e-05
1.67502e-05
1.66587e-05
1.65709e-05
1.64847e-05
1.64018e-05
1.6322e-05
1.62465e-05
1.61743e-05
1.61041e-05
1.6034e-05
1.59644e-05
1.5896e-05
1.58293e-05
1.57644e-05
1.57006e-05
1.56373e-05
1.55735e-05
1.55083e-05
1.54412e-05
1.53713e-05
1.52981e-05
1.52199e-05
1.51319e-05
1.50457e-05
1.4977e-05
1.49333e-05
1.49111e-05
1.49077e-05
1.45539e-05
1.69836e-05
1.80472e-05
1.82004e-05
1.83718e-05
1.84974e-05
1.81329e-05
1.74147e-05
1.64748e-05
1.43533e-05
1.34231e-05
1.31246e-05
1.2879e-05
1.25397e-05
1.19913e-05
1.09024e-05
9.07426e-06
9.23492e-06
1.00289e-05
0.00212661
0.00054336
0.000282285
0.000188683
0.000142468
0.000115396
9.77774e-05
8.5489e-05
7.61477e-05
6.89125e-05
6.34056e-05
5.91984e-05
5.61171e-05
5.69625e-05
6.1635e-05
6.53712e-05
6.79445e-05
6.98733e-05
7.11948e-05
7.26805e-05
7.42283e-05
7.56638e-05
7.69398e-05
7.82101e-05
7.95849e-05
8.07605e-05
8.1777e-05
8.27359e-05
8.36853e-05
8.46462e-05
8.56086e-05
8.65413e-05
8.73778e-05
8.80829e-05
8.86671e-05
8.91533e-05
8.9561e-05
8.99013e-05
9.01878e-05
9.04194e-05
9.05949e-05
9.07308e-05
9.08271e-05
9.08872e-05
9.09063e-05
9.07879e-05
9.05225e-05
9.01812e-05
8.97463e-05
8.92287e-05
8.8665e-05
8.80901e-05
8.75058e-05
8.69226e-05
8.63364e-05
8.57603e-05
8.51931e-05
8.46482e-05
8.41234e-05
8.36277e-05
8.31537e-05
8.2694e-05
8.22348e-05
8.17789e-05
8.13297e-05
8.08923e-05
8.04652e-05
8.00463e-05
7.96297e-05
7.92094e-05
7.87791e-05
7.83337e-05
7.78676e-05
7.73748e-05
7.68402e-05
7.6206e-05
7.54973e-05
7.4749e-05
7.39878e-05
7.32318e-05
7.24919e-05
7.17188e-05
7.1495e-05
7.11515e-05
7.06345e-05
7.01393e-05
6.96947e-05
6.92068e-05
6.86686e-05
6.80867e-05
6.72662e-05
6.65995e-05
6.60346e-05
6.54097e-05
6.43624e-05
6.24727e-05
5.79647e-05
4.75062e-05
4.03956e-05
4.79252e-05
0.0033252
0.00103963
0.000570025
0.000385204
0.00029183
0.000236465
0.000200079
0.000174449
0.000155393
0.000140717
0.000129157
0.0001199
0.00011243
0.000106776
0.000104405
0.000104261
0.000104249
0.000104712
0.000105632
0.000107016
0.000108681
0.00011016
0.000111346
0.00011234
0.000113252
0.000114002
0.000114624
0.000115203
0.000115801
0.00011644
0.000117109
0.000117767
0.00011829
0.000118608
0.000118766
0.000118811
0.000118767
0.000118654
0.000118493
0.000118287
0.000118036
0.000117754
0.000117444
0.000117112
0.00011676
0.000116209
0.000115475
0.000114659
0.000113794
0.000112896
0.000111971
0.000111043
0.000110114
0.000109191
0.000108277
0.000107383
0.000106514
0.00010568
0.000104884
0.000104132
0.000103418
0.000102727
0.000102041
0.000101364
0.000100702
0.00010006
9.94359e-05
9.88255e-05
9.82217e-05
9.76152e-05
9.69984e-05
9.63644e-05
9.5706e-05
9.50157e-05
9.42765e-05
9.34452e-05
9.25305e-05
9.15662e-05
9.05861e-05
8.96159e-05
8.8675e-05
8.77684e-05
8.7027e-05
8.63323e-05
8.56757e-05
8.509e-05
8.46077e-05
8.42009e-05
8.38609e-05
8.35798e-05
8.33222e-05
8.31499e-05
8.30088e-05
8.28263e-05
8.24177e-05
8.11681e-05
7.74337e-05
6.67862e-05
6.30394e-05
7.40608e-05
0.00438474
0.0015923
0.000895399
0.000610608
0.000464379
0.000376728
0.000318618
0.000277338
0.000246485
0.000222554
0.000203478
0.000187969
0.000175178
0.000164554
0.000155911
0.000148869
0.000143172
0.000140224
0.000139285
0.000139647
0.000140742
0.000141531
0.00014192
0.000142069
0.000142125
0.000142016
0.0001418
0.000141614
0.00014153
0.000141565
0.00014169
0.000141849
0.000141819
0.000141499
0.000141018
0.000140435
0.000139779
0.000139072
0.000138337
0.00013758
0.000136799
0.000136004
0.000135202
0.000134402
0.000133609
0.000132755
0.000131816
0.000130828
0.000129825
0.000128822
0.000127826
0.000126849
0.000125885
0.00012494
0.000124026
0.000123157
0.000122344
0.000121599
0.000120931
0.000120346
0.000119842
0.000119396
0.000118984
0.000118621
0.000118324
0.000118101
0.000117953
0.000117877
0.000117871
0.000117922
0.000118025
0.000118172
0.000118351
0.000118548
0.000118726
0.000118795
0.000118751
0.000118618
0.000118422
0.000118179
0.0001179
0.000117589
0.000117276
0.000116933
0.000116551
0.00011613
0.000115661
0.000115122
0.000114505
0.000113793
0.000112976
0.000112086
0.000111122
0.000110102
0.000109056
0.000107736
0.00010486
9.78914e-05
9.59166e-05
0.000105644
0.00532203
0.00215891
0.00124311
0.000856154
0.000653881
0.000531416
0.000449582
0.000391034
0.000346996
0.000312609
0.000284988
0.000262332
0.000243438
0.000227452
0.000213746
0.0002018
0.000191324
0.000182646
0.000176282
0.000173338
0.000172479
0.000171328
0.00016992
0.000168483
0.000167174
0.000165763
0.000164343
0.000163131
0.000162182
0.000161476
0.000160948
0.000160517
0.000160053
0.00015947
0.000158787
0.000158041
0.000157251
0.000156438
0.000155627
0.000154827
0.000154032
0.000153252
0.000152499
0.000151785
0.000151121
0.000150464
0.00014979
0.000149114
0.000148462
0.000147848
0.000147273
0.000146741
0.000146215
0.000145699
0.000145206
0.000144751
0.000144343
0.000143992
0.000143703
0.000143478
0.00014331
0.000143149
0.000142949
0.000142749
0.000142576
0.000142447
0.000142363
0.000142327
0.000142339
0.000142398
0.000142503
0.000142651
0.000142833
0.000143039
0.000143228
0.000143223
0.000143051
0.000142776
0.000142428
0.000142028
0.000141587
0.000141113
0.000140614
0.00014008
0.000139505
0.000138882
0.000138185
0.000137385
0.000136477
0.000135455
0.000134306
0.000133045
0.000131671
0.000130202
0.000128724
0.000127212
0.000124646
0.000118673
0.000116592
0.000125983
0.00615023
0.00271717
0.00160341
0.00111637
0.000856229
0.000697249
0.000590225
0.000513163
0.000454859
0.000409065
0.000372065
0.00034152
0.000315857
0.000293958
0.000274941
0.000258123
0.000243149
0.000229968
0.000218601
0.000210031
0.000205024
0.000200017
0.00019558
0.000191791
0.000188647
0.000185992
0.000183781
0.000182042
0.00018076
0.000179863
0.000179233
0.000178755
0.000178318
0.000177845
0.00017733
0.00017679
0.000176224
0.00017565
0.000175093
0.000174556
0.000174015
0.000173479
0.000172963
0.00017248
0.000172036
0.000171584
0.000171099
0.000170598
0.000170102
0.000169626
0.000169173
0.000168742
0.000168252
0.000167723
0.000167185
0.000166662
0.00016617
0.000165724
0.000165333
0.000164999
0.000164719
0.000164404
0.00016398
0.000163543
0.000163132
0.000162767
0.000162448
0.000162177
0.000161959
0.000161798
0.000161698
0.000161656
0.000161666
0.000161718
0.000161784
0.000161779
0.000161677
0.000161501
0.000161275
0.000161015
0.000160732
0.000160434
0.000160121
0.000159782
0.00015941
0.000158992
0.000158477
0.000157811
0.000156999
0.000156037
0.000154898
0.00015357
0.000152036
0.000150293
0.000148429
0.000146562
0.000144072
0.000139111
0.000136451
0.000143571
0.00688033
0.0032545
0.00196974
0.00138718
0.00106846
0.00087186
0.000738557
0.000641996
0.000568545
0.000510553
0.000463469
0.000424398
0.000391389
0.000363069
0.000338342
0.00031636
0.000296705
0.000279155
0.000263359
0.000249951
0.000239252
0.000229981
0.000222144
0.000215864
0.000210926
0.000207051
0.000204095
0.000201961
0.000200545
0.000199692
0.0001992
0.000198891
0.000198634
0.000198354
0.000198041
0.000197703
0.000197313
0.00019689
0.000196458
0.00019602
0.000195519
0.000194978
0.000194423
0.000193877
0.000193348
0.00019276
0.000192105
0.000191418
0.000190729
0.000190056
0.000189404
0.000188777
0.000188015
0.000187181
0.000186334
0.000185503
0.000184711
0.000183976
0.000183307
0.000182704
0.000182168
0.00018167
0.00018117
0.000180695
0.000180269
0.000179907
0.0001796
0.000179348
0.00017916
0.000179046
0.000179013
0.000179054
0.000179165
0.000179335
0.000179535
0.000179684
0.000179762
0.000179781
0.000179752
0.000179682
0.00017958
0.000179447
0.00017928
0.000179061
0.000178783
0.000178434
0.000177939
0.00017721
0.000176299
0.000175213
0.000173932
0.00017243
0.000170678
0.00016865
0.000166411
0.00016413
0.000161502
0.000157072
0.00015369
0.000158578
0.00752158
0.00376847
0.00233772
0.00166507
0.0012883
0.00105342
0.000893035
0.00077619
0.000686862
0.000615998
0.000558217
0.000510064
0.000469196
0.000433999
0.000403171
0.00037568
0.000351071
0.000329247
0.000309871
0.000292979
0.000278562
0.000266001
0.000255071
0.000245737
0.000238016
0.000231994
0.000227607
0.000224622
0.000222785
0.000221792
0.000221281
0.000220978
0.000220701
0.00022037
0.000219992
0.000219583
0.000219072
0.000218501
0.000217901
0.000217273
0.000216511
0.000215674
0.000214809
0.000213947
0.000213105
0.000212139
0.000211077
0.000209994
0.000208924
0.000207883
0.00020688
0.000205925
0.000204957
0.000203977
0.000202999
0.00020205
0.000201151
0.000200321
0.000199568
0.000198884
0.000198267
0.000197714
0.000197212
0.000196763
0.00019638
0.000196071
0.000195805
0.00019558
0.000195413
0.000195319
0.000195307
0.000195372
0.000195509
0.000195709
0.000195944
0.000196087
0.000196155
0.00019617
0.000196142
0.000196075
0.000195975
0.000195843
0.00019567
0.00019543
0.000195121
0.000194739
0.000194253
0.000193609
0.000192796
0.000191806
0.000190622
0.000189204
0.0001875
0.000185458
0.000183109
0.00018061
0.000177873
0.00017385
0.00017013
0.000172957
0.0080819
0.00425841
0.00270406
0.00194735
0.00151395
0.00124046
0.00105241
0.000914656
0.000808835
0.000724515
0.000655502
0.00059777
0.000548584
0.000506098
0.000468796
0.000435984
0.000406991
0.0003814
0.000358785
0.000338905
0.000321549
0.000306283
0.000292819
0.000280998
0.000270758
0.000262156
0.000255392
0.000250611
0.000247622
0.000245945
0.00024497
0.000244268
0.000243574
0.000242803
0.000242003
0.000241202
0.000240253
0.000239254
0.00023824
0.000237214
0.00023596
0.000234629
0.000233286
0.000231965
0.000230689
0.000229398
0.000228081
0.000226769
0.000225489
0.000224247
0.00022305
0.000221913
0.000220813
0.000219742
0.000218679
0.000217648
0.000216671
0.000215764
0.000214935
0.000214161
0.000213435
0.000212777
0.000212187
0.000211666
0.000211223
0.000210861
0.000210516
0.000210188
0.000209916
0.000209716
0.000209599
0.000209571
0.000209622
0.000209745
0.00020992
0.000210081
0.000210207
0.000210302
0.00021037
0.00021041
0.000210425
0.000210409
0.000210351
0.000210202
0.000209969
0.000209652
0.000209238
0.000208694
0.000207992
0.00020711
0.000206032
0.000204715
0.000203088
0.000201062
0.000198666
0.000196016
0.000193143
0.000189353
0.000185436
0.000186621
0.00856761
0.00472371
0.00306626
0.00223178
0.00174394
0.00143175
0.00121564
0.00105648
0.000933645
0.000835359
0.000754636
0.000686879
0.000628951
0.000579115
0.000535871
0.000498111
0.000464955
0.000435773
0.000410027
0.000387313
0.000367288
0.00034955
0.000333776
0.000319741
0.000307306
0.000296427
0.000287222
0.000279965
0.000274915
0.000271775
0.000269692
0.000268048
0.000266451
0.000264813
0.000263243
0.000261788
0.00026013
0.000258501
0.000256916
0.000255365
0.000253748
0.000252102
0.000250461
0.000248854
0.000247303
0.000245777
0.000244261
0.000242771
0.000241321
0.000239904
0.000238528
0.00023721
0.000235948
0.000234734
0.000233513
0.000232323
0.000231188
0.000230126
0.000229144
0.00022819
0.00022726
0.000226398
0.000225617
0.00022492
0.000224311
0.000223801
0.000223363
0.000222987
0.000222682
0.000222451
0.000222307
0.00022226
0.000222302
0.000222422
0.000222603
0.00022279
0.000222966
0.000223127
0.00022327
0.000223394
0.000223491
0.000223557
0.000223581
0.000223472
0.000223261
0.000222957
0.000222556
0.000222039
0.000221373
0.000220537
0.000219512
0.000218269
0.000216746
0.000214868
0.000212606
0.000210014
0.000207154
0.000203604
0.000199687
0.000199672
0.00899156
0.00516444
0.00342239
0.00251642
0.00197707
0.00162622
0.00138182
0.00120086
0.00106058
0.00094788
0.000855022
0.000776825
0.000710434
0.000653682
0.000604723
0.00056215
0.00052489
0.000492144
0.000463261
0.000437719
0.00041508
0.000394919
0.000376885
0.000360707
0.000346193
0.000333221
0.000321808
0.000312103
0.000304467
0.000299041
0.000295058
0.000291823
0.000288771
0.00028582
0.000283175
0.000280864
0.000278691
0.00027664
0.00027468
0.000272772
0.000270866
0.000268969
0.000267082
0.000265231
0.000263436
0.000261668
0.00025992
0.000258207
0.000256538
0.000254885
0.000253264
0.000251698
0.000250196
0.00024876
0.000247274
0.000245829
0.000244448
0.000243148
0.000241937
0.000240795
0.000239715
0.000238715
0.000237808
0.000236991
0.000236268
0.000235652
0.000235134
0.000234708
0.000234365
0.000234093
0.000233907
0.00023382
0.000233829
0.000233922
0.00023408
0.000234233
0.00023438
0.000234523
0.000234661
0.000234786
0.00023489
0.000234962
0.000234998
0.000234958
0.000234827
0.000234605
0.000234287
0.00023386
0.000233284
0.000232543
0.000231622
0.000230496
0.000229112
0.000227405
0.000225324
0.000222872
0.000220092
0.000216753
0.000212953
0.000211992
0.00936568
0.00558114
0.00377098
0.00279995
0.00221187
0.00182293
0.00155015
0.00134712
0.00118903
0.0010615
0.000956117
0.000867868
0.000793342
0.000729861
0.000675265
0.0006279
0.000586513
0.000550158
0.000518077
0.000489651
0.000464358
0.00044174
0.00042141
0.000403067
0.000386477
0.000371457
0.00035796
0.000345999
0.000335816
0.000327618
0.000320872
0.000315266
0.000310432
0.000306209
0.000302602
0.000299565
0.00029691
0.000294484
0.000292187
0.000289942
0.000287723
0.000285536
0.000283355
0.00028121
0.000279121
0.000277044
0.000274984
0.000272967
0.000271006
0.00026903
0.000267081
0.000265193
0.000263382
0.000261656
0.000259961
0.000258317
0.000256746
0.000255264
0.000253873
0.000252566
0.000251341
0.000250209
0.000249177
0.00024823
0.000247377
0.000246633
0.000245999
0.000245475
0.000245038
0.000244662
0.000244372
0.000244181
0.000244095
0.000244105
0.00024419
0.00024431
0.000244449
0.0002446
0.000244757
0.000244913
0.000245052
0.000245154
0.000245219
0.000245232
0.000245171
0.000245021
0.000244778
0.00024443
0.000243919
0.000243245
0.0002424
0.000241364
0.000240092
0.000238532
0.000236625
0.000234346
0.000231723
0.000228637
0.000225066
0.000223473
0.00969838
0.00597463
0.00411088
0.00308117
0.00244711
0.00202106
0.00171994
0.00149462
0.00131841
0.00117569
0.00105812
0.000960125
0.000877616
0.000807473
0.000747243
0.000695052
0.000649476
0.000609438
0.000574075
0.000542678
0.000514657
0.000489507
0.000466809
0.000446236
0.00042752
0.000410426
0.000394875
0.00038076
0.000368219
0.000357426
0.000348114
0.000340083
0.000333191
0.000327373
0.000322568
0.000318654
0.000315378
0.00031246
0.000309723
0.000307031
0.000304386
0.000301804
0.000299222
0.00029669
0.000294229
0.000291756
0.000289297
0.000286899
0.000284579
0.000282309
0.000280095
0.00027795
0.000275889
0.000273921
0.000272021
0.000270184
0.000268427
0.000266763
0.000265188
0.000263695
0.000262294
0.000260994
0.000259801
0.000258679
0.000257646
0.000256725
0.000255921
0.00025524
0.000254674
0.000254205
0.00025383
0.000253559
0.000253397
0.000253343
0.000253374
0.000253453
0.000253566
0.000253705
0.000253861
0.000254023
0.000254174
0.000254274
0.000254332
0.000254349
0.000254306
0.000254182
0.000253968
0.000253658
0.000253221
0.000252641
0.000251905
0.000250991
0.000249857
0.000248464
0.000246756
0.00024469
0.00024227
0.000239441
0.00023614
0.000234134
0.00999596
0.00634586
0.00444126
0.00335905
0.00268169
0.0022199
0.00189055
0.0016428
0.0014482
0.00129045
0.00116105
0.00105347
0.000963043
0.000886244
0.000820347
0.000763269
0.000713431
0.000669624
0.000630885
0.000596424
0.000565585
0.000537814
0.00051266
0.000489775
0.000468859
0.000449628
0.000431998
0.000415926
0.000401435
0.000388572
0.000377168
0.000367048
0.000358114
0.000350373
0.000343907
0.000338698
0.000334462
0.000330773
0.000327365
0.000324015
0.000320766
0.000317655
0.000314536
0.000311514
0.000308604
0.000305757
0.000302969
0.000300262
0.000297643
0.000295105
0.000292646
0.000290257
0.000287954
0.000285748
0.000283621
0.000281562
0.000279589
0.000277714
0.00027592
0.000274198
0.000272575
0.00027106
0.000269661
0.000268365
0.000267176
0.000266103
0.000265151
0.000264328
0.000263634
0.000263059
0.000262584
0.000262216
0.00026196
0.000261817
0.000261774
0.000261775
0.000261818
0.000261897
0.000262004
0.000262126
0.000262246
0.000262342
0.000262408
0.000262441
0.000262428
0.000262338
0.000262161
0.000261894
0.000261518
0.000261017
0.000260376
0.000259574
0.000258552
0.000257302
0.000255771
0.000253909
0.000251699
0.000249118
0.000246096
0.000243891
0.0102634
0.00669583
0.00476151
0.00363271
0.00291461
0.00241881
0.00206139
0.00179113
0.00157792
0.00140575
0.00126473
0.00114767
0.00104934
0.000965868
0.000894256
0.000832226
0.000778045
0.000730383
0.000688178
0.000650559
0.000616806
0.00058632
0.000558615
0.000533331
0.000510128
0.000488851
0.000469355
0.000451535
0.000435333
0.000420715
0.000407543
0.000395652
0.000384939
0.000375384
0.000367062
0.000360109
0.000354424
0.000349529
0.000345108
0.000340792
0.000336714
0.000332921
0.000329322
0.000325888
0.000322601
0.000319412
0.000316312
0.000313311
0.0003104
0.000307586
0.000304865
0.000302209
0.000299638
0.00029717
0.000294781
0.000292454
0.000290221
0.000288096
0.000286073
0.000284147
0.000282329
0.000280624
0.000279038
0.00027757
0.000276221
0.000274991
0.000273881
0.000272901
0.000272058
0.000271348
0.000270733
0.000270228
0.00026984
0.00026957
0.00026941
0.000269325
0.000269301
0.000269326
0.000269388
0.000269474
0.000269561
0.000269639
0.000269698
0.000269731
0.000269727
0.000269649
0.000269482
0.00026923
0.000268883
0.000268423
0.00026784
0.000267117
0.000266215
0.000265113
0.000263764
0.000262115
0.000260136
0.00025781
0.000255079
0.000252818
0.0105046
0.00702561
0.00507118
0.00390137
0.00314501
0.00261719
0.00223191
0.00193913
0.00170775
0.00152142
0.00136894
0.00124244
0.00113622
0.00104604
0.000968662
0.000901614
0.000843017
0.000791417
0.000745658
0.00070479
0.000668032
0.000634736
0.000604381
0.000576696
0.000551378
0.000528196
0.000506959
0.000487511
0.000469735
0.00045354
0.000438794
0.000425331
0.000413039
0.000401866
0.00039182
0.000383017
0.000375466
0.00036882
0.000362917
0.000357514
0.00035259
0.000348123
0.00034402
0.000340161
0.000336486
0.000332927
0.000329478
0.000326152
0.000322912
0.000319784
0.000316765
0.000313795
0.000310914
0.000308147
0.000305489
0.000302923
0.000300462
0.000298116
0.00029588
0.000293753
0.000291743
0.000289847
0.000288067
0.00028641
0.000284881
0.000283469
0.000282171
0.000281005
0.000279979
0.000279098
0.000278342
0.000277704
0.00027719
0.000276799
0.000276526
0.000276339
0.000276226
0.000276177
0.000276176
0.000276207
0.000276235
0.000276261
0.000276277
0.000276278
0.000276245
0.00027616
0.000276005
0.000275775
0.00027546
0.000275039
0.000274509
0.000273855
0.000273051
0.000272075
0.000270881
0.000269419
0.000267653
0.000265568
0.000263115
0.000260916
0.010723
0.00733622
0.00536998
0.0041644
0.00337232
0.0028142
0.00240161
0.00208631
0.00183747
0.0016372
0.00147337
0.00133748
0.00122337
0.00112646
0.00104327
0.000971149
0.000908065
0.000852453
0.000803058
0.000758856
0.000719002
0.000682797
0.000649911
0.000619972
0.000592644
0.000567643
0.000544734
0.000523723
0.000504444
0.000486764
0.000470554
0.000455628
0.000441874
0.000429218
0.000417605
0.000407095
0.000397735
0.000389342
0.000381822
0.000375071
0.000369068
0.000363751
0.000359001
0.000354593
0.000350427
0.000346398
0.00034251
0.000338789
0.00033515
0.000331651
0.000328287
0.000325027
0.000321874
0.000318846
0.000315942
0.000313144
0.00031046
0.000307898
0.000305442
0.000303101
0.000300884
0.000298778
0.00029678
0.000294909
0.000293172
0.000291566
0.000290092
0.000288752
0.000287555
0.000286507
0.0002856
0.000284816
0.00028416
0.000283634
0.00028323
0.000282915
0.00028268
0.000282519
0.00028242
0.000282364
0.000282328
0.000282302
0.000282277
0.000282242
0.000282176
0.00028207
0.000281909
0.000281684
0.000281385
0.00028098
0.000280477
0.000279865
0.000279125
0.000278239
0.000277174
0.000275886
0.000274329
0.000272479
0.000270299
0.000268244
0.0109214
0.00762869
0.00565774
0.00442124
0.00359599
0.00300907
0.00257
0.00223279
0.00196684
0.00175282
0.00157774
0.0014325
0.0013105
0.00120685
0.00111782
0.00104056
0.000972934
0.00091324
0.000860135
0.000812518
0.000769475
0.000730549
0.00069525
0.000663153
0.00063388
0.000607105
0.000582557
0.000560011
0.000539258
0.000520135
0.000502513
0.000486175
0.000471017
0.000456949
0.000443952
0.000432031
0.000421192
0.000411318
0.000402325
0.000394142
0.000386794
0.000380299
0.000374609
0.000369392
0.000364532
0.000359849
0.000355379
0.000351163
0.000347146
0.000343316
0.000339635
0.000336092
0.00033267
0.000329383
0.000326233
0.000323189
0.000320266
0.000317473
0.000314774
0.000312195
0.000309746
0.000307423
0.000305225
0.00030316
0.000301227
0.000299435
0.000297782
0.000296263
0.000294887
0.000293663
0.000292588
0.00029163
0.000290806
0.000290116
0.000289557
0.000289104
0.000288746
0.000288472
0.000288271
0.000288119
0.000288002
0.000287906
0.000287821
0.000287733
0.00028761
0.000287457
0.000287262
0.000287012
0.000286701
0.000286309
0.000285832
0.000285258
0.000284572
0.00028376
0.000282799
0.000281655
0.000280278
0.000278636
0.000276701
0.000274819
0.0111019
0.007904
0.00593435
0.0046714
0.00381551
0.00320113
0.00273664
0.00237828
0.00209557
0.00186798
0.00168176
0.00152721
0.00139734
0.00128693
0.00119203
0.00110961
0.00103738
0.000973548
0.000916664
0.000865548
0.000819539
0.000777997
0.000740366
0.000706168
0.000674986
0.000646458
0.00062028
0.000596204
0.000573979
0.000553419
0.000534406
0.000516665
0.000500193
0.000484885
0.000470679
0.000457544
0.000445457
0.000434321
0.000424063
0.000414601
0.000405948
0.000398106
0.000391155
0.000384745
0.000378868
0.0003734
0.000368309
0.000363583
0.000359159
0.000354978
0.000350955
0.000347098
0.000343373
0.000339798
0.000336378
0.000333052
0.000329859
0.00032681
0.000323883
0.000321089
0.000318432
0.000315903
0.000313508
0.000311252
0.000309122
0.000307135
0.000305293
0.000303578
0.000302005
0.000300584
0.000299318
0.000298192
0.000297202
0.000296352
0.000295637
0.000295037
0.00029454
0.000294138
0.000293818
0.000293549
0.000293323
0.000293129
0.000292954
0.000292787
0.000292606
0.000292404
0.00029217
0.000291887
0.000291553
0.000291157
0.000290688
0.000290131
0.000289476
0.000288711
0.000287822
0.000286783
0.000285555
0.000284103
0.000282395
0.000280696
0.0112668
0.0081631
0.0061998
0.00491448
0.00403039
0.00338967
0.00290147
0.0025225
0.00222334
0.00198238
0.00178512
0.00162134
0.00148362
0.00136647
0.00126568
0.00117806
0.00110119
0.00103316
0.000972426
0.000918043
0.000869169
0.000825086
0.000785176
0.000748911
0.000715838
0.000685561
0.000657748
0.000632132
0.000608419
0.000586405
0.000565995
0.000546999
0.000529338
0.000512901
0.000497601
0.000483379
0.00047019
0.000457939
0.000446566
0.000435962
0.000426147
0.000417038
0.000408754
0.000401118
0.000394101
0.000387657
0.000381768
0.00037639
0.000371439
0.00036681
0.000362346
0.000358095
0.000353993
0.000350069
0.000346335
0.000342746
0.000339305
0.000336021
0.000332871
0.000329866
0.000327003
0.000324262
0.000321663
0.000319207
0.000316863
0.000314664
0.000312616
0.000310712
0.000308953
0.000307347
0.000305897
0.000304595
0.000303432
0.000302412
0.000301532
0.000300765
0.000300107
0.000299552
0.000299089
0.000298693
0.000298353
0.000298055
0.000297785
0.000297529
0.000297272
0.000297006
0.000296717
0.00029638
0.000296002
0.000295573
0.000295088
0.000294534
0.0002939
0.000293173
0.000292341
0.000291385
0.000290276
0.000288983
0.000287467
0.000285937
0.0114177
0.00840687
0.00645411
0.00515012
0.00424019
0.0035743
0.00306397
0.00266512
0.00234985
0.00209572
0.00188754
0.0017146
0.00156909
0.0014452
0.00133853
0.00124569
0.00116414
0.00109186
0.0010275
0.000969955
0.000918293
0.000871724
0.000829569
0.000791257
0.000756298
0.000724266
0.0006948
0.000667625
0.000642393
0.000618999
0.000597304
0.000577129
0.000558358
0.000540864
0.00052454
0.000509307
0.000495105
0.000481827
0.000469434
0.000457774
0.000446903
0.000436762
0.000427385
0.000418679
0.000410599
0.000403113
0.00039623
0.000389956
0.000384242
0.000378972
0.000373872
0.000369088
0.000364572
0.000360303
0.000356262
0.000352396
0.000348698
0.000345171
0.00034178
0.000338547
0.000335466
0.00033249
0.000329664
0.000326993
0.000324457
0.000322065
0.000319825
0.000317735
0.000315791
0.000313997
0.00031236
0.00031087
0.000309518
0.000308311
0.000307247
0.000306311
0.000305492
0.000304783
0.000304173
0.000303638
0.00030317
0.000302755
0.000302371
0.000302006
0.000301651
0.000301295
0.000300929
0.000300535
0.000300109
0.000299641
0.000299127
0.00029856
0.00029793
0.000297221
0.000296422
0.00029552
0.000294496
0.000293323
0.000291973
0.000290598
0.0115561
0.00863614
0.00669735
0.00537802
0.00444449
0.00375461
0.00322358
0.00280581
0.00247478
0.00220769
0.00198875
0.00180675
0.0016535
0.00152291
0.00141036
0.00131227
0.00122602
0.00114969
0.00108182
0.0010212
0.00096681
0.000917796
0.000873419
0.000833069
0.000796221
0.000762419
0.000731276
0.000702516
0.000675875
0.000651181
0.000628272
0.000606971
0.000587141
0.000568632
0.000551323
0.000535118
0.000519955
0.000505695
0.000492337
0.000479778
0.000468005
0.000456977
0.000446679
0.000437053
0.000428052
0.00041963
0.000411789
0.000404516
0.0003978
0.00039161
0.000385805
0.000380408
0.000375394
0.000370709
0.000366307
0.000362104
0.000358093
0.000354283
0.000350604
0.000347106
0.000343777
0.000340593
0.00033756
0.000334685
0.00033196
0.000329376
0.000326941
0.000324661
0.000322521
0.000320528
0.000318692
0.000317012
0.000315476
0.000314089
0.000312847
0.000311736
0.000310748
0.000309876
0.00030911
0.000308416
0.000307799
0.000307245
0.000306734
0.000306256
0.000305797
0.000305345
0.000304891
0.000304424
0.000303936
0.000303412
0.000302851
0.000302248
0.000301598
0.00030089
0.000300113
0.000299251
0.000298291
0.000297213
0.000295994
0.000294748
0.0116832
0.00885169
0.00692959
0.0055979
0.0046429
0.0039302
0.00337976
0.00294426
0.00259781
0.002318
0.00208847
0.00189752
0.00173661
0.00159937
0.00148096
0.00137762
0.00128681
0.00120657
0.00113529
0.00107167
0.0010146
0.000963175
0.000916592
0.000874206
0.000835459
0.000799866
0.000767076
0.000736821
0.00070883
0.000682892
0.000658819
0.000636426
0.000615565
0.000596063
0.000577784
0.000560623
0.000544519
0.000529383
0.000515174
0.000501805
0.000489234
0.000477417
0.000466312
0.000455871
0.000446051
0.000436791
0.000428091
0.000419947
0.000412348
0.000405273
0.000398651
0.000392486
0.000386797
0.000381528
0.000376626
0.000371952
0.000367517
0.000363341
0.000359377
0.000355621
0.000352045
0.000348639
0.000345391
0.000342305
0.000339377
0.000336585
0.000333942
0.000331458
0.000329128
0.000326949
0.000324926
0.000323062
0.000321342
0.000319771
0.000318348
0.000317051
0.00031588
0.000314831
0.000313891
0.000313042
0.000312276
0.000311581
0.000310934
0.00031033
0.000309755
0.000309191
0.000308633
0.000308073
0.000307503
0.000306913
0.000306298
0.000305652
0.000304972
0.000304249
0.000303474
0.000302631
0.00030171
0.000300696
0.000299573
0.000298432
0.0118002
0.00905424
0.00715095
0.00580952
0.00483506
0.004101
0.00353196
0.00308016
0.00271864
0.00242638
0.00218643
0.00198667
0.00181819
0.00167435
0.0015501
0.00144162
0.00134643
0.00126239
0.0011878
0.00112124
0.00106154
0.00100773
0.000958945
0.000914523
0.000873863
0.00083653
0.000802172
0.00077049
0.000741197
0.000714052
0.000688845
0.000665379
0.000643504
0.000623014
0.000603763
0.000585699
0.000568741
0.000552799
0.000537815
0.000523699
0.000510392
0.000497853
0.000486009
0.000474819
0.000464247
0.000454257
0.000444832
0.000435956
0.000427614
0.00041978
0.000412413
0.000405488
0.000399036
0.000392995
0.000387375
0.000382108
0.000377178
0.000372582
0.00036827
0.000364212
0.000360341
0.000356668
0.000353167
0.000349835
0.000346675
0.000343678
0.000340838
0.000338161
0.000335646
0.00033328
0.00033107
0.00032902
0.000327107
0.000325342
0.000323727
0.000322248
0.0003209
0.000319677
0.000318565
0.000317552
0.000316629
0.000315783
0.000314984
0.000314237
0.00031353
0.000312847
0.000312181
0.000311522
0.000310861
0.000310194
0.000309514
0.000308809
0.00030808
0.000307321
0.000306528
0.000305689
0.000304792
0.000303823
0.000302772
0.000301711
0.0119081
0.00924442
0.00736151
0.00601266
0.00502061
0.00426667
0.0036799
0.00321291
0.00283695
0.00253252
0.00228238
0.00207395
0.00189801
0.00174765
0.00161759
0.0015042
0.00140477
0.00131705
0.00123921
0.00116978
0.00110748
0.00105131
0.00100034
0.000953871
0.000911361
0.000872368
0.000836508
0.00080345
0.000772891
0.000744566
0.000718242
0.000693711
0.000670828
0.000649341
0.000629197
0.000610294
0.00059254
0.000575842
0.000560131
0.000545308
0.000531303
0.000518081
0.000505532
0.000493669
0.000482444
0.000471818
0.000461764
0.000452252
0.000443268
0.000434772
0.000426748
0.000419135
0.000411976
0.000405241
0.00039892
0.000392985
0.000387434
0.000382284
0.000377484
0.000373009
0.00036873
0.000364699
0.0003609
0.000357317
0.000353921
0.000350708
0.000347661
0.000344781
0.000342072
0.000339507
0.000337096
0.000334849
0.000332752
0.000330804
0.000329007
0.000327347
0.00032582
0.000324421
0.00032313
0.000321941
0.000320848
0.000319837
0.000318891
0.000318002
0.000317158
0.000316348
0.000315565
0.000314794
0.00031403
0.000313268
0.000312506