/*--------------------------------*- C++ -*----------------------------------*\
  =========                 |
  \\      /  F ield         | OpenFOAM: The Open Source CFD Toolbox
   \\    /   O peration     | Website:  https://openfoam.org
    \\  /    A nd           | Version:  8
     \\/     M anipulation  |
\*---------------------------------------------------------------------------*/
FoamFile
{
    version     2.0;
    format      ascii;
    class       volScalarField;
    location    "0.2";
    object      p;
}
// * * * * * * * * * * * * * * * * * * * * * * * * * * * * * * * * * * * * * //

dimensions      [0 2 -2 0 0 0 0];

internalField   nonuniform List<scalar> 
112617
(
2.17807
2.16078
2.14562
2.13062
2.11562
2.10044
2.08502
2.06938
2.05352
2.03744
2.02114
2.00464
1.98794
1.97106
1.95401
1.93678
1.9194
1.90187
1.8842
1.86639
1.84845
1.8304
1.81223
1.79395
1.77557
1.75709
1.73852
1.71985
1.7011
1.68228
1.66338
1.64441
1.62536
1.60626
1.5871
1.56787
1.5486
1.52927
1.50989
1.49047
1.471
1.4515
1.43195
1.41236
1.39274
1.37309
1.3534
1.33369
1.31395
1.29417
1.27438
1.25456
1.23471
1.21485
1.19496
1.17505
1.15512
1.13518
1.11522
1.09524
1.07525
1.05523
1.03521
1.01517
0.995111
0.975043
0.954959
0.934866
0.91476
0.89464
0.874509
0.854364
0.834208
0.814038
0.793857
0.773666
0.753459
0.733246
0.713018
0.69278
0.672525
0.652261
0.631986
0.6117
0.591397
0.571078
0.550756
0.530413
0.510058
0.489688
0.469304
0.44891
0.428498
0.40807
0.387626
0.367171
0.346697
0.326204
0.305697
0.285172
0.264628
0.244068
0.223489
0.20289
0.182274
0.161641
0.140984
0.120306
0.0996089
0.0788946
0.0581531
0.0373908
0.0166069
-0.00420162
-0.0250252
-0.0458827
-0.0667609
-0.0876579
-0.108582
-0.129532
-0.15051
-0.171509
-0.192535
-0.213584
-0.234667
-0.255771
-0.276903
-0.298063
-0.319249
-0.340463
-0.361703
-0.382972
-0.404267
-0.42559
-0.446945
-0.468325
-0.489733
-0.51117
-0.532636
-0.55413
-0.575645
-0.597193
-0.618769
-0.640367
-0.661997
-0.683651
-0.70533
-0.727034
-0.748766
-0.770519
-0.792298
-0.814099
-0.835924
-0.857766
-0.879626
-0.901509
-0.92341
-0.94533
-0.967264
-0.989209
-1.01116
-1.03313
-1.05511
-1.07711
-1.0991
-1.12109
-1.14309
-1.16508
-1.18708
-1.20906
-1.23103
-1.253
-1.27494
-1.29688
-1.31878
-1.34066
-1.36251
-1.38432
-1.4061
-1.42783
-1.44951
-1.47114
-1.49271
-1.51421
-1.53565
-1.55701
-1.57827
-1.59945
-1.62053
-1.64151
-1.66237
-1.68309
-1.70371
-1.7242
-1.74458
-1.76484
-1.78508
-1.80552
-1.82646
-1.85052
2.18543
2.17012
2.15479
2.13955
2.12453
2.10948
2.09422
2.07875
2.06303
2.0471
2.03094
2.01458
1.99801
1.98124
1.96429
1.94716
1.92987
1.91242
1.89482
1.87707
1.8592
1.84119
1.82306
1.80481
1.78645
1.76799
1.74943
1.73076
1.71201
1.69318
1.67426
1.65527
1.6362
1.61706
1.59785
1.57858
1.55925
1.53986
1.52042
1.50092
1.48138
1.4618
1.44216
1.42248
1.40277
1.38301
1.36323
1.3434
1.32355
1.30365
1.28374
1.26379
1.24382
1.22382
1.20379
1.18374
1.16367
1.14358
1.12346
1.10333
1.08318
1.06301
1.04282
1.02261
1.00239
0.982141
0.961887
0.941615
0.921328
0.901024
0.880709
0.860376
0.840031
0.81967
0.799297
0.778908
0.758506
0.738092
0.717664
0.69722
0.676764
0.656293
0.63581
0.615312
0.5948
0.574271
0.553733
0.533177
0.512606
0.49202
0.47142
0.450805
0.430175
0.409525
0.388862
0.368183
0.347486
0.326774
0.306039
0.285294
0.264522
0.243741
0.222933
0.202112
0.18127
0.160409
0.139528
0.118623
0.0977017
0.0767584
0.0557937
0.0348067
0.0137976
-0.00723404
-0.0282851
-0.0493637
-0.0704634
-0.0915859
-0.112731
-0.133903
-0.155098
-0.176319
-0.197562
-0.218831
-0.240126
-0.261447
-0.282792
-0.304164
-0.32556
-0.346985
-0.368431
-0.389909
-0.411409
-0.432936
-0.454487
-0.47607
-0.497675
-0.519306
-0.540964
-0.562646
-0.584354
-0.606086
-0.627845
-0.649625
-0.671431
-0.693258
-0.715113
-0.736985
-0.75888
-0.780795
-0.802733
-0.82469
-0.846665
-0.868655
-0.89066
-0.912681
-0.934721
-0.956772
-0.978832
-1.0009
-1.02298
-1.04506
-1.06715
-1.08924
-1.11133
-1.13342
-1.15551
-1.17758
-1.19965
-1.2217
-1.24374
-1.26576
-1.28776
-1.30974
-1.33168
-1.35359
-1.37546
-1.39729
-1.41907
-1.44081
-1.46248
-1.4841
-1.50564
-1.52712
-1.54851
-1.56982
-1.59103
-1.61215
-1.63315
-1.65404
-1.67481
-1.69545
-1.71596
-1.73635
-1.75663
-1.77685
-1.79723
-1.81815
-1.83947
-1.86103
2.19262
2.17884
2.1639
2.14863
2.13352
2.11851
2.10341
2.08809
2.07253
2.05675
2.04073
2.0245
2.00806
1.99141
1.97457
1.95755
1.94035
1.92299
1.90546
1.88779
1.86997
1.85202
1.83393
1.81572
1.79739
1.77895
1.7604
1.74175
1.723
1.70416
1.68523
1.66621
1.64712
1.62795
1.6087
1.58939
1.57001
1.55056
1.53106
1.5115
1.49188
1.47222
1.4525
1.43274
1.41293
1.39307
1.37318
1.35325
1.33329
1.31328
1.29324
1.27317
1.25307
1.23293
1.21277
1.19258
1.17237
1.15213
1.13186
1.11157
1.09126
1.07093
1.05057
1.0302
1.0098
0.989388
0.968955
0.948502
0.928035
0.907546
0.887041
0.866523
0.845984
0.825428
0.804857
0.784272
0.763669
0.743051
0.722419
0.701769
0.681104
0.660421
0.639729
0.619017
0.598291
0.577544
0.556789
0.536015
0.515222
0.494419
0.473593
0.452757
0.431899
0.411027
0.390138
0.369232
0.348307
0.327365
0.306403
0.285428
0.264428
0.243415
0.222379
0.201326
0.180252
0.15916
0.138048
0.116915
0.09576
0.0745887
0.0533894
0.0321757
0.0109344
-0.010325
-0.0316044
-0.0529136
-0.0742394
-0.0955906
-0.11696
-0.138359
-0.159779
-0.181222
-0.202688
-0.224179
-0.245694
-0.267232
-0.288795
-0.310384
-0.331997
-0.353629
-0.37529
-0.396976
-0.418683
-0.440417
-0.462174
-0.483955
-0.505761
-0.52759
-0.549441
-0.571317
-0.593212
-0.615133
-0.637073
-0.659037
-0.681021
-0.703023
-0.725046
-0.74709
-0.769149
-0.79123
-0.813323
-0.835436
-0.857557
-0.879696
-0.901843
-0.924008
-0.946178
-0.96836
-0.990542
-1.01273
-1.03492
-1.05712
-1.07931
-1.1015
-1.12369
-1.14587
-1.16804
-1.19019
-1.21233
-1.23445
-1.25655
-1.27862
-1.30066
-1.32268
-1.34466
-1.36659
-1.38848
-1.41032
-1.43211
-1.45384
-1.47551
-1.4971
-1.51863
-1.54006
-1.56142
-1.58267
-1.60382
-1.62487
-1.6458
-1.6666
-1.68728
-1.70782
-1.72824
-1.74854
-1.76873
-1.78901
-1.80966
-1.83078
-1.85173
-1.87135
2.19916
2.18693
2.1728
2.15774
2.14257
2.12757
2.11256
2.09738
2.08198
2.06635
2.0505
2.0344
2.01809
2.00158
1.98485
1.96794
1.95084
1.93357
1.91613
1.89853
1.88078
1.86288
1.84484
1.82668
1.80839
1.78998
1.77145
1.75281
1.73406
1.71522
1.69628
1.67726
1.65814
1.63894
1.61966
1.60031
1.58088
1.56139
1.54183
1.5222
1.50252
1.48278
1.46298
1.44314
1.42323
1.40329
1.38329
1.36326
1.34318
1.32306
1.3029
1.28271
1.26248
1.24221
1.22192
1.20159
1.18123
1.16084
1.14042
1.11998
1.09951
1.07901
1.05849
1.03795
1.01738
0.99679
0.976175
0.955544
0.934888
0.914216
0.893521
0.872808
0.852077
0.831322
0.81055
0.789765
0.768957
0.748131
0.727292
0.706429
0.685554
0.664658
0.643749
0.622817
0.601872
0.580907
0.559928
0.538929
0.517915
0.496881
0.47583
0.454764
0.433678
0.412575
0.391454
0.370315
0.349157
0.327982
0.306787
0.285575
0.264341
0.243091
0.22182
0.200531
0.179221
0.157892
0.136542
0.115173
0.0937825
0.0723742
0.0509412
0.0294878
0.00801485
-0.0134808
-0.0349958
-0.0565355
-0.0780946
-0.0996797
-0.121281
-0.142909
-0.164556
-0.186231
-0.207922
-0.22964
-0.251381
-0.273139
-0.294926
-0.316735
-0.338563
-0.360416
-0.382291
-0.404186
-0.426108
-0.448047
-0.470014
-0.491997
-0.514007
-0.536034
-0.558082
-0.580152
-0.60224
-0.624347
-0.646475
-0.668617
-0.690783
-0.712964
-0.735155
-0.757366
-0.779595
-0.801835
-0.824087
-0.846353
-0.868629
-0.890907
-0.913198
-0.935498
-0.957804
-0.980108
-1.00242
-1.02472
-1.04703
-1.06933
-1.09163
-1.11392
-1.1362
-1.15846
-1.1807
-1.20294
-1.22514
-1.24732
-1.26948
-1.2916
-1.31369
-1.33574
-1.35774
-1.3797
-1.4016
-1.42344
-1.44523
-1.46696
-1.4886
-1.51018
-1.53166
-1.55306
-1.57436
-1.59556
-1.61665
-1.63762
-1.65846
-1.67918
-1.69976
-1.7202
-1.74053
-1.76074
-1.78094
-1.80136
-1.82222
-1.8432
-1.86321
-1.88086
2.20628
2.19456
2.1813
2.16673
2.15168
2.13664
2.12168
2.10663
2.09138
2.07591
2.0602
2.04426
2.0281
2.01171
1.99512
1.97832
1.96133
1.94416
1.92681
1.90929
1.89161
1.87378
1.85581
1.83769
1.81944
1.80106
1.78256
1.76394
1.74521
1.72638
1.70744
1.6884
1.66927
1.65005
1.63074
1.61136
1.59189
1.57234
1.55273
1.53305
1.5133
1.49348
1.47361
1.45368
1.4337
1.41365
1.39357
1.37343
1.35324
1.33301
1.31273
1.29242
1.27206
1.25166
1.23123
1.21076
1.19025
1.16972
1.14915
1.12855
1.10792
1.08726
1.06657
1.04586
1.02511
1.00435
0.983554
0.962735
0.941896
0.921034
0.900146
0.879236
0.858306
0.837352
0.816379
0.795384
0.774371
0.753335
0.73228
0.711207
0.690115
0.668998
0.647867
0.626716
0.605547
0.584356
0.563149
0.541922
0.520678
0.499413
0.47813
0.456829
0.435509
0.414169
0.392812
0.371434
0.350039
0.328623
0.307189
0.285736
0.264262
0.24277
0.221258
0.199725
0.178175
0.156603
0.135012
0.113399
0.0917675
0.0701159
0.0484426
0.026748
0.0050349
-0.0167014
-0.038456
-0.0602358
-0.0820322
-0.103852
-0.125691
-0.147557
-0.169438
-0.191341
-0.213267
-0.235216
-0.257183
-0.279173
-0.301182
-0.323216
-0.345266
-0.36734
-0.389435
-0.411547
-0.433679
-0.455835
-0.478009
-0.5002
-0.522411
-0.544642
-0.566891
-0.589155
-0.611435
-0.633734
-0.656048
-0.678376
-0.700721
-0.723078
-0.745445
-0.767828
-0.790222
-0.81262
-0.835034
-0.857448
-0.879873
-0.902301
-0.924732
-0.947167
-0.969603
-0.99203
-1.01446
-1.03689
-1.0593
-1.08171
-1.10411
-1.12649
-1.14885
-1.1712
-1.19352
-1.21582
-1.23809
-1.26033
-1.28253
-1.3047
-1.32682
-1.3489
-1.37093
-1.3929
-1.41481
-1.43666
-1.45844
-1.48014
-1.50176
-1.52331
-1.54475
-1.5661
-1.58734
-1.60848
-1.62949
-1.65038
-1.67113
-1.69175
-1.71223
-1.73258
-1.75281
-1.77298
-1.79325
-1.81385
-1.83472
-1.85518
-1.87414
-1.89126
2.21361
2.20196
2.18935
2.17546
2.16072
2.14574
2.13079
2.11583
2.10072
2.08541
2.06986
2.05408
2.03806
2.02182
2.00535
1.98869
1.97181
1.95475
1.9375
1.92008
1.90248
1.88472
1.86681
1.84875
1.83055
1.81221
1.79375
1.77515
1.75645
1.73762
1.71868
1.69964
1.6805
1.66126
1.64194
1.62252
1.60302
1.58343
1.56376
1.54403
1.52422
1.50434
1.48439
1.46438
1.44431
1.42418
1.40399
1.38375
1.36346
1.34312
1.32273
1.30229
1.2818
1.26127
1.24071
1.2201
1.19945
1.17876
1.15804
1.13728
1.11649
1.09567
1.07481
1.05393
1.03301
1.01206
0.991088
0.970085
0.949055
0.928001
0.906918
0.885808
0.864676
0.843523
0.822339
0.801139
0.77991
0.758664
0.737391
0.716099
0.694784
0.673448
0.652091
0.630714
0.609315
0.587892
0.566456
0.544993
0.523514
0.502012
0.480493
0.458951
0.437392
0.415809
0.394211
0.37259
0.35095
0.329291
0.307609
0.285911
0.264191
0.242453
0.220691
0.198913
0.177114
0.155294
0.133456
0.111594
0.0897166
0.0678148
0.0458958
0.023954
0.001995
-0.0199883
-0.0419859
-0.0640102
-0.086052
-0.108113
-0.130195
-0.152297
-0.17442
-0.196561
-0.218725
-0.240904
-0.263109
-0.285327
-0.307571
-0.329828
-0.352105
-0.374405
-0.396722
-0.419053
-0.441405
-0.463774
-0.48616
-0.508562
-0.530981
-0.553414
-0.575864
-0.598328
-0.620804
-0.643296
-0.665795
-0.688311
-0.710837
-0.73337
-0.755914
-0.778466
-0.801027
-0.82359
-0.846157
-0.868724
-0.891296
-0.91387
-0.93644
-0.959011
-0.981573
-1.00413
-1.02668
-1.04922
-1.07174
-1.09425
-1.11674
-1.13921
-1.16166
-1.18409
-1.20648
-1.22884
-1.25117
-1.27346
-1.29572
-1.31792
-1.34007
-1.36217
-1.38421
-1.4062
-1.42811
-1.44995
-1.47171
-1.49339
-1.51499
-1.53648
-1.55788
-1.57918
-1.60035
-1.62141
-1.64234
-1.66314
-1.6838
-1.70432
-1.7247
-1.74495
-1.76512
-1.7853
-1.80568
-1.82635
-1.84694
-1.86664
-1.88488
-1.90208
2.22092
2.20921
2.19708
2.18386
2.1696
2.15481
2.13992
2.12502
2.11003
2.09486
2.07947
2.06384
2.04798
2.03189
2.01557
1.99903
1.98228
1.96534
1.94819
1.93087
1.91336
1.89568
1.87784
1.85986
1.84171
1.82342
1.805
1.78644
1.76775
1.74895
1.73002
1.71099
1.69184
1.67259
1.65324
1.6338
1.61427
1.59464
1.57493
1.55515
1.53527
1.51533
1.49531
1.47523
1.45508
1.43486
1.41458
1.39424
1.37384
1.35339
1.33288
1.31232
1.29172
1.27106
1.25035
1.22961
1.20881
1.18798
1.16711
1.14619
1.12524
1.10425
1.08322
1.06217
1.04107
1.01994
0.998784
0.977592
0.95637
0.93512
0.913839
0.892532
0.871194
0.849833
0.828442
0.807027
0.785583
0.764118
0.742626
0.721109
0.699571
0.678008
0.656419
0.63481
0.613178
0.591523
0.569847
0.548146
0.526427
0.504683
0.482921
0.461134
0.439328
0.417503
0.39565
0.373786
0.351893
0.329984
0.308051
0.286101
0.264128
0.242137
0.220123
0.198092
0.176035
0.153967
0.13187
0.109759
0.0876254
0.0654707
0.0432991
0.0211051
-0.00110576
-0.0233398
-0.0455903
-0.0678621
-0.090152
-0.112461
-0.134792
-0.15714
-0.179504
-0.20189
-0.224294
-0.246714
-0.269156
-0.291612
-0.314088
-0.336578
-0.359089
-0.381612
-0.404155
-0.426711
-0.449284
-0.471872
-0.494472
-0.517086
-0.539718
-0.562355
-0.58501
-0.607671
-0.630349
-0.653032
-0.675726
-0.698424
-0.721134
-0.743844
-0.766563
-0.789287
-0.81201
-0.834734
-0.857461
-0.880185
-0.902904
-0.925616
-0.948328
-0.971029
-0.99372
-1.0164
-1.03906
-1.06171
-1.08434
-1.10695
-1.12953
-1.15209
-1.17462
-1.19712
-1.21958
-1.242
-1.26439
-1.28672
-1.30901
-1.33125
-1.35343
-1.37554
-1.3976
-1.41958
-1.44149
-1.46331
-1.48505
-1.50671
-1.52826
-1.54971
-1.57106
-1.59228
-1.61339
-1.63436
-1.6552
-1.67591
-1.69646
-1.71688
-1.73716
-1.75734
-1.77748
-1.79771
-1.81816
-1.83873
-1.85882
-1.87775
-1.89552
-1.91296
2.22802
2.2164
2.20454
2.19192
2.17825
2.16379
2.14901
2.13419
2.11929
2.10426
2.08903
2.07356
2.05786
2.04193
2.02575
2.00936
1.99274
1.97591
1.95889
1.94166
1.92426
1.90667
1.88892
1.87099
1.85292
1.83468
1.81631
1.79779
1.77913
1.76035
1.74145
1.72242
1.70328
1.68402
1.66466
1.6452
1.62564
1.60598
1.58623
1.5664
1.54647
1.52647
1.50639
1.48623
1.466
1.4457
1.42533
1.40489
1.38439
1.36383
1.34321
1.32253
1.3018
1.28102
1.26018
1.23929
1.21836
1.19738
1.17634
1.15528
1.13416
1.11301
1.09181
1.07057
1.0493
1.02799
1.00664
0.985264
0.963848
0.9424
0.92092
0.899407
0.877864
0.856291
0.834686
0.813054
0.791394
0.769706
0.747989
0.726246
0.704475
0.682682
0.660858
0.639014
0.617145
0.595247
0.573329
0.551384
0.529421
0.507427
0.485418
0.463381
0.441323
0.419243
0.39714
0.375017
0.352871
0.330704
0.308515
0.286306
0.264074
0.241824
0.219551
0.197259
0.174945
0.152614
0.130259
0.107886
0.0854938
0.0630799
0.040651
0.0181957
-0.00427108
-0.0267617
-0.0492691
-0.0717977
-0.0943407
-0.116902
-0.139486
-0.162082
-0.1847
-0.207333
-0.229983
-0.252649
-0.275331
-0.298029
-0.320743
-0.343471
-0.366214
-0.388972
-0.411743
-0.434526
-0.457324
-0.480131
-0.502953
-0.525784
-0.548624
-0.571475
-0.594334
-0.6172
-0.640074
-0.66295
-0.685838
-0.708726
-0.731618
-0.754507
-0.777401
-0.800294
-0.82318
-0.846068
-0.868953
-0.89183
-0.914694
-0.93755
-0.960396
-0.983229
-1.00604
-1.02884
-1.05162
-1.07437
-1.09711
-1.11981
-1.14249
-1.16513
-1.18773
-1.2103
-1.23282
-1.2553
-1.27773
-1.30011
-1.32243
-1.34469
-1.36689
-1.38902
-1.41107
-1.43305
-1.45495
-1.47675
-1.49846
-1.52008
-1.54158
-1.56298
-1.58426
-1.60542
-1.62644
-1.64733
-1.66807
-1.68868
-1.70913
-1.72944
-1.74963
-1.76976
-1.7899
-1.81017
-1.83061
-1.85088
-1.87033
-1.88862
-1.90616
-1.92368
2.2349
2.22346
2.2118
2.19966
2.18659
2.1726
2.15806
2.14333
2.12853
2.11362
2.09853
2.08323
2.06769
2.05192
2.0359
2.01965
2.00318
1.98648
1.96957
1.95247
1.93517
1.91768
1.90001
1.88217
1.86417
1.84599
1.82767
1.8092
1.79059
1.77184
1.75296
1.73395
1.71481
1.69556
1.67619
1.65671
1.63713
1.61745
1.59767
1.57779
1.55781
1.53776
1.51761
1.49739
1.47708
1.4567
1.43624
1.41571
1.39511
1.37445
1.35371
1.33292
1.31207
1.29116
1.27018
1.24916
1.22808
1.20695
1.18577
1.16454
1.14326
1.12194
1.10057
1.07916
1.05771
1.03621
1.01468
0.993107
0.971494
0.949846
0.928163
0.906442
0.884689
0.8629
0.841081
0.819228
0.797345
0.77543
0.753482
0.731511
0.709503
0.687475
0.665414
0.643326
0.621214
0.59907
0.576904
0.554712
0.532494
0.510252
0.487985
0.465691
0.443378
0.421037
0.398676
0.37629
0.353882
0.331454
0.309
0.286527
0.26403
0.241514
0.218974
0.196418
0.173838
0.151238
0.12862
0.105979
0.0833219
0.0606415
0.037945
0.0152298
-0.00750469
-0.0302567
-0.0530261
-0.0758168
-0.0986192
-0.121442
-0.144282
-0.167133
-0.190008
-0.212891
-0.235795
-0.258711
-0.28164
-0.304584
-0.327539
-0.350511
-0.373492
-0.396487
-0.41949
-0.442504
-0.465531
-0.488564
-0.511607
-0.534655
-0.557712
-0.580773
-0.60384
-0.626912
-0.649987
-0.67306
-0.696138
-0.719215
-0.74229
-0.76536
-0.788435
-0.811493
-0.834551
-0.857595
-0.880635
-0.903661
-0.926675
-0.949668
-0.97265
-0.99561
-1.01855
-1.04146
-1.06435
-1.08721
-1.11004
-1.13284
-1.1556
-1.17831
-1.20099
-1.22362
-1.2462
-1.26873
-1.29121
-1.31362
-1.33597
-1.35825
-1.38046
-1.40259
-1.42464
-1.44661
-1.46848
-1.49026
-1.51194
-1.5335
-1.55496
-1.57629
-1.5975
-1.61857
-1.63951
-1.66031
-1.68095
-1.70144
-1.72179
-1.742
-1.76212
-1.78222
-1.80237
-1.82265
-1.84292
-1.8627
-1.8815
-1.8993
-1.91676
-1.93422
2.24155
2.23038
2.21893
2.20714
2.19463
2.18116
2.16698
2.15243
2.13774
2.12294
2.10799
2.09284
2.07747
2.06186
2.04601
2.02991
2.01359
1.99703
1.98026
1.96327
1.94609
1.92871
1.91114
1.89338
1.87545
1.85736
1.8391
1.82068
1.80212
1.78341
1.76455
1.74557
1.72644
1.7072
1.68784
1.66835
1.64875
1.62905
1.60923
1.58931
1.5693
1.54919
1.52899
1.5087
1.48832
1.46786
1.44732
1.4267
1.406
1.38523
1.36439
1.34349
1.32251
1.30147
1.28037
1.25921
1.23799
1.21671
1.19537
1.17399
1.15255
1.13106
1.10952
1.08793
1.0663
1.04461
1.02289
1.00112
0.979312
0.95746
0.935571
0.913641
0.891671
0.869668
0.847627
0.825553
0.803441
0.781293
0.759117
0.736905
0.714664
0.69239
0.670087
0.647751
0.62539
0.602997
0.580577
0.558129
0.535654
0.513153
0.490625
0.468071
0.445491
0.422888
0.400259
0.377606
0.354931
0.332229
0.309509
0.286763
0.263996
0.241206
0.218398
0.195564
0.172714
0.149841
0.126947
0.104037
0.0811048
0.0581534
0.0351854
0.0121993
-0.0108051
-0.0338274
-0.0568662
-0.079922
-0.102991
-0.12608
-0.149181
-0.172299
-0.195429
-0.218574
-0.241731
-0.264904
-0.288087
-0.311279
-0.334484
-0.357698
-0.380925
-0.404159
-0.427399
-0.450651
-0.473909
-0.497168
-0.520435
-0.543707
-0.566979
-0.590257
-0.613534
-0.636813
-0.660088
-0.683362
-0.706636
-0.729898
-0.753158
-0.776411
-0.799658
-0.822892
-0.846112
-0.86932
-0.89251
-0.915688
-0.938842
-0.96198
-0.985088
-1.00818
-1.03123
-1.05426
-1.07726
-1.10022
-1.12314
-1.14603
-1.16887
-1.19166
-1.2144
-1.2371
-1.25973
-1.2823
-1.30481
-1.32725
-1.34963
-1.37192
-1.39413
-1.41626
-1.43831
-1.46025
-1.4821
-1.50384
-1.52547
-1.54698
-1.56837
-1.58964
-1.61076
-1.63176
-1.65259
-1.67329
-1.69382
-1.7142
-1.73445
-1.75458
-1.77464
-1.79471
-1.81486
-1.83505
-1.85499
-1.87422
-1.89241
-1.90992
-1.92728
-1.94454
2.24796
2.23713
2.22593
2.21442
2.20236
2.18946
2.17572
2.16144
2.1469
2.13222
2.1174
2.10241
2.0872
2.07176
2.05607
2.04014
2.02397
2.00756
1.99093
1.97407
1.95701
1.93974
1.92228
1.90462
1.88678
1.86876
1.85058
1.83222
1.81371
1.79505
1.77623
1.75727
1.73817
1.71895
1.69959
1.6801
1.66049
1.64076
1.62093
1.60098
1.58093
1.56077
1.54052
1.52017
1.49972
1.47919
1.45856
1.43786
1.41707
1.3962
1.37525
1.35423
1.33314
1.31197
1.29075
1.26944
1.24808
1.22666
1.20517
1.18362
1.16202
1.14036
1.11865
1.09688
1.07506
1.0532
1.03128
1.00932
0.987307
0.96525
0.943149
0.921008
0.898823
0.876598
0.854335
0.832029
0.809686
0.787308
0.764892
0.742441
0.719955
0.697434
0.67488
0.652296
0.629678
0.607029
0.584352
0.561639
0.538905
0.516136
0.493341
0.470519
0.44767
0.424793
0.401894
0.378967
0.356014
0.333039
0.31004
0.287016
0.263971
0.240903
0.217813
0.194703
0.17157
0.148417
0.125246
0.102054
0.0788436
0.0556147
0.0323673
0.00910138
-0.0141761
-0.0374775
-0.0607892
-0.0841188
-0.107463
-0.130819
-0.154192
-0.177577
-0.200974
-0.224383
-0.247803
-0.271233
-0.294673
-0.318125
-0.34158
-0.365045
-0.388519
-0.411995
-0.43548
-0.458969
-0.482458
-0.505953
-0.529446
-0.552943
-0.57644
-0.599931
-0.62342
-0.646909
-0.670386
-0.693862
-0.717328
-0.740784
-0.764228
-0.787666
-0.811082
-0.834485
-0.857871
-0.881239
-0.904585
-0.92791
-0.951206
-0.974477
-0.997718
-1.02093
-1.04411
-1.06724
-1.09034
-1.11341
-1.13641
-1.15938
-1.1823
-1.20516
-1.22796
-1.25072
-1.27339
-1.296
-1.31855
-1.34101
-1.3634
-1.3857
-1.40791
-1.43003
-1.45205
-1.47397
-1.49578
-1.51748
-1.53905
-1.56051
-1.58182
-1.60301
-1.62405
-1.64495
-1.66569
-1.68627
-1.7067
-1.72698
-1.74712
-1.76717
-1.78719
-1.80723
-1.82732
-1.84729
-1.86679
-1.88541
-1.90316
-1.92046
-1.93767
-1.95468
2.25414
2.24372
2.2328
2.22152
2.20984
2.19746
2.18422
2.1703
2.15599
2.14146
2.12678
2.11193
2.09688
2.0816
2.06609
2.05032
2.03431
2.01806
2.00158
1.98486
1.96793
1.95079
1.93343
1.91588
1.89814
1.88021
1.8621
1.84382
1.82537
1.80676
1.78799
1.76907
1.75
1.73079
1.71144
1.69196
1.67235
1.65261
1.63276
1.61279
1.5927
1.5725
1.5522
1.53179
1.51129
1.49068
1.46998
1.44919
1.42831
1.40734
1.38629
1.36517
1.34395
1.32267
1.30131
1.27987
1.25837
1.2368
1.21516
1.19346
1.17169
1.14986
1.12797
1.10603
1.08403
1.06197
1.03986
1.0177
0.995484
0.973219
0.950909
0.928549
0.906146
0.883698
0.861202
0.838669
0.81609
0.793472
0.770814
0.748118
0.725383
0.702608
0.679803
0.656958
0.634083
0.61117
0.588227
0.565251
0.542243
0.519205
0.496137
0.473039
0.449915
0.426758
0.403581
0.380371
0.357139
0.333879
0.310595
0.287287
0.263956
0.240602
0.217226
0.193827
0.170409
0.146968
0.123512
0.100031
0.0765361
0.0530203
0.0294884
0.0059404
-0.0176258
-0.0412057
-0.0647995
-0.0884113
-0.112031
-0.135668
-0.159313
-0.182974
-0.206644
-0.230322
-0.25401
-0.277705
-0.30141
-0.325118
-0.348835
-0.372555
-0.396277
-0.420005
-0.443733
-0.467465
-0.491194
-0.51492
-0.538648
-0.56237
-0.58609
-0.609802
-0.633507
-0.657201
-0.680889
-0.704563
-0.728223
-0.751872
-0.775503
-0.799121
-0.822713
-0.846284
-0.869839
-0.893363
-0.91686
-0.940329
-0.963768
-0.98717
-1.01054
-1.03387
-1.05717
-1.08041
-1.10361
-1.12676
-1.14986
-1.17291
-1.19589
-1.21882
-1.24168
-1.26447
-1.28719
-1.30984
-1.33241
-1.35489
-1.37728
-1.39958
-1.42178
-1.44389
-1.46588
-1.48777
-1.50953
-1.53118
-1.5527
-1.57407
-1.59532
-1.61641
-1.63736
-1.65815
-1.67878
-1.69925
-1.71957
-1.73974
-1.7598
-1.77979
-1.79975
-1.81974
-1.83968
-1.85932
-1.87829
-1.89637
-1.91378
-1.93096
-1.94797
-1.96459
2.26008
2.2501
2.23951
2.22847
2.21711
2.20518
2.19246
2.17898
2.16496
2.15062
2.13609
2.12139
2.10651
2.0914
2.07606
2.06046
2.04462
2.02853
2.0122
1.99564
1.97885
1.96183
1.9446
1.92716
1.90952
1.89169
1.87367
1.85547
1.83709
1.81854
1.79982
1.78095
1.76192
1.74273
1.7234
1.70393
1.68433
1.66459
1.64472
1.62473
1.60461
1.58438
1.56404
1.54358
1.52301
1.50234
1.48157
1.4607
1.43973
1.41867
1.39752
1.37628
1.35496
1.33355
1.31206
1.2905
1.26885
1.24713
1.22535
1.20348
1.18155
1.15956
1.1375
1.11537
1.09318
1.07094
1.04863
1.02627
1.00385
0.981378
0.95885
0.936272
0.913644
0.890967
0.868242
0.845471
0.822652
0.799792
0.776887
0.753938
0.730952
0.707921
0.684856
0.661747
0.638605
0.615427
0.59221
0.568962
0.54568
0.522361
0.499017
0.475633
0.452227
0.428786
0.40532
0.381822
0.358302
0.33475
0.311176
0.287576
0.263952
0.240304
0.216635
0.192941
0.16923
0.145495
0.121742
0.097968
0.0741812
0.0503683
0.0265481
0.00270501
-0.0211499
-0.0450182
-0.068903
-0.0927984
-0.116705
-0.140627
-0.164554
-0.188494
-0.21244
-0.236395
-0.260358
-0.284323
-0.308296
-0.332272
-0.35625
-0.380229
-0.40421
-0.42819
-0.452171
-0.476144
-0.500114
-0.524082
-0.548044
-0.571997
-0.595938
-0.619872
-0.643795
-0.667701
-0.691595
-0.715475
-0.73933
-0.763169
-0.786988
-0.810784
-0.834552
-0.858297
-0.882007
-0.905693
-0.929339
-0.952956
-0.976529
-1.00007
-1.02356
-1.04701
-1.07041
-1.09376
-1.11706
-1.1403
-1.16348
-1.1866
-1.20965
-1.23263
-1.25554
-1.27838
-1.30114
-1.32381
-1.34639
-1.36888
-1.39128
-1.41357
-1.43576
-1.45783
-1.47979
-1.50164
-1.52335
-1.54493
-1.56638
-1.58769
-1.60884
-1.62984
-1.65068
-1.67137
-1.69189
-1.71224
-1.73244
-1.75252
-1.77249
-1.79241
-1.81231
-1.83218
-1.85187
-1.87108
-1.88951
-1.90716
-1.92431
-1.94134
-1.9581
-1.97432
2.26577
2.25624
2.24603
2.23529
2.2242
2.21266
2.20042
2.18742
2.17377
2.15968
2.14534
2.13081
2.11608
2.10114
2.08597
2.07055
2.05488
2.03897
2.0228
2.00639
1.98975
1.97287
1.95578
1.93846
1.92093
1.90321
1.88528
1.86717
1.84886
1.83039
1.81173
1.7929
1.77392
1.75477
1.73547
1.71602
1.69643
1.67669
1.65682
1.63681
1.61667
1.59641
1.57603
1.55552
1.5349
1.51417
1.49333
1.47238
1.45134
1.43018
1.40894
1.38759
1.36616
1.34463
1.32302
1.30132
1.27954
1.25768
1.23574
1.21372
1.19162
1.16946
1.14722
1.12492
1.10254
1.0801
1.0576
1.03503
1.01241
0.989723
0.96698
0.944178
0.921323
0.898415
0.875454
0.852442
0.829382
0.806274
0.783114
0.759915
0.736668
0.713374
0.690043
0.666666
0.643254
0.619799
0.596305
0.572779
0.549211
0.525612
0.501977
0.478308
0.454608
0.430877
0.407114
0.383324
0.359504
0.335658
0.311784
0.287882
0.263959
0.240009
0.216038
0.192044
0.168029
0.143994
0.119938
0.0958642
0.0717735
0.0476634
0.0235388
-0.000598443
-0.0247549
-0.0489182
-0.0730984
-0.0972892
-0.121487
-0.145699
-0.169915
-0.194143
-0.218374
-0.242607
-0.266851
-0.291093
-0.315338
-0.339585
-0.363831
-0.388076
-0.412317
-0.436556
-0.460788
-0.485014
-0.509231
-0.53344
-0.557638
-0.581824
-0.605996
-0.630151
-0.654292
-0.678415
-0.702515
-0.726598
-0.750654
-0.774684
-0.798687
-0.822662
-0.846606
-0.870518
-0.894392
-0.918232
-0.942029
-0.965789
-0.989497
-1.01316
-1.03678
-1.06034
-1.08385
-1.1073
-1.13069
-1.15401
-1.17727
-1.20046
-1.22357
-1.24661
-1.26956
-1.29243
-1.31521
-1.33791
-1.3605
-1.383
-1.40538
-1.42766
-1.44982
-1.47187
-1.49379
-1.51558
-1.53723
-1.55875
-1.58011
-1.60133
-1.62239
-1.64329
-1.66402
-1.68459
-1.70499
-1.72523
-1.74533
-1.7653
-1.78519
-1.80503
-1.82483
-1.84451
-1.86385
-1.88257
-1.90052
-1.91781
-1.93477
-1.95159
-1.96801
-1.98383
2.2712
2.26214
2.25237
2.24195
2.23112
2.21991
2.20813
2.1956
2.18238
2.16861
2.1545
2.14015
2.12559
2.11082
2.09583
2.08059
2.0651
2.04936
2.03337
2.01713
2.00063
1.98391
1.96695
1.94976
1.93236
1.91475
1.89693
1.87891
1.8607
1.8423
1.82371
1.80495
1.78601
1.76691
1.74764
1.72822
1.70864
1.68891
1.66904
1.64903
1.62887
1.60859
1.58817
1.56763
1.54696
1.52617
1.50527
1.48425
1.46312
1.44188
1.42054
1.3991
1.37755
1.35591
1.33418
1.31235
1.29043
1.26842
1.24633
1.22416
1.2019
1.17957
1.15715
1.13467
1.1121
1.08947
1.06677
1.044
1.02116
0.998264
0.975302
0.952275
0.92919
0.906047
0.882846
0.859594
0.836281
0.812923
0.789507
0.766046
0.742533
0.718975
0.69537
0.671724
0.648027
0.624295
0.600517
0.576703
0.552847
0.528956
0.505027
0.481062
0.457065
0.433032
0.408971
0.384877
0.360751
0.336596
0.312419
0.288208
0.263978
0.239717
0.215439
0.191134
0.166807
0.142462
0.118099
0.0937137
0.0693141
0.0448962
0.0204646
-0.00398014
-0.0284411
-0.0529096
-0.0773933
-0.101881
-0.126385
-0.150889
-0.175403
-0.19992
-0.224444
-0.248966
-0.273496
-0.298018
-0.322547
-0.347066
-0.371586
-0.396099
-0.420607
-0.445109
-0.469597
-0.494076
-0.518545
-0.542998
-0.567438
-0.591856
-0.616262
-0.640644
-0.665005
-0.689343
-0.713655
-0.73794
-0.762191
-0.786418
-0.810606
-0.834763
-0.858881
-0.882956
-0.906997
-0.930988
-0.954932
-0.978832
-1.00267
-1.02646
-1.0502
-1.07387
-1.09748
-1.12103
-1.14451
-1.16791
-1.19124
-1.21449
-1.23765
-1.26074
-1.28373
-1.30663
-1.32943
-1.35214
-1.37474
-1.39722
-1.4196
-1.44185
-1.46398
-1.48598
-1.50785
-1.52958
-1.55116
-1.5726
-1.59388
-1.615
-1.63597
-1.65676
-1.67737
-1.69781
-1.71809
-1.73822
-1.7582
-1.77808
-1.79788
-1.81761
-1.83725
-1.85666
-1.87559
-1.89382
-1.91132
-1.92834
-1.94514
-1.96171
-1.97773
-1.99309
2.27635
2.26778
2.25845
2.24842
2.23789
2.22698
2.21559
2.20353
2.19076
2.17737
2.16354
2.1494
2.13503
2.12044
2.10562
2.09057
2.07527
2.05971
2.04389
2.02782
2.0115
1.99493
1.97812
1.96108
1.9438
1.92632
1.90861
1.89069
1.87258
1.85426
1.83576
1.81706
1.79819
1.77914
1.75991
1.74052
1.72097
1.70126
1.6814
1.66138
1.64122
1.62092
1.60047
1.5799
1.55919
1.53835
1.51739
1.4963
1.4751
1.45378
1.43235
1.4108
1.38915
1.3674
1.34554
1.32358
1.30153
1.27938
1.25714
1.23481
1.21239
1.18989
1.1673
1.14463
1.12188
1.09905
1.07615
1.05318
1.03013
1.00701
0.983823
0.960573
0.937252
0.91387
0.890427
0.866925
0.843361
0.819742
0.796069
0.77234
0.748558
0.72473
0.700844
0.676917
0.652938
0.628916
0.604851
0.580739
0.556591
0.532396
0.50817
0.483901
0.459597
0.435258
0.410886
0.386479
0.362042
0.337576
0.313081
0.288555
0.264008
0.23943
0.214831
0.19021
0.165566
0.140901
0.116219
0.0915172
0.0667998
0.0420655
0.0173213
-0.00744326
-0.0322125
-0.056997
-0.081788
-0.106587
-0.131395
-0.156203
-0.181024
-0.205837
-0.230657
-0.255478
-0.280293
-0.305108
-0.329921
-0.354724
-0.37952
-0.404309
-0.42909
-0.453853
-0.478606
-0.503343
-0.528063
-0.552766
-0.577447
-0.60211
-0.626745
-0.651354
-0.675937
-0.700495
-0.725016
-0.749507
-0.773958
-0.798374
-0.822753
-0.847087
-0.871379
-0.895623
-0.919819
-0.943964
-0.968051
-0.992088
-1.01606
-1.03997
-1.06382
-1.0876
-1.11131
-1.13495
-1.1585
-1.18198
-1.20538
-1.22869
-1.2519
-1.27503
-1.29805
-1.32097
-1.34379
-1.3665
-1.38909
-1.41156
-1.43391
-1.45613
-1.47822
-1.50017
-1.52198
-1.54364
-1.56515
-1.5865
-1.60769
-1.62871
-1.64956
-1.67023
-1.69072
-1.71104
-1.7312
-1.7512
-1.77108
-1.79085
-1.81054
-1.83014
-1.84955
-1.8686
-1.88707
-1.90484
-1.92199
-1.93878
-1.95537
-1.97161
-1.98722
-2.00211
2.28121
2.27313
2.26429
2.25468
2.24449
2.23387
2.22283
2.21121
2.1989
2.18593
2.17243
2.15855
2.14439
2.12999
2.11536
2.1005
2.08538
2.07001
2.05438
2.03848
2.02233
2.00593
1.98928
1.97238
1.95526
1.9379
1.92032
1.90251
1.8845
1.86628
1.84787
1.82925
1.81045
1.79146
1.77228
1.75294
1.73342
1.71373
1.69388
1.67387
1.65371
1.63339
1.61293
1.59233
1.57158
1.5507
1.52968
1.50853
1.48726
1.46587
1.44434
1.42271
1.40095
1.37909
1.35712
1.33503
1.31285
1.29056
1.26817
1.24569
1.2231
1.20043
1.17767
1.15482
1.13188
1.10886
1.08575
1.06257
1.03931
1.01597
0.992555
0.96907
0.945515
0.92189
0.898198
0.874444
0.850626
0.826744
0.802803
0.778804
0.754748
0.730637
0.706471
0.682253
0.657987
0.633669
0.609305
0.584896
0.560441
0.535944
0.511406
0.486826
0.462209
0.437552
0.412864
0.388136
0.363381
0.338591
0.313772
0.288922
0.264049
0.239146
0.214221
0.189271
0.164303
0.139309
0.114302
0.0892723
0.06423
0.0391705
0.0140995
-0.0109827
-0.0360773
-0.0611788
-0.086288
-0.111405
-0.136524
-0.161649
-0.186775
-0.211899
-0.237023
-0.262142
-0.287258
-0.312368
-0.337469
-0.362559
-0.387641
-0.412711