/*--------------------------------*- C++ -*----------------------------------*\
  =========                 |
  \\      /  F ield         | OpenFOAM: The Open Source CFD Toolbox
   \\    /   O peration     | Website:  https://openfoam.org
    \\  /    A nd           | Version:  8
     \\/     M anipulation  |
\*---------------------------------------------------------------------------*/
FoamFile
{
    version     2.0;
    format      ascii;
    class       volVectorField;
    location    "0.2";
    object      U;
}
// * * * * * * * * * * * * * * * * * * * * * * * * * * * * * * * * * * * * * //

dimensions      [0 1 -1 0 0 0 0];

internalField   nonuniform List<vector> 
112617
(
(14.9999 7.08406e-08 -4.12102e-24)
(15 1.02163e-06 -1.07263e-22)
(14.9999 2.62987e-06 -6.40777e-22)
(14.9999 6.20242e-06 2.02408e-22)
(14.9998 9.80055e-06 3.65609e-21)
(14.9998 1.32677e-05 -3.80606e-21)
(14.9998 1.69581e-05 -1.46286e-22)
(14.9998 2.14624e-05 1.52961e-21)
(14.9998 2.64712e-05 4.88821e-21)
(14.9998 3.22193e-05 -8.12938e-21)
(14.9998 3.80657e-05 -2.17409e-22)
(14.9998 4.43726e-05 1.4413e-20)
(14.9997 5.12961e-05 9.56199e-21)
(14.9997 5.81921e-05 1.01884e-20)
(14.9997 6.55688e-05 9.22537e-21)
(14.9997 7.28841e-05 1.55901e-20)
(14.9997 8.03963e-05 -1.17661e-20)
(14.9997 8.83941e-05 2.09927e-20)
(14.9997 9.60539e-05 -1.56853e-20)
(14.9997 0.0001038 -2.34645e-20)
(14.9997 0.00011161 -4.2502e-20)
(14.9997 0.000119683 -1.82353e-20)
(14.9997 0.00012739 -1.89426e-20)
(14.9997 0.000135442 -1.09383e-20)
(14.9996 0.000143171 9.41102e-21)
(14.9996 0.000151296 2.08588e-20)
(14.9996 0.000159134 -3.28578e-20)
(14.9996 0.000166854 4.39958e-20)
(14.9996 0.000174756 -3.04743e-22)
(14.9996 0.000182585 2.296e-20)
(14.9996 0.000190478 2.27289e-20)
(14.9996 0.000198044 2.79272e-22)
(14.9996 0.000205673 2.32755e-20)
(14.9996 0.000213338 2.40152e-20)
(14.9996 0.000220549 -2.41672e-20)
(14.9996 0.000228082 2.70878e-22)
(14.9996 0.00023535 -3.75987e-20)
(14.9996 0.000242636 2.41748e-20)
(14.9996 0.00025016 -1.0424e-20)
(14.9996 0.000257117 4.86823e-20)
(14.9996 0.000264363 -4.86186e-20)
(14.9996 0.000271303 3.88734e-20)
(14.9996 0.000278017 9.28221e-21)
(14.9997 0.000284821 -2.31941e-22)
(14.9997 0.000291645 2.40034e-20)
(14.9997 0.000298134 7.99944e-21)
(14.9997 0.000304934 2.34535e-20)
(14.9997 0.000311442 -3.90876e-20)
(14.9997 0.000317558 -2.32752e-20)
(14.9997 0.000323965 5.54091e-20)
(14.9997 0.000329998 1.65603e-20)
(14.9997 0.000336183 4.46147e-20)
(14.9997 0.000342058 4.40813e-20)
(14.9997 0.000348153 -1.68905e-20)
(14.9997 0.000353862 -1.72306e-20)
(14.9997 0.000359454 -2.11132e-20)
(14.9997 0.000365007 -4.15796e-20)
(14.9997 0.000370594 1.74887e-20)
(14.9997 0.000375768 2.02576e-20)
(14.9997 0.000381155 -1.98874e-20)
(14.9997 0.000386348 1.95229e-20)
(14.9997 0.000391147 -1.44663e-22)
(14.9997 0.000396187 1.87261e-20)
(14.9997 0.000400928 -1.46811e-22)
(14.9997 0.000405705 1.78983e-20)
(14.9998 0.00041036 -3.6025e-20)
(14.9998 0.000414697 0)
(14.9998 0.000419338 -1.64987e-20)
(14.9998 0.0004236 1.6069e-20)
(14.9998 0.000427701 1.56168e-20)
(14.9998 0.000431705 3.4244e-20)
(14.9998 0.000435599 -1.90559e-20)
(14.9998 0.000439318 -2.86889e-20)
(14.9998 0.000442951 3.33306e-20)
(14.9998 0.000446697 -3.90325e-20)
(14.9998 0.00045019 1.94256e-20)
(14.9998 0.000453301 4.44914e-20)
(14.9998 0.000456769 -7.96376e-21)
(14.9998 0.000459803 0)
(14.9998 0.000462787 0)
(14.9999 0.000465466 0)
(14.9999 0.000468332 -9.86362e-21)
(14.9999 0.000470981 0)
(14.9999 0.000473605 -1.13403e-20)
(14.9999 0.000475867 4.0405e-20)
(14.9999 0.000478017 1.57957e-20)
(14.9999 0.000480349 -6.85853e-20)
(14.9999 0.000482295 1.36624e-20)
(14.9999 0.000484198 1.42969e-20)
(14.9999 0.000485966 -2.05506e-20)
(14.9999 0.00048772 -5.21805e-21)
(14.9999 0.000489354 4.68694e-21)
(14.9999 0.000490721 4.09229e-21)
(14.9999 0.000491991 3.80097e-20)
(15 0.000493072 4.47034e-20)
(15 0.000494145 -1.83691e-20)
(15 0.000495009 -4.18447e-20)
(15 0.000495884 0)
(15 0.000496483 8.28271e-22)
(15 0.000497012 2.10366e-20)
(15 0.000497439 -2.65975e-22)
(15 0.000497765 -2.02195e-20)
(15 0.000498019 0)
(15 0.000497996 4.20959e-20)
(15 0.000497984 -9.97562e-21)
(15 0.000497759 -1.79555e-20)
(15.0001 0.000497524 -7.22742e-21)
(15.0001 0.000497098 -2.10019e-20)
(15.0001 0.000496571 -2.57232e-20)
(15.0001 0.000495772 1.05603e-20)
(15.0001 0.000494847 5.76243e-21)
(15.0001 0.000493905 2.0997e-20)
(15.0001 0.000492823 -7.01236e-21)
(15.0001 0.000491694 2.10326e-20)
(15.0001 0.000490165 -1.61729e-20)
(15.0001 0.00048882 -1.21045e-20)
(15.0001 0.000487356 -3.00686e-20)
(15.0001 0.000485515 9.83928e-21)
(15.0001 0.000483644 5.18832e-20)
(15.0002 0.000481543 -3.14329e-20)
(15.0002 0.000479632 -2.05974e-20)
(15.0002 0.000477397 2.35893e-20)
(15.0002 0.000475106 2.06118e-20)
(15.0002 0.000472356 7.60213e-21)
(15.0002 0.000469973 -6.77892e-20)
(15.0002 0.000467184 1.4104e-20)
(15.0002 0.000464123 5.75796e-21)
(15.0002 0.000461174 -4.05553e-20)
(15.0002 0.000458125 5.13368e-20)
(15.0002 0.000454885 4.01796e-21)
(15.0002 0.000451522 -2.00331e-20)
(15.0002 0.000448046 -1.38781e-20)
(15.0002 0.000444391 3.73723e-20)
(15.0003 0.000440324 -3.78964e-20)
(15.0003 0.000436571 1.72024e-20)
(15.0003 0.000432468 1.97749e-20)
(15.0003 0.000428225 1.95309e-20)
(15.0003 0.000424009 -3.94853e-20)
(15.0003 0.000419461 -5.91843e-20)
(15.0003 0.00041516 1.88695e-22)
(15.0003 0.000410422 1.91577e-20)
(15.0003 0.000405463 0)
(15.0003 0.000400722 2.21047e-20)
(15.0003 0.000395518 0)
(15.0003 0.000390336 -1.88692e-20)
(15.0003 0.000385099 2.35506e-20)
(15.0003 0.000379718 -5.30198e-21)
(15.0003 0.000373899 2.41e-20)
(15.0004 0.000368305 1.83459e-20)
(15.0004 0.000362353 -4.97855e-20)
(15.0004 0.000356551 -1.07401e-20)
(15.0004 0.000350317 7.79797e-21)
(15.0004 0.000344386 4.34903e-20)
(15.0004 0.000338002 -8.68887e-21)
(15.0004 0.000331272 0)
(15.0004 0.000324867 9.31244e-21)
(15.0004 0.000318065 4.39738e-20)
(15.0004 0.000311264 4.31432e-20)
(15.0004 0.000304539 -4.34083e-20)
(15.0004 0.000297536 1.08557e-20)
(15.0004 0.000290162 2.82659e-22)
(15.0004 0.000283089 1.56133e-20)
(15.0004 0.000275344 -1.56266e-20)
(15.0004 0.000267841 3.1067e-20)
(15.0004 0.000260327 1.85184e-21)
(15.0004 0.00025248 -5.67099e-20)
(15.0004 0.000244969 -1.42097e-20)
(15.0004 0.000236903 -1.295e-20)
(15.0004 0.000228843 -3.23136e-22)
(15.0004 0.00022082 3.5001e-22)
(15.0004 0.000212378 1.28685e-20)
(15.0004 0.000203969 4.33904e-25)
(15.0004 0.000195433 -7.6127e-20)
(15.0004 0.000187066 3.90448e-20)
(15.0004 0.000178516 -3.80547e-20)
(15.0004 0.000169576 3.5218e-20)
(15.0004 0.000161056 -3.44826e-20)
(15.0004 0.000152098 2.90938e-21)
(15.0004 0.000143497 3.16884e-20)
(15.0004 0.000134401 -2.864e-21)
(15.0004 0.000125558 -2.04444e-20)
(15.0004 0.00011673 1.94714e-20)
(15.0004 0.00010794 7.30297e-21)
(15.0004 9.8665e-05 -9.78376e-21)
(15.0004 8.99112e-05 -3.80734e-20)
(15.0004 8.13233e-05 1.7607e-20)
(15.0003 7.25787e-05 -1.30819e-20)
(15.0003 6.43501e-05 6.99852e-21)
(15.0003 5.59983e-05 1.47478e-20)
(15.0003 4.83391e-05 -5.97259e-21)
(15.0003 4.11771e-05 1.88538e-21)
(15.0003 3.40509e-05 6.58021e-21)
(15.0003 2.77884e-05 -7.32772e-21)
(15.0002 2.21023e-05 4.34249e-21)
(15.0002 1.74147e-05 1.96053e-21)
(15.0002 1.29561e-05 2.78242e-21)
(15.0002 8.19572e-06 -1.33693e-21)
(15.0001 3.47905e-06 -8.81376e-22)
(15 1.2942e-06 4.40224e-22)
(15.0001 1.49959e-07 -5.18794e-23)
(14.9982 1.05166e-05 7.7412e-23)
(14.9993 2.56966e-05 -8.75289e-22)
(14.9996 1.4807e-05 -2.17701e-22)
(14.9994 2.4682e-05 -3.64017e-21)
(14.9993 4.5237e-05 5.18158e-21)
(14.9992 6.52877e-05 -3.87636e-21)
(14.9992 8.17782e-05 -8.35793e-21)
(14.9991 9.77538e-05 3.14303e-22)
(14.9991 0.00011435 2.86277e-21)
(14.9991 0.000132257 6.71696e-22)
(14.9991 0.00015042 -9.66406e-21)
(14.999 0.00016907 5.17475e-21)
(14.999 0.000188596 1.56226e-20)
(14.999 0.000208433 -1.05332e-20)
(14.999 0.000229189 4.35175e-20)
(14.999 0.000250239 3.8079e-21)
(14.9989 0.000271573 -2.87085e-20)
(14.9989 0.0002937 -3.9814e-21)
(14.9989 0.000315733 1.90056e-20)
(14.9989 0.000338049 -8.27826e-23)
(14.9989 0.000360502 -1.01729e-20)
(14.9989 0.000383437 -3.55966e-20)
(14.9989 0.000405996 -2.53018e-20)
(14.9989 0.000429027 -7.84695e-23)
(14.9989 0.000451706 -1.17511e-20)
(14.9989 0.000474877 2.39674e-20)
(14.9989 0.000497947 1.00411e-21)
(14.9988 0.000520792 7.3971e-22)
(14.9988 0.00054366 -1.41271e-20)
(14.9988 0.000566529 -1.34383e-20)
(14.9988 0.00058936 1.34748e-20)
(14.9988 0.000611896 6.98027e-22)
(14.9988 0.000634511 -4.31742e-20)
(14.9989 0.000657053 1.14519e-19)
(14.9989 0.000679003 1.51777e-20)
(14.9989 0.000701203 2.82996e-20)
(14.9989 0.000722899 -3.08584e-20)
(14.9989 0.000744591 -5.47972e-22)
(14.9989 0.000766605 2.86446e-20)
(14.9989 0.000787688 7.13999e-20)
(14.9989 0.0008091 4.48978e-20)
(14.9989 0.000829965 -5.89577e-21)
(14.9989 0.000850457 2.74573e-20)
(14.9989 0.000870886 0)
(14.9989 0.000891222 9.9194e-21)
(14.9989 0.000911012 -1.74893e-20)
(14.9989 0.000931103 6.13189e-20)
(14.999 0.000950469 -3.41953e-20)
(14.999 0.00096928 -6.16375e-20)
(14.999 0.000988368 1.77267e-20)
(14.999 0.00100699 2.56176e-20)
(14.999 0.00102538 1.27909e-20)
(14.999 0.00104322 8.57519e-20)
(14.999 0.00106137 4.30725e-20)
(14.9991 0.00107871 -2.01251e-22)
(14.9991 0.00109583 1.44841e-20)
(14.9991 0.00111276 -1.88093e-20)
(14.9991 0.00112934 -3.85609e-20)
(14.9991 0.00114536 6.34312e-20)
(14.9991 0.00116151 4.34959e-20)
(14.9992 0.00117708 1.62558e-21)
(14.9992 0.00119211 0)
(14.9992 0.00120725 2.0361e-20)
(14.9992 0.00122179 -1.98822e-20)
(14.9992 0.00123612 3.933e-20)
(14.9992 0.00125007 1.1352e-22)
(14.9993 0.00126368 -1.4526e-22)
(14.9993 0.00127727 -3.80517e-20)
(14.9993 0.0012902 -4.09024e-20)
(14.9993 0.00130275 8.57812e-24)
(14.9993 0.00131492 4.10348e-20)
(14.9994 0.00132693 4.14672e-20)
(14.9994 0.00133844 -2.07523e-20)
(14.9994 0.0013495 8.99208e-21)
(14.9994 0.00136063 -2.08762e-20)
(14.9994 0.00137118 -3.49749e-20)
(14.9995 0.00138114 1.34043e-20)
(14.9995 0.00139131 2.11422e-20)
(14.9995 0.00140069 3.36176e-20)
(14.9995 0.00140975 -1.17677e-20)
(14.9995 0.00141824 3.26085e-20)
(14.9996 0.00142674 1.07497e-20)
(14.9996 0.00143479 -5.32217e-20)
(14.9996 0.0014426 -2.16493e-20)
(14.9996 0.00144969 2.16535e-20)
(14.9997 0.00145646 3.87089e-20)
(14.9997 0.00146318 -4.96346e-24)
(14.9997 0.0014694 2.18521e-20)
(14.9997 0.00147513 5.39236e-23)
(14.9998 0.00148055 -2.81882e-20)
(14.9998 0.00148589 -2.76319e-20)
(14.9998 0.00149061 -4.92055e-20)
(14.9998 0.00149482 3.97421e-20)
(14.9998 0.00149867 4.43983e-20)
(14.9999 0.0015022 9.85201e-21)
(14.9999 0.00150564 8.12231e-21)
(14.9999 0.00150836 -2.44721e-20)
(14.9999 0.00151093 -2.238e-20)
(15 0.00151276 -7.33105e-24)
(15 0.00151441 2.21268e-20)
(15 0.00151573 2.22138e-20)
(15 0.00151672 -6.76333e-24)
(15.0001 0.00151753 -2.24752e-20)
(15.0001 0.00151759 -4.49871e-20)
(15.0001 0.0015175 1.72102e-20)
(15.0001 0.00151669 1.91529e-20)
(15.0002 0.00151577 -2.62415e-20)
(15.0002 0.00151453 -4.17058e-23)
(15.0002 0.00151291 1.74246e-20)
(15.0002 0.00151078 4.47826e-20)
(15.0003 0.00150801 -5.10428e-20)
(15.0003 0.00150514 -2.2272e-20)
(15.0003 0.00150195 -4.2099e-23)
(15.0003 0.00149825 8.06604e-21)
(15.0003 0.00149403 5.05544e-21)
(15.0004 0.00148974 1.8393e-20)
(15.0004 0.00148511 -2.22989e-20)
(15.0004 0.00147973 1.04459e-20)
(15.0004 0.00147409 2.27668e-22)
(15.0005 0.00146796 -1.1561e-20)
(15.0005 0.00146184 5.64785e-20)
(15.0005 0.0014551 -1.74372e-22)
(15.0005 0.00144802 -4.40009e-20)
(15.0006 0.00144008 -3.59576e-20)
(15.0006 0.00143236 7.84396e-23)
(15.0006 0.001424 5.19142e-20)
(15.0006 0.001415 -1.562e-20)
(15.0007 0.00140606 2.19007e-20)
(15.0007 0.00139662 3.34083e-20)
(15.0007 0.00138663 -3.89482e-20)
(15.0007 0.00137644 -4.34368e-20)
(15.0007 0.00136583 6.20056e-20)
(15.0008 0.00135479 4.25924e-20)
(15.0008 0.00134302 -1.92629e-20)
(15.0008 0.00133119 -2.40779e-22)
(15.0008 0.00131898 -4.22716e-22)
(15.0008 0.00130632 -2.13677e-20)
(15.0009 0.00129341 -6.41441e-20)
(15.0009 0.00127982 1.20848e-21)
(15.0009 0.00126631 6.66688e-20)
(15.0009 0.00125218 4.41379e-20)
(15.001 0.00123739 -2.85551e-21)
(15.001 0.00122269 -1.90485e-22)
(15.001 0.00120735 4.25402e-21)
(15.001 0.00119158 0)
(15.001 0.00117556 5.25165e-21)
(15.001 0.00115925 2.06963e-20)
(15.0011 0.00114201 1.99279e-20)
(15.0011 0.00112506 -4.03015e-20)
(15.0011 0.00110746 -7.32465e-21)
(15.0011 0.00108954 1.95441e-20)
(15.0011 0.00107105 8.89752e-21)
(15.0011 0.00105282 3.80546e-20)
(15.0012 0.0010339 -2.90448e-20)
(15.0012 0.00101412 3.87214e-20)
(15.0012 0.000994608 -3.02546e-20)
(15.0012 0.000974421 4.99704e-20)
(15.0012 0.000954058 -5.03541e-20)
(15.0012 0.000933553 1.30326e-20)
(15.0012 0.000912554 3.07014e-20)
(15.0013 0.000890859 4.52443e-20)
(15.0013 0.000869456 1.79818e-20)
(15.0013 0.000846913 1.38801e-20)
(15.0013 0.000824649 1.82854e-20)
(15.0013 0.000802289 1.69076e-20)
(15.0013 0.00077926 -4.96424e-20)
(15.0013 0.00075642 -4.97788e-20)
(15.0013 0.000732799 1.72774e-20)
(15.0013 0.000708985 -1.66637e-20)
(15.0013 0.000685156 4.10194e-22)
(15.0013 0.000660869 -1.67519e-20)
(15.0013 0.000636418 -9.6435e-20)
(15.0014 0.000611845 7.15732e-22)
(15.0014 0.000587171 4.79243e-20)
(15.0014 0.000562096 3.27275e-20)
(15.0014 0.00053676 2.75659e-20)
(15.0014 0.000511863 -7.52179e-20)
(15.0013 0.000486392 3.0318e-20)
(15.0013 0.000461333 1.65182e-20)
(15.0013 0.000435649 2.93315e-20)
(15.0013 0.000410379 2.37647e-20)
(15.0013 0.000385091 -1.59255e-20)
(15.0013 0.000359958 -1.10825e-20)
(15.0013 0.000334514 -3.4979e-20)
(15.0013 0.000309835 -2.79171e-20)
(15.0013 0.000285301 -1.00533e-20)
(15.0013 0.000260907 -2.77461e-20)
(15.0012 0.000237419 6.77878e-21)
(15.0012 0.000214102 -6.41171e-21)
(15.0012 0.000191653 6.11223e-21)
(15.0012 0.000169556 -4.00755e-22)
(15.0012 0.000147533 -8.64601e-21)
(15.0011 0.000126948 6.23596e-21)
(15.0011 0.000106944 1.84185e-20)
(15.0011 8.59167e-05 -1.58762e-21)
(15.001 5.97189e-05 -2.7422e-22)
(15.0008 3.2382e-05 -4.76752e-21)
(15.0006 1.97871e-05 2.47946e-21)
(15.001 3.49692e-05 -4.04134e-22)
(15.0025 1.48188e-05 -3.62297e-22)
(14.9967 5.9247e-06 1.47319e-22)
(14.9984 4.92162e-05 1.38323e-22)
(14.9991 4.33468e-05 6.89947e-22)
(14.999 4.22335e-05 -2.11185e-21)
(14.9988 6.52886e-05 -2.14953e-21)
(14.9986 0.00010096 9.1465e-21)
(14.9985 0.000134478 -2.3704e-21)
(14.9985 0.000164596 0)
(14.9984 0.000194189 -1.80948e-20)
(14.9984 0.000225358 2.80937e-20)
(14.9983 0.000257272 -2.48072e-20)
(14.9983 0.000289718 5.47731e-21)
(14.9983 0.000322804 5.7311e-21)
(14.9982 0.000356518 -2.27684e-20)
(14.9982 0.000391397 1.72607e-20)
(14.9982 0.000426749 8.33548e-21)
(14.9982 0.000462437 -4.11133e-20)
(14.9981 0.000499023 -4.24463e-20)
(14.9981 0.00053568 1.28432e-20)
(14.9981 0.000572798 1.35963e-20)
(14.9981 0.000610261 4.76707e-20)
(14.9981 0.000648069 1.09836e-20)
(14.9981 0.000685883 1.43343e-20)
(14.9981 0.000724046 -2.62425e-20)
(14.998 0.000761857 1.21982e-20)
(14.998 0.000800121 -5.37589e-20)
(14.998 0.000838431 5.45824e-20)
(14.998 0.000876384 1.28502e-20)
(14.998 0.000914305 1.3544e-20)
(14.998 0.000952363 -1.361e-20)
(14.998 0.000990156 -2.86685e-20)
(14.998 0.00102787 4.29097e-20)
(14.998 0.00106555 -7.19472e-20)
(14.998 0.00110307 -4.42552e-20)
(14.9981 0.00113993 5.92183e-20)
(14.9981 0.00117704 5.71634e-20)
(14.9981 0.00121341 2.85644e-20)
(14.9981 0.00124964 -1.57963e-20)
(14.9981 0.00128609 1.22282e-20)
(14.9981 0.0013216 -5.64825e-20)
(14.9981 0.00135707 7.27659e-20)
(14.9981 0.00139219 1.68876e-20)
(14.9982 0.0014267 2.77212e-20)
(14.9982 0.00146122 2.75332e-20)
(14.9982 0.00149529 0)
(14.9982 0.00152857 -1.74384e-20)
(14.9982 0.00156193 8.11493e-21)
(14.9982 0.00159455 4.49194e-20)
(14.9983 0.00162657 -3.63566e-20)
(14.9983 0.00165845 -2.59219e-20)
(14.9983 0.0016899 3.28729e-20)
(14.9983 0.00172097 -4.38454e-20)
(14.9984 0.001751 -3.11622e-20)
(14.9984 0.00178124 6.7907e-20)
(14.9984 0.00181063 1.88749e-20)
(14.9984 0.00183971 2.39411e-20)
(14.9985 0.00186807 5.06476e-20)
(14.9985 0.00189603 3.62052e-21)
(14.9985 0.00192337 -3.90032e-20)
(14.9985 0.00195041 4.15039e-20)
(14.9986 0.00197676 6.13322e-20)
(14.9986 0.00200233 2.11653e-20)
(14.9986 0.00202774 1.98942e-20)
(14.9987 0.00205253 1.4184e-22)
(14.9987 0.00207666 -5.98838e-20)
(14.9987 0.0021002 3.8642e-20)
(14.9987 0.0021233 2.03395e-20)
(14.9988 0.00214592 1.84647e-20)
(14.9988 0.00216783 -3.85667e-20)
(14.9988 0.0021891 -2.4526e-23)
(14.9989 0.00220983 3.9223e-21)
(14.9989 0.00223021 -2.07167e-20)
(14.9989 0.0022499 -2.63213e-20)
(14.999 0.0022687 3.63282e-20)
(14.999 0.00228714 3.59779e-20)
(14.9991 0.00230517 -1.42248e-20)
(14.9991 0.00232241 -1.36888e-20)
(14.9991 0.00233914 -4.76427e-20)
(14.9992 0.00235513 8.79932e-21)
(14.9992 0.00237061 -1.18383e-20)
(14.9992 0.00238515 -4.33809e-20)
(14.9993 0.00239947 5.4328e-20)
(14.9993 0.00241315 1.17591e-21)
(14.9993 0.0024263 -4.3774e-20)
(14.9994 0.00243836 -7.29421e-23)
(14.9994 0.00245003 5.35566e-23)
(14.9995 0.00246124 -3.01942e-20)
(14.9995 0.0024719 2.21092e-20)
(14.9995 0.00248173 3.7468e-20)
(14.9996 0.00249098 6.3998e-21)
(14.9996 0.00249974 5.72522e-21)
(14.9997 0.00250765 2.98245e-23)
(14.9997 0.00251497 -2.70302e-20)
(14.9997 0.00252162 -4.0961e-20)
(14.9998 0.00252775 -2.25726e-20)
(14.9998 0.00253347 6.77132e-20)
(14.9999 0.00253812 2.04484e-20)
(14.9999 0.00254226 -2.26548e-20)
(14.9999 0.00254555 2.17212e-20)
(15 0.00254853 3.73849e-22)
(15 0.00255078 -2.30031e-20)
(15.0001 0.00255229 8.60047e-22)
(15.0001 0.0025535 0)
(15.0001 0.00255385 2.06955e-21)
(15.0002 0.00255368 -2.00718e-20)
(15.0002 0.00255243 -3.27364e-21)
(15.0003 0.00255075 2.66402e-20)
(15.0003 0.00254853 -3.17631e-20)
(15.0003 0.00254563 -2.26826e-20)
(15.0004 0.00254212 1.46582e-24)
(15.0004 0.00253774 -1.93035e-23)
(15.0005 0.00253284 4.53534e-20)
(15.0005 0.00252733 2.25419e-20)
(15.0005 0.00252095 -2.25717e-20)
(15.0006 0.002514 2.2605e-20)
(15.0006 0.00250655 3.18815e-20)
(15.0007 0.00249868 -4.5141e-20)
(15.0007 0.00248967 -3.43612e-20)
(15.0007 0.00248008 1.13307e-20)
(15.0008 0.00246981 5.65992e-20)
(15.0008 0.00245929 1.22636e-20)
(15.0009 0.00244775 -3.52741e-20)
(15.0009 0.00243566 0)
(15.0009 0.00242276 2.23417e-20)
(15.001 0.00240931 3.69311e-20)
(15.001 0.00239498 -2.22195e-20)
(15.0011 0.00238019 -2.20743e-20)
(15.0011 0.002365 2.21444e-20)
(15.0011 0.00234881 -3.42592e-20)
(15.0012 0.00233186 -2.19118e-20)
(15.0012 0.0023145 2.1976e-20)
(15.0013 0.00229652 4.06188e-20)
(15.0013 0.00227782 -6.05594e-20)
(15.0013 0.00225831 -1.73429e-21)
(15.0014 0.00223823 -1.92322e-20)
(15.0014 0.00221764 2.08665e-20)
(15.0014 0.00219636 -4.30024e-20)
(15.0015 0.00217431 2.15147e-20)
(15.0015 0.00215154 4.39443e-20)
(15.0015 0.00212854 2.32223e-20)
(15.0016 0.00210464 -1.88405e-20)
(15.0016 0.00207992 -2.08024e-20)
(15.0016 0.00205479 6.66753e-20)
(15.0017 0.00202894 -2.02187e-22)
(15.0017 0.00200257 -2.06918e-20)
(15.0017 0.00197534 0)
(15.0018 0.0019477 5.33666e-20)
(15.0018 0.00191903 -5.43409e-20)
(15.0018 0.00189052 0)
(15.0019 0.00186076 2.80735e-20)
(15.0019 0.0018305 -2.85182e-20)
(15.0019 0.00179966 2.01113e-20)
(15.0019 0.00176859 9.12054e-21)
(15.002 0.00173674 4.00923e-20)
(15.002 0.00170394 -2.76461e-22)
(15.002 0.00167115 -6.05973e-20)
(15.002 0.00163735 1.90856e-20)
(15.0021 0.00160293 -7.41105e-20)
(15.0021 0.00156839 5.01516e-20)
(15.0021 0.00153304 -3.16367e-20)
(15.0021 0.00149717 -1.85642e-20)
(15.0022 0.0014611 -3.18116e-20)
(15.0022 0.00142384 1.377e-20)
(15.0022 0.00138668 5.13063e-20)
(15.0022 0.00134921 -1.58883e-20)
(15.0022 0.00131074 -8.48182e-20)
(15.0022 0.00127238 -6.54078e-20)
(15.0023 0.0012331 4.96999e-20)
(15.0023 0.00119345 -6.58993e-20)
(15.0023 0.00115357 0)
(15.0023 0.00111342 -4.90714e-20)
(15.0023 0.00107276 -1.62971e-20)
(15.0023 0.00103206 6.29131e-20)
(15.0023 0.000991096 -3.21558e-20)
(15.0023 0.000949494 4.89088e-20)
(15.0023 0.000907711 -6.01282e-20)
(15.0023 0.000866223 3.13712e-20)
(15.0023 0.000824066 4.36099e-20)
(15.0023 0.000782059 4.30629e-20)
(15.0023 0.000739786 4.1495e-20)
(15.0023 0.000697637 3.75759e-21)
(15.0023 0.000655607 7.68492e-22)
(15.0023 0.000613828 -1.62041e-20)
(15.0023 0.000571813 1.50933e-20)
(15.0022 0.000530546 0)
(15.0022 0.000489349 -3.18923e-20)
(15.0022 0.000448364 4.24794e-20)
(15.0022 0.000408439 -1.98758e-20)
(15.0022 0.000368905 -1.00854e-20)
(15.0021 0.00032977 5.32796e-21)
(15.0021 0.000290813 -3.8054e-20)
(15.002 0.000252393 5.02043e-21)
(15.002 0.000215535 1.29542e-20)
(15.0019 0.00017744 2.12948e-21)
(15.0019 0.00013411 2.74606e-22)
(15.0017 8.71196e-05 -2.92069e-21)
(15.0013 5.67472e-05 1.17473e-21)
(15.0013 5.9601e-05 -1.61696e-22)
(15.0022 6.79189e-05 -1.73863e-21)
(15.0045 8.53645e-06 1.30898e-22)
(14.9956 9.51197e-06 -1.29444e-22)
(14.9973 5.59403e-05 6.70712e-22)
(14.9984 7.63822e-05 0)
(14.9985 7.04187e-05 0)
(14.9983 8.34893e-05 -1.09479e-21)
(14.998 0.00012569 -1.76813e-21)
(14.9979 0.000176014 -3.90628e-21)
(14.9978 0.000222077 -1.92348e-21)
(14.9977 0.000265325 -6.17076e-21)
(14.9977 0.000309696 9.69711e-21)
(14.9976 0.000355188 -6.74291e-21)
(14.9976 0.000401507 -5.8581e-21)
(14.9975 0.000448503 -9.07203e-21)
(14.9975 0.000496459 5.48805e-23)
(14.9974 0.000545561 -3.59717e-20)
(14.9974 0.000595294 2.68267e-20)
(14.9974 0.000645582 8.48325e-21)
(14.9973 0.00069682 1.27134e-20)
(14.9973 0.000748451 -3.19613e-20)
(14.9973 0.000800573 1.35894e-20)
(14.9973 0.000852937 -4.84857e-20)
(14.9973 0.000905896 4.09128e-22)
(14.9973 0.000959014 1.07157e-20)
(14.9972 0.00101262 -1.38595e-20)
(14.9972 0.00106578 2.61097e-20)
(14.9972 0.00111937 3.73078e-22)
(14.9972 0.00117301 -5.29378e-20)
(14.9972 0.00122642 -2.8018e-20)
(14.9972 0.00127962 1.37093e-20)
(14.9972 0.00133317 5.25503e-23)
(14.9972 0.00138641 0)
(14.9972 0.0014394 2.86238e-20)
(14.9972 0.00149224 4.32212e-20)
(14.9972 0.00154494 -2.86252e-20)
(14.9972 0.00159708 -3.04709e-20)
(14.9973 0.00164918 -2.90923e-20)
(14.9973 0.00170067 -2.84892e-20)
(14.9973 0.00175192 -2.90497e-20)
(14.9973 0.00180307 3.73344e-21)
(14.9973 0.00185322 -5.69176e-20)
(14.9973 0.00190326 -4.52985e-20)
(14.9974 0.00195272 1.15413e-20)
(14.9974 0.00200155 1.09013e-20)
(14.9974 0.00205033 1.71864e-20)
(14.9974 0.00209854 2.79287e-20)
(14.9975 0.00214566 -2.35689e-22)
(14.9975 0.00219274 1.79474e-20)
(14.9975 0.00223891 5.385e-20)
(14.9975 0.00228451 2.65874e-20)
(14.9976 0.00232958 -1.8265e-20)
(14.9976 0.0023741 2.57354e-20)
(14.9976 0.00241792 -1.388e-20)
(14.9977 0.00246095 -1.85912e-20)
(14.9977 0.00250365 -1.93167e-20)
(14.9977 0.00254532 1.92687e-20)
(14.9978 0.00258655 2.90927e-20)
(14.9978 0.00262669 -1.94993e-20)
(14.9978 0.00266644 4.27995e-20)
(14.9979 0.00270542 -3.12201e-21)
(14.9979 0.00274371 -6.46835e-20)
(14.998 0.00278118 -2.0022e-20)
(14.998 0.00281774 2.00311e-20)
(14.9981 0.00285378 2.0306e-20)
(14.9981 0.00288891 6.11173e-20)
(14.9981 0.00292328 -2.00949e-20)
(14.9982 0.00295695 -4.14074e-20)
(14.9982 0.00298969 1.52381e-21)
(14.9983 0.0030217 1.87303e-20)
(14.9983 0.00305302 -2.07993e-20)
(14.9984 0.00308348 1.75939e-20)
(14.9984 0.00311309 4.21619e-20)
(14.9985 0.00314185 3.34734e-20)
(14.9985 0.00316991 -5.86701e-20)
(14.9986 0.00319685 -3.70296e-20)
(14.9986 0.00322301 2.14069e-20)
(14.9987 0.00324869 7.05924e-21)
(14.9987 0.00327336 2.15608e-20)
(14.9988 0.00329703 8.29853e-21)
(14.9988 0.00331977 -2.57878e-20)
(14.9989 0.00334189 2.83628e-21)
(14.9989 0.00336289 -4.55351e-20)
(14.999 0.00338324 3.2735e-20)
(14.999 0.00340265 -1.12491e-20)
(14.9991 0.00342132 -6.65224e-20)
(14.9991 0.00343872 1.27308e-20)
(14.9992 0.00345548 4.45975e-20)
(14.9992 0.00347136 4.40251e-23)
(14.9993 0.00348646 1.46175e-20)
(14.9993 0.0035006 -2.23596e-20)
(14.9994 0.00351384 -6.11553e-20)
(14.9995 0.00352609 5.92753e-21)
(14.9995 0.00353753 4.67017e-24)
(14.9996 0.00354821 2.27077e-20)
(14.9996 0.0035578 2.27858e-20)
(14.9997 0.00356648 1.23166e-20)
(14.9997 0.00357441 1.71146e-20)
(14.9998 0.00358107 -2.06425e-20)
(14.9999 0.00358698 -2.29785e-20)
(14.9999 0.00359179 -2.30036e-20)
(15 0.00359615 -2.26418e-20)
(15 0.00359936 6.89704e-20)
(15.0001 0.00360142 2.30508e-20)
(15.0001 0.00360302 -2.45102e-20)
(15.0002 0.00360351 -2.30651e-20)
(15.0003 0.00360325 -2.57207e-20)
(15.0003 0.0036017 2.63701e-20)
(15.0004 0.00359937 -5.40179e-20)
(15.0004 0.00359612 -2.29823e-20)
(15.0005 0.00359174 7.42146e-20)
(15.0005 0.00358658 4.5923e-20)
(15.0006 0.00358057 -3.9501e-20)
(15.0007 0.00357353 -8.70637e-21)
(15.0007 0.00356556 -6.56704e-23)
(15.0008 0.00355658 5.37966e-23)
(15.0008 0.00354677 4.57633e-20)
(15.0009 0.00353602 -9.61167e-21)
(15.0009 0.00352459 -3.29387e-20)
(15.001 0.00351182 -1.20346e-20)
(15.0011 0.00349825 3.42953e-20)
(15.0011 0.00348367 4.53864e-20)
(15.0012 0.00346837 0)
(15.0012 0.00345188 -2.26694e-20)
(15.0013 0.0034347 -8.72349e-21)
(15.0013 0.00341649 0)
(15.0014 0.0033972 -1.5036e-20)
(15.0015 0.0033768 -1.56365e-20)
(15.0015 0.00335584 -1.62155e-20)
(15.0016 0.00333401 -2.2413e-20)
(15.0016 0.00331094 -1.72758e-20)
(15.0017 0.00328708 2.21803e-20)
(15.0017 0.00326225 -2.22712e-20)
(15.0018 0.00323644 1.0377e-22)
(15.0018 0.00320967 2.43549e-20)
(15.0019 0.00318209 2.01449e-20)
(15.0019 0.00315366 1.70606e-22)
(15.002 0.00312415 -4.29516e-20)
(15.002 0.00309382 -2.16548e-20)
(15.0021 0.00306259 0)
(15.0021 0.0030303 -2.56406e-23)
(15.0022 0.00299735 -2.0048e-21)
(15.0022 0.00296333 -4.84264e-20)
(15.0023 0.00292833 7.08985e-20)
(15.0023 0.00289248 2.47454e-20)
(15.0024 0.00285569 -9.33719e-20)
(15.0024 0.00281838 0)
(15.0025 0.00277976 2.10398e-20)
(15.0025 0.00274053 5.97946e-21)
(15.0025 0.00270007 7.21216e-21)
(15.0026 0.00265912 2.04141e-20)
(15.0026 0.00261718 -2.84786e-20)
(15.0027 0.00257432 0)
(15.0027 0.00253073 2.02974e-20)
(15.0028 0.0024864 -9.84658e-21)
(15.0028 0.00244129 1.01798e-20)
(15.0028 0.00239502 -6.99401e-20)
(15.0029 0.00234854 3.11372e-20)
(15.0029 0.00230068 -3.07848e-22)
(15.0029 0.00225201 -3.12076e-20)
(15.003 0.00220312 1.88295e-20)
(15.003 0.00215333 -1.90653e-20)
(15.003 0.00210269 -1.85719e-20)
(15.0031 0.00205174 6.97867e-20)
(15.0031 0.00199945 1.77172e-20)
(15.0031 0.00194683 1.50969e-20)
(15.0031 0.00189372 -5.11024e-20)
(15.0032 0.0018397 -6.82569e-20)
(15.0032 0.00178538 5.09332e-20)
(15.0032 0.00173019 -1.68026e-20)
(15.0032 0.00167456 3.43295e-22)
(15.0032 0.00161851 1.62524e-20)
(15.0032 0.0015619 0)
(15.0033 0.00150465 6.58181e-20)
(15.0033 0.00144751 -3.26964e-20)
(15.0033 0.00138982 -3.2418e-20)
(15.0033 0.00133154 -6.40762e-20)
(15.0033 0.00127299 -1.69848e-20)
(15.0033 0.0012146 4.50058e-20)
(15.0033 0.00115533 -3.04758e-20)
(15.0033 0.00109626 -1.32001e-20)
(15.0033 0.00103698 -2.87539e-20)
(15.0033 0.000978023 -4.49697e-20)
(15.0033 0.000918934 4.32124e-20)
(15.0033 0.000859989 4.34827e-22)
(15.0032 0.000801061 -4.52827e-22)
(15.0032 0.000742802 2.4462e-20)
(15.0032 0.000684737 3.13932e-20)
(15.0032 0.000626897 1.25898e-20)
(15.0031 0.000569934 4.21057e-21)
(15.0031 0.000513591 -1.71206e-20)
(15.003 0.000457464 -1.63895e-20)
(15.003 0.000401721 4.08512e-22)
(15.0029 0.000346766 1.62334e-20)
(15.0029 0.000292507 -1.99709e-20)
(15.0028 0.000233594 8.05092e-21)
(15.0026 0.00016792 3.0468e-23)
(15.0023 0.000112373 0)
(15.002 9.59608e-05 -1.21978e-21)
(15.0022 0.000105644 -1.52734e-21)
(15.0037 7.75369e-05 2.70152e-22)
(15.006 1.36091e-05 1.93385e-22)
(14.9947 9.54165e-06 -2.10555e-22)
(14.9963 5.8704e-05 -1.00162e-21)
(14.9975 0.000104846 0)
(14.998 0.000108473 2.19194e-21)
(14.9978 0.000109297 1.12796e-21)
(14.9975 0.000146341 -2.91171e-21)
(14.9973 0.000207803 -6.18428e-21)
(14.9971 0.00027054 -2.70503e-21)
(14.9971 0.000328624 2.30883e-21)
(14.997 0.000386444 -1.11573e-20)
(14.9969 0.0004454 1.7276e-20)
(14.9968 0.000505381 -8.74536e-21)
(14.9968 0.000566202 2.14301e-20)
(14.9967 0.000628227 -6.23463e-23)
(14.9967 0.000691388 1.09755e-20)
(14.9966 0.000755584 -8.00343e-21)
(14.9966 0.000820466 4.08892e-20)
(14.9966 0.000886167 3.01824e-20)
(14.9965 0.000952571 -8.83654e-21)
(14.9965 0.00101987 -7.60644e-22)
(14.9965 0.00108748 -1.32531e-20)
(14.9965 0.0011555 -1.10439e-20)
(14.9964 0.00122404 -2.55862e-20)
(14.9964 0.00129297 -1.14213e-20)
(14.9964 0.00136159 -2.69783e-20)
(14.9964 0.00143059 5.20369e-20)
(14.9964 0.00149983 -1.45749e-20)
(14.9964 0.00156889 -2.79793e-20)
(14.9964 0.00163764 -2.82191e-20)
(14.9964 0.00170695 -4.21582e-20)
(14.9964 0.0017757 -1.43502e-20)
(14.9964 0.00184426 0)
(14.9964 0.00191264 -4.3538e-20)
(14.9964 0.00198077 -2.9255e-20)
(14.9964 0.00204845 1.55576e-21)
(14.9964 0.00211596 -1.34689e-20)
(14.9965 0.00218276 -2.9156e-20)
(14.9965 0.00224927 -4.50036e-20)
(14.9965 0.00231536 -2.92664e-20)
(14.9965 0.00238056 5.80056e-20)
(14.9966 0.0024455 -4.80826e-21)
(14.9966 0.00250998 -4.57195e-20)
(14.9966 0.00257349 -1.13671e-20)
(14.9966 0.00263674 2.57012e-22)
(14.9967 0.00269944 -2.30078e-22)
(14.9967 0.00276075 -2.75588e-20)
(14.9967 0.00282179 2.72832e-20)
(14.9968 0.00288212 -2.70117e-20)
(14.9968 0.00294143 2.67686e-20)
(14.9968 0.00300016 2.55399e-22)
(14.9969 0.00305823 1.83567e-20)
(14.9969 0.00311519 2.64726e-20)
(14.997 0.00317145 6.33235e-21)
(14.997 0.00322703 -6.04344e-21)
(14.9971 0.00328142 5.7177e-21)
(14.9971 0.00333514 2.43579e-20)
(14.9972 0.00338772 -2.39653e-20)
(14.9972 0.0034395 -2.3941e-20)
(14.9973 0.00349036 4.32913e-20)
(14.9973 0.00354031 0)
(14.9974 0.00358928 -2.24538e-20)
(14.9974 0.00363735 -4.39881e-20)
(14.9975 0.00368437 2.1522e-20)
(14.9975 0.00373017 -2.10549e-20)
(14.9976 0.00377521 4.11986e-20)
(14.9976 0.00381934 2.06868e-20)
(14.9977 0.00386216 1.97491e-20)
(14.9978 0.00390396 -1.97848e-21)
(14.9978 0.00394486 -2.1022e-20)
(14.9979 0.00398489 -3.62804e-20)
(14.9979 0.00402373 1.76963e-20)
(14.998 0.00406112 1.69218e-20)
(14.9981 0.00409775 5.07628e-21)
(14.9981 0.0041333 -1.59697e-20)
(14.9982 0.00416767 -9.20264e-21)
(14.9983 0.00420107 -1.47719e-20)
(14.9983 0.00423332 -1.44275e-20)
(14.9984 0.0042644 3.57453e-20)
(14.9985 0.00429428 -4.40011e-20)
(14.9985 0.00432327 -1.6757e-22)
(14.9986 0.00435102 2.23515e-20)
(14.9987 0.00437747 -2.23183e-20)
(14.9987 0.00440284 2.17668e-20)
(14.9988 0.0044274 -2.06007e-20)