/*--------------------------------*- C++ -*---------------------------------*\ 
| ========                 |                                                 | 
| \      /  F ield         | OpenFOAM: The Open Source CFD Toolbox           | 
|  \    /   O peration     | Version:  v1812                                 | 
|   \  /    A nd           | Web:      www.OpenFOAM.com                      | 
|    \/     M anipulation  |                                                 | 
\*--------------------------------------------------------------------------*/ 
FoamFile
{
    version     2.0;
    format      ascii;
    class       volVectorField;
    location    "/home/james/dafoam/myRuns/bezier_coanda_opt/0.00000000001/";
    object      sens_CL_shapey;
}
// * * * * * * * * * * * * * * * * * * * * * * * * * * * * * * * * * * * * * //

dimensions      [0 0 0 0 0 0 0];
internalField   uniform (0 0 0);
boundaryField
{
    allWalls
    {
        type  wall;
        value nonuniform List<vector>
268
(
(-0.064999 -0.043524 0.000178)
(0.309228 -0.150256 0.000176)
(0.172021 -0.002497 0.000174)
(0.019811 -0.050957 0.000172)
(0.085402 -0.142645 0.000171)
(0.023691 -0.022848 0.000169)
(0.017628 -0.077515 0.000168)
(-0.012435 0.025951 0.000167)
(-0.034312 0.058354 0.000323)
(-0.022577 0.048330 0.000508)
(-0.027040 0.069928 0.000565)
(-0.018856 0.058706 0.000627)
(-0.019516 0.068032 0.000693)
(-0.012853 0.052794 0.000763)
(-0.011878 0.051783 0.000836)
(-0.008329 0.041916 0.000911)
(-0.012279 0.062699 0.001444)
(-0.010675 0.055545 0.002043)
(-0.006885 0.039282 0.002257)
(-0.004878 0.031180 0.002484)
(-0.002794 0.020152 0.002723)
(-0.002400 0.021183 0.002972)
(-0.003071 0.028619 0.003226)
(-0.004116 0.039978 0.003481)
(-0.004467 0.046354 0.003729)
(-0.003367 0.039163 0.004405)
(-0.003055 0.039521 0.005178)
(-0.003385 0.048097 0.005624)
(-0.003178 0.051120 0.006086)
(-0.002808 0.052455 0.006703)
(-0.002517 0.054920 0.007202)
(-0.002097 0.056307 0.007598)
(-0.001916 0.068820 0.008169)
(-0.001539 0.078672 0.008624)
(-0.000834 0.090234 0.008643)
(-0.000038 0.087598 0.008284)
(0.000895 0.081811 0.007703)
(0.001807 0.087141 0.006988)
(0.002661 0.084409 0.006295)
(0.003575 0.085260 0.005595)
(0.004562 0.085551 0.004896)
(0.005628 0.086364 0.004226)
(0.006831 0.086749 0.003365)
(0.007897 0.085198 0.002624)
(0.008085 0.076554 0.002207)
(0.010426 0.084188 0.001795)
(0.015039 0.112332 0.001398)
(0.017431 0.120328 0.001024)
(0.017911 0.110053 0.000680)
(0.019691 0.108932 0.000371)
(0.022709 0.114417 0.000064)
(0.025845 0.118912 -0.000426)
(0.029445 0.125147 -0.000804)
(0.033750 0.134352 -0.001002)
(0.038696 0.145178 -0.001063)
(0.044365 0.157747 -0.000922)
(0.050406 0.171659 -0.000939)
(0.057020 0.187216 -0.001003)
(0.064010 0.204144 -0.000952)
(0.069965 0.218423 -0.000926)
(0.075694 0.232741 -0.000926)
(0.081527 0.247925 -0.000883)
(0.085772 0.259122 -0.000836)
(0.090686 0.273524 -0.000785)
(0.103553 0.312487 -0.000738)
(0.128269 0.384761 -0.000697)
(0.123995 0.360175 -0.000640)
(0.050256 0.118477 -0.000534)
(-0.019308 -0.254305 -0.000464)
(0.173179 0.976343 -0.000464)
(0.531588 -4.649028 -0.000464)
(-1.827396 2.912426 -0.000464)
(-0.479658 1.574860 -0.000114)
(-0.082423 -0.020836 0.000291)
(0.056539 -0.089326 0.000425)
(0.106357 -0.196506 0.000592)
(0.266737 -0.712618 0.000770)
(0.239467 -0.911059 0.000951)
(0.368395 -0.764527 0.001142)
(0.246030 -0.536144 0.001360)
(-0.137741 -0.198922 0.001574)
(-0.063197 -0.057824 0.001801)
(-0.017915 0.073576 0.002044)
(-0.004177 0.106944 0.002239)
(-0.006085 0.062835 0.002451)
(-0.018472 0.072059 0.002673)
(-0.026467 0.126937 0.002845)
(-0.028120 0.153867 0.002986)
(-0.025457 0.156257 0.003082)
(-0.022791 0.154590 0.003037)
(-0.020470 0.152950 0.002938)
(-0.018010 0.148780 0.002867)
(-0.015524 0.141831 0.002736)
(-0.013321 0.134645 0.002545)
(-0.011286 0.126805 0.002301)
(-0.009604 0.120644 0.002007)
(-0.008044 0.113952 0.001671)
(-0.006742 0.108065 0.001041)
(-0.005693 0.103337 0.000394)
(-0.004738 0.098963 -0.000090)
(-0.003893 0.096188 -0.000688)
(-0.003036 0.090037 -0.001306)
(-0.002118 0.073477 -0.001951)
(-0.001391 0.079572 -0.002584)
(-0.000727 0.088487 -0.003141)
(0.000117 0.086211 -0.003524)
(0.000785 0.078820 -0.003734)
(0.001096 0.058600 -0.003705)
(0.001453 0.053004 -0.003471)
(0.001770 0.050456 -0.003229)
(0.002002 0.046051 -0.003147)
(0.002173 0.042131 -0.003043)
(0.002308 0.038247 -0.002762)
(0.002422 0.035158 -0.002497)
(0.002606 0.033307 -0.001906)
(0.002734 0.031408 -0.001368)
(0.002869 0.029477 -0.001223)
(0.002970 0.027807 -0.001083)
(0.003140 0.026699 -0.000951)
(0.003235 0.025359 -0.000827)
(0.003444 0.024505 -0.000713)
(0.003592 0.023363 -0.000610)
(0.003956 0.022848 -0.000325)
(0.004226 0.021885 -0.000076)
(0.004752 0.021800 -0.000052)
(0.004763 0.019819 -0.000029)
(0.005288 0.020327 -0.000007)
(0.005651 0.020843 0.000013)
(0.004964 0.017028 0.000032)
(0.005938 0.020157 0.000049)
(0.004350 0.012614 0.000064)
(0.006113 0.014416 0.000122)
(0.003994 0.005466 0.000173)
(0.006603 0.002309 0.000174)
(0.008443 0.005604 0.000174)
(0.011642 0.012590 0.000175)
(0.024393 0.049766 0.000176)
(-0.031418 0.072753 0.000177)
(-0.246868 0.022774 0.000178)
(-0.367787 -0.010486 0.000179)
(0.168633 0.959978 -0.000464)
(-0.079640 -0.569731 -0.000464)
(-0.076472 -0.384144 -0.000464)
(-0.016532 0.369717 -0.000464)
(0.046586 0.373339 -0.000464)
(0.044562 0.056390 -0.000464)
(0.009430 0.534267 -0.000439)
(0.047088 0.853774 -0.000414)
(0.115702 1.704848 -0.000414)
(0.261889 2.719518 -0.000414)
(0.518746 1.284891 -0.000414)
(0.362512 4.092491 -0.000414)
(-0.115877 16.451389 -0.000414)
(0.208901 23.112943 -0.000414)
(-56.140210 -105.340100 -0.000198)
(25.624366 -544.841848 0.000018)
(-74.222048 -5.552202 0.000018)
(-21.821984 3.873618 0.000018)
(-66.218766 -116.021140 0.000018)
(34.806398 525.875962 0.000018)
(-22.909093 46.914857 0.000018)
(-2.107796 19.493674 0.000018)
(-2.039402 -1.750957 0.000018)
(-2.174503 -8.560855 0.000018)
(-1.808087 -6.804522 0.000018)
(-0.250874 0.760737 0.000018)
(1.545955 10.657210 0.000018)
(3.075627 16.764657 0.000018)
(4.079910 20.278073 0.000018)
(3.372313 16.737096 0.000018)
(3.064288 13.457267 0.000018)
(2.720758 9.627109 0.000018)
(2.766587 6.613719 0.000018)
(3.567755 5.915515 0.000018)
(7.075198 11.287367 0.000018)
(12.067617 19.759602 0.000018)
(12.155793 20.116403 0.000018)
(10.468764 16.899872 0.000018)
(9.017553 14.123116 0.000018)
(8.213985 12.141537 0.000018)
(8.341977 11.612709 0.000018)
(5.558577 8.222854 0.000018)
(3.949874 6.306026 0.000018)
(2.333369 4.838722 0.000018)
(0.253927 3.130920 0.000018)
(-1.335726 2.191644 0.000018)
(-4.010180 0.459366 0.000018)
(-7.398746 -1.457632 0.000018)
(-10.038809 -2.484886 0.000018)
(-11.104737 -2.322688 0.000018)
(-15.163681 -3.470202 0.000018)
(-17.593959 -3.602249 0.000018)
(-20.517406 -3.496280 0.000018)
(-23.385896 -3.295829 0.000018)
(-25.307025 -2.287291 0.000018)
(-27.518099 -1.325526 0.000018)
(-28.248787 0.339525 0.000018)
(-28.728967 2.023555 0.000018)
(-27.411695 4.132199 0.000018)
(-23.623839 6.516760 0.000018)
(-20.958278 8.574423 0.000018)
(-18.211564 9.915168 0.000018)
(-7.822520 10.839832 0.000018)
(-0.169197 10.293801 0.000018)
(5.853795 8.560615 0.000018)
(13.233929 6.290498 0.000018)
(18.963236 3.350405 0.000018)
(25.051554 -0.120338 0.000018)
(27.953226 -3.391369 0.000018)
(28.635994 -6.260248 0.000018)
(26.195921 -8.177901 0.000018)
(24.740432 -9.931128 0.000018)
(22.292058 -10.734120 0.000018)
(19.306200 -11.232782 0.000018)
(16.274389 -11.245622 0.000018)
(12.392147 -10.721471 0.000018)
(9.561302 -10.074919 0.000018)
(6.419058 -8.960739 0.000018)
(4.133977 -7.788895 0.000018)
(1.866865 -6.340014 0.000018)
(0.440162 -5.083513 0.000018)
(-0.819264 -3.731316 0.000018)
(-1.507358 -2.518346 0.000018)
(-2.108129 -1.289132 0.000018)
(-2.262226 -0.344032 0.000018)
(-1.872275 0.096873 0.000018)
(-1.656820 0.681487 0.000018)
(-1.602519 1.313754 0.000018)
(-1.357553 1.686863 0.000018)
(-1.171511 2.006771 0.000018)
(-0.589878 1.756929 0.000018)
(-0.127539 1.557558 0.000018)
(0.369929 1.166605 0.000018)
(1.162743 0.267255 0.000018)
(2.684676 -2.242212 0.000018)
(3.398092 -3.760745 0.000018)
(3.678834 -4.990012 0.000018)
(4.513236 -7.569754 0.000018)
(4.431285 -8.169570 0.000018)
(4.062115 -8.056307 0.000018)
(3.523682 -7.233674 0.000018)
(2.795026 -5.201665 0.000018)
(2.307966 -3.462927 0.000018)
(1.806745 -1.772446 0.000018)
(1.198104 0.037380 0.000018)
(0.727190 1.608740 0.000018)
(0.458171 2.707173 0.000018)
(-0.226853 1.829346 0.000018)
(-48.363808 0.092634 0.000018)
(46.563597 0.765107 0.000018)
(-2.682807 2.349105 0.000018)
(0.202307 0.512415 0.000018)
(-11.011343 29.901066 0.000018)
(-12.679090 28.408905 -0.000198)
(0.943847 -4.597002 -0.000414)
(0.029465 -2.676209 -0.000414)
(-0.070839 -1.517433 -0.000414)
(-0.030865 -1.009126 -0.000414)
(-0.002151 -0.699537 -0.000414)
(-0.000810 -0.377943 -0.000414)
(0.001827 -0.194167 -0.000414)
(-0.015247 0.026950 -0.000414)
(-0.006567 -0.008229 -0.000439)
(0.044551 -0.720465 -0.000464)
(-0.079908 -0.642223 -0.000464)
(-0.424506 2.185840 -0.000464)
(-0.141962 3.471970 -0.000464)
(2.142922 -4.749310 -0.000464)
)
;
    }
}
