/*--------------------------------*- C++ -*---------------------------------*\ 
| ========                 |                                                 | 
| \      /  F ield         | OpenFOAM: The Open Source CFD Toolbox           | 
|  \    /   O peration     | Version:  v1812                                 | 
|   \  /    A nd           | Web:      www.OpenFOAM.com                      | 
|    \/     M anipulation  |                                                 | 
\*--------------------------------------------------------------------------*/ 
FoamFile
{
    version     2.0;
    format      ascii;
    class       volVectorField;
    location    "/home/james/dafoam/myRuns/bezier_coanda_opt/0.00000000001/";
    object      sens_CL_shapey;
}
// * * * * * * * * * * * * * * * * * * * * * * * * * * * * * * * * * * * * * //

dimensions      [0 0 0 0 0 0 0];
internalField   uniform (0 0 0);
boundaryField
{
    allWalls
    {
        type  wall;
        value nonuniform List<vector>
268
(
(0.055305 -0.104791 0.000173)
(0.478830 -0.223434 0.000171)
(0.130066 -0.010618 0.000169)
(-0.057342 0.046678 0.000167)
(0.061664 -0.128581 0.000165)
(0.041333 -0.102825 0.000164)
(-0.014101 0.025753 0.000162)
(-0.025491 0.025878 0.000162)
(-0.025595 0.054420 0.000328)
(-0.031268 0.073640 0.000522)
(-0.017222 0.048951 0.000576)
(-0.026187 0.083281 0.000635)
(-0.014016 0.053749 0.000698)
(-0.013325 0.054845 0.000765)
(-0.011376 0.054081 0.000835)
(-0.014952 0.072342 0.000907)
(-0.010193 0.051523 0.001430)
(-0.004074 0.021493 0.002022)
(-0.002200 0.015021 0.002237)
(-0.004130 0.028978 0.002465)
(-0.004818 0.035882 0.002706)
(-0.004552 0.036449 0.002957)
(-0.004130 0.036289 0.003213)
(-0.004037 0.038410 0.003470)
(-0.003745 0.038942 0.003725)
(-0.003846 0.042887 0.004376)
(-0.003548 0.043571 0.005123)
(-0.003383 0.046001 0.005579)
(-0.003295 0.049904 0.006052)
(-0.003111 0.053147 0.006730)
(-0.002805 0.054814 0.007413)
(-0.002474 0.057184 0.007968)
(-0.002359 0.068003 0.008604)
(-0.002047 0.075978 0.008837)
(-0.001567 0.093412 0.008674)
(-0.000824 0.091680 0.008396)
(0.000164 0.081367 0.007831)
(0.001000 0.088027 0.007126)
(0.001880 0.086367 0.006423)
(0.002824 0.088199 0.005697)
(0.003853 0.089208 0.004971)
(0.004913 0.089417 0.004269)
(0.006192 0.091037 0.003391)
(0.007468 0.091749 0.002637)
(0.007350 0.077791 0.002191)
(0.010385 0.089992 0.001746)
(0.010963 0.084987 0.001316)
(0.018404 0.125716 0.000908)
(0.024487 0.158079 0.000530)
(0.020246 0.113849 0.000188)
(0.023090 0.112964 -0.000188)
(0.027973 0.120181 -0.000507)
(0.032187 0.125981 -0.000668)
(0.036422 0.133931 -0.000768)
(0.041741 0.145348 -0.000844)
(0.047630 0.158322 -0.000896)
(0.054210 0.173100 -0.000927)
(0.061424 0.189730 -0.000938)
(0.068197 0.205175 -0.000932)
(0.076466 0.221309 -0.000710)
(0.085433 0.238634 -0.000481)
(0.092644 0.254130 -0.000453)
(0.097499 0.263729 -0.000424)
(0.102921 0.275839 -0.000395)
(0.117723 0.313665 -0.000367)
(0.145958 0.385418 -0.000339)
(0.134702 0.339859 -0.000313)
(0.055311 0.101991 -0.000398)
(-0.006518 -0.228561 -0.000496)
(0.182947 0.857165 -0.000496)
(0.361100 -4.688945 -0.000496)
(-2.384580 2.643971 -0.000496)
(-0.171854 1.750421 -0.000264)
(-0.271183 0.125235 -0.000013)
(0.062238 -0.178257 0.000023)
(0.332253 -0.644473 0.000062)
(0.038419 -0.617168 0.000102)
(0.400934 -0.576616 0.000144)
(0.387027 -0.554337 0.000186)
(-0.220267 -0.285907 0.000228)
(-0.086283 -0.124729 0.000271)
(-0.032250 0.108117 0.000940)
(-0.010883 0.184022 0.001673)
(0.006910 0.055836 0.001845)
(-0.004908 -0.004815 0.002006)
(-0.022163 0.089978 0.002151)
(-0.027912 0.141954 0.002276)
(-0.022830 0.135327 0.002375)
(-0.018894 0.130672 0.002445)
(-0.017816 0.134586 0.002539)
(-0.016715 0.135323 0.002581)
(-0.014536 0.131512 0.002502)
(-0.012369 0.125483 0.002701)
(-0.010624 0.120487 0.002515)
(-0.009000 0.114232 0.001949)
(-0.007650 0.109679 0.001669)
(-0.006392 0.104372 0.001350)
(-0.005268 0.099695 0.000823)
(-0.004365 0.096304 0.000282)
(-0.003631 0.094359 -0.000158)
(-0.002857 0.088835 -0.000689)
(-0.001966 0.065611 -0.001236)
(-0.001367 0.067756 -0.001860)
(-0.000789 0.088196 -0.002470)
(0.000007 0.088693 -0.002950)
(0.000708 0.086966 -0.003262)
(0.001164 0.074098 -0.003515)
(0.001294 0.055138 -0.003565)
(0.001613 0.050707 -0.003340)
(0.001896 0.048964 -0.003107)
(0.002071 0.044292 -0.002940)
(0.002230 0.041285 -0.002758)
(0.002538 0.040363 -0.002501)
(0.002310 0.032670 -0.002260)
(0.002245 0.028096 -0.001670)
(0.002754 0.031867 -0.001135)
(0.002913 0.030048 -0.001011)
(0.002907 0.027437 -0.000892)
(0.003045 0.026247 -0.000779)
(0.003115 0.024961 -0.000674)
(0.003300 0.024161 -0.000577)
(0.003406 0.022968 -0.000490)
(0.003808 0.022743 -0.000232)
(0.004052 0.021694 -0.000006)
(0.004633 0.021884 0.000014)
(0.004555 0.019588 0.000034)
(0.005150 0.020610 0.000052)
(0.005526 0.021466 0.000068)
(0.004553 0.016645 0.000083)
(0.005703 0.021246 0.000097)
(0.003642 0.011712 0.000110)
(0.005730 0.014615 0.000141)
(0.003157 0.003394 0.000167)
(0.006306 -0.001142 0.000168)
(0.008234 0.002099 0.000168)
(0.012276 0.011058 0.000169)
(0.028178 0.057702 0.000170)
(-0.027799 0.088353 0.000171)
(-0.301931 0.023724 0.000172)
(-0.451642 -0.032532 0.000173)
(0.169674 0.866010 -0.000496)
(-0.081601 -0.481149 -0.000496)
(-0.076645 -0.349866 -0.000496)
(-0.018263 0.295652 -0.000496)
(0.038717 0.326727 -0.000496)
(0.041561 0.059891 -0.000496)
(0.011436 0.484144 -0.000474)
(0.047794 0.768763 -0.000452)
(0.113794 1.523892 -0.000452)
(0.254955 2.479637 -0.000452)
(0.512776 1.302725 -0.000452)
(0.398601 4.027814 -0.000452)
(-0.012721 15.472989 -0.000452)
(0.349936 21.742820 -0.000452)
(-58.127996 -95.707299 -0.000222)
(34.215545 -568.446605 0.000008)
(-79.031528 -4.668699 0.000008)
(-21.220133 4.318515 0.000008)
(-65.819597 -105.682397 0.000008)
(29.458117 545.313478 0.000008)
(-25.179173 49.554924 0.000008)
(-2.310725 19.945636 0.000008)
(-2.053139 -2.186487 0.000008)
(-2.188274 -9.486649 0.000008)
(-1.858503 -8.585372 0.000008)
(-0.494762 -1.424115 0.000008)
(0.795919 7.091960 0.000008)
(2.000548 13.079529 0.000008)
(3.445803 19.140385 0.000008)
(3.768109 19.567826 0.000008)
(3.591102 16.624582 0.000012)
(2.860884 11.110880 0.000015)
(2.482970 6.839130 0.000015)
(2.755986 5.096870 0.000015)
(5.492753 9.082461 0.000015)
(9.718648 16.219380 0.000015)
(10.246308 17.279138 0.000015)
(9.050110 15.034651 0.000015)
(7.819787 12.790939 0.000015)
(7.122142 11.196192 0.000015)
(7.110346 10.692671 0.000015)
(4.449977 7.606024 0.000015)
(2.794865 5.793263 0.000015)
(1.185847 4.462418 0.000015)
(-0.880042 2.887620 0.000015)
(-2.456643 2.056860 0.000015)
(-4.976701 0.539989 0.000015)
(-8.056700 -1.094570 0.000015)
(-10.444621 -1.940914 0.000015)
(-11.354531 -1.691153 0.000015)
(-14.795131 -2.548670 0.000015)
(-16.619281 -2.462452 0.000015)
(-18.717821 -2.166380 0.000015)
(-20.642865 -1.830092 0.000015)
(-21.619991 -0.841917 0.000015)
(-22.971896 -0.033571 0.000015)
(-23.317707 1.234089 0.000015)
(-23.491416 2.506588 0.000015)
(-22.640950 4.114365 0.000015)
(-20.045693 5.921576 0.000015)
(-17.515098 7.546434 0.000015)
(-14.802713 8.526442 0.000015)
(-5.947620 9.146610 0.000015)
(0.748208 8.599497 0.000015)
(5.802829 7.091057 0.000015)
(11.995986 5.152441 0.000015)
(17.113987 2.623930 0.000015)
(22.285884 -0.353145 0.000015)
(24.197438 -3.089730 0.000015)
(25.677412 -5.745951 0.000015)
(24.377242 -7.554766 0.000015)
(21.502466 -8.679047 0.000015)
(20.456598 -9.752550 0.000015)
(17.125466 -9.860586 0.000015)
(14.668772 -10.075296 0.000015)
(11.468759 -9.602801 0.000015)
(8.464512 -8.948973 0.000015)
(6.177001 -8.139717 0.000015)
(3.810730 -7.029671 0.000015)
(2.099581 -5.883202 0.000015)
(0.457727 -4.619658 0.000015)
(-0.476572 -3.524023 0.000015)
(-1.320057 -2.327304 0.000015)
(-1.726339 -1.319133 0.000015)
(-2.060366 -0.334600 0.000015)
(-1.743904 0.103143 0.000015)
(-1.452849 0.527527 0.000015)
(-1.270561 0.993674 0.000015)
(-1.091095 1.374567 0.000015)
(-0.789716 1.507867 0.000015)
(-0.461458 1.512269 0.000015)
(-0.058900 1.324560 0.000015)
(0.424241 0.916519 0.000015)
(1.132359 0.011732 0.000015)
(2.474092 -2.189619 0.000015)
(3.125992 -3.521211 0.000015)
(3.569775 -4.977354 0.000015)
(4.352416 -7.427248 0.000012)
(4.207090 -7.903947 0.000008)
(3.847565 -7.820028 0.000008)
(3.379312 -7.117103 0.000008)
(2.689202 -5.101661 0.000008)
(2.245519 -3.426888 0.000008)
(1.757733 -1.754503 0.000008)
(1.156483 0.061273 0.000008)
(0.706815 1.611108 0.000008)
(0.454230 2.691324 0.000008)
(-0.238970 1.796452 0.000008)
(-48.380923 0.058473 0.000008)
(46.567832 0.751123 0.000008)
(-2.643294 2.266154 0.000008)
(0.196249 0.394980 0.000008)
(-11.006349 30.394112 0.000008)
(-12.607460 28.828379 -0.000222)
(0.971719 -4.777248 -0.000452)
(0.040314 -2.729836 -0.000452)
(-0.066427 -1.524113 -0.000452)
(-0.025930 -1.020136 -0.000452)
(0.001510 -0.708825 -0.000452)
(0.001164 -0.386658 -0.000452)
(0.006809 -0.230978 -0.000452)
(-0.013330 -0.018612 -0.000452)
(-0.012131 -0.029799 -0.000474)
(0.039249 -0.776727 -0.000496)
(-0.093342 -0.745047 -0.000496)
(-0.451370 2.028605 -0.000496)
(-0.145425 3.279735 -0.000496)
(2.931576 -4.500178 -0.000496)
)
;
    }
}
