/*--------------------------------*- C++ -*---------------------------------*\ 
| ========                 |                                                 | 
| \      /  F ield         | OpenFOAM: The Open Source CFD Toolbox           | 
|  \    /   O peration     | Version:  v1812                                 | 
|   \  /    A nd           | Web:      www.OpenFOAM.com                      | 
|    \/     M anipulation  |                                                 | 
\*--------------------------------------------------------------------------*/ 
FoamFile
{
    version     2.0;
    format      ascii;
    class       volVectorField;
    location    "/home/james/dafoam/myRuns/bezier_coanda_opt/0.00000000001/";
    object      sens_CL_shapey;
}
// * * * * * * * * * * * * * * * * * * * * * * * * * * * * * * * * * * * * * //

dimensions      [0 0 0 0 0 0 0];
internalField   uniform (0 0 0);
boundaryField
{
    allWalls
    {
        type  wall;
        value nonuniform List<vector>
268
(
(0.344798 -0.304472 0.000124)
(0.596534 -0.075340 0.000123)
(0.104174 -0.248301 0.000122)
(0.256563 -0.378290 0.000121)
(0.014606 -0.019338 0.000121)
(0.009746 -0.171024 0.000120)
(-0.050250 0.146218 0.000119)
(-0.054218 0.075594 0.000119)
(-0.020617 0.057643 0.000274)
(-0.059352 0.168677 0.000447)
(-0.027388 0.088628 0.000487)
(-0.042716 0.149986 0.000531)
(-0.017036 0.068771 0.000579)
(-0.019179 0.083355 0.000630)
(-0.004340 0.024323 0.000685)
(-0.004112 0.025421 0.000741)
(-0.007078 0.040652 0.000799)
(-0.007592 0.045738 0.001250)
(-0.006582 0.042153 0.001761)
(-0.005237 0.036371 0.001942)
(-0.004944 0.036834 0.002134)
(-0.004536 0.036256 0.002332)
(-0.004464 0.037949 0.002533)
(-0.004776 0.044387 0.002736)
(-0.004588 0.045216 0.002937)
(-0.004035 0.041970 0.003542)
(-0.004003 0.045264 0.004233)
(-0.003948 0.048036 0.004606)
(-0.003834 0.050531 0.004990)
(-0.003696 0.052985 0.005488)
(-0.003604 0.056950 0.005920)
(-0.003076 0.053275 0.006265)
(-0.002814 0.056025 0.006701)
(-0.003697 0.087360 0.007004)
(-0.003256 0.090709 0.006966)
(-0.001997 0.074121 0.006611)
(-0.001549 0.082427 0.006026)
(-0.000837 0.083780 0.005338)
(-0.000043 0.079435 0.004601)
(0.000689 0.079936 0.003881)
(0.001601 0.079150 0.003252)
(0.002575 0.078818 0.002649)
(0.003779 0.078947 0.001921)
(0.005139 0.080413 0.001295)
(0.006137 0.077267 0.000917)
(0.004088 0.043877 0.000558)
(0.008059 0.060332 0.000228)
(0.012457 0.088782 -0.000066)
(0.011761 0.071332 -0.000321)
(0.013289 0.067672 -0.000533)
(0.014102 0.062211 -0.000723)
(0.015027 0.057446 -0.001024)
(0.016101 0.054564 -0.001230)
(0.018709 0.058494 -0.001193)
(0.022996 0.067820 -0.001157)
(0.030013 0.084152 -0.001110)
(0.039438 0.105609 -0.001040)
(0.050908 0.130195 -0.000974)
(0.063549 0.156103 -0.000874)
(0.074319 0.176267 -0.000770)
(0.087188 0.201018 -0.000677)
(0.110851 0.249869 -0.000585)
(0.137833 0.302845 -0.000505)
(0.138257 0.293349 -0.000431)
(0.102108 0.209588 -0.000352)
(0.114424 0.239851 -0.000272)
(0.214489 0.437601 -0.000207)
(0.188704 0.315018 -0.000201)
(0.004585 -0.273052 -0.000123)
(0.151069 0.644465 -0.000028)
(-2.205999 -4.171733 -0.000028)
(-4.136574 0.237329 -0.000028)
(5.611653 1.533893 -0.000028)
(-0.653502 -0.500696 0.000444)
(-3.878807 0.645957 0.001045)
(-0.395296 1.386724 0.001270)
(0.603142 -0.224600 0.001492)
(0.027324 -0.630074 0.001744)
(0.015152 -0.166556 0.002000)
(-0.138476 0.274280 0.002285)
(-0.071232 0.618195 0.002528)
(0.086314 0.018888 0.002728)
(0.092443 -0.394289 0.002969)
(-0.021309 -0.041190 0.003151)
(-0.058877 0.153001 0.003300)
(-0.032577 0.105873 0.003439)
(-0.018175 0.078397 0.003508)
(-0.018048 0.108626 0.003532)
(-0.016963 0.129735 0.003509)
(-0.014554 0.135048 0.003293)
(-0.011597 0.129695 0.003010)
(-0.009161 0.126750 0.002799)
(-0.007192 0.123685 0.002535)
(-0.005382 0.116969 0.002226)
(-0.003328 0.087418 0.001874)
(-0.001658 0.062528 0.001486)
(-0.001228 0.086827 0.001076)
(-0.000723 0.096333 0.000624)
(-0.000053 0.085479 -0.000098)
(0.000402 0.083109 -0.000852)
(0.000931 0.081576 -0.001404)
(0.001420 0.084307 -0.001952)
(0.001907 0.080494 -0.002534)
(0.002866 0.091618 -0.003075)
(0.003013 0.082883 -0.003465)
(0.002980 0.068044 -0.003638)
(0.003274 0.068628 -0.003755)
(0.002953 0.056480 -0.003686)
(0.002905 0.050480 -0.003349)
(0.002898 0.046332 -0.003027)
(0.002913 0.042802 -0.002791)
(0.002880 0.039194 -0.002567)
(0.002877 0.036292 -0.002289)
(0.002890 0.033988 -0.002033)
(0.002978 0.032508 -0.001522)
(0.002942 0.030086 -0.001068)
(0.002993 0.028524 -0.000940)
(0.002958 0.026656 -0.000817)
(0.003096 0.026172 -0.000704)
(0.003116 0.025105 -0.000599)
(0.003281 0.024626 -0.000504)
(0.003367 0.023666 -0.000418)
(0.003779 0.023778 -0.000341)
(0.004012 0.022920 -0.000098)
(0.004747 0.024186 0.000116)
(0.004456 0.020879 0.000129)
(0.005491 0.024243 0.000141)
(0.005490 0.024739 0.000152)
(0.004461 0.020165 0.000161)
(0.004833 0.025550 0.000169)
(0.001982 0.011873 0.000177)
(0.005955 0.023777 0.000151)
(0.001637 -0.000583 0.000123)
(0.006275 -0.006558 0.000123)
(0.005313 -0.019660 0.000123)
(0.012633 -0.015790 0.000123)
(0.035442 0.058581 0.000124)
(0.008478 0.189103 0.000124)
(-0.476379 0.147322 0.000124)
(-0.809870 -0.049614 0.000124)
(0.185253 0.752616 -0.000028)
(-0.067879 -0.417851 -0.000028)
(-0.076818 -0.347626 -0.000028)
(-0.033879 0.175467 -0.000028)
(0.017709 0.382104 -0.000028)
(0.047324 -0.114471 -0.000028)
(0.012961 0.043559 -0.000012)
(0.049230 0.703457 0.000003)
(0.189145 1.549028 0.000003)
(0.440344 2.504353 0.000003)
(0.922154 1.288538 0.000003)
(1.071840 4.978113 0.000003)
(0.700885 19.798244 0.000003)
(0.781784 28.391179 0.000003)
(-46.625154 -123.797771 0.000008)
(-115.207020 -596.205255 0.000013)
(-93.769090 -14.075358 0.000013)
(-33.196289 3.858741 0.000013)
(-67.895031 -134.589912 0.000013)
(183.320271 622.300697 0.000013)
(-20.015220 -20.697361 0.000013)
(-7.783949 -25.685168 0.000013)
(-9.962080 -38.371937 0.000013)
(-11.172743 -37.312816 0.000013)
(-9.876631 -21.070637 0.000013)
(-4.662124 8.052723 0.000013)
(0.740332 28.641215 0.000013)
(4.274845 32.644907 0.000013)
(5.535338 30.262396 0.000013)
(2.614457 17.190575 0.000013)
(-0.494744 5.494984 0.000019)
(-2.026759 -1.417651 0.000025)
(-1.226788 -3.131693 0.000025)
(0.651579 -2.306130 0.000025)
(4.676342 3.652942 0.000025)
(16.997138 25.034660 0.000025)
(29.442487 46.719158 0.000025)
(25.735331 42.616909 0.000025)
(18.995270 31.739591 0.000025)
(16.021235 25.849949 0.000025)
(13.913040 21.223617 0.000025)
(10.572084 16.417685 0.000025)
(8.036544 12.745698 0.000025)
(6.211583 10.667924 0.000025)
(3.357706 7.814869 0.000025)
(1.778310 6.592468 0.000025)
(-1.995509 3.575217 0.000025)
(-7.181603 0.114201 0.000025)
(-11.586406 -2.082086 0.000025)
(-12.638122 -1.754562 0.000025)
(-18.873643 -3.752598 0.000025)
(-22.599949 -4.249905 0.000025)
(-27.547984 -4.491237 0.000025)
(-32.956443 -4.703254 0.000025)
(-36.985779 -3.478091 0.000025)
(-42.068956 -2.323375 0.000025)
(-45.281853 0.104576 0.000025)
(-48.084663 2.918327 0.000025)
(-47.576751 6.825630 0.000025)
(-45.276106 10.734227 0.000025)
(-37.805958 14.752694 0.000025)
(-30.910443 17.540258 0.000025)
(-22.117066 18.679239 0.000025)
(-4.852051 18.028929 0.000025)
(4.187692 15.500960 0.000025)
(15.789306 11.087792 0.000025)
(27.143058 5.960552 0.000025)
(34.001703 -0.002291 0.000025)
(42.344498 -6.204031 0.000025)
(43.079403 -11.438445 0.000025)
(43.233214 -16.077456 0.000025)
(39.772780 -18.962594 0.000025)
(37.625283 -21.297169 0.000025)
(31.819373 -21.633926 0.000025)
(26.537931 -21.747495 0.000025)
(20.698596 -20.592917 0.000025)
(14.650735 -18.826888 0.000025)
(10.227190 -16.742396 0.000025)
(5.444844 -14.010259 0.000025)
(2.816064 -11.667422 0.000025)
(0.168861 -9.036240 0.000025)
(-1.058633 -6.858660 0.000025)
(-2.270694 -4.561262 0.000025)
(-2.520316 -2.811019 0.000025)
(-2.735774 -1.139537 0.000025)
(-2.401378 0.034682 0.000025)
(-1.845685 0.809119 0.000025)
(-1.278323 1.422397 0.000025)
(-0.836332 1.927369 0.000025)
(-0.070531 1.855727 0.000025)
(0.397888 1.869951 0.000025)
(0.699269 1.858747 0.000025)
(1.163534 1.383905 0.000025)
(1.761272 0.539319 0.000025)
(2.069559 0.012495 0.000025)
(2.692768 -1.382008 0.000025)
(3.619869 -3.739705 0.000025)
(4.092212 -5.473884 0.000019)
(4.217164 -6.791467 0.000013)
(3.894684 -7.124027 0.000013)
(3.157790 -6.073722 0.000013)
(2.531849 -4.667475 0.000013)
(2.068225 -3.148062 0.000013)
(1.624888 -1.586307 0.000013)
(1.225693 -0.177048 0.000013)
(0.953864 0.951280 0.000013)
(0.759230 1.687538 0.000013)
(0.159766 1.037905 0.000013)
(-48.163399 -0.174725 0.000013)
(46.954204 0.261016 0.000013)
(-1.503789 0.784136 0.000013)
(-0.111612 -0.848656 0.000013)
(-12.434559 32.642240 0.000013)
(-11.469041 30.491868 0.000008)
(2.114117 -5.266537 0.000003)
(-0.065221 -2.702238 0.000003)
(-0.189498 -1.609226 0.000003)
(-0.109659 -0.980855 0.000003)
(-0.039841 -0.661461 0.000003)
(-0.005286 -0.460742 0.000003)
(-0.027251 -0.236815 0.000003)
(-0.070157 0.120846 0.000003)
(-0.040367 -0.084788 -0.000012)
(-0.039708 -0.577689 -0.000028)
(-0.130726 -0.673796 -0.000028)
(-0.295648 0.592787 -0.000028)
(0.146720 1.342572 -0.000028)
(5.699581 -2.320937 -0.000028)
)
;
    }
}
