/*--------------------------------*- C++ -*---------------------------------*\ 
| ========                 |                                                 | 
| \      /  F ield         | OpenFOAM: The Open Source CFD Toolbox           | 
|  \    /   O peration     | Version:  v1812                                 | 
|   \  /    A nd           | Web:      www.OpenFOAM.com                      | 
|    \/     M anipulation  |                                                 | 
\*--------------------------------------------------------------------------*/ 
FoamFile
{
    version     2.0;
    format      ascii;
    class       volVectorField;
    location    "/home/james/dafoam/myRuns/bezier_coanda_opt/0.00000000001/";
    object      sens_CL_shapey;
}
// * * * * * * * * * * * * * * * * * * * * * * * * * * * * * * * * * * * * * //

dimensions      [0 0 0 0 0 0 0];
internalField   uniform (0 0 0);
boundaryField
{
    allWalls
    {
        type  wall;
        value nonuniform List<vector>
268
(
(0.475819 -0.310343 0.000139)
(0.697465 -0.084343 0.000138)
(0.106348 -0.252226 0.000136)
(0.242724 -0.365330 0.000135)
(0.008376 -0.004024 0.000133)
(-0.001692 -0.140544 0.000132)
(-0.044940 0.098431 0.000131)
(-0.072403 0.126960 0.000130)
(-0.035899 0.087052 0.000295)
(-0.050663 0.140423 0.000482)
(-0.031049 0.096208 0.000527)
(-0.032522 0.116616 0.000578)
(-0.029545 0.118605 0.000633)
(-0.020374 0.086607 0.000691)
(-0.006984 0.035622 0.000753)
(-0.005195 0.029247 0.000817)
(-0.005256 0.031888 0.000881)
(-0.006887 0.041575 0.001370)
(-0.006486 0.042212 0.001919)
(-0.005733 0.039690 0.002109)
(-0.004933 0.037291 0.002308)
(-0.004787 0.038442 0.002513)
(-0.004473 0.038768 0.002720)
(-0.004659 0.043507 0.002926)
(-0.004461 0.044643 0.003128)
(-0.004166 0.044232 0.003766)
(-0.003935 0.045676 0.004502)
(-0.003916 0.049061 0.004900)
(-0.003786 0.051769 0.005310)
(-0.003639 0.054401 0.005854)
(-0.003350 0.055559 0.006298)
(-0.002882 0.053242 0.006647)
(-0.002843 0.061479 0.007134)
(-0.003389 0.087689 0.007506)
(-0.002818 0.087632 0.007497)
(-0.001937 0.083411 0.007125)
(-0.001291 0.086707 0.006524)
(-0.000366 0.081232 0.005810)
(0.000391 0.082316 0.005130)
(0.001216 0.082116 0.004454)
(0.002146 0.081806 0.003771)
(0.003127 0.081272 0.003113)
(0.004227 0.081071 0.002309)
(0.005489 0.082374 0.001614)
(0.006536 0.079927 0.001198)
(0.004822 0.050061 0.000801)
(0.008766 0.065350 0.000432)
(0.015593 0.111543 0.000097)
(0.015674 0.101427 -0.000198)
(0.014953 0.080944 -0.000450)
(0.016349 0.076185 -0.000905)
(0.018865 0.077126 -0.001056)
(0.021157 0.077786 -0.000889)
(0.024729 0.083643 -0.000922)
(0.029817 0.094359 -0.000932)
(0.037257 0.111134 -0.000920)
(0.046833 0.132627 -0.000891)
(0.057907 0.156341 -0.000848)
(0.070009 0.181362 -0.000793)
(0.080588 0.201793 -0.000491)
(0.092428 0.225202 -0.000201)
(0.112967 0.269179 -0.000169)
(0.136949 0.318921 -0.000138)
(0.140079 0.316747 -0.000108)
(0.111763 0.245986 -0.000079)
(0.124947 0.278071 -0.000052)
(0.216760 0.471730 -0.000028)
(0.176592 0.319783 -0.000006)
(-0.015204 -0.345317 -0.000087)
(0.178719 0.793676 -0.000179)
(-0.945952 -5.792588 -0.000179)
(-4.448754 2.752899 -0.000179)
(2.644860 1.767491 -0.000179)
(0.361781 -1.059783 0.000080)
(-1.143877 -0.309941 0.000366)
(-2.185110 2.018942 0.000421)
(0.385112 1.543825 0.000478)
(1.245797 -1.162215 0.000535)
(-0.309752 -0.968504 0.000592)
(-0.083987 0.159065 0.000646)
(-0.022356 0.168313 0.000699)
(0.053831 0.105326 0.001304)
(0.022197 -0.016115 0.001953)
(-0.015689 0.010544 0.002087)
(-0.016741 0.022551 0.002206)
(-0.015865 0.040133 0.002306)
(-0.014593 0.056098 0.002384)
(-0.012955 0.066776 0.002435)
(-0.011671 0.077041 0.002459)
(-0.010903 0.085610 0.002537)
(-0.009839 0.090037 0.002570)
(-0.008775 0.093247 0.002470)
(-0.007491 0.092628 0.002327)
(-0.006531 0.093299 0.002141)
(-0.005430 0.090433 0.001916)
(-0.004606 0.090206 0.001655)
(-0.003808 0.088710 0.001362)
(-0.003140 0.089684 0.000795)
(-0.002489 0.085366 0.000236)
(-0.001449 0.041603 -0.000144)
(-0.001005 0.040084 -0.000630)
(-0.000888 0.085563 -0.001134)
(-0.000208 0.090880 -0.001729)
(0.000460 0.082662 -0.002309)
(0.001136 0.086421 -0.002748)
(0.001825 0.092562 -0.003024)
(0.001607 0.064105 -0.003209)
(0.001589 0.047441 -0.003207)
(0.002055 0.052925 -0.002982)
(0.002251 0.049314 -0.002752)
(0.002416 0.046811 -0.002617)
(0.002724 0.045612 -0.002470)
(0.002214 0.032744 -0.002226)
(0.001882 0.025346 -0.001997)
(0.002918 0.037301 -0.001506)
(0.002945 0.033735 -0.001056)
(0.002912 0.029910 -0.000922)
(0.002929 0.028007 -0.000795)
(0.003129 0.027505 -0.000677)
(0.003126 0.026021 -0.000568)
(0.003359 0.025542 -0.000468)
(0.003449 0.024406 -0.000379)
(0.004013 0.024792 -0.000299)
(0.004252 0.023568 -0.000075)
(0.005119 0.024923 0.000119)
(0.004845 0.021382 0.000131)
(0.005797 0.024264 0.000142)
(0.006226 0.026465 0.000152)
(0.004211 0.017486 0.000161)
(0.006298 0.029091 0.000168)
(0.001964 0.009026 0.000175)
(0.006217 0.019658 0.000157)
(0.001243 -0.003419 0.000137)
(0.006779 -0.014215 0.000137)
(0.008317 -0.011299 0.000137)
(0.015658 0.001736 0.000137)
(0.045737 0.100838 0.000138)
(-0.045682 0.180994 0.000138)
(-0.597441 0.055855 0.000139)
(-0.843458 -0.087139 0.000139)
(0.215391 0.915775 -0.000179)
(-0.087552 -0.530677 -0.000179)
(-0.093751 -0.420709 -0.000179)
(-0.037855 0.250566 -0.000179)
(0.021492 0.481245 -0.000179)
(0.048568 -0.090182 -0.000179)
(0.003347 0.132090 -0.000169)
(0.035652 0.895035 -0.000158)
(0.168990 1.831310 -0.000158)
(0.394997 2.853089 -0.000158)
(0.811910 1.427666 -0.000158)
(0.806050 5.103270 -0.000158)
(0.294241 20.470673 -0.000158)
(0.458914 29.001555 -0.000158)
(-59.932169 -132.902676 -0.000067)
(-35.413267 -673.141168 0.000024)
(-98.369612 -11.524419 0.000024)
(-32.738019 4.450409 0.000024)
(-78.781007 -144.995922 0.000024)
(110.313610 675.231187 0.000024)
(-25.734225 20.208861 0.000024)
(-5.649103 -1.518451 0.000024)
(-6.679366 -22.012876 0.000024)
(-7.066296 -24.339320 0.000024)
(-5.673033 -14.220977 0.000024)
(-2.110625 3.566955 0.000024)
(1.226386 18.147607 0.000024)
(3.899479 25.308952 0.000024)
(5.211455 27.937294 0.000024)
(3.349242 19.640332 0.000024)
(1.726616 11.623997 0.000022)
(1.318075 6.517495 0.000020)
(2.214252 4.686409 0.000020)
(4.279114 6.233783 0.000020)
(10.750112 17.288017 0.000020)
(19.193190 32.229412 0.000020)
(19.212203 32.894192 0.000020)
(15.991301 26.993785 0.000020)
(13.704632 22.441295 0.000020)
(12.630545 19.409168 0.000020)
(13.004256 18.617564 0.000020)
(9.329111 13.856500 0.000020)
(7.157465 11.024496 0.000020)
(5.156100 8.969804 0.000020)
(2.482851 6.564708 0.000020)
(0.447992 5.158766 0.000020)
(-3.110953 2.606835 0.000020)
(-8.126829 -0.539545 0.000020)
(-12.168701 -2.405958 0.000020)
(-13.624662 -2.284032 0.000020)
(-19.709344 -4.151223 0.000020)
(-23.344675 -4.518928 0.000020)
(-27.877072 -4.550815 0.000020)
(-32.740242 -4.552879 0.000020)
(-36.206191 -3.235287 0.000020)
(-40.329786 -1.950444 0.000020)
(-42.596862 0.434425 0.000020)
(-44.225216 3.080259 0.000020)
(-42.852050 6.580348 0.000020)
(-39.753752 10.032436 0.000020)
(-34.223063 13.349473 0.000020)
(-27.440528 15.634731 0.000020)
(-14.136862 16.716552 0.000020)
(-3.880768 15.839320 0.000020)
(4.760955 13.206940 0.000020)
(15.710312 9.624087 0.000020)
(24.892691 4.978012 0.000020)
(34.713541 -0.435767 0.000020)
(38.524113 -5.350930 0.000020)
(41.175614 -10.116590 0.000020)
(40.272504 -13.637333 0.000020)
(36.005057 -15.782841 0.000020)
(34.346535 -17.705554 0.000020)
(28.701645 -17.853332 0.000020)
(24.489889 -18.122172 0.000020)
(19.191211 -17.211446 0.000020)
(14.146282 -15.957126 0.000020)
(10.015538 -14.264346 0.000020)
(6.094435 -12.269251 0.000020)
(3.695785 -10.417186 0.000020)
(0.995775 -8.155235 0.000020)
(-0.390518 -6.284479 0.000020)
(-1.718711 -4.253533 0.000020)
(-2.208278 -2.645212 0.000020)
(-2.619587 -1.086790 0.000020)
(-2.483298 0.036477 0.000020)
(-1.804423 0.504182 0.000020)
(-1.327379 1.115375 0.000020)
(-0.748882 1.381292 0.000020)
(-0.027959 1.320487 0.000020)
(0.064107 1.748479 0.000020)
(0.667576 1.349849 0.000020)
(1.622427 0.244535 0.000020)
(2.671279 -1.219109 0.000020)
(3.382393 -2.395233 0.000020)
(4.098297 -4.145506 0.000020)
(4.514442 -6.057652 0.000020)
(4.301749 -6.993444 0.000022)
(4.608701 -8.879270 0.000024)
(4.865016 -10.009176 0.000024)
(4.351836 -9.029112 0.000024)
(3.551250 -6.622004 0.000024)
(2.848651 -4.131165 0.000024)
(2.244361 -2.169273 0.000024)
(1.450749 0.242161 0.000024)
(0.887551 2.218948 0.000024)
(0.578550 3.599474 0.000024)
(-0.358475 2.382834 0.000024)
(-48.574010 0.052837 0.000024)
(46.094627 1.012657 0.000024)
(-3.569642 3.031449 0.000024)
(0.238387 0.563908 0.000024)
(-13.879214 41.063034 0.000024)
(-15.993706 38.932171 -0.000067)
(1.296408 -6.385540 -0.000158)
(0.021250 -3.652939 -0.000158)
(-0.102510 -1.980791 -0.000158)
(-0.036430 -1.296965 -0.000158)
(0.007247 -0.932943 -0.000158)
(0.024269 -0.609182 -0.000158)
(0.002717 -0.317577 -0.000158)
(-0.033391 0.033116 -0.000158)
(-0.000679 -0.213020 -0.000169)
(0.028490 -1.153642 -0.000179)
(-0.167294 -1.065609 -0.000179)
(-0.604593 2.112860 -0.000179)
(-0.059406 3.371796 -0.000179)
(6.058948 -5.361224 -0.000179)
)
;
    }
}
