/*--------------------------------*- C++ -*---------------------------------*\ 
| ========                 |                                                 | 
| \      /  F ield         | OpenFOAM: The Open Source CFD Toolbox           | 
|  \    /   O peration     | Version:  v1812                                 | 
|   \  /    A nd           | Web:      www.OpenFOAM.com                      | 
|    \/     M anipulation  |                                                 | 
\*--------------------------------------------------------------------------*/ 
FoamFile
{
    version     2.0;
    format      ascii;
    class       volVectorField;
    location    "/home/james/dafoam/myRuns/bezier_coanda_opt/0.00000000001/";
    object      sens_CL_shapey;
}
// * * * * * * * * * * * * * * * * * * * * * * * * * * * * * * * * * * * * * //

dimensions      [0 0 0 0 0 0 0];
internalField   uniform (0 0 0);
boundaryField
{
    allWalls
    {
        type  wall;
        value nonuniform List<vector>
268
(
(-0.104890 -0.023152 0.000172)
(0.233161 -0.152070 0.000170)
(0.207226 -0.049975 0.000168)
(0.010328 0.030370 0.000166)
(0.028964 -0.074952 0.000164)
(0.047567 -0.072138 0.000163)
(0.020707 -0.059234 0.000161)
(-0.001295 -0.008933 0.000160)
(-0.026958 0.045396 0.000321)
(-0.025875 0.050143 0.000510)
(-0.020497 0.049215 0.000566)
(-0.022277 0.064393 0.000628)
(-0.019321 0.064794 0.000694)
(-0.014561 0.055576 0.000764)
(-0.010938 0.046998 0.000836)
(-0.008853 0.041231 0.000911)
(-0.006869 0.035295 0.001477)
(-0.005915 0.032873 0.002111)
(-0.009690 0.057976 0.002330)
(-0.009630 0.057461 0.002560)
(-0.005302 0.035278 0.002801)
(-0.003778 0.028733 0.003052)
(-0.002733 0.024957 0.003311)
(-0.002927 0.029526 0.003568)
(-0.002597 0.029468 0.003820)
(-0.003899 0.046153 0.004467)
(-0.003459 0.044923 0.005212)
(-0.002712 0.040922 0.005665)
(-0.003045 0.051251 0.006133)
(-0.002709 0.053683 0.006797)
(-0.002313 0.055592 0.007456)
(-0.001909 0.057680 0.007984)
(-0.001466 0.062126 0.008586)
(-0.001096 0.082618 0.008783)
(-0.000401 0.091442 0.008589)
(0.000584 0.084200 0.008289)
(0.001515 0.085948 0.007713)
(0.002421 0.085655 0.007004)
(0.003311 0.084175 0.006257)
(0.004234 0.084807 0.005534)
(0.005204 0.084902 0.004897)
(0.006200 0.084962 0.004282)
(0.007126 0.084089 0.003442)
(0.007461 0.077531 0.002535)
(0.008934 0.079470 0.002085)
(0.012128 0.096596 0.001785)
(0.015593 0.114015 0.001366)
(0.017295 0.114990 0.000974)
(0.018091 0.108171 0.000616)
(0.020351 0.110628 0.000295)
(0.023060 0.115295 0.000002)
(0.026063 0.120354 -0.000422)
(0.029806 0.128193 -0.000755)
(0.033641 0.136997 -0.001021)
(0.037171 0.143861 -0.001087)
(0.042291 0.156260 -0.000957)
(0.051015 0.182220 -0.000893)
(0.060394 0.210215 -0.000821)
(0.060914 0.206156 -0.000829)
(0.058871 0.187916 -0.000826)
(0.072263 0.225487 -0.000813)
(0.074461 0.233205 -0.000791)
(0.072985 0.230410 -0.000800)
(0.083088 0.270433 -0.000767)
(0.091678 0.307298 -0.000692)
(0.109341 0.373362 -0.000672)
(0.105475 0.362564 -0.000647)
(0.034720 0.098005 -0.000573)
(-0.021384 -0.252256 -0.000523)
(0.158286 0.995112 -0.000523)
(0.548598 -4.547596 -0.000523)
(-1.434720 2.978676 -0.000523)
(-0.539484 1.420478 -0.000155)
(-0.025564 -0.060849 0.000277)
(0.056992 -0.098726 0.000411)
(0.035223 -0.057633 0.000560)
(0.137232 -0.371633 0.000702)
(0.299803 -0.874113 0.000880)
(0.218657 -0.894655 0.001095)
(0.347699 -0.740226 0.001301)
(0.205695 -0.489612 0.001522)
(-0.131949 -0.140730 0.001710)
(-0.047870 0.006295 0.001894)
(-0.008971 0.068637 0.002114)
(0.000654 0.052162 0.002327)
(-0.016661 0.082906 0.002527)
(-0.025916 0.123169 0.002705)
(-0.026926 0.142538 0.002853)
(-0.026469 0.157009 0.003077)
(-0.024859 0.163410 0.003186)
(-0.022454 0.162266 0.003133)
(-0.019901 0.157322 0.003095)
(-0.017404 0.150306 0.002991)
(-0.015128 0.142583 0.002820)
(-0.013009 0.134161 0.002587)
(-0.011214 0.126976 0.002293)
(-0.009556 0.119445 0.001947)
(-0.008082 0.112991 0.001620)
(-0.006782 0.107544 0.000891)
(-0.005649 0.102591 -0.000007)
(-0.004643 0.098235 -0.000647)
(-0.003752 0.095309 -0.001311)
(-0.002821 0.089783 -0.001972)
(-0.001902 0.076064 -0.002609)
(-0.001130 0.082830 -0.003189)
(-0.000391 0.087265 -0.003586)
(0.000450 0.078808 -0.003922)
(0.000926 0.064976 -0.004019)
(0.001239 0.051570 -0.003790)
(0.001661 0.051839 -0.003547)
(0.001925 0.047240 -0.003414)
(0.002124 0.042923 -0.003256)
(0.002286 0.039073 -0.002967)
(0.002430 0.035988 -0.002693)
(0.002615 0.033857 -0.002043)
(0.002755 0.031715 -0.001449)
(0.002921 0.029977 -0.001297)
(0.003026 0.028168 -0.001151)
(0.003209 0.027037 -0.001011)
(0.003319 0.025688 -0.000880)
(0.003544 0.024836 -0.000759)
(0.003701 0.023660 -0.000648)
(0.004076 0.023086 -0.000368)
(0.004362 0.022115 -0.000126)
(0.004884 0.021884 -0.000096)
(0.004928 0.020011 -0.000068)
(0.005470 0.020418 -0.000042)
(0.005805 0.020667 -0.000017)
(0.005301 0.017463 0.000005)
(0.006164 0.019798 0.000025)
(0.004781 0.013116 0.000045)
(0.006341 0.014260 0.000111)
(0.004391 0.006138 0.000168)
(0.006720 0.003369 0.000169)
(0.008595 0.006293 0.000169)
(0.011896 0.012890 0.000170)
(0.023439 0.043966 0.000170)
(-0.025825 0.061830 0.000171)
(-0.204102 0.021688 0.000172)
(-0.312553 -0.004301 0.000173)
(0.157631 0.985598 -0.000523)
(-0.056435 -0.528024 -0.000523)
(-0.058910 -0.460401 -0.000523)
(-0.017736 0.198610 -0.000523)
(0.021868 0.588084 -0.000523)
(0.057630 0.396716 -0.000523)
(0.048519 0.362380 -0.000497)
(0.047122 0.767719 -0.000470)
(0.118310 1.875262 -0.000470)
(0.283200 2.903572 -0.000470)
(0.557057 1.563075 -0.000470)
(0.407255 4.563279 -0.000470)
(-0.177891 16.838983 -0.000470)
(0.124373 22.672553 -0.000470)
(-51.819444 -105.261562 -0.000223)
(42.813447 -546.562875 0.000024)
(-72.049212 -5.246228 0.000024)
(-22.995782 4.066273 0.000024)
(-64.146822 -115.560183 0.000024)
(16.370278 521.395328 0.000024)
(-23.911136 55.597388 0.000024)
(-2.570349 22.123717 0.000024)
(-3.018704 -1.563358 0.000024)
(-2.984809 -6.179720 0.000024)
(-2.137957 -3.378624 0.000024)
(-0.660050 0.822816 0.000024)
(1.566860 10.461036 0.000024)
(3.103792 16.444614 0.000024)
(3.912820 19.235772 0.000024)
(3.416405 16.686243 0.000024)
(3.455995 14.505669 0.000021)
(3.283345 11.284320 0.000019)
(3.101609 7.633385 0.000019)
(3.785825 6.557439 0.000019)
(6.947677 11.156484 0.000019)
(11.710902 19.145563 0.000019)
(11.785758 19.413259 0.000019)
(10.193876 16.345473 0.000019)
(8.785687 13.647264 0.000019)
(8.088738 11.820338 0.000019)
(8.267301 11.360341 0.000019)
(5.280859 7.781678 0.000019)
(3.902585 6.072488 0.000019)
(2.337259 4.675564 0.000019)
(0.235570 2.915666 0.000019)
(-1.207731 2.095539 0.000019)
(-3.873070 0.340106 0.000019)
(-7.135403 -1.500751 0.000019)
(-9.782773 -2.559262 0.000019)
(-10.773890 -2.372111 0.000019)
(-14.772717 -3.520104 0.000019)
(-17.156014 -3.659159 0.000019)
(-20.072822 -3.585711 0.000019)
(-22.933366 -3.408399 0.000019)
(-24.894691 -2.440023 0.000019)
(-27.102364 -1.495404 0.000019)
(-27.854903 0.149320 0.000019)
(-28.488457 1.789771 0.000019)
(-26.938571 3.960482 0.000019)
(-23.357765 6.377962 0.000019)
(-21.751168 8.332652 0.000019)
(-19.451717 9.683844 0.000019)
(-8.487396 10.777698 0.000019)
(-0.380360 10.382764 0.000019)
(5.126203 8.707515 0.000019)
(13.044955 6.405421 0.000019)
(19.893774 3.356731 0.000019)
(24.026402 0.108743 0.000019)
(27.563833 -3.351492 0.000019)
(28.022441 -6.087139 0.000019)
(25.820312 -7.986017 0.000019)
(25.583215 -9.768555 0.000019)
(22.117469 -10.390287 0.000019)
(19.645292 -11.150120 0.000019)
(15.985492 -11.029709 0.000019)
(12.310646 -10.654294 0.000019)
(9.424764 -9.996386 0.000019)
(6.269090 -8.906814 0.000019)
(3.981534 -7.719780 0.000019)
(1.666921 -6.256831 0.000019)
(0.333197 -5.034184 0.000019)
(-0.945952 -3.670768 0.000019)
(-1.571036 -2.478193 0.000019)
(-2.176191 -1.240673 0.000019)
(-2.107505 -0.464986 0.000019)
(-1.734614 -0.004418 0.000019)
(-1.561118 0.611608 0.000019)
(-1.493223 1.222701 0.000019)
(-1.230348 1.567709 0.000019)
(-1.010224 1.839454 0.000019)
(-0.354279 1.489445 0.000019)
(0.200073 1.136616 0.000019)
(0.699189 0.670868 0.000019)
(1.156504 0.201116 0.000019)
(1.906305 -0.986635 0.000019)
(3.089657 -3.362676 0.000019)
(3.870930 -5.426425 0.000019)
(4.380432 -7.346984 0.000021)
(4.358639 -8.059069 0.000024)
(3.950317 -7.820590 0.000024)
(3.446451 -7.038023 0.000024)
(2.741439 -5.038183 0.000024)
(2.268132 -3.346136 0.000024)
(1.781330 -1.704921 0.000024)
(1.185201 0.078045 0.000024)
(0.722924 1.633048 0.000024)
(0.456128 2.721410 0.000024)
(-0.228081 1.834223 0.000024)
(-48.351663 0.093823 0.000024)
(46.559017 0.755658 0.000024)
(-2.666430 2.330262 0.000024)
(0.187584 0.505686 0.000024)
(-10.943537 29.692275 0.000024)
(-12.620108 28.258723 -0.000223)
(0.908688 -4.506960 -0.000470)
(0.039782 -2.617273 -0.000470)
(-0.060966 -1.474586 -0.000470)
(-0.024565 -0.984760 -0.000470)
(0.002473 -0.682154 -0.000470)
(0.003801 -0.365596 -0.000470)
(0.002267 -0.158993 -0.000470)
(-0.012691 0.060564 -0.000470)
(0.001407 0.002672 -0.000497)
(0.048775 -0.656849 -0.000523)
(-0.067611 -0.529614 -0.000523)
(-0.388095 2.245405 -0.000523)
(-0.120660 3.473455 -0.000523)
(1.668897 -4.856517 -0.000523)
)
;
    }
}
