/*--------------------------------*- C++ -*---------------------------------*\ 
| ========                 |                                                 | 
| \      /  F ield         | OpenFOAM: The Open Source CFD Toolbox           | 
|  \    /   O peration     | Version:  v1812                                 | 
|   \  /    A nd           | Web:      www.OpenFOAM.com                      | 
|    \/     M anipulation  |                                                 | 
\*--------------------------------------------------------------------------*/ 
FoamFile
{
    version     2.0;
    format      ascii;
    class       volVectorField;
    location    "/home/james/dafoam/myRuns/bezier_coanda_opt/0.00000000001/";
    object      sens_CL_shapey;
}
// * * * * * * * * * * * * * * * * * * * * * * * * * * * * * * * * * * * * * //

dimensions      [0 0 0 0 0 0 0];
internalField   uniform (0 0 0);
boundaryField
{
    allWalls
    {
        type  wall;
        value nonuniform List<vector>
268
(
(-0.133567 -0.005708 0.000172)
(0.084754 -0.051645 0.000170)
(0.229436 -0.157568 0.000167)
(0.046123 0.028585 0.000165)
(-0.087940 0.119399 0.000163)
(0.042222 -0.090290 0.000161)
(0.048051 -0.072595 0.000160)
(0.022236 -0.055404 0.000158)
(-0.017999 0.037531 0.000326)
(-0.024068 0.037979 0.000523)
(-0.013844 0.030237 0.000583)
(-0.024511 0.061801 0.000648)
(-0.012606 0.041072 0.000717)
(-0.018219 0.061743 0.000792)
(-0.009938 0.041996 0.000871)
(-0.011115 0.047239 0.000952)
(-0.006646 0.033003 0.001520)
(-0.006645 0.034060 0.002159)
(-0.005195 0.030506 0.002389)
(-0.005281 0.033107 0.002633)
(-0.004084 0.029301 0.002887)
(-0.006916 0.054467 0.003147)
(-0.006655 0.053102 0.003414)
(-0.004601 0.041646 0.003685)
(-0.003039 0.032354 0.003948)
(-0.002358 0.031232 0.004649)
(-0.002869 0.040821 0.005447)
(-0.002327 0.039445 0.005901)
(-0.002604 0.050655 0.006368)
(-0.002398 0.056454 0.006966)
(-0.001775 0.054732 0.007439)
(-0.001268 0.057185 0.007819)
(-0.000780 0.062418 0.008362)
(-0.000038 0.081974 0.008781)
(0.001031 0.102735 0.008765)
(0.001567 0.078202 0.008353)
(0.002832 0.078783 0.007704)
(0.004285 0.095694 0.006935)
(0.004774 0.084696 0.006188)
(0.005615 0.083374 0.005464)
(0.006325 0.080130 0.004787)
(0.007544 0.082081 0.004148)
(0.008121 0.078882 0.003346)
(0.009948 0.086230 0.002626)
(0.012903 0.102429 0.002180)
(0.014255 0.102925 0.001756)
(0.015655 0.102991 0.001360)
(0.017436 0.105280 0.000995)
(0.019521 0.108984 0.000664)
(0.021892 0.113779 0.000369)
(0.024602 0.119607 0.000237)
(0.027323 0.123752 0.000169)
(0.030006 0.128533 0.000041)
(0.035355 0.146947 -0.000058)
(0.043125 0.175547 -0.000145)
(0.043707 0.174032 -0.000219)
(0.037610 0.146887 -0.000282)
(0.046540 0.182371 -0.000334)
(0.052484 0.206363 -0.000376)
(0.056549 0.214107 -0.000331)
(0.060117 0.220518 -0.000262)
(0.054390 0.200887 -0.000248)
(0.051930 0.194848 -0.000234)
(0.042172 0.163094 -0.000219)
(0.043357 0.183574 -0.000204)
(0.060105 0.275253 -0.000189)
(0.070621 0.343432 -0.000175)
(0.072271 0.345631 -0.000380)
(0.048933 0.108941 -0.000592)
(0.110779 0.900593 -0.000592)
(0.323602 -3.216488 -0.000592)
(-0.565411 2.041608 -0.000592)
(-0.279096 0.826987 -0.000326)
(0.012561 -0.042232 -0.000058)
(0.039861 -0.079321 -0.000052)
(0.050840 -0.121102 -0.000045)
(0.117113 -0.335998 -0.000036)
(0.211749 -0.654125 -0.000025)
(0.289670 -0.979185 -0.000013)
(0.266171 -1.030768 0.000001)
(0.302537 -0.827716 0.000016)
(0.150690 -0.452077 0.000735)
(-0.074350 -0.102962 0.001553)
(-0.033977 0.019961 0.001768)
(-0.004657 0.047834 0.001981)
(-0.008382 0.052418 0.002187)
(-0.025582 0.117088 0.002379)
(-0.030382 0.158920 0.002547)
(-0.030738 0.175744 0.002688)
(-0.030160 0.185898 0.002961)
(-0.028656 0.188716 0.003186)
(-0.026036 0.184171 0.003178)
(-0.023113 0.175385 0.003095)
(-0.020253 0.164886 0.002935)
(-0.017651 0.154542 0.002698)
(-0.015298 0.144463 0.002384)
(-0.013152 0.134637 0.002002)
(-0.011348 0.126436 0.001811)
(-0.009663 0.119131 0.001090)
(-0.008114 0.112553 0.000013)
(-0.006806 0.106774 -0.000691)
(-0.005634 0.102136 -0.001427)
(-0.004455 0.097800 -0.002156)
(-0.003332 0.093512 -0.002871)
(-0.002317 0.090294 -0.003547)
(-0.001364 0.083239 -0.004030)
(-0.000424 0.079429 -0.004283)
(0.000254 0.065459 -0.004259)
(0.000816 0.054399 -0.004029)
(0.001383 0.055828 -0.003780)
(0.001733 0.049922 -0.003750)
(0.001997 0.044895 -0.003685)
(0.002253 0.041405 -0.003365)
(0.002442 0.037859 -0.003061)
(0.002637 0.034960 -0.002403)
(0.002848 0.032961 -0.001806)
(0.003024 0.030824 -0.001636)
(0.003166 0.028911 -0.001470)
(0.003394 0.027795 -0.001310)
(0.003554 0.026419 -0.001158)
(0.003831 0.025619 -0.001017)
(0.003983 0.024142 -0.000887)
(0.004447 0.023841 -0.000532)
(0.004614 0.022221 -0.000221)
(0.005289 0.022409 -0.000184)
(0.005376 0.020678 -0.000149)
(0.005729 0.019939 -0.000115)
(0.006001 0.019781 -0.000083)
(0.005886 0.017652 -0.000054)
(0.006895 0.019588 -0.000027)
(0.005722 0.013840 -0.000002)
(0.007108 0.014451 0.000089)
(0.005352 0.007982 0.000167)
(0.007381 0.006401 0.000168)
(0.008775 0.008362 0.000168)
(0.011025 0.011783 0.000169)
(0.019761 0.029835 0.000169)
(-0.010191 0.042279 0.000170)
(-0.127070 0.023522 0.000171)
(-0.223659 0.001336 0.000172)
(0.092533 0.876559 -0.000592)
(-0.023204 -0.395110 -0.000592)
(-0.022156 -0.425203 -0.000592)
(-0.003051 0.252710 -0.000592)
(0.037203 0.673658 -0.000592)
(0.082603 0.512796 -0.000592)
(0.070604 0.471193 -0.000561)
(0.062712 0.903245 -0.000531)
(0.138588 2.106174 -0.000531)
(0.309314 3.205461 -0.000531)
(0.583529 1.812288 -0.000531)
(0.401022 4.934977 -0.000531)
(-0.263198 17.556998 -0.000531)
(0.059781 23.096722 -0.000531)
(-50.189859 -119.349214 -0.000252)
(17.272492 -532.218817 0.000026)
(-71.704805 -26.339941 0.000026)
(-21.283336 -14.679410 0.000026)
(-64.954807 -134.243710 0.000026)
(37.385151 532.147507 0.000026)
(-21.434679 56.787208 0.000026)
(-2.415725 23.581700 0.000026)
(-3.443464 -2.886874 0.000026)
(-3.063834 -6.641140 0.000026)
(-2.229129 -3.330978 0.000026)
(-0.638597 0.722288 0.000026)
(1.833962 11.611070 0.000026)
(3.267321 17.103157 0.000026)
(4.206814 20.543861 0.000026)
(3.752196 18.177707 0.000026)
(4.056574 16.725002 0.000021)
(3.846654 13.236953 0.000016)
(3.536480 8.966844 0.000016)
(4.052698 7.278246 0.000016)
(7.087632 11.482565 0.000016)
(11.847845 19.374153 0.000016)
(12.018239 19.736276 0.000016)
(10.484779 16.736052 0.000016)
(9.069560 14.024237 0.000016)
(8.362964 12.186266 0.000016)
(8.492774 11.673331 0.000016)
(5.359270 7.950853 0.000016)
(3.896997 6.170251 0.000016)
(2.247814 4.722138 0.000016)
(0.038500 2.893213 0.000016)
(-1.492440 2.039886 0.000016)
(-4.243167 0.313823 0.000016)
(-7.574813 -1.486464 0.000016)
(-10.330746 -2.588642 0.000016)
(-11.411048 -2.414748 0.000016)
(-15.478011 -3.556054 0.000016)
(-17.864949 -3.658917 0.000016)
(-20.786210 -3.558138 0.000016)
(-23.605916 -3.343997 0.000016)
(-25.481836 -2.331256 0.000016)
(-27.551589 -1.344017 0.000016)
(-28.100565 0.339955 0.000016)
(-28.663075 1.950135 0.000016)
(-26.574233 4.159831 0.000016)
(-22.155149 6.641371 0.000016)
(-20.238815 8.485453 0.000016)
(-18.049017 9.649003 0.000016)
(-7.722346 10.542565 0.000016)
(0.148768 10.023995 0.000016)
(6.303419 8.278788 0.000016)
(13.606422 5.969747 0.000016)
(19.073765 3.023728 0.000016)
(24.858796 -0.424221 0.000016)
(27.904415 -3.697073 0.000016)
(28.268098 -6.462925 0.000016)
(25.497918 -8.279342 0.000016)
(24.156230 -9.993647 0.000016)
(21.660107 -10.727692 0.000016)
(18.708874 -11.169003 0.000016)
(15.676721 -11.106759 0.000016)
(11.869081 -10.531679 0.000016)
(9.179497 -9.868079 0.000016)
(6.091145 -8.704631 0.000016)
(3.851194 -7.497917 0.000016)
(1.696645 -6.061866 0.000016)
(0.350973 -4.818883 0.000016)
(-0.820893 -3.501333 0.000016)
(-1.476103 -2.301343 0.000016)
(-2.017164 -1.121444 0.000016)
(-2.025542 -0.314711 0.000016)
(-1.681868 0.144027 0.000016)
(-1.544749 0.760629 0.000016)
(-1.466605 1.331602 0.000016)
(-1.252475 1.697434 0.000016)
(-1.062439 1.974312 0.000016)
(-0.463561 1.666412 0.000016)
(-0.043801 1.485467 0.000016)
(0.382336 1.151263 0.000016)
(1.135028 0.277903 0.000016)
(2.589273 -2.127313 0.000016)
(3.294984 -3.626643 0.000016)
(3.615755 -4.920772 0.000016)
(4.467613 -7.526319 0.000021)
(4.406731 -8.164322 0.000026)
(4.054547 -8.082902 0.000026)
(3.522316 -7.271034 0.000026)
(2.792410 -5.236548 0.000026)
(2.303151 -3.487529 0.000026)
(1.795381 -1.773419 0.000026)
(1.180918 0.053727 0.000026)
(0.701828 1.635936 0.000026)
(0.428084 2.745533 0.000026)
(-0.258374 1.873876 0.000026)
(-48.388349 0.116181 0.000026)
(46.531834 0.820252 0.000026)
(-2.808033 2.507822 0.000026)
(0.237425 0.673069 0.000026)
(-10.869164 29.630974 0.000026)
(-12.723260 28.194777 -0.000252)
(0.918369 -4.445473 -0.000531)
(0.061522 -2.611721 -0.000531)
(-0.024695 -1.447997 -0.000531)
(0.011832 -0.943058 -0.000531)
(0.037397 -0.656684 -0.000531)
(0.033933 -0.329561 -0.000531)
(0.023222 -0.099634 -0.000531)
(0.011828 0.085455 -0.000531)
(0.023010 0.043437 -0.000561)
(0.046030 -0.316764 -0.000592)
(-0.026067 -0.157254 -0.000592)
(-0.216034 1.682964 -0.000592)
(-0.053198 2.379900 -0.000592)
(0.728602 -3.605780 -0.000592)
)
;
    }
}
