/*--------------------------------*- C++ -*---------------------------------*\ 
| ========                 |                                                 | 
| \      /  F ield         | OpenFOAM: The Open Source CFD Toolbox           | 
|  \    /   O peration     | Version:  v1812                                 | 
|   \  /    A nd           | Web:      www.OpenFOAM.com                      | 
|    \/     M anipulation  |                                                 | 
\*--------------------------------------------------------------------------*/ 
FoamFile
{
    version     2.0;
    format      ascii;
    class       volVectorField;
    location    "/home/james/dafoam/myRuns/bezier_coanda_opt/0.00000000001/";
    object      sens_CL_shapey;
}
// * * * * * * * * * * * * * * * * * * * * * * * * * * * * * * * * * * * * * //

dimensions      [0 0 0 0 0 0 0];
internalField   uniform (0 0 0);
boundaryField
{
    allWalls
    {
        type  wall;
        value nonuniform List<vector>
268
(
(-0.123394 -0.011014 0.000169)
(0.132372 -0.069504 0.000167)
(0.229634 -0.136682 0.000164)
(0.011183 0.056611 0.000162)
(-0.081890 0.088358 0.000160)
(0.072121 -0.132032 0.000158)
(0.045718 -0.062042 0.000156)
(0.014083 -0.051325 0.000155)
(-0.018371 0.040230 0.000323)
(-0.029209 0.049227 0.000521)
(-0.011750 0.025766 0.000581)
(-0.025630 0.065652 0.000646)
(-0.012753 0.043027 0.000714)
(-0.018193 0.062672 0.000787)
(-0.009604 0.041162 0.000865)
(-0.011347 0.047976 0.000944)
(-0.006085 0.030522 0.001509)
(-0.006850 0.034961 0.002144)
(-0.005287 0.031094 0.002373)
(-0.004991 0.031147 0.002615)
(-0.007109 0.050581 0.002866)
(-0.008030 0.056805 0.003125)
(-0.005010 0.040328 0.003392)
(-0.003355 0.030853 0.003662)
(-0.002545 0.029147 0.003925)
(-0.003195 0.038553 0.004629)
(-0.002497 0.035676 0.005431)
(-0.002928 0.046464 0.005891)
(-0.002654 0.049252 0.006366)
(-0.002212 0.049620 0.006972)
(-0.002003 0.056993 0.007450)
(-0.001553 0.059250 0.007844)
(-0.000938 0.061524 0.008412)
(-0.000365 0.081641 0.008857)
(0.000604 0.099781 0.008846)
(0.001246 0.079738 0.008443)
(0.002430 0.079611 0.007822)
(0.003754 0.094757 0.007077)
(0.004363 0.084416 0.006306)
(0.005314 0.084552 0.005568)
(0.006261 0.084096 0.004926)
(0.006873 0.079869 0.004311)
(0.008124 0.082408 0.003460)
(0.008693 0.079476 0.002683)
(0.011526 0.094422 0.002237)
(0.014783 0.111761 0.001804)
(0.015299 0.104364 0.001394)
(0.016952 0.105437 0.001013)
(0.019078 0.109178 0.000664)
(0.021357 0.113211 0.000352)
(0.024159 0.118546 0.000106)
(0.027244 0.124978 -0.000170)
(0.029838 0.130038 -0.000454)
(0.032662 0.136421 -0.000604)
(0.038853 0.157076 -0.000650)
(0.046807 0.184802 -0.000709)
(0.047432 0.183113 -0.000919)
(0.041389 0.156846 -0.000945)
(0.050471 0.191115 -0.000823)
(0.057243 0.213343 -0.000826)
(0.059045 0.217804 -0.000819)
(0.063611 0.237185 -0.000806)
(0.060577 0.227729 -0.000792)
(0.058112 0.220997 -0.000773)
(0.065635 0.260465 -0.000734)
(0.078499 0.324356 -0.000690)
(0.081136 0.340984 -0.000674)
(0.058643 0.236268 -0.000641)
(0.014827 -0.073788 -0.000607)
(0.116861 0.892406 -0.000607)
(0.393339 -3.685908 -0.000607)
(-0.818506 2.472753 -0.000607)
(-0.387985 1.025854 -0.000258)
(0.008721 -0.052984 0.000143)
(0.037386 -0.070669 0.000232)
(0.027808 -0.060339 0.000340)
(0.088890 -0.253735 0.000489)
(0.188931 -0.572899 0.000677)
(0.270745 -0.909435 0.000881)
(0.238761 -0.965732 0.001080)
(0.290152 -0.785156 0.001297)
(0.149283 -0.447066 0.001507)
(-0.085477 -0.107515 0.001723)
(-0.039665 0.019080 0.001992)
(-0.006281 0.050353 0.002232)
(-0.004724 0.048343 0.002440)
(-0.022286 0.107041 0.002699)
(-0.028739 0.147599 0.002888)
(-0.028888 0.163978 0.003067)
(-0.028236 0.174857 0.003215)
(-0.026667 0.178710 0.003247)
(-0.024172 0.175225 0.003249)
(-0.021395 0.167408 0.003181)
(-0.018721 0.158004 0.003040)
(-0.016327 0.148396 0.002756)
(-0.014151 0.139259 0.002475)
(-0.012107 0.130162 0.002207)
(-0.010284 0.122460 0.001867)
(-0.008665 0.115670 0.001062)
(-0.007315 0.109532 0.000081)
(-0.006101 0.104129 -0.000601)
(-0.005010 0.099686 -0.001313)
(-0.003939 0.095585 -0.002016)
(-0.002925 0.091739 -0.002706)
(-0.001983 0.088497 -0.003361)
(-0.001120 0.081589 -0.003827)
(-0.000208 0.078349 -0.004080)
(0.000426 0.063958 -0.004069)
(0.000978 0.054640 -0.003852)
(0.001488 0.055433 -0.003616)
(0.001741 0.048001 -0.003578)
(0.002029 0.044475 -0.003507)
(0.002244 0.040560 -0.003206)
(0.002425 0.037230 -0.002918)
(0.002633 0.034823 -0.002273)
(0.002768 0.032157 -0.001685)
(0.002968 0.030440 -0.001524)
(0.003132 0.028888 -0.001368)
(0.003329 0.027592 -0.001217)
(0.003448 0.026058 -0.001074)
(0.003713 0.025273 -0.000941)
(0.003882 0.024013 -0.000819)
(0.004282 0.023423 -0.000482)
(0.004535 0.022251 -0.000185)
(0.005088 0.022009 -0.000152)
(0.005125 0.020131 -0.000120)
(0.005732 0.020468 -0.000089)
(0.005957 0.020205 -0.000060)
(0.005641 0.017471 -0.000034)
(0.006572 0.019446 -0.000010)
(0.005268 0.013343 0.000012)
(0.006684 0.014061 0.000094)
(0.004840 0.007051 0.000164)
(0.006913 0.005074 0.000164)
(0.008509 0.007350 0.000165)
(0.011329 0.012127 0.000165)
(0.020959 0.034101 0.000166)
(-0.012463 0.048364 0.000167)
(-0.144430 0.024520 0.000168)
(-0.249033 -0.000002 0.000169)
(0.108316 0.926438 -0.000607)
(-0.038961 -0.433246 -0.000607)
(-0.034856 -0.441437 -0.000607)
(-0.008426 0.236540 -0.000607)
(0.031528 0.642356 -0.000607)
(0.073474 0.476586 -0.000607)
(0.061009 0.434089 -0.000576)
(0.052628 0.846055 -0.000545)
(0.123424 1.996376 -0.000545)
(0.283825 3.037017 -0.000545)
(0.539027 1.634131 -0.000545)
(0.360878 4.615566 -0.000545)
(-0.224475 17.033951 -0.000545)
(0.157423 23.016391 -0.000545)
(-54.768617 -109.587947 -0.000260)
(33.158348 -527.375581 0.000026)
(-70.625719 -3.034821 0.000026)
(-21.546234 5.748654 0.000026)
(-64.905081 -119.567433 0.000026)
(25.971164 504.173843 0.000026)
(-22.709941 50.195288 0.000026)
(-1.779100 22.163586 0.000026)
(-2.085094 -1.788611 0.000026)
(-2.226301 -6.716532 0.000026)
(-1.544292 -2.669931 0.000026)
(-0.424031 1.056789 0.000026)
(1.696693 10.366991 0.000026)
(3.159644 16.326792 0.000026)
(3.837399 18.896705 0.000026)
(3.576735 17.359995 0.000026)
(4.008599 16.432251 0.000021)
(3.892043 13.380107 0.000017)
(3.463842 8.919226 0.000017)
(3.858355 7.010496 0.000017)
(6.509206 10.467307 0.000017)
(10.898855 17.663142 0.000017)
(11.188004 18.169092 0.000017)
(9.894229 15.583532 0.000017)
(8.630744 13.136195 0.000017)
(8.052268 11.518243 0.000017)
(8.223229 11.079059 0.000017)
(5.307187 7.593751 0.000017)
(3.948747 5.910898 0.000017)
(2.412890 4.539022 0.000017)
(0.344040 2.800177 0.000017)
(-1.078728 1.986533 0.000017)
(-3.713710 0.245927 0.000017)
(-6.923521 -1.568651 0.000017)
(-9.523940 -2.611079 0.000017)
(-10.505108 -2.431665 0.000017)
(-14.451468 -3.571461 0.000017)
(-16.809866 -3.719638 0.000017)
(-19.723430 -3.670203 0.000017)
(-22.589957 -3.515369 0.000017)
(-24.594267 -2.582518 0.000017)
(-26.787349 -1.651080 0.000017)
(-27.509284 -0.016332 0.000017)
(-28.283411 1.570122 0.000017)
(-26.503703 3.785892 0.000017)
(-23.176988 6.190877 0.000017)
(-22.029684 8.086970 0.000017)
(-19.232423 9.539756 0.000017)
(-8.244546 10.683692 0.000017)
(-0.436653 10.297013 0.000017)
(5.051185 8.650422 0.000017)
(12.939968 6.380902 0.000017)
(19.626566 3.380837 0.000017)
(23.671778 0.180866 0.000017)
(27.234494 -3.240385 0.000017)
(27.503550 -5.916374 0.000017)
(25.241407 -7.793257 0.000017)
(25.069245 -9.576405 0.000017)
(21.652649 -10.203034 0.000017)
(19.226579 -10.962235 0.000017)
(15.575631 -10.829847 0.000017)
(12.033964 -10.487992 0.000017)
(9.220535 -9.839218 0.000017)
(6.060181 -8.729853 0.000017)
(3.831585 -7.558287 0.000017)
(1.580980 -6.117749 0.000017)
(0.312163 -4.927677 0.000017)
(-0.903556 -3.601654 0.000017)
(-1.504605 -2.425318 0.000017)
(-2.019616 -1.265133 0.000017)
(-1.820877 -0.609572 0.000017)
(-1.502066 -0.116544 0.000017)
(-1.337098 0.472997 0.000017)
(-1.208483 0.994797 0.000017)
(-0.927526 1.285106 0.000017)
(-0.557155 1.340482 0.000017)
(0.024445 1.045544 0.000017)
(0.423829 0.832659 0.000017)
(0.890815 0.350704 0.000017)
(1.270619 -0.081998 0.000017)
(1.796399 -1.012625 0.000017)
(2.549473 -2.806986 0.000017)
(2.939945 -4.251561 0.000017)
(3.570696 -6.304525 0.000021)
(3.879364 -7.347759 0.000026)
(3.597050 -7.107803 0.000026)
(3.201879 -6.457726 0.000026)
(2.558590 -4.577640 0.000026)
(2.129525 -3.037229 0.000026)
(1.678619 -1.526012 0.000026)
(1.119160 0.142969 0.000026)
(0.682638 1.605585 0.000026)
(0.428221 2.633819 0.000026)
(-0.229168 1.768575 0.000026)
(-48.330630 0.089164 0.000026)
(46.600067 0.723162 0.000026)
(-2.560414 2.225029 0.000026)
(0.166792 0.481236 0.000026)
(-10.284486 28.424133 0.000026)
(-11.883443 27.005475 -0.000260)
(0.866746 -4.381056 -0.000545)
(0.041413 -2.532899 -0.000545)
(-0.052944 -1.410186 -0.000545)
(-0.018519 -0.935297 -0.000545)
(0.008285 -0.648131 -0.000545)
(0.009849 -0.336662 -0.000545)
(0.002526 -0.101917 -0.000545)
(-0.005444 0.084189 -0.000545)
(0.010367 0.019130 -0.000576)
(0.038859 -0.419777 -0.000607)
(-0.045667 -0.248546 -0.000607)
(-0.273494 1.914241 -0.000607)
(-0.072066 2.753059 -0.000607)
(0.972506 -4.181001 -0.000607)
)
;
    }
}
