/*--------------------------------*- C++ -*---------------------------------*\ 
| ========                 |                                                 | 
| \      /  F ield         | OpenFOAM: The Open Source CFD Toolbox           | 
|  \    /   O peration     | Version:  v1812                                 | 
|   \  /    A nd           | Web:      www.OpenFOAM.com                      | 
|    \/     M anipulation  |                                                 | 
\*--------------------------------------------------------------------------*/ 
FoamFile
{
    version     2.0;
    format      ascii;
    class       volVectorField;
    location    "/home/james/dafoam/myRuns/bezier_coanda_opt/0.00000000001/";
    object      sens_CL_shapey;
}
// * * * * * * * * * * * * * * * * * * * * * * * * * * * * * * * * * * * * * //

dimensions      [0 0 0 0 0 0 0];
internalField   uniform (0 0 0);
boundaryField
{
    allWalls
    {
        type  wall;
        value nonuniform List<vector>
268
(
(0.371275 -0.232847 0.000135)
(0.539556 -0.023314 0.000133)
(0.102334 -0.209724 0.000132)
(0.259434 -0.346865 0.000130)
(0.012430 -0.014463 0.000129)
(0.019322 -0.168779 0.000128)
(-0.045201 0.115508 0.000127)
(-0.058090 0.078574 0.000126)
(-0.024727 0.063544 0.000251)
(-0.053648 0.143031 0.000398)
(-0.019535 0.059658 0.000441)
(-0.032192 0.109826 0.000490)
(-0.020528 0.086327 0.000542)
(-0.030092 0.127333 0.000597)
(-0.010265 0.047678 0.000656)
(-0.005127 0.026272 0.000716)
(-0.004212 0.025486 0.001195)
(-0.005566 0.034789 0.001736)
(-0.005070 0.033226 0.001929)
(-0.005809 0.040459 0.002134)
(-0.005190 0.038771 0.002349)
(-0.004142 0.033951 0.002574)
(-0.004432 0.038504 0.002801)
(-0.004384 0.041387 0.003030)
(-0.004269 0.043117 0.003258)
(-0.003936 0.042630 0.003889)
(-0.003757 0.044445 0.004606)
(-0.003683 0.047404 0.005011)
(-0.003598 0.050688 0.005430)
(-0.003409 0.052947 0.006008)
(-0.003103 0.053788 0.006506)
(-0.002787 0.054872 0.006886)
(-0.002601 0.059817 0.007390)
(-0.002954 0.084483 0.007785)
(-0.002502 0.087308 0.007794)
(-0.001557 0.081062 0.007455)
(-0.000929 0.085691 0.006900)
(-0.000029 0.080073 0.006223)
(0.000710 0.081655 0.005568)
(0.001506 0.081917 0.004912)
(0.002427 0.081777 0.004257)
(0.003413 0.081854 0.003622)
(0.004549 0.081800 0.002825)
(0.005797 0.082814 0.002157)
(0.006895 0.081454 0.001742)
(0.005920 0.059428 0.001314)
(0.009411 0.072095 0.000936)
(0.015168 0.108242 0.000589)
(0.016080 0.103492 0.000277)
(0.016307 0.089637 0.000004)
(0.017935 0.086521 -0.000210)
(0.020707 0.088771 -0.000379)
(0.023656 0.091148 -0.000494)
(0.027610 0.097709 -0.000551)
(0.032769 0.107903 -0.000586)
(0.039788 0.123026 -0.000602)
(0.048523 0.141996 -0.000600)
(0.058006 0.161695 -0.000583)
(0.068225 0.182355 -0.000556)
(0.078023 0.202134 -0.000334)
(0.087782 0.221772 -0.000114)
(0.100352 0.247844 -0.000083)
(0.114683 0.277607 -0.000052)
(0.122905 0.292240 -0.000022)
(0.113878 0.266426 0.000007)
(0.119585 0.277518 0.000034)
(0.184336 0.417606 0.000059)
(0.143286 0.267029 0.000082)
(-0.021501 -0.329444 -0.000042)
(0.168583 0.779246 -0.000177)
(-0.206049 -4.945939 -0.000177)
(-3.402779 2.350909 -0.000177)
(0.682664 2.084292 -0.000177)
(-0.446474 0.134306 0.000127)
(0.200274 -0.661747 0.000459)
(-0.292019 -0.260802 0.000514)
(0.349237 0.016258 0.000572)
(0.683273 -0.576222 0.000630)
(-0.427426 -0.503928 0.000687)
(-0.103200 -0.223845 0.000744)
(-0.054750 0.105901 0.000799)
(0.012256 0.049198 0.001508)
(0.024512 -0.006199 0.002274)
(-0.026898 0.086639 0.002438)
(-0.032987 0.125937 0.002584)
(-0.026342 0.111943 0.002708)
(-0.024018 0.121649 0.002804)
(-0.022467 0.133736 0.002869)
(-0.019873 0.137262 0.002899)
(-0.017158 0.134966 0.002962)
(-0.014681 0.131204 0.002967)
(-0.012594 0.127598 0.002837)
(-0.010579 0.121956 0.002654)
(-0.008947 0.117409 0.002417)
(-0.007380 0.111108 0.002133)
(-0.006135 0.106979 0.001805)
(-0.005009 0.102451 0.001440)
(-0.004002 0.098103 0.000788)
(-0.003314 0.097727 0.000166)
(-0.002609 0.091113 -0.000266)
(-0.001637 0.052415 -0.000820)
(-0.001170 0.065655 -0.001386)
(-0.000714 0.099014 -0.002026)
(0.000095 0.084992 -0.002642)
(0.000792 0.087848 -0.003114)
(0.001461 0.090818 -0.003410)
(0.001504 0.067467 -0.003570)
(0.001568 0.051625 -0.003512)
(0.001999 0.054191 -0.003240)
(0.002110 0.048432 -0.002969)
(0.002266 0.044681 -0.002854)
(0.002348 0.040875 -0.002732)
(0.002436 0.037324 -0.002460)
(0.002539 0.035041 -0.002207)
(0.002704 0.033569 -0.001625)
(0.002752 0.031235 -0.001105)
(0.002878 0.029570 -0.000987)
(0.002923 0.027808 -0.000873)
(0.003108 0.027068 -0.000765)
(0.003129 0.025525 -0.000663)
(0.003378 0.025087 -0.000570)
(0.003454 0.023733 -0.000485)
(0.003960 0.024037 -0.000253)
(0.004101 0.022520 -0.000050)
(0.004871 0.023570 -0.000029)
(0.004639 0.020508 -0.000009)
(0.005423 0.022354 0.000009)
(0.005844 0.023970 0.000026)
(0.004417 0.016894 0.000041)
(0.006289 0.025880 0.000054)
(0.003005 0.010417 0.000067)
(0.006739 0.019277 0.000102)
(0.002758 0.002291 0.000132)
(0.007616 -0.002880 0.000132)
(0.008861 0.001112 0.000132)
(0.012697 0.008310 0.000133)
(0.035248 0.080242 0.000133)
(-0.050065 0.142105 0.000134)
(-0.512535 0.040864 0.000135)
(-0.717884 -0.070111 0.000135)
(0.200804 0.882379 -0.000177)
(-0.080360 -0.502968 -0.000177)
(-0.087191 -0.395325 -0.000177)
(-0.035481 0.246339 -0.000177)
(0.019157 0.457261 -0.000177)
(0.042160 -0.070258 -0.000177)
(-0.001109 0.143936 -0.000164)
(0.025711 0.843411 -0.000151)
(0.140312 1.689214 -0.000151)
(0.330099 2.593844 -0.000151)
(0.674410 1.253091 -0.000151)
(0.627766 4.448195 -0.000151)
(0.153876 18.095066 -0.000151)
(0.380843 25.755731 -0.000151)
(-53.169260 -118.006961 -0.000058)
(-22.990467 -586.348555 0.000034)
(-83.777519 -9.378841 0.000034)
(-27.937856 4.018853 0.000034)
(-69.337649 -128.994988 0.000034)
(87.653107 583.629584 0.000034)
(-22.542434 26.065571 0.000034)
(-4.391268 3.514431 0.000034)
(-5.179135 -15.743589 0.000034)
(-5.388415 -18.222681 0.000034)
(-4.180819 -10.433934 0.000034)
(-1.314255 3.381123 0.000034)
(1.296182 15.220438 0.000034)
(3.415959 21.528921 0.000034)
(4.492909 24.081116 0.000034)
(3.052925 17.462419 0.000034)
(1.794065 10.841177 0.000027)
(1.426790 6.234144 0.000020)
(2.157969 4.413900 0.000020)
(3.910746 5.583626 0.000020)
(9.549401 15.159970 0.000020)
(16.875684 28.084149 0.000020)
(16.788265 28.468718 0.000020)
(13.930868 23.223096 0.000020)
(11.904469 19.202740 0.000020)
(10.932336 16.508565 0.000020)
(11.258195 15.819293 0.000020)
(8.040454 11.653562 0.000020)
(6.177534 9.214101 0.000020)
(4.430301 7.421141 0.000020)
(2.110249 5.330628 0.000020)
(0.345960 4.117216 0.000020)
(-2.768680 1.894910 0.000020)
(-7.094632 -0.799651 0.000020)
(-10.541298 -2.374530 0.000020)
(-11.807093 -2.282575 0.000020)
(-17.168336 -3.962528 0.000020)
(-20.433094 -4.335143 0.000020)
(-24.498937 -4.409183 0.000020)
(-28.838601 -4.438780 0.000020)
(-31.974653 -3.314840 0.000020)
(-35.673087 -2.208599 0.000020)
(-37.725377 -0.132378 0.000020)
(-39.219179 2.183822 0.000020)
(-38.275493 5.241963 0.000020)
(-35.216296 8.433556 0.000020)
(-30.708811 11.460296 0.000020)
(-25.283929 13.587837 0.000020)
(-12.420195 14.827571 0.000020)
(-2.693659 14.158310 0.000020)
(4.943416 11.843491 0.000020)
(14.757231 8.729327 0.000020)
(22.864282 4.689359 0.000020)
(31.278190 -0.031422 0.000020)
(34.353616 -4.332124 0.000020)
(36.742227 -8.555379 0.000020)
(35.687507 -11.626964 0.000020)
(31.699544 -13.515319 0.000020)
(30.297679 -15.265846 0.000020)
(25.311898 -15.450089 0.000020)
(21.593304 -15.741516 0.000020)
(16.850853 -14.972978 0.000020)
(12.311840 -13.880626 0.000020)
(8.719494 -12.463499 0.000020)
(5.217088 -10.711200 0.000020)
(2.926909 -9.013779 0.000020)
(0.542064 -7.039174 0.000020)
(-0.703247 -5.387224 0.000020)
(-1.857752 -3.607754 0.000020)
(-2.285897 -2.186780 0.000020)
(-2.674016 -0.781483 0.000020)
(-2.544786 0.213866 0.000020)
(-1.845158 0.545416 0.000020)
(-1.475604 1.158669 0.000020)
(-1.154804 1.617254 0.000020)
(-0.587716 1.679623 0.000020)
(-0.496855 2.102725 0.000020)
(0.137474 1.678726 0.000020)
(0.893935 0.908960 0.000020)
(1.665240 -0.066784 0.000020)
(2.513131 -1.381920 0.000020)
(3.470389 -3.354583 0.000020)
(4.276662 -5.583641 0.000020)
(4.543034 -7.030324 0.000027)
(4.614281 -8.303004 0.000034)
(4.393814 -8.737441 0.000034)
(3.722934 -7.634044 0.000034)
(3.022563 -5.676193 0.000034)
(2.482569 -3.763526 0.000034)
(1.941693 -1.973871 0.000034)
(1.274762 0.048194 0.000034)
(0.788824 1.749131 0.000034)
(0.528785 2.921988 0.000034)
(-0.233370 1.936683 0.000034)
(-48.427539 0.031854 0.000034)
(46.441533 0.799103 0.000034)
(-2.870438 2.410441 0.000034)
(0.224207 0.318487 0.000034)
(-12.088419 34.429059 0.000034)
(-13.606545 32.605649 -0.000058)
(1.278562 -5.413637 -0.000151)
(0.028722 -3.071468 -0.000151)
(-0.094293 -1.732846 -0.000151)
(-0.040593 -1.119772 -0.000151)
(-0.003214 -0.784040 -0.000151)
(0.014576 -0.515130 -0.000151)
(-0.004169 -0.254399 -0.000151)
(-0.034424 0.072910 -0.000151)
(-0.001250 -0.122339 -0.000164)
(0.027500 -0.897724 -0.000177)
(-0.127205 -0.825421 -0.000177)
(-0.484237 1.846255 -0.000177)
(-0.086996 3.014803 -0.000177)
(4.382169 -4.369484 -0.000177)
)
;
    }
}
