/*--------------------------------*- C++ -*---------------------------------*\ 
| ========                 |                                                 | 
| \      /  F ield         | OpenFOAM: The Open Source CFD Toolbox           | 
|  \    /   O peration     | Version:  v1812                                 | 
|   \  /    A nd           | Web:      www.OpenFOAM.com                      | 
|    \/     M anipulation  |                                                 | 
\*--------------------------------------------------------------------------*/ 
FoamFile
{
    version     2.0;
    format      ascii;
    class       volVectorField;
    location    "/home/james/dafoam/myRuns/bezier_coanda_opt/0.00000000001/";
    object      sens_CL_shapey;
}
// * * * * * * * * * * * * * * * * * * * * * * * * * * * * * * * * * * * * * //

dimensions      [0 0 0 0 0 0 0];
internalField   uniform (0 0 0);
boundaryField
{
    allWalls
    {
        type  wall;
        value nonuniform List<vector>
268
(
(-0.179463 -0.029665 0.000232)
(0.275784 -0.140053 0.000230)
(0.412557 -0.246855 0.000227)
(-0.000217 0.113489 0.000225)
(-0.101386 0.078386 0.000223)
(0.143735 -0.247377 0.000221)
(0.040417 -0.040924 0.000219)
(0.032335 -0.109526 0.000217)
(-0.028493 0.066134 0.000418)
(-0.047910 0.080153 0.000648)
(-0.014224 0.029577 0.000705)
(-0.039925 0.103203 0.000768)
(-0.014660 0.051823 0.000835)
(-0.026547 0.091422 0.000907)
(-0.012384 0.054847 0.000983)
(-0.015029 0.063164 0.001062)
(-0.006759 0.034897 0.001603)
(-0.008386 0.041967 0.002221)
(-0.005851 0.034628 0.002463)
(-0.005847 0.035769 0.002718)
(-0.009462 0.067385 0.002984)
(-0.010787 0.074497 0.003261)
(-0.005720 0.044847 0.003547)
(-0.003598 0.031903 0.003837)
(-0.002215 0.026584 0.004120)
(-0.003421 0.041016 0.004721)
(-0.002389 0.034593 0.005430)
(-0.003158 0.049055 0.005929)
(-0.003305 0.058781 0.006445)
(-0.002756 0.057862 0.007012)
(-0.002156 0.057831 0.007325)
(-0.001830 0.063783 0.007615)
(-0.001197 0.064729 0.008180)
(-0.000591 0.088153 0.008553)
(0.000364 0.104456 0.008440)
(0.001193 0.081826 0.007892)
(0.002439 0.085427 0.007079)
(0.003596 0.094690 0.006174)
(0.004124 0.082418 0.005335)
(0.004964 0.082138 0.004484)
(0.005754 0.079291 0.003604)
(0.006360 0.074759 0.002773)
(0.006537 0.065411 0.001824)
(0.008083 0.068378 0.001039)
(0.010864 0.086528 0.000567)
(0.013814 0.103404 0.000115)
(0.015321 0.104817 -0.000308)
(0.015853 0.098585 -0.000692)
(0.017603 0.100683 -0.001032)
(0.019673 0.104260 -0.001323)
(0.022546 0.109268 -0.001594)
(0.026191 0.117102 -0.002103)
(0.029262 0.124070 -0.002609)
(0.032339 0.131320 -0.002740)
(0.040573 0.159548 -0.002653)
(0.052756 0.202858 -0.002609)
(0.055213 0.206941 -0.002895)
(0.045276 0.164778 -0.002808)
(0.060048 0.218368 -0.002418)
(0.071865 0.255308 -0.002293)
(0.076440 0.266243 -0.002168)
(0.084021 0.294748 -0.002055)
(0.078508 0.274151 -0.001937)
(0.083478 0.295622 -0.001816)
(0.098579 0.363637 -0.001673)
(0.117286 0.445929 -0.001528)
(0.121368 0.463736 -0.001403)
(0.066576 0.213790 -0.001136)
(-0.020141 -0.360831 -0.000931)
(0.205445 1.470592 -0.000931)
(1.649578 -12.158371 -0.000931)
(-1.950261 6.753742 -0.000931)
(-1.119423 2.919861 -0.000856)
(-0.179116 -0.078304 -0.000792)
(0.053673 -0.275769 -0.000846)
(-0.184335 0.545721 -0.000855)
(-0.190674 0.504877 -0.000852)
(0.626808 -2.264341 -0.000848)
(0.239386 -2.892450 -0.000799)
(-2.421913 4.517282 -0.000775)
(1.846367 3.533163 -0.000745)
(2.701734 -2.336922 -0.000727)
(-1.211532 -0.432867 -0.000693)
(-0.061909 0.672486 -0.000607)
(-0.007688 0.657438 -0.000524)
(0.117528 -0.172163 -0.000445)
(0.083392 -0.549901 -0.000340)
(0.020460 -0.230015 -0.000223)
(0.001782 -0.104403 -0.000110)
(0.014195 -0.163334 0.000281)
(0.016399 -0.169786 0.000705)
(0.010361 -0.117288 0.000873)
(0.005877 -0.074018 0.001038)
(0.003422 -0.046997 0.001193)
(0.001646 -0.025850 0.001330)
(-0.000087 -0.004875 0.001442)
(-0.001019 0.009060 0.001522)
(-0.001833 0.021882 0.001543)
(-0.002348 0.031612 0.001452)
(-0.002559 0.038970 0.001316)
(-0.002620 0.045604 0.001174)
(-0.002533 0.051039 0.000971)
(-0.002365 0.061160 0.000603)
(-0.001700 0.051162 0.000140)
(-0.001271 0.002127 -0.000309)
(-0.000971 0.060705 -0.000748)
(-0.000701 0.082548 -0.001132)
(-0.000014 0.038736 -0.001433)
(0.001454 0.070051 -0.001630)
(0.001754 0.063002 -0.001750)
(0.001932 0.053332 -0.001821)
(0.002250 0.050128 -0.001822)
(0.002129 0.039281 -0.001762)
(0.002296 0.035851 -0.001686)
(0.002590 0.035340 -0.001304)
(0.002843 0.033864 -0.000916)
(0.003017 0.031616 -0.000825)
(0.003042 0.028907 -0.000733)
(0.003253 0.028402 -0.000644)
(0.003258 0.026797 -0.000558)
(0.003537 0.026524 -0.000478)
(0.003877 0.026147 -0.000405)
(0.004555 0.025640 -0.000176)
(0.005771 0.026923 0.000031)
(0.006551 0.025293 0.000058)
(0.006656 0.022289 0.000084)
(0.007823 0.025780 0.000109)
(0.007910 0.027724 0.000132)
(0.005996 0.023736 0.000153)
(0.004503 0.021609 0.000172)
(0.000780 0.009851 0.000190)
(-0.002710 -0.005437 0.000213)
(-0.008333 -0.032146 0.000228)
(-0.009778 -0.054241 0.000228)
(0.000870 -0.044164 0.000228)
(0.033630 0.020389 0.000229)
(0.065250 0.121881 0.000230)
(-0.011219 0.135397 0.000231)
(-0.267879 0.040159 0.000232)
(-0.439657 -0.006780 0.000233)
(0.196416 1.583839 -0.000931)
(-0.095167 -0.898571 -0.000931)
(-0.076004 -0.914294 -0.000931)
(-0.023568 0.312426 -0.000931)
(0.043640 1.016530 -0.000931)
(0.113791 0.702624 -0.000931)
(0.093368 0.620251 -0.000913)
(0.081251 1.340298 -0.000895)
(0.200708 3.336666 -0.000895)
(0.470995 5.182319 -0.000895)
(0.907206 2.811726 -0.000895)
(0.569059 7.910352 -0.000895)
(-0.441864 29.018135 -0.000895)
(0.198364 38.507663 -0.000895)
(-99.899049 -201.083574 -0.000463)
(109.116034 -970.681231 -0.000032)
(-128.216985 -6.271278 -0.000032)
(-40.298061 10.012831 -0.000032)
(-119.779235 -217.557534 -0.000032)
(-1.466475 928.526990 -0.000032)
(-40.628406 93.272099 -0.000032)
(-3.182124 39.898986 -0.000032)
(-3.847633 -5.224215 -0.000032)
(-4.026903 -14.108160 -0.000032)
(-2.608032 -6.318971 -0.000032)
(-0.498652 -0.001428 -0.000032)
(3.043565 15.678437 -0.000032)
(5.313380 26.318785 -0.000032)
(6.513277 32.725320 -0.000032)
(6.718217 33.187720 -0.000032)
(8.723359 35.454414 -0.000018)
(8.644302 30.400113 -0.000005)
(7.262557 20.428889 -0.000005)
(7.089624 14.548959 -0.000005)
(10.089537 16.861331 -0.000005)
(16.645459 26.929257 -0.000005)
(18.393878 29.396578 -0.000005)
(17.474586 26.973996 -0.000005)
(15.949830 23.723654 -0.000005)
(15.570309 21.769829 -0.000005)
(16.118188 21.232524 -0.000005)
(11.171665 15.229907 -0.000005)
(8.896403 12.239672 -0.000005)
(6.419401 9.893866 -0.000005)
(2.911222 6.764623 -0.000005)
(0.686011 5.374456 -0.000005)
(-3.862620 2.186447 -0.000005)
(-9.726429 -1.336142 -0.000005)
(-14.411447 -3.434889 -0.000005)
(-15.859189 -3.135037 -0.000005)
(-23.378470 -5.577306 -0.000005)
(-27.892600 -6.130210 -0.000005)
(-33.713788 -6.357184 -0.000005)
(-39.644068 -6.430236 -0.000005)
(-44.050521 -4.964281 -0.000005)
(-49.152010 -3.526036 -0.000005)
(-51.468367 -0.621451 -0.000005)
(-53.805565 2.307772 -0.000005)
(-51.606129 6.392299 -0.000005)
(-46.443763 10.775774 -0.000005)
(-44.093057 14.469722 -0.000005)
(-38.923718 17.453595 -0.000005)
(-19.922645 19.865347 -0.000005)
(-6.358108 19.552374 -0.000005)
(3.313195 16.982194 -0.000005)
(17.762361 13.185556 -0.000005)
(30.863831 7.907676 -0.000005)
(39.174804 2.100680 -0.000005)
(47.323306 -4.299560 -0.000005)
(48.908765 -9.278857 -0.000005)
(45.088456 -12.718557 -0.000005)
(45.665164 -16.174948 -0.000005)
(39.858199 -17.449535 -0.000005)
(36.071418 -19.137627 -0.000005)
(29.766615 -19.138734 -0.000005)
(23.500522 -18.799788 -0.000005)
(18.966372 -18.083669 -0.000005)
(13.223944 -16.316330 -0.000005)
(8.843716 -14.262061 -0.000005)
(4.371908 -11.675908 -0.000005)
(1.781627 -9.558526 -0.000005)
(-0.725675 -7.150747 -0.000005)
(-2.145563 -4.906663 -0.000005)
(-3.373896 -2.664245 -0.000005)
(-2.681135 -1.788405 -0.000005)
(-1.728316 -1.234571 -0.000005)
(-1.461882 -0.148863 -0.000005)
(-1.444960 1.016202 -0.000005)
(-0.840833 1.427635 -0.000005)
(0.394813 0.841014 -0.000005)
(2.059618 -0.501745 -0.000005)
(3.084619 -1.394841 -0.000005)
(4.224003 -2.908669 -0.000005)
(5.283195 -4.560959 -0.000005)
(6.474102 -7.092003 -0.000005)
(7.484912 -10.317680 -0.000005)
(7.390971 -12.128924 -0.000005)
(8.482784 -16.288766 -0.000018)
(9.094139 -18.221332 -0.000032)
(8.360529 -17.102719 -0.000032)
(7.442204 -15.047577 -0.000032)
(5.913632 -9.889444 -0.000032)
(5.015223 -6.260217 -0.000032)
(4.020493 -2.766529 -0.000032)
(2.643727 1.533488 -0.000032)
(1.555443 5.287707 -0.000032)
(0.823820 8.024338 -0.000032)
(-1.083971 5.525319 -0.000032)
(-49.315904 0.624974 -0.000032)
(44.147520 2.560688 -0.000032)
(-8.104356 7.784597 -0.000032)
(0.338368 3.611278 -0.000032)
(-24.727873 71.319861 -0.000032)
(-32.272932 68.881002 -0.000463)
(0.158995 -9.577275 -0.000895)
(0.348328 -6.410165 -0.000895)
(0.162797 -3.120641 -0.000895)
(0.147615 -2.312934 -0.000895)
(0.137462 -1.774981 -0.000895)
(0.109757 -1.119015 -0.000895)
(0.061856 -0.524678 -0.000895)
(-0.022310 0.256465 -0.000895)
(0.055890 -0.031408 -0.000913)
(0.198507 -1.819485 -0.000931)
(-0.126952 -1.088874 -0.000931)
(-0.868338 5.934925 -0.000931)
(-0.181240 8.503938 -0.000931)
(3.124345 -13.217982 -0.000931)
)
;
    }
}
