/*--------------------------------*- C++ -*---------------------------------*\ 
| ========                 |                                                 | 
| \      /  F ield         | OpenFOAM: The Open Source CFD Toolbox           | 
|  \    /   O peration     | Version:  v1812                                 | 
|   \  /    A nd           | Web:      www.OpenFOAM.com                      | 
|    \/     M anipulation  |                                                 | 
\*--------------------------------------------------------------------------*/ 
FoamFile
{
    version     2.0;
    format      ascii;
    class       volVectorField;
    location    "/home/james/dafoam/myRuns/bezier_coanda_opt/0.00000000001/";
    object      sens_CL_shapey;
}
// * * * * * * * * * * * * * * * * * * * * * * * * * * * * * * * * * * * * * //

dimensions      [0 0 0 0 0 0 0];
internalField   uniform (0 0 0);
boundaryField
{
    allWalls
    {
        type  wall;
        value nonuniform List<vector>
268
(
(-0.081893 -0.036169 0.000171)
(0.282643 -0.139057 0.000169)
(0.167836 -0.000546 0.000167)
(0.021768 -0.048727 0.000165)
(0.086206 -0.137586 0.000163)
(0.027006 -0.027583 0.000162)
(0.021713 -0.081671 0.000160)
(-0.010599 0.023088 0.000159)
(-0.032708 0.053156 0.000325)
(-0.022216 0.045910 0.000518)
(-0.025940 0.065996 0.000574)
(-0.018599 0.056712 0.000635)
(-0.022010 0.074404 0.000701)
(-0.013268 0.053296 0.000770)
(-0.011465 0.049437 0.000842)
(-0.008038 0.039304 0.000915)
(-0.007382 0.038567 0.001456)
(-0.010440 0.058007 0.002064)
(-0.010419 0.057649 0.002280)
(-0.006244 0.038800 0.002509)
(-0.004174 0.028504 0.002750)
(-0.002530 0.020989 0.003000)
(-0.002706 0.025258 0.003257)
(-0.002817 0.029029 0.003513)
(-0.004372 0.046236 0.003762)
(-0.003641 0.042267 0.004433)
(-0.002962 0.038668 0.005203)
(-0.003383 0.048495 0.005655)
(-0.003098 0.050631 0.006123)
(-0.002762 0.052678 0.006783)
(-0.002466 0.055335 0.007435)
(-0.002019 0.056194 0.007961)
(-0.001788 0.067838 0.008566)
(-0.001415 0.079975 0.008761)
(-0.000685 0.090705 0.008557)
(0.000151 0.086672 0.008252)
(0.001091 0.082667 0.007674)
(0.002018 0.087316 0.006963)
(0.002875 0.084378 0.006280)
(0.003804 0.085375 0.005586)
(0.004795 0.085606 0.004882)
(0.005827 0.085881 0.004207)
(0.006850 0.085785 0.003358)
(0.007784 0.084239 0.002629)
(0.008114 0.076772 0.002210)
(0.010447 0.084205 0.001797)
(0.015209 0.112771 0.001398)
(0.017729 0.121432 0.001021)
(0.018120 0.110360 0.000674)
(0.019927 0.109279 0.000359)
(0.023054 0.114763 0.000070)
(0.026531 0.119261 -0.000163)
(0.030297 0.125712 -0.000308)
(0.034469 0.135282 -0.000403)
(0.039075 0.146218 -0.000479)
(0.044236 0.158853 -0.000537)
(0.049481 0.171813 -0.000577)
(0.055650 0.188056 -0.000602)
(0.063577 0.210483 -0.000613)
(0.070650 0.226257 -0.000469)
(0.073379 0.227837 -0.000311)
(0.076730 0.236621 -0.000289)
(0.084641 0.261821 -0.000267)
(0.089626 0.277733 -0.000245)
(0.096840 0.300695 -0.000222)
(0.120595 0.375540 -0.000201)
(0.122576 0.375345 -0.000180)
(0.046676 0.115823 -0.000328)
(-0.023721 -0.268106 -0.000485)
(0.170390 0.997799 -0.000485)
(0.566626 -4.758511 -0.000485)
(-1.720233 3.027877 -0.000485)
(-0.512711 1.534081 -0.000222)
(-0.058700 -0.046454 0.000053)
(0.043181 -0.068630 0.000079)
(0.088119 -0.169509 0.000106)
(0.283926 -0.765183 0.000135)
(0.246351 -0.992264 0.000165)
(0.267120 -0.684280 0.000196)
(0.253909 -0.427030 0.000228)
(-0.036569 -0.246399 0.000261)
(-0.057562 -0.105327 0.000953)
(-0.021910 0.101330 0.001720)
(-0.011045 0.147238 0.001903)
(-0.000814 0.053132 0.002077)
(-0.010627 0.033303 0.002238)
(-0.024294 0.112767 0.002381)
(-0.027748 0.150625 0.002497)
(-0.024173 0.148732 0.002584)
(-0.021559 0.145965 0.002744)
(-0.019962 0.147109 0.002853)
(-0.017844 0.144888 0.002792)
(-0.015528 0.138767 0.002670)
(-0.013446 0.132056 0.002484)
(-0.011529 0.124767 0.002638)
(-0.009950 0.119133 0.002339)
(-0.008454 0.112689 0.001596)
(-0.007097 0.107083 0.001021)
(-0.005924 0.102471 0.000433)
(-0.004937 0.098360 -0.000054)
(-0.004038 0.094318 -0.000648)
(-0.003220 0.090437 -0.001263)
(-0.002419 0.088436 -0.001917)
(-0.001583 0.072144 -0.002554)
(-0.000860 0.073688 -0.003100)
(-0.000038 0.093621 -0.003469)
(0.000664 0.079649 -0.003774)
(0.001000 0.057904 -0.003852)
(0.001392 0.053109 -0.003626)
(0.001772 0.051834 -0.003388)
(0.002012 0.047439 -0.003241)
(0.002134 0.041852 -0.003074)
(0.002289 0.038334 -0.002799)
(0.002426 0.035467 -0.002538)
(0.002613 0.033517 -0.001937)
(0.002743 0.031510 -0.001386)
(0.002885 0.029621 -0.001240)
(0.002983 0.027901 -0.001100)
(0.003157 0.026816 -0.000967)
(0.003248 0.025436 -0.000842)
(0.003460 0.024585 -0.000727)
(0.003617 0.023477 -0.000622)
(0.003991 0.022941 -0.000333)
(0.004281 0.022000 -0.000081)
(0.004800 0.021777 -0.000056)
(0.004823 0.019821 -0.000031)
(0.005372 0.020399 -0.000008)
(0.005735 0.020924 0.000014)
(0.005090 0.017361 0.000033)
(0.005931 0.019976 0.000052)
(0.004413 0.012753 0.000069)
(0.005960 0.013866 0.000122)
(0.003816 0.004725 0.000167)
(0.006225 0.001238 0.000167)
(0.008236 0.004464 0.000168)
(0.012123 0.012858 0.000168)
(0.024535 0.049501 0.000169)
(-0.029482 0.070661 0.000169)
(-0.231488 0.023393 0.000170)
(-0.350145 -0.006913 0.000171)
(0.167851 0.982738 -0.000485)
(-0.074925 -0.570590 -0.000485)
(-0.073823 -0.386683 -0.000485)
(-0.015531 0.384256 -0.000485)
(0.048012 0.386075 -0.000485)
(0.045761 0.064012 -0.000485)
(0.010039 0.552172 -0.000461)
(0.048204 0.879704 -0.000437)
(0.117348 1.748143 -0.000437)
(0.263999 2.776111 -0.000437)
(0.519922 1.306282 -0.000437)
(0.357319 4.137125 -0.000437)
(-0.119197 16.655511 -0.000437)
(0.227970 23.398108 -0.000437)
(-56.962766 -106.748048 -0.000210)
(28.839897 -549.863188 0.000017)
(-74.594521 -5.547965 0.000017)
(-21.908969 3.847274 0.000017)
(-67.087801 -117.646765 0.000017)
(32.143588 530.024613 0.000017)
(-23.201434 48.657281 0.000017)
(-2.053920 20.377249 0.000017)
(-1.968449 -1.406180 0.000017)
(-2.113832 -8.355762 0.000017)
(-1.767555 -6.718477 0.000017)
(-0.209020 0.780100 0.000017)
(1.619790 10.776141 0.000017)
(3.164887 16.942243 0.000017)
(4.133941 20.367746 0.000017)
(3.415773 16.818326 0.000017)
(3.220511 13.900569 0.000017)
(2.907787 10.206305 0.000017)
(2.908439 7.047193 0.000017)
(3.655331 6.166283 0.000017)
(7.053711 11.271154 0.000017)
(11.973993 19.569816 0.000017)
(12.117322 19.981094 0.000017)
(10.497978 16.864982 0.000017)
(9.074222 14.129621 0.000017)
(8.298569 12.187413 0.000017)
(8.433890 11.664904 0.000017)
(5.644036 8.266000 0.000017)
(4.035437 6.343074 0.000017)
(2.418337 4.871097 0.000017)
(0.331839 3.150180 0.000017)
(-1.255023 2.207994 0.000017)
(-3.944165 0.459672 0.000017)
(-7.351818 -1.473402 0.000017)
(-10.001680 -2.509799 0.000017)
(-11.064796 -2.348658 0.000017)
(-15.160905 -3.518086 0.000017)
(-17.622359 -3.666161 0.000017)
(-20.599345 -3.578747 0.000017)
(-23.530005 -3.395228 0.000017)
(-25.516845 -2.394675 0.000017)
(-27.787578 -1.432783 0.000017)
(-28.553235 0.248879 0.000017)
(-29.132142 1.939551 0.000017)
(-27.772115 4.096123 0.000017)
(-23.890669 6.554800 0.000017)
(-21.265539 8.672312 0.000017)
(-18.546818 10.054384 0.000017)
(-8.106873 11.020815 0.000017)
(-0.327132 10.507405 0.000017)
(5.776015 8.765530 0.000017)
(13.153952 6.457362 0.000017)
(18.845101 3.458521 0.000017)
(24.840882 -0.054006 0.000017)
(27.685232 -3.386789 0.000017)
(28.437380 -6.315489 0.000017)
(26.605262 -8.220028 0.000017)
(25.778466 -9.965914 0.000017)
(22.772648 -10.665496 0.000017)
(19.819391 -11.336528 0.000017)
(16.453740 -11.293977 0.000017)
(12.481892 -10.836608 0.000017)
(9.693208 -10.208147 0.000017)
(6.395395 -9.070398 0.000017)
(4.175277 -7.908448 0.000017)
(1.747937 -6.389637 0.000017)
(0.413970 -5.157990 0.000017)
(-0.939639 -3.744462 0.000017)
(-1.552761 -2.551988 0.000017)
(-2.210721 -1.268506 0.000017)
(-2.240357 -0.400628 0.000017)
(-1.846070 0.050050 0.000017)
(-1.593177 0.614715 0.000017)
(-1.532906 1.248555 0.000017)
(-1.255602 1.591970 0.000017)
(-1.056506 1.900450 0.000017)
(-0.369243 1.514688 0.000017)
(0.300947 1.000751 0.000017)
(0.849227 0.473564 0.000017)
(1.142853 0.295245 0.000017)
(1.935448 -0.965429 0.000017)
(3.221340 -3.512873 0.000017)
(3.963687 -5.527718 0.000017)
(4.523389 -7.579565 0.000017)
(4.506176 -8.325448 0.000017)
(4.090924 -8.104114 0.000017)
(3.559881 -7.287247 0.000017)
(2.822164 -5.207358 0.000017)
(2.334512 -3.460634 0.000017)
(1.831375 -1.763405 0.000017)
(1.215648 0.073665 0.000017)
(0.739244 1.670255 0.000017)
(0.464470 2.788511 0.000017)
(-0.238678 1.882996 0.000017)
(-48.372504 0.099161 0.000017)
(46.528150 0.785605 0.000017)
(-2.749505 2.412121 0.000017)
(0.198957 0.542879 0.000017)
(-11.199148 30.490620 0.000017)
(-12.943848 29.000950 -0.000210)
(0.926489 -4.650976 -0.000437)
(0.037799 -2.715502 -0.000437)
(-0.065767 -1.529857 -0.000437)
(-0.028166 -1.022945 -0.000437)
(-0.000573 -0.711240 -0.000437)
(0.000492 -0.385671 -0.000437)
(0.000882 -0.186074 -0.000437)
(-0.015563 0.039835 -0.000437)
(-0.003367 -0.011139 -0.000461)
(0.047593 -0.726590 -0.000485)
(-0.078833 -0.622485 -0.000485)
(-0.426870 2.282102 -0.000485)
(-0.137053 3.581718 -0.000485)
(2.025489 -4.959490 -0.000485)
)
;
    }
}
