/*--------------------------------*- C++ -*---------------------------------*\ 
| ========                 |                                                 | 
| \      /  F ield         | OpenFOAM: The Open Source CFD Toolbox           | 
|  \    /   O peration     | Version:  v1812                                 | 
|   \  /    A nd           | Web:      www.OpenFOAM.com                      | 
|    \/     M anipulation  |                                                 | 
\*--------------------------------------------------------------------------*/ 
FoamFile
{
    version     2.0;
    format      ascii;
    class       volVectorField;
    location    "/home/james/dafoam/myRuns/bezier_coanda_opt/0.00000000001/";
    object      sens_CL_shapey;
}
// * * * * * * * * * * * * * * * * * * * * * * * * * * * * * * * * * * * * * //

dimensions      [0 0 0 0 0 0 0];
internalField   uniform (0 0 0);
boundaryField
{
    allWalls
    {
        type  wall;
        value nonuniform List<vector>
268
(
(-0.126458 -0.018091 0.000171)
(0.192152 -0.100561 0.000169)
(0.295521 -0.176900 0.000166)
(-0.004095 0.081257 0.000164)
(-0.082887 0.076956 0.000162)
(0.088686 -0.161815 0.000160)
(0.029332 -0.038597 0.000158)
(0.012104 -0.053963 0.000157)
(-0.020454 0.041827 0.000316)
(-0.033278 0.059117 0.000504)
(-0.013297 0.029671 0.000563)
(-0.027264 0.073252 0.000626)
(-0.014301 0.049013 0.000694)
(-0.018259 0.064974 0.000764)
(-0.010300 0.044671 0.000839)
(-0.010754 0.046838 0.000917)
(-0.006356 0.032511 0.001468)
(-0.006798 0.035560 0.002089)
(-0.004940 0.029957 0.002314)
(-0.009257 0.059089 0.002551)
(-0.008483 0.054583 0.002797)
(-0.005412 0.039315 0.003053)
(-0.003409 0.028448 0.003317)
(-0.002918 0.029384 0.003583)
(-0.003364 0.036240 0.003842)
(-0.002632 0.033288 0.004532)
(-0.002972 0.040997 0.005313)
(-0.002836 0.044238 0.005756)
(-0.002674 0.047903 0.006214)
(-0.002558 0.054455 0.006810)
(-0.002156 0.056407 0.007301)
(-0.001632 0.057433 0.007703)
(-0.001183 0.062285 0.008255)
(-0.000635 0.081670 0.008683)
(0.000138 0.095167 0.008672)
(0.000998 0.080415 0.008284)
(0.002079 0.083506 0.007682)
(0.003109 0.088897 0.006956)
(0.003840 0.082687 0.006239)
(0.004761 0.083511 0.005528)
(0.005732 0.083447 0.004847)
(0.006645 0.082496 0.004198)
(0.007183 0.076851 0.003377)
(0.009169 0.084242 0.002682)
(0.008085 0.067647 0.002304)
(0.012420 0.092822 0.001931)
(0.017748 0.126213 0.001571)
(0.016078 0.102900 0.001231)
(0.017635 0.103243 0.000917)
(0.020023 0.108399 0.000633)
(0.022710 0.112759 0.000353)
(0.025824 0.118482 -0.000132)
(0.028534 0.123770 -0.000446)
(0.031447 0.130223 -0.000536)
(0.037842 0.150733 -0.000681)
(0.046456 0.179728 -0.000733)
(0.048116 0.181067 -0.000854)
(0.041632 0.153301 -0.000875)
(0.051661 0.188958 -0.000797)
(0.059568 0.213054 -0.000759)
(0.063133 0.222144 -0.000716)
(0.068649 0.243366 -0.000733)
(0.064883 0.231140 -0.000716)
(0.065928 0.238108 -0.000667)
(0.078898 0.295506 -0.000657)
(0.099497 0.382391 -0.000641)
(0.096274 0.370229 -0.000605)
(0.032406 0.106315 -0.000557)
(-0.019835 -0.226375 -0.000528)
(0.137785 1.008841 -0.000528)
(0.478422 -4.145801 -0.000528)
(-1.093822 2.833873 -0.000528)
(-0.486935 1.225202 -0.000184)
(0.007843 -0.077830 0.000222)
(0.055477 -0.107176 0.000351)
(0.026970 -0.054537 0.000493)
(0.112404 -0.318811 0.000650)
(0.281084 -0.851755 0.000813)
(0.278150 -1.078357 0.000991)
(0.240862 -0.845353 0.001192)
(0.198414 -0.450698 0.001408)
(0.014001 -0.207437 0.001646)
(-0.051391 -0.077396 0.001887)
(-0.017232 0.074006 0.002116)
(-0.008182 0.094150 0.002345)
(-0.007072 0.057971 0.002568)
(-0.019309 0.083488 0.002767)
(-0.027427 0.140691 0.002935)
(-0.028890 0.165753 0.003106)
(-0.026799 0.167337 0.003149)
(-0.024575 0.165670 0.003092)
(-0.022188 0.163239 0.003045)
(-0.019595 0.157126 0.002932)
(-0.017026 0.148756 0.002751)
(-0.014661 0.139982 0.002507)
(-0.012616 0.132156 0.002205)
(-0.010734 0.124160 0.001854)
(-0.009166 0.117322 0.001228)
(-0.007829 0.111319 0.000571)
(-0.006606 0.105835 0.000037)
(-0.005512 0.101222 -0.000618)
(-0.004499 0.096790 -0.001302)
(-0.003494 0.092595 -0.001971)
(-0.002527 0.089765 -0.002636)
(-0.001662 0.080205 -0.003275)
(-0.000786 0.082810 -0.003727)
(0.000013 0.080556 -0.003985)
(0.000663 0.063640 -0.003982)
(0.001166 0.056879 -0.003757)
(0.001511 0.051832 -0.003515)
(0.001843 0.048271 -0.003475)
(0.002085 0.043984 -0.003402)
(0.002280 0.040095 -0.003097)
(0.002429 0.036622 -0.002806)
(0.002639 0.034482 -0.002174)
(0.002806 0.032366 -0.001605)
(0.002980 0.030468 -0.001449)
(0.003103 0.028639 -0.001299)
(0.003308 0.027526 -0.001154)
(0.003421 0.026053 -0.001016)
(0.003673 0.025234 -0.000889)
(0.003846 0.024042 -0.000772)
(0.004244 0.023477 -0.000449)
(0.004511 0.022366 -0.000165)
(0.005065 0.022139 -0.000133)
(0.005100 0.020211 -0.000103)
(0.005703 0.020652 -0.000074)
(0.005989 0.020666 -0.000047)
(0.005571 0.017623 -0.000023)
(0.006543 0.019946 -0.000001)
(0.005123 0.013322 0.000020)
(0.006691 0.014342 0.000098)
(0.004688 0.006602 0.000166)
(0.007017 0.004421 0.000167)
(0.008882 0.007461 0.000167)
(0.011899 0.013350 0.000168)
(0.023035 0.040732 0.000169)
(-0.022659 0.056832 0.000170)
(-0.187774 0.022337 0.000171)
(-0.295544 -0.003808 0.000172)
(0.141191 1.014062 -0.000528)
(-0.044740 -0.507706 -0.000528)
(-0.052445 -0.482540 -0.000528)
(-0.019116 0.208518 -0.000528)
(0.021288 0.619427 -0.000528)
(0.059200 0.422745 -0.000528)
(0.049316 0.384865 -0.000499)
(0.046911 0.819318 -0.000470)
(0.120388 1.997352 -0.000470)
(0.289466 3.071199 -0.000470)
(0.564035 1.614636 -0.000470)
(0.390919 4.706833 -0.000470)
(-0.227138 17.572379 -0.000470)
(0.105263 23.761584 -0.000470)
(-51.391946 -111.257586 -0.000222)
(41.382985 -541.362886 0.000027)
(-70.622964 -3.000268 0.000027)
(-24.141717 6.653743 0.000027)
(-64.944890 -121.072532 0.000027)
(17.776267 515.383302 0.000027)
(-23.371536 54.529230 0.000027)
(-2.517857 21.528613 0.000027)
(-2.982568 -1.792546 0.000027)
(-2.932888 -5.784146 0.000027)
(-2.081088 -2.793754 0.000027)
(-0.569874 1.560563 0.000027)
(1.712051 11.317235 0.000027)
(3.230742 17.135220 0.000027)
(3.960536 19.595820 0.000027)
(3.526779 17.220332 0.000027)
(3.733329 15.463926 0.000023)
(3.597063 12.158204 0.000018)
(3.399103 8.142790 0.000018)
(4.138991 6.938997 0.000018)
(7.614699 12.024913 0.000018)
(12.805620 20.751999 0.000018)
(12.730532 20.791948 0.000018)
(10.905795 17.277499 0.000018)
(9.375573 14.311897 0.000018)
(8.619156 12.298164 0.000018)
(8.846766 11.813644 0.000018)
(5.723064 8.020605 0.000018)
(4.335588 6.240334 0.000018)
(2.733092 4.766473 0.000018)
(0.573191 2.913795 0.000018)
(-0.913152 2.035447 0.000018)
(-3.705979 0.153076 0.000018)
(-7.161391 -1.834549 0.000018)
(-9.989111 -2.992910 0.000018)
(-11.094009 -2.840878 0.000018)
(-15.427094 -4.117667 0.000018)
(-18.128111 -4.342908 0.000018)
(-21.464436 -4.340752 0.000018)
(-24.776505 -4.199012 0.000018)
(-27.177497 -3.189490 0.000018)
(-29.795822 -2.146871 0.000018)
(-30.765842 -0.297033 0.000018)
(-31.668622 1.537539 0.000018)
(-29.471991 4.073861 0.000018)
(-24.668682 6.892455 0.000018)
(-22.410612 8.999944 0.000018)
(-19.671492 10.419794 0.000018)
(-8.397232 11.562205 0.000018)
(-0.168092 11.113667 0.000018)
(5.683337 9.306792 0.000018)
(14.127093 6.820313 0.000018)
(21.289490 3.554921 0.000018)
(25.564683 0.092685 0.000018)
(29.389307 -3.599421 0.000018)
(29.658320 -6.474751 0.000018)
(27.131618 -8.468286 0.000018)
(26.867719 -10.353552 0.000018)
(23.154942 -10.996757 0.000018)
(20.506275 -11.774857 0.000018)
(16.578500 -11.606814 0.000018)
(12.756114 -11.207143 0.000018)
(9.723085 -10.484956 0.000018)
(6.357502 -9.286847 0.000018)
(3.981815 -8.021841 0.000018)
(1.590971 -6.476375 0.000018)
(0.245250 -5.197398 0.000018)
(-1.041139 -3.778869 0.000018)
(-1.670714 -2.525852 0.000018)
(-2.227281 -1.276989 0.000018)
(-2.008765 -0.581218 0.000018)
(-1.659930 -0.062015 0.000018)
(-1.472233 0.554602 0.000018)
(-1.298759 1.072374 0.000018)
(-0.985581 1.364831 0.000018)
(-0.592724 1.422452 0.000018)
(0.040999 1.082744 0.000018)
(0.481168 0.821490 0.000018)
(0.962507 0.324478 0.000018)
(1.297553 -0.021441 0.000018)
(1.785608 -0.895581 0.000018)
(2.553590 -2.736623 0.000018)
(2.949371 -4.212453 0.000018)
(3.609899 -6.338543 0.000023)
(3.950972 -7.437014 0.000027)
(3.674798 -7.202358 0.000027)
(3.284262 -6.559321 0.000027)
(2.637740 -4.665179 0.000027)
(2.200868 -3.098145 0.000027)
(1.738907 -1.554660 0.000027)
(1.163361 0.142991 0.000027)
(0.706839 1.637183 0.000027)
(0.437985 2.688577 0.000027)
(-0.230832 1.813707 0.000027)
(-48.338184 0.101956 0.000027)
(46.574490 0.750641 0.000027)
(-2.644034 2.323696 0.000027)
(0.172400 0.567263 0.000027)
(-10.411646 28.835238 0.000027)
(-12.081585 27.338798 -0.000222)
(0.868610 -4.508023 -0.000470)
(0.023626 -2.641067 -0.000470)
(-0.068858 -1.483769 -0.000470)
(-0.031314 -0.980067 -0.000470)
(-0.001760 -0.680276 -0.000470)
(0.001746 -0.362216 -0.000470)
(-0.002616 -0.132673 -0.000470)
(-0.014692 0.083341 -0.000470)
(0.002553 0.017751 -0.000499)
(0.041642 -0.528858 -0.000528)
(-0.059089 -0.354065 -0.000528)
(-0.327770 2.128140 -0.000528)
(-0.088107 3.111809 -0.000528)
(1.269029 -4.673083 -0.000528)
)
;
    }
}
