/*--------------------------------*- C++ -*---------------------------------*\ 
| ========                 |                                                 | 
| \      /  F ield         | OpenFOAM: The Open Source CFD Toolbox           | 
|  \    /   O peration     | Version:  v1812                                 | 
|   \  /    A nd           | Web:      www.OpenFOAM.com                      | 
|    \/     M anipulation  |                                                 | 
\*--------------------------------------------------------------------------*/ 
FoamFile
{
    version     2.0;
    format      ascii;
    class       volVectorField;
    location    "/home/james/dafoam/myRuns/bezier_coanda_opt/0.00000000001/";
    object      sens_CL_shapey;
}
// * * * * * * * * * * * * * * * * * * * * * * * * * * * * * * * * * * * * * //

dimensions      [0 0 0 0 0 0 0];
internalField   uniform (0 0 0);
boundaryField
{
    allWalls
    {
        type  wall;
        value nonuniform List<vector>
268
(
(-0.014019 0.001147 0.000272)
(-0.016279 0.003499 0.000285)
(-0.020910 0.008592 0.000345)
(-0.023108 0.013541 0.000415)
(-0.019101 0.015680 0.000494)
(-0.014305 0.012868 0.000583)
(-0.013246 0.015484 0.000684)
(-0.013612 0.019352 0.000797)
(-0.009127 0.014809 0.000923)
(-0.007498 0.012890 0.001060)
(-0.011826 0.023575 0.001209)
(-0.011251 0.024070 0.001368)
(-0.009640 0.024164 0.001537)
(-0.010043 0.027882 0.001719)
(-0.008653 0.028073 0.001915)
(-0.008221 0.029758 0.002120)
(-0.006948 0.029197 0.002331)
(-0.006337 0.029939 0.002779)
(-0.005630 0.030960 0.003282)
(-0.005229 0.032282 0.003615)
(-0.004552 0.032524 0.003959)
(-0.004282 0.034804 0.004313)
(-0.003760 0.035689 0.004676)
(-0.003394 0.037708 0.005039)
(-0.002927 0.039236 0.005388)
(-0.002518 0.041351 0.006161)
(-0.002061 0.044153 0.007052)
(-0.001602 0.047160 0.007633)
(-0.001096 0.050169 0.008228)
(-0.000554 0.054858 0.008946)
(0.000095 0.060076 0.009465)
(0.000851 0.067153 0.009898)
(0.001819 0.076144 0.010567)
(0.003204 0.090225 0.011062)
(0.004575 0.094569 0.011039)
(0.004952 0.078721 0.010496)
(0.005825 0.080136 0.009607)
(0.007821 0.099049 0.008586)
(0.008978 0.102595 0.007557)
(0.009089 0.094499 0.006575)
(0.011832 0.113288 0.005696)
(0.015717 0.142840 0.004857)
(0.015867 0.134971 0.003784)
(0.015285 0.119755 0.002862)
(0.016588 0.121420 0.002349)
(0.018509 0.127902 0.001849)
(0.020371 0.133610 0.001375)
(0.022162 0.138680 0.000937)
(0.024103 0.144672 0.000541)
(0.026658 0.154462 0.000190)
(0.029075 0.163674 -0.000140)
(0.029595 0.162795 -0.001130)
(0.029448 0.159763 -0.001672)
(0.031337 0.169444 -0.001423)
(0.031763 0.171859 -0.001478)
(0.030534 0.165913 -0.001512)
(0.026857 0.147639 -0.001526)
(0.029199 0.167059 -0.001522)
(0.035708 0.211374 -0.001504)
(0.035697 0.216618 -0.001496)
(0.036092 0.224614 -0.001477)
(0.037427 0.239583 -0.001428)
(0.038791 0.255528 -0.001346)
(0.040831 0.276557 -0.001285)
(0.042520 0.295614 -0.001244)
(0.043215 0.309037 -0.001173)
(0.046497 0.341226 -0.001079)
(0.054239 0.417827 -0.000860)
(0.058296 0.451182 -0.000696)
(0.042725 0.417023 -0.000696)
(-0.000611 0.007571 -0.000696)
(-0.004732 0.045378 -0.000696)
(-0.004762 0.027003 -0.000580)
(-0.004366 0.023701 -0.000463)
(-0.005243 0.026653 -0.000453)
(-0.006597 0.032665 -0.000435)
(-0.007654 0.037299 -0.000403)
(-0.008895 0.043379 -0.000367)
(-0.010037 0.049451 -0.000331)
(-0.010947 0.054238 -0.000260)
(-0.011879 0.058752 -0.000199)
(-0.012788 0.063443 -0.000153)
(-0.013466 0.067882 -0.000046)
(-0.013939 0.071648 0.000071)
(-0.014210 0.074685 0.000111)
(-0.014329 0.077242 0.000198)
(-0.014285 0.079151 0.000330)
(-0.014048 0.080113 0.000406)
(-0.013751 0.080840 0.000405)
(-0.013363 0.080953 0.000471)
(-0.012876 0.080485 0.000574)
(-0.012374 0.080011 0.000566)
(-0.011801 0.079105 0.000531)
(-0.011202 0.078049 0.000467)
(-0.010611 0.077070 0.000373)
(-0.009994 0.075916 0.000250)
(-0.009377 0.074791 0.000101)
(-0.008797 0.074034 -0.000165)
(-0.008170 0.073078 -0.000521)
(-0.007542 0.072167 -0.000894)
(-0.006949 0.071555 -0.001324)
(-0.006336 0.070995 -0.001805)
(-0.005716 0.070954 -0.002405)
(-0.004994 0.070216 -0.003018)
(-0.004451 0.073617 -0.003516)
(-0.003583 0.070941 -0.003855)
(-0.002314 0.058073 -0.004076)
(-0.001541 0.051726 -0.004138)
(-0.000913 0.049861 -0.004015)
(-0.000254 0.046656 -0.003861)
(0.000234 0.041222 -0.003739)
(0.000707 0.038791 -0.003589)
(0.001162 0.037869 -0.003363)
(0.001542 0.035000 -0.003135)
(0.001786 0.031302 -0.002541)
(0.002178 0.029797 -0.001977)
(0.002770 0.030821 -0.001814)
(0.003005 0.028913 -0.001652)
(0.003109 0.026289 -0.001492)
(0.003416 0.025006 -0.001337)
(0.003315 0.021600 -0.001191)
(0.003467 0.019628 -0.001054)
(0.004274 0.021139 -0.000927)
(0.006675 0.027495 -0.000851)
(0.006367 0.023539 -0.000787)
(0.004791 0.014977 -0.000690)
(0.005381 0.015131 -0.000596)
(0.007072 0.018372 -0.000506)
(0.007022 0.017231 -0.000420)
(0.004864 0.010432 -0.000338)
(0.004277 0.007774 -0.000260)
(0.002733 0.003103 -0.000186)
(0.002718 0.000728 -0.000115)
(0.003890 0.000957 -0.000049)
(0.009170 0.005400 0.000013)
(0.015143 0.012279 0.000072)
(0.011859 0.014871 0.000129)
(0.001744 0.009169 0.000182)
(-0.006389 0.001310 0.000231)
(-0.009571 -0.000117 0.000270)
(0.023195 0.304359 -0.000696)
(0.012450 0.255540 -0.000696)
(0.011360 0.318688 -0.000696)
(0.019274 0.385175 -0.000696)
(0.023933 0.464189 -0.000696)
(0.027115 0.527797 -0.000696)
(0.026550 0.614333 -0.000668)
(0.025759 0.769522 -0.000641)
(0.030529 0.999814 -0.000641)
(0.032527 1.137119 -0.000641)
(0.004049 1.084404 -0.000641)
(-0.082163 1.746373 -0.000641)
(-0.105190 4.649870 -0.000641)
(-0.060780 7.077630 -0.000641)
(-71.296633 38.446424 -0.000334)
(652.957506 -755.341858 -0.000027)
(-43.995518 9.144355 -0.000027)
(14.050706 8.240241 -0.000027)
(-36.638463 37.035699 -0.000027)
(-597.719400 518.312425 -0.000027)
(-39.054075 358.901217 -0.000027)
(10.489044 164.473303 -0.000027)
(8.641550 74.148690 -0.000027)
(4.117487 23.691989 -0.000027)
(1.571156 3.992018 -0.000027)
(-0.082314 -3.049236 -0.000027)
(-0.062581 -2.792140 -0.000027)
(0.229760 -0.473163 -0.000027)
(-0.614059 -2.441988 -0.000027)
(-0.211028 -0.719165 -0.000027)
(0.667017 1.586353 -0.000013)
(-0.137941 -0.066388 0.000002)
(-1.350541 -2.670114 0.000002)
(-1.195014 -2.207323 0.000002)
(-1.446032 -2.380522 0.000002)
(-2.286734 -3.549303 0.000002)
(-3.008807 -4.453370 0.000002)
(-2.532471 -3.453930 0.000002)
(-1.976921 -2.197553 0.000002)
(-0.979201 -0.601867 0.000002)
(0.857689 1.826802 0.000002)
(2.219191 3.496906 0.000002)
(2.992555 4.374079 0.000002)
(4.013051 5.268400 0.000002)
(5.598863 6.487622 0.000002)
(7.219802 7.519335 0.000002)
(9.986241 9.189803 0.000002)
(12.526662 10.450329 0.000002)
(15.756370 11.753142 0.000002)
(22.955757 14.926578 0.000002)
(36.718774 20.539440 0.000002)
(27.081978 14.660945 0.000002)
(26.242530 12.735032 0.000002)
(41.926616 18.956016 0.000002)
(6.694127 3.316247 0.000002)
(-14.955000 -6.838465 0.000002)
(2.781101 -1.174741 0.000002)
(-11.480198 -4.789749 0.000002)
(-68.893573 -16.198654 0.000002)
(-133.193444 -16.680259 0.000002)
(-180.205515 -15.463921 0.000002)
(-117.535679 -12.331458 0.000002)
(0.848178 -1.501769 0.000002)
(33.550534 -1.052844 0.000002)
(48.447098 -4.959937 0.000002)
(61.149259 -7.557685 0.000002)
(40.131464 -7.051412 0.000002)
(20.781443 -4.183631 0.000002)
(12.649318 -2.627545 0.000002)
(8.642353 -2.484308 0.000002)
(10.400339 -3.319721 0.000002)
(13.778166 -4.725352 0.000002)
(15.950224 -5.595154 0.000002)
(12.957912 -4.659881 0.000002)
(5.656026 -2.522649 0.000002)
(-1.358805 -0.224147 0.000002)
(-5.207729 0.724983 0.000002)
(-4.968359 0.213447 0.000002)
(-2.361451 -1.063816 0.000002)
(1.061540 -3.063974 0.000002)
(3.502239 -4.692072 0.000002)
(3.211950 -4.402716 0.000002)
(1.668356 -2.910918 0.000002)
(0.866613 -1.520579 0.000002)
(1.512465 -1.421328 0.000002)
(1.107829 -0.555813 0.000002)
(0.076223 0.740730 0.000002)
(0.592950 0.453067 0.000002)
(0.691767 0.461548 0.000002)
(0.562775 0.557882 0.000002)
(0.612991 0.376028 0.000002)
(0.602154 0.270122 0.000002)
(0.522119 0.258513 0.000002)
(0.433354 0.248397 0.000002)
(0.347772 0.225547 0.000002)
(0.267796 0.202139 0.000002)
(0.199622 0.180741 0.000002)
(0.150396 0.155507 -0.000013)
(0.108396 0.141526 -0.000027)
(0.072471 0.127953 -0.000027)
(0.048462 0.107944 -0.000027)
(0.027013 0.104702 -0.000027)
(0.010284 0.105927 -0.000027)
(-0.000864 0.101296 -0.000027)
(-0.008396 0.088949 -0.000027)
(-0.012539 0.068552 -0.000027)
(-0.011300 0.042439 -0.000027)
(-0.010196 0.020764 -0.000027)
(-47.959580 0.009717 -0.000027)
(47.942110 0.004942 -0.000027)
(-0.018372 0.012185 -0.000027)
(-0.005934 0.020390 -0.000027)
(0.236342 -0.401815 -0.000027)
(0.173392 -0.382441 -0.000334)
(-0.076693 0.055460 -0.000641)
(-0.033129 0.028931 -0.000641)
(-0.017282 0.006203 -0.000641)
(-0.011152 0.007820 -0.000641)
(-0.007749 0.012855 -0.000641)
(-0.005432 0.012439 -0.000641)
(-0.004138 0.010336 -0.000641)
(-0.003603 0.009988 -0.000641)
(-0.002451 0.012561 -0.000668)
(-0.001230 0.013380 -0.000696)
(-0.001543 0.011256 -0.000696)
(-0.002720 0.011880 -0.000696)
(-0.002400 0.015609 -0.000696)
(0.000883 -0.014277 -0.000696)
)
;
    }
}
