/*--------------------------------*- C++ -*---------------------------------*\ 
| ========                 |                                                 | 
| \      /  F ield         | OpenFOAM: The Open Source CFD Toolbox           | 
|  \    /   O peration     | Version:  v1812                                 | 
|   \  /    A nd           | Web:      www.OpenFOAM.com                      | 
|    \/     M anipulation  |                                                 | 
\*--------------------------------------------------------------------------*/ 
FoamFile
{
    version     2.0;
    format      ascii;
    class       volVectorField;
    location    "/home/james/dafoam/myRuns/bezier_coanda_opt/0.00000000001/";
    object      sens_CL_shapey;
}
// * * * * * * * * * * * * * * * * * * * * * * * * * * * * * * * * * * * * * //

dimensions      [0 0 0 0 0 0 0];
internalField   uniform (0 0 0);
boundaryField
{
    allWalls
    {
        type  wall;
        value nonuniform List<vector>
268
(
(0.305534 -0.246226 0.000150)
(0.529501 -0.033770 0.000148)
(0.078173 -0.058151 0.000146)
(0.226293 -0.345194 0.000144)
(0.076330 -0.147445 0.000143)
(0.015134 -0.118696 0.000141)
(-0.040705 0.088753 0.000140)
(-0.047810 0.060497 0.000139)
(-0.029925 0.070423 0.000274)
(-0.052030 0.135043 0.000430)
(-0.023491 0.069945 0.000474)
(-0.029171 0.098130 0.000523)
(-0.022366 0.091979 0.000576)
(-0.030403 0.127333 0.000632)
(-0.010354 0.047186 0.000690)
(-0.006405 0.033090 0.000751)
(-0.004723 0.026547 0.001225)
(-0.004422 0.028090 0.001763)
(-0.004485 0.029863 0.001956)
(-0.005530 0.038667 0.002162)
(-0.005928 0.043668 0.002378)
(-0.004352 0.035479 0.002602)
(-0.004103 0.035818 0.002830)
(-0.004264 0.040529 0.003058)
(-0.004377 0.044190 0.003285)
(-0.003876 0.042286 0.003920)
(-0.003761 0.044777 0.004640)
(-0.003629 0.047262 0.005046)
(-0.003566 0.050934 0.005465)
(-0.003357 0.053120 0.006036)
(-0.003056 0.054146 0.006530)
(-0.002742 0.055630 0.006915)
(-0.002565 0.061357 0.007423)
(-0.002796 0.084298 0.007817)
(-0.002286 0.086162 0.007822)
(-0.001374 0.081580 0.007474)
(-0.000734 0.086493 0.006907)
(0.000176 0.080346 0.006219)
(0.000920 0.081732 0.005556)
(0.001721 0.081930 0.004893)
(0.002650 0.081944 0.004226)
(0.003639 0.081973 0.003581)
(0.004742 0.081878 0.002776)
(0.005955 0.082424 0.002091)
(0.006996 0.080496 0.001702)
(0.006111 0.060079 0.001324)
(0.009567 0.072652 0.000874)
(0.015333 0.108543 0.000541)
(0.016433 0.105501 0.000330)
(0.016612 0.091505 0.000065)
(0.018373 0.088445 -0.000210)
(0.021483 0.091010 -0.000436)
(0.024715 0.094112 -0.000546)
(0.028582 0.100881 -0.000603)
(0.033644 0.111258 -0.000639)
(0.040411 0.126325 -0.000654)
(0.048847 0.145257 -0.000653)
(0.057979 0.165040 -0.000636)
(0.067561 0.185153 -0.000608)
(0.077479 0.205282 -0.000354)
(0.087357 0.224940 -0.000104)
(0.099281 0.250119 -0.000078)
(0.112919 0.279119 -0.000053)
(0.121220 0.294686 -0.000029)
(0.113721 0.272223 -0.000005)
(0.120496 0.285865 0.000017)
(0.182675 0.423952 0.000037)
(0.132884 0.260824 -0.000095)
(-0.032933 -0.350053 -0.000236)
(0.172435 0.826942 -0.000236)
(-0.028039 -5.280225 -0.000236)
(-3.384208 2.625248 -0.000236)
(0.502082 2.140660 0.000053)
(-0.437921 0.124157 0.000368)
(0.335341 -0.820984 0.000422)
(-0.251512 -0.405461 0.000478)
(0.034878 0.309417 0.000536)
(0.614626 -0.270408 0.000594)
(-0.206864 -0.596277 0.000652)
(-0.063994 -0.321904 0.000709)
(-0.052255 0.124916 0.000764)
(0.006466 0.071019 0.001426)
(0.027449 0.003777 0.002143)
(-0.019229 0.062545 0.002303)
(-0.028988 0.104502 0.002448)
(-0.023851 0.095696 0.002572)
(-0.021832 0.106712 0.002671)
(-0.020371 0.119186 0.002740)
(-0.018053 0.124656 0.002778)
(-0.015924 0.124540 0.002804)
(-0.014015 0.122680 0.002773)
(-0.012163 0.120620 0.002650)
(-0.010323 0.116237 0.002477)
(-0.008837 0.112812 0.002254)
(-0.007362 0.107260 0.001986)
(-0.006202 0.103910 0.001678)
(-0.005129 0.099832 0.001338)
(-0.004164 0.095987 0.000760)
(-0.003461 0.095480 0.000206)
(-0.002753 0.089963 -0.000211)
(-0.001816 0.058639 -0.000748)
(-0.001302 0.059256 -0.001300)
(-0.000850 0.089867 -0.001932)
(-0.000058 0.088042 -0.002550)
(0.000682 0.088942 -0.003030)
(0.001293 0.088803 -0.003338)
(0.001547 0.071397 -0.003506)
(0.001533 0.053836 -0.003457)
(0.001816 0.050154 -0.003206)
(0.002113 0.049670 -0.002952)
(0.002242 0.044901 -0.002850)
(0.002329 0.041030 -0.002736)
(0.002433 0.037661 -0.002468)
(0.002530 0.035136 -0.002217)
(0.002691 0.033530 -0.001649)
(0.002749 0.031260 -0.001140)
(0.002885 0.029651 -0.001017)
(0.002931 0.027875 -0.000898)
(0.003111 0.027070 -0.000785)
(0.003141 0.025593 -0.000680)
(0.003391 0.025140 -0.000583)
(0.003479 0.023840 -0.000496)
(0.003984 0.024047 -0.000251)
(0.004174 0.022731 -0.000036)
(0.004923 0.023513 -0.000014)
(0.004726 0.020646 0.000007)
(0.005509 0.022493 0.000027)
(0.005933 0.023909 0.000044)
(0.004604 0.017575 0.000060)
(0.006202 0.025500 0.000075)
(0.003027 0.010688 0.000088)
(0.006401 0.018092 0.000120)
(0.002463 0.000923 0.000146)
(0.007094 -0.004850 0.000146)
(0.008597 -0.001268 0.000147)
(0.013452 0.008321 0.000147)
(0.035826 0.081149 0.000148)
(-0.047496 0.139305 0.000149)
(-0.480097 0.042857 0.000150)
(-0.688142 -0.063509 0.000150)
(0.204057 0.931747 -0.000236)
(-0.087681 -0.532281 -0.000236)
(-0.090316 -0.416371 -0.000236)
(-0.030162 0.264766 -0.000236)
(0.035121 0.480431 -0.000236)
(0.069937 -0.071320 -0.000236)
(0.014997 0.157461 -0.000217)
(0.025936 0.885588 -0.000199)
(0.142496 1.758612 -0.000199)
(0.333055 2.688425 -0.000199)
(0.676064 1.301962 -0.000199)
(0.612621 4.549094 -0.000199)
(0.123856 18.474269 -0.000199)
(0.392994 26.265811 -0.000199)
(-55.020602 -120.876308 -0.000087)
(-15.357388 -601.094235 0.000026)
(-85.227505 -9.243486 0.000026)
(-28.276908 4.152159 0.000026)
(-71.270548 -132.183833 0.000026)
(81.538507 596.192525 0.000026)
(-23.318966 30.019612 0.000026)
(-4.268346 5.627957 0.000026)
(-4.994757 -14.704339 0.000026)
(-5.170313 -17.578054 0.000026)
(-3.964759 -10.149777 0.000026)
(-1.174057 3.182323 0.000026)
(1.338992 14.894852 0.000026)
(3.426393 21.483334 0.000026)
(4.572763 24.518738 0.000026)
(3.282534 18.403349 0.000026)
(2.105978 11.942406 0.000025)
(1.686708 7.063022 0.000024)
(2.332745 4.922262 0.000024)
(3.992552 5.805510 0.000024)
(9.528605 15.115393 0.000024)
(16.786101 27.862042 0.000024)
(16.768871 28.325471 0.000024)
(13.995303 23.208665 0.000024)
(11.991910 19.233220 0.000024)
(11.032698 16.566196 0.000024)
(11.361395 15.885344 0.000024)
(8.109240 11.689309 0.000024)
(6.228937 9.235433 0.000024)
(4.455429 7.426160 0.000024)
(2.101774 5.311926 0.000024)
(0.319149 4.094347 0.000024)
(-2.838412 1.850625 0.000024)
(-7.200112 -0.853921 0.000024)
(-10.655862 -2.421590 0.000024)
(-11.920370 -2.320291 0.000024)
(-17.340454 -4.022885 0.000024)
(-20.639225 -4.399231 0.000024)
(-24.746031 -4.473080 0.000024)
(-29.108304 -4.495750 0.000024)
(-32.245889 -3.353993 0.000024)
(-35.939787 -2.231408 0.000024)
(-37.975844 -0.134977 0.000024)
(-39.491661 2.190754 0.000024)
(-38.523980 5.273245 0.000024)
(-35.255140 8.531229 0.000024)
(-31.057887 11.558402 0.000024)
(-26.487707 13.594619 0.000024)
(-13.912779 14.828564 0.000024)
(-3.513471 14.241653 0.000024)
(5.079252 11.959893 0.000024)
(15.259302 8.813064 0.000024)
(23.335907 4.734523 0.000024)
(31.764963 -0.031220 0.000024)
(34.865245 -4.364007 0.000024)
(37.225993 -8.595485 0.000024)
(36.066814 -11.644575 0.000024)
(32.015299 -13.518455 0.000024)
(30.618327 -15.270013 0.000024)
(25.580611 -15.444958 0.000024)
(21.849730 -15.745282 0.000024)
(17.056459 -14.972775 0.000024)
(12.469544 -13.881194 0.000024)
(8.907766 -12.500544 0.000024)
(5.396837 -10.763600 0.000024)
(3.047011 -9.053078 0.000024)
(0.632156 -7.080213 0.000024)
(-0.626110 -5.435613 0.000024)
(-1.815576 -3.641452 0.000024)
(-2.271431 -2.207549 0.000024)
(-2.682554 -0.785852 0.000024)
(-2.560510 0.214927 0.000024)
(-1.758948 0.447853 0.000024)
(-1.430628 1.112161 0.000024)
(-1.178612 1.640545 0.000024)
(-0.571277 1.660697 0.000024)
(-0.492903 2.106523 0.000024)
(0.186155 1.637931 0.000024)
(0.972168 0.829317 0.000024)
(1.730350 -0.141968 0.000024)
(2.655481 -1.613576 0.000024)
(3.675270 -3.723394 0.000024)
(4.467078 -5.953519 0.000024)
(4.724952 -7.410591 0.000025)
(4.777110 -8.672557 0.000026)
(4.535721 -9.075153 0.000026)
(3.840428 -7.900898 0.000026)
(3.118956 -5.835486 0.000026)
(2.570184 -3.855458 0.000026)
(2.017677 -2.010665 0.000026)
(1.324356 0.105724 0.000026)
(0.817074 1.887124 0.000026)
(0.539882 3.120138 0.000026)
(-0.266429 2.075404 0.000026)
(-48.459866 0.054624 0.000026)
(46.350653 0.868281 0.000026)
(-3.074960 2.624353 0.000026)
(0.232879 0.449956 0.000026)
(-12.561522 35.813349 0.000026)
(-14.318122 33.965291 -0.000087)
(1.236494 -5.575462 -0.000199)
(0.041000 -3.195775 -0.000199)
(-0.084686 -1.779477 -0.000199)
(-0.033127 -1.164497 -0.000199)
(0.004935 -0.831411 -0.000199)
(0.017367 -0.532343 -0.000199)
(-0.003298 -0.254825 -0.000199)
(-0.031110 0.070020 -0.000199)
(0.004659 -0.133954 -0.000217)
(0.037024 -0.967866 -0.000236)
(-0.133594 -0.878305 -0.000236)
(-0.527720 2.051659 -0.000236)
(-0.122483 3.322040 -0.000236)
(4.386089 -4.809803 -0.000236)
)
;
    }
}
