/*--------------------------------*- C++ -*---------------------------------*\ 
| ========                 |                                                 | 
| \      /  F ield         | OpenFOAM: The Open Source CFD Toolbox           | 
|  \    /   O peration     | Version:  v1812                                 | 
|   \  /    A nd           | Web:      www.OpenFOAM.com                      | 
|    \/     M anipulation  |                                                 | 
\*--------------------------------------------------------------------------*/ 
FoamFile
{
    version     2.0;
    format      ascii;
    class       volVectorField;
    location    "/home/james/dafoam/myRuns/bezier_coanda_opt/0.00000000001/";
    object      sens_CL_shapey;
}
// * * * * * * * * * * * * * * * * * * * * * * * * * * * * * * * * * * * * * //

dimensions      [0 0 0 0 0 0 0];
internalField   uniform (0 0 0);
boundaryField
{
    allWalls
    {
        type  wall;
        value nonuniform List<vector>
268
(
(0.348859 -0.224564 0.000151)
(0.502934 -0.042869 0.000150)
(0.078751 -0.183686 0.000148)
(0.210292 -0.296242 0.000147)
(-0.000166 0.007457 0.000145)
(0.007287 -0.130129 0.000144)
(-0.038713 0.098348 0.000143)
(-0.053813 0.081735 0.000142)
(-0.024588 0.062244 0.000318)
(-0.047609 0.129075 0.000518)
(-0.019491 0.060244 0.000567)
(-0.028622 0.098951 0.000623)
(-0.018829 0.078613 0.000683)
(-0.023004 0.097977 0.000746)
(-0.007401 0.035315 0.000813)
(-0.006546 0.034543 0.000882)
(-0.005343 0.031002 0.000952)
(-0.005304 0.032466 0.001463)
(-0.005827 0.037512 0.002037)
(-0.005638 0.038958 0.002237)
(-0.004856 0.036233 0.002446)
(-0.004124 0.033369 0.002661)
(-0.004330 0.037338 0.002878)
(-0.004424 0.041250 0.003094)
(-0.004249 0.042473 0.003306)
(-0.003955 0.042222 0.003980)
(-0.003786 0.044091 0.004760)
(-0.003742 0.047256 0.005187)
(-0.003633 0.050152 0.005630)
(-0.003464 0.052547 0.006244)
(-0.003193 0.053962 0.006770)
(-0.002858 0.054487 0.007187)
(-0.002841 0.063505 0.007759)
(-0.003146 0.085002 0.008230)
(-0.002603 0.087078 0.008276)
(-0.001759 0.084664 0.007937)
(-0.001067 0.087492 0.007376)
(-0.000173 0.084031 0.006679)
(0.000600 0.085157 0.005985)
(0.001446 0.085674 0.005282)
(0.002430 0.086427 0.004583)
(0.003490 0.086887 0.003901)
(0.004712 0.087339 0.003032)
(0.006117 0.089088 0.002273)
(0.007415 0.088568 0.001823)
(0.006695 0.067209 0.001380)
(0.010544 0.080715 0.000958)
(0.018368 0.131108 0.000565)
(0.019604 0.127937 0.000208)
(0.018379 0.101065 -0.000343)
(0.020507 0.098528 -0.000650)
(0.024105 0.102942 -0.000666)
(0.027714 0.106009 -0.000799)
(0.032271 0.113038 -0.000874)
(0.037956 0.123359 -0.000923)
(0.045417 0.138212 -0.000947)
(0.054361 0.156249 -0.000950)
(0.064050 0.175057 -0.000934)
(0.074550 0.195169 -0.000903)
(0.084496 0.214003 -0.000655)
(0.094355 0.232601 -0.000407)
(0.106693 0.256804 -0.000369)
(0.120726 0.284556 -0.000332)
(0.129027 0.298597 -0.000295)
(0.120285 0.273635 -0.000258)
(0.124556 0.281118 -0.000223)
(0.184566 0.406792 -0.000191)
(0.151679 0.281896 -0.000161)
(-0.003313 -0.275347 -0.000237)
(0.158929 0.686793 -0.000328)
(-0.400086 -4.768231 -0.000328)
(-3.634084 2.352176 -0.000328)
(0.927567 2.104245 -0.000328)
(-0.285419 -0.005074 -0.000067)
(0.161958 -0.684913 0.000219)
(-0.490221 -0.065744 0.000271)
(0.365733 0.167508 0.000324)
(0.680782 -0.579084 0.000378)
(-0.545301 -0.508641 0.000431)
(-0.077086 -0.232133 0.000484)
(-0.049055 0.148081 0.000536)
(-0.018890 0.308459 0.001208)
(0.026915 0.064742 0.001934)
(0.014345 -0.104891 0.002089)
(-0.019221 0.048309 0.002228)
(-0.031231 0.130878 0.002347)
(-0.023043 0.114390 0.002443)
(-0.017319 0.101174 0.002509)
(-0.016011 0.111710 0.002546)
(-0.014852 0.119663 0.002626)
(-0.012862 0.118767 0.002655)
(-0.011005 0.116153 0.002550)
(-0.009258 0.112046 0.002397)
(-0.007896 0.109403 0.002196)
(-0.006519 0.104303 0.001952)
(-0.005437 0.101421 0.001670)
(-0.004435 0.097648 0.001354)
(-0.003611 0.096469 0.000780)
(-0.002905 0.093250 0.000214)
(-0.001867 0.058201 -0.000193)
(-0.001324 0.055600 -0.000702)
(-0.001094 0.087484 -0.001224)
(-0.000387 0.089168 -0.001835)
(0.000289 0.083171 -0.002425)
(0.000955 0.085672 -0.002864)
(0.001605 0.089422 -0.003139)
(0.001560 0.065628 -0.003310)
(0.001571 0.049595 -0.003285)
(0.002022 0.053420 -0.003050)
(0.002110 0.047665 -0.002812)
(0.002243 0.043851 -0.002678)
(0.002303 0.039966 -0.002534)
(0.002389 0.036602 -0.002284)
(0.002486 0.034447 -0.002051)
(0.002648 0.033030 -0.001532)
(0.002682 0.030658 -0.001057)
(0.002795 0.028958 -0.000924)
(0.002828 0.027224 -0.000799)
(0.002984 0.026381 -0.000681)
(0.003015 0.025042 -0.000573)
(0.003220 0.024428 -0.000475)
(0.003331 0.023387 -0.000387)
(0.003776 0.023366 -0.000309)
(0.004003 0.022261 -0.000077)
(0.004673 0.023004 0.000123)
(0.004493 0.020103 0.000134)
(0.005247 0.022127 0.000144)
(0.005625 0.023615 0.000153)
(0.004173 0.016824 0.000161)
(0.005791 0.025204 0.000168)
(0.002650 0.010255 0.000174)
(0.005844 0.017673 0.000162)
(0.002261 0.000818 0.000148)
(0.006690 -0.006554 0.000148)
(0.008154 -0.003573 0.000148)
(0.013296 0.005935 0.000149)
(0.035278 0.078218 0.000149)
(-0.039379 0.134707 0.000150)
(-0.461880 0.037696 0.000151)
(-0.648963 -0.065428 0.000152)
(0.180894 0.788036 -0.000328)
(-0.078212 -0.442568 -0.000328)
(-0.079999 -0.340146 -0.000328)
(-0.029649 0.245246 -0.000328)
(0.020961 0.438093 -0.000328)
(0.042379 -0.038433 -0.000328)
(0.003861 0.163659 -0.000316)
(0.029881 0.803318 -0.000305)
(0.135646 1.568558 -0.000305)
(0.309957 2.403868 -0.000305)
(0.628033 1.264936 -0.000305)
(0.597026 4.221303 -0.000305)
(0.207288 16.569884 -0.000305)
(0.499873 23.461047 -0.000305)
(-55.910674 -104.707989 -0.000141)
(1.402258 -595.592080 0.000024)
(-84.924406 -7.547268 0.000024)
(-25.554449 4.134059 0.000024)
(-68.123106 -114.981721 0.000024)
(64.729799 583.574348 0.000024)
(-25.026634 34.654002 0.000024)
(-3.900473 9.419167 0.000024)
(-4.269710 -11.364647 0.000024)
(-4.557926 -16.079408 0.000024)
(-3.545862 -10.130793 0.000024)
(-1.158691 1.491474 0.000024)
(1.034357 12.045004 0.000024)
(2.977632 18.599127 0.000024)
(4.083714 21.952718 0.000024)
(3.051571 17.154712 0.000024)
(2.145612 11.931190 0.000020)
(1.690943 7.501307 0.000015)
(2.017684 5.143004 0.000015)
(3.152422 5.294759 0.000015)
(7.357032 12.205708 0.000015)
(13.098066 22.243006 0.000015)
(13.310434 23.009492 0.000015)
(11.268088 19.296151 0.000015)
(9.614664 16.174521 0.000015)
(8.742169 14.028617 0.000015)
(8.856045 13.425211 0.000015)
(5.910666 9.834631 0.000015)
(4.116299 7.714654 0.000015)
(2.430542 6.179395 0.000015)
(0.235864 4.376380 0.000015)
(-1.421731 3.381683 0.000015)
(-4.162817 1.574864 0.000015)
(-7.783025 -0.547410 0.000015)
(-10.634847 -1.741732 0.000015)
(-11.591962 -1.516018 0.000015)
(-15.715396 -2.671616 0.000015)
(-17.952477 -2.737106 0.000015)
(-20.672106 -2.577668 0.000015)
(-23.474380 -2.432237 0.000015)
(-25.339917 -1.481076 0.000015)
(-27.865701 -0.714053 0.000015)
(-29.250409 0.760068 0.000015)
(-30.433695 2.465180 0.000015)
(-29.798290 4.811481 0.000015)
(-27.280366 7.193097 0.000015)
(-23.470126 9.323541 0.000015)
(-19.474164 10.712164 0.000015)
(-9.155135 11.592917 0.000015)
(-1.234467 11.103364 0.000015)
(4.566611 9.263297 0.000015)
(12.297633 6.762752 0.000015)
(18.860412 3.466938 0.000015)
(25.931218 -0.421624 0.000015)
(28.496600 -3.917595 0.000015)
(30.379234 -7.272347 0.000015)
(29.514283 -9.662973 0.000015)
(26.243934 -11.088752 0.000015)
(25.041170 -12.417890 0.000015)
(20.986430 -12.514887 0.000015)
(18.000746 -12.740440 0.000015)
(14.199385 -12.139341 0.000015)
(10.542045 -11.289979 0.000015)
(7.630740 -10.184697 0.000015)
(4.819548 -8.833662 0.000015)
(2.943634 -7.504982 0.000015)
(0.911835 -5.914159 0.000015)
(-0.195307 -4.575676 0.000015)
(-1.229308 -3.111890 0.000015)
(-1.671096 -1.926570 0.000015)
(-2.079197 -0.737667 0.000015)
(-2.041791 0.113059 0.000015)
(-1.437843 0.336553 0.000015)
(-1.170599 0.876849 0.000015)
(-0.924256 1.270990 0.000015)
(-0.444225 1.313195 0.000015)
(-0.414446 1.719517 0.000015)
(0.148521 1.324870 0.000015)
(0.863801 0.570867 0.000015)
(1.628067 -0.424647 0.000015)
(2.446665 -1.704363 0.000015)
(3.371678 -3.605873 0.000015)
(4.126746 -5.699400 0.000015)
(4.329408 -6.981004 0.000020)
(4.373587 -8.133955 0.000024)
(4.151800 -8.492406 0.000024)
(3.502539 -7.377390 0.000024)
(2.830966 -5.433805 0.000024)
(2.328473 -3.596501 0.000024)
(1.820698 -1.886394 0.000024)
(1.186993 0.083392 0.000024)
(0.736830 1.729360 0.000024)
(0.497235 2.863905 0.000024)
(-0.252206 1.881532 0.000024)
(-48.429142 0.012937 0.000024)
(46.473399 0.755531 0.000024)
(-2.758099 2.265682 0.000024)
(0.186716 0.208388 0.000024)
(-11.874121 33.740757 0.000024)
(-13.351915 31.986745 -0.000141)
(1.169437 -5.300832 -0.000305)
(0.022400 -2.950064 -0.000305)
(-0.095700 -1.638462 -0.000305)
(-0.042900 -1.075709 -0.000305)
(-0.007270 -0.754184 -0.000305)
(0.011543 -0.505782 -0.000305)
(-0.005475 -0.258638 -0.000305)
(-0.035342 0.054541 -0.000305)
(-0.003445 -0.137560 -0.000316)
(0.024374 -0.897158 -0.000328)
(-0.127368 -0.828765 -0.000328)
(-0.471128 1.730067 -0.000328)
(-0.063878 2.821270 -0.000328)
(4.565219 -4.226071 -0.000328)
)
;
    }
}
