/*--------------------------------*- C++ -*---------------------------------*\ 
| ========                 |                                                 | 
| \      /  F ield         | OpenFOAM: The Open Source CFD Toolbox           | 
|  \    /   O peration     | Version:  v1812                                 | 
|   \  /    A nd           | Web:      www.OpenFOAM.com                      | 
|    \/     M anipulation  |                                                 | 
\*--------------------------------------------------------------------------*/ 
FoamFile
{
    version     2.0;
    format      ascii;
    class       volVectorField;
    location    "/home/james/dafoam/myRuns/bezier_coanda_opt/0.00000000001/";
    object      sens_CL_shapey;
}
// * * * * * * * * * * * * * * * * * * * * * * * * * * * * * * * * * * * * * //

dimensions      [0 0 0 0 0 0 0];
internalField   uniform (0 0 0);
boundaryField
{
    allWalls
    {
        type  wall;
        value nonuniform List<vector>
268
(
(-0.137513 -0.002823 0.000170)
(0.063487 -0.042664 0.000168)
(0.213726 -0.141934 0.000166)
(0.056182 0.014295 0.000163)
(-0.077856 0.109616 0.000161)
(0.037648 -0.075139 0.000160)
(0.049226 -0.071325 0.000158)
(0.025052 -0.059352 0.000157)
(-0.015225 0.032542 0.000334)
(-0.023538 0.035699 0.000541)
(-0.014709 0.032367 0.000601)
(-0.025655 0.063106 0.000665)
(-0.011822 0.038375 0.000734)
(-0.018155 0.060802 0.000809)
(-0.009982 0.042083 0.000887)
(-0.011780 0.049709 0.000967)
(-0.007075 0.034971 0.001545)
(-0.007146 0.036621 0.002197)
(-0.005593 0.032725 0.002431)
(-0.005216 0.032499 0.002679)
(-0.004191 0.030006 0.002938)
(-0.004347 0.034113 0.003203)
(-0.003239 0.029839 0.003474)
(-0.004677 0.048611 0.003750)
(-0.005322 0.054345 0.004019)
(-0.004500 0.051429 0.004793)
(-0.002806 0.039056 0.005671)
(-0.001873 0.034650 0.006146)
(-0.002296 0.046247 0.006632)
(-0.002248 0.056809 0.006914)
(-0.001924 0.062146 0.007298)
(-0.001049 0.055079 0.007912)
(-0.000550 0.061611 0.008451)
(0.000233 0.081298 0.008698)
(0.001433 0.103127 0.008588)
(0.001778 0.076523 0.008255)
(0.003176 0.079346 0.007617)
(0.004820 0.099290 0.006864)
(0.004984 0.081911 0.006127)
(0.006017 0.082397 0.005407)
(0.006737 0.079947 0.004736)
(0.007721 0.080013 0.004106)
(0.008939 0.083118 0.003300)
(0.010754 0.090432 0.002576)
(0.013075 0.100579 0.002142)
(0.014418 0.100895 0.001731)
(0.015963 0.102172 0.001349)
(0.017862 0.105368 0.000997)
(0.019994 0.109425 0.000679)
(0.022470 0.114874 0.000396)
(0.024849 0.119603 0.000304)
(0.027276 0.123182 0.000269)
(0.031151 0.134024 0.000140)
(0.038041 0.159885 0.000038)
(0.041515 0.171356 -0.000054)
(0.037518 0.151732 -0.000135)
(0.040032 0.160726 -0.000205)
(0.047576 0.192421 -0.000264)
(0.050039 0.203612 -0.000315)
(0.048379 0.186469 -0.000298)
(0.044249 0.159215 -0.000255)
(0.038978 0.142915 -0.000248)
(0.041108 0.165956 -0.000239)
(0.051413 0.228051 -0.000230)
(0.059521 0.284816 -0.000221)
(0.057862 0.292485 -0.000212)
(0.045498 0.248560 -0.000203)
(0.053255 0.301194 -0.000407)
(0.059587 0.236304 -0.000615)
(0.095245 0.888833 -0.000615)
(0.231120 -2.545608 -0.000615)
(-0.332906 1.477119 -0.000615)
(-0.159159 0.569502 -0.000367)
(0.007034 -0.011621 -0.000117)
(0.020438 -0.029296 -0.000111)
(0.052826 -0.129663 -0.000104)
(0.121527 -0.355905 -0.000096)
(0.202751 -0.641217 -0.000086)
(0.283894 -0.974113 -0.000075)
(0.288555 -1.118054 -0.000062)
(0.314706 -0.949379 -0.000049)
(0.156942 -0.503656 0.000653)
(-0.055870 -0.122645 0.001454)
(-0.033008 0.004609 0.001669)
(-0.008858 0.042705 0.001884)
(-0.008146 0.052141 0.002091)
(-0.023835 0.114781 0.002287)
(-0.032337 0.158886 0.002461)
(-0.032427 0.178792 0.002607)
(-0.031933 0.190706 0.002929)
(-0.030504 0.194429 0.003204)
(-0.027884 0.190090 0.003206)
(-0.024879 0.181162 0.003131)
(-0.021871 0.170156 0.002978)
(-0.019136 0.159417 0.002744)
(-0.016618 0.148640 0.002430)
(-0.014332 0.138280 0.002046)
(-0.012393 0.129597 0.001865)
(-0.010541 0.121744 0.001151)
(-0.008853 0.114760 0.000059)
(-0.007447 0.108709 -0.000666)
(-0.006184 0.103668 -0.001428)
(-0.004964 0.099507 -0.002188)
(-0.003817 0.096434 -0.002933)
(-0.002711 0.090895 -0.003630)
(-0.001659 0.082326 -0.004117)
(-0.000671 0.081315 -0.004378)
(0.000137 0.069563 -0.004371)
(0.000649 0.053578 -0.004148)
(0.001195 0.053477 -0.003902)
(0.001668 0.050862 -0.003926)
(0.001987 0.045795 -0.003908)
(0.002267 0.042295 -0.003574)
(0.002454 0.038302 -0.003255)
(0.002732 0.036183 -0.002524)
(0.002869 0.033011 -0.001859)
(0.003059 0.030804 -0.001685)
(0.003273 0.029613 -0.001515)
(0.003485 0.028140 -0.001351)
(0.003611 0.026435 -0.001195)
(0.003877 0.025468 -0.001049)
(0.004138 0.024583 -0.000915)
(0.004489 0.023626 -0.000551)
(0.004815 0.022638 -0.000230)
(0.005262 0.021939 -0.000190)
(0.005385 0.020298 -0.000151)
(0.006021 0.020652 -0.000114)
(0.006227 0.020035 -0.000079)
(0.006153 0.017985 -0.000048)
(0.006947 0.019031 -0.000019)
(0.006068 0.014028 0.000008)
(0.007276 0.014215 0.000093)
(0.005852 0.008257 0.000166)
(0.007658 0.006859 0.000166)
(0.008916 0.009003 0.000167)
(0.010899 0.012247 0.000167)
(0.017843 0.028170 0.000168)
(-0.012380 0.039043 0.000169)
(-0.121731 0.020420 0.000170)
(-0.209174 -0.000393 0.000170)
(0.070030 0.798069 -0.000615)
(-0.009408 -0.321079 -0.000615)
(-0.011615 -0.377557 -0.000615)
(-0.000481 0.265801 -0.000615)
(0.038637 0.687841 -0.000615)
(0.085942 0.535371 -0.000615)
(0.073286 0.495460 -0.000584)
(0.063945 0.938562 -0.000552)
(0.140932 2.169321 -0.000552)
(0.313970 3.293291 -0.000552)
(0.591665 1.898454 -0.000552)
(0.402642 5.090077 -0.000552)
(-0.302921 17.871309 -0.000552)
(-0.032944 23.397045 -0.000552)
(-49.417329 -123.727442 -0.000263)
(4.177714 -525.179041 0.000025)
(-71.477825 -30.283103 0.000025)
(-21.365070 -17.990166 0.000025)
(-65.210927 -139.468991 0.000025)
(49.369185 532.280926 0.000025)
(-20.167855 52.866080 0.000025)
(-2.548305 21.767011 0.000025)
(-3.805227 -4.394771 0.000025)
(-3.286196 -7.360693 0.000025)
(-2.413423 -3.576682 0.000025)
(-0.736877 0.823053 0.000025)
(1.883086 12.377603 0.000025)
(3.392656 17.977873 0.000025)
(4.425100 21.545125 0.000025)
(3.922151 18.866881 0.000025)
(4.123820 17.017766 0.000021)
(3.873875 13.326909 0.000016)
(3.590065 9.053910 0.000016)
(4.143371 7.402528 0.000016)
(7.292854 11.808334 0.000016)
(12.179654 19.916041 0.000016)
(12.341624 20.260733 0.000016)
(10.755268 17.152487 0.000016)
(9.304038 14.365601 0.000016)
(8.566744 12.463798 0.000016)
(8.688508 11.925739 0.000016)
(5.475398 8.110034 0.000016)
(3.981550 6.290646 0.000016)
(2.299148 4.814446 0.000016)
(0.042786 2.950018 0.000016)
(-1.528939 2.080401 0.000016)
(-4.346148 0.323510 0.000016)
(-7.729942 -1.491302 0.000016)
(-10.513415 -2.592594 0.000016)
(-11.590211 -2.401999 0.000016)
(-15.696244 -3.550522 0.000016)
(-18.091379 -3.643632 0.000016)
(-21.009902 -3.526337 0.000016)
(-23.809710 -3.295272 0.000016)
(-25.643725 -2.260676 0.000016)
(-27.671997 -1.259292 0.000016)
(-28.173687 0.435683 0.000016)
(-28.710222 2.044836 0.000016)
(-26.380119 4.300973 0.000016)
(-21.965236 6.757212 0.000016)
(-20.339415 8.520537 0.000016)
(-18.117343 9.677577 0.000016)
(-7.698750 10.561060 0.000016)
(0.172398 9.999435 0.000016)
(6.298818 8.200572 0.000016)
(13.480328 5.838921 0.000016)
(18.804520 2.841337 0.000016)
(24.467421 -0.631593 0.000016)
(27.358732 -3.923900 0.000016)
(27.772900 -6.703052 0.000016)
(25.658541 -8.464120 0.000016)
(24.886256 -10.106056 0.000016)
(21.865791 -10.683195 0.000016)
(18.977605 -11.232359 0.000016)
(15.687479 -11.073763 0.000016)
(11.886900 -10.537386 0.000016)
(9.259459 -9.850376 0.000016)
(6.082054 -8.658934 0.000016)
(4.003840 -7.491967 0.000016)
(1.755269 -6.016839 0.000016)
(0.546847 -4.830130 0.000016)
(-0.700715 -3.478091 0.000016)
(-1.281063 -2.332454 0.000016)
(-1.873840 -1.141741 0.000016)
(-1.856416 -0.372416 0.000016)
(-1.562576 0.097071 0.000016)
(-1.407651 0.673131 0.000016)
(-1.368060 1.251617 0.000016)
(-1.159797 1.598014 0.000016)
(-1.020883 1.907638 0.000016)
(-0.473650 1.640091 0.000016)
(-0.070363 1.456946 0.000016)
(0.361358 1.100119 0.000016)
(1.075615 0.277851 0.000016)
(2.448951 -1.975179 0.000016)
(3.133392 -3.419536 0.000016)
(3.479421 -4.743336 0.000016)
(4.333720 -7.325059 0.000021)
(4.295012 -7.982018 0.000025)
(3.970158 -7.935231 0.000025)
(3.463475 -7.161635 0.000025)
(2.757922 -5.185569 0.000025)
(2.282701 -3.465107 0.000025)
(1.782725 -1.760887 0.000025)
(1.174420 0.033777 0.000025)
(0.687182 1.592527 0.000025)
(0.405300 2.689885 0.000025)
(-0.260550 1.851198 0.000025)
(-48.393879 0.128613 0.000025)
(46.552024 0.847415 0.000025)
(-2.842928 2.579614 0.000025)
(0.278338 0.789878 0.000025)
(-10.537861 28.806358 0.000025)
(-12.495256 27.301352 -0.000263)
(0.882523 -4.459514 -0.000552)
(0.048204 -2.677766 -0.000552)
(-0.021158 -1.492840 -0.000552)
(0.018113 -0.959726 -0.000552)
(0.043582 -0.669537 -0.000552)
(0.038604 -0.334934 -0.000552)
(0.028728 -0.122150 -0.000552)
(0.015266 0.068345 -0.000552)
(0.023569 0.051831 -0.000584)
(0.042655 -0.235473 -0.000615)
(-0.018177 -0.058775 -0.000615)
(-0.162703 1.449695 -0.000615)
(-0.037445 1.856884 -0.000615)
(0.488416 -2.880587 -0.000615)
)
;
    }
}
