/*--------------------------------*- C++ -*----------------------------------*\
  =========                 |
  \\      /  F ield         | OpenFOAM: The Open Source CFD Toolbox
   \\    /   O peration     | Website:  https://openfoam.org
    \\  /    A nd           | Version:  8
     \\/     M anipulation  |
\*---------------------------------------------------------------------------*/
FoamFile
{
    version     2.0;
    format      ascii;
    class       volVectorField;
    location    "0.12";
    object      U;
}
// * * * * * * * * * * * * * * * * * * * * * * * * * * * * * * * * * * * * * //

dimensions      [0 1 -1 0 0 0 0];

internalField   nonuniform List<vector> 
109013
(
(15 3.45006e-08 -1.5267e-26)
(15 4.84501e-08 -6.20171e-25)
(15 8.10908e-08 -3.94548e-24)
(15 2.36071e-07 1.51301e-24)
(15 4.01368e-07 3.20625e-23)
(15 5.89074e-07 -3.85184e-23)
(15 7.82547e-07 -1.67952e-24)
(15 9.97775e-07 1.95802e-23)
(15 1.23763e-06 6.87768e-23)
(15 1.50834e-06 -1.24544e-22)
(15 1.79009e-06 -3.59762e-24)
(15 2.09133e-06 2.56173e-22)
(15 2.4205e-06 1.81549e-22)
(15 2.76051e-06 2.05682e-22)
(15 3.12302e-06 1.97345e-22)
(15 3.49775e-06 3.52017e-22)
(15 3.88657e-06 -2.79719e-22)
(15 4.303e-06 5.23838e-22)
(15 4.72208e-06 -4.09642e-22)
(15 5.15212e-06 -6.39994e-22)
(15 5.59728e-06 -1.20811e-21)
(15 6.06135e-06 -5.39013e-22)
(15 6.52453e-06 -5.81155e-22)
(15 7.00988e-06 -3.47728e-22)
(15 7.49535e-06 3.09517e-22)
(15 8.00429e-06 7.08473e-22)
(15 8.51537e-06 -1.15118e-21)
(15 9.02911e-06 1.58744e-21)
(15 9.55903e-06 -1.13132e-23)
(15 1.00981e-05 8.75695e-22)
(15 1.06477e-05 8.8962e-22)
(15 1.11926e-05 1.12071e-23)
(15 1.17479e-05 9.56545e-22)
(15 1.2313e-05 1.00988e-21)
(15 1.28661e-05 -1.03883e-21)
(15 1.34403e-05 1.18936e-23)
(15 1.4011e-05 -1.68496e-21)
(15 1.45904e-05 1.10508e-21)
(15 1.51893e-05 -4.85716e-22)
(15 1.57666e-05 2.31e-21)
(15 1.6364e-05 -2.34841e-21)
(15 1.69542e-05 1.91011e-21)
(15 1.75374e-05 4.63851e-22)
(15 1.81312e-05 -1.17695e-23)
(15 1.87336e-05 1.23772e-21)
(15 1.9323e-05 4.19006e-22)
(15 1.9936e-05 1.24589e-21)
(15 2.05384e-05 -2.10565e-21)
(15 2.11227e-05 -1.2714e-21)
(15 2.17294e-05 3.06691e-21)
(15 2.23192e-05 9.28398e-22)
(15 2.29234e-05 2.5346e-21)
(15 2.35142e-05 2.53533e-21)
(15 2.41225e-05 -9.82543e-22)
(15 2.47118e-05 -1.01412e-21)
(15 2.52981e-05 -1.2579e-21)
(15 2.58862e-05 -2.50507e-21)
(15 2.64805e-05 1.06424e-21)
(15 2.70529e-05 1.24709e-21)
(15 2.76421e-05 -1.23714e-21)
(15 2.82229e-05 1.22684e-21)
(15 2.87815e-05 -9.18467e-24)
(15 2.9359e-05 1.2002e-21)
(15 2.99199e-05 -9.47647e-24)
(15 3.04873e-05 1.16902e-21)
(15 3.10489e-05 -2.37282e-21)
(15 3.15917e-05 0)
(15 3.21591e-05 -1.10706e-21)
(15 3.27031e-05 1.08759e-21)
(15 3.3237e-05 1.06597e-21)
(15 3.37674e-05 2.35439e-21)
(15 3.42921e-05 -1.31961e-21)
(15 3.48061e-05 -2.00692e-21)
(15 3.53169e-05 2.34695e-21)
(15 3.5838e-05 -2.76683e-21)
(15 3.63426e-05 1.38733e-21)
(15 3.68201e-05 3.20601e-21)
(15 3.73268e-05 -5.74616e-22)
(15 3.78027e-05 0)
(15 3.82757e-05 0)
(15 3.87272e-05 0)
(15 3.91944e-05 -7.37704e-22)
(15 3.96466e-05 0)
(15 4.00981e-05 -8.53501e-22)
(15 4.05231e-05 3.07082e-21)
(15 4.09379e-05 1.21407e-21)
(15 4.13701e-05 -5.28198e-21)
(15 4.17728e-05 1.05514e-21)
(15 4.21712e-05 1.11105e-21)
(15 4.25609e-05 -1.61097e-21)
(15 4.29494e-05 -4.14566e-22)
(15 4.33287e-05 3.74877e-22)
(15 4.36872e-05 3.29552e-22)
(15 4.40371e-05 3.04632e-21)
(15 4.43712e-05 3.60972e-21)
(15 4.47049e-05 -1.48698e-21)
(15 4.50222e-05 -3.41318e-21)
(15 4.534e-05 0)
(15 4.56335e-05 7.14439e-23)
(15 4.59216e-05 1.74334e-21)
(15 4.62003e-05 -1.89746e-23)
(15 4.64703e-05 -1.6964e-21)
(15 4.6734e-05 0)
(15 4.69726e-05 3.56142e-21)
(15 4.72109e-05 -8.35752e-22)
(15 4.74306e-05 -1.53736e-21)
(15 4.76494e-05 -6.14461e-22)
(15 4.78495e-05 -1.81205e-21)
(15 4.80393e-05 -2.22695e-21)
(15 4.82035e-05 9.13852e-22)
(15 4.83559e-05 5.01338e-22)
(15 4.85045e-05 1.84559e-21)
(15 4.86406e-05 -6.16294e-22)
(15 4.87695e-05 1.86528e-21)
(15 4.88601e-05 -1.43512e-21)
(15 4.89688e-05 -1.08561e-21)
(15 4.90622e-05 -2.69874e-21)
(15 4.91192e-05 8.85063e-22)
(15 4.91716e-05 4.70273e-21)
(15 4.92009e-05 -2.8567e-21)
(15 4.92462e-05 -1.88108e-21)
(15 4.92591e-05 2.15814e-21)
(15 4.92636e-05 1.89713e-21)
(15 4.92218e-05 7.04552e-22)
(15 4.92144e-05 -6.28253e-21)
(15 4.91641e-05 1.31079e-21)
(15 4.90849e-05 5.39878e-22)
(15 4.90139e-05 -3.8021e-21)
(15 4.89319e-05 4.826e-21)
(15 4.88274e-05 3.81039e-22)
(15 4.87079e-05 -1.89741e-21)
(15 4.85754e-05 -1.31566e-21)
(15 4.84202e-05 3.56111e-21)
(15 4.82208e-05 -3.62242e-21)
(15 4.80506e-05 1.64733e-21)
(15 4.78417e-05 1.90234e-21)
(15 4.76145e-05 1.88423e-21)
(15 4.73877e-05 -3.81887e-21)
(15 4.71235e-05 -5.74022e-21)
(15 4.68805e-05 1.83587e-23)
(15 4.65889e-05 1.86793e-21)
(15 4.62715e-05 0)
(15 4.59712e-05 2.16478e-21)
(15 4.56201e-05 0)
(15 4.52669e-05 -1.85644e-21)
(15 4.49037e-05 2.3211e-21)
(15 4.4521e-05 -5.23272e-22)
(15 4.40881e-05 2.38392e-21)
(15 4.36731e-05 1.81795e-21)
(15 4.32168e-05 -4.94005e-21)
(15 4.27718e-05 -1.0673e-21)
(15 4.22766e-05 7.7568e-22)
(15 4.18088e-05 4.33079e-21)
(15 4.12861e-05 -8.66109e-22)
(15 4.07215e-05 0)
(15 4.01869e-05 9.29375e-22)
(15 3.96039e-05 4.3891e-21)
(15 3.90182e-05 4.30629e-21)
(15.0001 3.84339e-05 -4.33276e-21)
(15.0001 3.78116e-05 1.08343e-21)
(15.0001 3.71475e-05 2.81862e-23)
(15.0001 3.65064e-05 1.55545e-21)
(15.0001 3.57865e-05 -1.55503e-21)
(15.0001 3.5087e-05 3.08696e-21)
(15.0001 3.43807e-05 1.83159e-22)
(15.0001 3.36359e-05 -5.61501e-21)
(15.0001 3.29164e-05 -1.40375e-21)
(15.0001 3.21326e-05 -1.2765e-21)
(15.0001 3.13418e-05 -3.17538e-23)
(15.0001 3.05455e-05 3.42772e-23)
(15.0001 2.96981e-05 1.25536e-21)
(15.0001 2.88428e-05 5.7419e-26)
(15.0001 2.79734e-05 -7.36288e-21)
(15.0001 2.71128e-05 3.75905e-21)
(15.0001 2.62158e-05 -3.64375e-21)
(15.0001 2.52771e-05 3.35229e-21)
(15.0001 2.43685e-05 -3.26284e-21)
(15.0001 2.34068e-05 2.73864e-22)
(15.0001 2.24697e-05 2.95798e-21)
(15.0001 2.14695e-05 -2.65741e-22)
(15.0001 2.0479e-05 -1.87994e-21)
(15.0001 1.9482e-05 1.77634e-21)
(15.0001 1.84582e-05 6.60748e-22)
(15.0001 1.73667e-05 -8.77833e-22)
(15.0001 1.63146e-05 -3.38633e-21)
(15.0001 1.52387e-05 1.55283e-21)
(15.0001 1.41256e-05 -1.14404e-21)
(15.0001 1.30217e-05 6.07326e-22)
(15.0001 1.186e-05 1.26998e-21)
(15.0001 1.07351e-05 -5.10888e-22)
(15.0001 9.58283e-06 1.60431e-22)
(15.0001 8.3531e-06 5.57389e-22)
(15.0001 7.20339e-06 -6.19139e-22)
(15.0001 6.11611e-06 3.66041e-22)
(15.0001 5.01231e-06 1.65038e-22)
(15 3.64787e-06 2.36355e-22)
(15 2.10115e-06 -1.16905e-22)
(15 7.51576e-07 -8.19313e-23)
(15 5.95321e-08 4.61299e-23)
(15 8.3737e-07 -6.1766e-24)
(15 6.68377e-08 4.72165e-26)
(15 3.65566e-07 -2.48813e-24)
(15 1.57744e-07 -7.60593e-25)
(15 3.6391e-07 -1.68864e-23)
(15 7.71661e-07 2.88491e-23)
(15 1.31457e-06 -2.55012e-23)
(15 1.89259e-06 -6.41785e-23)
(15 2.50216e-06 2.76935e-24)
(15 3.16314e-06 2.84199e-23)
(15 3.91357e-06 7.47588e-24)
(15 4.72376e-06 -1.18651e-22)
(15 5.59067e-06 6.98107e-23)
(15 6.5239e-06 2.30688e-22)
(15 7.50456e-06 -1.691e-22)
(15 8.55207e-06 7.52108e-22)
(15 9.64927e-06 7.18547e-23)
(15 1.07871e-05 -5.69606e-22)
(15 1.19874e-05 -8.57168e-23)
(15 1.32229e-05 4.24705e-22)
(15 1.44997e-05 -1.96697e-24)
(15 1.58169e-05 -2.53299e-22)
(14.9999 1.71825e-05 -9.34035e-22)
(14.9999 1.85693e-05 -6.96332e-22)
(14.9999 2.00045e-05 -2.255e-24)
(14.9999 2.14589e-05 -3.50617e-22)
(14.9999 2.29599e-05 7.43791e-22)
(14.9999 2.44939e-05 3.25169e-23)
(14.9999 2.60432e-05 2.90794e-23)
(14.9999 2.76201e-05 -4.92165e-22)
(14.9999 2.92298e-05 -4.78536e-22)
(14.9999 3.08614e-05 4.94345e-22)
(14.9999 3.25093e-05 2.65207e-23)
(14.9999 3.41846e-05 -1.68239e-21)
(14.9999 3.58815e-05 4.58363e-21)
(14.9999 3.75775e-05 6.20372e-22)
(14.9999 3.93044e-05 1.19189e-21)
(14.9999 4.10335e-05 -1.32191e-21)
(14.9999 4.27842e-05 -2.41705e-23)
(14.9999 4.45739e-05 1.28952e-21)
(14.9999 4.63385e-05 3.27591e-21)
(14.9999 4.81366e-05 2.09911e-21)
(14.9999 4.99317e-05 -2.70888e-22)
(14.9999 5.17228e-05 1.33558e-21)
(14.9999 5.35288e-05 0)
(14.9999 5.53506e-05 5.05901e-22)
(14.9999 5.71596e-05 -8.88966e-22)
(14.9999 5.90028e-05 3.1769e-21)
(14.9999 6.08223e-05 -1.81402e-21)
(14.9999 6.26253e-05 -3.29094e-21)
(14.9999 6.44594e-05 9.56756e-22)
(14.9999 6.62848e-05 1.41413e-21)
(14.9999 6.81081e-05 7.33117e-22)
(14.9999 6.99155e-05 4.84473e-21)
(14.9999 7.17541e-05 2.46516e-21)
(14.9999 7.35578e-05 -1.17274e-23)
(14.9999 7.53609e-05 8.32431e-22)
(14.9999 7.71652e-05 -1.11041e-21)
(14.9999 7.89581e-05 -2.30314e-21)
(14.9999 8.07304e-05 3.8579e-21)
(14.9999 8.25193e-05 2.6833e-21)
(14.9999 8.42832e-05 1.14138e-22)
(14.9999 8.60232e-05 0)
(14.9999 8.77788e-05 1.29687e-21)
(14.9999 8.95056e-05 -1.27936e-21)
(14.9999 9.12282e-05 2.54113e-21)
(14.9999 9.29335e-05 7.47692e-24)
(14.9999 9.46263e-05 -9.64816e-24)
(14.9999 9.63245e-05 -2.52843e-21)
(14.9999 9.79876e-05 -2.72602e-21)
(14.9999 9.96285e-05 5.8713e-25)
(14.9999 0.000101252 2.78216e-21)
(14.9999 0.000102871 2.83541e-21)
(15 0.000104461 -1.43055e-21)
(15 0.000106025 6.57121e-22)
(15 0.0001076 -1.46226e-21)
(15 0.00010914 -2.48546e-21)
(15 0.00011064 9.70059e-22)
(15 0.000112162 1.51518e-21)
(15 0.00011363 2.44396e-21)
(15 0.000115078 -8.72602e-22)
(15 0.000116487 2.40514e-21)
(15 0.0001179 8.10021e-22)
(15 0.000119284 -3.96958e-21)
(15 0.000120652 -1.61872e-21)
(15 0.000121969 1.6297e-21)
(15 0.00012326 2.96743e-21)
(15 0.000124551 -3.8942e-25)
(15 0.000125807 1.67673e-21)
(15 0.000127023 4.30439e-24)
(15 0.000128219 -2.20766e-21)
(15 0.000129407 -2.17737e-21)
(15 0.000130546 -3.8867e-21)
(15 0.000131646 3.12534e-21)
(15 0.000132715 3.53226e-21)
(15 0.000133759 8.41374e-22)
(15 0.000134795 7.0698e-22)
(15 0.000135773 -1.99769e-21)
(15 0.000136736 -1.8204e-21)
(15 0.000137634 -7.43629e-25)
(15 0.000138517 1.80158e-21)
(15 0.00013937 1.85392e-21)
(15 0.000140194 -4.18517e-25)
(15 0.000141002 -1.87754e-21)
(15 0.000141742 -3.77722e-21)
(15 0.000142464 1.48717e-21)
(15 0.000143121 1.64228e-21)
(15 0.000143767 -2.21949e-21)
(15 0.000144382 -3.42185e-24)
(15 0.000144957 1.51657e-21)
(15 0.000145485 3.87229e-21)
(15 0.000145949 -4.41681e-21)
(15 0.0001464 -1.94379e-21)
(15 0.00014682 -3.53124e-24)
(15 0.000147184 6.93312e-22)
(15 0.000147497 4.80328e-22)
(15 0.000147802 1.60057e-21)
(15 0.000148066 -1.98877e-21)
(15 0.000148255 9.19214e-22)
(15 0.000148411 5.27058e-23)
(15 0.000148519 -1.02791e-21)
(15 0.000148618 5.10364e-21)
(15.0001 0.000148653 -1.56056e-23)
(15.0001 0.000148646 -4.01941e-21)
(15.0001 0.000148551 -3.28146e-21)
(15.0001 0.000148469 7.11403e-24)
(15.0001 0.000148315 4.76464e-21)
(15.0001 0.000148092 -1.43288e-21)
(15.0001 0.000147865 2.03644e-21)
(15.0001 0.000147581 3.08864e-21)
(15.0001 0.000147233 -3.63173e-21)
(15.0001 0.000146856 -4.07853e-21)
(15.0001 0.000146429 5.82643e-21)
(15.0001 0.000145944 4.02413e-21)
(15.0001 0.000145379 -1.81222e-21)
(15.0001 0.000144794 -2.26777e-23)
(15.0001 0.000144162 -5.30266e-23)
(15.0001 0.000143472 -2.02845e-21)
(15.0001 0.000142744 -6.12977e-21)
(15.0001 0.000141937 1.04215e-22)
(15.0001 0.000141122 6.39021e-21)
(15.0001 0.000140232 4.24388e-21)
(15.0001 0.000139263 -2.65069e-22)
(15.0001 0.000138284 -1.83391e-23)
(15.0001 0.00013723 4.02161e-22)
(15.0001 0.000136114 0)
(15.0001 0.000134958 5.01163e-22)
(15.0001 0.000133756 2.01495e-21)
(15.0001 0.000132441 1.9424e-21)
(15.0001 0.000131139 -3.93174e-21)
(15.0001 0.000129754 -7.07203e-22)
(15.0001 0.000128314 1.9092e-21)
(15.0001 0.000126802 8.62128e-22)
(15.0001 0.000125298 3.70496e-21)
(15.0001 0.000123701 -2.83196e-21)
(15.0001 0.000121994 3.78221e-21)
(15.0001 0.000120295 -2.94766e-21)
(15.0001 0.000118504 4.86802e-21)
(15.0001 0.00011668 -4.89913e-21)
(15.0002 0.000114817 1.26287e-21)
(15.0002 0.000112872 2.9763e-21)
(15.0002 0.000110842 4.3747e-21)
(15.0002 0.000108813 1.73678e-21)
(15.0002 0.000106638 1.33412e-21)
(15.0002 0.000104472 1.75435e-21)
(15.0002 0.000102271 1.61577e-21)
(15.0002 9.99812e-05 -4.72129e-21)
(15.0002 9.76748e-05 -4.71049e-21)
(15.0002 9.52632e-05 1.62573e-21)
(15.0002 9.28028e-05 -1.55891e-21)
(15.0002 9.03079e-05 3.80976e-23)
(15.0002 8.77425e-05 -1.54549e-21)
(15.0002 8.51174e-05 -8.81654e-21)
(15.0002 8.24656e-05 6.48558e-23)
(15.0002 7.97631e-05 4.30129e-21)
(15.0002 7.6967e-05 2.90405e-21)
(15.0002 7.41281e-05 2.41253e-21)
(15.0002 7.12902e-05 -6.50783e-21)
(15.0002 6.83523e-05 2.58653e-21)
(15.0002 6.54162e-05 1.39043e-21)
(15.0002 6.2369e-05 2.4241e-21)
(15.0002 5.93132e-05 1.9239e-21)
(15.0002 5.6205e-05 -1.27063e-21)
(15.0002 5.30426e-05 -8.62097e-22)
(15.0002 4.97923e-05 -2.6682e-21)
(15.0002 4.65584e-05 -2.09019e-21)
(15.0002 4.32442e-05 -7.29819e-22)
(15.0002 3.9871e-05 -1.96854e-21)
(15.0002 3.65117e-05 4.67023e-22)
(15.0002 3.30669e-05 -4.30485e-22)
(15.0002 2.96073e-05 3.99515e-22)
(15.0002 2.60611e-05 -2.56706e-23)
(15.0002 2.25366e-05 -5.36446e-22)
(15.0002 1.92662e-05 3.81493e-22)
(15.0002 1.58231e-05 1.09526e-21)
(15.0002 1.16719e-05 -9.36387e-23)
(15.0001 6.79894e-06 -1.6019e-23)
(15.0001 2.76073e-06 -2.84482e-22)
(15.0001 1.75896e-06 1.53837e-22)
(15.0001 5.48235e-06 -2.62069e-23)
(15.0004 1.99632e-06 -2.31936e-23)
(15 4.43591e-08 -2.76239e-25)
(15 6.32807e-07 2.01607e-25)
(15 5.00875e-07 2.1713e-24)
(15 5.4871e-07 -8.81972e-24)
(15 9.43291e-07 -1.09924e-23)
(15 1.71318e-06 5.57605e-23)
(15 2.66659e-06 -1.70085e-23)
(15 3.68172e-06 0)
(15 4.75344e-06 -1.71781e-22)
(15 5.94654e-06 3.0026e-22)
(15 7.25633e-06 -2.9489e-22)
(14.9999 8.67045e-06 7.15234e-23)
(14.9999 1.01811e-05 8.18683e-23)
(14.9999 1.17846e-05 -3.55517e-22)
(14.9999 1.34948e-05 2.91948e-22)
(14.9999 1.52929e-05 1.50995e-22)
(14.9999 1.71642e-05 -8.01849e-22)
(14.9999 1.91286e-05 -8.83067e-22)
(14.9999 2.1162e-05 2.84978e-22)
(14.9999 2.32705e-05 3.19321e-22)
(14.9999 2.54512e-05 1.17613e-21)
(14.9999 2.77011e-05 2.83245e-22)
(14.9999 3.00099e-05 3.91989e-22)
(14.9999 3.23869e-05 -7.46878e-22)
(14.9999 3.48045e-05 3.59635e-22)
(14.9999 3.72896e-05 -1.66113e-21)
(14.9999 3.98342e-05 1.75134e-21)
(14.9999 4.241e-05 4.24035e-22)
(14.9999 4.50303e-05 4.624e-22)
(14.9999 4.77088e-05 -4.79897e-22)
(14.9999 5.04186e-05 -1.05097e-21)
(14.9999 5.31733e-05 1.61565e-21)
(14.9999 5.59684e-05 -2.77923e-21)
(14.9999 5.87989e-05 -1.75998e-21)
(14.9999 6.16426e-05 2.41203e-21)
(14.9999 6.45337e-05 2.39726e-21)
(14.9999 6.74315e-05 1.22623e-21)
(14.9999 7.03597e-05 -6.86858e-22)
(14.9999 7.33367e-05 5.5604e-22)
(14.9999 7.63046e-05 -2.58812e-21)
(14.9999 7.92997e-05 3.39355e-21)
(14.9999 8.23179e-05 7.96173e-22)
(14.9999 8.53331e-05 1.3462e-21)
(14.9999 8.83812e-05 1.36137e-21)
(14.9999 9.14383e-05 0)
(14.9999 9.44814e-05 -8.8143e-22)
(14.9999 9.75578e-05 3.99219e-22)
(14.9999 0.000100623 2.36118e-21)
(14.9999 0.000103681 -1.9253e-21)
(14.9999 0.000106756 -1.41145e-21)
(14.9999 0.000109837 1.82997e-21)
(14.9999 0.000112918 -2.44161e-21)
(14.9999 0.000115963 -1.78517e-21)
(14.9999 0.000119042 3.89232e-21)
(14.9999 0.000122096 1.08364e-21)
(14.9999 0.000125152 1.41351e-21)
(14.9999 0.000128184 3.0456e-21)
(14.9999 0.000131212 2.38246e-22)
(14.9999 0.000134225 -2.34716e-21)
(14.9999 0.000137233 2.54872e-21)
(14.9999 0.000140219 3.79641e-21)
(14.9999 0.000143171 1.33995e-21)
(14.9999 0.00014613 1.24915e-21)
(14.9999 0.000149067 9.20565e-24)
(14.9999 0.000151974 -3.88709e-21)
(14.9999 0.000154857 2.55112e-21)
(14.9999 0.000157728 1.32761e-21)
(14.9999 0.000160577 1.24352e-21)
(14.9999 0.000163394 -2.59107e-21)
(14.9999 0.000166177 -1.6849e-24)
(14.9999 0.000168936 2.37322e-22)
(14.9999 0.000171683 -1.41297e-21)
(14.9999 0.000174393 -1.7824e-21)
(14.9999 0.000177049 2.5482e-21)
(14.9999 0.000179688 2.54449e-21)
(14.9999 0.000182311 -1.03172e-21)
(14.9999 0.000184883 -1.0017e-21)
(14.9999 0.000187424 -3.46841e-21)
(14.9999 0.000189923 6.03739e-22)
(14.9999 0.000192388 -8.89461e-22)
(14.9999 0.00019479 -3.17297e-21)
(14.9999 0.000197181 4.03209e-21)
(14.9999 0.000199532 2.54986e-23)
(14.9999 0.000201846 -3.26889e-21)
(14.9999 0.000204083 -5.76024e-24)
(15 0.000206289 4.33162e-24)
(15 0.000208466 -2.33188e-21)
(15 0.000210607 1.69488e-21)
(15 0.000212679 2.85862e-21)
(15 0.000214713 5.29246e-22)
(15 0.000216704 4.79166e-22)
(15 0.000218631 2.58425e-24)
(15 0.000220512 -2.16932e-21)
(15 0.000222338 -3.22402e-21)
(15 0.000224121 -1.80554e-21)
(15 0.000225869 5.44582e-21)
(15 0.00022753 1.62158e-21)
(15 0.000229144 -1.84254e-21)
(15 0.000230684 1.74322e-21)
(15 0.000232199 6.36981e-23)
(15 0.000233647 -1.86902e-21)
(15 0.000235028 3.89251e-23)
(15 0.000236382 0)
(15 0.000237658 1.41407e-22)
(15 0.00023888 -1.72656e-21)
(15 0.000240005 -2.45805e-22)
(15 0.000241087 2.23954e-21)
(15 0.000242115 -2.65769e-21)
(15 0.000243075 -1.95313e-21)
(15 0.000243975 1.47952e-25)
(15 0.00024479 -1.66236e-24)
(15 0.000245547 3.96005e-21)
(15 0.000246245 1.97781e-21)
(15.0001 0.000246848 -1.98907e-21)
(15.0001 0.000247394 2.00052e-21)
(15.0001 0.000247888 2.80377e-21)
(15.0001 0.000248326 -4.02953e-21)
(15.0001 0.000248651 -3.11048e-21)
(15.0001 0.000248907 1.04941e-21)
(15.0001 0.000249092 5.08657e-21)
(15.0001 0.000249238 1.08415e-21)
(15.0001 0.000249278 -3.18506e-21)
(15.0001 0.000249248 0)
(15.0001 0.000249132 2.05084e-21)
(15.0001 0.000248943 3.37529e-21)
(15.0001 0.000248656 -2.05462e-21)
(15.0001 0.000248313 -2.04864e-21)
(15.0001 0.000247911 2.06205e-21)
(15.0001 0.000247397 -3.14855e-21)
(15.0001 0.000246789 -2.05428e-21)
(15.0001 0.000246124 2.06669e-21)
(15.0001 0.000245383 3.8071e-21)
(15.0001 0.000244546 -5.6814e-21)
(15.0001 0.000243615 -1.88832e-22)
(15.0001 0.000242603 -1.7832e-21)
(15.0002 0.000241521 1.96838e-21)
(15.0002 0.00024035 -4.09227e-21)
(15.0002 0.000239076 2.06388e-21)
(15.0002 0.000237711 4.20408e-21)
(15.0002 0.000236296 2.21691e-21)
(15.0002 0.000234766 -1.84056e-21)
(15.0002 0.000233132 -2.01383e-21)
(15.0002 0.000231424 6.4465e-21)
(15.0002 0.000229623 -1.9468e-23)
(15.0002 0.00022774 -2.01366e-21)
(15.0002 0.000225739 0)
(15.0002 0.000223666 5.1728e-21)
(15.0002 0.000221465 -5.2752e-21)
(15.0002 0.000219245 0)
(15.0002 0.000216868 2.73185e-21)
(15.0002 0.000214402 -2.77739e-21)
(15.0002 0.000211853 1.97023e-21)
(15.0002 0.000209242 8.79595e-22)
(15.0002 0.000206515 3.90041e-21)
(15.0002 0.000203659 -2.69377e-23)
(15.0002 0.000200766 -5.90675e-21)
(15.0002 0.000197728 1.8667e-21)
(15.0002 0.000194592 -7.20602e-21)
(15.0003 0.000191407 4.88072e-21)
(15.0003 0.000188088 -3.07005e-21)
(15.0003 0.000184691 -1.80339e-21)
(15.0003 0.000181221 -3.07369e-21)
(15.0003 0.000177584 1.32228e-21)
(15.0003 0.000173919 4.93074e-21)
(15.0003 0.000170177 -1.51639e-21)
(15.0003 0.000166289 -8.09098e-21)
(15.0003 0.000162359 -6.20195e-21)
(15.0003 0.000158289 4.68984e-21)
(15.0003 0.00015413 -6.17754e-21)
(15.0003 0.000149893 0)
(15.0003 0.000145588 -4.53646e-21)
(15.0003 0.000141163 -1.49209e-21)
(15.0003 0.000136699 5.7158e-21)
(15.0003 0.000132142 -2.89232e-21)
(15.0003 0.000127444 4.35208e-21)
(15.0003 0.000122685 -5.28755e-21)
(15.0003 0.000117887 2.72374e-21)
(15.0003 0.000112951 3.73252e-21)
(15.0003 0.00010796 3.6299e-21)
(15.0003 0.000102872 3.44035e-21)
(15.0003 9.77112e-05 3.07524e-22)
(15.0003 9.24821e-05 6.14458e-23)
(15.0003 8.71859e-05 -1.27083e-21)
(15.0003 8.17774e-05 1.15864e-21)
(15.0003 7.63407e-05 0)
(15.0003 7.07865e-05 -2.33363e-21)
(15.0003 6.51491e-05 3.03426e-21)
(15.0003 5.95074e-05 -1.38239e-21)
(15.0003 5.37682e-05 -6.84791e-22)
(15.0003 4.79218e-05 3.51011e-22)
(15.0003 4.20381e-05 -2.4482e-21)
(15.0003 3.63357e-05 3.14264e-22)
(15.0003 3.06568e-05 7.92359e-22)
(15.0003 2.40277e-05 1.27927e-22)
(15.0003 1.62106e-05 1.62575e-23)
(15.0002 9.04323e-06 -1.75296e-22)
(15.0002 6.07603e-06 7.19923e-23)
(15.0002 8.40337e-06 -1.01176e-23)
(15.0003 1.06138e-05 -1.06236e-22)
(15.0007 1.85887e-06 5.97314e-24)
(14.9999 4.32872e-08 3.8559e-25)
(15 7.21961e-07 -1.02434e-25)
(15 9.12336e-07 0)
(15 8.9297e-07 0)
(15 1.09004e-06 -5.03628e-24)
(15 1.86917e-06 -9.89373e-24)
(15 3.09259e-06 -2.60984e-23)
(14.9999 4.49961e-06 -1.51666e-23)
(14.9999 5.98033e-06 -5.52793e-23)
(14.9999 7.58898e-06 9.9025e-23)
(14.9999 9.35737e-06 -7.73868e-23)
(14.9999 1.12814e-05 -7.38509e-23)
(14.9999 1.33463e-05 -1.26907e-22)
(14.9999 1.55502e-05 8.34067e-25)
(14.9999 1.7894e-05 -5.93803e-22)
(14.9999 2.03659e-05 4.76783e-22)
(14.9999 2.29519e-05 1.61043e-22)
(14.9999 2.56605e-05 2.60908e-22)
(14.9999 2.8479e-05 -6.92993e-22)
(14.9999 3.14031e-05 3.14781e-22)
(14.9999 3.44235e-05 -1.17949e-21)
(14.9999 3.75473e-05 1.04787e-23)
(14.9999 4.07619e-05 2.85396e-22)
(14.9999 4.40742e-05 -3.92725e-22)
(14.9999 4.74495e-05 7.66697e-22)
(14.9999 5.0913e-05 1.14116e-23)
(14.9999 5.44583e-05 -1.67491e-21)
(14.9999 5.80635e-05 -9.23702e-22)
(14.9999 6.17265e-05 4.63171e-22)
(14.9999 6.54769e-05 1.85604e-24)
(14.9999 6.92788e-05 0)
(14.9999 7.31351e-05 1.07376e-21)
(14.9999 7.70472e-05 1.66146e-21)
(14.9999 8.10139e-05 -1.13538e-21)
(14.9999 8.50164e-05 -1.22505e-21)
(14.9998 8.90701e-05 -1.21429e-21)
(14.9998 9.31547e-05 -1.21794e-21)
(14.9998 9.72821e-05 -1.27101e-21)
(14.9998 0.000101457 1.46889e-22)
(14.9998 0.000105635 -2.59961e-21)
(14.9998 0.000109854 -2.10039e-21)
(14.9998 0.000114097 5.6076e-22)
(14.9998 0.000118352 5.40947e-22)
(14.9998 0.000122652 8.34857e-22)
(14.9998 0.000126967 1.40302e-21)
(14.9998 0.000131266 -1.20638e-23)
(14.9998 0.000135603 9.16774e-22)
(14.9998 0.000139933 2.84336e-21)
(14.9998 0.000144271 1.42588e-21)
(14.9998 0.000148614 -9.76215e-22)
(14.9998 0.000152969 1.42209e-21)
(14.9998 0.000157315 -8.18491e-22)
(14.9998 0.000161653 -1.03557e-21)
(14.9998 0.000166001 -1.0908e-21)
(14.9998 0.000170326 1.10176e-21)
(14.9998 0.000174653 1.74517e-21)
(14.9998 0.000178944 -1.1424e-21)
(14.9998 0.000183241 2.56864e-21)
(14.9999 0.000187522 -2.19597e-22)
(14.9999 0.000191783 -3.98775e-21)
(14.9999 0.000196021 -1.22726e-21)
(14.9999 0.000200228 1.24067e-21)
(14.9999 0.000204423 1.2711e-21)
(14.9999 0.000208585 3.8996e-21)
(14.9999 0.000212719 -1.28246e-21)
(14.9999 0.000216829 -2.6706e-21)
(14.9999 0.000220898 6.20132e-23)
(14.9999 0.000224936 1.26855e-21)
(14.9999 0.000228951 -1.37888e-21)
(14.9999 0.000232923 1.2156e-21)
(14.9999 0.000236855 2.84524e-21)
(14.9999 0.000240743 2.35852e-21)
(14.9999 0.0002446 -4.06749e-21)
(14.9999 0.000248392 -2.60372e-21)
(14.9999 0.000252141 1.49342e-21)
(14.9999 0.000255872 4.54945e-22)
(14.9999 0.000259544 1.52798e-21)
(14.9999 0.00026315 5.50354e-22)
(14.9999 0.000266703 -1.9415e-21)
(14.9999 0.000270218 2.92212e-22)
(14.9999 0.000273663 -3.41256e-21)
(14.9999 0.000277063 2.3633e-21)
(14.9999 0.000280405 -7.88087e-22)
(14.9999 0.000283696 -4.96198e-21)
(14.9999 0.000286899 9.11057e-22)
(14.9999 0.000290053 3.37139e-21)
(14.9999 0.000293148 3.66744e-24)
(14.9999 0.000296189 1.07349e-21)
(14.9999 0.000299153 -1.72263e-21)
(14.9999 0.000302055 -4.69845e-21)
(15 0.000304874 5.08716e-22)
(15 0.000307634 4.5388e-25)
(15 0.000310335 1.79376e-21)
(15 0.000312945 1.81099e-21)
(15 0.000315481 8.44611e-22)
(15 0.000317953 1.28285e-21)
(15 0.000320322 -1.62206e-21)
(15 0.000322622 -1.86842e-21)
(15 0.000324829 -1.88036e-21)
(15 0.000326995 -1.8147e-21)
(15 0.000329059 5.74772e-21)
(15 0.000331018 1.91681e-21)
(15 0.000332934 -2.00214e-21)
(15 0.00033475 -1.9369e-21)
(15 0.000336489 -2.12612e-21)
(15 0.000338111 2.19218e-21)
(15 0.000339656 -4.5155e-21)
(15 0.000341111 -1.97067e-21)
(15 0.000342452 6.34758e-21)
(15 0.000343716 3.97543e-21)
(15.0001 0.000344896 -3.4802e-21)
(15.0001 0.000345965 -8.50684e-22)
(15.0001 0.000346943 -5.32341e-24)
(15.0001 0.00034781 4.39548e-24)
(15.0001 0.00034859 4.05367e-21)
(15.0001 0.000349274 -8.1135e-22)
(15.0001 0.000349872 -2.90038e-21)
(15.0001 0.000350334 -1.12249e-21)
(15.0001 0.000350702 3.04754e-21)
(15.0001 0.000350962 4.10711e-21)
(15.0001 0.000351131 0)
(15.0001 0.000351173 -2.06761e-21)
(15.0001 0.000351125 -8.39585e-22)
(15.0001 0.000350965 0)
(15.0001 0.000350674 -1.34762e-21)
(15.0001 0.000350253 -1.40881e-21)
(15.0002 0.000349762 -1.46836e-21)
(15.0002 0.000349158 -2.09014e-21)
(15.0002 0.000348409 -1.57943e-21)
(15.0002 0.000347559 2.08281e-21)
(15.0002 0.000346585 -2.09782e-21)
(15.0002 0.000345492 9.57432e-24)
(15.0002 0.00034427 2.34397e-21)
(15.0002 0.000342946 1.8809e-21)
(15.0002 0.000341503 1.59511e-23)
(15.0002 0.000339923 -4.03988e-21)
(15.0002 0.000338231 -2.07625e-21)
(15.0002 0.000336413 0)
(15.0002 0.000334459 -2.4301e-24)
(15.0002 0.0003324 -1.63059e-22)
(15.0002 0.000330199 -4.62729e-21)
(15.0003 0.000327866 6.81828e-21)
(15.0003 0.0003254 2.37705e-21)
(15.0003 0.000322808 -9.03606e-21)
(15.0003 0.000320122 0)
(15.0003 0.00031726 2.05514e-21)
(15.0003 0.000314292 5.59608e-22)
(15.0003 0.000311161 6.81189e-22)
(15.0003 0.000307928 2.00147e-21)
(15.0003 0.000304556 -2.77096e-21)
(15.0003 0.000301034 0)
(15.0003 0.000297398 1.99349e-21)
(15.0003 0.000293634 -9.46327e-22)
(15.0003 0.000289737 9.79992e-22)
(15.0003 0.000285674 -6.85007e-21)
(15.0003 0.000281537 3.03777e-21)
(15.0003 0.000277198 -3.00036e-23)
(15.0004 0.000272722 -3.04084e-21)
(15.0004 0.000268171 1.84224e-21)
(15.0004 0.000263463 -1.86169e-21)
(15.0004 0.000258622 -1.80969e-21)
(15.0004 0.000253679 6.76978e-21)
(15.0004 0.000248536 1.71767e-21)
(15.0004 0.000243296 1.44618e-21)
(15.0004 0.000237942 -4.90537e-21)
(15.0004 0.000232433 -6.52807e-21)
(15.0004 0.000226818 4.84532e-21)
(15.0004 0.00022105 -1.58388e-21)
(15.0004 0.000215164 3.22553e-23)
(15.0004 0.000209163 1.52117e-21)
(15.0004 0.000203032 0)
(15.0004 0.00019675 6.05168e-21)
(15.0004 0.000190425 -2.97921e-21)
(15.0004 0.000183947 -2.92587e-21)
(15.0004 0.000177317 -5.7203e-21)
(15.0004 0.00017059 -1.4977e-21)
(15.0004 0.000163779 3.92218e-21)
(15.0004 0.000156784 -2.61998e-21)
(15.0004 0.000149711 -1.11788e-21)
(15.0004 0.000142523 -2.39596e-21)
(15.0004 0.000135256 -3.68233e-21)
(15.0005 0.000127862 3.47346e-21)
(15.0005 0.000120356 3.42465e-23)
(15.0005 0.000112738 -3.49315e-23)
(15.0005 0.00010504 1.84496e-21)
(15.0005 9.72183e-05 2.31196e-21)
(15.0004 8.92754e-05 9.06316e-22)
(15.0004 8.12608e-05 2.97059e-22)
(15.0004 7.31396e-05 -1.16947e-21)
(15.0004 6.491e-05 -1.09188e-21)
(15.0004 5.67761e-05 2.65281e-23)
(15.0004 4.8717e-05 1.02627e-21)
(15.0004 3.99609e-05 -1.23342e-21)
(15.0004 2.95082e-05 4.89218e-22)
(15.0003 1.8777e-05 1.85064e-24)
(15.0003 1.21958e-05 0)
(15.0002 1.29596e-05 -7.63701e-23)
(15.0003 1.66051e-05 -9.35381e-23)
(15.0006 1.31863e-05 1.509e-23)
(15.001 2.28775e-06 8.38532e-24)
(14.9999 2.528e-08 6.36939e-25)
(15 6.90007e-07 1.49023e-24)
(15 1.24385e-06 0)
(15 1.36972e-06 6.07827e-24)
(15 1.36645e-06 4.56112e-24)
(15 1.94027e-06 -1.49365e-23)
(14.9999 3.23275e-06 -3.81031e-23)
(14.9999 4.95461e-06 -1.96196e-23)
(14.9999 6.83699e-06 1.99055e-23)
(14.9999 8.85144e-06 -1.08443e-22)
(14.9999 1.10457e-05 1.89112e-22)
(14.9999 1.34416e-05 -1.07442e-22)
(14.9999 1.60273e-05 2.88686e-22)
(14.9999 1.87977e-05 -9.24391e-25)
(14.9999 2.17444e-05 1.77734e-22)
(14.9999 2.48649e-05 -1.38132e-22)
(14.9999 2.81403e-05 7.66027e-22)
(14.9999 3.15653e-05 6.03322e-22)
(14.9999 3.51394e-05 -1.86701e-22)
(14.9999 3.88628e-05 -1.72452e-23)
(14.9999 4.27147e-05 -3.20491e-22)
(14.9999 4.66915e-05 -2.76037e-22)
(14.9998 5.0798e-05 -6.79459e-22)
(14.9998 5.50236e-05 -3.13718e-22)
(14.9998 5.9344e-05 -7.83969e-22)
(14.9998 6.37742e-05 1.56647e-21)
(14.9998 6.83178e-05 -4.64542e-22)
(14.9998 7.29464e-05 -9.14608e-22)
(14.9998 7.76526e-05 -9.55783e-22)
(14.9998 8.2475e-05 -1.46967e-21)
(14.9998 8.73605e-05 -5.11312e-22)
(14.9998 9.2323e-05 0)
(14.9998 9.73608e-05 -1.66232e-21)
(14.9998 0.000102467 -1.15428e-21)
(14.9998 0.000107633 4.28179e-23)
(14.9998 0.000112865 -5.70515e-22)
(14.9998 0.00011814 -1.24145e-21)
(14.9998 0.000123472 -1.94884e-21)
(14.9998 0.000128854 -1.30435e-21)
(14.9998 0.000134261 2.64146e-21)
(14.9998 0.000139717 -1.94009e-22)
(14.9998 0.000145221 -2.15306e-21)
(14.9998 0.000150734 -5.66326e-22)
(14.9998 0.000156295 1.26903e-23)
(14.9998 0.000161888 -1.15773e-23)
(14.9998 0.000167462 -1.40671e-21)
(14.9998 0.000173075 1.41641e-21)
(14.9998 0.000178709 -1.42565e-21)
(14.9998 0.000184334 1.43543e-21)
(14.9998 0.000189979 1.39377e-23)
(14.9998 0.000195638 9.89631e-22)
(14.9998 0.000201278 1.48502e-21)
(14.9998 0.000206927 3.87827e-22)
(14.9998 0.000212578 -3.77517e-22)
(14.9998 0.000218205 3.64652e-22)
(14.9998 0.000223832 1.44337e-21)
(14.9998 0.000229432 -1.43853e-21)
(14.9998 0.000235019 -1.4554e-21)
(14.9998 0.000240593 2.62812e-21)
(14.9998 0.000246141 0)
(14.9998 0.000251667 -1.41541e-21)
(14.9998 0.000257171 -2.80525e-21)
(14.9998 0.000262637 1.38825e-21)
(14.9998 0.000268058 -1.37344e-21)
(14.9998 0.000273458 2.71726e-21)
(14.9998 0.000278829 1.32957e-21)
(14.9998 0.00028414 1.33099e-21)
(14.9998 0.000289409 -8.03886e-23)
(14.9998 0.000294645 -1.3898e-21)
(14.9998 0.000299845 -2.52282e-21)
(14.9998 0.000304988 1.24316e-21)
(14.9998 0.00031005 1.20068e-21)
(14.9998 0.000315082 2.95212e-22)
(14.9999 0.00032006 -1.15613e-21)
(14.9999 0.000324969 -7.48686e-22)
(14.9999 0.00032983 -1.09072e-21)
(14.9999 0.000334626 -1.076e-21)
(14.9999 0.000339349 2.60398e-21)
(14.9999 0.000344003 -3.16035e-21)
(14.9999 0.000348603 -1.3051e-23)
(14.9999 0.000353128 1.63041e-21)
(14.9999 0.000357561 -1.63932e-21)
(14.9999 0.000361928 1.72538e-21)
(14.9999 0.000366242 -1.65055e-21)
(14.9999 0.00037046 -3.5978e-25)
(14.9999 0.000374581 -1.70193e-21)
(14.9999 0.00037863 7.01908e-22)
(14.9999 0.000382614 1.74183e-21)
(14.9999 0.000386489 1.86717e-21)
(14.9999 0.000390288 -2.34796e-21)
(14.9999 0.000393983 7.12001e-22)
(14.9999 0.00039759 3.41036e-22)
(14.9999 0.000401127 -1.81841e-21)
(15 0.000404536 1.82998e-21)
(15 0.000407854 1.84794e-21)
(15 0.000411089 -1.86043e-21)
(15 0.000414188 -1.62602e-21)
(15 0.000417215 0)
(15 0.000420112 1.48993e-22)
(15 0.000422936 -2.11335e-21)
(15 0.000425635 -4.50157e-23)
(15 0.00042821 -1.74468e-23)
(15 0.000430706 -1.69358e-25)
(15 0.000433063 -2.355e-22)
(15 0.000435338 1.73651e-22)
(15 0.000437459 -1.75431e-21)
(15 0.00043948 4.30573e-24)
(15 0.000441388 4.33902e-21)
(15.0001 0.000443139 -2.01026e-21)
(15.0001 0.000444793 -4.53604e-22)
(15.0001 0.000446327 3.53807e-21)
(15.0001 0.000447718 3.17775e-21)