/*--------------------------------*- C++ -*----------------------------------*\
  =========                 |
  \\      /  F ield         | OpenFOAM: The Open Source CFD Toolbox
   \\    /   O peration     | Website:  https://openfoam.org
    \\  /    A nd           | Version:  9
     \\/     M anipulation  |
\*---------------------------------------------------------------------------*/
FoamFile
{
    format      ascii;
    class       volScalarField;
    location    "0.0075";
    object      alphat;
}
// * * * * * * * * * * * * * * * * * * * * * * * * * * * * * * * * * * * * * //

dimensions      [1 -1 -1 0 0 0 0];

internalField   nonuniform List<scalar> 
6352
(
0.00125236
0.000147507
2.39e-05
6.38261e-06
2.67142e-06
1.48661e-06
1.48786e-06
1.54282e-06
1.38531e-06
1.1279e-06
8.8125e-07
7.07834e-07
6.05021e-07
5.88867e-07
9.61069e-07
1.38765e-06
1.77123e-06
6.24176e-07
0.00359456
0.00089221
0.000461533
0.00030899
0.000232229
0.00018632
0.000190135
0.00019337
0.000184715
0.000169134
0.000151311
0.00013539
0.00012269
0.000113011
0.000106201
0.000101108
9.6088e-05
8.75011e-05
0.0057267
0.00169772
0.000900335
0.000603271
0.00045397
0.000361399
0.000307201
0.000285564
0.000260633
0.000234791
0.000209475
0.000188057
0.000171287
0.000158351
0.000148586
0.000140869
0.000133465
0.000124763
0.000114262
0.00767076
0.00258311
0.00136548
0.000900547
0.000664497
0.000517999
0.000417245
0.000355597
0.000307282
0.00026725
0.000233848
0.000209481
0.000192456
0.000180563
0.000173162
0.000169144
0.000166373
0.000162816
0.000156648
0.00942702
0.00348055
0.00183754
0.00119538
0.000865194
0.000659324
0.000514043
0.000416077
0.000346213
0.000294162
0.000255441
0.000234943
0.000224186
0.000215294
0.000207146
0.000200629
0.000195316
0.000189677
0.000182892
0.000177211
0.0109897
0.00434959
0.00229982
0.00147892
0.00105071
0.000781945
0.000604858
0.000486255
0.000404304
0.000345545
0.000302089
0.000277053
0.00026045
0.000245838
0.000232286
0.000221506
0.000213089
0.00020613
0.000199729
0.00019455
0.0123481
0.005158
0.00273745
0.00174217
0.00121464
0.000897435
0.000695287
0.000561971
0.00047079
0.000405084
0.000354662
0.000318483
0.000289277
0.000266234
0.000248819
0.000236927
0.000228161
0.000220631
0.000213703
0.000207213
0.013486
0.00587253
0.00313599
0.0019752
0.00136393
0.00100654
0.000782783
0.00063622
0.000535435
0.000461012
0.000401328
0.000354294
0.000317161
0.00028806
0.000266525
0.000252419
0.000241235
0.00023069
0.000221412
0.00021353
0.0143782
0.00646277
0.00348068
0.00217338
0.00149585
0.00110455
0.000861162
0.000701678
0.000590761
0.000506078
0.000439292
0.000386654
0.000345164
0.000312186
0.000286029
0.000264437
0.000246098
0.000231948
0.000221307
0.000212801
0.0149817
0.00689799
0.00373342
0.00231093
0.00158723
0.00117376
0.000917284
0.000748624
0.000627175
0.000535448
0.000464925
0.000409494
0.000365324
0.000328652
0.000297551
0.00027125
0.000249365
0.000231671
0.000218759
0.000207786
0.0150837
0.00694316
0.00373842
0.0023102
0.00158997
0.00117642
0.000917942
0.000747701
0.000625941
0.000534443
0.000464245
0.000408433
0.000363502
0.000326646
0.000295793
0.000268876
0.000246407
0.000227582
0.000212336
0.000199509
0.0148667
0.00680097
0.00365911
0.00225733
0.00155243
0.00115022
0.000897008
0.000729024
0.000610388
0.000520845
0.000451801
0.000397346
0.00035305
0.000316438
0.000285732
0.000259646
0.000237232
0.00021793
0.000201827
0.000188243
0.0144252
0.00651186
0.00350397
0.002157
0.00148022
0.00109747
0.000856456
0.000694337
0.000580115
0.000495522
0.000429306
0.000376719
0.000334094
0.000299286
0.000269221
0.000243826
0.000222317
0.000204073
0.000188636
0.000175524
0.013688
0.00608585
0.00327872
0.00201478
0.00137668
0.00101873
0.000797225
0.000645938
0.000538021
0.000458374
0.000397188
0.00034834
0.000307662
0.000274075
0.000245867
0.000222573
0.00020312
0.000186252
0.000171344
0.00015952
0.0126632
0.0054795
0.00297795
0.00183541
0.00124599
0.000914624
0.000712986
0.000579713
0.000482778
0.000409005
0.000351663
0.000306647
0.000270816
0.000240835
0.00021422
0.000192455
0.00017543
0.000161619
0.000151615
0.000146228
0.0113401
0.00469298
0.00256147
0.00160218
0.00108613
0.000788928
0.00060744
0.00048988
0.00040811
0.00034774
0.000296989
0.000255327
0.000223
0.00019644
0.000174628
0.00015927
0.000149065
0.000142101
0.000135269
0.000128312
0.00968733
0.00373105
0.00203905
0.0013035
0.000902172
0.000653282
0.000494332
0.000389119
0.000316656
0.000264827
0.00022484
0.000193581
0.000175078
0.000154385
0.000135818
0.000121587
0.000113077
0.00010951
0.000106745
0.000108795
0.00764688
0.00261923
0.00143426
0.000938388
0.00067237
0.00050592
0.000384998
0.000297401
0.000232841
0.000183311
0.00014475
0.00011578
9.79494e-05
9.37207e-05
9.397e-05
9.22476e-05
8.94159e-05
8.67558e-05
8.52339e-05
8.56573e-05
0.00512013
0.00149682
0.000792645
0.000529974
0.000392188
0.00030409
0.000237601
0.000202919
0.000173989
0.000142385
0.000112967
8.91107e-05
7.26524e-05
6.37218e-05
5.89831e-05
5.41798e-05
4.74994e-05
4.08665e-05
3.654e-05
4.78884e-05
0.00193955
0.000329027
0.000107584
3.84382e-05
1.54246e-05
7.02132e-06
3.42727e-06
2.13351e-06
1.44637e-06
9.4315e-07
6.1886e-07
5.34223e-07
1.01052e-06
1.37511e-06
1.59208e-06
1.58822e-06
6.05095e-07
5.47455e-07
1.16768e-06
1.60395e-06
0.000203913
0.000208661
0.000203887
0.00020644
0.000200386
0.000194501
0.000199629
0.000192782
0.000184834
0.000189426
0.000180143
0.000170964
0.000162087
0.000176949
0.000166554
0.000157009
0.000148477
0.000164
0.000153588
0.000144731
0.00013739
0.000132171
0.000149127
0.000140625
0.000135033
0.000130682
0.000127058
0.000124041
0.000139656
0.000133331
0.000128217
0.000124124
0.000120721
0.000117761
0.000123158
0.000119486
0.000116523
0.000113932
0.000111499
0.000109076
0.000108062
0.000106473
0.000104522
0.000102287
9.97175e-05
9.67753e-05
9.35033e-05
8.23772e-05
8.12539e-05
8.01397e-05
7.84637e-05
7.61574e-05
7.32719e-05
7.04067e-05
5.72505e-05
5.98823e-05
5.95821e-05
5.79644e-05
5.54532e-05
5.16248e-05
4.97723e-05
4.69004e-05
2.01401e-06
2.02534e-06
1.8863e-06
1.70542e-06
1.43234e-06
4.58249e-07
9.24294e-07
9.75212e-07
0.0163541
0.0163541
0.0163541
0.0163541
0.016354
0.016354
0.0163539
0.0163539
0.0163538
0.0163538
0.0163537
0.0163537
0.0163536
0.0163536
0.0163535
0.0163534
0.0163534
0.0163533
0.0163533
0.0163532
0.0163531
0.0163531
0.016353
0.0163529
0.0163529
0.0163528
0.0163527
0.0163527
0.0163526
0.0163525
0.0163525
0.0163524
0.0163523
0.0163523
0.0163522
0.0163521
0.016352
0.016352
0.0163519
0.0163518
0.0163518
0.0163517
0.0163516
0.0163516
0.0163515
0.0163514
0.0163513
0.0163513
0.0163512
0.0163511
0.0163511
0.016351
0.0163509
0.0163508
0.0163508
0.0163507
0.0163506
0.0163505
0.0163505
0.0163504
0.0163503
0.0163376
0.0163377
0.0163378
0.016338
0.0163381
0.0163382
0.0163382
0.0163383
0.0163384
0.0163385
0.0163385
0.0163386
0.0163387
0.0163387
0.0163387
0.0163388
0.0163388
0.0163388
0.0163388
0.0163388
0.0163388
0.0163387
0.0163386
0.0163385
0.0163384
0.0163383
0.0163382
0.0163382
0.0163382
0.0163382
0.0163383
0.0163383
0.0163383
0.0163383
0.0163383
0.0163383
0.0163383
0.0163383
0.0163384
0.0163384
0.0163384
0.0163384
0.0163384
0.0163384
0.0163384
0.0163385
0.0163385
0.0163385
0.0163385
0.0163385
0.0163385
0.0163385
0.0163385
0.0163386
0.0163386
0.0163386
0.0163386
0.0163386
0.0163386
0.0163387
0.0163387
0.0163229
0.016323
0.016323
0.0163231
0.0163231
0.0163232
0.0163232
0.0163233
0.0163233
0.0163234
0.0163234
0.0163235
0.0163235
0.0163236
0.0163236
0.0163237
0.0163237
0.0163238
0.0163238
0.0163238
0.0163238
0.0163238
0.0163238
0.0163238
0.0163237
0.0163236
0.0163235
0.0163233
0.0163231
0.016323
0.0163228
0.0163227
0.0163225
0.0163224
0.0163222
0.0163221
0.0163219
0.0163217
0.0163216
0.0163214
0.0163213
0.0163211
0.016321
0.0163208
0.0163206
0.0163205
0.0163203
0.0163202
0.01632
0.0163199
0.0163197
0.0163196
0.0163194
0.0163192
0.0163191
0.0163189
0.0163188
0.0163186
0.0163185
0.0163183
0.0163182
0.0163004
0.0163005
0.0163006
0.0163008
0.0163009
0.016301
0.0163011
0.0163012
0.0163014
0.0163015
0.0163016
0.0163017
0.0163018
0.0163019
0.016302
0.0163021
0.0163022
0.0163023
0.0163023
0.0163024
0.0163025
0.0163026
0.0163026
0.0163027
0.0163027
0.0163027
0.0163027
0.0163027
0.0163027
0.0163026
0.0163023
0.0163021
0.0163019
0.0163017
0.0163015
0.0163013
0.0163011
0.0163009
0.0163006
0.0163004
0.0163002
0.0163
0.0162998
0.0162996
0.0162994
0.0162992
0.0162989
0.0162987
0.0162985
0.0162983
0.0162981
0.0162979
0.0162978
0.0162977
0.0162977
0.0162977
0.0162978
0.0162978
0.0162979
0.0162979
0.016298
0.0162646
0.0162647
0.0162649
0.0162651
0.0162652
0.0162654
0.0162656
0.0162657
0.0162659
0.0162661
0.0162662
0.0162664
0.0162666
0.0162667
0.0162669
0.0162671
0.0162673
0.0162674
0.0162676
0.0162678
0.0162679
0.0162681
0.0162683
0.0162684
0.0162686
0.0162688
0.0162689
0.0162691
0.0162693
0.0162694
0.0162696
0.0162697
0.0162699
0.0162701
0.0162702
0.0162704
0.0162706
0.0162707
0.0162709
0.016271
0.0162712
0.0162714
0.0162715
0.0162717
0.0162718
0.016272
0.0162722
0.0162723
0.0162725
0.0162726
0.0162728
0.0162729
0.0162731
0.0162732
0.0162734
0.0162735
0.0162737
0.0162738
0.016274
0.0162741
0.0162743
0.0162349
0.016235
0.016235
0.0162351
0.0162352
0.0162353
0.0162354
0.0162356
0.0162357
0.0162358
0.0162359
0.0162361
0.0162362
0.0162363
0.0162364
0.0162366
0.0162367
0.0162369
0.016237
0.0162371
0.0162373
0.0162374
0.0162376
0.0162377
0.0162379
0.016238
0.0162381
0.0162383
0.0162384
0.0162386
0.0162387
0.0162389
0.016239
0.0162392
0.0162393
0.0162394
0.0162396
0.0162397
0.0162399
0.01624
0.0162401
0.0162403
0.0162404
0.0162406
0.0162407
0.0162408
0.016241
0.0162411
0.0162412
0.0162414
0.0162415
0.0162416
0.0162418
0.0162419
0.016242
0.0162421
0.0162423
0.0162424
0.0162425
0.0162426
0.0162427
0.0162084
0.0162079
0.0162074
0.0162069
0.0162065
0.016206
0.0162055
0.016205
0.0162045
0.0162041
0.0162036
0.0162031
0.0162026
0.0162021
0.0162016
0.0162012
0.0162007
0.0162002
0.0161997
0.0161992
0.0161987
0.0161983
0.0161978
0.0161973
0.0161968
0.0161963
0.0161958
0.0161954
0.0161949
0.0161944
0.0161939
0.0161934
0.0161929
0.0161924
0.0161919
0.0161915
0.016191
0.0161905
0.01619
0.0161895
0.016189
0.0161885
0.016188
0.0161875
0.016187
0.0161866
0.0161861
0.0161856
0.0161851
0.0161846
0.0161841
0.0161836
0.0161831
0.0161826
0.0161821
0.0161816
0.0161811
0.0161806
0.0161802
0.0161797
0.0161792
0.0161769
0.0161763
0.0161756
0.016175
0.0161743
0.0161737
0.016173
0.0161724
0.0161717
0.0161711
0.0161704
0.0161698
0.0161691
0.0161684
0.0161678
0.0161671
0.0161665
0.0161658
0.0161652
0.0161645
0.0161638
0.0161632
0.0161625
0.0161619
0.0161612
0.0161605
0.0161599
0.0161592
0.0161585
0.0161579
0.0161572
0.0161565
0.0161559
0.0161552
0.0161545
0.0161539
0.0161532
0.0161525
0.0161519
0.0161512
0.0161505
0.0161498
0.0161492
0.0161485
0.0161478
0.0161472
0.0161465
0.0161458
0.0161451
0.0161444
0.0161438
0.0161431
0.0161424
0.0161417
0.0161411
0.0161404
0.0161397
0.016139
0.0161383
0.0161376
0.016137
0.0161413
0.0161404
0.0161396
0.0161387
0.0161378
0.0161369
0.0161361
0.0161352
0.0161343
0.0161334
0.0161326
0.0161317
0.0161308
0.0161299
0.016129
0.0161281
0.0161272
0.0161264
0.0161255
0.0161246
0.0161237
0.0161228
0.0161219
0.016121
0.0161201
0.0161192
0.0161183
0.0161174
0.0161165
0.0161156
0.0161147
0.0161138
0.0161129
0.016112
0.0161111
0.0161102
0.0161093
0.0161083
0.0161074
0.0161065
0.0161056
0.0161047
0.0161038
0.0161029
0.0161019
0.016101
0.0161001
0.0160992
0.0160983
0.0160973
0.0160964
0.0160955
0.0160946
0.0160936
0.0160927
0.0160918
0.0160908
0.0160899
0.016089
0.0160881
0.0160871
0.0160862
0.0160997
0.0160985
0.0160973
0.0160961
0.0160949
0.0160938
0.0160926
0.0160914
0.0160902
0.016089
0.0160878
0.0160866
0.0160854
0.0160842
0.016083
0.0160818
0.0160806
0.0160794
0.0160782
0.016077
0.0160758
0.0160746
0.0160734
0.0160721
0.0160709
0.0160697
0.0160685
0.0160673
0.016066
0.0160648
0.0160636
0.0160624
0.0160611
0.0160599
0.0160587
0.0160574
0.0160562
0.0160549
0.0160537
0.0160525
0.0160512
0.01605
0.0160487
0.0160475
0.0160462
0.016045
0.0160437
0.0160425
0.0160412
0.0160399
0.0160387
0.0160374
0.0160361
0.0160349
0.0160336
0.0160323
0.0160311
0.0160298
0.0160285
0.0160273
0.016026
0.0160247
0.0160514
0.0160498
0.0160482
0.0160466
0.016045
0.0160434
0.0160418
0.0160402
0.0160386
0.016037
0.0160354
0.0160338
0.0160322
0.0160305
0.0160289
0.0160273
0.0160256
0.016024
0.0160224
0.0160207
0.0160191
0.0160174
0.0160158
0.0160141
0.0160125
0.0160108
0.0160091
0.0160075
0.0160058
0.0160041
0.0160025
0.0160008
0.0159991
0.0159974
0.0159957
0.015994
0.0159923
0.0159906
0.0159889
0.0159872
0.0159855
0.0159838
0.0159821
0.0159804
0.0159787
0.015977
0.0159753
0.0159736
0.0159718
0.0159701
0.0159684
0.0159666
0.0159649
0.0159632
0.0159614
0.0159597
0.015958
0.0159562
0.0159545
0.0159527
0.015951
0.0159492
0.0159951
0.0159929
0.0159908
0.0159886
0.0159865
0.0159843
0.0159822
0.01598
0.0159778
0.0159756
0.0159734
0.0159712
0.015969
0.0159668
0.0159646
0.0159624
0.0159602
0.0159579
0.0159557
0.0159535
0.0159512
0.015949
0.0159467
0.0159445
0.0159422
0.0159399
0.0159377
0.0159354
0.0159331
0.0159308
0.0159285
0.0159262
0.0159239
0.0159216
0.0159193
0.015917
0.0159147
0.0159123
0.01591
0.0159077
0.0159053
0.015903
0.0159006
0.0158983
0.0158959
0.0158936
0.0158912
0.0158888
0.0158865
0.0158841
0.0158817
0.0158793
0.0158769
0.0158745
0.0158721
0.0158697
0.0158673
0.0158649
0.0158625
0.0158601
0.0158577
0.0158553
0.0159297
0.0159268
0.0159239
0.015921
0.0159181
0.0159152
0.0159122
0.0159093
0.0159063
0.0159033
0.0159004
0.0158974
0.0158944
0.0158914
0.0158884
0.0158853
0.0158823
0.0158793
0.0158762
0.0158731
0.0158701
0.015867
0.0158639
0.0158608
0.0158577
0.0158546
0.0158514
0.0158483
0.0158452
0.015842
0.0158388
0.0158357
0.0158325
0.0158293
0.0158261
0.0158229
0.0158197
0.0158164
0.0158132
0.01581
0.0158067
0.0158035
0.0158002
0.015797
0.0157937
0.0157904
0.0157871
0.0157838
0.0157805
0.0157772
0.0157739
0.0157706
0.0157673
0.015764
0.0157606
0.0157573
0.0157539
0.0157506
0.0157472
0.0157439
0.0157405
0.0157372
0.0158537
0.0158498
0.0158458
0.0158419
0.0158379
0.015834
0.01583
0.0158259
0.0158219
0.0158179
0.0158138
0.0158097
0.0158056
0.0158015
0.0157974
0.0157932
0.0157891
0.0157849
0.0157807
0.0157765
0.0157722
0.015768
0.0157637
0.0157594
0.0157551
0.0157508
0.0157464
0.0157421
0.0157377
0.0157333
0.0157289
0.0157245
0.01572
0.0157156
0.0157111
0.0157066
0.0157021
0.0156976
0.0156931
0.0156885
0.015684
0.0156794
0.0156748
0.0156702
0.0156656
0.015661
0.0156564
0.0156517
0.0156471
0.0156424
0.0156377
0.0156331
0.0156284
0.0156237
0.015619
0.0156142
0.0156095
0.0156048
0.0156001
0.0155953
0.0155906
0.0155858
0.0157652
0.0157599
0.0157546
0.0157492
0.0157438
0.0157384
0.015733
0.0157275
0.015722
0.0157164
0.0157109
0.0157053
0.0156996
0.015694
0.0156882
0.0156825
0.0156767
0.0156709
0.0156651
0.0156592
0.0156533
0.0156474
0.0156414
0.0156354
0.0156293
0.0156232
0.0156171
0.015611
0.0156048
0.0155986
0.0155924
0.0155861
0.0155798
0.0155734
0.0155671
0.0155607
0.0155542
0.0155478
0.0155413
0.0155348
0.0155282
0.0155217
0.0155151
0.0155084
0.0155018
0.0154951
0.0154884
0.0154817
0.015475
0.0154683
0.0154615
0.0154547
0.0154479
0.0154411
0.0154342
0.0154274
0.0154205
0.0154137
0.0154069
0.0154
0.0153931
0.0153861
0.0156622
0.0156549
0.0156477
0.0156404
0.0156331
0.0156257
0.0156182
0.0156107
0.0156031
0.0155955
0.0155878
0.01558
0.0155722
0.0155643
0.0155564
0.0155483
0.0155403
0.0155321
0.0155239
0.0155156
0.0155072
0.0154988
0.0154903
0.0154818
0.0154731
0.0154644
0.0154556
0.0154468
0.0154379
0.0154289
0.0154198
0.0154107
0.0154015
0.0153922
0.0153828
0.0153734
0.015364
0.0153544
0.0153448
0.0153351
0.0153254
0.0153156
0.0153057
0.0152958
0.0152859
0.0152758
0.0152657
0.0152556
0.0152454
0.0152352
0.015225
0.0152146
0.0152043
0.0151939
0.0151835
0.0151731
0.0151626
0.0151521
0.0151416
0.0151311
0.0151206
0.0151101
0.0155419
0.0155321
0.0155222
0.0155123
0.0155022
0.0154921
0.0154818
0.0154715
0.015461
0.0154504
0.0154397
0.0154289
0.0154179
0.0154068
0.0153956
0.0153843
0.0153728
0.0153612
0.0153494
0.0153375
0.0153255
0.0153133
0.015301
0.0152885
0.0152758
0.015263
0.01525
0.0152369
0.0152236
0.0152101
0.0151964
0.0151826
0.0151686
0.0151545
0.0151401
0.0151256
0.015111
0.0150961
0.0150811
0.0150659
0.0150506
0.0150351
0.0150194
0.0150036
0.0149876
0.0149716
0.0149554
0.0149391
0.0149227
0.0149062
0.0148896
0.014873
0.0148563
0.0148396
0.0148229
0.0148062
0.0147896
0.014773
0.0147564
0.0147399
0.0147235
0.0147072
0.0154015
0.0153881
0.0153747
0.0153611
0.0153473
0.0153334
0.0153192
0.0153049
0.0152903
0.0152755
0.0152605
0.0152453
0.0152298
0.0152141
0.0151981
0.0151818
0.0151653
0.0151484
0.0151313
0.0151138
0.0150961
0.015078
0.0150595
0.0150407
0.0150216
0.0150021
0.0149821
0.0149618
0.0149411
0.0149199
0.0148983
0.0148762
0.0148538
0.0148308
0.0148074
0.0147835
0.0147592
0.0147345
0.0147093
0.0146837
0.0146577
0.0146314
0.0146047
0.0145779
0.0145507
0.0145235
0.0144961
0.0144687
0.0144413
0.014414
0.0143868
0.0143598
0.014333
0.0143066
0.0142805
0.0142548
0.0142296
0.0142049
0.0141808
0.0141575
0.0141348
0.0141129
0.0152376
0.0152196
0.0152013
0.0151827
0.0151638
0.0151446
0.015125
0.0151051
0.0150847
0.015064
0.0150429
0.0150212
0.0149992
0.0149766
0.0149535
0.0149298
0.0149056
0.0148807
0.0148552
0.0148291
0.0148022
0.0147745
0.0147461
0.0147169
0.0146867
0.0146557
0.0146237
0.0145907
0.0145566
0.0145215
0.0144853
0.0144479
0.0144094
0.0143698
0.014329
0.0142873
0.0142446
0.014201
0.0141568
0.014112
0.0140667
0.0140213
0.0139758
0.0139306
0.0138857
0.0138415
0.0137983
0.0137562
0.0137155
0.0136763
0.0136389
0.0136033
0.0135696
0.0135379
0.0135083
0.013481
0.0134565
0.0134362
0.0134193
0.0134049
0.0133926
0.0133822
0.0150468
0.0150224
0.0149976
0.0149723
0.0149465
0.0149201
0.014893
0.0148653
0.014837
0.0148078
0.0147779
0.0147471
0.0147154
0.0146828
0.0146491
0.0146143
0.0145783
0.0145411
0.0145025
0.0144624
0.0144208
0.0143775
0.0143324
0.0142854
0.0142364
0.0141852
0.0141318
0.014076
0.0140177
0.0139569
0.0138937
0.0138279
0.0137599
0.0136899
0.0136182
0.0135452
0.0134714
0.0133974
0.0133239
0.0132518
0.0131816
0.0131141
0.01305
0.01299
0.0129347
0.0128853
0.0128448
0.0128114
0.012784
0.0127624
0.0127464
0.0127358
0.0127306
0.0127308
0.0127365
0.0127475
0.0127638
0.0127848
0.0128096
0.0128371
0.012865
0.0128958
0.0148251
0.0147924
0.014759
0.0147248
0.0146897
0.0146536
0.0146165
0.0145782
0.0145388
0.014498
0.0144558
0.014412
0.0143665
0.0143193
0.0142701
0.0142187
0.014165
0.0141088
0.0140498
0.0139879
0.0139228
0.0138541
0.0137817
0.0137052
0.0136243
0.0135389
0.0134486
0.0133535
0.0132534
0.0131487
0.0130398
0.0129276
0.0128131
0.0126978
0.0125835
0.0124721
0.0123658
0.0122666
0.0121774
0.0121034
0.0120435
0.011997
0.0119644
0.011946
0.0119417
0.0119521
0.0119777
0.0120182
0.0120732
0.0121411
0.0122193
0.0123056
0.0124048
0.0125184
0.01265
0.0127928
0.0129474
0.0131113
0.013281
0.0134558
0.0136349
0.0138176
0.0145695
0.0145261
0.0144815
0.0144356
0.0143884
0.0143395
0.014289
0.0142366
0.0141822
0.0141255
0.0140665
0.0140048
0.0139401
0.0138723
0.0138009
0.0137257
0.0136463
0.0135622
0.013473
0.0133782
0.0132774
0.0131698
0.0130551
0.0129326
0.0128019
0.0126628
0.0125151
0.0123594
0.0121968
0.0120291
0.0118592
0.0116915
0.0115305
0.0113816
0.0112531
0.0111514
0.0110754
0.0110284
0.0110125
0.0110294
0.011082
0.0111706
0.0112936
0.0114465
0.0116227
0.0118361
0.0120844
0.0123607
0.0126628
0.0129872
0.0133292
0.0136875
0.0140565
0.0144327
0.0148151
0.0152026
0.0155933
0.0159857
0.0163795
0.0167751
0.0171706
0.0175662
0.0142758
0.0142188
0.01416
0.0140993
0.0140365
0.0139713
0.0139035
0.0138329
0.013759
0.0136817
0.0136005
0.013515
0.0134248
0.0133295
0.0132284
0.0131209
0.0130064
0.0128842
0.0127534
0.0126132
0.0124627
0.0123009
0.012127
0.0119403
0.0117404
0.0115277
0.0113038
0.011072
0.0108382
0.0106105
0.0104001
0.0102253
0.0100908
0.0100065
0.00998176
0.0100224
0.0101349
0.0103184
0.0105672
0.0108718
0.0112577
0.0117064
0.0122083
0.0127442
0.0133131
0.0139073
0.014524
0.015163
0.0158204
0.0164927
0.0171766
0.0178658
0.0185514
0.0192292
0.0199037
0.0205714
0.0212271
0.0218687
0.0224948
0.0231043
0.0236963
0.0242697
0.0139402
0.0138663
0.0137899
0.0137109
0.0136287
0.0135433
0.013454
0.0133606
0.0132627
0.0131596
0.0130508
0.0129359
0.012814
0.0126844
0.0125464
0.0123988
0.0122409
0.0120713
0.0118889
0.0116924
0.0114803
0.0112514
0.0110047
0.0107398
0.0104578
0.0101624
0.00986107
0.00956646
0.00930202
0.00908653
0.00894206
0.00889417
0.00896219
0.00915802
0.00948073
0.0099143
0.0104852
0.0111578
0.0119051
0.0127252
0.013607
0.0145344
0.0154915
0.0164611
0.0174332
0.0183999
0.0193549
0.0202927
0.0212092
0.022101
0.0229653
0.0238002
0.0246038
0.0253751
0.0261136
0.0268196
0.0274933
0.028135
0.0287451
0.029324
0.0298722
0.0303901
0.0135595
0.0134632
0.0133655
0.0132646
0.0131596
0.01305
0.0129355
0.0128154
0.0126891
0.012556
0.0124154
0.0122665
0.0121083
0.0119399
0.0117601
0.0115677
0.0113614
0.0111395
0.0109004
0.0106422
0.0103633
0.0100621
0.00973816
0.00939338
0.00903398
0.0086732
0.00833709
0.00805061
0.00785873
0.00781271
0.0079537
0.00830354
0.00885913
0.00960977
0.0105351
0.011584
0.0127328
0.0139425
0.0151844
0.016435
0.0176768
0.0188964
0.0200836
0.0212307
0.0223324
0.023385
0.0243869
0.0253372
0.0262362
0.0270848
0.0278845
0.0286368
0.0293436
0.0300071
0.0306292
0.031212
0.0317573
0.0322668
0.0327421
0.033185
0.0335952
0.03397
0.0131344
0.0130112
0.0128854
0.0127579
0.0126267
0.0124898
0.0123468
0.0121969
0.0120394
0.0118737
0.0116988
0.0115138
0.0113177
0.0111093
0.0108873
0.0106501
0.0103961
0.0101233
0.00982973
0.00951309
0.00917139
0.00880359
0.00841155
0.00800392
0.00760077
0.0072228
0.0069227
0.00677905
0.00687343
0.00726165
0.00795223
0.00892091
0.010135
0.0115075
0.0129789
0.0144923
0.0160062
0.017491
0.0189262
0.0202981
0.0215986
0.0228237
0.0239723
0.0250456
0.0260461
0.0269773
0.0278429
0.028647
0.0293935
0.0300859
0.0307273
0.0313204
0.031868
0.0323738
0.0328408
0.0332714
0.0336663
0.0340262
0.0343507
0.0346393
0.0348927
0.0351133
0.0126632
0.0125098
0.0123531
0.012193
0.0120305
0.0118639
0.0116903
0.011509
0.0113193
0.0111204
0.0109115
0.0106917
0.0104597
0.0102145
0.00995438
0.00967784
0.00938296
0.00906757
0.00872928
0.00836562
0.00797462
0.00755657
0.007119
0.00668269
0.00626919
0.00594889
0.00583804
0.00604992
0.00664276
0.00761466
0.0089345
0.0104959
0.0122016
0.0139501
0.0156766
0.0173407
0.0189178
0.0203954
0.0217692
0.0230398
0.0242111
0.0252882
0.0262769
0.0271834
0.0280141
0.0287749
0.0294715
0.030109
0.030692
0.0312242
0.0317088
0.0321486
0.0325458
0.0329026
0.0332206
0.0335021
0.0337499
0.0339672
0.0341564
0.0343185
0.034454
0.034563
0.0121449
0.011958
0.0117677
0.0115737
0.0113762
0.0111764
0.0109717
0.0107593
0.0105385
0.0103087
0.010069
0.00981867
0.00955649
0.00928125
0.00899149
0.00868548
0.00836127
0.00801657
0.00764886
0.00725556
0.00683501
0.00638967
0.00593644
0.0054985
0.00513691
0.00499928
0.00524886
0.00593251
0.00702063
0.0085144
0.0102802
0.0121849
0.0140918
0.0159281
0.0176555
0.0192568
0.0207264
0.0220672
0.0232864
0.024393
0.0253962
0.0263045
0.0271247
0.0278644
0.0285312
0.0291321
0.029673
0.0301591
0.0305947
0.0309835
0.0313273
0.0316276
0.0318856
0.0321044
0.0322915
0.0324505
0.0325827
0.0326894
0.0327716
0.03283
0.0328649
0.0328765
0.0115802
0.0113568
0.011131
0.0109023
0.0106705
0.0104361
0.010201
0.00995946
0.00971084
0.00945456
0.00918991
0.00891602
0.00863187
0.00833623
0.00802767
0.00770451
0.00736481
0.00700635
0.00662663
0.00622321
0.00579477
0.00534579
0.00490161
0.00449871
0.00426287
0.00442708
0.00510091
0.00615135
0.0075527
0.00935532
0.0113428
0.0133408
0.0152479
0.0170185
0.0186386
0.0201081
0.0214289
0.0226115
0.0236697
0.0246163
0.0254633
0.0262222
0.0268927
0.0274847
0.0280077
0.0284692
0.0288748
0.0292293
0.0295364
0.0297987
0.030018
0.0301949
0.0303346
0.0304453
0.0305282
0.0305847
0.0306158
0.0306225
0.0306052
0.0305648
0.0305017
0.0304164
0.0109709
0.0107091
0.010447
0.0101841
0.00991989
0.00965437
0.00938815
0.00912255
0.00885202
0.00857613
0.00829426
0.00800561
0.00770916
0.00740373
0.00708794
0.00676019
0.00641867
0.00606134
0.00568599
0.00529048
0.00487393
0.00444205
0.00402674
0.00369089
0.00363839
0.00415287
0.00515987
0.00635518
0.00788012
0.00977212
0.0118113
0.013785
0.0156107
0.0172666
0.0187563
0.0200949
0.0212721
0.0223069
0.023219
0.0240229
0.0247307
0.0253521
0.0258944
0.0263655
0.0267725
0.0271216
0.0274181
0.0276661
0.0278687
0.0280284
0.0281465
0.0282249
0.0282727
0.0282908
0.0282798
0.0282404
0.0281729
0.0280778
0.0279555
0.0278067
0.0276324
0.027434
0.0103206
0.0100194
0.00972175
0.00942682
0.00913395
0.00884273
0.00855339
0.0082682
0.00798185
0.00769369
0.0074029
0.00710854
0.00680947
0.00650444
0.00619208
0.00587085
0.00553915
0.00519522
0.00483731
0.0044638
0.00407436
0.00367501
0.00330044
0.00304898
0.00319779
0.00402349
0.005215
0.00636137
0.00780083
0.00969307
0.0117095
0.0136072
0.0153273
0.0168612
0.0182189
0.0194151
0.0204621
0.0213755
0.0221709
0.0228619
0.0234603
0.0239761
0.0244177
0.0247928
0.0251078
0.0253682
0.0255788
0.0257432
0.0258644
0.0259445
0.0259849
0.0259903
0.0259617
0.0258993
0.0258031
0.0256725
0.0255069
0.0253053
0.0250671
0.024792
0.0244814
0.0241386
0.0096341
0.00929435
0.00896363
0.00864071
0.00832451
0.00801414
0.00770923
0.00741115
0.00711703
0.00682506
0.00653409
0.00624289
0.00595013
0.00565443
0.00535436
0.00504848
0.00473536
0.00441361
0.00408199
0.00373964
0.00338695
0.00302975
0.00269969
0.00253205
0.00285615
0.00391085
0.0051831
0.00618502
0.0074177
0.00920282
0.011106
0.0129077
0.0145302
0.0159619
0.0172137
0.0183023
0.0192447
0.0200576
0.0207565
0.0213552
0.0218657
0.0222982
0.0226612
0.0229621
0.0232069
0.0234008
0.0235479
0.0236516
0.0237146
0.0237392
0.0237275
0.0236789
0.0235923
0.0234668
0.0233011
0.0230932
0.0228404
0.0225394
0.0221866
0.0217794
0.0213175
0.020809
0.00891795
0.00854216
0.00818279
0.00783772
0.00750509
0.00718327
0.00687093
0.00656758
0.00627431
0.0059869
0.00570385
0.0054236
0.0051446
0.00486529
0.00458419
0.0042999
0.00401114
0.00371689
0.00341646
0.00310979
0.00279826
0.002488
0.00220754
0.0021029
0.00255056
0.003749
0.00500433
0.00581495
0.0067848
0.00840335
0.0101862
0.0118949
0.0134293
0.0147713
0.0159316
0.0169287
0.0177816
0.0185086
0.0191262
0.0196488
0.0200885
0.0204556
0.0207587
0.0210047
0.0211994
0.0213473
0.0214521
0.0215168
0.0215437
0.0215347
0.021492
0.0214139
0.0212939
0.0211308
0.0209225
0.0206659
0.0203567
0.0199899
0.0195597
0.0190607
0.0184922
0.0178682
0.00817992
0.00777263
0.00739089
0.00703107
0.00669006
0.00636517
0.00605409
0.0057553
0.00546971
0.00519372
0.00492515
0.00466196
0.00440229
0.00414441
0.00388672
0.00362784
0.00336665
0.00310239
0.00283486
0.00256481
0.00229483
0.00203219
0.00180362
0.00173603
0.00224024
0.00349656
0.00469746
0.00535252
0.00605277
0.00743347
0.00908146
0.0106996
0.0121538
0.0134148
0.0144928
0.0154079
0.0161814
0.0168333
0.0173812
0.0178402
0.0182229
0.0185395
0.0187983
0.019006
0.0191677
0.0192877
0.0193689
0.0194139
0.0194243
0.0194015
0.0193466
0.0192603
0.0191334
0.0189616
0.0187425
0.0184732
0.0181494
0.0177662
0.0173184
0.0168019
0.016217
0.0155752
0.00742892
0.00699666
0.00660048
0.00623441
0.0058936
0.005574
0.00527221
0.00498572
0.00471455
0.00445588
0.00420691
0.00396522
0.00372865
0.0034953
0.00326352
0.00303192
0.00279946
0.00256559
0.00233053
0.00209581
0.00186549
0.00164907
0.00147342
0.00144635
0.00192459
0.00315299
0.00433227
0.00487725
0.00540156
0.00639433
0.00788669
0.00941238
0.0107913
0.0119774
0.0129788
0.013818
0.0145188
0.0151032
0.0155902
0.0159954
0.0163318
0.0166095
0.0168365
0.0170189
0.0171616
0.017268
0.0173407
0.0173815
0.0173914
0.0173711
0.0173206
0.0172391
0.017125
0.0169703
0.0167685
0.0165181
0.0162155
0.0158573
0.0154406
0.0149642
0.0144312
0.0138527
0.00667458
0.00622577
0.00582428
0.00546093
0.00512876
0.00482217
0.00453658
0.00426857
0.00401723
0.00378027
0.00355446
0.00333703
0.00312566
0.00291834
0.00271337
0.00250938
0.00230537
0.00210094
0.00189667
0.00169503
0.00150214
0.0013311
0.00121196
0.00122859
0.00160917
0.00275758
0.00393079
0.00439573
0.00472963
0.00536199
0.00667328
0.00809801
0.00940353
0.0105182
0.0114465
0.0122134
0.0128458
0.013368
0.0138002
0.0141589
0.014457
0.0147044
0.0149087
0.0150755
0.015209
0.0153122
0.015387
0.0154346
0.0154555
0.0154496
0.0154163
0.0153541
0.0152608
0.0151335
0.014969
0.0147605
0.0145035
0.0141974
0.0138409
0.0134347
0.0129831
0.0124959
0.00592694
0.0054715
0.0050744
0.00472259
0.00440672
0.00411965
0.00385575
0.00361076
0.00338304
0.00317061
0.00296992
0.00277804
0.00259256
0.00241144
0.00223298
0.00205582
0.00187902
0.00170231
0.00152671
0.00135608
0.00119996
0.00107737
0.00101893
0.00105556
0.00136457
0.00236936
0.00349817
0.00393922
0.00413986
0.00455378
0.00549743
0.00680353
0.00803381
0.00907923
0.00993591
0.0106323
0.0111988
0.0116622
0.012044
0.0123611
0.0126264
0.0128494
0.0130371
0.0131944
0.0133251
0.0134313
0.0135146
0.0135757
0.0136144
0.0136302
0.0136221
0.0135883
0.0135266
0.0134344
0.0133093
0.0131485
0.012951
0.0127128
0.0124319
0.0121096
0.0117507
0.0113616
0.00519602
0.00474482
0.0043617
0.00402936
0.00373619
0.00347367
0.0032353
0.00301623
0.00281435
0.00262778
0.00245283
0.00228655
0.00212653
0.00197078
0.00181765
0.00166581
0.0015144
0.00136338
0.00121455
0.00107435
0.000958475
0.00089078
0.000865989
0.000920613
0.00119882
0.0019903
0.00304625
0.00350762
0.00361775
0.00383454
0.00440007
0.00556347
0.00671237
0.00768959
0.00847535
0.0091018
0.00960375
0.0100104
0.0103446
0.0106234
0.0108595
0.0110616
0.0112361
0.0113873
0.0115181
0.0116304
0.0117251
0.0118023
0.0118617
0.0119023
0.0119228
0.0119215
0.0118962
0.0118449
0.0117655
0.0116561
0.0115157
0.0113428
0.0111385
0.010904
0.0106401
0.0103492
0.0044914
0.00405556
0.00369517
0.00338888
0.00312321
0.00288863
0.00267804
0.0024862
0.002311
0.00215038
0.00200069
0.0018591
0.0017233
0.0015914
0.00146183
0.00133337
0.0012053
0.00107809
0.00095519
0.000848166
0.000780461
0.000746195
0.000746795
0.000814283
0.00105107
0.00162983
0.00258846