/*--------------------------------*- C++ -*----------------------------------*\
  =========                 |
  \\      /  F ield         | OpenFOAM: The Open Source CFD Toolbox
   \\    /   O peration     | Website:  https://openfoam.org
    \\  /    A nd           | Version:  9
     \\/     M anipulation  |
\*---------------------------------------------------------------------------*/
FoamFile
{
    format      ascii;
    class       volScalarField;
    location    "0.0075";
    object      nuTilda;
}
// * * * * * * * * * * * * * * * * * * * * * * * * * * * * * * * * * * * * * //

dimensions      [0 2 -1 0 0 0 0];

internalField   nonuniform List<scalar> 
6352
(
0.000654167
0.000100328
4.76978e-05
3.26532e-05
2.5923e-05
2.22791e-05
2.2284e-05
2.24926e-05
2.18797e-05
2.07586e-05
1.94929e-05
1.8437e-05
1.77202e-05
1.72197e-05
1.6954e-05
1.71684e-05
1.72268e-05
1.91564e-05
0.00187566
0.000466943
0.000245794
0.000171096
0.000135956
0.000116211
0.000117812
0.000119175
0.000115541
0.000109093
0.000101859
9.55078e-05
9.04984e-05
8.6626e-05
8.34958e-05
8.10886e-05
7.89073e-05
7.67971e-05
0.00298812
0.000886231
0.00047116
0.000317788
0.000242002
0.000196227
0.000170254
0.000160132
0.000148683
0.000137092
0.000126041
0.000116941
0.000109977
0.000104685
0.000100675
9.75204e-05
9.4554e-05
9.13114e-05
8.71024e-05
0.00400248
0.001348
0.000713094
0.000471272
0.000349225
0.000274303
0.00022368
0.000193412
0.000170293
0.000151698
0.000136675
0.000126043
0.000118791
0.000113809
0.000110734
0.000109072
0.000107936
0.000106512
0.000104001
0.00491886
0.00181619
0.000959139
0.00062452
0.00045294
0.000346565
0.000272298
0.000223102
0.000188873
0.000164135
0.000146331
0.000137159
0.000132425
0.000128553
0.000125038
0.000122251
0.000119996
0.000117622
0.000114782
0.000112419
0.00573423
0.00226961
0.00120023
0.000772198
0.000549265
0.000409831
0.000318603
0.000258242
0.00021727
0.000188551
0.000167849
0.000156197
0.000148601
0.000142011
0.000135985
0.000131254
0.0001276
0.000124606
0.000121872
0.000119676
0.00644305
0.00269141
0.00142852
0.000909414
0.000634546
0.00046966
0.000365082
0.000296676
0.000250451
0.000217656
0.000192959
0.000175595
0.000161858
0.000151235
0.000143348
0.000138039
0.000134169
0.000130873
0.000127865
0.00012507
0.00703679
0.00306423
0.00163643
0.00103093
0.000712291
0.000526306
0.000410264
0.000334691
0.000283161
0.000245537
0.0002158
0.000192781
0.000174967
0.000161292
0.000151368
0.000144968
0.000139955
0.000135282
0.000131213
0.000127791
0.00750229
0.0033722
0.00181627
0.00113428
0.000781019
0.000577263
0.000450852
0.000368377
0.000311387
0.000268264
0.00023466
0.000208573
0.000188368
0.00017261
0.000160349
0.000150415
0.000142127
0.000135836
0.000131167
0.000127475
0.00781717
0.00359929
0.00194813
0.00120602
0.000828645
0.000613274
0.000479959
0.000392607
0.000330048
0.000283168
0.000247503
0.000219839
0.000198139
0.00018044
0.000165721
0.000153529
0.000143593
0.000135714
0.000130057
0.000125315
0.00787043
0.00362286
0.00195074
0.00120564
0.000830073
0.000614657
0.000480301
0.000392129
0.000329414
0.000282656
0.00024716
0.000219314
0.000197252
0.000179482
0.000164898
0.000152442
0.000142265
0.000133914
0.000127274
0.000121778
0.0077572
0.00354866
0.00190936
0.00117807
0.000810509
0.000601023
0.000469439
0.000382484
0.000321437
0.000275749
0.000240917
0.000213835
0.000192178
0.000174624
0.000160211
0.000148235
0.000138174
0.000129696
0.000122764
0.000117019
0.00752684
0.00339781
0.00182841
0.00112574
0.000772878
0.000573578
0.000448412
0.000364592
0.000305941
0.000262922
0.000229679
0.000203701
0.000183044
0.000166533
0.000152599
0.00014111
0.000131607
0.000123723
0.000117184
0.000111724
0.00714216
0.00317553
0.00171089
0.00105156
0.000718928
0.000532642
0.000417735
0.000339682
0.000284475
0.000244212
0.000213757
0.0001899
0.000170472
0.000154826
0.000142023
0.000131719
0.000123316
0.000116184
0.000110001
0.000105173
0.00660743
0.00285915
0.00155398
0.00095803
0.000650864
0.000478577
0.000374207
0.000305735
0.000256488
0.000219595
0.000191506
0.000169993
0.000153329
0.000139775
0.000128087
0.000118789
0.000111685
0.000106025
0.00010198
9.98206e-05
0.00591709
0.00244877
0.00133671
0.000836434
0.00056768
0.00041344
0.000319924
0.000260071
0.000219152
0.000189609
0.000165456
0.000146279
0.000131903
0.000120472
0.000111352
0.000105069
0.000100959
9.81747e-05
9.54568e-05
9.27107e-05
0.00505468
0.00194688
0.00106421
0.000680813
0.000472115
0.000343455
0.000262319
0.000209782
0.000174725
0.00015059
0.000132709
0.000119269
0.000111526
0.000103084
9.56645e-05
9.00502e-05
8.67508e-05
8.5348e-05
8.42348e-05
8.5047e-05
0.00399002
0.00136683
0.000748921
0.000490907
0.000353274
0.00026818
0.000207756
0.000165648
0.000136227
0.000114954
9.92283e-05
8.78428e-05
8.07103e-05
7.90554e-05
7.91619e-05
7.84743e-05
7.75811e-05
7.65008e-05
7.56758e-05
7.58727e-05
0.00267162
0.000781518
0.000415359
0.00028038
0.00021129
0.000168786
0.000138335
0.000123228
0.000111088
9.82848e-05
8.66893e-05
7.76278e-05
7.0198e-05
6.63757e-05
6.4288e-05
6.21466e-05
6.08977e-05
5.78251e-05
5.38909e-05
5.92198e-05
0.00101231
0.000180612
8.4577e-05
5.56771e-05
4.18082e-05
3.35097e-05
2.76687e-05
2.44529e-05
2.21227e-05
1.9833e-05
1.78658e-05
1.95264e-05
1.61303e-05
1.57872e-05
1.57794e-05
1.58464e-05
2.38924e-05
2.52375e-05
1.51122e-05
1.50668e-05
0.000123657
0.000125692
0.000123646
0.000124738
0.000122152
0.000119656
0.000121829
0.000118929
0.000115593
0.000117516
0.000113638
0.000109846
0.000106217
0.000112313
0.000108038
0.000104157
0.000100722
0.000106995
0.000102776
9.92232e-05
9.63014e-05
9.42353e-05
0.000100982
9.75861e-05
9.53669e-05
9.3647e-05
9.22185e-05
9.10319e-05
9.72001e-05
9.46931e-05
9.26743e-05
9.10639e-05
8.97271e-05
8.85683e-05
9.06805e-05
8.92417e-05
8.80803e-05
8.70655e-05
8.61121e-05
8.51736e-05
8.47493e-05
8.41376e-05
8.33752e-05
8.25003e-05
8.14897e-05
8.03886e-05
7.90216e-05
7.45073e-05
7.41049e-05
7.36717e-05
7.3003e-05
7.20703e-05
7.12197e-05
6.96409e-05
6.31048e-05
6.44e-05
6.43519e-05
6.36984e-05
6.26601e-05
6.29884e-05
6.00692e-05
5.87745e-05
1.55591e-05
1.57485e-05
1.56124e-05
1.53405e-05
1.50812e-05
2.20013e-05
1.4305e-05
1.37719e-05
0.0140217
0.0140217
0.0140217
0.0140216
0.0140216
0.0140215
0.0140214
0.0140214
0.0140213
0.0140213
0.0140212
0.0140212
0.0140211
0.014021
0.014021
0.0140209
0.0140208
0.0140208
0.0140207
0.0140206
0.0140206
0.0140205
0.0140204
0.0140204
0.0140203
0.0140202
0.0140201
0.0140201
0.01402
0.0140199
0.0140199
0.0140198
0.0140197
0.0140197
0.0140196
0.0140195
0.0140195
0.0140194
0.0140193
0.0140192
0.0140192
0.0140191
0.014019
0.014019
0.0140189
0.0140188
0.0140188
0.0140187
0.0140186
0.0140185
0.0140185
0.0140184
0.0140183
0.0140183
0.0140182
0.0140181
0.014018
0.014018
0.0140179
0.0140178
0.0140178
0.0140072
0.0140073
0.0140074
0.0140074
0.0140075
0.0140076
0.0140077
0.0140077
0.0140078
0.0140079
0.0140079
0.014008
0.014008
0.014008
0.0140081
0.0140081
0.0140081
0.0140081
0.0140081
0.0140081
0.014008
0.014008
0.0140079
0.0140078
0.0140077
0.0140076
0.0140076
0.0140075
0.0140075
0.0140075
0.0140075
0.0140076
0.0140076
0.0140076
0.0140076
0.0140076
0.0140076
0.0140076
0.0140076
0.0140076
0.0140076
0.0140076
0.0140076
0.0140076
0.0140076
0.0140077
0.0140077
0.0140077
0.0140077
0.0140077
0.0140077
0.0140077
0.0140077
0.0140077
0.0140077
0.0140077
0.0140077
0.0140078
0.0140078
0.0140078
0.0140078
0.0139927
0.0139927
0.0139928
0.0139929
0.0139929
0.013993
0.013993
0.0139931
0.0139931
0.0139932
0.0139932
0.0139932
0.0139933
0.0139933
0.0139934
0.0139934
0.0139935
0.0139935
0.0139935
0.0139936
0.0139936
0.0139936
0.0139936
0.0139935
0.0139935
0.0139934
0.0139933
0.0139932
0.013993
0.0139929
0.0139928
0.0139926
0.0139925
0.0139924
0.0139922
0.0139921
0.013992
0.0139919
0.0139917
0.0139916
0.0139915
0.0139913
0.0139912
0.0139911
0.0139909
0.0139908
0.0139907
0.0139906
0.0139904
0.0139903
0.0139902
0.01399
0.0139899
0.0139898
0.0139897
0.0139895
0.0139894
0.0139893
0.0139891
0.013989
0.0139889
0.0139736
0.0139737
0.0139738
0.0139739
0.013974
0.0139741
0.0139742
0.0139743
0.0139744
0.0139745
0.0139746
0.0139747
0.0139748
0.0139748
0.0139749
0.013975
0.0139751
0.0139752
0.0139752
0.0139753
0.0139754
0.0139754
0.0139755
0.0139755
0.0139755
0.0139756
0.0139756
0.0139756
0.0139755
0.0139754
0.0139752
0.0139751
0.0139749
0.0139747
0.0139745
0.0139743
0.0139741
0.013974
0.0139738
0.0139736
0.0139734
0.0139732
0.0139731
0.0139729
0.0139727
0.0139725
0.0139723
0.0139722
0.013972
0.0139718
0.0139716
0.0139715
0.0139713
0.0139713
0.0139713
0.0139713
0.0139713
0.0139714
0.0139714
0.0139715
0.0139715
0.0139417
0.0139419
0.013942
0.0139422
0.0139423
0.0139425
0.0139426
0.0139428
0.0139429
0.0139431
0.0139432
0.0139434
0.0139435
0.0139437
0.0139438
0.013944
0.0139441
0.0139442
0.0139444
0.0139445
0.0139447
0.0139448
0.013945
0.0139451
0.0139453
0.0139454
0.0139456
0.0139457
0.0139459
0.013946
0.0139461
0.0139463
0.0139464
0.0139466
0.0139467
0.0139469
0.013947
0.0139472
0.0139473
0.0139474
0.0139476
0.0139477
0.0139479
0.013948
0.0139481
0.0139483
0.0139484
0.0139486
0.0139487
0.0139488
0.013949
0.0139491
0.0139492
0.0139494
0.0139495
0.0139496
0.0139498
0.0139499
0.01395
0.0139502
0.0139503
0.0139161
0.0139161
0.0139162
0.0139163
0.0139163
0.0139164
0.0139165
0.0139166
0.0139167
0.0139168
0.0139169
0.0139171
0.0139172
0.0139173
0.0139174
0.0139175
0.0139176
0.0139178
0.0139179
0.013918
0.0139181
0.0139183
0.0139184
0.0139185
0.0139186
0.0139188
0.0139189
0.013919
0.0139192
0.0139193
0.0139194
0.0139195
0.0139197
0.0139198
0.0139199
0.01392
0.0139202
0.0139203
0.0139204
0.0139205
0.0139207
0.0139208
0.0139209
0.013921
0.0139212
0.0139213
0.0139214
0.0139215
0.0139216
0.0139218
0.0139219
0.013922
0.0139221
0.0139222
0.0139223
0.0139224
0.0139226
0.0139227
0.0139228
0.0139229
0.013923
0.0138925
0.0138921
0.0138917
0.0138913
0.0138909
0.0138905
0.0138901
0.0138897
0.0138892
0.0138888
0.0138884
0.013888
0.0138876
0.0138872
0.0138868
0.0138864
0.013886
0.0138856
0.0138852
0.0138847
0.0138843
0.0138839
0.0138835
0.0138831
0.0138827
0.0138823
0.0138819
0.0138815
0.0138811
0.0138806
0.0138802
0.0138798
0.0138794
0.013879
0.0138786
0.0138782
0.0138778
0.0138773
0.0138769
0.0138765
0.0138761
0.0138757
0.0138753
0.0138749
0.0138745
0.013874
0.0138736
0.0138732
0.0138728
0.0138724
0.013872
0.0138716
0.0138711
0.0138707
0.0138703
0.0138699
0.0138695
0.0138691
0.0138687
0.0138682
0.0138678
0.013865
0.0138644
0.0138639
0.0138633
0.0138628
0.0138622
0.0138617
0.0138611
0.0138606
0.01386
0.0138595
0.0138589
0.0138584
0.0138578
0.0138572
0.0138567
0.0138561
0.0138556
0.013855
0.0138545
0.0138539
0.0138533
0.0138528
0.0138522
0.0138517
0.0138511
0.0138505
0.01385
0.0138494
0.0138489
0.0138483
0.0138477
0.0138472
0.0138466
0.013846
0.0138455
0.0138449
0.0138443
0.0138438
0.0138432
0.0138426
0.0138421
0.0138415
0.0138409
0.0138404
0.0138398
0.0138392
0.0138387
0.0138381
0.0138375
0.013837
0.0138364
0.0138358
0.0138352
0.0138347
0.0138341
0.0138335
0.0138329
0.0138324
0.0138318
0.0138312
0.0138337
0.0138329
0.0138322
0.0138315
0.0138307
0.01383
0.0138292
0.0138285
0.0138277
0.013827
0.0138263
0.0138255
0.0138248
0.013824
0.0138233
0.0138225
0.0138218
0.013821
0.0138203
0.0138195
0.0138187
0.013818
0.0138172
0.0138165
0.0138157
0.013815
0.0138142
0.0138134
0.0138127
0.0138119
0.0138112
0.0138104
0.0138096
0.0138089
0.0138081
0.0138073
0.0138066
0.0138058
0.013805
0.0138043
0.0138035
0.0138027
0.013802
0.0138012
0.0138004
0.0137996
0.0137989
0.0137981
0.0137973
0.0137965
0.0137958
0.013795
0.0137942
0.0137934
0.0137926
0.0137919
0.0137911
0.0137903
0.0137895
0.0137887
0.0137879
0.0137872
0.0137972
0.0137962
0.0137952
0.0137942
0.0137932
0.0137922
0.0137912
0.0137902
0.0137892
0.0137882
0.0137872
0.0137862
0.0137852
0.0137842
0.0137831
0.0137821
0.0137811
0.0137801
0.0137791
0.0137781
0.013777
0.013776
0.013775
0.013774
0.0137729
0.0137719
0.0137709
0.0137698
0.0137688
0.0137678
0.0137667
0.0137657
0.0137647
0.0137636
0.0137626
0.0137615
0.0137605
0.0137595
0.0137584
0.0137574
0.0137563
0.0137553
0.0137542
0.0137532
0.0137521
0.0137511
0.01375
0.013749
0.0137479
0.0137468
0.0137458
0.0137447
0.0137437
0.0137426
0.0137415
0.0137405
0.0137394
0.0137383
0.0137373
0.0137362
0.0137351
0.013734
0.013755
0.0137536
0.0137523
0.0137509
0.0137496
0.0137482
0.0137469
0.0137455
0.0137442
0.0137428
0.0137414
0.0137401
0.0137387
0.0137373
0.0137359
0.0137346
0.0137332
0.0137318
0.0137304
0.013729
0.0137276
0.0137263
0.0137249
0.0137235
0.0137221
0.0137207
0.0137193
0.0137179
0.0137165
0.0137151
0.0137136
0.0137122
0.0137108
0.0137094
0.013708
0.0137066
0.0137051
0.0137037
0.0137023
0.0137009
0.0136994
0.013698
0.0136966
0.0136951
0.0136937
0.0136922
0.0136908
0.0136893
0.0136879
0.0136865
0.013685
0.0136835
0.0136821
0.0136806
0.0136792
0.0136777
0.0136763
0.0136748
0.0136733
0.0136718
0.0136704
0.0136689
0.0137058
0.013704
0.0137021
0.0137003
0.0136985
0.0136966
0.0136948
0.013693
0.0136911
0.0136893
0.0136874
0.0136856
0.0136837
0.0136819
0.01368
0.0136781
0.0136762
0.0136744
0.0136725
0.0136706
0.0136687
0.0136668
0.0136649
0.013663
0.0136611
0.0136592
0.0136573
0.0136554
0.0136535
0.0136515
0.0136496
0.0136477
0.0136457
0.0136438
0.0136419
0.0136399
0.013638
0.013636
0.013634
0.0136321
0.0136301
0.0136282
0.0136262
0.0136242
0.0136222
0.0136202
0.0136183
0.0136163
0.0136143
0.0136123
0.0136103
0.0136083
0.0136063
0.0136043
0.0136023
0.0136003
0.0135982
0.0135962
0.0135942
0.0135922
0.0135901
0.0135881
0.0136486
0.0136462
0.0136437
0.0136412
0.0136388
0.0136363
0.0136338
0.0136313
0.0136288
0.0136263
0.0136238
0.0136213
0.0136187
0.0136162
0.0136136
0.0136111
0.0136085
0.013606
0.0136034
0.0136008
0.0135982
0.0135956
0.013593
0.0135904
0.0135878
0.0135852
0.0135826
0.0135799
0.0135773
0.0135747
0.013572
0.0135693
0.0135667
0.013564
0.0135613
0.0135586
0.0135559
0.0135532
0.0135505
0.0135478
0.0135451
0.0135424
0.0135396
0.0135369
0.0135341
0.0135314
0.0135286
0.0135259
0.0135231
0.0135203
0.0135176
0.0135148
0.013512
0.0135092
0.0135064
0.0135036
0.0135008
0.013498
0.0134952
0.0134923
0.0134895
0.0134867
0.0135822
0.0135789
0.0135755
0.0135722
0.0135688
0.0135655
0.0135621
0.0135587
0.0135553
0.0135519
0.0135484
0.013545
0.0135415
0.0135381
0.0135346
0.0135311
0.0135276
0.0135241
0.0135205
0.013517
0.0135134
0.0135098
0.0135062
0.0135026
0.013499
0.0134954
0.0134917
0.0134881
0.0134844
0.0134807
0.013477
0.0134733
0.0134696
0.0134659
0.0134621
0.0134584
0.0134546
0.0134508
0.013447
0.0134432
0.0134394
0.0134356
0.0134317
0.0134279
0.013424
0.0134202
0.0134163
0.0134124
0.0134085
0.0134046
0.0134007
0.0133967
0.0133928
0.0133888
0.0133849
0.0133809
0.013377
0.013373
0.013369
0.013365
0.013361
0.013357
0.0135049
0.0135004
0.0134959
0.0134913
0.0134868
0.0134822
0.0134776
0.0134729
0.0134683
0.0134636
0.0134589
0.0134541
0.0134494
0.0134446
0.0134398
0.013435
0.0134301
0.0134252
0.0134203
0.0134154
0.0134104
0.0134054
0.0134004
0.0133953
0.0133903
0.0133852
0.01338
0.0133749
0.0133697
0.0133645
0.0133593
0.013354
0.0133487
0.0133434
0.0133381
0.0133327
0.0133273
0.0133219
0.0133165
0.013311
0.0133056
0.0133001
0.0132945
0.013289
0.0132834
0.0132778
0.0132722
0.0132666
0.0132609
0.0132553
0.0132496
0.0132439
0.0132381
0.0132324
0.0132267
0.0132209
0.0132151
0.0132094
0.0132036
0.0131978
0.013192
0.0131861
0.0134149
0.0134088
0.0134026
0.0133964
0.0133902
0.0133839
0.0133776
0.0133712
0.0133648
0.0133583
0.0133518
0.0133453
0.0133387
0.013332
0.0133253
0.0133186
0.0133118
0.0133049
0.013298
0.013291
0.013284
0.0132769
0.0132698
0.0132626
0.0132554
0.0132481
0.0132407
0.0132333
0.0132258
0.0132183
0.0132107
0.013203
0.0131953
0.0131875
0.0131797
0.0131718
0.0131639
0.0131559
0.0131478
0.0131397
0.0131315
0.0131233
0.0131151
0.0131067
0.0130984
0.0130899
0.0130815
0.013073
0.0130644
0.0130558
0.0130472
0.0130385
0.0130298
0.013021
0.0130122
0.0130034
0.0129946
0.0129857
0.0129769
0.012968
0.0129591
0.0129501
0.01331
0.0133016
0.0132932
0.0132848
0.0132762
0.0132676
0.0132589
0.0132501
0.0132412
0.0132322
0.0132232
0.013214
0.0132047
0.0131954
0.0131859
0.0131764
0.0131667
0.0131569
0.013147
0.013137
0.0131269
0.0131166
0.0131062
0.0130957
0.0130851
0.0130743
0.0130634
0.0130524
0.0130412
0.0130299
0.0130185
0.0130069
0.0129951
0.0129833
0.0129712
0.012959
0.0129467
0.0129343
0.0129216
0.0129089
0.012896
0.0128829
0.0128698
0.0128564
0.012843
0.0128295
0.0128158
0.0128021
0.0127882
0.0127743
0.0127603
0.0127463
0.0127322
0.0127181
0.0127039
0.0126898
0.0126757
0.0126616
0.0126476
0.0126336
0.0126196
0.0126058
0.0131875
0.0131762
0.0131647
0.0131531
0.0131414
0.0131295
0.0131174
0.0131052
0.0130929
0.0130803
0.0130676
0.0130547
0.0130416
0.0130283
0.0130147
0.013001
0.012987
0.0129728
0.0129584
0.0129437
0.0129287
0.0129135
0.0128979
0.0128821
0.012866
0.0128495
0.0128328
0.0128157
0.0127982
0.0127804
0.0127622
0.0127437
0.0127248
0.0127055
0.0126858
0.0126657
0.0126452
0.0126243
0.0126031
0.0125815
0.0125596
0.0125374
0.0125149
0.0124922
0.0124693
0.0124462
0.0124231
0.0123999
0.0123767
0.0123535
0.0123305
0.0123076
0.0122849
0.0122625
0.0122404
0.0122185
0.0121971
0.0121761
0.0121557
0.0121358
0.0121166
0.0120979
0.0130449
0.0130294
0.0130138
0.0129979
0.0129818
0.0129654
0.0129487
0.0129317
0.0129144
0.0128968
0.0128788
0.0128605
0.0128418
0.0128226
0.012803
0.012783
0.0127625
0.0127415
0.0127199
0.0126978
0.0126751
0.0126518
0.0126278
0.0126031
0.0125776
0.0125514
0.0125244
0.0124966
0.0124678
0.0124382
0.0124076
0.012376
0.0123435
0.01231
0.0122756
0.0122403
0.0122042
0.0121674
0.0121299
0.012092
0.0120537
0.0120152
0.0119767
0.0119383
0.0119003
0.0118628
0.0118261
0.0117904
0.0117559
0.0117227
0.0116909
0.0116607
0.0116321
0.0116052
0.0115801
0.0115569
0.0115362
0.0115189
0.0115046
0.0114924
0.011482
0.0114733
0.0128791
0.0128582
0.0128369
0.0128153
0.0127932
0.0127706
0.0127475
0.0127239
0.0126997
0.0126749
0.0126494
0.0126232
0.0125963
0.0125686
0.01254
0.0125104
0.0124799
0.0124483
0.0124156
0.0123817
0.0123464
0.0123097
0.0122716
0.0122318
0.0121903
0.0121469
0.0121017
0.0120544
0.0120051
0.0119536
0.0119
0.0118443
0.0117867
0.0117273
0.0116664
0.0116045
0.0115419
0.0114792
0.0114168
0.0113556
0.011296
0.0112388
0.0111844
0.0111335
0.0110866
0.0110448
0.0110106
0.0109824
0.0109594
0.0109413
0.010928
0.0109193
0.0109151
0.0109156
0.0109208
0.0109305
0.0109446
0.0109628
0.0109843
0.011008
0.011032
0.0110586
0.0126868
0.0126588
0.0126302
0.0126008
0.0125708
0.0125399
0.0125081
0.0124755
0.0124417
0.0124069
0.0123709
0.0123336
0.0122949
0.0122547
0.0122128
0.0121691
0.0121235
0.0120757
0.0120256
0.011973
0.0119177
0.0118594
0.0117979
0.0117329
0.0116643
0.0115918
0.0115151
0.0114343
0.0113493
0.0112604
0.0111678
0.0110724
0.0109751
0.0108772
0.01078
0.0106854
0.010595
0.0105108
0.0104351
0.0103724
0.0103218
0.0102827
0.0102554
0.0102402
0.0102372
0.0102467
0.0102692
0.0103046
0.0103522
0.0104109
0.0104784
0.0105528
0.0106383
0.0107361
0.0108494
0.0109722
0.0111051
0.011246
0.0113919
0.0115421
0.0116961
0.011853
0.0124657
0.0124284
0.0123902
0.0123508
0.0123103
0.0122685
0.0122252
0.0121804
0.0121339
0.0120855
0.012035
0.0119824
0.0119272
0.0118694
0.0118086
0.0117445
0.0116768
0.0116052
0.0115293
0.0114486
0.0113628
0.0112713
0.0111737
0.0110694
0.0109583
0.0108398
0.0107142
0.0105817
0.0104432
0.0103004
0.0101559
0.0100132
0.00987611
0.00974952
0.00964027
0.00955407
0.0094899
0.0094505
0.00943783
0.00945322
0.0094992
0.00957605
0.00968238
0.00981434
0.00996633
0.0101503
0.0103643
0.0106023
0.0108623
0.0111415
0.0114359
0.011744
0.0120612
0.0123847
0.0127135
0.0130466
0.0133825
0.0137196
0.014058
0.0143978
0.0147374
0.0150771
0.0122122
0.0121632
0.0121128
0.0120607
0.0120068
0.0119509
0.0118929
0.0118324
0.0117692
0.0117031
0.0116337
0.0115606
0.0114836
0.0114022
0.011316
0.0112243
0.0111266
0.0110224
0.0109109
0.0107914
0.0106631
0.0105252
0.010377
0.0102179
0.0100475
0.00986625
0.00967544
0.00947792
0.00927868
0.00908463
0.00890543
0.00875674
0.00864259
0.00857145
0.00855137
0.00858739
0.00868497
0.0088436
0.00905832
0.00932098
0.00965331
0.0100396
0.0104716
0.0109328
0.011422
0.0119331
0.0124637
0.0130133
0.0135787
0.0141569
0.014745
0.0153376
0.0159271
0.0165098
0.0170897
0.0176637
0.0182273
0.0187786
0.0193166
0.0198401
0.0203485
0.0208409
0.0119231
0.0118596
0.0117941
0.0117262
0.0116558
0.0115825
0.0115061
0.0114261
0.0113422
0.0112541
0.0111611
0.0110628
0.0109586
0.0108479
0.01073
0.010604
0.0104692
0.0103244
0.0101688
0.0100011
0.00982014
0.00962486
0.00941436
0.00918838
0.00894785
0.00869584
0.00843884
0.00818761
0.00796221
0.00777875
0.00765614
0.00761636
0.00767599
0.00784529
0.0081235
0.00849686
0.00898815
0.00956675
0.0102095
0.0109146
0.0116731
0.0124709
0.0132942
0.0141283
0.0149645
0.0157961
0.0166176
0.0174243
0.0182126
0.0189795
0.0197229
0.0204407
0.0211316
0.0217946
0.0224294
0.0230361
0.0236149
0.024166
0.0246899
0.0251869
0.0256574
0.0261016
0.0115957
0.011513
0.0114292
0.0113426
0.0112526
0.0111587
0.0110606
0.0109578
0.0108497
0.0107358
0.0106155
0.0104882
0.0103529
0.010209
0.0100553
0.00989099
0.0097147
0.00952519
0.00932099
0.00910057
0.00886241
0.00860526
0.00832874
0.00803443
0.00772767
0.00741978
0.00713301
0.00688876
0.00672554
0.00668734
0.00680951
0.00711086
0.00758878
0.00823412
0.00902977
0.00993151
0.0109191
0.0119591
0.0130268
0.0141022
0.0151702
0.0162192
0.0172404
0.0182272
0.0191748
0.0200805
0.0209423
0.0217599
0.0225333
0.0232634
0.0239512
0.0245983
0.0252062
0.0257767
0.0263115
0.0268123
0.0272808
0.0277184
0.0281265
0.0285066
0.0288584
0.0291798
0.0112307
0.011125
0.0110171
0.0109077
0.0107953
0.0106781
0.0105555
0.0104272
0.0102925
0.0101506
0.010001
0.00984284
0.00967517
0.00949699
0.00930719
0.00910448
0.00888741
0.00865435
0.00840353
0.00813305
0.00784119
0.00752706
0.00719227
0.00684418
0.00649999
0.00617737
0.00592141
0.00579943
0.00588145
0.00621545
0.00680889
0.00764105
0.00868399
0.009863
0.0111271
0.0124274
0.0137285
0.0150049
0.0162389
0.0174189
0.0185376
0.0195918
0.0205803
0.0215043
0.0223657
0.0231675
0.023913
0.0246055
0.0252483
0.0258445
0.0263967
0.0269074
0.0273787
0.0278139
0.0282156
0.0285858
0.0289252
0.0292343
0.0295128
0.0297603
0.0299774
0.0301662
0.0108265
0.010695
0.0105606
0.0104234
0.0102842
0.0101416
0.00999293
0.00983774
0.00967542
0.0095053
0.00932665
0.00913862
0.00894029
0.00873056
0.00850822
0.00827184
0.0080198
0.00775026
0.00746119
0.00715047
0.00681642
0.0064593
0.00608553
0.0057129
0.00535981
0.00508647
0.00499242
0.00517483
0.00568388
0.00651813
0.00765113
0.00899138
0.0104555
0.0119567
0.0134398
0.0148697
0.0162255
0.0174963
0.0186783
0.0197721
0.0207808
0.0217087
0.0225606
0.023342
0.024058
0.024714
0.0253147
0.0258644
0.0263671
0.0268259
0.0272437
0.0276227
0.0279649
0.0282722
0.0285458
0.0287879
0.0290009
0.0291875
0.0293497
0.0294886
0.0296043
0.0296972
0.0103823
0.0102221
0.010059
0.00989292
0.00972383
0.00955282
0.00937765
0.00919588
0.00900699
0.00881042
0.00860547
0.00839137
0.00816719
0.00793186
0.00768413
0.00742255
0.00714542
0.00685081
0.00653656
0.00620047
0.00584113
0.00546064
0.00507346
0.00469939
0.00439063
0.00427346
0.00448775
0.00507407
0.00600739
0.00728867
0.00880323
0.0104371
0.0120737
0.0136505
0.0151347
0.0165115
0.0177758
0.01893
0.0199801
0.0209337
0.0217987
0.0225821
0.0232898
0.0239282
0.0245039
0.0250228
0.0254899
0.0259097
0.0262859
0.0266216
0.0269185
0.0271777
0.0274003
0.0275891
0.0277504
0.0278873
0.028001
0.0280926
0.0281629
0.0282127
0.028242
0.0282512
0.00989858
0.00970723
0.00951388
0.00931811
0.00911975
0.00891915
0.00871808
0.00851145
0.00829881
0.00807965
0.00785335
0.00761917
0.00737622
0.00712347
0.00685968
0.00658344
0.00629307
0.00598669
0.00566217
0.00531742
0.00495132
0.0045677
0.00418822
0.00384407
0.00364274
0.00378358
0.00436076
0.00526105
0.00646235
0.00800747
0.00971137
0.0114252
0.0130621
0.014583
0.0159757
0.01724
0.0183771
0.0193961
0.0203084
0.021125
0.0218561
0.0225115
0.0230907
0.0236024
0.0240547
0.0244539
0.0248049
0.0251117
0.0253775
0.0256047
0.0257946
0.0259479
0.0260689
0.0261648
0.0262367
0.0262856
0.0263125
0.0263182
0.0263033
0.0262682
0.0262134
0.0261396
0.00937699
0.00915276
0.00892843
0.00870347
0.00847749
0.00825039
0.00802272
0.00779561
0.00756429
0.0073284
0.00708742
0.00684063
0.0065872
0.00632611
0.00605616
0.005776
0.00548408
0.00517868
0.0048579
0.00451991
0.00416397
0.00379496
0.00344015
0.00315326
0.00310854
0.0035487
0.00441078
0.00543489
0.00674142
0.00836254
0.0101103
0.0118032
0.0133706
0.0147935
0.0160747
0.0172269
0.018241
0.0191332
0.0199202
0.0206144
0.021226
0.0217632
0.0222324
0.0226402
0.0229928
0.0232955
0.0235527
0.0237679
0.023944
0.024083
0.024186
0.0242546
0.0242969
0.0243133
0.0243046
0.0242712
0.0242136
0.024132
0.024027
0.023899
0.0237489
0.023578
0.00882041
0.00856263
0.00830796
0.0080557
0.00780525
0.00755625
0.00730887
0.00706507
0.00682027
0.00657394
0.00632536
0.00607373
0.00581809
0.00555736
0.00529036
0.0050158
0.00473229
0.00443836
0.00413248
0.00381331
0.00348055
0.00313935
0.00281935
0.00260455
0.00273176
0.00343774
0.00445751
0.00543947
0.00667235
0.00829309
0.0100211
0.0116487
0.0131255
0.0144438
0.0156118
0.0166418
0.0175442
0.0183322
0.0190188
0.0196159
0.0201334
0.0205799
0.0209624
0.0212876
0.0215609
0.0217873
0.0219705
0.0221139
0.0222199
0.0222904
0.0223266
0.0223326
0.0223092
0.0222566
0.0221747
0.0220632
0.0219214
0.0217486
0.0215442
0.0213079
0.021041
0.0207463
0.00823306
0.00794238
0.00765953
0.00738342
0.0071131
0.0068478
0.00658717
0.00633239
0.006081
0.00583145
0.00558275
0.00533384
0.00508362
0.00483088
0.00457441
0.00431299
0.00404538
0.00377042
0.00348704
0.00319451
0.00289317
0.00258801
0.00230607
0.00216286
0.0024397
0.00334119
0.00442981
0.00528795
0.00634351
0.00787207
0.00950263
0.0110477
0.0124406
0.013671
0.014748
0.0156855
0.0164979
0.0171993
0.017803
0.0183206
0.0187624
0.019137
0.0194517
0.0197129
0.0199257
0.0200945
0.020223
0.0203139
0.0203698
0.0203925
0.0203839
0.0203433
0.0202701
0.0201633
0.0200219
0.0198441
0.0196275
0.0193695
0.019067
0.0187174
0.0183208
0.0178841
0.00762048
0.00729907
0.00699181
0.00669685
0.00641257
0.00613753
0.00587061
0.00561136
0.00536074
0.00511511
0.0048732
0.00463369
0.00439524
0.00415654
0.0039163
0.00367334
0.00342659
0.00317515
0.00291844
0.00265643
0.00239029
0.00212526
0.00188573
0.00179633
0.00217857
0.00320267
0.00427662
0.00497096
0.00580133
0.00718693
0.00871407
0.010179
0.0114959
0.012649
0.0136472
0.0145059
0.0152412
0.0158687
0.0164022
0.0168541
0.0172347
0.0175528
0.0178157
0.0180293
0.0181987
0.0183276
0.0184194
0.0184766
0.0185011
0.0184947
0.0184592
0.0183932
0.0182911
0.0181519
0.0179739
0.0177543
0.0174896
0.0171752
0.0168063
0.0163784
0.0158905
0.0153549
0.00698931
0.00664106
0.00631478
0.00600729
0.0057159
0.0054383
0.00517249
0.00491719
0.00467315
0.00443731
0.00420779
0.00398288
0.00376098
0.00354059
0.00332038
0.00309917
0.00287599
0.0026502
0.00242163
0.00219094
0.00196034
0.00173605
0.00154089
0.00148315
0.00191352
0.00298685
0.00401411
0.00457527
0.00517485
0.00635655
0.00776769
0.00915452
0.0104022
0.0114855
0.0124127
0.0132007
0.0138676
0.0144302
0.0149036
0.0153005
0.0156318
0.0159061
0.0161305
0.0163108
0.0164514
0.0165559
0.0166271
0.0166669
0.0166769
0.0166582
0.0166119
0.0165386
0.0164303
0.0162835
0.0160961
0.0158656
0.0155882
0.0152599
0.0148761
0.0144334
0.0139318
0.0133813
0.00634715
0.00597767
0.00563913
0.00532637
0.0050352
0.00476217
0.00450433
0.00425956
0.00402788
0.00380685
0.00359411
0.00338759
0.00318544
0.00298604
0.00278799
0.0025901
0.0023915
0.0021917
0.00199091
0.00179045
0.00159379
0.00140904
0.00125915
0.00123601
0.00164404
0.00269328
0.00370184
0.00416877
0.00461784
0.00546742
0.00674488
0.00805195
0.00923467
0.0102532
0.0111144
0.0118369
0.0124411
0.0129455
0.0133662
0.0137167
0.0140078
0.0142482
0.0144449
0.0146031
0.0147269
0.0148194
0.0148827
0.0149185
0.0149276
0.0149107
0.0148677
0.0147982
0.0147006
0.0145681
0.0143953
0.0141807
0.0139214
0.0136145
0.0132575
0.0128493
0.0123925
0.0118968
0.00570225
0.00531872
0.00497573
0.00466535
0.00438161
0.00411972
0.00387576
0.0036468
0.00343207
0.00322963
0.00303669
0.00285091
0.00267031
0.00249318
0.00231806
0.00214379
0.00196952
0.00179492
0.00162048
0.00144834
0.00128372
0.00113783
0.00103626
0.00105038
0.00137488
0.00235551
0.00335864
0.00375705
0.00404332
0.00458447
0.00570661
0.00692669
0.00804595
0.00900293
0.00980096
0.0104612
0.0110064
0.0114571
0.0118305
0.0121407
0.0123986
0.0126127
0.0127895
0.0129338
0.0130494
0.0131387
0.0132034
0.0132446
0.0132627
0.0132578
0.0132292
0.0131758
0.0130956
0.0129862
0.012845
0.0126661
0.0124456
0.0121832
0.0118776
0.0115295
0.0111427
0.0107255
0.00506318
0.00467408
0.00433491
0.00403443
0.00376466
0.00351947
0.00329406
0.00308479
0.00289026
0.00270879
0.00253734
0.00237341
0.00221495
0.00206023
0.00190779
0.00175647
0.00160549
0.00145462
0.00130475
0.00115919
0.0010261
0.000921674
0.000871926
0.000903058
0.00116628
0.00202396
0.00298888
0.00336678
0.00353911
0.00389347
0.00470085
0.00581891
0.00687324
0.00777044
0.0085068
0.00910631
0.00959475
0.00999467
0.0103245
0.0105987
0.0108281
0.0110209
0.0111831
0.0113191
0.0114318
0.0115234
0.0115951
0.0116475
0.0116806
0.011694
0.0116866
0.0116571
0.0116037
0.0115241
0.0114162
0.0112778
0.0111079
0.0109033
0.0106622
0.0103858
0.0100783
0.00974508
0.0044385
0.00405312
0.00372594
0.00344214
0.00319178
0.00296759
0.00276401
0.0025769
0.00240447
0.00224511
0.00209566
0.00195363
0.00181695
0.00168394
0.00155317
0.00142354
0.00129431
0.00116547
0.00103858
0.00091915
0.000820567
0.000763045
0.000741988
0.000788341
0.00102503
0.00170032
0.00260269
0.00299778
0.00309272
0.00327863
0.00376247
0.00475808
0.00574226
0.00658064
0.00725592
0.00779521
0.00822799
0.00857899
0.00886772
0.00910877
0.00931279
0.00948741
0.00963805
0.00976848
0.00988119
0.00997776
0.010059
0.010125
0.0101756
0.01021
0.010227
0.0102251
0.0102026
0.0101577
0.0100886
0.00999386
0.00987251
0.00972342
0.00954757
0.00934595
0.00911933
0.00886989
0.00383639
0.0034642
0.00315649
0.00289497
0.00266813
0.00246782
0.00228799
0.00212417
0.00197454
0.00183738
0.00170955