/*--------------------------------*- C++ -*----------------------------------*\
  =========                 |
  \\      /  F ield         | OpenFOAM: The Open Source CFD Toolbox
   \\    /   O peration     | Website:  https://openfoam.org
    \\  /    A nd           | Version:  9
     \\/     M anipulation  |
\*---------------------------------------------------------------------------*/
FoamFile
{
    format      ascii;
    class       volScalarField;
    location    "0.0075";
    object      p;
}
// * * * * * * * * * * * * * * * * * * * * * * * * * * * * * * * * * * * * * //

dimensions      [1 -1 -2 0 0 0 0];

internalField   nonuniform List<scalar> 
6352
(
164313
164311
164310
164309
164308
164307
164306
164306
164305
164305
164304
164304
164303
164303
164302
164302
164301
164301
164312
164311
164310
164309
164308
164307
164307
164306
164305
164305
164304
164304
164303
164303
164302
164302
164302
164301
164312
164311
164310
164309
164308
164307
164307
164306
164305
164305
164304
164304
164303
164303
164303
164302
164302
164301
164301
164311
164311
164310
164309
164308
164307
164307
164306
164306
164305
164304
164304
164304
164303
164303
164302
164302
164301
164301
164311
164311
164310
164309
164308
164307
164307
164306
164306
164305
164305
164304
164304
164303
164303
164302
164302
164302
164301
164301
164311
164311
164310
164309
164308
164308
164307
164306
164306
164305
164305
164304
164304
164303
164303
164303
164302
164302
164301
164301
164311
164310
164310
164309
164308
164308
164307
164306
164306
164305
164305
164304
164304
164303
164303
164303
164302
164302
164301
164301
164311
164310
164310
164309
164308
164308
164307
164306
164306
164305
164305
164304
164304
164304
164303
164303
164302
164302
164302
164301
164311
164310
164310
164309
164308
164308
164307
164307
164306
164306
164305
164305
164304
164304
164303
164303
164303
164302
164302
164301
164311
164310
164310
164309
164308
164308
164307
164307
164306
164306
164305
164305
164304
164304
164303
164303
164303
164302
164302
164302
164311
164310
164310
164309
164309
164308
164307
164307
164306
164306
164305
164305
164304
164304
164304
164303
164303
164303
164302
164302
164311
164311
164310
164309
164309
164308
164307
164307
164306
164306
164305
164305
164305
164304
164304
164303
164303
164303
164302
164302
164311
164311
164310
164309
164309
164308
164308
164307
164306
164306
164306
164305
164305
164304
164304
164304
164303
164303
164303
164302
164311
164311
164310
164309
164309
164308
164308
164307
164307
164306
164306
164305
164305
164304
164304
164304
164303
164303
164303
164302
164311
164311
164310
164309
164309
164308
164308
164307
164307
164306
164306
164305
164305
164305
164304
164304
164304
164303
164303
164303
164311
164311
164310
164310
164309
164308
164308
164307
164307
164306
164306
164306
164305
164305
164304
164304
164304
164303
164303
164303
164312
164311
164310
164310
164309
164308
164308
164307
164307
164307
164306
164306
164305
164305
164305
164304
164304
164304
164303
164303
164312
164311
164310
164310
164309
164309
164308
164308
164307
164307
164306
164306
164305
164305
164305
164304
164304
164304
164303
164303
164312
164311
164310
164310
164309
164309
164308
164308
164307
164307
164306
164306
164306
164305
164305
164304
164304
164304
164304
164303
164313
164311
164310
164310
164309
164309
164308
164308
164307
164307
164307
164306
164306
164305
164305
164305
164304
164304
164304
164304
164301
164301
164300
164301
164301
164300
164301
164301
164300
164301
164301
164300
164300
164302
164301
164301
164300
164302
164301
164301
164300
164300
164302
164302
164301
164301
164300
164299
164302
164302
164301
164301
164300
164300
164302
164302
164302
164301
164301
164300
164303
164302
164302
164301
164301
164300
164299
164303
164302
164302
164301
164301
164300
164300
164303
164303
164302
164302
164301
164301
164300
164299
164303
164303
164302
164302
164301
164301
164300
164300
99986.1
99986.3
99986.5
99986.7
99986.9
99987
99987.2
99987.3
99987.5
99987.6
99987.8
99987.9
99988.1
99988.2
99988.3
99988.5
99988.6
99988.7
99988.9
99989
99989.1
99989.3
99989.4
99989.5
99989.7
99989.8
99989.9
99990
99990.1
99990.3
99990.4
99990.5
99990.6
99990.7
99990.8
99990.9
99991.1
99991.2
99991.3
99991.4
99991.5
99991.6
99991.7
99991.8
99991.9
99992
99992.1
99992.2
99992.3
99992.4
99992.5
99992.6
99992.7
99992.8
99992.9
99992.9
99993
99993.1
99993.2
99993.3
99993.4
100002
100002
100002
100002
100002
100002
100002
100002
100002
100002
100002
100003
100003
100003
100003
100003
100003
100003
100003
100003
100003
100003
100003
100003
100003
100003
100003
100003
100003
100003
100004
100004
100004
100004
100004
100004
100004
100004
100004
100004
100004
100004
100004
100004
100004
100004
100004
100004
100004
100004
100004
100004
100004
100004
100004
100004
100005
100005
100005
100005
100005
100016
100016
100016
100016
100016
100016
100016
100016
100016
100016
100016
100015
100015
100015
100015
100015
100015
100015
100015
100015
100015
100015
100015
100015
100015
100015
100015
100015
100015
100015
100015
100015
100014
100014
100014
100014
100014
100014
100014
100014
100014
100014
100014
100014
100014
100014
100014
100014
100014
100014
100014
100014
100014
100014
100014
100014
100014
100014
100014
100013
100013
100016
100016
100016
100016
100016
100016
100016
100016
100016
100016
100016
100016
100016
100016
100016
100016
100016
100016
100016
100016
100016
100016
100016
100016
100016
100016
100016
100016
100016
100016
100016
100016
100016
100016
100016
100016
100016
100016
100016
100016
100016
100016
100016
100016
100016
100016
100016
100016
100016
100016
100016
100016
100016
100016
100016
100016
100016
100016
100016
100016
100016
100026
100026
100026
100026
100026
100026
100026
100026
100026
100026
100026
100025
100025
100025
100025
100025
100025
100025
100025
100025
100025
100025
100025
100025
100025
100025
100025
100025
100025
100025
100025
100025
100025
100025
100025
100025
100025
100025
100025
100024
100024
100024
100024
100024
100024
100024
100024
100024
100024
100024
100024
100024
100024
100024
100024
100024
100024
100024
100024
100024
100024
100029
100029
100029
100029
100029
100029
100029
100029
100029
100029
100029
100029
100029
100029
100029
100029
100029
100029
100029
100028
100028
100028
100028
100028
100028
100028
100028
100028
100028
100028
100028
100028
100028
100028
100028
100028
100028
100028
100028
100028
100028
100028
100028
100028
100028
100028
100027
100027
100027
100027
100027
100027
100027
100027
100027
100027
100027
100027
100027
100027
100027
100037
100037
100037
100037
100037
100037
100037
100036
100036
100036
100036
100036
100036
100036
100036
100036
100036
100036
100036
100036
100036
100036
100036
100036
100036
100036
100036
100035
100035
100035
100035
100035
100035
100035
100035
100035
100035
100035
100035
100035
100035
100035
100035
100034
100034
100034
100034
100034
100034
100034
100034
100034
100034
100034
100034
100034
100033
100033
100033
100033
100033
100042
100042
100042
100042
100042
100042
100042
100042
100042
100042
100042
100042
100042
100042
100042
100042
100041
100041
100041
100041
100041
100041
100041
100041
100041
100041
100041
100041
100041
100040
100040
100040
100040
100040
100040
100040
100040
100040
100040
100040
100040
100039
100039
100039
100039
100039
100039
100039
100039
100039
100039
100038
100038
100038
100038
100038
100038
100038
100038
100038
100038
100050
100050
100050
100050
100050
100050
100050
100050
100049
100049
100049
100049
100049
100049
100049
100049
100049
100049
100049
100048
100048
100048
100048
100048
100048
100048
100048
100048
100047
100047
100047
100047
100047
100047
100047
100047
100046
100046
100046
100046
100046
100046
100046
100045
100045
100045
100045
100045
100045
100045
100044
100044
100044
100044
100044
100044
100044
100043
100043
100043
100043
100043
100058
100057
100057
100057
100057
100057
100057
100057
100057
100057
100056
100056
100056
100056
100056
100056
100056
100056
100055
100055
100055
100055
100055
100055
100054
100054
100054
100054
100054
100054
100053
100053
100053
100053
100053
100052
100052
100052
100052
100052
100051
100051
100051
100051
100051
100050
100050
100050
100050
100050
100049
100049
100049
100049
100049
100048
100048
100048
100048
100048
100047
100047
100067
100066
100066
100066
100066
100066
100066
100066
100065
100065
100065
100065
100065
100064
100064
100064
100064
100064
100063
100063
100063
100063
100062
100062
100062
100062
100062
100061
100061
100061
100060
100060
100060
100060
100059
100059
100059
100059
100058
100058
100058
100057
100057
100057
100056
100056
100056
100056
100055
100055
100055
100054
100054
100054
100053
100053
100053
100053
100052
100052
100052
100051
100076
100076
100076
100076
100076
100075
100075
100075
100075
100074
100074
100074
100074
100073
100073
100073
100072
100072
100072
100071
100071
100071
100070
100070
100070
100069
100069
100069
100068
100068
100067
100067
100067
100066
100066
100065
100065
100065
100064
100064
100063
100063
100062
100062
100062
100061
100061
100060
100060
100059
100059
100059
100058
100058
100057
100057
100056
100056
100056
100055
100055
100054
100088
100088
100087
100087
100087
100087
100086
100086
100086
100085
100085
100084
100084
100084
100083
100083
100082
100082
100081
100081
100080
100080
100079
100079
100078
100078
100077
100077
100076
100076
100075
100074
100074
100073
100073
100072
100071
100071
100070
100070
100069
100068
100068
100067
100066
100066
100065
100065
100064
100063
100063
100062
100062
100061
100060
100060
100059
100059
100058
100057
100057
100056
100101
100101
100100
100100
100100
100099
100099
100098
100098
100097
100097
100096
100096
100095
100095
100094
100093
100093
100092
100091
100091
100090
100089
100088
100088
100087
100086
100085
100084
100083
100083
100082
100081
100080
100079
100078
100077
100076
100076
100075
100074
100073
100072
100071
100070
100069
100068
100067
100067
100066
100065
100064
100063
100062
100061
100061
100060
100059
100058
100057
100057
100056
100117
100116
100116
100115
100115
100114
100114
100113
100112
100112
100111
100110
100110
100109
100108
100107
100106
100105
100104
100103
100102
100101
100100
100099
100098
100097
100096
100094
100093
100092
100091
100090
100088
100087
100086
100084
100083
100082
100080
100079
100078
100077
100075
100074
100073
100071
100070
100069
100068
100066
100065
100064
100063
100062
100061
100059
100058
100057
100056
100055
100054
100053
100134
100134
100133
100133
100132
100132
100131
100130
100129
100129
100128
100127
100126
100125
100123
100122
100121
100120
100118
100117
100116
100114
100113
100111
100109
100108
100106
100104
100102
100101
100099
100097
100095
100093
100091
100090
100088
100086
100084
100082
100080
100078
100076
100074
100073
100071
100069
100067
100066
100064
100062
100061
100059
100057
100056
100054
100053
100052
100050
100049
100048
100047
100155
100154
100154
100153
100153
100152
100151
100150
100149
100148
100147
100146
100145
100143
100142
100140
100138
100137
100135
100133
100131
100129
100127
100125
100122
100120
100118
100115
100113
100110
100108
100105
100102
100100
100097
100094
100092
100089
100086
100083
100081
100078
100075
100073
100070
100068
100065
100063
100060
100058
100056
100054
100051
100049
100047
100045
100044
100042
100040
100039
100037
100036
100178
100177
100177
100176
100176
100175
100174
100173
100172
100171
100169
100168
100166
100165
100163
100161
100159
100156
100154
100151
100149
100146
100143
100140
100137
100134
100130
100127
100123
100120
100116
100113
100109
100105
100101
100097
100093
100089
100086
100082
100078
100074
100070
100067
100063
100060
100056
100053
100049
100046
100043
100040
100037
100035
100032
100030
100028
100025
100023
100022
100020
100018
100203
100203
100202
100202
100202
100201
100200
100199
100198
100197
100195
100193
100192
100189
100187
100185
100182
100179
100176
100173
100169
100166
100162
100158
100154
100149
100145
100140
100135
100130
100125
100120
100115
100110
100104
100099
100094
100088
100083
100077
100072
100067
100062
100057
100052
100047
100042
100038
100033
100029
100025
100021
100018
100014
100011
100008
100006
100003
100001
99998.9
99997
99995.4
100229
100230
100230
100230
100229
100229
100228
100228
100226
100225
100224
100222
100220
100217
100215
100212
100209
100205
100201
100197
100193
100188
100183
100178
100173
100167
100161
100155
100148
100141
100135
100128
100120
100113
100105
100098
100090
100083
100075
100068
100060
100053
100046
100039
100032
100025
100019
100013
100007
100001
99996.2
99991.3
99986.7
99982.5
99978.6
99975.1
99972
99969.4
99967.2
99965.3
99963.7
99962.4
100257
100257
100258
100258
100259
100259
100258
100258
100257
100256
100254
100252
100250
100248
100245
100242
100238
100234
100230
100225
100220
100214
100208
100201
100194
100187
100179
100171
100162
100153
100144
100135
100125
100115
100105
100094
100084
100074
100063
100053
100043
100033
100023
100014
100005
99996
99987.9
99980.2
99973.1
99966.5
99960.5
99954.9
99949.6
99944.5
99939.9
99935.7
99932.1
99929.2
99926.4
99923.8
99921.8
99920.5
100283
100285
100286
100287
100288
100288
100289
100289
100288
100287
100286
100284
100282
100280
100277
100274
100270
100265
100260
100255
100249
100242
100235
100227
100219
100209
100199
100189
100178
100166
100154
100141
100128
100114
100101
100086
100072
100058
100044
100030
100016
100003
99990.1
99977.5
99965.1
99952.5
99940
99928.2
99917.4
99907.6
99899.1
99892.6
99887
99881.6
99877
99873.2
99870.2
99868.2
99867.1
99866.8
99867.4
99868.6
100309
100311
100313
100315
100316
100317
100318
100319
100319
100318
100318
100316
100315
100313
100310
100307
100303
100298
100293
100287
100281
100273
100265
100256
100245
100234
100222
100209
100195
100180
100164
100147
100129
100110
100091
100072
100052
100032
100011
99989.8
99969.2
99949.7
99931.7
99916.4
99903.2
99890.6
99878.7
99867.9
99858.4
99850.1
99842.9
99836.6
99831.1
99826.3
99822.1
99818.7
99816.4
99815.2
99814.7
99815.1
99816.2
99818
100332
100335
100338
100340
100343
100344
100346
100347
100348
100348
100348
100347
100346
100344
100342
100339
100336
100332
100327
100321
100314
100306
100297
100287
100275
100262
100247
100231
100213
100194
100172
100149
100124
100098
100071
100043
100015
99989.1
99966.1
99944.2
99921.4
99899.6
99879.6
99861.4
99844.5
99829.3
99815.8
99804
99793.9
99785.5
99778.6
99773.3
99769.5
99767
99765.6
99765.2
99765.9
99767.5
99769.9
99773
99776.9
99781.4
100353
100357
100360
100363
100366
100369
100371
100372
100374
100375
100375
100375
100375
100374
100372
100370
100367
100364
100359
100354
100347
100340
100330
100320
100307
100292
100276
100256
100234
100209
100180
100149
100115
100080
100045
100010
99976.7
99945.2
99915.5
99887.5
99861.7
99838.8
99818.7
99801.3
99786.4
99773.8
99763.3
99754.8
99748.1
99743.1
99739.5
99737.2
99736.1
99736.1
99737
99738.8
99741.3
99744.6
99748.5
99753
99758.1
99763.7
100371
100376
100380
100384
100387
100390
100392
100395
100396
100398
100399
100400
100400
100400
100399
100398
100396
100394
100390
100386
100380
100373
100365
100354
100341
100325
100306
100284
100256
100223
100184
100141
100098
100055
100012
99971.8
99933.8
99899.2
99868.5
99841.5
99817.9
99797.7
99780.4
99765.9
99753.8
99743.8
99735.7
99729.4
99724.5
99721.1
99718.9
99717.9
99717.9
99718.8
99720.6
99723.2
99726.5
99730.5
99735.2
99740.4
99746.2
99752.4
100387
100392
100397
100401
100405
100408
100411
100413
100416
100417
100419
100420
100421
100422
100422
100422
100421
100420
100418
100415
100411
100405
100398
100388
100376
100360
100340
100313
100278
100235
100184
100132
100080
100030
99982.8
99940.2
99902.4
99869.2
99840.5
99815.6
99794.3
99776.1
99760.7
99747.8
99737
99728.3
99721.3
99716
99712.1
99709.5
99708.1
99707.7
99708.4
99709.9
99712.3
99715.4
99719.2
99723.6
99728.6
99734.2
99740.2
99746.7
100402
100407
100412
100416
100420
100423
100426
100429
100431
100433
100435
100437
100439
100440
100441
100442
100442
100442
100442
100440
100438
100435
100429
100422
100411
100396
100375
100343
100300
100245
100185
100125
100067
100014
99966.5
99924.7
99888.1
99856.4
99828.8
99805.1
99784.7
99767.2
99752.5
99740.1
99729.9
99721.7
99715.1
99710.1
99706.6
99704.3
99703.1
99703.1
99704
99705.7
99708.3
99711.6
99715.6
99720.2
99725.3
99731
99737.1
99743.6
100414
100420
100425
100429
100433
100436
100439
100442
100444
100446
100448
100450
100452
100454
100456
100457
100459
100460
100461
100461
100461
100460
100457
100452
100444
100431
100409
100373
100322
100258
100190
100125
100065
100011
99964.2
99922.8
99886.5
99855
99827.5
99803.8
99783.4
99765.9
99751.1
99738.6
99728.4
99720
99713.4
99708.4
99704.9
99702.6
99701.5
99701.5
99702.5
99704.4
99707
99710.4
99714.4
99719
99724.2
99729.8
99735.9
99742.4
100426
100432
100437
100441
100444
100447
100450
100452
100454
100456
100458
100461
100463
100465
100467
100469
100472
100474
100476
100478
100479
100480
100480
100478
100473
100463
100442
100404
100347
100276
100203
100136
100075
100020
99972.4
99930.3
99893.3
99861
99832.8
99808.4
99787.2
99769.1
99753.7
99740.8
99730.1
99721.4
99714.6
99709.3
99705.6
99703.2
99702.1
99702
99702.9
99704.8
99707.4
99710.8
99714.8
99719.4
99724.5
99730.1
99736.1
99742.4
100437
100443
100447
100451
100454
100456
100458
100460
100462
100464
100466
100468
100471
100473
100476
100479
100481
100484
100487
100490
100493
100496
100498
100499
100497
100490
100472
100435
100374
100300
100225
100155
100092
100037
99987.3
99943.8
99905.5
99871.8
99842.3
99816.6
99794.3
99775.2
99758.9
99745.2
99733.9
99724.7
99717.4
99711.8
99707.8
99705.2
99703.9
99703.8
99704.6
99706.4
99709.1
99712.4
99716.4
99721
99726.1
99731.6
99737.5
99743.6
100447
100452
100456
100459
100462
100463
100465
100467
100468
100470
100472
100474
100477
100479
100482
100485
100489
100492
100495
100499
100503
100507
100511
100514
100516
100512
100498
100464
100404
100329
100252
100180
100116
100058
100007
99961.6
99921.3
99885.6
99854.3
99826.9
99803.2
99782.8
99765.4
99750.9
99738.8
99729
99721.2
99715.3
99711
99708.2
99706.8
99706.5
99707.3
99709.1
99711.7
99715
99719
99723.6
99728.7
99734.1
99739.9
99745.9
100456
100462
100465
100467
100469
100470
100471
100472
100473
100475
100477
100479
100481
100484
100487
100490
100494
100497
100501
100505
100510
100515
100520
100525
100528
100527
100518
100490
100436
100363
100284
100210
100144
100084
100030
99982
99939.1
99901.1
99867.6
99838.3
99812.9
99791.1
99772.6
99757.1
99744.3
99733.9
99725.6
99719.4
99714.8
99711.9
99710.3
99709.9
99710.7
99712.5
99715.1
99718.4
99722.5
99727.1
99732.1
99737.5
99743.2
99749
100466
100470
100473
100474
100474
100475
100475
100476
100477
100479
100480
100482
100485
100488
100491
100494
100498
100501
100505
100510
100514
100519
100525
100531
100536
100537
100531
100511
100466
100397
100319
100243
100174
100112
100055
100004
99958
99917.2
99881.2
99849.9
99822.7
99799.5
99779.9
99763.4
99749.9
99738.9
99730.3
99723.7
99718.9
99715.8
99714.1
99713.8
99714.6
99716.3
99719
99722.5
99726.5
99731.2
99736.3
99741.6
99747.2
99752.8
100475
100478
100480
100480
100479
100479
100479
100479
100480
100481
100483
100485
100487
100490
100493
100497
100501
100504
100508
100513
100517
100522
100528
100534
100539
100541
100538
100525
100491
100430
100354
100278
100206
100141
100081
100026
99976.9
99933.1
99894.6
99861
99832.1
99807.5
99786.7
99769.4
99755.2
99743.8
99734.8
99727.9
99723
99719.8
99718.1
99717.8
99718.6
99720.5
99723.3
99726.8
99731
99735.8
99740.9
99746.3
99751.8
99757.2
100483
100486
100486
100485
100484
100483
100482
100482
100482
100483
100485
100487
100489
100492
100496
100499
100503
100507
100511
100515
100519
100524
100529
100534
100539
100541
100539
100532
100509
100460
100390
100313
100239
100170
100107
100048
99995.2
99948.2
99907
99871.3
99840.7
99814.7
99792.9
99774.8
99760
99748.2
99738.9
99731.8
99726.8
99723.6
99721.9
99721.6
99722.6
99724.6
99727.6
99731.3
99735.7
99740.6
99745.8
99751.2
99756.7
99762
100491
100492
100491
100489
100487
100485
100484
100484
100484
100485
100486
100488
100491
100494
100497
100501
100504
100508
100512
100516
100520
100525
100529
100534
100538
100539
100537
100534
100520
100484
100423
100348
100272
100200
100132
100069
100012
99962.1
99918.1
99880.3
99848.1
99820.9
99798.2
99779.4
99764.2
99751.9
99742.4
99735.3
99730.2
99726.9
99725.3
99725.2
99726.3
99728.5
99731.6
99735.6
99740.2
99745.3
99750.8
99756.3
99761.9
99767.1
100499
100498
100496
100493
100490
100488
100486
100485
100486
100486
100488
100490
100492
100495
100498
100502
100506
100510
100514
100517
100521
100525
100528
100532
100535
100536
100534
100532
100525
100502
100452
100381
100305
100229
100156
100089
100028
99974.3
99927.8
99888
99854.3
99826
99802.5
99783.2
99767.5
99755
99745.3
99738
99732.9
99729.7
99728.2
99728.1
99729.4
99731.8
99735.2
99739.4
99744.3
99749.7
99755.4
99761.3
99767
99772.4
100506
100504
100500
100496
100492
100489
100488
100487
100487
100487
100489
100490
100493
100496
100499
100503
100507
100511
100515
100518
100522
100525
100528
100530
100533
100533
100531
100528
100526
100513
100475
100412
100336
100256
100179
100107
100042
99984.9
99935.9
99894.3
99859.3
99830
99805.8
99786
99770
99757.3
99747.4
99740.1
99735
99731.8
99730.4
99730.4
99731.8
99734.5
99738.1
99742.6
99747.8
99753.5
99759.6
99765.7
99771.8
99777.4
100513
100508
100503
100498
100494
100491
100489
100487
100487
100488
100489
100491
100494
100497
100500
100504
100508
100512
100516
100519
100522
100525
100527
100529
100531
100531
100528
100525
100524
100518
100492
100439
100365
100282
100200
100123
100054
99993.8
99942.5
99899.3
99863.1
99833
99808.3
99788
99771.7
99758.8
99748.8
99741.4
99736.3
99733.2
99731.8
99732
99733.6
99736.4
99740.2
99744.9
99750.4
99756.5
99762.9
99769.4
99775.9
99781.9
100519
100512
100505
100500
100495
100492
100489
100488
100488
100488
100490
100492
100494
100497
100501
100505
100509
100513
100516
100520
100522
100524
100526
100528
100529
100530
100527
100523
100522
100519
100503
100460
100391
100306
100219
100137
100064
100001
99947.7
99903
99865.9
99835.1
99809.9
99789.3
99772.8
99759.7
99749.6
99742.2
99737.1
99733.9
99732.6
99732.9
99734.5
99737.5
99741.5
99746.4
99752.2
99758.5
99765.2
99772.1
99779
99785.5
100524
100515
100508
100501
100496
100492
100490
100489
100488
100489
100490
100492
100495
100498
100501
100505
100509
100513
100517
100520
100523
100524
100526
100527
100528
100529
100526
100521
100519
100518
100509
100476
100413
100328
100236
100150
100073
100007
99951.6
99905.8
99867.8
99836.5
99810.9
99790
99773.3
99760.1
99749.9
99742.4
99737.3
99734.1
99732.8
99733.1
99734.9
99737.8
99742
99747.1
99753
99759.5
99766.5
99773.7
99780.9
99788
100528
100518
100509
100502
100497
100493
100490
100489
100489
100489
100490
100492
100495
100498
100502
100506
100510
100514
100517
100520
100523
100524
100525
100526
100528
100529
100526
100520
100517
100517
100511
100486
100430
100347
100251
100160
100080
100011
99954.6
99907.7
99869.1
99837.3
99811.4
99790.3
99773.4
99760.1
99749.9
99742.3
99737.1
99733.9
99732.6
99732.9
99734.6
99737.6
99741.8
99747
99753
99759.7
99766.8
99774.2
99781.8
99789.2
100532
100520
100511
100503
100498
100493
100491
100489
100489
100489
100490
100492
100495
100498
100502
100506
100510
100514
100518
100520
100522
100524
100525
100526
100527
100529
100526
100520
100516
100515
100510
100491
100443
100362
100264
100169
100085
100015
99956.8
99909.1
99869.9
99837.8
99811.6
99790.3
99773.3
99759.9
99749.6
99741.9
99736.7
99733.5
99732.1
99732.4
99734.1
99737
99741.2
99746.3
99752.4
99759.1
99766.3
99773.8
99781.5
99789.1
100534
100521
100512
100504
100498
100494
100491
100489
100489
100489
100491
100493
100495
100498
100502
100506
100510
100514
100518
100520
100522
100524
100525
100526
100527
100529
100526
100521
100515
100513
100508
100493
100451
100374
100274
100176
100090
100018
99958.4
99910
99870.4
99838
99811.6
99790.2
99773.1
99759.6
99749.2
99741.5
99736.2
99732.9
99731.5
99731.7
99733.3
99736.2
99740.3
99745.4
99751.4
99758
99765.2
99772.7
99780.4
99788
100537
100523
100512
100504
100498
100494
100491
100489
100489
100489
100491
100493
100495
100499
100502
100506
100510
100514
100518
100520
100522
100524
100525
100526
100527
100529
100527
100521
100515
100512
100506
100492
100455
100382
100282
100182
100093
100020
99959.5
99910.6
99870.6
99838
99811.5
99790
99772.8
99759.2
99748.8
99741
99735.7
99732.4
99730.9
99731
99732.6
99735.4
99739.4
99744.4
99750.3
99756.9
99763.9
99771.3
99778.8
99786.3
100538
100523
100513
100505
100498
100494
100491
100490
100489
100489
100491
100493
100495
100499
100502
100506
100510
100514
100518
100520
100522
100524
100525
100526
100527
100529
100527
100521
100515
100511
100505
100490
100456
100386
100288
100186
100096
100021
99960.2
99910.9
99870.8
99838
99811.3
99789.8
99772.5
99758.9
99748.4
99740.6
99735.2
99731.9
99730.3
99730.4
99731.9
99734.7
99738.6
99743.5
99749.4
99755.8
99762.8
99770
99777.4
99784.7
100540
100524
100513
100505
100499
100494
100491
100490
100489
100489
100491
100493
100495
100499
100502
100506
100510
100514
100518
100520
100522
100524
100525
100526
100528
100530
100528
100522
100515
100511
100504
100488
100455
100388
100290
100188
100097
100022
99960.7
99911.2
99870.8
99837.9
99811.2
99789.6
99772.3
99758.6
99748.1
99740.3
99734.8
99731.5
99729.9
99729.9
99731.4
99734.1
99737.9
99742.8
99748.5
99755
99761.8
99768.9
99776.2
99783.3
100540
100525
100514
100505
100499
100494
100491
100490
100489
100489
100491
100493
100495
100499
100502
100506
100510
100514
100518
100520
100522
100524
100525
100526
100528
100530
100528
100522
100516
100511
100503
100487
100453
100386
100290
100188
100097
100022
99960.6
99911
99870.6
99837.6
99810.9
99789.3
99772
99758.3
99747.8
99739.9
99734.5
99731
99729.5
99729.4
99730.8
99733.5
99737.3
99742.1
99747.8
99754.2
99761
99768.1
99775.3
99782.4
100541
100525
100514
100505
100499
100494
100491
100490
100489
100489
100491
100493
100495
100499
100502
100506
100510
100514
100518
100520
100522
100524
100525
100526
100528
100530
100528
100522
100516
100511
100503
100486
100451
100384
100289
100187
100097
100021
99960.2
99910.6
99870.2
99837.3
99810.5
99788.9
99771.7
99758
99747.5
99739.6
99734.1
99730.7
99729.1
99729.1
99730.5
99733.1
99736.9
99741.7
99747.4
99753.8
99760.6
99767.7
99774.9
99781.9
100027
100031
100034
100039
100043
100047
100051
100055
100053
100059
100055
100063
100058
100065
100059
100067
100050
100059
100068
100048
100058
100068
100045
100056
100067
100028
100040
100052
100064
100020
100033
100046
100058
99995.3
100010
100024
100037
100051
99964.9
99980.6
99996.1
100011
100027
100041
99945.3
99962.4
99979.3
99996.1
100013
100029
99902.7
99921.6
99940.3
99958.8
99977.2
99995.3
100013
99851.7
99872.5
99893.2
99913.7
99934.1
99954.2
99974.1
99993.8
99814.1
99836.9
99859.6
99882.2
99904.6
99926.8
99948.8
99970.4
99745.1
99770.2
99795.4
99820.4
99845.3
99870
99894.5
99918.7
99942.6
99664.4
99692
99719.6
99747.3
99774.9
99802.3
99829.6
99856.7
99883.5
99910
99571
99601.2
99631.5
99661.9
99692.3
99722.8
99753.1
99783.3
99813.3
99842.9
99872.3
99464.1
99496.8
99529.8
99563
99596.5
99630.1
99663.7
99697.2
99730.6
99763.8
99796.7
99829.2
99343.5
99378.6
99414.2
99450.3
99486.9
99523.6
99560.6
99597.7
99634.7
99671.6
99708.3
99744.7
99780.7
99208.4
99245.7
99283.8
99322.8
99362.3
99402.4
99442.8
99483.5
99524.4
99565.2
99606
99646.6
99686.8
99726.7
99060.9
99100
99140.4
99181.8
99224.2
99267.4
99311.2
99355.5
99400.1
99445
99489.9
99534.8
99579.5
99623.9
99667.8
98898.2
98938.8
98981.2
99025
99070
99116.3
99163.4
99211.3
99259.9
99308.9
99358.1
99407.5
99456.9
99506
99554.9
99603.3
98691.4
98730.2
98771.5
98814.9
98860.3
98907.4
98956
99006
99057.1
99109.1
99161.9
99215.1
99268.8
99322.6
99376.5
99430.1
99483.4
99536.3
98501.4
98540.4
98582.2
98626.7
98673.6
98722.9
98774.1
98826.9
98881.3
98937
98993.7
99051.3
99109.6
99168.3
99227.3
99286.2
99345
99403.4
99461.3
98333.9
98370.3
98411
98454.7
98501.4
98550.8
98602.8
98657.1
98713.4
98771.5
98831
98891.8
98953.5
99016
99079
99142.3
99205.5
99268.6
99331.3
99393.5
98107
98141.2
98181.8
98226.9
98274.6
98325.4
98379.2
98436
98495.9
98557.8
98620.9
98685.7
98751.7
98818.7
98886.8
98955.8
99025.1
99094.4
99163.5
99232.2
99300.3
97982.8
98012.7
98048
98088.4
98133.2
98182
98234.3
98289.5
98348.6
98411.3
98474.6
98539.7
98607.7
98676.9
98747.5
98819.8
98893.2
98965.8
99038.5
99110.8
99182.8
99254.2
97712
97737.3
97769
97806.7
97850.2
97898.6
97951.6
98008.7
98069.7
98134.6
98202.4
98272.3
98345
98419.6
98495.6
98572.4
98649.3
98727.1
98806.6
98886.1
98965.5
99044.5
99122.7
100006
100007
100008
100009
100010
100011
100012
100013
100014
100015
100017
100018
100019
100020
100022
100023
100024
100026
100027
100029
100030
100031
100033
100034
100035
100036
100038
100039
100040
100041
100042
100042
100043
100044
100044
100044
100044
100043
100042
100041
100040
100038
100035
100032
100027
100022
100016
100009
100001
99992
100009
100009
100010
100010
100010
100011
100011
100011
100012
100012
100012
100012
100012
100012
100012
100012
100012
100012
100012
100012
100012
100011
100011
100011
100010
100009
100009
100008
100007
100006
100006
100005
100004
100003
100002
100001
100000
99999.3
99998.5
99997.8
99997.1
99996.7
99996.4
99996.2
99996.3
99996.8
99997.7
99998.8
100000
100001
100007
100007
100008
100008
100008
100009
100009
100009
100010
100010
100010
100010
100011
100011
100011
100012
100012
100012
100012
100013
100013
100013
100013
100014
100014
100014
100015
100015
100015
100016
100016
100016
100017
100017
100017
100018
100018
100019
100019
100019
100019
100019
100019
100019
100019
100019
100018
100018
100017
100016
100007
100008
100008
100009
100010
100010
100011
100012
100012
100013
100013
100014
100015
100015
100016
100016
100017
100017
100018
100018
100019
100019
100019
100020
100020
100020
100020
100021
100021
100021
100021
100021
100021
100021
100021
100020
100020
100020
100019
100019
100019
100018
100018
100018
100017
100017
100016
100016
100016
100016
100009
100009
100010
100011
100012
100013
100013
100014
100015
100016
100016
100017