/*--------------------------------*- C++ -*----------------------------------*\
  =========                 |
  \\      /  F ield         | OpenFOAM: The Open Source CFD Toolbox
   \\    /   O peration     | Website:  https://openfoam.org
    \\  /    A nd           | Version:  9
     \\/     M anipulation  |
\*---------------------------------------------------------------------------*/
FoamFile
{
    format      ascii;
    class       volScalarField;
    location    "0.0075";
    object      rho;
}
// * * * * * * * * * * * * * * * * * * * * * * * * * * * * * * * * * * * * * //

dimensions      [1 -3 0 0 0 0 0];

internalField   nonuniform List<scalar> 
6352
(
1.91653
1.9165
1.91648
1.91647
1.91646
1.91644
1.91644
1.91643
1.91642
1.91642
1.91641
1.9164
1.9164
1.91639
1.91639
1.91638
1.91638
1.91637
1.91652
1.9165
1.91649
1.91648
1.91646
1.91645
1.91645
1.91644
1.91643
1.91642
1.91642
1.91641
1.9164
1.9164
1.91639
1.91639
1.91638
1.91638
1.91651
1.9165
1.91649
1.91648
1.91647
1.91646
1.91645
1.91644
1.91643
1.91643
1.91642
1.91641
1.91641
1.9164
1.9164
1.91639
1.91639
1.91638
1.91638
1.91651
1.9165
1.91649
1.91648
1.91647
1.91646
1.91646
1.91645
1.91644
1.91643
1.91643
1.91642
1.91641
1.91641
1.9164
1.9164
1.91639
1.91639
1.91638
1.91651
1.9165
1.91649
1.91648
1.91647
1.91647
1.91646
1.91645
1.91644
1.91644
1.91643
1.91643
1.91642
1.91641
1.91641
1.9164
1.9164
1.91639
1.91639
1.91638
1.91651
1.9165
1.91649
1.91648
1.91648
1.91647
1.91646
1.91645
1.91645
1.91644
1.91644
1.91643
1.91642
1.91642
1.91641
1.91641
1.9164
1.9164
1.9164
1.91639
1.91651
1.9165
1.91649
1.91648
1.91648
1.91647
1.91646
1.91646
1.91645
1.91645
1.91644
1.91643
1.91643
1.91642
1.91642
1.91641
1.91641
1.91641
1.9164
1.9164
1.91651
1.9165
1.91649
1.91649
1.91648
1.91647
1.91647
1.91646
1.91645
1.91645
1.91644
1.91644
1.91643
1.91643
1.91642
1.91642
1.91641
1.91641
1.91641
1.9164
1.91651
1.9165
1.91649
1.91649
1.91648
1.91647
1.91647
1.91646
1.91646
1.91645
1.91645
1.91644
1.91644
1.91643
1.91643
1.91642
1.91642
1.91641
1.91641
1.91641
1.91651
1.9165
1.91649
1.91649
1.91648
1.91647
1.91647
1.91646
1.91646
1.91645
1.91645
1.91644
1.91644
1.91643
1.91643
1.91643
1.91642
1.91642
1.91641
1.91641
1.91651
1.9165
1.91649
1.91649
1.91648
1.91648
1.91647
1.91646
1.91646
1.91645
1.91645
1.91644
1.91644
1.91644
1.91643
1.91643
1.91642
1.91642
1.91642
1.91641
1.91651
1.9165
1.91649
1.91649
1.91648
1.91648
1.91647
1.91647
1.91646
1.91646
1.91645
1.91645
1.91644
1.91644
1.91643
1.91643
1.91643
1.91642
1.91642
1.91642
1.91651
1.9165
1.91649
1.91649
1.91648
1.91648
1.91647
1.91647
1.91646
1.91646
1.91645
1.91645
1.91644
1.91644
1.91644
1.91643
1.91643
1.91642
1.91642
1.91642
1.91651
1.9165
1.9165
1.91649
1.91648
1.91648
1.91647
1.91647
1.91646
1.91646
1.91645
1.91645
1.91644
1.91644
1.91644
1.91643
1.91643
1.91643
1.91642
1.91642
1.91651
1.9165
1.9165
1.91649
1.91648
1.91648
1.91647
1.91647
1.91646
1.91646
1.91645
1.91645
1.91644
1.91644
1.91644
1.91643
1.91643
1.91643
1.91642
1.91642
1.91651
1.9165
1.9165
1.91649
1.91648
1.91648
1.91647
1.91647
1.91646
1.91646
1.91645
1.91645
1.91644
1.91644
1.91643
1.91643
1.91643
1.91642
1.91642
1.91642
1.91651
1.91651
1.9165
1.91649
1.91648
1.91648
1.91647
1.91647
1.91646
1.91646
1.91645
1.91645
1.91644
1.91644
1.91643
1.91643
1.91642
1.91642
1.91642
1.91641
1.91651
1.91651
1.9165
1.91649
1.91648
1.91648
1.91647
1.91646
1.91646
1.91645
1.91645
1.91644
1.91644
1.91643
1.91643
1.91642
1.91642
1.91642
1.91641
1.91641
1.91652
1.91651
1.9165
1.91649
1.91648
1.91648
1.91647
1.91646
1.91646
1.91645
1.91644
1.91644
1.91643
1.91643
1.91642
1.91642
1.91641
1.91641
1.91641
1.9164
1.91653
1.91651
1.9165
1.91649
1.91648
1.91647
1.91646
1.91646
1.91645
1.91644
1.91644
1.91643
1.91643
1.91642
1.91642
1.91641
1.91641
1.9164
1.9164
1.9164
1.91639
1.9164
1.91639
1.9164
1.9164
1.91639
1.91641
1.9164
1.9164
1.91641
1.9164
1.9164
1.9164
1.91641
1.91641
1.9164
1.9164
1.91641
1.91641
1.9164
1.9164
1.91639
1.91641
1.91641
1.9164
1.9164
1.91639
1.91638
1.91641
1.91641
1.9164
1.9164
1.91639
1.91638
1.91641
1.91641
1.9164
1.91639
1.91639
1.91638
1.91641
1.9164
1.9164
1.91639
1.91638
1.91638
1.91637
1.91641
1.9164
1.91639
1.91639
1.91638
1.91637
1.91637
1.9164
1.91639
1.91639
1.91638
1.91638
1.91637
1.91637
1.91636
1.9164
1.91639
1.91639
1.91638
1.91638
1.91637
1.91637
1.91636
1.16634
1.16634
1.16635
1.16635
1.16635
1.16635
1.16635
1.16635
1.16635
1.16636
1.16636
1.16636
1.16636
1.16636
1.16636
1.16636
1.16636
1.16636
1.16637
1.16637
1.16637
1.16637
1.16637
1.16637
1.16637
1.16637
1.16637
1.16637
1.16638
1.16638
1.16638
1.16638
1.16638
1.16638
1.16638
1.16638
1.16638
1.16638
1.16638
1.16639
1.16639
1.16639
1.16639
1.16639
1.16639
1.16639
1.16639
1.16639
1.16639
1.16639
1.16639
1.16639
1.1664
1.1664
1.1664
1.1664
1.1664
1.1664
1.1664
1.1664
1.1664
1.16637
1.16638
1.16638
1.16638
1.16638
1.16638
1.16638
1.16638
1.16638
1.16638
1.16638
1.16638
1.16638
1.16638
1.16638
1.16638
1.16638
1.16638
1.16638
1.16638
1.16639
1.16639
1.16639
1.16639
1.16639
1.16639
1.16639
1.16639
1.16639
1.16639
1.16639
1.16639
1.16639
1.16639
1.16639
1.16639
1.16639
1.16639
1.16639
1.16639
1.16639
1.16639
1.16639
1.16639
1.1664
1.1664
1.1664
1.1664
1.1664
1.1664
1.1664
1.1664
1.1664
1.1664
1.1664
1.1664
1.1664
1.1664
1.1664
1.1664
1.1664
1.16653
1.16653
1.16653
1.16653
1.16653
1.16653
1.16653
1.16653
1.16653
1.16653
1.16653
1.16653
1.16653
1.16653
1.16653
1.16653
1.16653
1.16652
1.16652
1.16652
1.16652
1.16652
1.16652
1.16652
1.16652
1.16652
1.16652
1.16652
1.16652
1.16652
1.16652
1.16652
1.16652
1.16652
1.16652
1.16652
1.16652
1.16652
1.16652
1.16652
1.16652
1.16652
1.16652
1.16652
1.16652
1.16651
1.16651
1.16651
1.16651
1.16651
1.16651
1.16651
1.16651
1.16651
1.16651
1.16651
1.16651
1.16651
1.16651
1.16651
1.16651
1.16652
1.16652
1.16652
1.16652
1.16652
1.16652
1.16652
1.16652
1.16652
1.16652
1.16652
1.16652
1.16652
1.16652
1.16652
1.16652
1.16652
1.16652
1.16652
1.16652
1.16652
1.16652
1.16652
1.16652
1.16652
1.16652
1.16652
1.16652
1.16652
1.16652
1.16652
1.16652
1.16652
1.16652
1.16652
1.16652
1.16652
1.16652
1.16652
1.16652
1.16652
1.16652
1.16652
1.16652
1.16652
1.16652
1.16652
1.16652
1.16652
1.16652
1.16652
1.16652
1.16652
1.16652
1.16652
1.16652
1.16652
1.16652
1.16652
1.16652
1.16652
1.16661
1.16661
1.16661
1.16661
1.16661
1.16661
1.16661
1.16661
1.16661
1.16661
1.16661
1.16661
1.16661
1.16661
1.16661
1.16661
1.16661
1.1666
1.1666
1.1666
1.1666
1.1666
1.1666
1.1666
1.1666
1.1666
1.1666
1.1666
1.1666
1.1666
1.1666
1.1666
1.1666
1.1666
1.1666
1.1666
1.1666
1.1666
1.1666
1.1666
1.1666
1.1666
1.1666
1.1666
1.1666
1.1666
1.1666
1.1666
1.16659
1.16659
1.16659
1.16659
1.16659
1.16659
1.16659
1.16659
1.16659
1.16659
1.16659
1.16659
1.16659
1.16663
1.16663
1.16663
1.16663
1.16663
1.16663
1.16663
1.16663
1.16663
1.16663
1.16663
1.16663
1.16663
1.16663
1.16663
1.16663
1.16663
1.16663
1.16663
1.16663
1.16663
1.16663
1.16663
1.16663
1.16663
1.16663
1.16663
1.16663
1.16663
1.16663
1.16662
1.16662
1.16662
1.16662
1.16662
1.16662
1.16662
1.16662
1.16662
1.16662
1.16662
1.16662
1.16662
1.16662
1.16662
1.16662
1.16662
1.16662
1.16662
1.16662
1.16662
1.16662
1.16662
1.16662
1.16662
1.16662
1.16662
1.16662
1.16661
1.16661
1.16661
1.1667
1.1667
1.1667
1.1667
1.1667
1.1667
1.1667
1.1667
1.1667
1.1667
1.1667
1.1667
1.1667
1.1667
1.1667
1.16669
1.16669
1.16669
1.16669
1.16669
1.16669
1.16669
1.16669
1.16669
1.16669
1.16669
1.16669
1.16669
1.16669
1.16669
1.16669
1.16669
1.16669
1.16669
1.16669
1.16669
1.16668
1.16668
1.16668
1.16668
1.16668
1.16668
1.16668
1.16668
1.16668
1.16668
1.16668
1.16668
1.16668
1.16668
1.16668
1.16668
1.16668
1.16667
1.16667
1.16667
1.16667
1.16667
1.16667
1.16667
1.16667
1.16675
1.16675
1.16675
1.16675
1.16674
1.16674
1.16674
1.16674
1.16674
1.16674
1.16674
1.16674
1.16674
1.16674
1.16674
1.16674
1.16674
1.16674
1.16674
1.16674
1.16674
1.16674
1.16674
1.16673
1.16673
1.16673
1.16673
1.16673
1.16673
1.16673
1.16673
1.16673
1.16673
1.16673
1.16673
1.16673
1.16673
1.16673
1.16672
1.16672
1.16672
1.16672
1.16672
1.16672
1.16672
1.16672
1.16672
1.16672
1.16672
1.16672
1.16671
1.16671
1.16671
1.16671
1.16671
1.16671
1.16671
1.16671
1.16671
1.16671
1.16671
1.16681
1.16681
1.16681
1.16681
1.16681
1.16681
1.16681
1.16681
1.16681
1.16681
1.16681
1.16681
1.1668
1.1668
1.1668
1.1668
1.1668
1.1668
1.1668
1.1668
1.1668
1.1668
1.1668
1.1668
1.16679
1.16679
1.16679
1.16679
1.16679
1.16679
1.16679
1.16679
1.16679
1.16679
1.16678
1.16678
1.16678
1.16678
1.16678
1.16678
1.16678
1.16678
1.16678
1.16677
1.16677
1.16677
1.16677
1.16677
1.16677
1.16677
1.16677
1.16676
1.16676
1.16676
1.16676
1.16676
1.16676
1.16676
1.16676
1.16675
1.16675
1.16675
1.16688
1.16687
1.16687
1.16687
1.16687
1.16687
1.16687
1.16687
1.16687
1.16687
1.16687
1.16687
1.16686
1.16686
1.16686
1.16686
1.16686
1.16686
1.16686
1.16686
1.16685
1.16685
1.16685
1.16685
1.16685
1.16685
1.16685
1.16685
1.16684
1.16684
1.16684
1.16684
1.16684
1.16684
1.16683
1.16683
1.16683
1.16683
1.16683
1.16683
1.16682
1.16682
1.16682
1.16682
1.16682
1.16682
1.16681
1.16681
1.16681
1.16681
1.16681
1.16681
1.1668
1.1668
1.1668
1.1668
1.1668
1.1668
1.16679
1.16679
1.16679
1.16679
1.16695
1.16695
1.16695
1.16695
1.16695
1.16695
1.16694
1.16694
1.16694
1.16694
1.16694
1.16694
1.16694
1.16693
1.16693
1.16693
1.16693
1.16693
1.16693
1.16692
1.16692
1.16692
1.16692
1.16692
1.16691
1.16691
1.16691
1.16691
1.16691
1.1669
1.1669
1.1669
1.1669
1.16689
1.16689
1.16689
1.16689
1.16688
1.16688
1.16688
1.16688
1.16688
1.16687
1.16687
1.16687
1.16687
1.16686
1.16686
1.16686
1.16686
1.16685
1.16685
1.16685
1.16685
1.16684
1.16684
1.16684
1.16684
1.16683
1.16683
1.16683
1.16682
1.16703
1.16703
1.16703
1.16703
1.16703
1.16703
1.16702
1.16702
1.16702
1.16702
1.16702
1.16701
1.16701
1.16701
1.16701
1.167
1.167
1.167
1.167
1.16699
1.16699
1.16699
1.16698
1.16698
1.16698
1.16698
1.16697
1.16697
1.16697
1.16696
1.16696
1.16696
1.16695
1.16695
1.16695
1.16694
1.16694
1.16694
1.16693
1.16693
1.16693
1.16692
1.16692
1.16691
1.16691
1.16691
1.1669
1.1669
1.1669
1.16689
1.16689
1.16689
1.16688
1.16688
1.16687
1.16687
1.16687
1.16686
1.16686
1.16686
1.16685
1.16685
1.16713
1.16713
1.16713
1.16712
1.16712
1.16712
1.16712
1.16711
1.16711
1.16711
1.16711
1.1671
1.1671
1.1671
1.16709
1.16709
1.16708
1.16708
1.16708
1.16707
1.16707
1.16706
1.16706
1.16706
1.16705
1.16705
1.16704
1.16704
1.16703
1.16703
1.16702
1.16702
1.16701
1.16701
1.167
1.167
1.16699
1.16699
1.16698
1.16698
1.16697
1.16697
1.16696
1.16696
1.16695
1.16695
1.16694
1.16694
1.16693
1.16693
1.16692
1.16692
1.16691
1.16691
1.1669
1.1669
1.16689
1.16689
1.16688
1.16688
1.16687
1.16687
1.16724
1.16724
1.16723
1.16723
1.16723
1.16723
1.16722
1.16722
1.16721
1.16721
1.16721
1.1672
1.1672
1.16719
1.16719
1.16718
1.16718
1.16717
1.16717
1.16716
1.16715
1.16715
1.16714
1.16714
1.16713
1.16712
1.16712
1.16711
1.1671
1.16709
1.16709
1.16708
1.16707
1.16707
1.16706
1.16705
1.16704
1.16704
1.16703
1.16702
1.16701
1.16701
1.167
1.16699
1.16698
1.16698
1.16697
1.16696
1.16695
1.16695
1.16694
1.16693
1.16692
1.16692
1.16691
1.1669
1.1669
1.16689
1.16688
1.16688
1.16687
1.16687
1.16737
1.16737
1.16736
1.16736
1.16736
1.16735
1.16735
1.16734
1.16734
1.16733
1.16733
1.16732
1.16731
1.16731
1.1673
1.16729
1.16728
1.16728
1.16727
1.16726
1.16725
1.16724
1.16723
1.16723
1.16722
1.16721
1.1672
1.16719
1.16718
1.16717
1.16716
1.16715
1.16714
1.16712
1.16711
1.1671
1.16709
1.16708
1.16707
1.16706
1.16705
1.16704
1.16703
1.16702
1.16701
1.16699
1.16698
1.16697
1.16696
1.16695
1.16694
1.16693
1.16692
1.16691
1.1669
1.1669
1.16689
1.16688
1.16687
1.16686
1.16685
1.16684
1.16752
1.16751
1.16751
1.16751
1.1675
1.1675
1.16749
1.16748
1.16748
1.16747
1.16746
1.16746
1.16745
1.16744
1.16743
1.16742
1.16741
1.1674
1.16739
1.16737
1.16736
1.16735
1.16734
1.16732
1.16731
1.1673
1.16728
1.16727
1.16725
1.16724
1.16722
1.16721
1.16719
1.16718
1.16716
1.16715
1.16713
1.16712
1.1671
1.16708
1.16707
1.16705
1.16704
1.16702
1.16701
1.16699
1.16698
1.16696
1.16695
1.16693
1.16692
1.16691
1.16689
1.16688
1.16687
1.16685
1.16684
1.16683
1.16682
1.16681
1.1668
1.16679
1.16769
1.16769
1.16768
1.16768
1.16767
1.16767
1.16766
1.16765
1.16764
1.16764
1.16763
1.16762
1.16761
1.16759
1.16758
1.16757
1.16755
1.16754
1.16752
1.16751
1.16749
1.16748
1.16746
1.16744
1.16742
1.1674
1.16738
1.16736
1.16734
1.16732
1.1673
1.16728
1.16725
1.16723
1.16721
1.16719
1.16717
1.16714
1.16712
1.1671
1.16708
1.16705
1.16703
1.16701
1.16699
1.16697
1.16695
1.16693
1.16691
1.16689
1.16687
1.16685
1.16683
1.16681
1.1668
1.16678
1.16677
1.16675
1.16674
1.16673
1.16671
1.1667
1.16788
1.16788
1.16787
1.16787
1.16787
1.16786
1.16785
1.16784
1.16784
1.16783
1.16781
1.1678
1.16779
1.16777
1.16776
1.16774
1.16772
1.1677
1.16768
1.16766
1.16764
1.16762
1.16759
1.16757
1.16754
1.16752
1.16749
1.16746
1.16743
1.1674
1.16737
1.16734
1.16731
1.16728
1.16725
1.16722
1.16718
1.16715
1.16712
1.16709
1.16705
1.16702
1.16699
1.16696
1.16693
1.1669
1.16687
1.16684
1.16682
1.16679
1.16676
1.16674
1.16672
1.16669
1.16667
1.16665
1.16663
1.16662
1.1666
1.16658
1.16657
1.16656
1.16809
1.16809
1.16809
1.16809
1.16808
1.16808
1.16807
1.16806
1.16805
1.16804
1.16803
1.16802
1.168
1.16798
1.16796
1.16794
1.16792
1.1679
1.16787
1.16784
1.16782
1.16779
1.16775
1.16772
1.16769
1.16765
1.16761
1.16758
1.16754
1.16749
1.16745
1.16741
1.16737
1.16732
1.16728
1.16723
1.16719
1.16714
1.1671
1.16705
1.16701
1.16697
1.16692
1.16688
1.16684
1.1668
1.16676
1.16672
1.16669
1.16666
1.16662
1.16659
1.16656
1.16654
1.16651
1.16649
1.16647
1.16645
1.16643
1.16641
1.1664
1.16639
1.16832
1.16832
1.16832
1.16832
1.16832
1.16831
1.16831
1.1683
1.16829
1.16828
1.16827
1.16825
1.16824
1.16822
1.16819
1.16817
1.16814
1.16812
1.16809
1.16805
1.16802
1.16798
1.16794
1.16789
1.16785
1.1678
1.16775
1.1677
1.16765
1.16759
1.16753
1.16748
1.16742
1.16736
1.16729
1.16723
1.16717
1.16711
1.16704
1.16698
1.16692
1.16686
1.1668
1.16675
1.16669
1.16664
1.16659
1.16654
1.16649
1.16645
1.1664
1.16637
1.16633
1.1663
1.16627
1.16624
1.16621
1.16619
1.16618
1.16616
1.16615
1.16614
1.16854
1.16855
1.16855
1.16856
1.16856
1.16856
1.16856
1.16855
1.16855
1.16854
1.16853
1.16851
1.16849
1.16847
1.16845
1.16842
1.16839
1.16836
1.16833
1.16829
1.16824
1.1682
1.16815
1.16809
1.16804
1.16798
1.16791
1.16784
1.16777
1.1677
1.16762
1.16755
1.16746
1.16738
1.1673
1.16722
1.16713
1.16705
1.16697
1.16688
1.1668
1.16672
1.16665
1.16657
1.1665
1.16643
1.16637
1.1663
1.16625
1.1662
1.16615
1.1661
1.16606
1.16601
1.16597
1.16593
1.16589
1.16586
1.16583
1.1658
1.16577
1.16575
1.16877
1.16878
1.16879
1.1688
1.16881
1.16881
1.16881
1.16881
1.16881
1.1688
1.16879
1.16878
1.16877
1.16875
1.16872
1.1687
1.16866
1.16863
1.16859
1.16854
1.1685
1.16844
1.16838
1.16832
1.16825
1.16817
1.16809
1.16801
1.16792
1.16782
1.16772
1.16762
1.16751
1.16741
1.1673
1.16719
1.16708
1.16696
1.16685
1.16674
1.16663
1.16652
1.16641
1.1663
1.16619
1.16608
1.16596
1.16585
1.16576
1.16566
1.16557
1.16549
1.16543
1.16536
1.1653
1.16525
1.16521
1.16517
1.16514
1.16512
1.1651
1.16509
1.16898
1.169
1.16902
1.16903
1.16905
1.16906
1.16906
1.16907
1.16907
1.16907
1.16906
1.16905
1.16904
1.16902
1.169
1.16898
1.16895
1.16891
1.16887
1.16882
1.16877
1.16871
1.16864
1.16857
1.16849
1.1684
1.1683
1.16819
1.16808
1.16796
1.16784
1.16771
1.16757
1.16742
1.16727
1.16711
1.16695
1.16677
1.16658
1.16639
1.1662
1.16602
1.16585
1.16569
1.16556
1.16543
1.16531
1.16519
1.16509
1.16499
1.16491
1.16483
1.16477
1.16471
1.16466
1.16461
1.16458
1.16455
1.16453
1.16452
1.16452
1.16452
1.16918
1.1692
1.16923
1.16925
1.16927
1.16929
1.1693
1.16931
1.16932
1.16932
1.16932
1.16932
1.16931
1.1693
1.16928
1.16926
1.16923
1.1692
1.16916
1.16911
1.16906
1.169
1.16893
1.16885
1.16875
1.16865
1.16854
1.16841
1.16827
1.16813
1.16796
1.16778
1.16756
1.16733
1.16708
1.16682
1.16656
1.16631
1.16609
1.16588
1.16567
1.16547
1.16528
1.16512
1.16497
1.16484
1.16472
1.16462
1.16454
1.16446
1.1644
1.16435
1.16431
1.16428
1.16426
1.16424
1.16424
1.16424
1.16424
1.16426
1.16427
1.1643
1.16935
1.16939
1.16942
1.16945
1.16947
1.16949
1.16951
1.16953
1.16954
1.16955
1.16955
1.16956
1.16955
1.16955
1.16954
1.16952
1.1695
1.16948
1.16945
1.16941
1.16936
1.1693
1.16923
1.16914
1.16905
1.16893
1.16881
1.16866
1.1685
1.16829
1.16803
1.16773
1.1674
1.16707
1.16672
1.16639
1.16611
1.16585
1.16563
1.16542
1.16523
1.16506
1.16492
1.16479
1.16467
1.16457
1.16448
1.1644
1.16433
1.16427
1.16422
1.16418
1.16414
1.16412
1.1641
1.16409
1.16409
1.16409
1.1641
1.16412
1.16414
1.16416
1.16951
1.16955
1.16959
1.16962
1.16965
1.16967
1.1697
1.16972
1.16973
1.16975
1.16976
1.16977
1.16977
1.16978
1.16977
1.16977
1.16976
1.16974
1.16972
1.16969
1.16965
1.1696
1.16953
1.16945
1.16936
1.16924
1.1691
1.16892
1.16867
1.16833
1.16792
1.1675
1.16709
1.16674
1.16642
1.16615
1.16591
1.16569
1.16548
1.1653
1.16512
1.16496
1.16482
1.16468
1.16456
1.16444
1.16434
1.16425
1.16418
1.16411
1.16406
1.16401
1.16397
1.16394
1.16392
1.16391
1.16391
1.16391
1.16392
1.16394
1.16397
1.164
1.16965
1.16969
1.16973
1.16977
1.1698
1.16983
1.16986
1.16988
1.1699
1.16992
1.16993
1.16995
1.16996
1.16997
1.16997
1.16998
1.16998
1.16997
1.16996
1.16994
1.16992
1.16988
1.16983
1.16976
1.16968
1.16956
1.16939
1.16912
1.16871
1.16823
1.16774
1.16734
1.167
1.16671
1.16644
1.16618
1.16593
1.1657
1.16548
1.16527
1.16507
1.16489
1.16472
1.16457
1.16444
1.16432
1.16421
1.16411
1.16403
1.16396
1.1639
1.16385
1.16381
1.16378
1.16376
1.16375
1.16375
1.16376
1.16377
1.16379
1.16382
1.16385
1.16977
1.16982
1.16986
1.1699
1.16993
1.16996
1.16999
1.17001
1.17004
1.17006
1.17008
1.17009
1.17011
1.17013
1.17014
1.17015
1.17016
1.17017
1.17017
1.17017
1.17016
1.17014
1.17011
1.17006
1.16999
1.16986
1.16961
1.16919
1.16867
1.16817
1.16778
1.16746
1.16715
1.16685
1.16656
1.16627
1.16599
1.16573
1.16548
1.16525
1.16503
1.16484
1.16466
1.1645
1.16435
1.16422
1.16411
1.16401
1.16392
1.16385
1.16378
1.16373
1.16369
1.16366
1.16364
1.16363
1.16363
1.16363
1.16364
1.16366
1.16369
1.16372
1.16988
1.16993
1.16998
1.17002
1.17005
1.17008
1.1701
1.17013
1.17015
1.17017
1.17019
1.17021
1.17023
1.17025
1.17027
1.17029
1.17031
1.17033
1.17034
1.17035
1.17036
1.17036
1.17035
1.17033
1.17027
1.17011
1.16975
1.16924
1.16873
1.16833
1.16799
1.16767
1.16734
1.16701
1.16668
1.16636
1.16606
1.16578
1.16551
1.16527
1.16504
1.16484
1.16465
1.16448
1.16433
1.1642
1.16408
1.16397
1.16388
1.1638
1.16373
1.16368
1.16363
1.1636
1.16357
1.16355
1.16355
1.16355
1.16355
1.16357
1.16359
1.16361
1.16999
1.17004
1.17008
1.17012
1.17015
1.17017
1.1702
1.17022
1.17024
1.17026
1.17029
1.17031
1.17033
1.17035
1.17038
1.1704
1.17043
1.17045
1.17048
1.1705
1.17052
1.17054
1.17055
1.17055
1.1705
1.17029
1.16985
1.16934
1.16892
1.16856
1.16824
1.1679
1.16754
1.16718
1.16683
1.16649
1.16617
1.16587
1.1656
1.16535
1.16512
1.16491
1.16471
1.16454
1.16438
1.16424
1.16412
1.16401
1.16391
1.16383
1.16375
1.16369
1.16364
1.16359
1.16356
1.16353
1.16352
1.16351
1.16351
1.16351
1.16352
1.16354
1.17008
1.17013
1.17018
1.17021
1.17023
1.17026
1.17028
1.1703
1.17032
1.17034
1.17036
1.17038
1.1704
1.17043
1.17046
1.17049
1.17051
1.17055
1.17058
1.17061
1.17065
1.17068
1.17071
1.17073
1.17068
1.17042
1.16996
1.16949
1.16913
1.16882
1.16849
1.16813
1.16775
1.16737
1.167
1.16665
1.16632
1.16601
1.16573
1.16547
1.16524
1.16503
1.16483
1.16466
1.1645
1.16436
1.16423
1.16412
1.16402
1.16393
1.16385
1.16378
1.16372
1.16367
1.16362
1.16359
1.16356
1.16354
1.16352
1.16351
1.16351
1.16351
1.17017
1.17023
1.17026
1.17029
1.17031
1.17033
1.17035
1.17036
1.17038
1.1704
1.17042
1.17044
1.17046
1.17049
1.17052
1.17055
1.17058
1.17062
1.17065
1.17069
1.17073
1.17078
1.17082
1.17085
1.17081
1.17054
1.17007
1.16966
1.16934
1.16905
1.16873
1.16836
1.16797
1.16757
1.16719
1.16683
1.16649
1.16618
1.1659
1.16564
1.1654
1.16519
1.165
1.16483
1.16468
1.16454
1.16441
1.1643
1.16421
1.16412
1.16404
1.16396
1.1639
1.16384
1.16378
1.16373
1.16369
1.16365
1.16362
1.16359
1.16357
1.16355
1.17026
1.17031
1.17034
1.17036
1.17038
1.17039
1.1704
1.17042
1.17043
1.17045
1.17046
1.17049
1.17051
1.17054
1.17057
1.1706
1.17063
1.17067
1.17071
1.17075
1.1708
1.17084
1.17089
1.17094
1.1709
1.17063
1.17018
1.1698
1.16953
1.16926
1.16895
1.16858
1.16818
1.16778
1.16739
1.16702
1.16668
1.16636
1.16608
1.16582
1.16558
1.16538
1.16519
1.16503
1.16489
1.16476
1.16465
1.16455
1.16446
1.16437
1.1643
1.16423
1.16417
1.16411
1.16405
1.16399
1.16393
1.16388
1.16383
1.16378
1.16373
1.16368
1.17035
1.1704
1.17042
1.17043
1.17044
1.17044
1.17045
1.17046
1.17047
1.17049
1.1705
1.17052
1.17055
1.17058
1.17061
1.17064
1.17067
1.17071
1.17075
1.17079
1.17084
1.17089
1.17094
1.17099
1.17096
1.17071
1.17026
1.1699
1.16966
1.16942
1.16914
1.16878
1.16839
1.16798
1.16758
1.1672
1.16685
1.16653
1.16624
1.16599
1.16576
1.16556
1.16539
1.16524
1.16511
1.165
1.1649
1.16482
1.16475
1.16468
1.16462
1.16457
1.16452
1.16447
1.16441
1.16436
1.1643
1.16424
1.16418
1.16411
1.16403
1.16395
1.17044
1.17047
1.17049
1.17049
1.17049
1.17049
1.17049
1.1705
1.17051
1.17052
1.17053
1.17055
1.17058
1.17061
1.17064
1.17067
1.17071
1.17074
1.17078
1.17082
1.17087
1.17091
1.17096
1.17101
1.171
1.17077
1.17033
1.16997
1.16973
1.16954
1.16929
1.16896
1.16857
1.16816
1.16775
1.16736
1.167
1.16668
1.16639
1.16613
1.16591
1.16573
1.16557
1.16543
1.16532
1.16523
1.16516
1.1651
1.16505
1.16501
1.16498
1.16495
1.16492
1.1649
1.16487
1.16483
1.16479
1.16474
1.16467
1.1646
1.16451
1.16441
1.17052
1.17055
1.17055
1.17055
1.17054
1.17053
1.17053
1.17053
1.17054
1.17055
1.17056
1.17058
1.1706
1.17063
1.17066
1.1707
1.17073
1.17077
1.17081
1.17085
1.17088
1.17093
1.17097
1.17101
1.17101
1.17081
1.17039
1.17002
1.16976
1.16962
1.1694
1.16911
1.16873
1.16831
1.16789
1.16749
1.16712
1.16678
1.16649
1.16624
1.16602
1.16585
1.1657
1.16559
1.1655
1.16543
1.16538
1.16535
1.16533
1.16532
1.16532
1.16533
1.16534
1.16535
1.16536
1.16536
1.16535
1.16533
1.1653
1.16524
1.16517
1.16507
1.17061
1.17062
1.17061
1.17059
1.17058
1.17057
1.17056
1.17056
1.17056
1.17057
1.17058
1.1706
1.17063
1.17065
1.17068
1.17072
1.17075
1.17079
1.17083
1.17086
1.1709
1.17093
1.17097
1.171
1.17101
1.17084
1.17046
1.17007
1.16978
1.16962
1.16947
1.16922
1.16886
1.16844
1.168
1.16758
1.16719
1.16684
1.16654
1.16629
1.16608
1.16592
1.16578
1.16569
1.16561
1.16557
1.16555
1.16554
1.16555
1.16558
1.16562
1.16566
1.16571
1.16577
1.16583
1.16588
1.16593
1.16596
1.16598
1.16598
1.16595
1.16589
1.17069
1.17068
1.17066
1.17064
1.17061
1.1706
1.17058
1.17058
1.17058
1.17059
1.1706
1.17062
1.17064
1.17067
1.1707
1.17073
1.17077
1.17081
1.17084
1.17087
1.1709
1.17093
1.17096
1.17099
1.171
1.17086
1.17051
1.17013
1.16981
1.1696
1.16949
1.16928
1.16895
1.16852
1.16806
1.16762
1.16721
1.16685
1.16654
1.16629
1.16608
1.16592
1.1658
1.16572
1.16566
1.16564
1.16564
1.16566
1.1657
1.16575
1.16582
1.16591
1.166
1.16611
1.16622
1.16633
1.16644
1.16654
1.16664
1.16671
1.16676
1.16678
1.17076
1.17074
1.17071
1.17067
1.17064
1.17062
1.17061
1.1706
1.1706
1.17061
1.17062
1.17064
1.17066
1.17069
1.17072
1.17075
1.17078
1.17082
1.17085
1.17088
1.17091
1.17093
1.17095
1.17097
1.17098
1.17088
1.17057
1.17021
1.16987
1.1696
1.16946
1.16931
1.169
1.16857
1.16809
1.16761
1.16718
1.16681
1.16649
1.16623
1.16603
1.16587
1.16576
1.16568
1.16564
1.16563
1.16565
1.16569
1.16575
1.16583
1.16593
1.16605
1.16618
1.16632
1.16648
1.16665
1.16682
1.167
1.16718
1.16734
1.16749
1.16762
1.17084
1.17079
1.17075
1.17071
1.17067
1.17065
1.17063
1.17062
1.17062
1.17062
1.17063
1.17065
1.17067
1.1707
1.17073
1.17076
1.1708
1.17083
1.17086
1.17089
1.17091
1.17093
1.17095
1.17096
1.17097
1.17089
1.17062
1.1703
1.16996
1.16963
1.16942
1.16929
1.16901
1.16858
1.16807
1.16757
1.16711
1.16671
1.16639
1.16612
1.16592
1.16576
1.16565
1.16559
1.16555
1.16555
1.16558
1.16563
1.16571
1.16581
1.16593
1.16607
1.16623
1.1664
1.1666
1.16681
1.16703
1.16727
1.16752
1.16778
1.16803
1.16828
1.1709
1.17084
1.17078
1.17074
1.1707
1.17067
1.17064
1.17063
1.17063
1.17063
1.17064
1.17066
1.17068
1.17071
1.17074
1.17077
1.17081
1.17084
1.17087
1.17089
1.17091
1.17093
1.17094
1.17096
1.17096
1.1709
1.17068
1.17038
1.17007
1.1697
1.1694
1.16922
1.16898
1.16855
1.16801
1.16747
1.16699
1.16657
1.16624
1.16597
1.16576
1.1656
1.16549
1.16543
1.1654
1.1654
1.16543
1.16549
1.16558
1.16569
1.16582
1.16597
1.16615
1.16635
1.16656
1.1668
1.16706
1.16734
1.16765
1.16797
1.16831
1.16866
1.17096
1.17088
1.17082
1.17076
1.17072
1.17068
1.17066
1.17065
1.17064
1.17065
1.17066
1.17067
1.17069
1.17072
1.17075
1.17078
1.17081
1.17084
1.17087
1.17089
1.17091
1.17093
1.17094
1.17095
1.17095
1.17092
1.17073
1.17046
1.17018
1.1698
1.16942
1.16916
1.16891
1.16848
1.16791
1.16734
1.16683
1.16639
1.16604
1.16576
1.16555
1.16539
1.16528
1.16522
1.16519
1.16519
1.16523
1.16529
1.16538
1.16549
1.16562
1.16578
1.16596
1.16617
1.16639
1.16665
1.16692
1.16722
1.16755
1.16791
1.1683
1.16872
1.17101
1.17092
1.17084
1.17078
1.17073
1.1707
1.17067
1.17066
1.17065
1.17065
1.17066
1.17068
1.1707
1.17072
1.17075
1.17078
1.17081
1.17084
1.17087
1.1709
1.17092
1.17093
1.17094
1.17095
1.17095
1.17093
1.17078
1.17053
1.17028
1.16993
1.16948
1.16913
1.16882
1.16837
1.16778
1.16717
1.16663
1.16618
1.16581
1.16552
1.1653
1.16514
1.16503
1.16496
1.16492
1.16493
1.16496
1.16502
1.16511
1.16522
1.16535
1.16551
1.16569
1.16589
1.16611
1.16636
1.16664
1.16694
1.16727
1.16764
1.16804
1.16849
1.17106
1.17095
1.17087
1.1708
1.17075
1.17071
1.17068
1.17067
1.17066
1.17066
1.17067
1.17068
1.1707
1.17073
1.17075
1.17078
1.17081
1.17084
1.17088
1.1709
1.17092
1.17094
1.17094
1.17095
1.17095
1.17094
1.17082
1.1706
1.17037
1.17006
1.16958
1.16914
1.16875
1.16826
1.16762
1.16698
1.16641
1.16593
1.16555
1.16525
1.16502
1.16485
1.16473
1.16466
1.16462
1.16461
1.16464
1.1647
1.16478
1.16488
1.16501
1.16516
1.16533
1.16552
1.16574
1.16598
1.16624
1.16653
1.16685
1.16719
1.16758
1.16801
1.1711
1.17098
1.17089
1.17082
1.17076
1.17072
1.17069
1.17067
1.17067
1.17067
1.17067
1.17069
1.1707
1.17073
1.17075
1.17078
1.17081
1.17085
1.17088
1.17091
1.17092
1.17094
1.17094
1.17095
1.17095
1.17095
1.17085
1.17067
1.17046
1.17018
1.1697
1.1692
1.16873
1.16817
1.16746
1.16678
1.16617
1.16567
1.16527
1.16496
1.16472
1.16454
1.16441
1.16432
1.16428
1.16426
1.16428
1.16433
1.1644
1.1645
1.16461
1.16475
1.16491
1.16509
1.1653
1.16552
1.16576
1.16603
1.16632
1.16663
1.16698
1.16737
1.17113
1.171
1.1709
1.17083
1.17077
1.17073
1.1707
1.17068
1.17067
1.17067
1.17067
1.17069
1.1707
1.17072
1.17075
1.17078
1.17082
1.17085
1.17089
1.17091
1.17093
1.17093
1.17094
1.17095
1.17096
1.17096
1.17088
1.17073
1.17054
1.17029
1.16983
1.16927
1.16874
1.16812
1.16733
1.16658
1.16593
1.1654
1.16498
1.16465
1.1644
1.16421
1.16406
1.16397
1.16391
1.16389
1.16389
1.16393
1.16399
1.16407
1.16418
1.1643
1.16445
1.16462
1.1648
1.165
1.16522
1.16546
1.16572
1.166
1.1663
1.16663
1.17116
1.17102
1.17092
1.17084
1.17078
1.17073
1.1707
1.17068
1.17067
1.17067
1.17067
1.17068
1.1707
1.17072
1.17075
1.17079
1.17082
1.17086
1.17089
1.17091
1.17092
1.17093
1.17094
1.17095
1.17096
1.17096
1.17091
1.17078
1.17061
1.17039
1.16997
1.16937
1.1688
1.16813
1.16727
1.16644
1.16573
1.16517
1.16472
1.16436
1.16409
1.16388
1.16372
1.16361
1.16354
1.1635
1.16349
1.16351
1.16356
1.16363
1.16372
1.16383
1.16396
1.16411
1.16428
1.16446
1.16466
1.16488
1.16511
1.16535
1.16561
1.16588
1.17118
1.17103
1.17093
1.17084
1.17078
1.17073
1.1707
1.17068
1.17066
1.17066
1.17066
1.17068
1.1707
1.17072
1.17076
1.17079
1.17083
1.17086
1.17089
1.17091
1.17092
1.17093
1.17094
1.17094
1.17096
1.17097
1.17093
1.17082
1.17068
1.17049
1.17011
1.16949
1.16887
1.1682
1.16728
1.16638
1.16561
1.165
1.16451
1.16413
1.16383
1.1636
1.16342
1.16329
1.1632
1.16314
1.16312
1.16312
1.16315
1.1632
1.16328
1.16338
1.16349
1.16363
1.16378
1.16395
1.16414
1.16433
1.16454
1.16477
1.165
1.16524
1.17119
1.17104
1.17092
1.17084
1.17077
1.17072
1.17068
1.17066
1.17065
1.17065
1.17066
1.17068
1.1707
1.17073
1.17076
1.1708
1.17084
1.17087
1.17089
1.1709
1.17091
1.17092
1.17093
1.17094
1.17096
1.17097
1.17094
1.17085
1.17074
1.17059
1.17028
1.16965
1.16892
1.16827
1.16737
1.16643
1.16561
1.16496
1.16444
1.16402
1.1637
1.16344
1.16324
1.16308
1.16298
1.1629
1.16286
1.16285
1.16285
1.16289
1.16294
1.16302
1.16311
1.16323
1.16337
1.16353
1.1637
1.1639
1.1641
1.16433
1.16457
1.16482
1.17119
1.17102
1.1709
1.17081
1.17074
1.17069
1.17067
1.17065
1.17065
1.17065
1.17066
1.17068
1.1707
1.17073
1.17077
1.1708
1.17083
1.17086
1.17089
1.1709
1.17091
1.17092
1.17093
1.17094
1.17096
1.17097
1.17095
1.17087
1.17078
1.17067
1.17046
1.1699
1.169
1.16833
1.16748
1.16654
1.16571
1.16504
1.1645
1.16406
1.16372
1.16344
1.16323
1.16307
1.16295
1.16287
1.16282
1.16281
1.16281
1.16285
1.1629
1.16297
1.16306
1.16316
1.16329
1.16344
1.16362
1.16382
1.16404
1.16427
1.16452
1.16478
1.16662
1.16665
1.16669
1.16672
1.16676
1.16679
1.16683
1.16686
1.16684
1.16689
1.16686
1.16692
1.16688
1.16695
1.16689
1.16697
1.16682
1.1669
1.16697
1.16681
1.16689
1.16698
1.16678
1.16687
1.16696
1.16665
1.16674
1.16684
1.16694
1.16658
1.16669
1.1668
1.1669
1.16638
1.1665
1.16661
1.16673
1.16685
1.16613
1.16626
1.16639
1.16652
1.16664
1.16677
1.16597
1.16611
1.16626
1.1664
1.16653
1.16667
1.16562
1.16578
1.16594
1.16609
1.16624
1.1664
1.16654
1.1652
1.16537
1.16555
1.16572
1.16589
1.16606
1.16623
1.16639
1.16489
1.16508
1.16527
1.16546
1.16565
1.16584
1.16602
1.1662
1.16432
1.16453
1.16474
1.16495
1.16516
1.16537
1.16557
1.16578
1.16598
1.16364
1.16387
1.16411
1.16434
1.16457
1.16481
1.16504
1.16527
1.16549
1.16572
1.16285
1.16311
1.16337
1.16362
1.16388
1.16414
1.1644
1.16465
1.16491
1.16516
1.16541
1.16194
1.16222
1.1625
1.16279
1.16307
1.16336
1.16365
1.16393
1.16422
1.1645
1.16478
1.16505
1.1609
1.16121
1.16151
1.16182
1.16214
1.16245
1.16277
1.16309
1.1634
1.16372
1.16403
1.16434
1.16465
1.15973
1.16006
1.16039
1.16072
1.16107
1.16141
1.16176
1.16211
1.16246
1.16281
1.16316
1.16351
1.16386
1.1642
1.15844
1.15878
1.15914
1.1595
1.15987
1.16024
1.16062
1.16101
1.16139
1.16178
1.16217
1.16256
1.16294
1.16332
1.1637
1.157
1.15736
1.15773
1.15812
1.15851
1.15892
1.15933
1.15975