/*--------------------------------*- C++ -*----------------------------------*\
  =========                 |
  \\      /  F ield         | OpenFOAM: The Open Source CFD Toolbox
   \\    /   O peration     | Website:  https://openfoam.org
    \\  /    A nd           | Version:  9
     \\/     M anipulation  |
\*---------------------------------------------------------------------------*/
FoamFile
{
    format      ascii;
    class       volScalarField;
    location    "0.0075";
    object      T;
}
// * * * * * * * * * * * * * * * * * * * * * * * * * * * * * * * * * * * * * //

dimensions      [0 0 0 1 0 0 0];

internalField   nonuniform List<scalar> 
6352
(
298
298
298.001
298.002
298.002
298.002
298.002
298.002
298.002
298.002
298.002
298.002
298.002
298.003
298.003
298.003
298.003
298.003
298
298
298
298.001
298.001
298.001
298.001
298.002
298.002
298.002
298.002
298.002
298.002
298.002
298.002
298.002
298.002
298.002
298
298
298
298
298
298
298.001
298.001
298.001
298.001
298.001
298.001
298.001
298.001
298.001
298.001
298.001
298.002
298.002
298
298
298
298
298
298
298
298
298
298.001
298.001
298.001
298.001
298.001
298.001
298.001
298.001
298.001
298.001
298
298
298
298
298
298
298
298
298
298
298
298
298
298
298
298
298
298
298
298
298
298
298
298
298
297.999
297.999
297.999
297.999
297.999
297.999
297.999
297.999
298
298
298
298
298
298
298
298
298
298
298
297.999
297.999
297.999
297.999
297.999
297.999
297.999
297.999
297.999
297.999
297.999
297.999
297.999
297.999
297.999
297.999
298
298
298
298
297.999
297.999
297.999
297.999
297.999
297.999
297.999
297.999
297.999
297.999
297.999
297.999
297.999
297.999
297.999
297.999
298
298
298
298
297.999
297.999
297.999
297.999
297.999
297.999
297.999
297.999
297.998
297.998
297.998
297.998
297.998
297.998
297.998
297.998
298
298
298
298
297.999
297.999
297.999
297.999
297.999
297.999
297.999
297.998
297.998
297.998
297.998
297.998
297.998
297.998
297.998
297.998
298
298
298
298
297.999
297.999
297.999
297.999
297.999
297.999
297.998
297.998
297.998
297.998
297.998
297.998
297.998
297.998
297.998
297.998
298
298
298
298
297.999
297.999
297.999
297.999
297.999
297.999
297.998
297.998
297.998
297.998
297.998
297.998
297.998
297.998
297.998
297.998
298
298
298
298
297.999
297.999
297.999
297.999
297.999
297.999
297.999
297.998
297.998
297.998
297.998
297.998
297.998
297.998
297.998
297.998
298
298
298
298
297.999
297.999
297.999
297.999
297.999
297.999
297.999
297.999
297.998
297.998
297.998
297.998
297.998
297.998
297.998
297.998
298
298
298
298
298
297.999
297.999
297.999
297.999
297.999
297.999
297.999
297.999
297.999
297.999
297.999
297.998
297.998
297.998
297.998
298
298
298
298
298
298
298
297.999
297.999
297.999
297.999
297.999
297.999
297.999
297.999
297.999
297.999
297.999
297.999
297.999
298
298
298
298
298
298
298
298
298
298
298
298
298
298
298
298
298
298
298
298
298
298
298
298
298
298
298
298
298
298
298
298
298
298
298
298.001
298.001
298.001
298.001
298.001
298
298
298
298
298
298.001
298.001
298.001
298.001
298.001
298.001
298.001
298.002
298.002
298.002
298.002
298.002
298.002
298.002
298.002
298
298
298.001
298.001
298.001
298.002
298.002
298.002
298.002
298.002
298.003
298.003
298.003
298.003
298.003
298.003
298.003
298.003
298.003
298.003
297.999
297.998
297.998
297.998
297.998
297.998
297.998
297.998
297.997
297.998
297.998
297.997
297.997
297.998
297.997
297.997
297.997
297.998
297.998
297.998
297.997
297.997
297.998
297.998
297.998
297.998
297.998
297.998
297.998
297.998
297.998
297.998
297.998
297.998
297.999
297.999
297.999
297.999
297.999
297.999
298
298
298
298
298
298
298
298.001
298.001
298.001
298.001
298.001
298.001
298.001
298.002
298.002
298.002
298.002
298.002
298.002
298.002
298.001
298.003
298.003
298.003
298.002
298.002
298.002
298.002
298.002
297.973
297.973
297.973
297.973
297.973
297.973
297.974
297.974
297.974
297.974
297.974
297.974
297.974
297.975
297.975
297.975
297.975
297.975
297.975
297.975
297.975
297.976
297.976
297.976
297.976
297.976
297.976
297.976
297.976
297.977
297.977
297.977
297.977
297.977
297.977
297.977
297.977
297.977
297.978
297.978
297.978
297.978
297.978
297.978
297.978
297.978
297.978
297.979
297.979
297.979
297.979
297.979
297.979
297.979
297.979
297.979
297.979
297.979
297.98
297.98
297.98
298.012
298.012
298.012
298.012
298.012
298.012
298.012
298.012
298.012
298.012
298.012
298.012
298.012
298.012
298.012
298.012
298.012
298.012
298.012
298.012
298.012
298.012
298.012
298.013
298.013
298.013
298.013
298.013
298.013
298.013
298.013
298.013
298.013
298.013
298.013
298.013
298.013
298.013
298.013
298.013
298.013
298.013
298.013
298.013
298.013
298.013
298.013
298.013
298.013
298.013
298.013
298.013
298.013
298.013
298.013
298.013
298.013
298.013
298.013
298.013
298.014
298.014
298.014
298.014
298.014
298.014
298.014
298.014
298.013
298.013
298.013
298.013
298.013
298.013
298.013
298.013
298.013
298.013
298.013
298.013
298.013
298.013
298.013
298.013
298.013
298.013
298.013
298.013
298.013
298.013
298.013
298.013
298.013
298.012
298.012
298.012
298.012
298.012
298.012
298.012
298.012
298.012
298.012
298.012
298.012
298.012
298.012
298.012
298.012
298.012
298.012
298.012
298.012
298.012
298.012
298.012
298.012
298.012
298.012
298.012
298.012
298.012
298.017
298.017
298.017
298.017
298.017
298.017
298.017
298.017
298.017
298.017
298.017
298.017
298.017
298.017
298.017
298.017
298.017
298.017
298.017
298.017
298.017
298.017
298.017
298.017
298.017
298.017
298.017
298.017
298.017
298.017
298.017
298.017
298.017
298.017
298.017
298.017
298.017
298.017
298.017
298.017
298.017
298.017
298.017
298.017
298.017
298.017
298.017
298.017
298.017
298.017
298.017
298.017
298.017
298.017
298.017
298.017
298.017
298.017
298.017
298.017
298.017
298.023
298.023
298.023
298.023
298.023
298.023
298.023
298.023
298.023
298.023
298.023
298.023
298.023
298.023
298.023
298.023
298.023
298.023
298.023
298.023
298.023
298.023
298.023
298.023
298.023
298.023
298.023
298.023
298.022
298.022
298.022
298.022
298.022
298.022
298.022
298.022
298.022
298.022
298.022
298.022
298.022
298.022
298.022
298.022
298.022
298.022
298.022
298.022
298.022
298.022
298.022
298.022
298.022
298.022
298.022
298.022
298.021
298.021
298.021
298.021
298.021
298.027
298.027
298.027
298.027
298.027
298.027
298.027
298.027
298.027
298.027
298.027
298.027
298.027
298.027
298.027
298.027
298.026
298.026
298.026
298.026
298.026
298.026
298.026
298.026
298.026
298.026
298.026
298.026
298.026
298.026
298.026
298.026
298.026
298.026
298.026
298.026
298.026
298.026
298.026
298.026
298.026
298.026
298.026
298.026
298.026
298.026
298.026
298.026
298.026
298.026
298.025
298.025
298.025
298.025
298.025
298.025
298.025
298.025
298.025
298.025
298.025
298.033
298.033
298.033
298.033
298.033
298.033
298.033
298.032
298.032
298.032
298.032
298.032
298.032
298.032
298.032
298.032
298.032
298.032
298.032
298.032
298.032
298.032
298.032
298.032
298.032
298.032
298.032
298.032
298.032
298.032
298.031
298.031
298.031
298.031
298.031
298.031
298.031
298.031
298.031
298.031
298.031
298.031
298.031
298.031
298.031
298.031
298.031
298.031
298.03
298.03
298.03
298.03
298.03
298.03
298.03
298.03
298.03
298.03
298.03
298.03
298.03
298.037
298.037
298.037
298.037
298.037
298.037
298.037
298.037
298.037
298.037
298.037
298.037
298.037
298.037
298.037
298.037
298.037
298.037
298.037
298.037
298.037
298.036
298.036
298.036
298.036
298.036
298.036
298.036
298.036
298.036
298.036
298.036
298.036
298.036
298.036
298.036
298.035
298.035
298.035
298.035
298.035
298.035
298.035
298.035
298.035
298.035
298.035
298.035
298.035
298.034
298.034
298.034
298.034
298.034
298.034
298.034
298.034
298.034
298.034
298.034
298.033
298.044
298.044
298.044
298.043
298.043
298.043
298.043
298.043
298.043
298.043
298.043
298.043
298.043
298.043
298.043
298.043
298.043
298.042
298.042
298.042
298.042
298.042
298.042
298.042
298.042
298.042
298.042
298.042
298.041
298.041
298.041
298.041
298.041
298.041
298.041
298.041
298.041
298.04
298.04
298.04
298.04
298.04
298.04
298.04
298.04
298.04
298.039
298.039
298.039
298.039
298.039
298.039
298.039
298.039
298.038
298.038
298.038
298.038
298.038
298.038
298.038
298.037
298.05
298.05
298.05
298.05
298.05
298.049
298.049
298.049
298.049
298.049
298.049
298.049
298.049
298.049
298.049
298.048
298.048
298.048
298.048
298.048
298.048
298.048
298.048
298.047
298.047
298.047
298.047
298.047
298.047
298.047
298.046
298.046
298.046
298.046
298.046
298.046
298.045
298.045
298.045
298.045
298.045
298.045
298.045
298.044
298.044
298.044
298.044
298.044
298.043
298.043
298.043
298.043
298.043
298.043
298.042
298.042
298.042
298.042
298.042
298.041
298.041
298.041
298.057
298.057
298.057
298.057
298.057
298.057
298.057
298.056
298.056
298.056
298.056
298.056
298.056
298.056
298.055
298.055
298.055
298.055
298.055
298.054
298.054
298.054
298.054
298.054
298.054
298.053
298.053
298.053
298.053
298.052
298.052
298.052
298.052
298.052
298.051
298.051
298.051
298.051
298.05
298.05
298.05
298.05
298.049
298.049
298.049
298.049
298.048
298.048
298.048
298.048
298.047
298.047
298.047
298.047
298.046
298.046
298.046
298.045
298.045
298.045
298.045
298.044
298.066
298.065
298.065
298.065
298.065
298.065
298.065
298.064
298.064
298.064
298.064
298.064
298.063
298.063
298.063
298.063
298.062
298.062
298.062
298.061
298.061
298.061
298.061
298.06
298.06
298.06
298.059
298.059
298.059
298.058
298.058
298.058
298.057
298.057
298.057
298.056
298.056
298.056
298.055
298.055
298.055
298.054
298.054
298.053
298.053
298.053
298.052
298.052
298.052
298.051
298.051
298.051
298.05
298.05
298.049
298.049
298.049
298.048
298.048
298.048
298.047
298.047
298.075
298.075
298.075
298.075
298.074
298.074
298.074
298.074
298.073
298.073
298.073
298.072
298.072
298.072
298.071
298.071
298.071
298.07
298.07
298.069
298.069
298.069
298.068
298.068
298.067
298.067
298.066
298.066
298.065
298.065
298.064
298.064
298.063
298.063
298.062
298.062
298.061
298.061
298.06
298.06
298.059
298.059
298.058
298.058
298.057
298.057
298.056
298.055
298.055
298.054
298.054
298.053
298.053
298.052
298.052
298.051
298.051
298.05
298.05
298.049
298.049
298.048
298.086
298.086
298.086
298.085
298.085
298.085
298.084
298.084
298.084
298.083
298.083
298.082
298.082
298.081
298.081
298.08
298.08
298.079
298.079
298.078
298.078
298.077
298.076
298.076
298.075
298.074
298.074
298.073
298.072
298.071
298.071
298.07
298.069
298.069
298.068
298.067
298.066
298.065
298.065
298.064
298.063
298.062
298.062
298.061
298.06
298.059
298.059
298.058
298.057
298.056
298.056
298.055
298.054
298.053
298.053
298.052
298.051
298.051
298.05
298.049
298.049
298.048
298.099
298.099
298.099
298.098
298.098
298.097
298.097
298.096
298.096
298.095
298.095
298.094
298.094
298.093
298.092
298.091
298.091
298.09
298.089
298.088
298.087
298.086
298.085
298.085
298.084
298.083
298.082
298.081
298.08
298.078
298.077
298.076
298.075
298.074
298.073
298.072
298.071
298.07
298.069
298.068
298.066
298.065
298.064
298.063
298.062
298.061
298.06
298.059
298.058
298.057
298.056
298.055
298.054
298.053
298.052
298.051
298.05
298.049
298.048
298.047
298.046
298.046
298.114
298.114
298.114
298.113
298.113
298.112
298.112
298.111
298.11
298.109
298.109
298.108
298.107
298.106
298.105
298.104
298.103
298.102
298.101
298.1
298.098
298.097
298.096
298.094
298.093
298.092
298.09
298.089
298.087
298.086
298.084
298.083
298.081
298.079
298.078
298.076
298.075
298.073
298.071
298.07
298.068
298.067
298.065
298.063
298.062
298.06
298.059
298.057
298.056
298.054
298.053
298.052
298.05
298.049
298.048
298.046
298.045
298.044
298.043
298.042
298.041
298.04
298.132
298.131
298.131
298.13
298.13
298.129
298.128
298.128
298.127
298.126
298.125
298.124
298.123
298.122
298.12
298.119
298.118
298.116
298.114
298.113
298.111
298.109
298.108
298.106
298.104
298.102
298.1
298.098
298.095
298.093
298.091
298.089
298.087
298.084
298.082
298.08
298.077
298.075
298.073
298.07
298.068
298.066
298.064
298.061
298.059
298.057
298.055
298.053
298.051
298.049
298.047
298.045
298.043
298.041
298.04
298.038
298.037
298.035
298.034
298.032
298.031
298.03
298.151
298.15
298.15
298.15
298.149
298.149
298.148
298.147
298.146
298.145
298.144
298.142
298.141
298.14
298.138
298.136
298.134
298.132
298.13
298.128
298.126
298.123
298.121
298.118
298.116
298.113
298.11
298.107
298.104
298.101
298.098
298.095
298.092
298.088
298.085
298.082
298.078
298.075
298.072
298.069
298.065
298.062
298.059
298.056
298.053
298.05
298.047
298.044
298.041
298.038
298.036
298.033
298.031
298.029
298.027
298.025
298.023
298.021
298.019
298.017
298.016
298.015
298.172
298.172
298.172
298.171
298.171
298.17
298.17
298.169
298.168
298.166
298.165
298.164
298.162
298.16
298.158
298.156
298.154
298.151
298.149
298.146
298.143
298.14
298.136
298.133
298.129
298.125
298.122
298.118
298.113
298.109
298.105
298.1
298.096
298.091
298.087
298.082
298.077
298.073
298.068
298.064
298.059
298.055
298.05
298.046
298.042
298.037
298.033
298.029
298.026
298.022
298.018
298.015
298.012
298.009
298.006
298.003
298
297.998
297.996
297.994
297.992
297.99
298.194
298.194
298.194
298.194
298.194
298.194
298.193
298.192
298.191
298.19
298.189
298.187
298.185
298.183
298.181
298.178
298.176
298.173
298.169
298.166
298.162
298.158
298.154
298.149
298.144
298.139
298.134
298.129
298.123
298.117
298.111
298.105
298.099
298.093
298.086
298.08
298.073
298.067
298.06
298.054
298.047
298.04
298.034
298.028
298.021
298.015
298.009
298.004
297.998
297.993
297.988
297.983
297.979
297.975
297.971
297.968
297.965
297.962
297.96
297.958
297.956
297.955
298.217
298.217
298.218
298.218
298.218
298.218
298.218
298.217
298.217
298.215
298.214
298.212
298.21
298.208
298.206
298.203
298.2
298.196
298.192
298.188
298.183
298.178
298.173
298.167
298.161
298.154
298.148
298.14
298.133
298.125
298.117
298.109
298.1
298.091
298.082
298.073
298.063
298.054
298.044
298.034
298.024
298.015
298.006
297.997
297.988
297.98
297.973
297.966
297.959
297.953
297.947
297.942
297.938
297.935
297.932
297.929
297.928
297.927
297.927
297.927
297.928
297.93
298.239
298.24
298.241
298.242
298.243
298.243
298.243
298.243
298.242
298.241
298.24
298.239
298.237
298.234
298.232
298.229
298.225
298.221
298.217
298.212
298.206
298.2
298.194
298.187
298.179
298.171
298.162
298.152
298.142
298.132
298.121
298.109
298.097
298.084
298.07
298.056
298.042
298.029
298.015
298.003
297.99
297.979
297.968
297.958
297.949
297.94
297.934
297.926
297.919
297.915
297.913
297.912
297.912
297.913
297.914
297.916
297.919
297.923
297.927
297.932
297.938
297.943
298.26
298.262
298.263
298.265
298.266
298.267
298.267
298.267
298.267
298.267
298.266
298.265
298.263
298.261
298.258
298.255
298.251
298.247
298.242
298.237
298.231
298.224
298.216
298.207
298.198
298.188
298.176
298.164
298.151
298.136
298.12
298.103
298.085
298.067
298.049
298.032
298.016
298.001
297.987
297.973
297.959
297.947
297.937
297.932
297.926
297.921
297.917
297.915
297.914
297.913
297.913
297.914
297.914
297.914
297.915
297.917
297.919
297.922
297.926
297.929
297.934
297.938
298.279
298.281
298.284
298.286
298.287
298.289
298.29
298.29
298.291
298.29
298.29
298.289
298.288
298.286
298.283
298.28
298.277
298.273
298.268
298.262
298.255
298.248
298.239
298.229
298.218
298.205
298.191
298.175
298.157
298.136
298.114
298.093
298.073
298.054
298.038
298.02
298.004
297.99
297.979
297.966
297.952
297.94
297.928
297.916
297.903
297.891
297.88
297.87
297.862
297.856
297.852
297.849
297.848
297.848
297.849
297.852
297.856
297.861
297.866
297.872
297.879
297.887
298.296
298.299
298.302
298.304
298.306
298.308
298.31
298.311
298.311
298.312
298.311
298.311
298.31
298.309
298.307
298.304
298.301
298.297
298.292
298.286
298.28
298.272
298.262
298.251
298.238
298.223
298.206
298.185
298.162
298.139
298.12
298.103
298.087
298.068
298.054
298.032
298.005
297.978
297.947
297.917
297.888
297.862
297.84
297.821
297.806
297.795
297.787
297.782
297.779
297.78
297.782
297.786
297.791
297.797
297.804
297.812
297.82
297.829
297.838
297.848
297.858
297.869
298.311
298.314
298.318
298.32
298.323
298.325
298.327
298.328
298.329
298.33
298.33
298.33
298.329
298.328
298.327
298.325
298.322
298.319
298.315
298.309
298.303
298.295
298.286
298.274
298.26
298.243
298.222
298.2
298.182
298.169
298.159
298.14
298.116
298.077
298.031
297.979
297.929
297.883
297.843
297.811
297.785
297.765
297.751
297.742
297.738
297.737
297.739
297.742
297.747
297.754
297.762
297.771
297.78
297.79
297.801
297.811
297.822
297.833
297.844
297.855
297.866
297.877
298.324
298.327
298.331
298.334
298.337
298.339
298.341
298.342
298.343
298.344
298.345
298.345
298.345
298.345
298.344
298.343
298.341
298.338
298.335
298.33
298.325
298.318
298.309
298.297
298.283
298.265
298.247
298.238
298.237
298.23
298.207
298.154
298.084
298.01
297.94
297.879
297.829
297.79
297.761
297.741
297.727
297.719
297.716
297.716
297.719
297.724
297.731
297.739
297.749
297.76
297.77
297.782
297.793
297.805
297.817
297.829
297.841
297.852
297.864
297.875
297.887
297.898
298.334
298.339
298.342
298.345
298.348
298.35
298.352
298.354
298.355
298.356
298.357
298.357
298.358
298.358
298.357
298.357
298.356
298.354
298.351
298.348
298.344
298.338
298.331
298.32
298.307
298.294
298.294
298.307
298.311
298.276
298.2
298.104
298.01
297.928
297.861
297.81
297.772
297.745
297.726
297.714
297.708
297.706
297.708
297.712
297.719
297.728
297.737
297.748
297.759
297.772
297.784
297.797
297.81
297.823
297.836
297.849
297.862
297.874
297.886
297.899
297.91
297.922
298.344
298.348
298.352
298.355
298.357
298.359
298.361
298.363
298.364
298.365
298.366
298.366
298.367
298.367
298.368
298.368
298.367
298.366
298.365
298.363
298.36
298.356
298.351
298.343
298.333
298.335
298.361
298.386
298.363
298.275
298.162
298.049
297.954
297.879
297.822
297.78
297.749
297.728
297.714
297.705
297.701
297.702
297.705
297.711
297.719
297.729
297.74
297.752
297.765
297.779
297.793
297.807
297.822
297.836
297.851
297.865
297.879
297.893
297.906
297.92
297.932
297.945
298.352
298.356
298.36
298.363
298.365
298.367
298.368
298.369
298.37
298.371
298.372
298.373
298.374
298.374
298.375
298.375
298.376
298.376
298.375
298.375
298.373
298.371
298.368
298.363
298.361
298.384
298.433
298.452
298.39
298.27
298.137
298.021
297.931
297.861
297.809
297.77
297.742
297.721
297.707
297.699
297.695
297.695
297.698
297.704
297.712
297.721
297.733
297.745
297.759
297.774
297.789
297.805
297.822
297.838
297.855
297.871
297.888
297.904
297.92
297.935
297.95
297.964
298.359
298.364
298.367
298.369
298.371
298.372
298.373
298.374
298.375
298.376
298.377
298.377
298.378
298.379
298.38
298.381
298.382
298.382
298.383
298.383
298.383
298.383
298.382
298.38
298.388
298.43
298.495
298.503
298.416
298.276
298.135
298.02
297.93
297.862
297.81
297.77
297.74
297.718
297.701
297.691
297.684
297.682
297.683
297.686
297.693
297.701
297.712
297.724
297.738
297.753
297.77
297.787
297.805
297.824
297.843
297.863
297.882
297.902
297.921
297.939
297.958
297.975
298.366
298.37
298.372
298.374
298.375
298.376
298.377
298.377
298.378
298.379
298.379
298.38
298.381
298.382
298.383
298.385
298.386
298.387
298.388
298.389
298.39
298.391
298.392
298.394
298.409
298.465
298.543
298.549
298.452
298.304
298.157
298.038
297.946
297.875
297.82
297.777
297.742
297.715
297.695
297.68
297.669
297.663
297.66
297.66
297.663
297.669
297.677
297.688
297.701
297.715
297.731
297.749
297.768
297.789
297.811
297.833
297.856
297.88
297.904
297.927
297.95
297.973
298.372
298.375
298.377
298.378
298.379
298.379
298.379
298.379
298.38
298.38
298.381
298.382
298.383
298.384
298.385
298.387
298.388
298.39
298.391
298.393
298.395
298.397
298.399
298.403
298.422
298.487
298.574
298.591
298.499
298.35
298.196
298.07
297.974
297.898
297.838
297.789
297.748
297.716
297.689
297.668
297.652
297.64
297.632
297.627
297.626
297.627
297.632
297.639
297.648
297.66
297.674
297.691
297.71
297.731
297.753
297.778
297.804
297.832
297.861
297.89
297.919
297.948
298.377
298.379
298.381
298.381
298.381
298.381
298.38
298.38
298.381
298.381
298.382
298.383
298.384
298.385
298.386
298.388
298.39
298.391
298.393
298.395
298.397
298.4
298.404
298.409
298.428
298.495
298.593
298.629
298.554
298.41
298.251
298.116
298.012
297.93
297.863
297.807
297.76
297.72
297.687
297.659
297.636
297.617
297.603
297.592
297.585
297.581
297.579
297.581
297.586
297.593
297.603
297.616
297.631
297.65
297.671
297.695
297.722
297.752
297.784
297.818
297.854
297.89
298.381
298.383
298.384
298.383
298.382
298.382
298.381
298.381
298.381
298.381
298.381
298.382
298.384
298.385
298.387
298.388
298.39
298.392
298.394
298.396
298.399
298.402
298.406
298.411
298.429
298.492
298.595
298.651
298.611
298.478
298.317
298.173
298.06
297.971
297.896
297.832
297.778
297.731
297.69
297.655
297.625
297.6
297.578
297.561
297.547
297.536
297.528
297.523
297.52
297.521
297.524
297.531
297.54
297.553
297.569
297.589
297.612
297.64
297.671
297.706
297.745
297.786
298.385
298.386
298.386
298.384
298.383
298.382
298.381
298.38
298.38
298.38
298.381
298.382
298.383
298.385
298.386
298.388
298.39
298.392
298.394
298.397
298.399
298.403
298.407
298.412
298.426
298.481
298.584
298.659
298.657
298.548
298.393
298.24
298.117
298.019
297.937
297.866
297.803
297.749
297.701
297.659
297.622
297.59
297.562
297.538
297.517
297.499
297.483
297.471
297.46
297.453
297.448
297.445
297.446
297.45
297.457
297.467
297.482
297.502
297.527
297.557
297.592
297.634
298.388
298.388
298.387
298.385
298.383
298.381
298.38
298.379
298.379
298.379
298.38
298.381
298.382
298.384
298.386
298.388
298.39
298.392
298.394
298.397
298.4
298.403
298.408
298.412
298.423
298.468
298.562
298.651
298.685
298.618
298.474
298.316
298.183
298.076
297.985
297.906
297.837
297.775
297.721
297.672
297.629
297.591
297.557
297.527
297.499
297.474
297.452
297.432
297.414
297.397
297.383
297.371
297.361
297.354
297.349
297.347
297.349
297.355
297.367
297.384
297.408
297.44
298.391
298.39
298.387
298.384
298.382
298.38
298.378
298.377
298.377
298.377
298.378
298.379
298.381
298.383
298.385
298.387
298.389
298.392
298.394
298.397
298.4
298.404
298.408
298.411
298.419
298.455
298.538
298.629
298.691
298.675
298.554
298.399
298.256
298.139
298.041
297.954
297.878
297.81
297.749
297.696
297.648
297.604
297.565
297.529
297.496
297.466
297.437
297.41
297.385
297.361
297.339
297.317
297.297
297.277
297.26
297.244
297.23
297.22
297.213
297.211
297.216
297.228
298.392
298.39
298.387
298.383
298.38
298.378
298.377
298.376
298.375
298.376
298.376
298.378
298.379
298.381
298.384
298.386
298.389
298.392
298.395
298.398
298.401
298.404
298.407
298.41
298.415
298.443
298.514
298.598
298.678
298.709
298.632
298.485
298.335
298.209
298.103
298.009
297.926
297.852
297.787
297.729
297.677
297.629
297.586
297.546
297.509
297.474
297.441
297.409
297.378
297.348
297.318
297.289
297.259
297.23
297.201
297.172
297.143
297.115
297.088
297.064
297.044
297.029
298.394
298.39
298.386
298.382
298.379
298.376
298.375
298.374
298.373
298.374
298.375
298.376
298.378
298.38
298.383
298.386
298.389
298.392
298.395
298.399
298.402
298.404
298.406
298.408
298.412
298.433
298.493
298.567
298.65
298.717
298.695
298.568
298.419
298.284
298.17
298.069
297.981
297.902
297.833
297.772
297.716
297.666
297.62
297.578
297.538
297.5
297.463
297.428
297.393
297.358
297.323
297.288
297.252
297.215
297.177
297.138
297.097
297.054
297.01
296.964
296.919
296.875
298.394
298.39
298.385
298.38
298.377
298.374
298.373
298.372
298.372
298.372
298.373
298.375
298.377
298.379
298.382
298.385
298.389
298.392
298.396
298.399
298.402
298.404
298.405
298.406
298.41
298.426
298.475
298.539
298.614
298.703
298.732
298.65
298.505
298.363
298.241
298.135
298.041
297.959
297.887
297.823
297.766
297.714
297.666
297.622
297.58
297.54
297.502
297.465
297.427
297.39
297.353
297.314
297.275
297.233
297.19
297.143
297.094
297.042
296.985
296.924
296.858
296.789
298.394
298.388
298.383
298.378
298.375
298.372
298.37
298.37
298.37
298.37
298.372
298.373
298.376
298.378
298.382
298.385
298.389
298.393
298.397
298.4
298.402
298.403
298.404
298.405
298.408
298.42
298.459
298.514
298.579
298.674
298.742
298.712
298.588
298.446
298.317
298.205
298.107
298.022
297.948
297.883
297.824
297.771
297.723
297.678
297.636
297.595
297.556
297.518
297.48
297.442
297.403
297.364
297.323
297.28
297.234
297.185
297.133
297.075
297.013
296.943
296.866
296.779
298.394
298.387
298.381
298.376
298.372
298.37
298.368
298.368
298.368
298.369
298.37
298.372
298.375
298.378
298.381
298.385
298.39
298.394
298.398
298.4
298.401
298.402
298.403
298.404
298.407
298.416
298.447
298.493
298.548
298.636
298.732
298.748
298.663
298.528
298.395
298.279
298.178
298.091
298.016
297.95
297.891
297.838
297.79
297.745
297.703
297.663
297.624
297.586
297.548
297.511
297.473
297.434
297.393
297.351
297.306
297.257
297.205
297.148
297.085
297.014
296.934
296.842
298.393
298.385
298.379
298.374
298.37
298.368
298.367
298.366
298.367
298.368
298.369
298.372
298.374
298.378
298.382
298.386
298.391
298.395
298.398
298.399
298.4
298.401
298.402
298.404
298.406
298.414
298.437
298.474
298.521
298.597
298.705
298.76
298.718
298.602
298.473
298.354
298.252
298.165
298.089
298.023
297.965
297.913
297.866
297.822
297.781
297.742
297.704
297.667
297.631
297.595
297.558
297.52
297.482
297.441
297.399
297.353
297.304
297.251
297.191
297.125
297.05
296.963
298.391
298.383
298.377
298.372
298.368
298.366
298.365
298.365
298.365
298.367
298.369
298.371
298.375
298.379
298.383
298.387
298.391
298.395
298.397
298.398
298.399
298.4
298.402
298.404
298.406
298.412
298.429
298.458
298.497
298.561
298.668
298.751
298.748
298.661
298.545
298.428
298.327
298.24
298.166
298.101
298.045
297.995
297.949
297.907
297.868
297.831
297.795
297.76
297.726
297.691
297.657
297.622
297.586
297.548
297.509
297.468
297.423
297.375
297.323
297.264
297.198
297.123
298.39
298.381
298.375
298.37
298.367
298.365
298.364
298.364
298.365
298.367
298.369
298.372
298.376
298.38
298.384
298.388
298.391
298.393
298.395
298.397
298.398
298.4
298.402
298.404
298.406
298.41
298.422
298.444
298.476
298.53
298.629
298.73
298.755
298.696
298.602
298.494
298.397
298.313
298.242
298.181
298.127
298.079
298.036
297.997
297.961
297.926
297.893
297.861
297.83
297.798
297.767
297.735
297.702
297.668
297.633
297.597
297.558
297.516
297.471
297.421
297.367
297.306
298.388
298.379
298.373
298.369
298.366
298.364
298.364
298.364
298.365
298.367
298.37
298.373
298.377
298.38
298.384
298.387
298.389
298.392
298.394
298.396
298.399
298.401
298.403
298.404
298.406
298.409
298.418
298.433
298.457
298.501
298.59
298.7
298.743
298.706
298.634
298.543
298.455
298.379
298.313
298.256
298.206
298.162
298.123
298.087
298.054
298.024
297.994
297.966
297.938
297.91
297.882
297.853
297.824
297.794
297.763
297.731
297.698
297.662
297.624
297.583
297.54
297.492
298.386
298.378
298.372
298.368
298.366
298.365
298.365
298.365
298.367
298.369
298.372
298.374
298.377
298.38
298.382
298.385
298.387
298.39
298.393
298.396
298.399
298.402
298.403
298.404
298.406
298.409
298.414
298.424
298.44
298.474
298.55
298.664
298.724
298.694
298.638
298.564
298.491
298.424
298.366
298.316
298.273
298.235
298.2
298.169
298.141
298.114
298.089
298.065
298.041
298.018
297.993
297.969
297.943
297.916
297.888
297.86
297.83
297.798
297.765
297.729
297.691
297.652
298.385
298.377
298.373
298.37
298.368
298.368
298.368
298.369
298.37
298.372
298.373
298.374
298.376
298.378
298.38
298.383
298.386
298.389
298.393
298.398
298.401
298.403
298.404
298.405
298.406
298.408
298.411
298.415
298.425
298.448
298.506
298.619
298.702
298.671
298.615
298.553
298.491
298.434
298.385
298.343
298.306
298.275
298.246
298.221
298.197
298.175
298.154
298.135
298.116
298.097
298.079
298.059
298.038
298.016
297.992
297.966
297.938
297.908
297.875
297.839
297.798
297.755
298.386
298.382
298.38
298.378
298.376
298.374
298.373
298.371
298.371
298.371
298.372
298.374
298.375
298.377
298.379
298.382
298.386
298.39
298.395
298.399
298.402
298.403
298.404
298.405
298.407
298.408
298.409
298.411
298.416
298.428
298.459
298.553
298.678
298.652
298.582
298.521
298.464
298.412
298.368
298.331
298.3
298.272
298.247
298.224
298.203
298.182
298.163
298.144
298.125
298.106
298.088
298.07
298.052
298.032
298.011
297.986
297.958
297.926
297.89
297.852
297.81
297.764
298.023
298.026
298.029
298.033
298.036
298.04
298.043
298.047
298.044
298.05
298.046
298.052
298.048
298.055
298.049
298.056
298.041
298.049
298.056
298.039
298.047
298.056
298.035
298.045
298.054
298.02
298.031
298.041
298.05
298.013
298.024
298.034
298.045
297.99
298.003
298.015
298.026
298.038
297.963
297.977
297.99
298.003
298.016
298.028
297.945
297.96
297.974
297.988
298.002
298.016
297.908
297.924
297.939
297.955
297.971
297.986
298.001
297.863
297.88
297.898
297.915
297.932
297.949
297.966
297.982
297.83
297.849
297.868
297.887
297.905
297.924
297.942
297.96
297.77
297.791
297.812
297.833
297.853
297.874
297.894
297.915
297.935
297.702
297.725
297.747
297.77
297.793
297.816
297.838
297.861
297.883
297.905
297.625
297.649
297.674
297.698
297.723
297.748
297.773
297.798
297.822
297.846
297.871
297.538
297.564
297.59
297.617
297.644
297.671
297.698
297.725
297.752
297.779
297.806
297.832
297.442
297.469
297.497
297.526
297.555
297.584
297.614
297.643
297.673
297.702
297.732
297.761
297.79
297.338
297.366
297.396
297.426
297.457
297.488
297.52
297.552
297.584
297.616
297.648
297.68
297.712
297.744
297.226
297.255
297.286
297.317
297.349
297.383
297.416
297.451
297.485
297.52
297.555
297.59
297.625
297.66
297.695
297.108
297.137
297.168
297.201
297.234
297.269
297.305
297.341
297.378
297.415
297.453
297.491
297.529
297.567
297.605
297.643
296.957
296.984
297.014
297.045
297.078
297.112
297.148
297.185
297.223
297.262
297.302
297.342
297.383
297.424
297.466
297.507
297.548
297.589
296.832
296.858
296.886
296.917
296.95
296.984
297.021
297.059
297.099
297.14
297.182
297.224
297.268
297.312
297.356
297.4
297.445
297.489
297.533
296.709
296.732
296.758
296.787
296.819
296.854
296.891
296.929
296.97
297.012
297.055
297.1
297.146
297.192
297.239