/*--------------------------------*- C++ -*----------------------------------*\
  =========                 |
  \\      /  F ield         | OpenFOAM: The Open Source CFD Toolbox
   \\    /   O peration     | Website:  https://openfoam.org
    \\  /    A nd           | Version:  8
     \\/     M anipulation  |
\*---------------------------------------------------------------------------*/
FoamFile
{
    version     2.0;
    format      ascii;
    class       volScalarField;
    location    "5";
    object      p;
}
// * * * * * * * * * * * * * * * * * * * * * * * * * * * * * * * * * * * * * //

dimensions      [0 2 -2 0 0 0 0];

internalField   nonuniform List<scalar> 
277560
(
-0.581491
-0.58226
-0.584166
-0.586976
-0.590586
-0.594982
-0.600133
-0.605991
-0.612509
-0.619644
-0.627359
-0.635615
-0.644374
-0.653602
-0.663263
-0.673325
-0.683757
-0.694528
-0.70561
-0.716975
-0.728596
-0.740449
-0.752509
-0.764754
-0.777162
-0.789712
-0.802385
-0.815161
-0.828024
-0.840957
-0.853943
-0.866968
-0.880018
-0.893079
-0.906138
-0.919184
-0.932206
-0.945194
-0.958137
-0.971027
-0.983854
-0.996612
-1.00929
-1.02189
-1.0344
-1.04681
-1.05912
-1.07132
-1.08341
-1.09539
-1.10724
-1.11898
-1.13059
-1.14207
-1.15342
-1.16464
-1.17573
-1.18667
-1.19748
-1.20816
-1.21869
-1.22908
-1.23933
-1.24945
-1.25942
-1.26924
-1.27893
-1.28848
-1.29788
-1.30715
-1.31627
-1.32526
-1.33411
-1.34282
-1.3514
-1.35984
-1.36814
-1.37632
-1.38436
-1.39227
-1.40005
-1.40771
-1.41523
-1.42264
-1.42992
-1.43707
-1.44411
-1.45103
-1.45783
-1.46451
-1.47108
-1.47754
-1.48388
-1.49012
-1.49625
-1.50227
-1.50818
-1.514
-1.51971
-1.52532
-1.53083
-1.53625
-1.54156
-1.54679
-1.55192
-1.55696
-1.56192
-1.56678
-1.57156
-1.57625
-1.58086
-1.58538
-1.58983
-1.59419
-1.59848
-1.60269
-1.60682
-1.61088
-1.61487
-1.61878
-0.581071
-0.581816
-0.583706
-0.586512
-0.590119
-0.594511
-0.599659
-0.605515
-0.612031
-0.619165
-0.626879
-0.635133
-0.643892
-0.653119
-0.662781
-0.672843
-0.683276
-0.694048
-0.705131
-0.716498
-0.728121
-0.739977
-0.75204
-0.764287
-0.776699
-0.789252
-0.801928
-0.814709
-0.827576
-0.840513
-0.853504
-0.866534
-0.879589
-0.892655
-0.905719
-0.918771
-0.931799
-0.944793
-0.957742
-0.970638
-0.983472
-0.996237
-1.00892
-1.02153
-1.03404
-1.04646
-1.05878
-1.07098
-1.08308
-1.09507
-1.10693
-1.11867
-1.13029
-1.14178
-1.15314
-1.16437
-1.17546
-1.18642
-1.19723
-1.20791
-1.21846
-1.22886
-1.23912
-1.24923
-1.25921
-1.26905
-1.27874
-1.2883
-1.29771
-1.30698
-1.31612
-1.32511
-1.33397
-1.34269
-1.35127
-1.35972
-1.36803
-1.37621
-1.38426
-1.39218
-1.39997
-1.40763
-1.41516
-1.42257
-1.42986
-1.43703
-1.44407
-1.45099
-1.4578
-1.46449
-1.47107
-1.47753
-1.48388
-1.49012
-1.49626
-1.50229
-1.50821
-1.51403
-1.51974
-1.52536
-1.53088
-1.5363
-1.54162
-1.54685
-1.55199
-1.55704
-1.562
-1.56686
-1.57165
-1.57634
-1.58096
-1.58549
-1.58994
-1.5943
-1.5986
-1.60281
-1.60695
-1.61101
-1.615
-1.61892
-0.580283
-0.581029
-0.582918
-0.585722
-0.589327
-0.593716
-0.598861
-0.604715
-0.611229
-0.618362
-0.626076
-0.634331
-0.643091
-0.652319
-0.661982
-0.672048
-0.682483
-0.693259
-0.704346
-0.715718
-0.727346
-0.739207
-0.751276
-0.76353
-0.775948
-0.788509
-0.801193
-0.813982
-0.826858
-0.839803
-0.852804
-0.865843
-0.878907
-0.891984
-0.905059
-0.918121
-0.93116
-0.944165
-0.957125
-0.970033
-0.982879
-0.995656
-1.00836
-1.02097
-1.0335
-1.04593
-1.05826
-1.07048
-1.08259
-1.09458
-1.10646
-1.11822
-1.12985
-1.14135
-1.15272
-1.16396
-1.17507
-1.18604
-1.19687
-1.20756
-1.21811
-1.22853
-1.2388
-1.24893
-1.25892
-1.26877
-1.27848
-1.28804
-1.29747
-1.30675
-1.3159
-1.3249
-1.33377
-1.3425
-1.3511
-1.35955
-1.36788
-1.37607
-1.38413
-1.39206
-1.39986
-1.40753
-1.41508
-1.4225
-1.42979
-1.43697
-1.44402
-1.45095
-1.45777
-1.46447
-1.47105
-1.47753
-1.48389
-1.49014
-1.49628
-1.50232
-1.50825
-1.51408
-1.5198
-1.52543
-1.53095
-1.53638
-1.54171
-1.54695
-1.5521
-1.55715
-1.56211
-1.56699
-1.57178
-1.57648
-1.5811
-1.58564
-1.5901
-1.59447
-1.59877
-1.60299
-1.60713
-1.61121
-1.6152
-1.61913
-0.579116
-0.579853
-0.581732
-0.584526
-0.588123
-0.592505
-0.597645
-0.603494
-0.610005
-0.617135
-0.624847
-0.633101
-0.641861
-0.65109
-0.660755
-0.670823
-0.681262
-0.692042
-0.703135
-0.714511
-0.726146
-0.738014
-0.750091
-0.762354
-0.774782
-0.787352
-0.800047
-0.812847
-0.825734
-0.838692
-0.851705
-0.864758
-0.877837
-0.890927
-0.904017
-0.917095
-0.93015
-0.94317
-0.956147
-0.969072
-0.981935
-0.994729
-1.00745
-1.02008
-1.03262
-1.04507
-1.05742
-1.06966
-1.08179
-1.0938
-1.1057
-1.11748
-1.12913
-1.14065
-1.15204
-1.1633
-1.17442
-1.18541
-1.19626
-1.20697
-1.21755
-1.22798
-1.23827
-1.24842
-1.25843
-1.2683
-1.27802
-1.28761
-1.29705
-1.30636
-1.31552
-1.32455
-1.33343
-1.34218
-1.35079
-1.35927
-1.36761
-1.37582
-1.3839
-1.39185
-1.39966
-1.40735
-1.41491
-1.42235
-1.42966
-1.43685
-1.44392
-1.45087
-1.45771
-1.46442
-1.47102
-1.47751
-1.48389
-1.49015
-1.49631
-1.50236
-1.50831
-1.51415
-1.51989
-1.52553
-1.53107
-1.53651
-1.54185
-1.5471
-1.55226
-1.55733
-1.56231
-1.56719
-1.572
-1.57671
-1.58134
-1.58589
-1.59036
-1.59475
-1.59906
-1.60329
-1.60744
-1.61152
-1.61553
-1.61946
-0.577575
-0.578299
-0.580166
-0.58295
-0.586538
-0.590912
-0.596046
-0.60189
-0.608396
-0.615524
-0.623234
-0.631487
-0.640248
-0.649479
-0.659147
-0.669218
-0.679663
-0.690449
-0.701548
-0.712933
-0.724577
-0.736455
-0.748543
-0.760818
-0.773258
-0.785843
-0.798552
-0.811367
-0.824271
-0.837246
-0.850276
-0.863347
-0.876445
-0.889555
-0.902665
-0.915763
-0.928839
-0.941881
-0.954881
-0.967828
-0.980714
-0.993531
-1.00627
-1.01893
-1.0315
-1.04397
-1.05634
-1.06861
-1.08076
-1.0928
-1.10473
-1.11653
-1.1282
-1.13975
-1.15117
-1.16245
-1.1736
-1.18462
-1.19549
-1.20623
-1.21683
-1.22729
-1.2376
-1.24778
-1.25781
-1.26771
-1.27746
-1.28707
-1.29654
-1.30586
-1.31505
-1.3241
-1.33301
-1.34178
-1.35042
-1.35892
-1.36729
-1.37552
-1.38362
-1.39159
-1.39943
-1.40714
-1.41472
-1.42218
-1.42951
-1.43672
-1.44381
-1.45078
-1.45764
-1.46437
-1.47099
-1.4775
-1.48389
-1.49018
-1.49635
-1.50242
-1.50839
-1.51425
-1.52
-1.52566
-1.53121
-1.53667
-1.54204
-1.5473
-1.55248
-1.55756
-1.56255
-1.56746
-1.57227
-1.577
-1.58165
-1.58621
-1.59069
-1.5951
-1.59942
-1.60366
-1.60783
-1.61193
-1.61595
-1.61989
-0.575669
-0.576376
-0.578229
-0.581
-0.584576
-0.58894
-0.594066
-0.599902
-0.606403
-0.613527
-0.621235
-0.629488
-0.638248
-0.647481
-0.657152
-0.667229
-0.677679
-0.688472
-0.69958
-0.710975
-0.72263
-0.73452
-0.746621
-0.758911
-0.771367
-0.783968
-0.796694
-0.809528
-0.822451
-0.835447
-0.848499
-0.861592
-0.874712
-0.887846
-0.900981
-0.914105
-0.927206
-0.940275
-0.953301
-0.966276
-0.97919
-0.992036
-1.00481
-1.01749
-1.03009
-1.04259
-1.055
-1.06729
-1.07948
-1.09155
-1.1035
-1.11533
-1.12704
-1.13862
-1.15007
-1.16139
-1.17257
-1.18361
-1.19452
-1.20529
-1.21592
-1.22641
-1.23676
-1.24697
-1.25703
-1.26696
-1.27674
-1.28638
-1.29588
-1.30524
-1.31445
-1.32353
-1.33247
-1.34128
-1.34994
-1.35847
-1.36686
-1.37513
-1.38325
-1.39125
-1.39912
-1.40685
-1.41447
-1.42195
-1.42931
-1.43655
-1.44366
-1.45066
-1.45754
-1.4643
-1.47094
-1.47748
-1.48389
-1.4902
-1.4964
-1.5025
-1.50848
-1.51436
-1.52014
-1.52582
-1.5314
-1.53688
-1.54226
-1.54755
-1.55274
-1.55785
-1.56286
-1.56778
-1.57262
-1.57737
-1.58203
-1.58662
-1.59112
-1.59553
-1.59987
-1.60414
-1.60832
-1.61243
-1.61647
-1.62043
-0.573404
-0.574091
-0.575927
-0.578682
-0.582244
-0.586597
-0.591713
-0.597541
-0.604036
-0.611155
-0.61886
-0.627112
-0.635873
-0.645108
-0.654783
-0.664865
-0.675322
-0.686124
-0.697242
-0.708648
-0.720317
-0.732221
-0.744339
-0.756645
-0.76912
-0.78174
-0.794488
-0.807344
-0.820291
-0.833311
-0.846388
-0.859508
-0.872656
-0.885818
-0.898982
-0.912136
-0.925268
-0.938368
-0.951427
-0.964434
-0.977382
-0.990262
-1.00307
-1.01579
-1.02842
-1.04096
-1.0534
-1.06573
-1.07796
-1.09006
-1.10205
-1.11392
-1.12567
-1.13728
-1.14877
-1.16013
-1.17135
-1.18243
-1.19338
-1.20418
-1.21485
-1.22538
-1.23576
-1.24601
-1.25611
-1.26607
-1.27589
-1.28557
-1.2951
-1.3045
-1.31375
-1.32287
-1.33184
-1.34068
-1.34938
-1.35794
-1.36637
-1.37467
-1.38283
-1.39086
-1.39876
-1.40653
-1.41417
-1.42169
-1.42908
-1.43635
-1.44349
-1.45052
-1.45743
-1.46422
-1.47089
-1.47745
-1.4839
-1.49024
-1.49646
-1.50258
-1.5086
-1.5145
-1.52031
-1.52601
-1.53162
-1.53712
-1.54253
-1.54784
-1.55306
-1.55819
-1.56322
-1.56817
-1.57303
-1.5778
-1.58249
-1.58709
-1.59161
-1.59605
-1.60041
-1.6047
-1.6089
-1.61303
-1.61709
-1.62107
-0.570788
-0.571452
-0.573268
-0.576005
-0.579551
-0.58389
-0.588994
-0.594814
-0.601301
-0.608415
-0.616116
-0.624366
-0.633128
-0.642366
-0.652045
-0.662133
-0.672598
-0.68341
-0.69454
-0.705959
-0.717643
-0.729564
-0.741699
-0.754026
-0.766521
-0.779165
-0.791937
-0.804819
-0.817792
-0.83084
-0.843947
-0.857097
-0.870276
-0.883471
-0.896669
-0.909857
-0.923025
-0.936162
-0.949258
-0.962303
-0.975289
-0.988208
-1.00105
-1.01382
-1.02649
-1.03907
-1.05155
-1.06392
-1.07619
-1.08834
-1.10038
-1.11229
-1.12408
-1.13574
-1.14727
-1.15866
-1.16993
-1.18105
-1.19204
-1.2029
-1.21361
-1.22418
-1.23461
-1.24489
-1.25504
-1.26504
-1.2749
-1.28462
-1.2942
-1.30364
-1.31293
-1.32209
-1.33111
-1.33998
-1.34872
-1.35733
-1.3658
-1.37413
-1.38233
-1.3904
-1.39833
-1.40614
-1.41382
-1.42138
-1.4288
-1.43611
-1.44329
-1.45035
-1.45729
-1.46412
-1.47083
-1.47742
-1.4839
-1.49027
-1.49653
-1.50268
-1.50873
-1.51467
-1.5205
-1.52623
-1.53187
-1.5374
-1.54284
-1.54818
-1.55343
-1.55858
-1.56364
-1.56862
-1.5735
-1.5783
-1.58301
-1.58764
-1.59219
-1.59665
-1.60104
-1.60534
-1.60957
-1.61373
-1.61781
-1.62181
-0.567827
-0.568465
-0.570258
-0.572975
-0.576503
-0.580827
-0.585917
-0.591726
-0.598205
-0.605312
-0.61301
-0.621258
-0.630021
-0.639261
-0.648945
-0.65904
-0.669514
-0.680337
-0.69148
-0.702915
-0.714615
-0.726555
-0.738711
-0.75106
-0.763579
-0.776249
-0.789048
-0.801958
-0.814962
-0.828041
-0.841181
-0.854366
-0.867581
-0.880813
-0.894048
-0.907276
-0.920484
-0.933662
-0.9468
-0.959888
-0.972918
-0.985881
-0.998771
-1.01158
-1.0243
-1.03693
-1.04945
-1.06188
-1.07419
-1.08639
-1.09847
-1.11043
-1.12227
-1.13398
-1.14556
-1.15701
-1.16832
-1.1795
-1.19054
-1.20144
-1.2122
-1.22282
-1.2333
-1.24363
-1.25383
-1.26388
-1.27379
-1.28356
-1.29318
-1.30266
-1.31201
-1.32121
-1.33027
-1.3392
-1.34798
-1.35663
-1.36514
-1.37352
-1.38177
-1.38988
-1.39786
-1.40571
-1.41343
-1.42103
-1.4285
-1.43584
-1.44306
-1.45016
-1.45715
-1.46401
-1.47076
-1.47739
-1.48391
-1.49031
-1.49661
-1.50279
-1.50887
-1.51485
-1.52072
-1.52649
-1.53215
-1.53772
-1.54319
-1.54856
-1.55384
-1.55903
-1.56412
-1.56912
-1.57404
-1.57886
-1.58361
-1.58826
-1.59284
-1.59733
-1.60174
-1.60608
-1.61033
-1.61451
-1.61861
-1.62264
-0.564528
-0.565137
-0.566905
-0.569599
-0.573107
-0.577413
-0.582489
-0.588285
-0.594755
-0.601855
-0.609548
-0.617795
-0.626558
-0.635801
-0.645491
-0.655593
-0.666077
-0.676912
-0.688069
-0.69952
-0.711239
-0.7232
-0.735379
-0.747752
-0.760298
-0.772996
-0.785826
-0.798768
-0.811805
-0.82492
-0.838096
-0.851319
-0.864574
-0.877847
-0.891125
-0.904396
-0.917649
-0.930872
-0.944057
-0.957193
-0.970271
-0.983284
-0.996224
-1.00908
-1.02186
-1.03453
-1.04711
-1.05959
-1.07196
-1.08421
-1.09635
-1.10836
-1.12025
-1.13202
-1.14365
-1.15516
-1.16652
-1.17776
-1.18885
-1.19981
-1.21062
-1.2213
-1.23183
-1.24222
-1.25247
-1.26258
-1.27254
-1.28236
-1.29204
-1.30157
-1.31097
-1.32022
-1.32934
-1.33831
-1.34715
-1.35585
-1.36441
-1.37284
-1.38113
-1.38929
-1.39732
-1.40522
-1.41299
-1.42063
-1.42815
-1.43554
-1.4428
-1.44995
-1.45697
-1.46388
-1.47067
-1.47734
-1.4839
-1.49035
-1.49669
-1.50292
-1.50903
-1.51505
-1.52096
-1.52676
-1.53247
-1.53807
-1.54358
-1.54899
-1.5543
-1.55952
-1.56465
-1.56969
-1.57463
-1.57949
-1.58427
-1.58896
-1.59356
-1.59808
-1.60253
-1.60689
-1.61118
-1.61538
-1.61952
-1.62357
-0.560897
-0.561474
-0.563214
-0.565883
-0.569369
-0.573656
-0.578716
-0.584499
-0.590957
-0.59805
-0.605738
-0.613982
-0.622746
-0.631992
-0.641687
-0.651798
-0.662293
-0.673141
-0.684314
-0.695783
-0.707522
-0.719505
-0.731709
-0.744109
-0.756684
-0.769413
-0.782276
-0.795253
-0.808327
-0.821481
-0.834698
-0.847962
-0.861261
-0.874578
-0.887903
-0.901222
-0.914524
-0.927797
-0.941033
-0.954222
-0.967353
-0.980421
-0.993415
-1.00633
-1.01916
-1.0319
-1.04453
-1.05707
-1.06949
-1.08181
-1.094
-1.10608
-1.11803
-1.12986
-1.14155
-1.15311
-1.16454
-1.17584
-1.18699
-1.19801
-1.20888
-1.21962
-1.23021
-1.24066
-1.25097
-1.26114
-1.27116
-1.28104
-1.29078
-1.30037
-1.30982
-1.31913
-1.32831
-1.33734
-1.34623
-1.35499
-1.3636
-1.37208
-1.38043
-1.38865
-1.39673
-1.40468
-1.4125
-1.42019
-1.42776
-1.4352
-1.44252
-1.44971
-1.45678
-1.46374
-1.47058
-1.4773
-1.4839
-1.4904
-1.49678
-1.50305
-1.50921
-1.51527
-1.52122
-1.52707
-1.53281
-1.53846
-1.544
-1.54945
-1.5548
-1.56006
-1.56523
-1.5703
-1.57529
-1.58018
-1.58499
-1.58972
-1.59436
-1.59892
-1.60339
-1.60779
-1.61211
-1.61635
-1.62051
-1.6246
-0.556941
-0.557483
-0.559193
-0.561835
-0.565296
-0.569562
-0.574604
-0.580372
-0.586819
-0.593903
-0.601586
-0.609827
-0.618591
-0.62784
-0.637541
-0.647661
-0.658167
-0.669029
-0.680219
-0.691707
-0.703468
-0.715476
-0.727707
-0.740136
-0.752743
-0.765506
-0.778404
-0.791419
-0.804533
-0.817729
-0.830989
-0.8443
-0.857645
-0.871012
-0.884387
-0.897757
-0.911112
-0.924441
-0.937733
-0.950978
-0.964168
-0.977294
-0.990349
-1.00333
-1.01622
-1.02901
-1.04172
-1.05431
-1.0668
-1.07918
-1.09144
-1.10358
-1.1156
-1.12749
-1.13925
-1.15088
-1.16238
-1.17374
-1.18496
-1.19604
-1.20698
-1.21778
-1.22844
-1.23896
-1.24933
-1.25956
-1.26965
-1.27959
-1.28939
-1.29905
-1.30857
-1.31794
-1.32718
-1.33627
-1.34522
-1.35404
-1.36272
-1.37126
-1.37966
-1.38794
-1.39608
-1.40408
-1.41196
-1.41971
-1.42733
-1.43483
-1.4422
-1.44945
-1.45657
-1.46358
-1.47047
-1.47724
-1.4839
-1.49044
-1.49687
-1.50319
-1.5094
-1.5155
-1.5215
-1.52739
-1.53318
-1.53887
-1.54446
-1.54996
-1.55535
-1.56065
-1.56586
-1.57098
-1.576
-1.58094
-1.58578
-1.59055
-1.59522
-1.59982
-1.60433
-1.60876
-1.61312
-1.61739
-1.62159
-1.62571
-0.552667
-0.553171
-0.554848
-0.55746
-0.560895
-0.565138
-0.57016
-0.575912
-0.582346
-0.589421
-0.597097
-0.605335
-0.614099
-0.623351
-0.633059
-0.643187
-0.653706
-0.664583
-0.675791
-0.6873
-0.699084
-0.711118
-0.723377
-0.735838
-0.748479
-0.761278
-0.774215
-0.787271
-0.800428
-0.813668
-0.826976
-0.840335
-0.853732
-0.867151
-0.88058
-0.894007
-0.907419
-0.920807
-0.934159
-0.947465
-0.960718
-0.973908
-0.987028
-1.00007
-1.01303
-1.02589
-1.03866
-1.05133
-1.06389
-1.07634
-1.08867
-1.10088
-1.11297
-1.12493
-1.13676
-1.14846
-1.16003
-1.17146
-1.18275
-1.19391
-1.20492
-1.21579
-1.22652
-1.23711
-1.24755
-1.25785
-1.26801
-1.27803
-1.2879
-1.29762
-1.30721
-1.31665
-1.32595
-1.33511
-1.34413
-1.35301
-1.36175
-1.37036
-1.37883
-1.38716
-1.39537
-1.40344
-1.41138
-1.41919
-1.42687
-1.43442
-1.44185
-1.44916
-1.45634
-1.46341
-1.47035
-1.47718
-1.48389
-1.49048
-1.49697
-1.50334
-1.5096
-1.51576
-1.5218
-1.52775
-1.53359
-1.53932
-1.54496
-1.5505
-1.55594
-1.56129
-1.56654
-1.5717
-1.57677
-1.58175
-1.58664
-1.59144
-1.59616
-1.6008
-1.60535
-1.60982
-1.61421
-1.61853
-1.62276
-1.62692
-0.548079
-0.548543
-0.550184
-0.552764
-0.55617
-0.560389
-0.56539
-0.571125
-0.577545
-0.584609
-0.592278
-0.600513
-0.609276
-0.618532
-0.628245
-0.638384
-0.648915
-0.659808
-0.671035
-0.682566
-0.694375
-0.706437
-0.718727
-0.731221
-0.743897
-0.756735
-0.769713
-0.782813
-0.796016
-0.809304
-0.822662
-0.836074
-0.849524
-0.863
-0.876487
-0.889974
-0.903448
-0.916898
-0.930315
-0.943687
-0.957007
-0.970265
-0.983454
-0.996567
-1.0096
-1.02253
-1.03538
-1.04812
-1.06075
-1.07327
-1.08568
-1.09797
-1.11013
-1.12217
-1.13408
-1.14586
-1.1575
-1.16901
-1.18038
-1.19161
-1.2027
-1.21365
-1.22445
-1.23512
-1.24564
-1.25601
-1.26625
-1.27633
-1.28628
-1.29608
-1.30574
-1.31525
-1.32462
-1.33386
-1.34295
-1.3519
-1.36071
-1.36939
-1.37793
-1.38633
-1.3946
-1.40274
-1.41074
-1.41862
-1.42636
-1.43398
-1.44147
-1.44884
-1.45609
-1.46321
-1.47022
-1.4771
-1.48387
-1.49053
-1.49707
-1.5035
-1.50981
-1.51602
-1.52213
-1.52812
-1.53401
-1.5398
-1.54549
-1.55108
-1.55657
-1.56197
-1.56727
-1.57248
-1.57759
-1.58262
-1.58755
-1.5924
-1.59717
-1.60184
-1.60644
-1.61095
-1.61539
-1.61974
-1.62402
-1.62821
-0.543185
-0.543605
-0.545208
-0.547754
-0.551129
-0.555321
-0.5603
-0.566016
-0.572421
-0.579474
-0.587135
-0.595366
-0.604129
-0.613387
-0.623107
-0.633255
-0.6438
-0.65471
-0.665956
-0.67751
-0.689346
-0.701437
-0.713759
-0.726288
-0.739003
-0.751881
-0.764903
-0.778049
-0.7913
-0.80464
-0.818051
-0.831518
-0.845027
-0.858562
-0.872111
-0.885661
-0.899201
-0.912718
-0.926203
-0.939646
-0.953037
-0.966369
-0.979632
-0.992819
-1.00592
-1.01894
-1.03186
-1.04468
-1.05739
-1.06999
-1.08248
-1.09485
-1.1071
-1.11921
-1.13121
-1.14307
-1.15479
-1.16638
-1.17783
-1.18915
-1.20032
-1.21135
-1.22224
-1.23298
-1.24358
-1.25404
-1.26435
-1.27452
-1.28454
-1.29442
-1.30416
-1.31375
-1.3232
-1.33251
-1.34168
-1.35071
-1.35959
-1.36834
-1.37696
-1.38543
-1.39377
-1.40198
-1.41006
-1.418
-1.42582
-1.43351
-1.44107
-1.4485
-1.45581
-1.463
-1.47007
-1.47702
-1.48385
-1.49057
-1.49717
-1.50366
-1.51004
-1.51631
-1.52247
-1.52852
-1.53447
-1.54031
-1.54606
-1.5517
-1.55724
-1.56269
-1.56804
-1.5733
-1.57847
-1.58354
-1.58853
-1.59343
-1.59824
-1.60296
-1.6076
-1.61216
-1.61664
-1.62104
-1.62536
-1.62959
-0.537989
-0.538362
-0.539926
-0.542435
-0.545778
-0.549941
-0.554896
-0.560592
-0.56698
-0.574021
-0.581673
-0.589899
-0.598661
-0.607923
-0.617649
-0.627808
-0.638366
-0.649293
-0.66056
-0.672138
-0.684001
-0.696123
-0.708479
-0.721046
-0.7338
-0.746722
-0.759789
-0.772984
-0.786286
-0.79968
-0.813147
-0.826673
-0.840243
-0.853841
-0.867456
-0.881073
-0.894682
-0.90827
-0.921828
-0.935345
-0.948812
-0.96222
-0.975562
-0.988829
-1.00201
-1.01511
-1.02811
-1.04102
-1.05381
-1.0665
-1.07907
-1.09153
-1.10386
-1.11607
-1.12814
-1.14009
-1.1519
-1.16358
-1.17512
-1.18652
-1.19778
-1.2089
-1.21987
-1.2307
-1.24139
-1.25193
-1.26233
-1.27258
-1.28269
-1.29266
-1.30248
-1.31215
-1.32168
-1.33107
-1.34032
-1.34943
-1.3584
-1.36723
-1.37592
-1.38447
-1.39289
-1.40117
-1.40932
-1.41734
-1.42523
-1.43299
-1.44062
-1.44813
-1.45551
-1.46277
-1.46991
-1.47693
-1.48383
-1.49061
-1.49727
-1.50383
-1.51027
-1.5166
-1.52282
-1.52894
-1.53494
-1.54085
-1.54665
-1.55235
-1.55795
-1.56346
-1.56887
-1.57418
-1.5794
-1.58452
-1.58956
-1.59451
-1.59937
-1.60415
-1.60884
-1.61344
-1.61797
-1.62241
-1.62678
-1.63106
-0.532497
-0.532822
-0.534342
-0.536813
-0.540121
-0.544254
-0.549183
-0.554857
-0.561228
-0.568255
-0.575898
-0.584119
-0.59288
-0.602144
-0.611877
-0.622046
-0.632618
-0.643563
-0.654851
-0.666455
-0.678347
-0.6905
-0.702892
-0.715497
-0.728294
-0.74126
-0.754376
-0.767621
-0.780978
-0.794428
-0.807954
-0.821542
-0.835176
-0.848841
-0.862524
-0.876212
-0.889894
-0.903557
-0.917191
-0.930787
-0.944333
-0.957823
-0.971247
-0.984598
-0.997868
-1.01105
-1.02414
-1.03713
-1.05002
-1.06279
-1.07546
-1.088
-1.10043
-1.11272
-1.12489
-1.13693
-1.14884
-1.16061
-1.17224
-1.18373
-1.19508
-1.20629
-1.21736
-1.22828
-1.23906
-1.24969
-1.26018
-1.27053
-1.28072
-1.29078
-1.30068
-1.31045
-1.32007
-1.32954
-1.33888
-1.34807
-1.35712
-1.36604
-1.37481
-1.38345
-1.39195
-1.40031
-1.40854
-1.41664
-1.42461
-1.43244
-1.44015
-1.44773
-1.45519
-1.46252
-1.46973
-1.47682
-1.48379
-1.49064
-1.49738
-1.504
-1.51051
-1.51691
-1.52319
-1.52937
-1.53545
-1.54141
-1.54728
-1.55304
-1.5587
-1.56426
-1.56973
-1.5751
-1.58038
-1.58556
-1.59065
-1.59565
-1.60057
-1.6054
-1.61014
-1.6148
-1.61937
-1.62387
-1.62828
-1.63261
-0.526715
-0.526988
-0.528463
-0.530893
-0.534164
-0.538265
-0.543167
-0.548818
-0.55517
-0.562183
-0.569816
-0.578031
-0.58679
-0.596056
-0.605796
-0.615975
-0.626561
-0.637525
-0.648835
-0.660465
-0.672386
-0.684573
-0.697001
-0.709647
-0.722487
-0.7355
-0.748666
-0.761965
-0.775378
-0.788887
-0.802476
-0.816128
-0.829829
-0.843564
-0.857319
-0.871081
-0.884839
-0.898581
-0.912296
-0.925973
-0.939604
-0.953179
-0.96669
-0.980129
-0.993489
-1.00676
-1.01994
-1.03303
-1.04601
-1.05888
-1.07164
-1.08428
-1.0968
-1.10919
-1.12146
-1.13359
-1.14559
-1.15746
-1.16919
-1.18078
-1.19223
-1.20354
-1.2147
-1.22572
-1.23659
-1.24732
-1.25791
-1.26834
-1.27864
-1.28878
-1.29879
-1.30864
-1.31835
-1.32792
-1.33735
-1.34663
-1.35577
-1.36477
-1.37363
-1.38236
-1.39094
-1.39939
-1.40771
-1.41589
-1.42394
-1.43186
-1.43964
-1.44731
-1.45484
-1.46225
-1.46954
-1.4767
-1.48375
-1.49067
-1.49748
-1.50418
-1.51076
-1.51722
-1.52358
-1.52983
-1.53597
-1.542
-1.54793
-1.55376
-1.55948
-1.56511
-1.57064
-1.57607
-1.5814
-1.58665
-1.5918
-1.59686
-1.60183
-1.60671
-1.61151
-1.61622
-1.62085
-1.6254
-1.62986
-1.63424
-0.520647
-0.520867
-0.522294
-0.524681
-0.527913
-0.531981
-0.536853
-0.542479
-0.548812
-0.555809
-0.563431
-0.571639
-0.580395
-0.589664
-0.59941
-0.609599
-0.620201
-0.631183
-0.642516
-0.654172
-0.666124
-0.678345
-0.690812
-0.703499
-0.716384
-0.729447
-0.742665
-0.756019
-0.76949
-0.783061
-0.796714
-0.810434
-0.824205
-0.838012
-0.851843
-0.865683
-0.879521
-0.893344
-0.907143
-0.920906
-0.934625
-0.948289
-0.961891
-0.975423
-0.988876
-1.00225
-1.01552
-1.0287
-1.04178
-1.05475
-1.06761
-1.08035
-1.09297
-1.10547
-1.11783
-1.13007
-1.14218
-1.15414
-1.16598
-1.17767
-1.18922
-1.20063
-1.21189
-1.22301
-1.23399
-1.24482
-1.2555
-1.26604
-1.27643
-1.28668
-1.29678
-1.30673
-1.31654
-1.32621
-1.33573
-1.3451
-1.35434
-1.36343
-1.37239
-1.3812
-1.38988
-1.39842
-1.40682
-1.41509
-1.42322
-1.43123
-1.4391
-1.44685
-1.45447
-1.46196
-1.46933
-1.47657
-1.4837
-1.4907
-1.49759
-1.50436
-1.51101
-1.51755
-1.52398
-1.5303
-1.53651
-1.54262
-1.54861
-1.55451
-1.5603
-1.56599
-1.57159
-1.57708
-1.58248
-1.58779
-1.593
-1.59812
-1.60315
-1.60809
-1.61295
-1.61771
-1.6224
-1.627
-1.63152
-1.63595
-0.5143
-0.514463
-0.515841
-0.518181
-0.521373
-0.525405
-0.530247
-0.535847
-0.542158
-0.549138
-0.556748
-0.564949
-0.573703
-0.582973
-0.592724
-0.602924
-0.61354
-0.624541
-0.635898
-0.647581
-0.659565
-0.671821
-0.684327
-0.697057
-0.70999
-0.723102
-0.736374
-0.749786
-0.763318
-0.776953
-0.790673
-0.804463
-0.818307
-0.83219
-0.846099
-0.86002
-0.873941
-0.88785
-0.901736
-0.915589
-0.929399
-0.943157
-0.956854
-0.970482
-0.984033
-0.997502
-1.01088
-1.02416
-1.03734
-1.05042
-1.06338
-1.07622
-1.08895
-1.10155
-1.11402
-1.12637
-1.13858
-1.15066
-1.16259
-1.17439
-1.18605
-1.19757
-1.20894
-1.22017
-1.23125
-1.24218
-1.25297
-1.26362
-1.27411
-1.28446
-1.29466
-1.30472
-1.31463
-1.3244
-1.33402
-1.34349
-1.35283
-1.36202
-1.37107
-1.37998
-1.38875
-1.39738
-1.40588
-1.41424
-1.42247
-1.43056
-1.43853
-1.44636
-1.45407
-1.46164
-1.4691
-1.47643
-1.48363
-1.49072
-1.49769
-1.50454
-1.51127
-1.51789
-1.52439
-1.53079
-1.53707
-1.54325
-1.54932
-1.55529
-1.56115
-1.56691
-1.57258
-1.57814
-1.5836
-1.58898
-1.59425
-1.59944
-1.60453
-1.60953
-1.61445
-1.61928
-1.62402
-1.62868
-1.63326
-1.63775
-0.507678
-0.507782
-0.509107
-0.5114
-0.514549
-0.518544
-0.523353
-0.528926
-0.535214
-0.542176
-0.549773
-0.557966
-0.566716
-0.575987
-0.585745
-0.595955
-0.606585
-0.617606
-0.628986
-0.640697
-0.652712
-0.665006
-0.677551
-0.690326
-0.703307
-0.716471
-0.729799
-0.74327
-0.756865
-0.770566
-0.784356
-0.798218
-0.812137
-0.826099
-0.840089
-0.854094
-0.868101
-0.882099
-0.896077
-0.910023
-0.923928
-0.937783
-0.951579
-0.965307
-0.978961
-0.992532
-1.00602
-1.0194
-1.03269
-1.04587
-1.05894
-1.0719
-1.08473
-1.09744
-1.11003
-1.12249
-1.13481
-1.147
-1.15905
-1.17096
-1.18273
-1.19436
-1.20584
-1.21718
-1.22837
-1.23942
-1.25032
-1.26107
-1.27167
-1.28213
-1.29244
-1.3026
-1.31262
-1.32249
-1.33222
-1.3418
-1.35124
-1.36053
-1.36968
-1.37869
-1.38756
-1.39629
-1.40489
-1.41335
-1.42167
-1.42986
-1.43791
-1.44584
-1.45364
-1.4613
-1.46885
-1.47626
-1.48356
-1.49073
-1.49778
-1.50471
-1.51153
-1.51823
-1.52482
-1.53129
-1.53766
-1.54391
-1.55006
-1.5561
-1.56204
-1.56787
-1.5736
-1.57924
-1.58477
-1.59021
-1.59556
-1.60081
-1.60597
-1.61103
-1.61601
-1.62091
-1.62571
-1.63043
-1.63507
-1.63962
-0.500787
-0.500828
-0.502099
-0.504342
-0.507447
-0.511402
-0.516177
-0.52172
-0.527985
-0.534928
-0.542511
-0.550694
-0.55944
-0.568712
-0.578474
-0.588695
-0.59934
-0.61038
-0.621783
-0.633523
-0.645571
-0.657901
-0.670489
-0.683309
-0.696339
-0.709557
-0.722942
-0.736474
-0.750134
-0.763903
-0.777765
-0.791702
-0.805699
-0.819742
-0.833816
-0.847908
-0.862004
-0.876094
-0.890166
-0.904209
-0.918213
-0.932169
-0.946067
-0.9599
-0.973659
-0.987338
-1.00093
-1.01443
-1.02783
-1.04112
-1.0543
-1.06737
-1.08032
-1.09315
-1.10585
-1.11842
-1.13086
-1.14317
-1.15533
-1.16736
-1.17925
-1.19099
-1.20259
-1.21405
-1.22535
-1.23652
-1.24753
-1.2584
-1.26912
-1.27969
-1.29011
-1.30038
-1.31051
-1.32049
-1.33033
-1.34002
-1.34956
-1.35896
-1.36822
-1.37734
-1.38631
-1.39514
-1.40384
-1.4124
-1.42082
-1.42911
-1.43726
-1.44529
-1.45318
-1.46094
-1.46858
-1.47608
-1.48347
-1.49073
-1.49787
-1.50489
-1.51179
-1.51858
-1.52525
-1.53181
-1.53825
-1.54459
-1.55082
-1.55694
-1.56295
-1.56886
-1.57467
-1.58038
-1.58599
-1.5915
-1.59691
-1.60223
-1.60746
-1.6126
-1.61764
-1.6226
-1.62747
-1.63226
-1.63695
-1.64156
-0.493631
-0.493607
-0.494821
-0.497013
-0.50007
-0.503984
-0.508723
-0.514236
-0.520475
-0.527398
-0.534966
-0.543139
-0.551879
-0.561151
-0.570919
-0.581148
-0.591808
-0.602867
-0.614295
-0.626063
-0.638145
-0.650513
-0.663142
-0.676009
-0.689089
-0.702362
-0.715806
-0.729401
-0.743127
-0.756967
-0.770902
-0.784917
-0.798994
-0.813121
-0.827281
-0.841463
-0.855652
-0.869837
-0.884007
-0.89815
-0.912256
-0.926316
-0.94032
-0.954261
-0.968131
-0.981921
-0.995626
-1.00924
-1.02275
-1.03616
-1.04946
-1.06265
-1.07572
-1.08867
-1.10149
-1.11418
-1.12674
-1.13916
-1.15145
-1.1636
-1.17561
-1.18747
-1.19919
-1.21077
-1.2222
-1.23348
-1.24461
-1.2556
-1.26644
-1.27713
-1.28767
-1.29806
-1.3083
-1.3184
-1.32835
-1.33815
-1.34781
-1.35732
-1.36669
-1.37591
-1.38499
-1.39394
-1.40274
-1.4114
-1.41993
-1.42832
-1.43658
-1.4447
-1.45269
-1.46055
-1.46828
-1.47589
-1.48337
-1.49072
-1.49796
-1.50507
-1.51206
-1.51893
-1.52569
-1.53234
-1.53887
-1.54529
-1.5516
-1.5578
-1.5639
-1.56989
-1.57577
-1.58156
-1.58724
-1.59283
-1.59832
-1.60371
-1.60901
-1.61422
-1.61933
-1.62436
-1.6293
-1.63415
-1.63891
-1.64358
-0.486214
-0.486124
-0.487279
-0.489416
-0.492425
-0.496295
-0.500997
-0.506477
-0.512689
-0.519591
-0.527142
-0.535304
-0.544039
-0.55331
-0.563081
-0.573321
-0.583995
-0.595073
-0.606525
-0.618322
-0.630437
-0.642843
-0.655515
-0.668429
-0.681562
-0.694891
-0.708395
-0.722054
-0.735848
-0.74976
-0.763771
-0.777865
-0.792026
-0.806238
-0.820488
-0.834762
-0.849046
-0.863329
-0.8776
-0.891846
-0.906058
-0.920225
-0.93434
-0.948392
-0.962375
-0.976281
-0.990102
-1.00383
-1.01747
-1.031
-1.04442
-1.05773
-1.07092
-1.08399
-1.09694
-1.10975
-1.12244
-1.13499
-1.14741
-1.15968
-1.17181
-1.1838
-1.19565
-1.20735
-1.21891
-1.23031
-1.24157
-1.25268
-1.26364
-1.27445
-1.28511
-1.29563
-1.30599
-1.31621
-1.32627
-1.33619
-1.34597
-1.3556
-1.36508
-1.37442
-1.38361
-1.39267
-1.40158
-1.41035
-1.41899
-1.42748
-1.43585
-1.44407
-1.45217
-1.46013
-1.46797
-1.47567
-1.48325
-1.4907
-1.49803
-1.50524
-1.51233
-1.51929
-1.52614
-1.53288
-1.5395
-1.546
-1.5524
-1.55869
-1.56487
-1.57094
-1.57691
-1.58277
-1.58854
-1.5942
-1.59977
-1.60524
-1.61061
-1.61589
-1.62108
-1.62618
-1.63119
-1.63611
-1.64094
-1.64568
-0.478542
-0.478383
-0.479476
-0.481557
-0.484515
-0.48834
-0.493003
-0.498449
-0.504633
-0.511511
-0.519045
-0.527195
-0.535923
-0.545192
-0.554967
-0.565215
-0.575903
-0.587
-0.598476
-0.610302
-0.622451
-0.634896
-0.647612
-0.660574
-0.673759
-0.687145
-0.70071
-0.714435
-0.728299
-0.742285
-0.756374
-0.770549
-0.784794
-0.799095
-0.813437
-0.827806
-0.842188
-0.856572
-0.870946
-0.885299
-0.899619
-0.913898
-0.928126
-0.942294
-0.956394
-0.970419
-0.98436
-0.998213
-1.01197
-1.02562
-1.03917
-1.05261
-1.06593
-1.07913
-1.0922
-1.10515
-1.11797
-1.13065
-1.14319
-1.1556
-1.16786
-1.17998
-1.19196
-1.20379
-1.21547
-1.22701
-1.2384
-1.24963
-1.26072
-1.27166
-1.28245
-1.29309
-1.30358
-1.31392
-1.32411
-1.33415
-1.34404
-1.35379
-1.36339
-1.37285
-1.38216
-1.39133
-1.40036
-1.40925
-1.418
-1.42661
-1.43508
-1.44341
-1.45162
-1.45969
-1.46763
-1.47543
-1.48312
-1.49067
-1.4981
-1.50541
-1.51259
-1.51965
-1.5266
-1.53343
-1.54014
-1.54674
-1.55322
-1.5596
-1.56587
-1.57203
-1.57808
-1.58403
-1.58988
-1.59562
-1.60127
-1.60682
-1.61227
-1.61763
-1.62289
-1.62806
-1.63314
-1.63814
-1.64304
-1.64785
-0.47062
-0.470389
-0.471418
-0.473441
-0.476346
-0.480124
-0.484745
-0.490156
-0.49631
-0.503164
-0.510679
-0.518815
-0.527535
-0.536802
-0.54658
-0.556836
-0.567538
-0.578653
-0.590153
-0.602008
-0.614191
-0.626675
-0.639434
-0.652445
-0.665684
-0.679128
-0.692756
-0.706548
-0.720483
-0.734544
-0.748712
-0.76297
-0.777303
-0.791695
-0.80613
-0.820597
-0.83508
-0.849567
-0.864048
-0.87851
-0.892942
-0.907335
-0.92168
-0.935966
-0.950187
-0.964334
-0.978401
-0.992379
-1.00626
-1.02005
-1.03372
-1.04729
-1.06074
-1.07408
-1.08728
-1.10036
-1.11331
-1.12613
-1.13881
-1.15135
-1.16375
-1.176
-1.18812
-1.20008
-1.2119
-1.22357
-1.23509
-1.24646
-1.25768
-1.26875
-1.27967
-1.29044
-1.30106
-1.31153
-1.32185
-1.33202
-1.34204
-1.35191
-1.36163
-1.37121
-1.38065
-1.38994
-1.39909
-1.40809
-1.41695
-1.42568
-1.43427
-1.44272
-1.45103
-1.45921
-1.46726
-1.47518
-1.48296
-1.49062
-1.49816
-1.50557
-1.51285
-1.52001
-1.52706
-1.53398
-1.54079
-1.54749
-1.55407
-1.56053
-1.56689
-1.57314
-1.57928
-1.58532
-1.59125
-1.59708
-1.60281
-1.60844
-1.61398
-1.61941
-1.62476
-1.63001
-1.63516
-1.64023
-1.64521
-1.65008
-0.462451
-0.462146
-0.463109
-0.465071
-0.467921
-0.471651
-0.476229
-0.481603
-0.487725
-0.494553
-0.502048
-0.51017
-0.51888
-0.528143
-0.537924
-0.548187
-0.558902
-0.570036
-0.581559
-0.593443
-0.60566
-0.618183
-0.630987
-0.644047
-0.65734
-0.670843
-0.684534
-0.698394
-0.712402
-0.726539
-0.740788
-0.755132
-0.769554
-0.784038
-0.79857
-0.813136
-0.827722
-0.842316
-0.856905
-0.871479
-0.886027
-0.900537