/*--------------------------------*- C++ -*----------------------------------*\
  =========                 |
  \\      /  F ield         | OpenFOAM: The Open Source CFD Toolbox
   \\    /   O peration     | Website:  https://openfoam.org
    \\  /    A nd           | Version:  8
     \\/     M anipulation  |
\*---------------------------------------------------------------------------*/
FoamFile
{
    version     2.0;
    format      ascii;
    class       volScalarField;
    location    "0.34";
    object      p;
}
// * * * * * * * * * * * * * * * * * * * * * * * * * * * * * * * * * * * * * //

dimensions      [0 2 -2 0 0 0 0];

internalField   nonuniform List<scalar> 
112642
(
-2.31543
-2.29162
-2.26784
-2.24338
-2.21724
-2.18974
-2.16124
-2.13218
-2.10279
-2.07325
-2.04365
-2.01404
-1.98447
-1.95494
-1.92546
-1.89605
-1.86671
-1.83745
-1.80828
-1.7792
-1.75021
-1.72132
-1.69253
-1.66383
-1.63522
-1.60671
-1.57829
-1.54995
-1.52172
-1.49356
-1.46551
-1.43754
-1.40966
-1.38189
-1.35421
-1.32664
-1.29918
-1.27182
-1.24458
-1.21746
-1.19045
-1.16356
-1.13678
-1.11012
-1.08358
-1.05716
-1.03085
-1.00466
-0.978587
-0.952624
-0.926774
-0.901035
-0.875403
-0.849884
-0.824473
-0.79917
-0.773974
-0.748892
-0.723916
-0.699052
-0.674305
-0.649661
-0.625128
-0.600706
-0.576393
-0.552186
-0.528083
-0.504087
-0.480193
-0.456396
-0.432701
-0.409099
-0.385594
-0.362181
-0.338863
-0.315639
-0.292501
-0.26946
-0.246505
-0.22364
-0.200858
-0.178165
-0.15556
-0.133042
-0.110602
-0.0882425
-0.0659761
-0.0437827
-0.0216724
0.000359849
0.0223135
0.0441837
0.0659807
0.0877027
0.109349
0.130916
0.152412
0.173838
0.19519
0.216471
0.237681
0.258823
0.279897
0.300907
0.321848
0.342723
0.363537
0.384289
0.404976
0.425599
0.446166
0.466673
0.48712
0.507512
0.527841
0.548124
0.56835
0.588517
0.608633
0.628696
0.648707
0.668658
0.688553
0.708387
0.728169
0.747886
0.767543
0.787141
0.806676
0.826152
0.845564
0.864919
0.884212
0.903446
0.922625
0.941743
0.960802
0.979802
0.998744
1.01763
1.03644
1.0552
1.07391
1.09254
1.11112
1.12964
1.14809
1.16648
1.18482
1.20308
1.22129
1.23943
1.25751
1.27552
1.29346
1.31134
1.32914
1.34688
1.36453
1.38212
1.39961
1.41703
1.43435
1.45159
1.46872
1.48574
1.50266
1.51946
1.53614
1.5527
1.56914
1.58545
1.60164
1.6177
1.63363
1.64942
1.66508
1.68061
1.69599
1.71122
1.7263
1.74122
1.75598
1.77056
1.78496
1.79917
1.81318
1.82699
1.84059
1.85397
1.86711
1.87996
1.89243
1.90438
1.91562
1.92583
1.93478
1.94235
1.94947
1.95676
-2.3294
-2.30494
-2.28069
-2.25655
-2.23105
-2.20431
-2.17638
-2.14775
-2.11864
-2.08925
-2.05974
-2.03019
-2.00065
-1.97111
-1.94162
-1.91219
-1.88282
-1.85352
-1.8243
-1.79515
-1.76611
-1.73713
-1.70826
-1.67948
-1.65077
-1.62216
-1.59364
-1.56519
-1.53683
-1.50856
-1.48037
-1.45227
-1.42426
-1.39634
-1.36852
-1.34079
-1.31317
-1.28565
-1.25824
-1.23094
-1.20375
-1.17668
-1.14972
-1.12287
-1.09613
-1.06952
-1.04301
-1.01662
-0.990342
-0.964172
-0.938112
-0.912166
-0.886325
-0.860593
-0.834965
-0.809448
-0.784037
-0.758735
-0.733538
-0.708453
-0.683473
-0.658606
-0.633842
-0.609188
-0.584642
-0.560196
-0.53586
-0.511626
-0.487492
-0.463455
-0.439521
-0.415679
-0.391936
-0.368286
-0.34473
-0.321264
-0.297891
-0.27461
-0.251419
-0.228314
-0.205297
-0.182368
-0.159527
-0.13677
-0.114097
-0.0915066
-0.0690029
-0.0465787
-0.0242362
-0.00197416
0.0202071
0.0423095
0.0643331
0.0862823
0.108152
0.129946
0.151665
0.173309
0.194885
0.21638
0.237812
0.259166
0.280458
0.301677
0.32283
0.343916
0.364937
0.385895
0.406787
0.427615
0.448381
0.469086
0.489731
0.510317
0.530841
0.551311
0.571723
0.592076
0.612372
0.632612
0.652794
0.672918
0.69298
0.712981
0.732921
0.752801
0.772616
0.792368
0.812057
0.831685
0.851246
0.870749
0.890188
0.909563
0.928876
0.948132
0.967321
0.986449
1.00552
1.02452
1.04346
1.06233
1.08114
1.09988
1.11856
1.13718
1.15573
1.17421
1.19262
1.21097
1.22925
1.24747
1.26561
1.28368
1.30168
1.3196
1.33746
1.35523
1.37293
1.39054
1.40807
1.4255
1.44284
1.46009
1.47722
1.49425
1.51116
1.52794
1.54461
1.56115
1.57757
1.59384
1.60999
1.62602
1.64189
1.65764
1.67324
1.68869
1.704
1.71916
1.73415
1.74898
1.76364
1.77811
1.7924
1.80649
1.82038
1.83406
1.84751
1.86072
1.87365
1.88623
1.89834
1.90982
1.92046
1.92996
1.93836
1.9457
1.95323
1.96109
-2.34549
-2.31989
-2.2947
-2.27085
-2.24586
-2.21986
-2.19259
-2.16443
-2.13563
-2.10646
-2.07705
-2.04756
-2.01803
-1.9885
-1.95901
-1.92955
-1.90013
-1.87079
-1.8415
-1.8123
-1.78316
-1.75412
-1.72514
-1.69625
-1.66744
-1.63872
-1.61007
-1.58149
-1.55301
-1.5246
-1.49627
-1.46803
-1.43987
-1.4118
-1.38381
-1.35592
-1.32813
-1.30043
-1.27284
-1.24535
-1.21797
-1.19071
-1.16355
-1.13649
-1.10955
-1.08272
-1.056
-1.02939
-1.00289
-0.976499
-0.950217
-0.924038
-0.897973
-0.872008
-0.846151
-0.820404
-0.794758
-0.769217
-0.743787
-0.718459
-0.693241
-0.668125
-0.643118
-0.618215
-0.593416
-0.568723
-0.544132
-0.519641
-0.495254
-0.470962
-0.44677
-0.422678
-0.398677
-0.37477
-0.350958
-0.32724
-0.303612
-0.280075
-0.256629
-0.233271
-0.210001
-0.186817
-0.163725
-0.140716
-0.117793
-0.0949497
-0.0721976
-0.0495261
-0.0269332
-0.00442819
0.0180032
0.0403479
0.0626175
0.0848066
0.106917
0.128951
0.15091
0.172792
0.194601
0.216332
0.237995
0.25958
0.281101
0.302549
0.323929
0.345239
0.366482
0.387659
0.408772
0.429815
0.4508
0.471716
0.492574
0.513367
0.534096
0.554772
0.575382
0.595934
0.616421
0.636854
0.657223
0.677529
0.697773
0.717953
0.73807
0.75812
0.778107
0.798029
0.817886
0.837673
0.857398
0.877059
0.896652
0.916182
0.935646
0.955045
0.974379
0.993647
1.01285
1.03198
1.05105
1.07005
1.08897
1.10784
1.12663
1.14535
1.164
1.18258
1.20109
1.21953
1.2379
1.25619
1.27441
1.29255
1.31061
1.3286
1.34651
1.36433
1.38207
1.39972
1.41728
1.43474
1.45211
1.46936
1.48651
1.50354
1.52045
1.53723
1.55389
1.57041
1.58681
1.60307
1.61918
1.63517
1.65101
1.66669
1.68224
1.69763
1.71287
1.72795
1.74286
1.7576
1.77216
1.78652
1.8007
1.81467
1.82843
1.84197
1.85526
1.86828
1.88099
1.89326
1.90498
1.91593
1.92595
1.93478
1.94274
1.94992
1.95818
1.96693
-2.36325
-2.33604
-2.30978
-2.28582
-2.2612
-2.2359
-2.20927
-2.18166
-2.15324
-2.12432
-2.09509
-2.06568
-2.03619
-2.00668
-1.97717
-1.94769
-1.91824
-1.88884
-1.8595
-1.83022
-1.80101
-1.77186
-1.74278
-1.71378
-1.68486
-1.65602
-1.62724
-1.59853
-1.56991
-1.54136
-1.51288
-1.48449
-1.45618
-1.42794
-1.39979
-1.37174
-1.34376
-1.31589
-1.28811
-1.26043
-1.23285
-1.20538
-1.17801
-1.15075
-1.12359
-1.09654
-1.0696
-1.04277
-1.01603
-0.989406
-0.962887
-0.936472
-0.910159
-0.883955
-0.85786
-0.83186
-0.805965
-0.780179
-0.754493
-0.728914
-0.703439
-0.678067
-0.652801
-0.62764
-0.602576
-0.577621
-0.552763
-0.528011
-0.503354
-0.4788
-0.454341
-0.429979
-0.405713
-0.381537
-0.357456
-0.333474
-0.309576
-0.285771
-0.262061
-0.238433
-0.214899
-0.19145
-0.168093
-0.144817
-0.121631
-0.0985274
-0.0755114
-0.0525776
-0.0297276
-0.00695913
0.0157284
0.0383305
0.0608554
0.0832989
0.105665
0.12795
0.15016
0.172291
0.194346
0.216324
0.23823
0.260061
0.28182
0.303506
0.325124
0.34667
0.368149
0.389557
0.410899
0.43217
0.453379
0.474521
0.495598
0.51661
0.537557
0.558443
0.579264
0.600026
0.620718
0.641351
0.661916
0.682421
0.702854
0.723225
0.74353
0.763761
0.783929
0.80403
0.82406
0.844021
0.863915
0.883739
0.903497
0.923184
0.942806
0.962355
0.98184
1.00125
1.02059
1.03986
1.05906
1.07819
1.09725
1.11623
1.13514
1.15397
1.17273
1.19141
1.21003
1.22856
1.24701
1.26539
1.28369
1.3019
1.32004
1.33809
1.35606
1.37394
1.39172
1.40941
1.427
1.4445
1.46188
1.47915
1.49631
1.51334
1.53025
1.54703
1.56368
1.58019
1.59656
1.61279
1.62888
1.64483
1.66063
1.67627
1.69176
1.70709
1.72226
1.73726
1.75208
1.76672
1.78117
1.79543
1.80948
1.82332
1.83694
1.85032
1.86344
1.87625
1.88869
1.90061
1.91189
1.92228
1.93168
1.93992
1.9476
1.95491
1.96402
1.97393
-2.38137
-2.35275
-2.32537
-2.30075
-2.27623
-2.25143
-2.22545
-2.19846
-2.1705
-2.14192
-2.1129
-2.08363
-2.05422
-2.02474
-1.99525
-1.96575
-1.93628
-1.90684
-1.87744
-1.84809
-1.8188
-1.78957
-1.7604
-1.73131
-1.70228
-1.67331
-1.64441
-1.61559
-1.58683
-1.55815
-1.52954
-1.501
-1.47254
-1.44415
-1.41585
-1.38763
-1.35949
-1.33143
-1.30347
-1.2756
-1.24784
-1.22016
-1.19259
-1.16512
-1.13775
-1.11048
-1.08331
-1.05625
-1.02929
-1.00243
-0.975672
-0.949022
-0.922469
-0.896019
-0.869674
-0.843428
-0.817284
-0.791244
-0.765306
-0.739469
-0.713738
-0.688109
-0.66258
-0.637153
-0.61183
-0.586609
-0.561485
-0.536461
-0.51154
-0.486715
-0.461985
-0.437351
-0.412815
-0.388368
-0.364019
-0.33976
-0.315596
-0.291519
-0.267534
-0.243641
-0.219837
-0.196116
-0.172488
-0.148946
-0.125493
-0.102121
-0.0788379
-0.0556381
-0.0325243
-0.0094919
0.013457
0.0363218
0.0591061
0.0818105
0.104432
0.126975
0.149438
0.171824
0.19413
0.216358
0.238511
0.260588
0.282591
0.304522
0.326379
0.348165
0.369879
0.391524
0.413098
0.434601
0.456037
0.477406
0.498705
0.519939
0.541105
0.562208
0.58324
0.604209
0.625109
0.645947
0.666713
0.687411
0.708041
0.728603
0.749091
0.769512
0.789859
0.810138
0.830342
0.850476
0.870539
0.890529
0.910445
0.930292
0.950068
0.969768
0.989395
1.00895
1.02843
1.04784
1.06717
1.08642
1.1056
1.1247
1.14372
1.16267
1.18153
1.20032
1.21903
1.23765
1.25619
1.27465
1.29302
1.31131
1.32951
1.34762
1.36564
1.38356
1.40138
1.41911
1.43673
1.45424
1.47164
1.48892
1.50608
1.52311
1.54001
1.55677
1.5734
1.58989
1.60623
1.62243
1.63849
1.65439
1.67014
1.68573
1.70115
1.71641
1.7315
1.74642
1.76115
1.77569
1.79003
1.80417
1.81809
1.83179
1.84525
1.85846
1.87137
1.88393
1.89605
1.90757
1.91833
1.92814
1.93696
1.94478
1.95241
1.96028
1.97025
1.98117
-2.39969
-2.36994
-2.34143
-2.31582
-2.29107
-2.26655
-2.24113
-2.21475
-2.18733
-2.15917
-2.13043
-2.10135
-2.07205
-2.04264
-2.01317
-1.98368
-1.95419
-1.92471
-1.89527
-1.86588
-1.83652
-1.8072
-1.77796
-1.74877
-1.71964
-1.69057
-1.66157
-1.63263
-1.60376
-1.57496
-1.54622
-1.51754
-1.48894
-1.46041
-1.43195
-1.40357
-1.37526
-1.34704
-1.3189
-1.29085
-1.26289
-1.23502
-1.20724
-1.17957
-1.15199
-1.1245
-1.09711
-1.06982
-1.04263
-1.01555
-0.988556
-0.961665
-0.93487
-0.908177
-0.881583
-0.855092
-0.828698
-0.802402
-0.776214
-0.750119
-0.72413
-0.698237
-0.672445
-0.646756
-0.621166
-0.595676
-0.570283
-0.544991
-0.519795
-0.4947
-0.469696
-0.444786
-0.419976
-0.395261
-0.370631
-0.346102
-0.321658
-0.297311
-0.27305
-0.248883
-0.224802
-0.200811
-0.17691
-0.153096
-0.129369
-0.105725
-0.082174
-0.058703
-0.0353206
-0.0120203
0.0111939
0.0343269
0.0573734
0.0803422
0.103224
0.126028
0.148749
0.171389
0.193952
0.216433
0.238838
0.261163
0.283416
0.305591
0.327692
0.349721
0.371673
0.393558
0.415365
0.437105
0.458771
0.480368
0.501893
0.523352
0.544736
0.566057
0.587307
0.608485
0.629594
0.650633
0.671602
0.692498
0.713323
0.734073
0.754752
0.775353
0.795886
0.816339
0.836717
0.857024
0.877255
0.897407
0.917486
0.937488
0.957416
0.977266
0.997038
1.01673
1.03635
1.05589
1.07535
1.09473
1.11402
1.13324
1.15237
1.17142
1.19039
1.20927
1.22807
1.24678
1.2654
1.28394
1.30238
1.32073
1.33899
1.35716
1.37522
1.39318
1.41104
1.4288
1.44644
1.46396
1.48137
1.49865
1.5158
1.53282
1.5497
1.56644
1.58304
1.5995
1.61581
1.63197
1.64797
1.66382
1.67951
1.69504
1.7104
1.72558
1.74059
1.75541
1.77004
1.78447
1.79869
1.8127
1.82648
1.84003
1.85333
1.86633
1.87902
1.89128
1.90303
1.91408
1.9243
1.93353
1.94187
1.94949
1.95735
1.96602
1.97678
1.98842
-2.41819
-2.3876
-2.35819
-2.33144
-2.30613
-2.2816
-2.25659
-2.23078
-2.20392
-2.17622
-2.14784
-2.119
-2.08986
-2.06054
-2.03112
-2.00165
-1.97216
-1.94268
-1.9132
-1.88375
-1.85434
-1.82497
-1.79564
-1.76638
-1.73716
-1.708
-1.6789
-1.64985
-1.62087
-1.59195
-1.56308
-1.53428
-1.50554
-1.47687
-1.44826
-1.41973
-1.39126
-1.36286
-1.33455
-1.30632
-1.27816
-1.2501
-1.22212
-1.19424
-1.16644
-1.13874
-1.11112
-1.08361
-1.05619
-1.02887
-1.00164
-0.97451
-0.947475
-0.920535
-0.893693
-0.866953
-0.840304
-0.813758
-0.787306
-0.760953
-0.734696
-0.708544
-0.682484
-0.656529
-0.630663
-0.604902
-0.579238
-0.553668
-0.528196
-0.502821
-0.477539
-0.452355
-0.427261
-0.402265
-0.377359
-0.352546
-0.327822
-0.303194
-0.278654
-0.254203
-0.229846
-0.205575
-0.181391
-0.157298
-0.133292
-0.109374
-0.0855437
-0.0617969
-0.0381394
-0.0145658
0.0089211
0.0323257
0.0556445
0.0788774
0.102033
0.125097
0.148086
0.170988
0.193812
0.216552
0.239213
0.261794
0.2843
0.306725
0.329079
0.35135
0.373553
0.395675
0.417726
0.439703
0.461605
0.483435
0.505191
0.526877
0.548488
0.570028
0.591495
0.61289
0.634212
0.65546
0.67663
0.697728
0.71875
0.739693
0.760563
0.781353
0.802066
0.822698
0.843256
0.863732
0.884132
0.904451
0.924691
0.944852
0.964931
0.984928
1.00485
1.02468
1.04444
1.0641
1.08369
1.10319
1.12261
1.14194
1.16118
1.18033
1.1994
1.21838
1.23727
1.25606
1.27476
1.29337
1.31188
1.33029
1.34861
1.36682
1.38493
1.40293
1.42083
1.4386
1.45626
1.47379
1.4912
1.50848
1.52562
1.54262
1.55948
1.57619
1.59276
1.60917
1.62544
1.64155
1.6575
1.67328
1.68891
1.70436
1.71965
1.73474
1.74966
1.76438
1.77891
1.79322
1.80732
1.82119
1.83483
1.84821
1.86132
1.87411
1.88652
1.89845
1.90978
1.92033
1.92999
1.9387
1.94671
1.95437
1.96269
1.97224
1.98361
1.99566
-2.43683
-2.40582
-2.37561
-2.34775
-2.32166
-2.29684
-2.272
-2.24665
-2.22035
-2.19315
-2.16517
-2.13664
-2.1077
-2.07852
-2.04917
-2.01975
-1.99028
-1.96078
-1.93129
-1.90181
-1.87236
-1.84293
-1.81356
-1.78421
-1.75492
-1.72567
-1.69648
-1.66733
-1.63824
-1.6092
-1.58022
-1.55129
-1.52242
-1.4936
-1.46485
-1.43616
-1.40753
-1.37896
-1.35047
-1.32205
-1.29371
-1.26545
-1.23727
-1.20917
-1.18117
-1.15324
-1.12541
-1.09767
-1.07002
-1.04246
-1.01499
-0.987611
-0.960334
-0.933145
-0.906052
-0.879057
-0.852152
-0.825343
-0.798626
-0.772012
-0.74549
-0.719065
-0.692735
-0.666501
-0.640365
-0.614323
-0.588377
-0.562528
-0.536773
-0.511113
-0.485548
-0.460076
-0.434698
-0.409414
-0.38422
-0.35912
-0.334111
-0.309193
-0.284365
-0.259627
-0.234979
-0.210422
-0.185951
-0.161573
-0.137283
-0.113078
-0.0889627
-0.064933
-0.0409956
-0.0171367
0.00662833
0.0303115
0.0539079
0.0774189
0.100846
0.124186
0.147444
0.170618
0.193709
0.216715
0.23964
0.262482
0.285247
0.307932
0.330539
0.353066
0.375518
0.397891
0.420188
0.442409
0.464551
0.486623
0.508612
0.530531
0.552373
0.574141
0.59583
0.617442
0.638982
0.66044
0.681821
0.703124
0.724347
0.745489
0.76655
0.78753
0.80843
0.829247
0.849982
0.870635
0.891204
0.911691
0.932094
0.952413
0.972648
0.992798
1.01286
1.03284
1.05273
1.07253
1.09224
1.11186
1.1314
1.15084
1.17019
1.18945
1.20861
1.22768
1.24665
1.26553
1.28431
1.30299
1.32157
1.34004
1.35841
1.37667
1.39482
1.41285
1.43077
1.44857
1.46624
1.48378
1.50118
1.51845
1.53558
1.55256
1.56939
1.58607
1.6026
1.61897
1.63518
1.65123
1.66712
1.68284
1.69839
1.71376
1.72896
1.74396
1.75877
1.77339
1.7878
1.80199
1.81595
1.82968
1.84316
1.85636
1.86927
1.88181
1.89391
1.90546
1.91632
1.92635
1.9355
1.9438
1.95168
1.95961
1.96854
1.97891
1.99073
2.00287
-2.45568
-2.42443
-2.39353
-2.36469
-2.33766
-2.3123
-2.28742
-2.26237
-2.23654
-2.20986
-2.18233
-2.15416
-2.12548
-2.09647
-2.06726
-2.0379
-2.00847
-1.979
-1.9495
-1.92001
-1.89052
-1.86107
-1.83163
-1.80223
-1.77287
-1.74353
-1.71425
-1.68501
-1.65583
-1.62667
-1.59757
-1.56852
-1.53951
-1.51056
-1.48166
-1.45281
-1.42402
-1.39529
-1.36662
-1.33802
-1.30949
-1.28104
-1.25265
-1.22435
-1.19613
-1.16799
-1.13993
-1.11196
-1.08407
-1.05628
-1.02857
-1.00095
-0.973419
-0.945985
-0.91863
-0.891377
-0.864212
-0.837138
-0.810159
-0.783276
-0.756481
-0.729781
-0.703174
-0.676664
-0.650245
-0.623922
-0.59769
-0.571555
-0.54551
-0.519563
-0.493707
-0.467942
-0.442274
-0.416692
-0.391208
-0.365812
-0.34051
-0.315297
-0.290171
-0.265143
-0.240197
-0.215349
-0.190585
-0.165911
-0.14133
-0.116831
-0.092425
-0.0681069
-0.0438761
-0.0197335
0.00432123
0.0282916
0.0521707
0.0759676
0.0996732
0.123295
0.146832
0.170279
0.193646
0.216925
0.240119
0.263229
0.286262
0.309208
0.332077
0.354865
0.377571
0.400201
0.422748
0.44522
0.46761
0.489922
0.512156
0.534311
0.556386
0.578386
0.600302
0.62214
0.643898
0.66557
0.687167
0.708675
0.730105
0.751448
0.772705
0.79388
0.814966
0.835971
0.856886
0.877717
0.89846
0.919114
0.939683
0.960161
0.980551
1.00085
1.02106
1.04118
1.0612
1.08113
1.10098
1.12072
1.14037
1.15992
1.17938
1.19873
1.218
1.23715
1.25621
1.27516
1.29402
1.31276
1.33141
1.34993
1.36835
1.38666
1.40484
1.4229
1.44085
1.45865
1.47634
1.49388
1.51128
1.52854
1.54564
1.5626
1.5794
1.59604
1.61253
1.62884
1.645
1.66099
1.6768
1.69244
1.70791
1.72319
1.73829
1.75319
1.76789
1.78239
1.79667
1.81072
1.82454
1.83811
1.85141
1.86442
1.87708
1.88934
1.9011
1.91223
1.92261
1.93214
1.94083
1.94888
1.95683
1.96521
1.97484
1.98587
1.99799
2.01002
-2.4746
-2.44327
-2.41191
-2.3822
-2.35424
-2.32812
-2.30296
-2.278
-2.25255
-2.22635
-2.19931
-2.17153
-2.14317
-2.1144
-2.08534
-2.05609
-2.02674
-1.9973
-1.96783
-1.93833
-1.90883
-1.87934
-1.84987
-1.82041
-1.79098
-1.76159
-1.73222
-1.70289
-1.6736
-1.64435
-1.61512
-1.58595
-1.55681
-1.52772
-1.49868
-1.46967
-1.44073
-1.41183
-1.38299
-1.35421
-1.32549
-1.29684
-1.26826
-1.23975
-1.21132
-1.18296
-1.15468
-1.12648
-1.09836
-1.07032
-1.04237
-1.01451
-0.986731
-0.959038
-0.931428
-0.903912
-0.876485
-0.84915
-0.821897
-0.794739
-0.767671
-0.740692
-0.713806
-0.687008
-0.660308
-0.633694
-0.607173
-0.580748
-0.554409
-0.528163
-0.502013
-0.475952
-0.44998
-0.424104
-0.398318
-0.372625
-0.347019
-0.321502
-0.29608
-0.270746
-0.245505
-0.22035
-0.195288
-0.170312
-0.145431
-0.120636
-0.0959296
-0.0713138
-0.046786
-0.0223486
0.00200024
0.0262629
0.0504362
0.0745188
0.0985167
0.122425
0.146244
0.169979
0.193622
0.217182
0.240652
0.264039
0.287338
0.31056
0.333693
0.356746
0.379718
0.402605
0.425412
0.448138
0.47078
0.49334
0.51582
0.538217
0.560533
0.582766
0.604912
0.62698
0.64896
0.670856
0.692664
0.714387
0.736021
0.75757
0.77903
0.800397
0.821677
0.842865
0.863967
0.884976
0.905891
0.926717
0.947452
0.968089
0.988634
1.00909
1.02944
1.0497
1.06986
1.08992
1.10988
1.12975
1.14951
1.16917
1.18873
1.20819
1.22754
1.24679
1.26593
1.28496
1.30388
1.32269
1.34138
1.35997
1.37843
1.39677
1.41499
1.43307
1.45104
1.46885
1.48654
1.50408
1.52147
1.53871
1.5558
1.57272
1.58949
1.60609
1.62252
1.63878
1.65488
1.67079
1.68653
1.70209
1.71746
1.73265
1.74763
1.76242
1.777
1.79136
1.8055
1.8194
1.83306
1.84645
1.85955
1.87234
1.88473
1.89667
1.90804
1.91873
1.92863
1.93769
1.94606
1.95403
1.96224
1.97122
1.98151
1.99305
2.00525
2.017
-2.49347
-2.4622
-2.43062
-2.40025
-2.37133
-2.34441
-2.31873
-2.29368
-2.26845
-2.24267
-2.21608
-2.18875
-2.16076
-2.13226
-2.10341
-2.07431
-2.04505
-2.01568
-1.98624
-1.95676
-1.92726
-1.89775
-1.86824
-1.83874
-1.80926
-1.77979
-1.75035
-1.72093
-1.69154
-1.66219
-1.63286
-1.60356
-1.5743
-1.54508
-1.51589
-1.48673
-1.45763
-1.42857
-1.39956
-1.3706
-1.34171
-1.31286
-1.28408
-1.25537
-1.22673
-1.19815
-1.16965
-1.14122
-1.11287
-1.0846
-1.0564
-1.02829
-1.00026
-0.972311
-0.944451
-0.916666
-0.888973
-0.861367
-0.833843
-0.806407
-0.779062
-0.751797
-0.724628
-0.697545
-0.670549
-0.643643
-0.61683
-0.590102
-0.563469
-0.536923
-0.510467
-0.484105
-0.45783
-0.431647
-0.405557
-0.379552
-0.35364
-0.327818
-0.302086
-0.276445
-0.250893
-0.225432
-0.20006
-0.174781
-0.149589
-0.124487
-0.0994778
-0.0745532
-0.0497263
-0.0249836
-0.000331779
0.0242294
0.0487004
0.0730826
0.0973735
0.121576
0.14569
0.169711
0.193644
0.217488
0.241241
0.264908
0.288488
0.311982
0.335393
0.358717
0.381955
0.405109
0.428178
0.451163
0.474064
0.49688
0.519606
0.542254
0.564811
0.587284
0.60967
0.631965
0.654175
0.676293
0.698322
0.72026
0.742106
0.763859
0.78552
0.807089
0.828561
0.849939
0.871225
0.892412
0.913505
0.934502
0.955399
0.976201
0.9969
1.0175
1.038
1.0584
1.07869
1.09889
1.11897
1.13896
1.15883
1.1786
1.19826
1.21782
1.23725
1.25658
1.2758
1.2949
1.31389
1.33276
1.35151
1.37013
1.38863
1.40701
1.42525
1.44336
1.46133
1.47916
1.49684
1.51437
1.53175
1.54897
1.56602
1.58292
1.59964
1.61619
1.63257
1.64877
1.6648
1.68064
1.69629
1.71176
1.72704
1.74211
1.75699
1.77165
1.78609
1.80031
1.81429
1.82804
1.84151
1.85471
1.86759
1.88011
1.8922
1.90378
1.91473
1.92495
1.9344
1.94309
1.95127
1.95934
1.96796
1.97757
1.98847
2.00031
2.01237
2.02368
-2.51212
-2.48118
-2.44961
-2.41874
-2.38902
-2.36122
-2.33489
-2.30954
-2.28437
-2.25889
-2.23274
-2.20585
-2.17825
-2.15008
-2.12148
-2.09257
-2.06344
-2.03415
-2.00476
-1.97532
-1.94582
-1.91631
-1.88677
-1.85723
-1.8277
-1.79817
-1.76866
-1.73916
-1.70968
-1.68022
-1.65079
-1.62138
-1.59199
-1.56264
-1.53331
-1.50402
-1.47476
-1.44554
-1.41637
-1.38724
-1.35815
-1.32912
-1.30015
-1.27124
-1.24238
-1.21359
-1.18486
-1.15621
-1.12763
-1.09912
-1.07068
-1.04232
-1.01403
-0.98583
-0.957706
-0.929657
-0.901695
-0.873811
-0.846014
-0.8183
-0.790666
-0.763122
-0.735659
-0.708283
-0.68099
-0.653788
-0.626671
-0.599645
-0.572705
-0.545851
-0.51909
-0.492415
-0.465832
-0.439337
-0.412928
-0.386614
-0.360386
-0.334249
-0.308202
-0.282245
-0.256377
-0.230597
-0.204912
-0.179315
-0.153812
-0.128394
-0.103071
-0.0778372
-0.0526933
-0.027643
-0.00268204
0.0221871
0.0469639
0.0716527
0.096244
0.12075
0.145161
0.169481
0.193709
0.217846
0.241889
0.265843
0.289708
0.313486
0.337175
0.360779
0.384289
0.407718
0.431055
0.454306
0.477469
0.500542
0.523529
0.546426
0.569232
0.591951
0.614574
0.637108
0.659547
0.681896
0.704148
0.726304
0.748364
0.770327
0.792195
0.813961
0.835633
0.857203
0.878673
0.900044
0.921312
0.942481
0.963547
0.984506
1.00536
1.02612
1.04676
1.0673
1.08773
1.10805
1.12826
1.14836
1.16834
1.18822
1.20798
1.22762
1.24715
1.26656
1.28585
1.30502
1.32407
1.34299
1.36179
1.38045
1.39899
1.41739
1.43566
1.45378
1.47175
1.48958
1.50726
1.52478
1.54213
1.55932
1.57634
1.5932
1.60988
1.62638
1.64269
1.65883
1.67478
1.69054
1.70611
1.72148
1.73665
1.75161
1.76636
1.78089
1.79519
1.80925
1.82307
1.83663
1.84991
1.86289
1.87552
1.88775
1.8995
1.91069
1.9212
1.93097
1.94001
1.94843
1.95657
1.9649
1.97403
1.98427
1.99562
2.00755
2.01926
2.02995
-2.53055
-2.50008
-2.46869
-2.43755
-2.40723
-2.37859
-2.35151
-2.32569
-2.3004
-2.27509
-2.24929
-2.22281
-2.19563
-2.16782
-2.13951
-2.11081
-2.08184
-2.05266
-2.02336
-1.99395
-1.96448
-1.93497
-1.90542
-1.87585
-1.84628
-1.8167
-1.78712
-1.75755
-1.72799
-1.69844
-1.6689
-1.63938
-1.60988
-1.5804
-1.55094
-1.52151
-1.49211
-1.46274
-1.4334
-1.4041
-1.37484
-1.34562
-1.31646
-1.28734
-1.25828
-1.22927
-1.20033
-1.17144
-1.14263
-1.11388
-1.0852
-1.05659
-1.02805
-0.999586
-0.971199
-0.942883
-0.914647
-0.88649
-0.858415
-0.830412
-0.802492
-0.774656
-0.746898
-0.719223
-0.691635
-0.664128
-0.636705
-0.609367
-0.582119
-0.554957
-0.527876
-0.500886
-0.473983
-0.447169
-0.420443
-0.393805
-0.367254
-0.340796
-0.314425
-0.288143
-0.261954
-0.235852
-0.209844
-0.183922
-0.158094
-0.132358
-0.106711
-0.0811577
-0.0556967
-0.0303237
-0.0050504
0.020139
0.0452278
0.0702289
0.0951335
0.119948
0.144664
0.169291
0.19382
0.218256
0.242597
0.266846
0.291001
0.315071
0.339045
0.362933
0.386727
0.410433
0.434044
0.457571
0.480998
0.50434
0.527586
0.550739
0.5738
0.596765
0.619635
0.642411
0.665085
0.687664
0.710142
0.732522
0.754801
0.776975
0.799051
0.821023
0.842892
0.864655
0.886315
0.907868
0.929319
0.950657
0.971888
0.993012
1.01403
1.03493
1.05572
1.0764
1.09696
1.11741
1.13774
1.15795
1.17805
1.19802
1.21788
1.23761
1.25722
1.27671
1.29607
1.3153
1.33441
1.35338
1.37222
1.39092
1.40948
1.42791
1.44619
1.46432
1.48229
1.50012
1.51778
1.53528
1.55261
1.56976
1.58675
1.60355
1.62018
1.63662
1.65287
1.66893
1.6848
1.70047
1.71595
1.73121
1.74627
1.76111
1.77573
1.79012
1.80427
1.81817
1.83181
1.84518
1.85825
1.87098
1.88334
1.89525
1.90663
1.9174
1.92747
1.93682
1.94553
1.9538
1.96206
1.97077
1.98045
1.99122
2.00283
2.01463
2.02581
2.03576
-2.54873
-2.51877
-2.48776
-2.45662
-2.42587
-2.39653
-2.36865
-2.34224
-2.31666
-2.29135
-2.26578
-2.23968
-2.2129
-2.18547
-2.15747
-2.12903
-2.10024
-2.07121
-2.042
-2.01266
-1.98323
-1.95374
-1.92419
-1.89461
-1.865
-1.83538
-1.80575
-1.77611
-1.74647
-1.71684
-1.68721
-1.65758
-1.62798
-1.59838
-1.5688
-1.53923
-1.50969
-1.48017
-1.45066
-1.4212
-1.39177
-1.36237
-1.33301
-1.3037
-1.27443
-1.24521
-1.21605
-1.18694
-1.1579
-1.1289
-1.09998
-1.07112
-1.04233
-1.0136
-0.984945
-0.956361
-0.927851
-0.899415
-0.871052
-0.842762
-0.814553
-0.786418
-0.758361
-0.730387
-0.702491
-0.674674
-0.64694
-0.619289
-0.591723
-0.564238
-0.536839
-0.509525
-0.482297
-0.455155
-0.428101
-0.401134
-0.374257
-0.347467
-0.320763
-0.294154
-0.267632
-0.241197
-0.214858
-0.188604
-0.162448
-0.136379
-0.110402
-0.0845224
-0.0587296
-0.0330346
-0.00743119
0.0180794
0.0434932
0.0688124
0.0940385
0.119167
0.1442
0.169136
0.193978
0.218722
0.243367
0.267918
0.292375
0.316739
0.341009
0.365185
0.389269
0.413258
0.437153
0.460955
0.484661
0.508269
0.531786
0.5552
0.578519
0.601741
0.624857
0.647879
0.670793
0.69361
0.716319
0.738921
0.761422
0.783815
0.806099
0.828277
0.850347
0.872308
0.894157
0.915897
0.937525
0.95904
0.980439
1.00173
1.0229
1.04395
1.06488
1.0857
1.10639
1.12697
1.14742
1.16775
1.18795
1.20802
1.22797
1.24779
1.26748
1.28704
1.30647
1.32576
1.34492
1.36394
1.38281
1.40155
1.42013
1.43858
1.45686
1.475
1.49297
1.51077
1.52842
1.54589
1.56318
1.5803
1.59724
1.61399
1.63055
1.64693
1.6631
1.67909
1.69487
1.71044
1.72581
1.74097
1.75591
1.77062
1.7851
1.79934
1.81333
1.82706
1.84051
1.85367
1.8665
1.87897
1.89103
1.90259
1.91359
1.92393
1.93359
1.94258
1.95106
1.95932
1.96781
1.97698
1.98719
1.99835
2.01
2.02144
2.03193
2.04107
-2.56648
-2.53722
-2.50673
-2.47579
-2.44482
-2.41488
-2.38629
-2.3592
-2.33318
-2.30772
-2.28226
-2.25645
-2.23003
-2.20297
-2.17532
-2.14716
-2.1186
-2.08974
-2.06067
-2.03142
-2.00204
-1.97258
-1.94305
-1.91346
-1.88384
-1.85418
-1.82451
-1.79482
-1.76512
-1.73541
-1.7057
-1.67599
-1.64627
-1.61656
-1.58686
-1.55717
-1.52748
-1.49782
-1.46817
-1.43854
-1.40893
-1.37936
-1.34981
-1.32031
-1.29083
-1.26141
-1.23202
-1.20269
-1.17341
-1.14418
-1.11501
-1.0859
-1.05685
-1.02787
-0.998943
-0.970085
-0.941299
-0.912576
-0.883929
-0.85535
-0.826841
-0.798407
-0.770047
-0.741763
-0.713553
-0.685426
-0.657373
-0.629401
-0.601509
-0.573701
-0.545976
-0.518329
-0.490771
-0.463297
-0.435906
-0.408607
-0.381388
-0.354264
-0.32722
-0.300271
-0.273407
-0.246635
-0.219954
-0.193367
-0.166864
-0.14046
-0.114144
-0.0879267
-0.0617976
-0.0357674
-0.00983008
0.0160125
0.0417573
0.0674076
0.0929573
0.118411
0.143769
0.169029
0.194184
0.219246
0.244202
0.269065
0.293825
0.318495
0.343068
0.367542
0.391918
0.4162
0.440383
0.464469
0.488455
0.51234
0.536129
0.559811
0.583396
0.606872
0.63025
0.653516
0.676676
0.699729
0.722676
0.745507
0.768234
0.790843
0.813345
0.835729
0.858003
0.88016
0.902201
0.924129
0.945936
0.967624
0.989195
1.01064
1.03197
1.05317
1.07425
1.09521
1.11603
1.13673
1.1573
1.17774
1.19804
1.21822
1.23826
1.25816
1.27793
1.29756
1.31705
1.33639
1.3556
1.37466
1.39357
1.41232
1.43093
1.44938
1.46767
1.4858
1.50376
1.52154
1.53916
1.5566
1.57385
1.59092
1.6078
1.62449
1.64098
1.65728
1.67338
1.68927
1.70496
1.72043
1.73569
1.75072
1.76553
1.7801
1.79443
1.80852
1.82234
1.83588
1.84913
1.86207
1.87465
1.88683
1.89856
1.90976
1.92036
1.9303
1.93957
1.94828
1.95665
1.96504
1.97387
1.98351
1.99415
2.00553
2.01702
2.0279
2.03758
2.04582
-2.58389
-2.55539
-2.52546
-2.49491
-2.46394
-2.43364
-2.4044
-2.37662
-2.35004
-2.32429
-2.29881
-2.27316
-2.24706
-2.22037
-2.19305
-2.16521
-2.13691
-2.10826
-2.07934
-2.0502
-2.02091
-1.99151
-1.96201
-1.93244
-1.90281
-1.87314
-1.84344
-1.8137
-1.78395
-1.75417
-1.72439
-1.69459
-1.66478
-1.63497
-1.60515
-1.57534
-1.54553
-1.51572
-1.48592
-1.45613
-1.42636
-1.39661
-1.36688
-1.33718
-1.30751
-1.27787
-1.24827
-1.21871
-1.1892
-1.15973
-1.13032
-1.10096
-1.07165
-1.0424
-1.01321
-0.984076
-0.955004
-0.925998
-0.89706
-0.868182
-0.839377
-0.810633
-0.781965
-0.75337
-0.724847
-0.696394
-0.668019
-0.639721
-0.611501
-0.58336
-0.555297
-0.527319
-0.499418
-0.471603
-0.443872
-0.416226
-0.388663
-0.361189
-0.333804
-0.306503
-0.279292
-0.252176
-0.225142
-0.198205
-0.171357
-0.144603
-0.117943
-0.0913744
-0.0649056
-0.0385252
-0.0122482
0.0139351
0.0400204
0.0660078
0.0918958
0.117684
0.143373
0.168959
0.194443
0.219829
0.245106
0.270285
0.295362
0.320341
0.345222
0.370003
0.394684
0.419263
0.443741
0.468118
0.492388
0.516561
0.540623
0.564584
0.588434
0.612177
0.635812
0.659332
0.682745
0.706039
0.729222
0.752291
0.77524
0.798074
0.820793
0.843389
0.865867
0.888224
0.910462
0.932573
0.954564
0.976427
0.998166
1.01978
1.04126
1.06261
1.08384
1.10492
1.12588
1.1467
1.16739
1.18794
1.20834
1.22861
1.24874
1.26872
1.28857
1.30826
1.32781
1.34721
1.36645
1.38555
1.40448
1.42326
1.44188
1.46033
1.47862
1.49673
1.51468
1.53244
1.55002
1.56741
1.58462
1.60163
1.61845
1.63507
1.65149
1.6677
1.68371
1.6995
1.71508
1.73044
1.74557
1.76048
1.77515
1.78957
1.80374
1.81765
1.83129
1.84463
1.85766
1.87035
1.88267
1.89454
1.90593
1.91675
1.92695
1.93651
1.94547
1.954
1.96238
1.971
1.98023
1.99031
2.00126
2.01264
2.02375
2.03394
2.04274
2.05006
-2.60085
-2.57309
-2.54388
-2.51386
-2.48311
-2.45261
-2.42289
-2.39446
-2.36729
-2.34112
-2.31547
-2.28989
-2.26401
-2.23764
-2.21068
-2.18316
-2.15515
-2.12673
-2.098
-2.06901
-2.03983
-2.0105
-1.98106
-1.95151
-1.9219
-1.89223
-1.86251
-1.83275
-1.80295
-1.77312
-1.74327
-1.71339
-1.6835
-1.65359
-1.62367
-1.59374
-1.5638
-1.53386
-1.50391
-1.47397
-1.44403
-1.41411
-1.3842
-1.35431
-1.32444
-1.2946
-1.26478
-1.235
-1.20526
-1.17556
-1.1459
-1.11628
-1.08671
-1.0572
-1.02773
-0.998324
-0.968971
-0.939678
-0.910438
-0.881267
-0.852151
-0.823104
-0.794124
-0.765208
-0.736362
-0.707585
-0.678881
-0.65025
-0.621693
-0.593211
-0.564809
-0.536485
-0.50824
-0.480074
-0.451992
-0.423995
-0.396081
-0.368251
-0.340509
-0.312853
-0.285287
-0.25781
-0.230421
-0.203124
-0.175921
-0.148808
-0.121792
-0.0948708
-0.0680429
-0.041315
-0.0146828
0.0118525
0.0382843
0.064621
0.0908522
0.116985
0.143011
0.168938
0.194757
0.220474
0.24608
0.271584
0.296984
0.322285
0.34748
0.372575
0.397563
0.422451
0.447229
0.471904
0.496471
0.520927
0.545277
0.569515
0.593639
0.617653
0.641549
0.665331
0.688996
0.71254