/*--------------------------------*- C++ -*----------------------------------*\
  =========                 |
  \\      /  F ield         | OpenFOAM: The Open Source CFD Toolbox
   \\    /   O peration     | Website:  https://openfoam.org
    \\  /    A nd           | Version:  8
     \\/     M anipulation  |
\*---------------------------------------------------------------------------*/
FoamFile
{
    version     2.0;
    format      ascii;
    class       surfaceScalarField;
    location    "0.34";
    object      phi;
}
// * * * * * * * * * * * * * * * * * * * * * * * * * * * * * * * * * * * * * //

dimensions      [0 3 -1 0 0 0 0];

internalField   nonuniform List<scalar> 
225079
(
-0.0037056
0.0265051
-0.00854433
0.0708375
-0.0121568
0.115211
-0.016948
0.15959
-0.0217236
0.203975
-0.025305
0.248381
-0.0288903
0.291585
-0.0324801
0.335989
-0.0360728
0.379192
-0.0396674
0.424794
-0.0420635
0.466796
-0.0456605
0.511197
-0.0492583
0.555597
-0.0528565
0.597598
-0.0540552
0.640798
-0.0576542
0.685199
-0.0612535
0.727199
-0.0636531
0.770399
-0.0660529
0.8124
-0.0672529
0.8544
-0.0708532
0.8976
-0.0720534
0.9384
-0.0744539
0.9804
-0.0756545
1.0224
-0.0780552
1.0632
-0.0792558
1.104
-0.0816566
1.146
-0.0828573
1.1844
-0.084058
1.2252
-0.0864589
1.266
-0.0876595
1.3044
-0.0888602
1.344
-0.0900608
1.3824
-0.0900614
1.4208
-0.091262
1.4592
-0.0912626
1.4964
-0.0924631
1.5348
-0.0936638
1.572
-0.0936644
1.608
-0.094865
1.644
-0.0948655
1.68
-0.0948661
1.716
-0.0948666
1.7496
-0.0948672
1.7856
-0.0948678
1.8192
-0.0948684
1.8528
-0.0948691
1.8864
-0.0936696
1.9188
-0.0936702
1.9512
-0.0936708
1.9836
-0.0924714
2.0136
-0.092472
2.046
-0.0912726
2.0748
-0.0906731
2.10564
-0.0898336
2.13468
-0.0888741
2.16336
-0.0879146
2.19168
-0.0869551
2.2194
-0.0857555
2.24652
-0.084556
2.27304
-0.0833563
2.2992
-0.0820367
2.32464
-0.0805971
2.34948
-0.0791575
2.37384
-0.0777179
2.3976
-0.0761581
2.42076
-0.0744785
2.4432
-0.0729188
2.46528
-0.0712392
2.48664
-0.0694394
2.50728
-0.0676397
2.52744
-0.0657198
2.54688
-0.0638
2.56572
-0.0617603
2.58396
-0.0597205
2.6016
-0.0578006
2.61864
-0.0556408
2.63484
-0.053481
2.65044
-0.0513211
2.66556
-0.0490411
2.67984
-0.0468812
2.69364
-0.0447213
2.7066
-0.0423214
2.71884
-0.0400414
2.73072
-0.0376414
2.74164
-0.0352413
2.75196
-0.0328414
2.76168
-0.0304413
2.77068
-0.0280412
2.77896
-0.0255212
2.78652
-0.0230011
2.79348
-0.020481
2.79972
-0.0179609
2.80536
-0.0153207
2.81004
-0.0129206
2.81436
-0.0103404
2.8178
-0.00778418
2.82058
-0.00521601
2.82266
-0.00264772
2.82404
-7.95476e-05
2.82475
0.00248876
2.82475
0.00505696
2.82404
0.00762528
2.82266
0.0101816
2.82058
0.0127619
2.8178
0.0151622
2.81436
0.0178025
2.81004
0.0203229
2.80536
0.0228432
2.79972
0.0253636
2.79348
0.027884
2.78652
0.0302844
2.77896
0.0326848
2.77068
0.0350853
2.76168
0.0374857
2.75196
0.0398861
2.74164
0.0421666
2.73072
0.044567
2.71884
0.0467275
2.7066
0.048888
2.69364
0.0511685
2.67984
0.053329
2.66556
0.0554896
2.65044
0.0576502
2.63484
0.0595707
2.61864
0.0616113
2.6016
0.063652
2.58396
0.0655725
2.56572
0.0674931
2.54688
0.0692938
2.52744
0.0710944
2.50728
0.072775
2.48664
0.0743357
2.46528
0.0760164
2.4432
0.077577
2.42076
0.0790177
2.3976
0.0804584
2.37384
0.0818991
2.34948
0.0832198
2.32464
0.0844204
2.2992
0.0856212
2.27304
0.0868219
2.24652
0.0877826
2.2194
0.0887434
2.19168
0.0897042
2.16336
0.0905449
2.13468
0.0911456
2.10564
0.0923464
2.0748
0.0923472
2.046
0.0935479
2.0136
0.0935486
1.9836
0.0935493
1.9512
0.09475
1.9188
0.0947508
1.8864
0.0947514
1.8528
0.0947521
1.8192
0.0947527
1.7856
0.0947533
1.7496
0.0947539
1.716
0.0947544
1.68
0.093555
1.644
0.0935556
1.608
0.0923562
1.572
0.0911567
1.5348
0.0911573
1.4964
0.0899579
1.4592
0.0899585
1.4208
0.0887592
1.3824
0.0875599
1.344
0.0863605
1.3044
0.0839612
1.266
0.0827619
1.2252
0.0815625
1.1844
0.0791632
1.146
0.0779637
1.104
0.0755642
1.0632
0.0743646
1.0224
0.071965
0.980399
0.0707651
0.938399
0.0671653
0.897599
0.0659653
0.8544
0.0635651
0.8124
0.0611649
0.7704
0.0575645
0.7272
0.0539639
0.6852
0.0527632
0.6408
0.0491623
0.5976
0.045561
0.555601
0.0419592
0.511201
0.0395568
0.466802
0.0359532
0.424803
0.0323481
0.379204
0.0287406
0.336006
0.0251298
0.291609
0.0215165
0.248412
0.0166991
0.204016
0.0118929
0.159604
0.00830102
0.115189
0.00352773
0.0707708
0.0263255
-0.00493607
0.0314372
-0.00982691
0.0757251
-0.0134035
0.118785
-0.0181954
0.16438
-0.0217699
0.207547
-0.0241522
0.250761
-0.0289363
0.296367
-0.0325258
0.339578
-0.0361183
0.382784
-0.0397136
0.428389
-0.0433105
0.470392
-0.0469087
0.514794
-0.0481077
0.556796
-0.0517076
0.601197
-0.055308
0.644398
-0.0577088
0.687599
-0.06011
0.7296
-0.0625115
0.7728
-0.0649133
0.814801
-0.0685155
0.858002
-0.0697176
0.898802
-0.0733203
0.942002
-0.0745229
0.981602
-0.0769257
1.0248
-0.0781284
1.0644
-0.0805315
1.1064
-0.0817344
1.1472
-0.0841375
1.1868
-0.0853405
1.2264
-0.0853433
1.266
-0.0865461
1.3056
-0.087749
1.3452
-0.0889519
1.3836
-0.0901547
1.422
-0.0913574
1.4604
-0.0925601
1.4976
-0.0925626
1.5348
-0.0925652
1.572
-0.0937677
1.6092
-0.0937701
1.644
-0.0949727
1.6812
-0.093775
1.7148
-0.0949775
1.7508
-0.0949797
1.7856
-0.0949821
1.8192
-0.0949843
1.8528
-0.0949865
1.8864
-0.0937885
1.9176
-0.0937908
1.9512
-0.0925928
1.9824
-0.0937951
2.0148
-0.0913969
2.0436
-0.0913989
2.0748
-0.0908008
2.10504
-0.0899626
2.13384
-0.0891245
2.16252
-0.0880462
2.1906
-0.0869677
2.21832
-0.0858893
2.24544
-0.0848108
2.27196
-0.0834923
2.29788
-0.0821736
2.32332
-0.080735
2.34804
-0.0794163
2.37252
-0.0778574
2.39604
-0.0762986
2.4192
-0.0747398
2.44164
-0.0730608
2.4636
-0.0712618
2.48484
-0.0694628
2.50548
-0.0676636
2.52564
-0.0657446
2.54496
-0.0639453
2.56392
-0.062026
2.58204
-0.0599867
2.59956
-0.0578274
2.61648
-0.0557879
2.6328
-0.0537484
2.6484
-0.0514689
2.66328
-0.0493093
2.67768
-0.0470296
2.69136
-0.0447498
2.70432
-0.0424701
2.71656
-0.0400701
2.72832
-0.0377903
2.73936
-0.0353903
2.74956
-0.0329902
2.75928
-0.0304703
2.76816
-0.02807
2.77656
-0.02567
2.78412
-0.0231496
2.79096
-0.0206294
2.7972
-0.0181089
2.80284
-0.0155885
2.80752
-0.0130682
2.81184
-0.0104758
2.81521
-0.00791915
2.81802
-0.00535053
2.8201
-0.00279379
2.82149
-0.000225122
2.82218
0.00234367
2.82218
0.00490039
2.82149
0.00746923
2.82009
0.0100261
2.81802
0.0126191
2.81521
0.0151402
2.81184
0.0176612
2.80752
0.0201822
2.80284
0.0227034
2.7972
0.0252244
2.79096
0.0276258
2.78412
0.0300269
2.77656
0.0325483
2.76816
0.0349496
2.75928
0.0373509
2.74956
0.0396324
2.73936
0.0420337
2.72832
0.0443153
2.71656
0.0465967
2.70432
0.0488783
2.69136
0.05104
2.67768
0.0533217
2.66328
0.0553634
2.6484
0.0574052
2.6328
0.0595671
2.61648
0.0616089
2.59956
0.0635308
2.58204
0.0653327
2.56392
0.0672549
2.54496
0.0690568
2.52564
0.0708589
2.50548
0.072661
2.48484
0.074343
2.4636
0.0759052
2.44164
0.0774674
2.4192
0.0790295
2.39604
0.0803517
2.37252
0.081794
2.34804
0.0831162
2.32332
0.0844386
2.29788
0.0855209
2.27196
0.0866033
2.24544
0.0876856
2.21832
0.088768
2.1906
0.0896104
2.16252
0.0904528
2.13384
0.0910553
2.10504
0.0910578
2.0748
0.09346
2.0436
0.0922626
2.0148
0.093465
1.9824
0.0934675
1.9512
0.0946699
1.9176
0.0946723
1.8864
0.0946747
1.8528
0.0946771
1.8192
0.0946795
1.7856
0.0934819
1.7508
0.0946843
1.7148
0.0934867
1.6812
0.0934891
1.644
0.0922915
1.6092
0.0922939
1.572
0.0922962
1.5348
0.0910987
1.4976
0.0899012
1.4604
0.0887037
1.422
0.0875062
1.3836
0.0863087
1.3452
0.0851112
1.3056
0.0851136
1.266
0.083916
1.2264
0.0815184
1.1868
0.0803207
1.1472
0.077923
1.1064
0.076725
1.0644
0.074327
1.0248
0.0731287
0.981597
0.0695305
0.941997
0.068332
0.898798
0.0647334
0.857998
0.0623346
0.814798
0.0599356
0.772798
0.0575365
0.729599
0.0551371
0.687599
0.0515373
0.644399
0.0479373
0.6012
0.0467368
0.5568
0.0431355
0.514802
0.0395333
0.470403
0.0359298
0.428405
0.0323241
0.382809
0.028716
0.339613
0.0239039
0.29642
0.0214908
0.250824
0.0178719
0.207633
0.0130645
0.164409
0.00944492
0.118806
0.00470836
0.0755053
0.0310337
-0.00485045
0.036288
-0.00862582
0.0794998
-0.0134337
0.123592
-0.0170398
0.167985
-0.0206179
0.211125
-0.0253999
0.255543
-0.028982
0.299949
-0.03257
0.343165
-0.0361615
0.386375
-0.0385565
0.430783
-0.0433541
0.475189
-0.0457533
0.517193
-0.0493537
0.560396
-0.0529552
0.604799
-0.0553572
0.6468
-0.0577597
0.690001
-0.061363
0.733203
-0.0637664
0.775204
-0.0661703
0.817205
-0.0673742
0.859205
-0.0709789
0.902406
-0.0721833
0.943207
-0.0757884
0.985207
-0.0769934
1.02601
-0.0793987
1.06681
-0.0806038
1.10761
-0.0818092
1.14841
-0.0830144
1.18801
-0.0842196
1.22761
-0.0866251
1.26841
-0.0878304
1.30681
-0.0890356
1.34641
-0.0902407
1.38481
-0.0914455
1.42321
-0.0914504
1.46041
-0.0926553
1.49881
-0.0926598
1.53481
-0.0938646
1.57321
-0.0938691
1.60921
-0.0950735
1.64521
-0.0938777
1.68001
-0.095082
1.71601
-0.0950862
1.75081
-0.0950906
1.78561
-0.0950944
1.81921
-0.0950985
1.85281
-0.0939022
1.88521
-0.0951064
1.91881
-0.0939099
1.95001
-0.0939136
1.98241
-0.0927171
2.01361
-0.0927208
2.04361
-0.0927241
2.07481
-0.0909273
2.10325
-0.0900907
2.13301
-0.0891336
2.16157
-0.0881764
2.18965
-0.0872195
2.21737
-0.0860221
2.24425
-0.0848248
2.27077
-0.0835072
2.29657
-0.0821895
2.32201
-0.0809918
2.34685
-0.0794341
2.37097
-0.0779962
2.3946
-0.0764383
2.41764
-0.07476
2.43996
-0.0730821
2.46192
-0.0714037
2.48316
-0.0697254
2.5038
-0.0678071
2.52372
-0.0660084
2.54316
-0.0639699
2.56188
-0.0620511
2.58012
-0.0601322
2.59764
-0.0580935
2.61444
-0.0559344
2.63064
-0.0537751
2.64624
-0.0516161
2.66112
-0.0494565
2.67552
-0.0471772
2.68908
-0.0448977
2.70204
-0.0426182
2.71428
-0.0403383
2.72604
-0.0379384
2.73696
-0.0355386
2.74716
-0.0331386
2.75688
-0.0307385
2.76576
-0.0282184
2.77404
-0.025698
2.7816
-0.0232976
2.78856
-0.0207771
2.79468
-0.0182566
2.80032
-0.015736
2.805
-0.0132152
2.80932
-0.0106343
2.81263
-0.00807723
2.81546
-0.00550816
2.81753
-0.00293921
2.81892
-0.000370036
2.81961
0.00219926
2.81961
0.00476877
2.81892
0.00733815
2.81753
0.00989557
2.81546
0.0124771
2.81263
0.0149987
2.80932
0.0175205
2.805
0.0200424
2.80032
0.0225644
2.79468
0.0249664
2.78856
0.0274882
2.7816
0.0300105
2.77404
0.0324127
2.76576
0.0348149
2.75688
0.0372174
2.74716
0.0396197
2.73696
0.041902
2.72604
0.0441847
2.71428
0.0464673
2.70204
0.0487501
2.68908
0.0509127
2.67552
0.0530757
2.66112
0.0552385
2.64624
0.0574015
2.63064
0.0594448
2.61443
0.0613679
2.59764
0.0632911
2.58012
0.0653345
2.56187
0.0671378
2.54315
0.0690613
2.52371
0.0707449
2.50379
0.0724283
2.48315
0.0741121
2.46191
0.0757955
2.43995
0.0773592
2.41763
0.0788029
2.39459
0.0803669
2.37095
0.0815707
2.34683
0.0828945
2.32199
0.0842183
2.29655
0.0854224
2.27075
0.0866263
2.24423
0.0875905
2.21735
0.0885545
2.18963
0.0895185
2.16155
0.0903628
2.13299
0.0921668
2.10323
0.0921709
2.07479
0.0921752
2.04359
0.0933793
2.01359
0.0933835
1.98239
0.0945876
1.94999
0.093392
1.91879
0.0945961
1.88519
0.0946003
1.85279
0.0946044
1.81919
0.0946087
1.78559
0.094613
1.75079
0.0934172
1.71599
0.0946213
1.67999
0.0934256
1.64519
0.0934298
1.60919
0.0922342
1.57319
0.0922384
1.53479
0.0910429
1.49879
0.0910472
1.46039
0.0898516
1.42319
0.088656
1.38479
0.0874604
1.34639
0.0862648
1.30679
0.0838692
1.26839
0.0826734
1.22759
0.0814774
1.18799
0.0802814
1.14839
0.0790852
1.10759
0.0766889
1.06679
0.0754924
1.02599
0.0718959
0.985193
0.0706989
0.943194
0.067102
0.902394
0.0659046
0.859195
0.0635072
0.817195
0.0611095
0.775195
0.0575117
0.733196
0.0551134
0.689996
0.0527148
0.646797
0.0491157
0.604798
0.0455158
0.5604
0.043115
0.517201
0.0383127
0.475204
0.0359085
0.430809
0.0323015
0.386415
0.0286916
0.343222
0.0250775
0.300033
0.0202636
0.255636
0.0166468
0.211248
0.013049
0.168005
0.00825199
0.1236
0.0047735
0.0789811
0.0358041
-0.00359788
0.0398815
-0.00854078
0.0844394
-0.013393
0.128441
-0.0170219
0.171612
-0.0218175
0.215919
-0.0254087
0.259133
-0.0289962
0.303535
-0.0325874
0.346756
-0.0361813
0.389968
-0.0397786
0.43438
-0.0421784
0.477588
-0.0457801
0.520794
-0.0493833
0.563999
-0.0517873
0.607202
-0.0553922
0.650404
-0.0577977
0.692406
-0.0602034
0.735608
-0.0626096
0.777609
-0.0662164
0.820811
-0.0686233
0.861612
-0.0698301
0.903613
-0.0722376
0.945614
-0.0746453
0.987615
-0.0758529
1.02721
-0.0782609
1.06922
-0.0794686
1.10882
-0.0818767
1.15082
-0.0830847
1.18922
-0.0854928
1.23002
-0.0867006
1.26962
-0.0879084
1.30802
-0.0879159
1.34642
-0.0891233
1.38602
-0.090331
1.42442
-0.0915384
1.46162
-0.0915453
1.49882
-0.0939528
1.53722
-0.0939596
1.57322
-0.0939663
1.60921
-0.0939728
1.64521
-0.0951796
1.68121
-0.0951857
1.71601
-0.0951918
1.75081
-0.095198
1.78561
-0.0952041
1.81921
-0.0952099
1.85281
-0.0952158
1.88521
-0.0940212
1.91761
-0.0940267
1.95001
-0.0940324
1.98241
-0.0928372
2.01241
-0.0928423
2.04361
-0.0916475
2.07361
-0.0910523
2.10265
-0.0902167
2.13217
-0.0892612
2.16061
-0.0884255
2.18881
-0.0872295
2.21617
-0.0861536
2.24317
-0.0849573
2.26957
-0.0837611
2.29537
-0.0824448
2.32069
-0.0810081
2.34541
-0.079571
2.36953
-0.0781343
2.39317
-0.0764573
2.41597
-0.0750201
2.43853
-0.0733426
2.46025
-0.0715455
2.48137
-0.069748
2.50201
-0.0679502
2.52193
-0.0661522
2.54137
-0.0642343
2.55997
-0.062196
2.57808
-0.060158
2.5956
-0.0581192
2.6124
-0.0560809
2.6286
-0.0539222
2.64408
-0.051883
2.65908
-0.0496044
2.67324
-0.0473253
2.6868
-0.0450458
2.69976
-0.0428862
2.71212
-0.0404867
2.72364
-0.0380872
2.73456
-0.0356872
2.74476
-0.0332872
2.75448
-0.030887
2.76336
-0.0283667
2.77152
-0.0259663
2.7792
-0.0234458
2.78604
-0.0209252
2.79216
-0.0184045
2.7978
-0.0158834
2.80248
-0.0132425
2.80668
-0.0107811
2.81017
-0.00821201
2.81289
-0.00565448
2.81497
-0.00308486
2.81635
-0.000515181
2.81704
0.00205464
2.81704
0.00462452
2.81635
0.00718248
2.81497
0.00975282
2.81289
0.012215
2.81017
0.0148575
2.80667
0.0173798
2.80247
0.0199026
2.79779
0.0224254
2.79215
0.0249482
2.78603
0.0273512
2.77919
0.0298742
2.77151
0.0322773
2.76335
0.0346805
2.75447
0.0370837
2.74475
0.0394873
2.73455
0.0418909
2.72363
0.0440544
2.71211
0.046338
2.69975
0.048622
2.68679
0.0509062
2.67323
0.0529501
2.65907
0.0551143
2.64407
0.0571589
2.62859
0.0592031
2.61239
0.0612478
2.59559
0.0632923
2.57807
0.0652172
2.55995
0.0670219
2.54135
0.0688267
2.52191
0.0706318
2.50199
0.0724371
2.48135
0.0741221
2.46023
0.0755673
2.43851
0.0772526
2.41595
0.0786982
2.39315
0.0801433
2.36951
0.0815888
2.34539
0.0829145
2.32067
0.0841202
2.29535
0.0853258
2.26955
0.0864116
2.24315
0.0876173
2.21615
0.0884631
2.18879
0.089429
2.16059
0.0902748
2.13215
0.0908807
2.10263
0.0920868
2.07359
0.0920929
2.04359
0.0932986
2.01239
0.0933049
1.98239
0.0933109
1.94999
0.0945168
1.91759
0.094523
1.88519
0.0945291
1.85279
0.0945353
1.81919
0.0945416
1.78559
0.0945476
1.75079
0.0945537
1.71599
0.0933601
1.68119
0.0933663
1.64519
0.0933725
1.60919
0.0933788
1.57319
0.0909855
1.53719
0.0909918
1.49879
0.0897983
1.46159
0.0886049
1.42439
0.0874112
1.38599
0.0874176
1.34639
0.0862239
1.30799
0.0850302
1.26959
0.0826364
1.22999
0.0814425
1.18919
0.0790485
1.15079
0.0778541
1.10879
0.0754597
1.06919
0.074265
1.02719
0.0718702
0.987588
0.0694753
0.945589
0.0682798
0.903589
0.0658844
0.86159
0.0622889
0.82079
0.059893
0.777591
0.0574967
0.735592
0.0551002
0.692393
0.0515033
0.650394
0.0491057
0.607195
0.0455073
0.563997
0.0419077
0.5208
0.0395065
0.477605
0.0359033
0.434411
0.0322972
0.39002
0.028689
0.346829
0.0250783
0.303643
0.0214708
0.259242
0.0166664
0.216051
0.0130841
0.171585
0.00831883
0.128364
0.00361215
0.0836856
0.0394166
-0.0048024
0.0446849
-0.00967863
0.0893155
-0.0133549
0.132118
-0.0169999
0.175257
-0.0206153
0.219534
-0.0254178
0.263935
-0.0290122
0.30713
-0.0326069
0.35035
-0.0362032
0.393564
-0.0398026
0.437979
-0.0434044
0.48119
-0.0470085
0.524398
-0.0494137
0.566404
-0.0530206
0.610809
-0.055428
0.652812
-0.0590363
0.696015
-0.0614448
0.738017
-0.0638535
0.780018
-0.0650624
0.82202
-0.0686725
0.865222
-0.0710825
0.906023
-0.0734925
0.948024
-0.0747026
0.988825
-0.077113
1.02963
-0.0783231
1.07043
-0.0807337
1.11123
-0.0819443
1.15203
-0.0831546
1.19043
-0.0843652
1.23123
-0.0855758
1.27083
-0.086786
1.30923
-0.0891963
1.34883
-0.0904066
1.38723
-0.0904161
1.42443
-0.0916259
1.46283
-0.0928356
1.50003
-0.0928447
1.53723
-0.0928534
1.57322
-0.0940627
1.61042
-0.0940714
1.64522
-0.09408
1.68122
-0.0952889
1.71722
-0.0952972
1.75082
-0.0953053
1.78562
-0.0953134
1.81922
-0.0941207
1.85162
-0.0941282
1.88522
-0.095336
1.91882
-0.0941432
1.94882
-0.0929501
1.98122
-0.0929575
2.01242
-0.091764
2.04242
-0.0917704
2.07362
-0.0911768
2.10206
-0.0903429
2.13134
-0.0895089
2.15978
-0.0884346
2.18774
-0.0873599
2.2151
-0.0862853
2.2421
-0.0850901
2.26838
-0.0838952
2.29418
-0.0825798
2.31937
-0.0811441
2.34397
-0.0798287
2.36821
-0.0782728
2.39161
-0.0767167
2.41441
-0.0750405
2.43685
-0.0733641
2.45857
-0.0716872
2.47969
-0.0700106
2.50033
-0.0682137
2.52013
-0.0661763
2.53933
-0.0643788
2.55817
-0.0624619
2.57617
-0.0604237
2.59357
-0.0583861
2.61037
-0.0562275
2.62645
-0.0540696
2.64193
-0.0519111
2.65692
-0.0497525
2.67108
-0.0474734
2.68452
-0.0451944
2.69748
-0.0429153
2.70984
-0.0405161
2.72124
-0.0382363
2.73228
-0.0358364
2.74236
-0.0334367
2.75208
-0.0309165
2.76084
-0.0286362
2.76924
-0.0259956
2.77656
-0.023595
2.78364
-0.0210738
2.78964
-0.0185529
2.79528
-0.0160314
2.79996
-0.0135103
2.80416
-0.0109165
2.80758
-0.00837068
2.81035
-0.00580108
2.8124
-0.00323097
2.81378
-0.000660772
2.81447
0.0019096
2.81447
0.00448005
2.81378
0.00705101
2.8124
0.00959771
2.81034
0.0121925
2.80757
0.0147158
2.80415
0.0172389
2.79995
0.0197624
2.79527
0.0222857
2.78963
0.0246894
2.78363
0.0273333
2.77655
0.0296173
2.76923
0.0321413
2.76083
0.0345458
2.75207
0.0369501
2.74235
0.0392345
2.73227
0.0416393
2.72123
0.0439242
2.70983
0.0462093
2.69747
0.0484941
2.68451
0.0506594
2.67107
0.0528248
2.65691
0.0549906
2.64191
0.057156
2.62643
0.0592021
2.61035
0.0612476
2.59355
0.0631742
2.57614
0.0649803
2.55814
0.0670264
2.5393
0.0688329
2.5201
0.0705196
2.5003
0.072206
2.47966
0.0738928
2.45854
0.0755796
2.43682
0.0771465
2.41438
0.0787135
2.39158
0.0800408
2.36818
0.0814879
2.34394
0.082815
2.31934
0.0840226
2.29414
0.0852298
2.26834
0.0863174
2.24206
0.0874048
2.21506
0.0884925
2.1877
0.0893402
2.15974
0.0901879
2.1313
0.0907957
2.10202
0.0908034
2.07358
0.0920111
2.04238
0.0920193
2.01238
0.0932271
1.98118
0.094435
1.94878
0.0932432
1.91878
0.0932512
1.88518
0.0944589
1.85158
0.0944671
1.81918
0.0944751
1.78558
0.0944833
1.75078
0.0932918
1.71718
0.0933
1.68118
0.0933082
1.64518
0.0921166
1.61038
0.0921247
1.57318
0.092133
1.53718
0.0909415
1.49998
0.08975
1.46278
0.0897583
1.42438
0.0885668
1.38718
0.0861753
1.34878
0.0849835
1.30918
0.0837918
1.27078
0.0825999
1.23118
0.0814077
1.19038
0.0802155
1.15198
0.0778231
1.11118
0.0766303
1.07038
0.0742375
1.02958
0.0730443
0.988781
0.0706511
0.947981
0.0682577
0.905982
0.0646642
0.865183
0.0634701
0.821984
0.0610757
0.779985
0.0586811
0.737986
0.0550862
0.695987
0.0526906
0.652788
0.0490944
0.61079
0.0466969
0.566394
0.0430983
0.524398
0.0394977
0.481205
0.0358952
0.438013
0.0322902
0.393624
0.0286839
0.350434
0.0250778
0.307247
0.0202779
0.264041
0.0166878
0.219639
0.013116
0.175155
0.00956713
0.131909
0.00480876
0.0884414
0.0442219
-0.00481978
0.0495
-0.00845077
0.0929432
-0.0133322
0.136996
-0.0181863
0.180109
-0.0218183
0.223164
-0.0254312
0.267547
-0.029033
0.31073
-0.0326316
0.353948
-0.0374307
0.398362
-0.0398312
0.440379
-0.0434345
0.484793
-0.0458398
0.526803
-0.0494474
0.570011
-0.0518559
0.613217
-0.0554661
0.656421
-0.0578765
0.698425
-0.0602876
0.740427
-0.0638996
0.78363
-0.0663115
0.824431
-0.067523
0.866433
-0.0699353
0.908435
-0.0723481
0.950436
-0.0747609
0.991237
-0.0771741
1.03204
-0.0783868
1.07164
-0.0808
1.11364
-0.082013
1.15324
-0.0844262
1.19284
-0.085639
1.23244
-0.0868517
1.27204
-0.0880643
1.31044
-0.0892772
1.35004
-0.0892891
1.38724
-0.0905014
1.42564
-0.0917135
1.46404
-0.0929256
1.50124
-0.0929369
1.53724
-0.0941486
1.57444
-0.0941597
1.61044
-0.095371
1.64644
-0.0953814
1.68123
-0.0953921
1.71723
-0.0954022
1.75083
-0.0954125
1.78563
-0.0954223
1.81923
-0.0954322
1.85163
-0.0954416
1.88523
-0.0942509
1.91763
-0.09426
1.94883
-0.0942689
1.98123
-0.0930773
2.01123
-0.0930858
2.04243
-0.0918942
2.07243
-0.0913017
2.10146
-0.0904694
2.1305
-0.0895168
2.15882
-0.0885636
2.18678
-0.087611
2.21414
-0.0864173
2.2409
-0.0852238
2.26718
-0.0840293
2.29298
-0.0827154
2.31806
-0.0814009
2.34266
-0.0798466
2.36666
-0.0782912
2.39006
-0.0768561
2.41298
-0.0753013
2.4353
-0.0736258
2.4569
-0.0719502
2.47802
-0.0700338
2.49841
-0.0682373
2.51833
-0.0664415
2.53753
-0.0645246
2.55625
-0.0624876
2.57413
-0.0604507
2.59153
-0.0584133
2.60833
-0.0563755
2.62441
-0.0543377
2.63989
-0.0520596
2.65465
-0.0497808
2.66881
-0.0476228
2.68237
-0.0454642
2.69532
-0.0430649
2.70744
-0.0407853
2.71896
-0.0382656
2.72976
-0.0359862
2.74008
-0.0335861
2.74968
-0.0311859
2.75844
-0.0286654
2.76672
-0.0262648
2.77416
-0.023624
2.781
-0.021223
2.78724
-0.0187014
2.79276
-0.0161806
2.79744
-0.0136581
2.80163
-0.011077
2.80499
-0.00850665
2.80778
-0.00594822
2.80984
-0.00337759
2.81121
-0.000806853
2.8119
0.00176408
2.8119
0.00433512
2.81121
0.00689435
2.80984
0.00946569
2.80777
0.0120501
2.80499
0.0145733
2.80163
0.017098
2.79743
0.019622
2.79275
0.0220265
2.78723
0.0246711
2.78099
0.0270759
2.77414
0.0296008
2.7667
0.0320059
2.75842
0.0344111
2.74966
0.0366968
2.74006
0.0392222
2.72974
0.0415078
2.71894
0.0439135
2.70742
0.0460798
2.6953
0.0482467
2.68234
0.0505328
2.66878
0.0528195
2.65462
0.0548664
2.63986
0.0569134
2.62438
0.0589606
2.6083
0.0610082
2.5915
0.0630557
2.5741
0.0649832
2.55622
0.0667915
2.5375
0.0685993
2.5183
0.0705271
2.49838
0.0722154
2.47798
0.0739037
2.45685
0.0754726
2.43525
0.0769211
2.41293
0.0784894
2.39001
0.0800584
2.36661
0.0813872
2.34261
0.0827164
2.31801
0.083925
2.29293
0.0851343
2.26713
0.0863434
2.24085
0.0873132
2.21409
0.0882823
2.18673
0.0892519
2.15877
0.0901014
2.13045
0.0907108
2.10141
0.0919206
2.07237
0.0919305
2.04237
0.09314
2.01117
0.0931499
1.98117
0.0931598
1.94877
0.0943697
1.91757
0.0943796
1.88517
0.0943897
1.85157
0.0943996
1.81917
0.0944098
1.78557
0.0944197
1.75077
0.0944299
1.71717
0.0944398
1.68117
0.0932503
1.64637
0.0932605
1.61037
0.092071
1.57437
0.0920811
1.53717
0.0908916
1.50117
0.0897021
1.46397
0.0885124
1.42557
0.0885224
1.38717
0.0873328
1.34997
0.0861429
1.31037
0.0849528
1.27197
0.0837626
1.23237
0.0813724
1.19277
0.0801819
1.15317
0.0777913
1.11357
0.0766003
1.07157
0.0742093
1.03197
0.071818
0.991172
0.0694266
0.950373
0.0670347
0.908374
0.0658423
0.866375
0.0634499
0.824376
0.0598574
0.783577
0.0574642
0.740378
0.0550704
0.69838
0.0514761
0.656382
0.0490805
0.613186
0.0454839
0.56999
0.0430854
0.526796
0.0394851
0.484804
0.0370827
0.440414
0.0322789
0.398427
0.028675
0.354038
0.0250738
0.310848
0.0214813
0.267632
0.0179027
0.223216
0.013136
0.17992
0.00838873
0.136655
0.00479579
0.0920321
0.0490184
-0.00362511
0.0531269
-0.00843916
0.0977579
-0.0121113
0.140669
-0.0169694
0.184968
-0.0218145
0.22801
-0.0254393
0.271171
-0.0290498
0.314341
-0.0326538
0.357552
-0.0362558
0.401964
-0.0398588
0.443982
-0.0422636
0.487197
-0.0458711
0.530411
-0.0494806
0.57362
-0.0530919
0.616828
-0.0555038
0.658833
-0.0579164
0.700837
-0.0615306
0.744041
-0.062744
0.784843
-0.0663589
0.828046
-0.0687737
0.868848
-0.0711887
0.91085
-0.0724032
0.951651
-0.0748187
0.993653
-0.0760335
1.03325
-0.0796497
1.07525
-0.0796643
1.11365
-0.0820801
1.15566
-0.0832955
1.19405
-0.0845106
1.23365
-0.0857257
1.27325
-0.0881417
1.31286
-0.088156
1.35005
-0.0905714
1.38965
-0.0917861
1.42685
-0.0918001
1.46405
-0.0918139
1.50125
-0.0930281
1.53845
-0.0942421
1.57565
-0.0942554
1.61045
-0.0942682
1.64645
-0.0954817
1.68245
-0.0942939
1.71605
-0.095507
1.75205
-0.095519
1.78564
-0.0943307
1.81804
-0.0955428
1.85284
-0.0955546
1.88524
-0.0943653
1.91644
-0.0943762
1.94884
-0.094387
1.98124
-0.0943975
2.01124
-0.0932073
2.04124
-0.0920169
2.07124
-0.0914265
2.10087
-0.0904756
2.12955
-0.0896446
2.15799
-0.0886933
2.18583
-0.0876212
2.21307
-0.0865488
2.23983
-0.0853567
2.26599
-0.0841643
2.29179
-0.0828512
2.31675
-0.0814182
2.34123
-0.0799841
2.36523
-0.0785508
2.38863
-0.0769967
2.41142
-0.0753218
2.43362
-0.0737673
2.45534
-0.0719725
2.47622
-0.0702975
2.49674
-0.0683823
2.51642
-0.0665863
2.53574
-0.0645505
2.55422
-0.0626341
2.57222
-0.0607173
2.58961
-0.0585604
2.60617
-0.0565237
2.62237
-0.0543663
2.63773
-0.0522086
2.65249
-0.0500506
2.66665
-0.047892
2.68021
-0.0454936
2.69293
-0.0432144
2.70516
-0.0408155
2.71656
-0.0385364
2.72748
-0.0361366
2.73768
-0.0337365
2.74728
-0.0313362
2.75604
-0.0288163
2.7642
-0.0264149
2.77176
-0.023894
2.77848
-0.0213728
2.78472
-0.0188515
2.79024
-0.0163293
2.79491
-0.0136875
2.79899
-0.011225
2.80253
-0.00866683
2.80522
-0.0060959
2.80727
-0.00352474
2.80864
-0.00095344
2.80933
0.00161808
2.80933
0.00418972
2.80864
0.00676159
2.80727
0.00932215
2.80521
0.0117864
2.80252
0.0144313
2.79898
0.0169559
2.7949
0.0194812
2.79022
0.0220066
2.7847
0.0245322
2.77846
0.0269374
2.77174
0.0294639
2.76418
0.0318699
2.75602
0.0342762
2.74726
0.0366826
2.73766
0.0389696
2.72745
0.0413768
2.71653
0.0436637
2.70513
0.0460712
2.69289
0.0482385
2.68017
0.0504064
2.66661
0.0525745
2.65245
0.0547427
2.63769
0.0567916
2.62233
0.0589602
2.60613
0.0608889
2.58957
0.0628178
2.57217
0.0648672
2.55417
0.0666763
2.53569
0.068606
2.51637
0.0702958
2.49669
0.0721057
2.47617
0.0736758
2.45528
0.0753655
2.43356
0.0769357
2.41136
0.0783864
2.38856
0.0798364
2.36516
0.0812873
2.34116
0.0826179
2.31668
0.083829
2.29172
0.0850401
2.26592
0.0861309
2.23976
0.0872219
2.213
0.0881932
2.18576
0.0890446
2.15792
0.090016
2.12948
0.0906275
2.1008
0.091839
2.07116
0.0930504
2.04116
0.0930622
2.01116
0.093074
1.98116
0.0930858
1.94876
0.0942973
1.91636
0.0943095
1.88516
0.0931217
1.85276
0.0943335
1.81796
0.0943454
1.78555
0.0931579
1.75195
0.0943697
1.71595
0.0931822
1.68235
0.0931941
1.64635
0.0932062
1.61035
0.0920187
1.57555
0.0908311
1.53835
0.0908431
1.50115
0.0908551
1.46395
0.0896674
1.42675
0.0872799
1.38955
0.0872915
1.34995
0.0849039
1.31275
0.0837156
1.27316
0.0825271
1.23356
0.0813385
1.19396
0.0789499
1.15556
0.0789605
1.11356
0.0753717
1.07516
0.074182
1.03316
0.0717925
0.993561
0.0706023
0.951562
0.0682122
0.910763
0.0658218
0.868765
0.0622312
0.827966
0.0610396
0.784768
0.0574481
0.743969
0.0550554
0.700772
0.0526619
0.658775
0.0490674
0.616779
0.0454713
0.573585
0.0418734
0.530393
0.0394734
0.487203
0.0358719
0.444015
0.0322697
0.402028
0.0286693
0.357637
0.025074
0.314441
0.0214895
0.271215
0.0167195
0.227984
0.0119541
0.184683
0.00839795
0.140208
0.00359232
0.0968351
0.0526068
-0.00482332
0.0579456
-0.0096326
0.102564
-0.0132884
0.144323
-0.0169476
0.188625
-0.0206017
0.231662
-0.0242376
0.274806
-0.0290593
0.319161
-0.0326706
0.361162
-0.0362775
0.40557
-0.0398838
0.447588
-0.0434911
0.490804
-0.0471007
0.53402
-0.0495117
0.576031
-0.0519244
0.61924
-0.0555393
0.662448
-0.0579545
0.703252
-0.0603703
0.746457
-0.0639873
0.78846
-0.0652036
0.829262
-0.0688217
0.872465
-0.0700383
0.912066
-0.0736572
0.955269
-0.074874
0.994869
-0.0772922
1.03567
-0.0785098
1.07647
-0.0809279
1.11607
-0.0821455
1.15687
-0.083363
1.19527
-0.0857816
1.23607
-0.0869991
1.27447
-0.0870158
1.31287
-0.0894339
1.35247
-0.0894509
1.38967
-0.090668
1.42807
-0.091885
1.46527
-0.0931014
1.50247
-0.0931178
1.53847
-0.0931336
1.57567
-0.0943494
1.61167
-0.0955659
1.64766
-0.09438
1.68126
-0.0955956
1.71726
-0.09561
1.75206
-0.0956246
1.78566
-0.0956384
1.81806
-0.0956525
1.85286
-0.0944653
1.88405
-0.0956795
1.91765
-0.0944918
1.94765
-0.0933039
1.98005
-0.0933163
2.01125
-0.0933289
2.04125
-0.0921396
2.07005
-0.0915514
2.10029
-0.0907216
2.12872
-0.0898922
2.15716
-0.0888224
2.18476
-0.0878717
2.21212
-0.0866812
2.23864
-0.0856105
2.26492
-0.0841788
2.29036
-0.0828669
2.31544
-0.0815547
2.33992
-0.0802428
2.36392
-0.0786901
2.38707
-0.077137
2.40987
-0.0755837
2.43207
-0.0737901
2.45355
-0.0721156
2.47455
-0.0703215
2.49495
-0.0685271
2.51462
-0.0666118
2.53382
-0.0648169
2.55242
-0.062901
2.5703
-0.0607455
2.58746
-0.0588291
2.60426
-0.0566724
2.62022
-0.0545154
2.63557
-0.0523574
2.65033
-0.0502006
2.66449
-0.0479221
2.67793
-0.045644
2.69065
-0.0433656
2.70289
-0.0410863
2.71428
-0.0386874
2.72508
-0.0362876
2.73528
-0.0338875
2.74488
-0.0313678
2.75352
-0.0289666
2.7618
-0.0264464
2.76924
-0.0240453
2.77608
-0.0215232
2.78219
-0.0190017
2.78771
-0.0164791
2.79239
-0.013957
2.79647
-0.0113621
2.79994
-0.0088029
2.80266
-0.00624412
2.80471
-0.00367242
2.80607
-0.00110055
2.80676
0.00147156
2.80676
0.00404385
2.80606
0.00660502
2.8047
0.00916577
2.80265
0.0117627
2.79993
0.0142885
2.79646
0.0168139
2.79238
0.01934
2.7877
0.0218658
2.78217
0.0242724
2.77605
0.0267997
2.76921
0.0292061
2.76177
0.0317338
2.75349
0.0341411
2.74485
0.0365486
2.73525
0.0389569
2.72505
0.0412448
2.71425
0.0435335
2.70285
0.0458224
2.6906
0.0481109
2.67788
0.0502807
2.66444
0.0524496
2.65028
0.0546193
2.63552
0.0567891
2.62016
0.0587192
2.6042
0.0608899
2.5874
0.0628202
2.57024
0.0646313
2.55236
0.066562
2.53376
0.0683733
2.51456
0.0701848
2.49487
0.0718759
2.47447
0.0736876
2.45347
0.0752594
2.43199
0.0768313
2.40979
0.0784034
2.38699
0.079736
2.36383
0.0810683
2.33983
0.0824007
2.31535
0.0838531
2.29027
0.0849461
2.26483
0.0861592
2.23855
0.0871319
2.21203
0.0882251
2.18467
0.0890785
2.15706
0.0899314
2.12862
0.0905453
2.10018
0.0917582
2.06994
0.0917723
2.04114
0.0917861
2.01114
0.0929995
1.97994
0.0942129
1.94754
0.0930275
1.91754
0.094241
1.88394
0.0942552
1.85274
0.094269
1.81794
0.0942832
1.78554
0.0942971
1.75194
0.0931116
1.71714
0.0943251
1.68114
0.0931399
1.64754
0.0919541
1.61154
0.0919682
1.57554
0.0919824
1.53834
0.0907965
1.50234
0.0896107
1.46514
0.0884249
1.42794
0.0884387
1.38954
0.0860529
1.35234
0.0860661
1.31274
0.0848795
1.27434
0.0824933
1.23594
0.0813063
1.19514
0.080119
1.15674
0.0777318
1.11595
0.0765442
1.07635
0.0741567
1.03555
0.0729683
0.994749
0.0693807
0.95515
0.0681917
0.911952
0.0646033
0.872353
0.0634137
0.829155
0.0598241
0.788357
0.0574335
0.746359
0.0550421
0.703163
0.0514499
0.662367
0.049056