/*--------------------------------*- C++ -*----------------------------------*\
  =========                 |
  \\      /  F ield         | OpenFOAM: The Open Source CFD Toolbox
   \\    /   O peration     | Website:  https://openfoam.org
    \\  /    A nd           | Version:  8
     \\/     M anipulation  |
\*---------------------------------------------------------------------------*/
FoamFile
{
    version     2.0;
    format      ascii;
    class       volVectorField;
    location    "0.34";
    object      U;
}
// * * * * * * * * * * * * * * * * * * * * * * * * * * * * * * * * * * * * * //

dimensions      [0 1 -1 0 0 0 0];

internalField   nonuniform List<vector> 
112642
(
(15.0003 4.50571e-07 7.22445e-21)
(15.0006 0.000104467 2.43925e-20)
(15.0005 0.000149332 6.36282e-20)
(15.0006 0.000112932 -1.14875e-20)
(15.0006 9.32101e-05 -1.34262e-19)
(15.0006 5.32885e-05 9.8889e-20)
(15.0006 2.47053e-05 2.87357e-21)
(15.0007 -4.02685e-06 -2.34368e-20)
(15.0007 -2.64906e-05 -6.03786e-20)
(15.0007 -4.72928e-05 8.23741e-20)
(15.0007 -6.46051e-05 1.86399e-21)
(15.0007 -8.08524e-05 -1.06433e-19)
(15.0007 -9.66192e-05 -6.14767e-20)
(15.0007 -0.000110536 -5.81503e-20)
(15.0007 -0.000124686 -4.73047e-20)
(15.0007 -0.000137767 -7.23619e-20)
(15.0006 -0.000150521 5.01802e-20)
(15.0006 -0.000163644 -8.23976e-20)
(15.0006 -0.000175507 5.72738e-20)
(15.0006 -0.000187183 8.0337e-20)
(15.0006 -0.000198622 1.36939e-19)
(15.0006 -0.000210125 5.55383e-20)
(15.0006 -0.000220752 5.48538e-20)
(15.0006 -0.000231718 3.01285e-20)
(15.0006 -0.000241867 -2.5012e-20)
(15.0006 -0.000252541 -5.30312e-20)
(15.0006 -0.000262529 8.0378e-20)
(15.0006 -0.000272228 -1.04186e-19)
(15.0006 -0.0002821 7.05833e-22)
(15.0006 -0.000291716 -5.10845e-20)
(15.0006 -0.000301329 -4.91706e-20)
(15.0006 -0.000310339 -5.88302e-22)
(15.0006 -0.00031932 -4.78739e-20)
(15.0006 -0.000328274 -4.82625e-20)
(15.0006 -0.00033636 4.75289e-20)
(15.0006 -0.000344888 -5.21341e-22)
(15.0005 -0.000352863 7.12013e-20)
(15.0005 -0.000360792 -4.47988e-20)
(15.0005 -0.000368965 1.87446e-20)
(15.0005 -0.000376219 -8.71014e-20)
(15.0005 -0.000383851 8.55637e-20)
(15.0005 -0.000390942 -6.75993e-20)
(15.0005 -0.00039763 -1.55971e-20)
(15.0005 -0.00040442 3.97949e-22)
(15.0005 -0.000411166 -3.98324e-20)
(15.0005 -0.0004174 -1.28304e-20)
(15.0005 -0.000424011 -3.79299e-20)
(15.0005 -0.000430179 6.27419e-20)
(15.0005 -0.000435773 3.67544e-20)
(15.0004 -0.000441771 -8.71258e-20)
(15.0004 -0.000447237 -2.58951e-20)
(15.0004 -0.000452879 -6.81816e-20)
(15.0004 -0.000458082 -6.67073e-20)
(15.0004 -0.000463538 2.5658e-20)
(15.0004 -0.000468448 2.59242e-20)
(15.0004 -0.000473159 3.10596e-20)
(15.0004 -0.000477759 6.0627e-20)
(15.0004 -0.000482357 -2.56409e-20)
(15.0004 -0.00048635 -2.90366e-20)
(15.0004 -0.000490567 2.82631e-20)
(15.0003 -0.000494487 -2.75323e-20)
(15.0003 -0.000497858 2.01636e-22)
(15.0003 -0.000501499 -2.59948e-20)
(15.0003 -0.000504743 2.07927e-22)
(15.0003 -0.000508004 -2.447e-20)
(15.0003 -0.000511112 4.92716e-20)
(15.0003 -0.000513817 0)
(15.0003 -0.000516894 2.20658e-20)
(15.0003 -0.000519498 -2.13416e-20)
(15.0003 -0.000521923 -2.0601e-20)
(15.0003 -0.00052422 -4.5315e-20)
(15.0002 -0.000526382 2.52534e-20)
(15.0002 -0.000528339 3.71134e-20)
(15.0002 -0.000530188 -4.33172e-20)
(15.0002 -0.000532157 5.08163e-20)
(15.0002 -0.000533824 -2.51535e-20)
(15.0002 -0.000535038 -5.66619e-20)
(15.0002 -0.000536664 1.04966e-20)
(15.0002 -0.000537767 0)
(15.0002 -0.000538819 0)
(15.0002 -0.000539507 0)
(15.0002 -0.000540409 1.21111e-20)
(15.0002 -0.000541053 0)
(15.0001 -0.000541669 1.43115e-20)
(15.0001 -0.000541865 -4.99073e-20)
(15.0001 -0.000541949 -1.89808e-20)
(15.0001 -0.000542228 8.36844e-20)
(15.0001 -0.000542066 -1.68221e-20)
(15.0001 -0.000541874 -1.74996e-20)
(15.0001 -0.000541524 2.47862e-20)
(15.0001 -0.000541161 6.1111e-21)
(15.0001 -0.000540674 -5.4605e-21)
(15.0001 -0.000539893 -4.7431e-21)
(15.0001 -0.000539018 -4.51392e-20)
(15 -0.000537943 -5.26244e-20)
(15 -0.000536864 2.16594e-20)
(15 -0.000535566 4.89315e-20)
(15 -0.00053429 0)
(15 -0.000532738 -9.13661e-22)
(15 -0.000531116 -2.42953e-20)
(15 -0.000529408 3.26088e-22)
(15 -0.000527612 2.31554e-20)
(15 -0.000525755 0)
(15 -0.000523629 -4.78308e-20)
(15 -0.000521532 1.11554e-20)
(15 -0.00051923 2.02885e-20)
(14.9999 -0.000516931 7.9966e-21)
(14.9999 -0.000514453 2.34935e-20)
(14.9999 -0.000511897 2.85814e-20)
(14.9999 -0.000509082 -1.1531e-20)
(14.9999 -0.00050617 -6.26748e-21)
(14.9999 -0.000503274 -2.31431e-20)
(14.9999 -0.000500259 7.56867e-21)
(14.9999 -0.000497246 -2.302e-20)
(14.9999 -0.000493863 1.7332e-20)
(14.9999 -0.000490682 1.33324e-20)
(14.9999 -0.000487422 3.24059e-20)
(14.9999 -0.000483797 -1.04313e-20)
(14.9999 -0.000480154 -5.60824e-20)
(14.9999 -0.000476281 3.35206e-20)
(14.9998 -0.000472584 2.20405e-20)
(14.9998 -0.000468555 -2.46541e-20)
(14.9998 -0.000464469 -2.19096e-20)
(14.9998 -0.000459924 -8.3332e-21)
(14.9998 -0.000455727 7.1005e-20)
(14.9998 -0.00045115 -1.45438e-20)
(14.9998 -0.000446333 -6.35547e-21)
(14.9998 -0.000441639 4.24121e-20)
(14.9998 -0.000436881 -5.28588e-20)
(14.9998 -0.000431989 -4.51531e-21)
(14.9998 -0.000427019 2.07614e-20)
(14.9998 -0.00042198 1.36548e-20)
(14.9998 -0.000416831 -3.81584e-20)
(14.9998 -0.000411338 3.85959e-20)
(14.9998 -0.000406172 -1.69233e-20)
(14.9998 -0.000400722 -2.02294e-20)
(14.9997 -0.000395186 -1.99257e-20)
(14.9997 -0.000389701 3.98273e-20)
(14.9997 -0.000383955 5.97672e-20)
(14.9997 -0.000378462 -1.93977e-22)
(14.9997 -0.000372606 -1.93983e-20)
(14.9997 -0.000366591 0)
(14.9997 -0.000360813 -2.1926e-20)
(14.9997 -0.000354655 0)
(14.9997 -0.000348573 1.8985e-20)
(14.9997 -0.00034248 -2.32946e-20)
(14.9997 -0.000336313 4.95679e-21)
(14.9997 -0.000329815 -2.38213e-20)
(14.9997 -0.000323552 -1.83999e-20)
(14.9997 -0.000317024 4.9206e-20)
(14.9997 -0.000310667 1.11467e-20)
(14.9997 -0.000303976 -7.4566e-21)
(14.9997 -0.000297615 -4.33139e-20)
(14.9997 -0.000290904 8.36806e-21)
(14.9997 -0.000283946 0)
(14.9997 -0.000277304 -9.02548e-21)
(14.9997 -0.000270384 -4.40685e-20)
(14.9997 -0.000263499 -4.33608e-20)
(14.9997 -0.000256749 4.37513e-20)
(14.9997 -0.000249779 -1.07227e-20)
(14.9997 -0.000242511 -2.85334e-22)
(14.9997 -0.000235535 -1.60503e-20)
(14.9997 -0.000228025 1.6133e-20)
(14.9997 -0.000220724 -3.2244e-20)
(14.9997 -0.000213466 -2.24544e-21)
(14.9997 -0.000205941 5.93451e-20)
(14.9997 -0.000198779 1.50573e-20)
(14.9997 -0.000191178 1.35722e-20)
(14.9997 -0.000183666 3.45432e-22)
(14.9997 -0.000176229 -3.78764e-22)
(14.9997 -0.000168546 -1.42298e-20)
(14.9997 -0.000160943 5.54353e-24)
(14.9997 -0.000153294 8.64745e-20)
(14.9997 -0.000145827 -4.4973e-20)
(14.9997 -0.000138272 4.47932e-20)
(14.9997 -0.000130434 -4.26343e-20)
(14.9997 -0.000122965 4.28371e-20)
(14.9997 -0.000115145 -3.58387e-21)
(14.9997 -0.000107591 -4.18979e-20)
(14.9997 -9.97199e-05 3.8136e-21)
(14.9997 -9.19457e-05 2.92107e-20)
(14.9997 -8.42028e-05 -2.91203e-20)
(14.9997 -7.64859e-05 -1.15418e-20)
(14.9997 -6.82627e-05 1.6335e-20)
(14.9997 -6.03433e-05 6.8111e-20)
(14.9997 -5.23243e-05 -3.38652e-20)
(14.9997 -4.38989e-05 2.74583e-20)
(14.9997 -3.56545e-05 -1.61385e-20)
(14.9997 -2.64279e-05 -3.8154e-20)
(14.9997 -1.68072e-05 1.74713e-20)
(14.9997 -6.39754e-06 -6.30321e-21)
(14.9997 6.26046e-06 -2.60409e-20)
(14.9997 2.0318e-05 3.45101e-20)
(14.9997 3.85893e-05 -2.48607e-20)
(14.9998 5.69656e-05 -1.38399e-20)
(14.9998 8.30695e-05 -2.52656e-20)
(14.9998 9.34783e-05 1.68943e-20)
(14.9998 0.000115726 1.82055e-20)
(14.9998 7.64586e-05 -2.12972e-20)
(14.9999 1.72768e-06 1.99464e-20)
(15.0015 -0.000137388 -3.99047e-20)
(15.0016 -0.000854039 6.29689e-20)
(15.0016 -0.00108856 1.05125e-20)
(15.0016 -0.000981949 9.37555e-20)
(15.0017 -0.00094156 -9.04322e-20)
(15.0018 -0.000820127 4.85732e-20)
(15.0018 -0.000750803 8.30419e-20)
(15.0019 -0.000691294 -2.47752e-21)
(15.0019 -0.000657978 -2.03294e-20)
(15.0019 -0.000638934 -3.75296e-21)
(15.0019 -0.000629807 4.99786e-20)
(15.0019 -0.000629363 -2.37201e-20)
(15.0019 -0.000633825 -6.0578e-20)
(15.0019 -0.000642887 3.5829e-20)
(15.0019 -0.000654749 -1.42972e-19)
(15.0019 -0.000668174 -8.74786e-21)
(15.0019 -0.000683588 8.27566e-20)
(15.0019 -0.000701163 7.93342e-21)
(15.0019 -0.000719107 -5.09573e-20)
(15.0019 -0.000738284 1.96837e-22)
(15.0019 -0.000757908 2.49269e-20)
(15.0018 -0.000779462 8.07206e-20)
(15.0018 -0.000800272 5.44762e-20)
(15.0018 -0.000822547 1.65293e-22)
(15.0018 -0.000844462 2.50651e-20)
(15.0018 -0.000867754 -4.97404e-20)
(15.0018 -0.000890673 -1.91429e-21)
(15.0018 -0.000913592 1.2481e-21)
(15.0017 -0.000936614 2.45199e-20)
(15.0017 -0.000959349 2.54081e-20)
(15.0017 -0.000982279 -2.50246e-20)
(15.0017 -0.00100433 -1.19982e-21)
(15.0017 -0.00102654 7.45878e-20)
(15.0017 -0.00104837 -1.93864e-19)
(15.0016 -0.00106913 -2.62823e-20)
(15.0016 -0.00109015 -4.58467e-20)
(15.0016 -0.00111021 5.19496e-20)
(15.0016 -0.00113009 8.57137e-22)
(15.0016 -0.00115039 -4.4581e-20)
(15.0015 -0.00116915 -1.1109e-19)
(15.0015 -0.0011885 -6.95127e-20)
(15.0015 -0.00120671 1.14272e-20)
(15.0015 -0.00122453 -4.08045e-20)
(15.0014 -0.00124211 0)
(15.0014 -0.0012595 -1.31669e-20)
(15.0014 -0.00127612 2.64639e-20)
(15.0014 -0.00129316 -9.003e-20)
(15.0013 -0.00130915 4.71043e-20)
(15.0013 -0.00132444 8.88712e-20)
(15.0013 -0.00134008 -2.58752e-20)
(15.0013 -0.00135511 -3.52745e-20)
(15.0013 -0.00136972 -1.49898e-20)
(15.0012 -0.0013836 -1.18701e-19)
(15.0012 -0.00139781 -5.91611e-20)
(15.0012 -0.00141087 2.66431e-22)
(15.0012 -0.00142352 -2.16176e-20)
(15.0011 -0.00143585 2.59629e-20)
(15.0011 -0.00144764 5.27897e-20)
(15.0011 -0.00145859 -8.35727e-20)
(15.0011 -0.00146964 -5.61355e-20)
(15.001 -0.00147993 -9.42948e-22)
(15.001 -0.00148945 0)
(15.001 -0.00149915 -2.57719e-20)
(15.0009 -0.00150807 2.50032e-20)
(15.0009 -0.00151675 -5.02602e-20)
(15.0009 -0.00152502 -1.39076e-22)
(15.0009 -0.00153289 1.77694e-22)
(15.0008 -0.00154078 4.77666e-20)
(15.0008 -0.00154789 5.20861e-20)
(15.0008 -0.0015546 -1.02206e-23)
(15.0008 -0.00156086 -5.16675e-20)
(15.0007 -0.00156694 -5.19015e-20)
(15.0007 -0.00157246 2.58362e-20)
(15.0007 -0.00157743 -9.42453e-21)
(15.0007 -0.0015825 2.57112e-20)
(15.0006 -0.00158688 4.20301e-20)
(15.0006 -0.00159055 -1.55502e-20)
(15.0006 -0.00159451 -2.56311e-20)
(15.0005 -0.00159751 -3.98091e-20)
(15.0005 -0.00160019 1.34165e-20)
(15.0005 -0.00160219 -3.82563e-20)
(15.0005 -0.00160422 -1.21146e-20)
(15.0004 -0.00160574 6.22937e-20)
(15.0004 -0.001607 2.54678e-20)
(15.0004 -0.00160746 -2.53554e-20)
(15.0004 -0.00160761 -4.40135e-20)
(15.0003 -0.0016077 5.43036e-24)
(15.0003 -0.00160722 -2.52289e-20)
(15.0003 -0.00160628 -5.82237e-23)
(15.0003 -0.00160498 3.1802e-20)
(15.0002 -0.00160364 3.10526e-20)
(15.0002 -0.00160164 5.53907e-20)
(15.0002 -0.00159912 -4.52147e-20)
(15.0002 -0.00159626 -4.9877e-20)
(15.0001 -0.0015931 -1.01041e-20)
(15.0001 -0.00158987 -8.20457e-21)
(15.0001 -0.00158592 2.6884e-20)
(15.0001 -0.00158186 2.47139e-20)
(15 -0.00157707 6.42798e-24)
(15 -0.00157213 -2.44034e-20)
(15 -0.00156694 -2.40789e-20)
(15 -0.00156148 8.33094e-24)
(14.9999 -0.0015559 2.43118e-20)
(14.9999 -0.00154962 4.84666e-20)
(14.9999 -0.00154324 -1.83778e-20)
(14.9999 -0.0015362 -2.04495e-20)
(14.9998 -0.00152911 2.79269e-20)
(14.9998 -0.00152177 4.39467e-23)
(14.9998 -0.00151414 -1.84596e-20)
(14.9998 -0.00150607 -4.71187e-20)
(14.9998 -0.00149745 5.33967e-20)
(14.9997 -0.00148886 2.32594e-20)
(14.9997 -0.00148002 4.23594e-23)
(14.9997 -0.00147084 -8.18259e-21)
(14.9997 -0.00146123 -5.63066e-21)
(14.9996 -0.00145165 -1.84672e-20)
(14.9996 -0.00144187 2.28701e-20)
(14.9996 -0.00143142 -1.03787e-20)
(14.9996 -0.00142077 -8.92675e-22)
(14.9996 -0.00140969 1.13659e-20)
(14.9995 -0.00139864 -5.67136e-20)
(14.9995 -0.00138698 1.68224e-22)
(14.9995 -0.00137503 4.4192e-20)
(14.9995 -0.00136226 3.5451e-20)
(14.9995 -0.00134973 -7.43049e-23)
(14.9995 -0.00133663 -5.03748e-20)
(14.9994 -0.00132299 1.48261e-20)
(14.9994 -0.00130949 -2.15978e-20)
(14.9994 -0.00129561 -3.14459e-20)
(14.9994 -0.00128136 3.74242e-20)
(14.9994 -0.00126704 4.23883e-20)
(14.9993 -0.00125246 -5.95173e-20)
(14.9993 -0.00123765 -4.13141e-20)
(14.9993 -0.0012223 1.78042e-20)
(14.9993 -0.00120706 2.18772e-22)
(14.9993 -0.00119159 1.29009e-21)
(14.9993 -0.00117588 1.95474e-20)
(14.9993 -0.00116008 6.02886e-20)
(14.9992 -0.00114379 -2.02599e-22)
(14.9992 -0.00112776 -6.12987e-20)
(14.9992 -0.00111129 -4.07603e-20)
(14.9992 -0.00109442 1.68019e-21)
(14.9992 -0.00107783 1.69773e-22)
(14.9992 -0.00106083 -2.91563e-21)
(14.9992 -0.00104367 0)
(14.9991 -0.00102654 -3.78048e-21)
(14.9991 -0.00100935 -1.92621e-20)
(14.9991 -0.000991603 -1.85409e-20)
(14.9991 -0.000974318 3.73855e-20)
(14.9991 -0.000956757 5.53633e-21)
(14.9991 -0.000939089 -1.80845e-20)
(14.9991 -0.000921193 -6.86185e-21)
(14.9991 -0.000903716 -3.23167e-20)
(14.9991 -0.000885945 2.53217e-20)
(14.9991 -0.000867637 -3.56067e-20)
(14.9991 -0.000849806 2.62657e-20)
(14.999 -0.000831645 -4.4288e-20)
(14.999 -0.000813563 4.45665e-20)
(14.999 -0.000795496 -1.02555e-20)
(14.999 -0.000777359 -2.64987e-20)
(14.999 -0.000758613 -3.79843e-20)
(14.999 -0.000740393 -1.6522e-20)
(14.999 -0.00072132 -1.0917e-20)
(14.999 -0.00070264 -1.67803e-20)
(14.999 -0.000683959 -1.56043e-20)
(14.999 -0.00066487 4.38349e-20)
(14.999 -0.000646099 4.40129e-20)
(14.999 -0.000626952 -1.59722e-20)
(14.999 -0.000607856 1.34418e-20)
(14.999 -0.000589203 -3.55424e-22)
(14.999 -0.000570373 1.36606e-20)
(14.999 -0.000552113 8.68481e-20)
(14.999 -0.00053408 -6.31674e-22)
(14.999 -0.000516551 -4.18397e-20)
(14.999 -0.000499454 -2.95126e-20)
(14.999 -0.000482559 -2.7089e-20)
(14.999 -0.000466836 7.04646e-20)
(14.999 -0.00045132 -2.84443e-20)
(14.999 -0.000436943 -1.47981e-20)
(14.9991 -0.000422437 -2.85685e-20)
(14.9991 -0.000409299 -2.56444e-20)
(14.9991 -0.000396638 1.53597e-20)
(14.9991 -0.000384874 1.26919e-20)
(14.9991 -0.000373665 3.93704e-20)
(14.9991 -0.000363927 3.00451e-20)
(14.9991 -0.000355623 1.30772e-20)
(14.9991 -0.000348925 3.64569e-20)
(14.9991 -0.00034432 -1.0241e-20)
(14.9992 -0.000343503 1.04558e-20)
(14.9992 -0.000346672 -1.09249e-20)
(14.9992 -0.000356774 7.28505e-22)
(14.9992 -0.000375532 1.97365e-20)
(14.9993 -0.000405592 -1.34877e-20)
(14.9993 -0.000454816 -5.10247e-20)
(14.9994 -0.00051111 2.85158e-21)
(14.9994 -0.000606134 1.07646e-21)
(14.9995 -0.000644563 2.71396e-20)
(14.9996 -0.000733156 -2.23346e-20)
(14.9995 -0.00056184 6.46978e-21)
(14.9995 -8.91253e-05 4.44083e-20)
(15.0027 -0.000139021 -7.21658e-20)
(15.0027 -0.000331817 -1.12581e-20)
(15.0026 -0.0015258 -3.10293e-20)
(15.0027 -0.00132795 5.34233e-20)
(15.0028 -0.00141208 3.66337e-20)
(15.003 -0.00123937 -1.17054e-19)
(15.0031 -0.00115673 2.40161e-20)
(15.0031 -0.00106465 0)
(15.0032 -0.0010178 1.23805e-19)
(15.0032 -0.000987977 -1.63999e-19)
(15.0032 -0.000978575 1.26679e-19)
(15.0032 -0.000980895 -2.50456e-20)
(15.0032 -0.000991719 -2.3626e-20)
(15.0032 -0.00100957 8.48098e-20)
(15.0032 -0.00103183 -5.91438e-20)
(15.0032 -0.00105705 -2.67342e-20)
(15.0032 -0.00108488 1.22797e-19)
(15.0032 -0.0011153 1.19597e-19)
(15.0031 -0.00114674 -3.42083e-20)
(15.0031 -0.00117991 -3.45445e-20)
(15.0031 -0.00121441 -1.16454e-19)
(15.0031 -0.00125056 -2.59361e-20)
(15.0031 -0.0012871 -3.23086e-20)
(15.003 -0.00132502 5.74653e-20)
(15.003 -0.00136282 -2.60843e-20)
(15.003 -0.00140216 1.10981e-19)
(15.003 -0.00144148 -1.09775e-19)
(15.0029 -0.00148071 -2.54391e-20)
(15.0029 -0.00151998 -2.62184e-20)
(15.0029 -0.0015592 2.5804e-20)
(15.0029 -0.00159815 5.2787e-20)
(15.0028 -0.00163644 -7.78005e-20)
(15.0028 -0.00167455 1.2856e-19)
(15.0028 -0.00171205 7.75676e-20)
(15.0027 -0.00174818 -1.02374e-19)
(15.0027 -0.00178442 -9.68329e-20)
(15.0027 -0.00181919 -4.77091e-20)
(15.0026 -0.00185348 2.62988e-20)
(15.0026 -0.00188785 -1.96041e-20)
(15.0026 -0.00192051 9.06826e-20)
(15.0025 -0.00195309 -1.15697e-19)
(15.0025 -0.00198467 -2.67529e-20)
(15.0025 -0.00201543 -4.29731e-20)
(15.0024 -0.0020459 -4.22135e-20)
(15.0024 -0.00207559 0)
(15.0023 -0.00210412 2.64663e-20)
(15.0023 -0.00213267 -1.26385e-20)
(15.0023 -0.00216011 -6.64211e-20)
(15.0022 -0.00218666 5.36147e-20)
(15.0022 -0.00221299 3.74539e-20)
(15.0021 -0.00223861 -4.67608e-20)
(15.0021 -0.00226361 6.25655e-20)
(15.0021 -0.00228713 4.35389e-20)
(15.002 -0.00231074 -9.51463e-20)
(15.002 -0.00233303 -2.6481e-20)
(15.0019 -0.00235472 -3.29093e-20)
(15.0019 -0.00237535 -6.87655e-20)
(15.0018 -0.00239528 -4.56578e-21)
(15.0018 -0.00241423 5.31188e-20)
(15.0018 -0.00243274 -5.57505e-20)
(15.0017 -0.00245026 -8.19895e-20)
(15.0017 -0.00246672 -2.78655e-20)
(15.0016 -0.00248301 -2.6357e-20)
(15.0016 -0.0024985 -1.83744e-22)
(15.0015 -0.00251325 7.75929e-20)
(15.0015 -0.0025273 -4.94984e-20)
(15.0015 -0.00254083 -2.62614e-20)
(15.0014 -0.00255388 -2.33343e-20)
(15.0014 -0.00256606 4.88299e-20)
(15.0013 -0.00257754 3.05689e-23)
(15.0013 -0.00258837 -5.31205e-21)
(15.0012 -0.00259881 2.59712e-20)
(15.0012 -0.00260842 3.31755e-20)
(15.0011 -0.00261698 -4.46528e-20)
(15.0011 -0.00262514 -4.39723e-20)
(15.001 -0.00263277 1.70624e-20)
(15.001 -0.00263946 1.63144e-20)
(15.001 -0.00264562 5.7042e-20)
(15.0009 -0.00265085 -1.10059e-20)
(15.0009 -0.00265554 1.38414e-20)
(15.0008 -0.00265911 5.18259e-20)
(15.0008 -0.00266249 -6.42082e-20)
(15.0007 -0.00266512 -2.14137e-21)
(15.0007 -0.00266718 5.15277e-20)
(15.0006 -0.00266801 8.21544e-23)
(15.0006 -0.00266846 -5.91532e-23)
(15.0006 -0.00266843 3.46623e-20)
(15.0005 -0.00266776 -2.55335e-20)
(15.0005 -0.00266629 -4.34319e-20)
(15.0004 -0.00266416 -6.95697e-21)
(15.0004 -0.00266156 -6.16419e-21)
(15.0003 -0.0026581 -3.11647e-23)
(15.0003 -0.00265403 3.01517e-20)
(15.0003 -0.00264933 4.63748e-20)
(15.0002 -0.00264411 2.52456e-20)
(15.0002 -0.00263851 -7.5413e-20)
(15.0001 -0.00263185 -2.30082e-20)
(15.0001 -0.00262473 2.50112e-20)
(15.0001 -0.00261683 -2.4211e-20)
(15 -0.00260867 -8.07487e-23)
(15 -0.00259988 2.5405e-20)
(14.9999 -0.00259046 -1.25091e-21)
(14.9999 -0.00258083 0)
(14.9999 -0.00257043 -2.53677e-21)
(14.9998 -0.00255963 2.12281e-20)
(14.9998 -0.00254784 3.79523e-21)
(14.9997 -0.00253573 -2.86429e-20)
(14.9997 -0.00252318 3.42509e-20)
(14.9997 -0.00251011 2.3946e-20)
(14.9996 -0.00249654 -1.35076e-24)
(14.9996 -0.00248226 2.0362e-23)
(14.9995 -0.00246765 -4.73369e-20)
(14.9995 -0.00245257 -2.34352e-20)
(14.9995 -0.00243688 2.33818e-20)
(14.9994 -0.00242075 -2.33335e-20)
(14.9994 -0.00240432 -3.30467e-20)
(14.9994 -0.00238766 4.62608e-20)
(14.9993 -0.00236999 3.48423e-20)
(14.9993 -0.00235188 -1.12996e-20)
(14.9993 -0.00233316 -5.75975e-20)
(14.9992 -0.0023143 -1.25899e-20)
(14.9992 -0.00229447 3.56937e-20)
(14.9992 -0.00227418 0)
(14.9991 -0.00225312 -2.23255e-20)
(14.9991 -0.00223164 -3.69184e-20)
(14.9991 -0.00220941 2.20428e-20)
(14.999 -0.00218681 2.18181e-20)
(14.999 -0.00216399 -2.18103e-20)
(14.999 -0.00214041 3.38533e-20)
(14.999 -0.0021163 2.14278e-20)
(14.9989 -0.00209201 -2.14172e-20)
(14.9989 -0.00206735 -3.9554e-20)
(14.9989 -0.00204229 5.88232e-20)
(14.9988 -0.00201666 1.57219e-21)
(14.9988 -0.00199082 1.86923e-20)
(14.9988 -0.0019647 -2.00992e-20)
(14.9988 -0.0019382 4.11875e-20)
(14.9987 -0.00191128 -2.04944e-20)
(14.9987 -0.00188393 -4.18292e-20)
(14.9987 -0.00185666 -2.20859e-20)
(14.9987 -0.00182884 1.76888e-20)
(14.9987 -0.00180056 1.95811e-20)
(14.9986 -0.0017723 -6.26915e-20)
(14.9986 -0.00174365 1.90212e-22)
(14.9986 -0.00171491 1.93221e-20)
(14.9986 -0.00168583 0)
(14.9986 -0.00165674 -4.97919e-20)
(14.9985 -0.00162714 5.05767e-20)
(14.9985 -0.00159802 0)
(14.9985 -0.00156825 -2.6012e-20)
(14.9985 -0.00153841 2.63684e-20)
(14.9985 -0.0015084 -1.85106e-20)
(14.9985 -0.00147856 -8.43971e-21)
(14.9984 -0.00144839 -3.68946e-20)
(14.9984 -0.00141776 2.53828e-22)
(14.9984 -0.00138742 5.55466e-20)
(14.9984 -0.00135662 -1.74696e-20)
(14.9984 -0.0013256 6.77718e-20)
(14.9984 -0.00129464 -4.58432e-20)
(14.9984 -0.00126344 2.88829e-20)
(14.9984 -0.00123181 1.69767e-20)
(14.9984 -0.00120037 2.90187e-20)
(14.9984 -0.00116804 -1.25106e-20)
(14.9984 -0.00113598 -4.68907e-20)
(14.9984 -0.00110383 1.4458e-20)
(14.9984 -0.0010711 7.7771e-20)
(14.9984 -0.00103876 5.99654e-20)
(14.9984 -0.00100606 -4.57376e-20)
(14.9984 -0.000973526 6.07981e-20)
(14.9984 -0.000941524 0)
(14.9984 -0.000909768 4.57566e-20)
(14.9984 -0.000878647 1.52809e-20)
(14.9984 -0.000848221 -5.94922e-20)
(14.9984 -0.000818597 3.06744e-20)
(14.9984 -0.000789661 -4.7151e-20)
(14.9984 -0.000761385 5.86339e-20)
(14.9984 -0.000734611 -3.10283e-20)
(14.9984 -0.000708356 -4.3821e-20)
(14.9984 -0.00068333 -4.40739e-20)
(14.9984 -0.00065891 -4.33765e-20)
(14.9984 -0.000635767 -4.063e-21)
(14.9984 -0.000613696 -8.46711e-22)
(14.9985 -0.000592834 1.84385e-20)
(14.9985 -0.00057299 -1.78259e-20)
(14.9985 -0.00055507 0)
(14.9985 -0.000539259 4.13474e-20)
(14.9985 -0.000526288 -5.83717e-20)
(14.9986 -0.000516941 2.9315e-20)
(14.9986 -0.000513561 1.60555e-20)
(14.9986 -0.000517459 -9.34246e-21)
(14.9987 -0.000531491 7.3757e-20)
(14.9987 -0.000562392 -1.10144e-20)
(14.9988 -0.000607387 -3.21116e-20)
(14.9989 -0.000683975 -5.80094e-21)
(14.999 -0.000753484 -9.28522e-22)
(14.9991 -0.000891045 1.21052e-20)
(14.9992 -0.000844455 -6.72839e-21)
(14.9993 -0.00100137 1.66584e-21)
(14.9992 -0.000146672 3.40534e-20)
(14.9991 -8.08618e-05 -1.68579e-20)
(15.0039 -2.2671e-05 5.94378e-20)
(15.0038 0.000798965 -5.97835e-20)
(15.0037 -0.00120352 0)
(15.0038 -0.00108077 0)
(15.0039 -0.00140292 1.79493e-20)
(15.0041 -0.00128604 2.1761e-20)
(15.0043 -0.00126254 3.83334e-20)
(15.0044 -0.00118667 1.56023e-20)
(15.0045 -0.0011599 4.2106e-20)
(15.0045 -0.00114402 -5.69127e-20)
(15.0045 -0.00115177 3.47743e-20)
(15.0045 -0.00117137 2.67799e-20)
(15.0045 -0.00120169 3.76498e-20)
(15.0045 -0.0012393 -2.06711e-22)
(15.0045 -0.00128218 1.25162e-19)
(15.0045 -0.00132787 -8.6691e-20)
(15.0045 -0.00137625 -2.55815e-20)
(15.0045 -0.00142707 -3.65824e-20)
(15.0044 -0.00147907 8.66754e-20)
(15.0044 -0.0015326 -3.53566e-20)
(15.0044 -0.001587 1.20261e-19)
(15.0044 -0.00164297 -9.75934e-22)
(15.0043 -0.00169961 -2.45088e-20)
(15.0043 -0.00175738 3.09267e-20)
(15.0043 -0.00181479 -5.62877e-20)
(15.0042 -0.00187354 -7.81811e-22)
(15.0042 -0.00193211 1.07882e-19)
(15.0042 -0.00199054 5.57791e-20)
(15.0041 -0.00204866 -2.66422e-20)
(15.0041 -0.00210682 -1.00041e-22)
(15.004 -0.00216431 0)
(15.004 -0.00222079 -5.24313e-20)
(15.004 -0.00227669 -7.78031e-20)
(15.0039 -0.00233176 5.06654e-20)
(15.0039 -0.00238533 5.31369e-20)
(15.0038 -0.00243842 4.99283e-20)
(15.0038 -0.00248997 4.8193e-20)
(15.0037 -0.00254071 4.84636e-20)
(15.0037 -0.00259086 -6.21267e-21)
(15.0036 -0.00263898 9.2538e-20)
(15.0036 -0.00268672 7.27819e-20)
(15.0035 -0.002733 -1.82737e-20)
(15.0035 -0.00277817 -1.70599e-20)
(15.0034 -0.00282281 -2.67119e-20)
(15.0034 -0.00286638 -4.28642e-20)
(15.0033 -0.00290822 3.57867e-22)
(15.0033 -0.0029498 -2.70517e-20)
(15.0032 -0.00298986 -8.01545e-20)
(15.0031 -0.00302897 -3.91944e-20)
(15.0031 -0.0030672 2.67737e-20)
(15.003 -0.00310444 -3.72357e-20)
(15.003 -0.00314052 1.96457e-20)
(15.0029 -0.00317529 2.65666e-20)
(15.0028 -0.00320937 2.73782e-20)
(15.0028 -0.00324177 -2.70975e-20)
(15.0027 -0.00327327 -4.01575e-20)
(15.0027 -0.0033031 2.70073e-20)
(15.0026 -0.00333215 -5.86108e-20)
(15.0025 -0.00335994 4.02242e-21)
(15.0025 -0.00338671 8.71736e-20)
(15.0024 -0.00341226 2.69437e-20)
(15.0024 -0.00343655 -2.6772e-20)
(15.0023 -0.00346017 -2.69541e-20)
(15.0022 -0.0034826 -8.03295e-20)
(15.0022 -0.0035041 2.63312e-20)
(15.0021 -0.00352476 5.38926e-20)
(15.002 -0.00354431 -2.26148e-21)
(15.002 -0.00356304 -2.37769e-20)
(15.0019 -0.0035809 2.65765e-20)
(15.0019 -0.0035978 -2.20271e-20)
(15.0018 -0.00361364 -5.32339e-20)
(15.0017 -0.00362849 -4.13355e-20)
(15.0017 -0.00364248 7.2884e-20)
(15.0016 -0.00365512 4.56002e-20)
(15.0015 -0.00366685 -2.64264e-20)
(15.0015 -0.00367795 -9.04358e-21)
(15.0014 -0.00368782 -2.63311e-20)
(15.0014 -0.00369661 -1.04743e-20)
(15.0013 -0.00370421 3.03585e-20)
(15.0012 -0.00371113 -2.59164e-21)
(15.0012 -0.00371673 5.36286e-20)
(15.0011 -0.00372163 -3.93779e-20)
(15.001 -0.00372541 1.37537e-20)
(15.001 -0.0037284 7.83681e-20)
(15.0009 -0.00372996 -1.53626e-20)
(15.0009 -0.00373087 -5.20318e-20)
(15.0008 -0.00373082 -4.79962e-23)
(15.0007 -0.00372988 -1.73458e-20)
(15.0007 -0.00372798 2.57252e-20)
(15.0006 -0.00372511 7.04571e-20)
(15.0005 -0.00372126 -6.29438e-21)
(15.0005 -0.00371657 -4.42702e-24)
(15.0004 -0.0037111 -2.56396e-20)
(15.0004 -0.00370455 -2.56081e-20)
(15.0003 -0.00369711 -1.51948e-20)
(15.0002 -0.00368896 -2.00081e-20)
(15.0002 -0.00367956 2.33705e-20)
(15.0001 -0.00366949 2.53712e-20)
(15.0001 -0.00365836 2.52933e-20)
(15 -0.00364688 2.52685e-20)
(15 -0.00363438 -7.4747e-20)
(14.9999 -0.00362087 -2.50278e-20)
(14.9998 -0.00360704 2.6985e-20)
(14.9998 -0.00359221 2.48503e-20)
(14.9997 -0.00357678 2.80659e-20)
(14.9997 -0.00356018 -2.86514e-20)
(14.9996 -0.00354298 5.84459e-20)
(14.9996 -0.003525 2.43497e-20)
(14.9995 -0.00350611 -7.88249e-20)
(14.9995 -0.00348659 -4.82815e-20)
(14.9994 -0.00346642 4.08886e-20)
(14.9994 -0.00344551 8.10395e-21)
(14.9993 -0.00342385 7.3107e-23)
(14.9993 -0.0034015 -5.95536e-23)
(14.9992 -0.00337852 -4.72131e-20)
(14.9992 -0.00335485 1.03685e-20)
(14.9991 -0.00333073 3.42132e-20)
(14.9991 -0.00330548 1.18038e-20)
(14.999 -0.00327961 -3.53477e-20)
(14.999 -0.00325284 -4.59722e-20)
(14.9989 -0.00322551 0)
(14.9989 -0.00319707 2.27981e-20)
(14.9988 -0.00316809 8.28821e-21)
(14.9988 -0.00313814 0)
(14.9987 -0.00310733 1.53956e-20)
(14.9987 -0.0030756 1.59315e-20)
(14.9986 -0.00304346 1.64428e-20)
(14.9986 -0.00301072 2.20509e-20)
(14.9986 -0.00297705 1.73615e-20)
(14.9985 -0.00294288 -2.1662e-20)
(14.9985 -0.00290811 2.1679e-20)
(14.9984 -0.00287271 -1.0345e-22)
(14.9984 -0.00283677 -2.311e-20)
(14.9984 -0.00280035 -1.9838e-20)
(14.9983 -0.00276351 -1.67879e-22)
(14.9983 -0.00272602 4.19913e-20)
(14.9983 -0.00268811 2.06584e-20)
(14.9982 -0.00264974 0)
(14.9982 -0.00261074 2.48876e-23)
(14.9982 -0.00257154 2.34432e-21)
(14.9981 -0.00253175 4.65547e-20)
(14.9981 -0.00249147 -6.75496e-20)
(14.9981 -0.00245092 -2.36443e-20)
(14.998 -0.00240994 8.81915e-20)
(14.998 -0.00236893 0)
(14.998 -0.00232732 -1.95638e-20)
(14.998 -0.00228565 -6.02165e-21)
(14.9979 -0.00224337 -7.16468e-21)
(14.9979 -0.00220117 -1.88475e-20)
(14.9979 -0.00215858 2.67328e-20)
(14.9979 -0.00211567 0)
(14.9978 -0.00207253 -1.86406e-20)
(14.9978 -0.00202922 9.51766e-21)
(14.9978 -0.00198565 -9.80263e-21)
(14.9978 -0.00194146 6.44304e-20)
(14.9978 -0.00189747 -2.89201e-20)
(14.9977 -0.00185275 2.86078e-22)
(14.9977 -0.00180774 2.89166e-20)
(14.9977 -0.00176275 -1.71635e-20)
(14.9977 -0.00171743 1.73802e-20)
(14.9977 -0.00167149 1.69255e-20)
(14.9977 -0.00162566 -6.40236e-20)
(14.9977 -0.00157886 -1.61452e-20)
(14.9977 -0.00153203 -1.4171e-20)
(14.9977 -0.00148508 4.70662e-20)
(14.9977 -0.00143767 6.28176e-20)
(14.9977 -0.00139051 -4.70692e-20)
(14.9977 -0.00134311 1.58478e-20)
(14.9977 -0.001296 -3.21072e-22)
(14.9977 -0.00124945 -1.50252e-20)
(14.9977 -0.00120324 0)
(14.9977 -0.00115768 -6.24797e-20)
(14.9977 -0.00111313 3.12865e-20)
(14.9977 -0.00106944 3.12975e-20)
(14.9977 -0.00102664 6.25343e-20)
(14.9977 -0.000984615 1.7039e-20)
(14.9977 -0.000944167 -4.48159e-20)
(14.9977 -0.000904284 3.10071e-20)
(14.9977 -0.000865595 1.34117e-20)
(14.9978 -0.000827847 3.04316e-20)
(14.9978 -0.000791388 4.90333e-20)
(14.9978 -0.000755904 -4.84361e-20)
(14.9978 -0.000721771 -5.00852e-22)
(14.9979 -0.000688914 5.41242e-22)
(14.9979 -0.000658154 -3.04725e-20)
(14.9979 -0.000629849 -4.08357e-20)
(14.9979 -0.000604748 -1.76707e-20)
(14.998 -0.000584348 -6.67662e-21)
(14.998 -0.000570503 2.73823e-20)
(14.9981 -0.000566237 2.85125e-20)
(14.9981 -0.000572373 -7.82247e-22)
(14.9982 -0.000598168 -3.45044e-20)
(14.9983 -0.000634021 4.78164e-20)
(14.9984 -0.000701524 -2.18922e-20)
(14.9986 -0.000730722 -9.58132e-23)
(14.9987 -0.00083075 0)
(14.9989 -0.00061994 6.68818e-21)
(14.9989 -0.000719199 1.72876e-20)
(14.9988 0.000686408 -5.70569e-21)
(14.9987 1.13011e-05 -2.41997e-20)
(15.0052 0.000157195 8.01631e-20)
(15.005 0.00144662 8.96961e-20)
(15.0048 -0.000755803 0)
(15.0049 -0.000827876 -5.40954e-20)
(15.005 -0.00136408 -1.77546e-20)
(15.0053 -0.0013323 3.39736e-20)
(15.0055 -0.00138035 5.77274e-20)
(15.0056 -0.00132745 2.12837e-20)
(15.0057 -0.00132048 -1.47454e-20)
(15.0058 -0.00131616 6.38854e-20)
(15.0058 -0.00133707 -8.73844e-20)
(15.0058 -0.00137123 3.92291e-20)
(15.0058 -0.001418 -8.76302e-20)
(15.0058 -0.00147359 2.3203e-22)
(15.0058 -0.00153561 -3.76273e-20)
(15.0058 -0.00160105 2.57903e-20)
(15.0058 -0.00166967 -1.22855e-19)
(15.0057 -0.00174031 -8.57949e-20)
(15.0057 -0.00181243 2.3962e-20)
(15.0057 -0.00188632 1.95364e-21)
(15.0057 -0.00196083 3.24132e-20)
(15.0056 -0.00203637 2.62948e-20)
(15.0056 -0.00211269 5.83105e-20)
(15.0055 -0.00218978 2.54058e-20)
(15.0055 -0.00226634 5.76785e-20)
(15.0055 -0.00234388 -1.08635e-19)
(15.0054 -0.00242134 2.92326e-20)
(15.0054 -0.00249844 5.52698e-20)
(15.0053 -0.00257499 5.44727e-20)
(15.0053 -0.00265169 7.99543e-20)
(15.0052 -0.00272715 2.68845e-20)
(15.0052 -0.00280154 0)
(15.0051 -0.00287508 7.80651e-20)
(15.005 -0.00294741 5.13906e-20)
(15.005 -0.00301827 -3.32168e-21)
(15.0049 -0.00308828 2.26253e-20)
(15.0049 -0.00315641 4.89515e-20)
(15.0048 -0.00322347 7.48577e-20)
(15.0047 -0.00328935 4.78336e-20)
(15.0047 -0.00335318 -9.36035e-20)
(15.0046 -0.00341625 8.32193e-21)
(15.0046 -0.00347788 7.23309e-20)
(15.0045 -0.00353773 1.73538e-20)
(15.0044 -0.00359665 -3.95087e-22)
(15.0043 -0.00365432 3.49649e-22)
(15.0043 -0.0037097 4.152e-20)
(15.0042 -0.00376437 -4.0681e-20)
(15.0041 -0.00381767 3.98693e-20)
(15.0041 -0.00386926 -3.91263e-20)
(15.004 -0.00391979 -3.69245e-22)
(15.0039 -0.00396905 -2.67588e-20)
(15.0038 -0.00401649 -3.76229e-20)
(15.0038 -0.00406258 -8.46215e-21)
(15.0037 -0.0041074 7.96754e-21)
(15.0036 -0.00415021 -7.43044e-21)
(15.0035 -0.00419173 -3.34504e-20)
(15.0035 -0.00423138 3.26457e-20)
(15.0034 -0.00426964 3.23525e-20)
(15.0033 -0.00430632 -5.85857e-20)