# Forces      
# CofR        : (0.000000e+00 0.000000e+00 0.000000e+00)
# Time        forces(pressure viscous)	moments(pressure viscous)
0.003         	((1.242436e+00 -1.730979e+01 -1.951124e-18) (2.851847e-01 4.362132e-02 2.674597e-19)) ((4.511679e-19 1.308121e-19 2.739896e+00) (-1.093691e-19 9.094825e-20 6.828153e-03))
