/*--------------------------------*- C++ -*----------------------------------*\
  =========                 |
  \\      /  F ield         | OpenFOAM: The Open Source CFD Toolbox
   \\    /   O peration     | Website:  https://openfoam.org
    \\  /    A nd           | Version:  10
     \\/     M anipulation  |
\*---------------------------------------------------------------------------*/
FoamFile
{
    format      ascii;
    class       volScalarField;
    location    "316";
    object      p;
}
// * * * * * * * * * * * * * * * * * * * * * * * * * * * * * * * * * * * * * //

dimensions      [1 -1 -2 0 0 0 0];

internalField   nonuniform List<scalar> 
14000
(
97061.4
98937
100263
100997
101338
101452
101458
101404
101316
101216
101110
101005
100901
100802
100707
100618
100534
100457
100387
100323
100268
100221
100181
100149
100122
100099
100082
100069
100060
100053
100049
100048
100048
100050
100053
100058
100063
100068
100075
100081
100089
100096
100103
100111
100119
100127
100135
100143
100153
100165
97252.7
99027.5
100291
101000
101335
101450
101458
101406
101320
101221
101117
101011
100908
100808
100714
100624
100540
100463
100392
100328
100272
100225
100184
100151
100124
100101
100084
100071
100061
100055
100051
100050
100050
100052
100055
100059
100065
100070
100077
100083
100091
100098
100106
100113
100121
100129
100138
100145
100154
100158
97425.5
99113.1
100319
101003
101332
101447
101457
101406
101322
101224
101120
101015
100913
100813
100718
100629
100545
100467
100396
100332
100276
100228
100187
100154
100126
100103
100086
100072
100063
100056
100053
100051
100051
100053
100057
100061
100066
100072
100078
100085
100092
100099
100107
100115
100123
100130
100139
100145
100154
100156
97601.2
99198.8
100345
101005
101327
101443
101454
101406
101324
101227
101125
101020
100918
100819
100724
100634
100550
100472
100401
100337
100280
100232
100191
100157
100129
100105
100088
100074
100065
100058
100055
100053
100053
100055
100059
100063
100068
100074
100080
100087
100094
100101
100109
100116
100124
100132
100140
100147
100155
100158
97780.9
99286.3
100372
101005
101320
101436
101450
101405
101325
101230
101128
101025
100923
100824
100729
100639
100555
100477
100406
100342
100285
100236
100194
100160
100131
100108
100090
100077
100067
100061
100057
100055
100056
100058
100061
100065
100070
100076
100082
100089
100096
100103
100111
100118
100126
100133
100141
100148
100156
100162
97963
99374.4
100399
101004
101310
101427
101444
101402
101325
101232
101132
101029
100928
100829
100735
100645
100561
100483
100411
100347
100290
100240
100198
100164
100134
100111
100093
100079
100070
100063
100059
100058
100058
100060
100063
100068
100073
100078
100085
100091
100098
100105
100113
100120
100128
100135
100142
100150
100157
100165
98145.8
99462.6
100424
101000
101298
101416
101435
101397
101323
101233
101134
101033
100932
100834
100740
100651
100567
100489
100417
100352
100295
100245
100203
100167
100138
100114
100095
100082
100072
100066
100062
100061
100061
100063
100066
100070
100075
100081
100087
100094
100100
100107
100115
100122
100129
100136
100143
100150
100157
100164
98327.3
99549.7
100448
100995
101284
101402
101424
101390
101320
101232
101136
101036
100937
100840
100746
100657
100573
100495
100423
100358
100300
100250
100207
100171
100141
100117
100098
100085
100075
100069
100065
100063
100064
100066
100069
100073
100078
100084
100090
100096
100103
100110
100117
100124
100131
100137
100144
100150
100156
100162
98505.4
99634.6
100471
100987
101266
101384
101410
101380
101314
101230
101136
101038
100941
100844
100752
100663
100579
100501
100430
100364
100306
100256
100212
100176
100145
100120
100102
100088
100078
100072
100068
100067
100067
100069
100072
100076
100081
100086
100092
100099
100105
100112
100119
100125
100132
100138
100144
100150
100155
100160
98678.3
99716.5
100492
100977
101245
101363
101392
101366
101305
101225
101135
101040
100943
100849
100757
100669
100586
100508
100436
100371
100312
100261
100217
100181
100149
100124
100105
100092
100082
100075
100071
100070
100070
100072
100075
100079
100084
100089
100095
100101
100108
100114
100120
100127
100133
100139
100144
100150
100154
100158
98844
99794.3
100510
100964
101221
101338
101371
101350
101294
101218
101131
101039
100945
100852
100762
100675
100592
100515
100443
100377
100319
100267
100223
100186
100154
100128
100109
100095
100085
100079
100075
100074
100074
100076
100079
100083
100087
100092
100098
100104
100110
100116
100122
100128
100134
100139
100144
100149
100153
100156
99001.1
99867.1
100525
100947
101192
101308
101345
101329
101279
101208
101125
101037
100946
100855
100766
100680
100598
100521
100450
100384
100326
100274
100229
100191
100159
100133
100113
100099
100089
100083
100079
100077
100078
100079
100082
100086
100091
100096
100101
100107
100112
100118
100124
100129
100134
100139
100144
100148
100151
100154
99148.1
99934.1
100536
100928
101161
101275
101314
101303
101259
101194
101116
101032
100944
100856
100769
100685
100604
100528
100457
100391
100333
100281
100235
100197
100164
100137
100118
100104
100094
100087
100083
100081
100082
100083
100086
100090
100094
100099
100104
100109
100115
100120
100125
100130
100135
100139
100143
100147
100150
100153
99284
99994.8
100544
100906
101125
101237
101279
101274
101236
101177
101104
101024
100941
100855
100771
100688
100609
100534
100463
100399
100340
100287
100242
100203
100169
100142
100122
100108
100098
100091
100087
100086
100086
100087
100090
100093
100097
100102
100107
100112
100117
100122
100126
100131
100135
100139
100142
100145
100148
100151
99408
100049
100548
100881
101087
101195
101239
101239
101207
101155
101088
101014
100934
100853
100771
100691
100613
100539
100470
100406
100347
100295
100249
100209
100175
100148
100127
100113
100103
100096
100092
100090
100090
100092
100094
100097
100101
100105
100110
100114
100119
100123
100128
100132
100135
100139
100142
100144
100147
100149
99519.7
100095
100548
100853
101045
101150
101196
101200
101174
101128
101068
100999
100925
100848
100769
100692
100617
100544
100476
100412
100354
100302
100256
100216
100181
100153
100133
100118
100108
100101
100097
100095
100095
100096
100098
100101
100105
100109
100113
100117
100121
100125
100129
100132
100135
100138
100141
100143
100145
100147
99619.1
100135
100544
100822
101001
101101
101148
101156
101137
101097
101044
100981
100912
100840
100765
100691
100618
100548
100481
100419
100361
100309
100263
100222
100188
100159
100139
100124
100113
100106
100102
100100
100100
100101
100102
100105
100108
100112
100115
100119
100123
100126
100129
100132
100135
100137
100140
100142
100143
100145
99706.2
100168
100537
100789
100954
101049
101097
101109
101095
101062
101015
100959
100896
100828
100759
100688
100619
100551
100486
100424
100368
100316
100270
100229
100194
100166
100144
100129
100119
100112
100107
100105
100105
100105
100107
100109
100112
100115
100118
100121
100124
100127
100130
100133
100135
100137
100139
100140
100142
100143
99781.5
100193
100525
100754
100906
100996
101043
101058
101049
101022
100982
100932
100875
100814
100749
100683
100617
100552
100489
100429
100374
100323
100277
100236
100201
100172
100151
100135
100125
100117
100113
100110
100110
100110
100111
100113
100115
100118
100121
100123
100126
100128
100131
100133
100135
100136
100138
100139
100140
100141
99845.7
100213
100511
100717
100857
100941
100988
101005
101000
100979
100945
100901
100851
100795
100736
100675
100613
100551
100491
100433
100379
100329
100283
100243
100208
100179
100157
100142
100131
100123
100118
100116
100115
100115
100115
100117
100119
100121
100123
100125
100127
100129
100131
100133
100134
100136
100137
100138
100139
100139
99899.4
100226
100493
100680
100807
100886
100931
100949
100948
100932
100904
100867
100823
100773
100720
100663
100606
100548
100491
100435
100383
100334
100290
100249
100214
100185
100163
100148
100137
100129
100124
100121
100120
100119
100120
100121
100122
100124
100125
100127
100129
100130
100132
100133
100134
100135
100136
100136
100137
100138
99943.6
100234
100473
100641
100757
100830
100873
100893
100895
100883
100860
100829
100791
100748
100700
100649
100596
100542
100489
100436
100386
100339
100295
100256
100221
100192
100170
100154
100143
100135
100130
100126
100125
100124
100124
100124
100125
100126
100128
100129
100130
100131
100132
100133
100134
100134
100135
100135
100136
100136
99979.1
100237
100451
100602
100707
100775
100816
100836
100840
100832
100815
100789
100757
100719
100677
100631
100584
100534
100484
100435
100387
100342
100300
100261
100227
100198
100176
100160
100149
100141
100135
100132
100130
100128
100128
100128
100128
100129
100130
100130
100131
100132
100132
100133
100133
100134
100134
100134
100135
100135
100007
100236
100427
100563
100658
100720
100759
100779
100786
100781
100767
100747
100720
100688
100651
100611
100568
100523
100478
100432
100387
100344
100304
100266
100232
100204
100182
100166
100155
100147
100141
100137
100134
100133
100132
100131
100131
100131
100132
100132
100132
100132
100133
100133
100133
100133
100133
100133
100133
100133
100028
100231
100402
100524
100610
100667
100704
100724
100731
100729
100719
100703
100681
100654
100623
100588
100550
100510
100469
100427
100385
100345
100306
100270
100237
100209
100188
100172
100161
100152
100146
100142
100139
100137
100135
100134
100134
100133
100133
100133
100133
100133
100133
100133
100133
100133
100133
100132
100132
100132
100043
100224
100377
100486
100564
100616
100651
100670
100678
100678
100671
100658
100640
100618
100592
100562
100529
100494
100457
100419
100381
100343
100307
100273
100241
100214
100193
100177
100166
100157
100151
100146
100143
100140
100138
100137
100136
100135
100135
100134
100134
100134
100133
100133
100133
100132
100132
100132
100131
100131
100054
100214
100351
100448
100519
100567
100599
100617
100626
100628
100623
100614
100600
100582
100560
100534
100506
100476
100443
100409
100374
100340
100306
100274
100244
100218
100197
100182
100170
100162
100155
100150
100146
100144
100141
100140
100138
100137
100136
100135
100135
100134
100133
100133
100132
100132
100131
100131
100130
100130
100060
100203
100324
100412
100476
100520
100549
100567
100577
100579
100577
100570
100559
100544
100526
100505
100482
100455
100427
100397
100366
100335
100304
100274
100245
100221
100201
100186
100174
100166
100159
100154
100150
100146
100144
100142
100140
100138
100137
100136
100135
100134
100133
100133
100132
100131
100131
100130
100130
100129
100063
100190
100298
100377
100435
100475
100503
100520
100529
100533
100532
100527
100519
100507
100493
100476
100456
100433
100409
100383
100356
100328
100300
100272
100246
100222
100203
100189
100177
100169
100162
100156
100152
100149
100146
100143
100141
100139
100138
100137
100135
100134
100133
100132
100131
100131
100130
100129
100129
100128
100063
100176
100273
100344
100397
100433
100458
100474
100484
100488
100489
100486
100480
100471
100459
100445
100429
100410
100390
100367
100343
100319
100294
100269
100244
100222
100205
100191
100180
100171
100164
100158
100154
100150
100147
100144
100142
100140
100138
100137
100135
100134
100133
100132
100131
100130
100129
100128
100128
100127
100061
100162
100249
100312
100360
100393
100417
100432
100441
100446
100448
100446
100442
100435
100426
100415
100402
100386
100369
100350
100330
100308
100286
100263
100242
100221
100205
100191
100181
100172
100165
100160
100155
100151
100148
100145
100142
100140
100138
100136
100135
100133
100132
100131
100130
100129
100128
100127
100126
100126
100058
100147
100225
100282
100326
100356
100378
100392
100402
100407
100409
100409
100406
100401
100394
100385
100375
100362
100348
100332
100315
100296
100277
100257
100237
100219
100203
100191
100181
100172
100166
100160
100155
100151
100148
100145
100142
100140
100138
100136
100134
100133
100131
100130
100129
100128
100127
100126
100125
100124
100053
100133
100203
100254
100294
100322
100342
100356
100365
100370
100373
100373
100372
100368
100363
100356
100348
100338
100326
100313
100299
100283
100266
100249
100231
100215
100201
100189
100179
100171
100165
100159
100155
100151
100147
100144
100141
100139
100137
100135
100133
100131
100130
100129
100127
100126
100125
100124
100123
100123
100048
100119
100182
100228
100264
100290
100308
100321
100330
100336
100339
100340
100339
100337
100334
100329
100322
100314
100305
100294
100282
100269
100254
100239
100224
100209
100197
100186
100177
100169
100163
100158
100153
100149
100145
100142
100140
100137
100135
100133
100131
100130
100128
100127
100126
100124
100123
100122
100121
100121
100043
100106
100162
100204
100237
100260
100277
100290
100298
100304
100308
100309
100309
100308
100306
100302
100297
100291
100283
100275
100265
100254
100242
100229
100216
100203
100191
100182
100173
100166
100160
100155
100151
100147
100143
100140
100137
100135
100133
100131
100129
100127
100126
100124
100123
100122
100121
100120
100119
100118
100037
100094
100144
100181
100211
100233
100249
100261
100269
100275
100279
100281
100281
100281
100280
100277
100273
100269
100263
100256
100248
100239
100229
100218
100207
100195
100185
100176
100169
100162
100156
100152
100147
100143
100140
100137
100135
100132
100130
100128
100126
100125
100123
100122
100121
100119
100118
100117
100117
100116
100031
100082
100127
100161
100188
100208
100223
100234
100242
100248
100252
100254
100256
100256
100255
100253
100251
100247
100243
100237
100231
100224
100215
100206
100197
100187
100178
100170
100163
100157
100152
100147
100143
100140
100136
100134
100131
100129
100127
100125
100123
100121
100120
100119
100117
100116
100115
100114
100113
100113
100026
100071
100112
100142
100167
100186
100200
100210
100218
100223
100227
100230
100232
100232
100232
100231
100230
100227
100224
100220
100214
100208
100202
100194
100186
100178
100170
100163
100157
100151
100146
100142
100138
100135
100132
100129
100127
100125
100123
100121
100119
100118
100116
100115
100114
100113
100112
100111
100110
100109
100021
100062
100098
100126
100148
100165
100178
100188
100195
100201
100205
100208
100210
100211
100211
100211
100210
100208
100206
100202
100198
100194
100188
100182
100175
100168
100161
100155
100149
100145
100140
100136
100133
100130
100127
100124
100122
100120
100118
100116
100115
100113
100112
100111
100110
100109
100108
100107
100106
100105
100016
100053
100085
100110
100131
100146
100159
100168
100175
100180
100184
100187
100190
100191
100192
100192
100191
100190
100189
100186
100183
100179
100175
100170
100164
100158
100152
100147
100142
100138
100134
100130
100127
100124
100121
100119
100117
100115
100113
100112
100110
100109
100108
100107
100106
100105
100104
100103
100102
100101
100012
100045
100074
100097
100115
100130
100141
100150
100156
100162
100166
100169
100171
100173
100174
100174
100174
100174
100173
100171
100169
100166
100162
100158
100153
100148
100143
100138
100134
100130
100127
100123
100121
100118
100116
100114
100112
100110
100108
100107
100105
100104
100103
100102
100101
100100
100099
100098
100098
100097
100009
100038
100064
100085
100102
100115
100125
100133
100140
100145
100149
100152
100154
100156
100158
100158
100159
100158
100158
100157
100155
100153
100150
100146
100142
100138
100134
100130
100126
100123
100119
100117
100114
100112
100110
100108
100106
100104
100103
100101
100100
100099
100098
100097
100096
100095
100094
100094
100093
100092
100006
100032
100055
100074
100089
100101
100111
100119
100125
100130
100134
100137
100139
100141
100143
100144
100144
100144
100144
100143
100142
100140
100138
100135
100132
100128
100125
100121
100118
100115
100112
100110
100107
100105
100103
100102
100100
100098
100097
100096
100095
100094
100093
100092
100091
100090
100090
100089
100088
100088
100003
100027
100047
100064
100078
100089
100098
100105
100111
100116
100120
100123
100125
100127
100129
100130
100131
100131
100131
100131
100130
100129
100127
100125
100122
100119
100116
100113
100110
100107
100105
100103
100101
100099
100097
100095
100094
100093
100091
100090
100089
100088
100087
100087
100086
100085
100085
100084
100083
100083
100001
100022
100041
100056
100068
100079
100087
100094
100099
100104
100107
100110
100113
100115
100116
100118
100119
100119
100119
100119
100119
100118
100116
100115
100112
100110
100107
100104
100102
100100
100098
100096
100094
100092
100091
100089
100088
100087
100086
100085
100084
100083
100082
100081
100081
100080
100080
100079
100079
100078
99999.6
100018
100035
100048
100060
100069
100077
100083
100088
100092
100096
100099
100101
100103
100105
100106
100107
100108
100108
100108
100108
100107
100106
100105
100103
100101
100099
100097
100094
100092
100091
100089
100087
100086
100085
100083
100082
100081
100080
100079
100078
100078
100077
100076
100076
100075
100075
100074
100074
100073
99998.3
100015
100030
100042
100052
100061
100068
100074
100078
100082
100086
100089
100091
100093
100095
100096
100097
100098
100098
100099
100098
100098
100097
100096
100095
100093
100091
100089
100087
100085
100084
100082
100081
100080
100078
100077
100076
100075
100075
100074
100073
100072
100072
100071
100071
100070
100070
100069
100069
100068
99997.4
100012
100025
100036
100046
100053
100060
100065
100070
100073
100077
100079
100082
100084
100085
100087
100088
100089
100089
100089
100089
100089
100089
100088
100087
100085
100083
100082
100080
100079
100077
100076
100075
100074
100073
100072
100071
100070
100069
100069
100068
100067
100067
100066
100066
100065
100065
100064
100064
100064
99996.7
100010
100021
100031
100040
100047
100053
100058
100062
100065
100068
100071
100073
100075
100077
100078
100079
100080
100081
100081
100081
100081
100081
100080
100079
100078
100076
100075
100074
100072
100071
100070
100069
100068
100067
100066
100065
100065
100064
100063
100063
100062
100062
100061
100061
100061
100060
100060
100060
100059
99996.2
100008
100018
100027
100035
100041
100046
100051
100055
100058
100061
100063
100066
100067
100069
100070
100071
100072
100073
100073
100074
100074
100073
100073
100072
100071
100070
100069
100068
100066
100065
100064
100063
100063
100062
100061
100060
100060
100059
100059
100058
100058
100057
100057
100056
100056
100056
100055
100055
100055
99996
100006
100015
100023
100030
100036
100041
100045
100049
100052
100054
100057
100059
100060
100062
100063
100064
100065
100066
100066
100067
100067
100067
100066
100066
100065
100064
100063
100062
100061
100060
100059
100058
100057
100057
100056
100055
100055
100054
100054
100053
100053
100053
100052
100052
100052
100051
100051
100051
100051
99995.9
100005
100013
100020
100026
100032
100036
100040
100043
100046
100048
100051
100052
100054
100056
100057
100058
100059
100059
100060
100060
100060
100060
100060
100060
100059
100058
100057
100056
100056
100055
100054
100053
100053
100052
100051
100051
100050
100050
100050
100049
100049
100048
100048
100048
100048
100047
100047
100047
100047
99995.9
100004
100011
100017
100023
100028
100032
100035
100038
100041
100043
100045
100047
100048
100050
100051
100052
100053
100054
100054
100054
100055
100055
100054
100054
100053
100053
100052
100051
100051
100050
100049
100049
100048
100048
100047
100047
100046
100046
100045
100045
100045
100044
100044
100044
100044
100043
100043
100043
100043
99996
100003
100010
100015
100020
100024
100028
100031
100034
100036
100038
100040
100042
100043
100045
100046
100047
100048
100048
100049
100049
100049
100049
100049
100049
100048
100048
100047
100047
100046
100045
100045
100044
100044
100043
100043
100043
100042
100042
100042
100041
100041
100041
100040
100040
100040
100040
100040
100040
100039
99996.2
100002
100008
100013
100017
100021
100024
100027
100030
100032
100034
100036
100037
100039
100040
100041
100042
100043
100043
100044
100044
100045
100045
100045
100044
100044
100043
100043
100042
100042
100041
100041
100040
100040
100040
100039
100039
100038
100038
100038
100038
100037
100037
100037
100037
100037
100036
100036
100036
100036
99996.4
100002
100007
100011
100015
100019
100022
100024
100026
100028
100030
100032
100033
100035
100036
100037
100038
100038
100039
100039
100040
100040
100040
100040
100040
100040
100039
100039
100038
100038
100037
100037
100037
100036
100036
100036
100035
100035
100035
100034
100034
100034
100034
100034
100033
100033
100033
100033
100033
100033
99996.7
100001
100006
100010
100013
100016
100019
100021
100023
100025
100027
100028
100030
100031
100032
100033
100034
100034
100035
100035
100036
100036
100036
100036
100036
100036
100035
100035
100035
100034
100034
100033
100033
100033
100033
100032
100032
100032
100031
100031
100031
100031
100031
100031
100030
100030
100030
100030
100030
100030
99997
100001
100005
100008
100012
100014
100017
100019
100021
100022
100024
100025
100026
100027
100028
100029
100030
100031
100031
100032
100032
100032
100032
100032
100032
100032
100032
100031
100031
100031
100031
100030
100030
100030
100029
100029
100029
100029
100028
100028
100028
100028
100028
100028
100028
100027
100027
100027
100027
100027
99997.3
100001
100004
100007
100010
100012
100015
100016
100018
100020
100021
100022
100023
100024
100025
100026
100027
100027
100028
100028
100029
100029
100029
100029
100029
100029
100029
100028
100028
100028
100027
100027
100027
100027
100026
100026
100026
100026
100026
100026
100025
100025
100025
100025
100025
100025
100025
100025
100024
100024
99997.6
100001
100004
100006
100009
100011
100013
100014
100016
100017
100019
100020
100021
100022
100022
100023
100024
100024
100025
100025
100025
100026
100026
100026
100026
100026
100026
100025
100025
100025
100025
100024
100024
100024
100024
100024
100023
100023
100023
100023
100023
100023
100023
100022
100022
100022
100022
100022
100022
100022
99997.8
100001
100003
100006
100008
100010
100011
100013
100014
100015
100016
100017
100018
100019
100020
100020
100021
100022
100022
100022
100023
100023
100023
100023
100023
100023
100023
100023
100022
100022
100022
100022
100022
100021
100021
100021
100021
100021
100021
100020
100020
100020
100020
100020
100020
100020
100020
100020
100020
100020
99998.1
100001
100003
100005
100007
100008
100010
100011
100012
100013
100014
100015
100016
100017
100017
100018
100019
100019
100019
100020
100020
100020
100020
100020
100020
100020
100020
100020
100020
100020
100019
100019
100019
100019
100019
100019
100019
100018
100018
100018
100018
100018
100018
100018
100018
100018
100018
100018
100018
100017
99998.4
100001
100002
100004
100006
100007
100009
100010
100011
100012
100013
100013
100014
100015
100015
100016
100016
100017
100017
100017
100018
100018
100018
100018
100018
100018
100018
100018
100017
100017
100017
100017
100017
100017
100017
100016
100016
100016
100016
100016
100016
100016
100016
100016
100016
100016
100016
100016
100016
100015
99998.7
100000
100002
100004
100005
100006
100007
100008
100009
100010
100011
100012
100012
100013
100013
100014
100014
100015
100015
100015
100015
100015
100016
100016
100016
100016
100015
100015
100015
100015
100015
100015
100015
100015
100014
100014
100014
100014
100014
100014
100014
100014
100014
100014
100014
100014
100014
100014
100014
100014
99998.9
100000
100002
100003
100004
100005
100006
100007
100008
100009
100010
100010
100011
100011
100012
100012
100012
100013
100013
100013
100013
100013
100013
100013
100013
100013
100013
100013
100013
100013
100013
100013
100013
100013
100012
100012
100012
100012
100012
100012
100012
100012
100012
100012
100012
100012
100012
100012
100012
100012
99999.1
100000
100002
100003
100004
100005
100005
100006
100007
100008
100008
100009
100009
100010
100010
100010
100011
100011
100011
100011
100011
100011
100011
100012
100011
100011
100011
100011
100011
100011
100011
100011
100011
100011
100011
100010
100010
100010
100010
100010
100010
100010
100010
100010
100010
100010
100010
100010
100010
100010
99999.3
100000
100001
100002
100003
100004
100005
100005
100006
100006
100007
100007
100008
100008
100008
100009
100009
100009
100009
100009
100009
100009
100010
100010
100010
100009
100009
100009
100009
100009
100009
100009
100009
100009
100009
100009
100009
100009
100009
100008
100008
100008
100008
100008
100008
100008
100008
100008
100008
100008
99999.5
100000
100001
100002
100003
100004
100004
100005
100005
100006
100006
100006
100006
100007
100007
100007
100007
100007
100007
100007
100007
100007
100007
100007
100007
100007
100007
100007
100007
100007
100007
100007
100007
100007
100007
100007
100006
100006
100006
100006
100006
100006
100006
100006
100006
100006
100006
100006
100006
100006
99999.6
100001
100001
100002
100003
100004
100004
100005
100005
100006
100006
100006
100006
100007
100007
100007
100007
100007
100007
100007
100007
100007
100007
100007
100007
100006
100006
100006
100006
100006
100006
100005
100005
100005
100005
100005
100005
100005
100005
100005
100005
100005
100005
100005
100005
100005
100005
100005
100005
100005
99999.9
100000
100001
100001
100001
100002
100002
100002
100003
100003
100003
100003
100003
100003
100003
100004
100004
100004
100004
100004
100004
100004
100004
100003
100003
100003
100003
100003
100003
100003
100003
100003
100003
100003
100002
100002
100002
100002
100002
100002
100002
100002
100002
100002
100002
100002
100002
100003
100003
100003
99999.4
99999
99998.6
99998.3
99998
99997.8
99997.6
99997.4
99997.2
99997.1
99997.1
99997
99997
99997
99997
99997.1
99997.2
99997.3
99997.4
99997.6
99997.7
99997.9
99998
99998.2
99998.4
99998.5
99998.6
99998.7
99998.8
99998.8
99998.9
99998.9
99998.9
99999
99999
99999
99999
99999
99999
99999
99999
99999
99999
99999
99999
99999
99999
99998.9
99998.9
99998.9
99998.7
99997.9
99997.1
99996.4
99995.8
99995.3
99994.9
99994.6
99994.3
99994.1
99994
99994
99993.9
99994
99994.1
99994.2
99994.4
99994.5
99994.7
99994.9
99995.2
99995.4
99995.6
99995.8
99996
99996.2
99996.3
99996.5
99996.6
99996.7
99996.8
99996.9
99996.9
99997
99997.1
99997.1
99997.2
99997.2
99997.2
99997.3
99997.3
99997.3
99997.4
99997.4
99997.4
99997.4
99997.4
99997.4
99997.5
99997.5
99998.6
99997.7
99996.9
99996.2
99995.5
99995
99994.6
99994.2
99993.9
99993.7
99993.5
99993.3
99993.2
99993.1
99993.1
99993.1
99993.1
99993.1
99993.1
99993.2
99993.3
99993.4
99993.5
99993.6
99993.8
99993.9
99994.1
99994.3
99994.4
99994.5
99994.7
99994.8
99994.9
99995
99995.1
99995.2
99995.2
99995.3
99995.4
99995.4
99995.5
99995.5
99995.5
99995.6
99995.6
99995.6
99995.7
99995.7
99995.7
99995.7
99998.2
99997.2
99996.3
99995.5
99994.8
99994.1
99993.5
99993
99992.6
99992.2
99991.8
99991.6
99991.3
99991.1
99991
99990.9
99990.8
99990.8
99990.8
99990.8
99990.9
99991
99991.1
99991.3
99991.5
99991.7
99991.9
99992.1
99992.3
99992.4
99992.6
99992.8
99992.9
99993
99993.2
99993.3
99993.4
99993.5
99993.6
99993.6
99993.7
99993.8
99993.9
99993.9
99994
99994
99994.1
99994.1
99994.1
99994.2
99997.8
99996.5
99995.4
99994.4
99993.5
99992.7
99992
99991.3
99990.8
99990.3
99989.9
99989.6
99989.3
99989.1
99988.9
99988.7
99988.6
99988.6
99988.6
99988.6
99988.6
99988.7
99988.8
99989
99989.2
99989.4
99989.7
99989.9
99990.1
99990.3
99990.5
99990.7
99990.9
99991.1
99991.2
99991.3
99991.5
99991.6
99991.7
99991.8
99991.9
99992
99992.1
99992.1
99992.2
99992.3
99992.3
99992.4
99992.5
99992.5
99997.2
99995.8
99994.4
99993.2
99992.2
99991.2
99990.4
99989.7
99989
99988.5
99988
99987.6
99987.2
99986.9
99986.7
99986.5
99986.4
99986.3
99986.2
99986.2
99986.2
99986.3
99986.4
99986.6
99986.8
99987.1
99987.4
99987.6
99987.9
99988.2
99988.4
99988.6
99988.8
99989
99989.2
99989.4
99989.5
99989.7
99989.8
99990
99990.1
99990.2
99990.3
99990.4
99990.5
99990.6
99990.6
99990.7
99990.8
99990.8
99996.7
99995
99993.4
99992
99990.8
99989.7
99988.7
99987.9
99987.1
99986.5
99985.9
99985.4
99985
99984.6
99984.3
99984.1
99983.9
99983.7
99983.7
99983.6
99983.7
99983.7
99983.9
99984.1
99984.3
99984.6
99985
99985.3
99985.6
99985.9
99986.2
99986.4
99986.7
99986.9
99987.1
99987.3
99987.5
99987.7
99987.9
99988
99988.2
99988.3
99988.4
99988.5
99988.6
99988.7
99988.8
99988.9
99989
99989.1
99996.1
99994.1
99992.3
99990.7
99989.3
99988
99986.9
99985.9
99985
99984.2
99983.6
99983
99982.5
99982.1
99981.7
99981.4
99981.2
99981
99980.9
99980.9
99980.9
99981
99981.2
99981.4
99981.7
99982
99982.4
99982.8
99983.2
99983.5
99983.8
99984.1
99984.4
99984.7
99985
99985.2
99985.4
99985.6
99985.8
99986
99986.2
99986.3
99986.5
99986.6
99986.7
99986.8
99987
99987.1
99987.2
99987.2
99995.5
99993.2
99991.1
99989.2
99987.5
99986.1
99984.8
99983.6
99982.6
99981.8
99981
99980.4
99979.8
99979.3
99978.9
99978.6
99978.3
99978.1
99978
99977.9
99978
99978.1
99978.2
99978.5
99978.8
99979.3
99979.7
99980.1
99980.6
99981
99981.3
99981.7
99982
99982.4
99982.7
99982.9
99983.2
99983.4
99983.6
99983.9
99984.1
99984.2
99984.4
99984.6
99984.7
99984.8
99985
99985.1
99985.2
99985.3
99994.7
99992.1
99989.7
99987.5
99985.6
99983.9
99982.5
99981.2
99980
99979
99978.2
99977.4
99976.8
99976.2
99975.8
99975.4
99975.1
99974.9
99974.8
99974.7
99974.7
99974.9
99975.1
99975.4
99975.8
99976.3
99976.8
99977.3
99977.8
99978.2
99978.7
99979.1
99979.5
99979.9
99980.2
99980.5
99980.8
99981.1
99981.4
99981.6
99981.8
99982
99982.2
99982.4
99982.6
99982.7
99982.9
99983
99983.1
99983.3
99994
99990.9
99988.2
99985.7
99983.5
99981.6
99979.9
99978.4
99977.1
99976
99975
99974.2
99973.5
99972.9
99972.3
99971.9
99971.6
99971.4
99971.2
99971.2
99971.2
99971.4
99971.6
99972
99972.4
99973
99973.6
99974.2
99974.8
99975.3
99975.8
99976.3
99976.8
99977.2
99977.6
99977.9
99978.3
99978.6
99978.9
99979.2
99979.4
99979.7
99979.9
99980.1
99980.3
99980.5
99980.7
99980.8
99981
99981.1
99993.1
99989.6
99986.5
99983.6
99981.1
99978.9
99977
99975.3
99973.9
99972.6
99971.6
99970.6
99969.8
99969.1
99968.6
99968.1
99967.7
99967.5
99967.3
99967.3
99967.3
99967.5
99967.8
99968.3
99968.8
99969.5
99970.2
99970.9
99971.5
99972.1
99972.7
99973.3
99973.8
99974.3
99974.8
99975.2
99975.6
99975.9
99976.3
99976.6
99976.9
99977.2
99977.4
99977.7
99977.9
99978.1
99978.3
99978.5
99978.6
99978.8
99992.2
99988.2
99984.6
99981.3
99978.4
99975.9
99973.8
99971.9
99970.3
99968.9
99967.7
99966.6
99965.7
99965
99964.3
99963.8