/*--------------------------------*- C++ -*----------------------------------*\
  =========                 |
  \\      /  F ield         | OpenFOAM: The Open Source CFD Toolbox
   \\    /   O peration     | Website:  https://openfoam.org
    \\  /    A nd           | Version:  10
     \\/     M anipulation  |
\*---------------------------------------------------------------------------*/
FoamFile
{
    format      ascii;
    class       volScalarField;
    location    "316";
    object      rho;
}
// * * * * * * * * * * * * * * * * * * * * * * * * * * * * * * * * * * * * * //

dimensions      [1 -3 0 0 0 0 0];

internalField   nonuniform List<scalar> 
14000
(
1.13252
1.14938
1.16083
1.16694
1.16974
1.17065
1.17068
1.17022
1.16947
1.16861
1.1677
1.16677
1.16586
1.16498
1.16414
1.16334
1.16259
1.16189
1.16124
1.16065
1.16012
1.15967
1.15928
1.15895
1.15867
1.15843
1.15825
1.15811
1.158
1.15792
1.15787
1.15784
1.15783
1.15784
1.15786
1.15789
1.15792
1.15797
1.15802
1.15807
1.15812
1.15818
1.15824
1.1583
1.15837
1.15843
1.1585
1.15856
1.15864
1.15873
1.13535
1.15063
1.1612
1.167
1.16973
1.17063
1.17068
1.17025
1.16954
1.16872
1.16785
1.16697
1.16609
1.16523
1.1644
1.16361
1.16285
1.16214
1.16148
1.16088
1.16034
1.15987
1.15946
1.15911
1.15882
1.15857
1.15837
1.15822
1.15811
1.15803
1.15798
1.15794
1.15793
1.15793
1.15795
1.15798
1.15801
1.15805
1.1581
1.15815
1.1582
1.15826
1.15832
1.15838
1.15844
1.1585
1.15858
1.15862
1.15872
1.15869
1.13705
1.15137
1.16142
1.16703
1.1697
1.17061
1.17067
1.17026
1.16956
1.16875
1.1679
1.16703
1.16618
1.16536
1.16457
1.16383
1.16312
1.16245
1.16183
1.16126
1.16074
1.16027
1.15985
1.15949
1.15917
1.1589
1.15868
1.15852
1.1584
1.1583
1.15824
1.1582
1.15818
1.15817
1.15818
1.1582
1.15822
1.15826
1.1583
1.15834
1.15839
1.15844
1.1585
1.15855
1.15861
1.15867
1.15874
1.15877
1.15886
1.1588
1.13852
1.15207
1.16163
1.16703
1.16965
1.17057
1.17065
1.17025
1.16958
1.16878
1.16793
1.16707
1.16622
1.16541
1.16462
1.16388
1.16319
1.16254
1.16195
1.16142
1.16095
1.16054
1.16018
1.15987
1.15959
1.15934
1.15914
1.15898
1.15885
1.15875
1.15868
1.15863
1.1586
1.15858
1.15858
1.15859
1.15861
1.15863
1.15866
1.1587
1.15874
1.15878
1.15883
1.15888
1.15894
1.15898
1.15905
1.15907
1.15916
1.15911
1.14007
1.15279
1.16184
1.16703
1.16959
1.17051
1.17061
1.17024
1.16958
1.1688
1.16796
1.16711
1.16626
1.16545
1.16466
1.16392
1.16323
1.16258
1.16199
1.16146
1.16099
1.16059
1.16024
1.15996
1.15972
1.15952
1.15937
1.15925
1.15916
1.15909
1.15905
1.15902
1.15901
1.15901
1.15903
1.15905
1.15907
1.1591
1.15914
1.15918
1.15922
1.15927
1.15931
1.15936
1.15941
1.15946
1.15951
1.15954
1.15961
1.15961
1.14163
1.15351
1.16205
1.16701
1.16951
1.17044
1.17056
1.17022
1.16958
1.16881
1.16799
1.16714
1.1663
1.16549
1.16471
1.16397
1.16327
1.16263
1.16204
1.1615
1.16103
1.16062
1.16027
1.15999
1.15975
1.15955
1.1594
1.15929
1.15921
1.15916
1.15912
1.15911
1.15911
1.15913
1.15916
1.15919
1.15923
1.15928
1.15933
1.15938
1.15944
1.15949
1.15955
1.15961
1.15967
1.15972
1.15978
1.15983
1.15989
1.15994
1.14319
1.15424
1.16225
1.16697
1.16941
1.17034
1.17049
1.17017
1.16957
1.16882
1.16801
1.16717
1.16634
1.16553
1.16475
1.16402
1.16332
1.16268
1.16208
1.16155
1.16107
1.16066
1.16031
1.16002
1.15977
1.15957
1.15942
1.15931
1.15923
1.15918
1.15915
1.15913
1.15914
1.15915
1.15918
1.15921
1.15926
1.1593
1.15935
1.15941
1.15946
1.15952
1.15958
1.15964
1.1597
1.15976
1.15982
1.15987
1.15993
1.15998
1.14474
1.15496
1.16245
1.16692
1.16928
1.17023
1.1704
1.17011
1.16954
1.16881
1.16802
1.16719
1.16637
1.16557
1.1648
1.16406
1.16337
1.16273
1.16213
1.16159
1.16111
1.1607
1.16035
1.16005
1.1598
1.1596
1.15945
1.15933
1.15925
1.1592
1.15917
1.15916
1.15916
1.15918
1.1592
1.15924
1.15928
1.15932
1.15937
1.15943
1.15948
1.15954
1.1596
1.15966
1.15971
1.15977
1.15982
1.15988
1.15993
1.15997
1.14625
1.15565
1.16262
1.16685
1.16913
1.17008
1.17028
1.17003
1.16949
1.16879
1.16802
1.16721
1.1664
1.16561
1.16484
1.16411
1.16342
1.16278
1.16218
1.16164
1.16116
1.16074
1.16039
1.16008
1.15983
1.15963
1.15947
1.15936
1.15928
1.15922
1.15919
1.15918
1.15918
1.1592
1.15923
1.15926
1.1593
1.15935
1.1594
1.15945
1.1595
1.15956
1.15961
1.15967
1.15972
1.15978
1.15983
1.15987
1.15992
1.15996
1.14771
1.15633
1.16279
1.16676
1.16895
1.1699
1.17014
1.16992
1.16942
1.16875
1.16801
1.16722
1.16643
1.16565
1.16489
1.16416
1.16347
1.16283
1.16224
1.1617
1.16121
1.16079
1.16043
1.16012
1.15987
1.15966
1.1595
1.15939
1.15931
1.15925
1.15922
1.15921
1.15921
1.15923
1.15925
1.15929
1.15933
1.15937
1.15942
1.15947
1.15952
1.15957
1.15963
1.15968
1.15973
1.15978
1.15983
1.15987
1.15991
1.15994
1.14911
1.15697
1.16293
1.16664
1.16875
1.16969
1.16996
1.16978
1.16932
1.16869
1.16798
1.16722
1.16644
1.16567
1.16493
1.16421
1.16352
1.16288
1.16229
1.16175
1.16127
1.16084
1.16047
1.16016
1.1599
1.15969
1.15953
1.15942
1.15934
1.15928
1.15925
1.15924
1.15924
1.15925
1.15928
1.15931
1.15935
1.15939
1.15944
1.15949
1.15954
1.15959
1.15964
1.15969
1.15974
1.15978
1.15982
1.15986
1.15989
1.15992
1.15043
1.15757
1.16305
1.1665
1.16851
1.16945
1.16974
1.16961
1.16919
1.16861
1.16793
1.1672
1.16644
1.16569
1.16496
1.16425
1.16357
1.16294
1.16235
1.16181
1.16132
1.16089
1.16052
1.16021
1.15994
1.15973
1.15956
1.15945
1.15937
1.15931
1.15928
1.15927
1.15927
1.15928
1.15931
1.15934
1.15938
1.15942
1.15946
1.15951
1.15956
1.15961
1.15965
1.1597
1.15974
1.15978
1.15982
1.15985
1.15988
1.15991
1.15167
1.15812
1.16314
1.16634
1.16825
1.16917
1.16949
1.1694
1.16903
1.1685
1.16785
1.16716
1.16643
1.1657
1.16498
1.16429
1.16362
1.16299
1.1624
1.16186
1.16138
1.16095
1.16057
1.16025
1.15998
1.15976
1.1596
1.15948
1.1594
1.15935
1.15931
1.1593
1.1593
1.15932
1.15934
1.15937
1.15941
1.15945
1.15949
1.15953
1.15958
1.15962
1.15966
1.15971
1.15974
1.15978
1.15981
1.15984
1.15987
1.15989
1.1528
1.15861
1.1632
1.16615
1.16795
1.16886
1.1692
1.16915
1.16884
1.16835
1.16775
1.16709
1.1664
1.1657
1.165
1.16432
1.16366
1.16304
1.16246
1.16192
1.16144
1.161
1.16063
1.1603
1.16003
1.1598
1.15964
1.15952
1.15944
1.15938
1.15935
1.15934
1.15934
1.15935
1.15937
1.1594
1.15943
1.15947
1.15951
1.15955
1.15959
1.15964
1.15967
1.15971
1.15975
1.15978
1.15981
1.15983
1.15985
1.15987
1.15384
1.15906
1.16323
1.16594
1.16763
1.16851
1.16887
1.16887
1.1686
1.16817
1.16762
1.167
1.16635
1.16568
1.165
1.16434
1.1637
1.16309
1.16251
1.16198
1.1615
1.16106
1.16068
1.16035
1.16008
1.15985
1.15968
1.15956
1.15948
1.15942
1.15939
1.15937
1.15937
1.15938
1.1594
1.15943
1.15946
1.1595
1.15954
1.15957
1.15961
1.15965
1.15968
1.15972
1.15975
1.15977
1.1598
1.15982
1.15984
1.15986
1.15476
1.15944
1.16322
1.1657
1.16729
1.16813
1.16851
1.16854
1.16833
1.16795
1.16745
1.16688
1.16627
1.16563
1.16499
1.16435
1.16372
1.16313
1.16256
1.16204
1.16155
1.16112
1.16074
1.16041
1.16013
1.15989
1.15972
1.1596
1.15952
1.15946
1.15943
1.15941
1.15941
1.15942
1.15944
1.15946
1.15949
1.15952
1.15956
1.15959
1.15963
1.15966
1.15969
1.15972
1.15975
1.15977
1.15979
1.15981
1.15983
1.15984
1.15558
1.15976
1.16318
1.16545
1.16692
1.16773
1.16811
1.16818
1.16802
1.16769
1.16725
1.16673
1.16616
1.16557
1.16495
1.16434
1.16374
1.16316
1.16261
1.16209
1.16161
1.16118
1.1608
1.16046
1.16018
1.15994
1.15977
1.15965
1.15956
1.15951
1.15947
1.15945
1.15945
1.15946
1.15947
1.1595
1.15952
1.15955
1.15958
1.15961
1.15964
1.15967
1.1597
1.15972
1.15974
1.15976
1.15978
1.1598
1.15981
1.15982
1.1563
1.16003
1.16312
1.16517
1.16653
1.1673
1.16769
1.16779
1.16767
1.1674
1.16701
1.16655
1.16603
1.16547
1.1649
1.16432
1.16374
1.16318
1.16264
1.16213
1.16166
1.16124
1.16086
1.16052
1.16023
1.15999
1.15982
1.1597
1.15961
1.15955
1.15951
1.1595
1.15949
1.1595
1.15951
1.15953
1.15955
1.15958
1.1596
1.15963
1.15965
1.15968
1.1597
1.15972
1.15974
1.15976
1.15977
1.15979
1.1598
1.15981
1.15692
1.16024
1.16302
1.16488
1.16613
1.16686
1.16725
1.16737
1.16729
1.16707
1.16674
1.16633
1.16586
1.16535
1.16482
1.16427
1.16372
1.16319
1.16267
1.16217
1.16171
1.16129
1.16091
1.16058
1.16029
1.16005
1.15987
1.15974
1.15966
1.1596
1.15956
1.15954
1.15953
1.15953
1.15954
1.15956
1.15958
1.1596
1.15962
1.15965
1.15967
1.15969
1.15971
1.15972
1.15974
1.15975
1.15977
1.15978
1.15978
1.15979
1.15745
1.1604
1.16289
1.16458
1.16573
1.16641
1.16679
1.16693
1.16689
1.16671
1.16643
1.16608
1.16566
1.1652
1.16471
1.1642
1.16369
1.16318
1.16268
1.16221
1.16176
1.16134
1.16097
1.16063
1.16034
1.1601
1.15992
1.1598
1.15971
1.15964
1.1596
1.15958
1.15957
1.15957
1.15958
1.15959
1.15961
1.15963
1.15964
1.15966
1.15968
1.1597
1.15971
1.15972
1.15974
1.15975
1.15976
1.15977
1.15977
1.15978
1.15788
1.16051
1.16275
1.16426
1.16531
1.16595
1.16632
1.16647
1.16646
1.16633
1.1661
1.16579
1.16543
1.16502
1.16457
1.16411
1.16363
1.16315
1.16268
1.16223
1.16179
1.16139
1.16102
1.16069
1.1604
1.16015
1.15997
1.15985
1.15976
1.15969
1.15965
1.15963
1.15961
1.15961
1.15962
1.15962
1.15964
1.15965
1.15966
1.15968
1.15969
1.1597
1.15971
1.15972
1.15973
1.15974
1.15975
1.15975
1.15976
1.15976
1.15824
1.16057
1.16258
1.16394
1.1649
1.16549
1.16584
1.166
1.16602
1.16592
1.16574
1.16548
1.16517
1.16481
1.16441
1.16399
1.16355
1.16311
1.16267
1.16223
1.16182
1.16143
1.16106
1.16074
1.16045
1.16021
1.16003
1.1599
1.15981
1.15974
1.1597
1.15967
1.15966
1.15965
1.15965
1.15965
1.15966
1.15967
1.15968
1.15969
1.1597
1.15971
1.15972
1.15972
1.15973
1.15974
1.15974
1.15975
1.15975
1.15975
1.15853
1.16059
1.16239
1.16361
1.16449
1.16503
1.16537
1.16553
1.16557
1.1655
1.16536
1.16515
1.16488
1.16457
1.16422
1.16385
1.16345
1.16304
1.16263
1.16222
1.16183
1.16145
1.1611
1.16078
1.1605
1.16026
1.16008
1.15995
1.15986
1.15979
1.15974
1.15971
1.1597
1.15969
1.15968
1.15968
1.15969
1.15969
1.1597
1.1597
1.15971
1.15971
1.15972
1.15972
1.15973
1.15973
1.15973
1.15974
1.15974
1.15974
1.15875
1.16058
1.16219
1.16329
1.16408
1.16458
1.1649
1.16507
1.16512
1.16508
1.16497
1.1648
1.16457
1.16431
1.16401
1.16368
1.16332
1.16295
1.16257
1.1622
1.16183
1.16147
1.16113
1.16082
1.16054
1.16031
1.16013
1.16
1.1599
1.15984
1.15979
1.15976
1.15973
1.15972
1.15971
1.15971
1.15971
1.15971
1.15971
1.15972
1.15972
1.15972
1.15972
1.15972
1.15973
1.15973
1.15973
1.15973
1.15973
1.15973
1.15892
1.16054
1.16198
1.16296
1.16368
1.16414
1.16445
1.16461
1.16467
1.16465
1.16457
1.16443
1.16425
1.16403
1.16377
1.16348
1.16317
1.16284
1.1625
1.16215
1.16181
1.16147
1.16115
1.16086
1.16058
1.16035
1.16018
1.16005
1.15995
1.15988
1.15983
1.1598
1.15977
1.15975
1.15974
1.15974
1.15973
1.15973
1.15973
1.15973
1.15973
1.15972
1.15972
1.15972
1.15972
1.15972
1.15972
1.15972
1.15972
1.15972
1.15904
1.16048
1.16176
1.16265
1.1633
1.16372
1.164
1.16416
1.16423
1.16423
1.16417
1.16406
1.16392
1.16373
1.16352
1.16327
1.163
1.16271
1.1624
1.16209
1.16177
1.16146
1.16116
1.16088
1.16062
1.16039
1.16022
1.16009
1.15999
1.15992
1.15987
1.15983
1.1598
1.15978
1.15977
1.15976
1.15975
1.15974
1.15974
1.15974
1.15973
1.15973
1.15973
1.15972
1.15972
1.15972
1.15972
1.15971
1.15971
1.15971
1.15912
1.1604
1.16155
1.16233
1.16292
1.16331
1.16358
1.16373
1.1638
1.16381
1.16378
1.1637
1.16358
1.16343
1.16325
1.16304
1.16281
1.16256
1.16229
1.16201
1.16172
1.16143
1.16116
1.16089
1.16064
1.16042
1.16026
1.16013
1.16003
1.15996
1.15991
1.15987
1.15983
1.15981
1.15979
1.15978
1.15977
1.15976
1.15975
1.15974
1.15974
1.15973
1.15973
1.15972
1.15972
1.15971
1.15971
1.15971
1.1597
1.1597
1.15917
1.1603
1.16133
1.16203
1.16257
1.16292
1.16317
1.16331
1.16339
1.16341
1.16339
1.16333
1.16324
1.16312
1.16298
1.1628
1.16261
1.16239
1.16215
1.16191
1.16165
1.16139
1.16114
1.16089
1.16065
1.16045
1.16028
1.16016
1.16007
1.15999
1.15994
1.15989
1.15986
1.15983
1.15981
1.1598
1.15978
1.15977
1.15976
1.15975
1.15974
1.15973
1.15973
1.15972
1.15972
1.15971
1.15971
1.1597
1.1597
1.15969
1.15919
1.16019
1.16111
1.16174
1.16223
1.16255
1.16278
1.16292
1.163
1.16303
1.16302
1.16298
1.16291
1.16282
1.1627
1.16256
1.16239
1.16221
1.16201
1.16179
1.16156
1.16133
1.1611
1.16087
1.16065
1.16046
1.1603
1.16018
1.16009
1.16002
1.15996
1.15992
1.15988
1.15985
1.15983
1.15981
1.15979
1.15978
1.15976
1.15975
1.15974
1.15973
1.15973
1.15972
1.15971
1.1597
1.1597
1.15969
1.15969
1.15968
1.15919
1.16008
1.1609
1.16147
1.16191
1.1622
1.16241
1.16255
1.16262
1.16266
1.16266
1.16264
1.16259
1.16251
1.16242
1.1623
1.16217
1.16202
1.16185
1.16166
1.16146
1.16126
1.16105
1.16084
1.16064
1.16046
1.16032
1.1602
1.16011
1.16004
1.15998
1.15993
1.1599
1.15987
1.15984
1.15982
1.1598
1.15978
1.15977
1.15975
1.15974
1.15973
1.15972
1.15971
1.15971
1.1597
1.15969
1.15969
1.15968
1.15967
1.15917
1.15996
1.1607
1.1612
1.16161
1.16188
1.16207
1.1622
1.16227
1.16231
1.16232
1.16231
1.16227
1.16222
1.16215
1.16205
1.16194
1.16182
1.16168
1.16152
1.16135
1.16117
1.16099
1.1608
1.16062
1.16045
1.16032
1.16021
1.16012
1.16005
1.15999
1.15994
1.15991
1.15987
1.15985
1.15982
1.1598
1.15978
1.15977
1.15975
1.15974
1.15973
1.15972
1.15971
1.1597
1.15969
1.15968
1.15968
1.15967
1.15966
1.15914
1.15984
1.1605
1.16096
1.16132
1.16157
1.16175
1.16187
1.16194
1.16199
1.162
1.162
1.16198
1.16194
1.16188
1.16181
1.16172
1.16162
1.1615
1.16137
1.16122
1.16107
1.16091
1.16075
1.16058
1.16043
1.1603
1.1602
1.16012
1.16005
1.15999
1.15995
1.15991
1.15987
1.15985
1.15982
1.1598
1.15978
1.15976
1.15975
1.15973
1.15972
1.15971
1.1597
1.15969
1.15968
1.15967
1.15967
1.15966
1.15965
1.1591
1.15972
1.16031
1.16072
1.16106
1.16128
1.16145
1.16156
1.16164
1.16168
1.1617
1.16171
1.16169
1.16167
1.16162
1.16157
1.1615
1.16142
1.16132
1.16121
1.16109
1.16096
1.16082
1.16068
1.16054
1.1604
1.16028
1.16019
1.16011
1.16004
1.15999
1.15994
1.1599
1.15987
1.15984
1.15981
1.15979
1.15977
1.15975
1.15974
1.15972
1.15971
1.1597
1.15969
1.15968
1.15967
1.15966
1.15965
1.15964
1.15964
1.15905
1.15961
1.16014
1.16051
1.16081
1.16102
1.16117
1.16128
1.16135
1.1614
1.16142
1.16143
1.16143
1.16141
1.16138
1.16134
1.16129
1.16122
1.16114
1.16105
1.16095
1.16084
1.16073
1.1606
1.16048
1.16036
1.16025
1.16016
1.16009
1.16002
1.15997
1.15993
1.15989
1.15986
1.15983
1.1598
1.15978
1.15976
1.15974
1.15972
1.15971
1.1597
1.15968
1.15967
1.15966
1.15965
1.15964
1.15964
1.15963
1.15962
1.159
1.1595
1.15997
1.16031
1.16058
1.16077
1.16092
1.16102
1.16109
1.16114
1.16117
1.16118
1.16118
1.16117
1.16115
1.16112
1.16108
1.16103
1.16097
1.16089
1.16081
1.16072
1.16062
1.16052
1.16041
1.1603
1.16021
1.16012
1.16006
1.16
1.15995
1.15991
1.15987
1.15984
1.15981
1.15978
1.15976
1.15974
1.15972
1.1597
1.15969
1.15968
1.15966
1.15965
1.15964
1.15963
1.15962
1.15962
1.15961
1.1596
1.15895
1.1594
1.15982
1.16012
1.16037
1.16055
1.16068
1.16078
1.16085
1.16089
1.16093
1.16094
1.16095
1.16095
1.16093
1.16091
1.16088
1.16084
1.1608
1.16074
1.16067
1.1606
1.16051
1.16043
1.16033
1.16024
1.16015
1.16008
1.16002
1.15996
1.15992
1.15988
1.15984
1.15981
1.15978
1.15976
1.15974
1.15972
1.1597
1.15968
1.15967
1.15965
1.15964
1.15963
1.15962
1.15961
1.1596
1.15959
1.15959
1.15958
1.1589
1.1593
1.15968
1.15995
1.16018
1.16034
1.16047
1.16056
1.16063
1.16067
1.1607
1.16072
1.16074
1.16074
1.16073
1.16072
1.1607
1.16067
1.16063
1.16059
1.16053
1.16047
1.1604
1.16033
1.16025
1.16017
1.16009
1.16003
1.15997
1.15992
1.15988
1.15984
1.15981
1.15978
1.15975
1.15973
1.15971
1.15969
1.15967
1.15965
1.15964
1.15963
1.15962
1.1596
1.15959
1.15959
1.15958
1.15957
1.15956
1.15955
1.15886
1.15921
1.15955
1.1598
1.16001
1.16016
1.16027
1.16036
1.16042
1.16047
1.1605
1.16052
1.16054
1.16054
1.16054
1.16054
1.16052
1.1605
1.16047
1.16044
1.1604
1.16035
1.16029
1.16023
1.16016
1.16009
1.16003
1.15997
1.15992
1.15987
1.15983
1.1598
1.15977
1.15974
1.15971
1.15969
1.15967
1.15965
1.15964
1.15962
1.15961
1.1596
1.15958
1.15957
1.15956
1.15956
1.15955
1.15954
1.15953
1.15953
1.15881
1.15913
1.15944
1.15966
1.15985
1.15999
1.16009
1.16018
1.16024
1.16028
1.16032
1.16034
1.16036
1.16037
1.16037
1.16037
1.16036
1.16034
1.16032
1.1603
1.16026
1.16022
1.16018
1.16013
1.16007
1.16001
1.15996
1.1599
1.15986
1.15982
1.15978
1.15975
1.15972
1.1597
1.15967
1.15965
1.15963
1.15962
1.1596
1.15959
1.15957
1.15956
1.15955
1.15954
1.15953
1.15952
1.15952
1.15951
1.1595
1.1595
1.15877
1.15906
1.15933
1.15953
1.15971
1.15983
1.15993
1.16001
1.16007
1.16011
1.16015
1.16017
1.16019
1.1602
1.16021
1.16021
1.16021
1.1602
1.16018
1.16016
1.16014
1.16011
1.16007
1.16003
1.15998
1.15993
1.15988
1.15984
1.1598
1.15976
1.15973
1.1597
1.15967
1.15965
1.15963
1.15961
1.15959
1.15957
1.15956
1.15955
1.15954
1.15952
1.15951
1.1595
1.1595
1.15949
1.15948
1.15947
1.15947
1.15946
1.15874
1.15899
1.15924
1.15942
1.15958
1.1597
1.15979
1.15986
1.15992
1.15996
1.15999
1.16002
1.16004
1.16005
1.16006
1.16007
1.16006
1.16006
1.16005
1.16004
1.16002
1.15999
1.15996
1.15993
1.15989
1.15985
1.15981
1.15977
1.15973
1.1597
1.15967
1.15964
1.15962
1.1596
1.15958
1.15956
1.15955
1.15953
1.15952
1.15951
1.15949
1.15948
1.15947
1.15947
1.15946
1.15945
1.15944
1.15944
1.15943
1.15943
1.15871
1.15894
1.15916
1.15932
1.15946
1.15957
1.15966
1.15973
1.15978
1.15982
1.15985
1.15988
1.1599
1.15991
1.15993
1.15993
1.15993
1.15993
1.15993
1.15992
1.1599
1.15988
1.15986
1.15983
1.1598
1.15976
1.15973
1.1597
1.15966
1.15964
1.15961
1.15959
1.15957
1.15955
1.15953
1.15951
1.1595
1.15948
1.15947
1.15946
1.15945
1.15944
1.15943
1.15942
1.15942
1.15941
1.1594
1.1594
1.15939
1.15939
1.15868
1.15889
1.15908
1.15923
1.15936
1.15946
1.15954
1.1596
1.15965
1.15969
1.15973
1.15975
1.15977
1.15979
1.1598
1.15981
1.15981
1.15982
1.15981
1.15981
1.1598
1.15978
1.15976
1.15974
1.15971
1.15968
1.15965
1.15962
1.1596
1.15957
1.15955
1.15953
1.15951
1.15949
1.15948
1.15946
1.15945
1.15944
1.15943
1.15942
1.15941
1.1594
1.15939
1.15938
1.15938
1.15937
1.15936
1.15936
1.15935
1.15935
1.15866
1.15884
1.15902
1.15915
1.15927
1.15936
1.15944
1.15949
1.15954
1.15958
1.15961
1.15964
1.15966
1.15968
1.15969
1.1597
1.1597
1.15971
1.15971
1.1597
1.1597
1.15969
1.15967
1.15965
1.15963
1.15961
1.15958
1.15955
1.15953
1.15951
1.15949
1.15947
1.15945
1.15944
1.15942
1.15941
1.1594
1.15939
1.15938
1.15937
1.15936
1.15935
1.15935
1.15934
1.15933
1.15933
1.15932
1.15932
1.15931
1.15931
1.15864
1.1588
1.15896
1.15908
1.15919
1.15927
1.15934
1.1594
1.15944
1.15948
1.15951
1.15953
1.15955
1.15957
1.15959
1.1596
1.1596
1.15961
1.15961
1.15961
1.1596
1.1596
1.15958
1.15957
1.15955
1.15953
1.15951
1.15949
1.15947
1.15945
1.15943
1.15941
1.1594
1.15939
1.15937
1.15936
1.15935
1.15934
1.15933
1.15932
1.15932
1.15931
1.1593
1.1593
1.15929
1.15929
1.15928
1.15928
1.15927
1.15927
1.15862
1.15877
1.15891
1.15902
1.15912
1.15919
1.15926
1.15931
1.15935
1.15939
1.15942
1.15944
1.15946
1.15948
1.15949
1.1595
1.15951
1.15952
1.15952
1.15952
1.15952
1.15951
1.1595
1.15949
1.15948
1.15946
1.15944
1.15942
1.1594
1.15939
1.15937
1.15936
1.15934
1.15933
1.15932
1.15931
1.1593
1.15929
1.15929
1.15928
1.15927
1.15926
1.15926
1.15925
1.15925
1.15924
1.15924
1.15924
1.15923
1.15923
1.15861
1.15874
1.15887
1.15897
1.15905
1.15913
1.15918
1.15923
1.15927
1.1593
1.15933
1.15936
1.15937
1.15939
1.15941
1.15942
1.15943
1.15943
1.15944
1.15944
1.15944
1.15943
1.15943
1.15942
1.15941
1.15939
1.15937
1.15936
1.15934
1.15933
1.15932
1.1593
1.15929
1.15928
1.15927
1.15926
1.15925
1.15925
1.15924
1.15923
1.15923
1.15922
1.15922
1.15921
1.15921
1.1592
1.1592
1.1592
1.15919
1.15919
1.1586
1.15872
1.15883
1.15892
1.159
1.15906
1.15912
1.15916
1.1592
1.15923
1.15926
1.15928
1.1593
1.15931
1.15933
1.15934
1.15935
1.15935
1.15936
1.15936
1.15936
1.15936
1.15936
1.15935
1.15934
1.15933
1.15931
1.1593
1.15929
1.15927
1.15926
1.15925
1.15924
1.15923
1.15922
1.15922
1.15921
1.1592
1.1592
1.15919
1.15918
1.15918
1.15917
1.15917
1.15917
1.15916
1.15916
1.15916
1.15915
1.15915
1.1586
1.1587
1.1588
1.15888
1.15895
1.15901
1.15906
1.1591
1.15913
1.15916
1.15919
1.15921
1.15923
1.15924
1.15926
1.15927
1.15928
1.15928
1.15929
1.15929
1.15929
1.15929
1.15929
1.15928
1.15928
1.15927
1.15925
1.15924
1.15923
1.15922
1.15921
1.1592
1.15919
1.15919
1.15918
1.15917
1.15916
1.15916
1.15915
1.15915
1.15914
1.15914
1.15913
1.15913
1.15913
1.15912
1.15912
1.15912
1.15912
1.15911
1.15859
1.15869
1.15877
1.15885
1.15891
1.15896
1.15901
1.15904
1.15908
1.1591
1.15913
1.15915
1.15916
1.15918
1.15919
1.1592
1.15921
1.15922
1.15923
1.15923
1.15923
1.15923
1.15923
1.15923
1.15922
1.15921
1.1592
1.15919
1.15918
1.15917
1.15916
1.15916
1.15915
1.15914
1.15913
1.15913
1.15912
1.15912
1.15911
1.15911
1.1591
1.1591
1.1591
1.15909
1.15909
1.15909
1.15908
1.15908
1.15908
1.15908
1.15859
1.15867
1.15875
1.15882
1.15887
1.15892
1.15896
1.159
1.15902
1.15905
1.15907
1.15909
1.15911
1.15912
1.15913
1.15915
1.15915
1.15916
1.15917
1.15917
1.15917
1.15918
1.15917
1.15917
1.15917
1.15916
1.15915
1.15914
1.15913
1.15913
1.15912
1.15911
1.1591
1.1591
1.15909
1.15909
1.15908
1.15908
1.15907
1.15907
1.15907
1.15906
1.15906
1.15906
1.15905
1.15905
1.15905
1.15905
1.15904
1.15904
1.15859
1.15866
1.15873
1.15879
1.15884
1.15888
1.15892
1.15895
1.15898
1.159
1.15902
1.15904
1.15906
1.15907
1.15908
1.15909
1.1591
1.15911
1.15911
1.15912
1.15912
1.15912
1.15912
1.15912
1.15912
1.15911
1.1591
1.1591
1.15909
1.15908
1.15908
1.15907
1.15906
1.15906
1.15905
1.15905
1.15904
1.15904
1.15904
1.15903
1.15903
1.15903
1.15902
1.15902
1.15902
1.15902
1.15901
1.15901
1.15901
1.15901
1.15859
1.15865
1.15872
1.15877
1.15881
1.15885
1.15888
1.15891
1.15894
1.15896
1.15898
1.159
1.15901
1.15902
1.15903
1.15904
1.15905
1.15906
1.15907
1.15907
1.15907
1.15908
1.15908
1.15907
1.15907
1.15907
1.15906
1.15905
1.15905
1.15904
1.15904
1.15903
1.15903
1.15902
1.15902
1.15901
1.15901
1.159
1.159
1.159
1.159
1.15899
1.15899
1.15899
1.15899
1.15898
1.15898
1.15898
1.15898
1.15898
1.15859
1.15865
1.1587
1.15875
1.15879
1.15882
1.15885
1.15888
1.1589
1.15892
1.15894
1.15896
1.15897
1.15898
1.15899
1.159
1.15901
1.15902
1.15902
1.15903
1.15903
1.15903
1.15903
1.15903
1.15903
1.15902
1.15902
1.15901
1.15901
1.159
1.159
1.15899
1.15899
1.15899
1.15898
1.15898
1.15897
1.15897
1.15897
1.15897
1.15896
1.15896
1.15896
1.15896
1.15896
1.15895
1.15895
1.15895
1.15895
1.15895
1.15859
1.15864
1.15869
1.15873
1.15877
1.1588
1.15883
1.15885
1.15887
1.15889
1.1589
1.15892
1.15893
1.15894
1.15895
1.15896
1.15897
1.15898
1.15898
1.15899
1.15899
1.15899
1.15899
1.15899
1.15899
1.15899
1.15898
1.15898
1.15897
1.15897
1.15896
1.15896
1.15896
1.15895
1.15895
1.15895
1.15894
1.15894
1.15894
1.15894
1.15893
1.15893
1.15893
1.15893
1.15893
1.15893
1.15892
1.15892
1.15892
1.15892
1.15859
1.15864
1.15868
1.15872
1.15875
1.15878
1.1588
1.15882
1.15884
1.15886
1.15887
1.15889
1.1589
1.15891
1.15892
1.15893
1.15893
1.15894
1.15894
1.15895
1.15895
1.15895
1.15896
1.15895
1.15895
1.15895
1.15895
1.15894
1.15894
1.15894
1.15893
1.15893
1.15893
1.15892
1.15892
1.15892
1.15891
1.15891
1.15891
1.15891
1.15891
1.1589
1.1589
1.1589
1.1589
1.1589
1.1589
1.1589
1.1589
1.15889
1.1586
1.15863
1.15867
1.1587
1.15873
1.15876
1.15878
1.1588
1.15882
1.15883
1.15884
1.15886
1.15887
1.15888
1.15889
1.15889
1.1589
1.15891
1.15891
1.15892
1.15892
1.15892
1.15892
1.15892
1.15892
1.15892
1.15892
1.15891
1.15891
1.15891
1.1589
1.1589
1.1589
1.15889
1.15889
1.15889
1.15889
1.15889
1.15888
1.15888
1.15888
1.15888
1.15888
1.15888
1.15887
1.15887
1.15887
1.15887
1.15887
1.15887
1.1586
1.15863
1.15866
1.15869
1.15872
1.15874
1.15876
1.15878
1.15879
1.15881
1.15882
1.15883
1.15884
1.15885
1.15886
1.15886
1.15887
1.15888
1.15888
1.15888
1.15889
1.15889
1.15889
1.15889
1.15889
1.15889
1.15889
1.15888
1.15888
1.15888
1.15888
1.15887
1.15887
1.15887
1.15887
1.15886
1.15886
1.15886
1.15886
1.15886
1.15886
1.15885
1.15885
1.15885
1.15885
1.15885
1.15885
1.15885
1.15885
1.15885
1.1586
1.15863
1.15866
1.15868
1.15871
1.15873
1.15874
1.15876
1.15877
1.15879
1.1588
1.15881
1.15882
1.15882
1.15883
1.15884
1.15884
1.15885
1.15885
1.15886
1.15886
1.15886
1.15886
1.15886
1.15886
1.15886
1.15886
1.15886
1.15885
1.15885
1.15885
1.15885
1.15885
1.15884
1.15884
1.15884
1.15884
1.15884
1.15884
1.15883
1.15883
1.15883
1.15883
1.15883
1.15883
1.15883
1.15883
1.15883
1.15883
1.15882
1.1586
1.15863
1.15865
1.15868
1.1587
1.15871
1.15873
1.15874
1.15875
1.15877
1.15878
1.15879
1.15879
1.1588
1.15881
1.15881
1.15882
1.15882
1.15883
1.15883
1.15883
1.15884
1.15884
1.15884
1.15884
1.15884
1.15883
1.15883
1.15883
1.15883
1.15883
1.15882
1.15882
1.15882
1.15882
1.15882
1.15882
1.15881
1.15881
1.15881
1.15881
1.15881
1.15881
1.15881
1.15881
1.15881
1.15881
1.15881
1.15881
1.1588
1.1586
1.15863
1.15865
1.15867
1.15869
1.1587
1.15872
1.15873
1.15874
1.15875
1.15876
1.15877
1.15877
1.15878
1.15879
1.15879
1.1588
1.1588
1.1588
1.15881
1.15881
1.15881
1.15881
1.15881
1.15881
1.15881
1.15881
1.15881
1.15881
1.15881
1.1588
1.1588
1.1588
1.1588
1.1588
1.1588
1.1588
1.15879
1.15879
1.15879
1.15879
1.15879
1.15879
1.15879
1.15879
1.15879
1.15879
1.15879
1.15879
1.15879
1.15861
1.15863
1.15865
1.15866
1.15868
1.15869
1.1587
1.15871
1.15872
1.15873
1.15874
1.15875
1.15876
1.15876
1.15877
1.15877
1.15878
1.15878
1.15878
1.15879
1.15879
1.15879
1.15879
1.15879
1.15879
1.15879
1.15879
1.15879
1.15879
1.15879
1.15878
1.15878
1.15878
1.15878
1.15878
1.15878
1.15878
1.15878
1.15877
1.15877
1.15877
1.15877
1.15877
1.15877
1.15877
1.15877
1.15877
1.15877
1.15877
1.15877
1.15861
1.15863
1.15864
1.15866
1.15867
1.15868
1.15869
1.1587
1.15871
1.15872
1.15873
1.15873
1.15874
1.15874
1.15875
1.15875
1.15876
1.15876
1.15876
1.15877
1.15877
1.15877
1.15877
1.15877
1.15877
1.15877
1.15877
1.15877
1.15877
1.15877
1.15876
1.15876
1.15876
1.15876
1.15876
1.15876
1.15876
1.15876
1.15876
1.15876
1.15876
1.15875
1.15875
1.15875
1.15875
1.15875
1.15875
1.15875
1.15875
1.15875
1.15861
1.15863
1.15864
1.15865
1.15866
1.15867
1.15868
1.15869
1.1587
1.15871
1.15871
1.15872
1.15872
1.15873
1.15873
1.15874
1.15874
1.15874
1.15875
1.15875
1.15875
1.15875
1.15875
1.15875
1.15875
1.15875
1.15875
1.15875
1.15875
1.15875
1.15875
1.15875
1.15874
1.15874
1.15874
1.15874
1.15874
1.15874
1.15874
1.15874
1.15874
1.15874
1.15874
1.15874
1.15874
1.15874
1.15874
1.15874
1.15874
1.15873
1.15861
1.15863
1.15864
1.15865
1.15866
1.15867
1.15868
1.15868
1.15869
1.1587
1.1587
1.15871
1.15871
1.15872
1.15872
1.15872
1.15873
1.15873
1.15873
1.15873
1.15873
1.15873
1.15873
1.15873
1.15873
1.15873
1.15873
1.15873
1.15873
1.15873
1.15873
1.15873
1.15873
1.15873
1.15873
1.15873
1.15873
1.15872
1.15872
1.15872
1.15872
1.15872
1.15872
1.15872
1.15872
1.15872
1.15872
1.15872
1.15872
1.15872
1.15862
1.15863
1.15864
1.15864
1.15865
1.15866
1.15867
1.15867
1.15868
1.15869
1.15869
1.1587
1.1587
1.1587
1.15871
1.15871
1.15871
1.15871
1.15871
1.15872
1.15872
1.15872
1.15872
1.15872
1.15872
1.15872
1.15872
1.15872
1.15871
1.15871
1.15871
1.15871
1.15871
1.15871
1.15871
1.15871
1.15871
1.15871
1.15871
1.15871
1.15871
1.15871
1.15871
1.15871
1.15871
1.15871
1.15871
1.15871
1.1587
1.1587
1.15862
1.15863
1.15863
1.15864
1.15865
1.15865
1.15866
1.15867
1.15867
1.15867
1.15868
1.15868
1.15869
1.15869
1.15869
1.15869
1.1587
1.1587
1.1587
1.1587
1.1587
1.1587
1.1587
1.1587
1.1587
1.1587
1.1587
1.1587
1.1587
1.1587
1.1587
1.1587
1.1587
1.1587
1.1587
1.15869
1.15869
1.15869
1.15869
1.15869
1.15869
1.15869
1.15869
1.15869
1.15869
1.15869
1.15869
1.15869
1.15869
1.15869
1.15862
1.15863
1.15863
1.15864
1.15865
1.15865
1.15866
1.15866
1.15867
1.15867
1.15867
1.15867
1.15868
1.15868
1.15868
1.15868
1.15868
1.15868
1.15868
1.15868
1.15868
1.15868
1.15868
1.15868
1.15868
1.15868
1.15868
1.15868
1.15868
1.15868
1.15868
1.15868
1.15868
1.15868
1.15868
1.15868
1.15868
1.15868
1.15868
1.15868
1.15868
1.15868
1.15868
1.15867
1.15867
1.15867
1.15867
1.15867
1.15867
1.15867
1.15862
1.15863
1.15863
1.15864
1.15865
1.15865
1.15866
1.15866
1.15867
1.15867
1.15867
1.15868
1.15868
1.15868
1.15868
1.15868
1.15868
1.15868
1.15868
1.15868
1.15868
1.15868
1.15868
1.15868
1.15868
1.15868
1.15868
1.15867
1.15867
1.15867
1.15867
1.15867
1.15867
1.15867
1.15866
1.15866
1.15866
1.15866
1.15866
1.15866
1.15866
1.15866
1.15866
1.15866
1.15866
1.15866
1.15866
1.15866
1.15866
1.15866
1.15862
1.15863
1.15863
1.15863
1.15863
1.15864
1.15864
1.15864
1.15864
1.15864
1.15865
1.15865
1.15865
1.15865
1.15865
1.15865
1.15865
1.15865
1.15865
1.15865
1.15865
1.15865
1.15865
1.15865
1.15865
1.15865
1.15864
1.15864
1.15864
1.15864
1.15864
1.15864
1.15864
1.15864
1.15864
1.15864
1.15864
1.15864
1.15864
1.15864
1.15864
1.15864
1.15864
1.15864
1.15864
1.15864
1.15864
1.15864
1.15864
1.15864
1.15862
1.15861
1.15861
1.15861
1.15861
1.15861
1.1586
1.1586
1.1586
1.1586
1.1586
1.1586
1.1586
1.1586
1.1586
1.1586
1.1586
1.1586
1.1586
1.15861
1.15861
1.15861
1.15861
1.15861
1.15861
1.15861
1.15861
1.15861
1.15862
1.15862
1.15862
1.15862
1.15862
1.15862
1.15862
1.15862
1.15862
1.15861
1.15861
1.15861
1.15861
1.15861
1.15861
1.15861
1.15861
1.15861
1.15861
1.15861
1.15861
1.15861
1.15861
1.1586
1.1586
1.15859
1.15859
1.15858
1.15858
1.15858
1.15857
1.15857
1.15857
1.15857
1.15857
1.15857
1.15857
1.15857
1.15857
1.15858
1.15858
1.15858
1.15858
1.15858
1.15859
1.15859
1.15859
1.15859
1.15859
1.15859
1.15859
1.15859
1.15859
1.1586
1.1586
1.1586
1.1586
1.1586
1.1586
1.1586
1.1586
1.1586
1.1586
1.1586
1.1586
1.1586
1.1586
1.1586
1.1586
1.1586
1.1586
1.1586
1.15861
1.1586
1.1586
1.15859
1.15859
1.15858
1.15858
1.15857
1.15857
1.15857
1.15857
1.15857
1.15857
1.15857
1.15857
1.15857
1.15857
1.15857
1.15857
1.15857
1.15857
1.15857
1.15857
1.15857
1.15857
1.15857
1.15857
1.15857
1.15858
1.15858
1.15858
1.15858
1.15858
1.15858
1.15858
1.15858
1.15858
1.15858
1.15858
1.15858
1.15858
1.15859
1.15859
1.15859
1.15859
1.15859
1.15859
1.15859
1.15859
1.15859
1.15861
1.1586
1.15859
1.15859
1.15858
1.15857
1.15857
1.15856
1.15856
1.15856
1.15855
1.15855
1.15855
1.15855
1.15855
1.15855
1.15855
1.15855
1.15855
1.15855
1.15855
1.15855
1.15855
1.15855
1.15855
1.15855
1.15856
1.15856
1.15856
1.15856
1.15856
1.15856
1.15856
1.15856
1.15857
1.15857
1.15857
1.15857
1.15857
1.15857
1.15857
1.15857
1.15857
1.15857
1.15857
1.15857
1.15857
1.15857
1.15857
1.15857
1.1586
1.15859
1.15858
1.15858
1.15857
1.15856
1.15856
1.15855
1.15855
1.15854
1.15854
1.15854
1.15853
1.15853
1.15853
1.15853
1.15853
1.15853