/*--------------------------------*- C++ -*----------------------------------*\
  =========                 |
  \\      /  F ield         | OpenFOAM: The Open Source CFD Toolbox
   \\    /   O peration     | Website:  https://openfoam.org
    \\  /    A nd           | Version:  10
     \\/     M anipulation  |
\*---------------------------------------------------------------------------*/
FoamFile
{
    format      ascii;
    class       volVectorField;
    location    "316";
    object      U;
}
// * * * * * * * * * * * * * * * * * * * * * * * * * * * * * * * * * * * * * //

dimensions      [0 1 -1 0 0 0 0];

internalField   nonuniform List<vector> 
14000
(
(-18.8081 -79.344 2.3792e-18)
(-27.4374 -57.7838 -6.68818e-16)
(-26.2251 -36.99 0)
(-19.5274 -21.1586 0)
(-11.3855 -10.5236 0)
(-3.74182 -3.62882 0)
(2.93888 1.15871 1.30472e-14)
(8.60497 4.27428 -7.27273e-15)
(13.8027 6.18213 4.70565e-15)
(18.141 7.1393 -1.0466e-16)
(21.841 7.5075 2.68278e-15)
(25.0285 7.4831 2.15025e-15)
(27.7643 7.18648 -1.8368e-15)
(30.1245 6.70018 3.25998e-15)
(32.1517 6.07433 2.26179e-17)
(33.8835 5.34693 -4.07428e-17)
(35.3466 4.54519 1.85393e-17)
(36.5607 3.68957 -1.10561e-15)
(37.5378 2.79789 1.57568e-17)
(38.2871 1.88752 9.36485e-16)
(38.8164 0.977932 -2.12176e-16)
(39.1387 0.091015 -6.43267e-18)
(39.2757 -0.74925 0)
(39.2657 -1.52394 0)
(39.1492 -2.22051 1.69447e-19)
(38.9868 -2.82406 -1.9289e-19)
(38.8172 -3.32141 2.76882e-15)
(38.6405 -3.73016 -2.81445e-15)
(38.456 -4.07927 2.85916e-15)
(38.2622 -4.38437 1.1346e-17)
(38.0575 -4.65167 -2.96088e-15)
(37.8453 -4.891 -1.49706e-15)
(37.6264 -5.09755 0)
(37.4002 -5.29266 -1.38983e-20)
(37.168 -5.46284 3.12617e-15)
(36.9313 -5.60959 -2.47586e-17)
(36.691 -5.73595 -7.77956e-16)
(36.4487 -5.84451 0)
(36.2052 -5.93752 2.57203e-17)
(35.9611 -6.01661 2.6018e-17)
(35.7173 -6.08317 3.68408e-16)
(35.4738 -6.1383 4.2568e-16)
(35.2317 -6.18341 -4.30272e-16)
(34.9893 -6.21841 -1.6302e-16)
(34.7507 -6.24697 4.39108e-16)
(34.51 -6.26394 -5.54142e-17)
(34.2783 -6.28245 0)
(34.0365 -6.28068 0)
(33.7651 -6.25553 -5.69455e-17)
(33.4274 -6.20225 1.72007e-16)
(-8.78458 -83.8815 0)
(-22.0116 -61.2184 5.46127e-16)
(-23.7014 -39.0577 -1.25529e-15)
(-18.6093 -22.3055 -2.43104e-17)
(-11.1291 -11.1479 6.49659e-17)
(-3.52133 -4.13769 -6.04837e-15)
(3.37476 0.409755 5.10103e-17)
(9.43488 3.27966 -1.45322e-16)
(14.9003 4.95887 4.66311e-20)
(19.5408 5.85517 3.96585e-20)
(23.54 6.25991 3.33147e-20)
(27.013 6.31802 1.69741e-15)
(30.0268 6.12468 9.29203e-17)
(32.6522 5.74035 -4.06734e-17)
(34.9094 5.21192 -3.6329e-17)
(36.8506 4.56313 3.2738e-17)
(38.4993 3.82126 1.90219e-15)
(39.8748 3.00857 8.70487e-16)
(40.9906 2.14525 -8.01607e-16)
(41.8579 1.25191 -1.15565e-17)
(42.4867 0.351386 1.07609e-17)
(42.891 -0.530254 0)
(43.0936 -1.36665 6.00186e-16)
(43.1306 -2.13532 1.12274e-15)
(43.0467 -2.8279 0)
(42.8967 -3.43432 2.04798e-15)
(42.7265 -3.94294 2.08878e-15)
(42.5509 -4.36979 -8.30913e-18)
(42.3664 -4.74171 -4.32062e-15)
(42.1696 -5.07021 2.20367e-15)
(41.9593 -5.36226 0)
(41.7371 -5.62036 -1.7971e-17)
(41.5045 -5.84998 1.83169e-17)
(41.2647 -6.04843 1.21296e-15)
(41.0194 -6.22077 -1.89874e-17)
(40.7696 -6.37117 0)
(40.5168 -6.50184 6.29922e-16)
(40.2621 -6.61449 0)
(40.0067 -6.71071 -6.89772e-16)
(39.7511 -6.7919 4.11264e-17)
(39.4962 -6.85939 -3.33461e-16)
(39.2417 -6.91428 -6.75568e-16)
(38.9892 -6.95803 3.42055e-16)
(38.7356 -6.99029 3.89459e-16)
(38.4901 -7.01589 -4.37791e-17)
(38.2259 -7.02619 -1.77099e-16)
(38.0113 -7.04293 1.34301e-16)
(37.6821 -7.01446 4.52013e-17)
(37.5843 -7.03307 -4.56255e-17)
(37.0368 -6.77272 -2.74565e-16)
(-7.69339 -82.5219 -1.92846e-18)
(-19.8847 -60.6869 4.97237e-16)
(-21.6579 -39.5624 1.05561e-15)
(-17.1003 -23.3072 9.59342e-18)
(-10.151 -12.2218 -1.52629e-15)
(-2.95917 -5.06171 3.95227e-15)
(3.65507 -0.377615 -4.11133e-15)
(9.54707 2.67339 6.52456e-15)
(14.857 4.54616 3.99596e-17)
(19.4193 5.63004 6.53999e-17)
(23.4166 6.19249 -5.54044e-17)
(26.9448 6.36821 -1.49037e-15)
(30.0713 6.25496 -4.25861e-17)
(32.8314 5.92665 -4.89169e-15)
(35.301 5.42824 0)
(37.4931 4.80143 0)
(39.4261 4.0705 9.13216e-20)
(41.1105 3.25531 0)
(42.5493 2.37468 2.51371e-17)
(43.7411 1.44895 -1.51473e-15)
(44.6824 0.501802 6.81371e-16)
(45.3742 -0.438646 1.02982e-17)
(45.8285 -1.34261 1.93375e-20)
(46.0747 -2.18357 3.12351e-20)
(46.1567 -2.95144 0)
(46.1291 -3.62454 -2.08334e-15)
(46.0432 -4.18475 3.88517e-20)
(45.926 -4.65241 -2.07562e-15)
(45.7845 -5.05768 4.15751e-15)
(45.6203 -5.4138 -2.0871e-15)
(45.4353 -5.72799 2.11091e-15)
(45.2322 -6.00528 -1.06462e-15)
(45.0141 -6.24934 -1.09151e-15)
(44.7842 -6.46321 1.69606e-17)
(44.5454 -6.65037 -2.19403e-15)
(44.3001 -6.81343 -3.46479e-17)
(44.0502 -6.95419 -1.08586e-15)
(43.7975 -7.07458 -5.66398e-16)
(43.5432 -7.17676 -9.40191e-21)
(43.2884 -7.26226 2.87594e-16)
(43.0338 -7.33252 3.62372e-17)
(42.7796 -7.38872 2.55694e-16)
(42.5276 -7.4322 2.57784e-16)
(42.2738 -7.46297 -1.11366e-16)
(42.0313 -7.48448 -1.87102e-16)
(41.7599 -7.49113 3.39458e-16)
(41.5599 -7.49685 -2.66067e-16)
(41.2154 -7.46832 -3.82796e-17)
(41.1732 -7.47357 7.70433e-17)
(40.5549 -7.32047 7.75151e-17)
(-6.02854 -80.8322 0)
(-17.7248 -60.0931 -4.11249e-16)
(-19.751 -39.9123 -8.7299e-16)
(-15.713 -24.1331 -1.51858e-17)
(-9.23017 -13.1982 1.15564e-15)
(-2.38 -6.01072 -2.86951e-15)
(3.99494 -1.25388 3.03451e-15)
(9.75085 1.8903 -2.42013e-15)
(14.9479 3.84429 -6.26777e-17)
(19.446 4.98931 0)
(23.3942 5.59778 -4.5734e-17)
(26.8902 5.81911 4.05538e-17)
(29.9861 5.75788 0)
(32.7423 5.48226 4.26192e-15)
(35.1993 5.04287 -3.06627e-17)
(37.3909 4.47046 5.69897e-17)
(39.3422 3.78981 6.81272e-20)
(41.0703 3.02191 -1.86524e-20)
(42.5863 2.18565 -4.74264e-17)
(43.8974 1.3001 7.42367e-16)
(45.0069 0.386646 -6.83968e-16)
(45.9182 -0.530245 0)
(46.637 -1.42336 -6.06947e-16)
(47.1782 -2.26964 -1.177e-15)
(47.5638 -3.05401 -2.69066e-19)
(47.8093 -3.75207 2.11314e-15)
(47.9396 -4.34222 -4.13114e-15)
(47.986 -4.84119 4.07195e-15)
(47.9708 -5.27564 -2.03605e-15)
(47.9062 -5.65974 1.5693e-17)
(47.801 -6.00067 -2.0183e-15)
(47.663 -6.30252 1.01626e-15)
(47.4992 -6.56865 1.00167e-15)
(47.3151 -6.80289 -3.1378e-17)
(47.1156 -7.00789 1.00768e-15)
(46.9043 -7.18633 3.16272e-17)
(46.6843 -7.34052 5.08649e-16)
(46.4581 -7.47274 5.11499e-16)
(46.227 -7.58509 5.12954e-16)
(45.9931 -7.67926 0)
(45.7578 -7.7567 0)
(45.5215 -7.81869 2.26395e-16)
(45.2864 -7.8663 -2.27308e-16)
(45.0491 -7.90036 0)
(44.8222 -7.92151 -1.31057e-16)
(44.5698 -7.93046 -1.97563e-16)
(44.3803 -7.92918 1.98501e-16)
(44.0705 -7.91516 -6.65024e-17)
(44.0083 -7.91417 -7.25007e-22)
(43.4576 -7.88319 -2.389e-21)
(-4.16543 -79.1598 0)
(-15.3101 -59.4861 -5.52239e-18)
(-17.5599 -40.2958 5.37234e-18)
(-14.081 -25.0418 2.45947e-17)
(-8.13879 -14.2693 6.15078e-20)
(-1.69662 -7.04131 -3.3553e-17)
(4.40197 -2.19449 0)
(9.97815 1.06822 6.13597e-17)
(15.0387 3.1458 -5.06032e-17)
(19.4524 4.40849 0)
(23.348 5.12555 1.18089e-15)
(26.8078 5.44161 3.47411e-20)
(29.8857 5.45808 1.98218e-15)
(32.6302 5.24627 -3.61482e-15)
(35.083 4.85497 0)
(37.2737 4.32015 2.4718e-17)
(39.2252 3.67001 -1.51502e-15)
(40.9537 2.92715 -2.21018e-17)
(42.4704 2.11124 2.10921e-17)
(43.7829 1.24215 -6.46322e-16)
(44.8979 0.341602 2.91155e-16)
(45.8235 -0.564995 1.86952e-17)
(46.5751 -1.45176 0)
(47.176 -2.2941 -1.11377e-15)
(47.6557 -3.08288 4.68018e-18)
(48.0266 -3.792 -5.02749e-19)
(48.2931 -4.39618 2.02084e-15)
(48.4731 -4.90845 -1.9762e-15)
(48.5854 -5.35688 1.94012e-15)
(48.6406 -5.75384 0)
(48.6472 -6.10689 -1.91013e-15)
(48.6135 -6.4203 9.78908e-16)
(48.5469 -6.69879 -2.95379e-17)
(48.4532 -6.94473 2.94589e-17)
(48.338 -7.16048 -9.70821e-16)
(48.2056 -7.34894 4.70574e-16)
(48.0594 -7.51249 0)
(47.9027 -7.65326 2.94737e-17)
(47.7371 -7.77322 -5.01415e-16)
(47.5644 -7.87397 2.35382e-16)
(47.3864 -7.95691 2.93748e-16)
(47.2043 -8.02336 -2.9354e-16)
(47.0202 -8.07416 2.34877e-16)
(46.8328 -8.11077 5.8771e-17)
(46.6501 -8.13197 -1.10169e-21)
(46.454 -8.14301 1.17941e-16)
(46.2911 -8.13777 -5.9094e-17)
(46.0609 -8.13122 1.18535e-16)
(45.9591 -8.11824 -1.18848e-16)
(45.563 -8.11383 1.19793e-16)
(-2.24106 -77.3544 -7.97732e-17)
(-12.8153 -58.7658 2.99347e-16)
(-15.2801 -40.5994 -1.55384e-19)
(-12.3404 -25.917 -6.29988e-16)
(-6.93757 -15.3562 -2.27232e-17)
(-0.916236 -8.12193 1.67627e-19)
(4.88783 -3.1969 -1.79925e-15)
(10.2635 0.172039 4.96719e-17)
(15.1758 2.36671 -1.41903e-15)
(19.4983 3.73416 3.63045e-17)
(23.3348 4.54065 -1.09382e-15)
(26.7543 4.93251 5.80826e-17)
(29.8049 5.015 -3.39793e-15)
(32.5315 4.86082 1.52114e-15)
(34.9728 4.52135 1.46457e-15)
(37.1565 4.03417 4.30347e-17)
(39.1049 3.42745 4.06786e-17)
(40.8334 2.72386 -3.87413e-17)
(42.3528 1.94351 0)
(43.6706 1.10639 1.15665e-15)
(44.7924 0.234522 -1.71678e-17)
(45.7267 -0.647671 0)
(46.4863 -1.51372 -5.14568e-16)
(47.0945 -2.34131 -3.59541e-20)
(47.581 -3.11782 -1.92939e-15)
(47.9585 -3.81748 -2.75258e-18)
(48.2318 -4.41418 1.85194e-15)
(48.4206 -4.92168 0)
(48.5447 -5.36633 -1.78721e-15)
(48.6149 -5.76104 -7.07483e-22)
(48.64 -6.11249 1.78566e-15)
(48.6274 -6.42576 -9.08491e-16)
(48.5843 -6.70334 0)
(48.5164 -6.94899 8.74738e-16)
(48.4287 -7.16505 9.0033e-16)
(48.3256 -7.35423 -4.08838e-16)
(48.2104 -7.51878 3.2701e-16)
(48.0859 -7.66067 5.45252e-17)
(47.9542 -7.78179 3.82085e-16)
(47.8171 -7.88366 -1.63385e-16)
(47.6759 -7.96754 -4.33978e-16)
(47.5318 -8.03469 5.40944e-17)
(47.3863 -8.08588 -2.69945e-16)
(47.2398 -8.1226 0)
(47.0951 -8.1438 -1.07823e-16)
(46.9498 -8.15493 -5.39333e-17)
(46.811 -8.14851 5.39671e-17)
(46.6647 -8.14399 -2.16184e-16)
(46.533 -8.10812 1.08245e-16)
(46.3393 -8.12018 0)
(-0.208338 -75.4416 1.38143e-16)
(-10.1953 -57.9545 -2.57019e-16)
(-12.851 -40.843 5.12802e-16)
(-10.4436 -26.7741 5.30125e-16)
(-5.5973 -16.4624 1.88326e-17)
(-0.0227993 -9.2464 1.43906e-15)
(5.46336 -4.25456 1.37171e-15)
(10.6125 -0.784142 1.35559e-15)
(15.3576 1.5319 1.12001e-15)
(19.5721 3.01553 -1.04539e-15)
(23.3376 3.92744 5.49742e-17)
(26.7074 4.41259 1.59648e-15)
(29.7255 4.57692 1.46793e-15)
(32.4314 4.49433 4.25726e-17)
(34.8602 4.2168 -1.31604e-15)
(37.0375 3.78264 0)
(38.9837 3.22119 0)
(40.7131 2.55648 1.08982e-15)
(42.2359 1.80965 0)
(43.5589 1.00158 -5.0299e-16)
(44.6881 0.154387 0)
(45.6309 -0.706938 1.17709e-16)
(46.4006 -1.55674 4.56666e-16)
(47.0186 -2.3717 8.92579e-16)
(47.5142 -3.13988 1.71012e-15)
(47.8981 -3.83396 -1.67769e-15)
(48.1751 -4.42734 -1.65446e-15)
(48.3653 -4.93161 -1.6366e-15)
(48.4896 -5.37301 -1.26735e-17)
(48.5593 -5.76355 1.25877e-17)
(48.5835 -6.11081 2.50428e-17)
(48.5705 -6.41872 -8.23221e-16)
(48.5272 -6.69127 -7.71237e-16)
(48.4596 -6.93161 -1.56464e-15)
(48.3727 -7.14234 -4.96268e-17)
(48.2708 -7.32602 3.96987e-16)
(48.1573 -7.48492 1.06941e-20)
(48.0351 -7.62099 0)
(47.9065 -7.73611 0)
(47.7732 -7.83185 -4.98301e-17)
(47.6372 -7.90959 4.96189e-17)
(47.4997 -7.9706 0)
(47.3621 -8.01576 0)
(47.2253 -8.0463 0)
(47.091 -8.06234 4.92212e-17)
(46.9592 -8.06664 -1.47653e-16)
(46.832 -8.05666 -6.86279e-21)
(46.706 -8.04011 2.95701e-16)
(46.5873 -7.99967 -2.46684e-16)
(46.4651 -7.97625 9.9036e-17)
(1.88955 -73.4198 -5.63204e-17)
(-7.49421 -57.0358 -3.45918e-18)
(-10.3084 -40.9977 -1.38416e-17)
(-8.40741 -27.5832 1.45418e-17)
(-4.11814 -17.5656 0)
(0.992798 -10.4014 -3.62287e-17)
(6.13907 -5.36024 -3.79163e-17)
(11.0375 -1.79867 -1.03514e-15)
(15.5965 0.636127 0)
(19.6874 2.2362 8.42435e-16)
(23.3703 3.25459 1.51486e-15)
(26.682 3.83406 -1.33945e-15)
(29.6611 4.08122 1.27703e-15)
(32.3409 4.07034 -3.5201e-20)
(34.7526 3.85519 -1.15313e-15)
(36.9194 3.47573 1.05768e-15)
(38.8599 2.96263 0)
(40.5875 2.34086 -9.62256e-16)
(42.1114 1.63228 9.24485e-16)
(43.4385 0.8581 -2.78572e-17)
(44.5741 0.040784 1.45813e-20)
(45.5256 -0.795056 -7.84595e-17)
(46.3052 -1.62371 0)
(46.9338 -2.42244 7.88749e-16)
(47.4389 -3.17866 -1.52984e-15)
(47.83 -3.86415 1.49719e-15)
(48.1114 -4.45071 0)
(48.3042 -4.94923 2.94542e-15)
(48.4297 -5.38479 -1.13815e-17)
(48.5003 -5.76982 1.44913e-15)
(48.5253 -6.11121 0)
(48.513 -6.41364 7.19904e-16)
(48.4706 -6.68073 4.49029e-17)
(48.4042 -6.91556 6.7338e-16)
(48.3186 -7.12082 -4.48949e-17)
(48.2182 -7.29895 -3.14476e-16)
(48.1064 -7.45222 -7.19695e-16)
(47.9863 -7.58259 0)
(47.86 -7.6919 -4.06408e-16)
(47.7296 -7.7817 4.52678e-17)
(47.5969 -7.85334 9.03083e-17)
(47.4634 -7.90804 -8.99669e-17)
(47.3305 -7.94682 0)
(47.1995 -7.97083 -8.95657e-17)
(47.0717 -7.98074 2.68409e-16)
(46.9479 -7.97822 -1.7888e-16)
(46.8296 -7.96266 -8.94663e-17)
(46.7167 -7.93771 -8.95171e-17)
(46.6131 -7.89426 1.79172e-16)
(46.5156 -7.86107 0)
(4.05261 -71.3019 0)
(-4.72213 -56.0119 1.94572e-16)
(-7.65993 -41.0539 -1.20312e-17)
(-6.23443 -28.3276 -4.14968e-16)
(-2.49624 -18.6477 2.70803e-17)
(2.13905 -11.5721 0)
(6.92491 -6.50384 0)
(11.549 -2.86438 -9.38751e-16)
(15.902 -0.316026 -8.66606e-16)
(19.8514 1.40086 9.09157e-17)
(23.4371 2.52969 -2.58818e-15)
(26.6793 3.20934 -7.28839e-20)
(29.6108 3.54611 -1.11724e-15)
(32.2579 3.61454 -6.12036e-20)
(34.6479 3.46933 9.22524e-16)
(36.8008 3.15134 -9.33129e-16)
(38.7336 2.69222 9.45318e-16)
(40.4581 2.11789 7.99264e-16)
(41.9827 1.451 5.26301e-20)
(43.3136 0.713434 7.92556e-16)
(44.4557 -0.0721223 3.8399e-16)
(45.416 -0.880938 -2.32995e-17)
(46.2062 -1.68765 3.39758e-17)
(46.8458 -2.46951 -7.14841e-16)
(47.361 -3.2136 1.36453e-15)
(47.7597 -3.89031 -1.33737e-15)
(48.0459 -4.47057 -1.32609e-15)
(48.2411 -4.96361 -1.31675e-15)
(48.368 -5.3941 -1.28925e-15)
(48.4394 -5.77377 4.14478e-20)
(48.4652 -6.10983 2.03331e-17)
(48.4537 -6.4067 -4.06078e-17)
(48.4123 -6.66814 -2.09342e-20)
(48.3472 -6.89705 0)
(48.2632 -7.09639 4.06265e-17)
(48.1647 -7.26846 -4.0682e-17)
(48.0551 -7.41554 5.70606e-16)
(47.9376 -7.53958 8.16984e-17)
(47.8144 -7.64242 -9.06107e-21)
(47.6877 -7.72561 -8.21557e-17)
(47.5592 -7.79058 8.21309e-17)
(47.4307 -7.83861 2.45401e-16)
(47.3036 -7.87085 -8.1548e-17)
(47.1793 -7.88851 1.62756e-16)
(47.0591 -7.89257 -8.12742e-17)
(46.9442 -7.88444 1.62445e-16)
(46.8357 -7.86433 2.23052e-21)
(46.7353 -7.83551 2.43744e-16)
(46.6437 -7.79164 -2.03249e-16)
(46.5625 -7.75909 1.62993e-16)
(6.26169 -69.0977 0)
(-1.90344 -54.8812 -1.70747e-16)
(-4.92624 -40.9985 3.57586e-16)
(-3.9366 -28.9873 3.50215e-16)
(-0.733564 -19.6877 -2.33657e-17)
(3.42129 -12.7408 0)
(7.82953 -7.67255 5.44528e-17)
(12.1577 -3.97255 1.56164e-15)
(16.2848 -1.32009 -7.05052e-16)
(20.0738 0.51032 -7.89951e-17)
(23.5467 1.75031 1.21942e-15)
(26.7071 2.53295 -6.59642e-17)
(29.5812 2.96311 -9.20589e-16)
(32.1881 3.11484 9.2067e-16)
(34.5505 3.0434 0)
(36.6854 2.79059 7.74635e-16)
(38.6072 2.38906 -6.90563e-16)
(40.3262 1.86567 -7.57562e-16)
(41.8497 1.2439 -7.75719e-16)
(43.1832 0.546172 -7.06152e-16)
(44.3313 -0.204534 -3.6391e-16)
(45.3001 -0.983563 2.0813e-17)
(46.1008 -1.76575 0)
(46.7517 -2.52849 -9.83141e-18)
(47.2773 -3.25838 1.19209e-17)
(47.684 -3.92481 1.19536e-15)
(47.9751 -4.4973 9.25142e-18)
(48.1732 -4.98385 -2.77372e-17)
(48.3016 -5.40803 1.19719e-15)
(48.3741 -5.78141 -1.17576e-15)
(48.4008 -6.11105 5.50385e-16)
(48.3904 -6.40147 3.66749e-17)
(48.3503 -6.65638 1.17398e-15)
(48.2868 -6.87884 -5.87583e-16)
(48.2049 -7.0716 7.35603e-17)
(48.1086 -7.23714 -1.47416e-16)
(48.0018 -7.37764 -1.47762e-16)
(47.8873 -7.49507 -3.70435e-16)
(47.7678 -7.59127 2.22924e-16)
(47.6454 -7.66785 7.45493e-17)
(47.522 -7.72628 1.49398e-16)
(47.3992 -7.76793 -2.23102e-16)
(47.2788 -7.79409 -4.70572e-21)
(47.1621 -7.80608 7.39403e-17)
(47.0504 -7.80513 1.47653e-16)
(46.9452 -7.79274 -7.37603e-17)
(46.8471 -7.7697 -7.37462e-17)
(46.7584 -7.73946 -2.03682e-21)
(46.678 -7.69683 -7.37887e-17)
(46.6087 -7.66707 7.39419e-17)
(8.50315 -66.8196 6.37437e-19)
(0.940726 -53.6467 -1.50893e-16)
(-2.12777 -40.8224 -3.15316e-16)
(-1.52874 -29.5446 1.91471e-17)
(1.16385 -20.6643 -4.07728e-17)
(4.84128 -13.8879 4.50484e-17)
(8.85936 -8.85062 -7.50125e-16)
(12.873 -5.11138 -1.28909e-19)
(16.7551 -2.36845 2.531e-15)
(20.3645 -0.431033 1.10519e-15)
(23.7073 0.918665 -6.29581e-17)
(26.7721 1.80601 0)
(29.5774 2.33303 8.66596e-16)
(32.1351 2.57253 -7.6352e-16)
(34.4631 2.57987 -4.81946e-17)
(36.5745 2.39731 -4.58037e-17)
(38.4814 2.05828 8.77643e-17)
(40.1919 1.59043 -4.21969e-17)
(41.7124 1.01794 6.51267e-16)
(43.0472 0.363791 6.30626e-16)
(44.2004 -0.3488 0)
(45.1775 -1.09517 -2.97815e-16)
(45.9887 -1.85042 1.81112e-17)
(46.6511 -2.59201 -2.9061e-16)
(47.1877 -3.30617 -8.54471e-18)
(47.6028 -3.96107 0)
(47.8994 -4.52499 1.06906e-15)
(48.1005 -5.00426 -1.06491e-15)
(48.2308 -5.42162 1.65941e-17)
(48.3045 -5.78819 -1.65718e-17)
(48.3325 -6.11105 -5.30066e-16)
(48.3234 -6.39462 0)
(48.285 -6.64271 -5.97273e-16)
(48.2234 -6.85835 5.31812e-16)
(48.1438 -7.04414 1.33243e-16)
(48.0504 -7.20282 -3.33967e-16)
(47.9468 -7.33641 -2.67941e-16)
(47.8362 -7.44692 5.3756e-16)
(47.7211 -7.53626 -6.7423e-17)
(47.6037 -7.60607 -6.7662e-17)
(47.4861 -7.65793 2.03665e-16)
(47.3701 -7.69334 -2.70435e-16)
(47.2572 -7.71374 -6.73696e-17)
(47.1489 -7.72065 -2.85796e-21)
(47.0464 -7.71552 -6.70624e-17)
(46.951 -7.70008 0)
(46.8633 -7.67546 -2.00883e-16)
(46.7852 -7.64524 6.69524e-17)
(46.7147 -7.6048 -3.34884e-17)
(46.6549 -7.57786 0)
(10.7607 -64.4809 -5.63028e-19)
(3.78755 -52.3131 1.33771e-16)
(0.712041 -40.5195 -2.79722e-16)
(0.969885 -29.984 1.69114e-17)
(3.18502 -21.5565 0)
(6.3964 -14.9919 0)
(10.0178 -10.0198 7.3276e-16)
(13.7024 -6.26633 -1.97322e-15)
(17.3222 -3.4509 6.69291e-17)
(20.7331 -1.41684 -9.7071e-16)
(23.9282 0.0380012 8.87011e-16)
(26.8824 1.02939 0)
(29.6062 1.65502 9.58837e-17)
(32.1045 1.98551 -8.05965e-20)
(34.3899 2.07556 -7.43867e-20)
(36.4716 1.96748 -7.35104e-16)
(38.3588 1.69521 -6.26104e-16)
(40.0574 1.287 3.76488e-17)
(41.5722 0.767664 -1.20065e-15)
(42.9066 0.160667 -5.64191e-16)
(44.0637 -0.510538 0)
(45.0485 -1.22133 5.3368e-16)
(45.8701 -1.94703 0)
(46.544 -2.66523 2.52731e-16)
(47.0918 -3.3617 0)
(47.5157 -4.00354 0)
(47.8181 -4.55764 -9.69211e-16)
(48.0226 -5.02872 7.4544e-18)
(48.1549 -5.43842 2.99288e-17)
(48.2303 -5.79748 -2.99196e-17)
(48.2597 -6.11283 2.99343e-17)
(48.2524 -6.38893 -4.49594e-16)
(48.2159 -6.62956 -4.80456e-16)
(48.1567 -6.83775 -6.01959e-17)
(48.0799 -7.01618 -6.03608e-17)
(47.9899 -7.16744 3.02715e-16)
(47.8902 -7.29376 4.85938e-16)
(47.7841 -7.3971 -2.43814e-16)
(47.6741 -7.47945 2.44709e-16)
(47.5627 -7.54254 1.22809e-16)
(47.4518 -7.58806 -1.23275e-16)
(47.3431 -7.61767 2.45851e-16)
(47.2384 -7.63298 -2.65852e-21)
(47.1391 -7.6357 -6.47514e-21)
(47.046 -7.62747 2.43686e-16)
(46.9605 -7.61023 -6.08375e-17)
(46.8827 -7.58521 -2.43214e-16)
(46.8142 -7.55599 6.07849e-17)
(46.7524 -7.51815 -4.04564e-21)
(46.7005 -7.49401 1.21798e-16)
(13.0187 -62.0958 0)
(6.6151 -50.8881 0)
(3.56887 -40.0876 -2.94062e-17)
(3.53677 -30.2933 3.00514e-17)
(5.31423 -22.3452 -5.05824e-16)
(8.07915 -16.0312 6.8983e-17)
(11.3041 -11.1601 -7.11518e-17)
(14.6508 -7.42029 2.19161e-15)
(17.9938 -4.55437 -1.00225e-15)
(21.1888 -2.43797 -1.06925e-16)
(24.2184 -0.885936 -6.86184e-16)
(27.0461 0.206251 -9.09056e-17)
(29.6747 0.930374 1.70387e-16)
(32.1022 1.35385 -8.04145e-17)
(34.3359 1.52986 0)
(36.3805 1.50021 0)
(38.2423 1.29894 4.89575e-16)
(39.9246 0.954637 -4.71704e-16)
(41.4306 0.492582 5.21284e-16)
(42.7622 -0.0633744 0)
(43.9218 -0.689627 0)
(44.9133 -1.3616 -2.3944e-16)
(45.7448 -2.0549 0)
(46.4303 -2.74718 1.41841e-17)
(46.9894 -3.42383 -1.37748e-17)
(47.4225 -4.05089 8.65943e-16)
(47.731 -4.59386 1.65178e-18)
(47.9391 -5.05567 8.78283e-16)
(48.0739 -5.45686 8.50923e-16)
(48.1512 -5.80757 -4.32457e-16)
(48.1825 -6.11481 0)
(48.1772 -6.38273 -1.81756e-20)
(48.1432 -6.61542 4.8934e-16)
(48.0869 -6.8156 -4.90776e-16)
(48.0134 -6.98634 0)
(47.9275 -7.12974 2.19579e-16)
(47.8324 -7.24855 -3.30556e-16)
(47.7315 -7.34461 -2.21213e-16)
(47.6274 -7.41996 -3.33089e-16)
(47.5227 -7.47648 -1.11465e-16)
(47.4192 -7.516 -4.02757e-21)
(47.3187 -7.54032 4.12607e-21)
(47.2228 -7.55123 -2.22572e-16)
(47.1327 -7.55061 1.10941e-16)
(47.0492 -7.54021 -1.66033e-16)
(46.9733 -7.52209 1.1052e-16)
(46.9046 -7.4974 1.65647e-16)
(46.845 -7.46974 -5.51944e-17)
(46.7911 -7.43467 0)
(46.7462 -7.41291 0)
(15.2616 -59.6786 -7.14267e-18)
(9.40246 -49.3813 1.13222e-16)
(6.41808 -39.5283 2.10016e-16)
(6.14699 -30.4647 -4.30175e-16)
(7.53151 -23.0142 4.50048e-16)
(9.87703 -16.9849 -6.10108e-17)
(12.7134 -12.2505 -9.38604e-16)
(15.7191 -8.55422 -9.33774e-16)
(18.7751 -5.66326 1.0393e-16)
(21.7391 -3.48263 -9.46293e-17)
(24.5864 -1.845 0)
(27.2717 -0.658337 5.65694e-16)
(29.7906 0.16178 7.58816e-17)
(32.135 0.67845 0)
(34.3066 0.942415 5.4542e-16)
(36.3058 0.994274 -1.0431e-15)
(38.1355 0.867686 -1.00191e-15)
(39.7964 0.591228 4.8314e-16)
(41.2897 0.190399 -4.6761e-16)
(42.6157 -0.310714 4.53912e-16)
(43.7758 -0.888438 0)
(44.7726 -1.5183 -4.03433e-16)
(45.6132 -2.17622 1.83466e-16)
(46.3099 -2.83993 1.27536e-17)
(46.8804 -3.49444 -1.23892e-17)
(47.3229 -4.10483 -7.79469e-16)
(47.6378 -4.63518 7.79015e-16)
(47.85 -5.08659 -2.43846e-17)
(47.9876 -5.47827 -1.12232e-15)
(48.0671 -5.81991 7.57411e-16)
(48.1007 -6.11818 -4.89669e-17)
(48.0979 -6.37745 4.41861e-16)
(48.0668 -6.60146 0)
(48.0138 -6.79336 6.91791e-16)
(47.9445 -6.9557 1.9837e-16)
(47.863 -7.0913 -1.9912e-16)
(47.7734 -7.20222 2.99861e-16)
(47.6785 -7.29093 3.01057e-16)
(47.5812 -7.35942 1.00749e-16)
(47.4839 -7.40967 -1.01162e-16)
(47.3885 -7.44366 1.01558e-16)
(47.2968 -7.46334 -2.03183e-16)
(47.21 -7.47066 -4.63751e-21)
(47.1293 -7.46757 3.02416e-16)
(47.0552 -7.4559 -2.01115e-16)
(46.9885 -7.4377 -1.0039e-16)
(46.9285 -7.414 2.00582e-16)
(46.8769 -7.38829 -3.50822e-16)
(46.8301 -7.3561 1.75395e-16)
(46.7915 -7.33662 0)
(17.4746 -57.244 1.2737e-17)
(12.1305 -47.8042 -1.07413e-16)
(9.23582 -38.8468 0)
(8.77447 -30.4945 7.71782e-16)
(9.81358 -23.5512 4.02309e-16)
(11.7729 -17.8347 -5.42852e-16)
(14.2357 -13.2707 1.10658e-15)
(16.9043 -9.64809 -1.55663e-20)
(19.668 -6.75995 6.43434e-16)
(22.3893 -4.53651 -5.87158e-16)
(25.0394 -2.82847 4.63479e-16)
(27.5671 -1.55695 -9.35716e-16)
(29.9618 -0.646075 -1.35404e-16)
(32.21 -0.0381285 1.02488e-15)
(34.3083 0.314213 -4.88053e-16)
(36.2527 0.449574 9.34476e-16)
(38.0428 0.400649 -5.61707e-17)
(39.6762 0.195556 5.42312e-17)
(41.152 -0.140294 4.20015e-16)
(42.4689 -0.582796 -4.5894e-16)
(43.6269 -1.10835 9.92873e-17)
(44.6272 -1.69268 7.25803e-16)
(45.4759 -2.31206 1.2923e-20)
(46.1831 -2.94431 2.00887e-17)
(46.765 -3.57413 -1.1158e-17)
(47.217 -4.16573 -3.62876e-16)
(47.5385 -4.68183 0)
(47.7551 -5.12148 0)
(47.8958 -5.50265 3.74877e-16)
(47.978 -5.83417 -4.19886e-16)
(48.0143 -6.12288 4.43217e-17)
(48.0145 -6.37258 0)
(47.9869 -6.58758 0)
(47.938 -6.7704 -3.58323e-16)
(47.8732 -6.92434 -8.99399e-17)
(47.7972 -7.05152 -9.03059e-17)
(47.7135 -7.15477 -9.06767e-17)
(47.6256 -7.23608 -1.82114e-16)
(47.5358 -7.29788 -9.14402e-17)
(47.4467 -7.34226 -2.25128e-21)
(47.36 -7.37129 9.21743e-17)
(47.2773 -7.38705 -9.23495e-17)
(47.1999 -7.39156 1.83859e-16)
(47.1286 -7.3868 -4.57996e-16)
(47.0636 -7.37461 1.37032e-16)
(47.0057 -7.35694 4.5594e-17)
(46.9537 -7.33466 1.82163e-16)
(46.9095 -7.31109 4.53307e-21)
(46.8693 -7.28184 2.27537e-17)
(46.8364 -7.26442 -1.82175e-16)
(19.644 -54.8068 0)
(14.7824 -46.1698 2.15144e-17)
(11.9999 -38.0517 -2.12011e-17)
(11.3932 -30.3841 -3.47506e-16)
(12.135 -23.9488 -3.61633e-16)
(13.7457 -18.5655 3.88875e-16)
(15.8564 -14.2017 9.82325e-17)
(18.1986 -10.6821 -9.09159e-17)
(20.6702 -7.82566 -8.15075e-16)
(23.1419 -5.5833 7.45626e-16)
(25.5828 -3.82328 -6.88109e-16)
(27.9392 -2.4798 7.70792e-16)
(30.1956 -1.4864 -1.21028e-16)
(32.3346 -0.791595 -9.17456e-16)
(34.3477 -0.352425 1.09317e-16)
(36.2271 -0.133037 -7.95623e-20)
(37.969 -0.102365 6.0519e-16)
(39.568 -0.233276 9.74879e-17)
(41.0209 -0.500836 -7.55587e-16)
(42.3244 -0.881208 0)
(43.4771 -1.35106 4.46804e-17)
(44.4787 -1.88644 -4.35627e-17)
(45.3337 -2.46403 -1.6995e-16)
(46.0506 -3.06182 2.32795e-17)
(46.6432 -3.66419 -1.40708e-16)
(47.1046 -4.23471 3.17011e-16)
(47.4331 -4.7347 1.02432e-17)
(47.6543 -5.16123 -9.95086e-18)
(47.7986 -5.53064 0)
(47.8839 -5.85124 0)
(47.9234 -6.12939 0)
(47.9272 -6.36908 -3.22272e-16)
(47.9037 -6.57429 2.42667e-16)
(47.8595 -6.74786 8.1224e-17)
(47.8001 -6.89285 -1.63145e-16)
(47.7302 -7.0117 1.63853e-16)
(47.6533 -7.10711 -8.22799e-17)
(47.5729 -7.18134 -8.26362e-17)
(47.4913 -7.23686 3.31906e-16)
(47.411 -7.27584 8.3315e-17)
(47.3335 -7.30055 2.50931e-16)
(47.2602 -7.31311 -8.39101e-17)
(47.1921 -7.31558 -8.35466e-17)
(47.1299 -7.30991 0)
(47.0738 -7.29783 2.48999e-16)
(47.0241 -7.28117 -1.65659e-16)
(46.9796 -7.26066 -1.6544e-16)
(46.9421 -7.23937 1.65298e-16)
(46.908 -7.2131 -4.13103e-17)
(46.8803 -7.19766 1.65374e-16)
(21.7575 -52.3813 -1.01881e-17)
(17.3436 -44.492 9.64195e-18)
(14.6904 -37.1545 1.53567e-16)
(13.9783 -30.139 -3.13818e-16)
(14.4697 -24.2047 0)
(15.7717 -19.1669 0)
(17.5572 -15.0281 0)
(19.5895 -11.6378 -6.43985e-16)
(21.7752 -8.84159 0)
(23.9954 -6.60552 5.30881e-16)
(26.219 -4.81442 -4.91056e-16)
(28.393 -3.4149 0)
(30.4985 -2.3502 0)
(32.5155 -1.57568 0)
(34.4315 -1.05351 7.85177e-16)
(36.2352 -0.75137 -9.4133e-17)
(37.9197 -0.640518 1.81413e-16)
(39.4764 -0.695395 -8.77285e-17)
(40.9001 -0.891999 5.95307e-16)
(42.1852 -1.20712 4.96088e-20)
(43.3286 -1.61796 8.05743e-17)
(44.3285 -2.10101 -3.14223e-16)
(45.1878 -2.63354 0)
(45.9129 -3.19373 -1.86577e-17)
(46.5155 -3.76574 1.99421e-16)
(46.9862 -4.31264 5.59327e-19)
(47.3216 -4.79457 2.77662e-16)
(47.5478 -5.20633 -2.78925e-16)
(47.6961 -5.56283 -3.60923e-17)
(47.785 -5.87135 3.62193e-17)
(47.8283 -6.13827 0)
(47.8363 -6.36707 2.92061e-16)
(47.8175 -6.56213 1.41513e-20)
(47.7788 -6.7259 2.94656e-16)
(47.7255 -6.86187 2.21979e-16)
(47.6624 -6.9722 -7.43214e-17)
(47.5931 -7.06 -1.49318e-16)
(47.5209 -7.12736 -4.71537e-21)
(47.4481 -7.17707 0)
(47.377 -7.21125 0)
(47.3088 -7.23233 0)
(47.245 -7.24238 1.52347e-16)
(47.1861 -7.24347 -7.59356e-17)
(47.1329 -7.2375 7.56347e-17)
(47.0851 -7.22601 7.54083e-17)
(47.0431 -7.21074 3.45893e-21)
(47.0057 -7.19224 3.06538e-21)
(46.9744 -7.17328 2.67518e-21)
(46.9459 -7.14999 -1.12523e-16)
(46.923 -7.13637 0)
(23.8044 -49.9815 0)
(19.8027 -42.7853 3.49528e-17)
(17.2903 -36.1686 -1.73698e-16)
(16.5072 -29.7682 2.84343e-16)
(16.792 -24.3212 0)
(17.8258 -19.6333 0)
(19.3164 -15.7381 1.56524e-16)
(21.0608 -12.4997 -2.85371e-16)
(22.9723 -9.79009 6.43779e-16)
(24.9442 -7.5855 -4.73478e-16)
(26.9473 -5.78572 -4.38573e-16)
(28.9311 -4.34847 0)
(30.8754 -3.22647 -8.7361e-16)
(32.759 -2.38211 1.84545e-16)
(34.5662 -1.78324 -7.05657e-16)
(36.2834 -1.40172 -8.47299e-17)
(37.9006 -1.21178 -5.71596e-16)
(39.4067 -1.19003 -7.90284e-17)
(40.794 -1.31393 0)
(42.0548 -1.56131 7.45381e-17)
(43.1844 -1.91018 -6.53932e-16)
(44.179 -2.33778 7.08577e-17)
(45.0399 -2.82202 1.72823e-16)
(45.7713 -3.34144 3.3679e-17)
(46.3828 -3.88003 -8.18159e-17)
(46.8622 -4.40065 1.61697e-17)
(47.2045 -4.86231 -2.59622e-16)
(47.4359 -5.25769 5.20979e-16)
(47.5886 -5.59985 -3.26756e-17)
(47.6816 -5.89531 -2.29656e-16)
(47.7293 -6.15004 -6.58957e-17)
(47.7421 -6.36741 3.97179e-16)
(47.7288 -6.55174 -3.32509e-16)
(47.6963 -6.70547 -2.6726e-16)
(47.6498 -6.83224 -1.16349e-21)
(47.5944 -6.93414 -2.6976e-16)
(47.5332 -7.01455 0)
(47.4699 -7.07545 1.36081e-16)
(47.4062 -7.11991 0)
(47.3446 -7.14991 0)
(47.2858 -7.16804 0)
(47.2315 -7.17627 7.81623e-22)
(47.1816 -7.17661 6.90159e-17)
(47.1369 -7.17084 -3.43646e-16)
(47.0969 -7.16035 5.82323e-16)
(47.0622 -7.14673 5.22062e-21)
(47.0314 -7.13038 4.60617e-21)
(47.0057 -7.11377 -5.45237e-16)
(46.9824 -7.09343 2.7245e-16)
(46.9638 -7.0815 0)
(25.7757 -47.6205 -1.64035e-17)
(22.1508 -41.0641 1.5727e-17)
(19.7857 -35.1091 1.26016e-16)
(18.9601 -29.284 -6.4566e-17)
(19.0783 -24.3052 6.70021e-17)
(19.883 -19.9644 -1.43386e-16)
(21.111 -16.3248 1.40254e-16)
(22.5928 -13.2557 5.07515e-16)
(24.2467 -10.656 -4.58849e-16)
(25.979 -8.5066 0)
(27.7631 -6.72079 5.88852e-16)
(29.553 -5.26561 1.84188e-16)
(31.3289 -4.10252 6.9696e-16)
(33.0694 -3.20074 -1.65759e-16)
(34.7575 -2.53398 1.58717e-16)
(36.3778 -2.07872 7.62513e-16)
(37.9177 -1.8127 8.82896e-16)
(39.3642 -1.71529 7.1236e-16)
(40.7074 -1.7659 -5.53204e-16)
(41.9374 -1.9439 0)
(43.0477 -2.22846 5.24668e-16)
(44.0328 -2.59782 5.11919e-16)
(44.892 -3.03073 -4.99367e-16)
(45.6273 -3.50624 -2.73675e-16)
(46.2461 -4.00827 4.43447e-17)
(46.7334 -4.49977 1.02282e-16)
(47.0824 -4.9389 0)
(47.3191 -5.31605 -2.35788e-16)
(47.4765 -5.64251 0)
(47.5742 -5.92375 -1.35952e-20)
(47.6268 -6.16547 0)
(47.6452 -6.37073 -3.00124e-16)
(47.6381 -6.54393 6.03203e-17)
(47.6124 -6.68738 -1.21234e-16)
(47.5736 -6.80491 1.21811e-16)
(47.5264 -6.89855 -1.22391e-16)
(47.4741 -6.97188 2.45888e-16)
(47.4201 -7.02682 3.24324e-21)
(47.3658 -7.06656 -2.47987e-16)
(47.3138 -7.09304 -1.24486e-16)
(47.2645 -7.10884 1.87407e-16)
(47.2193 -7.11583 -6.2686e-17)
(47.178 -7.11592 1.8818e-16)
(47.1415 -7.11075 -6.24479e-17)
(47.1089 -7.10154 -4.35692e-16)
(47.0808 -7.08971 2.48331e-16)
(47.0561 -7.07558 0)
(47.0355 -7.06126 3.09453e-17)
(47.0171 -7.04381 -3.09222e-17)
(47.0024 -7.03338 0)
(27.6643 -45.3098 -1.47443e-17)
(24.3817 -39.3426 -1.34307e-17)
(22.1661 -33.9917 2.85365e-17)
(21.3208 -28.7004 -1.17423e-16)
(21.3074 -24.167 1.21997e-16)
(21.9193 -20.1643 -5.2104e-16)
(22.9175 -16.7857 6.29129e-16)
(24.1644 -13.8987 -7.89123e-16)
(25.5808 -11.4274 4.0885e-16)
(27.0866 -9.35433 1.88767e-16)
(28.6581 -7.60408 0)
(30.2549 -6.15117 -1.65091e-16)
(31.8586 -4.96464 1.56508e-16)
(33.4494 -4.0199 -5.96356e-16)
(35.0097 -3.29638 7.14095e-16)
(36.5234 -2.77531 -6.87224e-16)
(37.9766 -2.4383 -5.30811e-16)
(39.3545 -2.26796 -1.02842e-15)
(40.6454 -2.24616 3.74603e-16)
(41.8374 -2.35424 2.43077e-16)
(42.9225 -2.57294 -1.18525e-16)
(43.893 -2.88181 -5.7771e-17)
(44.7466 -3.26069 3.38394e-16)
(45.4828 -3.6893 1.64846e-16)
(46.1067 -4.15166 2.67125e-17)
(46.6007 -4.61115 -1.58553e-16)
(46.956 -5.02532 0)
(47.1981 -5.38239 1.06771e-16)
(47.3605 -5.69164 -5.36309e-17)
(47.4634 -5.95756 4.85062e-16)
(47.5216 -6.1854 0)
(47.5462 -6.37797 1.08886e-16)
(47.5459 -6.53965 -2.18882e-16)
(47.5279 -6.6727 2.19981e-16)
(47.4973 -6.78104 1.10532e-16)
(47.459 -6.8667 -1.11057e-16)
(47.4159 -6.93332 -1.11559e-16)
(47.3714 -6.98283 0)