/*--------------------------------*- C++ -*----------------------------------*\
  =========                 |
  \\      /  F ield         | OpenFOAM: The Open Source CFD Toolbox
   \\    /   O peration     | Website:  https://openfoam.org
    \\  /    A nd           | Version:  10
     \\/     M anipulation  |
\*---------------------------------------------------------------------------*/
FoamFile
{
    format      ascii;
    class       volScalarField;
    location    "0.001";
    object      nut;
}
// * * * * * * * * * * * * * * * * * * * * * * * * * * * * * * * * * * * * * //

dimensions      [0 2 -1 0 0 0 0];

internalField   nonuniform List<scalar> 
8918
(
3.16519e-08
3.08318e-08
3.03895e-08
2.96449e-08
2.62888e-08
1.03111e-08
1.01919e-08
1.00698e-08
9.94552e-09
9.81926e-09
9.69268e-09
9.56304e-09
9.42918e-09
9.25679e-09
8.85889e-09
2.45762e-08
2.20181e-08
8.74205e-09
8.5959e-09
8.44765e-09
8.29691e-09
8.12314e-09
7.81615e-09
2.04912e-08
1.86529e-08
7.51078e-09
7.35765e-09
7.20583e-09
7.06226e-09
6.92284e-09
6.81499e-09
6.74001e-09
6.69345e-09
6.66967e-09
6.66057e-09
6.66595e-09
6.75223e-09
1.6031e-08
1.56953e-08
6.80508e-09
1.5893e-08
6.8959e-09
1.60836e-08
7.00336e-09
7.12521e-09
1.68685e-08
1.70115e-08
1.7229e-08
1.74673e-08
1.77299e-08
1.80166e-08
1.8327e-08
1.86652e-08
1.90328e-08
1.94249e-08
1.98381e-08
2.02837e-08
2.07573e-08
2.1262e-08
2.15248e-08
1.04871e-08
1.0872e-08
1.12648e-08
2.41325e-08
2.46456e-08
2.52308e-08
2.58211e-08
2.64049e-08
2.6702e-08
1.39659e-08
1.43843e-08
1.48102e-08
1.52431e-08
1.56698e-08
3.01681e-08
1.65605e-08
1.70005e-08
1.74305e-08
3.21559e-08
1.83222e-08
3.34494e-08
3.37417e-08
3.41274e-08
3.44946e-08
3.485e-08
3.51947e-08
3.55188e-08
3.58197e-08
3.56555e-08
2.25558e-08
2.29281e-08
2.3272e-08
3.74341e-08
3.75672e-08
3.7358e-08
2.47119e-08
2.50317e-08
2.5339e-08
2.56275e-08
2.59022e-08
2.61637e-08
2.64173e-08
2.66563e-08
2.68908e-08
2.71079e-08
2.73172e-08
2.74993e-08
2.76639e-08
2.78022e-08
2.78908e-08
4.61788e-08
2.82204e-08
2.83275e-08
2.84584e-08
2.85756e-08
2.87124e-08
2.88374e-08
2.89733e-08
2.9084e-08
2.91221e-08
5.76109e-08
5.64597e-08
2.95595e-08
2.96636e-08
2.97453e-08
6.16276e-08
3.002e-08
6.47254e-08
2.13494e-06
2.108e-06
2.08925e-06
2.05157e-06
1.88055e-06
1.29211e-06
1.28458e-06
1.27792e-06
1.2713e-06
1.26445e-06
1.25715e-06
1.24974e-06
1.24214e-06
1.23223e-06
1.22304e-06
1.78517e-06
1.64004e-06
1.2021e-06
1.19244e-06
1.18305e-06
1.17324e-06
1.16214e-06
1.14639e-06
1.50594e-06
1.395e-06
1.12046e-06
1.10887e-06
1.09805e-06
1.08788e-06
1.07981e-06
1.07477e-06
1.07402e-06
1.07728e-06
1.08438e-06
1.09417e-06
1.10642e-06
1.12392e-06
1.22161e-06
1.23618e-06
1.17649e-06
1.27737e-06
1.22078e-06
1.32427e-06
1.27091e-06
1.30448e-06
1.42306e-06
1.4606e-06
1.50179e-06
1.54639e-06
1.59496e-06
1.64778e-06
1.70501e-06
1.7673e-06
1.83554e-06
1.90946e-06
1.98894e-06
2.07494e-06
2.16914e-06
2.27129e-06
2.3813e-06
2.3757e-06
2.5028e-06
2.63881e-06
2.9127e-06
3.05554e-06
3.20538e-06
3.3619e-06
3.52525e-06
3.6905e-06
3.70233e-06
3.87893e-06
4.06292e-06
4.25267e-06
4.45328e-06
4.83057e-06
4.85363e-06
5.06272e-06
5.28102e-06
5.6869e-06
5.72246e-06
6.14444e-06
6.37159e-06
6.59891e-06
6.82754e-06
7.05704e-06
7.28617e-06
7.51609e-06
7.74481e-06
7.96259e-06
7.97869e-06
8.18794e-06
8.395e-06
8.78846e-06
8.97509e-06
9.14811e-06
9.12075e-06
9.27641e-06
9.41602e-06
9.53334e-06
9.63492e-06
9.72129e-06
9.79045e-06
9.84613e-06
9.88457e-06
9.9088e-06
9.91274e-06
9.89677e-06
9.8533e-06
9.79346e-06
9.73051e-06
9.88427e-06
9.54516e-06
9.44762e-06
9.34306e-06
9.23272e-06
9.12119e-06
9.00561e-06
8.88703e-06
8.75698e-06
8.63317e-06
8.79627e-06
8.64268e-06
8.19855e-06
8.0591e-06
7.94306e-06
8.11401e-06
7.65922e-06
7.83007e-06
1.66164e-05
1.66461e-05
1.66744e-05
1.67006e-05
1.66674e-05
1.59228e-05
1.59478e-05
1.5986e-05
1.60309e-05
1.60784e-05
1.61221e-05
1.61707e-05
1.62264e-05
1.62828e-05
1.63976e-05
1.71741e-05
1.71583e-05
1.65809e-05
1.6659e-05
1.67475e-05
1.6838e-05
1.69417e-05
1.70773e-05
1.76989e-05
1.77278e-05
1.74044e-05
1.75359e-05
1.76817e-05
1.78358e-05
1.80105e-05
1.81913e-05
1.83904e-05
1.85951e-05
1.88166e-05
1.90512e-05
1.93046e-05
1.95806e-05
2.00084e-05
2.03111e-05
2.0514e-05
2.09915e-05
2.12386e-05
2.17589e-05
2.20613e-05
2.25236e-05
2.31492e-05
2.36844e-05
2.42603e-05
2.48782e-05
2.55436e-05
2.62592e-05
2.70258e-05
2.78495e-05
2.87389e-05
2.9689e-05
3.06959e-05
3.1767e-05
3.29225e-05
3.4152e-05
3.54768e-05
3.67437e-05
3.82315e-05
3.97583e-05
4.14109e-05
4.2935e-05
4.44945e-05
4.6088e-05
4.77164e-05
4.93472e-05
5.08985e-05
5.25785e-05
5.42912e-05
5.60129e-05
5.77594e-05
5.95804e-05
6.12158e-05
6.29354e-05
6.46602e-05
6.64525e-05
6.80943e-05
6.9863e-05
7.15231e-05
7.31429e-05
7.47401e-05
7.63122e-05
7.78512e-05
7.93673e-05
8.08497e-05
8.22624e-05
8.35824e-05
8.48647e-05
8.60842e-05
8.72736e-05
8.83824e-05
8.94158e-05
9.03832e-05
9.12614e-05
9.20522e-05
9.27128e-05
9.32817e-05
9.37641e-05
9.4149e-05
9.44602e-05
9.46753e-05
9.48143e-05
9.48415e-05
9.47617e-05
9.45292e-05
9.42074e-05
9.38127e-05
9.33648e-05
9.28625e-05
9.23144e-05
9.17293e-05
9.11077e-05
9.0473e-05
8.98116e-05
8.91284e-05
8.83654e-05
8.75496e-05
8.67511e-05
8.58904e-05
8.50216e-05
8.41475e-05
8.33168e-05
8.2473e-05
8.15016e-05
8.05921e-05
5.31296e-05
5.33353e-05
5.35176e-05
5.37089e-05
5.39134e-05
5.39376e-05
5.412e-05
5.43243e-05
5.45412e-05
5.47612e-05
5.4974e-05
5.51983e-05
5.54359e-05
5.56708e-05
5.59293e-05
5.64038e-05
5.66582e-05
5.67981e-05
5.7085e-05
5.73905e-05
5.77008e-05
5.80305e-05
5.83534e-05
5.88328e-05
5.91601e-05
5.94309e-05
5.98076e-05
6.02133e-05
6.06365e-05
6.10954e-05
6.1575e-05
6.21012e-05
6.26489e-05
6.32391e-05
6.38593e-05
6.45176e-05
6.52102e-05
6.59684e-05
6.67286e-05
6.75071e-05
6.83573e-05
6.91935e-05
7.01116e-05
7.10424e-05
7.20456e-05
7.31313e-05
7.42552e-05
7.54448e-05
7.66961e-05
7.80203e-05
7.9421e-05
8.0893e-05
8.24478e-05
8.41005e-05
8.5833e-05
8.76293e-05
8.9509e-05
9.15049e-05
9.36002e-05
9.5823e-05
9.81388e-05
0.000100547
0.000102958
0.000105273
0.000107498
0.000109697
0.000111898
0.000114098
0.000116257
0.000118433
0.000120564
0.000122696
0.000124803
0.000126896
0.000128891
0.000130908
0.000132841
0.000134745
0.000136567
0.000138445
0.00014018
0.000141877
0.000143486
0.000145039
0.000146537
0.000147976
0.000149366
0.000150691
0.000151912
0.000153068
0.000154065
0.000154977
0.000155772
0.000156536
0.000157207
0.000157847
0.000158316
0.000158666
0.000158851
0.00015893
0.00015891
0.000158787
0.000158585
0.000158287
0.000157907
0.00015741
0.00015679
0.000155995
0.000155106
0.000154156
0.000153107
0.000152125
0.00015105
0.000149954
0.000148829
0.000147711
0.000146574
0.000145425
0.000144183
0.000142882
0.000141536
0.000140198
0.000138957
0.000137628
0.000136365
0.000134985
0.000133657
0.000132196
0.000101641
0.000102018
0.000102366
0.000102729
0.000103108
0.000103508
0.000103866
0.000104242
0.000104632
0.000105026
0.000105413
0.000105818
0.000106241
0.000106666
0.000107115
0.000107576
0.000108044
0.000108567
0.000109064
0.000109577
0.0001101
0.000110647
0.000111172
0.000111705
0.000112268
0.000112885
0.000113488
0.000114122
0.000114783
0.000115487
0.000116221
0.000117013
0.000117834
0.00011871
0.000119622
0.000120582
0.000121582
0.00012262
0.000123706
0.000124855
0.000126
0.000127201
0.000128422
0.000129733
0.000131098
0.000132517
0.000134019
0.0001356
0.000137247
0.00013898
0.000140801
0.000142698
0.000144689
0.000146791
0.000148972
0.000151207
0.000153536
0.000155992
0.000158563
0.000161267
0.000164088
0.000166963
0.000169794
0.000172419
0.000174861
0.000177212
0.000179538
0.000181836
0.000184061
0.000186275
0.000188419
0.000190541
0.000192621
0.000194656
0.000196561
0.000198435
0.000200204
0.000201917
0.000203531
0.000205151
0.000206615
0.000207983
0.000209211
0.000210349
0.000211399
0.000212366
0.000213255
0.000214045
0.000214696
0.000215204
0.000215543
0.000215784
0.00021592
0.000215988
0.000215955
0.000215856
0.000215605
0.000215214
0.00021464
0.000213963
0.000213194
0.000212335
0.000211408
0.000210405
0.000209329
0.00020815
0.000206845
0.000205361
0.000203793
0.000202193
0.000200538
0.000198927
0.000197268
0.000195613
0.000193944
0.000192311
0.000190674
0.000189047
0.000187319
0.000185537
0.000183758
0.000181958
0.000180261
0.000178503
0.000176845
0.000175089
0.000173337
0.000171496
0.000154577
0.000155094
0.000155578
0.000156075
0.000156581
0.000157123
0.000157622
0.000158135
0.000158663
0.0001592
0.000159731
0.000160282
0.000160858
0.000161439
0.000162043
0.000162642
0.000163268
0.000163952
0.000164619
0.000165302
0.000165999
0.000166721
0.00016741
0.000168092
0.000168824
0.000169609
0.00017039
0.000171202
0.000172046
0.000172939
0.000173868
0.000174861
0.000175885
0.000176971
0.000178095
0.000179273
0.000180494
0.000181762
0.00018308
0.000184464
0.000185844
0.000187266
0.000188719
0.000190262
0.000191876
0.000193548
0.000195307
0.000197153
0.000199069
0.00020108
0.000203189
0.000205376
0.000207665
0.000210076
0.000212563
0.000215094
0.000217732
0.000220507
0.000223414
0.000226461
0.000229616
0.00023282
0.000235927
0.000238732
0.00024122
0.000243543
0.000245812
0.00024802
0.000250116
0.000252145
0.000254095
0.000255996
0.000257827
0.000259574
0.000261162
0.000262623
0.000263965
0.00026522
0.000266364
0.000267442
0.000268366
0.000269124
0.000269692
0.000270143
0.000270489
0.00027074
0.000270899
0.000270943
0.000270828
0.000270509
0.000270027
0.000269455
0.000268804
0.000268072
0.000267247
0.000266341
0.000265309
0.000264128
0.000262756
0.000261293
0.000259754
0.000258144
0.000256484
0.000254769
0.000252998
0.000251137
0.000249156
0.000246986
0.000244745
0.0002425
0.000240238
0.000238015
0.000235776
0.000233568
0.000231361
0.000229219
0.000227087
0.000224993
0.000222786
0.000220527
0.000218317
0.000216064
0.000213931
0.000211749
0.000209715
0.000207598
0.00020545
0.000203249
0.00020922
0.000209856
0.000210452
0.000211056
0.000211666
0.000212301
0.000212916
0.000213541
0.000214185
0.000214845
0.000215498
0.000216171
0.000216878
0.000217591
0.000218324
0.000219071
0.000219835
0.000220633
0.000221448
0.000222284
0.000223134
0.000224016
0.000224841
0.000225672
0.000226549
0.000227461
0.000228395
0.000229362
0.000230366
0.000231427
0.000232526
0.000233696
0.0002349
0.000236174
0.000237486
0.000238859
0.00024028
0.000241761
0.00024329
0.000244882
0.000246479
0.00024809
0.000249753
0.000251499
0.000253336
0.000255239
0.000257231
0.000259321
0.000261483
0.000263751
0.000266128
0.000268586
0.000271153
0.000273856
0.000276631
0.000279438
0.000282363
0.00028544
0.000288666
0.000292037
0.000295508
0.000299006
0.000302335
0.00030522
0.000307607
0.000309728
0.00031175
0.000313666
0.000315411
0.00031702
0.000318529
0.00031995
0.000321269
0.000322458
0.000323444
0.000324218
0.000324859
0.000325389
0.0003258
0.000326104
0.000326248
0.000326182
0.000325889
0.000325473
0.000324954
0.000324347
0.000323653
0.000322845
0.000321875
0.000320662
0.000319295
0.000317858
0.00031637
0.000314809
0.00031317
0.000311456
0.000309635
0.000307664
0.000305492
0.000303246
0.000300945
0.000298589
0.000296205
0.000293787
0.00029133
0.000288799
0.000286155
0.000283305
0.000280397
0.00027751
0.000274637
0.000271814
0.000268999
0.000266239
0.000263492
0.000260844
0.000258216
0.000255665
0.000252982
0.000250242
0.000247597
0.000244888
0.000242339
0.000239728
0.000237336
0.000234861
0.000232344
0.000229791
0.00026572
0.00026646
0.000267151
0.000267843
0.000268541
0.000269265
0.000269982
0.000270699
0.000271443
0.000272216
0.000272979
0.000273755
0.000274583
0.000275416
0.000276258
0.000277138
0.000278034
0.000278946
0.000279903
0.000280887
0.000281881
0.000282923
0.000283872
0.000284832
0.000285844
0.000286879
0.000287955
0.000289069
0.000290222
0.000291442
0.000292704
0.000294046
0.000295425
0.000296883
0.000298383
0.00029995
0.00030157
0.000303265
0.000305008
0.000306813
0.000308625
0.00031042
0.000312285
0.000314229
0.000316287
0.000318415
0.000320635
0.000322968
0.000325374
0.000327898
0.000330545
0.000333271
0.000336113
0.000339106
0.000342165
0.000345231
0.000348428
0.000351789
0.000355316
0.000358985
0.000362736
0.000366469
0.000369923
0.000372722
0.000374782
0.000376434
0.00037793
0.000379266
0.000380361
0.000381254
0.000382021
0.000382673
0.000383198
0.000383559
0.000383679
0.000383523
0.000383234
0.000382833
0.000382317
0.000381684
0.000380894
0.000379871
0.000378597
0.000377211
0.000375741
0.000374202
0.000372595
0.000370888
0.000369025
0.000366888
0.000364609
0.000362286
0.000359939
0.000357539
0.000355077
0.000352557
0.000349946
0.000347188
0.000344213
0.000341184
0.00033812
0.000335017
0.00033191
0.000328788
0.000325649
0.00032245
0.000319153
0.000315619
0.000312039
0.000308508
0.000305014
0.000301593
0.000298195
0.000294881
0.000291586
0.000288429
0.000285299
0.00028231
0.000279278
0.000276234
0.000273328
0.000270359
0.000267595
0.000264775
0.000262242
0.000259649
0.000257043
0.000324858
0.00032568
0.000326446
0.000327199
0.000327958
0.000328758
0.000329556
0.000330341
0.000331158
0.000332032
0.000332885
0.000333737
0.000334669
0.000335608
0.000336537
0.000337531
0.000338551
0.000339567
0.000340656
0.000341784
0.000342908
0.000344114
0.000345167
0.000346228
0.00034736
0.000348507
0.000349709
0.000350955
0.000352239
0.000353608
0.000355017
0.000356523
0.000358068
0.000359702
0.000361384
0.00036314
0.000364956
0.00036686
0.000368816
0.000370835
0.000372856
0.000374818
0.000376866
0.000378993
0.000381258
0.000383593
0.000386025
0.00038859
0.000391223
0.000393986
0.000396889
0.000399864
0.000402957
0.000406219
0.000409533
0.000412816
0.000416238
0.000419834
0.000423605
0.000427506
0.000431456
0.00043531
0.000438734
0.000441219
0.000442657
0.000443518
0.00044417
0.000444616
0.000444757
0.000444646
0.000444401
0.000444033
0.000443536
0.000442861
0.000441921
0.000440663
0.000439291
0.000437823
0.000436259
0.000434591
0.000432781
0.000430726
0.000428401
0.000425989
0.000423519
0.000421008
0.000418453
0.000415821
0.000413047
0.000409967
0.000406755
0.000403528
0.000400308
0.000397056
0.000393761
0.000390428
0.000387021
0.000383474
0.000379686
0.000375864
0.000372031
0.000368171
0.000364334
0.000360498
0.000356673
0.000352803
0.000348866
0.000344796
0.000340734
0.00033675
0.000332834
0.000329022
0.000325258
0.000321611
0.000318004
0.000314579
0.000311214
0.000308059
0.000304943
0.000301876
0.000298993
0.000296087
0.000293421
0.000290761
0.000288433
0.000286111
0.000283863
0.000387198
0.000388063
0.000388871
0.000389643
0.000390412
0.000391255
0.000392105
0.000392912
0.000393755
0.000394705
0.000395619
0.000396495
0.000397503
0.000398527
0.000399501
0.000400578
0.000401708
0.000402796
0.000403995
0.000405255
0.000406476
0.000407854
0.000408978
0.000410097
0.000411321
0.000412552
0.000413846
0.000415198
0.00041658
0.000418072
0.000419599
0.000421249
0.000422935
0.000424727
0.000426572
0.000428498
0.000430494
0.000432593
0.000434746
0.000436965
0.00043918
0.000441271
0.000443468
0.00044574
0.000448182
0.00045069
0.000453299
0.000456064
0.000458888
0.000461853
0.000464978
0.000468161
0.000471457
0.000474943
0.000478464
0.000481893
0.000485465
0.000489217
0.000493147
0.000497182
0.000501216
0.000505053
0.000508273
0.000510208
0.000510731
0.000510496
0.000510019
0.000509314
0.000508254
0.000506913
0.000505455
0.000503887
0.000502208
0.000500361
0.000498239
0.000495766
0.000493212
0.000490594
0.000487909
0.000485144
0.000482262
0.000479133
0.00047571
0.000472232
0.000468728
0.000465213
0.000461683
0.000458106
0.000454408
0.000450362
0.000446195
0.000442041
0.000437928
0.000433809
0.000429661
0.000425504
0.000421293
0.000417028
0.00041264
0.000408246
0.000403868
0.00039948
0.000395147
0.000390844
0.000386588
0.000382316
0.000378021
0.000373673
0.000369384
0.000365216
0.000361161
0.00035725
0.000353434
0.000349773
0.000346197
0.000342846
0.00033963
0.000336678
0.000333856
0.00033117
0.000328701
0.000326299
0.00032413
0.000322099
0.000320383
0.000318772
0.000317328
0.00045291
0.000453754
0.000454558
0.000455285
0.00045598
0.000456811
0.000457673
0.000458433
0.000459221
0.000460213
0.00046115
0.000461966
0.000463008
0.000464088
0.000465041
0.000466155
0.000467373
0.000468478
0.000469747
0.000471124
0.000472383
0.000473953
0.000475101
0.000476212
0.00047749
0.000478756
0.000480094
0.000481515
0.000482942
0.000484522
0.000486121
0.000487882
0.000489673
0.000491589
0.000493568
0.000495632
0.00049778
0.000500046
0.000502372
0.000504766
0.000507156
0.000509321
0.000511622
0.000513985
0.00051656
0.000519195
0.000521928
0.000524853
0.000527816
0.000530932
0.000534236
0.000537572
0.000541012
0.000544669
0.000548339
0.000551831
0.000555468
0.000559288
0.000563284
0.000567354
0.000571359
0.000575052
0.000577922
0.000579115
0.000578485
0.000576911
0.000575089
0.000573045
0.000570609
0.000567878
0.000565068
0.00056218
0.000559215
0.000556108
0.000552728
0.00054896
0.000545158
0.000541331
0.000537472
0.000533566
0.000529577
0.000525342
0.000520778
0.000516199
0.000511625
0.000507074
0.000502541
0.000497996
0.000493369
0.000488537
0.000483661
0.000478835
0.000474086
0.000469366
0.00046464
0.000459938
0.000455219
0.00045053
0.000445812
0.000441128
0.000436494
0.000431878
0.000427358
0.000422911
0.000418559
0.000414234
0.000409935
0.000405646
0.000401466
0.000397453
0.000393606
0.000389943
0.000386428
0.00038309
0.000379888
0.000376929
0.000374193
0.000371738
0.000369492
0.00036747
0.000365665
0.000364022
0.000362563
0.000361382
0.00036049
0.000359806
0.000359384
0.000524926
0.00052566
0.000526323
0.000526908
0.000527458
0.000528127
0.000528818
0.000529406
0.000530018
0.000530818
0.000531558
0.000532177
0.000533012
0.000533878
0.000534615
0.000535511
0.000536508
0.000537388
0.000538433
0.000539586
0.000540606
0.000541881
0.000543005
0.000544021
0.00054531
0.000546551
0.000547871
0.000549321
0.000550723
0.000552354
0.000553965
0.000555799
0.000557648
0.00055965
0.000561726
0.00056389
0.000566155
0.000568557
0.000571025
0.000573568
0.000576121
0.000578295
0.000580651
0.000583044
0.000585707
0.000588421
0.000591222
0.000594265
0.000597314
0.000600528
0.000603967
0.000607405
0.000610927
0.000614708
0.000618481
0.000621958
0.000625581
0.000629389
0.000633371
0.000637393
0.00064128
0.00064474
0.000647171
0.000647504
0.000645551
0.000642458
0.00063914
0.000635629
0.000631696
0.000627463
0.000623202
0.000618909
0.000614583
0.000610157
0.000605466
0.000600339
0.000595234
0.000590147
0.000585067
0.000579978
0.000574856
0.000569601
0.000564189
0.000558804
0.000553459
0.000548173
0.000542948
0.000537756
0.000532536
0.000527224
0.000521932
0.000516737
0.000511667
0.000506669
0.000501704
0.000496799
0.00049193
0.000487165
0.000482456
0.000477828
0.00047328
0.000468778
0.000464404
0.000460149
0.000456021
0.000451958
0.000447941
0.000443959
0.000440101
0.000436432
0.000432958
0.000429676
0.00042657
0.000423629
0.000420837
0.00041828
0.000416016
0.000414039
0.000412335
0.000410931
0.00040976
0.000408817
0.000408035
0.000407661
0.000407658
0.000407989
0.000408736
0.000606255
0.000606872
0.000607374
0.000607809
0.00060821
0.000608684
0.000609159
0.00060955
0.000609953
0.000610484
0.000610956
0.000611335
0.000611869
0.000612416
0.00061286
0.000613425
0.00061406
0.000614602
0.000615275
0.000616027
0.000616668
0.00061751
0.000618297
0.000618983
0.000619927
0.000620819
0.000621783
0.000622871
0.00062391
0.000625178
0.000626424
0.000627899
0.000629393
0.000631044
0.000632779
0.000634608
0.000636549
0.000638639
0.000640806
0.000643061
0.000645375
0.000647495
0.000649868
0.000652226
0.00065494
0.00065769
0.000660503
0.000663636
0.000666722
0.000669984
0.00067353
0.000677028
0.000680578
0.000684448
0.0006883
0.000691696
0.000695242
0.000698977
0.000702884
0.000706802
0.000710514
0.000713698
0.000715667
0.000715098
0.000711704
0.000706957
0.000702033
0.000696971
0.000691455
0.00068563
0.00067984
0.000674071
0.000668322
0.000662531
0.000656593
0.000650453
0.000644394
0.0006384
0.000632456
0.000626546
0.000620663
0.000614756
0.000608821
0.00060296
0.000597181
0.000591506
0.000585944
0.000580472
0.000575035
0.000569593
0.000564224
0.000559005
0.000553957
0.000549025
0.000544162
0.000539377
0.000534673
0.000530115
0.000525671
0.00052133
0.000517065
0.00051284
0.000508731
0.000504758
0.000500908
0.000497123
0.000493356
0.000489597
0.000485931
0.000482457
0.000479178
0.000476088
0.000473181
0.000470427
0.000467804
0.000465421
0.0004634
0.000461714
0.000460381
0.000459437
0.000458802
0.00045846
0.000458297
0.000458697
0.000459723
0.000461257
0.000463373
0.000698556
0.000699083
0.000699455
0.000699772
0.000700052
0.000700353
0.000700633
0.00070085
0.00070106
0.000701328
0.000701541
0.00070169
0.000701921
0.000702141
0.000702289
0.000702505
0.000702752
0.000702934
0.000703197
0.0007035
0.000703725
0.000704082
0.000704411
0.00070467
0.000705115
0.000705508
0.000705949
0.000706477
0.000706971
0.000707645
0.000708305
0.000709156
0.000710026
0.000711036
0.000712121
0.000713295
0.000714575
0.000715993
0.000717487
0.00071907
0.000720733
0.000722308
0.000724151
0.000725981
0.000728189
0.000730442
0.000732765
0.000735441
0.000738069
0.00074089
0.000744028
0.000747114
0.000750255
0.000753765
0.000757315
0.000760583
0.000764005
0.00076762
0.000771413
0.000775195
0.000778708
0.000781613
0.000783163
0.000781719
0.000776807
0.000770293
0.000763677
0.000757009
0.000750116
0.000743118
0.000736213
0.000729388
0.000722642
0.00071592
0.000709163
0.000702373
0.000695728
0.000689202
0.000682774
0.00067643
0.000670179
0.000664003
0.000657901
0.000651918
0.000646052
0.000640333
0.000634774
0.000629353
0.000624017
0.000618723
0.000613517
0.000608496
0.000603664
0.00059896
0.00059433
0.000589744
0.000585243
0.000580887
0.000576655
0.000572514
0.000568401
0.000564272
0.000560215
0.000556289
0.000552463
0.000548685
0.000544882
0.00054103
0.000537228
0.000533631
0.000530242
0.000527056
0.000524075
0.000521267
0.000518557
0.000516124
0.000514143
0.000512605
0.000511526
0.000510957
0.00051085
0.000511124
0.000511611
0.000512849
0.000515155
0.000518222
0.000802925
0.000803376
0.000803661
0.000803899
0.000804094
0.000804262
0.000804388
0.000804466
0.000804515
0.00080456
0.00080455
0.000804499
0.000804459
0.000804386
0.000804267
0.000804161
0.000804047
0.000803892
0.000803766
0.000803641
0.000803468
0.000803354
0.000803214
0.000803036
0.000802951
0.000802814
0.000802687
0.000802594
0.00080248
0.000802475
0.000802462
0.000802579
0.000802706
0.000802937
0.000803219
0.000803573
0.000804005
0.000804545
0.000805138
0.000805798
0.000806522
0.000807215
0.000808137
0.000809065
0.000810327
0.000811643
0.000813041
0.000814769
0.000816469
0.000818362
0.000820561
0.000822724
0.000824959
0.000827578
0.00083029
0.000832852
0.000835584
0.000838525
0.000841656
0.000844778
0.000847615
0.00084983
0.000850655
0.000848302
0.000842179
0.000834386
0.000826581
0.000818821
0.000811017
0.000803253
0.000795644
0.000788182
0.000780864
0.000773639
0.000766475
0.000759403
0.000752535
0.00074584
0.000739284
0.000732846
0.000726553
0.000720407
0.0007144
0.00070853
0.00070278
0.000697187
0.000691771
0.000686506
0.000681336
0.000676197
0.000671103
0.000666193
0.000661454
0.000656823
0.000652229
0.000647603
0.00064303
0.000638579
0.000634246
0.000629978
0.00062568
0.000621287
0.00061692
0.00061269
0.000608559
0.000604476
0.00060034
0.000596092
0.000591854
0.00058787
0.000584132
0.000580642
0.00057741
0.000574417
0.000571463
0.000568843
0.000566798
0.000565354
0.000564497
0.000564312
0.000564861
0.000566327
0.000568689
0.000572389
0.000578291
0.000586197
0.000919268
0.00092016
0.000920545
0.000920779
0.000920969
0.000921106
0.000921176
0.000921183
0.000921151
0.00092107
0.00092093
0.000920735
0.000920509
0.000920237
0.00091991
0.000919553
0.000919162
0.000918729
0.000918268
0.000917791
0.000917281
0.000916742
0.0009162
0.000915622
0.000915028
0.000914444
0.000913799
0.000913115
0.000912411
0.000911689
0.000911005
0.00091031
0.000909676
0.000909039
0.00090846
0.000907899
0.000907384
0.000906907
0.000906493
0.000906095
0.000905727
0.000905373
0.000905011
0.000904804
0.000904618
0.000904675
0.000904781
0.000904969
0.00090541
0.000905844
0.000906439
0.000907275
0.000908087
0.00090898
0.000910212
0.000911561
0.000912856
0.000914327
0.000916005
0.000917864
0.000919714
0.000921286
0.000922261
0.000921913
0.0009185
0.00091142
0.000902798
0.000894269
0.000885884
0.000877592
0.00086944
0.000861497
0.000853764
0.00084623
0.000838843
0.000831579
0.000824481
0.000817623
0.000810964
0.000804454
0.000798056
0.000791815
0.000785749
0.000779836
0.000774035
0.000768307
0.000762702
0.000757255
0.000751941
0.000746696
0.000741431
0.000736117
0.000730971
0.000725972
0.000721053
0.000716127
0.000711078
0.000706037
0.000701115
0.000696319
0.000691582
0.000686782
0.000681791
0.0006768
0.000671981
0.000667302
0.000662703
0.000658058
0.000653225
0.000648352
0.000643827
0.000639615
0.000635718
0.000632166
0.000629013
0.000626302
0.000624238
0.000623011
0.000622682
0.000623323
0.000625145
0.000628448
0.000633887
0.000641498
0.000650959
0.000662272
0.000675112
0.00105023
0.00105084
0.0010512
0.0010514
0.00105156
0.00105165
0.00105164
0.00105155
0.00105142
0.00105122
0.00105092
0.00105055
0.00105016
0.00104968
0.00104912
0.00104854
0.00104789
0.00104717
0.00104642
0.00104562
0.00104476
0.00104388
0.00104294
0.00104196
0.00104097
0.00103993
0.00103881
0.0010376
0.00103631
0.00103499
0.00103365
0.00103229
0.00103092
0.00102954
0.00102816
0.00102677
0.0010254
0.00102402
0.00102265
0.00102126
0.00101984
0.00101838
0.0010169
0.00101549
0.0010141
0.00101285
0.00101163
0.00101047
0.00100946
0.00100845
0.00100754
0.00100676
0.00100596
0.00100522
0.00100472
0.00100432
0.00100392
0.00100368
0.0010036
0.00100366
0.00100367
0.00100339
0.00100256
0.00100054
0.000995832
0.000987977
0.000978892
0.000969996
0.000961323
0.000952832
0.000944527
0.000936459
0.000928637
0.00092104
0.000913604
0.0009063
0.000899179
0.000892295
0.000885598
0.000879016
0.000872491
0.000866095
0.000859863
0.000853761
0.000847715
0.000841659
0.000835668
0.000829806
0.000824055
0.000818344
0.000812552
0.000806586
0.000800792
0.000795143
0.000789571
0.00078397
0.00077815
0.000772295
0.000766595
0.000761059
0.000755612
0.000750115
0.000744302
0.000738475
0.000732896
0.000727538
0.000722334
0.000717153
0.000711968
0.000707084
0.000702715
0.000698788
0.00069531
0.000692359
0.000690094
0.000688732
0.000688482
0.000689635
0.000692407
0.000697062
0.000703884
0.000712774
0.00072368
0.000736372
0.000750647
0.000766466
0.000783543
0.00119476
0.00119545
0.00119579
0.00119596
0.00119606
0.00119609
0.001196
0.0011958
0.00119555
0.00119522
0.00119475
0.00119421
0.00119364
0.00119295
0.00119216
0.00119134
0.00119042
0.00118941
0.00118837
0.00118724
0.00118604
0.00118482
0.0011835
0.00118213
0.00118075
0.00117927
0.00117771
0.00117596
0.00117409
0.00117219
0.0011702
0.00116817
0.00116609
0.00116397
0.00116181
0.00115961
0.00115739
0.00115512
0.00115283
0.00115046
0.00114802
0.00114545
0.00114284
0.00114023
0.00113761
0.00113503
0.00113245
0.0011299
0.00112739
0.00112487
0.00112237
0.00111989
0.00111734
0.00111482
0.00111243
0.00111008
0.00110775
0.00110551
0.00110336
0.00110126
0.00109904
0.0010965
0.00109341
0.00108929
0.00108306
0.00107449
0.00106511
0.00105598
0.00104712
0.00103846
0.00102999
0.00102174
0.00101373
0.00100593
0.000998276
0.000990704
0.000983285
0.000976071
0.000969007
0.000961997
0.000954956
0.000947997
0.00094118
0.000934465
0.000927753
0.000920932
0.000914115
0.000907418
0.000900832
0.000894284
0.000887614
0.000880605
0.000873815
0.000867209
0.000860716
0.000854213
0.000847379
0.000840461
0.000833779
0.000827336
0.00082106
0.000814835
0.000808582
0.000802538
0.000796863
0.000791545
0.000786517
0.000781627
0.000776862
0.000772718
0.000769358
0.00076666
0.00076466
0.00076351
0.000763535
0.000765189
0.000768823
0.000774795
0.000783133
0.000793348
0.000805188
0.000818733
0.000834004
0.000850851
0.000869184
0.000888977
0.00135348
0.00135426
0.00135455
0.00135464
0.00135465
0.00135458
0.00135436
0.00135401
0.0013536
0.00135309
0.00135242
0.00135166
0.00135085
0.0013499
0.00134884
0.00134773
0.00134651
0.00134517
0.0013438
0.00134232
0.00134074
0.00133914
0.00133743
0.00133563
0.00133383
0.00133192
0.00132991
0.00132761
0.00132513
0.0013226
0.00131995
0.00131723
0.00131442
0.00131154
0.00130859
0.00130557
0.0013025
0.00129935
0.00129613
0.0012928
0.00128935
0.00128567
0.00128192
0.00127809
0.00127423
0.00127033
0.00126638
0.00126243
0.00125843
0.00125439
0.00125029
0.0012461
0.00124177
0.00123742
0.00123307
0.0012287
0.00122433
0.00121999
0.00121563
0.0012112
0.00120656
0.00120153
0.00119594
0.00118949
0.00118156
0.00117218
0.00116239
0.00115289
0.00114365
0.00113459
0.00112566
0.00111691
0.00110837
0.00110002
0.00109175
0.00108349
0.00107533
0.00106734
0.00105946
0.00105158
0.00104357
0.00103559
0.00102776
0.00102002
0.00101225
0.00100427
0.000996247
0.000988363
0.00098063
0.000972974
0.000965205
0.000956841
0.000948809
0.00094104
0.000933468
0.000925995
0.000918483
0.0009111
0.000904066
0.000897387
0.000890997
0.000884799
0.00087877
0.000873134
0.000868027
0.000863474
0.000859426
0.000855665
0.000852063
0.000849494
0.000848161
0.000847866
0.000848712
0.000850957
0.000855214
0.000861939
0.000871143
0.000882509
0.000895815
0.000910497
0.000926175
0.000943433
0.000962299
0.00098272
0.0010047
0.00102841
0.00152652
0.00152729
0.00152745
0.00152739
0.00152722
0.00152696
0.00152654
0.00152597
0.0015253
0.00152452
0.00152357
0.0015225
0.00152136
0.00152008
0.00151866
0.00151718
0.00151558
0.00151385
0.00151205
0.00151015
0.00150813
0.00150607
0.00150389
0.00150162
0.00149933
0.00149694
0.00149449
0.00149156
0.00148841
0.00148518
0.00148179
0.00147832
0.00147472
0.00147103
0.00146725
0.00146336
0.0014594
0.00145534
0.00145117
0.00144687
0.0014424
0.00143759
0.00143265
0.00142759
0.00142246
0.00141722
0.0014119
0.00140653
0.00140104
0.00139547
0.00138978
0.0013839
0.00137778
0.00137158
0.00136528
0.0013589
0.00135247
0.00134599
0.0013394
0.00133262
0.00132552
0.00131794
0.0013098
0.00130095
0.0012912
0.00128075
0.00127022
0.00125996
0.00124994
0.00124006
0.00123023
0.00122051
0.00121097
0.0012016
0.00119225
0.00118282
0.00117345