/*--------------------------------*- C++ -*----------------------------------*\
  =========                 |
  \\      /  F ield         | OpenFOAM: The Open Source CFD Toolbox
   \\    /   O peration     | Website:  https://openfoam.org
    \\  /    A nd           | Version:  10
     \\/     M anipulation  |
\*---------------------------------------------------------------------------*/
FoamFile
{
    format      ascii;
    class       volVectorField;
    location    "0.001";
    object      U;
}
// * * * * * * * * * * * * * * * * * * * * * * * * * * * * * * * * * * * * * //

dimensions      [0 1 -1 0 0 0 0];

internalField   nonuniform List<vector> 
8918
(
(1.52387 0.219786 7.28516e-15)
(1.5148 0.217527 -3.62712e-15)
(1.50665 0.215359 3.57129e-15)
(1.49851 0.213159 -5.49224e-17)
(1.49113 0.210882 -3.36494e-15)
(1.49352 0.210124 -6.87833e-15)
(1.48519 0.207924 3.3018e-15)
(1.4773 0.205673 5.16181e-17)
(1.46934 0.203457 5.0986e-17)
(1.46147 0.201273 -3.27136e-15)
(1.45392 0.19906 -6.31016e-15)
(1.44637 0.196892 0)
(1.4387 0.1948 0)
(1.43065 0.192598 0)
(1.42088 0.190011 -5.99637e-15)
(1.40842 0.187244 2.99372e-15)
(1.40205 0.18528 2.89245e-15)
(1.4037 0.184277 0)
(1.39679 0.182256 0)
(1.39034 0.18022 4.28382e-17)
(1.38414 0.178192 -8.42649e-17)
(1.37743 0.176225 -5.32321e-15)
(1.36968 0.173954 4.07077e-17)
(1.36054 0.171558 5.18771e-15)
(1.35544 0.169771 -3.95785e-17)
(1.35552 0.168486 -4.98249e-15)
(1.35035 0.166691 4.91727e-15)
(1.34558 0.164828 0)
(1.34119 0.162985 4.69924e-15)
(1.33685 0.161201 0)
(1.33324 0.159425 0)
(1.33009 0.15776 0)
(1.32766 0.1561 -4.35253e-15)
(1.32586 0.154541 8.6178e-15)
(1.32438 0.152922 -4.21933e-15)
(1.32358 0.151304 -3.22323e-17)
(1.32312 0.149772 -3.96317e-15)
(1.32199 0.148334 -3.10007e-17)
(1.32281 0.146989 -3.02306e-17)
(1.32521 0.145667 1.95544e-23)
(1.32572 0.144168 -3.68577e-15)
(1.32914 0.142917 -2.84932e-17)
(1.33085 0.141482 3.59545e-15)
(1.33558 0.140272 -3.49144e-15)
(1.33979 0.139027 0)
(1.34328 0.137627 -2.61115e-17)
(1.34898 0.136358 -3.27791e-15)
(1.35532 0.135104 2.50292e-17)
(1.36248 0.133868 4.89164e-17)
(1.3706 0.132614 6.03658e-15)
(1.37956 0.131373 4.68062e-17)
(1.38948 0.130118 0)
(1.40048 0.128848 0)
(1.41252 0.127573 -4.3709e-17)
(1.4256 0.126164 4.26273e-17)
(1.43958 0.124714 0)
(1.45523 0.123293 5.20545e-15)
(1.4718 0.121697 -3.9711e-17)
(1.49018 0.120141 5.00039e-15)
(1.50948 0.11833 4.87646e-15)
(1.53242 0.116573 -3.68225e-17)
(1.55395 0.114313 -3.59225e-17)
(1.57641 0.111936 4.48479e-15)
(1.59695 0.109043 -4.34557e-15)
(1.62053 0.105927 2.16911e-15)
(1.64508 0.10254 -3.40968e-17)
(1.67054 0.0988561 3.43023e-17)
(1.69642 0.0948735 -2.20858e-15)
(1.72367 0.090715 -4.40913e-15)
(1.75375 0.086237 2.23184e-15)
(1.78236 0.0814274 2.20969e-15)
(1.81133 0.076145 0)
(1.8413 0.0706389 -3.55002e-17)
(1.87133 0.0646509 -1.10725e-15)
(1.89926 0.0583477 -1.15199e-15)
(1.93331 0.0516753 -5.78557e-16)
(1.96488 0.0446535 5.82102e-16)
(1.99681 0.0370798 -1.8304e-17)
(2.02598 0.0289656 3.69071e-17)
(2.06186 0.0207727 -1.85374e-17)
(2.09127 0.0122008 0)
(2.12436 0.00297491 1.693e-16)
(2.15735 -0.0062886 2.84037e-16)
(2.19052 -0.0161348 1.90621e-17)
(2.22401 -0.0266275 -1.91899e-17)
(2.25775 -0.037659 -4.71556e-23)
(2.29148 -0.0490355 -6.22549e-16)
(2.32524 -0.0608751 1.27333e-15)
(2.35939 -0.0732798 -1.97285e-17)
(2.3962 -0.0861025 1.26969e-15)
(2.42941 -0.0992281 2.55793e-15)
(2.46239 -0.112977 0)
(2.49172 -0.126651 8.4863e-23)
(2.52479 -0.141197 0)
(2.55794 -0.156155 0)
(2.59411 -0.171772 7.89347e-23)
(2.62643 -0.187737 1.362e-15)
(2.65785 -0.203937 2.70742e-15)
(2.68867 -0.220795 -1.38537e-15)
(2.71887 -0.23795 2.15341e-17)
(2.7486 -0.255589 -2.17137e-17)
(2.77808 -0.273799 2.78639e-15)
(2.80691 -0.292303 4.42882e-17)
(2.83564 -0.311462 -1.11687e-22)
(2.86352 -0.3308 -2.91591e-15)
(2.89109 -0.350933 2.92319e-15)
(2.91728 -0.371164 0)
(2.94286 -0.392121 3.01112e-15)
(2.96719 -0.413261 -3.0715e-15)
(2.99147 -0.43541 3.05759e-15)
(3.01056 -0.45727 2.42365e-17)
(3.04036 -0.481797 3.13236e-15)
(3.06387 -0.505754 0)
(3.0883 -0.530756 0)
(3.11202 -0.556199 -3.24838e-15)
(3.13697 -0.583013 0)
(3.16107 -0.61019 -6.65812e-15)
(3.18593 -0.638856 -3.39257e-15)
(3.20938 -0.66778 0)
(3.23249 -0.698142 -3.51002e-15)
(3.24937 -0.727783 2.75143e-17)
(3.27351 -0.760348 3.55583e-15)
(3.30579 -0.796353 2.83055e-17)
(3.32879 -0.831287 3.69719e-15)
(3.35442 -0.867981 -2.92447e-17)
(3.37126 -0.903438 3.77571e-15)
(3.40477 -0.945866 -3.0125e-17)
(3.41917 -0.983215 4.56761e-17)
(4.41684 0.659291 -5.94651e-15)
(4.39689 0.653464 0)
(4.37819 0.647372 -2.93451e-15)
(4.35978 0.641283 2.95618e-15)
(4.34217 0.635363 5.73892e-15)
(4.32649 0.629239 2.87743e-15)
(4.3082 0.622572 -2.89552e-15)
(4.29037 0.616262 -2.74197e-15)
(4.27267 0.610034 -4.32571e-17)
(4.25529 0.603862 2.79318e-15)
(4.23841 0.597629 5.4347e-15)
(4.22179 0.591444 4.21803e-17)
(4.20536 0.585376 -4.18987e-17)
(4.18913 0.57919 -2.65125e-15)
(4.17267 0.572611 4.11665e-17)
(4.15445 0.56642 -2.68724e-15)
(4.14093 0.561174 -2.57247e-15)
(4.13005 0.555413 -3.98782e-17)
(4.11609 0.549214 0)
(4.10283 0.543273 0)
(4.09022 0.537342 3.86979e-17)
(4.07761 0.531518 4.8759e-15)
(4.06505 0.525377 0)
(4.0517 0.5194 -4.88381e-15)
(4.04209 0.514227 4.82851e-15)
(4.03488 0.5087 -4.67646e-15)
(4.02582 0.503031 -4.70869e-15)
(4.01746 0.497432 7.13542e-17)
(4.01001 0.491845 0)
(4.0031 0.486377 4.45847e-15)
(3.99738 0.480894 4.39061e-15)
(3.99248 0.475558 -4.34115e-15)
(3.98868 0.470109 8.52051e-15)
(3.98602 0.46476 -4.21147e-15)
(3.98419 0.459321 0)
(3.9839 0.453936 0)
(3.98448 0.448672 8.04045e-15)
(3.98582 0.443842 -6.16327e-17)
(3.98921 0.439103 0)
(3.99439 0.434121 0)
(3.99974 0.429084 -3.71308e-15)
(4.00755 0.42415 -5.68812e-17)
(4.016 0.419225 -3.51467e-15)
(4.027 0.414354 8.63583e-23)
(4.03943 0.409507 3.41759e-15)
(4.05292 0.404606 5.22329e-17)
(4.06909 0.399771 3.22227e-15)
(4.08705 0.394879 -3.19431e-15)
(4.10716 0.389991 -3.11496e-15)
(4.12962 0.38504 -3.08929e-15)
(4.15429 0.380044 3.00835e-15)
(4.18138 0.374966 2.88123e-15)
(4.21114 0.369786 5.65453e-15)
(4.24348 0.364497 5.41364e-15)
(4.27821 0.358917 -5.29039e-15)
(4.31539 0.353067 0)
(4.35625 0.347199 -4.97813e-15)
(4.39957 0.340803 3.76715e-17)
(4.44672 0.334337 -3.64586e-17)
(4.49601 0.327174 4.47242e-15)
(4.5486 0.319624 6.77838e-17)
(4.60243 0.311102 -4.21892e-15)
(4.65806 0.302031 0)
(4.71428 0.291952 3.90882e-15)
(4.77183 0.280938 0)
(4.83116 0.269151 0)
(4.89194 0.256691 -1.91334e-15)
(4.95342 0.243399 2.4417e-22)
(5.01684 0.229662 3.73991e-15)
(5.07985 0.214824 2.86762e-17)
(5.14528 0.199441 -2.84599e-17)
(5.21108 0.182964 -9.03888e-16)
(5.27822 0.165893 -8.97437e-16)
(5.34524 0.147683 -2.78446e-17)
(5.41398 0.128905 9.156e-16)
(5.48043 0.108966 -4.12114e-16)
(5.54867 0.0882476 4.36805e-16)
(5.61713 0.0664265 1.89951e-16)
(5.68682 0.0438731 -1.89432e-16)
(5.75424 0.0202489 -1.60989e-16)
(5.82398 -0.00429018 2.677e-17)
(5.89238 -0.0297716 0)
(5.96023 -0.0564244 -2.12235e-16)
(6.02803 -0.0838324 4.22811e-16)
(6.09609 -0.112096 0)
(6.16425 -0.141447 -8.3997e-16)
(6.23211 -0.171641 2.6177e-17)
(6.29983 -0.202768 -8.87844e-16)
(6.36759 -0.234931 -8.08062e-16)
(6.43283 -0.267927 0)
(6.49995 -0.301905 -8.308e-16)
(6.56709 -0.337302 -8.30959e-16)
(6.63566 -0.373336 1.66731e-15)
(6.70304 -0.410463 0)
(6.77055 -0.448684 0)
(6.83638 -0.487703 8.35812e-16)
(6.90414 -0.528255 1.30964e-17)
(6.97121 -0.569512 -8.41954e-16)
(7.03838 -0.612129 8.44926e-16)
(7.10549 -0.655859 -1.32888e-17)
(7.1729 -0.700661 1.33564e-17)
(7.24087 -0.747043 -1.73607e-15)
(7.30892 -0.794272 -1.72086e-15)
(7.3778 -0.843387 -1.36632e-17)
(7.44651 -0.893542 1.76399e-15)
(7.51584 -0.945709 -2.32665e-23)
(7.58452 -0.998737 -1.40565e-17)
(7.65372 -1.05383 -1.81856e-15)
(7.72261 -1.11004 3.71166e-15)
(7.79288 -1.16876 -5.90106e-23)
(7.86526 -1.22907 -2.95784e-17)
(7.93531 -1.29143 1.4944e-17)
(8.00727 -1.35558 -1.93853e-15)
(8.0812 -1.42253 1.53679e-17)
(8.15528 -1.49115 1.97642e-15)
(8.23164 -1.56312 0)
(8.3078 -1.63685 4.11146e-15)
(8.38567 -1.71394 2.05643e-15)
(8.46283 -1.79313 1.64588e-17)
(8.54133 -1.8758 2.15302e-15)
(8.62307 -1.96181 2.201e-15)
(8.70253 -2.05 -1.73886e-17)
(8.78111 -2.14231 1.75967e-17)
(8.86148 -2.23816 -2.30241e-15)
(8.94537 -2.33885 0)
(9.02966 -2.44301 0)
(9.11004 -2.55071 -2.41097e-15)
(9.19295 -2.66432 0)
(6.45546 0.969433 2.84772e-17)
(6.4296 0.960655 -1.81093e-15)
(6.4045 0.951852 1.79478e-15)
(6.37919 0.94294 2.68054e-22)
(6.35332 0.933924 -1.76365e-15)
(6.32383 0.924081 0)
(6.29939 0.91494 0)
(6.27542 0.905948 1.69924e-15)
(6.25169 0.897022 1.66002e-15)
(6.22836 0.888155 2.61362e-17)
(6.20548 0.879194 -1.65011e-15)
(6.18295 0.870262 1.63678e-15)
(6.16088 0.861492 0)
(6.13962 0.852681 1.57697e-15)
(6.11919 0.843682 1.58743e-15)
(6.10093 0.835402 2.47883e-17)
(6.08033 0.826904 -4.88818e-17)
(6.05651 0.81734 -1.02133e-22)
(6.03701 0.808411 4.73922e-17)
(6.01826 0.799636 2.94244e-15)
(6.00022 0.790837 9.2235e-17)
(5.98271 0.782214 -4.56505e-17)
(5.96617 0.773424 4.49233e-17)
(5.95165 0.765006 -4.4675e-17)
(5.93568 0.756635 -2.82072e-15)
(5.91802 0.747499 2.79644e-15)
(5.90372 0.738904 -4.25379e-17)
(5.89018 0.73032 -4.17804e-17)
(5.8775 0.721696 2.63592e-15)
(5.86543 0.713186 4.05517e-17)
(5.85432 0.704591 -5.0957e-15)
(5.84379 0.696044 2.55062e-15)
(5.83414 0.687318 -2.53332e-15)
(5.82533 0.678654 2.42092e-15)
(5.81732 0.669969 3.69287e-17)
(5.8107 0.661336 0)
(5.8051 0.652646 2.97722e-23)
(5.80122 0.644365 -2.23379e-15)
(5.79782 0.636175 -3.39958e-17)
(5.79501 0.627696 3.32996e-17)
(5.79467 0.619325 2.07763e-15)
(5.7944 0.610672 3.17246e-17)
(5.79684 0.60223 -3.76316e-23)
(5.79946 0.593554 3.82658e-15)
(5.80451 0.585016 -1.88059e-15)
(5.81162 0.576449 0)
(5.81995 0.567753 -1.78153e-15)
(5.82987 0.558942 1.72919e-15)
(5.84174 0.550077 3.32764e-15)
(5.85567 0.541077 2.54417e-17)
(5.87156 0.531957 0)
(5.88963 0.522679 -1.54766e-15)
(5.91004 0.513212 -2.94904e-15)
(5.93269 0.503548 -5.69893e-15)
(5.95757 0.493519 2.76617e-15)
(5.98479 0.483097 -2.06684e-17)
(6.01519 0.472583 2.56844e-15)
(6.0479 0.461402 0)
(6.0838 0.450054 0)
(6.12166 0.437836 -4.51824e-15)
(6.16158 0.425101 0)
(6.20363 0.411326 -2.0715e-15)
(6.24754 0.396888 1.98463e-15)
(6.29347 0.381321 1.9049e-15)
(6.3406 0.364649 1.44849e-17)
(6.38973 0.347164 -2.86262e-17)
(6.4406 0.329013 9.19451e-16)
(6.4927 0.309974 0)
(6.54689 0.290487 -8.84941e-16)
(6.60113 0.269868 0)
(6.65828 0.24875 0)
(6.71629 0.226439 8.45523e-23)
(6.77578 0.203538 8.47685e-16)
(6.83575 0.17947 4.19802e-16)
(6.89761 0.154756 0)
(6.95805 0.128842 2.06291e-16)
(7.02056 0.102178 -2.17442e-16)
(7.08374 0.0743511 1.26951e-17)
(7.14819 0.0455471 1.0094e-16)
(7.21138 0.0158662 1.25234e-17)
(7.27672 -0.0147282 2.49133e-17)
(7.34158 -0.0464921 -1.00896e-22)
(7.40648 -0.0791728 9.86498e-17)
(7.47185 -0.112835 -1.96476e-16)
(7.53799 -0.147559 -1.22343e-17)
(7.60467 -0.18346 1.95141e-16)
(7.67153 -0.220288 1.21644e-17)
(7.73887 -0.25814 -2.42762e-17)
(7.80673 -0.297154 7.8793e-16)
(7.87358 -0.337131 -3.9967e-16)
(7.94234 -0.378084 3.99737e-16)
(8.0117 -0.420594 7.63869e-16)
(8.08229 -0.463875 -3.7672e-16)
(8.15314 -0.508466 0)
(8.22469 -0.554338 1.22102e-17)
(8.29617 -0.601163 -7.60938e-23)
(8.36945 -0.64964 -1.22961e-17)
(8.44295 -0.699071 1.23686e-17)
(8.51756 -0.750136 3.72897e-16)
(8.59289 -0.802604 4.13542e-16)
(8.66946 -0.856373 0)
(8.74731 -0.912076 -8.14885e-16)
(8.82618 -0.968998 2.44675e-24)
(8.90654 -1.02822 8.17222e-16)
(8.98779 -1.08876 -8.25806e-16)
(9.07048 -1.15177 -8.34984e-16)
(9.15381 -1.21607 -1.34224e-17)
(9.23869 -1.28297 0)
(9.32455 -1.35146 -1.77293e-15)
(9.41242 -1.42289 6.9958e-18)
(9.50247 -1.49626 7.10935e-18)
(9.59277 -1.57261 -7.21563e-18)
(9.68513 -1.65106 9.30986e-16)
(9.77976 -1.73303 2.50464e-23)
(9.87572 -1.81727 -9.61435e-16)
(9.97405 -1.90553 9.88154e-16)
(10.0733 -1.99627 -1.0013e-15)
(10.1747 -2.09088 1.01667e-15)
(10.2767 -2.18859 -1.03585e-15)
(10.381 -2.29051 1.07882e-15)
(10.4875 -2.39678 -1.08602e-15)
(10.5942 -2.50663 0)
(10.7013 -2.62169 0)
(10.8105 -2.74112 0)
(10.9219 -2.86657 1.17073e-15)
(11.0337 -2.99678 0)
(11.144 -3.13219 2.43773e-15)
(11.2552 -3.27443 -9.66203e-18)
(7.50072 1.12941 1.16157e-15)
(7.47097 1.11884 1.18754e-15)
(7.44203 1.10849 -1.15529e-15)
(7.41298 1.098 -1.15861e-15)
(7.38363 1.08743 -5.42333e-23)
(7.35314 1.07662 1.74222e-17)
(7.32488 1.06614 1.13385e-15)
(7.29691 1.05563 -1.11977e-15)
(7.26917 1.04515 -1.0746e-15)
(7.24185 1.03473 -1.06283e-15)
(7.2149 1.0242 -1.04475e-15)
(7.1882 1.01368 -1.06567e-15)
(7.16193 1.00331 3.19349e-17)
(7.1362 0.992873 1.00496e-15)
(7.11098 0.982341 0)
(7.08716 0.972133 0)
(7.06238 0.961681 0)
(7.03645 0.950825 9.48301e-16)
(7.01273 0.940363 0)
(6.98963 0.92992 -1.81086e-15)
(6.96711 0.919425 -2.82897e-17)
(6.94502 0.909089 -2.79189e-17)
(6.92374 0.898656 2.73518e-17)
(6.90381 0.88832 0)
(6.88337 0.878012 -1.67387e-15)
(6.8625 0.867342 -2.59636e-17)
(6.84358 0.85706 2.55953e-17)
(6.82539 0.846703 1.55313e-15)
(6.80794 0.836279 -1.52624e-15)
(6.79108 0.82596 -1.59441e-15)
(6.7751 0.815532 1.5363e-15)
(6.7597 0.805115 -1.46349e-15)
(6.74517 0.794574 -4.52928e-17)
(6.7314 0.784099 -2.84944e-15)
(6.71845 0.773597 -1.36482e-15)
(6.70677 0.763136 -2.1267e-17)
(6.69612 0.752588 -1.32396e-15)
(6.6868 0.742183 2.59716e-15)
(6.6782 0.731948 1.28107e-15)
(6.67045 0.721569 0)
(6.66447 0.711273 1.19882e-15)
(6.65917 0.700714 0)
(6.65586 0.69024 -1.77852e-17)
(6.65332 0.679581 -1.09001e-15)
(6.65269 0.669055 0)
(6.65379 0.65841 0)
(6.65633 0.647631 1.588e-17)
(6.66043 0.636737 -1.53897e-17)
(6.6664 0.62577 -1.4904e-17)
(6.67434 0.614645 9.39618e-16)
(6.68419 0.603378 -1.3979e-17)
(6.69618 0.591931 2.70057e-17)
(6.71041 0.58027 8.22671e-16)
(6.72685 0.568385 1.35459e-22)
(6.74558 0.556118 0)
(6.76672 0.54342 1.17101e-17)
(6.7909 0.530607 -1.46697e-15)
(6.81748 0.517088 1.39037e-15)
(6.84709 0.503373 5.77978e-23)
(6.87889 0.488737 1.28361e-15)
(6.91314 0.473597 6.09018e-23)
(6.94937 0.45736 1.18194e-15)
(6.9877 0.440419 -1.1255e-15)
(7.02827 0.422256 -1.62609e-15)
(7.07108 0.402958 -8.3107e-18)
(7.1162 0.382834 0)
(7.16339 0.362043 8.17537e-18)
(7.21221 0.340342 -1.62234e-17)
(7.26333 0.318187 6.81337e-23)
(7.31551 0.294903 1.59959e-17)
(7.37016 0.2711 -6.82925e-23)
(7.42605 0.246053 4.97421e-16)
(7.48354 0.220412 -2.51229e-16)
(7.54188 0.19357 -2.49882e-16)
(7.60177 0.166037 7.77216e-18)
(7.66182 0.137281 -1.31579e-16)
(7.72351 0.107754 0)
(7.78611 0.0770204 0)
(7.84964 0.0452959 7.66455e-18)
(7.91331 0.0126116 -1.52943e-17)
(7.97824 -0.0210343 0)
(8.04356 -0.0558994 0)
(8.10922 -0.091784 -6.09616e-17)
(8.17562 -0.128669 0)
(8.24301 -0.166636 -7.62485e-18)
(8.31116 -0.205833 5.84972e-23)
(8.37975 -0.246015 1.29964e-16)
(8.44912 -0.287297 7.65998e-18)
(8.51928 -0.329805 -2.45793e-16)
(8.58937 -0.373387 4.78058e-16)
(8.66105 -0.418 7.74255e-18)
(8.73356 -0.464278 -3.30109e-23)
(8.80704 -0.511381 0)
(8.88165 -0.559948 -2.51642e-16)
(8.95725 -0.609891 0)
(9.03368 -0.660935 0)
(9.11161 -0.713701 -2.65103e-16)
(9.19021 -0.767565 -2.43236e-16)
(9.2703 -0.823219 -8.17388e-18)
(9.35147 -0.880417 2.64515e-16)
(9.43425 -0.939113 -8.34565e-18)
(9.51858 -0.99996 5.49045e-16)
(9.60433 -1.06222 1.08484e-15)
(9.69186 -1.12693 -1.10723e-15)
(9.78072 -1.19304 1.13033e-15)
(9.87139 -1.26187 -8.87942e-18)
(9.96326 -1.33218 9.01189e-18)
(10.0571 -1.4054 0)
(10.1524 -1.48044 5.95165e-16)
(10.25 -1.5587 0)
(10.3495 -1.63905 6.15031e-16)
(10.4509 -1.72294 0)
(10.5541 -1.80906 0)
(10.6596 -1.89905 -6.38264e-16)
(10.7669 -1.99165 6.48791e-16)
(10.8767 -2.08857 -1.346e-15)
(10.9879 -2.18828 -1.06677e-17)
(11.1014 -2.29224 -6.88647e-16)
(11.216 -2.39984 7.02356e-16)
(11.3331 -2.51208 -1.44795e-15)
(11.4517 -2.62912 -5.76048e-18)
(11.5719 -2.7506 9.38922e-24)
(11.6935 -2.87794 6.01633e-18)
(11.8164 -3.00999 0)
(11.941 -3.14846 8.06704e-22)
(12.0655 -3.29213 0)
(12.1904 -3.44218 -8.40356e-16)
(12.3149 -3.59955 0)
(8.09882 1.22239 -8.14846e-16)
(8.06695 1.21087 -2.59991e-17)
(8.03592 1.19963 8.45997e-16)
(8.00487 1.18824 7.83165e-16)
(7.97391 1.17682 0)
(7.94284 1.16536 2.46815e-17)
(7.91251 1.15402 -8.01468e-16)
(7.88239 1.1426 7.66088e-16)
(7.85252 1.13121 7.80547e-16)
(7.82305 1.11986 7.0063e-16)
(7.79389 1.10839 1.48896e-15)
(7.76494 1.09694 0)
(7.7364 1.08563 -7.1468e-16)
(7.7083 1.07423 -6.79455e-16)
(7.68048 1.06273 -2.15842e-17)
(7.65338 1.05139 6.60238e-16)
(7.62658 1.03993 4.18102e-17)
(7.59971 1.02831 -6.77912e-16)
(7.57374 1.0169 1.31682e-15)
(7.54833 1.00547 -1.9859e-17)
(7.52341 0.993986 0)
(7.49891 0.982653 -1.23076e-15)
(7.47508 0.971208 0)
(7.45203 0.959752 -1.85016e-17)
(7.4294 0.948408 1.18207e-15)
(7.40708 0.936855 1.13757e-15)
(7.38575 0.925568 0)
(7.36516 0.914183 1.71031e-17)
(7.34525 0.902724 -1.67864e-17)
(7.32595 0.891353 1.05299e-15)
(7.30751 0.879855 0)
(7.2897 0.868402 2.00488e-15)
(7.27277 0.856839 1.53718e-17)
(7.25661 0.845342 9.66442e-16)
(7.24132 0.833809 9.39607e-16)
(7.22726 0.822312 0)
(7.21425 0.810727 -9.10177e-16)
(7.20236 0.799154 -8.64577e-16)
(7.19145 0.787789 -8.66027e-16)
(7.18159 0.776317 1.30446e-17)
(7.17308 0.764909 -8.10148e-16)
(7.16569 0.753336 7.79226e-16)
(7.15986 0.741757 1.20214e-17)
(7.15526 0.730008 -1.1703e-17)
(7.15229 0.718377 1.13969e-17)
(7.15092 0.70659 0)
(7.1512 0.694678 6.77478e-16)
(7.15309 0.68265 1.04299e-17)
(7.15689 0.670535 -1.28403e-15)
(7.16268 0.658253 -6.38165e-16)
(7.17042 0.64582 0)
(7.18036 0.633192 -5.9775e-16)
(7.19259 0.620338 -5.61228e-16)
(7.20709 0.607248 1.10345e-15)
(7.22401 0.593756 0)
(7.24344 0.579813 0)
(7.26591 0.565736 0)
(7.29093 0.55093 -9.59232e-16)
(7.31899 0.535911 7.22652e-18)
(7.34947 0.519942 -6.95913e-18)
(7.38269 0.503462 -6.70066e-18)
(7.41796 0.485842 4.35222e-23)
(7.45557 0.467482 6.2142e-18)
(7.49565 0.447826 7.66743e-16)
(7.53853 0.426989 0)
(7.58394 0.40529 -3.7429e-16)
(7.63163 0.382901 0)
(7.68121 0.359569 0)
(7.73318 0.335761 0)
(7.78669 0.310789 -3.75593e-16)
(7.84254 0.285266 5.76553e-18)
(7.89983 0.258451 -5.75521e-18)
(7.95882 0.231016 5.74795e-18)
(8.01889 0.202333 -1.7802e-16)
(8.08044 0.17292 -5.74016e-18)
(8.14279 0.142231 9.18802e-17)
(8.20667 0.110729 0)
(8.27162 0.0779655 4.60234e-17)
(8.33745 0.0441716 -2.30457e-17)
(8.40397 0.00935853 1.11888e-24)
(8.47155 -0.0264717 -5.78728e-18)
(8.53988 -0.0635807 5.80576e-18)
(8.60874 -0.101779 0)
(8.67851 -0.141041 5.8542e-18)
(8.74942 -0.181448 -5.88243e-18)
(8.82121 -0.223147 9.46178e-17)
(8.89364 -0.265895 -1.90322e-16)
(8.96704 -0.309828 0)
(9.04138 -0.355054 0)
(9.11609 -0.40145 -3.82572e-16)
(9.19237 -0.448968 -2.02027e-16)
(9.26962 -0.49824 -1.97614e-16)
(9.34786 -0.548405 1.99448e-16)
(9.42757 -0.600164 2.01251e-16)
(9.50841 -0.653382 6.35468e-18)
(9.59043 -0.707826 -2.05504e-16)
(9.67398 -0.76408 2.01237e-16)
(9.75847 -0.821547 2.10337e-16)
(9.84463 -0.880986 -2.06061e-16)
(9.93207 -0.942116 -8.69742e-16)
(10.0213 -1.00492 6.82633e-18)
(10.1122 -1.07 -6.92757e-18)
(10.2047 -1.13661 -4.42475e-16)
(10.2992 -1.20577 9.12531e-16)
(10.3952 -1.27648 -4.70447e-16)
(10.4932 -1.35009 4.77724e-16)
(10.5927 -1.42537 4.70844e-16)
(10.6943 -1.50376 0)
(10.7977 -1.58419 0)
(10.9034 -1.66804 0)
(11.0111 -1.75418 -5.13285e-16)
(11.121 -1.84412 8.16727e-18)
(11.2327 -1.93651 -8.31908e-18)
(11.3469 -2.03299 5.42919e-16)
(11.4629 -2.13236 0)
(11.5815 -2.23621 1.1202e-15)
(11.7016 -2.34309 5.82057e-16)
(11.8241 -2.45465 -9.1818e-18)
(11.9481 -2.57024 9.29615e-18)
(12.0744 -2.69083 6.11191e-16)
(12.202 -2.81648 -9.69234e-18)
(12.3317 -2.94706 9.92868e-18)
(12.4627 -3.08386 0)
(12.5948 -3.22575 0)
(12.7282 -3.37429 -1.35681e-15)
(12.8612 -3.52837 6.92036e-16)
(12.9949 -3.68949 -5.53155e-18)
(13.1284 -3.85867 0)
(8.51443 1.28824 6.37334e-16)
(8.48147 1.27611 6.70539e-16)
(8.44933 1.26426 0)
(8.41717 1.25228 1.97086e-17)
(8.3852 1.24026 6.03562e-16)
(8.35339 1.22824 0)
(8.32193 1.21628 0)
(8.29066 1.20424 1.86252e-17)
(8.25964 1.19223 -6.06847e-16)
(8.22901 1.18024 0)
(8.19866 1.16814 1.77804e-17)
(8.1685 1.15605 -1.75468e-17)
(8.13877 1.1441 -9.26e-23)
(8.10945 1.13204 -1.69766e-17)
(8.08039 1.1199 1.67069e-17)
(8.05186 1.10786 -5.27119e-16)
(8.02388 1.09573 1.61572e-17)
(7.99615 1.08349 -5.23813e-16)
(7.96898 1.07141 -1.00132e-15)
(7.94234 1.05931 -1.53269e-17)
(7.91617 1.04715 -9.48267e-16)
(7.89045 1.03514 9.48956e-16)
(7.86536 1.02301 -9.12725e-16)
(7.84088 1.01085 -1.42489e-17)
(7.81702 0.998803 1.40005e-17)
(7.79373 0.986593 -9.02948e-16)
(7.77114 0.97461 -8.48443e-16)
(7.74931 0.962521 -1.68395e-15)
(7.72814 0.950345 0)
(7.70763 0.938243 6.4598e-23)
(7.68796 0.926024 1.23586e-17)
(7.66898 0.91388 5.89597e-23)
(7.6509 0.90162 1.18154e-17)
(7.6336 0.889425 -7.66181e-16)
(7.61722 0.877187 0)
(7.60207 0.864979 -7.0901e-16)
(7.58801 0.852685 6.67738e-16)
(7.57501 0.84036 2.11176e-17)
(7.56308 0.828228 -2.05084e-17)
(7.55229 0.81601 -6.22802e-16)
(7.54275 0.803842 6.43633e-16)
(7.53446 0.791556 -6.29329e-16)
(7.52763 0.779267 0)
(7.52218 0.766782 -5.78231e-16)
(7.51832 0.75439 0)
(7.51606 0.741836 -5.63768e-16)
(7.51554 0.729152 -1.04893e-15)
(7.5167 0.716348 0)
(7.51981 0.703447 5.1776e-16)
(7.52495 0.690369 4.72921e-16)
(7.53212 0.677134 -4.73339e-16)
(7.54155 0.66369 4.72891e-16)
(7.55334 0.650011 4.44917e-16)
(7.5675 0.636084 -4.44755e-16)
(7.58419 0.621737 -1.30293e-17)
(7.60349 0.606921 2.52256e-17)
(7.62585 0.591953 7.69099e-16)
(7.65093 0.576238 0)
(7.67909 0.560295 0)
(7.70989 0.543378 -7.04827e-16)
(7.7436 0.525935 0)
(7.7796 0.507324 -6.56635e-16)
(7.81816 0.487936 -9.90693e-18)
(7.85946 0.467186 -3.06442e-16)
(7.90383 0.445198 9.41434e-18)
(7.95091 0.422306 5.32632e-23)
(8.00043 0.398693 2.91471e-16)
(8.05202 0.374104 3.10237e-16)
(8.10607 0.349009 0)
(8.1619 0.32271 5.93024e-16)
(8.22008 0.295823 8.1033e-23)
(8.27989 0.2676 -3.01935e-16)
(8.34146 0.238727 -1.32352e-16)
(8.40432 0.208557 1.42133e-16)
(8.46869 0.177616 1.52046e-16)
(8.53415 0.145344 0)
(8.60118 0.11221 -7.65992e-17)
(8.66942 0.0777599 -2.88515e-17)
(8.73862 0.0422313 2.08878e-24)
(8.80876 0.00563139 1.45728e-17)
(8.88003 -0.0320445 0)
(8.95224 -0.0710645 0)
(9.02516 -0.111228 -3.96166e-17)
(9.09912 -0.152533 9.97981e-18)
(9.17435 -0.195056 -1.00599e-17)
(9.25058 -0.238937 -1.52175e-16)
(9.32761 -0.283935 6.14091e-17)
(9.40579 -0.330205 1.75596e-16)
(9.48502 -0.377839 0)
(9.5649 -0.426733 1.68702e-16)
(9.64643 -0.476848 0)
(9.72904 -0.528803 5.39213e-18)
(9.81274 -0.581729 -3.54748e-16)
(9.89806 -0.636368 0)
(9.9846 -0.692542 5.59364e-18)
(10.0725 -0.750051 1.75665e-16)
(10.1621 -0.80947 -5.74164e-18)
(10.2528 -0.870285 -1.80647e-16)
(10.3452 -0.933233 -5.90624e-18)
(10.4391 -0.997975 7.80459e-16)
(10.5348 -1.06454 -6.09086e-18)
(10.6323 -1.13344 6.19301e-18)
(10.7316 -1.20398 -6.2902e-18)
(10.8328 -1.27723 -4.0933e-16)
(10.9357 -1.35217 -6.50359e-18)
(11.0407 -1.43017 1.01438e-22)
(11.1474 -1.51001 -4.24322e-16)
(11.2563 -1.59316 4.31952e-16)
(11.3671 -1.67852 -4.40484e-16)
(11.4802 -1.76747 0)
(11.5952 -1.85891 0)
(11.7126 -1.95432 -4.7372e-16)
(11.8318 -2.0524 7.54589e-18)
(11.9534 -2.15476 -7.70062e-18)
(12.0769 -2.26019 7.84041e-18)
(12.2028 -2.37021 -5.13118e-16)
(12.3304 -2.48361 -8.14393e-18)
(12.4603 -2.60199 -5.34686e-16)
(12.5918 -2.72468 0)
(12.7255 -2.85269 -5.56573e-16)
(12.8604 -2.98594 0)
(12.9972 -3.1245 0)
(13.1352 -3.26947 6.00055e-16)
(13.2741 -3.41988 -6.11656e-16)
(13.4137 -3.57708 1.23673e-15)
(13.5527 -3.74009 -6.25989e-16)
(13.6919 -3.9106 -6.35249e-16)
(13.8312 -4.08988 6.44383e-16)
(8.84279 1.34126 1.71427e-17)
(8.80931 1.32868 1.28204e-22)
(8.77659 1.31635 5.33808e-16)
(8.74386 1.3039 -5.41844e-16)
(8.71132 1.29143 3.24351e-17)
(8.67899 1.27895 -1.60179e-17)
(8.64691 1.26651 0)
(8.61503 1.25399 0)
(8.58339 1.2415 -1.53024e-17)
(8.55214 1.22902 3.0191e-17)
(8.52112 1.21643 1.34482e-22)
(8.49031 1.20385 -1.45914e-17)
(8.45994 1.19139 4.60634e-16)
(8.42998 1.17882 4.37452e-16)
(8.4003 1.16618 4.58211e-16)
(8.3711 1.15363 -1.36901e-17)
(8.34246 1.14098 -2.95229e-23)
(8.31414 1.12824 4.35183e-16)
(8.2863 1.11563 -8.31811e-16)
(8.259 1.10301 -2.54607e-17)
(8.23215 1.09033 8.00043e-16)
(8.20579 1.07779 -7.63449e-16)
(8.18006 1.06513 1.53989e-15)
(8.15488 1.05243 7.57324e-16)
(8.13035 1.03984 0)
(8.10644 1.0271 7.27108e-16)
(8.08318 1.01457 7.15802e-16)
(8.0607 1.00191 -7.44539e-23)
(8.03887 0.98917 0)
(8.01774 0.976505 -6.51546e-16)
(7.99745 0.963741 -2.05352e-17)
(7.97789 0.951055 -1.29083e-15)
(7.95925 0.938245 1.96408e-17)
(7.94142 0.925501 5.98399e-16)
(7.92455 0.912706 -6.00727e-16)
(7.90891 0.899936 5.89854e-16)
(7.89439 0.88708 -1.79261e-17)
(7.88094 0.874188 5.80229e-16)
(7.86859 0.861444 -5.29562e-16)
(7.85744 0.848643 5.19024e-16)
(7.84751 0.835883 -1.05707e-15)
(7.83889 0.823008 3.18213e-17)
(7.83171 0.810153 -5.10959e-16)
(7.82599 0.797121 9.66102e-16)
(7.82186 0.784124 0)
(7.81939 0.770958 9.00484e-16)
(7.81871 0.757661 4.60079e-16)
(7.81975 0.744237 4.20006e-16)
(7.82281 0.730705 4.34324e-16)
(7.82795 0.716989 -4.09908e-16)
(7.83518 0.703108 2.30648e-23)
(7.84474 0.689004 0)
(7.85673 0.674657 -3.74796e-16)
(7.87119 0.66005 3.63742e-16)
(7.8883 0.645006 7.04183e-16)
(7.90808 0.629477 0)
(7.93099 0.613776 -1.32315e-15)
(7.95676 0.597315 0)
(7.98568 0.580607 6.20143e-16)
(8.01746 0.56291 5.99475e-16)
(8.0523 0.544666 0)
(8.08971 0.525233 5.51569e-16)
(8.1299 0.504986 8.46944e-18)
(8.17309 0.483316 0)
(8.21955 0.460348 8.08317e-18)
(8.26889 0.436432 2.50984e-16)
(8.32081 0.411762 -2.59599e-16)
(8.37496 0.386084 -2.60232e-16)
(8.43164 0.359867 2.6101e-16)
(8.4903 0.332405 -2.53734e-16)
(8.55135 0.304316 1.23214e-16)
(8.61418 0.274852 2.63928e-16)
(8.67888 0.2447 1.40856e-16)
(8.74506 0.213205 -8.32721e-18)
(8.81284 0.180896 -1.33988e-16)
(8.8819 0.147199 8.42744e-18)
(8.95261 0.112589 1.27257e-16)
(9.02466 0.0766077 -4.27225e-17)
(9.09779 0.0394998 -8.60927e-18)
(9.17203 0.00126222 -8.67817e-18)
(9.24755 -0.038115 -8.75106e-18)
(9.32416 -0.0789014 0)
(9.40162 -0.120893 8.91805e-18)
(9.48027 -0.164101 -7.13394e-23)
(9.56027 -0.208602 -9.10491e-18)
(9.64139 -0.254528 1.10127e-23)
(9.72347 -0.301644 1.48936e-16)
(9.80682 -0.350118 -1.50662e-16)
(9.89136 -0.400031 0)
(9.97675 -0.451294 0)
(10.0639 -0.503881 0)
(10.1521 -0.55839 -9.9185e-18)
(10.2416 -0.613955 1.60958e-16)
(10.3328 -0.671335 1.01979e-17)
(10.4252 -0.730332 -1.55254e-16)
(10.5192 -0.790794 1.68063e-16)
(10.6149 -0.853322 -2.13231e-17)
(10.7119 -0.917386 1.84259e-16)
(10.8107 -0.983692 3.4111e-16)
(10.911 -1.05185 -3.36063e-16)
(11.0132 -1.12197 3.52835e-16)
(11.1172 -1.19453 0)
(11.223 -1.26886 3.65371e-16)
(11.3308 -1.34604 1.19989e-17)
(11.4404 -1.42504 -3.90892e-16)
(11.5521 -1.50726 8.86908e-23)
(11.6656 -1.59149 -4.05666e-16)
(11.7813 -1.67919 -4.13368e-16)
(11.899 -1.76926 4.21918e-16)
(12.0189 -1.86308 4.30074e-16)
(12.1407 -1.95957 0)
(12.2648 -2.06017 -6.99549e-18)
(12.3907 -2.16364 1.4272e-17)
(12.5188 -2.27152 4.59048e-16)
(12.6488 -2.38256 7.42281e-18)
(12.7811 -2.4984 -7.59379e-18)
(12.915 -2.61793 -4.86186e-16)
(13.0511 -2.74267 1.00564e-15)
(13.1887 -2.87194 -5.13457e-16)
(13.3284 -3.00678 5.35943e-16)
(13.4691 -3.14703 -8.37263e-18)
(13.6114 -3.29288 0)
(13.7544 -3.44525 -5.68908e-16)
(13.8981 -3.60334 5.79854e-16)
(14.0419 -3.76827 -5.86032e-16)
(14.1846 -3.9392 -6.02417e-16)
(14.3268 -4.1181 6.2068e-16)
(14.4712 -4.30694 -6.29287e-16)
(9.12341 1.38738 0)
(9.08973 1.37443 1.47074e-17)
(9.05678 1.36171 -4.63495e-16)
(9.02379 1.34888 -1.42572e-17)
(8.99099 1.33601 -9.15378e-16)
(8.9584 1.32315 -4.15801e-23)
(8.92603 1.31031 -4.23769e-16)
(8.89385 1.29739 1.34616e-17)
(8.86192 1.28449 4.11974e-16)
(8.83035 1.27159 -4.19528e-16)
(8.79901 1.25859 -4.10987e-16)
(8.76788 1.2456 0)
(8.73719 1.23271 0)
(8.70692 1.21972 8.19509e-23)
(8.67694 1.20666 -7.4788e-16)
(8.64743 1.19367 3.56845e-16)
(8.61844 1.18057 2.33316e-17)
(8.5898 1.1674 -2.2919e-17)
(8.56161 1.15436 -2.25902e-17)
(8.53397 1.14129 4.4256e-17)
(8.50678 1.12817 -7.17126e-16)
(8.48012 1.11518 7.06464e-16)
(8.45406 1.10206 -2.09182e-17)
(8.42854 1.08891 -6.58563e-16)
(8.40367 1.07586 0)
(8.37944 1.06267 -6.3248e-16)
(8.35584 1.04965 -1.94615e-17)
(8.33304 1.0365 6.27514e-16)
(8.31089 1.02329 1.86655e-17)
(8.28946 1.01016 -5.85526e-16)
(8.26889 0.996925 -1.78822e-17)
(8.24909 0.983769 5.44617e-16)
(8.23021 0.970486 3.42256e-17)
(8.21217 0.957269 -1.68241e-17)
(8.19512 0.94399 1.04749e-15)
(8.17932 0.930733 0)
(8.16465 0.91739 -5.00485e-16)
(8.15107 0.904017 -9.82186e-16)
(8.13863 0.890742 -1.94027e-23)
(8.1274 0.877439 4.53391e-16)
(8.11742 0.864173 4.69023e-16)
(8.10878 0.850785 0)
(8.10158 0.837414 4.33487e-16)
(8.09589 0.823901 -4.22854e-16)
(8.09181 0.810408 -4.25578e-16)
(8.08946 0.796702 -3.88353e-16)
(8.08892 0.782866 -3.91275e-16)
(8.09017 0.768899 -7.60992e-16)
(8.09348 0.754812 -3.69885e-16)
(8.09892 0.740532 -3.4901e-16)
(8.10652 0.726081 6.99885e-16)
(8.11652 0.711394 -1.06144e-17)
(8.12902 0.696453 0)
(8.1441 0.681241 0)
(8.16192 0.665575 -6.21549e-16)
(8.18249 0.649413 6.03085e-16)
(8.20625 0.633054 5.75992e-16)
(8.233 0.615926 8.86462e-18)
(8.26302 0.598532 -5.49685e-16)
(8.2961 0.580134 0)
(8.33241 0.561172 0)
(8.37158 0.541001 0)
(8.41378 0.519981 0)
(8.45927 0.49748 0)
(8.50821 0.473619 2.31379e-16)
(8.5602 0.448766 2.32269e-16)
(8.61492 0.423123 2.33265e-16)
(8.67202 0.396444 0)
(8.73175 0.369187 -2.35641e-16)
(8.79362 0.340647 0)
(8.85797 0.311438 -1.19237e-16)
(8.92425 0.280814 -1.20015e-16)
(8.9925 0.249461 -1.28412e-16)
(9.0624 0.216719 1.29369e-16)
(9.13404 0.183115 -6.13735e-17)
(9.20711 0.148067 0)
(9.28192 0.112051 -1.24959e-16)
(9.3582 0.0746063 3.15377e-17)
(9.43567 0.0359853 1.59256e-17)
(9.51441 -0.00382867 8.04471e-18)
(9.59457 -0.04485 8.13056e-18)
(9.67596 -0.0873462 0)
(9.75834 -0.131113 3.32887e-17)
(9.84202 -0.176175 -8.42535e-18)
(9.92714 -0.222605 -6.82556e-17)
(10.0135 -0.270528 1.46921e-16)
(10.1009 -0.319717 -1.31351e-16)
(10.1897 -0.370352 -6.53958e-23)
(10.2798 -0.422507 1.34977e-16)
(10.3709 -0.476099 1.46118e-16)
(10.4638 -0.531123 0)
(10.5579 -0.58814 0)
(10.6533 -0.646299 1.62552e-16)
(10.7504 -0.706373 -1.6503e-16)
(10.8489 -0.768201 1.57871e-16)
(10.949 -0.831649 -1.70462e-16)
(11.0508 -0.897273 6.08721e-23)
(11.1541 -0.964504 1.03736e-17)
(11.2593 -1.03408 -3.47971e-16)