/*--------------------------------*- C++ -*---------------------------------*\ 
| ========                 |                                                 | 
| \      /  F ield         | OpenFOAM: The Open Source CFD Toolbox           | 
|  \    /   O peration     | Version:  v1812                                 | 
|   \  /    A nd           | Web:      www.OpenFOAM.com                      | 
|    \/     M anipulation  |                                                 | 
\*--------------------------------------------------------------------------*/ 
FoamFile
{
    version     2.0;
    format      ascii;
    class       volVectorField;
    location    "/home/james/dafoam/myRuns/bezier_coanda_opt/0.00000000001/";
    object      sens_CL_shapey;
}
// * * * * * * * * * * * * * * * * * * * * * * * * * * * * * * * * * * * * * //

dimensions      [0 0 0 0 0 0 0];
internalField   uniform (0 0 0);
boundaryField
{
    allWalls
    {
        type  wall;
        value nonuniform List<vector>
268
(
(-0.014973 0.003761 0.000149)
(-0.015625 0.004205 0.000159)
(-0.018684 0.007077 0.000215)
(-0.017667 0.009046 0.000280)
(-0.012755 0.009849 0.000352)
(-0.008355 0.008392 0.000433)
(-0.006351 0.008296 0.000524)
(-0.014069 0.021065 0.000625)
(-0.015175 0.024174 0.000736)
(-0.007991 0.013320 0.000858)
(-0.007917 0.015329 0.000989)
(-0.009143 0.019198 0.001130)
(-0.008991 0.021990 0.001279)
(-0.008854 0.024235 0.001439)
(-0.008146 0.025820 0.001611)
(-0.007526 0.026510 0.001792)
(-0.006799 0.028184 0.001980)
(-0.006642 0.031517 0.002342)
(-0.005600 0.030580 0.002750)
(-0.004881 0.030241 0.003038)
(-0.004487 0.032148 0.003337)
(-0.004034 0.032920 0.003647)
(-0.003517 0.033722 0.003965)
(-0.003231 0.036210 0.004284)
(-0.002796 0.037907 0.004594)
(-0.002421 0.040311 0.005323)
(-0.001955 0.042319 0.006156)
(-0.001522 0.045198 0.006671)
(-0.001023 0.048489 0.007201)
(-0.000486 0.052442 0.007817)
(0.000130 0.056773 0.008247)
(0.000847 0.062682 0.008615)
(0.001787 0.071922 0.009189)
(0.002882 0.078679 0.009585)
(0.004017 0.083075 0.009519)
(0.005336 0.090941 0.008998)
(0.006509 0.094498 0.008164)
(0.007296 0.092790 0.007221)
(0.008914 0.102698 0.006275)
(0.010270 0.108613 0.005372)
(0.010781 0.103218 0.004561)
(0.011930 0.105520 0.003794)
(0.013301 0.109745 0.002857)
(0.014685 0.113624 0.002060)
(0.016155 0.117698 0.001607)
(0.017689 0.121893 0.001173)
(0.019328 0.126535 0.000767)
(0.020986 0.131156 0.000399)
(0.022495 0.134928 0.000073)
(0.024117 0.139679 -0.000209)
(0.026529 0.149445 -0.000460)
(0.028702 0.158539 -0.001266)
(0.028357 0.154233 -0.001677)
(0.027649 0.149568 -0.001418)
(0.029662 0.161662 -0.001436)
(0.030902 0.170246 -0.001434)
(0.031131 0.174384 -0.001416)
(0.031578 0.180455 -0.001384)
(0.031308 0.182875 -0.001341)
(0.029447 0.176188 -0.001302)
(0.029630 0.183423 -0.001257)
(0.033732 0.216282 -0.001195)
(0.035197 0.232850 -0.001114)
(0.035630 0.242352 -0.001032)
(0.036750 0.255916 -0.000981)
(0.037245 0.266576 -0.000927)
(0.039974 0.293419 -0.000843)
(0.046804 0.354992 -0.000611)
(0.048433 0.365149 -0.000426)
(0.036937 0.349073 -0.000426)
(0.003469 0.003676 -0.000426)
(-0.023137 0.330955 -0.000426)
(-0.011439 0.071668 -0.000327)
(-0.004902 0.018559 -0.000224)
(-0.013052 0.067559 -0.000209)
(-0.016775 0.083954 -0.000189)
(-0.016773 0.082181 -0.000156)
(-0.017563 0.085583 -0.000123)
(-0.018212 0.089022 -0.000078)
(-0.018438 0.090606 -0.000016)
(-0.018538 0.091862 0.000019)
(-0.018593 0.093310 0.000054)
(-0.018549 0.094685 0.000136)
(-0.018268 0.095068 0.000222)
(-0.017817 0.094700 0.000246)
(-0.017367 0.094477 0.000300)
(-0.016820 0.093804 0.000381)
(-0.016111 0.092241 0.000416)
(-0.015473 0.091138 0.000406)
(-0.014769 0.089621 0.000347)
(-0.013994 0.087668 0.000288)
(-0.013314 0.086243 0.000224)
(-0.012582 0.084472 0.000132)
(-0.011864 0.082761 0.000013)
(-0.011191 0.081359 -0.000135)
(-0.010498 0.079807 -0.000308)
(-0.009823 0.078396 -0.000504)
(-0.009200 0.077464 -0.000894)
(-0.008525 0.076211 -0.001371)
(-0.007846 0.074982 -0.001797)
(-0.007234 0.074561 -0.002295)
(-0.006443 0.072272 -0.002845)
(-0.006464 0.081451 -0.003522)
(-0.005560 0.077821 -0.004221)
(-0.003905 0.064840 -0.004783)
(-0.003667 0.074426 -0.005109)
(-0.002732 0.066826 -0.005317)
(-0.001646 0.050182 -0.005354)
(-0.001039 0.051349 -0.005147)
(-0.000302 0.049810 -0.004915)
(0.000228 0.044441 -0.004719)
(0.000687 0.041097 -0.004503)
(0.001076 0.036940 -0.004216)
(0.001559 0.036419 -0.003928)
(0.001989 0.035211 -0.003288)
(0.002381 0.032877 -0.002690)
(0.002635 0.030126 -0.002488)
(0.003323 0.031197 -0.002285)
(0.003634 0.029644 -0.002082)
(0.004350 0.030595 -0.001884)
(0.004995 0.031799 -0.001694)
(0.005397 0.029153 -0.001514)
(0.004859 0.024189 -0.001346)
(0.006238 0.026028 -0.001182)
(0.004448 0.016360 -0.001041)
(0.007132 0.019226 -0.000926)
(0.013917 0.034365 -0.000815)
(0.007700 0.017272 -0.000708)
(0.007868 0.019900 -0.000607)
(0.007333 0.017551 -0.000512)
(-0.000799 0.000084 -0.000422)
(-0.001336 -0.000837 -0.000338)
(-0.003111 -0.005085 -0.000259)
(-0.003814 -0.008680 -0.000185)
(0.001366 -0.004122 -0.000118)
(0.012300 0.004311 -0.000055)
(0.025469 0.013909 0.000005)
(0.027922 0.020910 0.000060)
(0.011147 0.016792 0.000110)
(-0.008269 0.006479 0.000149)
(0.021792 0.268791 -0.000426)
(0.010104 0.195460 -0.000426)
(0.009051 0.228610 -0.000426)
(0.014718 0.303003 -0.000426)
(0.019363 0.388398 -0.000426)
(0.023544 0.431041 -0.000426)
(0.024905 0.503025 -0.000411)
(0.028078 0.643898 -0.000397)
(0.037261 0.845009 -0.000397)
(0.047153 0.983039 -0.000397)
(0.037988 1.017866 -0.000397)
(-0.000360 1.670179 -0.000397)
(0.031439 3.990633 -0.000397)
(0.178248 5.616150 -0.000397)
(-46.295053 14.239190 -0.000208)
(365.402635 -418.089225 -0.000019)
(-25.328752 2.495329 -0.000019)
(9.036376 3.883355 -0.000019)
(-25.724849 13.345613 -0.000019)
(-332.503365 289.232934 -0.000019)
(-21.106957 193.888551 -0.000019)
(6.418427 91.676028 -0.000019)
(4.922755 37.592211 -0.000019)
(2.719126 13.295420 -0.000019)
(0.863758 2.199474 -0.000019)
(-0.077625 -2.375789 -0.000019)
(0.208104 -0.153676 -0.000019)
(-0.037597 -0.140378 -0.000019)
(-0.321608 -0.212968 -0.000019)
(-0.118737 0.702575 -0.000019)
(-0.273184 0.548848 -0.000010)
(-1.041243 -1.439919 -0.000001)
(-1.291114 -2.306375 -0.000001)
(-0.587681 -1.162678 -0.000001)
(-0.008330 0.033117 -0.000001)
(0.285581 0.625927 -0.000001)
(0.599029 1.272260 -0.000001)
(0.706825 1.508466 -0.000001)
(1.207908 2.194441 -0.000001)
(2.165521 3.276846 -0.000001)
(3.185190 4.336093 -0.000001)
(3.681447 4.667288 -0.000001)
(4.351953 5.048524 -0.000001)
(6.265586 6.397025 -0.000001)
(10.866255 9.619947 -0.000001)
(7.713470 6.778361 -0.000001)
(6.687741 5.327482 -0.000001)
(18.570923 12.581136 -0.000001)
(21.455956 13.344925 -0.000001)
(14.973005 8.742359 -0.000001)
(-1.491691 -1.403047 -0.000001)
(-0.668018 -2.706578 -0.000001)
(9.127456 1.102815 -0.000001)
(-49.040996 -21.624120 -0.000001)
(-104.444941 -35.447789 -0.000001)
(-69.332336 -19.817935 -0.000001)
(-15.273421 -4.714379 -0.000001)
(7.837893 1.029211 -0.000001)
(22.534062 2.622959 -0.000001)
(27.588030 1.919754 -0.000001)
(16.331777 -0.014997 -0.000001)
(7.619442 -0.213425 -0.000001)
(5.417765 -0.182808 -0.000001)
(4.373719 -0.548818 -0.000001)
(5.699794 -0.746432 -0.000001)
(7.843172 -1.007874 -0.000001)
(7.876518 -1.120798 -0.000001)
(5.199381 -0.938445 -0.000001)
(1.901412 -0.727851 -0.000001)
(-0.723430 -0.455911 -0.000001)
(-1.889100 -0.413314 -0.000001)
(-1.648237 -0.539569 -0.000001)
(-0.495812 -0.887322 -0.000001)
(0.858266 -1.395112 -0.000001)
(1.372224 -1.602161 -0.000001)
(0.812439 -1.250181 -0.000001)
(0.400162 -0.767939 -0.000001)
(0.653786 -0.607429 -0.000001)
(0.491287 -0.306855 -0.000001)
(0.085756 0.100910 -0.000001)
(0.024343 0.281401 -0.000001)
(0.074707 0.330569 -0.000001)
(0.146481 0.294752 -0.000001)
(0.126822 0.295665 -0.000001)
(0.088810 0.304348 -0.000001)
(0.075924 0.288506 -0.000001)
(0.075374 0.253514 -0.000001)
(0.074655 0.210628 -0.000001)
(0.069937 0.167516 -0.000001)
(0.061415 0.128866 -0.000001)
(0.051574 0.096713 -0.000001)
(0.042190 0.071596 -0.000001)
(0.034234 0.051869 -0.000001)
(0.027665 0.036092 -0.000001)
(0.021885 0.023949 -0.000001)
(0.016474 0.015537 -0.000001)
(0.012227 0.008365 -0.000001)
(0.009903 0.001781 -0.000010)
(0.007085 -0.001651 -0.000019)
(0.003509 -0.003407 -0.000019)
(0.000550 -0.005420 -0.000019)
(-0.002449 -0.007658 -0.000019)
(-0.005967 -0.009930 -0.000019)
(-0.009371 -0.013086 -0.000019)
(-0.009829 -0.027227 -0.000019)
(-0.001673 -0.058233 -0.000019)
(0.005706 -0.084170 -0.000019)
(-0.002588 -0.059785 -0.000019)
(-17.317507 -0.016313 -0.000019)
(17.286552 0.004297 -0.000019)
(0.020576 -0.003402 -0.000019)
(0.112745 -0.070259 -0.000019)
(0.465640 -1.253318 -0.000019)
(0.370473 -0.928406 -0.000208)
(-0.037874 0.480214 -0.000397)
(-0.015375 0.312369 -0.000397)
(-0.012464 0.158752 -0.000397)
(-0.012937 0.125221 -0.000397)
(-0.011057 0.119881 -0.000397)
(-0.008533 0.102986 -0.000397)
(-0.006869 0.086373 -0.000397)
(-0.006612 0.073889 -0.000397)
(-0.006132 0.073761 -0.000411)
(-0.002211 0.075609 -0.000426)
(-0.002285 0.061036 -0.000426)
(-0.011081 0.073343 -0.000426)
(-0.005159 0.081918 -0.000426)
(0.018762 -0.215744 -0.000426)
)
;
    }
}
