/*--------------------------------*- C++ -*---------------------------------*\ 
| ========                 |                                                 | 
| \      /  F ield         | OpenFOAM: The Open Source CFD Toolbox           | 
|  \    /   O peration     | Version:  v1812                                 | 
|   \  /    A nd           | Web:      www.OpenFOAM.com                      | 
|    \/     M anipulation  |                                                 | 
\*--------------------------------------------------------------------------*/ 
FoamFile
{
    version     2.0;
    format      ascii;
    class       volVectorField;
    location    "/home/james/dafoam/myRuns/bezier_coanda_opt/0.00000000001/";
    object      sens_CL_shapey;
}
// * * * * * * * * * * * * * * * * * * * * * * * * * * * * * * * * * * * * * //

dimensions      [0 0 0 0 0 0 0];
internalField   uniform (0 0 0);
boundaryField
{
    allWalls
    {
        type  wall;
        value nonuniform List<vector>
188
(
(-0.003448 0.002903 0.000266)
(-0.036784 0.017176 0.000278)
(-0.069924 0.033222 0.000277)
(-0.054398 0.033169 0.000276)
(-0.036451 0.033002 0.000275)
(-0.018553 0.029449 0.000275)
(-0.009658 0.019328 0.000274)
(-0.012530 0.023022 0.000273)
(-0.019632 0.047636 0.000273)
(-0.012090 0.035091 0.000272)
(-0.003404 0.014557 0.000272)
(-0.008644 0.032270 0.000272)
(-0.008576 0.034921 0.000441)
(-0.007913 0.037520 0.000611)
(-0.008147 0.043371 0.000611)
(-0.006799 0.042357 0.000611)
(-0.006354 0.046307 0.000612)
(-0.005757 0.050051 0.000612)
(-0.005105 0.053893 0.001173)
(-0.004435 0.058430 0.001833)
(-0.003723 0.065181 0.002037)
(-0.002847 0.073764 0.002248)
(-0.001685 0.087203 0.002460)
(-0.000034 0.102602 0.002666)
(0.002439 0.116205 0.002582)
(0.005561 0.130783 0.002201)
(0.007891 0.128749 0.001773)
(0.010818 0.135149 0.001344)
(0.013813 0.145282 0.000980)
(0.015636 0.139827 0.000678)
(0.017933 0.142139 0.000485)
(0.020259 0.145551 0.000338)
(0.022461 0.148667 0.000181)
(0.024533 0.151605 0.000009)
(0.026392 0.153940 -0.000156)
(0.028048 0.155758 -0.000207)
(0.029537 0.157166 -0.000189)
(0.030800 0.157910 -0.000196)
(0.031817 0.157922 -0.000220)
(0.032599 0.157237 -0.000232)
(0.033046 0.155409 -0.000236)
(0.033119 0.152357 -0.000174)
(0.033008 0.148914 -0.000175)
(0.032838 0.145431 -0.000165)
(0.031830 0.138366 -0.000157)
(0.028981 0.123908 -0.000222)
(0.027307 0.114690 -0.000254)
(0.031806 0.133395 -0.000232)
(0.034404 0.143876 -0.000173)
(0.006973 -0.000754 -0.000173)
(0.000012 -0.003183 -0.000173)
(-0.001836 0.004623 -0.000173)
(-0.002826 0.007397 -0.000098)
(-0.003984 0.011397 -0.000071)
(-0.006040 0.017154 -0.000114)
(-0.008255 0.024455 -0.000102)
(-0.010511 0.033895 -0.000092)
(-0.012139 0.043398 -0.000080)
(-0.009575 0.036148 -0.000042)
(-0.001110 0.010412 -0.000015)
(0.004743 -0.009952 -0.000005)
(0.003429 -0.009856 0.000004)
(-0.001019 0.006009 0.000005)
(-0.003964 0.016604 0.000013)
(-0.004803 0.021464 0.000021)
(-0.006040 0.031302 0.000030)
(-0.006988 0.041580 0.000149)
(-0.007182 0.048979 0.000305)
(-0.006906 0.054464 0.000420)
(-0.006339 0.058827 0.000535)
(-0.005555 0.062239 0.000603)
(-0.004621 0.065094 0.000681)
(-0.003559 0.066928 0.000769)
(-0.002374 0.065063 0.000875)
(-0.001155 0.070955 0.000925)
(0.000073 0.078056 0.000888)
(0.001001 0.063102 0.000719)
(0.001587 0.046885 0.000531)
(0.002166 0.044003 0.000464)
(0.002497 0.039966 0.000407)
(0.002992 0.037859 0.000359)
(0.003140 0.033404 0.000318)
(0.003059 0.027322 0.000455)
(0.003534 0.027017 0.000611)
(0.003720 0.024959 0.000610)
(0.003659 0.021831 0.000610)
(0.003879 0.020636 0.000610)
(0.003694 0.018056 0.000610)
(0.004076 0.017485 0.000413)
(0.005445 0.018698 0.000218)
(0.006197 0.016124 0.000222)
(0.006269 0.009922 0.000226)
(0.004590 -0.000344 0.000230)
(0.003883 -0.004403 0.000234)
(0.007403 0.006087 0.000238)
(0.006754 0.017789 0.000241)
(0.000892 0.008007 0.000245)
(0.004681 -0.003571 0.000248)
(0.011193 0.001338 0.000251)
(0.000834 0.003686 0.000253)
(-0.005865 0.017619 -0.000173)
(0.005290 0.176411 -0.000173)
(0.003323 0.150016 -0.000173)
(0.004317 0.155624 -0.000173)
(0.006632 0.221850 -0.000173)
(0.008634 0.268339 -0.000173)
(0.010583 0.311012 -0.000173)
(0.013931 0.396607 -0.000173)
(0.020000 0.566118 -0.000173)
(0.025668 0.738445 -0.000139)
(0.026947 0.685563 -0.000104)
(0.042478 0.961582 -0.000104)
(0.190271 4.069768 -0.000104)
(0.374946 8.664967 -0.000104)
(-12.669219 -32.033180 -0.000104)
(148.611445 -295.279019 -0.000104)
(-19.808028 -14.795563 -0.000104)
(-14.782647 -7.028636 -0.000104)
(-18.358251 -32.658894 -0.000104)
(-121.500430 289.357644 -0.000104)
(7.867252 91.503010 -0.000046)
(5.814250 41.631187 0.000013)
(2.050658 16.795038 0.000013)
(0.352177 0.462847 0.000013)
(2.504008 7.432449 0.000013)
(-0.831564 -1.663180 0.000013)
(-0.361265 -1.534787 0.000013)
(-0.423862 -0.432939 0.000013)
(-2.548600 -3.867968 0.000013)
(1.043761 1.152140 0.000013)
(1.961966 2.478418 0.000013)
(1.349381 1.460493 0.000013)
(2.952864 2.860075 0.000013)
(3.747240 3.201414 0.000013)
(8.908173 6.181667 0.000013)
(16.839763 10.302860 0.000013)
(24.419830 12.716670 0.000013)
(7.949467 4.713954 0.000013)
(2.668097 0.910385 0.000013)
(40.532043 11.482123 0.000013)
(50.601556 10.552002 0.000013)
(-62.282866 -10.987696 0.000013)
(-197.460128 -17.676699 0.000013)
(-109.556091 -0.465461 0.000013)
(18.110843 3.709473 0.000013)
(61.999541 -9.567013 0.000013)
(66.722534 -14.582063 0.000013)
(28.990758 -8.880994 0.000013)
(12.898861 -4.358202 0.000013)
(0.180362 -1.775802 0.000013)
(1.167037 -2.342203 0.000013)
(3.770649 -4.095998 0.000013)
(1.813403 -2.902980 0.000013)
(-1.032581 0.030390 0.000013)
(0.194827 0.028755 0.000013)
(0.990023 -0.356302 0.000013)
(0.701006 -0.274531 0.000013)
(0.433573 -0.241565 0.000013)
(0.292405 -0.238109 0.000013)
(0.192505 -0.201823 0.000013)
(0.093551 -0.119555 0.000013)
(0.019799 -0.037752 0.000013)
(-0.015196 0.006709 0.000013)
(-0.030214 0.032429 0.000013)
(-0.033661 0.044737 0.000013)
(-0.030076 0.044960 0.000013)
(-0.023239 0.034420 0.000013)
(-0.015276 0.019652 -0.000046)
(-59.813159 0.008806 -0.000104)
(59.804291 0.001910 -0.000104)
(-0.005168 0.006940 -0.000104)
(0.005311 -0.001306 -0.000104)
(-0.014479 0.031909 -0.000104)
(-0.037022 0.071616 -0.000104)
(-0.016592 0.043279 -0.000104)
(-0.005944 0.019717 -0.000104)
(-0.003798 0.014785 -0.000104)
(-0.002624 0.009681 -0.000104)
(-0.001732 0.008598 -0.000139)
(-0.001202 0.007387 -0.000173)
(-0.001051 0.007072 -0.000173)
(-0.000946 0.006628 -0.000173)
(-0.000855 0.005446 -0.000173)
(-0.000811 0.005174 -0.000173)
(-0.000488 0.003925 -0.000173)
(-0.000162 0.003690 -0.000173)
(0.000008 0.004169 -0.000173)
(0.000572 -0.002623 -0.000173)
)
;
    }
}
