/*--------------------------------*- C++ -*---------------------------------*\ 
| ========                 |                                                 | 
| \      /  F ield         | OpenFOAM: The Open Source CFD Toolbox           | 
|  \    /   O peration     | Version:  v1812                                 | 
|   \  /    A nd           | Web:      www.OpenFOAM.com                      | 
|    \/     M anipulation  |                                                 | 
\*--------------------------------------------------------------------------*/ 
FoamFile
{
    version     2.0;
    format      ascii;
    class       volVectorField;
    location    "/home/james/dafoam/myRuns/bezier_coanda_opt/0.00000000001/";
    object      sens_CL_shapey;
}
// * * * * * * * * * * * * * * * * * * * * * * * * * * * * * * * * * * * * * //

dimensions      [0 0 0 0 0 0 0];
internalField   uniform (0 0 0);
boundaryField
{
    allWalls
    {
        type  wall;
        value nonuniform List<vector>
188
(
(-0.030499 0.012937 0.000146)
(-0.023071 0.008158 0.000146)
(-0.060807 0.035397 0.000146)
(-0.110651 0.059513 0.000048)
(-0.088726 0.062840 0.000048)
(-0.055755 0.050571 0.000146)
(-0.002734 0.016038 0.000146)
(-0.014442 0.032996 0.000146)
(-0.016460 0.033921 0.000407)
(-0.007504 0.022005 0.000730)
(-0.009247 0.026812 0.000860)
(-0.008396 0.027843 0.001008)
(-0.007888 0.027303 0.001176)
(-0.007880 0.029552 0.001238)
(-0.009839 0.038537 0.001351)
(-0.010440 0.045964 0.001599)
(-0.010316 0.050602 0.001826)
(-0.009569 0.053856 0.002234)
(-0.009366 0.060852 0.002505)
(-0.008670 0.067739 0.002637)
(-0.007909 0.076474 0.003027)
(-0.007044 0.091707 0.003442)
(-0.004927 0.090664 0.003996)
(-0.002266 0.116647 0.003613)
(0.001381 0.168694 0.002851)
(0.006962 0.176042 0.002690)
(0.012845 0.177508 0.002306)
(0.018917 0.187043 0.001889)
(0.024961 0.194026 0.001523)
(0.031098 0.201742 0.000753)
(0.036738 0.206833 0.000145)
(0.042441 0.213021 0.000133)
(0.047729 0.218047 0.000125)
(0.052274 0.220577 0.000120)
(0.056594 0.223487 0.000119)
(0.060099 0.224311 -0.000215)
(0.062777 0.223242 -0.000530)
(0.064578 0.220223 -0.000495)
(0.065335 0.214791 -0.000461)
(0.065303 0.207912 -0.000429)
(0.064459 0.199510 -0.000399)
(0.061906 0.186882 -0.000372)
(0.057482 0.169853 -0.000346)
(0.054091 0.157206 -0.000323)
(0.055060 0.158141 -0.000302)
(0.051023 0.145789 -0.000282)
(0.027309 0.082822 -0.000264)
(0.029765 0.097593 -0.000247)
(0.057044 0.188282 -0.000239)
(-0.009585 -0.094695 -0.000239)
(0.001582 -0.013353 -0.000239)
(-0.000379 0.001496 -0.000239)
(-0.000382 -0.002033 -0.000145)
(0.000352 -0.003866 -0.000049)
(-0.000395 -0.001274 -0.000046)
(-0.001964 0.002256 -0.000042)
(-0.003588 0.006360 -0.000037)
(-0.006130 0.013360 -0.000032)
(-0.009748 0.023456 -0.000026)
(-0.014697 0.036767 -0.000018)
(-0.019288 0.051078 -0.000010)
(-0.020438 0.062254 -0.000001)
(-0.019217 0.069884 0.000010)
(-0.003625 0.030660 0.000021)
(0.015307 -0.039797 0.000106)
(0.014252 -0.057730 0.000187)
(0.003090 -0.022920 0.000190)
(-0.004323 0.010872 0.000194)
(-0.006633 0.027703 0.000199)
(-0.007790 0.041655 0.000204)
(-0.008109 0.053550 0.000394)
(-0.007517 0.062241 0.000617)
(-0.006245 0.068584 0.000687)
(-0.004457 0.073596 0.000760)
(-0.002278 0.075636 0.000813)
(0.000092 0.080733 0.000801)
(0.001825 0.071257 0.000849)
(0.002763 0.051964 0.000833)
(0.003532 0.045112 0.000667)
(0.004486 0.043826 0.000420)
(0.004661 0.038153 0.000231)
(0.004689 0.032105 0.000199)
(0.005070 0.030036 0.000175)
(0.004976 0.025664 0.000156)
(0.004595 0.021248 0.000195)
(0.005153 0.020841 0.000229)
(0.005603 0.020649 0.000209)
(0.005165 0.017611 0.000024)
(0.005353 0.016377 -0.000103)
(0.005511 0.013861 -0.000067)
(0.006217 0.010252 0.000032)
(0.005136 0.002975 0.000140)
(0.003484 -0.002909 0.000116)
(0.005236 0.000893 0.000096)
(0.005769 0.008360 0.000120)
(0.002018 -0.000258 0.000146)
(0.009377 -0.012567 0.000146)
(0.035343 -0.000201 -0.000034)
(0.060807 0.016832 -0.000034)
(0.041391 0.014306 0.000146)
(-0.031075 -0.118322 -0.000239)
(0.018825 0.189751 -0.000239)
(0.011430 0.192953 -0.000239)
(0.005728 0.163512 -0.000239)
(0.006262 0.187895 -0.000239)
(0.008365 0.263130 -0.000239)
(0.010110 0.325966 -0.000239)
(0.012853 0.426682 -0.000239)
(0.017578 0.602161 -0.000239)
(0.020889 0.784309 -0.000192)
(0.022402 0.937241 -0.000145)
(0.028996 1.610755 -0.000145)
(0.149247 4.440030 -0.000145)
(0.138575 6.762107 -0.000145)
(-10.465971 -35.187319 -0.000145)
(216.445089 -339.038563 -0.000145)
(-21.724183 -18.636173 -0.000145)
(-19.396310 -8.934624 -0.000145)
(-17.799954 -30.803300 -0.000145)
(-184.998721 329.605491 -0.000145)
(9.925233 116.001162 -0.000065)
(8.526077 52.877191 0.000014)
(3.174773 23.455385 0.000014)
(-0.177764 -1.478954 0.000014)
(2.804075 7.839219 0.000014)
(-1.020801 -1.615167 0.000014)
(-0.749876 -2.154280 0.000014)
(-0.768180 -0.914647 0.000014)
(-4.202632 -6.487672 0.000014)
(0.750736 0.374153 0.000014)
(2.012198 2.494995 0.000014)
(0.417749 0.373154 0.000014)
(2.829816 2.648026 0.000014)
(2.768769 2.436803 0.000014)
(7.342733 5.053792 0.000014)
(19.337522 11.622519 0.000014)
(25.804680 13.733344 0.000014)
(23.096059 10.938479 0.000014)
(7.127068 3.602427 0.000014)
(22.259026 5.787593 0.000014)
(40.856154 8.656857 0.000014)
(32.516676 4.021726 0.000014)
(-85.520573 -5.072792 0.000014)
(-247.738225 -2.354203 0.000014)
(-143.397794 9.286021 0.000014)
(18.804771 2.642961 0.000014)
(83.940971 -19.277788 0.000014)
(90.730284 -26.794596 0.000014)
(43.389908 -15.807110 0.000014)
(19.218602 -7.192699 0.000014)
(-0.348999 -2.322231 0.000014)
(2.020240 -3.647904 0.000014)
(5.693698 -5.514530 0.000014)
(3.768819 -3.675048 0.000014)
(0.283014 0.611983 0.000014)
(1.257630 0.598843 0.000014)
(2.032624 -0.275032 0.000014)
(1.386615 -0.344790 0.000014)
(0.767781 -0.239406 0.000014)
(0.423882 -0.175058 0.000014)
(0.373923 -0.342867 0.000014)
(0.284713 -0.343496 0.000014)
(0.124097 -0.151663 0.000014)
(0.045672 -0.044841 0.000014)
(-0.004277 0.052697 0.000014)
(-0.028075 0.119025 0.000014)
(-0.041282 0.140304 0.000014)
(-0.036473 0.103869 -0.000065)
(-59.812000 0.042749 -0.000145)
(59.792832 0.007721 -0.000145)
(-0.033273 0.049797 -0.000145)
(0.032861 0.010578 -0.000145)
(0.119680 -0.095331 -0.000145)
(0.003731 0.064667 -0.000145)
(-0.055616 0.143463 -0.000145)
(-0.006767 0.048143 -0.000145)
(-0.004572 0.047003 -0.000145)
(-0.003238 0.015792 -0.000145)
(-0.002867 0.015758 -0.000192)
(-0.002277 0.008823 -0.000239)
(-0.001400 -0.005521 -0.000239)
(-0.001424 -0.001251 -0.000239)
(-0.001076 -0.003825 -0.000239)
(-0.000845 -0.004957 -0.000239)
(-0.000562 -0.006099 -0.000239)
(-0.000520 -0.002577 -0.000239)
(-0.000387 0.001008 -0.000239)
(0.001305 -0.013957 -0.000239)
)
;
    }
}
