/*--------------------------------*- C++ -*---------------------------------*\ 
| ========                 |                                                 | 
| \      /  F ield         | OpenFOAM: The Open Source CFD Toolbox           | 
|  \    /   O peration     | Version:  v1812                                 | 
|   \  /    A nd           | Web:      www.OpenFOAM.com                      | 
|    \/     M anipulation  |                                                 | 
\*--------------------------------------------------------------------------*/ 
FoamFile
{
    version     2.0;
    format      ascii;
    class       volVectorField;
    location    "/home/james/dafoam/myRuns/bezier_coanda_opt/0.00000000001/";
    object      sens_CL_shapey;
}
// * * * * * * * * * * * * * * * * * * * * * * * * * * * * * * * * * * * * * //

dimensions      [0 0 0 0 0 0 0];
internalField   uniform (0 0 0);
boundaryField
{
    allWalls
    {
        type  wall;
        value nonuniform List<vector>
188
(
(-0.026956 0.008525 0.000268)
(-0.026887 0.008006 0.000167)
(-0.054466 0.029600 0.000166)
(-0.091334 0.053386 0.000267)
(-0.038237 0.025889 0.000267)
(-0.015097 0.021528 0.000258)
(-0.024464 0.039738 0.000280)
(-0.014711 0.028494 0.000290)
(-0.010612 0.023979 0.000269)
(-0.010711 0.026264 0.000270)
(-0.011156 0.031732 0.000271)
(-0.010471 0.032807 0.000522)
(-0.008185 0.029133 0.000827)
(-0.009365 0.036657 0.000968)
(-0.009657 0.042278 0.001152)
(-0.008946 0.044751 0.001358)
(-0.008405 0.048297 0.001513)
(-0.007744 0.051802 0.001763)
(-0.007005 0.055751 0.002107)
(-0.006304 0.061598 0.002219)
(-0.005574 0.069687 0.002666)
(-0.004548 0.079989 0.002872)
(-0.003017 0.088446 0.003061)
(-0.000837 0.111846 0.002881)
(0.002325 0.135307 0.002197)
(0.006702 0.147488 0.002033)
(0.010705 0.152034 0.001745)
(0.014427 0.151573 0.001426)
(0.018276 0.156516 0.001144)
(0.021847 0.159530 0.000486)
(0.025431 0.163973 -0.000045)
(0.028759 0.167535 -0.000054)
(0.031911 0.170979 -0.000062)
(0.034802 0.173900 -0.000070)
(0.037331 0.175874 -0.000076)
(0.039540 0.177169 -0.000028)
(0.041372 0.177610 0.000024)
(0.042798 0.177042 0.000023)
(0.043827 0.175534 0.000023)
(0.044410 0.172912 0.000023)
(0.044580 0.169310 0.000023)
(0.043989 0.163468 0.000103)
(0.042501 0.154950 0.000182)
(0.041240 0.147832 0.000182)
(0.041588 0.146762 0.000182)
(0.039572 0.137580 0.000182)
(0.028540 0.097993 0.000182)
(0.032076 0.112582 -0.000008)
(0.047250 0.173605 -0.000197)
(0.002474 -0.033866 -0.000197)
(0.000748 -0.007604 -0.000197)
(-0.000646 0.001392 -0.000197)
(-0.000980 0.000775 -0.000008)
(-0.001198 0.001864 0.000182)
(-0.002550 0.005580 0.000182)
(-0.004672 0.011358 0.000182)
(-0.007004 0.018250 0.000182)
(-0.009917 0.027009 0.000182)
(-0.012589 0.036519 0.000103)
(-0.014929 0.048010 0.000023)
(-0.014417 0.050584 0.000023)
(-0.006840 0.031624 0.000023)
(0.003952 -0.002537 0.000023)
(0.007820 -0.022362 0.000023)
(0.002785 -0.010520 -0.000032)
(-0.002056 0.004962 -0.000084)
(-0.004190 0.014975 -0.000080)
(-0.006219 0.028941 -0.000076)
(-0.007575 0.042130 -0.000072)
(-0.007867 0.051526 -0.000067)
(-0.007465 0.058515 0.000154)
(-0.006583 0.063835 0.000403)
(-0.005343 0.068136 0.000463)
(-0.003804 0.072174 0.000526)
(-0.002006 0.073604 0.000569)
(-0.000073 0.077866 0.000555)
(0.001428 0.070529 0.000485)
(0.002188 0.050764 0.000500)
(0.002870 0.043209 0.000574)
(0.003680 0.042572 0.000489)
(0.004231 0.039770 0.000402)
(0.004245 0.033726 0.000249)
(0.004275 0.028944 0.000063)
(0.004623 0.027061 0.000028)
(0.004715 0.024409 -0.000002)
(0.004744 0.021939 0.000077)
(0.004406 0.018754 0.000156)
(0.004649 0.017819 0.000128)
(0.005823 0.019524 0.000104)
(0.005960 0.016787 0.000082)
(0.006372 0.012574 0.000063)
(0.006330 0.006227 0.000046)
(0.003871 -0.002937 0.000031)
(0.005018 -0.001180 0.000033)
(0.008432 0.010981 0.000021)
(0.003563 0.011771 0.000129)
(0.001182 -0.001587 0.000260)
(0.013949 -0.003077 0.000141)
(0.029089 0.007239 0.000143)
(0.016710 0.007969 0.000268)
(-0.017472 -0.047497 -0.000197)
(0.008971 0.178170 -0.000197)
(0.005414 0.164532 -0.000197)
(0.003986 0.149746 -0.000197)
(0.005960 0.205981 -0.000197)
(0.008325 0.266671 -0.000197)
(0.010055 0.309221 -0.000197)
(0.013174 0.398844 -0.000197)
(0.018810 0.569200 -0.000197)
(0.023794 0.742775 -0.000158)
(0.025434 0.753203 -0.000118)
(0.038638 1.143167 -0.000118)
(0.176553 4.142381 -0.000118)
(0.304901 8.043194 -0.000118)
(-12.225597 -34.297588 -0.000118)
(152.043372 -298.997290 -0.000118)
(-21.796481 -16.209325 -0.000118)
(-16.369271 -7.722806 -0.000118)
(-18.337460 -33.480226 -0.000118)
(-123.263586 295.229306 -0.000118)
(8.110211 92.858216 -0.000052)
(6.194824 42.680100 0.000015)
(2.399775 17.928253 0.000015)
(0.343691 0.090921 0.000015)
(2.406238 6.855895 0.000015)
(-0.834203 -1.525290 0.000015)
(-0.368960 -1.365099 0.000015)
(-0.545938 -0.582148 0.000015)
(-3.077237 -4.703984 0.000015)
(0.987128 0.940034 0.000015)
(2.298960 2.847274 0.000015)
(1.511727 1.590913 0.000015)
(3.271230 3.120643 0.000015)
(5.451588 4.509339 0.000015)
(12.556098 8.736583 0.000015)
(19.903754 12.282867 0.000015)
(24.968794 13.221379 0.000015)
(11.141229 6.227263 0.000015)
(5.825104 2.491874 0.000015)
(26.629451 8.062943 0.000015)
(40.323702 7.955681 0.000015)
(-42.463118 -9.938234 0.000015)
(-167.194670 -15.123570 0.000015)
(-153.450226 3.676793 0.000015)
(-18.827812 6.034656 0.000015)
(73.850186 -10.754053 0.000015)
(67.107472 -18.523492 0.000015)
(44.278030 -13.350380 0.000015)
(20.310085 -6.694335 0.000015)
(-0.370087 -2.044023 0.000015)
(0.777733 -2.589456 0.000015)
(2.983483 -3.536661 0.000015)
(2.300580 -3.891188 0.000015)
(1.448304 -1.325646 0.000015)
(-0.076131 0.659934 0.000015)
(1.228105 -0.074100 0.000015)
(1.208451 -0.366969 0.000015)
(0.760426 -0.328918 0.000015)
(0.445611 -0.244901 0.000015)
(0.288540 -0.213625 0.000015)
(0.240889 -0.265313 0.000015)
(0.143545 -0.192886 0.000015)
(0.032091 -0.033030 0.000015)
(-0.022575 0.058543 0.000015)
(-0.032464 0.069038 0.000015)
(-0.033705 0.073101 0.000015)
(-0.029850 0.068161 0.000015)
(-0.020015 0.042875 -0.000052)
(-59.811484 0.017796 -0.000118)
(59.800952 0.003758 -0.000118)
(-0.011743 0.017648 -0.000118)
(0.015799 -0.002506 -0.000118)
(0.009827 0.028420 -0.000118)
(-0.038895 0.106128 -0.000118)
(-0.026762 0.076500 -0.000118)
(-0.007375 0.031989 -0.000118)
(-0.004620 0.023740 -0.000118)
(-0.003332 0.007967 -0.000118)
(-0.002589 0.006916 -0.000158)
(-0.002073 0.006510 -0.000197)
(-0.001474 0.000444 -0.000197)
(-0.001249 0.000867 -0.000197)
(-0.001023 0.000181 -0.000197)
(-0.000839 -0.000588 -0.000197)
(-0.000515 -0.001600 -0.000197)
(-0.000298 -0.000401 -0.000197)
(-0.000196 0.001511 -0.000197)
(0.000765 -0.007543 -0.000197)
)
;
    }
}
