/*--------------------------------*- C++ -*---------------------------------*\ 
| ========                 |                                                 | 
| \      /  F ield         | OpenFOAM: The Open Source CFD Toolbox           | 
|  \    /   O peration     | Version:  v1812                                 | 
|   \  /    A nd           | Web:      www.OpenFOAM.com                      | 
|    \/     M anipulation  |                                                 | 
\*--------------------------------------------------------------------------*/ 
FoamFile
{
    version     2.0;
    format      ascii;
    class       volVectorField;
    location    "/home/james/dafoam/myRuns/bezier_coanda_opt/0.00000000001/";
    object      sens_CL_shapey;
}
// * * * * * * * * * * * * * * * * * * * * * * * * * * * * * * * * * * * * * //

dimensions      [0 0 0 0 0 0 0];
internalField   uniform (0 0 0);
boundaryField
{
    allWalls
    {
        type  wall;
        value nonuniform List<vector>
188
(
(-0.020120 0.003689 0.000207)
(-0.033500 0.012085 0.000079)
(-0.040583 0.019290 0.000079)
(-0.043780 0.028769 0.000207)
(-0.021694 0.015082 0.000207)
(-0.002865 0.006454 0.000207)
(-0.018930 0.028694 0.000207)
(-0.016761 0.026032 0.000207)
(-0.017102 0.033793 0.000288)
(-0.017271 0.038601 0.000436)
(-0.011234 0.031292 0.000355)
(-0.011311 0.035511 0.000433)
(-0.009960 0.035963 0.000731)
(-0.009452 0.038511 0.000881)
(-0.008826 0.041447 0.001049)
(-0.008260 0.044502 0.001234)
(-0.007431 0.046917 0.001439)
(-0.006786 0.050334 0.001665)
(-0.006046 0.054414 0.001949)
(-0.005340 0.059338 0.002243)
(-0.004436 0.064996 0.002506)
(-0.003520 0.074917 0.002823)
(-0.002163 0.085306 0.003150)
(-0.000258 0.102534 0.002609)
(0.002548 0.122543 0.001942)
(0.006022 0.133015 0.001865)
(0.009235 0.135048 0.001637)
(0.012104 0.135132 0.001382)
(0.014910 0.137122 0.001156)
(0.017593 0.139592 0.000577)
(0.020323 0.143357 0.000103)
(0.022757 0.146085 0.000099)
(0.025003 0.148301 0.000095)
(0.027144 0.150833 0.000091)
(0.029013 0.152505 0.000087)
(0.030839 0.154113 0.000033)
(0.032360 0.154899 -0.000020)
(0.033551 0.155226 -0.000021)
(0.034442 0.154610 -0.000021)
(0.035021 0.153111 -0.000021)
(0.035291 0.150724 -0.000021)
(0.035229 0.147376 0.000045)
(0.034891 0.143258 0.000111)
(0.034311 0.138409 0.000111)
(0.032990 0.130654 0.000111)
(0.030241 0.117550 0.000111)
(0.028454 0.108118 0.000111)
(0.030892 0.116551 -0.000032)
(0.029845 0.111650 -0.000174)
(0.010593 0.020402 -0.000174)
(0.000322 -0.004774 -0.000174)
(-0.001276 0.003547 -0.000174)
(-0.001802 0.004326 -0.000032)
(-0.002613 0.007348 0.000111)
(-0.004508 0.012778 0.000111)
(-0.006681 0.019045 0.000111)
(-0.008959 0.026640 0.000111)
(-0.010791 0.034253 0.000111)
(-0.012618 0.043808 0.000045)
(-0.012122 0.045200 -0.000021)
(-0.005578 0.026894 -0.000021)
(0.002629 0.000266 -0.000021)
(0.006173 -0.018304 -0.000021)
(0.003828 -0.016553 -0.000021)
(-0.001161 0.001288 0.000028)
(-0.004481 0.017297 0.000079)
(-0.005993 0.027839 0.000081)
(-0.007066 0.038204 0.000083)
(-0.007545 0.047065 0.000085)
(-0.007455 0.054103 0.000088)
(-0.006912 0.059684 0.000299)
(-0.006019 0.063985 0.000534)
(-0.004887 0.067922 0.000584)
(-0.003512 0.071165 0.000636)
(-0.001954 0.069718 0.000670)
(-0.000306 0.074296 0.000652)
(0.001284 0.074377 0.000601)
(0.001836 0.050683 0.000514)
(0.002506 0.041794 0.000530)
(0.003404 0.044641 0.000438)
(0.003727 0.038845 0.000234)
(0.003860 0.034024 0.000170)
(0.003898 0.029115 0.000156)
(0.004307 0.027677 0.000158)
(0.004413 0.025107 0.000135)
(0.004586 0.023085 0.000116)
(0.004156 0.019544 0.000101)
(0.004298 0.018107 0.000087)
(0.005689 0.020545 0.000076)
(0.006029 0.018144 0.000067)
(0.006731 0.014576 0.000060)
(0.006914 0.008264 0.000014)
(0.004400 -0.002348 -0.000036)
(0.004662 -0.002973 -0.000050)
(0.008937 0.010423 -0.000062)
(0.006257 0.019374 -0.000073)
(-0.001334 0.008787 0.000064)
(-0.001615 -0.001512 0.000207)
(-0.001035 -0.000154 0.000207)
(-0.010447 0.001031 0.000207)
(-0.001920 0.037115 -0.000174)
(0.000856 0.135464 -0.000174)
(0.001377 0.121423 -0.000174)
(0.003777 0.143593 -0.000174)
(0.006132 0.209419 -0.000174)
(0.007908 0.248279 -0.000174)
(0.009835 0.286570 -0.000174)
(0.013093 0.365401 -0.000174)
(0.019013 0.526394 -0.000174)
(0.024830 0.690511 -0.000140)
(0.026322 0.613576 -0.000105)
(0.042143 0.817619 -0.000105)
(0.187980 3.828366 -0.000105)
(0.388189 8.543379 -0.000105)
(-12.949522 -32.171941 -0.000105)
(114.345725 -270.038640 -0.000105)
(-20.198754 -13.968116 -0.000105)
(-13.656469 -6.461040 -0.000105)
(-17.955597 -33.316228 -0.000105)
(-88.432016 268.436351 -0.000105)
(6.909783 78.594286 -0.000045)
(4.817976 36.409668 0.000015)
(1.805837 15.044341 0.000015)
(0.370159 0.496874 0.000015)
(2.194722 6.397019 0.000015)
(-0.644256 -1.184678 0.000015)
(-0.183671 -0.932005 0.000015)
(-0.327501 -0.225186 0.000015)
(-2.340877 -3.539372 0.000015)
(0.897946 0.964312 0.000015)
(1.865233 2.345377 0.000015)
(1.354622 1.458134 0.000015)
(2.932224 2.803018 0.000015)
(4.253561 3.577262 0.000015)
(8.934575 6.256920 0.000015)
(15.198347 9.362567 0.000015)
(23.018496 12.007323 0.000015)
(8.112418 4.821715 0.000015)
(3.577915 1.447529 0.000015)
(41.778910 12.744156 0.000015)
(65.331402 14.484948 0.000015)
(-29.396638 -7.714180 0.000015)
(-191.928768 -20.844546 0.000015)
(-134.735427 -4.257563 0.000015)
(2.002787 4.174305 0.000015)
(50.855720 -8.546403 0.000015)
(61.432164 -14.852380 0.000015)
(32.190926 -10.031604 0.000015)
(13.671363 -4.679000 0.000015)
(-1.361171 -1.576079 0.000015)
(0.475268 -2.513404 0.000015)
(3.992657 -4.167656 0.000015)
(3.006828 -3.160205 0.000015)
(0.357838 0.105297 0.000015)
(0.952701 0.370252 0.000015)
(1.633312 -0.237420 0.000015)
(1.114103 -0.246596 0.000015)
(0.648095 -0.226864 0.000015)
(0.419705 -0.245733 0.000015)
(0.298638 -0.256431 0.000015)
(0.183120 -0.187250 0.000015)
(0.066454 -0.058913 0.000015)
(0.015019 -0.002995 0.000015)
(-0.009290 0.027180 0.000015)
(-0.021909 0.050113 0.000015)
(-0.023701 0.056250 0.000015)
(-0.018797 0.044344 0.000015)
(-0.011347 0.026357 -0.000045)
(-59.809044 0.011976 -0.000105)
(59.803628 0.002519 -0.000105)
(-0.006119 0.010285 -0.000105)
(0.009936 -0.001972 -0.000105)
(0.001851 0.033551 -0.000105)
(-0.024373 0.087745 -0.000105)
(-0.012223 0.057557 -0.000105)
(-0.002793 0.025931 -0.000105)
(-0.002126 0.018900 -0.000105)
(-0.001696 0.009982 -0.000105)
(-0.001379 0.008605 -0.000140)
(-0.001166 0.007480 -0.000174)
(-0.000941 0.004915 -0.000174)
(-0.000866 0.004981 -0.000174)
(-0.000770 0.004149 -0.000174)
(-0.000681 0.003182 -0.000174)
(-0.000392 0.001886 -0.000174)
(-0.000124 0.002220 -0.000174)
(0.000015 0.003232 -0.000174)
(0.000784 -0.004944 -0.000174)
)
;
    }
}
