/*--------------------------------*- C++ -*---------------------------------*\ 
| ========                 |                                                 | 
| \      /  F ield         | OpenFOAM: The Open Source CFD Toolbox           | 
|  \    /   O peration     | Version:  v1812                                 | 
|   \  /    A nd           | Web:      www.OpenFOAM.com                      | 
|    \/     M anipulation  |                                                 | 
\*--------------------------------------------------------------------------*/ 
FoamFile
{
    version     2.0;
    format      ascii;
    class       volVectorField;
    location    "/home/james/dafoam/myRuns/bezier_coanda_opt/0.00000000001/";
    object      sens_CL_shapey;
}
// * * * * * * * * * * * * * * * * * * * * * * * * * * * * * * * * * * * * * //

dimensions      [0 0 0 0 0 0 0];
internalField   uniform (0 0 0);
boundaryField
{
    allWalls
    {
        type  wall;
        value nonuniform List<vector>
188
(
(-0.025556 0.007094 0.000131)
(-0.026119 0.008143 0.000131)
(-0.039688 0.020903 0.000170)
(-0.062350 0.034835 0.000166)
(-0.049890 0.034077 0.000166)
(-0.029185 0.025115 0.000170)
(-0.007134 0.012788 0.000170)
(-0.017261 0.029062 0.000170)
(-0.018930 0.031826 0.000464)
(-0.013436 0.028348 0.000786)
(-0.014741 0.033783 0.000845)
(-0.010971 0.030257 0.000913)
(-0.010674 0.032103 0.000989)
(-0.009905 0.032554 0.001079)
(-0.011734 0.043073 0.001225)
(-0.011401 0.046644 0.001429)
(-0.009884 0.046605 0.001656)
(-0.009961 0.053607 0.001676)
(-0.009246 0.057659 0.001947)
(-0.008387 0.062493 0.002468)
(-0.007589 0.069900 0.002775)
(-0.006670 0.080800 0.003091)
(-0.004883 0.085730 0.003227)
(-0.002802 0.121458 0.002977)
(0.000494 0.150784 0.002757)
(0.005818 0.149638 0.002617)
(0.011268 0.158819 0.002259)
(0.016621 0.163992 0.001866)
(0.022072 0.170304 0.001519)
(0.027517 0.176445 0.000785)
(0.032785 0.181795 0.000204)
(0.037856 0.186661 0.000188)
(0.042697 0.191192 0.000176)
(0.047141 0.194778 0.000168)
(0.051164 0.197527 0.000163)
(0.054524 0.198734 -0.000146)
(0.057116 0.198175 -0.000437)
(0.058964 0.196032 -0.000403)
(0.059921 0.191915 -0.000372)
(0.060058 0.186158 -0.000342)
(0.059368 0.178763 -0.000314)
(0.057396 0.168404 -0.000288)
(0.053968 0.154689 -0.000264)
(0.050467 0.141649 -0.000241)
(0.049142 0.135334 -0.000221)
(0.045396 0.122903 -0.000202)
(0.029768 0.080484 -0.000185)
(0.026722 0.075428 -0.000194)
(0.037264 0.112807 -0.000210)
(0.002695 -0.029629 -0.000210)
(0.002122 -0.016520 -0.000210)
(-0.000685 0.002691 -0.000210)
(-0.000343 -0.002155 -0.000097)
(0.000697 -0.004644 0.000017)
(-0.000191 -0.001520 0.000020)
(-0.001658 0.001568 0.000023)
(-0.003354 0.005681 0.000026)
(-0.006218 0.013376 0.000031)
(-0.010089 0.023916 0.000036)
(-0.015735 0.039067 0.000042)
(-0.021569 0.055667 0.000049)
(-0.026634 0.079155 0.000057)
(-0.024689 0.085208 0.000066)
(-0.003234 0.029283 0.000076)
(0.018029 -0.044385 0.000157)
(0.018750 -0.071769 0.000236)
(0.007867 -0.044336 0.000244)
(-0.001435 -0.005029 0.000251)
(-0.005047 0.017000 0.000259)
(-0.006907 0.034389 0.000268)
(-0.007712 0.049054 0.000449)
(-0.007429 0.059866 0.000658)
(-0.006308 0.067786 0.000720)
(-0.004561 0.074158 0.000782)
(-0.002335 0.076759 0.000820)
(0.000144 0.083616 0.000791)
(0.001915 0.073939 0.000750)
(0.002927 0.053713 0.000677)
(0.003752 0.047030 0.000556)
(0.004806 0.045817 0.000459)
(0.005055 0.040436 0.000309)
(0.005147 0.034297 0.000145)
(0.005373 0.031198 0.000164)
(0.005227 0.026299 0.000252)
(0.005000 0.022629 0.000274)
(0.005643 0.022252 0.000297)
(0.006283 0.022616 0.000152)
(0.005755 0.019347 0.000056)
(0.006095 0.018080 0.000110)
(0.006521 0.015589 0.000097)
(0.007257 0.010898 0.000249)
(0.005927 0.002210 0.000288)
(0.004143 -0.003931 0.000063)
(0.006828 0.002293 -0.000047)
(0.008213 0.014110 0.000060)
(0.002091 0.009718 0.000108)
(0.000250 -0.003272 0.000108)
(0.009706 -0.001029 0.000102)
(0.018878 0.005982 0.000102)
(0.008408 0.005707 0.000170)
(-0.013254 -0.035705 -0.000210)
(0.006320 0.122698 -0.000210)
(0.004267 0.124393 -0.000210)
(0.003469 0.130494 -0.000210)
(0.004904 0.176855 -0.000210)
(0.006835 0.228142 -0.000210)
(0.008745 0.276304 -0.000210)
(0.011706 0.361279 -0.000210)
(0.016796 0.518112 -0.000210)
(0.021438 0.687619 -0.000168)
(0.023264 0.711679 -0.000126)
(0.034691 1.083404 -0.000126)
(0.166508 3.906033 -0.000126)
(0.269579 7.573994 -0.000126)
(-11.473222 -32.091023 -0.000126)
(167.065080 -307.810622 -0.000126)
(-20.798764 -15.668326 -0.000126)
(-16.342921 -7.461400 -0.000126)
(-17.691373 -30.745370 -0.000126)
(-138.626935 301.383316 -0.000126)
(8.157554 96.301644 -0.000055)
(6.642701 44.750613 0.000016)
(2.307449 20.238662 0.000016)
(-0.429333 -1.726758 0.000016)
(2.445252 6.903867 0.000016)
(-0.746099 -0.994531 0.000016)
(-0.538595 -1.565955 0.000016)
(-0.496712 -0.424184 0.000016)
(-3.203455 -4.868781 0.000016)
(0.631568 0.470171 0.000016)
(1.612725 2.063560 0.000016)
(0.341278 0.398824 0.000016)
(2.130664 2.054379 0.000016)
(2.105565 1.918130 0.000016)
(4.779309 3.365171 0.000016)
(13.119483 7.944035 0.000016)
(19.120048 10.214542 0.000016)
(26.554875 11.879720 0.000016)
(2.883570 2.574835 0.000016)
(12.520201 2.634814 0.000016)
(49.335805 11.583099 0.000016)
(40.522682 5.475996 0.000016)
(-58.705684 -5.791060 0.000016)
(-200.567863 -3.490598 0.000016)
(-131.531718 7.308561 0.000016)
(5.441962 3.777851 0.000016)
(62.653875 -14.157187 0.000016)
(70.999983 -21.733379 0.000016)
(37.348277 -14.071337 0.000016)
(16.623600 -6.684586 0.000016)
(-1.494446 -1.646494 0.000016)
(1.334629 -3.424738 0.000016)
(4.012088 -4.790323 0.000016)
(1.705003 -3.249672 0.000016)
(0.590470 -0.436906 0.000016)
(0.747769 0.383137 0.000016)
(1.450671 -0.175503 0.000016)
(1.188509 -0.420703 0.000016)
(0.710121 -0.341775 0.000016)
(0.372718 -0.209727 0.000016)
(0.319873 -0.330896 0.000016)
(0.254895 -0.345858 0.000016)
(0.112796 -0.172340 0.000016)
(0.039430 -0.064566 0.000016)
(-0.006246 0.029484 0.000016)
(-0.028403 0.102216 0.000016)
(-0.042969 0.128172 0.000016)
(-0.038191 0.091446 -0.000055)
(-59.812336 0.038788 -0.000126)
(59.790860 0.006878 -0.000126)
(-0.033770 0.047793 -0.000126)
(0.026478 0.011930 -0.000126)
(0.128507 -0.142753 -0.000126)
(0.013200 0.010870 -0.000126)
(-0.063483 0.139113 -0.000126)
(-0.010330 0.050999 -0.000126)
(-0.006813 0.052881 -0.000126)
(-0.004462 0.023370 -0.000126)
(-0.003463 0.022811 -0.000168)
(-0.002401 0.009707 -0.000210)
(-0.001511 -0.005408 -0.000210)
(-0.001589 0.000600 -0.000210)
(-0.001217 -0.002916 -0.000210)
(-0.000965 -0.004933 -0.000210)
(-0.000564 -0.006659 -0.000210)
(-0.000478 -0.002288 -0.000210)
(-0.000325 0.002218 -0.000210)
(0.002003 -0.017177 -0.000210)
)
;
    }
}
