/*--------------------------------*- C++ -*---------------------------------*\ 
| ========                 |                                                 | 
| \      /  F ield         | OpenFOAM: The Open Source CFD Toolbox           | 
|  \    /   O peration     | Version:  v1812                                 | 
|   \  /    A nd           | Web:      www.OpenFOAM.com                      | 
|    \/     M anipulation  |                                                 | 
\*--------------------------------------------------------------------------*/ 
FoamFile
{
    version     2.0;
    format      ascii;
    class       volVectorField;
    location    "/home/james/dafoam/myRuns/bezier_coanda_opt/0.00000000001/";
    object      sens_CL_shapey;
}
// * * * * * * * * * * * * * * * * * * * * * * * * * * * * * * * * * * * * * //

dimensions      [0 0 0 0 0 0 0];
internalField   uniform (0 0 0);
boundaryField
{
    allWalls
    {
        type  wall;
        value nonuniform List<vector>
188
(
(-0.021649 0.004701 0.000311)
(-0.026007 0.007924 0.000318)
(-0.032689 0.015937 0.000316)
(-0.036925 0.020529 0.000314)
(-0.044642 0.032854 0.000312)
(-0.026451 0.020144 0.000310)
(0.001686 0.000237 0.000307)
(-0.016816 0.025085 0.000305)
(-0.020251 0.031726 0.000303)
(-0.016158 0.030651 0.000300)
(-0.016928 0.036323 0.000298)
(-0.013127 0.033156 0.000296)
(-0.012090 0.033107 0.000507)
(-0.012577 0.037045 0.000730)
(-0.012481 0.040976 0.000752)
(-0.011741 0.043490 0.000776)
(-0.011525 0.048305 0.000801)
(-0.010872 0.051962 0.000828)
(-0.010312 0.056984 0.001532)
(-0.009577 0.062289 0.002373)
(-0.008455 0.066609 0.002683)
(-0.007386 0.074900 0.003010)
(-0.006230 0.091149 0.003345)
(-0.004354 0.126360 0.003673)
(-0.000291 0.142193 0.003449)
(0.005530 0.143318 0.002825)
(0.011039 0.154541 0.002211)
(0.016487 0.159125 0.001851)
(0.022245 0.165898 0.001933)
(0.027976 0.171956 0.001365)
(0.033652 0.177776 0.000602)
(0.039172 0.183168 0.000381)
(0.044434 0.187925 0.000209)
(0.049378 0.192037 0.000039)
(0.053831 0.195064 -0.000058)
(0.057550 0.196359 -0.000060)
(0.060414 0.195786 -0.000059)
(0.062397 0.193397 -0.000184)
(0.063298 0.188783 -0.000273)
(0.063199 0.182237 -0.000235)
(0.062206 0.174017 -0.000234)
(0.059831 0.162865 -0.000227)
(0.055855 0.148130 -0.000304)
(0.051310 0.132797 -0.000291)
(0.048485 0.122561 -0.000289)
(0.044215 0.109184 -0.000274)
(0.029588 0.071514 -0.000270)
(0.022480 0.055280 -0.000289)
(0.028663 0.077827 -0.000207)
(0.007160 -0.001969 -0.000207)
(0.003520 -0.023587 -0.000207)
(-0.001454 0.006681 -0.000207)
(-0.000800 -0.000710 -0.000242)
(0.001406 -0.006122 -0.000175)
(0.000871 -0.003429 -0.000161)
(-0.000564 -0.000688 -0.000146)
(-0.002500 0.003182 -0.000037)
(-0.005374 0.010534 -0.000105)
(-0.009437 0.021138 -0.000109)
(-0.015704 0.038177 -0.000036)
(-0.024476 0.060194 0.000013)
(-0.032729 0.085928 0.000022)
(-0.033936 0.104979 -0.000009)
(-0.021679 0.091051 0.000001)
(0.011875 -0.006801 0.000006)
(0.034769 -0.110089 0.000012)
(0.022372 -0.097453 0.000211)
(0.006314 -0.043523 0.000453)
(-0.000089 -0.012968 0.000543)
(-0.003871 0.012795 0.000626)
(-0.006277 0.035719 0.000708)
(-0.006936 0.052291 0.000787)
(-0.006259 0.063842 0.000862)
(-0.004680 0.073280 0.000996)
(-0.002286 0.077129 0.000872)
(0.000383 0.086149 0.000771)
(0.001838 0.076326 0.000660)
(0.002787 0.055857 0.000384)
(0.003517 0.048155 0.000306)
(0.004711 0.046956 0.000246)
(0.005257 0.043584 0.000200)
(0.005082 0.035156 0.000163)
(0.005294 0.031801 0.000353)
(0.005186 0.027211 0.000559)
(0.005341 0.024658 0.000560)
(0.005621 0.023132 0.000563)
(0.006201 0.023080 0.000566)
(0.005742 0.020263 0.000568)
(0.006244 0.018023 0.000428)
(0.007761 0.016365 0.000286)
(0.008547 0.010767 0.000288)
(0.006530 0.000278 0.000290)
(0.004838 -0.005280 0.000292)
(0.008551 0.003818 0.000294)
(0.009650 0.017792 0.000295)
(0.001853 0.013384 0.000297)
(-0.003256 -0.000301 0.000299)
(0.000551 -0.001095 0.000300)
(0.003975 0.002047 0.000301)
(-0.002912 0.002559 0.000302)
(-0.007116 -0.013244 -0.000207)
(0.001470 0.079943 -0.000207)
(0.001330 0.091699 -0.000207)
(0.002879 0.116577 -0.000207)
(0.004503 0.163529 -0.000207)
(0.006074 0.198927 -0.000207)
(0.008147 0.247864 -0.000207)
(0.011202 0.326580 -0.000207)
(0.016110 0.468653 -0.000207)
(0.020959 0.629355 -0.000166)
(0.022951 0.621614 -0.000124)
(0.034374 0.903907 -0.000124)
(0.166927 3.603856 -0.000124)
(0.270840 7.317149 -0.000124)
(-10.619553 -29.757837 -0.000124)
(144.925953 -298.288489 -0.000124)
(-23.016204 -14.511412 -0.000124)
(-16.979399 -7.137268 -0.000124)
(-17.298014 -28.534616 -0.000124)
(-115.732988 294.781872 -0.000124)
(7.016394 82.817828 -0.000053)
(5.699628 40.709407 0.000018)
(1.703002 22.438077 0.000018)
(-1.826794 -4.335898 0.000018)
(2.083646 5.666439 0.000018)
(-0.598931 -0.223620 0.000018)
(-0.682371 -1.839206 0.000018)
(-0.288134 0.078655 0.000018)
(-3.123121 -4.736155 0.000018)
(0.540613 0.404905 0.000018)
(1.458525 1.880415 0.000018)
(0.497735 0.567383 0.000018)
(2.053259 1.998525 0.000018)
(2.077015 1.890489 0.000018)
(5.224060 3.671873 0.000018)
(13.167072 8.001624 0.000018)
(18.779042 10.026741 0.000018)
(27.396421 12.156657 0.000018)
(6.851611 3.870652 0.000018)
(14.450645 3.301522 0.000018)
(42.312873 10.337056 0.000018)
(28.811996 4.223979 0.000018)
(-33.525088 -5.510929 0.000018)
(-154.488295 -4.392630 0.000018)
(-163.796446 8.941874 0.000018)
(-24.749021 6.382347 0.000018)
(69.016809 -13.333843 0.000018)
(61.770963 -20.476058 0.000018)
(41.605792 -15.657063 0.000018)
(21.650662 -9.174225 0.000018)
(-0.123345 -2.417825 0.000018)
(0.169885 -2.562523 0.000018)
(1.594084 -2.893454 0.000018)
(1.696103 -3.869717 0.000018)
(2.598371 -2.582735 0.000018)
(0.011741 0.454808 0.000018)
(0.823962 0.143817 0.000018)
(1.146268 -0.474131 0.000018)
(0.777584 -0.448795 0.000018)
(0.420358 -0.280864 0.000018)
(0.303702 -0.309075 0.000018)
(0.244504 -0.341910 0.000018)
(0.136544 -0.233238 0.000018)
(0.051127 -0.095943 0.000018)
(-0.000124 0.016588 0.000018)
(-0.027722 0.114448 0.000018)
(-0.056520 0.166108 0.000018)
(-0.051934 0.127270 -0.000053)
(-59.812341 0.055775 -0.000124)
(59.783289 0.008770 -0.000124)
(-0.043927 0.063083 -0.000124)
(0.017216 0.026191 -0.000124)
(0.220950 -0.280483 -0.000124)
(0.103105 -0.089027 -0.000124)
(-0.063332 0.170490 -0.000124)
(-0.006495 0.051658 -0.000124)
(-0.005611 0.066931 -0.000124)
(-0.003590 0.036704 -0.000124)
(-0.002651 0.031537 -0.000166)
(-0.001645 0.012994 -0.000207)
(-0.001010 0.000463 -0.000207)
(-0.001195 0.005443 -0.000207)
(-0.000767 -0.001553 -0.000207)
(-0.000567 -0.004495 -0.000207)
(-0.000161 -0.007250 -0.000207)
(-0.000225 -0.000392 -0.000207)
(-0.000055 0.006492 -0.000207)
(0.003746 -0.024209 -0.000207)
)
;
    }
}
