/*--------------------------------*- C++ -*---------------------------------*\ 
| ========                 |                                                 | 
| \      /  F ield         | OpenFOAM: The Open Source CFD Toolbox           | 
|  \    /   O peration     | Version:  v1812                                 | 
|   \  /    A nd           | Web:      www.OpenFOAM.com                      | 
|    \/     M anipulation  |                                                 | 
\*--------------------------------------------------------------------------*/ 
FoamFile
{
    version     2.0;
    format      ascii;
    class       volVectorField;
    location    "/home/james/dafoam/myRuns/bezier_coanda_opt/0.00000000001/";
    object      sens_CL_shapey;
}
// * * * * * * * * * * * * * * * * * * * * * * * * * * * * * * * * * * * * * //

dimensions      [0 0 0 0 0 0 0];
internalField   uniform (0 0 0);
boundaryField
{
    allWalls
    {
        type  wall;
        value nonuniform List<vector>
188
(
(-0.025476 0.007569 0.000284)
(-0.027781 0.008605 0.000293)
(-0.045535 0.024151 0.000291)
(-0.067280 0.038362 0.000289)
(-0.053144 0.038549 0.000287)
(-0.029269 0.027007 0.000285)
(-0.004867 0.012669 0.000283)
(-0.014591 0.026620 0.000281)
(-0.016372 0.030174 0.000279)
(-0.012820 0.028141 0.000277)
(-0.014222 0.034794 0.000275)
(-0.011792 0.033254 0.000273)
(-0.009829 0.031064 0.000507)
(-0.010002 0.035188 0.000748)
(-0.010221 0.039649 0.000763)
(-0.010211 0.045147 0.000780)
(-0.009876 0.049283 0.000797)
(-0.008884 0.051272 0.000815)
(-0.008524 0.057509 0.001483)
(-0.007847 0.063841 0.002283)
(-0.006950 0.070214 0.002574)
(-0.005907 0.080701 0.002877)
(-0.004214 0.084868 0.003186)
(-0.001978 0.115484 0.003488)
(0.001227 0.150105 0.003290)
(0.005968 0.149885 0.002522)
(0.010867 0.153862 0.002001)
(0.015761 0.160265 0.001566)
(0.020674 0.165287 0.001062)
(0.025386 0.170273 0.000758)
(0.029946 0.174966 0.000514)
(0.034429 0.179912 0.000323)
(0.038587 0.183969 -0.000023)
(0.042347 0.187013 -0.000273)
(0.045684 0.189590 -0.000194)
(0.048603 0.190881 -0.000166)
(0.051032 0.190753 -0.000191)
(0.052768 0.189390 -0.000165)
(0.053902 0.186312 -0.000234)
(0.054383 0.181845 -0.000307)
(0.054111 0.176058 -0.000286)
(0.052802 0.167657 -0.000263)
(0.050026 0.156159 -0.000243)
(0.047468 0.145416 -0.000218)
(0.046918 0.141257 -0.000206)
(0.043946 0.130498 -0.000100)
(0.030158 0.089023 -0.000087)
(0.029814 0.090615 -0.000195)
(0.042699 0.137917 -0.000207)
(0.002664 -0.031760 -0.000207)
(0.001477 -0.012583 -0.000207)
(-0.000355 0.000592 -0.000207)
(-0.000578 -0.001300 -0.000115)
(0.000180 -0.002617 -0.000023)
(-0.000870 -0.000096 -0.000051)
(-0.002677 0.004196 -0.000050)
(-0.004461 0.009629 -0.000020)
(-0.007486 0.017685 -0.000030)
(-0.011415 0.028780 -0.000020)
(-0.015863 0.042061 0.000011)
(-0.019649 0.057201 0.000030)
(-0.020393 0.067795 0.000025)
(-0.012785 0.054062 0.000008)
(0.005342 -0.000956 0.000005)
(0.014955 -0.045207 0.000110)
(0.007466 -0.031779 0.000108)
(-0.000307 -0.006402 -0.000000)
(-0.003407 0.008318 0.000292)
(-0.005959 0.026246 0.000625)
(-0.007567 0.042555 0.000707)
(-0.007951 0.054014 0.000690)
(-0.007301 0.061903 0.000774)
(-0.005841 0.068084 0.000819)
(-0.004161 0.073426 0.000897)
(-0.002222 0.075313 0.001085)
(-0.000183 0.081247 0.000932)
(0.001485 0.072751 0.000595)
(0.002585 0.052221 0.000381)
(0.003402 0.045699 0.000308)
(0.004414 0.045248 0.000249)
(0.004595 0.039238 0.000203)
(0.004604 0.032922 0.000166)
(0.005006 0.030798 0.000393)
(0.005110 0.027310 0.000636)
(0.005043 0.023917 0.000635)
(0.004732 0.020275 0.000636)
(0.005511 0.020848 0.000636)
(0.005848 0.020278 0.000637)
(0.005877 0.018341 0.000444)
(0.006053 0.015490 0.000252)
(0.006993 0.011380 0.000254)
(0.006359 0.004119 0.000257)
(0.004002 -0.003712 0.000259)
(0.006060 0.000899 0.000262)
(0.008403 0.013202 0.000264)
(0.002810 0.010616 0.000266)
(0.000717 -0.003019 0.000268)
(0.011287 -0.001803 0.000270)
(0.022398 0.006463 0.000272)
(0.011813 0.006434 0.000274)
(-0.015822 -0.041937 -0.000207)
(0.007225 0.144754 -0.000207)
(0.004550 0.140799 -0.000207)
(0.003411 0.138904 -0.000207)
(0.005087 0.189596 -0.000207)
(0.007266 0.246278 -0.000207)
(0.009109 0.291917 -0.000207)
(0.012139 0.379334 -0.000207)
(0.017569 0.545420 -0.000207)
(0.022417 0.720376 -0.000165)
(0.024068 0.734978 -0.000123)
(0.036641 1.109147 -0.000123)
(0.174003 4.080801 -0.000123)
(0.302613 8.065168 -0.000123)
(-12.456575 -33.599861 -0.000123)
(172.901890 -313.231367 -0.000123)
(-20.234820 -16.093287 -0.000123)
(-15.891550 -7.568619 -0.000123)
(-18.408344 -32.796276 -0.000123)
(-144.587713 306.103582 -0.000123)
(8.563731 101.061889 -0.000053)
(6.782826 45.609070 0.000017)
(2.599995 19.164065 0.000017)
(0.274929 -0.188167 0.000017)
(2.564084 7.277845 0.000017)
(-0.777960 -1.275483 0.000017)
(-0.482039 -1.490121 0.000017)
(-0.528293 -0.541572 0.000017)
(-3.125380 -4.732872 0.000017)
(0.678242 0.553218 0.000017)
(1.768081 2.255187 0.000017)
(0.742874 0.809418 0.000017)
(1.967485 1.971278 0.000017)
(2.261514 2.011911 0.000017)
(6.020331 4.243288 0.000017)
(15.240630 9.189333 0.000017)
(20.502600 10.960568 0.000017)
(16.380032 7.947542 0.000017)
(4.776182 2.531587 0.000017)
(17.145967 4.495262 0.000017)
(44.275164 9.425469 0.000017)
(28.135464 3.307664 0.000017)
(-88.551447 -7.356750 0.000017)
(-196.778475 -2.202760 0.000017)
(-100.223682 7.778052 0.000017)
(21.854265 1.468353 0.000017)
(69.106308 -15.471822 0.000017)
(70.527938 -20.341189 0.000017)
(30.902939 -11.488901 0.000017)
(13.416083 -5.411440 0.000017)
(-0.156420 -1.761215 0.000017)
(0.999021 -2.459501 0.000017)
(4.322482 -4.911243 0.000017)
(1.816197 -3.226690 0.000017)
(-1.288367 0.236349 0.000017)
(0.221593 0.063398 0.000017)
(1.100767 -0.449965 0.000017)
(0.785920 -0.379419 0.000017)
(0.442409 -0.250836 0.000017)
(0.264020 -0.204642 0.000017)
(0.256369 -0.323901 0.000017)
(0.180450 -0.282948 0.000017)
(0.062502 -0.122193 0.000017)
(0.008593 -0.033148 0.000017)
(-0.024192 0.040005 0.000017)
(-0.036227 0.082655 0.000017)
(-0.040628 0.097600 0.000017)
(-0.033130 0.069567 -0.000053)
(-59.814748 0.028498 -0.000123)
(59.795352 0.005726 -0.000123)
(-0.023426 0.033182 -0.000123)
(0.021574 0.002981 -0.000123)
(0.064517 -0.053938 -0.000123)
(-0.021875 0.063003 -0.000123)
(-0.051134 0.109718 -0.000123)
(-0.012509 0.044731 -0.000123)
(-0.007714 0.039348 -0.000123)
(-0.005128 0.013802 -0.000123)
(-0.003822 0.012824 -0.000165)
(-0.002830 0.007644 -0.000207)
(-0.001923 -0.004115 -0.000207)
(-0.001761 -0.001525 -0.000207)
(-0.001412 -0.003343 -0.000207)
(-0.001168 -0.004372 -0.000207)
(-0.000736 -0.005444 -0.000207)
(-0.000513 -0.002491 -0.000207)
(-0.000387 0.000822 -0.000207)
(0.001086 -0.012323 -0.000207)
)
;
    }
}
