/*--------------------------------*- C++ -*---------------------------------*\ 
| ========                 |                                                 | 
| \      /  F ield         | OpenFOAM: The Open Source CFD Toolbox           | 
|  \    /   O peration     | Version:  v1812                                 | 
|   \  /    A nd           | Web:      www.OpenFOAM.com                      | 
|    \/     M anipulation  |                                                 | 
\*--------------------------------------------------------------------------*/ 
FoamFile
{
    version     2.0;
    format      ascii;
    class       volVectorField;
    location    "/home/james/dafoam/myRuns/bezier_coanda_opt/0.00000000001/";
    object      sens_CL_shapey;
}
// * * * * * * * * * * * * * * * * * * * * * * * * * * * * * * * * * * * * * //

dimensions      [0 0 0 0 0 0 0];
internalField   uniform (0 0 0);
boundaryField
{
    allWalls
    {
        type  wall;
        value nonuniform List<vector>
188
(
(-0.027571 0.008363 0.000327)
(-0.028150 0.008424 0.000339)
(-0.051289 0.027699 0.000337)
(-0.083741 0.048095 0.000335)
(-0.038933 0.026056 0.000333)
(-0.017145 0.021453 0.000332)
(-0.025204 0.039852 0.000330)
(-0.016074 0.029282 0.000328)
(-0.009612 0.021662 0.000326)
(-0.012076 0.028279 0.000324)
(-0.011781 0.031869 0.000322)
(-0.010751 0.032698 0.000320)
(-0.009067 0.031075 0.000496)
(-0.009560 0.036361 0.000678)
(-0.009357 0.039477 0.000690)
(-0.009273 0.044850 0.000702)
(-0.008991 0.049333 0.000715)
(-0.008003 0.051126 0.000729)
(-0.007545 0.057019 0.001366)
(-0.006800 0.062703 0.002130)
(-0.005954 0.069474 0.002402)
(-0.004945 0.080363 0.002686)
(-0.003480 0.090853 0.002973)
(-0.001266 0.104721 0.003253)
(0.002399 0.141546 0.002956)
(0.006559 0.155419 0.002343)
(0.010563 0.148076 0.001940)
(0.014923 0.155092 0.001524)
(0.018953 0.158823 0.001165)
(0.022882 0.162683 0.000864)
(0.026750 0.167176 0.000616)
(0.030429 0.171270 0.000379)
(0.033846 0.174761 0.000174)
(0.036953 0.177564 0.000026)
(0.039749 0.179768 -0.000040)
(0.042143 0.180974 -0.000038)
(0.044153 0.181357 -0.000037)
(0.045693 0.180628 -0.000144)
(0.046673 0.178478 -0.000271)
(0.047208 0.175368 -0.000228)
(0.047277 0.171180 -0.000167)
(0.046504 0.164602 -0.000167)
(0.044749 0.155246 -0.000218)
(0.043165 0.147156 -0.000218)
(0.043313 0.145305 -0.000167)
(0.041090 0.135746 -0.000167)
(0.029233 0.095526 -0.000199)
(0.031661 0.105987 -0.000215)
(0.045970 0.161748 -0.000201)
(0.002521 -0.034118 -0.000201)
(0.001012 -0.009123 -0.000201)
(-0.000538 0.001132 -0.000201)
(-0.000951 0.000312 -0.000167)
(-0.000897 0.000731 -0.000151)
(-0.002070 0.004039 -0.000086)
(-0.003992 0.008982 -0.000086)
(-0.006438 0.016020 -0.000167)
(-0.009480 0.024647 -0.000167)
(-0.012947 0.035164 -0.000167)
(-0.015984 0.047545 -0.000167)
(-0.017099 0.057261 -0.000080)
(-0.013842 0.054289 0.000028)
(-0.000974 0.018198 0.000054)
(0.011245 -0.030673 0.000065)
(0.010003 -0.041779 0.000076)
(0.001610 -0.013930 0.000087)
(-0.004241 0.012934 0.000097)
(-0.006123 0.025939 0.000106)
(-0.007285 0.037940 0.000314)
(-0.007846 0.048901 0.000509)
(-0.007648 0.057397 0.000543)
(-0.006814 0.063426 0.000624)
(-0.005554 0.068197 0.000747)
(-0.003960 0.072620 0.000834)
(-0.002074 0.074266 0.000862)
(-0.000035 0.078951 0.000858)
(0.001535 0.071139 0.000613)
(0.002347 0.051353 0.000356)
(0.003048 0.043888 0.000282)
(0.003866 0.042810 0.000222)
(0.004460 0.040255 0.000174)
(0.004440 0.033960 0.000134)
(0.004494 0.029265 0.000354)
(0.004756 0.027013 0.000591)
(0.004816 0.024091 0.000591)
(0.004570 0.020634 0.000591)
(0.004826 0.019630 0.000591)
(0.005624 0.020512 0.000591)
(0.005665 0.018610 0.000441)
(0.005722 0.015757 0.000292)
(0.006636 0.012518 0.000295)
(0.006373 0.005392 0.000298)
(0.003970 -0.003345 0.000300)
(0.005067 -0.001074 0.000303)
(0.008410 0.011796 0.000305)
(0.003383 0.011744 0.000307)
(0.000973 -0.002049 0.000310)
(0.013415 -0.002543 0.000312)
(0.027411 0.007137 0.000314)
(0.015164 0.007506 0.000315)
(-0.017159 -0.046199 -0.000201)
(0.008094 0.166273 -0.000201)
(0.005094 0.157153 -0.000201)
(0.003965 0.149183 -0.000201)
(0.005720 0.200128 -0.000201)
(0.007905 0.257484 -0.000201)
(0.009742 0.303794 -0.000201)
(0.012818 0.392517 -0.000201)
(0.018297 0.559959 -0.000201)
(0.023132 0.732472 -0.000160)
(0.024723 0.747648 -0.000118)
(0.037222 1.140663 -0.000118)
(0.174165 4.107397 -0.000118)
(0.292242 7.919617 -0.000118)
(-12.405183 -34.616256 -0.000118)
(148.193072 -294.383479 -0.000118)
(-21.423998 -16.100818 -0.000118)
(-15.923218 -7.481957 -0.000118)
(-18.174293 -33.580103 -0.000118)
(-119.870405 291.193585 -0.000118)
(8.051988 91.703801 -0.000052)
(6.139933 42.123844 0.000015)
(2.408425 17.801275 0.000015)
(0.363268 0.160551 0.000015)
(2.384076 6.783536 0.000015)
(-0.775236 -1.356405 0.000015)
(-0.341352 -1.218318 0.000015)
(-0.500992 -0.485779 0.000015)
(-3.073684 -4.690965 0.000015)
(0.813572 0.689574 0.000015)
(2.071911 2.565643 0.000015)
(1.127948 1.190937 0.000015)
(2.587600 2.514270 0.000015)
(4.356156 3.621519 0.000015)
(9.819996 6.857840 0.000015)
(19.198960 11.617918 0.000015)
(24.203697 12.953772 0.000015)
(22.666332 10.743042 0.000015)
(18.688866 7.540384 0.000015)
(21.719794 6.513491 0.000015)
(42.932626 6.976411 0.000015)
(-32.401075 -11.015280 0.000015)
(-174.594310 -17.851702 0.000015)
(-170.998520 3.827988 0.000015)
(-30.300539 9.651566 0.000015)
(71.382508 -8.619321 0.000015)
(70.999162 -18.683299 0.000015)
(47.989866 -15.012612 0.000015)
(23.726123 -8.768574 0.000015)
(0.427061 -2.710254 0.000015)
(0.737146 -2.643941 0.000015)
(2.403292 -2.668475 0.000015)
(2.719353 -3.468760 0.000015)
(3.511018 -2.256506 0.000015)
(0.132627 0.573204 0.000015)
(0.905452 0.263294 0.000015)
(1.226904 -0.319723 0.000015)
(0.858099 -0.389478 0.000015)
(0.500866 -0.287146 0.000015)
(0.293579 -0.212665 0.000015)
(0.258919 -0.297812 0.000015)
(0.169071 -0.242002 0.000015)
(0.048319 -0.072415 0.000015)
(-0.008515 0.022691 0.000015)
(-0.030430 0.064036 0.000015)
(-0.035489 0.078350 0.000015)
(-0.033335 0.077050 0.000015)
(-0.024197 0.052783 -0.000052)
(-59.812733 0.022103 -0.000118)
(59.799357 0.004516 -0.000118)
(-0.015347 0.022459 -0.000118)
(0.018394 -0.001722 -0.000118)
(0.022873 0.013482 -0.000118)
(-0.038289 0.105808 -0.000118)
(-0.034207 0.089561 -0.000118)
(-0.008632 0.037294 -0.000118)
(-0.005204 0.028698 -0.000118)
(-0.003636 0.009315 -0.000118)
(-0.002823 0.008912 -0.000160)
(-0.002236 0.007543 -0.000201)
(-0.001534 -0.000901 -0.000201)
(-0.001331 0.000157 -0.000201)
(-0.001080 -0.000739 -0.000201)
(-0.000884 -0.001574 -0.000201)
(-0.000519 -0.002599 -0.000201)
(-0.000300 -0.000835 -0.000201)
(-0.000218 0.001469 -0.000201)
(0.000847 -0.008840 -0.000201)
)
;
    }
}
