/*--------------------------------*- C++ -*---------------------------------*\ 
| ========                 |                                                 | 
| \      /  F ield         | OpenFOAM: The Open Source CFD Toolbox           | 
|  \    /   O peration     | Version:  v1812                                 | 
|   \  /    A nd           | Web:      www.OpenFOAM.com                      | 
|    \/     M anipulation  |                                                 | 
\*--------------------------------------------------------------------------*/ 
FoamFile
{
    version     2.0;
    format      ascii;
    class       volVectorField;
    location    "/home/james/dafoam/myRuns/bezier_coanda_opt/0.00000000001/";
    object      sens_CL_shapey;
}
// * * * * * * * * * * * * * * * * * * * * * * * * * * * * * * * * * * * * * //

dimensions      [0 0 0 0 0 0 0];
internalField   uniform (0 0 0);
boundaryField
{
    allWalls
    {
        type  wall;
        value nonuniform List<vector>
188
(
(-0.031415 0.013918 0.000315)
(-0.025413 0.008030 0.000327)
(-0.071779 0.041030 0.000325)
(-0.140877 0.078030 0.000323)
(-0.060842 0.038611 0.000321)
(-0.028728 0.037600 0.000319)
(-0.035339 0.058482 0.000317)
(-0.015284 0.034620 0.000315)
(-0.006140 0.020002 0.000313)
(-0.007371 0.022813 0.000311)
(-0.007914 0.025839 0.000309)
(-0.007052 0.025920 0.000307)
(-0.006635 0.025680 0.000548)
(-0.008054 0.032666 0.000796)
(-0.008739 0.037479 0.000810)
(-0.009305 0.045415 0.000825)
(-0.009538 0.051794 0.000841)
(-0.008306 0.052390 0.000857)
(-0.008104 0.059995 0.001534)
(-0.007381 0.066500 0.002351)
(-0.006524 0.074042 0.002652)
(-0.005581 0.088353 0.002966)
(-0.003998 0.099283 0.003284)
(-0.001620 0.107931 0.003594)
(0.002332 0.153908 0.003479)
(0.007163 0.177245 0.002671)
(0.011826 0.168289 0.001908)
(0.016931 0.176456 0.001495)
(0.021799 0.181741 0.001140)
(0.026528 0.186739 0.000841)
(0.031157 0.192131 0.000596)
(0.035595 0.197111 0.000347)
(0.039629 0.200855 -0.000185)
(0.043309 0.203879 -0.000545)
(0.046623 0.206269 -0.000480)
(0.049702 0.207153 -0.000413)
(0.052294 0.207032 -0.000286)
(0.053942 0.205443 -0.000251)
(0.054862 0.201994 -0.000317)
(0.055254 0.197537 -0.000258)
(0.055111 0.191973 -0.000135)
(0.053688 0.182846 -0.000135)
(0.050832 0.169804 -0.000250)
(0.048933 0.160943 -0.000250)
(0.050559 0.164413 -0.000237)
(0.047726 0.153972 -0.000237)
(0.028391 0.093850 -0.000223)
(0.035609 0.124535 -0.000241)
(0.064794 0.234504 -0.000227)
(-0.010733 -0.105459 -0.000227)
(0.000861 -0.009022 -0.000227)
(-0.000571 0.001062 -0.000227)
(-0.001006 0.000208 -0.000216)
(-0.000619 0.000317 0.000031)
(-0.001410 0.003160 0.000037)
(-0.003171 0.007608 -0.000193)
(-0.005336 0.013799 -0.000193)
(-0.008100 0.021842 -0.000193)
(-0.011395 0.031303 -0.000193)
(-0.014733 0.043083 0.000009)
(-0.015484 0.050927 0.000009)
(-0.015751 0.058830 -0.000193)
(-0.005066 0.031987 0.000005)
(0.010982 -0.026689 0.000203)
(0.010428 -0.041063 0.000174)
(0.000913 -0.011322 0.000179)
(-0.004771 0.013565 0.000219)
(-0.006466 0.025236 0.000228)
(-0.007738 0.037582 0.000328)
(-0.008389 0.048939 0.000459)
(-0.008174 0.057351 0.000531)
(-0.007303 0.063273 0.000602)
(-0.006017 0.068007 0.000675)
(-0.004376 0.072134 0.000750)
(-0.002434 0.073800 0.000770)
(-0.000355 0.077894 0.000765)
(0.001396 0.069494 0.000620)
(0.002396 0.050640 0.000419)
(0.003073 0.043190 0.000338)
(0.003848 0.041592 0.000271)
(0.004377 0.038736 0.000215)
(0.004385 0.032865 0.000168)
(0.004422 0.028359 0.000421)
(0.004642 0.025903 0.000694)
(0.004620 0.022803 0.000693)
(0.004400 0.019528 0.000692)
(0.004668 0.018669 0.000692)
(0.005282 0.018877 0.000692)
(0.005269 0.017169 0.000484)
(0.005031 0.014008 0.000277)
(0.005951 0.011374 0.000280)
(0.005546 0.005024 0.000283)
(0.003423 -0.002757 0.000286)
(0.004483 -0.000775 0.000289)
(0.006344 0.008158 0.000292)
(0.001945 0.002076 0.000294)
(0.007568 -0.012617 0.000296)
(0.036750 -0.002941 0.000299)
(0.067289 0.017086 0.000301)
(0.047119 0.015904 0.000302)
(-0.035236 -0.135251 -0.000227)
(0.020111 0.232117 -0.000227)
(0.011514 0.219041 -0.000227)
(0.005211 0.166859 -0.000227)
(0.006162 0.204049 -0.000227)
(0.008849 0.288096 -0.000227)
(0.010493 0.343598 -0.000227)
(0.013340 0.447155 -0.000227)
(0.018425 0.629392 -0.000227)
(0.021906 0.812550 -0.000182)
(0.023195 0.945988 -0.000136)
(0.031483 1.616219 -0.000136)
(0.158078 4.595626 -0.000136)
(0.171383 7.147668 -0.000136)
(-11.489323 -38.622171 -0.000136)
(181.795033 -321.673684 -0.000136)
(-24.618612 -19.223203 -0.000136)
(-19.763815 -9.180676 -0.000136)
(-18.710700 -34.723270 -0.000136)
(-149.316103 318.645919 -0.000136)
(9.347496 104.445865 -0.000062)
(7.529494 48.282507 0.000012)
(3.000676 20.861188 0.000012)
(0.323504 -0.148434 0.000012)
(2.577678 7.275740 0.000012)
(-1.082676 -1.985291 0.000012)
(-0.514140 -1.726081 0.000012)
(-0.769224 -0.925458 0.000012)
(-4.109447 -6.372223 0.000012)
(0.950894 0.628165 0.000012)
(2.675941 3.226712 0.000012)
(1.685342 1.660349 0.000012)
(3.743568 3.509897 0.000012)
(6.755674 5.470811 0.000012)
(15.340668 10.639076 0.000012)
(25.544113 15.593420 0.000012)
(31.317448 16.709083 0.000012)
(21.306086 10.800462 0.000012)
(15.224251 6.419562 0.000012)
(24.183580 7.737206 0.000012)
(56.493128 9.875360 0.000012)
(-34.678217 -12.307580 0.000012)
(-226.214936 -23.684215 0.000012)
(-233.251463 3.164415 0.000012)
(-53.312807 12.455164 0.000012)
(80.759178 -4.691668 0.000012)
(116.046872 -22.612721 0.000012)
(89.155587 -22.805310 0.000012)
(27.636403 -11.220865 0.000012)
(1.469975 -3.905144 0.000012)
(1.055784 -3.558333 0.000012)
(2.759209 -3.258354 0.000012)
(2.506404 -3.885357 0.000012)
(3.586864 -2.733638 0.000012)
(-0.435102 0.709099 0.000012)
(0.732066 0.409404 0.000012)
(1.304565 -0.289815 0.000012)
(0.948918 -0.391670 0.000012)
(0.548410 -0.280833 0.000012)
(0.307466 -0.198649 0.000012)
(0.278585 -0.314439 0.000012)
(0.176957 -0.246699 0.000012)
(0.050578 -0.077033 0.000012)
(-0.005167 0.017200 0.000012)
(-0.039389 0.092622 0.000012)
(-0.044307 0.107094 0.000012)
(-0.040908 0.099239 0.000012)
(-0.029648 0.067411 -0.000062)
(-59.814114 0.028265 -0.000136)
(59.798188 0.005880 -0.000136)
(-0.019679 0.029477 -0.000136)
(0.025023 -0.000843 -0.000136)
(0.031859 0.016754 -0.000136)
(-0.045186 0.125559 -0.000136)
(-0.039942 0.100072 -0.000136)
(-0.010020 0.037182 -0.000136)
(-0.006431 0.029192 -0.000136)
(-0.004700 0.007451 -0.000136)
(-0.003707 0.008390 -0.000182)
(-0.002871 0.006769 -0.000227)
(-0.001970 -0.003239 -0.000227)
(-0.001712 -0.001090 -0.000227)
(-0.001366 -0.001939 -0.000227)
(-0.001103 -0.002514 -0.000227)
(-0.000723 -0.003248 -0.000227)
(-0.000527 -0.001175 -0.000227)
(-0.000448 0.001241 -0.000227)
(0.000587 -0.008781 -0.000227)
)
;
    }
}
