/*--------------------------------*- C++ -*---------------------------------*\ 
| ========                 |                                                 | 
| \      /  F ield         | OpenFOAM: The Open Source CFD Toolbox           | 
|  \    /   O peration     | Version:  v1812                                 | 
|   \  /    A nd           | Web:      www.OpenFOAM.com                      | 
|    \/     M anipulation  |                                                 | 
\*--------------------------------------------------------------------------*/ 
FoamFile
{
    version     2.0;
    format      ascii;
    class       volVectorField;
    location    "/home/james/dafoam/myRuns/bezier_coanda_opt/0.00000000001/";
    object      sens_CL_shapey;
}
// * * * * * * * * * * * * * * * * * * * * * * * * * * * * * * * * * * * * * //

dimensions      [0 0 0 0 0 0 0];
internalField   uniform (0 0 0);
boundaryField
{
    allWalls
    {
        type  wall;
        value nonuniform List<vector>
188
(
(-0.013558 0.003398 0.000262)
(-0.034436 0.013540 0.000275)
(-0.046298 0.020642 0.000273)
(-0.053891 0.036134 0.000272)
(-0.030733 0.020983 0.000270)
(-0.006230 0.010943 0.000268)
(-0.017845 0.026967 0.000267)
(-0.015657 0.027391 0.000265)
(-0.016218 0.031927 0.000263)
(-0.012510 0.028997 0.000261)
(-0.011963 0.032824 0.000259)
(-0.011419 0.035296 0.000257)
(-0.009904 0.034965 0.000456)
(-0.009504 0.037747 0.000659)
(-0.009199 0.041733 0.000666)
(-0.008589 0.044608 0.000673)
(-0.007823 0.047414 0.000681)
(-0.007139 0.050538 0.000689)
(-0.006416 0.054879 0.001287)
(-0.005758 0.060428 0.001996)
(-0.004776 0.065131 0.002231)
(-0.003904 0.076520 0.002474)
(-0.002545 0.087493 0.002719)
(-0.000456 0.104242 0.002956)
(0.002484 0.124609 0.002712)
(0.006352 0.138385 0.002170)
(0.009700 0.139814 0.001770)
(0.012798 0.138436 0.001436)
(0.016006 0.142456 0.001147)
(0.018943 0.144706 0.000788)
(0.021946 0.148781 0.000482)
(0.024693 0.151883 0.000295)
(0.027236 0.154624 0.000143)
(0.029556 0.156952 -0.000212)
(0.031652 0.158853 -0.000456)
(0.033493 0.160195 -0.000405)
(0.035103 0.161122 -0.000284)
(0.036409 0.161288 -0.000199)
(0.037308 0.160225 -0.000212)
(0.037881 0.158343 -0.000226)
(0.038138 0.155660 -0.000236)
(0.037995 0.151834 -0.000237)
(0.037508 0.147074 -0.000216)
(0.036782 0.141696 -0.000210)
(0.035123 0.132879 -0.000221)
(0.031575 0.117404 -0.000092)
(0.029611 0.108037 -0.000057)
(0.033811 0.123008 -0.000163)
(0.033359 0.122406 -0.000179)
(0.007312 0.000827 -0.000179)
(0.000464 -0.005819 -0.000179)
(-0.000924 0.002266 -0.000179)
(-0.001401 0.002487 -0.000006)
(-0.002010 0.004753 0.000036)
(-0.003573 0.009216 -0.000092)
(-0.005516 0.014616 0.000030)
(-0.007789 0.021275 0.000044)
(-0.010497 0.030947 -0.000051)
(-0.012555 0.040605 -0.000029)
(-0.013078 0.045833 0.000060)
(-0.010545 0.041896 0.000113)
(-0.001774 0.017180 0.000117)
(0.006532 -0.016461 0.000150)
(0.005987 -0.024657 0.000160)
(-0.000207 -0.002766 0.000174)
(-0.004762 0.017951 0.000275)
(-0.006180 0.027477 0.000409)
(-0.007226 0.037477 0.000344)
(-0.007855 0.047220 0.000369)
(-0.007822 0.054826 0.000536)
(-0.007262 0.060555 0.000609)
(-0.006314 0.064849 0.000679)
(-0.005090 0.068508 0.000742)
(-0.003616 0.071760 0.000907)
(-0.001943 0.073688 0.000929)
(-0.000168 0.077626 0.000768)
(0.001249 0.070158 0.000586)
(0.001859 0.048603 0.000415)
(0.002741 0.043616 0.000350)
(0.003574 0.044589 0.000298)
(0.003904 0.038856 0.000256)
(0.004056 0.034164 0.000223)
(0.004056 0.029086 0.000409)
(0.004476 0.027588 0.000610)
(0.004582 0.025067 0.000609)
(0.004728 0.022844 0.000608)
(0.004288 0.019402 0.000608)
(0.004281 0.017491 0.000608)
(0.005806 0.020173 0.000415)
(0.006171 0.017953 0.000224)
(0.006617 0.013749 0.000227)
(0.006779 0.007669 0.000229)
(0.004277 -0.002251 0.000232)
(0.005008 -0.001699 0.000235)
(0.009005 0.011276 0.000237)
(0.005163 0.016807 0.000240)
(-0.001015 0.005326 0.000242)
(0.002450 -0.001945 0.000244)
(0.004872 0.001544 0.000246)
(-0.005964 0.002317 0.000248)
(-0.005473 0.017050 -0.000179)
(0.002706 0.146528 -0.000179)
(0.002161 0.129379 -0.000179)
(0.003595 0.142654 -0.000179)
(0.005856 0.207731 -0.000179)
(0.007759 0.250904 -0.000179)
(0.009695 0.291634 -0.000179)
(0.012908 0.372922 -0.000179)
(0.018709 0.535528 -0.000179)
(0.024327 0.703026 -0.000143)
(0.025851 0.646736 -0.000107)
(0.041088 0.891441 -0.000107)
(0.185462 3.906040 -0.000107)
(0.371284 8.480509 -0.000107)
(-12.943073 -32.286164 -0.000107)
(131.287358 -282.839080 -0.000107)
(-20.071097 -14.442513 -0.000107)
(-14.107556 -6.705410 -0.000107)
(-18.139360 -33.033799 -0.000107)
(-104.813186 279.263086 -0.000107)
(7.362266 85.063596 -0.000046)
(5.344551 39.026392 0.000015)
(2.020796 16.124644 0.000015)
(0.368495 0.342320 0.000015)
(2.312775 6.666953 0.000015)
(-0.668249 -1.198146 0.000015)
(-0.259623 -1.077706 0.000015)
(-0.367689 -0.289474 0.000015)
(-2.508314 -3.788253 0.000015)
(0.864445 0.896802 0.000015)
(1.872147 2.361969 0.000015)
(1.097420 1.208582 0.000015)
(2.340987 2.309997 0.000015)
(3.629142 3.079601 0.000015)
(8.646877 6.049452 0.000015)
(16.272069 9.928320 0.000015)
(21.561081 11.413717 0.000015)
(14.364633 7.217629 0.000015)
(9.914531 4.001790 0.000015)
(29.222331 8.421330 0.000015)
(46.251115 9.167655 0.000015)
(-33.656776 -7.911337 0.000015)
(-159.011935 -14.584758 0.000015)
(-130.265826 -0.449004 0.000015)
(-18.997706 3.744708 0.000015)
(52.858170 -9.073849 0.000015)
(62.651060 -15.878745 0.000015)
(35.474608 -10.739120 0.000015)
(15.935784 -5.237283 0.000015)
(-1.321319 -1.530815 0.000015)
(1.060376 -2.737293 0.000015)
(3.401415 -3.774347 0.000015)
(2.134537 -3.221635 0.000015)
(1.240607 -0.814033 0.000015)
(0.437977 0.493859 0.000015)
(1.327485 -0.091308 0.000015)
(1.125300 -0.304697 0.000015)
(0.698803 -0.292904 0.000015)
(0.404679 -0.219827 0.000015)
(0.309550 -0.268945 0.000015)
(0.236574 -0.264235 0.000015)
(0.077037 -0.071373 0.000015)
(0.007979 0.009106 0.000015)
(-0.012091 0.023606 0.000015)
(-0.026807 0.049878 0.000015)
(-0.030614 0.061110 0.000015)
(-0.024940 0.046622 0.000015)
(-0.016613 0.028391 -0.000046)
(-59.811627 0.012896 -0.000107)
(59.802276 0.002528 -0.000107)
(-0.008429 0.011950 -0.000107)
(0.010730 -0.002792 -0.000107)
(-0.002550 0.027977 -0.000107)
(-0.039813 0.087434 -0.000107)
(-0.024032 0.059940 -0.000107)
(-0.007999 0.025825 -0.000107)
(-0.004970 0.018981 -0.000107)
(-0.003451 0.007974 -0.000107)
(-0.002550 0.006812 -0.000143)
(-0.001980 0.006022 -0.000179)
(-0.001484 0.002394 -0.000179)
(-0.001264 0.002700 -0.000179)
(-0.001058 0.001969 -0.000179)
(-0.000889 0.001128 -0.000179)
(-0.000530 0.000022 -0.000179)
(-0.000242 0.000769 -0.000179)
(-0.000118 0.002037 -0.000179)
(0.000686 -0.006026 -0.000179)
)
;
    }
}
