/*--------------------------------*- C++ -*---------------------------------*\ 
| ========                 |                                                 | 
| \      /  F ield         | OpenFOAM: The Open Source CFD Toolbox           | 
|  \    /   O peration     | Version:  v1812                                 | 
|   \  /    A nd           | Web:      www.OpenFOAM.com                      | 
|    \/     M anipulation  |                                                 | 
\*--------------------------------------------------------------------------*/ 
FoamFile
{
    version     2.0;
    format      ascii;
    class       volVectorField;
    location    "/home/james/dafoam/myRuns/bezier_coanda_opt/0.00000000001/";
    object      sens_CL_shapey;
}
// * * * * * * * * * * * * * * * * * * * * * * * * * * * * * * * * * * * * * //

dimensions      [0 0 0 0 0 0 0];
internalField   uniform (0 0 0);
boundaryField
{
    allWalls
    {
        type  wall;
        value nonuniform List<vector>
188
(
(-0.014238 0.003667 0.000108)
(-0.037058 0.015100 0.000108)
(-0.054666 0.026255 -0.000005)
(-0.047799 0.030704 -0.000005)
(-0.026812 0.021902 0.000108)
(-0.012585 0.020578 0.000108)
(-0.017476 0.029429 0.000108)
(-0.016235 0.030999 0.000108)
(-0.013033 0.029179 0.000302)
(-0.010340 0.027833 0.000543)
(-0.010061 0.031169 0.000578)
(-0.009379 0.033342 0.000624)
(-0.009352 0.036950 0.000827)
(-0.008644 0.038691 0.000981)
(-0.008090 0.041802 0.001065)
(-0.007448 0.044568 0.001229)
(-0.006522 0.045640 0.001421)
(-0.005935 0.049647 0.001721)
(-0.005378 0.054531 0.001950)
(-0.004600 0.058362 0.002208)
(-0.003830 0.064835 0.002595)
(-0.002919 0.073328 0.002872)
(-0.001702 0.086807 0.003013)
(0.000030 0.101348 0.002496)
(0.002438 0.117181 0.001982)
(0.005551 0.134019 0.001922)
(0.008135 0.132640 0.001718)
(0.010656 0.131395 0.001486)
(0.013422 0.137155 0.001279)
(0.015653 0.137660 0.000708)
(0.018016 0.140786 0.000235)
(0.020264 0.143900 0.000235)
(0.022339 0.146516 0.000235)
(0.024263 0.148902 0.000235)
(0.026025 0.150968 0.000235)
(0.027624 0.152762 0.000034)
(0.029376 0.154029 -0.000171)
(0.030899 0.154630 -0.000176)
(0.031829 0.154536 -0.000176)
(0.032520 0.153754 -0.000176)
(0.032903 0.151939 -0.000176)
(0.032945 0.148995 -0.000110)
(0.032772 0.145484 -0.000044)
(0.032509 0.141821 -0.000044)
(0.031579 0.135264 -0.000044)
(0.029090 0.122342 -0.000044)
(0.027290 0.112331 -0.000044)
(0.030085 0.124199 -0.000108)
(0.031411 0.129347 -0.000172)
(0.009408 0.014810 -0.000172)
(0.000003 -0.003164 -0.000172)
(-0.001643 0.004335 -0.000172)
(-0.002193 0.006157 -0.000108)
(-0.003169 0.010034 -0.000044)
(-0.005226 0.015788 -0.000044)
(-0.007500 0.023174 -0.000044)
(-0.009190 0.030060 -0.000044)
(-0.010931 0.038873 -0.000044)
(-0.010579 0.040422 -0.000110)
(-0.005553 0.026988 -0.000176)
(0.001354 0.005817 -0.000176)
(0.005357 -0.013859 -0.000176)
(0.003626 -0.014879 -0.000176)
(-0.001461 0.004888 -0.000176)
(-0.005199 0.022315 0.000030)
(-0.006590 0.030508 0.000235)
(-0.007347 0.038944 0.000235)
(-0.007748 0.046963 0.000235)
(-0.007666 0.053457 0.000235)
(-0.007173 0.058291 0.000235)
(-0.006393 0.062073 0.000446)
(-0.005409 0.064975 0.000682)
(-0.004300 0.067780 0.000732)
(-0.003050 0.069701 0.000784)
(-0.001712 0.069570 0.000819)
(-0.000313 0.075718 0.000804)
(0.000941 0.066732 0.000781)
(0.001678 0.046910 0.000754)
(0.002482 0.046136 0.000542)
(0.002697 0.041020 0.000408)
(0.002928 0.035443 0.000405)
(0.003393 0.034206 0.000310)
(0.003379 0.028422 0.000197)
(0.003711 0.026800 0.000129)
(0.003993 0.025406 0.000096)
(0.003889 0.022205 0.000119)
(0.004041 0.020579 0.000165)
(0.003968 0.018556 0.000137)
(0.004468 0.018143 0.000113)
(0.005717 0.018861 0.000096)
(0.006295 0.015681 0.000081)
(0.006427 0.009401 0.000006)
(0.004642 -0.000750 -0.000242)
(0.004130 -0.003939 -0.000249)
(0.007812 0.007363 0.000016)
(0.006857 0.018698 0.000108)
(0.000339 0.009218 -0.000048)
(0.001820 -0.002407 -0.000048)
(0.005667 0.000683 0.000108)
(-0.005226 0.002629 0.000108)
(-0.003146 0.032790 -0.000172)
(0.003337 0.159828 -0.000172)
(0.002421 0.138242 -0.000172)
(0.004207 0.152671 -0.000172)
(0.006568 0.219119 -0.000172)
(0.008456 0.261759 -0.000172)
(0.010387 0.302153 -0.000172)
(0.013723 0.384902 -0.000172)
(0.019808 0.551855 -0.000172)
(0.025606 0.721467 -0.000139)
(0.026906 0.652568 -0.000105)
(0.042820 0.889460 -0.000105)
(0.191280 3.981819 -0.000105)
(0.389342 8.720163 -0.000105)
(-12.844009 -31.750694 -0.000105)
(138.384058 -287.876466 -0.000105)
(-19.672255 -14.355276 -0.000105)
(-14.224445 -6.770455 -0.000105)
(-18.269605 -32.759430 -0.000105)
(-111.838792 282.878509 -0.000105)
(7.551826 87.639314 -0.000046)
(5.475148 39.995231 0.000013)
(1.940824 16.154691 0.000013)
(0.357728 0.498351 0.000013)
(2.424030 7.182397 0.000013)
(-0.767456 -1.511037 0.000013)
(-0.312294 -1.369352 0.000013)
(-0.380809 -0.347862 0.000013)
(-2.416766 -3.652615 0.000013)
(0.987339 1.100337 0.000013)
(1.879295 2.379835 0.000013)
(1.282953 1.400861 0.000013)
(2.786527 2.708062 0.000013)
(3.548543 3.042422 0.000013)
(8.441788 5.867625 0.000013)
(16.081434 9.842912 0.000013)
(23.369662 12.186599 0.000013)
(8.729337 4.986821 0.000013)
(3.977703 1.457651 0.000013)
(39.356468 11.231440 0.000013)
(51.642030 10.866899 0.000013)
(-54.050693 -9.916404 0.000013)
(-189.609158 -17.513165 0.000013)
(-110.186796 -1.052958 0.000013)
(13.511017 3.419508 0.000013)
(56.078261 -9.597523 0.000013)
(62.619712 -14.512269 0.000013)
(28.740449 -8.714397 0.000013)
(13.385681 -4.107802 0.000013)
(0.507728 -1.588234 0.000013)
(1.189077 -2.239775 0.000013)
(3.733074 -4.052117 0.000013)
(1.841567 -2.906095 0.000013)
(-0.951163 0.030237 0.000013)
(0.229616 0.028284 0.000013)
(1.032477 -0.378778 0.000013)
(0.727450 -0.291059 0.000013)
(0.449131 -0.251696 0.000013)
(0.298507 -0.242579 0.000013)
(0.200796 -0.213701 0.000013)
(0.103193 -0.133872 0.000013)
(0.023814 -0.042816 0.000013)
(-0.011933 0.002948 0.000013)
(-0.027548 0.029857 0.000013)
(-0.032058 0.045273 0.000013)
(-0.028918 0.046779 0.000013)
(-0.021900 0.035560 0.000013)
(-0.014044 0.021093 -0.000046)
(-59.811972 0.009806 -0.000105)
(59.804131 0.002065 -0.000105)
(-0.005094 0.007533 -0.000105)
(0.006139 -0.001199 -0.000105)
(-0.009984 0.033177 -0.000105)
(-0.031331 0.075833 -0.000105)
(-0.013405 0.046960 -0.000105)
(-0.004263 0.021579 -0.000105)
(-0.002882 0.015921 -0.000105)
(-0.002077 0.010024 -0.000105)
(-0.001405 0.009065 -0.000139)
(-0.000973 0.007221 -0.000172)
(-0.000856 0.005999 -0.000172)
(-0.000837 0.006608 -0.000172)
(-0.000764 0.005453 -0.000172)
(-0.000713 0.004511 -0.000172)
(-0.000411 0.003295 -0.000172)
(-0.000096 0.003110 -0.000172)
(0.000050 0.003714 -0.000172)
(0.000657 -0.003225 -0.000172)
)
;
    }
}
