/*--------------------------------*- C++ -*---------------------------------*\ 
| ========                 |                                                 | 
| \      /  F ield         | OpenFOAM: The Open Source CFD Toolbox           | 
|  \    /   O peration     | Version:  v1812                                 | 
|   \  /    A nd           | Web:      www.OpenFOAM.com                      | 
|    \/     M anipulation  |                                                 | 
\*--------------------------------------------------------------------------*/ 
FoamFile
{
    version     2.0;
    format      ascii;
    class       volVectorField;
    location    "/home/james/dafoam/myRuns/bezier_coanda_opt/0.00000000001/";
    object      sens_CL_shapey;
}
// * * * * * * * * * * * * * * * * * * * * * * * * * * * * * * * * * * * * * //

dimensions      [0 0 0 0 0 0 0];
internalField   uniform (0 0 0);
boundaryField
{
    allWalls
    {
        type  wall;
        value nonuniform List<vector>
188
(
(-0.031437 0.015470 0.000327)
(-0.023336 0.008012 0.000338)
(-0.075532 0.044349 0.000337)
(-0.140131 0.077385 0.000335)
(-0.104216 0.077359 0.000334)
(-0.061968 0.062269 0.000333)
(0.002984 0.014673 0.000331)
(-0.006936 0.027641 0.000330)
(-0.012421 0.030895 0.000328)
(-0.004422 0.018443 0.000327)
(-0.008641 0.028101 0.000326)
(-0.006650 0.025527 0.000325)
(-0.005848 0.023671 0.000575)
(-0.007439 0.030621 0.000834)
(-0.008673 0.036757 0.000849)
(-0.009541 0.045675 0.000866)
(-0.010009 0.052919 0.000884)
(-0.008692 0.053171 0.000902)
(-0.008559 0.061202 0.001600)
(-0.007888 0.068319 0.002443)
(-0.007046 0.076528 0.002762)
(-0.006300 0.095053 0.003093)
(-0.004173 0.090657 0.003429)
(-0.001419 0.113618 0.003756)
(0.002149 0.168865 0.003954)
(0.007509 0.178656 0.003139)
(0.012842 0.178763 0.002068)
(0.018297 0.185816 0.001658)
(0.023808 0.192852 0.001301)
(0.029017 0.198130 0.000998)
(0.034090 0.203506 0.000117)
(0.039184 0.209823 -0.000119)
(0.043698 0.213839 -0.000088)
(0.047761 0.216817 -0.000542)
(0.051432 0.219231 -0.000321)
(0.054583 0.220167 -0.000268)
(0.057130 0.219819 -0.000333)
(0.058834 0.217588 -0.000251)
(0.059701 0.213268 -0.000251)
(0.059967 0.207825 -0.000251)
(0.059610 0.201177 -0.000251)
(0.057736 0.190429 -0.000251)
(0.054172 0.175248 -0.000332)
(0.051859 0.165278 -0.000332)
(0.053948 0.170200 -0.000331)
(0.050724 0.159287 -0.000409)
(0.027779 0.091706 -0.000404)
(0.035656 0.124913 -0.000320)
(0.069985 0.249464 -0.000239)
(-0.014680 -0.124712 -0.000239)
(0.000981 -0.009408 -0.000239)
(-0.000388 0.000711 -0.000239)
(-0.000763 -0.000449 -0.000356)
(-0.000369 -0.000860 -0.000139)
(-0.001153 0.001643 -0.000032)
(-0.002756 0.005564 -0.000254)
(-0.004601 0.010619 -0.000251)
(-0.007114 0.017837 -0.000213)
(-0.010824 0.028293 -0.000213)
(-0.013899 0.038290 -0.000037)
(-0.016627 0.051801 -0.000037)
(-0.016045 0.055858 -0.000251)
(-0.005696 0.029593 -0.000025)
(0.006528 -0.010132 0.000208)
(0.008746 -0.029611 0.000255)
(0.002230 -0.013982 0.000275)
(-0.003740 0.009692 0.000268)
(-0.006172 0.023926 0.000293)
(-0.007662 0.037188 0.000319)
(-0.008361 0.048758 0.000431)
(-0.008158 0.057346 0.000564)
(-0.007273 0.063418 0.000632)
(-0.005948 0.068196 0.000700)
(-0.004249 0.072205 0.000766)
(-0.002246 0.073706 0.000808)
(-0.000096 0.077791 0.000784)
(0.001567 0.069197 0.000611)
(0.002470 0.050685 0.000424)
(0.003123 0.043023 0.000338)
(0.003891 0.041123 0.000267)
(0.004390 0.038155 0.000208)
(0.004429 0.032521 0.000159)
(0.004425 0.027971 0.000428)
(0.004649 0.025465 0.000718)
(0.004601 0.022411 0.000717)
(0.004276 0.018746 0.000717)
(0.004813 0.018779 0.000718)
(0.005134 0.018104 0.000718)
(0.005037 0.016221 0.000505)
(0.004861 0.013370 0.000292)
(0.005698 0.010427 0.000295)
(0.005153 0.004482 0.000297)
(0.003222 -0.002396 0.000300)
(0.004351 -0.000298 0.000302)
(0.005301 0.006664 0.000305)
(0.001314 -0.001851 0.000307)
(0.010487 -0.015955 0.000309)
(0.044786 -0.001938 0.000311)
(0.079495 0.020678 0.000313)
(0.057190 0.018372 0.000315)
(-0.040475 -0.160599 -0.000239)
(0.024093 0.241750 -0.000239)
(0.013726 0.233588 -0.000239)
(0.005953 0.179628 -0.000239)
(0.006553 0.203044 -0.000239)
(0.009157 0.291326 -0.000239)
(0.010873 0.355437 -0.000239)
(0.013667 0.462479 -0.000239)
(0.018680 0.651020 -0.000239)
(0.021691 0.839126 -0.000191)
(0.022815 1.013603 -0.000143)
(0.029617 1.773917 -0.000143)
(0.152645 4.764297 -0.000143)
(0.135756 6.960661 -0.000143)
(-11.161087 -38.985704 -0.000143)
(210.526142 -342.461885 -0.000143)
(-24.525577 -20.168876 -0.000143)
(-20.879659 -9.740267 -0.000143)
(-18.936818 -34.242492 -0.000143)
(-176.892941 336.425509 -0.000143)
(10.148962 115.346425 -0.000066)
(8.442188 52.762548 0.000012)
(3.334904 22.760139 0.000012)
(0.284390 -0.400693 0.000012)
(2.790443 7.850038 0.000012)
(-1.184110 -2.158327 0.000012)
(-0.662935 -2.101333 0.000012)
(-0.861089 -1.097095 0.000012)
(-4.477764 -6.948187 0.000012)
(0.908954 0.515116 0.000012)
(2.696527 3.257786 0.000012)
(1.563060 1.514449 0.000012)
(3.475358 3.280533 0.000012)
(5.670351 4.653406 0.000012)
(13.897470 9.668555 0.000012)
(27.924080 16.861323 0.000012)
(35.999355 19.084341 0.000012)
(15.755153 8.764172 0.000012)
(-0.705905 0.792789 0.000012)
(31.508577 8.934524 0.000012)
(64.690015 12.992228 0.000012)
(-13.938464 -7.998611 0.000012)
(-202.609635 -20.585873 0.000012)
(-273.995491 0.306478 0.000012)
(-91.071623 13.462931 0.000012)
(76.186807 0.000257 0.000012)
(126.916688 -22.406600 0.000012)
(101.975995 -25.295187 0.000012)
(36.052394 -12.842065 0.000012)
(11.300852 -5.748919 0.000012)
(1.271778 -4.262928 0.000012)
(2.168332 -4.032380 0.000012)
(2.167174 -4.335304 0.000012)
(2.759093 -3.392660 0.000012)
(-1.345677 0.504646 0.000012)
(0.193713 0.361885 0.000012)
(1.139822 -0.322054 0.000012)
(0.891399 -0.401891 0.000012)
(0.525583 -0.294293 0.000012)
(0.275853 -0.193097 0.000012)
(0.262000 -0.324389 0.000012)
(0.178951 -0.276752 0.000012)
(0.048115 -0.091311 0.000012)
(-0.008006 0.008488 0.000012)
(-0.041479 0.086810 0.000012)
(-0.048370 0.114128 0.000012)
(-0.047731 0.116152 0.000012)
(-0.036342 0.080464 -0.000066)
(-59.816606 0.033464 -0.000143)
(59.796432 0.006853 -0.000143)
(-0.024512 0.036211 -0.000143)
(0.027952 0.002001 -0.000143)
(0.048326 -0.005413 -0.000143)
(-0.044510 0.120454 -0.000143)
(-0.048995 0.114530 -0.000143)
(-0.010734 0.040948 -0.000143)
(-0.006421 0.033801 -0.000143)
(-0.004436 0.008666 -0.000143)
(-0.003346 0.009805 -0.000191)
(-0.002427 0.006830 -0.000239)
(-0.001581 -0.004637 -0.000239)
(-0.001464 -0.001566 -0.000239)
(-0.001160 -0.002779 -0.000239)
(-0.000944 -0.003319 -0.000239)
(-0.000628 -0.004001 -0.000239)
(-0.000492 -0.001725 -0.000239)
(-0.000419 0.000769 -0.000239)
(0.000634 -0.009245 -0.000239)
)
;
    }
}
