/*--------------------------------*- C++ -*---------------------------------*\ 
| ========                 |                                                 | 
| \      /  F ield         | OpenFOAM: The Open Source CFD Toolbox           | 
|  \    /   O peration     | Version:  v1812                                 | 
|   \  /    A nd           | Web:      www.OpenFOAM.com                      | 
|    \/     M anipulation  |                                                 | 
\*--------------------------------------------------------------------------*/ 
FoamFile
{
    version     2.0;
    format      ascii;
    class       volVectorField;
    location    "/home/james/dafoam/myRuns/bezier_coanda_opt/0.00000000001/";
    object      sens_CL_shapey;
}
// * * * * * * * * * * * * * * * * * * * * * * * * * * * * * * * * * * * * * //

dimensions      [0 0 0 0 0 0 0];
internalField   uniform (0 0 0);
boundaryField
{
    allWalls
    {
        type  wall;
        value nonuniform List<vector>
188
(
(0.002834 0.003722 0.000124)
(-0.032041 0.014928 0.000049)
(-0.075565 0.038184 0.000049)
(-0.070233 0.039874 0.000124)
(-0.040682 0.037470 0.000124)
(-0.019936 0.032153 0.000124)
(-0.011757 0.027881 0.000156)
(-0.012433 0.026437 0.000156)
(-0.007766 0.023593 0.000297)
(-0.007743 0.024036 0.000517)
(-0.007211 0.025025 0.000617)
(-0.009364 0.036036 0.000728)
(-0.008442 0.037401 0.000850)
(-0.007711 0.039407 0.000938)
(-0.007212 0.042188 0.001042)
(-0.006262 0.042681 0.001209)
(-0.005708 0.046065 0.001393)
(-0.005228 0.050122 0.001594)
(-0.004648 0.053821 0.001826)
(-0.004115 0.058809 0.002083)
(-0.003549 0.065594 0.002350)
(-0.002855 0.074842 0.002582)
(-0.001648 0.080222 0.002888)
(-0.000279 0.085708 0.002498)
(0.001205 0.111801 0.001925)
(0.003171 0.129078 0.001878)
(0.005363 0.126191 0.001688)
(0.007654 0.128236 0.001465)
(0.010032 0.131151 0.001263)
(0.012182 0.131328 0.000695)
(0.016921 0.155443 0.000222)
(0.020970 0.172991 0.000222)
(0.021548 0.158326 0.000222)
(0.023149 0.153093 0.000222)
(0.025814 0.156836 0.000222)
(0.028430 0.160817 0.000023)
(0.031172 0.163719 -0.000172)
(0.033653 0.165664 -0.000169)
(0.035372 0.166175 -0.000169)
(0.036685 0.165349 -0.000169)
(0.037525 0.163006 -0.000169)
(0.037889 0.159272 -0.000099)
(0.037962 0.154947 -0.000030)
(0.037749 0.149943 -0.000030)
(0.036396 0.140751 -0.000030)
(0.032742 0.123489 -0.000030)
(0.031097 0.114382 -0.000030)
(0.037190 0.137158 -0.000101)
(0.037958 0.142489 -0.000172)
(0.004819 -0.015962 -0.000172)
(-0.001810 0.004890 -0.000172)
(-0.004577 0.012691 -0.000172)
(-0.005833 0.018298 -0.000101)
(-0.007896 0.026177 -0.000030)
(-0.010271 0.036318 -0.000030)
(-0.009127 0.035480 -0.000030)
(-0.006128 0.028970 -0.000030)
(0.000017 0.012227 -0.000030)
(0.006204 -0.016512 -0.000099)
(0.005377 -0.020752 -0.000169)
(0.000274 0.000942 -0.000169)
(-0.003030 0.015367 -0.000169)
(-0.003354 0.018382 -0.000169)
(-0.004007 0.024784 -0.000169)
(-0.005250 0.033921 0.000027)
(-0.006031 0.041227 0.000222)
(-0.006071 0.046546 0.000222)
(-0.005919 0.050909 0.000222)
(-0.005633 0.054551 0.000222)
(-0.005224 0.057347 0.000222)
(-0.004734 0.059699 0.000432)
(-0.004168 0.061281 0.000675)
(-0.003610 0.063846 0.000741)
(-0.002882 0.062557 0.000811)
(-0.002326 0.071400 0.000862)
(-0.001578 0.069668 0.000851)
(-0.000400 0.053415 0.000864)
(0.000433 0.049664 0.000841)
(0.000989 0.045192 0.000652)
(0.001475 0.041249 0.000465)
(0.001831 0.036862 0.000362)
(0.002125 0.032417 0.000284)
(0.002663 0.031494 0.000274)
(0.002692 0.026301 0.000270)
(0.002824 0.022803 0.000152)
(0.003731 0.025954 0.000043)
(0.003470 0.022203 0.000009)
(0.003364 0.017944 -0.000019)
(0.003669 0.016994 0.000029)
(0.004818 0.017413 0.000081)
(0.006346 0.017265 0.000064)
(0.006417 0.010600 0.000011)
(0.004812 -0.000006 0.000045)
(0.004127 -0.004279 0.000124)
(0.007677 0.006976 0.000032)
(0.006671 0.018005 0.000032)
(0.000702 0.007250 0.000124)
(0.001575 -0.004818 0.000024)
(0.008778 -0.000396 0.000024)
(0.013385 0.003318 0.000124)
(-0.008254 0.003212 -0.000172)
(0.005735 0.171951 -0.000172)
(0.003480 0.145242 -0.000172)
(0.003975 0.147048 -0.000172)
(0.006354 0.214068 -0.000172)
(0.008449 0.261948 -0.000172)
(0.010427 0.304618 -0.000172)
(0.013764 0.389518 -0.000172)
(0.019756 0.556365 -0.000172)
(0.025362 0.726342 -0.000138)
(0.026680 0.678503 -0.000105)
(0.042067 0.959417 -0.000105)
(0.187564 4.023477 -0.000105)
(0.368091 8.498404 -0.000105)
(-12.424446 -32.561766 -0.000105)
(140.008465 -290.392402 -0.000105)
(-20.783692 -14.991877 -0.000105)
(-15.217925 -7.214112 -0.000105)
(-18.287031 -33.077019 -0.000105)
(-112.506829 286.301906 -0.000105)
(7.643813 88.090555 -0.000045)
(5.610896 40.429682 0.000014)
(2.028983 16.512817 0.000014)
(0.328948 0.361141 0.000014)
(2.376783 7.011579 0.000014)
(-0.831709 -1.632881 0.000014)
(-0.337340 -1.424239 0.000014)
(-0.483817 -0.512236 0.000014)
(-2.632793 -4.000349 0.000014)
(1.062629 1.164191 0.000014)
(2.116338 2.652747 0.000014)
(1.604614 1.713197 0.000014)
(3.437780 3.276938 0.000014)
(4.888052 4.110927 0.000014)
(11.660249 8.090770 0.000014)
(18.122673 11.280856 0.000014)
(25.609407 13.295361 0.000014)
(2.095590 2.499338 0.000014)
(-4.556655 -1.851719 0.000014)
(41.306883 12.146648 0.000014)
(50.970997 11.355094 0.000014)
(-58.692285 -9.889251 0.000014)
(-189.907078 -16.585675 0.000014)
(-110.129911 -0.949059 0.000014)
(12.665862 2.381583 0.000014)
(59.706811 -10.426267 0.000014)
(65.634069 -15.290517 0.000014)
(30.177689 -9.121295 0.000014)
(13.924471 -4.274110 0.000014)
(0.351717 -1.630667 0.000014)
(1.226387 -2.284992 0.000014)
(3.988354 -4.207887 0.000014)
(1.953361 -3.000886 0.000014)
(-0.982154 0.059323 0.000014)
(0.264376 0.039753 0.000014)
(1.042020 -0.347384 0.000014)
(0.717270 -0.255252 0.000014)
(0.439969 -0.220356 0.000014)
(0.295142 -0.211137 0.000014)
(0.177975 -0.148646 0.000014)
(0.078097 -0.063504 0.000014)
(0.022148 -0.009843 0.000014)
(-0.005749 0.021338 0.000014)
(-0.017043 0.036878 0.000014)
(-0.019366 0.042125 0.000014)
(-0.017097 0.038707 0.000014)
(-0.012396 0.027034 0.000014)
(-0.007456 0.016526 -0.000045)
(-59.812398 0.008511 -0.000105)
(59.808565 0.001777 -0.000105)
(-0.003836 0.006999 -0.000105)
(0.006566 -0.000456 -0.000105)
(-0.000037 0.017452 -0.000105)
(-0.017767 0.048308 -0.000105)
(-0.010168 0.033994 -0.000105)
(-0.004375 0.018151 -0.000105)
(-0.003195 0.015976 -0.000105)
(-0.002287 0.013733 -0.000105)
(-0.001594 0.013116 -0.000138)
(-0.001194 0.012514 -0.000172)
(-0.001069 0.011732 -0.000172)
(-0.001013 0.011288 -0.000172)
(-0.000943 0.010732 -0.000172)
(-0.000910 0.009929 -0.000172)
(-0.000694 0.009532 -0.000172)
(-0.000365 0.009339 -0.000172)
(-0.000064 0.009538 -0.000172)
(0.000117 0.005050 -0.000172)
)
;
    }
}
