/*--------------------------------*- C++ -*----------------------------------*\
  =========                 |
  \\      /  F ield         | OpenFOAM: The Open Source CFD Toolbox
   \\    /   O peration     | Website:  https://openfoam.org
    \\  /    A nd           | Version:  8
     \\/     M anipulation  |
\*---------------------------------------------------------------------------*/
FoamFile
{
    version     2.0;
    format      ascii;
    class       volScalarField;
    location    "1.1";
    object      p;
}
// * * * * * * * * * * * * * * * * * * * * * * * * * * * * * * * * * * * * * //

dimensions      [0 2 -2 0 0 0 0];

internalField   nonuniform List<scalar> 
262620
(
0.24759
0.247521
0.247301
0.246968
0.246534
0.245999
0.245368
0.244648
0.243844
0.242962
0.242006
0.240983
0.239895
0.238749
0.237548
0.236296
0.234998
0.233657
0.232277
0.230862
0.229414
0.227938
0.226435
0.22491
0.223364
0.2218
0.220221
0.21863
0.217028
0.215417
0.213799
0.212177
0.210552
0.208926
0.207299
0.205675
0.204054
0.202437
0.200825
0.19922
0.197623
0.196035
0.194456
0.192888
0.19133
0.189785
0.188252
0.186733
0.185227
0.183735
0.182258
0.180797
0.17935
0.177919
0.176505
0.175106
0.173725
0.17236
0.171012
0.169681
0.168367
0.16707
0.165791
0.164529
0.163284
0.162057
0.160847
0.159655
0.158479
0.157322
0.156181
0.155057
0.153951
0.152861
0.151788
0.150732
0.149693
0.14867
0.147663
0.146672
0.145697
0.144739
0.143795
0.142868
0.141956
0.141058
0.140176
0.139309
0.138457
0.137618
0.136795
0.135985
0.135189
0.134407
0.133638
0.132883
0.132141
0.131413
0.130697
0.129993
0.129302
0.128624
0.127957
0.127303
0.12666
0.126029
0.125409
0.1248
0.124203
0.123616
0.12304
0.122475
0.12192
0.121376
0.120841
0.120317
0.119802
0.119297
0.118802
0.118314
0.247633
0.247564
0.247345
0.247014
0.24658
0.246045
0.245414
0.244694
0.243891
0.243009
0.242054
0.241031
0.239944
0.238797
0.237596
0.236345
0.235047
0.233706
0.232326
0.23091
0.229463
0.227986
0.226483
0.224958
0.223412
0.221848
0.220269
0.218677
0.217074
0.215463
0.213845
0.212223
0.210597
0.20897
0.207344
0.205719
0.204097
0.202479
0.200867
0.199262
0.197664
0.196075
0.194496
0.192927
0.191369
0.189823
0.18829
0.18677
0.185263
0.183771
0.182293
0.180831
0.179384
0.177952
0.176537
0.175138
0.173755
0.17239
0.171041
0.169709
0.168395
0.167097
0.165817
0.164554
0.163309
0.162081
0.160871
0.159678
0.158502
0.157343
0.156202
0.155078
0.15397
0.15288
0.151807
0.15075
0.14971
0.148686
0.147678
0.146687
0.145712
0.144752
0.143809
0.14288
0.141967
0.14107
0.140187
0.139319
0.138466
0.137627
0.136803
0.135992
0.135196
0.134413
0.133644
0.132889
0.132146
0.131417
0.1307
0.129996
0.129305
0.128626
0.127959
0.127304
0.12666
0.126029
0.125408
0.124799
0.124201
0.123614
0.123038
0.122473
0.121917
0.121372
0.120838
0.120313
0.119798
0.119292
0.118797
0.118309
0.24771
0.24764
0.247424
0.247093
0.24666
0.246126
0.245496
0.244777
0.243974
0.243093
0.242138
0.241115
0.240028
0.238882
0.237681
0.23643
0.235132
0.233791
0.232411
0.230995
0.229547
0.22807
0.226567
0.225041
0.223495
0.22193
0.220351
0.218758
0.217155
0.215543
0.213924
0.212301
0.210675
0.209047
0.207419
0.205793
0.204171
0.202552
0.200939
0.199333
0.197734
0.196144
0.194563
0.192993
0.191434
0.189887
0.188352
0.186831
0.185323
0.18383
0.182351
0.180887
0.179439
0.178006
0.17659
0.175189
0.173806
0.172439
0.171089
0.169756
0.16844
0.167141
0.16586
0.164596
0.163349
0.16212
0.160909
0.159714
0.158537
0.157378
0.156235
0.15511
0.154001
0.15291
0.151835
0.150777
0.149736
0.148711
0.147703
0.14671
0.145734
0.144773
0.143829
0.142899
0.141985
0.141087
0.140203
0.139334
0.13848
0.13764
0.136815
0.136004
0.135207
0.134423
0.133653
0.132897
0.132153
0.131423
0.130706
0.130001
0.129309
0.128629
0.127961
0.127305
0.126661
0.126029
0.125408
0.124798
0.1242
0.123612
0.123035
0.122469
0.121913
0.121368
0.120832
0.120307
0.119791
0.119285
0.118789
0.1183
0.247823
0.247755
0.24754
0.247211
0.246779
0.246246
0.245618
0.2449
0.244098
0.243218
0.242264
0.241241
0.240155
0.239009
0.237809
0.236557
0.235259
0.233918
0.232538
0.231122
0.229674
0.228197
0.226693
0.225166
0.223619
0.222054
0.220474
0.218881
0.217276
0.215663
0.214044
0.212419
0.210792
0.209163
0.207534
0.205906
0.204282
0.202662
0.201048
0.19944
0.197839
0.196248
0.194666
0.193094
0.191533
0.189984
0.188448
0.186925
0.185415
0.18392
0.18244
0.180974
0.179524
0.178089
0.176671
0.175269
0.173883
0.172514
0.171163
0.169828
0.16851
0.16721
0.165926
0.164661
0.163412
0.162181
0.160968
0.159772
0.158593
0.157432
0.156287
0.15516
0.15405
0.152957
0.151881
0.150821
0.149778
0.148751
0.147741
0.146747
0.145769
0.144807
0.143861
0.14293
0.142014
0.141114
0.140229
0.139359
0.138503
0.137662
0.136835
0.136022
0.135224
0.134439
0.133668
0.13291
0.132165
0.131434
0.130715
0.130009
0.129315
0.128634
0.127965
0.127308
0.126663
0.126029
0.125407
0.124797
0.124197
0.123608
0.12303
0.122463
0.121906
0.121359
0.120823
0.120297
0.11978
0.119273
0.118776
0.118287
0.247972
0.247907
0.247694
0.247367
0.246937
0.246406
0.245779
0.245063
0.244262
0.243383
0.24243
0.241408
0.240322
0.239177
0.237977
0.236726
0.235428
0.234087
0.232706
0.23129
0.229842
0.228364
0.226859
0.225332
0.223784
0.222218
0.220637
0.219042
0.217436
0.215822
0.214201
0.212575
0.210946
0.209315
0.207684
0.206055
0.204429
0.202807
0.201191
0.199581
0.197978
0.196385
0.1948
0.193226
0.191663
0.190112
0.188574
0.187048
0.185536
0.184039
0.182556
0.181088
0.179635
0.178198
0.176777
0.175373
0.173985
0.172613
0.171259
0.169922
0.168602
0.167299
0.166013
0.164745
0.163494
0.162261
0.161045
0.159847
0.158665
0.157502
0.156355
0.155225
0.154113
0.153018
0.151939
0.150877
0.149832
0.148803
0.147791
0.146795
0.145815
0.14485
0.143902
0.142969
0.142052
0.141149
0.140262
0.13939
0.138532
0.137689
0.136861
0.136046
0.135246
0.134459
0.133686
0.132926
0.13218
0.131447
0.130726
0.130019
0.129324
0.128641
0.12797
0.127312
0.126665
0.12603
0.125406
0.124794
0.124193
0.123603
0.123024
0.122455
0.121897
0.121349
0.120811
0.120284
0.119766
0.119258
0.11876
0.118269
0.248158
0.248095
0.247885
0.24756
0.247133
0.246604
0.245979
0.245264
0.244465
0.243587
0.242635
0.241614
0.240529
0.239385
0.238185
0.236934
0.235636
0.234295
0.232915
0.231498
0.230049
0.22857
0.227065
0.225537
0.223988
0.222421
0.220838
0.219242
0.217635
0.216019
0.214396
0.212768
0.211137
0.209504
0.207871
0.20624
0.204611
0.202987
0.201368
0.199755
0.19815
0.196554
0.194967
0.19339
0.191825
0.190271
0.188729
0.187201
0.185686
0.184185
0.182699
0.181228
0.179773
0.178333
0.176909
0.175502
0.174111
0.172736
0.171379
0.170039
0.168715
0.16741
0.166121
0.16485
0.163596
0.16236
0.161141
0.15994
0.158755
0.157589
0.156439
0.155307
0.154192
0.153093
0.152012
0.150947
0.149899
0.148868
0.147853
0.146854
0.145871
0.144905
0.143953
0.143018
0.142098
0.141193
0.140304
0.139429
0.138569
0.137724
0.136893
0.136076
0.135273
0.134484
0.133709
0.132947
0.132199
0.131463
0.130741
0.130031
0.129334
0.128649
0.127977
0.127316
0.126668
0.126031
0.125405
0.124791
0.124188
0.123596
0.123015
0.122445
0.121885
0.121336
0.120796
0.120267
0.119748
0.119238
0.118739
0.118247
0.248378
0.248319
0.248112
0.24779
0.247365
0.246839
0.246216
0.245503
0.244706
0.243829
0.242879
0.241859
0.240775
0.239631
0.238432
0.237182
0.235884
0.234543
0.233162
0.231745
0.230295
0.228816
0.22731
0.22578
0.22423
0.222661
0.221077
0.219479
0.21787
0.216252
0.214627
0.212997
0.211363
0.209728
0.208093
0.206459
0.204828
0.2032
0.201578
0.199963
0.198355
0.196755
0.195165
0.193585
0.192016
0.190459
0.188914
0.187382
0.185864
0.18436
0.18287
0.181396
0.179937
0.178493
0.177066
0.175655
0.17426
0.172882
0.171521
0.170177
0.16885
0.167541
0.166249
0.164974
0.163717
0.162477
0.161255
0.16005
0.158862
0.157692
0.156539
0.155403
0.154285
0.153183
0.152098
0.15103
0.149979
0.148945
0.147926
0.146924
0.145938
0.144969
0.144014
0.143076
0.142153
0.141245
0.140353
0.139475
0.138612
0.137764
0.13693
0.136111
0.135305
0.134514
0.133736
0.132971
0.13222
0.131482
0.130758
0.130045
0.129346
0.128659
0.127984
0.127321
0.12667
0.126031
0.125403
0.124787
0.124182
0.123588
0.123005
0.122433
0.121871
0.12132
0.120778
0.120247
0.119726
0.119215
0.118713
0.11822
0.248632
0.248577
0.248373
0.248055
0.247633
0.24711
0.24649
0.245779
0.244984
0.24411
0.243161
0.242142
0.241059
0.239916
0.238718
0.237468
0.23617
0.234829
0.233448
0.23203
0.23058
0.229099
0.227592
0.226062
0.22451
0.222939
0.221353
0.219753
0.218142
0.216522
0.214894
0.213262
0.211625
0.209987
0.208349
0.206712
0.205078
0.203447
0.201822
0.200203
0.198591
0.196988
0.195394
0.19381
0.192238
0.190677
0.189128
0.187592
0.18607
0.184562
0.183068
0.181589
0.180126
0.178678
0.177247
0.175832
0.174433
0.173051
0.171686
0.170338
0.169007
0.167693
0.166397
0.165118
0.163857
0.162613
0.161386
0.160177
0.158986
0.157811
0.156654
0.155515
0.154392
0.153287
0.152198
0.151127
0.150072
0.149033
0.148011
0.147006
0.146016
0.145043
0.144085
0.143143
0.142216
0.141305
0.140409
0.139528
0.138662
0.137811
0.136974
0.136151
0.135343
0.134548
0.133767
0.133
0.132246
0.131505
0.130777
0.130062
0.12936
0.12867
0.127992
0.127327
0.126673
0.126031
0.125401
0.124783
0.124175
0.123579
0.122993
0.122418
0.121854
0.121301
0.120757
0.120224
0.1197
0.119187
0.118684
0.118189
0.248919
0.248869
0.24867
0.248355
0.247937
0.247417
0.246799
0.246092
0.245299
0.244427
0.24348
0.242463
0.241381
0.240239
0.239041
0.237791
0.236494
0.235153
0.233771
0.232353
0.230902
0.229421
0.227912
0.22638
0.224826
0.223254
0.221666
0.220064
0.21845
0.216828
0.215197
0.213562
0.211922
0.210281
0.208639
0.206999
0.205361
0.203726
0.202097
0.200474
0.198859
0.197252
0.195653
0.194066
0.192488
0.190923
0.18937
0.187829
0.186303
0.18479
0.183292
0.181809
0.180341
0.178888
0.177452
0.176032
0.174628
0.173242
0.171872
0.170519
0.169183
0.167865
0.166564
0.165281
0.164015
0.162766
0.161535
0.160321
0.159125
0.157947
0.156785
0.155641
0.154514
0.153404
0.152311
0.151235
0.150176
0.149133
0.148107
0.147097
0.146104
0.145126
0.144165
0.143219
0.142288
0.141373
0.140473
0.139589
0.138719
0.137864
0.137023
0.136197
0.135385
0.134586
0.133802
0.133031
0.132274
0.13153
0.130799
0.13008
0.129375
0.128682
0.128001
0.127333
0.126676
0.126032
0.125399
0.124777
0.124167
0.123568
0.122979
0.122402
0.121835
0.121279
0.120733
0.120197
0.119671
0.119155
0.11865
0.118153
0.249239
0.249195
0.249
0.248689
0.248275
0.247759
0.247145
0.24644
0.24565
0.24478
0.243835
0.24282
0.24174
0.240599
0.239401
0.238152
0.236855
0.235514
0.234132
0.232713
0.231261
0.229779
0.228269
0.226735
0.22518
0.223605
0.222015
0.22041
0.218794
0.217168
0.215535
0.213896
0.212253
0.210608
0.208963
0.207318
0.205676
0.204038
0.202405
0.200777
0.199157
0.197545
0.195943
0.19435
0.192768
0.191198
0.18964
0.188094
0.186562
0.185045
0.183541
0.182053
0.18058
0.179122
0.177681
0.176255
0.174847
0.173455
0.172079
0.170721
0.169381
0.168057
0.166751
0.165462
0.164191
0.162937
0.161701
0.160482
0.159281
0.158097
0.156931
0.155782
0.15465
0.153535
0.152437
0.151356
0.150292
0.149245
0.148214
0.1472
0.146201
0.145219
0.144253
0.143303
0.142368
0.141449
0.140545
0.139656
0.138782
0.137922
0.137078
0.136247
0.135431
0.134629
0.133841
0.133066
0.132305
0.131557
0.130823
0.130101
0.129392
0.128695
0.128011
0.127339
0.12668
0.126032
0.125395
0.12477
0.124157
0.123555
0.122964
0.122383
0.121814
0.121254
0.120706
0.120167
0.119638
0.11912
0.118611
0.118112
0.249592
0.249553
0.249363
0.249057
0.248648
0.248135
0.247525
0.246823
0.246036
0.245169
0.244226
0.243213
0.242134
0.240994
0.239798
0.238549
0.237252
0.235911
0.234529
0.233109
0.231656
0.230173
0.228661
0.227126
0.225568
0.223992
0.222399
0.220791
0.219172
0.217543
0.215906
0.214264
0.212617
0.210968
0.209319
0.20767
0.206024
0.204381
0.202743
0.201111
0.199486
0.197869
0.196261
0.194663
0.193076
0.1915
0.189937
0.188386
0.186848
0.185325
0.183816
0.182322
0.180843
0.17938
0.177932
0.176501
0.175087
0.173689
0.172308
0.170944
0.169598
0.168268
0.166956
0.165662
0.164385
0.163125
0.161884
0.160659
0.159452
0.158263
0.157091
0.155936
0.154799
0.153679
0.152576
0.15149
0.15042
0.149368
0.148332
0.147312
0.146309
0.145322
0.144351
0.143395
0.142456
0.141532
0.140623
0.139729
0.138851
0.137987
0.137138
0.136303
0.135482
0.134676
0.133883
0.133105
0.132339
0.131587
0.130849
0.130123
0.12941
0.12871
0.128022
0.127346
0.126683
0.126031
0.125391
0.124763
0.124146
0.12354
0.122946
0.122362
0.121789
0.121227
0.120675
0.120133
0.119601
0.11908
0.118569
0.118067
0.249976
0.249943
0.249758
0.249458
0.249053
0.248545
0.247939
0.247241
0.246457
0.245592
0.244652
0.243641
0.242564
0.241426
0.24023
0.238982
0.237685
0.236344
0.234961
0.233541
0.232087
0.230602
0.229089
0.227552
0.225992
0.224413
0.222817
0.221207
0.219584
0.217952
0.216312
0.214665
0.213015
0.211361
0.209707
0.208054
0.206403
0.204755
0.203112
0.201475
0.199844
0.198222
0.196608
0.195005
0.193412
0.19183
0.190261
0.188704
0.18716
0.185631
0.184116
0.182615
0.18113
0.179661
0.178207
0.17677
0.175349
0.173945
0.172557
0.171187
0.169834
0.168499
0.16718
0.16588
0.164596
0.163331
0.162083
0.160852
0.159639
0.158444
0.157266
0.156105
0.154962
0.153836
0.152727
0.151635
0.15056
0.149501
0.14846
0.147435
0.146426
0.145433
0.144457
0.143496
0.142551
0.141622
0.140708
0.139809
0.138925
0.138057
0.137203
0.136363
0.135538
0.134727
0.133929
0.133146
0.132376
0.13162
0.130877
0.130147
0.129429
0.128725
0.128033
0.127353
0.126686
0.12603
0.125386
0.124754
0.124134
0.123524
0.122926
0.122339
0.121762
0.121196
0.120641
0.120096
0.119561
0.119036
0.118522
0.118017
0.250391
0.250365
0.250186
0.249891
0.249492
0.248988
0.248386
0.247692
0.246912
0.24605
0.245113
0.244104
0.243029
0.241892
0.240697
0.23945
0.238154
0.236812
0.235429
0.234008
0.232553
0.231066
0.229552
0.228012
0.22645
0.224868
0.22327
0.221656
0.22003
0.218394
0.21675
0.215099
0.213444
0.211786
0.210128
0.208469
0.206813
0.20516
0.203511
0.201868
0.200232
0.198604
0.196984
0.195374
0.193775
0.192187
0.190611
0.189048
0.187498
0.185962
0.18444
0.182933
0.181441
0.179965
0.178504
0.17706
0.175632
0.174221
0.172827
0.17145
0.17009
0.168748
0.167423
0.166115
0.164825
0.163553
0.162298
0.161061
0.159841
0.158639
0.157455
0.156288
0.155138
0.154005
0.15289
0.151792
0.15071
0.149646
0.148598
0.147567
0.146552
0.145554
0.144571
0.143605
0.142654
0.141719
0.1408
0.139895
0.139006
0.138132
0.137273
0.136428
0.135597
0.134781
0.133979
0.13319
0.132416
0.131655
0.130907
0.130172
0.12945
0.128741
0.128044
0.12736
0.126688
0.126029
0.125381
0.124744
0.124119
0.123506
0.122904
0.122313
0.121732
0.121163
0.120604
0.120055
0.119516
0.118988
0.11847
0.117963
0.250836
0.250817
0.250645
0.250356
0.249962
0.249464
0.248866
0.248177
0.2474
0.246542
0.245607
0.2446
0.243527
0.242392
0.241199
0.239952
0.238656
0.237315
0.235931
0.234509
0.233053
0.231565
0.230049
0.228507
0.226942
0.225358
0.223756
0.222139
0.220509
0.218869
0.21722
0.215565
0.213905
0.212243
0.210579
0.208915
0.207253
0.205594
0.20394
0.202291
0.200648
0.199014
0.197388
0.195771
0.194165
0.192571
0.190988
0.189418
0.18786
0.186317
0.184788
0.183274
0.181775
0.180291
0.178823
0.177372
0.175937
0.174518
0.173117
0.171732
0.170365
0.169015
0.167683
0.166368
0.165071
0.163791
0.162529
0.161285
0.160058
0.158849
0.157658
0.156483
0.155327
0.154187
0.153065
0.15196
0.150872
0.149801
0.148747
0.147709
0.146688
0.145683
0.144694
0.143721
0.142765
0.141823
0.140898
0.139988
0.139093
0.138213
0.137347
0.136497
0.135661
0.134839
0.134031
0.133238
0.132458
0.131691
0.130938
0.130198
0.129472
0.128758
0.128056
0.127367
0.126691
0.126026
0.125374
0.124733
0.124104
0.123486
0.12288
0.122284
0.1217
0.121126
0.120563
0.12001
0.119468
0.118935
0.118414
0.117904
0.251311
0.2513
0.251134
0.250852
0.250464
0.249971
0.249379
0.248693
0.247921
0.247066
0.246134
0.245131
0.244059
0.242926
0.241734
0.240488
0.239193
0.237851
0.236467
0.235045
0.233587
0.232097
0.230579
0.229035
0.227467
0.22588
0.224275
0.222654
0.22102
0.219376
0.217723
0.216063
0.214398
0.21273
0.211061
0.209391
0.207723
0.206058
0.204398
0.202742
0.201093
0.199452
0.197819
0.196195
0.194582
0.19298
0.19139
0.189812
0.188248
0.186697
0.18516
0.183638
0.182131
0.18064
0.179164
0.177705
0.176262
0.174836
0.173426
0.172034
0.170659
0.169301
0.167961
0.166639
0.165333
0.164046
0.162776
0.161524
0.16029
0.159073
0.157874
0.156692
0.155528
0.154382
0.153252
0.15214
0.151045
0.149966
0.148905
0.14786
0.146832
0.14582
0.144825
0.143846
0.142882
0.141934
0.141002
0.140086
0.139185
0.138298
0.137427
0.13657
0.135728
0.134901
0.134087
0.133288
0.132502
0.13173
0.130972
0.130226
0.129494
0.128775
0.128068
0.127374
0.126693
0.126023
0.125366
0.12472
0.124086
0.123464
0.122853
0.122253
0.121664
0.121086
0.120518
0.119961
0.119415
0.118878
0.118353
0.11784
0.251815
0.251812
0.251654
0.251378
0.250997
0.25051
0.249923
0.249242
0.248474
0.247623
0.246694
0.245693
0.244625
0.243493
0.242302
0.241057
0.239762
0.238421
0.237036
0.235613
0.234154
0.232663
0.231142
0.229595
0.228025
0.226435
0.224826
0.223201
0.221564
0.219915
0.218257
0.216592
0.214922
0.213248
0.211573
0.209897
0.208223
0.206552
0.204884
0.203222
0.201566
0.199917
0.198277
0.196646
0.195025
0.193416
0.191818
0.190232
0.18866
0.187101
0.185556
0.184026
0.18251
0.181011
0.179527
0.178059
0.176608
0.175173
0.173755
0.172355
0.170971
0.169605
0.168257
0.166926
0.165612
0.164317
0.163039
0.161779
0.160536
0.159311
0.158104
0.156915
0.155742
0.154588
0.153451
0.152331
0.151228
0.150142
0.149073
0.148021
0.146985
0.145966
0.144964
0.143977
0.143007
0.142052
0.141113
0.14019
0.139282
0.138389
0.137511
0.136648
0.1358
0.134966
0.134146
0.13334
0.132549
0.131771
0.131006
0.130255
0.129517
0.128793
0.12808
0.127381
0.126694
0.126019
0.125357
0.124706
0.124067
0.12344
0.122824
0.122219
0.121625
0.121042
0.120471
0.119909
0.119358
0.118817
0.118288
0.11777
0.252348
0.252353
0.252203
0.251935
0.25156
0.251079
0.250498
0.249822
0.249058
0.248211
0.247286
0.246288
0.245222
0.244092
0.242903
0.241659
0.240364
0.239023
0.237638
0.236214
0.234754
0.233261
0.231738
0.230189
0.228616
0.227022
0.225409
0.223781
0.222138
0.220485
0.218822
0.217152
0.215476
0.213796
0.212115
0.210433
0.208752
0.207074
0.205399
0.20373
0.202066
0.20041
0.198762
0.197123
0.195494
0.193877
0.19227
0.190676
0.189095
0.187528
0.185974
0.184436
0.182912
0.181403
0.17991
0.178434
0.176974
0.17553
0.174104
0.172694
0.171302
0.169927
0.168569
0.16723
0.165908
0.164603
0.163317
0.162048
0.160797
0.159563
0.158347
0.157149
0.155969
0.154806
0.15366
0.152532
0.151421
0.150327
0.149251
0.148191
0.147147
0.146121
0.14511
0.144116
0.143138
0.142176
0.14123
0.140299
0.139384
0.138484
0.1376
0.13673
0.135874
0.135034
0.134208
0.133396
0.132597
0.131813
0.131042
0.130285
0.129541
0.128811
0.128093
0.127387
0.126695
0.126014
0.125346
0.12469
0.124046
0.123413
0.122792
0.122182
0.121583
0.120996
0.120419
0.119853
0.119297
0.118751
0.118218
0.117696
0.252909
0.252923
0.252781
0.252521
0.252153
0.251678
0.251103
0.250433
0.249674
0.248831
0.24791
0.246915
0.245851
0.244724
0.243536
0.242293
0.240999
0.239657
0.238272
0.236847
0.235385
0.233891
0.232366
0.230814
0.229238
0.22764
0.226024
0.224391
0.222744
0.221085
0.219417
0.217741
0.21606
0.214374
0.212686
0.210998
0.20931
0.207624
0.205942
0.204265
0.202594
0.20093
0.199273
0.197626
0.195989
0.194363
0.192748
0.191145
0.189555
0.187978
0.186416
0.184868
0.183335
0.181817
0.180315
0.178829
0.17736
0.175907
0.174471
0.173052
0.17165
0.170266
0.168899
0.16755
0.166219
0.164905
0.163609
0.162331
0.161071
0.159829
0.158604
0.157397
0.156208
0.155036
0.153882
0.152745
0.151625
0.150523
0.149438
0.148369
0.147318
0.146283
0.145264
0.144262
0.143276
0.142307
0.141353
0.140415
0.139492
0.138584
0.137692
0.136815
0.135953
0.135105
0.134272
0.133453
0.132648
0.131857
0.13108
0.130316
0.129566
0.128829
0.128105
0.127393
0.126694
0.126008
0.125334
0.124672
0.124022
0.123384
0.122757
0.122142
0.121538
0.120945
0.120363
0.119792
0.119231
0.118681
0.118143
0.117617
0.253498
0.253521
0.253387
0.253135
0.252775
0.252307
0.251738
0.251074
0.25032
0.249482
0.248564
0.247573
0.246512
0.245386
0.2442
0.242959
0.241665
0.240323
0.238938
0.237512
0.236049
0.234552
0.233025
0.23147
0.229891
0.228289
0.226669
0.225032
0.22338
0.221717
0.220043
0.218361
0.216673
0.214981
0.213286
0.211591
0.209896
0.208203
0.206513
0.204828
0.203148
0.201476
0.199811
0.198155
0.196509
0.194873
0.193249
0.191637
0.190038
0.188452
0.18688
0.185322
0.183779
0.182252
0.18074
0.179245
0.177765
0.176302
0.174857
0.173428
0.172016
0.170622
0.169246
0.167887
0.166546
0.165222
0.163917
0.162629
0.161359
0.160107
0.158873
0.157657
0.156458
0.155277
0.154114
0.152968
0.151839
0.150728
0.149634
0.148557
0.147496
0.146453
0.145426
0.144415
0.143421
0.142443
0.141481
0.140535
0.139604
0.138689
0.137789
0.136904
0.136034
0.135179
0.134339
0.133513
0.132701
0.131903
0.131118
0.130348
0.129591
0.128847
0.128116
0.127398
0.126693
0.126001
0.125321
0.124653
0.123997
0.123353
0.12272
0.122099
0.12149
0.120891
0.120304
0.119727
0.119161
0.118605
0.118062
0.117533
0.254113
0.254147
0.254022
0.253778
0.253426
0.252965
0.252403
0.251744
0.250996
0.250162
0.249249
0.248261
0.247203
0.24608
0.244896
0.243655
0.242362
0.241021
0.239635
0.238208
0.236743
0.235245
0.233715
0.232157
0.230575
0.22897
0.227345
0.225703
0.224046
0.222377
0.220698
0.21901
0.217316
0.215617
0.213915
0.212212
0.210509
0.208809
0.207111
0.205417
0.203729
0.202048
0.200374
0.198709
0.197054
0.195409
0.193775
0.192153
0.190544
0.188948
0.187366
0.185798
0.184245
0.182708
0.181186
0.17968
0.17819
0.176717
0.175261
0.173822
0.1724
0.170996
0.169609
0.16824
0.166888
0.165555
0.164239
0.162941
0.161661
0.160399
0.159155
0.157929
0.15672
0.15553
0.154357
0.153201
0.152063
0.150942
0.149839
0.148752
0.147683
0.14663
0.145595
0.144575
0.143572
0.142586
0.141615
0.14066
0.139721
0.138798
0.13789
0.136997
0.136119
0.135256
0.134408
0.133574
0.132755
0.131949
0.131158
0.13038
0.129616
0.128865
0.128127
0.127403
0.126691
0.125992
0.125305
0.124631
0.123969
0.123318
0.12268
0.122053
0.121437
0.120833
0.12024
0.119658
0.119086
0.118525
0.117977
0.117443
0.254756
0.2548
0.254684
0.254449
0.254105
0.253652
0.253096
0.252444
0.251701
0.250872
0.249963
0.248979
0.247924
0.246803
0.245621
0.244382
0.24309
0.241749
0.240362
0.238934
0.237468
0.235968
0.234435
0.232875
0.231289
0.22968
0.228051
0.226404
0.224742
0.223068
0.221382
0.219688
0.217987
0.216281
0.214572
0.212861
0.211151
0.209442
0.207735
0.206033
0.204336
0.202645
0.200962
0.199288
0.197623
0.195968
0.194324
0.192692
0.191073
0.189467
0.187874
0.186296
0.184733
0.183184
0.181652
0.180135
0.178634
0.177151
0.175684
0.174234
0.172801
0.171386
0.169988
0.168608
0.167246
0.165902
0.164575
0.163267
0.161977
0.160704
0.15945
0.158213
0.156994
0.155793
0.15461
0.153445
0.152297
0.151166
0.150053
0.148957
0.147878
0.146816
0.14577
0.144742
0.14373
0.142734
0.141754
0.140791
0.139843
0.138911
0.137994
0.137093
0.136207
0.135336
0.13448
0.133638
0.13281
0.131997
0.131198
0.130413
0.129641
0.128883
0.128138
0.127406
0.126688
0.125982
0.125288
0.124607
0.123938
0.123281
0.122637
0.122003
0.121382
0.120771
0.120172
0.119584
0.119007
0.11844
0.117886
0.117347
0.255424
0.255479
0.255373
0.255147
0.254812
0.254366
0.253818
0.253172
0.252435
0.251612
0.250707
0.249727
0.248675
0.247557
0.246377
0.245139
0.243847
0.242506
0.24112
0.239691
0.238223
0.236721
0.235186
0.233622
0.232033
0.23042
0.228786
0.227135
0.225468
0.223787
0.222095
0.220395
0.218687
0.216974
0.215257
0.213538
0.211819
0.210102
0.208386
0.206675
0.204969
0.203269
0.201576
0.199892
0.198216
0.196551
0.194897
0.193255
0.191625
0.190008
0.188404
0.186815
0.185241
0.183681
0.182137
0.180609
0.179098
0.177603
0.176124
0.174663
0.173219
0.171793
0.170384
0.168992
0.167619
0.166264
0.164926
0.163607
0.162305
0.161022
0.159757
0.158509
0.15728
0.156068
0.154874
0.153698
0.15254
0.151399
0.150275
0.149169
0.14808
0.147008
0.145953
0.144915
0.143893
0.142888
0.141899
0.140926
0.139969
0.139028
0.138103
0.137193
0.136298
0.135418
0.134553
0.133703
0.132867
0.132046
0.131239
0.130446
0.129666
0.1289
0.128148
0.127409
0.126683
0.12597
0.125269
0.124581
0.123905
0.123242
0.12259
0.12195
0.121322
0.120705
0.1201
0.119506
0.118922
0.118349
0.11779
0.117246
0.256118
0.256184
0.256088
0.255872
0.255545
0.255109
0.254567
0.253929
0.253197
0.252379
0.25148
0.250503
0.249455
0.24834
0.247162
0.245925
0.244635
0.243294
0.241907
0.240477
0.239008
0.237503
0.235966
0.234399
0.232806
0.231189
0.229551
0.227894
0.226222
0.224535
0.222837
0.221129
0.219414
0.217694
0.215969
0.214242
0.212515
0.210788
0.209064
0.207343
0.205627
0.203917
0.202214
0.20052
0.198834
0.197158
0.195493
0.19384
0.192199
0.190571
0.188956
0.187355
0.185769
0.184198
0.182643
0.181103
0.17958
0.178073
0.176583
0.17511
0.173654
0.172216
0.170795
0.169392
0.168007
0.16664
0.165291
0.16396
0.162647
0.161352
0.160076
0.158817
0.157576
0.156354
0.155149
0.153962
0.152792
0.151641
0.150507
0.14939
0.148291
0.147208
0.146143
0.145095
0.144063
0.143048
0.142049
0.141066
0.1401
0.139149
0.138215
0.137295
0.136391
0.135503
0.134629
0.13377
0.132926
0.132096
0.13128
0.130479
0.129691
0.128918
0.128157
0.12741
0.126676
0.125956
0.125248
0.124552
0.123869
0.123199
0.12254
0.121893
0.121258
0.120635
0.120023
0.119422
0.118832
0.118253
0.117688
0.117139
0.256837
0.256915
0.25683
0.256623
0.256306
0.255878
0.255344
0.254712
0.253988
0.253175
0.252281
0.251309
0.250264
0.249151
0.247976
0.246741
0.245451
0.244111
0.242723
0.241293
0.239822
0.238315
0.236775
0.235205
0.233608
0.231987
0.230344
0.228682
0.227004
0.225311
0.223607
0.221892
0.22017
0.218441
0.216708
0.214973
0.213237
0.211501
0.209767
0.208037
0.206311
0.204591
0.202877
0.201172
0.199475
0.197789
0.196112
0.194448
0.192795
0.191155
0.189529
0.187916
0.186318
0.184735
0.183168
0.181616
0.18008
0.178561
0.177059
0.175574
0.174106
0.172655
0.171222
0.169807
0.16841
0.167031
0.16567
0.164327
0.163002
0.161695
0.160407
0.159136
0.157884
0.15665
0.155433
0.154235
0.153054
0.151892
0.150746
0.149619
0.148508
0.147415
0.146339
0.14528
0.144238
0.143213
0.142204
0.141211
0.140235
0.139274
0.13833
0.137401
0.136487
0.135589
0.134706
0.133838
0.132985
0.132146
0.131322
0.130512
0.129716
0.128934
0.128165
0.12741
0.126668
0.12594
0.125224
0.124521
0.12383
0.123152
0.122487
0.121833
0.121191
0.12056
0.119942
0.119334
0.118738
0.118152
0.117581
0.117026
0.257581
0.257671
0.257596
0.257401
0.257093
0.256673
0.256148
0.255524
0.254805
0.253999
0.253109
0.252142
0.251101
0.249991
0.248818
0.247585
0.246296
0.244956
0.243569
0.242137
0.240665
0.239156
0.237613
0.23604
0.234439
0.232814
0.231166
0.229499
0.227814
0.226116
0.224404
0.222682
0.220952
0.219216
0.217474
0.21573
0.213985
0.21224
0.210496
0.208756
0.207019
0.205289
0.203565
0.201848
0.20014
0.198442
0.196754
0.195078
0.193413
0.191761
0.190122
0.188498
0.186887
0.185292
0.183712
0.182147
0.180599
0.179068
0.177553
0.176055
0.174574
0.173111
0.171665
0.170238
0.168828
0.167436
0.166063
0.164707
0.16337
0.162051
0.16075
0.159467
0.158203
0.156956
0.155728
0.154518
0.153326
0.152151
0.150994
0.149855
0.148733
0.147629
0.146542
0.145472
0.144419
0.143383
0.142363
0.14136
0.140373
0.139403
0.138448
0.137509
0.136586
0.135678
0.134786
0.133908
0.133046
0.132198
0.131364
0.130545
0.12974
0.128949
0.128172
0.127409
0.126659
0.125922
0.125198
0.124487
0.123789
0.123103
0.122429
0.121768
0.121119
0.120481
0.119855
0.119241
0.118637
0.118045
0.117467
0.116907
0.258349
0.258451
0.258388
0.258203
0.257905
0.257495
0.256978
0.256361
0.25565
0.25485
0.253966
0.253003
0.251966
0.250859
0.249688
0.248457
0.24717
0.24583
0.244442
0.24301
0.241536
0.240025
0.23848
0.236903
0.235299
0.233668
0.232016
0.230343
0.228653
0.226947
0.225229
0.2235
0.221762
0.220017
0.218267
0.216514
0.214759
0.213004
0.211251
0.2095
0.207753
0.206011
0.204276
0.202548
0.200828
0.199118
0.197419
0.19573
0.194053
0.192388
0.190737
0.1891
0.187477
0.185868
0.184275
0.182698
0.181137
0.179592
0.178064
0.176553
0.175059
0.173583
0.172124
0.170683
0.16926
0.167855
0.166469
0.1651
0.16375
0.162418
0.161105
0.159809
0.158532
0.157274
0.156033
0.15481
0.153606
0.152419
0.15125
0.150099
0.148966
0.14785
0.146751
0.14567
0.144606
0.143558
0.142528
0.141514
0.140516
0.139535
0.13857
0.13762
0.136687
0.135769
0.134866
0.133979
0.133107
0.132249
0.131407
0.130578
0.129764
0.128964
0.128178
0.127406
0.126647
0.125902
0.125169
0.12445
0.123744
0.12305
0.122368
0.121699
0.121042
0.120397
0.119764
0.119142
0.118532
0.117932
0.117348
0.116782
0.259141
0.259256
0.259205
0.259031
0.258743
0.258342
0.257834
0.257225
0.256521
0.255727
0.254849
0.25389
0.252858
0.251755
0.250586
0.249357
0.248071
0.246732
0.245344
0.24391
0.242435
0.240922
0.239374
0.237794
0.236185
0.234551
0.232893
0.231215
0.229518
0.227806
0.226081
0.224344
0.222598
0.220844
0.219086
0.217323
0.215559
0.213794
0.21203
0.210268
0.208511
0.206758
0.205011
0.203271
0.20154
0.199817
0.198105
0.196404
0.194714
0.193037
0.191373
0.189722
0.188086
0.186464
0.184857
0.183267
0.181692
0.180134
0.178592
0.177067
0.17556
0.17407
0.172598
0.171143
0.169707
0.168289
0.166889
0.165507
0.164143
0.162798
0.161471
0.160163
0.158873
0.157601
0.156347
0.155112
0.153895
0.152696
0.151515
0.150351
0.149206
0.148077
0.146967
0.145874
0.144798
0.143739
0.142697
0.141671
0.140663
0.13967
0.138694
0.137734
0.13679
0.135862
0.134949
0.134051
0.133169
0.132301
0.131449
0.130611
0.129787
0.128978
0.128182
0.127401
0.126633
0.125879
0.125138
0.12441
0.123695
0.122993
0.122304
0.121626
0.120961
0.120309
0.119668
0.119038
0.11842
0.117814
0.117222
0.11665
0.259956
0.260085
0.260045
0.259883
0.259606
0.259215
0.258715
0.258115
0.257418
0.256631
0.255758
0.254805
0.253776
0.252677
0.251512
0.250284
0.248999
0.247661
0.246273
0.244839
0.243362
0.241847
0.240296
0.238713
0.2371
0.235461
0.233798
0.232114
0.230411
0.228692
0.226959
0.225215
0.22346
0.221698
0.21993
0.218158
0.216384
0.214609
0.212834
0.211062
0.209293
0.207528
0.205769
0.204018
0.202274
0.200539
0.198814
0.1971
0.195397
0.193706
0.192029
0.190364
0.188714
0.187079
0.185459
0.183854
0.182265
0.180693