/*--------------------------------*- C++ -*----------------------------------*\
  =========                 |
  \\      /  F ield         | OpenFOAM: The Open Source CFD Toolbox
   \\    /   O peration     | Website:  https://openfoam.org
    \\  /    A nd           | Version:  8
     \\/     M anipulation  |
\*---------------------------------------------------------------------------*/
FoamFile
{
    version     2.0;
    format      ascii;
    class       volScalarField;
    location    "15";
    object      p;
}
// * * * * * * * * * * * * * * * * * * * * * * * * * * * * * * * * * * * * * //

dimensions      [0 2 -2 0 0 0 0];

internalField   nonuniform List<scalar> 
277560
(
-0.593132
-0.5939
-0.595806
-0.598616
-0.602226
-0.606621
-0.611771
-0.617629
-0.624145
-0.631279
-0.638993
-0.647247
-0.656005
-0.665231
-0.67489
-0.68495
-0.69538
-0.706149
-0.717229
-0.728591
-0.74021
-0.75206
-0.764118
-0.77636
-0.788765
-0.801312
-0.813982
-0.826756
-0.839615
-0.852545
-0.865528
-0.87855
-0.891596
-0.904653
-0.917709
-0.930751
-0.94377
-0.956753
-0.969693
-0.982578
-0.995402
-1.00816
-1.02083
-1.03343
-1.04593
-1.05833
-1.07064
-1.08284
-1.09492
-1.10689
-1.11875
-1.13048
-1.14208
-1.15356
-1.16491
-1.17612
-1.1872
-1.19814
-1.20895
-1.21962
-1.23015
-1.24053
-1.25078
-1.26089
-1.27085
-1.28067
-1.29036
-1.2999
-1.3093
-1.31856
-1.32768
-1.33666
-1.3455
-1.35421
-1.36278
-1.37121
-1.37951
-1.38768
-1.39572
-1.40362
-1.4114
-1.41905
-1.42657
-1.43397
-1.44124
-1.44839
-1.45542
-1.46233
-1.46913
-1.4758
-1.48237
-1.48882
-1.49516
-1.50139
-1.50751
-1.51352
-1.51943
-1.52524
-1.53094
-1.53654
-1.54205
-1.54746
-1.55277
-1.55799
-1.56311
-1.56815
-1.57309
-1.57795
-1.58272
-1.58741
-1.59201
-1.59652
-1.60096
-1.60532
-1.6096
-1.6138
-1.61793
-1.62198
-1.62596
-1.62987
-0.592712
-0.593457
-0.595347
-0.598152
-0.601759
-0.60615
-0.611298
-0.617152
-0.623667
-0.6308
-0.638512
-0.646766
-0.655523
-0.664748
-0.674408
-0.684468
-0.694899
-0.705669
-0.71675
-0.728115
-0.739736
-0.751588
-0.763648
-0.775894
-0.788302
-0.800852
-0.813526
-0.826303
-0.839167
-0.852101
-0.865089
-0.878115
-0.891167
-0.904229
-0.91729
-0.930339
-0.943363
-0.956353
-0.969298
-0.98219
-0.995021
-1.00778
-1.02046
-1.03306
-1.04557
-1.05799
-1.0703
-1.0825
-1.0946
-1.10658
-1.11844
-1.13017
-1.14179
-1.15327
-1.16463
-1.17585
-1.18694
-1.19789
-1.2087
-1.21938
-1.22991
-1.24031
-1.25056
-1.26068
-1.27065
-1.28048
-1.29017
-1.29972
-1.30912
-1.31839
-1.32752
-1.33651
-1.34536
-1.35407
-1.36265
-1.37109
-1.3794
-1.38758
-1.39562
-1.40353
-1.41132
-1.41897
-1.4265
-1.4339
-1.44118
-1.44834
-1.45538
-1.4623
-1.4691
-1.47578
-1.48235
-1.48881
-1.49516
-1.50139
-1.50752
-1.51354
-1.51945
-1.52527
-1.53098
-1.53659
-1.5421
-1.54751
-1.55283
-1.55805
-1.56319
-1.56823
-1.57318
-1.57804
-1.58281
-1.5875
-1.59211
-1.59663
-1.60107
-1.60543
-1.60972
-1.61392
-1.61806
-1.62211
-1.62609
-1.63001
-0.591923
-0.59267
-0.594559
-0.597362
-0.600966
-0.605355
-0.6105
-0.616352
-0.622865
-0.629998
-0.63771
-0.645963
-0.654721
-0.663948
-0.67361
-0.683673
-0.694107
-0.70488
-0.715965
-0.727334
-0.73896
-0.750819
-0.762885
-0.775137
-0.787552
-0.80011
-0.812791
-0.825576
-0.838449
-0.851392
-0.864389
-0.877425
-0.890486
-0.903558
-0.91663
-0.929689
-0.942724
-0.955725
-0.968682
-0.981585
-0.994427
-1.0072
-1.0199
-1.03251
-1.04503
-1.05745
-1.06978
-1.082
-1.0941
-1.10609
-1.11797
-1.12972
-1.14134
-1.15284
-1.16421
-1.17544
-1.18654
-1.19751
-1.20833
-1.21902
-1.22957
-1.23998
-1.25025
-1.26037
-1.27036
-1.2802
-1.2899
-1.29946
-1.30888
-1.31816
-1.3273
-1.3363
-1.34516
-1.35389
-1.36248
-1.37093
-1.37925
-1.38744
-1.39549
-1.40341
-1.41121
-1.41887
-1.42641
-1.43383
-1.44112
-1.44828
-1.45533
-1.46226
-1.46907
-1.47576
-1.48234
-1.48881
-1.49516
-1.50141
-1.50754
-1.51357
-1.5195
-1.52532
-1.53103
-1.53665
-1.54217
-1.54759
-1.55292
-1.55815
-1.56329
-1.56834
-1.57329
-1.57816
-1.58294
-1.58764
-1.59225
-1.59678
-1.60123
-1.6056
-1.60989
-1.61411
-1.61824
-1.62231
-1.6263
-1.63021
-0.590757
-0.591495
-0.593373
-0.596167
-0.599763
-0.604144
-0.609284
-0.615132
-0.621641
-0.628771
-0.636481
-0.644734
-0.653492
-0.66272
-0.672383
-0.682449
-0.692886
-0.703664
-0.714754
-0.726128
-0.737761
-0.749626
-0.761701
-0.773961
-0.786385
-0.798953
-0.811645
-0.824442
-0.837326
-0.850281
-0.863291
-0.87634
-0.889415
-0.902502
-0.915589
-0.928663
-0.941714
-0.954731
-0.967704
-0.980624
-0.993483
-1.00627
-1.01899
-1.03162
-1.04416
-1.0566
-1.06894
-1.08118
-1.0933
-1.10531
-1.11721
-1.12898
-1.14062
-1.15214
-1.16353
-1.17478
-1.1859
-1.19688
-1.20773
-1.21844
-1.229
-1.23943
-1.24972
-1.25986
-1.26987
-1.27973
-1.28945
-1.29903
-1.30847
-1.31777
-1.32692
-1.33594
-1.34483
-1.35357
-1.36218
-1.37065
-1.37898
-1.38719
-1.39526
-1.4032
-1.41101
-1.41869
-1.42625
-1.43368
-1.44099
-1.44817
-1.45524
-1.46218
-1.46901
-1.47571
-1.48231
-1.48879
-1.49516
-1.50142
-1.50757
-1.51362
-1.51955
-1.52539
-1.53112
-1.53675
-1.54229
-1.54772
-1.55306
-1.55831
-1.56346
-1.56852
-1.57349
-1.57837
-1.58316
-1.58787
-1.5925
-1.59704
-1.6015
-1.60588
-1.61018
-1.6144
-1.61855
-1.62262
-1.62662
-1.63055
-0.589217
-0.589941
-0.591807
-0.594591
-0.598178
-0.602552
-0.607685
-0.613528
-0.620033
-0.627159
-0.634868
-0.64312
-0.651879
-0.661108
-0.670775
-0.680844
-0.691286
-0.702071
-0.713168
-0.72455
-0.736192
-0.748068
-0.760153
-0.772425
-0.784862
-0.797444
-0.81015
-0.822962
-0.835863
-0.848835
-0.861862
-0.87493
-0.888024
-0.90113
-0.914237
-0.927332
-0.940404
-0.953442
-0.966438
-0.979381
-0.992263
-1.00508
-1.01781
-1.03047
-1.04303
-1.0555
-1.06787
-1.08013
-1.09228
-1.10431
-1.11623
-1.12803
-1.1397
-1.15124
-1.16265
-1.17393
-1.18508
-1.19609
-1.20696
-1.21769
-1.22829
-1.23874
-1.24905
-1.25922
-1.26925
-1.27914
-1.28888
-1.29849
-1.30795
-1.31727
-1.32646
-1.3355
-1.3444
-1.35317
-1.3618
-1.3703
-1.37866
-1.38688
-1.39498
-1.40294
-1.41077
-1.41848
-1.42606
-1.43351
-1.44084
-1.44804
-1.45512
-1.46209
-1.46894
-1.47566
-1.48228
-1.48878
-1.49517
-1.50145
-1.50762
-1.51368
-1.51963
-1.52549
-1.53124
-1.53689
-1.54244
-1.54789
-1.55324
-1.5585
-1.56367
-1.56875
-1.57373
-1.57863
-1.58344
-1.58816
-1.5928
-1.59736
-1.60183
-1.60623
-1.61054
-1.61478
-1.61894
-1.62303
-1.62704
-1.63098
-0.587311
-0.588018
-0.589871
-0.592641
-0.596216
-0.60058
-0.605705
-0.611541
-0.618041
-0.625163
-0.63287
-0.641121
-0.64988
-0.659111
-0.668781
-0.678855
-0.689303
-0.700094
-0.7112
-0.722593
-0.734245
-0.746133
-0.758232
-0.770518
-0.782971
-0.795569
-0.808293
-0.821124
-0.834044
-0.847036
-0.860085
-0.873175
-0.886292
-0.899422
-0.912554
-0.925674
-0.938771
-0.951836
-0.964859
-0.97783
-0.99074
-1.00358
-1.01635
-1.02903
-1.04162
-1.05412
-1.06652
-1.07881
-1.09099
-1.10306
-1.11501
-1.12684
-1.13854
-1.15011
-1.16156
-1.17287
-1.18405
-1.19509
-1.20599
-1.21675
-1.22738
-1.23786
-1.24821
-1.25841
-1.26847
-1.27839
-1.28817
-1.2978
-1.30729
-1.31665
-1.32586
-1.33493
-1.34387
-1.35266
-1.36132
-1.36985
-1.37824
-1.38649
-1.39461
-1.4026
-1.41047
-1.4182
-1.4258
-1.43328
-1.44064
-1.44787
-1.45498
-1.46197
-1.46884
-1.47559
-1.48223
-1.48876
-1.49517
-1.50147
-1.50766
-1.51375
-1.51973
-1.52561
-1.53138
-1.53705
-1.54262
-1.54809
-1.55347
-1.55875
-1.56394
-1.56904
-1.57404
-1.57896
-1.58379
-1.58853
-1.59319
-1.59776
-1.60225
-1.60667
-1.611
-1.61525
-1.61943
-1.62354
-1.62757
-1.63152
-0.585046
-0.585734
-0.587569
-0.590324
-0.593886
-0.598238
-0.603352
-0.60918
-0.615674
-0.622792
-0.630495
-0.638745
-0.647505
-0.656739
-0.666412
-0.676492
-0.686947
-0.697747
-0.708863
-0.720267
-0.731933
-0.743835
-0.755949
-0.768253
-0.780725
-0.793343
-0.806088
-0.818941
-0.831884
-0.844901
-0.857975
-0.871091
-0.884236
-0.897395
-0.910555
-0.923705
-0.936834
-0.949931
-0.962985
-0.975989
-0.988933
-1.00181
-1.01461
-1.02733
-1.03996
-1.05249
-1.06492
-1.07725
-1.08947
-1.10158
-1.11356
-1.12543
-1.13717
-1.14878
-1.16026
-1.17161
-1.18282
-1.1939
-1.20484
-1.21565
-1.22631
-1.23683
-1.24721
-1.25745
-1.26755
-1.27751
-1.28732
-1.29699
-1.30652
-1.31591
-1.32516
-1.33427
-1.34324
-1.35207
-1.36076
-1.36932
-1.37774
-1.38603
-1.39419
-1.40221
-1.41011
-1.41787
-1.42551
-1.43302
-1.4404
-1.44767
-1.45481
-1.46183
-1.46873
-1.47551
-1.48218
-1.48874
-1.49518
-1.50151
-1.50773
-1.51384
-1.51985
-1.52575
-1.53155
-1.53724
-1.54284
-1.54834
-1.55374
-1.55905
-1.56426
-1.56938
-1.57441
-1.57935
-1.5842
-1.58896
-1.59364
-1.59824
-1.60275
-1.60719
-1.61154
-1.61581
-1.62001
-1.62414
-1.62819
-1.63216
-0.582431
-0.583095
-0.58491
-0.587647
-0.591193
-0.595531
-0.600634
-0.606453
-0.612939
-0.620052
-0.627752
-0.636001
-0.644761
-0.653997
-0.663674
-0.673761
-0.684224
-0.695034
-0.706161
-0.717578
-0.729259
-0.741178
-0.753311
-0.765634
-0.778127
-0.790768
-0.803537
-0.816416
-0.829386
-0.842431
-0.855534
-0.868681
-0.881857
-0.895049
-0.908243
-0.921428
-0.934592
-0.947725
-0.960817
-0.973858
-0.986841
-0.999756
-1.0126
-1.02535
-1.03802
-1.0506
-1.06308
-1.07545
-1.08771
-1.09985
-1.11188
-1.12379
-1.13557
-1.14723
-1.15876
-1.17015
-1.18141
-1.19253
-1.20351
-1.21436
-1.22507
-1.23563
-1.24606
-1.25634
-1.26648
-1.27648
-1.28633
-1.29605
-1.30562
-1.31505
-1.32434
-1.33349
-1.3425
-1.35137
-1.36011
-1.36871
-1.37717
-1.3855
-1.39369
-1.40175
-1.40969
-1.41749
-1.42516
-1.43271
-1.44013
-1.44743
-1.45461
-1.46166
-1.4686
-1.47542
-1.48212
-1.4887
-1.49518
-1.50154
-1.50779
-1.51394
-1.51998
-1.52591
-1.53174
-1.53747
-1.54309
-1.54862
-1.55405
-1.55938
-1.56462
-1.56977
-1.57483
-1.57979
-1.58467
-1.58946
-1.59417
-1.59879
-1.60333
-1.60779
-1.61216
-1.61646
-1.62068
-1.62483
-1.6289
-1.6329
-0.57947
-0.580108
-0.581901
-0.584618
-0.588145
-0.592468
-0.597558
-0.603366
-0.609844
-0.61695
-0.624646
-0.632893
-0.641654
-0.650893
-0.660575
-0.670669
-0.681141
-0.691962
-0.703102
-0.714534
-0.726232
-0.73817
-0.750323
-0.762669
-0.775186
-0.787852
-0.800649
-0.813556
-0.826556
-0.839633
-0.85277
-0.865951
-0.879163
-0.892391
-0.905623
-0.918847
-0.932052
-0.945226
-0.95836
-0.971444
-0.98447
-0.99743
-1.01032
-1.02312
-1.03584
-1.04846
-1.06098
-1.0734
-1.08571
-1.0979
-1.10998
-1.12194
-1.13377
-1.14548
-1.15705
-1.16849
-1.1798
-1.19097
-1.20201
-1.2129
-1.22366
-1.23427
-1.24475
-1.25508
-1.26527
-1.27531
-1.28522
-1.29498
-1.3046
-1.31408
-1.32342
-1.33261
-1.34167
-1.35059
-1.35937
-1.36801
-1.37652
-1.38489
-1.39313
-1.40123
-1.40921
-1.41705
-1.42477
-1.43236
-1.43982
-1.44716
-1.45438
-1.46147
-1.46845
-1.47531
-1.48205
-1.48867
-1.49518
-1.50158
-1.50787
-1.51405
-1.52013
-1.52609
-1.53196
-1.53772
-1.54338
-1.54894
-1.5544
-1.55977
-1.56504
-1.57022
-1.5753
-1.5803
-1.58521
-1.59003
-1.59476
-1.59941
-1.60398
-1.60846
-1.61287
-1.6172
-1.62144
-1.62562
-1.62971
-1.63373
-0.576172
-0.576781
-0.578549
-0.581242
-0.58475
-0.589055
-0.594131
-0.599926
-0.606394
-0.613494
-0.621186
-0.629431
-0.638192
-0.647434
-0.657121
-0.667222
-0.677704
-0.688537
-0.699692
-0.711141
-0.722857
-0.734815
-0.746991
-0.759362
-0.771906
-0.784601
-0.797427
-0.810367
-0.823401
-0.836512
-0.849686
-0.862906
-0.876157
-0.889426
-0.902701
-0.915968
-0.929217
-0.942437
-0.955618
-0.96875
-0.981825
-0.994834
-1.00777
-1.02062
-1.03339
-1.04607
-1.05864
-1.07111
-1.08348
-1.09573
-1.10786
-1.11987
-1.13176
-1.14352
-1.15515
-1.16664
-1.17801
-1.18923
-1.20032
-1.21127
-1.22208
-1.23275
-1.24328
-1.25367
-1.26391
-1.27401
-1.28397
-1.29379
-1.30346
-1.31299
-1.32238
-1.33163
-1.34074
-1.34971
-1.35854
-1.36723
-1.37579
-1.38421
-1.3925
-1.40065
-1.40867
-1.41657
-1.42433
-1.43197
-1.43947
-1.44686
-1.45412
-1.46126
-1.46828
-1.47518
-1.48196
-1.48863
-1.49518
-1.50162
-1.50795
-1.51418
-1.52029
-1.52629
-1.5322
-1.538
-1.54369
-1.54929
-1.55479
-1.56019
-1.5655
-1.57071
-1.57583
-1.58086
-1.58581
-1.59066
-1.59543
-1.60011
-1.60471
-1.60922
-1.61366
-1.61801
-1.62229
-1.62649
-1.63062
-1.63467
-0.572542
-0.573119
-0.574859
-0.577528
-0.581013
-0.585299
-0.590358
-0.59614
-0.602598
-0.60969
-0.617376
-0.625619
-0.634381
-0.643625
-0.653319
-0.663428
-0.67392
-0.684767
-0.695937
-0.707404
-0.719141
-0.731122
-0.743322
-0.75572
-0.768293
-0.781019
-0.793879
-0.806853
-0.819924
-0.833074
-0.846288
-0.85955
-0.872845
-0.886159
-0.89948
-0.912795
-0.926093
-0.939364
-0.952596
-0.96578
-0.978908
-0.991971
-1.00496
-1.01787
-1.0307
-1.04343
-1.05606
-1.06859
-1.08102
-1.09332
-1.10552
-1.11759
-1.12953
-1.14135
-1.15304
-1.1646
-1.17603
-1.18731
-1.19846
-1.20948
-1.22035
-1.23108
-1.24167
-1.25211
-1.26241
-1.27257
-1.28259
-1.29247
-1.3022
-1.31179
-1.32123
-1.33054
-1.33971
-1.34873
-1.35762
-1.36637
-1.37498
-1.38346
-1.3918
-1.40001
-1.40808
-1.41603
-1.42384
-1.43153
-1.43909
-1.44652
-1.45384
-1.46102
-1.46809
-1.47504
-1.48187
-1.48858
-1.49518
-1.50167
-1.50804
-1.51431
-1.52047
-1.52652
-1.53246
-1.5383
-1.54404
-1.54968
-1.55522
-1.56066
-1.56601
-1.57126
-1.57642
-1.58148
-1.58646
-1.59135
-1.59615
-1.60087
-1.6055
-1.61005
-1.61452
-1.61891
-1.62322
-1.62746
-1.63161
-1.63569
-0.568587
-0.569129
-0.570839
-0.57348
-0.576941
-0.581206
-0.586247
-0.592015
-0.598461
-0.605544
-0.613225
-0.621465
-0.630227
-0.639474
-0.649174
-0.659291
-0.669796
-0.680656
-0.691843
-0.70333
-0.715088
-0.727093
-0.739321
-0.751748
-0.764352
-0.777112
-0.790008
-0.80302
-0.816131
-0.829323
-0.842581
-0.855888
-0.86923
-0.882593
-0.895965
-0.909332
-0.922684
-0.936008
-0.949296
-0.962538
-0.975724
-0.988846
-1.0019
-1.01487
-1.02776
-1.04055
-1.05325
-1.06584
-1.07833
-1.0907
-1.10296
-1.11509
-1.12711
-1.13899
-1.15075
-1.16237
-1.17386
-1.18522
-1.19643
-1.20751
-1.21845
-1.22924
-1.2399
-1.25041
-1.26078
-1.271
-1.28108
-1.29102
-1.30082
-1.31047
-1.31998
-1.32935
-1.33858
-1.34767
-1.35661
-1.36542
-1.3741
-1.38263
-1.39103
-1.3993
-1.40743
-1.41543
-1.42331
-1.43105
-1.43866
-1.44615
-1.45352
-1.46076
-1.46788
-1.47488
-1.48176
-1.48853
-1.49518
-1.50172
-1.50814
-1.51445
-1.52066
-1.52675
-1.53274
-1.53863
-1.54442
-1.5501
-1.55568
-1.56117
-1.56656
-1.57185
-1.57705
-1.58216
-1.58718
-1.59211
-1.59695
-1.6017
-1.60637
-1.61096
-1.61547
-1.61989
-1.62424
-1.62851
-1.6327
-1.63681
-0.564313
-0.564818
-0.566495
-0.569106
-0.57254
-0.576783
-0.581804
-0.587556
-0.593989
-0.601062
-0.608737
-0.616974
-0.625736
-0.634987
-0.644692
-0.654819
-0.665336
-0.676211
-0.687416
-0.698923
-0.710705
-0.722737
-0.734993
-0.747452
-0.760089
-0.772886
-0.78582
-0.798873
-0.812027
-0.825264
-0.838569
-0.851925
-0.865318
-0.878734
-0.89216
-0.905583
-0.918992
-0.932376
-0.945724
-0.959027
-0.972276
-0.985462
-0.998577
-1.01162
-1.02457
-1.03743
-1.05019
-1.06286
-1.07541
-1.08786
-1.10018
-1.11239
-1.12447
-1.13643
-1.14826
-1.15995
-1.17152
-1.18294
-1.19423
-1.20538
-1.21639
-1.22725
-1.23798
-1.24856
-1.259
-1.2693
-1.27945
-1.28946
-1.29932
-1.30904
-1.31862
-1.32806
-1.33735
-1.34651
-1.35552
-1.3644
-1.37313
-1.38173
-1.3902
-1.39853
-1.40673
-1.41479
-1.42272
-1.43053
-1.4382
-1.44575
-1.45317
-1.46047
-1.46765
-1.47471
-1.48165
-1.48847
-1.49517
-1.50176
-1.50824
-1.5146
-1.52086
-1.52701
-1.53305
-1.53899
-1.54482
-1.55055
-1.55618
-1.56171
-1.56715
-1.57249
-1.57773
-1.58289
-1.58795
-1.59292
-1.5978
-1.6026
-1.60731
-1.61194
-1.61649
-1.62095
-1.62534
-1.62964
-1.63387
-1.63802
-0.559727
-0.56019
-0.561832
-0.564412
-0.567817
-0.572035
-0.577036
-0.582769
-0.589189
-0.596252
-0.603919
-0.612153
-0.620914
-0.630168
-0.63988
-0.650017
-0.660546
-0.671437
-0.682661
-0.69419
-0.705997
-0.718056
-0.730344
-0.742835
-0.755509
-0.768344
-0.781319
-0.794416
-0.807616
-0.820901
-0.834256
-0.847665
-0.861112
-0.874584
-0.888068
-0.901551
-0.915022
-0.928468
-0.941881
-0.95525
-0.968566
-0.98182
-0.995005
-1.00811
-1.02114
-1.03407
-1.04691
-1.05965
-1.07228
-1.08479
-1.0972
-1.10948
-1.12164
-1.13367
-1.14558
-1.15735
-1.16899
-1.18049
-1.19186
-1.20308
-1.21417
-1.22511
-1.23591
-1.24657
-1.25709
-1.26746
-1.27768
-1.28777
-1.29771
-1.3075
-1.31715
-1.32666
-1.33603
-1.34526
-1.35434
-1.36329
-1.3721
-1.38077
-1.3893
-1.3977
-1.40596
-1.41409
-1.42209
-1.42996
-1.4377
-1.44531
-1.4528
-1.46016
-1.4674
-1.47452
-1.48152
-1.4884
-1.49516
-1.50181
-1.50834
-1.51476
-1.52108
-1.52728
-1.53337
-1.53936
-1.54525
-1.55103
-1.55671
-1.5623
-1.56778
-1.57317
-1.57846
-1.58367
-1.58877
-1.59379
-1.59872
-1.60356
-1.60832
-1.61299
-1.61758
-1.62209
-1.62651
-1.63086
-1.63513
-1.63932
-0.554833
-0.555253
-0.556857
-0.559402
-0.562777
-0.566968
-0.571947
-0.577662
-0.584066
-0.591117
-0.598777
-0.607007
-0.615768
-0.625025
-0.634743
-0.644889
-0.655432
-0.66634
-0.677584
-0.689136
-0.700969
-0.713058
-0.725377
-0.737904
-0.750616
-0.763492
-0.776511
-0.789654
-0.802902
-0.816239
-0.829647
-0.843111
-0.856616
-0.870148
-0.883694
-0.897241
-0.910776
-0.92429
-0.937772
-0.951211
-0.964598
-0.977925
-0.991184
-1.00437
-1.01747
-1.03048
-1.04339
-1.05621
-1.06892
-1.08152
-1.094
-1.10636
-1.1186
-1.13072
-1.14271
-1.15456
-1.16628
-1.17787
-1.18931
-1.20062
-1.21179
-1.22281
-1.2337
-1.24444
-1.25503
-1.26548
-1.27579
-1.28595
-1.29597
-1.30585
-1.31558
-1.32517
-1.33461
-1.34391
-1.35308
-1.3621
-1.37098
-1.37972
-1.38833
-1.3968
-1.40514
-1.41334
-1.42141
-1.42935
-1.43716
-1.44484
-1.45239
-1.45982
-1.46713
-1.47431
-1.48137
-1.48832
-1.49514
-1.50185
-1.50845
-1.51493
-1.5213
-1.52756
-1.53372
-1.53976
-1.54571
-1.55154
-1.55728
-1.56292
-1.56846
-1.5739
-1.57924
-1.58449
-1.58965
-1.59472
-1.5997
-1.60459
-1.60939
-1.61411
-1.61874
-1.6233
-1.62777
-1.63216
-1.63647
-1.6407
-0.549638
-0.550012
-0.551576
-0.554084
-0.557427
-0.561589
-0.566544
-0.572238
-0.578626
-0.585665
-0.593317
-0.601541
-0.610302
-0.619562
-0.629286
-0.639443
-0.649999
-0.660924
-0.672189
-0.683765
-0.695626
-0.707745
-0.720099
-0.732663
-0.745415
-0.758333
-0.771398
-0.78459
-0.79789
-0.81128
-0.824745
-0.838267
-0.851834
-0.865429
-0.87904
-0.892654
-0.906259
-0.919844
-0.933398
-0.946911
-0.960374
-0.973779
-0.987116
-1.00038
-1.01356
-1.02665
-1.03965
-1.05255
-1.06534
-1.07803
-1.09059
-1.10304
-1.11537
-1.12757
-1.13965
-1.15159
-1.1634
-1.17507
-1.1866
-1.198
-1.20925
-1.22036
-1.23133
-1.24216
-1.25284
-1.26338
-1.27377
-1.28402
-1.29412
-1.30408
-1.3139
-1.32357
-1.33309
-1.34248
-1.35172
-1.36082
-1.36979
-1.37861
-1.38729
-1.39584
-1.40425
-1.41253
-1.42068
-1.42869
-1.43657
-1.44433
-1.45195
-1.45945
-1.46683
-1.47408
-1.48121
-1.48823
-1.49512
-1.50189
-1.50856
-1.5151
-1.52154
-1.52786
-1.53408
-1.54018
-1.54619
-1.55208
-1.55788
-1.56357
-1.56917
-1.57467
-1.58007
-1.58537
-1.59058
-1.59571
-1.60074
-1.60568
-1.61053
-1.6153
-1.61998
-1.62458
-1.6291
-1.63354
-1.63789
-1.64217
-0.544148
-0.544473
-0.545993
-0.548463
-0.551771
-0.555904
-0.560832
-0.566505
-0.572875
-0.579901
-0.587543
-0.595763
-0.604522
-0.613784
-0.623515
-0.633682
-0.644253
-0.655196
-0.666482
-0.678083
-0.689973
-0.702124
-0.714513
-0.727115
-0.739909
-0.752873
-0.765986
-0.779229
-0.792582
-0.806029
-0.819553
-0.833138
-0.846768
-0.86043
-0.87411
-0.887795
-0.901473
-0.915132
-0.928763
-0.942354
-0.955897
-0.969383
-0.982803
-0.99615
-1.00942
-1.0226
-1.03568
-1.04867
-1.06155
-1.07432
-1.08698
-1.09952
-1.11194
-1.12423
-1.1364
-1.14843
-1.16033
-1.1721
-1.18372
-1.19521
-1.20656
-1.21776
-1.22882
-1.23974
-1.25051
-1.26114
-1.27163
-1.28196
-1.29216
-1.3022
-1.31211
-1.32187
-1.33148
-1.34095
-1.35028
-1.35947
-1.36851
-1.37742
-1.38619
-1.39482
-1.40331
-1.41167
-1.4199
-1.42799
-1.43595
-1.44378
-1.45148
-1.45906
-1.46651
-1.47384
-1.48104
-1.48812
-1.49509
-1.50193
-1.50866
-1.51528
-1.52178
-1.52817
-1.53445
-1.54062
-1.54669
-1.55265
-1.55851
-1.56426
-1.56992
-1.57548
-1.58093
-1.5863
-1.59157
-1.59674
-1.60183
-1.60682
-1.61173
-1.61655
-1.62129
-1.62594
-1.63051
-1.63499
-1.6394
-1.64372
-0.538367
-0.53864
-0.540115
-0.542545
-0.545816
-0.549916
-0.554817
-0.560467
-0.566818
-0.57383
-0.581462
-0.589675
-0.598433
-0.607697
-0.617435
-0.627613
-0.638197
-0.649159
-0.660467
-0.672095
-0.684013
-0.696198
-0.708624
-0.721267
-0.734104
-0.747115
-0.760278
-0.773574
-0.786984
-0.80049
-0.814076
-0.827725
-0.841423
-0.855154
-0.868906
-0.882666
-0.89642
-0.910158
-0.923869
-0.937543
-0.95117
-0.964741
-0.978248
-0.991683
-1.00504
-1.01831
-1.03149
-1.04456
-1.05754
-1.07041
-1.08316
-1.0958
-1.10831
-1.1207
-1.13296
-1.14509
-1.15709
-1.16895
-1.18068
-1.19226
-1.20371
-1.21501
-1.22617
-1.23718
-1.24805
-1.25877
-1.26935
-1.27979
-1.29007
-1.30021
-1.31021
-1.32006
-1.32977
-1.33933
-1.34875
-1.35803
-1.36716
-1.37616
-1.38501
-1.39373
-1.40231
-1.41075
-1.41906
-1.42724
-1.43528
-1.4432
-1.45098
-1.45863
-1.46616
-1.47357
-1.48085
-1.48801
-1.49505
-1.50197
-1.50877
-1.51546
-1.52203
-1.52849
-1.53484
-1.54108
-1.54722
-1.55324
-1.55917
-1.56499
-1.5707
-1.57632
-1.58184
-1.58727
-1.5926
-1.59783
-1.60298
-1.60803
-1.61299
-1.61787
-1.62266
-1.62737
-1.63199
-1.63653
-1.64099
-1.64536
-0.532301
-0.53252
-0.533948
-0.536334
-0.539566
-0.543633
-0.548504
-0.55413
-0.560461
-0.567457
-0.575078
-0.583285
-0.59204
-0.601307
-0.611051
-0.621239
-0.631838
-0.642818
-0.654149
-0.665803
-0.677753
-0.689972
-0.702436
-0.71512
-0.728003
-0.741063
-0.754278
-0.76763
-0.781098
-0.794666
-0.808316
-0.822033
-0.835801
-0.849605
-0.863432
-0.877269
-0.891103
-0.904924
-0.918719
-0.932478
-0.946193
-0.959853
-0.973451
-0.986979
-1.00043
-1.01379
-1.02707
-1.04024
-1.05332
-1.06628
-1.07914
-1.09187
-1.10449
-1.11698
-1.12934
-1.14157
-1.15367
-1.16564
-1.17746
-1.18915
-1.2007
-1.2121
-1.22336
-1.23448
-1.24545
-1.25627
-1.26695
-1.27749
-1.28787
-1.29811
-1.30821
-1.31816
-1.32796
-1.33762
-1.34713
-1.3565
-1.36573
-1.37482
-1.38377
-1.39258
-1.40125
-1.40978
-1.41818
-1.42644
-1.43457
-1.44257
-1.45044
-1.45818
-1.46579
-1.47328
-1.48064
-1.48788
-1.495
-1.50199
-1.50887
-1.51564
-1.52229
-1.52882
-1.53525
-1.54156
-1.54776
-1.55386
-1.55985
-1.56574
-1.57153
-1.57721
-1.5828
-1.58829
-1.59368
-1.59898
-1.60418
-1.6093
-1.61432
-1.61925
-1.6241
-1.62886
-1.63354
-1.63814
-1.64265
-1.64707
-0.525955
-0.526118
-0.527495
-0.529836
-0.533027
-0.537059
-0.541899
-0.547499
-0.553809
-0.560788
-0.568397
-0.576597
-0.585349
-0.594617
-0.604367
-0.614565
-0.62518
-0.636179
-0.647533
-0.659214
-0.671195
-0.68345
-0.695953
-0.708681
-0.721611
-0.73472
-0.74799
-0.761399
-0.774928
-0.78856
-0.802277
-0.816064
-0.829905
-0.843785
-0.85769
-0.871608
-0.885525
-0.899431
-0.913314
-0.927163
-0.940969
-0.954723
-0.968416
-0.98204
-0.995588
-1.00905
-1.02243
-1.0357
-1.04888
-1.06195
-1.07491
-1.08775
-1.10047
-1.11306
-1.12553
-1.13787
-1.15008
-1.16215
-1.17409
-1.18588
-1.19753
-1.20904
-1.22041
-1.23163
-1.24271
-1.25364
-1.26443
-1.27506
-1.28555
-1.2959
-1.30609
-1.31615
-1.32605
-1.33581
-1.34543
-1.3549
-1.36423
-1.37341
-1.38246
-1.39136
-1.40013
-1.40875
-1.41724
-1.4256
-1.43382
-1.44191
-1.44987
-1.45769
-1.46539
-1.47297
-1.48041
-1.48774
-1.49494
-1.50202
-1.50898
-1.51582
-1.52255
-1.52916
-1.53566
-1.54205
-1.54833
-1.5545
-1.56056
-1.56652
-1.57238
-1.57814
-1.58379
-1.58935
-1.59481
-1.60017
-1.60544
-1.61062
-1.6157
-1.6207
-1.62561
-1.63043
-1.63517
-1.63982
-1.64439
-1.64887
-0.519335
-0.519438
-0.520763
-0.523056
-0.526205
-0.530199
-0.535007
-0.540579
-0.546867
-0.553828
-0.561424
-0.569615
-0.578363
-0.587633
-0.597389
-0.607597
-0.618226
-0.629245
-0.640623
-0.652332
-0.664345
-0.676635
-0.689179
-0.701951
-0.714929
-0.728091
-0.741416
-0.754884
-0.768477
-0.782175
-0.795962
-0.809821
-0.823737
-0.837696
-0.851682
-0.865684
-0.879688
-0.893683
-0.907656
-0.921599
-0.9355
-0.949351
-0.963143
-0.976868
-0.990517
-1.00408
-1.01756
-1.03095
-1.04423
-1.05741
-1.07047
-1.08342
-1.09625
-1.10896
-1.12154
-1.13399
-1.14631
-1.1585
-1.17054
-1.18245
-1.19421
-1.20583
-1.21731
-1.22865
-1.23983
-1.25088
-1.26177
-1.27252
-1.28312
-1.29357
-1.30387
-1.31403
-1.32404
-1.33391
-1.34363
-1.3532
-1.36264
-1.37192
-1.38107
-1.39008
-1.39894
-1.40767
-1.41625
-1.42471
-1.43302
-1.44121
-1.44926
-1.45718
-1.46497
-1.47263
-1.48017
-1.48758
-1.49486
-1.50203
-1.50908
-1.516
-1.52281
-1.52951
-1.53609
-1.54256
-1.54891
-1.55516
-1.5613
-1.56734
-1.57327
-1.5791
-1.58482
-1.59045
-1.59598
-1.60141
-1.60675
-1.61199
-1.61714
-1.62221
-1.62718
-1.63206
-1.63686
-1.64158
-1.64621
-1.65074
-0.512445
-0.512486
-0.513757
-0.516
-0.519104
-0.523058
-0.527833
-0.533375
-0.539639
-0.546581
-0.554163
-0.562345
-0.571089
-0.580359
-0.59012
-0.600339
-0.610982
-0.62202
-0.633422
-0.645159
-0.657205
-0.669533
-0.682118
-0.694936
-0.707963
-0.721179
-0.734561
-0.74809
-0.761747
-0.775514
-0.789372
-0.803307
-0.817301
-0.831341
-0.845411
-0.8595
-0.873593
-0.88768
-0.901748
-0.915787
-0.929788
-0.943739
-0.957634
-0.971463
-0.985219
-0.998894
-1.01248
-1.02598
-1.03937
-1.05266
-1.06584
-1.0789
-1.09185
-1.10467
-1.11737
-1.12993
-1.14237
-1.15467
-1.16683
-1.17885
-1.19073
-1.20247
-1.21407
-1.22552
-1.23682
-1.24798
-1.25899
-1.26985
-1.28056
-1.29113
-1.30155
-1.31182
-1.32194
-1.33191
-1.34174
-1.35143
-1.36097
-1.37036
-1.37961
-1.38872
-1.39769
-1.40652
-1.41521
-1.42376
-1.43218
-1.44046
-1.44861
-1.45663
-1.46451
-1.47227
-1.4799
-1.4874
-1.49478
-1.50204
-1.50917
-1.51618
-1.52308
-1.52986
-1.53653
-1.54308
-1.54952
-1.55584
-1.56206
-1.56818
-1.57419
-1.58009
-1.58589
-1.59159
-1.5972
-1.6027
-1.60811
-1.61342
-1.61864
-1.62377
-1.62881
-1.63376
-1.63863
-1.6434
-1.6481
-1.65269
-0.50529
-0.505267
-0.50648
-0.508672
-0.511729
-0.515642
-0.52038
-0.525893
-0.532131
-0.539053
-0.546619
-0.554791
-0.56353
-0.5728
-0.582566
-0.592794
-0.603453
-0.61451
-0.625935
-0.637702
-0.649781
-0.662146
-0.674773
-0.687637
-0.700716
-0.713986
-0.727427
-0.741019
-0.754743
-0.76858
-0.782512
-0.796524
-0.810598
-0.824722
-0.838879
-0.853057
-0.867244
-0.881425
-0.895591
-0.90973
-0.923833
-0.937889
-0.95189
-0.965827
-0.979692
-0.993479
-1.00718
-1.02079
-1.0343
-1.0477
-1.061
-1.07418
-1.08725
-1.10019
-1.11301
-1.12569
-1.13825
-1.15067
-1.16295
-1.1751
-1.1871
-1.19896
-1.21068
-1.22225
-1.23367
-1.24495
-1.25607
-1.26706
-1.27789
-1.28857
-1.29911
-1.30949
-1.31973
-1.32982
-1.33977
-1.34956
-1.35921
-1.36872
-1.37808
-1.3873
-1.39638
-1.40532
-1.41411
-1.42277
-1.43129
-1.43968
-1.44793
-1.45604
-1.46403
-1.47188
-1.47961
-1.48721
-1.49468
-1.50203
-1.50926
-1.51636
-1.52335
-1.53022
-1.53697
-1.54361
-1.55013
-1.55655
-1.56285
-1.56905
-1.57513
-1.58112
-1.587
-1.59278
-1.59845
-1.60403
-1.60952
-1.6149
-1.6202
-1.6254
-1.63051
-1.63552
-1.64046
-1.6453
-1.65006
-1.65472
-0.497875
-0.497785
-0.498939
-0.501077
-0.504085
-0.507955
-0.512656
-0.518136
-0.524347
-0.531247
-0.538798
-0.546958
-0.555691
-0.564961
-0.574731
-0.584968
-0.595641
-0.606717
-0.618167
-0.629962
-0.642075
-0.654479
-0.667148
-0.68006
-0.69319
-0.706516
-0.720018
-0.733674
-0.747466
-0.761375
-0.775383
-0.789474
-0.803632
-0.817841
-0.832088
-0.846359
-0.86064
-0.87492
-0.889186
-0.903429
-0.917637
-0.931801
-0.945912
-0.959961
-0.97394
-0.987841
-1.00166
-1.01538
-1.02901
-1.04254
-1.05596
-1.06926
-1.08245
-1.09552
-1.10846
-1.12127
-1.13395
-1.1465
-1.15891
-1.17118
-1.18331
-1.19529
-1.20713
-1.21883
-1.23038
-1.24178
-1.25303
-1.26414
-1.27509
-1.2859
-1.29656
-1.30706
-1.31742
-1.32763
-1.3377
-1.34761
-1.35738
-1.367
-1.37648
-1.38581
-1.395
-1.40405
-1.41296
-1.42172
-1.43035
-1.43884
-1.4472
-1.45542
-1.46351
-1.47147
-1.4793
-1.487
-1.49457
-1.50202
-1.50934
-1.51654
-1.52362
-1.53058
-1.53742
-1.54415
-1.55077
-1.55727
-1.56366
-1.56994
-1.57611
-1.58218
-1.58814
-1.594
-1.59976
-1.60541
-1.61097
-1.61644
-1.6218
-1.62708
-1.63226
-1.63735
-1.64235
-1.64727
-1.65209
-1.65682
-0.490205
-0.490045
-0.491138
-0.493219
-0.496177
-0.500002
-0.504663
-0.51011
-0.516292
-0.52317
-0.530702
-0.538851
-0.547577
-0.556845
-0.566618
-0.576865
-0.587551
-0.598646
-0.61012
-0.621944
-0.634091
-0.646533
-0.659247
-0.672206
-0.685389
-0.698773
-0.712336
-0.726058
-0.739919
-0.753902
-0.767988
-0.78216
-0.796403
-0.810701
-0.82504
-0.839405
-0.853784
-0.868165
-0.882536
-0.896885
-0.911201
-0.925477
-0.939701
-0.953865
-0.967961
-0.981982
-0.99592
-1.00977
-1.02352
-1.03717
-1.05072
-1.06415
-1.07746
-1.09066
-1.10373
-1.11667
-1.12948
-1.14216
-1.1547
-1.1671
-1.17936
-1.19147
-1.20344
-1.21527
-1.22695
-1.23848
-1.24986
-1.2611
-1.27218
-1.28311
-1.2939
-1.30453
-1.31501
-1.32535
-1.33553
-1.34557
-1.35546
-1.3652
-1.3748
-1.38425
-1.39356
-1.40272
-1.41174
-1.42062
-1.42937
-1.43797
-1.44644
-1.45477
-1.46296
-1.47103
-1.47896
-1.48676
-1.49444
-1.50199
-1.50941
-1.51671
-1.52389
-1.53095
-1.53788
-1.54471
-1.55141
-1.558
-1.56448
-1.57085
-1.57711
-1.58327
-1.58932
-1.59526
-1.6011
-1.60684
-1.61248
-1.61802
-1.62347
-1.62882
-1.63407
-1.63924
-1.64431
-1.6493
-1.6542
-1.65899
-0.482284
-0.482053
-0.483082
-0.485105
-0.488009
-0.491787
-0.496408
-0.501818
-0.507971
-0.514824
-0.522338
-0.530473
-0.539191
-0.548456
-0.558233
-0.568488
-0.579187
-0.590301
-0.601799
-0.613652
-0.625833
-0.638315
-0.651072
-0.66408
-0.677316
-0.690758
-0.704384
-0.718172
-0.732105
-0.746163
-0.760329
-0.774584
-0.788914
-0.803303
-0.817735
-0.832198
-0.846678
-0.861163
-0.87564
-0.890098
-0.904527
-0.918916
-0.933257
-0.94754
-0.961757
-0.9759
-0.989963
-1.00394
-1.01782
-1.0316
-1.04527
-1.05883
-1.07228
-1.08561
-1.09881
-1.11189
-1.12483
-1.13764
-1.15032
-1.16285
-1.17525
-1.1875
-1.19961
-1.21157
-1.22338
-1.23504
-1.24656
-1.25793
-1.26914
-1.28021
-1.29112
-1.30188
-1.3125
-1.32296
-1.33327
-1.34344
-1.35345
-1.36332
-1.37304
-1.38262
-1.39204
-1.40133
-1.41047
-1.41947
-1.42833
-1.43705
-1.44563
-1.45407
-1.46238
-1.47056
-1.4786
-1.48651
-1.49429
-1.50194
-1.50947
-1.51687
-1.52415
-1.53131
-1.53835
-1.54527
-1.55207
-1.55876
-1.56533
-1.57179
-1.57815
-1.58439
-1.59052
-1.59655
-1.60248
-1.6083
-1.61403
-1.61965
-1.62518
-1.63061
-1.63594
-1.64119
-1.64634
-1.6514
-1.65637
-1.66124
-0.474117
-0.473812
-0.474775
-0.476737
-0.479587
-0.483316
-0.487893
-0.493267
-0.499388
-0.506215
-0.513709
-0.521829
-0.530538
-0.5398
-0.549579
-0.559841
-0.570554
-0.581686
-0.593207
-0.605089
-0.617304
-0.629825
-0.642626
-0.655684
-0.668974
-0.682475
-0.696164
-0.710021
-0.724026
-0.738161
-0.752407
-0.766748
-0.781167
-0.795648
-0.810177
-0.82474
-0.839323
-0.853914
-0.8685
-0.883071
-0.897614
-0.912121
-0.926582
-0.940987
-0.955328
-0.969598