/*--------------------------------*- C++ -*----------------------------------*\
  =========                 |
  \\      /  F ield         | OpenFOAM: The Open Source CFD Toolbox
   \\    /   O peration     | Website:  https://openfoam.org
    \\  /    A nd           | Version:  10
     \\/     M anipulation  |
\*---------------------------------------------------------------------------*/
FoamFile
{
    format      ascii;
    class       volScalarField;
    location    "0.003";
    object      nut;
}
// * * * * * * * * * * * * * * * * * * * * * * * * * * * * * * * * * * * * * //

dimensions      [0 2 -1 0 0 0 0];

internalField   nonuniform List<scalar> 
8915
(
2.85304e-08
2.85853e-08
2.86137e-08
2.87761e-08
5.8308e-08
6.06209e-08
6.14553e-08
2.95327e-08
2.98544e-08
3.0168e-08
6.10048e-08
3.06362e-08
3.10026e-08
3.13125e-08
6.26434e-08
3.19242e-08
6.35845e-08
3.2644e-08
3.31179e-08
3.35196e-08
6.54399e-08
3.4249e-08
3.47284e-08
3.51104e-08
6.6762e-08
6.87748e-08
6.92147e-08
6.95754e-08
7.03849e-08
3.71191e-08
3.74951e-08
3.7761e-08
3.7981e-08
3.81781e-08
3.83497e-08
7.04829e-08
7.26106e-08
3.85433e-08
3.86663e-08
7.13459e-08
7.2908e-08
7.30282e-08
7.30816e-08
7.30994e-08
7.309e-08
7.30394e-08
7.29313e-08
7.2752e-08
7.25041e-08
7.21698e-08
7.17352e-08
7.11904e-08
7.05364e-08
6.97668e-08
6.88698e-08
6.78445e-08
6.66948e-08
6.54207e-08
6.40308e-08
6.25219e-08
6.08847e-08
5.91143e-08
5.72109e-08
5.51716e-08
5.30598e-08
5.09193e-08
4.86642e-08
4.63122e-08
4.3888e-08
4.1417e-08
3.89177e-08
3.64056e-08
3.38962e-08
3.14024e-08
2.89373e-08
2.64973e-08
2.38632e-08
2.13547e-08
1.8989e-08
1.67778e-08
1.47366e-08
1.28853e-08
1.11876e-08
9.61937e-09
8.16161e-09
6.81021e-09
5.57636e-09
4.45559e-09
3.43687e-09
2.45629e-09
1.90065e-09
1.50131e-09
1.18378e-09
9.49432e-10
7.90622e-10
6.88219e-10
6.01895e-10
5.11355e-10
4.49629e-10
3.93086e-10
4.33805e-10
4.3453e-10
4.23352e-10
4.07445e-10
3.84335e-10
3.53729e-10
3.2164e-10
2.97062e-10
2.98326e-10
3.39822e-10
4.18585e-10
5.10079e-10
5.96284e-10
6.49166e-10
5.70308e-10
3.73198e-10
4.21041e-10
8.59337e-10
1.40699e-09
1.7852e-09
1.93025e-09
2.0587e-09
2.46683e-09
3.39857e-09
6.79733e-09
1.07661e-08
8.00452e-09
1.41496e-08
7.46531e-06
7.44069e-06
7.448e-06
7.51234e-06
7.9101e-06
8.02817e-06
8.10972e-06
7.87959e-06
7.97225e-06
8.10121e-06
8.55099e-06
8.35152e-06
8.45844e-06
8.59049e-06
9.07283e-06
8.90388e-06
9.38576e-06
9.22537e-06
9.38377e-06
9.56019e-06
1.00919e-05
9.94711e-06
1.01114e-05
1.02808e-05
1.07981e-05
1.09801e-05
1.11467e-05
1.13088e-05
1.14679e-05
1.12562e-05
1.13764e-05
1.14889e-05
1.15836e-05
1.16596e-05
1.17171e-05
1.21195e-05
1.2158e-05
1.17989e-05
1.17713e-05
1.21005e-05
1.20511e-05
1.19642e-05
1.18569e-05
1.17334e-05
1.15933e-05
1.14371e-05
1.12648e-05
1.10732e-05
1.08629e-05
1.06387e-05
1.04025e-05
1.01546e-05
9.89485e-06
9.6233e-06
9.33657e-06
9.0378e-06
8.72975e-06
8.41509e-06
8.09452e-06
7.76968e-06
7.44019e-06
7.10576e-06
6.76832e-06
6.42891e-06
6.09302e-06
5.75986e-06
5.42587e-06
5.09547e-06
4.77267e-06
4.45881e-06
4.15517e-06
3.86209e-06
3.57957e-06
3.30775e-06
3.04626e-06
2.79539e-06
2.55579e-06
2.3292e-06
2.11709e-06
1.92127e-06
1.74361e-06
1.58417e-06
1.43975e-06
1.30612e-06
1.17981e-06
1.05985e-06
9.4804e-07
8.44905e-07
7.49298e-07
6.60433e-07
5.84374e-07
5.1561e-07
4.51984e-07
3.93239e-07
3.40195e-07
2.9334e-07
2.5167e-07
2.13874e-07
1.80215e-07
1.50344e-07
1.24774e-07
1.03908e-07
8.5419e-08
7.08649e-08
5.87388e-08
4.82273e-08
3.96898e-08
3.34584e-08
3.09264e-08
3.29392e-08
3.80535e-08
4.41796e-08
5.28908e-08
7.04644e-08
9.06903e-08
1.10678e-07
1.29993e-07
1.46008e-07
1.56074e-07
1.55924e-07
1.56123e-07
1.74067e-07
2.43447e-07
4.15418e-07
8.46253e-07
1.85902e-06
4.1575e-06
8.28309e-06
8.02762e-05
8.01925e-05
8.02198e-05
8.0635e-05
8.12545e-05
8.18796e-05
8.23579e-05
8.28518e-05
8.35202e-05
8.43283e-05
8.51285e-05
8.5769e-05
8.64898e-05
8.72938e-05
8.819e-05
8.906e-05
8.99803e-05
9.09056e-05
9.18765e-05
9.28814e-05
9.39041e-05
9.49301e-05
9.589e-05
9.68119e-05
9.76806e-05
9.85524e-05
9.94017e-05
0.000100229
0.000101012
0.000101774
0.000102445
0.000103005
0.000103474
0.000103845
0.000104136
0.000104288
0.000104389
0.000104457
0.000104389
0.000104161
0.000103849
0.00010341
0.00010287
0.000102246
0.000101534
0.000100735
9.98471e-05
9.8851e-05
9.77457e-05
9.6554e-05
9.52827e-05
9.393e-05
9.24914e-05
9.09669e-05
8.93418e-05
8.7618e-05
8.58055e-05
8.39155e-05
8.1947e-05
7.99062e-05
7.77854e-05
7.55775e-05
7.32896e-05
7.09235e-05
6.85127e-05
6.60464e-05
6.34952e-05
6.08885e-05
5.82563e-05
5.56088e-05
5.29584e-05
5.03095e-05
4.76648e-05
4.50281e-05
4.23988e-05
3.97832e-05
3.71992e-05
3.46656e-05
3.2208e-05
2.98605e-05
2.76615e-05
2.56264e-05
2.37302e-05
2.19268e-05
2.01746e-05
1.84642e-05
1.68288e-05
1.52851e-05
1.38246e-05
1.24623e-05
1.12159e-05
1.00439e-05
8.93257e-06
7.88152e-06
6.90903e-06
6.0302e-06
5.23193e-06
4.49353e-06
3.82259e-06
3.21438e-06
2.67684e-06
2.21604e-06
1.81246e-06
1.47165e-06
1.19077e-06
9.54295e-07
7.66355e-07
6.29655e-07
5.63165e-07
5.6237e-07
6.17382e-07
7.4009e-07
9.73317e-07
1.33576e-06
1.77406e-06
2.18904e-06
2.54659e-06
2.80636e-06
2.95493e-06
2.92909e-06
2.93048e-06
3.29042e-06
4.67895e-06
7.9595e-06
1.52952e-05
3.07039e-05
5.56272e-05
8.42414e-05
0.000134163
0.000133841
0.000133685
0.000134102
0.000134713
0.000135463
0.000136025
0.000136741
0.000137605
0.000138671
0.000139638
0.000140588
0.000141575
0.000142678
0.000143833
0.000145132
0.000146356
0.000147749
0.000149148
0.000150599
0.000152027
0.000153603
0.000155051
0.000156456
0.000157759
0.000159135
0.00016051
0.000161875
0.000163207
0.000164574
0.000165805
0.000166909
0.00016791
0.000168808
0.000169617
0.000170231
0.000170828
0.000171442
0.000171866
0.000172049
0.000172163
0.000172125
0.00017196
0.000171692
0.00017132
0.000170839
0.000170242
0.000169501
0.000168615
0.00016761
0.0001665
0.000165283
0.000163957
0.00016252
0.000160945
0.000159233
0.000157399
0.000155456
0.000153406
0.000151252
0.000148979
0.000146574
0.000144049
0.000141406
0.000138657
0.000135767
0.000132705
0.000129522
0.00012627
0.000122972
0.000119646
0.0001163
0.000112934
0.000109547
0.000106122
0.000102657
9.91652e-05
9.56458e-05
9.20961e-05
8.85216e-05
8.4929e-05
8.13124e-05
7.76567e-05
7.39422e-05
7.01462e-05
6.62702e-05
6.23401e-05
5.83948e-05
5.44956e-05
5.0716e-05
4.70871e-05
4.35125e-05
3.99569e-05
3.64289e-05
3.30001e-05
2.9755e-05
2.66624e-05
2.36565e-05
2.07851e-05
1.80502e-05
1.5512e-05
1.32191e-05
1.11184e-05
9.23557e-06
7.58532e-06
6.16728e-06
4.99533e-06
4.12766e-06
3.69261e-06
3.66523e-06
3.99131e-06
4.75295e-06
6.18854e-06
8.26473e-06
1.06681e-05
1.28508e-05
1.46078e-05
1.59119e-05
1.6854e-05
1.70692e-05
1.74231e-05
1.95613e-05
2.66779e-05
4.13331e-05
6.73998e-05
0.00010622
0.000152882
0.000182952
0.000177145
0.000176398
0.000175923
0.000176231
0.000176832
0.000177605
0.00017814
0.000178869
0.000179832
0.000181074
0.000182245
0.000183324
0.00018451
0.000185854
0.000187328
0.000188903
0.00019049
0.000192212
0.000194004
0.000195878
0.000197803
0.000199827
0.00020176
0.000203663
0.000205529
0.000207454
0.000209403
0.000211369
0.000213325
0.000215291
0.00021718
0.00021895
0.000220618
0.000222193
0.000223684
0.000225041
0.00022634
0.000227608
0.000228743
0.000229689
0.000230489
0.000231116
0.000231601
0.000231974
0.000232239
0.000232383
0.000232391
0.000232223
0.000231875
0.000231379
0.000230752
0.000229997
0.000229111
0.000228092
0.000226898
0.000225528
0.000224003
0.000222341
0.000220545
0.000218616
0.000216531
0.000214273
0.000211856
0.000209285
0.000206548
0.00020358
0.000200351
0.000196937
0.000193416
0.000189832
0.000186211
0.00018257
0.000178912
0.000175235
0.000171512
0.000167743
0.000163946
0.00016012
0.000156255
0.000152359
0.000148436
0.000144477
0.000140472
0.000136399
0.000132223
0.000127933
0.000123517
0.000118963
0.000114248
0.000109365
0.000104319
9.90607e-05
9.3616e-05
8.80282e-05
8.24022e-05
7.67481e-05
7.10404e-05
6.52308e-05
5.9403e-05
5.35543e-05
4.78225e-05
4.23682e-05
3.70593e-05
3.19933e-05
2.72646e-05
2.29691e-05
1.91109e-05
1.61052e-05
1.45406e-05
1.44167e-05
1.554e-05
1.81442e-05
2.26415e-05
2.863e-05
3.50305e-05
4.0433e-05
4.46043e-05
4.7825e-05
5.06414e-05
5.21118e-05
5.39583e-05
6.00666e-05
7.62465e-05
0.000104281
0.000145048
0.000197522
0.000239866
0.000260176
0.000213535
0.000212223
0.000211345
0.000211508
0.000212037
0.000212782
0.000213212
0.000213908
0.00021493
0.000216316
0.000217639
0.000218802
0.000220153
0.000221709
0.000223465
0.000225295
0.000227208
0.000229246
0.000231409
0.000233688
0.000236078
0.000238548
0.000240948
0.000243337
0.000245737
0.000248202
0.000250721
0.000253284
0.000255863
0.000258451
0.000261006
0.000263449
0.000265796
0.000268065
0.000270263
0.000272368
0.000274403
0.000276389
0.000278286
0.000280029
0.000281578
0.000282943
0.000284159
0.000285266
0.000286269
0.000287151
0.00028789
0.000288427
0.000288761
0.000288927
0.000288943
0.000288817
0.000288549
0.000288133
0.000287511
0.000286679
0.000285663
0.000284487
0.000283155
0.000281664
0.000279982
0.00027808
0.000275979
0.000273686
0.000271158
0.000268284
0.000265036
0.000261519
0.000257847
0.000254087
0.000250283
0.000246462
0.000242633
0.000238794
0.00023491
0.000230982
0.00022704
0.00022308
0.00021909
0.000215079
0.000211053
0.000206996
0.000202906
0.000198766
0.000194534
0.000190206
0.000185757
0.000181168
0.000176395
0.000171418
0.000166237
0.000160776
0.000155017
0.000148905
0.000142453
0.000135624
0.000128466
0.000120999
0.000113326
0.000105404
9.73217e-05
8.91585e-05
8.08915e-05
7.25843e-05
6.43837e-05
5.65161e-05
4.89695e-05
4.27107e-05
3.92563e-05
3.89208e-05
4.12993e-05
4.65907e-05
5.48953e-05
6.52473e-05
7.55661e-05
8.3794e-05
8.99555e-05
9.49953e-05
0.000100124
0.000103815
0.000108179
0.000118667
0.000142032
0.000178562
0.00022883
0.000283521
0.000314259
0.000327809
0.00024561
0.000243572
0.00024222
0.000242237
0.000242645
0.000243325
0.00024356
0.000244193
0.000245247
0.000246763
0.000248186
0.000249388
0.000250879
0.000252627
0.000254635
0.000256706
0.000258911
0.000261258
0.000263776
0.000266446
0.000269274
0.000272192
0.00027504
0.0002779
0.000280807
0.000283803
0.000286882
0.000290036
0.00029323
0.00029645
0.000299669
0.000302779
0.000305802
0.000308763
0.000311669
0.000314509
0.000317284
0.000320017
0.000322693
0.000325234
0.000327551
0.000329679
0.000331659
0.00033354
0.00033533
0.000337005
0.000338538
0.000339851
0.000340946
0.000341863
0.000342622
0.000343233
0.0003437
0.000344018
0.000344104
0.000343954
0.000343602
0.000343074
0.00034238
0.000341511
0.000340419
0.000339065
0.000337476
0.000335657
0.000333523
0.000330906
0.000327769
0.000324254
0.000320517
0.000316655
0.000312731
0.000308787
0.00030484
0.00030089
0.000296889
0.000292844
0.000288796
0.000284742
0.000280665
0.000276577
0.000272485
0.000268368
0.00026423
0.000260056
0.000255805
0.000251478
0.000247045
0.000242482
0.000237734
0.000232779
0.000227632
0.000222214
0.000216506
0.000210426
0.000203955
0.000196994
0.000189521
0.000181446
0.000172833
0.000163713
0.000154258
0.000144525
0.000134521
0.000124298
0.000113805
0.00010326
9.27258e-05
8.35561e-05
7.82641e-05
7.76273e-05
8.10055e-05
8.83692e-05
9.92136e-05
0.000112285
0.000124858
0.000134604
0.000141814
0.00014819
0.000155631
0.000161966
0.000169343
0.000184152
0.000213219
0.000257125
0.000315305
0.000360734
0.000382087
0.000390826
0.000275759
0.000272819
0.000272014
0.000271766
0.000271868
0.000271449
0.000271657
0.000272471
0.000273873
0.000275187
0.000276354
0.000277966
0.000279887
0.000282131
0.000284418
0.000286889
0.000289533
0.000292394
0.000295441
0.000298692
0.000302053
0.000305327
0.000308643
0.000312039
0.000315557
0.00031919
0.000322931
0.000326735
0.000330589
0.000334469
0.000338237
0.00034193
0.00034558
0.000349195
0.000352763
0.000356281
0.000359774
0.000363239
0.00036658
0.000369672
0.000372574
0.000375337
0.000378014
0.000380619
0.00038312
0.000385487
0.000387617
0.000389518
0.000391243
0.000392807
0.000394227
0.000395509
0.000396648
0.000397537
0.000398172
0.000398596
0.000398842
0.00039892
0.000398821
0.000398477
0.000397834
0.000396929
0.000395765
0.000394204
0.000392
0.000389105
0.000385706
0.000382001
0.00037812
0.000374151
0.000370152
0.00036615
0.000362149
0.000358082
0.000353966
0.000349856
0.000345748
0.000341619
0.000337487
0.000333361
0.000329209
0.000325043
0.000320851
0.000316587
0.000312266
0.000307847
0.000303308
0.00029857
0.000293623
0.000288494
0.000283109
0.000277459
0.000271454
0.000265074
0.000258206
0.000250817
0.000242759
0.000234025
0.000224514
0.000214287
0.000203422
0.000192116
0.000180529
0.000168572
0.000156346
0.000143956
0.000132902
0.000126262
0.000125248
0.00012905
0.000137386
0.000149211
0.000163511
0.000177214
0.00018777
0.000195519
0.000203036
0.000213002
0.000222536
0.00023363
0.000253264
0.0002889
0.00034189
0.000396817
0.000432532
0.000446438
0.000452145
0.000325686
0.000319326
0.00031445
0.000310309
0.000306961
0.0003039
0.000302182
0.000301787
0.000302292
0.000302813
0.000303332
0.000304566
0.000306257
0.000308366
0.000310532
0.000312962
0.000315635
0.000318589
0.000321787
0.000325246
0.000328886
0.000332552
0.000336308
0.000340178
0.000344213
0.000348392
0.000352718
0.000357125
0.000361611
0.000366153
0.000370569
0.000374925
0.00037926
0.000383583
0.000387877
0.00039214
0.000396404
0.000400666
0.000404814
0.000408682
0.000412366
0.000415925
0.000419416
0.000422857
0.000426209
0.000429438
0.000432411
0.00043515
0.00043772
0.000440137
0.000442414
0.000444567
0.000446592
0.00044835
0.000449842
0.000451124
0.000452233
0.000453185
0.000453967
0.00045449
0.000454687
0.000454604
0.000454245
0.000453405
0.000451747
0.000449209
0.000446026
0.000442445
0.00043863
0.000434693
0.000430712
0.000426726
0.000422741
0.000418666
0.000414532
0.000410414
0.000406302
0.000402167
0.000398038
0.00039392
0.000389771
0.000385614
0.000381433
0.000377181
0.000372885
0.000368495
0.000363989
0.000359257
0.000354306
0.000349178
0.0003438
0.000338179
0.000332223
0.000325919
0.000319153
0.000311904
0.000304006
0.000295448
0.000286064
0.00027584
0.000264692
0.000252657
0.000239885
0.000226526
0.000212812
0.000198852
0.000186269
0.000178533
0.000177044
0.00018088
0.000189563
0.00020165
0.000216591
0.000231052
0.000242201
0.000250373
0.000259152
0.000272115
0.000285561
0.000301323
0.000327399
0.000371401
0.000427268
0.000474551
0.000501048
0.000509338
0.000514119
0.000394986
0.000385332
0.000376896
0.00036924
0.00036244
0.000356217
0.000350874
0.00034649
0.000342957
0.000340009
0.000337754
0.000336968
0.000337235
0.000338217
0.000339435
0.000341128
0.000343255
0.000345803
0.000348715
0.000351996
0.000355559
0.000359254
0.000363122
0.000367166
0.000371442
0.000375912
0.000380581
0.000385359
0.000390255
0.000395246
0.000400226
0.000405235
0.000410249
0.000415281
0.000420299
0.00042531
0.00043035
0.00043542
0.000440382
0.000445024
0.000449493
0.000453858
0.000458181
0.000462477
0.000466703
0.000470818
0.000474655
0.000478253
0.000481699
0.000485004
0.00048818
0.000491249
0.000494212
0.000496887
0.000499289
0.000501489
0.000503532
0.000505434
0.000507183
0.000508666
0.000509797
0.000510643
0.000511206
0.000511205
0.000510191
0.000508092
0.000505204
0.000501822
0.000498145
0.000494308
0.000490413
0.000486509
0.000482606
0.000478578
0.000474479
0.000470406
0.000466343
0.000462251
0.000458173
0.000454112
0.00045001
0.000445907
0.000441778
0.000437571
0.000433334
0.000428998
0.000424551
0.000419833
0.000414883
0.000409752
0.000404372
0.000398764
0.000392835
0.000386581
0.000379891
0.000372766
0.000365031
0.000356698
0.000347569
0.000337632
0.000326716
0.000314784
0.00030183
0.000287794
0.000272868
0.000257256
0.000242982
0.000234034
0.000231911
0.0002356
0.00024441
0.000256481
0.000271843
0.000286914
0.000298522
0.000306984
0.000317183
0.000333743
0.000352142
0.00037393
0.000408411
0.000460067
0.000510498
0.000549683
0.000567905
0.000572541
0.000579049
0.000482349
0.000469558
0.00045794
0.000447148
0.00043721
0.000428068
0.000419551
0.00041181
0.000404761
0.000398415
0.00039269
0.000388047
0.000384381
0.000381612
0.000379595
0.000378665
0.000378756
0.000379668
0.000381281
0.000383537
0.000386284
0.00038934
0.000392728
0.000396423
0.000400473
0.000404815
0.00040944
0.000414231
0.0004192
0.000424329
0.000429553
0.000434902
0.000440305
0.000445766
0.000451242
0.000456745
0.000462319
0.000467964
0.000473568
0.000478966
0.000484221
0.000489401
0.000494571
0.000499743
0.000504861
0.000509889
0.000514602
0.000519076
0.000523425
0.000527649
0.000531759
0.000535784
0.000539732
0.000543363
0.000546717
0.000549886
0.000552918
0.000555834
0.000558623
0.000561137
0.000563277
0.000565136
0.000566717
0.000567642
0.000567336
0.000565725
0.000563183
0.000560055
0.000556572
0.000552893
0.000549141
0.000545377
0.000541613
0.000537678
0.000533661
0.000529686
0.000525721
0.000521717
0.000517741
0.000513786
0.000509777
0.000505775
0.000501742
0.000497622
0.000493486
0.00048924
0.00048489
0.000480203
0.000475269
0.000470148
0.000464771
0.000459175
0.000453267
0.000447047
0.000440413
0.000433384
0.000425781
0.000417652
0.000408772
0.000399161
0.000388592
0.000377024
0.000364377
0.000350471
0.000335446
0.000319246
0.000303626
0.000293445
0.000290552
0.000294013
0.00030285
0.000314707
0.00033026
0.000345728
0.000357567
0.000366055
0.000377762
0.000398584
0.000423199
0.000452688
0.000497368
0.000548867
0.000591994
0.000623062
0.000634421
0.000637838
0.000649369
0.000585212
0.00056942
0.000554877
0.000541219
0.00052847
0.000516692
0.000505408
0.000494824
0.000484839
0.000475618
0.000466991
0.000459246
0.000452369
0.000446234
0.000440636
0.000435823
0.000431941
0.00042911
0.000427478
0.000427042
0.00042754
0.00042871
0.000430529
0.00043294
0.000435938
0.00043943
0.000443356
0.000447563
0.000452057
0.000456822
0.000461815
0.000467049
0.000472419
0.000477909
0.000483468
0.000489111
0.000494886
0.000500796
0.000506728
0.000512545
0.000518268
0.000523964
0.0005297
0.000535478
0.000541224
0.000546904
0.000552403
0.000557762
0.000563038
0.00056821
0.000573287
0.000578305
0.000583285
0.000587901
0.000592242
0.000596423
0.000600497
0.000604485
0.000608376
0.000611984
0.000615191
0.000618133
0.000620815
0.000622735
0.000623167
0.000622062
0.000619891
0.000617053
0.000613803
0.000610327
0.000606767
0.000603193
0.000599621
0.000595816
0.000591919
0.000588092
0.000584271
0.000580398
0.000576573
0.000572775
0.000568903
0.000565056
0.000561167
0.000557178
0.000553196
0.000549083
0.000544878
0.000540244
0.000535356
0.00053027
0.00052492
0.000519353
0.000513476
0.000507291
0.000500704
0.000493755
0.000486254
0.000478296
0.000469618
0.000460301
0.000450051
0.000438864
0.000426608
0.000413029
0.000398308
0.000382176
0.000366511
0.00035585
0.000352807
0.000356676
0.000365911
0.000377928
0.000393492
0.000409022
0.000420788
0.000428912
0.000442116
0.000467972
0.000500404
0.000539743
0.000592568
0.000638409
0.000673274
0.000695955
0.000702337
0.000707581
0.000728174
0.000682504
0.00066517
0.000648784
0.000633455
0.000619257
0.000605495
0.000592391
0.000579888
0.000568198
0.000557116
0.000546876
0.000537475
0.000528719
0.000520308
0.000512462
0.00050534
0.000499066
0.00049379
0.000489598
0.000486375
0.000484094
0.000482865
0.000482682
0.000483466
0.000485091
0.000487396
0.000490179
0.000493419
0.000497112
0.000501213
0.000505701
0.000510455
0.000515411
0.000520525
0.000525811
0.000531318
0.00053706
0.00054289
0.00054869
0.000554465
0.000560285
0.000566222
0.000572259
0.000578296
0.000584302
0.000590239
0.000596142
0.000602022
0.000607831
0.000613571
0.000619292
0.000625024
0.000630567
0.000635921
0.000641156
0.00064632
0.000651432
0.000656488
0.000661242
0.000665564
0.000669652
0.00067351
0.000676481
0.00067765
0.000677031
0.000675232
0.0006727
0.000669709
0.00066647
0.000663143
0.000659804
0.000656475
0.000652824
0.000649083
0.000645453
0.000641821
0.000638119
0.000634498
0.000630909
0.000627218
0.000623586
0.000619893
0.000616086
0.000612319
0.00060839
0.000604392
0.000600053
0.000595464
0.000590662
0.000585579
0.000580264
0.000574626
0.000568674
0.000562317
0.00055561
0.000548376
0.000540723
0.000532409
0.000523524
0.000513802
0.00050323
0.00049168
0.000478888
0.000464978
0.000449642
0.000434592
0.000424015
0.000421251
0.000425973
0.000436127
0.000448768
0.000464101
0.000479125
0.000490236
0.00049729
0.000511801
0.000543421
0.000585516
0.000637595
0.000692849
0.000729659
0.000755234
0.000769805
0.000773543
0.000784396
0.000818936
0.00080711
0.000787034
0.000767962
0.000750192
0.000733704
0.000717625
0.000702163
0.000687395
0.000673492
0.000660238
0.000647896
0.000636432
0.000625575
0.000614885
0.000604664
0.00059507
0.000586215
0.000578215
0.000571107
0.00056464
0.000558787
0.000553831
0.000550034
0.000547502
0.000546212
0.000545924
0.000546376
0.000547526
0.000549387
0.000551891
0.000554966
0.00055847
0.000562268
0.00056634
0.000570694
0.00057538
0.000580437
0.000585646
0.000590899
0.000596209
0.000601663
0.00060734
0.000613196
0.00061909
0.000624998
0.000630948
0.000636983
0.000643075
0.000649137
0.000655173
0.000661247
0.000667399
0.000673498
0.000679498
0.000685437
0.000691355
0.000697271
0.000703179
0.000708924
0.000714392
0.000719684
0.000724791
0.000728856
0.000730721
0.000730526
0.000729074
0.000726846
0.000724127
0.00072115
0.000718091
0.00071503
0.000711989
0.000708739
0.000705439
0.000702284
0.000699136
0.000695919
0.000692798
0.000689715
0.00068652
0.000683389
0.000680189
0.000676864
0.00067357
0.000670097
0.000666538
0.000662683
0.000658561
0.000654196
0.000649514
0.000644564
0.000639259
0.000633618
0.000627555
0.000621136
0.000614211
0.000606887
0.000598979
0.00059056
0.00058144
0.000571583
0.000560894
0.000549135
0.000536347
0.000522267
0.000508323
0.000498425
0.000496402
0.000502329
0.000514271
0.000528519
0.000543758
0.000557522
0.000567105
0.000571997
0.000587382
0.000625385
0.000679228
0.00074595
0.00079662
0.00082268
0.000838259
0.000845846
0.000849929
0.000870993
0.000925299
0.000947809
0.000923719
0.000900765
0.000879312
0.000859363
0.00084048
0.000822686
0.000805788
0.000789807
0.000774537
0.000760334
0.000747094
0.00073447
0.000721802
0.000709606
0.000698017
0.000687156
0.000677117
0.000667905
0.000659067
0.000650515
0.000642586
0.000635572
0.000629639
0.000624946
0.000621339
0.000618636
0.00061691
0.000616227
0.0006165
0.000617589
0.000619307
0.000621419
0.000623939
0.000626868
0.000630257
0.000634185
0.000638296
0.000642503
0.000646847
0.000651442
0.00065639
0.000661602
0.000666875
0.00067221
0.0006777
0.000683406
0.000689259
0.000695124
0.000701017
0.000707027
0.000713198
0.000719433
0.000725659
0.000731897
0.000738187
0.000744541
0.000750946
0.000757301
0.000763514
0.000769629
0.000775629
0.00078055
0.000783093
0.000783466
0.000782583
0.000780927
0.00077878
0.000776381
0.000773911
0.000771451
0.000769025
0.000766475
0.000763915
0.000761511
0.000759126
0.000756679
0.000754315
0.000751976
0.000749523
0.000747101
0.000744593
0.000741941
0.000739269
0.000736397
0.000733387
0.000730086
0.000726475
0.000722572
0.000718299
0.000713703
0.000708701
0.000703329
0.000697503
0.000691305
0.000684617
0.000677541
0.000669962
0.000661933
0.000653357
0.000644176
0.000634345
0.000623665
0.000612118
0.000599517
0.00058702
0.0005783
0.000577474
0.000584959
0.000599522
0.000616844
0.000633332
0.000645356
0.000652254
0.000653407
0.000668908
0.000713688
0.000781786
0.000859887
0.000902808
0.00091737
0.000922694
0.000925275
0.000933432
0.000970026
0.00105109
0.00111118
0.00108226
0.0010546
0.00102863
0.00100439
0.000981625
0.000960306
0.000940117
0.000920882
0.000902466
0.000885274
0.000869192
0.000854102
0.000839556
0.000825612
0.000812311
0.000799792
0.000788138
0.000777346
0.000766704
0.00075609
0.000745964
0.000736604
0.000728129
0.000720679
0.000714007
0.000707918
0.000702791
0.000698918
0.000696317
0.000694864
0.000694296
0.000694247
0.000694786
0.000695904
0.00069765
0.000700162
0.000702842
0.000705641
0.000708648
0.000712021
0.000715899
0.000720116
0.000724374
0.000728723
0.000733341
0.000738312
0.000743509
0.000748739
0.000754046
0.00075956
0.00076533
0.000771263
0.000777266
0.000783364
0.000789598
0.000795982
0.000802486
0.000809038
0.000815568
0.000822096
0.000828601
0.000834119
0.000837335
0.000838456
0.000838398
0.000837607
0.000836345
0.000834836
0.000833257
0.000831688
0.000830159
0.000828563
0.000826977
0.000825527
0.000824095
0.0008226
0.000821141
0.000819673
0.000818076
0.000816446
0.000814698
0.00081277
0.000810742
0.00080848
0.000806002
0.00080321
0.000800045
0.000796525
0.000792568
0.000788222
0.000783409
0.000778184
0.000772467
0.000766354
0.000759761
0.00075279
0.00074539
0.000737607
0.000729429
0.000720794
0.000711703
0.00070201
0.000691666
0.00068057
0.000669671
0.000662468
0.000663103
0.000672382
0.000689985
0.000711631
0.0007317
0.000743485
0.000746481
0.000741684
0.000756134
0.000807676
0.000893483
0.000975913
0.00101087
0.00101364
0.00100895
0.00100929
0.00102599
0.00108376
0.00119556
0.00139474
0.00129977
0.00126558
0.00123274
0.00120181
0.00117284
0.00114565
0.00112018
0.00109607
0.00107287
0.00105059
0.00102969
0.00101005
0.000991629
0.0009741
0.000957315
0.000941234
0.000926033
0.000911794
0.000898524
0.000885878
0.000873524
0.00086168
0.000850575
0.00084029
0.000830926
0.000822053
0.000813253
0.000805137
0.000798088
0.000792274
0.000787775
0.000784345
0.000781531
0.000779566
0.000778431
0.000778181
0.000779057
0.000780021
0.000781128
0.000782527
0.000784446
0.00078707
0.000790098
0.000793083
0.000796174
0.000799655
0.000803634
0.000807898
0.000812165
0.000816543
0.000821222
0.000826248
0.000831508
0.00083689
0.000842442
0.00084822
0.000854238
0.000860446
0.000866781
0.000873201
0.000879721
0.000886325
0.00089216
0.000896026
0.000898061
0.000899042
0.000899355
0.000899215
0.000898821
0.000898333
0.000897834
0.000897359
0.00089685
0.000896344
0.000895923
0.0008955
0.000894997
0.000894459
0.000893855
0.000893095
0.000892218
0.000891179
0.00088991
0.000888449
0.000886705
0.00088466
0.000882258
0.000879408
0.000876135
0.000872352
0.000868114
0.000863342
0.000858112
0.000852349
0.000846164
0.000839502
0.000832473
0.000825077
0.000817368
0.000809406
0.000801137
0.000792608
0.000783727
0.000774445
0.000764744
0.000755424
0.000749879
0.000751984
0.000763098
0.000783675
0.000810096
0.000835248
0.00085099
0.000850454
0.000837109
0.00084863
0.000906269
0.00101256
0.00109269
0.00112067
0.00111125
0.00109773
0.00109914
0.00112944
0.00121517
0.00136701
0.00163711
0.00147401
0.00143572
0.00139961
0.00136574
0.00133395
0.0013041
0.00127586
0.00124837
0.0012219
0.00119698
0.00117345
0.0011513
0.00113026
0.00111002
0.00109052
0.001072
0.00105455
0.00103816
0.00102267
0.0010076
0.000993103
0.000979404
0.000966544
0.000954609
0.000943342
0.000932455
0.000922154
0.00091273
0.000904306
0.000897028
0.000890574
0.000884466
0.000879355
0.000875338
0.000872532
0.000871458
0.00087027
0.000869298
0.000868763
0.000868989
0.000870234
0.000871953
0.00087346
0.000875098
0.000877296
0.000880173
0.000883373
0.000886476
0.000889719
0.000893364
0.000897445
0.000901796
0.000906278
0.000910991
0.000916015
0.000921364
0.000926955
0.00093273
0.000938676
0.000944818
0.000951153
0.000957024
0.000961455
0.000964464
0.000966579
0.000968087
0.000969148
0.000969928
0.000970573
0.000971166
0.00097175
0.000972308
0.000972846
0.000973401
0.000973921
0.000974326
0.000974615
0.000974771
0.000974733
0.000974493
0.000974036
0.000973298
0.000972275
0.000970916
0.00096917
0.000967013
0.000964331
0.000961155
0.000957401
0.000953125
0.000948251
0.000942872
0.000936916
0.000930511
0.000923625
0.000916379
0.000908817
0.000901006
0.000893067
0.000884967
0.000876792
0.000868511
0.000860094
0.000851594
0.000843715
0.00083978
0.000843205
0.000855926
0.000879057
0.000909674
0.000940266
0.000962768
0.00096442
0.000940154
0.000945839
0.00100807
0.00113277
0.00120936
0.00123178
0.00121048
0.00119015
0.00119606
0.0012451
0.00136586
0.00157342
0.00191256
0.00170682
0.0016628
0.0016214
0.00158258
0.00154616
0.00151187
0.00147957
0.00144766
0.00141691
0.00138793
0.0013605
0.00133457
0.00130989
0.00128601
0.00126283
0.00124074
0.00121982
0.00120004
0.00118133
0.001163
0.00114532
0.0011285
0.00111257
0.0010976
0.00108337
0.00106966
0.00105655
0.00104426
0.00103287
0.00102249
0.00101287
0.00100378
0.000995523
0.000988244
0.000982285
0.00097884
0.000974749
0.000971026
0.000967985
0.00096609
0.000965748
0.000965969
0.000965681
0.000965615
0.000966393
0.000968112
0.000970178
0.000971955
0.000973933
0.000976448
0.0009795
0.000982826
0.000986241
0.000989944
0.000994042
0.000998543
0.00100331
0.00100829
0.00101351
0.00101901
0.0010248
0.00103045
0.00103528
0.00103916
0.00104232
0.00104493
0.00104708
0.00104892
0.00105058
0.00105214
0.00105367
0.00105515
0.00105659
0.00105798
0.0010593
0.00106045
0.00106141
0.00106218
0.0010627
0.00106294
0.00106292
0.00106257
0.00106185
0.00106073
0.00105916
0.00105711
0.00105446
0.00105125
0.00104739
0.00104296
0.00103786
0.00103221
0.00102594
0.00101919
0.00101194
0.00100434
0.000996455
0.000988377
0.000980275
0.000972145
0.000964105
0.000956192
0.000948411
0.000940875
0.000934224
0.000931716
0.00093621
0.000950142
0.000975159
0.00100907
0.00104457
0.00107404
0.0010836
0.0010515
0.00104711
0.00111184
0.00125025
0.00132502
0.00134349
0.00131182
0.00128725
0.00130097
0.00137311
0.00153275
0.00180872
0.00219644
0.00197215
0.0019209
0.00187268
0.00182744
0.00178491
0.00174469
0.00170654
0.00167001
0.00163497
0.00160201
0.00157081
0.00154122
0.00151303
0.00148555
0.0014587
0.00143307
0.00140871
0.00138555
0.00136364
0.00134188
0.00132081
0.00130069
0.00128151
0.00126331
0.00124589
0.00122898
0.0012127
0.00119723
0.00118264
0.001169
0.00115602
0.00114363
0.00113201
0.00112127
0.0011116
0.00110348
0.00109567
0.00108836
0.00108195
0.00107722
0.00107486
0.00107316
0.00107044
0.00106819
0.00106729
0.00106775
0.00106856
0.00106874
0.00106928
0.0010706
0.00107257
0.00107479
0.00107701
0.0010796
0.00108268
0.00108625
0.00109008
0.00109413
0.00109847
0.00110316
0.00110824
0.00111346
0.00111844
0.00112292
0.00112685
0.0011303
0.00113328
0.00113592
0.00113835
0.00114066
0.00114291
0.00114512
0.00114726