/*--------------------------------*- C++ -*----------------------------------*\
  =========                 |
  \\      /  F ield         | OpenFOAM: The Open Source CFD Toolbox
   \\    /   O peration     | Website:  https://openfoam.org
    \\  /    A nd           | Version:  10
     \\/     M anipulation  |
\*---------------------------------------------------------------------------*/
FoamFile
{
    format      ascii;
    class       volScalarField;
    location    "0.003";
    object      nuTilda;
}
// * * * * * * * * * * * * * * * * * * * * * * * * * * * * * * * * * * * * * //

dimensions      [0 2 -1 0 0 0 0];

internalField   nonuniform List<scalar> 
8915
(
1.83495e-05
1.85219e-05
1.8531e-05
1.86112e-05
1.28871e-05
1.28776e-05
1.28858e-05
1.84012e-05
1.86302e-05
1.87179e-05
1.30601e-05
1.85014e-05
1.87189e-05
1.87991e-05
1.32088e-05
1.86554e-05
1.32945e-05
1.86517e-05
1.8856e-05
1.89314e-05
1.34849e-05
1.87499e-05
1.89422e-05
1.90104e-05
1.36776e-05
1.36896e-05
1.37317e-05
1.37719e-05
1.3802e-05
1.89041e-05
1.90747e-05
1.90938e-05
1.91078e-05
1.91243e-05
1.91797e-05
1.40062e-05
1.398e-05
1.90451e-05
1.92435e-05
1.40099e-05
1.39732e-05
1.39553e-05
1.39328e-05
1.39063e-05
1.38759e-05
1.38414e-05
1.38026e-05
1.37585e-05
1.37092e-05
1.36554e-05
1.35972e-05
1.35344e-05
1.34667e-05
1.33941e-05
1.33152e-05
1.32305e-05
1.31402e-05
1.30449e-05
1.29444e-05
1.28386e-05
1.27271e-05
1.2609e-05
1.24843e-05
1.23527e-05
1.22123e-05
1.20597e-05
1.18999e-05
1.17341e-05
1.15636e-05
1.13886e-05
1.12095e-05
1.1026e-05
1.08378e-05
1.06446e-05
1.04459e-05
1.024e-05
1.00228e-05
9.80121e-06
9.57678e-06
9.35194e-06
9.13045e-06
8.90293e-06
8.67409e-06
8.44533e-06
8.21426e-06
7.98222e-06
7.75674e-06
7.54879e-06
7.38537e-06
7.40658e-06
7.11891e-06
6.71646e-06
6.32902e-06
5.9893e-06
5.72131e-06
5.52623e-06
5.34408e-06
5.1306e-06
4.96818e-06
4.80399e-06
4.92382e-06
4.92587e-06
4.89387e-06
4.84724e-06
4.777e-06
4.67891e-06
4.56898e-06
4.47907e-06
4.48383e-06
4.63223e-06
4.88006e-06
5.12731e-06
5.33142e-06
5.44587e-06
5.27234e-06
4.74194e-06
4.88716e-06
5.8415e-06
6.60797e-06
7.01333e-06
7.15177e-06
7.26799e-06
7.60383e-06
8.29597e-06
7.93098e-06
9.03736e-06
1.01755e-05
1.17729e-05
5.93678e-05
5.94209e-05
5.9444e-05
5.96017e-05
5.8315e-05
5.84533e-05
5.86017e-05
6.02532e-05
6.05502e-05
6.08364e-05
5.96078e-05
6.12261e-05
6.15341e-05
6.18146e-05
6.06318e-05
6.23283e-05
6.12265e-05
6.29219e-05
6.33035e-05
6.36458e-05
6.25371e-05
6.42417e-05
6.46144e-05
6.49282e-05
6.38056e-05
6.40416e-05
6.43257e-05
6.46025e-05
6.48577e-05
6.64862e-05
6.67586e-05
6.69449e-05
6.70994e-05
6.72236e-05
6.73308e-05
6.60146e-05
6.59934e-05
6.73877e-05
6.74271e-05
6.59685e-05
6.58177e-05
6.56694e-05
6.54884e-05
6.52796e-05
6.50417e-05
6.47748e-05
6.44785e-05
6.41469e-05
6.37794e-05
6.33838e-05
6.29627e-05
6.25155e-05
6.20407e-05
6.15381e-05
6.09985e-05
6.04255e-05
5.98234e-05
5.91957e-05
5.85419e-05
5.78636e-05
5.71582e-05
5.64227e-05
5.5659e-05
5.48672e-05
5.40565e-05
5.32213e-05
5.23532e-05
5.14607e-05
5.05529e-05
4.96317e-05
4.86999e-05
4.77574e-05
4.68032e-05
4.58366e-05
4.4855e-05
4.38583e-05
4.28559e-05
4.18469e-05
4.08391e-05
3.98455e-05
3.88833e-05
3.79583e-05
3.70636e-05
3.61802e-05
3.5287e-05
3.43772e-05
3.34672e-05
3.25695e-05
3.16872e-05
3.08699e-05
2.99768e-05
2.90421e-05
2.80893e-05
2.71171e-05
2.61422e-05
2.51825e-05
2.42283e-05
2.32552e-05
2.22743e-05
2.1282e-05
2.03081e-05
1.93961e-05
1.84654e-05
1.76203e-05
1.68105e-05
1.6e-05
1.52378e-05
1.45997e-05
1.43148e-05
1.45427e-05
1.5078e-05
1.56524e-05
1.63743e-05
1.75952e-05
1.87448e-05
1.97057e-05
2.0518e-05
2.11258e-05
2.1483e-05
2.1478e-05
2.14852e-05
2.2081e-05
2.40266e-05
2.75102e-05
3.244e-05
3.97726e-05
4.97782e-05
6.00816e-05
0.000130164
0.000130155
0.000130182
0.0001305
0.000130379
0.000130807
0.000131164
0.000132125
0.000132673
0.000133288
0.000133304
0.000134327
0.000134907
0.000135517
0.000135612
0.000136804
0.000136959
0.000138185
0.000138948
0.000139706
0.000139915
0.000141202
0.000141954
0.000142649
0.000142762
0.000143386
0.000144025
0.000144649
0.000145236
0.000146335
0.000146869
0.000147292
0.000147645
0.000147924
0.000148147
0.000147739
0.000147783
0.00014836
0.000148342
0.000147637
0.000147372
0.000147037
0.000146628
0.000146155
0.000145616
0.000145012
0.00014434
0.000143588
0.000142753
0.000141854
0.000140896
0.000139877
0.000138793
0.000137646
0.000136423
0.000135125
0.000133761
0.000132337
0.000130853
0.000129313
0.00012771
0.000126037
0.0001243
0.000122497
0.000120652
0.000118755
0.000116782
0.000114751
0.000112683
0.000110583
0.000108458
0.000106307
0.000104129
0.000101921
9.9679e-05
9.7401e-05
9.5099e-05
9.27818e-05
9.04677e-05
8.81868e-05
8.59783e-05
8.38624e-05
8.18198e-05
7.98034e-05
7.77638e-05
7.56831e-05
7.35961e-05
7.15262e-05
6.94635e-05
6.74479e-05
6.54443e-05
6.34162e-05
6.13518e-05
5.92442e-05
5.71267e-05
5.50385e-05
5.2959e-05
5.08361e-05
4.86901e-05
4.65074e-05
4.43239e-05
4.2191e-05
4.00464e-05
3.79501e-05
3.59404e-05
3.39613e-05
3.21143e-05
3.05496e-05
2.96966e-05
2.96859e-05
3.03973e-05
3.18305e-05
3.41328e-05
3.70159e-05
3.98249e-05
4.20563e-05
4.37488e-05
4.4876e-05
4.54883e-05
4.53839e-05
4.539e-05
4.67962e-05
5.13913e-05
5.94108e-05
7.15045e-05
8.90928e-05
0.000110905
0.000132908
0.000170765
0.000170536
0.000170418
0.000170744
0.000171079
0.000171649
0.000172087
0.000172786
0.000173472
0.000174304
0.000174922
0.000175791
0.000176575
0.00017744
0.000178212
0.000179357
0.000180197
0.000181419
0.000182535
0.000183684
0.000184688
0.000186059
0.000187221
0.000188343
0.000189261
0.000190355
0.000191458
0.000192557
0.00019363
0.000194855
0.000195859
0.000196755
0.000197567
0.000198296
0.000198954
0.000199334
0.000199812
0.000200434
0.000200789
0.000200815
0.000200899
0.000200866
0.000200731
0.000200511
0.000200206
0.000199813
0.000199325
0.000198721
0.000197999
0.000197182
0.00019628
0.000195294
0.000194221
0.000193061
0.000191792
0.000190416
0.000188945
0.000187393
0.000185758
0.000184046
0.000182246
0.000180347
0.000178361
0.000176288
0.000174142
0.000171892
0.000169519
0.000167062
0.000164562
0.000162036
0.000159498
0.000156953
0.000154402
0.000151841
0.000149259
0.000146653
0.000144031
0.000141392
0.000138731
0.00013605
0.000133354
0.000130635
0.000127878
0.000125066
0.000122176
0.000119204
0.000116162
0.000113072
0.000109975
0.000106928
0.000103932
0.000100907
9.78155e-05
9.46491e-05
9.14563e-05
8.83057e-05
8.5159e-05
8.19325e-05
7.86557e-05
7.53084e-05
7.19453e-05
6.86276e-05
6.52757e-05
6.19253e-05
5.86148e-05
5.53747e-05
5.23009e-05
4.96946e-05
4.82445e-05
4.81493e-05
4.92519e-05
5.16059e-05
5.54266e-05
6.00282e-05
6.45081e-05
6.80637e-05
7.06726e-05
7.24942e-05
7.37586e-05
7.40425e-05
7.45047e-05
7.71905e-05
8.51768e-05
9.90232e-05
0.000120076
0.000149365
0.000185407
0.000209816
0.000205016
0.00020441
0.000204022
0.000204277
0.00020474
0.000205374
0.000205816
0.000206451
0.00020725
0.000208277
0.000209216
0.00021014
0.000211127
0.000212246
0.000213444
0.000214786
0.000216087
0.000217558
0.000219067
0.000220645
0.000222241
0.000223981
0.000225622
0.000227241
0.000228803
0.000230445
0.000232114
0.000233801
0.000235484
0.000237206
0.00023884
0.000240373
0.000241819
0.000243187
0.000244485
0.000245641
0.000246774
0.000247908
0.000248904
0.000249705
0.000250404
0.000250955
0.00025138
0.000251708
0.00025194
0.000252066
0.000252073
0.000251925
0.000251619
0.000251183
0.000250632
0.000249969
0.000249193
0.0002483
0.000247255
0.000246058
0.000244728
0.000243281
0.00024172
0.000240046
0.000238242
0.000236292
0.000234211
0.000232004
0.000229663
0.000227132
0.000224389
0.0002215
0.000218535
0.00021553
0.000212509
0.000209485
0.000206463
0.000203439
0.000200394
0.000197327
0.000194255
0.000191174
0.00018808
0.000184977
0.00018187
0.000178752
0.000175614
0.000172441
0.000169205
0.000165898
0.000162512
0.000159037
0.000155457
0.000151767
0.000147964
0.000144011
0.000139925
0.000135732
0.000131503
0.000127236
0.000122897
0.000118434
0.000113888
0.000109229
0.000104537
9.99148e-05
9.52176e-05
9.04896e-05
8.57817e-05
8.11657e-05
7.66359e-05
7.2757e-05
7.05769e-05
7.03985e-05
7.19838e-05
7.54271e-05
8.07968e-05
8.71758e-05
9.33569e-05
9.82278e-05
0.000101831
0.000104539
0.000106863
0.000108063
0.000109557
0.000114412
0.000126857
0.000147933
0.0001792
0.00022199
0.00025866
0.000276813
0.000235647
0.000234522
0.00023377
0.000233911
0.000234361
0.000235002
0.000235373
0.000235982
0.000236866
0.000238063
0.000239201
0.000240216
0.000241388
0.000242741
0.000244263
0.000245865
0.00024753
0.000249321
0.000251219
0.000253223
0.000255323
0.000257511
0.000259637
0.000261756
0.000263885
0.000266082
0.000268333
0.000270628
0.000272942
0.000275275
0.000277578
0.000279785
0.000281908
0.000283964
0.00028596
0.000287868
0.000289721
0.000291537
0.000293271
0.000294859
0.000296276
0.000297527
0.000298642
0.000299658
0.00030058
0.00030139
0.000302069
0.000302563
0.000302871
0.000303023
0.000303037
0.000302921
0.000302674
0.000302292
0.000301719
0.000300954
0.00030002
0.00029894
0.000297718
0.000296351
0.000294811
0.000293071
0.000291152
0.000289062
0.00028676
0.00028415
0.000281206
0.000278027
0.000274718
0.00027134
0.000267934
0.000264523
0.000261117
0.000257715
0.000254285
0.000250831
0.000247378
0.000243923
0.000240458
0.000236989
0.000233523
0.000230047
0.00022656
0.000223048
0.000219477
0.000215845
0.000212133
0.000208327
0.000204394
0.000200321
0.00019611
0.000191704
0.000187094
0.000182243
0.000177166
0.00017184
0.000166308
0.000160587
0.000154754
0.000148773
0.000142698
0.000136574
0.00013036
0.000124071
0.000117776
0.000111601
0.000105488
0.000100211
9.71892e-05
9.68909e-05
9.89868e-05
0.000103508
0.000110306
0.000118444
0.000126336
0.000132545
0.000137172
0.000140953
0.000144803
0.000147578
0.000150866
0.000158812
0.000176837
0.000206174
0.000248934
0.000298039
0.000326503
0.000339201
0.000263748
0.000261937
0.000260738
0.000260755
0.000261117
0.000261722
0.000261932
0.000262498
0.000263438
0.000264788
0.000266057
0.000267132
0.000268466
0.000270032
0.000271832
0.000273694
0.000275677
0.000277795
0.00028007
0.000282487
0.00028505
0.000287705
0.000290299
0.00029291
0.000295568
0.000298313
0.000301141
0.000304044
0.000306989
0.000309965
0.000312945
0.000315829
0.000318637
0.000321392
0.0003241
0.000326749
0.000329343
0.000331903
0.000334411
0.000336794
0.00033897
0.000340971
0.000342835
0.000344606
0.000346294
0.000347874
0.000349322
0.000350562
0.000351597
0.000352464
0.000353181
0.000353759
0.000354201
0.000354502
0.000354583
0.000354441
0.000354107
0.000353608
0.00035295
0.000352129
0.000351096
0.000349816
0.000348315
0.000346599
0.000344586
0.000342121
0.000339169
0.000335867
0.000332363
0.000328748
0.000325082
0.000321405
0.000317733
0.000314066
0.00031036
0.000306623
0.000302892
0.000299166
0.000295427
0.00029169
0.00028796
0.000284218
0.000280469
0.0002767
0.000272874
0.000268994
0.000265034
0.000260975
0.000256769
0.000252401
0.000247887
0.000243161
0.000238213
0.000232976
0.000227444
0.000221543
0.000215265
0.000208549
0.000201469
0.000194062
0.000186483
0.000178787
0.00017098
0.000163106
0.000155115
0.000147158
0.00013925
0.000132367
0.000128378
0.000127897
0.000130446
0.000135982
0.000144118
0.000153965
0.000163535
0.000171044
0.00017666
0.000181673
0.000187578
0.000192656
0.000198625
0.000210794
0.000235376
0.000274055
0.000327475
0.00037036
0.00039077
0.000399161
0.000290932
0.000288254
0.000287524
0.000287299
0.000287393
0.000287013
0.000287204
0.000287946
0.000289224
0.000290422
0.000291488
0.000292961
0.000294718
0.000296773
0.000298872
0.000301142
0.000303575
0.000306212
0.000309026
0.000312033
0.000315149
0.00031819
0.000321276
0.000324441
0.000327726
0.000331124
0.00033463
0.000338201
0.000341826
0.000345481
0.000349037
0.000352527
0.000355982
0.000359408
0.000362793
0.000366137
0.000369461
0.000372762
0.000375948
0.0003789
0.000381673
0.000384316
0.000386879
0.000389374
0.000391772
0.000394042
0.000396087
0.000397913
0.00039957
0.000401075
0.00040244
0.000403673
0.000404769
0.000405624
0.000406236
0.000406644
0.00040688
0.000406955
0.00040686
0.000406528
0.000405909
0.000405037
0.000403917
0.000402414
0.000400294
0.000397512
0.000394248
0.000390693
0.000386975
0.000383175
0.000379351
0.000375531
0.000371715
0.000367842
0.000363928
0.000360025
0.00035613
0.000352222
0.000348318
0.000344425
0.000340515
0.0003366
0.000332668
0.000328676
0.00032464
0.000320521
0.000316301
0.000311907
0.000307333
0.000302605
0.000297658
0.000292487
0.000287013
0.000281224
0.000275025
0.000268395
0.000261213
0.000253491
0.000245158
0.000236292
0.000226987
0.000217434
0.00020779
0.000197995
0.000188147
0.000178339
0.000169727
0.000164612
0.000163834
0.000166754
0.000173206
0.000182479
0.000193898
0.000205058
0.000213799
0.000220295
0.000226659
0.000235186
0.000243437
0.000253145
0.000270587
0.000302977
0.000352471
0.000404919
0.000439442
0.000452953
0.000458507
0.000337195
0.000331233
0.000326674
0.000322812
0.000319695
0.000316851
0.000315258
0.000314892
0.000315361
0.000315846
0.000316329
0.000317475
0.000319048
0.000321011
0.00032303
0.000325297
0.000327794
0.000330557
0.000333553
0.000336799
0.00034022
0.000343671
0.000347213
0.000350867
0.000354684
0.000358644
0.000362749
0.000366938
0.000371209
0.000375539
0.000379755
0.00038392
0.000388071
0.000392215
0.000396336
0.000400433
0.000404534
0.000408639
0.000412638
0.00041637
0.000419928
0.000423367
0.000426745
0.000430075
0.000433322
0.000436452
0.000439336
0.000441993
0.000444488
0.000446835
0.000449049
0.000451141
0.000453111
0.00045482
0.000456272
0.000457519
0.000458599
0.000459525
0.000460286
0.000460796
0.000460987
0.000460906
0.000460556
0.000459738
0.000458124
0.000455653
0.000452557
0.000449075
0.000445368
0.000441545
0.000437682
0.000433817
0.000429957
0.000426013
0.000422014
0.000418034
0.000414065
0.000410077
0.000406099
0.000402135
0.000398146
0.000394153
0.000390143
0.000386068
0.000381957
0.000377762
0.000373462
0.000368953
0.000364243
0.000359374
0.000354278
0.000348964
0.000343346
0.000337416
0.00033107
0.000324295
0.000316944
0.000309014
0.000300366
0.000291005
0.000280875
0.000270039
0.000258664
0.000246913
0.000235022
0.000223109
0.000212549
0.000206144
0.000204919
0.000208079
0.000215297
0.000225481
0.00023828
0.000250876
0.000260716
0.000267996
0.000275874
0.000287611
0.000299905
0.000314454
0.000338806
0.000380534
0.000434336
0.000480355
0.000506283
0.000514412
0.000519104
0.000403153
0.000393877
0.000385791
0.000378471
0.000371985
0.000366061
0.000360986
0.00035683
0.000353485
0.000350699
0.00034857
0.000347828
0.000348082
0.000349009
0.00035016
0.000351761
0.000353774
0.000356186
0.000358946
0.000362061
0.000365446
0.000368961
0.000372646
0.000376503
0.000380588
0.000384863
0.000389335
0.000393918
0.000398619
0.000403419
0.000408214
0.000413043
0.000417882
0.000422745
0.000427598
0.000432451
0.000437336
0.000442255
0.000447074
0.000451585
0.000455933
0.000460182
0.000464393
0.000468581
0.000472703
0.00047672
0.000480466
0.000483982
0.00048735
0.000490582
0.000493689
0.000496692
0.000499594
0.000502213
0.000504566
0.000506723
0.000508724
0.000510589
0.000512304
0.000513758
0.000514868
0.000515697
0.00051625
0.000516248
0.000515253
0.000513194
0.000510361
0.000507046
0.000503442
0.000499685
0.000495871
0.00049205
0.000488232
0.000484294
0.000480288
0.000476311
0.000472345
0.000468353
0.000464379
0.000460422
0.000456428
0.000452436
0.000448421
0.000444334
0.00044022
0.000436015
0.000431704
0.000427136
0.000422347
0.00041739
0.000412197
0.000406792
0.000401085
0.000395076
0.000388659
0.000381838
0.000374451
0.000366514
0.000357846
0.000348444
0.000338162
0.000326983
0.000314922
0.000301956
0.000288295
0.000274167
0.00026141
0.000253498
0.000251631
0.000254877
0.000262678
0.000273471
0.000287363
0.000301146
0.000311857
0.000319711
0.000329225
0.000344776
0.000362185
0.000382952
0.000416094
0.00046622
0.000515547
0.000554064
0.000572019
0.000576591
0.000583012
0.000487973
0.000475476
0.000464146
0.00045364
0.000443981
0.000435112
0.000426864
0.00041938
0.000412576
0.000406461
0.000400952
0.000396491
0.000392973
0.000390318
0.000388384
0.000387495
0.000387582
0.000388457
0.000390003
0.000392166
0.000394802
0.000397738
0.000400994
0.000404549
0.00040845
0.000412636
0.000417099
0.000421728
0.000426534
0.000431499
0.000436562
0.000441751
0.000446998
0.000452307
0.000457635
0.000462994
0.000468427
0.000473933
0.000479405
0.000484678
0.000489816
0.000494884
0.000499945
0.000505012
0.000510029
0.000514959
0.000519583
0.000523976
0.000528246
0.000532397
0.000536437
0.000540394
0.000544277
0.000547849
0.00055115
0.00055427
0.000557256
0.000560128
0.000562875
0.000565353
0.000567462
0.000569294
0.000570853
0.000571764
0.000571462
0.000569874
0.000567368
0.000564285
0.000560853
0.00055723
0.000553535
0.000549829
0.000546125
0.000542253
0.000538302
0.000534394
0.000530497
0.000526564
0.000522659
0.000518777
0.000514843
0.000510918
0.000506963
0.000502926
0.000498875
0.000494718
0.000490461
0.000485878
0.000481056
0.000476054
0.000470807
0.000465351
0.000459594
0.000453541
0.00044709
0.000440265
0.000432893
0.000425022
0.00041644
0.000407172
0.000397005
0.000385912
0.000373826
0.000360597
0.000346381
0.000331156
0.000316589
0.000307163
0.000304494
0.000307687
0.000315869
0.00032691
0.000341495
0.000356101
0.00036734
0.000375427
0.000386618
0.000406617
0.000430392
0.00045903
0.000502674
0.000553259
0.000595788
0.000626496
0.000637737
0.000641121
0.000652539
0.00058909
0.00057351
0.000559177
0.000545732
0.000533195
0.000521626
0.000510557
0.000500185
0.000490413
0.000481399
0.000472976
0.000465424
0.000458725
0.000452756
0.000447314
0.000442641
0.000438874
0.000436129
0.000434546
0.000434125
0.000434607
0.000435742
0.000437506
0.000439845
0.000442755
0.000446146
0.000449962
0.000454054
0.000458427
0.000463068
0.000467934
0.000473039
0.000478282
0.000483645
0.000489079
0.0004946
0.000500253
0.000506043
0.000511859
0.000517565
0.000523182
0.000528776
0.000534413
0.000540093
0.000545745
0.000551335
0.000556749
0.000562028
0.000567227
0.000572326
0.000577333
0.000582282
0.000587197
0.000591753
0.000596039
0.000600169
0.000604194
0.000608134
0.000611979
0.000615546
0.000618717
0.000621626
0.000624278
0.000626177
0.000626605
0.000625512
0.000623365
0.000620557
0.000617343
0.000613907
0.000610387
0.000606855
0.000603326
0.000599566
0.000595717
0.000591939
0.000588166
0.000584343
0.00058057
0.000576823
0.000573003
0.000569211
0.000565377
0.000561447
0.000557524
0.000553474
0.000549334
0.000544773
0.000539965
0.000534965
0.000529707
0.000524238
0.000518469
0.000512401
0.000505942
0.000499135
0.000491793
0.000484012
0.000475535
0.000466446
0.000456462
0.000445584
0.000433693
0.000420552
0.00040635
0.000390847
0.000375862
0.000365706
0.000362815
0.000366492
0.000375289
0.000386777
0.000401715
0.000416681
0.000428056
0.000435927
0.000448744
0.000473928
0.000505648
0.00054428
0.000596354
0.000641684
0.000676225
0.00069872
0.000705054
0.000710259
0.000730706
0.000685376
0.000668191
0.000651957
0.00063678
0.000622732
0.000609127
0.000596181
0.000583839
0.000572308
0.000561386
0.000551302
0.000542052
0.000533443
0.00052518
0.000517479
0.000510493
0.000504344
0.000499176
0.000495073
0.00049192
0.000489688
0.000488487
0.000488308
0.000489076
0.000490665
0.00049292
0.000495644
0.000498816
0.000502433
0.000506451
0.000510851
0.000515513
0.000520377
0.000525398
0.00053059
0.000536003
0.000541648
0.000547385
0.000553094
0.00055878
0.000564514
0.000570366
0.000576319
0.000582274
0.000588201
0.000594062
0.000599892
0.000605701
0.000611441
0.000617116
0.000622773
0.000628443
0.000633928
0.000639226
0.000644409
0.000649522
0.000654585
0.000659593
0.000664305
0.000668587
0.000672639
0.000676463
0.000679409
0.000680567
0.000679954
0.00067817
0.00067566
0.000672694
0.000669484
0.000666186
0.000662877
0.000659579
0.000655962
0.000652256
0.000648661
0.000645065
0.000641399
0.000637815
0.000634263
0.000630609
0.000627016
0.000623363
0.000619598
0.000615873
0.000611989
0.000608036
0.000603749
0.000599215
0.000594473
0.000589454
0.000584208
0.000578645
0.000572775
0.000566508
0.0005599
0.000552775
0.000545242
0.000537066
0.000528334
0.000518788
0.000508417
0.000497102
0.000484589
0.000471006
0.000456064
0.000441436
0.00043118
0.000428504
0.000433078
0.000442926
0.000455213
0.000470151
0.000484821
0.000495689
0.000502596
0.000516824
0.000547898
0.000589391
0.000640877
0.000695638
0.000732178
0.000757588
0.000772072
0.000775789
0.000786582
0.000820944
0.000809174
0.000789203
0.00077024
0.000752577
0.000736197
0.000720229
0.000704881
0.000690229
0.000676443
0.000663306
0.00065108
0.000639729
0.000628985
0.000618411
0.000608308
0.000598829
0.000590086
0.000582191
0.00057518
0.000568803
0.000563036
0.000558154
0.000554415
0.000551922
0.000550652
0.000550369
0.000550814
0.000551946
0.000553778
0.000556245
0.000559273
0.000562725
0.000566468
0.000570481
0.000574774
0.000579397
0.000584386
0.000589527
0.000594713
0.000599958
0.000605346
0.000610956
0.000616746
0.000622573
0.000628418
0.000634305
0.000640278
0.000646309
0.000652312
0.000658292
0.00066431
0.000670407
0.000676453
0.000682401
0.000688291
0.000694162
0.000700031
0.000705893
0.000711595
0.000717022
0.000722276
0.000727347
0.000731385
0.000733237
0.000733043
0.000731601
0.000729388
0.000726688
0.000723732
0.000720694
0.000717655
0.000714636
0.000711409
0.000708134
0.000705003
0.000701879
0.000698687
0.00069559
0.000692531
0.000689362
0.000686257
0.000683083
0.000679785
0.00067652
0.000673076
0.000669549
0.000665728
0.000661643
0.000657318
0.00065268
0.000647778
0.000642525
0.000636941
0.00063094
0.00062459
0.000617741
0.000610501
0.000602686
0.00059437
0.000585368
0.000575642
0.000565105
0.000553522
0.000540938
0.000527098
0.000513412
0.000503709
0.000501727
0.000507534
0.000519247
0.000533242
0.000548229
0.000561782
0.000571227
0.000576051
0.000591233
0.000628793
0.000682128
0.000748362
0.000798739
0.000824668
0.000840175
0.000847729
0.000851794
0.00087277
0.000926876
0.00094931
0.000925299
0.000902426
0.000881054
0.000861187
0.000842386
0.000824674
0.00080786
0.000791963
0.000776778
0.000762658
0.0007495
0.000736959
0.000724378
0.00071227
0.000700769
0.000689994
0.000680039
0.000670906
0.000662147
0.000653676
0.000645823
0.000638879
0.000633008
0.000628364
0.000624797
0.000622124
0.000620417
0.000619741
0.000620012
0.000621088
0.000622788
0.000624877
0.000627369
0.000630267
0.000633621
0.000637508
0.000641578
0.000645743
0.000650045
0.000654596
0.000659497
0.000664662
0.000669887
0.000675175
0.000680619
0.000686278
0.000692082
0.000697901
0.000703748
0.000709712
0.000715838
0.000722028
0.00072821
0.000734406
0.000740654
0.000746966
0.000753331
0.000759647
0.000765822
0.000771901
0.000777866
0.000782759
0.000785288
0.000785659
0.00078478
0.000783134
0.000780999
0.000778613
0.000776157
0.000773711
0.000771299
0.000768764
0.000766218
0.000763829
0.000761458
0.000759026
0.000756676
0.000754352
0.000751914
0.000749507
0.000747015
0.00074438
0.000741726
0.000738872
0.000735882
0.000732603
0.000729017
0.000725141
0.000720898
0.000716335
0.000711369
0.000706037
0.000700256
0.000694106
0.000687472
0.000680455
0.00067294
0.000664982
0.000656485
0.000647392
0.000637659
0.000627091
0.000615671
0.000603217
0.000590875
0.000582269
0.000581453
0.00058884
0.000603223
0.000620344
0.000636657
0.000648561
0.000655393
0.000656535
0.000671896
0.000716319
0.000783984
0.000861708
0.000904461
0.000918972
0.000924278
0.00092685
0.000934981
0.000971461
0.00105231
0.00111227
0.00108342
0.00105582
0.00102991
0.00100573
0.000983026
0.00096177
0.000941643
0.000922472
0.000904122
0.000886994
0.000870976
0.00085595
0.000841468
0.000827588
0.000814351
0.000801896
0.000790304
0.000779573
0.000768992
0.000758442
0.000748379
0.00073908
0.000730662
0.000723264
0.00071664
0.000710596
0.000705508
0.000701665
0.000699084
0.000697642
0.000697079
0.00069703
0.000697565
0.000698674
0.000700406
0.000702899
0.000705559
0.000708337
0.000711321
0.00071467
0.00071852
0.000722706
0.000726934
0.000731254
0.00073584
0.000740778
0.000745941
0.000751138
0.000756412
0.000761892
0.000767627
0.000773525
0.000779494
0.000785558
0.000791758
0.000798107
0.000804578
0.000811096
0.000817594
0.00082409
0.000830564
0.000836056
0.000839258
0.000840374
0.000840315
0.000839528
0.000838271
0.00083677
0.000835198
0.000833636
0.000832114
0.000830526
0.000828947
0.000827504
0.000826078
0.00082459
0.000823138
0.000821677
0.000820088
0.000818465
0.000816726
0.000814807
0.00081279
0.000810538
0.000808073
0.000805295
0.000802146
0.000798644
0.000794708
0.000790386
0.000785599
0.000780402
0.000774718
0.00076864
0.000762086
0.000755159
0.000747805
0.000740072
0.000731949
0.000723374
0.000714348
0.000704727
0.000694463
0.000683458
0.000672652
0.000665513
0.000666142
0.00067534
0.000692796
0.000714276
0.000734204
0.000745912
0.000748889
0.000744122
0.000758481
0.000809737
0.000895171
0.00097733
0.00101219
0.00101495
0.00101028
0.00101062
0.00102727
0.00108491
0.00119651
0.00139544
0.00130057
0.00126643
0.00123363
0.00120275
0.00117382
0.00114668
0.00112126
0.00109719
0.00107404
0.00105182
0.00103097
0.00101137
0.000993002
0.000975523
0.000958788
0.000942758
0.000927607
0.000913418
0.000900195
0.000887597
0.000875291
0.000863496
0.000852439
0.000842199
0.000832878
0.000824047
0.00081529
0.000807215
0.000800202
0.000794419
0.000789945
0.000786533
0.000783735
0.000781781
0.000780653
0.000780404
0.000781275
0.000782233
0.000783334
0.000784726
0.000786634
0.000789244
0.000792256
0.000795224
0.000798299
0.000801761
0.00080572
0.000809963
0.000814208
0.000818564
0.000823221
0.000828223
0.000833458
0.000838815
0.000844342
0.000850095
0.000856087
0.000862268
0.000868577
0.000874971
0.000881465
0.000888043
0.000893856
0.000897707
0.000899734
0.000900712
0.000901024
0.000900884
0.000900491
0.000900005
0.000899508
0.000899035
0.000898527
0.000898023
0.000897603
0.000897182
0.000896681
0.000896144
0.000895543
0.000894786
0.000893912
0.000892876
0.000891612
0.000890156
0.000888419
0.000886382
0.000883989
0.000881151
0.00087789
0.000874122
0.000869901
0.000865149
0.000859941
0.000854202
0.000848044
0.000841412
0.000834414
0.000827053
0.000819381
0.000811458
0.000803231
0.000794747
0.000785914
0.000776685
0.00076704
0.000757776
0.000752265
0.000754358
0.000765403
0.000785863
0.000812145
0.000837176
0.000852848
0.000852315
0.000839029
0.000850499
0.000907909
0.00101388
0.00109382
0.00112175
0.00111235
0.00109885
0.00110026
0.0011305
0.00121609
0.00136773
0.00163762
0.00147463
0.00143637
0.0014003
0.00136647
0.00133471
0.00130489
0.00127669
0.00124923
0.00122281
0.00119793
0.00117443
0.00115233
0.00113131
0.00111112
0.00109166
0.00107317
0.00105576
0.00103942
0.00102396
0.00100893
0.000994473
0.000980812
0.000967991
0.000956092
0.000944859
0.000934009
0.000923742
0.000914351
0.000905957
0.000898706
0.000892276
0.000886191
0.0008811
0.000877099
0.000874304
0.000873234
0.000872052
0.000871083
0.000870551
0.000870776
0.000872016
0.000873728
0.000875229
0.000876861
0.00087905
0.000881915
0.000885103
0.000888194
0.000891424
0.000895055
0.000899121
0.000903456
0.000907922
0.000912618
0.000917624
0.000922955
0.000928527
0.000934282
0.000940209
0.000946331
0.000952646
0.000958499
0.000962916
0.000965916
0.000968025
0.000969528
0.000970586
0.000971364
0.000972007
0.000972598
0.000973181
0.000973737
0.000974273
0.000974827
0.000975345
0.000975748
0.000976036
0.000976192
0.000976154
0.000975914
0.000975459
0.000974723
0.000973703
0.000972347
0.000970607
0.000968456
0.000965782
0.000962616
0.000958872
0.00095461
0.000949751
0.000944389
0.000938452
0.000932068
0.000925205
0.000917984
0.000910448
0.000902665
0.000894756
0.000886687
0.000878544
0.000870296
0.000861914
0.00085345
0.000845605
0.000841687
0.000845098
0.000857763
0.0008808
0.000911302
0.000941791
0.000964222
0.00096587
0.00094168
0.000947346
0.0010094
0.00113383
0.00121028
0.00123268
0.0012114
0.00119111
0.00119701
0.00124597
0.00136658
0.00157397
0.00191293
0.00170728
0.00166329
0.00162191
0.00158312
0.00154673
0.00151247
0.00148018
0.0014483
0.00141759
0.00138864
0.00136123
0.00133533
0.00131068
0.00128683
0.00126368
0.00124162
0.00122073
0.00120098
0.0011823
0.00116401
0.00114635
0.00112957
0.00111367
0.00109872
0.00108453
0.00107085
0.00105776
0.0010455
0.00103414
0.00102378
0.00101419
0.00100513
0.000996888
0.000989628
0.000983686
0.000980251
0.000976171
0.00097246
0.000969428
0.000967538
0.000967197
0.000967417
0.00096713
0.000967065
0.000967841
0.000969555
0.000971614
0.000973386
0.000975358
0.000977866
0.000980909
0.000984225
0.000987631
0.000991324
0.00099541
0.000999899
0.00100466
0.00100962
0.00101483
0.00102031
0.00102609
0.00103173
0.00103654
0.00104041
0.00104356
0.00104617
0.00104832
0.00105015
0.00105181
0.00105336
0.00105488
0.00105636
0.0010578
0.00105919
0.0010605
0.00106165
0.00106261
0.00106337
0.0010639
0.00106414
0.00106412
0.00106376
0.00106305
0.00106193
0.00106036
0.00105832
0.00105567
0.00105247
0.00104862
0.0010442
0.00103911
0.00103348
0.00102722
0.00102049
0.00101326
0.00100568
0.000997814
0.000989758
0.000981679
0.000973572
0.000965556
0.000957667
0.00094991
0.000942398
0.000935769
0.000933269
0.000937748
0.000951635
0.000976577
0.00101039
0.00104581
0.00107521
0.00108475
0.00105272
0.00104835
0.00111293
0.00125112
0.00132579
0.00134424
0.0013126
0.00128807
0.00130177
0.00137383
0.00153333
0.00180913
0.00219672
0.0019725
0.00192126
0.00187307
0.00182784
0.00178534
0.00174514
0.00170701
0.0016705
0.00163548
0.00160254
0.00157135
0.00154179
0.00151362
0.00148617
0.00145934
0.00143373
0.00140939
0.00138626
0.00136437
0.00134263
0.00132158
0.00130149
0.00128233
0.00126416
0.00124676
0.00122988
0.00121362
0.00119818
0.00118361
0.00116999
0.00115703
0.00114466
0.00113307
0.00112235
0.00111269
0.00110459
0.0010968
0.00108951
0.00108311
0.00107838
0.00107603
0.00107433
0.00107162
0.00106938
0.00106848
0.00106894
0.00106974
0.00106992
0.00107046
0.00107178
0.00107375
0.00107597
0.00107818
0.00108076
0.00108384
0.0010874
0.00109122
0.00109526
0.00109959
0.00110428
0.00110935
0.00111455
0.00111952
0.00112399
0.00112792
0.00113136