/*--------------------------------*- C++ -*----------------------------------*\
  =========                 |
  \\      /  F ield         | OpenFOAM: The Open Source CFD Toolbox
   \\    /   O peration     | Website:  https://openfoam.org
    \\  /    A nd           | Version:  10
     \\/     M anipulation  |
\*---------------------------------------------------------------------------*/
FoamFile
{
    format      ascii;
    class       volVectorField;
    location    "0.003";
    object      U;
}
// * * * * * * * * * * * * * * * * * * * * * * * * * * * * * * * * * * * * * //

dimensions      [0 1 -1 0 0 0 0];

internalField   nonuniform List<vector> 
8915
(
(3.32731 1.09644 1.51672e-17)
(3.33989 1.05994 -3.0101e-17)
(3.35028 1.0237 -3.76323e-15)
(3.36464 0.990425 -2.92133e-17)
(3.37006 0.955426 -3.64385e-15)
(3.38389 0.924243 2.83188e-17)
(3.39365 0.892708 -3.60269e-15)
(3.41179 0.86405 2.73639e-17)
(3.42293 0.834636 3.44366e-15)
(3.43434 0.805812 0)
(3.43659 0.776557 3.38546e-15)
(3.45086 0.749901 6.6225e-15)
(3.45979 0.723194 0)
(3.46682 0.696332 3.22519e-15)
(3.46699 0.669372 0)
(3.4811 0.64507 0)
(3.48104 0.619176 -3.10919e-15)
(3.49444 0.595646 2.39115e-17)
(3.50237 0.57189 -3.01814e-15)
(3.50851 0.548175 2.93401e-15)
(3.50652 0.524012 -2.92567e-15)
(3.51892 0.501953 0)
(3.52438 0.479496 -2.86573e-15)
(3.52718 0.456875 2.80839e-15)
(3.52113 0.433861 3.27748e-22)
(3.52109 0.411773 4.32716e-17)
(3.52177 0.390191 -2.75848e-15)
(3.521 0.368709 -2.11127e-17)
(3.51955 0.347513 2.08863e-17)
(3.52516 0.327334 -2.05571e-17)
(3.52164 0.306347 -2.60431e-15)
(3.51607 0.285956 -1.26656e-15)
(3.50795 0.265386 1.27309e-15)
(3.49864 0.24533 1.25962e-15)
(3.48755 0.225389 0)
(3.46618 0.205111 1.672e-22)
(3.45109 0.185906 -1.2257e-15)
(3.443 0.166876 -2.42023e-15)
(3.42617 0.14806 0)
(3.39832 0.129597 -1.86201e-17)
(3.37549 0.111893 -1.16294e-15)
(3.35127 0.09477 0)
(3.32531 0.078112 -5.80986e-16)
(3.29799 0.0613127 -1.8014e-17)
(3.26937 0.0444254 1.7878e-17)
(3.23933 0.0279747 -3.01691e-16)
(3.20764 0.0118866 -1.23341e-16)
(3.17405 -0.00335386 7.00001e-17)
(3.13867 -0.0176467 5.2157e-17)
(3.10151 -0.0316438 -2.41855e-16)
(3.06239 -0.0453258 -1.71693e-17)
(3.02119 -0.0585245 -5.46203e-16)
(2.97806 -0.0711116 5.43179e-16)
(2.93306 -0.0828973 0)
(2.88592 -0.094292 1.10847e-15)
(2.83676 -0.105005 -3.34236e-17)
(2.78582 -0.115043 0)
(2.73314 -0.124445 -2.15257e-15)
(2.67894 -0.133125 -2.11076e-15)
(2.62316 -0.141155 4.23676e-15)
(2.56553 -0.148556 2.09355e-15)
(2.50593 -0.155274 3.25869e-17)
(2.44427 -0.161348 -3.24669e-17)
(2.38032 -0.166811 -2.0706e-15)
(2.31468 -0.171552 4.22346e-15)
(2.24793 -0.175443 7.13776e-22)
(2.17972 -0.178541 -3.45717e-17)
(2.11012 -0.180894 -3.55269e-17)
(2.0393 -0.182588 -4.6383e-15)
(1.96748 -0.183632 -4.76957e-15)
(1.89468 -0.1841 -3.85881e-17)
(1.82089 -0.18403 -5.07422e-15)
(1.74615 -0.183415 0)
(1.6704 -0.182298 4.18351e-17)
(1.59369 -0.180669 -4.30514e-17)
(1.51593 -0.178592 0)
(1.43709 -0.176113 0)
(1.35749 -0.173121 4.66598e-17)
(1.27731 -0.169693 -6.23592e-15)
(1.19664 -0.165864 4.91972e-17)
(1.116 -0.161615 2.52907e-17)
(1.03563 -0.156984 3.3279e-15)
(0.955191 -0.151959 -2.66373e-17)
(0.87477 -0.146448 0)
(0.794007 -0.140472 3.60192e-15)
(0.71291 -0.134002 -3.6692e-15)
(0.632274 -0.127055 -2.97323e-17)
(0.552365 -0.119684 3.92671e-15)
(0.474038 -0.111877 7.79404e-22)
(0.397671 -0.103716 -3.21069e-17)
(0.324134 -0.0952186 -3.31474e-17)
(0.253557 -0.0864083 4.4033e-15)
(0.186552 -0.077338 -3.49563e-17)
(0.123641 -0.0680839 -3.56962e-17)
(0.0657428 -0.0586245 -4.68098e-15)
(0.013552 -0.0488568 4.80145e-15)
(-0.0323296 -0.0395704 0)
(-0.0716002 -0.0307493 0)
(-0.104375 -0.022267 0)
(-0.130754 -0.014944 -5.2066e-15)
(-0.151335 -0.00868688 0)
(-0.166179 -0.00273547 -5.3874e-15)
(-0.175663 0.00199085 5.47158e-15)
(-0.181882 0.00596191 -4.41659e-17)
(-0.184461 0.00909919 -5.71496e-15)
(-0.183823 0.0115481 4.58021e-17)
(-0.181098 0.0136172 1.51221e-22)
(-0.179859 0.0155771 -9.55575e-17)
(-0.18708 0.0179084 4.86774e-17)
(-0.207851 0.0207552 0)
(-0.242863 0.02366 0)
(-0.282962 0.0254919 -3.27051e-15)
(-0.309144 0.0245995 -3.28781e-15)
(-0.297216 0.0201153 6.7328e-15)
(-0.226906 0.0122817 0)
(-0.0906515 0.00251405 0)
(0.0842677 -0.00669314 0)
(0.273817 -0.0188037 7.24379e-15)
(0.44413 -0.0309904 3.59378e-15)
(0.542236 -0.0422769 5.75746e-17)
(0.565227 -0.0515422 5.84578e-17)
(0.55449 -0.0569685 -3.8706e-15)
(0.569393 -0.0606711 7.67123e-15)
(0.656913 -0.063632 3.97128e-15)
(0.829865 -0.0660439 -5.93151e-17)
(1.04423 -0.0708793 -3.73322e-15)
(1.25215 -0.0605366 3.65824e-15)
(1.32195 0.00590529 -7.12268e-15)
(8.62501 2.54966 0)
(8.67259 2.47555 2.45599e-15)
(8.71263 2.40144 0)
(8.7532 2.32987 0)
(8.79264 2.25935 2.32182e-15)
(8.82808 2.19096 1.80031e-17)
(8.85595 2.12176 -1.77278e-17)
(8.87796 2.05353 -2.20044e-15)
(8.90014 1.98634 -2.19082e-15)
(8.92065 1.92052 1.67162e-17)
(8.94213 1.85701 -2.15863e-15)
(8.95217 1.79231 -4.13015e-15)
(8.96359 1.72958 0)
(8.97192 1.66686 -2.0225e-15)
(8.9834 1.60695 1.54886e-17)
(8.98567 1.54595 1.94095e-15)
(8.99315 1.4876 1.49579e-17)
(8.99139 1.42831 -2.93172e-17)
(8.99204 1.37101 2.97817e-22)
(8.99052 1.31385 -3.59587e-15)
(8.99168 1.25881 1.78604e-15)
(8.98367 1.20297 -1.36783e-17)
(8.97723 1.1487 -1.83136e-21)
(8.96783 1.09441 -1.69308e-15)
(8.96068 1.04192 -1.30615e-17)
(8.94774 0.989216 1.65851e-15)
(8.93358 0.937643 1.6081e-15)
(8.9172 0.88628 1.24608e-17)
(8.89913 0.835979 -1.22862e-17)
(8.87588 0.785865 -7.71481e-16)
(8.85345 0.736455 7.61444e-16)
(8.82943 0.68817 1.17318e-17)
(8.80261 0.640063 -7.41648e-16)
(8.77407 0.593101 -7.32861e-16)
(8.74344 0.546405 0)
(8.71405 0.500906 -1.43905e-15)
(8.6797 0.456322 7.12331e-16)
(8.63933 0.41172 7.03273e-16)
(8.60039 0.368319 -6.97136e-16)
(8.56324 0.326029 7.15734e-16)
(8.51961 0.284433 6.46277e-16)
(8.4733 0.243845 2.14137e-17)
(8.42457 0.20405 6.81562e-16)
(8.37389 0.164663 0)
(8.32147 0.125731 -3.3789e-16)
(8.26723 0.087301 1.68394e-16)
(8.21069 0.0496298 0)
(8.15135 0.0131654 2.09587e-17)
(8.08923 -0.021876 -4.1882e-17)
(8.0241 -0.0555169 1.88435e-16)
(7.95542 -0.0882774 -1.88528e-16)
(7.88272 -0.119932 -3.35589e-16)
(7.80597 -0.150317 2.10191e-17)
(7.72519 -0.179544 2.10788e-17)
(7.64007 -0.207443 -2.11575e-17)
(7.55047 -0.234025 0)
(7.45647 -0.259248 6.83965e-16)
(7.35799 -0.283123 -2.15116e-17)
(7.2552 -0.305478 2.16719e-17)
(7.14792 -0.326418 -2.77454e-15)
(7.03553 -0.345921 3.67397e-22)
(6.91753 -0.363883 1.40254e-15)
(6.79346 -0.380307 0)
(6.66262 -0.395168 1.45765e-15)
(6.52581 -0.408236 -2.99476e-15)
(6.38429 -0.419252 0)
(6.23759 -0.428219 3.23331e-15)
(6.08545 -0.435213 5.31763e-17)
(5.92795 -0.440394 -3.58544e-15)
(5.76543 -0.443769 -2.90785e-17)
(5.59791 -0.445501 3.04146e-17)
(5.42532 -0.445627 4.0735e-15)
(5.24768 -0.444181 0)
(5.06488 -0.441226 4.46682e-15)
(4.87697 -0.436769 -4.72574e-15)
(4.68369 -0.430841 -4.87691e-15)
(4.48486 -0.423471 -2.57689e-15)
(4.28112 -0.414729 -2.66586e-15)
(4.07299 -0.404703 2.80136e-15)
(3.86075 -0.393451 2.98438e-15)
(3.64555 -0.38101 0)
(3.42823 -0.367486 -3.34352e-15)
(3.20812 -0.35281 5.38341e-17)
(2.98533 -0.336899 -3.62372e-15)
(2.75908 -0.319804 -2.48632e-21)
(2.52932 -0.301504 6.23401e-17)
(2.29791 -0.282176 -6.56431e-17)
(2.06569 -0.261912 4.40567e-15)
(1.8347 -0.240841 0)
(1.60613 -0.219153 0)
(1.38229 -0.19699 -8.06145e-17)
(1.16347 -0.174422 -1.07336e-14)
(0.951417 -0.151635 0)
(0.747719 -0.128852 0)
(0.555473 -0.106657 6.36719e-15)
(0.377553 -0.0853034 -1.33408e-14)
(0.215738 -0.0645466 7.05657e-15)
(0.0706196 -0.044891 0)
(-0.0567686 -0.0265245 -7.6379e-15)
(-0.165152 -0.00918252 0)
(-0.255209 0.00621239 1.2351e-16)
(-0.327047 0.0186556 7.96232e-15)
(-0.38104 0.0290883 8.2128e-15)
(-0.422235 0.037695 -8.34985e-15)
(-0.449982 0.0439927 8.50947e-15)
(-0.465724 0.0485751 0)
(-0.474204 0.0522915 -7.00087e-17)
(-0.485034 0.0564981 7.09553e-17)
(-0.515015 0.0633736 0)
(-0.574646 0.073474 0)
(-0.66031 0.0852846 -7.20916e-17)
(-0.744737 0.0938486 4.71549e-15)
(-0.781345 0.0924174 4.66914e-15)
(-0.717805 0.0763746 7.44997e-17)
(-0.525566 0.0441503 4.86661e-15)
(-0.201257 0.00164199 -8.00014e-17)
(0.195734 -0.0448439 7.98813e-17)
(0.621684 -0.0912209 -9.59454e-15)
(1.01892 -0.134705 -4.57899e-15)
(1.29177 -0.163447 -7.22233e-17)
(1.4132 -0.17998 7.29002e-17)
(1.43709 -0.190033 4.55266e-15)
(1.46657 -0.203864 -4.53696e-15)
(1.58582 -0.228646 -8.7382e-15)
(1.77524 -0.25603 6.19641e-17)
(1.83624 -0.248286 3.56604e-15)
(1.50651 -0.169118 0)
(0.391251 0.0557465 5.05939e-15)
(10.3931 3.03348 9.76061e-18)
(10.4598 2.94919 -2.48125e-15)
(10.5167 2.86441 0)
(10.5689 2.78115 -1.20062e-15)
(10.6158 2.69789 0)
(10.6572 2.61679 0)
(10.6916 2.53504 0)
(10.7194 2.45471 1.09979e-15)
(10.7443 2.3749 -1.07642e-15)
(10.7649 2.29631 1.06528e-15)
(10.784 2.21957 -1.06177e-15)
(10.7949 2.14258 1.02812e-15)
(10.8043 2.06752 -1.01314e-15)
(10.8096 1.99245 9.99429e-16)
(10.8146 1.9198 -1.90425e-22)
(10.8135 1.84678 -9.62561e-16)
(10.8131 1.77612 -7.32571e-18)
(10.8067 1.70506 7.18404e-18)
(10.7999 1.63614 7.04167e-18)
(10.7905 1.56741 1.76243e-15)
(10.7811 1.50066 0)
(10.7663 1.43373 -1.32975e-17)
(10.7511 1.36867 8.47881e-16)
(10.7332 1.30371 8.32821e-16)
(10.7153 1.24056 -8.18467e-16)
(10.6936 1.17744 9.35907e-22)
(10.6706 1.11585 7.78254e-16)
(10.6455 1.05458 0)
(10.6188 0.99461 1.17567e-17)
(10.5892 0.935201 -3.92624e-16)
(10.5586 0.87667 1.13809e-17)
(10.5269 0.819354 -1.12035e-17)
(10.4928 0.762402 8.87995e-23)
(10.4574 0.706829 1.09017e-17)
(10.4203 0.651741 0)
(10.3827 0.597954 3.51123e-16)
(10.3427 0.545139 -3.47061e-16)
(10.2992 0.492728 -3.22407e-16)
(10.2554 0.441704 6.48715e-16)
(10.2118 0.391548 -6.43011e-16)
(10.1644 0.342044 -2.0248e-17)
(10.1149 0.293782 1.00518e-17)
(10.0636 0.24645 -3.19597e-16)
(10.0106 0.199832 -9.93056e-18)
(9.95618 0.154278 1.58103e-16)
(9.90039 0.109213 -7.87155e-17)
(9.84278 0.0649787 -3.22307e-23)
(9.78285 0.0218233 1.95596e-17)
(9.72064 -0.0199572 -9.76428e-18)
(9.65589 -0.0601557 0)
(9.58791 -0.099205 8.77961e-17)
(9.51617 -0.13704 1.46437e-16)
(9.4406 -0.173467 -1.56464e-16)
(9.36121 -0.208552 0)
(9.2778 -0.242333 -3.14794e-16)
(9.19021 -0.274676 -3.16222e-16)
(9.0985 -0.305563 -8.37613e-23)
(9.00253 -0.335013 0)
(8.90249 -0.362834 0)
(8.79824 -0.389143 6.50591e-16)
(8.68917 -0.413887 -6.56842e-16)
(8.57478 -0.43697 -6.53585e-16)
(8.45457 -0.458398 -2.09986e-17)
(8.32777 -0.478138 1.06389e-17)
(8.19482 -0.495924 -1.40216e-15)
(8.05723 -0.511453 -1.46706e-15)
(7.91504 -0.524707 1.53699e-15)
(7.76775 -0.535773 0)
(7.61514 -0.544829 3.38595e-15)
(7.45739 -0.551869 0)
(7.2944 -0.557076 0)
(7.12595 -0.56047 -1.95344e-15)
(6.95195 -0.562095 -1.61914e-17)
(6.77213 -0.562001 -2.1673e-15)
(6.58641 -0.560197 4.6158e-15)
(6.39425 -0.556718 2.43556e-15)
(6.19499 -0.551565 1.26588e-15)
(5.98866 -0.54471 0)
(5.77507 -0.5362 2.25434e-17)
(5.55339 -0.525986 -3.07606e-15)
(5.32348 -0.514006 0)
(5.08532 -0.500278 1.7165e-15)
(4.83793 -0.484655 0)
(4.58172 -0.467113 1.9327e-15)
(4.31638 -0.447709 -4.13635e-15)
(4.04152 -0.42641 2.1858e-15)
(3.75813 -0.40336 3.6521e-17)
(3.46616 -0.378524 -2.49229e-15)
(3.16758 -0.352108 4.18866e-17)
(2.86326 -0.324192 -4.47274e-17)
(2.55564 -0.294966 3.08771e-15)
(2.24551 -0.26449 3.3079e-15)
(1.9352 -0.233112 0)
(1.62705 -0.201131 -3.80184e-15)
(1.32555 -0.169177 1.22926e-21)
(1.03507 -0.137517 8.96444e-15)
(0.759382 -0.106641 -9.88019e-15)
(0.501631 -0.0770481 5.40721e-15)
(0.265138 -0.0492505 9.24416e-17)
(0.0536363 -0.0235553 -6.42169e-15)
(-0.131074 -0.00017819 -1.06316e-16)
(-0.286874 0.0204415 -1.11188e-16)
(-0.414632 0.0382039 -7.25678e-15)
(-0.517347 0.0531486 7.69367e-15)
(-0.595008 0.0646521 -1.24563e-16)
(-0.64966 0.073447 1.28738e-16)
(-0.68989 0.0810919 -1.33503e-16)
(-0.729633 0.0901721 8.96946e-15)
(-0.790715 0.103528 -8.89012e-15)
(-0.883824 0.120899 1.36359e-16)
(-0.99669 0.138331 3.90185e-22)
(-1.08711 0.146174 -1.34544e-16)
(-1.09666 0.136804 6.81334e-17)
(-0.963675 0.102277 -4.22256e-15)
(-0.677622 0.0467131 -4.21938e-15)
(-0.245389 -0.0218797 0)
(0.264957 -0.0983577 -4.11591e-15)
(0.808051 -0.15829 3.77282e-15)
(1.32485 -0.21356 5.66074e-17)
(1.71783 -0.249102 -5.63729e-17)
(1.94291 -0.26857 0)
(2.02996 -0.283544 0)
(2.04961 -0.302044 0)
(2.05597 -0.317892 2.91846e-15)
(1.97677 -0.302283 -2.41605e-15)
(1.56374 -0.20389 -1.86214e-15)
(0.557217 0.0385773 1.37386e-15)
(-1.18398 0.415988 7.80585e-21)
(11.23 3.276 0)
(11.3101 3.18783 8.48114e-16)
(11.3797 3.0988 0)
(11.4422 3.01076 -3.53441e-21)
(11.4967 2.92195 0)
(11.5447 2.8352 6.15385e-18)
(11.5855 2.74781 -2.13367e-22)
(11.6197 2.66191 -5.92513e-18)
(11.649 2.57624 1.50252e-15)
(11.6726 2.49155 -7.34585e-16)
(11.6927 2.40844 7.3144e-16)
(11.7066 2.32555 -1.09893e-17)
(11.7172 2.24444 1.38616e-15)
(11.7233 2.16327 -6.88837e-16)
(11.7268 2.08429 6.76443e-16)
(11.726 2.00533 0)
(11.7232 1.92845 0)
(11.7163 1.85152 -6.28265e-16)
(11.7073 1.77666 0)
(11.6954 1.70203 -6.04065e-16)
(11.6818 1.6293 0)
(11.6649 1.55675 9.07116e-18)
(11.6464 1.48608 -8.89429e-18)
(11.6252 1.41559 -1.10886e-15)
(11.6026 1.34689 1.09665e-15)
(11.5774 1.27841 -1.08482e-15)
(11.5505 1.21159 -5.20461e-16)
(11.5217 1.14515 -8.10752e-18)
(11.4911 1.08013 -5.10257e-16)
(11.4587 1.01586 -7.8294e-18)
(11.4244 0.952475 2.62061e-16)
(11.3889 0.890399 -7.57804e-18)
(11.3512 0.828777 0)
(11.3122 0.768632 0)
(11.2717 0.709053 2.3187e-16)
(11.2296 0.650784 0)
(11.1864 0.593586 -1.2327e-22)
(11.1408 0.536919 6.96644e-18)
(11.094 0.481688 -4.54348e-16)
(11.0464 0.427352 2.17712e-16)
(10.9962 0.373764 6.73343e-18)
(10.9441 0.321516 -1.00049e-16)
(10.8905 0.270288 -2.64454e-23)
(10.8352 0.219838 -6.5577e-18)
(10.7787 0.170679 1.04134e-16)
(10.7208 0.122243 5.1707e-17)
(10.6613 0.0746187 0)
(10.5997 0.0281223 0)
(10.536 -0.0169349 -1.6525e-23)
(10.4699 -0.0606345 6.33472e-18)
(10.4007 -0.102889 -5.0515e-17)
(10.3279 -0.143875 0)
(10.2513 -0.183378 9.43255e-17)
(10.171 -0.221461 6.28197e-18)
(10.0867 -0.258169 2.01e-16)
(9.99831 -0.293399 2.0116e-16)
(9.9059 -0.327108 -4.09286e-16)
(9.80932 -0.359319 -8.61255e-23)
(9.70875 -0.389833 1.26712e-17)
(9.60406 -0.418762 9.92405e-23)
(9.49468 -0.446042 -1.27895e-17)
(9.38013 -0.471581 6.43439e-18)
(9.25989 -0.495385 0)
(9.13318 -0.517421 -6.5345e-18)
(9.00036 -0.537408 1.29243e-15)
(8.86306 -0.555016 8.99921e-16)
(8.72155 -0.57022 -9.31416e-16)
(8.57529 -0.58312 1.67087e-22)
(8.42396 -0.593912 -1.01671e-15)
(8.26766 -0.602591 1.89141e-22)
(8.10628 -0.609345 -1.11313e-15)
(7.93955 -0.614195 1.14687e-15)
(7.76734 -0.617189 9.53041e-18)
(7.5894 -0.618375 0)
(7.40563 -0.617763 -8.84045e-22)
(7.21553 -0.615384 -7.15558e-16)
(7.01834 -0.611224 2.31072e-17)
(6.81397 -0.605262 -1.21598e-17)
(6.60219 -0.597538 -8.06627e-16)
(6.38199 -0.58798 -1.34617e-17)
(6.15296 -0.576521 -1.41999e-17)
(5.91495 -0.563164 1.49893e-17)
(5.66689 -0.547746 0)
(5.40919 -0.53027 0)
(5.14171 -0.510772 1.15125e-15)
(4.86387 -0.489213 -1.87963e-17)
(4.57627 -0.465724 0)
(4.27824 -0.440191 0)
(3.97089 -0.41281 0)
(3.65414 -0.383522 -1.53637e-15)
(3.32943 -0.352505 -3.36673e-15)
(2.99764 -0.319781 6.35496e-22)
(2.66086 -0.28576 -3.06326e-17)
(2.32095 -0.250686 4.27041e-15)
(1.98142 -0.215172 2.32263e-15)
(1.64549 -0.179492 -2.60692e-15)
(1.31694 -0.144177 5.62644e-15)
(0.999982 -0.109637 -3.0243e-15)
(0.698387 -0.0765259 3.3136e-15)
(0.417042 -0.0454349 3.93801e-15)
(0.159225 -0.0165574 -4.41106e-15)
(-0.0707481 0.00971367 7.4287e-17)
(-0.271871 0.0334763 -8.02829e-17)
(-0.443858 0.0541394 5.66406e-15)
(-0.585272 0.0712048 0)
(-0.698157 0.0853944 1.00674e-16)
(-0.788917 0.0984224 -1.08031e-16)
(-0.873259 0.113568 -7.33457e-15)
(-0.970284 0.133695 7.45938e-15)
(-1.0856 0.156155 0)
(-1.19875 0.174195 -3.57695e-15)
(-1.26125 0.175051 0)
(-1.22777 0.151237 0)
(-1.03991 0.0987834 0)
(-0.709713 0.025713 -2.89598e-15)
(-0.244999 -0.0639065 8.77535e-17)
(0.298352 -0.155843 2.57204e-15)
(0.873858 -0.227687 2.44207e-15)
(1.42663 -0.279097 2.35156e-15)
(1.86569 -0.306005 0)
(2.14098 -0.319139 2.298e-15)
(2.25819 -0.325276 -2.23773e-15)
(2.22768 -0.327934 3.20716e-17)
(2.09767 -0.317291 -2.65986e-22)
(1.77338 -0.243049 1.27801e-15)
(1.05016 -0.0443153 9.65085e-16)
(-0.298266 0.316731 -7.13686e-16)
(-2.37343 0.80698 -5.96544e-16)
(11.8163 3.4524 0)
(11.9099 3.36257 -5.52632e-18)
(11.9922 3.27152 -6.86419e-16)
(12.066 3.18102 1.37268e-15)
(12.1301 3.08924 0)
(12.1864 2.99915 0)
(12.2348 2.90828 1.01392e-17)
(12.276 2.81874 -9.93234e-18)
(12.3113 2.72926 -6.2757e-16)
(12.3399 2.64053 9.5551e-18)
(12.3637 2.55321 -9.44549e-18)
(12.3815 2.46615 -5.81312e-16)
(12.3952 2.38079 -1.17333e-15)
(12.4038 2.29532 0)
(12.4088 2.21192 -5.59653e-16)
(12.4096 2.1286 -8.57316e-18)
(12.4072 2.04727 8.40843e-18)
(12.4009 1.96598 5.28027e-16)
(12.3917 1.88671 0)
(12.3792 1.80769 0)
(12.3644 1.73056 0)
(12.3465 1.65371 -4.95282e-16)
(12.3265 1.57875 -4.70517e-16)
(12.3036 1.50404 4.61702e-16)
(12.2788 1.43114 -9.20107e-16)
(12.2515 1.35854 4.58349e-16)
(12.2223 1.28766 -6.92244e-18)
(12.191 1.21722 6.78826e-18)
(12.1578 1.14825 8.47019e-16)
(12.1229 1.08013 2.15879e-16)
(12.0857 1.01293 -2.05854e-16)
(12.0471 0.947108 -6.31672e-18)
(12.0065 0.881803 1.9881e-16)
(11.9644 0.818034 6.11185e-18)
(11.9208 0.754931 -1.9242e-16)
(11.8754 0.69314 -1.89519e-16)
(11.8289 0.632523 1.86642e-16)
(11.7805 0.572497 1.78236e-16)
(11.7304 0.51396 3.68523e-16)
(11.6793 0.456403 0)
(11.626 0.399672 0)
(11.5708 0.344347 1.74609e-16)
(11.514 0.290125 -2.58155e-23)
(11.4557 0.236718 -5.33763e-18)
(11.396 0.184664 -7.92492e-17)
(11.335 0.133602 -4.18576e-17)
(11.2725 0.0833241 5.18465e-18)
(11.2079 0.0342293 -5.14153e-18)
(11.1412 -0.013338 2.23289e-25)
(11.0723 -0.0596409 2.02694e-17)
(11.0003 -0.104431 -4.02796e-17)
(10.9248 -0.147755 0)
(10.8454 -0.189537 -7.9692e-17)
(10.7623 -0.229869 -4.95823e-18)
(10.6752 -0.268712 1.63008e-16)
(10.584 -0.306011 4.92513e-18)
(10.4887 -0.341719 -4.9142e-18)
(10.3893 -0.375865 4.90732e-18)
(10.2858 -0.40824 3.08993e-16)
(10.1782 -0.438951 0)
(10.0659 -0.46794 3.141e-16)
(9.94837 -0.495109 0)
(9.82517 -0.52046 0)
(9.6955 -0.543958 0)
(9.55969 -0.565309 -6.45445e-16)
(9.41948 -0.58416 5.22839e-18)
(9.27521 -0.600483 1.17038e-22)
(9.12635 -0.614392 -5.63953e-18)
(8.97254 -0.626098 -5.8664e-18)
(8.81381 -0.635599 6.10691e-18)
(8.65002 -0.643088 8.13458e-16)
(8.48087 -0.648587 0)
(8.30621 -0.652143 0)
(8.12579 -0.653803 0)
(7.93949 -0.653578 -9.58332e-16)
(7.74685 -0.651493 5.07097e-16)
(7.54709 -0.647541 5.1222e-16)
(7.34013 -0.641701 0)
(7.12574 -0.634009 5.59305e-16)
(6.90296 -0.624395 1.19487e-15)
(6.67138 -0.612797 9.69349e-18)
(6.43088 -0.599226 -6.59851e-16)
(6.18037 -0.583525 0)
(5.92015 -0.565699 1.11512e-17)
(5.6501 -0.545775 -1.16884e-17)
(5.36955 -0.523701 1.22837e-17)
(5.07907 -0.499614 -8.42363e-16)
(4.7779 -0.473388 0)
(4.46686 -0.445224 1.44764e-17)
(4.14563 -0.415032 9.6216e-16)
(3.81529 -0.383008 1.0598e-15)
(3.47665 -0.349162 1.08979e-15)
(3.1315 -0.313918 0)
(2.78136 -0.27748 -1.27203e-15)
(2.42893 -0.240461 -1.37972e-15)
(2.07674 -0.203071 2.32315e-17)
(1.72818 -0.16583 -3.27957e-15)
(1.38753 -0.129166 0)
(1.0582 -0.09372 -1.96155e-15)
(0.745078 -0.0600795 -3.40009e-17)
(0.451289 -0.0286338 2.46552e-15)
(0.181275 0.000133407 0)
(-0.0629344 0.0265047 -3.05603e-15)
(-0.279811 0.0500963 -6.75777e-15)
(-0.467528 0.0703973 -5.8841e-17)
(-0.627728 0.0881561 0)
(-0.765294 0.105325 4.62298e-15)
(-0.892214 0.125464 0)
(-1.01993 0.149959 -8.11797e-17)
(-1.14555 0.173924 -5.1307e-15)
(-1.24686 0.188186 2.46019e-15)
(-1.28575 0.180795 1.53458e-16)
(-1.21869 0.144477 -2.34344e-15)
(-1.02242 0.0791211 -6.24914e-17)
(-0.692296 -0.00845257 1.85713e-15)
(-0.234142 -0.110276 1.70311e-15)
(0.306499 -0.209137 0)
(0.88119 -0.291085 -2.94665e-15)
(1.43541 -0.338028 -1.53898e-15)
(1.88084 -0.350719 -1.40009e-15)
(2.16509 -0.346933 -1.45057e-15)
(2.27356 -0.33371 1.35673e-15)
(2.20209 -0.316011 3.84588e-17)
(1.97404 -0.27049 0)
(1.48999 -0.137682 -8.13574e-16)
(0.550106 0.150339 -5.97033e-16)
(-1.06211 0.624974 -1.56454e-17)
(-3.4096 1.23202 4.44774e-16)
(12.2762 3.59359 -6.40784e-16)
(12.384 3.50357 6.48791e-16)
(12.4798 3.41189 6.25539e-16)
(12.5659 3.32036 -1.24212e-15)
(12.641 3.22707 5.97669e-16)
(12.707 3.13503 -5.88291e-16)
(12.7641 3.04197 0)
(12.8134 2.94998 0)
(12.8559 2.8579 5.69878e-16)
(12.8909 2.76629 0)
(12.9201 2.67594 5.49402e-16)
(12.9428 2.58573 -8.39063e-18)
(12.9608 2.49714 5.2935e-16)
(12.9732 2.40837 8.09757e-18)
(12.9813 2.32155 -7.95499e-18)
(12.9847 2.23476 7.79933e-18)
(12.9842 2.1499 4.89605e-16)
(12.9795 2.06505 0)
(12.9714 1.9822 0)
(12.9596 1.89956 4.68862e-16)
(12.9449 1.81883 -4.59065e-16)
(12.9269 1.73836 4.50181e-16)
(12.9063 1.65982 -9.16233e-22)
(12.8827 1.58154 -6.65614e-18)
(12.8568 1.50512 4.17673e-16)
(12.8283 1.42902 -4.15891e-16)
(12.7976 1.35467 6.27712e-18)
(12.7646 1.2808 -6.15077e-18)
(12.7294 1.20844 -7.60814e-16)
(12.6923 1.13698 -5.91659e-18)
(12.6528 1.06647 1.91805e-16)
(12.6117 0.997404 -5.70119e-18)
(12.5684 0.928895 -1.8483e-16)
(12.5235 0.861993 5.50309e-18)
(12.4771 0.795889 0)
(12.4287 0.731048 3.35083e-16)
(12.3792 0.667463 5.23031e-18)
(12.3276 0.604519 0)
(12.2743 0.543113 -1.62142e-16)
(12.2199 0.482769 0)
(12.1632 0.423313 -1.4754e-16)
(12.1046 0.36532 -9.70179e-17)
(12.0445 0.308509 1.62765e-16)
(11.9828 0.252555 -9.453e-18)
(11.9197 0.197992 9.33719e-18)
(11.8553 0.144618 -7.61447e-24)
(11.7893 0.0920224 0)
(11.7212 0.0406456 0)
(11.6511 -0.00911217 4.469e-18)
(11.5788 -0.0575424 -3.54203e-17)
(11.5035 -0.104565 4.38858e-17)
(11.4247 -0.149866 6.96403e-17)
(11.342 -0.193551 0)
(11.2555 -0.235715 0)
(11.165 -0.276327 -2.81226e-16)
(11.0704 -0.315328 1.69471e-17)
(10.9717 -0.352672 2.69796e-16)
(10.8688 -0.388394 1.14006e-22)
(10.7617 -0.422278 -5.43753e-16)
(10.6505 -0.454423 0)
(10.5346 -0.48477 -2.57899e-16)
(10.4135 -0.513219 -2.74109e-16)
(10.2867 -0.53977 0)
(10.1534 -0.564386 -2.57289e-16)
(10.0139 -0.586763 2.69965e-16)
(9.87016 -0.606527 -8.71922e-18)
(9.72246 -0.623651 5.77477e-16)
(9.5703 -0.638259 5.98154e-16)
(9.41331 -0.650579 6.20234e-16)
(9.25147 -0.660612 0)
(9.08461 -0.668553 0)
(8.91238 -0.674427 -7.03138e-16)
(8.73463 -0.67828 2.24387e-17)
(8.55106 -0.680158 -1.16428e-17)
(8.36159 -0.680067 3.75267e-16)
(8.16573 -0.678035 -4.01961e-16)
(7.96272 -0.674057 -4.04035e-16)
(7.75244 -0.668111 4.33759e-16)
(7.53472 -0.660227 -4.65182e-16)
(7.30858 -0.65034 -4.53568e-16)
(7.07364 -0.63839 0)
(6.82978 -0.624388 1.0307e-15)
(6.5759 -0.608183 5.10435e-16)
(6.31223 -0.589779 0)
(6.03862 -0.569197 5.72772e-16)
(5.75435 -0.546381 0)
(5.45999 -0.521471 6.05433e-16)
(5.15477 -0.494343 -6.3114e-16)
(4.83947 -0.465205 7.06858e-16)
(4.51376 -0.433976 -2.23749e-17)
(4.17855 -0.40088 2.36436e-17)
(3.83456 -0.36593 -8.18644e-16)
(3.48337 -0.329555 8.43274e-16)
(3.12631 -0.291953 0)
(2.76576 -0.25375 -2.97789e-17)
(2.404 -0.215152 1.58347e-17)
(2.04408 -0.176713 2.15508e-22)
(1.69004 -0.138854 1.83971e-17)
(1.34504 -0.102213 4.16183e-22)
(1.01391 -0.0673516 0)
(0.699682 -0.0346478 1.53811e-15)
(0.406778 -0.00464852 1.73655e-15)
(0.137718 0.0228393 1.83957e-15)
(-0.105419 0.0475128 2.15828e-15)
(-0.320859 0.0690679 -3.67408e-17)
(-0.51025 0.0884364 2.64635e-15)
(-0.677141 0.107745 -2.91912e-15)
(-0.830691 0.130316 3.24663e-15)
(-0.976895 0.156487 -5.27361e-17)
(-1.10836 0.179709 6.83792e-15)
(-1.20408 0.190049 -5.21679e-17)
(-1.233 0.174899 5.01446e-17)
(-1.16414 0.128764 1.46771e-15)
(-0.9785 0.0533764 4.04877e-17)
(-0.665059 -0.0466943 -3.6618e-17)
(-0.224791 -0.156757 -7.69247e-22)
(0.30253 -0.262101 -3.29372e-17)
(0.867334 -0.348781 3.12003e-17)
(1.413 -0.39239 0)
(1.85236 -0.391163 9.34754e-16)
(2.13124 -0.366871 3.01189e-17)
(2.21627 -0.328457 0)
(2.10766 -0.283785 0)
(1.79789 -0.200433 -7.14407e-16)
(1.17879 -0.00480325 1.76339e-17)
(0.045511 0.379989 0)
(-1.82297 0.981383 -3.86804e-16)
(-4.4096 1.70627 -3.66956e-16)
(12.6521 3.71089 5.99082e-16)
(12.7752 3.6219 -5.89582e-16)
(12.8855 3.53074 5.78568e-16)
(12.9847 3.43924 5.84195e-16)
(13.072 3.34552 -5.62907e-16)
(13.1488 3.25256 5.54654e-16)
(13.216 3.15831 0)
(13.2745 3.06479 -8.51714e-18)
(13.3255 2.971 -5.30332e-16)
(13.3681 2.87738 5.25491e-16)
(13.404 2.78484 -1.04802e-15)
(13.4328 2.69226 5.16307e-16)
(13.4563 2.60118 -7.83309e-18)
(13.4737 2.5098 7.67036e-18)
(13.4861 2.42026 -4.89857e-16)
(13.4932 2.33064 1.47783e-17)
(13.4958 2.24287 -7.24705e-18)
(13.4937 2.15506 0)
(13.4876 2.06917 -4.45839e-16)
(13.4775 1.98347 -4.37257e-16)
(13.4639 1.89963 4.28043e-16)
(13.4467 1.81604 4.19627e-16)
(13.4265 1.73437 -8.41726e-22)
(13.4031 1.65297 4.03025e-16)
(13.3769 1.57343 1.23439e-17)
(13.3479 1.49422 -1.20972e-17)
(13.3164 1.41679 0)
(13.2823 1.33986 -3.83291e-16)
(13.2457 1.26444 3.87412e-16)
(13.2071 1.18997 -1.11562e-17)
(13.1657 1.11648 -3.39466e-16)
(13.1225 1.04447 -2.14642e-17)
(13.077 0.97304 -1.68541e-16)
(13.0297 0.903347 1.03397e-17)
(12.9808 0.83447 1.72529e-16)
(12.9297 0.766851 -1.5956e-16)
(12.8773 0.700556 -9.79524e-18)
(12.8229 0.634948 0)
(12.7665 0.570918 0)
(12.7088 0.508024 0)
(12.6489 0.446074 2.93172e-16)
(12.587 0.385636 -1.44377e-16)
(12.5235 0.326457 2.84331e-23)
(12.4584 0.268179 -8.76521e-18)
(12.3918 0.211333 -1.35872e-23)
(12.3238 0.155815 7.67445e-17)
(12.2542 0.10112 3.36646e-17)
(12.1825 0.0476453 8.31259e-18)
(12.1088 -0.00413283 -8.21596e-18)
(12.0329 -0.054488 2.43746e-17)
(11.9541 -0.103439 2.41143e-17)
(11.8718 -0.150591 -7.16067e-17)
(11.7856 -0.195972 7.87975e-18)
(11.6956 -0.239763 0)
(11.6015 -0.281943 -7.74017e-18)
(11.5032 -0.32245 7.67928e-18)
(11.4008 -0.361238 -2.43959e-16)
(11.2942 -0.398344 -7.57355e-18)
(11.1834 -0.433549 2.48461e-16)
(11.0684 -0.466944 -2.39596e-16)
(10.9487 -0.498465 2.38432e-16)
(10.8238 -0.528013 2.37463e-16)
(10.6932 -0.555584 -7.39601e-18)
(10.556 -0.581142 2.43425e-16)
(10.4128 -0.604375 0)
(10.2653 -0.624889 7.71056e-18)
(10.1141 -0.642658 -5.17426e-16)
(9.95859 -0.657818 -5.2651e-16)
(9.7984 -0.670612 -3.55766e-22)
(9.63345 -0.681045 -5.63963e-16)
(9.46355 -0.689315 0)
(9.28833 -0.695449 1.20772e-15)
(9.10759 -0.699491 0)
(8.92103 -0.701485 -6.4672e-16)
(8.72854 -0.701436 -3.35327e-16)
(8.52965 -0.699369 3.47009e-16)
(8.32358 -0.695283 0)
(8.11023 -0.689154 -3.23207e-22)
(7.8894 -0.681009 3.85942e-16)
(7.66016 -0.670782 -3.86791e-16)
(7.4221 -0.658414 -4.27081e-16)
(7.17514 -0.643914 -4.16248e-16)
(6.91815 -0.627136 -9.0283e-16)
(6.65131 -0.608085 0)
(6.37444 -0.586775 -4.79129e-16)
(6.08678 -0.563151 4.8177e-16)
(5.78887 -0.537349 3.23573e-17)
(5.47995 -0.509253 1.05672e-15)
(5.16073 -0.479072 -5.78927e-16)
(4.83089 -0.446738 6.00862e-16)
(4.49125 -0.412497 1.91058e-17)
(4.14242 -0.37637 -1.9891e-17)
(3.78583 -0.338795 -6.70414e-16)
(3.42276 -0.299983 7.00978e-16)
(3.05543 -0.260584 -2.32189e-17)
(2.68597 -0.220835 2.44275e-17)
(2.31721 -0.181332 4.0981e-22)
(1.95295 -0.142492 -2.77088e-17)
(1.5962 -0.104973 9.8267e-16)
(1.25168 -0.0693396 0)
(0.922352 -0.0359473 -2.50421e-22)
(0.612735 -0.00533104 -1.21688e-15)
(0.32561 0.0226686 -1.32952e-15)
(0.0635206 0.0476944 0)
(-0.171571 0.0695972 -1.6218e-15)
(-0.381145 0.0895199 -3.55467e-15)
(-0.56744 0.10968 2.03454e-15)
(-0.737567 0.133187 -2.15051e-15)
(-0.894869 0.159533 -7.11079e-17)
(-1.03084 0.181031 -7.92521e-23)
(-1.12649 0.186793 3.56515e-17)
(-1.15706 0.16541 1.27137e-22)
(-1.09727 0.110754 -3.19922e-17)
(-0.928267 0.0255187 -8.93021e-16)
(-0.635736 -0.0854923 -8.73901e-16)
(-0.216816 -0.204784 -8.1051e-16)
(0.293064 -0.317198 -2.43091e-17)
(0.84461 -0.406505 4.71206e-22)
(1.37798 -0.445538 4.54131e-17)
(1.80666 -0.429742 -2.25058e-17)
(2.07429 -0.382727 0)
(2.12915 -0.315285 0)
(1.97835 -0.238465 -1.94767e-17)
(1.58956 -0.110211 3.33576e-17)
(0.84188 0.157031 4.36343e-16)
(-0.488516 0.653359 -3.87022e-16)
(-2.60844 1.38998 -1.91564e-21)
(-5.39269 2.22297 -9.63908e-18)
(13.1001 3.72181 -5.64132e-16)
(13.2264 3.63239 3.52074e-21)
(13.34 3.54202 8.67267e-18)
(13.4406 3.44891 -3.34956e-22)
(13.5296 3.356 -1.68601e-17)
(13.6085 3.26151 -5.25446e-16)
(13.6777 3.16733 -5.24855e-16)
(13.7384 3.07265 0)
(13.7899 2.97778 -5.07502e-16)
(13.8339 2.88375 1.00549e-15)
(13.8701 2.78947 0)
(13.9003 2.69652 4.77928e-16)
(13.9239 2.60314 7.4321e-18)
(13.9416 2.51141 -1.63096e-21)
(13.9535 2.41951 0)
(13.9603 2.32932 -8.8578e-16)
(13.9619 2.23901 4.27656e-16)
(13.9589 2.15054 -1.22229e-21)
(13.9514 2.06219 0)
(13.9399 1.97564 -1.29767e-17)
(13.9244 1.88931 -3.94311e-16)
(13.9055 1.80485 7.97247e-16)
(13.883 1.72066 -7.81493e-16)
(13.8574 1.63832 0)
(13.8287 1.5563 3.63301e-16)
(13.797 1.47605 1.14857e-17)
(13.7626 1.39632 3.59741e-16)
(13.7253 1.31811 3.63736e-16)
(13.6856 1.24087 3.34338e-16)
(13.6429 1.16461 1.79844e-16)
(13.5981 1.08987 -9.61921e-23)
(13.5509 1.01574 1.52432e-16)
(13.5017 0.943444 1.59471e-16)
(13.4506 0.871939 -9.77454e-18)
(13.3973 0.801719 -1.43948e-16)
(13.3424 0.732882 0)
(13.2853 0.664774 0)
(13.2261 0.598274 -1.45286e-16)
(13.1654 0.532981 -1.51638e-16)
(13.1024 0.468681 -1.40325e-16)
(13.0374 0.405936 8.62809e-18)
(12.9706 0.344523 -1.27377e-16)
(12.9022 0.284058 6.68839e-17)
(12.8322 0.225057 -8.23369e-18)
(12.7607 0.167478 -3.24463e-17)
(12.6875 0.110845 -3.19785e-17)
(12.6122 0.0553909 -7.88488e-18)
(12.5349 0.00168614 7.7817e-18)
(12.4554 -0.0504918 -1.53674e-17)
(12.373 -0.101192 -3.03601e-17)
(12.2871 -0.15016 6.00047e-17)
(12.1974 -0.197107 0)
(12.1037 -0.242415 5.86768e-17)
(12.0059 -0.286048 7.25897e-18)
(11.9039 -0.327948 -1.2221e-16)
(11.7978 -0.368066 2.2795e-16)
(11.6874 -0.406447 0)
(11.5728 -0.442864 0)
(11.4539 -0.4774 2.22542e-16)
(11.3304 -0.50999 0)
(11.2016 -0.540532 -2.19633e-16)
(11.067 -0.56902 -2.18426e-16)
(10.926 -0.595419 -2.1737e-16)
(10.779 -0.619406 0)
(10.6279 -0.640572 0)
(10.4731 -0.658895 0)
(10.3143 -0.674519 0)
(10.151 -0.687705 -4.96693e-16)
(9.98313 -0.69846 5.13329e-16)
(9.81039 -0.706986 8.28524e-18)
(9.63241 -0.713311 -5.56251e-16)
(9.44895 -0.717477 -5.65616e-16)
(9.2597 -0.719527 5.84382e-16)
(9.06453 -0.719463 0)
(8.86296 -0.717309 0)
(8.65424 -0.713067 -1.00779e-17)
(8.43823 -0.706711 -6.6736e-16)
(8.21474 -0.698261 3.55946e-16)
(7.98286 -0.687656 3.56257e-16)
(7.74217 -0.674834 7.37284e-16)