/*--------------------------------*- C++ -*----------------------------------*\
  =========                 |
  \\      /  F ield         | OpenFOAM: The Open Source CFD Toolbox
   \\    /   O peration     | Website:  https://openfoam.org
    \\  /    A nd           | Version:  8
     \\/     M anipulation  |
\*---------------------------------------------------------------------------*/
FoamFile
{
    version     2.0;
    format      ascii;
    class       volScalarField;
    location    "0.460025";
    object      Co;
}
// * * * * * * * * * * * * * * * * * * * * * * * * * * * * * * * * * * * * * //

dimensions      [0 0 0 0 0 0 0];

internalField   nonuniform List<scalar> 
168000
(
0.138439
0.145606
0.152014
0.15774
0.162875
0.167496
0.171668
0.175449
0.178883
0.182008
0.184858
0.187458
0.18983
0.191992
0.193958
0.195738
0.197338
0.198763
0.200011
0.201079
0.20196
0.202648
0.203134
0.203413
0.20349
0.20349
0.203398
0.203176
0.202844
0.202407
0.201869
0.201231
0.200497
0.199669
0.198747
0.197734
0.196632
0.195441
0.194165
0.192803
0.191358
0.189831
0.188223
0.186535
0.18477
0.182927
0.181009
0.179016
0.17695
0.174813
0.172604
0.170325
0.167979
0.165565
0.163085
0.16054
0.157932
0.155261
0.15253
0.149739
0.14689
0.143984
0.141023
0.13801
0.134946
0.131833
0.128674
0.125469
0.12222
0.118925
0.115579
0.112177
0.108717
0.105202
0.101645
0.0980568
0.0944413
0.0907996
0.0871315
0.0834339
0.0797037
0.0759407
0.0721452
0.0683186
0.0644621
0.0605772
0.0566654
0.0527281
0.0487668
0.044783
0.0407784
0.0367543
0.0327123
0.0286538
0.02458
0.0204923
0.0163918
0.0122809
0.00816448
0.00405392
0.205793
0.208976
0.211731
0.214127
0.216245
0.21812
0.219779
0.22124
0.222515
0.223614
0.224546
0.225316
0.22593
0.226391
0.226704
0.226872
0.2269
0.226796
0.226566
0.226221
0.225775
0.225243
0.224642
0.224178
0.223726
0.223327
0.222907
0.222382
0.221751
0.221018
0.220185
0.219256
0.218233
0.217117
0.21591
0.214615
0.213233
0.211764
0.210212
0.208577
0.206861
0.205066
0.203192
0.201241
0.199215
0.197115
0.194942
0.192697
0.190382
0.187998
0.185546
0.183028
0.180445
0.177798
0.175089
0.172318
0.169487
0.166597
0.163649
0.160644
0.157584
0.154469
0.1513
0.148078
0.144804
0.141477
0.138099
0.134672
0.131199
0.127687
0.12414
0.12056
0.116943
0.11328
0.10957
0.105815
0.102019
0.098187
0.0943231
0.090431
0.0865114
0.0825649
0.0785924
0.0745947
0.0705728
0.0665281
0.0624619
0.0583754
0.0542698
0.0501465
0.0460069
0.0418523
0.0376839
0.0335035
0.0293125
0.025112
0.0209024
0.0166819
0.0124466
0.00815168
0.219392
0.22052
0.221668
0.222767
0.223801
0.224755
0.225619
0.226386
0.227051
0.227611
0.228065
0.228413
0.228655
0.228793
0.228829
0.228765
0.228605
0.228352
0.228009
0.227579
0.227066
0.226521
0.226179
0.225926
0.225621
0.225212
0.224702
0.224092
0.223384
0.22258
0.221682
0.220692
0.219613
0.218445
0.217191
0.215853
0.214432
0.212929
0.211345
0.209684
0.207945
0.206129
0.204239
0.202276
0.200241
0.198134
0.195958
0.193713
0.191401
0.189023
0.186581
0.184074
0.181505
0.178874
0.176184
0.173434
0.170626
0.167762
0.164842
0.161867
0.158839
0.155758
0.152627
0.149445
0.146214
0.142936
0.139611
0.136241
0.132827
0.129372
0.125877
0.122346
0.118776
0.115167
0.111517
0.107828
0.104102
0.100342
0.0965511
0.0927308
0.0888828
0.0850079
0.0811071
0.0771817
0.0732325
0.0692607
0.0652675
0.0612543
0.0572219
0.0531718
0.0491055
0.045024
0.0409286
0.0368207
0.0327018
0.0285731
0.0244356
0.0202897
0.0161329
0.0119558
0.221367
0.221868
0.222464
0.223093
0.223718
0.22431
0.22485
0.225326
0.225728
0.22605
0.226286
0.226435
0.226495
0.226465
0.226345
0.226136
0.225838
0.225452
0.22498
0.22442
0.223804
0.223542
0.223454
0.223263
0.222969
0.222576
0.222086
0.221499
0.220818
0.220045
0.219181
0.218229
0.21719
0.216066
0.214858
0.213569
0.212199
0.21075
0.209223
0.20762
0.205942
0.20419
0.202366
0.20047
0.198503
0.196468
0.194365
0.192196
0.18996
0.18766
0.185297
0.182872
0.180386
0.17784
0.175234
0.172572
0.169852
0.167076
0.164247
0.161363
0.158428
0.155441
0.152403
0.149317
0.146182
0.143
0.139773
0.136502
0.133188
0.129834
0.126441
0.123011
0.119542
0.116034
0.112488
0.108903
0.105283
0.101629
0.097944
0.094229
0.0904857
0.086715
0.0829181
0.0790961
0.0752501
0.0713812
0.0674904
0.0635788
0.059648
0.0556989
0.0517326
0.0477504
0.0437537
0.0397438
0.0357218
0.0316891
0.0276469
0.0235962
0.0195374
0.0154715
0.220334
0.220518
0.220811
0.221155
0.221513
0.221857
0.222167
0.222428
0.22263
0.222765
0.222828
0.222813
0.222719
0.222544
0.222287
0.221946
0.221523
0.221017
0.220429
0.219758
0.219398
0.219461
0.219418
0.219274
0.21903
0.218689
0.218253
0.217724
0.217103
0.216393
0.215594
0.214709
0.21374
0.212687
0.211553
0.210339
0.209046
0.207676
0.20623
0.204709
0.203115
0.201448
0.19971
0.197902
0.196026
0.194081
0.19207
0.189993
0.187852
0.185648
0.183381
0.181053
0.178665
0.176218
0.173713
0.171151
0.168533
0.16586
0.163133
0.160354
0.157523
0.154641
0.15171
0.14873
0.145702
0.142628
0.139509
0.136346
0.133142
0.129896
0.126611
0.123288
0.119927
0.116527
0.11309
0.109616
0.106107
0.102564
0.0989891
0.0953841
0.0917501
0.0880885
0.0844001
0.0806863
0.0769479
0.0731861
0.0694022
0.0655971
0.061772
0.0579281
0.0540663
0.0501882
0.0462949
0.0423874
0.0384672
0.0345354
0.0305934
0.0266422
0.0226828
0.0187179
0.218165
0.218145
0.218218
0.218342
0.218487
0.218627
0.218745
0.218824
0.218854
0.218828
0.218738
0.21858
0.218351
0.218048
0.21767
0.217215
0.216683
0.216074
0.215388
0.214752
0.214835
0.21495
0.214963
0.214876
0.214692
0.214414
0.214042
0.213579
0.213027
0.212388
0.211662
0.210852
0.209959
0.208984
0.20793
0.206798
0.205588
0.204302
0.202942
0.201508
0.200002
0.198425
0.196778
0.195062
0.193279
0.191428
0.189512
0.187532
0.185488
0.183382
0.181214
0.178986
0.176698
0.174353
0.17195
0.16949
0.166976
0.164407
0.161785
0.15911
0.156385
0.153609
0.150784
0.147911
0.144991
0.142025
0.139015
0.135961
0.132865
0.129727
0.126551
0.123336
0.120082
0.11679
0.113462
0.110097
0.106697
0.103264
0.0997983
0.0963022
0.0927767
0.0892231
0.0856425
0.0820358
0.0784043
0.074749
0.0710708
0.0673711
0.0636509
0.0599114
0.0561536
0.0523788
0.048588
0.0447825
0.0409636
0.0371323
0.0332899
0.0294376
0.0255761
0.021709
0.215396
0.21522
0.21512
0.215068
0.215037
0.215007
0.21496
0.214883
0.214765
0.214598
0.214376
0.214093
0.213746
0.213333
0.21285
0.212296
0.211671
0.210974
0.210205
0.209885
0.210156
0.210325
0.210395
0.210367
0.210244
0.210028
0.209722
0.209327
0.208844
0.208275
0.207622
0.206887
0.20607
0.205174
0.204199
0.203147
0.20202
0.200817
0.199542
0.198194
0.196776
0.195287
0.193729
0.192104
0.190412
0.188654
0.186832
0.184946
0.182998
0.180987
0.178916
0.176786
0.174597
0.172351
0.170047
0.167689
0.165275
0.162808
0.160288
0.157717
0.155094
0.152423
0.149702
0.146934
0.144119
0.141258
0.138353
0.135405
0.132415
0.129384
0.126313
0.123203
0.120055
0.116869
0.113647
0.110388
0.107095
0.103768
0.100409
0.0970195
0.0936
0.0901519
0.0866765
0.0831748
0.0796477
0.0760964
0.072522
0.0689256
0.0653081
0.0616709
0.0580149
0.0543413
0.0506513
0.0469459
0.0432262
0.0394936
0.0357491
0.0319937
0.0282284
0.0244569
0.21226
0.211963
0.211727
0.211532
0.211356
0.211183
0.210997
0.210786
0.21054
0.210251
0.209913
0.209521
0.20907
0.208559
0.207985
0.207345
0.206639
0.205866
0.205025
0.205162
0.205483
0.205703
0.205827
0.205855
0.205791
0.205636
0.205392
0.205061
0.204644
0.204144
0.203561
0.202897
0.202154
0.201332
0.200433
0.199459
0.19841
0.197289
0.196095
0.19483
0.193495
0.192091
0.19062
0.189082
0.187478
0.185809
0.184077
0.182282
0.180426
0.178508
0.176531
0.174495
0.172401
0.17025
0.168044
0.165782
0.163466
0.161097
0.158676
0.156204
0.153682
0.15111
0.148491
0.145824
0.14311
0.140352
0.137549
0.134703
0.131816
0.128887
0.125919
0.122911
0.119866
0.116783
0.113663
0.110508
0.107318
0.104095
0.10084
0.0975529
0.0942365
0.0908912
0.0875182
0.0841185
0.0806934
0.0772436
0.0737704
0.0702747
0.0667575
0.0632201
0.0596637
0.056089
0.0524974
0.0488898
0.0452674
0.0416313
0.0379827
0.0343223
0.0306514
0.0269736
0.208888
0.208496
0.208151
0.207839
0.207543
0.207249
0.206944
0.206618
0.206262
0.205866
0.205427
0.204938
0.204397
0.2038
0.203144
0.202428
0.201651
0.20081
0.200076
0.200499
0.200865
0.201132
0.201304
0.201385
0.201375
0.201276
0.20109
0.20082
0.200466
0.200029
0.199511
0.198915
0.19824
0.197489
0.196663
0.195762
0.194788
0.193742
0.192626
0.191439
0.190184
0.188862
0.187472
0.186017
0.184498
0.182914
0.181268
0.17956
0.177792
0.175963
0.174075
0.17213
0.170127
0.168068
0.165954
0.163786
0.161564
0.159289
0.156964
0.154587
0.152161
0.149686
0.147163
0.144594
0.141979
0.139319
0.136615
0.133868
0.131079
0.12825
0.125381
0.122473
0.119526
0.116543
0.113523
0.110468
0.107379
0.104256
0.101101
0.097914
0.0946975
0.0914521
0.0881787
0.0848785
0.0815525
0.0782015
0.0748269
0.0714292
0.06801
0.0645703
0.0611107
0.0576327
0.0541373
0.0506254
0.0470981
0.0435565
0.0400017
0.0364346
0.0328563
0.0292703
0.205359
0.20489
0.204457
0.204049
0.203653
0.203257
0.202851
0.202425
0.201971
0.201482
0.200954
0.200381
0.19976
0.199086
0.198358
0.197574
0.196733
0.195834
0.195416
0.195917
0.19632
0.19663
0.196847
0.196974
0.197013
0.196966
0.196834
0.196618
0.196322
0.195945
0.195488
0.194954
0.194344
0.193659
0.1929
0.192068
0.191165
0.190191
0.189147
0.188035
0.186855
0.185609
0.184298
0.182921
0.181482
0.179979
0.178415
0.17679
0.175105
0.173361
0.171559
0.1697
0.167784
0.165813
0.163788
0.161709
0.159577
0.157393
0.155159
0.152874
0.15054
0.148158
0.145729
0.143254
0.140733
0.138168
0.135559
0.132907
0.130214
0.127481
0.124708
0.121896
0.119046
0.116159
0.113236
0.110278
0.107285
0.104259
0.101201
0.098112
0.0949927
0.0918443
0.0886678
0.0854643
0.0822346
0.07898
0.0757014
0.0723996
0.0690759
0.0657312
0.0623664
0.0589828
0.0555813
0.052163
0.0487287
0.0452797
0.0418169
0.0383411
0.0348536
0.0313579
0.201723
0.201192
0.200685
0.200197
0.199716
0.199234
0.198741
0.19823
0.197692
0.197122
0.196515
0.195867
0.195174
0.194432
0.19364
0.192796
0.191899
0.190946
0.19089
0.191422
0.19186
0.192205
0.192462
0.192631
0.192714
0.192713
0.192629
0.192464
0.19222
0.191897
0.191497
0.191022
0.190471
0.189847
0.189151
0.188384
0.187546
0.186639
0.185664
0.184622
0.183513
0.182339
0.181101
0.1798
0.178436
0.17701
0.175523
0.173977
0.172372
0.170709
0.168988
0.167211
0.165379
0.163492
0.161551
0.159558
0.157512
0.155415
0.153268
0.151072
0.148827
0.146534
0.144195
0.14181
0.13938
0.136906
0.134388
0.131829
0.129228
0.126587
0.123907
0.121188
0.118432
0.115638
0.112809
0.109944
0.107046
0.104114
0.101151
0.0981558
0.0951309
0.0920767
0.0889943
0.085885
0.0827492
0.0795884
0.0764034
0.073195
0.0699644
0.0667126
0.0634405
0.0601491
0.0568395
0.0535125
0.0501694
0.046811
0.0434382
0.0400522
0.0366537
0.0332467
0.198012
0.197429
0.196862
0.196307
0.195755
0.1952
0.194632
0.194045
0.193434
0.192793
0.192116
0.191403
0.190646
0.189844
0.188996
0.188098
0.187151
0.186151
0.18646
0.187016
0.187483
0.187861
0.188151
0.188357
0.18848
0.18852
0.18848
0.188361
0.188164
0.187892
0.187543
0.187121
0.186625
0.186058
0.18542
0.184713
0.183937
0.183092
0.182181
0.181205
0.180163
0.179057
0.177888
0.176657
0.175364
0.174011
0.172598
0.171127
0.169597
0.168011
0.166368
0.164669
0.162916
0.161109
0.15925
0.157338
0.155375
0.153361
0.151298
0.149186
0.147027
0.14482
0.142567
0.140269
0.137926
0.13554
0.133111
0.13064
0.128129
0.125577
0.122987
0.120358
0.117691
0.114988
0.11225
0.109477
0.106669
0.103829
0.100957
0.0980536
0.0951204
0.0921578
0.0891672
0.0861493
0.0831052
0.0800356
0.0769418
0.0738245
0.0706849
0.0675237
0.0643421
0.061141
0.0579211
0.0546838
0.0514298
0.0481601
0.0448758
0.0415777
0.0382667
0.0349467
0.194248
0.193622
0.193004
0.192393
0.191782
0.191163
0.190531
0.18988
0.189206
0.188502
0.187766
0.186993
0.18618
0.185326
0.184427
0.183481
0.182489
0.181542
0.182125
0.182702
0.183192
0.183596
0.183916
0.184153
0.18431
0.184387
0.184387
0.184309
0.184155
0.183928
0.183626
0.183253
0.182808
0.182294
0.18171
0.181057
0.180338
0.179553
0.178701
0.177786
0.176807
0.175765
0.174661
0.173496
0.172271
0.170987
0.169644
0.168243
0.166785
0.165272
0.163703
0.162079
0.160401
0.158671
0.156889
0.155055
0.153171
0.151237
0.149255
0.147224
0.145146
0.143022
0.140852
0.138637
0.136379
0.134077
0.131733
0.129348
0.126923
0.124458
0.121954
0.119412
0.116833
0.114217
0.111567
0.108882
0.106163
0.103412
0.100628
0.0978139
0.0949696
0.0920963
0.0891948
0.086266
0.083311
0.0803306
0.0773257
0.0742973
0.0712464
0.0681739
0.0650806
0.0619676
0.0588357
0.0556861
0.0525194
0.0493367
0.046139
0.0429272
0.0397021
0.0364676
0.190447
0.189785
0.189125
0.188467
0.187804
0.187132
0.186445
0.185739
0.185009
0.184252
0.183463
0.182638
0.181777
0.180875
0.179932
0.178945
0.177913
0.177206
0.177883
0.178475
0.178984
0.17941
0.179755
0.180019
0.180206
0.180315
0.180349
0.180308
0.180194
0.180007
0.179748
0.179419
0.179021
0.178555
0.178021
0.17742
0.176753
0.176022
0.175227
0.174369
0.173449
0.172467
0.171424
0.170322
0.169161
0.167941
0.166664
0.16533
0.163941
0.162496
0.160997
0.159445
0.15784
0.156182
0.154474
0.152715
0.150906
0.149049
0.147143
0.14519
0.143191
0.141146
0.139056
0.136921
0.134744
0.132524
0.130262
0.12796
0.125617
0.123235
0.120815
0.118358
0.115863
0.113333
0.110768
0.108168
0.105535
0.10287
0.100173
0.0974448
0.094687
0.0919003
0.0890855
0.0862436
0.0833754
0.0804818
0.0775638
0.0746221
0.0716578
0.0686718
0.0656649
0.0626381
0.0595923
0.0565284
0.0534473
0.0503499
0.0472372
0.04411
0.0409693
0.0378187
0.186622
0.185929
0.185234
0.184536
0.18383
0.183112
0.182379
0.181626
0.180848
0.180043
0.179208
0.17834
0.177435
0.176492
0.175511
0.174487
0.173421
0.173046
0.173732
0.174336
0.174858
0.175301
0.175666
0.175955
0.176167
0.176304
0.176368
0.176359
0.17628
0.17613
0.175911
0.175622
0.175267
0.174845
0.174356
0.173802
0.173185
0.172505
0.171762
0.170957
0.170091
0.169166
0.168181
0.167137
0.166036
0.164878
0.163663
0.162393
0.161068
0.159689
0.158257
0.156772
0.155236
0.153648
0.15201
0.150322
0.148586
0.146802
0.14497
0.143092
0.141168
0.139198
0.137185
0.135128
0.133029
0.130887
0.128705
0.126482
0.124219
0.121918
0.119579
0.117203
0.114791
0.112342
0.10986
0.107343
0.104793
0.102211
0.099598
0.0969542
0.0942806
0.0915782
0.0888479
0.0860905
0.0833069
0.0804978
0.0776643
0.0748074
0.0719277
0.0690262
0.0661038
0.0631612
0.0601996
0.0572196
0.0542224
0.0512086
0.0481792
0.0451351
0.0420772
0.039009
0.182782
0.182063
0.181339
0.180607
0.179865
0.179109
0.178336
0.177542
0.176723
0.175878
0.175004
0.174097
0.173155
0.172177
0.171162
0.170106
0.16901
0.168979
0.169669
0.170279
0.170813
0.17127
0.17165
0.171957
0.172191
0.172353
0.172444
0.172464
0.172416
0.172298
0.172113
0.171862
0.171545
0.171163
0.170716
0.170207
0.169635
0.169002
0.168308
0.167553
0.166738
0.165866
0.164934
0.163946
0.162901
0.161801
0.160646
0.159435
0.158172
0.156855
0.155486
0.154066
0.152595
0.151073
0.149503
0.147883
0.146216
0.144502
0.142741
0.140934
0.139082
0.137186
0.135246
0.133264
0.131239
0.129174
0.127068
0.124921
0.122736
0.120513
0.118252
0.115955
0.113622
0.111253
0.108851
0.106414
0.103945
0.101444
0.0989123
0.0963501
0.0937584
0.0911379
0.0884897
0.0858146
0.0831134
0.0803869
0.0776361
0.0748616
0.0720645
0.0692455
0.0664056
0.0635455
0.0606663
0.0577685
0.0548533
0.0519214
0.0489737
0.0460111
0.0430345
0.0400471
0.178937
0.178197
0.177447
0.176688
0.175915
0.175127
0.174319
0.17349
0.172638
0.171759
0.17085
0.16991
0.168937
0.167928
0.166884
0.165802
0.164681
0.165
0.16569
0.166305
0.166846
0.167312
0.167707
0.168029
0.168281
0.168463
0.168576
0.168622
0.1686
0.168512
0.168359
0.168141
0.167859
0.167514
0.167106
0.166637
0.166107
0.165516
0.164867
0.164159
0.163392
0.162569
0.161688
0.160752
0.159761
0.158715
0.157615
0.156461
0.155256
0.153998
0.15269
0.151331
0.149922
0.148464
0.146957
0.145403
0.143802
0.142154
0.140461
0.138723
0.136941
0.135115
0.133246
0.131335
0.129383
0.12739
0.125357
0.123285
0.121175
0.119027
0.116842
0.114621
0.112364
0.110073
0.107748
0.105389
0.102999
0.100576
0.0981232
0.0956401
0.093128
0.0905872
0.088019
0.085424
0.0828032
0.080157
0.0774867
0.0747928
0.0720763
0.0693379
0.0665786
0.0637993
0.0610005
0.0581832
0.0553483
0.0524965
0.049629
0.0467462
0.0438493
0.0409414
0.175092
0.174335
0.173565
0.172781
0.171983
0.171168
0.170332
0.169475
0.168593
0.167684
0.166747
0.165779
0.164779
0.163746
0.162677
0.161572
0.160479
0.161108
0.161796
0.162411
0.162955
0.163429
0.163832
0.164167
0.164433
0.164633
0.164766
0.164833
0.164835
0.164774
0.164648
0.16446
0.164209
0.163897
0.163525
0.163093
0.162602
0.162052
0.161444
0.160779
0.160057
0.159279
0.158446
0.157559
0.156618
0.155623
0.154576
0.153476
0.152326
0.151124
0.149872
0.148572
0.147222
0.145825
0.144379
0.142887
0.141349
0.139766
0.138137
0.136465
0.134749
0.13299
0.13119
0.129348
0.127465
0.125542
0.123581
0.12158
0.119542
0.117466
0.115354
0.113207
0.111025
0.108808
0.106558
0.104275
0.10196
0.0996146
0.0972382
0.0948321
0.0923971
0.0899341
0.0874436
0.0849265
0.0823838
0.0798161
0.0772242
0.0746089
0.0719711
0.0693115
0.0666309
0.0639303
0.0612103
0.0584717
0.0557155
0.0529424
0.0501532
0.0473488
0.04453
0.0417001
0.171254
0.170482
0.169695
0.168893
0.168074
0.167236
0.166378
0.165496
0.16459
0.163658
0.162697
0.161706
0.160683
0.159628
0.15854
0.157416
0.156547
0.157299
0.157981
0.158594
0.159139
0.159616
0.160027
0.160371
0.160649
0.160862
0.161012
0.161098
0.161121
0.161081
0.160981
0.160819
0.160597
0.160316
0.159976
0.159578
0.159122
0.158609
0.15804
0.157415
0.156735
0.156001
0.155212
0.154371
0.153476
0.15253
0.151533
0.150484
0.149385
0.148237
0.147039
0.145794
0.144501
0.14316
0.141774
0.140341
0.138863
0.137341
0.135775
0.134165
0.132513
0.130819
0.129084
0.127308
0.125493
0.123637
0.121744
0.119812
0.117844
0.115838
0.113797
0.111721
0.109611
0.107466
0.105289
0.103079
0.100838
0.0985664
0.0962644
0.0939331
0.0915732
0.0891856
0.0867707
0.0843296
0.081863
0.0793717
0.0768563
0.0743176
0.0717565
0.0691738
0.0665702
0.0639464
0.0613035
0.0586419
0.0559627
0.0532665
0.0505542
0.0478265
0.0450844
0.0423309
0.167429
0.166646
0.165845
0.165027
0.164191
0.163336
0.162458
0.161557
0.160631
0.159679
0.158699
0.157689
0.156649
0.155577
0.154472
0.153334
0.152829
0.15357
0.154245
0.154853
0.155397
0.155876
0.15629
0.156641
0.156928
0.157152
0.157315
0.157417
0.157458
0.157439
0.15736
0.157222
0.157026
0.156773
0.156462
0.156094
0.155671
0.155193
0.154659
0.154072
0.153431
0.152736
0.151989
0.15119
0.15034
0.149439
0.148488
0.147488
0.146439
0.14534
0.144195
0.143002
0.141762
0.140477
0.139146
0.13777
0.13635
0.134886
0.133379
0.13183
0.130239
0.128608
0.126935
0.125223
0.123471
0.121682
0.119854
0.117989
0.116087
0.11415
0.112177
0.110169
0.108128
0.106054
0.103947
0.101809
0.0996389
0.0974389
0.0952091
0.0929504
0.0906635
0.088349
0.0860079
0.0836407
0.0812482
0.0788312
0.0763903
0.0739264
0.0714402
0.0689324
0.0664039
0.0638554
0.0612876
0.0587013
0.0560974
0.0534765
0.0508394
0.0481869
0.0455199
0.0428413
0.163621
0.162829
0.162018
0.161188
0.160339
0.159469
0.158576
0.15766
0.156718
0.15575
0.154754
0.15373
0.152676
0.151591
0.150473
0.149324
0.14919
0.14992
0.150585
0.151187
0.151726
0.152204
0.15262
0.152974
0.153268
0.153502
0.153676
0.153791
0.153848
0.153845
0.153786
0.153669
0.153496
0.153268
0.152984
0.152645
0.152251
0.151804
0.151303
0.15075
0.150145
0.149488
0.14878
0.148021
0.147213
0.146355
0.145448
0.144493
0.14349
0.14244
0.141343
0.1402
0.139011
0.137778
0.1365
0.135178
0.133813
0.132406
0.130956
0.129465
0.127933
0.12636
0.124748
0.123097
0.121408
0.119681
0.117916
0.116115
0.114278
0.112406
0.110499
0.108559
0.106585
0.104578
0.102539
0.10047
0.0983691
0.0962387
0.0940791
0.0918909
0.0896748
0.0874316
0.0851619
0.0828666
0.0805463
0.0782016
0.0758334
0.0734424
0.0710291
0.0685945
0.0661393
0.0636643
0.06117
0.0586573
0.056127
0.0535796
0.0510162
0.0484374
0.0458439
0.0432388
0.159835
0.159037
0.158219
0.15738
0.156521
0.155639
0.154735
0.153806
0.152853
0.151873
0.150865
0.14983
0.148765
0.14767
0.146544
0.145386
0.145629
0.146344
0.146999
0.147593
0.148127
0.148601
0.149017
0.149373
0.149671
0.149911
0.150094
0.15022
0.150289
0.150302
0.150259
0.150162
0.150009
0.149803
0.149543
0.149229
0.148863
0.148445
0.147976
0.147454
0.146883
0.146261
0.145589
0.144868
0.144099
0.143281
0.142416
0.141503
0.140545
0.139539
0.138489
0.137394
0.136253
0.135069
0.133841
0.132572
0.131259
0.129905
0.12851
0.127074
0.125598
0.124083
0.122529
0.120937
0.119307
0.11764
0.115937
0.114197
0.112423
0.110614
0.108771
0.106895
0.104986
0.103045
0.101072
0.0990688
0.0970354
0.0949725
0.0928808
0.0907611
0.0886139
0.0864399
0.0842398
0.0820144
0.0797642
0.07749
0.0751924
0.0728724
0.0705303
0.0681671
0.0657835
0.06338
0.0609575
0.0585167
0.0560583
0.053583
0.0510917
0.0485849
0.0460634
0.0435302
0.156076
0.155274
0.15445
0.153605
0.152738
0.151849
0.150937
0.15
0.149037
0.148048
0.147032
0.145989
0.144917
0.143815
0.142683
0.141551
0.142143
0.142843
0.143485
0.144069
0.144596
0.145066
0.145479
0.145836
0.146136
0.146381
0.14657
0.146705
0.146785
0.14681
0.146782
0.146701
0.146567
0.146381
0.146142
0.145852
0.145511
0.14512
0.144678
0.144186
0.143646
0.143056
0.142419
0.141733
0.141
0.14022
0.139394
0.138522
0.137605
0.136642
0.135636
0.134585
0.133492
0.132355
0.131176
0.129955
0.128692
0.127389
0.126046
0.124664
0.123242
0.121782
0.120283
0.118747
0.117175
0.115566
0.113921
0.112242
0.110527
0.108779
0.106998
0.105184
0.103338
0.10146
0.0995512
0.0976124
0.095644
0.0936467
0.0916209
0.0895675
0.0874871
0.0853804
0.0832479
0.0810903
0.0789084
0.0767028
0.0744742
0.0722231
0.0699505
0.0676569
0.0653429
0.0630094
0.060657
0.0582864
0.0558983
0.0534935
0.0510725
0.0486362
0.0461852
0.0437224
0.152348
0.151543
0.150716
0.149867
0.148996
0.148102
0.147183
0.146241
0.145273
0.144278
0.143257
0.142209
0.141132
0.140026
0.138892
0.137991
0.13873
0.139414
0.140042
0.140615
0.141133
0.141596
0.142006
0.14236
0.142662
0.142909
0.143103
0.143245
0.143334
0.14337
0.143355
0.143288
0.14317
0.143002
0.142783
0.142514
0.142196
0.141829
0.141413
0.140949
0.140437
0.139878
0.139272
0.138619
0.137921
0.137176
0.136387
0.135553
0.134675
0.133753
0.132788
0.131781
0.130731
0.129639
0.128505
0.127332
0.126118
0.124863
0.12357
0.122239
0.120868
0.11946
0.118016
0.116534
0.115017
0.113463
0.111875
0.110253
0.108597
0.106908
0.105186
0.103432
0.101646
0.0998295
0.0979828
0.0961064
0.094201
0.092267
0.0903053
0.0883163
0.0863007
0.0842593
0.0821924
0.0801009
0.0779854
0.0758465
0.0736849
0.0715012
0.0692961
0.0670702
0.0648243
0.0625591
0.0602751
0.057973
0.0556535
0.0533174
0.0509653
0.0485979
0.0462158
0.0438219
0.148654
0.147848
0.14702
0.14617
0.145296
0.144399
0.143478
0.142532
0.141561
0.140564
0.13954
0.138489
0.137411
0.136305
0.13517
0.134668
0.135387
0.136053
0.136667
0.137228
0.137736
0.138193
0.138597
0.138948
0.139248
0.139497
0.139695
0.139841
0.139937
0.139983
0.139978
0.139924
0.13982
0.139667
0.139466
0.139217
0.13892
0.138575
0.138183
0.137744
0.137258
0.136727
0.136151
0.13553
0.134863
0.134152
0.133398
0.1326
0.131759
0.130875
0.12995
0.128983
0.127974
0.126925
0.125836
0.124707
0.123538
0.122331
0.121086
0.119802
0.118482
0.117125
0.115731
0.114302
0.112837
0.111338
0.109804
0.108237
0.106637
0.105004
0.10334
0.101643
0.0999166
0.0981595
0.0963726
0.0945566
0.0927121
0.0908396
0.0889398
0.0870133
0.0850607
0.0830825
0.0810795
0.0790522
0.0770012
0.0749272
0.0728307
0.0707125
0.0685732
0.0664135
0.0642338
0.062035
0.0598177
0.0575825
0.05533
0.053061
0.0507762
0.0484762
0.0461616
0.043835
0.144998
0.144193
0.143366
0.142515
0.141641
0.140744
0.139822
0.138876
0.137904
0.136906
0.135883
0.134833
0.133755
0.13265
0.131518
0.131414
0.132113
0.132761
0.13336
0.133908
0.134405
0.134853
0.13525
0.135598
0.135896
0.136144
0.136344
0.136494
0.136595
0.136648
0.136653
0.136609
0.136518
0.13638
0.136194
0.135962
0.135684
0.135359
0.13499
0.134574
0.134113
0.133608
0.133059
0.132467
0.131831
0.131151
0.130429
0.129665
0.128859
0.128012
0.127124
0.126195
0.125226
0.124218
0.12317
0.122084
0.120959
0.119797
0.118597
0.11736
0.116087
0.114779
0.113434
0.112055
0.110641
0.109194
0.107713
0.106199
0.104652
0.103074
0.101465
0.099825
0.0981547
0.0964548
0.0947259
0.0929683
0.0911828
0.08937
0.0875302
0.0856643
0.0837727
0.081856
0.0799148
0.0779498
0.0759615
0.0739506
0.0719176
0.0698631
0.0677879
0.0656924
0.0635773
0.0614434
0.0592911
0.0571211
0.054934
0.0527306
0.0505115
0.0482772
0.0460285
0.0437679
0.141381
0.14058
0.139755
0.138906
0.138034
0.137139
0.136218
0.135273
0.134303
0.133308
0.132287
0.131239
0.130165
0.129063
0.127936
0.128226
0.128905
0.129535
0.130118
0.130652
0.131138
0.131577
0.131967
0.132309
0.132603
0.13285
0.13305
0.133203
0.133308
0.133367
0.133379
0.133345
0.133265
0.133139
0.132968
0.132751
0.13249
0.132185
0.131834
0.13144
0.131003
0.130523
0.129999
0.129434
0.128826
0.128176
0.127484
0.126753
0.12598
0.125167
0.124314
0.123422
0.122491
0.121521
0.120513
0.119468
0.118385
0.117265
0.116109
0.114917
0.113689
0.112427
0.11113
0.109798
0.108433
0.107036
0.105605
0.104142
0.102648
0.101123
0.099567
0.097981
0.0963654
0.0947208
0.0930479
0.0913468
0.0896184
0.0878632
0.0860817
0.0842745
0.0824421
0.080585
0.078704
0.0767995
0.0748721
0.0729224
0.0709511
0.0689586
0.0669457
0.0649129
0.0628607
0.0607899
0.0587009
0.0565946
0.0544713
0.0523318
0.0501768
0.0480068
0.0458224
0.0436261
0.137809
0.137012
0.136191
0.135346
0.134477
0.133585
0.132668
0.131726
0.13076
0.129769
0.128752
0.127709
0.12664
0.125545
0.124513
0.125104
0.125762
0.126374
0.12694
0.127461
0.127935
0.128363
0.128745
0.129081
0.129371
0.129616
0.129814
0.129968
0.130076
0.130139
0.130158
0.130132
0.130061
0.129947
0.129788
0.129585
0.12934
0.129051
0.12872
0.128346
0.12793
0.127472
0.126972
0.126432
0.12585
0.125228
0.124566
0.123864
0.123123
0.122342
0.121523
0.120666
0.11977
0.118838
0.117867
0.11686
0.115817
0.114739
0.113624
0.112475
0.111291
0.110073
0.108821
0.107536
0.106218
0.104868
0.103486
0.102073
0.100629
0.0991543
0.0976499
0.0961161
0.0945534
0.0929623
0.0913434
0.0896971
0.0880239
0.0863246
0.0845994
0.0828491
0.081074
0.0792748
0.0774521
0.0756064
0.0737382
0.071848
0.0699366
0.0680045
0.0660521
0.0640802
0.0620893
0.0600799
0.0580527
0.0560084
0.0539473
0.0518702
0.0497777
0.0476704
0.0455488
0.0434155
0.134284
0.133491
0.132676
0.131836
0.130972
0.130085
0.129173
0.128237
0.127276
0.12629
0.125279
0.124243
0.123182
0.122094
0.121363
0.122044
0.122682
0.123276
0.123826
0.124331
0.124793
0.12521
0.125583
0.125913
0.126198
0.126439
0.126636
0.12679
0.126899
0.126966
0.12699
0.12697
0.126908
0.126803
0.126656
0.126466
0.126235
0.125961
0.125647
0.125291
0.124895
0.124459
0.123981
0.123464
0.122907
0.122311
0.121677
0.121003
0.120291
0.119542
0.118754
0.117929
0.117068
0.11617
0.115236
0.114267
0.113262
0.112222
0.111147
0.110039
0.108897
0.107721
0.106513
0.105272
0.104
0.102695
0.10136
0.0999945
0.0985986
0.0971731
0.0957183
0.0942349
0.0927232
0.0911838
0.0896171
0.0880238
0.0864041
0.0847588
0.0830882
0.0813929
0.0796735
0.0779304
0.0761643
0.0743755
0.0725648
0.0707325
0.0688793
0.0670058
0.0651123
0.0631997
0.0612684
0.0593189
0.0573518
0.0553678
0.0533673
0.0513511
0.0493195
0.0472734
0.0452132
0.0431412
0.130807
0.130021
0.129212
0.128378
0.127521
0.12664
0.125735
0.124806
0.123852
0.122874
0.121871
0.120843
0.11979
0.118712
0.118387
0.119047
0.119664
0.12024
0.120773
0.121264
0.121712
0.122118
0.122482
0.122804
0.123083
0.12332
0.123515
0.123667
0.123778
0.123847
0.123875
0.123861
0.123805
0.123709
0.123572
0.123393
0.123175
0.122916
0.122617
0.122279
0.1219
0.121483
0.121027
0.120532
0.119999
0.119427
0.118818
0.118171
0.117487
0.116766
0.116009
0.115216
0.114387
0.113523
0.112623
0.111689
0.11072
0.109717
0.108681
0.107612
0.10651
0.105375
0.104208
0.10301
0.101781
0.100521
0.0992309
0.097911
0.0965616
0.0951833
0.0937764
0.0923415
0.0908791
0.0893896
0.0878735
0.0863312
0.0847633
0.0831703
0.0815526
0.0799107
0.0782452
0.0765565
0.0748452
0.0731117
0.0713567
0.0695807
0.067784
0.0659674
0.0641313
0.0622763
0.0604029
0.0585116
0.0566031
0.0546779
0.0527365
0.0507795
0.0488074
0.046821
0.0448205
0.0428084
0.12738
0.126602
0.1258
0.124974
0.124125
0.123252
0.122355
0.121434
0.120489
0.11952
0.118527
0.117509
0.116466
0.115399
0.115472
0.116109
0.116707
0.117264
0.11778
0.118256
0.118692
0.119086
0.119441
0.119754
0.120027
0.120259
0.120451
0.120602
0.120712
0.120783
0.120814
0.120804
0.120755
0.120666
0.120537
0.120369
0.120162
0.119916
0.119632
0.119309
0.118948
0.118549
0.118112
0.117638
0.117126
0.116577
0.115992
0.115371
0.114713
0.11402
0.113292
0.112528
0.11173
0.110897
0.11003
0.109129
0.108195
0.107228
0.106229
0.105197
0.104133
0.103038
0.101911
0.100754
0.0995666
0.098349
0.097102
0.0958261
0.0945215
0.0931887
0.0918281
0.0904401
0.0890252
0.0875839
0.0861166
0.0846238
0.0831059
0.0815635
0.0799969
0.0784067
0.0767934
0.0751575
0.0734993
0.0718195
0.0701186
0.0683971
0.0666553
0.064894
0.0631136
0.0613146
0.0594976
0.057663
0.0558114
0.0539435
0.0520596
0.0501603
0.0482462
0.0463178
0.0443758
0.0424221
0.124007
0.123237
0.122444
0.121627
0.120787
0.119923
0.119035
0.118124
0.117189
0.11623
0.115247
0.11424
0.11321
0.112157
0.112615
0.113231
0.113809
0.114347
0.114847
0.115308
0.11573
0.116113
0.116457
0.116762
0.117028
0.117255
0.117443
0.117592
0.117702
0.117773
0.117806
0.1178
0.117756
0.117673
0.117552
0.117394
0.117197
0.116963
0.116692
0.116383
0.116038
0.115656
0.115237
0.114782
0.114291
0.113764
0.113202
0.112604
0.111972
0.111305
0.110603
0.109868
0.109099
0.108296
0.107461
0.106592
0.105691
0.104758
0.103793
0.102797
0.10177
0.100712
0.0996243
0.0985064
0.0973589
0.0961823
0.0949772
0.0937436
0.092482
0.0911931
0.089877
0.0885342
0.0871652
0.0857705
0.0843504
0.0829053
0.0814358
0.0799423
0.0784253
0.0768852
0.0753224
0.0737375
0.0721309
0.0705031
0.0688547
0.0671861
0.0654977
0.0637901
0.0620638
0.0603192
0.058557
0.0567775
0.0549814
0.0531691
0.0513412
0.0494981
0.0476405
0.0457688
0.0438835
0.0419869
0.120688
0.119928
0.119144
0.118337
0.117506
0.116653
0.115775