/*--------------------------------*- C++ -*----------------------------------*\
  =========                 |
  \\      /  F ield         | OpenFOAM: The Open Source CFD Toolbox
   \\    /   O peration     | Website:  https://openfoam.org
    \\  /    A nd           | Version:  8
     \\/     M anipulation  |
\*---------------------------------------------------------------------------*/
FoamFile
{
    version     2.0;
    format      ascii;
    class       volScalarField;
    location    "0.460025";
    object      nut;
}
// * * * * * * * * * * * * * * * * * * * * * * * * * * * * * * * * * * * * * //

dimensions      [0 2 -1 0 0 0 0];

internalField   nonuniform List<scalar> 
168000
(
7.02961e-05
7.68639e-05
8.24961e-05
8.72761e-05
9.13768e-05
9.49112e-05
9.79701e-05
0.000100623
0.000102925
0.000104922
0.000106649
0.000108141
0.000109426
0.000110536
0.000111503
0.000112361
0.000113149
0.000113901
0.000114641
0.000115375
0.000116083
0.000116725
0.000117267
0.000117682
0.000117947
0.000118053
0.000118052
0.000117972
0.000117813
0.000117576
0.000117263
0.000116877
0.000116418
0.000115887
0.000115285
0.000114614
0.000113872
0.000113063
0.000112184
0.000111238
0.000110223
0.00010914
0.00010799
0.00010677
0.000105482
0.000104125
0.000102697
0.000101199
9.96278e-05
9.7983e-05
9.62627e-05
9.44649e-05
9.2587e-05
9.06261e-05
8.85789e-05
8.64411e-05
8.42078e-05
8.18732e-05
7.94301e-05
7.68699e-05
7.41817e-05
7.1352e-05
6.83629e-05
6.51902e-05
6.17997e-05
5.81405e-05
5.41355e-05
4.96711e-05
4.45985e-05
3.8781e-05
3.224e-05
2.53939e-05
1.9136e-05
1.43473e-05
1.1197e-05
9.33575e-06
8.51327e-06
8.3574e-06
8.33752e-06
8.35805e-06
8.37273e-06
8.38453e-06
8.39299e-06
8.39809e-06
8.39977e-06
8.39803e-06
8.39286e-06
8.38426e-06
8.37223e-06
8.3568e-06
8.338e-06
8.31588e-06
8.29048e-06
8.2619e-06
8.23019e-06
8.19532e-06
8.15685e-06
8.1139e-06
8.06399e-06
7.99678e-06
0.000147582
0.000148261
0.000148702
0.000148837
0.000148722
0.00014838
0.000147827
0.000147073
0.000146126
0.000144994
0.000143685
0.000142208
0.000140581
0.000138832
0.000137008
0.000135185
0.00013348
0.000132067
0.000131157
0.000130947
0.000131485
0.000132608
0.000134061
0.000135674
0.000137363
0.000139096
0.000140817
0.000142504
0.000144161
0.000145788
0.000147387
0.000148957
0.000150501
0.000152019
0.000153511
0.000154979
0.000156423
0.000157843
0.00015924
0.000160614
0.000161967
0.000163297
0.000164606
0.000165894
0.000167161
0.000168407
0.000169632
0.000170837
0.000172022
0.000173187
0.000174333
0.000175459
0.000176566
0.000177653
0.000178723
0.000179773
0.000180805
0.000181819
0.000182816
0.000183795
0.000184757
0.000185703
0.000186635
0.000187552
0.000188459
0.000189358
0.000190257
0.000191163
0.000192088
0.000193041
0.000194023
0.000195017
0.000195988
0.000196891
0.000197701
0.000198415
0.000199039
0.000199602
0.000200138
0.000200651
0.000201142
0.000201609
0.000202052
0.00020247
0.000202864
0.000203232
0.000203574
0.000203891
0.000204182
0.000204448
0.000204688
0.000204902
0.000205091
0.000205254
0.000205393
0.000205505
0.000205591
0.000205648
0.000205666
0.000205617
0.000199557
0.000203756
0.000209146
0.000214402
0.000219519
0.000224499
0.000229358
0.000234107
0.00023876
0.00024333
0.000247826
0.00025226
0.00025664
0.000260977
0.000265275
0.000269541
0.000273778
0.000277984
0.000282153
0.000286277
0.00029034
0.000294329
0.000298233
0.000302046
0.000305785
0.00030946
0.000313077
0.000316638
0.000320145
0.000323599
0.000327001
0.000330353
0.000333656
0.000336909
0.000340115
0.000343273
0.000346383
0.000349447
0.000352465
0.000355436
0.000358362
0.000361242
0.000364077
0.000366866
0.000369609
0.000372306
0.000374957
0.000377562
0.00038012
0.000382632
0.000385098
0.000387517
0.000389889
0.000392215
0.000394494
0.000396726
0.000398911
0.000401049
0.000403139
0.000405182
0.000407178
0.000409126
0.000411027
0.000412881
0.000414689
0.00041645
0.000418167
0.000419838
0.000421466
0.000423049
0.000424586
0.000426072
0.000427503
0.000428876
0.000430193
0.000431456
0.000432669
0.000433834
0.000434954
0.000436027
0.000437052
0.000438028
0.000438954
0.000439831
0.000440657
0.000441432
0.000442157
0.00044283
0.000443452
0.000444022
0.000444541
0.000445009
0.000445426
0.000445791
0.000446106
0.000446369
0.00044658
0.000446738
0.000446842
0.000446882
0.000318318
0.00032902
0.000339316
0.000349146
0.000358574
0.000367646
0.000376403
0.000384882
0.00039311
0.000401115
0.000408917
0.000416534
0.000423981
0.00043127
0.000438411
0.000445414
0.000452286
0.000459031
0.000465657
0.000472166
0.000478564
0.000484854
0.000491039
0.000497128
0.000503123
0.000509029
0.000514847
0.000520578
0.000526224
0.000531788
0.000537271
0.000542674
0.000547999
0.000553245
0.000558415
0.000563508
0.000568526
0.000573469
0.000578336
0.00058313
0.000587849
0.000592496
0.000597069
0.00060157
0.000605998
0.000610352
0.000614631
0.000618835
0.000622965
0.000627019
0.000630998
0.000634902
0.000638731
0.000642484
0.000646161
0.000649763
0.000653288
0.000656737
0.000660109
0.000663405
0.000666625
0.000669767
0.000672832
0.000675821
0.000678734
0.00068157
0.000684331
0.000687016
0.000689626
0.00069216
0.000694616
0.00069699
0.00069928
0.000701484
0.000703603
0.000705639
0.000707596
0.000709475
0.000711278
0.000713002
0.000714648
0.000716214
0.000717699
0.000719104
0.000720428
0.000721671
0.000722831
0.00072391
0.000724907
0.000725821
0.000726653
0.000727403
0.000728071
0.000728657
0.00072916
0.000729582
0.00072992
0.000730175
0.000730342
0.000730419
0.000469275
0.000484164
0.000498376
0.000511997
0.000525096
0.000537735
0.000549964
0.000561827
0.00057336
0.000584597
0.000595563
0.00060628
0.00061677
0.000627046
0.000637123
0.000647013
0.000656727
0.000666272
0.000675658
0.000684892
0.000693979
0.000702924
0.000711735
0.000720416
0.00072897
0.0007374
0.000745707
0.000753892
0.000761957
0.000769904
0.000777737
0.000785455
0.000793061
0.000800555
0.000807939
0.000815214
0.00082238
0.000829438
0.000836388
0.000843231
0.000849968
0.000856599
0.000863124
0.000869546
0.000875866
0.000882081
0.000888189
0.000894189
0.000900081
0.000905866
0.000911543
0.000917112
0.000922573
0.000927925
0.000933169
0.000938304
0.00094333
0.000948246
0.000953054
0.000957751
0.000962338
0.000966816
0.000971183
0.00097544
0.000979587
0.000983624
0.000987552
0.000991369
0.000995077
0.000998673
0.00100216
0.00100553
0.00100878
0.00101191
0.00101492
0.00101782
0.0010206
0.00102327
0.00102583
0.00102827
0.0010306
0.00103282
0.00103492
0.00103691
0.00103878
0.00104054
0.00104218
0.0010437
0.00104511
0.0010464
0.00104758
0.00104863
0.00104957
0.0010504
0.0010511
0.00105169
0.00105217
0.00105252
0.00105275
0.00105287
0.000641147
0.000660092
0.000678281
0.000695811
0.000712748
0.000729153
0.000745079
0.00076057
0.000775666
0.000790402
0.000804807
0.000818907
0.000832724
0.000846276
0.00085958
0.000872646
0.000885489
0.000898119
0.000910544
0.000922774
0.000934815
0.000946673
0.000958357
0.00096987
0.000981218
0.000992407
0.00100344
0.0010143
0.00102501
0.00103557
0.00104597
0.00105621
0.00106631
0.00107626
0.00108607
0.00109572
0.00110523
0.0011146
0.00112383
0.00113291
0.00114184
0.00115064
0.00115929
0.00116781
0.00117618
0.00118441
0.00119249
0.00120044
0.00120824
0.0012159
0.00122341
0.00123079
0.00123801
0.0012451
0.00125204
0.00125884
0.00126549
0.001272
0.00127836
0.00128458
0.00129065
0.00129658
0.00130236
0.00130799
0.00131348
0.00131882
0.00132401
0.00132906
0.00133396
0.00133871
0.00134332
0.00134777
0.00135207
0.00135621
0.0013602
0.00136404
0.00136772
0.00137125
0.00137463
0.00137787
0.00138095
0.00138388
0.00138665
0.00138928
0.00139175
0.00139407
0.00139623
0.00139825
0.0014001
0.00140181
0.00140335
0.00140475
0.00140599
0.00140707
0.001408
0.00140878
0.0014094
0.00140986
0.00141017
0.00141032
0.00083219
0.000855375
0.000877738
0.000899386
0.000920383
0.000940786
0.000960645
0.000980006
0.000998908
0.00101739
0.00103547
0.0010532
0.00107058
0.00108765
0.00110443
0.00112091
0.00113712
0.00115306
0.00116876
0.00118421
0.00119942
0.00121441
0.00122918
0.00124373
0.00125807
0.0012722
0.00128613
0.00129985
0.00131338
0.00132671
0.00133985
0.0013528
0.00136556
0.00137814
0.00139053
0.00140273
0.00141475
0.00142659
0.00143824
0.00144972
0.00146101
0.00147212
0.00148306
0.00149381
0.00150439
0.00151478
0.00152499
0.00153503
0.00154488
0.00155455
0.00156405
0.00157336
0.00158249
0.00159143
0.0016002
0.00160878
0.00161719
0.0016254
0.00163344
0.00164129
0.00164896
0.00165644
0.00166374
0.00167085
0.00167778
0.00168452
0.00169107
0.00169744
0.00170363
0.00170962
0.00171543
0.00172104
0.00172647
0.0017317
0.00173673
0.00174158
0.00174623
0.00175069
0.00175496
0.00175904
0.00176293
0.00176662
0.00177012
0.00177343
0.00177655
0.00177947
0.0017822
0.00178474
0.00178708
0.00178923
0.00179118
0.00179293
0.0017945
0.00179586
0.00179703
0.00179801
0.00179879
0.00179937
0.00179976
0.00179995
0.00104187
0.00106945
0.00109616
0.0011221
0.00114734
0.00117193
0.00119592
0.00121935
0.00124226
0.00126469
0.00128667
0.00130822
0.00132938
0.00135016
0.00137058
0.00139066
0.00141042
0.00142986
0.001449
0.00146784
0.00148641
0.0015047
0.00152272
0.00154049
0.00155799
0.00157525
0.00159225
0.00160901
0.00162554
0.00164182
0.00165787
0.00167369
0.00168928
0.00170464
0.00171977
0.00173468
0.00174937
0.00176383
0.00177807
0.00179209
0.00180589
0.00181947
0.00183282
0.00184596
0.00185888
0.00187157
0.00188405
0.0018963
0.00190834
0.00192015
0.00193175
0.00194312
0.00195427
0.0019652
0.00197591
0.00198639
0.00199665
0.00200668
0.0020165
0.00202608
0.00203544
0.00204458
0.00205349
0.00206217
0.00207063
0.00207886
0.00208686
0.00209464
0.00210218
0.0021095
0.00211658
0.00212343
0.00213005
0.00213643
0.00214258
0.0021485
0.00215418
0.00215962
0.00216483
0.00216981
0.00217455
0.00217906
0.00218333
0.00218737
0.00219117
0.00219474
0.00219807
0.00220116
0.00220401
0.00220663
0.00220901
0.00221115
0.00221305
0.00221471
0.00221614
0.00221733
0.00221828
0.00221899
0.00221946
0.0022197
0.0012698
0.00130192
0.00133311
0.0013635
0.00139313
0.00142206
0.00145033
0.00147799
0.00150506
0.0015316
0.00155763
0.00158318
0.00160827
0.00163293
0.00165718
0.00168103
0.00170451
0.00172762
0.00175038
0.0017728
0.00179489
0.00181665
0.0018381
0.00185925
0.00188009
0.00190063
0.00192088
0.00194084
0.00196052
0.00197992
0.00199904
0.00201788
0.00203645
0.00205475
0.00207278
0.00209054
0.00210804
0.00212527
0.00214223
0.00215893
0.00217537
0.00219154
0.00220746
0.0022231
0.00223849
0.00225361
0.00226848
0.00228307
0.00229741
0.00231148
0.00232529
0.00233883
0.00235211
0.00236513
0.00237788
0.00239036
0.00240258
0.00241453
0.00242621
0.00243763
0.00244878
0.00245965
0.00247026
0.0024806
0.00249067
0.00250046
0.00250999
0.00251924
0.00252822
0.00253692
0.00254535
0.0025535
0.00256138
0.00256897
0.00257629
0.00258333
0.00259009
0.00259657
0.00260277
0.0026087
0.00261434
0.0026197
0.00262479
0.00262959
0.00263411
0.00263835
0.00264231
0.00264598
0.00264937
0.00265248
0.00265531
0.00265785
0.00266012
0.00266209
0.00266379
0.0026652
0.00266633
0.00266717
0.00266773
0.00266801
0.00151572
0.00155249
0.00158828
0.00162322
0.00165736
0.00169076
0.00172344
0.00175547
0.00178686
0.00181765
0.00184789
0.00187759
0.00190678
0.00193548
0.00196372
0.00199151
0.00201887
0.00204582
0.00207236
0.00209851
0.00212429
0.00214969
0.00217472
0.0021994
0.00222373
0.00224772
0.00227137
0.00229468
0.00231766
0.00234032
0.00236265
0.00238466
0.00240635
0.00242773
0.00244879
0.00246954
0.00248998
0.00251011
0.00252992
0.00254943
0.00256863
0.00258753
0.00260611
0.00262439
0.00264237
0.00266003
0.00267739
0.00269444
0.00271118
0.00272762
0.00274374
0.00275956
0.00277507
0.00279027
0.00280515
0.00281973
0.002834
0.00284795
0.00286159
0.00287492
0.00288793
0.00290063
0.00291301
0.00292508
0.00293683
0.00294826
0.00295938
0.00297017
0.00298065
0.00299081
0.00300064
0.00301015
0.00301934
0.00302821
0.00303674
0.00304496
0.00305285
0.00306041
0.00306764
0.00307455
0.00308114
0.00308739
0.00309332
0.00309892
0.00310419
0.00310914
0.00311375
0.00311803
0.00312199
0.00312561
0.00312891
0.00313187
0.00313451
0.00313681
0.00313878
0.00314043
0.00314174
0.00314272
0.00314338
0.0031437
0.00177946
0.00182098
0.00186147
0.00190107
0.00193984
0.00197782
0.00201505
0.00205157
0.00208742
0.00212261
0.0021572
0.00219119
0.00222463
0.00225752
0.0022899
0.00232178
0.00235318
0.00238411
0.00241458
0.00244462
0.00247422
0.0025034
0.00253217
0.00256053
0.00258849
0.00261607
0.00264325
0.00267005
0.00269647
0.00272252
0.0027482
0.00277351
0.00279845
0.00282303
0.00284725
0.00287111
0.00289461
0.00291776
0.00294055
0.00296298
0.00298506
0.00300678
0.00302816
0.00304917
0.00306984
0.00309015
0.0031101
0.00312971
0.00314895
0.00316785
0.00318639
0.00320457
0.0032224
0.00323987
0.00325698
0.00327373
0.00329013
0.00330616
0.00332184
0.00333715
0.00335211
0.0033667
0.00338093
0.00339479
0.00340829
0.00342143
0.0034342
0.0034466
0.00345863
0.0034703
0.0034816
0.00349252
0.00350307
0.00351325
0.00352306
0.00353249
0.00354155
0.00355024
0.00355855
0.00356648
0.00357404
0.00358122
0.00358803
0.00359445
0.0036005
0.00360618
0.00361147
0.00361639
0.00362092
0.00362508
0.00362886
0.00363226
0.00363528
0.00363792
0.00364018
0.00364206
0.00364357
0.0036447
0.00364545
0.00364582
0.00206094
0.00210731
0.00215261
0.00219698
0.0022405
0.00228318
0.00232508
0.00236622
0.00240664
0.00244637
0.00248543
0.00252385
0.00256167
0.00259889
0.00263554
0.00267164
0.00270721
0.00274226
0.00277681
0.00281086
0.00284442
0.00287752
0.00291015
0.00294233
0.00297406
0.00300534
0.00303619
0.0030666
0.00309659
0.00312616
0.0031553
0.00318403
0.00321234
0.00324024
0.00326774
0.00329482
0.0033215
0.00334777
0.00337364
0.0033991
0.00342416
0.00344882
0.00347308
0.00349693
0.00352039
0.00354344
0.00356609
0.00358833
0.00361018
0.00363162
0.00365266
0.00367329
0.00369352
0.00371334
0.00373275
0.00375176
0.00377036
0.00378856
0.00380634
0.00382371
0.00384067
0.00385723
0.00387336
0.00388909
0.0039044
0.0039193
0.00393378
0.00394784
0.00396148
0.00397471
0.00398752
0.0039999
0.00401186
0.00402341
0.00403452
0.00404522
0.00405549
0.00406533
0.00407475
0.00408374
0.00409231
0.00410044
0.00410816
0.00411544
0.00412229
0.00412872
0.00413472
0.00414028
0.00414542
0.00415013
0.00415441
0.00415825
0.00416167
0.00416466
0.00416722
0.00416935
0.00417105
0.00417232
0.00417317
0.00417359
0.00236013
0.00241144
0.00246165
0.0025109
0.00255926
0.00260676
0.00265343
0.00269931
0.00274442
0.00278879
0.00283245
0.00287542
0.00291773
0.00295941
0.00300046
0.00304091
0.00308077
0.00312007
0.0031588
0.00319699
0.00323465
0.00327178
0.0033084
0.00334451
0.00338012
0.00341523
0.00344986
0.00348401
0.00351767
0.00355087
0.00358359
0.00361585
0.00364764
0.00367897
0.00370984
0.00374025
0.00377021
0.00379971
0.00382875
0.00385735
0.00388549
0.00391317
0.00394041
0.00396719
0.00399353
0.00401941
0.00404484
0.00406981
0.00409433
0.0041184
0.00414202
0.00416518
0.00418788
0.00421013
0.00423192
0.00425326
0.00427414
0.00429455
0.00431451
0.00433401
0.00435304
0.00437161
0.00438972
0.00440737
0.00442454
0.00444126
0.0044575
0.00447328
0.00448858
0.00450342
0.00451778
0.00453167
0.00454509
0.00455804
0.0045705
0.0045825
0.00459401
0.00460505
0.00461561
0.0046257
0.0046353
0.00464443
0.00465307
0.00466123
0.00466892
0.00467612
0.00468284
0.00468908
0.00469484
0.00470011
0.0047049
0.00470921
0.00471304
0.00471638
0.00471925
0.00472163
0.00472353
0.00472496
0.0047259
0.00472638
0.00267704
0.00273338
0.00278859
0.00284282
0.00289611
0.00294852
0.00300007
0.00305077
0.00310068
0.0031498
0.00319816
0.0032458
0.00329272
0.00333895
0.00338451
0.00342942
0.00347369
0.00351734
0.00356038
0.00360283
0.00364468
0.00368596
0.00372668
0.00376683
0.00380643
0.00384549
0.00388401
0.00392199
0.00395944
0.00399637
0.00403277
0.00406866
0.00410403
0.00413889
0.00417324
0.00420707
0.0042404
0.00427323
0.00430554
0.00433736
0.00436867
0.00439947
0.00442977
0.00445957
0.00448887
0.00451766
0.00454594
0.00457373
0.00460101
0.00462778
0.00465405
0.00467981
0.00470506
0.00472981
0.00475405
0.00477778
0.00480099
0.0048237
0.00484589
0.00486758
0.00488874
0.00490939
0.00492953
0.00494914
0.00496824
0.00498682
0.00500488
0.00502242
0.00503943
0.00505592
0.00507189
0.00508733
0.00510225
0.00511663
0.00513049
0.00514382
0.00515662
0.00516888
0.00518062
0.00519182
0.0052025
0.00521263
0.00522224
0.00523131
0.00523984
0.00524784
0.00525531
0.00526224
0.00526863
0.00527449
0.00527981
0.00528459
0.00528884
0.00529255
0.00529573
0.00529837
0.00530048
0.00530206
0.00530311
0.00530364
0.0030117
0.00307317
0.00313346
0.00319275
0.00325107
0.00330848
0.00336498
0.00342062
0.00347541
0.00352937
0.00358254
0.00363493
0.00368656
0.00373746
0.00378763
0.0038371
0.00388588
0.00393399
0.00398144
0.00402824
0.0040744
0.00411993
0.00416484
0.00420914
0.00425284
0.00429593
0.00433844
0.00438036
0.00442169
0.00446245
0.00450263
0.00454225
0.00458129
0.00461977
0.00465768
0.00469504
0.00473183
0.00476806
0.00480374
0.00483885
0.00487341
0.00490742
0.00494087
0.00497376
0.00500609
0.00503787
0.00506909
0.00509976
0.00512987
0.00515942
0.00518841
0.00521684
0.00524471
0.00527202
0.00529876
0.00532495
0.00535057
0.00537562
0.00540011
0.00542403
0.00544738
0.00547017
0.00549238
0.00551402
0.00553509
0.00555559
0.00557551
0.00559485
0.00561362
0.00563181
0.00564942
0.00566645
0.0056829
0.00569876
0.00571404
0.00572874
0.00574286
0.00575638
0.00576933
0.00578168
0.00579345
0.00580462
0.00581521
0.00582521
0.00583462
0.00584344
0.00585167
0.0058593
0.00586635
0.0058728
0.00587866
0.00588394
0.00588862
0.00589271
0.00589621
0.00589912
0.00590144
0.00590318
0.00590434
0.00590491
0.00336421
0.00343087
0.00349633
0.00356075
0.00362419
0.00368667
0.00374822
0.00380887
0.00386863
0.00392753
0.00398559
0.00404282
0.00409925
0.0041549
0.00420978
0.0042639
0.00431729
0.00436995
0.0044219
0.00447315
0.00452371
0.00457359
0.00462279
0.00467133
0.00471921
0.00476644
0.00481303
0.00485897
0.00490428
0.00494896
0.00499301
0.00503644
0.00507924
0.00512143
0.00516299
0.00520394
0.00524428
0.005284
0.00532311
0.00536161
0.0053995
0.00543678
0.00547345
0.00550951
0.00554496
0.0055798
0.00561402
0.00564764
0.00568064
0.00571304
0.00574481
0.00577598
0.00580652
0.00583646
0.00586577
0.00589447
0.00592255
0.00595
0.00597684
0.00600306
0.00602865
0.00605361
0.00607795
0.00610167
0.00612475
0.00614721
0.00616903
0.00619023
0.00621079
0.00623071
0.00625001
0.00626866
0.00628668
0.00630406
0.0063208
0.0063369
0.00635236
0.00636718
0.00638135
0.00639488
0.00640777
0.00642001
0.0064316
0.00644255
0.00645285
0.00646251
0.00647152
0.00647988
0.00648759
0.00649466
0.00650108
0.00650685
0.00651197
0.00651645
0.00652028
0.00652346
0.00652601
0.00652791
0.00652918
0.00652981
0.00373464
0.00380657
0.00387728
0.00394691
0.00401553
0.00408317
0.00414984
0.00421558
0.00428039
0.0043443
0.00440733
0.0044695
0.00453081
0.00459129
0.00465096
0.00470983
0.0047679
0.00482521
0.00488175
0.00493753
0.00499257
0.00504688
0.00510047
0.00515333
0.00520549
0.00525694
0.00530769
0.00535774
0.00540711
0.00545579
0.00550379
0.00555111
0.00559775
0.00564372
0.00568902
0.00573364
0.0057776
0.00582089
0.00586351
0.00590547
0.00594676
0.00598738
0.00602734
0.00606663
0.00610526
0.00614322
0.00618052
0.00621715
0.00625311
0.0062884
0.00632303
0.00635698
0.00639027
0.00642288
0.00645482
0.00648608
0.00651667
0.00654658
0.00657582
0.00660437
0.00663225
0.00665944
0.00668596
0.00671178
0.00673693
0.00676139
0.00678516
0.00680824
0.00683063
0.00685233
0.00687334
0.00689366
0.00691328
0.0069322
0.00695043
0.00696796
0.00698479
0.00700093
0.00701636
0.00703109
0.00704512
0.00705845
0.00707107
0.00708299
0.00709421
0.00710472
0.00711452
0.00712363
0.00713202
0.00713971
0.0071467
0.00715298
0.00715855
0.00716342
0.00716759
0.00717106
0.00717383
0.0071759
0.00717727
0.00717796
0.00412311
0.00420038
0.00427641
0.00435133
0.0044252
0.00449806
0.00456993
0.00464083
0.00471077
0.00477976
0.00484784
0.004915
0.00498128
0.00504668
0.00511121
0.00517489
0.00523774
0.00529976
0.00536097
0.00542137
0.00548098
0.0055398
0.00559784
0.00565511
0.00571161
0.00576736
0.00582235
0.0058766
0.0059301
0.00598286
0.00603488
0.00608616
0.00613672
0.00618654
0.00623564
0.00628401
0.00633166
0.00637859
0.00642479
0.00647026
0.00651502
0.00655906
0.00660237
0.00664496
0.00668683
0.00672798
0.0067684
0.0068081
0.00684708
0.00688533
0.00692285
0.00695965
0.00699572
0.00703107
0.00706568
0.00709956
0.0071327
0.00716512
0.0071968
0.00722774
0.00725795
0.00728741
0.00731614
0.00734412
0.00737136
0.00739786
0.00742361
0.00744862
0.00747288
0.00749639
0.00751915
0.00754115
0.00756241
0.00758291
0.00760265
0.00762164
0.00763987
0.00765735
0.00767406
0.00769002
0.00770521
0.00771964
0.00773331
0.00774622
0.00775837
0.00776975
0.00778037
0.00779023
0.00779932
0.00780765
0.00781521
0.00782201
0.00782804
0.00783332
0.00783783
0.00784159
0.00784458
0.00784683
0.00784832
0.00784906
0.00452973
0.00461242
0.00469383
0.0047741
0.0048533
0.00493146
0.00500859
0.00508471
0.00515984
0.00523399
0.00530718
0.00537941
0.00545072
0.0055211
0.00559057
0.00565914
0.00572683
0.00579364
0.00585959
0.00592468
0.00598892
0.00605233
0.0061149
0.00617664
0.00623757
0.00629769
0.00635699
0.00641549
0.0064732
0.0065301
0.00658621
0.00664154
0.00669607
0.00674982
0.00680278
0.00685497
0.00690637
0.00695699
0.00700683
0.00705589
0.00710417
0.00715168
0.0071984
0.00724435
0.00728952
0.0073339
0.00737751
0.00742034
0.00746238
0.00750364
0.00754412
0.00758381
0.00762272
0.00766083
0.00769817
0.00773471
0.00777046
0.00780541
0.00783958
0.00787295
0.00790552
0.0079373
0.00796828
0.00799845
0.00802783
0.0080564
0.00808417
0.00811113
0.00813729
0.00816264
0.00818717
0.0082109
0.00823381
0.00825592
0.0082772
0.00829767
0.00831733
0.00833617
0.00835419
0.00837138
0.00838776
0.00840332
0.00841806
0.00843197
0.00844507
0.00845734
0.00846878
0.0084794
0.0084892
0.00849818
0.00850633
0.00851366
0.00852016
0.00852585
0.00853071
0.00853476
0.00853799
0.00854041
0.00854201
0.00854281
0.00495465
0.00504281
0.00512967
0.00521536
0.00529995
0.00538346
0.00546591
0.00554732
0.0056277
0.00570707
0.00578543
0.00586281
0.0059392
0.00601463
0.0060891
0.00616263
0.00623522
0.00630689
0.00637764
0.00644748
0.00651643
0.00658448
0.00665165
0.00671794
0.00678335
0.0068479
0.00691158
0.0069744
0.00703637
0.00709749
0.00715775
0.00721717
0.00727575
0.00733348
0.00739037
0.00744642
0.00750164
0.00755601
0.00760955
0.00766225
0.00771411
0.00776514
0.00781533
0.00786468
0.0079132
0.00796088
0.00800771
0.00805371
0.00809887
0.00814319
0.00818666
0.00822929
0.00827108
0.00831202
0.00835211
0.00839135
0.00842975
0.00846729
0.00850398
0.00853981
0.00857479
0.00860891
0.00864217
0.00867458
0.00870612
0.0087368
0.00876661
0.00879556
0.00882364
0.00885086
0.0088772
0.00890267
0.00892727
0.008951
0.00897385
0.00899583
0.00901693
0.00903715
0.00905649
0.00907495
0.00909254
0.00910924
0.00912505
0.00913999
0.00915404
0.00916721
0.0091795
0.0091909
0.00920142
0.00921105
0.0092198
0.00922767
0.00923465
0.00924075
0.00924597
0.00925032
0.00925378
0.00925638
0.0092581
0.00925896
0.00539799
0.00549169
0.00558406
0.00567523
0.00576526
0.00585418
0.00594201
0.00602877
0.00611446
0.0061991
0.0062827
0.00636527
0.00644681
0.00652735
0.00660688
0.00668542
0.00676297
0.00683955
0.00691517
0.00698983
0.00706353
0.00713629
0.00720811
0.007279
0.00734896
0.007418
0.00748612
0.00755332
0.00761961
0.00768499
0.00774947
0.00781304
0.00787571
0.00793748
0.00799835
0.00805832
0.0081174
0.00817558
0.00823287
0.00828926
0.00834475
0.00839935
0.00845305
0.00850586
0.00855777
0.00860878
0.0086589
0.00870811
0.00875643
0.00880384
0.00885035
0.00889596
0.00894067
0.00898447
0.00902736
0.00906934
0.00911041
0.00915057
0.00918982
0.00922815
0.00926556
0.00930206
0.00933764
0.0093723
0.00940604
0.00943885
0.00947074
0.0095017
0.00953174
0.00956084
0.00958901
0.00961626
0.00964256
0.00966794
0.00969238
0.00971588
0.00973844
0.00976007
0.00978075
0.00980049
0.00981929
0.00983715
0.00985407
0.00987004
0.00988506
0.00989915
0.00991228
0.00992447
0.00993572
0.00994602
0.00995538
0.00996379
0.00997125
0.00997778
0.00998336
0.00998801
0.00999172
0.00999449
0.00999633
0.00999725
0.00585989
0.00595919
0.00605712
0.00615382
0.00624936
0.00634375
0.00643702
0.00652917
0.00662023
0.0067102
0.00679908
0.00688689
0.00697364
0.00705933
0.00714397
0.00722757
0.00731015
0.0073917
0.00747223
0.00755175
0.00763027
0.00770779
0.00778432
0.00785986
0.00793442
0.00800799
0.0080806
0.00815223
0.0082229
0.0082926
0.00836133
0.0084291
0.00849592
0.00856178
0.00862667
0.00869062
0.00875361
0.00881564
0.00887672
0.00893684
0.00899601
0.00905422
0.00911148
0.00916778
0.00922313
0.00927752
0.00933095
0.00938342
0.00943493
0.00948548
0.00953507
0.00958369
0.00963135
0.00967804
0.00972376
0.00976852
0.0098123
0.00985511
0.00989694
0.0099378
0.00997769
0.0100166
0.0100545
0.0100915
0.0101274
0.0101624
0.0101964
0.0102294
0.0102614
0.0102924
0.0103224
0.0103515
0.0103795
0.0104065
0.0104326
0.0104576
0.0104817
0.0105047
0.0105267
0.0105478
0.0105678
0.0105869
0.0106049
0.0106219
0.0106379
0.0106529
0.0106669
0.0106799
0.0106919
0.0107029
0.0107128
0.0107218
0.0107297
0.0107367
0.0107427
0.0107476
0.0107516
0.0107545
0.0107565
0.0107575
0.00634049
0.00644544
0.006549
0.00665129
0.00675237
0.00685228
0.00695103
0.00704864
0.00714511
0.00724045
0.00733467
0.00742777
0.00751976
0.00761066
0.00770046
0.00778918
0.00787681
0.00796338
0.00804887
0.00813331
0.00821669
0.00829901
0.00838029
0.00846053
0.00853974
0.0086179
0.00869504
0.00877115
0.00884623
0.00892029
0.00899333
0.00906535
0.00913635
0.00920634
0.00927531
0.00934326
0.0094102
0.00947613
0.00954104
0.00960494
0.00966782
0.00972969
0.00979054
0.00985037
0.00990919
0.00996699
0.0100238
0.0100795
0.0101343
0.010188
0.0102407
0.0102924
0.010343
0.0103926
0.0104412
0.0104888
0.0105353
0.0105808
0.0106252
0.0106686
0.010711
0.0107523
0.0107926
0.0108319
0.0108701
0.0109072
0.0109433
0.0109784
0.0110124
0.0110453
0.0110772
0.0111081
0.0111379
0.0111666
0.0111943
0.0112209
0.0112464
0.0112709
0.0112943
0.0113166
0.0113379
0.0113581
0.0113773
0.0113953
0.0114124
0.0114283
0.0114432
0.011457
0.0114697
0.0114813
0.0114919
0.0115015
0.0115099
0.0115173
0.0115236
0.0115289
0.0115331
0.0115362
0.0115383
0.0115393
0.00683993
0.00695058
0.00705981
0.00716774
0.00727443
0.0073799
0.00748418
0.00758728
0.00768921
0.00778997
0.00788956
0.007988
0.00808528
0.00818143
0.00827643
0.0083703
0.00846304
0.00855466
0.00864516
0.00873455
0.00882283
0.00891001
0.00899608
0.00908106
0.00916495
0.00924774
0.00932945
0.00941008
0.00948962
0.00956808
0.00964546
0.00972177
0.009797
0.00987115
0.00994422
0.0100162
0.0100872
0.010157
0.0102258
0.0102935
0.0103601
0.0104257
0.0104902
0.0105536
0.0106159
0.0106771
0.0107373
0.0107964
0.0108544
0.0109113
0.0109671
0.0110219
0.0110755
0.0111281
0.0111795
0.0112299
0.0112792
0.0113274
0.0113745
0.0114205
0.0114654
0.0115091
0.0115518
0.0115934
0.0116339
0.0116732
0.0117115
0.0117486
0.0117846
0.0118195
0.0118533
0.011886
0.0119175
0.0119479
0.0119772
0.0120054
0.0120324
0.0120584
0.0120832
0.0121068
0.0121294
0.0121508
0.012171
0.0121902
0.0122082
0.0122251
0.0122408
0.0122554
0.0122689
0.0122813
0.0122925
0.0123026
0.0123115
0.0123193
0.012326
0.0123316
0.0123361
0.0123394
0.0123416
0.0123427
0.00735835
0.00747475
0.0075897
0.00770331
0.00781564
0.00792673
0.00803658
0.00814522
0.00825264
0.00835885
0.00846386
0.00856767
0.00867029
0.00877171
0.00887195
0.00897102
0.0090689
0.00916561
0.00926115
0.00935553
0.00944875
0.00954081
0.00963171
0.00972147
0.00981008
0.00989754
0.00998385
0.010069
0.0101531
0.010236
0.0103177
0.0103983
0.0104778
0.0105562
0.0106334
0.0107095
0.0107844
0.0108582
0.0109309
0.0110025
0.0110729
0.0111421
0.0112103
0.0112772
0.0113431
0.0114078
0.0114714
0.0115338
0.0115951
0.0116552
0.0117142
0.0117721
0.0118287
0.0118843
0.0119387
0.0119919
0.012044
0.0120949
0.0121446
0.0121932
0.0122406
0.0122869
0.012332
0.0123759
0.0124186
0.0124602
0.0125006
0.0125398
0.0125779
0.0126147
0.0126504
0.0126849
0.0127182
0.0127504
0.0127813
0.0128111
0.0128396
0.012867
0.0128932
0.0129182
0.012942
0.0129646
0.012986
0.0130062
0.0130253
0.0130431
0.0130597
0.0130751
0.0130894
0.0131024
0.0131143
0.0131249
0.0131344
0.0131426
0.0131497
0.0131556
0.0131603
0.0131638
0.0131662
0.0131673
0.00789587
0.00801807
0.00813878
0.00825811
0.00837613
0.00849287
0.00860834
0.00872254
0.0088355
0.0089472
0.00905766
0.00916688
0.00927486
0.0093816
0.00948711
0.0095914
0.00969445
0.00979629
0.0098969
0.0099963
0.0100945
0.0101915
0.0102872
0.0103818
0.0104751
0.0105673
0.0106583
0.010748
0.0108366
0.0109239
0.0110101
0.011095
0.0111788
0.0112614
0.0113428
0.011423
0.011502
0.0115798
0.0116564
0.0117318
0.011806
0.011879
0.0119508
0.0120214
0.0120908
0.012159
0.012226
0.0122918
0.0123564
0.0124198
0.0124819
0.0125429
0.0126026
0.0126611
0.0127184
0.0127745
0.0128294
0.0128831
0.0129355
0.0129867
0.0130366
0.0130854
0.0131329
0.0131792
0.0132242
0.013268
0.0133106
0.0133519
0.013392
0.0134308
0.0134684
0.0135048
0.0135399
0.0135737
0.0136063
0.0136377
0.0136678
0.0136966
0.0137242
0.0137505
0.0137756
0.0137994
0.013822
0.0138433
0.0138633
0.0138821
0.0138996
0.0139159
0.0139309
0.0139446
0.0139571
0.0139683
0.0139783
0.013987
0.0139944
0.0140006
0.0140056
0.0140093
0.0140118
0.014013
0.00845262
0.00858066
0.00870717
0.00883227
0.00895602
0.00907844
0.00919955
0.00931936
0.00943788
0.00955511
0.00967105
0.00978571
0.00989908
0.0100112
0.010122
0.0102315
0.0103398
0.0104468
0.0105525
0.0106569
0.0107601
0.010862
0.0109627
0.011062
0.0111602
0.011257
0.0113527
0.011447
0.0115401
0.011632
0.0117225
0.0118119
0.0119
0.0119868
0.0120724
0.0121567
0.0122397
0.0123215
0.0124021
0.0124814
0.0125594
0.0126362
0.0127117
0.0127859
0.0128589
0.0129306
0.013001
0.0130702
0.0131381
0.0132047
0.0132701
0.0133342
0.013397
0.0134585
0.0135188
0.0135777
0.0136354
0.0136918
0.0137469
0.0138008
0.0138533
0.0139045
0.0139545
0.0140031
0.0140504
0.0140965
0.0141412
0.0141847
0.0142268
0.0142676
0.0143071
0.0143453
0.0143822
0.0144178
0.0144521
0.014485
0.0145166
0.014547