/*--------------------------------*- C++ -*----------------------------------*\
  =========                 |
  \\      /  F ield         | OpenFOAM: The Open Source CFD Toolbox
   \\    /   O peration     | Website:  https://openfoam.org
    \\  /    A nd           | Version:  8
     \\/     M anipulation  |
\*---------------------------------------------------------------------------*/
FoamFile
{
    version     2.0;
    format      ascii;
    class       volScalarField;
    location    "0.460025";
    object      nuTilda;
}
// * * * * * * * * * * * * * * * * * * * * * * * * * * * * * * * * * * * * * //

dimensions      [0 2 -1 0 0 0 0];

internalField   nonuniform List<scalar> 
168000
(
9.7468e-05
0.000102449
0.000106761
0.000110456
0.000113654
0.000116433
0.000118854
0.000120968
0.000122812
0.000124419
0.000125815
0.000127025
0.00012807
0.000128976
0.000129766
0.000130469
0.000131115
0.000131733
0.000132343
0.000132948
0.000133532
0.000134064
0.000134513
0.000134856
0.000135076
0.000135164
0.000135163
0.000135097
0.000134964
0.000134768
0.000134509
0.000134189
0.000133809
0.000133371
0.000132874
0.00013232
0.00013171
0.000131044
0.000130324
0.000129549
0.00012872
0.000127838
0.000126902
0.000125913
0.000124872
0.000123777
0.000122629
0.000121428
0.000120174
0.000118865
0.000117501
0.000116081
0.000114603
0.000113066
0.000111469
0.000109808
0.00010808
0.000106282
0.000104408
0.000102453
0.000100409
9.82658e-05
9.60099e-05
9.36227e-05
9.10771e-05
8.83325e-05
8.53257e-05
8.19607e-05
7.81027e-05
7.35981e-05
6.83605e-05
6.25436e-05
5.67031e-05
5.1639e-05
4.78275e-05
4.52941e-05
4.40825e-05
4.38452e-05
4.38148e-05
4.38462e-05
4.38687e-05
4.38867e-05
4.38996e-05
4.39074e-05
4.391e-05
4.39073e-05
4.38994e-05
4.38863e-05
4.38679e-05
4.38443e-05
4.38155e-05
4.37816e-05
4.37426e-05
4.36986e-05
4.36497e-05
4.35957e-05
4.35361e-05
4.34693e-05
4.33915e-05
4.32861e-05
0.000160385
0.000160981
0.000161368
0.000161486
0.000161386
0.000161085
0.0001606
0.000159939
0.00015911
0.000158121
0.000156979
0.000155694
0.000154282
0.000152769
0.000151196
0.000149628
0.000148167
0.000146959
0.000146184
0.000146005
0.000146464
0.000147421
0.000148664
0.000150049
0.000151501
0.000152997
0.000154487
0.000155952
0.000157394
0.000158815
0.000160214
0.000161592
0.000162951
0.000164289
0.000165608
0.000166908
0.00016819
0.000169453
0.000170699
0.000171926
0.000173136
0.000174329
0.000175505
0.000176663
0.000177804
0.000178929
0.000180036
0.000181127
0.000182201
0.000183259
0.0001843
0.000185325
0.000186334
0.000187326
0.000188303
0.000189264
0.000190209
0.000191138
0.000192053
0.000192952
0.000193837
0.000194708
0.000195565
0.000196411
0.000197248
0.000198079
0.00019891
0.000199748
0.000200605
0.000201487
0.000202398
0.000203322
0.000204224
0.000205063
0.000205817
0.000206482
0.000207063
0.000207588
0.000208088
0.000208567
0.000209025
0.000209461
0.000209875
0.000210266
0.000210633
0.000210977
0.000211297
0.000211594
0.000211867
0.000212115
0.00021234
0.00021254
0.000212717
0.00021287
0.000213
0.000213105
0.000213186
0.000213239
0.000213256
0.00021321
0.000207546
0.000211468
0.00021652
0.000221467
0.000226299
0.000231017
0.000235632
0.000240156
0.0002446
0.000248973
0.000253285
0.000257545
0.000261762
0.000265943
0.000270094
0.00027422
0.000278323
0.000282401
0.00028645
0.000290458
0.000294412
0.000298298
0.000302104
0.000305825
0.000309477
0.000313069
0.000316608
0.000320094
0.000323529
0.000326914
0.00033025
0.00033354
0.000336782
0.000339978
0.000343128
0.000346233
0.000349293
0.000352307
0.000355278
0.000358204
0.000361086
0.000363924
0.000366719
0.000369469
0.000372175
0.000374836
0.000377453
0.000380024
0.00038255
0.000385031
0.000387467
0.000389857
0.000392202
0.000394501
0.000396755
0.000398962
0.000401123
0.000403238
0.000405306
0.000407328
0.000409303
0.000411232
0.000413114
0.00041495
0.00041674
0.000418484
0.000420184
0.00042184
0.000423453
0.000425022
0.000426544
0.000428017
0.000429435
0.000430796
0.000432101
0.000433353
0.000434556
0.000435711
0.000436821
0.000437885
0.000438902
0.00043987
0.000440789
0.000441658
0.000442478
0.000443247
0.000443965
0.000444633
0.00044525
0.000445816
0.000446331
0.000446795
0.000447208
0.000447571
0.000447883
0.000448144
0.000448353
0.00044851
0.000448614
0.000448653
0.000321739
0.000332232
0.000342343
0.000352011
0.000361295
0.000370239
0.00037888
0.000387254
0.000395387
0.000403304
0.000411025
0.000418567
0.000425944
0.000433169
0.00044025
0.000447197
0.000454015
0.000460712
0.00046729
0.000473755
0.000480111
0.000486362
0.000492511
0.000498564
0.000504526
0.000510399
0.000516186
0.000521889
0.000527508
0.000533045
0.000538503
0.000543881
0.000549183
0.000554407
0.000559556
0.000564629
0.000569627
0.000574551
0.000579401
0.000584177
0.00058888
0.00059351
0.000598068
0.000602554
0.000606968
0.000611308
0.000615574
0.000619766
0.000623883
0.000627925
0.000631893
0.000635786
0.000639605
0.000643347
0.000647015
0.000650607
0.000654123
0.000657564
0.000660928
0.000664216
0.000667427
0.000670562
0.00067362
0.000676602
0.000679508
0.000682338
0.000685093
0.000687772
0.000690377
0.000692905
0.000695356
0.000697725
0.00070001
0.000702209
0.000704324
0.000706356
0.000708309
0.000710184
0.000711983
0.000713704
0.000715346
0.000716909
0.000718392
0.000719795
0.000721116
0.000722356
0.000723514
0.000724591
0.000725586
0.000726498
0.000727329
0.000728078
0.000728744
0.000729329
0.000729832
0.000730252
0.00073059
0.000730844
0.000731011
0.000731088
0.000470884
0.000485676
0.000499805
0.000513351
0.000526385
0.000538964
0.00055114
0.000562954
0.000574443
0.000585638
0.000596567
0.00060725
0.000617706
0.000627952
0.000638001
0.000647865
0.000657553
0.000667076
0.000676439
0.000685652
0.000694719
0.000703647
0.00071244
0.000721104
0.000729642
0.000738057
0.000746349
0.00075452
0.000762572
0.000770507
0.000778327
0.000786034
0.000793628
0.000801112
0.000808486
0.000815751
0.000822908
0.000829957
0.000836899
0.000843734
0.000850462
0.000857086
0.000863604
0.000870019
0.000876332
0.00088254
0.000888642
0.000894636
0.000900523
0.000906302
0.000911973
0.000917537
0.000922993
0.00092834
0.000933579
0.00093871
0.000943732
0.000948644
0.000953447
0.000958141
0.000962724
0.000967198
0.000971562
0.000975816
0.00097996
0.000983994
0.000987918
0.000991733
0.000995438
0.000999032
0.00100251
0.00100588
0.00100913
0.00101226
0.00101527
0.00101817
0.00102095
0.00102362
0.00102617
0.00102861
0.00103094
0.00103316
0.00103526
0.00103724
0.00103911
0.00104087
0.00104251
0.00104403
0.00104544
0.00104673
0.0010479
0.00104896
0.0010499
0.00105072
0.00105143
0.00105202
0.00105249
0.00105284
0.00105308
0.00105319
0.000642014
0.00066091
0.000679056
0.000696547
0.000713451
0.000729825
0.000745722
0.000761187
0.00077626
0.000790973
0.000805358
0.000819439
0.000833239
0.000846775
0.000860063
0.000873116
0.000885945
0.000898562
0.000910975
0.000923193
0.000935224
0.000947072
0.000958746
0.00097025
0.000981589
0.00099277
0.00100379
0.00101465
0.00102535
0.0010359
0.00104629
0.00105653
0.00106663
0.00107657
0.00108637
0.00109602
0.00110553
0.00111489
0.00112411
0.00113319
0.00114212
0.00115091
0.00115956
0.00116807
0.00117644
0.00118466
0.00119275
0.00120069
0.00120848
0.00121614
0.00122365
0.00123102
0.00123825
0.00124533
0.00125227
0.00125906
0.00126571
0.00127222
0.00127858
0.0012848
0.00129087
0.00129679
0.00130257
0.0013082
0.00131369
0.00131902
0.00132422
0.00132926
0.00133416
0.00133891
0.00134352
0.00134796
0.00135226
0.0013564
0.00136039
0.00136423
0.00136791
0.00137144
0.00137482
0.00137805
0.00138113
0.00138406
0.00138684
0.00138946
0.00139193
0.00139425
0.00139642
0.00139843
0.00140028
0.00140199
0.00140354
0.00140493
0.00140617
0.00140725
0.00140818
0.00140896
0.00140958
0.00141004
0.00141035
0.0014105
0.000832706
0.000855863
0.000878201
0.000899828
0.000920805
0.00094119
0.000961032
0.000980378
0.000999266
0.00101773
0.00103581
0.00105352
0.0010709
0.00108796
0.00110472
0.00112119
0.00113739
0.00115333
0.00116902
0.00118446
0.00119967
0.00121465
0.00122941
0.00124396
0.00125829
0.00127242
0.00128634
0.00130006
0.00131359
0.00132692
0.00134005
0.001353
0.00136576
0.00137833
0.00139071
0.00140291
0.00141493
0.00142676
0.00143841
0.00144989
0.00146118
0.00147229
0.00148322
0.00149397
0.00150454
0.00151494
0.00152515
0.00153518
0.00154503
0.0015547
0.00156419
0.0015735
0.00158263
0.00159158
0.00160034
0.00160892
0.00161732
0.00162554
0.00163357
0.00164142
0.00164909
0.00165657
0.00166387
0.00167098
0.0016779
0.00168464
0.0016912
0.00169757
0.00170375
0.00170974
0.00171555
0.00172116
0.00172659
0.00173182
0.00173685
0.0017417
0.00174635
0.00175081
0.00175508
0.00175915
0.00176304
0.00176674
0.00177024
0.00177355
0.00177666
0.00177959
0.00178232
0.00178485
0.00178719
0.00178934
0.00179129
0.00179305
0.00179461
0.00179597
0.00179714
0.00179812
0.0017989
0.00179948
0.00179987
0.00180006
0.0010422
0.00106977
0.00109646
0.00112239
0.00114761
0.00117219
0.00119617
0.00121959
0.0012425
0.00126492
0.00128689
0.00130843
0.00132958
0.00135036
0.00137077
0.00139085
0.0014106
0.00143003
0.00144917
0.00146801
0.00148657
0.00150486
0.00152288
0.00154064
0.00155814
0.00157539
0.00159239
0.00160915
0.00162567
0.00164195
0.001658
0.00167382
0.00168941
0.00170476
0.0017199
0.0017348
0.00174949
0.00176395
0.00177818
0.0017922
0.001806
0.00181957
0.00183293
0.00184606
0.00185898
0.00187167
0.00188415
0.0018964
0.00190844
0.00192025
0.00193184
0.00194321
0.00195436
0.00196529
0.001976
0.00198648
0.00199674
0.00200677
0.00201658
0.00202617
0.00203553
0.00204467
0.00205358
0.00206226
0.00207071
0.00207894
0.00208695
0.00209472
0.00210226
0.00210958
0.00211666
0.00212351
0.00213013
0.00213651
0.00214266
0.00214857
0.00215425
0.0021597
0.00216491
0.00216989
0.00217463
0.00217914
0.00218341
0.00218745
0.00219125
0.00219481
0.00219814
0.00220123
0.00220409
0.0022067
0.00220908
0.00221122
0.00221312
0.00221479
0.00221621
0.0022174
0.00221835
0.00221906
0.00221953
0.00221977
0.00127002
0.00130213
0.00133331
0.00136369
0.00139331
0.00142224
0.0014505
0.00147815
0.00150522
0.00153175
0.00155778
0.00158332
0.00160841
0.00163306
0.00165731
0.00168116
0.00170463
0.00172774
0.0017505
0.00177291
0.001795
0.00181676
0.00183821
0.00185935
0.00188019
0.00190073
0.00192098
0.00194094
0.00196062
0.00198001
0.00199913
0.00201797
0.00203654
0.00205484
0.00207286
0.00209062
0.00210812
0.00212535
0.00214231
0.00215901
0.00217545
0.00219162
0.00220753
0.00222318
0.00223856
0.00225369
0.00226855
0.00228314
0.00229748
0.00231155
0.00232536
0.0023389
0.00235218
0.00236519
0.00237794
0.00239043
0.00240264
0.00241459
0.00242627
0.00243769
0.00244884
0.00245971
0.00247032
0.00248066
0.00249072
0.00250052
0.00251004
0.00251929
0.00252827
0.00253698
0.0025454
0.00255356
0.00256143
0.00256903
0.00257634
0.00258338
0.00259014
0.00259662
0.00260283
0.00260875
0.00261439
0.00261975
0.00262484
0.00262964
0.00263416
0.0026384
0.00264236
0.00264603
0.00264942
0.00265253
0.00265536
0.00265791
0.00266017
0.00266214
0.00266384
0.00266525
0.00266638
0.00266722
0.00266778
0.00266806
0.00151588
0.00155264
0.00158842
0.00162335
0.00165749
0.00169088
0.00172357
0.00175558
0.00178697
0.00181776
0.00184799
0.00187769
0.00190687
0.00193557
0.00196381
0.0019916
0.00201896
0.0020459
0.00207244
0.0020986
0.00212437
0.00214976
0.0021748
0.00219948
0.00222381
0.00224779
0.00227144
0.00229475
0.00231773
0.00234038
0.00236272
0.00238472
0.00240642
0.00242779
0.00244885
0.0024696
0.00249004
0.00251016
0.00252998
0.00254949
0.00256869
0.00258758
0.00260617
0.00262445
0.00264242
0.00266008
0.00267744
0.00269449
0.00271123
0.00272766
0.00274379
0.00275961
0.00277511
0.00279031
0.0028052
0.00281978
0.00283404
0.00284799
0.00286163
0.00287496
0.00288797
0.00290067
0.00291305
0.00292512
0.00293687
0.0029483
0.00295942
0.00297021
0.00298069
0.00299085
0.00300068
0.00301019
0.00301938
0.00302824
0.00303678
0.003045
0.00305288
0.00306045
0.00306768
0.00307459
0.00308117
0.00308743
0.00309336
0.00309896
0.00310423
0.00310917
0.00311379
0.00311807
0.00312203
0.00312565
0.00312894
0.00313191
0.00313454
0.00313685
0.00313882
0.00314046
0.00314178
0.00314276
0.00314341
0.00314374
0.00177958
0.00182109
0.00186157
0.00190117
0.00193993
0.00197791
0.00201514
0.00205166
0.0020875
0.00212269
0.00215727
0.00219127
0.0022247
0.00225759
0.00228997
0.00232185
0.00235324
0.00238417
0.00241464
0.00244468
0.00247428
0.00250346
0.00253222
0.00256059
0.00258855
0.00261612
0.0026433
0.0026701
0.00269652
0.00272257
0.00274825
0.00277355
0.0027985
0.00282308
0.0028473
0.00287115
0.00289466
0.0029178
0.00294059
0.00296302
0.0029851
0.00300682
0.00302819
0.00304921
0.00306988
0.00309019
0.00311014
0.00312974
0.00314899
0.00316788
0.00318642
0.0032046
0.00322243
0.0032399
0.00325701
0.00327377
0.00329016
0.0033062
0.00332187
0.00333719
0.00335214
0.00336673
0.00338096
0.00339482
0.00340832
0.00342146
0.00343423
0.00344663
0.00345866
0.00347033
0.00348162
0.00349255
0.0035031
0.00351328
0.00352309
0.00353252
0.00354158
0.00355026
0.00355857
0.00356651
0.00357407
0.00358125
0.00358805
0.00359448
0.00360053
0.0036062
0.0036115
0.00361641
0.00362095
0.00362511
0.00362889
0.00363229
0.00363531
0.00363795
0.00364021
0.00364209
0.0036436
0.00364472
0.00364547
0.00364585
0.00206103
0.00210739
0.00215268
0.00219706
0.00224057
0.00228325
0.00232515
0.00236629
0.0024067
0.00244643
0.00248549
0.00252391
0.00256172
0.00259894
0.00263559
0.00267169
0.00270726
0.00274231
0.00277685
0.0028109
0.00284447
0.00287756
0.00291019
0.00294237
0.0029741
0.00300538
0.00303623
0.00306664
0.00309663
0.00312619
0.00315534
0.00318406
0.00321238
0.00324028
0.00326777
0.00329485
0.00332153
0.0033478
0.00337367
0.00339913
0.00342419
0.00344885
0.00347311
0.00349696
0.00352042
0.00354347
0.00356612
0.00358836
0.00361021
0.00363165
0.00365268
0.00367331
0.00369354
0.00371336
0.00373278
0.00375179
0.00377039
0.00378858
0.00380636
0.00382374
0.0038407
0.00385725
0.00387339
0.00388911
0.00390442
0.00391932
0.0039338
0.00394786
0.00396151
0.00397473
0.00398754
0.00399992
0.00401189
0.00402343
0.00403455
0.00404524
0.00405551
0.00406535
0.00407477
0.00408376
0.00409233
0.00410047
0.00410818
0.00411546
0.00412231
0.00412874
0.00413474
0.0041403
0.00414544
0.00415015
0.00415443
0.00415827
0.00416169
0.00416468
0.00416724
0.00416937
0.00417107
0.00417234
0.00417319
0.00417361
0.0023602
0.0024115
0.00246171
0.00251096
0.00255932
0.00260681
0.00265348
0.00269936
0.00274446
0.00278883
0.00283249
0.00287547
0.00291778
0.00295945
0.0030005
0.00304095
0.00308081
0.0031201
0.00315884
0.00319703
0.00323468
0.00327181
0.00330843
0.00334454
0.00338015
0.00341526
0.00344989
0.00348404
0.0035177
0.0035509
0.00358362
0.00361587
0.00364767
0.003679
0.00370986
0.00374028
0.00377023
0.00379973
0.00382878
0.00385737
0.00388551
0.0039132
0.00394043
0.00396722
0.00399355
0.00401943
0.00404486
0.00406983
0.00409435
0.00411842
0.00414204
0.0041652
0.0041879
0.00421015
0.00423194
0.00425328
0.00427416
0.00429457
0.00431453
0.00433403
0.00435306
0.00437163
0.00438974
0.00440738
0.00442456
0.00444127
0.00445752
0.00447329
0.0044886
0.00450344
0.0045178
0.00453169
0.00454511
0.00455805
0.00457052
0.00458251
0.00459403
0.00460507
0.00461563
0.00462571
0.00463532
0.00464444
0.00465309
0.00466125
0.00466893
0.00467614
0.00468286
0.0046891
0.00469485
0.00470013
0.00470492
0.00470923
0.00471305
0.0047164
0.00471926
0.00472164
0.00472355
0.00472497
0.00472592
0.00472639
0.00267709
0.00273343
0.00278864
0.00284286
0.00289616
0.00294856
0.00300011
0.00305081
0.00310071
0.00314983
0.0031982
0.00324583
0.00329275
0.00333898
0.00338455
0.00342945
0.00347372
0.00351737
0.00356041
0.00360285
0.00364471
0.00368599
0.0037267
0.00376685
0.00380646
0.00384551
0.00388403
0.00392201
0.00395946
0.00399639
0.0040328
0.00406868
0.00410405
0.00413891
0.00417326
0.00420709
0.00424042
0.00427325
0.00430556
0.00433738
0.00436868
0.00439949
0.00442979
0.00445959
0.00448888
0.00451767
0.00454596
0.00457374
0.00460102
0.0046278
0.00465407
0.00467983
0.00470508
0.00472983
0.00475406
0.00477779
0.00480101
0.00482372
0.00484591
0.00486759
0.00488876
0.00490941
0.00492954
0.00494916
0.00496826
0.00498684
0.0050049
0.00502243
0.00503945
0.00505594
0.0050719
0.00508735
0.00510226
0.00511665
0.0051305
0.00514383
0.00515663
0.0051689
0.00518063
0.00519184
0.00520251
0.00521265
0.00522225
0.00523132
0.00523986
0.00524786
0.00525532
0.00526225
0.00526864
0.0052745
0.00527982
0.0052846
0.00528885
0.00529256
0.00529574
0.00529839
0.0053005
0.00530208
0.00530313
0.00530365
0.00301174
0.00307321
0.0031335
0.00319278
0.00325111
0.00330851
0.00336501
0.00342065
0.00347544
0.0035294
0.00358257
0.00363496
0.00368659
0.00373748
0.00378765
0.00383712
0.00388591
0.00393401
0.00398146
0.00402826
0.00407442
0.00411995
0.00416486
0.00420916
0.00425286
0.00429595
0.00433846
0.00438038
0.00442171
0.00446247
0.00450265
0.00454226
0.00458131
0.00461979
0.0046577
0.00469505
0.00473184
0.00476808
0.00480375
0.00483887
0.00487343
0.00490743
0.00494088
0.00497377
0.00500611
0.00503789
0.00506911
0.00509977
0.00512988
0.00515943
0.00518842
0.00521685
0.00524472
0.00527203
0.00529878
0.00532496
0.00535058
0.00537563
0.00540012
0.00542404
0.0054474
0.00547018
0.00549239
0.00551403
0.0055351
0.0055556
0.00557552
0.00559486
0.00561363
0.00563182
0.00564943
0.00566646
0.00568291
0.00569877
0.00571406
0.00572875
0.00574287
0.00575639
0.00576934
0.00578169
0.00579346
0.00580463
0.00581522
0.00582522
0.00583463
0.00584345
0.00585168
0.00585931
0.00586636
0.00587281
0.00587867
0.00588395
0.00588863
0.00589272
0.00589622
0.00589913
0.00590145
0.00590319
0.00590435
0.00590492
0.00336424
0.0034309
0.00349636
0.00356078
0.00362421
0.00368669
0.00374825
0.00380889
0.00386865
0.00392755
0.00398561
0.00404284
0.00409927
0.00415492
0.0042098
0.00426392
0.00431731
0.00436997
0.00442192
0.00447317
0.00452373
0.0045736
0.00462281
0.00467135
0.00471923
0.00476646
0.00481304
0.00485899
0.0049043
0.00494898
0.00499303
0.00503645
0.00507926
0.00512144
0.00516301
0.00520396
0.00524429
0.00528402
0.00532313
0.00536163
0.00539952
0.0054368
0.00547346
0.00550952
0.00554497
0.00557981
0.00561404
0.00564765
0.00568066
0.00571305
0.00574482
0.00577599
0.00580653
0.00583647
0.00586578
0.00589448
0.00592256
0.00595001
0.00597685
0.00600307
0.00602866
0.00605362
0.00607796
0.00610168
0.00612476
0.00614722
0.00616904
0.00619024
0.0062108
0.00623072
0.00625002
0.00626867
0.00628669
0.00630407
0.00632081
0.00633691
0.00635237
0.00636718
0.00638136
0.00639489
0.00640777
0.00642002
0.00643161
0.00644256
0.00645286
0.00646252
0.00647153
0.00647989
0.0064876
0.00649467
0.00650109
0.00650686
0.00651198
0.00651646
0.00652029
0.00652347
0.00652602
0.00652792
0.00652918
0.00652981
0.00373466
0.0038066
0.0038773
0.00394694
0.00401556
0.00408319
0.00414986
0.0042156
0.00428041
0.00434432
0.00440735
0.00446951
0.00453083
0.00459131
0.00465098
0.00470984
0.00476792
0.00482522
0.00488176
0.00493755
0.00499259
0.0050469
0.00510048
0.00515335
0.0052055
0.00525695
0.0053077
0.00535776
0.00540712
0.0054558
0.0055038
0.00555112
0.00559776
0.00564373
0.00568903
0.00573365
0.00577761
0.0058209
0.00586352
0.00590548
0.00594677
0.00598739
0.00602735
0.00606664
0.00610527
0.00614323
0.00618053
0.00621716
0.00625312
0.00628841
0.00632304
0.00635699
0.00639027
0.00642289
0.00645482
0.00648609
0.00651668
0.00654659
0.00657582
0.00660438
0.00663226
0.00665945
0.00668596
0.00671179
0.00673694
0.00676139
0.00678516
0.00680825
0.00683064
0.00685234
0.00687335
0.00689366
0.00691328
0.00693221
0.00695044
0.00696797
0.0069848
0.00700093
0.00701637
0.0070311
0.00704513
0.00705845
0.00707108
0.007083
0.00709421
0.00710473
0.00711453
0.00712363
0.00713203
0.00713972
0.0071467
0.00715298
0.00715856
0.00716343
0.0071676
0.00717107
0.00717383
0.0071759
0.00717728
0.00717797
0.00412313
0.0042004
0.00427643
0.00435135
0.00442522
0.00449808
0.00456995
0.00464084
0.00471078
0.00477978
0.00484785
0.00491502
0.00498129
0.00504669
0.00511122
0.00517491
0.00523775
0.00529977
0.00536098
0.00542138
0.00548099
0.00553981
0.00559785
0.00565512
0.00571163
0.00576737
0.00582236
0.00587661
0.00593011
0.00598287
0.00603489
0.00608617
0.00613673
0.00618655
0.00623565
0.00628402
0.00633167
0.00637859
0.00642479
0.00647027
0.00651503
0.00655906
0.00660238
0.00664497
0.00668684
0.00672798
0.00676841
0.00680811
0.00684709
0.00688534
0.00692286
0.00695966
0.00699573
0.00703107
0.00706568
0.00709956
0.00713271
0.00716513
0.0071968
0.00722775
0.00725795
0.00728742
0.00731614
0.00734413
0.00737137
0.00739787
0.00742362
0.00744863
0.00747289
0.00749639
0.00751915
0.00754116
0.00756241
0.00758291
0.00760266
0.00762165
0.00763988
0.00765735
0.00767407
0.00769002
0.00770522
0.00771965
0.00773332
0.00774623
0.00775838
0.00776976
0.00778038
0.00779023
0.00779932
0.00780765
0.00781521
0.00782201
0.00782805
0.00783332
0.00783784
0.00784159
0.00784459
0.00784683
0.00784832
0.00784906
0.00452975
0.00461244
0.00469384
0.00477412
0.00485332
0.00493147
0.0050086
0.00508472
0.00515985
0.005234
0.00530719
0.00537943
0.00545073
0.00552111
0.00559058
0.00565915
0.00572684
0.00579365
0.0058596
0.00592469
0.00598893
0.00605233
0.00611491
0.00617665
0.00623758
0.00629769
0.006357
0.0064155
0.0064732
0.00653011
0.00658622
0.00664154
0.00669608
0.00674983
0.00680279
0.00685497
0.00690638
0.006957
0.00700684
0.0070559
0.00710418
0.00715168
0.00719841
0.00724436
0.00728952
0.00733391
0.00737752
0.00742034
0.00746239
0.00750365
0.00754412
0.00758382
0.00762272
0.00766084
0.00769817
0.00773471
0.00777046
0.00780542
0.00783959
0.00787296
0.00790553
0.00793731
0.00796828
0.00799846
0.00802784
0.00805641
0.00808418
0.00811114
0.00813729
0.00816264
0.00818718
0.00821091
0.00823382
0.00825592
0.00827721
0.00829768
0.00831733
0.00833617
0.00835419
0.00837139
0.00838777
0.00840333
0.00841806
0.00843198
0.00844507
0.00845734
0.00846879
0.00847941
0.00848921
0.00849818
0.00850633
0.00851366
0.00852017
0.00852585
0.00853072
0.00853477
0.008538
0.00854041
0.00854202
0.00854282
0.00495466
0.00504283
0.00512968
0.00521537
0.00529996
0.00538347
0.00546592
0.00554733
0.00562771
0.00570708
0.00578544
0.00586282
0.00593921
0.00601464
0.00608911
0.00616264
0.00623523
0.0063069
0.00637765
0.00644749
0.00651644
0.00658449
0.00665166
0.00671794
0.00678336
0.00684791
0.00691159
0.00697441
0.00703638
0.00709749
0.00715776
0.00721718
0.00727576
0.00733349
0.00739038
0.00744643
0.00750164
0.00755602
0.00760955
0.00766225
0.00771412
0.00776515
0.00781534
0.00786469
0.0079132
0.00796088
0.00800772
0.00805372
0.00809888
0.00814319
0.00818667
0.0082293
0.00827108
0.00831202
0.00835211
0.00839136
0.00842975
0.00846729
0.00850398
0.00853982
0.00857479
0.00860892
0.00864218
0.00867458
0.00870612
0.0087368
0.00876662
0.00879557
0.00882365
0.00885086
0.0088772
0.00890268
0.00892728
0.008951
0.00897386
0.00899583
0.00901693
0.00903715
0.00905649
0.00907496
0.00909254
0.00910924
0.00912506
0.00914
0.00915405
0.00916722
0.0091795
0.0091909
0.00920142
0.00921105
0.0092198
0.00922767
0.00923465
0.00924076
0.00924598
0.00925032
0.00925379
0.00925638
0.00925811
0.00925897
0.005398
0.0054917
0.00558407
0.00567524
0.00576527
0.00585419
0.00594202
0.00602878
0.00611447
0.00619911
0.00628271
0.00636528
0.00644682
0.00652735
0.00660689
0.00668542
0.00676298
0.00683956
0.00691518
0.00698983
0.00706354
0.0071363
0.00720812
0.00727901
0.00734897
0.007418
0.00748612
0.00755332
0.00761962
0.007685
0.00774947
0.00781304
0.00787571
0.00793748
0.00799836
0.00805833
0.00811741
0.00817559
0.00823287
0.00828926
0.00834475
0.00839935
0.00845306
0.00850586
0.00855777
0.00860879
0.0086589
0.00870812
0.00875643
0.00880385
0.00885036
0.00889597
0.00894067
0.00898447
0.00902736
0.00906934
0.00911041
0.00915057
0.00918982
0.00922815
0.00926557
0.00930207
0.00933765
0.00937231
0.00940604
0.00943886
0.00947074
0.00950171
0.00953174
0.00956084
0.00958902
0.00961626
0.00964257
0.00966794
0.00969238
0.00971588
0.00973844
0.00976007
0.00978075
0.0098005
0.0098193
0.00983716
0.00985407
0.00987004
0.00988507
0.00989915
0.00991229
0.00992448
0.00993572
0.00994602
0.00995538
0.00996379
0.00997126
0.00997778
0.00998337
0.00998801
0.00999172
0.00999449
0.00999634
0.00999726
0.0058599
0.0059592
0.00605713
0.00615383
0.00624937
0.00634376
0.00643702
0.00652918
0.00662024
0.0067102
0.00679909
0.0068869
0.00697364
0.00705933
0.00714398
0.00722758
0.00731015
0.0073917
0.00747223
0.00755176
0.00763027
0.0077078
0.00778432
0.00785986
0.00793442
0.008008
0.0080806
0.00815224
0.0082229
0.0082926
0.00836134
0.00842911
0.00849592
0.00856178
0.00862668
0.00869062
0.00875361
0.00881564
0.00887672
0.00893684
0.00899601
0.00905423
0.00911148
0.00916779
0.00922313
0.00927752
0.00933095
0.00938342
0.00943494
0.00948549
0.00953507
0.0095837
0.00963135
0.00967804
0.00972377
0.00976852
0.0098123
0.00985511
0.00989695
0.00993781
0.00997769
0.0100166
0.0100545
0.0100915
0.0101274
0.0101624
0.0101964
0.0102294
0.0102614
0.0102924
0.0103224
0.0103515
0.0103795
0.0104065
0.0104326
0.0104576
0.0104817
0.0105047
0.0105268
0.0105478
0.0105678
0.0105869
0.0106049
0.0106219
0.0106379
0.0106529
0.0106669
0.0106799
0.0106919
0.0107029
0.0107128
0.0107218
0.0107298
0.0107367
0.0107427
0.0107476
0.0107516
0.0107545
0.0107565
0.0107575
0.0063405
0.00644545
0.006549
0.00665129
0.00675238
0.00685229
0.00695104
0.00704865
0.00714512
0.00724045
0.00733467
0.00742777
0.00751977
0.00761067
0.00770047
0.00778918
0.00787682
0.00796338
0.00804888
0.00813331
0.00821669
0.00829902
0.0083803
0.00846054
0.00853974
0.00861791
0.00869505
0.00877115
0.00884624
0.0089203
0.00899334
0.00906536
0.00913636
0.00920634
0.00927531
0.00934327
0.00941021
0.00947613
0.00954104
0.00960494
0.00966782
0.00972969
0.00979054
0.00985038
0.0099092
0.009967
0.0100238
0.0100795
0.0101343
0.010188
0.0102407
0.0102924
0.010343
0.0103926
0.0104412
0.0104888
0.0105353
0.0105808
0.0106252
0.0106686
0.010711
0.0107523
0.0107926
0.0108319
0.0108701
0.0109072
0.0109433
0.0109784
0.0110124
0.0110453
0.0110772
0.0111081
0.0111379
0.0111666
0.0111943
0.0112209
0.0112464
0.0112709
0.0112943
0.0113166
0.0113379
0.0113581
0.0113773
0.0113953
0.0114124
0.0114283
0.0114432
0.011457
0.0114697
0.0114813
0.0114919
0.0115015
0.0115099
0.0115173
0.0115236
0.0115289
0.0115331
0.0115362
0.0115383
0.0115394
0.00683994
0.00695059
0.00705982
0.00716775
0.00727443
0.00737991
0.00748419
0.00758729
0.00768922
0.00778997
0.00788957
0.007988
0.00808529
0.00818143
0.00827643
0.0083703
0.00846305
0.00855467
0.00864517
0.00873455
0.00882283
0.00891001
0.00899609
0.00908107
0.00916495
0.00924775
0.00932946
0.00941008
0.00948962
0.00956808
0.00964547
0.00972177
0.009797
0.00987115
0.00994423
0.0100162
0.0100872
0.010157
0.0102258
0.0102935
0.0103601
0.0104257
0.0104902
0.0105536
0.0106159
0.0106771
0.0107373
0.0107964
0.0108544
0.0109113
0.0109671
0.0110219
0.0110755
0.0111281
0.0111795
0.0112299
0.0112792
0.0113274
0.0113745
0.0114205
0.0114654
0.0115091
0.0115518
0.0115934
0.0116339
0.0116732
0.0117115
0.0117486
0.0117846
0.0118195
0.0118533
0.011886
0.0119175
0.0119479
0.0119772
0.0120054
0.0120324
0.0120584
0.0120832
0.0121068
0.0121294
0.0121508
0.0121711
0.0121902
0.0122082
0.0122251
0.0122408
0.0122554
0.0122689
0.0122813
0.0122925
0.0123026
0.0123115
0.0123193
0.012326
0.0123316
0.0123361
0.0123394
0.0123416
0.0123427
0.00735836
0.00747476
0.0075897
0.00770331
0.00781565
0.00792673
0.00803659
0.00814522
0.00825264
0.00835886
0.00846386
0.00856768
0.00867029
0.00877172
0.00887196
0.00897102
0.0090689
0.00916561
0.00926116
0.00935554
0.00944875
0.00954081
0.00963172
0.00972147
0.00981008
0.00989754
0.00998386
0.010069
0.0101531
0.010236
0.0103177
0.0103983
0.0104778
0.0105562
0.0106334
0.0107095
0.0107844
0.0108582
0.0109309
0.0110025
0.0110729
0.0111421
0.0112103
0.0112773
0.0113431
0.0114078
0.0114714
0.0115338
0.0115951
0.0116552
0.0117142
0.0117721
0.0118287
0.0118843
0.0119387
0.0119919
0.012044
0.0120949
0.0121446
0.0121932
0.0122406
0.0122869
0.012332
0.0123759
0.0124186
0.0124602
0.0125006
0.0125398
0.0125779
0.0126147
0.0126504
0.0126849
0.0127182
0.0127504
0.0127813
0.0128111
0.0128396
0.012867
0.0128932
0.0129182
0.012942
0.0129646
0.012986
0.0130062
0.0130253
0.0130431
0.0130597
0.0130751
0.0130894
0.0131024
0.0131143
0.0131249
0.0131344
0.0131426
0.0131497
0.0131556
0.0131603
0.0131638
0.0131662
0.0131673
0.00789587
0.00801807
0.00813878
0.00825812
0.00837614
0.00849287
0.00860834
0.00872255
0.0088355
0.0089472
0.00905766
0.00916688
0.00927486
0.0093816
0.00948712
0.0095914
0.00969446
0.00979629
0.00989691
0.00999631
0.0100945
0.0101915
0.0102872
0.0103818
0.0104751
0.0105673
0.0106583
0.010748
0.0108366
0.0109239
0.0110101
0.011095
0.0111788
0.0112614
0.0113428
0.011423
0.011502
0.0115798
0.0116564
0.0117318
0.011806
0.011879
0.0119508
0.0120214
0.0120908
0.012159
0.012226
0.0122918
0.0123564
0.0124198
0.0124819
0.0125429
0.0126026
0.0126611
0.0127185
0.0127745
0.0128294
0.0128831
0.0129355
0.0129867
0.0130366
0.0130854
0.0131329
0.0131792
0.0132242
0.013268
0.0133106
0.0133519
0.013392
0.0134308
0.0134684
0.0135048
0.0135399
0.0135737
0.0136063
0.0136377
0.0136678
0.0136966
0.0137242
0.0137505
0.0137756
0.0137994
0.013822
0.0138433
0.0138633
0.0138821
0.0138996
0.0139159
0.0139309
0.0139446
0.0139571
0.0139683
0.0139783
0.013987
0.0139944
0.0140006
0.0140056
0.0140093
0.0140118
0.014013
0.00845262
0.00858066
0.00870718
0.00883228
0.00895602
0.00907844
0.00919956
0.00931937
0.00943789
0.00955511
0.00967105
0.00978571
0.00989908
0.0100112
0.010122
0.0102315
0.0103398
0.0104468
0.0105525
0.0106569
0.0107601
0.010862
0.0109627
0.0110621
0.0111602
0.0112571
0.0113527
0.011447
0.0115401
0.011632
0.0117226
0.0118119
0.0119
0.0119868
0.0120724
0.0121567
0.0122397
0.0123215
0.0124021
0.0124814
0.0125594
0.0126362
0.0127117
0.0127859
0.0128589
0.0129306
0.013001
0.0130702
0.0131381
0.0132048
0.0132701
0.0133342
0.013397
0.0134585
0.0135188
0.0135777
0.0136354
0.0136918
0.0137469
0.0138008
0.0138533
0.0139045
0.0139545
0.0140031
0.0140504
0.0140965
0.0141412
0.0141847
0.0142268
0.0142676
0.0143071
0.0143453
0.0143822
0.0144178
0.0144521
0.014485
0.0145166
0.014547