/*--------------------------------*- C++ -*----------------------------------*\
  =========                 |
  \\      /  F ield         | OpenFOAM: The Open Source CFD Toolbox
   \\    /   O peration     | Website:  https://openfoam.org
    \\  /    A nd           | Version:  8
     \\/     M anipulation  |
\*---------------------------------------------------------------------------*/
FoamFile
{
    version     2.0;
    format      ascii;
    class       surfaceScalarField;
    location    "0.460025";
    object      phi;
}
// * * * * * * * * * * * * * * * * * * * * * * * * * * * * * * * * * * * * * //

dimensions      [0 3 -1 0 0 0 0];

internalField   nonuniform List<scalar> 
334950
(
-0.000483482
2.81205e-05
0.000455361
-0.00050851
2.50282e-05
-0.000530889
2.23795e-05
-0.000550887
1.99978e-05
-0.000568819
1.79323e-05
-0.000584957
1.61372e-05
-0.00059953
1.45731e-05
-0.000612732
1.32022e-05
-0.000624724
1.19923e-05
-0.000635641
1.09165e-05
-0.000645593
9.95217e-06
-0.000654673
9.08034e-06
-0.000662958
8.28468e-06
-0.000670509
7.55071e-06
-0.000677374
6.86519e-06
-0.000683589
6.21553e-06
-0.000689179
5.58949e-06
-0.000694153
4.97453e-06
-0.000698512
4.35835e-06
-0.000702241
3.72948e-06
-0.000705321
3.07932e-06
-0.000707723
2.40275e-06
-0.000709421
1.69795e-06
-0.000710395
9.73858e-07
-0.000710663
2.67611e-07
-0.00071034
-3.22553e-07
-0.000709568
-7.72553e-07
-0.000708408
-1.15933e-06
-0.000706882
-1.52619e-06
-0.000705001
-1.88062e-06
-0.000702775
-2.22609e-06
-0.000700211
-2.56387e-06
-0.000697317
-2.89458e-06
-0.000694098
-3.21891e-06
-0.000690561
-3.53721e-06
-0.000686711
-3.84974e-06
-0.000682554
-4.15678e-06
-0.000678096
-4.45846e-06
-0.000673341
-4.75505e-06
-0.000668294
-5.04677e-06
-0.00066296
-5.33358e-06
-0.000657345
-5.61571e-06
-0.000651451
-5.89329e-06
-0.000645285
-6.16639e-06
-0.00063885
-6.43494e-06
-0.000632151
-6.69926e-06
-0.000625192
-6.95916e-06
-0.000617977
-7.21487e-06
-0.00061051
-7.46638e-06
-0.000602797
-7.71365e-06
-0.00059484
-7.95668e-06
-0.000586644
-8.19561e-06
-0.000578214
-8.43039e-06
-0.000569553
-8.66091e-06
-0.000560666
-8.88711e-06
-0.000551557
-9.10908e-06
-0.00054223
-9.32655e-06
-0.000532691
-9.53946e-06
-0.000522944
-9.74743e-06
-0.000512993
-9.95039e-06
-0.000502845
-1.01479e-05
-0.000492506
-1.03392e-05
-0.000481982
-1.0524e-05
-0.000471281
-1.07015e-05
-0.000460409
-1.08712e-05
-0.000449376
-1.10337e-05
-0.000438185
-1.11905e-05
-0.000426839
-1.13464e-05
-0.00041533
-1.15086e-05
-0.000403645
-1.16853e-05
-0.000391764
-1.18806e-05
-0.000379679
-1.20851e-05
-0.000367405
-1.2274e-05
-0.000354983
-1.24225e-05
-0.000342451
-1.25323e-05
-0.000329824
-1.26268e-05
-0.000317106
-1.27182e-05
-0.000304296
-1.28099e-05
-0.000291382
-1.29134e-05
-0.000278355
-1.30274e-05
-0.000265213
-1.31422e-05
-0.000251958
-1.3255e-05
-0.000238594
-1.33638e-05
-0.000225126
-1.3468e-05
-0.000211558
-1.35673e-05
-0.000197897
-1.36615e-05
-0.000184146
-1.37506e-05
-0.000170312
-1.38343e-05
-0.000156399
-1.39128e-05
-0.000142413
-1.39859e-05
-0.00012836
-1.40536e-05
-0.000114243
-1.41163e-05
-0.00010007
-1.41739e-05
-8.58426e-05
-1.4227e-05
-7.15666e-05
-1.4276e-05
-5.72461e-05
-1.43205e-05
-4.28894e-05
-1.43567e-05
-2.85134e-05
-1.4376e-05
-1.41461e-05
-1.43673e-05
-1.41578e-05
1.16849e-08
-0.000725482
4.54807e-05
0.000708122
-0.000740231
3.97764e-05
-0.000752969
3.51178e-05
-0.000764125
3.11541e-05
-0.000773945
2.77524e-05
-0.000782608
2.47997e-05
-0.000790247
2.22122e-05
-0.000796966
1.99211e-05
-0.000802845
1.78714e-05
-0.000807948
1.60192e-05
-0.000812325
1.43292e-05
-0.000816017
1.27729e-05
-0.00081906
1.13272e-05
-0.000821482
9.97302e-06
-0.000823312
8.69507e-06
-0.000824577
7.48083e-06
-0.000825308
6.3204e-06
-0.00082554
5.20618e-06
-0.000825314
4.13292e-06
-0.000824682
3.09697e-06
-0.000823699
2.0963e-06
-0.000822426
1.13018e-06
-0.000820929
2.00434e-07
-0.000819272
-6.83323e-07
-0.000817489
-1.51466e-06
-0.000815503
-2.30841e-06
-0.000813192
-3.08401e-06
-0.000810514
-3.83713e-06
-0.000807475
-4.56554e-06
-0.000804081
-5.274e-06
-0.000800342
-5.96565e-06
-0.000796263
-6.64238e-06
-0.000791853
-7.30534e-06
-0.000787116
-7.9554e-06
-0.00078206
-8.59348e-06
-0.00077669
-9.21976e-06
-0.000771012
-9.83494e-06
-0.000765031
-1.04394e-05
-0.000758752
-1.10333e-05
-0.000752182
-1.16171e-05
-0.000745325
-1.21909e-05
-0.000738185
-1.2755e-05
-0.000730769
-1.33096e-05
-0.000723081
-1.38547e-05
-0.000715125
-1.43907e-05
-0.000706907
-1.49173e-05
-0.000698431
-1.5435e-05
-0.000689702
-1.59437e-05
-0.000680725
-1.64434e-05
-0.000671505
-1.69344e-05
-0.000662045
-1.74164e-05
-0.000652351
-1.78896e-05
-0.000642427
-1.83539e-05
-0.000632279
-1.88095e-05
-0.00062191
-1.92561e-05
-0.000611325
-1.96938e-05
-0.000600529
-2.01226e-05
-0.000589526
-2.05422e-05
-0.000578321
-2.09527e-05
-0.000566917
-2.1354e-05
-0.00055532
-2.17458e-05
-0.000543531
-2.2128e-05
-0.000531554
-2.25006e-05
-0.000519392
-2.28636e-05
-0.000507047
-2.32167e-05
-0.00049452
-2.35605e-05
-0.000481815
-2.38955e-05
-0.000468937
-2.42235e-05
-0.000455899
-2.45472e-05
-0.000442714
-2.48703e-05
-0.000429399
-2.51955e-05
-0.000415964
-2.55201e-05
-0.000402405
-2.58326e-05
-0.000388708
-2.61195e-05
-0.000374863
-2.63781e-05
-0.000360872
-2.66174e-05
-0.000346746
-2.68442e-05
-0.000332493
-2.7063e-05
-0.000318127
-2.72798e-05
-0.000303658
-2.74956e-05
-0.000289094
-2.77068e-05
-0.000274437
-2.79114e-05
-0.000259694
-2.81077e-05
-0.000244867
-2.82949e-05
-0.000229961
-2.84728e-05
-0.000214982
-2.86408e-05
-0.000199933
-2.8799e-05
-0.000184821
-2.89471e-05
-0.000169648
-2.90851e-05
-0.000154421
-2.92128e-05
-0.000139145
-2.93304e-05
-0.000123823
-2.94379e-05
-0.000108461
-2.95355e-05
-9.30649e-05
-2.96235e-05
-7.76384e-05
-2.97025e-05
-6.21867e-05
-2.97722e-05
-4.67122e-05
-2.98312e-05
-3.12114e-05
-2.98768e-05
-1.56803e-05
-2.98984e-05
-2.9851e-05
1.29837e-08
-0.000797172
5.64475e-05
0.000786205
-0.000807206
4.98105e-05
-0.000816273
4.41847e-05
-0.00082446
3.93407e-05
-0.000831833
3.51255e-05
-0.000838449
3.14159e-05
-0.000844355
2.8118e-05
-0.000849591
2.51575e-05
-0.000854195
2.2475e-05
-0.000858199
2.0023e-05
-0.000861633
1.77634e-05
-0.000864525
1.56651e-05
-0.000866901
1.37033e-05
-0.000868785
1.18574e-05
-0.000870201
1.0111e-05
-0.000871171
8.4508e-06
-0.000871717
6.86575e-06
-0.000871858
5.34723e-06
-0.000871613
3.88834e-06
-0.000871
2.48336e-06
-0.00087003
1.12726e-06
-0.000868717
-1.83786e-07
-0.000867063
-1.45346e-06
-0.00086506
-2.68554e-06
-0.000862695
-3.87993e-06
-0.000859961
-5.04285e-06
-0.000856866
-6.17847e-06
-0.000853419
-7.2848e-06
-0.000849622
-8.36259e-06
-0.000845481
-9.41485e-06
-0.000841002
-1.0444e-05
-0.000836193
-1.14518e-05
-0.000831058
-1.24397e-05
-0.000825605
-1.34089e-05
-0.000819838
-1.43603e-05
-0.000813764
-1.52944e-05
-0.000807386
-1.62121e-05
-0.000800712
-1.71138e-05
-0.000793745
-1.79999e-05
-0.000786492
-1.88708e-05
-0.000778956
-1.97269e-05
-0.000771142
-2.05685e-05
-0.000763056
-2.13957e-05
-0.000754702
-2.22087e-05
-0.000746085
-2.30079e-05
-0.000737209
-2.37932e-05
-0.000728079
-2.4565e-05
-0.000718699
-2.53232e-05
-0.000709075
-2.60678e-05
-0.000699211
-2.6799e-05
-0.00068911
-2.7517e-05
-0.000678778
-2.82215e-05
-0.000668219
-2.89128e-05
-0.000657438
-2.95907e-05
-0.000646439
-3.02553e-05
-0.000635226
-3.09065e-05
-0.000623804
-3.15443e-05
-0.000612178
-3.21685e-05
-0.000600352
-3.27792e-05
-0.000588329
-3.33762e-05
-0.000576116
-3.39594e-05
-0.000563715
-3.45287e-05
-0.000551132
-3.50839e-05
-0.00053837
-3.56251e-05
-0.000525434
-3.61526e-05
-0.000512328
-3.66667e-05
-0.000499055
-3.71683e-05
-0.00048562
-3.76591e-05
-0.000472026
-3.81412e-05
-0.00045828
-3.86163e-05
-0.000444391
-3.90844e-05
-0.000430369
-3.95422e-05
-0.000416219
-3.99821e-05
-0.000401942
-4.0397e-05
-0.000387533
-4.07863e-05
-0.000372997
-4.11539e-05
-0.000358337
-4.15045e-05
-0.000343558
-4.18415e-05
-0.000328669
-4.21687e-05
-0.000313678
-4.24868e-05
-0.000298591
-4.27942e-05
-0.000283412
-4.30897e-05
-0.000268148
-4.33722e-05
-0.000252802
-4.36411e-05
-0.000237379
-4.38958e-05
-0.000221883
-4.41361e-05
-0.000206321
-4.43616e-05
-0.000190696
-4.45724e-05
-0.000175012
-4.47681e-05
-0.000159276
-4.49488e-05
-0.000143492
-4.51145e-05
-0.000127665
-4.52653e-05
-0.000111799
-4.54013e-05
-9.58999e-05
-4.55226e-05
-7.99727e-05
-4.56297e-05
-6.40223e-05
-4.57226e-05
-4.80527e-05
-4.58008e-05
-3.20657e-05
-4.58638e-05
-1.60561e-05
-4.5908e-05
-4.59205e-05
1.33304e-08
-0.000835582
6.56739e-05
0.000826355
-0.000844236
5.84649e-05
-0.000852262
5.22109e-05
-0.000859642
4.67203e-05
-0.000866374
4.18572e-05
-0.000872469
3.75115e-05
-0.000877946
3.35952e-05
-0.000882825
3.00364e-05
-0.000887127
2.67771e-05
-0.000890874
2.37699e-05
-0.000894087
2.09759e-05
-0.000896785
1.83635e-05
-0.000898988
1.59063e-05
-0.000900713
1.35827e-05
-0.000901977
1.13749e-05
-0.000902795
9.26824e-06
-0.000903179
7.2502e-06
-0.000903143
5.31079e-06
-0.000902696
3.44165e-06
-0.000901848
1.63569e-06
-0.000900608
-1.12736e-07
-0.000898984
-1.80861e-06
-0.000896981
-3.45644e-06
-0.000894604
-5.06199e-06
-0.000891857
-6.6267e-06
-0.000888745
-8.15488e-06
-0.000885276
-9.64818e-06
-0.000881454
-1.11065e-05
-0.000877285
-1.25311e-05
-0.000872776
-1.39248e-05
-0.00086793
-1.52894e-05
-0.000862755
-1.66268e-05
-0.000857256
-1.79386e-05
-0.000851439
-1.92263e-05
-0.000845309
-2.04904e-05
-0.000838871
-2.17324e-05
-0.00083213
-2.29526e-05
-0.000825092
-2.41518e-05
-0.000817762
-2.53305e-05
-0.000810143
-2.64891e-05
-0.000802242
-2.76282e-05
-0.000794063
-2.87479e-05
-0.00078561
-2.98487e-05
-0.000776888
-3.09307e-05
-0.000767901
-3.19942e-05
-0.000758655
-3.30393e-05
-0.000749154
-3.40663e-05
-0.000739402
-3.50752e-05
-0.000729404
-3.60661e-05
-0.000719163
-3.70392e-05
-0.000708686
-3.79943e-05
-0.000697976
-3.89318e-05
-0.000687037
-3.98514e-05
-0.000675875
-4.07533e-05
-0.000664493
-4.16373e-05
-0.000652896
-4.25036e-05
-0.000641088
-4.33519e-05
-0.000629074
-4.41824e-05
-0.000616858
-4.49948e-05
-0.000604446
-4.57891e-05
-0.00059184
-4.65654e-05
-0.000579045
-4.73232e-05
-0.000566066
-4.80628e-05
-0.000552907
-4.87842e-05
-0.000539572
-4.94873e-05
-0.000526066
-5.01728e-05
-0.000512393
-5.08413e-05
-0.000498558
-5.14939e-05
-0.000484568
-5.21318e-05
-0.000470428
-5.27561e-05
-0.000456146
-5.33665e-05
-0.000441728
-5.39601e-05
-0.000427178
-5.4532e-05
-0.000412497
-5.5078e-05
-0.000397686
-5.55973e-05
-0.000382748
-5.60921e-05
-0.000367687
-5.65651e-05
-0.00035251
-5.70193e-05
-0.000337221
-5.74569e-05
-0.00032183
-5.78787e-05
-0.00030634
-5.8284e-05
-0.000290757
-5.86722e-05
-0.000275087
-5.90423e-05
-0.000259334
-5.93939e-05
-0.000243504
-5.97267e-05
-0.0002276
-6.00401e-05
-0.000211627
-6.0334e-05
-0.000195591
-6.06082e-05
-0.000179497
-6.08626e-05
-0.000163349
-6.10971e-05
-0.000147151
-6.13117e-05
-0.00013091
-6.15065e-05
-0.00011463
-6.16815e-05
-9.83158e-05
-6.18369e-05
-8.19728e-05
-6.19728e-05
-6.56059e-05
-6.20894e-05
-4.92203e-05
-6.21865e-05
-3.28206e-05
-6.22635e-05
-1.64102e-05
-6.23184e-05
-6.23444e-05
1.36633e-08
-0.000866099
7.40361e-05
0.000857737
-0.000874088
6.64533e-05
-0.000881582
5.97047e-05
-0.000888528
5.36671e-05
-0.000894905
4.82336e-05
-0.000900705
4.33114e-05
-0.000905932
3.88222e-05
-0.000910596
3.47003e-05
-0.000914709
3.08906e-05
-0.000918287
2.73475e-05
-0.000921344
2.40328e-05
-0.000923895
2.09146e-05
-0.000925955
1.79664e-05
-0.000927538
1.51658e-05
-0.000928657
1.24944e-05
-0.000929326
9.93646e-06
-0.000929554
7.47889e-06
-0.000929354
5.11059e-06
-0.000928735
2.82234e-06
-0.000927705
6.06251e-07
-0.000926274
-1.54432e-06
-0.000924447
-3.63571e-06
-0.000922231
-5.67214e-06
-0.000919635
-7.65818e-06
-0.000916665
-9.59679e-06
-0.000913328
-1.14914e-05
-0.000909632
-1.33443e-05
-0.000905582
-1.51565e-05
-0.000901183
-1.69299e-05
-0.000896441
-1.86668e-05
-0.000891361
-2.03691e-05
-0.00088595
-2.20387e-05
-0.000880211
-2.36773e-05
-0.000874151
-2.52862e-05
-0.000867775
-2.68667e-05
-0.000861088
-2.84195e-05
-0.000854094
-2.99457e-05
-0.0008468
-3.14459e-05
-0.00083921
-3.29207e-05
-0.000831329
-3.43707e-05
-0.00082316
-3.57964e-05
-0.00081471
-3.7198e-05
-0.000805983
-3.85762e-05
-0.000796983
-3.99308e-05
-0.000787714
-4.12624e-05
-0.000778182
-4.25712e-05
-0.000768392
-4.38571e-05
-0.000758346
-4.51206e-05
-0.000748051
-4.63615e-05
-0.00073751
-4.75801e-05
-0.000726728
-4.87763e-05
-0.00071571
-4.99502e-05
-0.000704459
-5.11019e-05
-0.000692981
-5.22313e-05
-0.00068128
-5.33384e-05
-0.00066936
-5.44232e-05
-0.000657227
-5.54856e-05
-0.000644883
-5.65256e-05
-0.000632335
-5.75431e-05
-0.000619586
-5.85379e-05
-0.000606641
-5.95102e-05
-0.000593505
-6.04597e-05
-0.000580181
-6.13864e-05
-0.000566675
-6.22906e-05
-0.00055299
-6.3172e-05
-0.000539132
-6.40313e-05
-0.000525104
-6.48688e-05
-0.000510913
-6.56852e-05
-0.000496564
-6.64813e-05
-0.000482062
-6.72575e-05
-0.000467416
-6.80131e-05
-0.000452629
-6.87464e-05
-0.000437707
-6.9454e-05
-0.000422652
-7.01332e-05
-0.000407466
-7.07835e-05
-0.000392152
-7.14059e-05
-0.000376715
-7.20023e-05
-0.00036116
-7.25744e-05
-0.000345493
-7.3124e-05
-0.00032972
-7.36516e-05
-0.000313847
-7.4157e-05
-0.000297879
-7.46399e-05
-0.000281822
-7.50996e-05
-0.00026568
-7.55358e-05
-0.000249458
-7.59481e-05
-0.000233162
-7.63362e-05
-0.000216797
-7.66998e-05
-0.000200366
-7.70388e-05
-0.000183876
-7.73529e-05
-0.000167331
-7.76423e-05
-0.000150735
-7.79068e-05
-0.000134096
-7.81463e-05
-0.000117416
-7.83611e-05
-0.000100702
-7.85511e-05
-8.39582e-05
-7.87164e-05
-6.71906e-05
-7.8857e-05
-5.04044e-05
-7.89727e-05
-3.36052e-05
-7.90627e-05
-1.67982e-05
-7.91254e-05
-7.91566e-05
1.40237e-08
-0.000894477
8.18478e-05
0.000886666
-0.000901971
7.39473e-05
-0.000909043
6.67768e-05
-0.000915635
6.02583e-05
-0.000921711
5.43099e-05
-0.000927256
4.88565e-05
-0.000932265
4.38307e-05
-0.000936738
3.91738e-05
-0.000940683
3.48354e-05
-0.000944108
3.07724e-05
-0.000947023
2.69484e-05
-0.000949441
2.33322e-05
-0.000951372
1.98976e-05
-0.000952828
1.66221e-05
-0.000953821
1.34869e-05
-0.00095436
1.0476e-05
-0.000954457
7.57576e-06
-0.000954121
4.77453e-06
-0.000953362
2.06264e-06
-0.000952187
-5.68207e-07
-0.000950606
-3.12534e-06
-0.000948626
-5.61535e-06
-0.000946255
-8.04314e-06
-0.000943501
-1.04131e-05
-0.000940369
-1.27288e-05
-0.000936866
-1.49938e-05
-0.000933
-1.72104e-05
-0.000928776
-1.93807e-05
-0.000924199
-2.15068e-05
-0.000919275
-2.3591e-05
-0.000914009
-2.56353e-05
-0.000908406
-2.76415e-05
-0.000902472
-2.96113e-05
-0.000896212
-3.15464e-05
-0.000889631
-3.34476e-05
-0.000882734
-3.53164e-05
-0.000875526
-3.71534e-05
-0.000868013
-3.89596e-05
-0.000860198
-4.07356e-05
-0.000852087
-4.24818e-05
-0.000843684
-4.41992e-05
-0.000834994
-4.58878e-05
-0.000826022
-4.75482e-05
-0.000816772
-4.91806e-05
-0.000807249
-5.07852e-05
-0.000797458
-5.23625e-05
-0.000787403
-5.39124e-05
-0.000777088
-5.54352e-05
-0.000766519
-5.6931e-05
-0.000755699
-5.83998e-05
-0.000744634
-5.98418e-05
-0.000733327
-6.12569e-05
-0.000721784
-6.26452e-05
-0.000710008
-6.40067e-05
-0.000698006
-6.53413e-05
-0.00068578
-6.6649e-05
-0.000673336
-6.79298e-05
-0.000660678
-6.91835e-05
-0.000647811
-7.04101e-05
-0.000634739
-7.16097e-05
-0.000621467
-7.27819e-05
-0.000608
-7.39268e-05
-0.000594342
-7.50444e-05
-0.000580498
-7.61347e-05
-0.000566472
-7.71979e-05
-0.000552269
-7.8234e-05
-0.000537895
-7.92435e-05
-0.000523353
-8.02267e-05
-0.00050865
-8.1184e-05
-0.000493792
-8.21154e-05
-0.000478785
-8.30205e-05
-0.000463634
-8.38977e-05
-0.000448343
-8.47449e-05
-0.000432915
-8.55604e-05
-0.000417355
-8.63438e-05
-0.000401665
-8.70955e-05
-0.000385851
-8.78166e-05
-0.000369917
-8.85085e-05
-0.000353869
-8.91719e-05
-0.000337713
-8.98077e-05
-0.000321454
-9.04156e-05
-0.000305099
-9.09955e-05
-0.000288651
-9.15471e-05
-0.000272117
-9.20699e-05
-0.000255502
-9.25636e-05
-0.00023881
-9.30281e-05
-0.000222046
-9.3463e-05
-0.000205217
-9.38682e-05
-0.000188326
-9.42436e-05
-0.00017138
-9.4589e-05
-0.000154382
-9.49043e-05
-0.000137339
-9.51897e-05
-0.000120255
-9.54449e-05
-0.000103136
-9.56701e-05
-8.59869e-05
-9.58653e-05
-6.88136e-05
-9.60303e-05
-5.16215e-05
-9.61647e-05
-3.44163e-05
-9.6268e-05
-1.72031e-05
-9.63386e-05
-9.63741e-05
1.4396e-08
-0.000922255
8.92108e-05
0.000914892
-0.000929336
8.10279e-05
-0.000936043
7.34838e-05
-0.000942318
6.65332e-05
-0.000948123
6.01148e-05
-0.000953435
5.41685e-05
-0.000958242
4.86377e-05
-0.000962539
4.34715e-05
-0.000966329
3.86246e-05
-0.000969614
3.40575e-05
-0.000972401
2.9736e-05
-0.000974699
2.56303e-05
-0.000976517
2.17149e-05
-0.000977863
1.7968e-05
-0.000978746
1.43708e-05
-0.000979178
1.09071e-05
-0.000979165
7.5632e-06
-0.000978718
4.32732e-06
-0.000977844
1.18913e-06
-0.000976553
-1.85974e-06
-0.000974851
-4.82736e-06
-0.000972746
-7.71987e-06
-0.000970246
-1.0543e-05
-0.000967358
-1.33011e-05
-0.000964089
-1.59985e-05
-0.000960444
-1.86385e-05
-0.00095643
-2.12241e-05
-0.000952053
-2.37578e-05
-0.000947318
-2.62418e-05
-0.000942231
-2.86785e-05
-0.000936796
-3.10701e-05
-0.000931019
-3.34183e-05
-0.000924905
-3.57251e-05
-0.00091846
-3.79917e-05
-0.000911688
-4.02195e-05
-0.000904595
-4.24099e-05
-0.000897184
-4.45636e-05
-0.000889462
-4.66815e-05
-0.000881434
-4.87643e-05
-0.000873103
-5.08129e-05
-0.000864474
-5.28275e-05
-0.000855553
-5.48087e-05
-0.000846344
-5.67572e-05
-0.000836852
-5.86729e-05
-0.000827081
-6.05562e-05
-0.000817036
-6.24075e-05
-0.000806722
-6.42269e-05
-0.000796142
-6.60145e-05
-0.000785303
-6.77706e-05
-0.000774207
-6.9495e-05
-0.000762861
-7.11879e-05
-0.000751269
-7.28494e-05
-0.000739434
-7.44795e-05
-0.000727363
-7.6078e-05
-0.000715059
-7.76451e-05
-0.000702528
-7.91806e-05
-0.000689773
-8.06845e-05
-0.0006768
-8.21567e-05
-0.000663613
-8.35971e-05
-0.000650217
-8.50057e-05
-0.000636616
-8.63823e-05
-0.000622816
-8.77269e-05
-0.000608821
-8.90395e-05
-0.000594636
-9.03201e-05
-0.000580265
-9.15686e-05
-0.000565714
-9.27853e-05
-0.000550987
-9.39703e-05
-0.00053609
-9.51236e-05
-0.000521029
-9.62458e-05
-0.000505808
-9.73364e-05
-0.000490433
-9.83948e-05
-0.000474911
-9.94202e-05
-0.000459245
-0.000100411
-0.000443439
-0.000101366
-0.000427497
-0.000102285
-0.000411424
-0.000103169
-0.000395224
-0.000104017
-0.000378903
-0.00010483
-0.000362465
-0.00010561
-0.000345916
-0.000106356
-0.000329263
-0.000107069
-0.00031251
-0.000107748
-0.000295663
-0.000108394
-0.000278727
-0.000109006
-0.000261708
-0.000109583
-0.00024461
-0.000110126
-0.00022744
-0.000110634
-0.000210201
-0.000111107
-0.0001929
-0.000111545
-0.000175542
-0.000111947
-0.000158131
-0.000112315
-0.000140674
-0.000112647
-0.000123176
-0.000112944
-0.000105641
-0.000113205
-8.80757e-05
-0.00011343
-7.04856e-05
-0.00011362
-5.28762e-05
-0.000113774
-3.52531e-05
-0.000113891
-1.76213e-05
-0.00011397
-0.00011401
1.47774e-08
-0.000950132
9.62064e-05
0.000943136
-0.000956863
8.77591e-05
-0.000963253
7.98737e-05
-0.000969246
7.25268e-05
-0.000974805
6.56732e-05
-0.000979902
5.92654e-05
-0.000984521
5.32569e-05
-0.000988654
4.76042e-05
-0.000992296
4.22674e-05
-0.00099545
3.72108e-05
-0.000998117
3.2403e-05
-0.0010003
2.78161e-05
-0.00100201
2.3426e-05
-0.00100326
1.92115e-05
-0.00100404
1.51543e-05
-0.00100437
1.12385e-05
-0.00100426
7.4504e-06
-0.00100371
3.77808e-06
-0.00100273
2.11383e-07
-0.00100133
-3.2588e-06
-0.00099952
-6.64018e-06
-0.000997301
-9.93943e-06
-0.000994682
-1.31622e-05
-0.000991669
-1.63135e-05
-0.00098827
-1.93976e-05
-0.00098449
-2.24182e-05
-0.000980336
-2.53785e-05
-0.000975812
-2.82813e-05
-0.000970925
-3.11291e-05
-0.000965679
-3.39243e-05
-0.00096008
-3.66691e-05
-0.000954133
-3.93655e-05
-0.000947843
-4.2015e-05
-0.000941215
-4.46195e-05
-0.000934255
-4.71801e-05
-0.000926966
-4.96983e-05
-0.000919355
-5.21748e-05
-0.000911426
-5.46107e-05
-0.000903183
-5.70067e-05
-0.000894633
-5.93636e-05
-0.000885779
-6.16817e-05
-0.000876625
-6.39619e-05
-0.000867178
-6.62044e-05
-0.000857442
-6.84094e-05
-0.00084742
-7.05775e-05
-0.000837119
-7.27088e-05
-0.000826543
-7.48035e-05
-0.000815695
-7.68618e-05
-0.000804582
-7.88838e-05
-0.000793208
-8.08694e-05
-0.000781577
-8.2819e-05
-0.000769694
-8.47323e-05
-0.000757564
-8.66095e-05
-0.000745191
-8.84505e-05
-0.000732581
-9.02553e-05
-0.000719738
-9.20237e-05
-0.000706667
-9.37558e-05
-0.000693372
-9.54514e-05
-0.000679858
-9.71105e-05
-0.000666131
-9.87329e-05
-0.000652195
-0.000100319
-0.000638054
-0.000101867
-0.000623715
-0.000103379
-0.00060918
-0.000104854
-0.000594456
-0.000106292
-0.000579548
-0.000107694
-0.00056446
-0.000109058
-0.000549199
-0.000110386
-0.000533768
-0.000111676
-0.000518175
-0.00011293
-0.000502423
-0.000114146
-0.00048652
-0.000115324
-0.000470469
-0.000116462
-0.000454275
-0.00011756
-0.000437942
-0.000118618
-0.000421475
-0.000119636
-0.000404878
-0.000120613
-0.000388158
-0.000121551
-0.000371318
-0.000122449
-0.000354366
-0.000123308
-0.000337306
-0.000124129
-0.000320145
-0.00012491
-0.000302886
-0.000125652
-0.000285537
-0.000126355
-0.000268103
-0.000127018
-0.000250587
-0.000127641
-0.000232998
-0.000128224
-0.000215338
-0.000128766
-0.000197614
-0.000129268
-0.000179832
-0.00012973
-0.000161997
-0.00013015
-0.000144113
-0.00013053
-0.000126187
-0.00013087
-0.000108224
-0.000131168
-9.02302e-05
-0.000131425
-7.22104e-05
-0.00013164
-5.41707e-05
-0.000131814
-3.61164e-05
-0.000131945
-1.80529e-05
-0.000132034
-0.000132078
1.51681e-08
-0.000978492
0.000102894
0.000971804
-0.000984924
9.41909e-05
-0.000991034
8.59846e-05
-0.000996775
7.8267e-05
-0.00100211
7.10047e-05
-0.001007
6.41607e-05
-0.00101144
5.76973e-05
-0.00101542
5.15776e-05
-0.00101892
4.57673e-05
-0.00102194
4.02346e-05
-0.00102449
3.49511e-05
-0.00102656
2.9891e-05
-0.00102817
2.50319e-05
-0.00102931
2.03535e-05
-0.00102999
1.58385e-05
-0.00103023
1.14712e-05
-0.00103001
7.23839e-06
-0.00102936
3.12821e-06
-0.00102828
-8.69611e-07
-0.00102678
-4.76407e-06
-0.00102486
-8.56301e-06
-0.00102252
-1.22733e-05
-0.00101978
-1.59006e-05
-0.00101665
-1.94502e-05
-0.00101312
-2.29265e-05
-0.0010092
-2.63335e-05
-0.00100491
-2.96744e-05
-0.00100024
-3.29525e-05
-0.000995195
-3.61701e-05
-0.000989789
-3.93301e-05
-0.000984024
-4.24343e-05
-0.000977904
-4.54851e-05
-0.000971435
-4.8484e-05
-0.000964622
-5.14328e-05
-0.000957469
-5.43327e-05
-0.000949983
-5.7185e-05
-0.000942166
-5.9991e-05
-0.000934026
-6.27514e-05
-0.000925565
-6.5467e-05
-0.00091679
-6.81388e-05
-0.000907705
-7.07669e-05
-0.000898315
-7.33523e-05
-0.000888624
-7.58951e-05
-0.000878637
-7.8396e-05
-0.00086836
-8.0855e-05
-0.000857796
-8.32725e-05
-0.000846951
-8.56487e-05
-0.000835829
-8.79836e-05
-0.000824435
-9.02775e-05
-0.000812775
-9.25303e-05
-0.000800851
-9.47423e-05
-0.00078867
-9.69132e-05
-0.000776237
-9.90432e-05
-0.000763555
-0.000101132
-0.00075063
-0.00010318
-0.000737467
-0.000105187
-0.00072407
-0.000107152
-0.000710445
-0.000109077
-0.000696596
-0.000110959
-0.000682528
-0.000112801
-0.000668247
-0.0001146
-0.000653756
-0.000116358
-0.000639062
-0.000118074
-0.000624168
-0.000119748
-0.000609081
-0.00012138
-0.000593805
-0.00012297
-0.000578346
-0.000124517
-0.000562708
-0.000126023
-0.000546898
-0.000127486
-0.00053092
-0.000128907
-0.000514781
-0.000130285
-0.000498485
-0.000131619
-0.000482038
-0.000132909
-0.000465444
-0.000134154
-0.000448708
-0.000135354
-0.000431835
-0.000136509
-0.00041483
-0.000137618
-0.000397699
-0.000138682
-0.000380446
-0.000139702
-0.000363077
-0.000140677
-0.000345598
-0.000141607
-0.000328015
-0.000142493
-0.000310333
-0.000143334
-0.000292558
-0.00014413
-0.000274695
-0.000144881
-0.00025675
-0.000145586
-0.000238728
-0.000146246
-0.000220634
-0.000146859
-0.000202475
-0.000147427
-0.000184256
-0.000147949
-0.000165982
-0.000148424
-0.000147659
-0.000148853
-0.000129293
-0.000149236
-0.000110888
-0.000149572
-9.24521e-05
-0.000149861
-7.39892e-05
-0.000150103
-5.55056e-05
-0.000150298
-3.70068e-05
-0.000150444
-1.84981e-05
-0.000150543
-0.000150592
1.55679e-08
-0.00100756
0.000109318
0.00100114
-0.00101373
0.000100361
-0.0010196
9.18465e-05
-0.00102511
8.37756e-05
-0.00103023
7.61243e-05
-0.00103493
6.8864e-05
-0.0010392
6.19642e-05
-0.00104301
5.53941e-05
-0.00104637
4.91245e-05
-0.00104926
4.31275e-05
-0.00105169
3.73776e-05
-0.00105365
3.18517e-05
-0.00105515
2.65288e-05
-0.00105618
2.13903e-05
-0.00105676
1.64193e-05
-0.00105689
1.16013e-05
-0.00105658
6.92321e-06
-0.00105582
2.37355e-06
-0.00105464
-2.0578e-06
-0.00105302
-6.37975e-06
-0.00105098
-1.06001e-05
-0.00104853
-1.47257e-05
-0.00104567
-1.87624e-05
-0.0010424
-2.27155e-05
-0.00103874
-2.65897e-05
-0.00103469
-3.03889e-05
-0.00103024
-3.41166e-05
-0.00102542
-3.7776e-05
-0.00102022
-4.137e-05
-0.00101465
-4.49011e-05
-0.00100871
-4.83713e-05
-0.00100241
-5.1783e-05
-0.00099576
-5.51378e-05
-0.000988755
-5.84375e-05
-0.000981404
-6.16834e-05
-0.000973713
-6.48768e-05
-0.000965685
-6.80188e-05
-0.000957326
-7.11104e-05
-0.00094864
-7.41524e-05
-0.000939634
-7.71455e-05
-0.00093031
-8.00904e-05
-0.000920675
-8.29875e-05
-0.000910733
-8.58374e-05
-0.000900488
-8.86404e-05
-0.000889946
-9.13968e-05
-0.000879112
-9.41069e-05
-0.00086799
-9.67707e-05
-0.000856585
-9.93886e-05
-0.000844902
-0.00010196
-0.000832946
-0.000104487
-0.000820721
-0.000106967
-0.000808233
-0.000109401
-0.000795486
-0.00011179
-0.000782486
-0.000114133
-0.000769236
-0.000116429
-0.000755743
-0.00011868
-0.000742011
-0.000120884
-0.000728045
-0.000123043
-0.00071385
-0.000125154
-0.000699432
-0.000127219
-0.000684794
-0.000129238
-0.000669943
-0.000131209
-0.000654882
-0.000133134
-0.000639619
-0.000135011
-0.000624157
-0.000136842
-0.000608502
-0.000138625
-0.000592659
-0.00014036
-0.000576634
-0.000142048
-0.000560432
-0.000143689
-0.000544058
-0.000145281
-0.000527519
-0.000146825
-0.000510819
-0.000148319
-0.000493963
-0.000149765
-0.000476958
-0.00015116
-0.000459807
-0.000152505
-0.000442515
-0.0001538
-0.000425089
-0.000155044
-0.000407534
-0.000156238
-0.000389854
-0.000157381
-0.000372056
-0.000158475
-0.000354146
-0.000159518
-0.000336128
-0.000160511
-0.000318009
-0.000161453
-0.000299795
-0.000162345
-0.00028149
-0.000163185
-0.000263102
-0.000163975
-0.000244634
-0.000164713
-0.000226094
-0.0001654
-0.000207486
-0.000166035
-0.000188816
-0.000166619
-0.00017009
-0.00016715
-0.000151315
-0.000167629
-0.000132494
-0.000168056
-0.000113635
-0.000168431
-9.47424e-05
-0.000168753
-7.58227e-05
-0.000169023
-5.68815e-05
-0.000169239
-3.79244e-05
-0.000169401
-1.89568e-05
-0.00016951
-0.000169565
1.59767e-08
-0.0010375
0.000115511
0.0010313
-0.00104343
0.000106299
-0.00104907
9.74824e-05
-0.00105436
8.90698e-05
-0.00105928
8.10437e-05
-0.0010638
7.3382e-05
-0.0010679
6.60605e-05
-0.00107156
5.90536e-05
-0.00107477
5.23367e-05
-0.00107753
4.58855e-05
-0.00107983
3.96777e-05
-0.00108167
3.36924e-05
-0.00108305
2.79106e-05
-0.00108397
2.23149e-05
-0.00108444
1.689e-05
-0.00108446
1.16217e-05
-0.00108404
6.49773e-06
-0.00108317
1.507e-06
-0.00108187
-3.36028e-06
-0.00108014
-8.11291e-06
-0.00107798
-1.27585e-05
-0.0010754
-1.73038e-05
-0.00107241
-2.17548e-05
-0.00106901
-2.61168e-05
-0.0010652
-3.03944e-05
-0.001061
-3.45916e-05
-0.0010564
-3.87123e-05
-0.00105142
-4.27594e-05
-0.00104605
-4.67361e-05
-0.00104031
-5.06447e-05
-0.00103419
-5.44875e-05
-0.00102771
-5.82668e-05
-0.00102086
-6.19843e-05
-0.00101366
-6.56416e-05
-0.0010061
-6.92402e-05
-0.000998198
-7.27815e-05
-0.000989951
-7.62664e-05
-0.000981365
-7.9696e-05
-0.000972446
-8.30712e-05
-0.000963199
-8.63926e-05
-0.000953629
-8.96609e-05
-0.00094374
-9.28766e-05
-0.000933537
-9.60401e-05
-0.000923026
-9.91519e-05
-0.00091221
-0.000102212
-0.000901096
-0.000105221
-0.000889687
-0.000108179
-0.000877989
-0.000111087
-0.000866007
-0.000113943
-0.000853745
-0.000116748
-0.000841209
-0.000119503
-0.000828403
-0.000122207
-0.000815333
-0.00012486
-0.000802003
-0.000127462
-0.000788419
-0.000130014
-0.000774585
-0.000132514
-0.000760507
-0.000134963
-0.000746189
-0.00013736
-0.000731637
-0.000139706
-0.000716856
-0.000142
-0.000701851
-0.000144243
-0.000686627
-0.000146433
-0.00067119
-0.000148571
-0.000655544
-0.000150657
-0.000639696
-0.00015269
-0.00062365
-0.000154671
-0.000607411
-0.000156599
-0.000590986
-0.000158473
-0.00057438
-0.000160295
-0.000557598
-0.000162063
-0.000540646
-0.000163777
-0.000523529
-0.000165436
-0.000506253
-0.000167041
-0.000488823
-0.00016859
-0.000471244
-0.000170084
-0.000453522
-0.000171522
-0.000435662
-0.000172904
-0.000417669
-0.000174231
-0.00039955
-0.000175501
-0.000381309
-0.000176715
-0.000362954
-0.000177874
-0.000344488
-0.000178976
-0.000325919
-0.000180022
-0.000307252
-0.000181012
-0.000288492
-0.000181945
-0.000269647
-0.000182821
-0.00025072
-0.00018364
-0.000231719
-0.000184401
-0.000212648
-0.000185106
-0.000193515
-0.000185752
-0.000174324
-0.000186341
-0.000155081
-0.000186872
-0.000135793
-0.000187345
-0.000116464
-0.000187759
-9.7102e-05
-0.000188116
-7.77116e-05
-0.000188413
-5.82988e-05
-0.000188651
-3.88695e-05
-0.000188831
-1.94293e-05
-0.00018895
-0.00018901
1.63943e-08
-0.00106838
0.000121497
0.0010624
-0.00107411
0.000112025
-0.00107954
0.00010291
-0.00108463
9.41626e-05
-0.00108936
8.57714e-05
-0.0010937
7.77195e-05
-0.00109762
6.99875e-05
-0.00110112
6.25548e-05
-0.00110419
5.54003e-05
-0.0011068
4.85035e-05
-0.00110897
4.18448e-05
-0.00111069
3.54057e-05
-0.00111194
2.91691e-05
-0.00111275
2.31192e-05
-0.0011131
1.72417e-05
-0.001113
1.15235e-05
-0.00111246
5.95302e-06
-0.00111147
5.196e-07
-0.00111004
-4.78605e-06
-0.00110818
-9.97253e-06
-0.0011059
-1.50471e-05
-0.00110318
-2.00165e-05
-0.00110005
-2.48866e-05
-0.00109651
-2.96626e-05
-0.00109255
-3.43493e-05
-0.00108819
-3.89506e-05
-0.00108343
-4.34702e-05
-0.00107828
-4.79114e-05
-0.00107274
-5.2277e-05
-0.00106682
-5.65698e-05
-0.00106051
-6.07919e-05
-0.00105383
-6.49455e-05
-0.00104678
-6.90324e-05
-0.00103937
-7.30542e-05
-0.0010316
-7.70126e-05
-0.00102347
-8.09085e-05
-0.001015
-8.47432e-05
-0.00100617
-8.85178e-05
-0.000997012
-9.2233e-05
-0.000987515
-9.58895e-05
-0.000977688
-9.94881e-05
-0.000967535
-0.000103029
-0.000957062
-0.000106513
-0.000946273
-0.00010994
-0.000935174
-0.000113311
-0.000923769
-0.000116626
-0.000912064