/*--------------------------------*- C++ -*----------------------------------*\
  =========                 |
  \\      /  F ield         | OpenFOAM: The Open Source CFD Toolbox
   \\    /   O peration     | Website:  https://openfoam.org
    \\  /    A nd           | Version:  9
     \\/     M anipulation  |
\*---------------------------------------------------------------------------*/
FoamFile
{
    format      ascii;
    class       volScalarField;
    location    "0.008099";
    object      alphat;
}
// * * * * * * * * * * * * * * * * * * * * * * * * * * * * * * * * * * * * * //

dimensions      [1 -1 -1 0 0 0 0];

internalField   nonuniform List<scalar> 
5373
(
1.57497e-06
1.35584e-06
7.92556e-05
7.43493e-05
0.000112876
0.000152696
1.2719e-06
2.09513e-06
2.73706e-06
2.96167e-06
3.65622e-06
4.07068e-06
3.97606e-06
3.50957e-06
2.99254e-06
2.36356e-06
1.6874e-06
1.10532e-06
7.07499e-07
4.79669e-07
3.5255e-07
2.69981e-07
2.06997e-07
1.74172e-07
1.48023e-07
1.17024e-07
7.23558e-05
8.8254e-05
9.68465e-05
0.000106813
0.000115102
0.000120661
0.000122393
0.000120884
0.000116271
0.000107631
9.32723e-05
7.71372e-05
6.18129e-05
4.76236e-05
3.52007e-05
2.49769e-05
1.68322e-05
1.09671e-05
6.9329e-06
4.13442e-06
0.000121844
0.00012837
0.000139661
0.000147631
0.000154634
0.000159938
0.000163077
0.000164282
0.000163841
0.00016138
0.000155856
0.00014609
0.000131571
0.000115674
9.8704e-05
8.11533e-05
6.37047e-05
4.6872e-05
3.18913e-05
1.9642e-05
0.000155537
0.000160418
0.000164764
0.000170673
0.000175016
0.000178463
0.000180714
0.000181809
0.000181968
0.000180965
0.000178736
0.000174697
0.000167127
0.000154851
0.000140508
0.000124383
0.000106399
8.64227e-05
6.56808e-05
4.59627e-05
0.000177558
0.000180061
0.000182904
0.000185001
0.000187223
0.00018847
0.000189028
0.000188983
0.000188385
0.000187262
0.000185662
0.000183453
0.000179759
0.000172711
0.000161861
0.000149153
0.000134041
0.00011592
9.52251e-05
7.3116e-05
0.000194202
0.000193606
0.000194073
0.000194097
0.00019357
0.00019283
0.000191399
0.00018976
0.000187923
0.000186065
0.000184182
0.000182172
0.00017952
0.000175538
0.000168697
0.00015999
0.00014858
0.000134112
0.000115961
9.49034e-05
0.000202188
0.000199821
0.000197528
0.000194644
0.000191639
0.000188641
0.000185557
0.000182495
0.000179641
0.000177111
0.000174926
0.000172772
0.000170031
0.000165602
0.000159881
0.000152588
0.000142545
0.00012831
0.000110373
0.000199541
0.000194999
0.00019069
0.000185971
0.000181268
0.000176524
0.000171932
0.00016782
0.000164318
0.000161351
0.000159026
0.000157278
0.00015543
0.000152895
0.00014906
0.000142912
0.000133304
0.000119591
0.000188225
0.000181887
0.000175523
0.000169051
0.000162436
0.000156363
0.000151289
0.00014721
0.000144114
0.000142105
0.000141046
0.000140726
0.000140632
0.000140003
0.000137638
0.00013225
0.000123219
0.000176627
0.000168051
0.000160315
0.000153297
0.0001469
0.000141247
0.000136423
0.00013242
0.000129161
0.000126838
0.000125688
0.000125645
0.000126325
0.000127425
0.000128093
0.000126537
0.000122585
0.000153715
0.000146227
0.0001397
0.000134078
0.000129322
0.000125183
0.000121428
0.000118063
0.000115331
0.000113575
0.000112685
0.000112882
0.00011423
0.000116082
0.000117205
0.00011762
0.000141192
0.000135149
0.000130035
0.000125686
0.000122137
0.000118952
0.000115778
0.000112386
0.000108889
0.000105567
0.000103089
0.000101887
0.000102184
0.000103588
0.000105691
0.000108013
0.00012846
0.000125369
0.000122549
0.000119848
0.000117205
0.000114436
0.000111065
0.000106934
0.000101631
9.69277e-05
9.34869e-05
9.14743e-05
9.13612e-05
9.31822e-05
9.61742e-05
0.000121416
0.000118911
0.000116256
0.000113471
0.000110504
0.000107221
0.000103442
9.86858e-05
9.29778e-05
8.55687e-05
8.07724e-05
7.8873e-05
7.98694e-05
8.26708e-05
0.00011505
0.00011244
0.000109786
0.000107012
0.000103973
0.000100591
9.67091e-05
9.12809e-05
8.31316e-05
7.36496e-05
6.75509e-05
6.48421e-05
6.5306e-05
6.75415e-05
0.000106566
0.000103924
0.000101102
9.80551e-05
9.42575e-05
8.96085e-05
8.3956e-05
7.66515e-05
6.61357e-05
5.73049e-05
5.18164e-05
4.93519e-05
4.92453e-05
5.04858e-05
8.98754e-05
8.59087e-05
8.16351e-05
7.6894e-05
7.14816e-05
6.52834e-05
5.81864e-05
4.97584e-05
4.25427e-05
3.75354e-05
3.4329e-05
3.24768e-05
3.22613e-05
6.72551e-05
6.39583e-05
6.07815e-05
5.77292e-05
5.43191e-05
5.06389e-05
4.65205e-05
4.15755e-05
3.60646e-05
2.76469e-05
2.03102e-05
1.66183e-05
1.51138e-05
4.31503e-05
4.01533e-05
3.80349e-05
3.48004e-05
3.14601e-05
2.79254e-05
2.39913e-05
1.95714e-05
1.32663e-05
6.9696e-06
4.44314e-06
3.37797e-06
3.25767e-07
2.92632e-07
5.85831e-07
6.72773e-07
6.77761e-07
6.41578e-07
5.88551e-07
5.19775e-07
1.59978e-07
1.05728e-07
1.24433e-07
8.003e-08
1.09888e-07
1.05678e-07
1.03662e-07
1.02097e-07
1.01724e-07
1.0696e-07
1.1451e-07
1.22944e-07
1.3193e-07
1.41671e-07
1.52263e-07
1.64393e-07
1.75464e-07
1.86942e-07
2.01271e-07
2.26053e-07
2.67227e-07
3.23894e-07
3.99016e-07
4.52109e-07
3.67355e-06
3.15618e-06
2.65297e-06
2.37345e-06
2.24811e-06
2.15169e-06
2.04614e-06
1.92515e-06
1.77523e-06
1.60994e-06
1.4463e-06
1.29511e-06
1.16103e-06
1.05086e-06
9.77643e-07
9.70913e-07
1.07314e-06
1.24814e-06
1.49834e-06
1.90972e-06
1.67612e-05
1.42293e-05
1.22032e-05
1.05505e-05
9.23098e-06
7.97325e-06
6.79084e-06
5.72077e-06
4.76207e-06
3.913e-06
3.17134e-06
2.53473e-06
1.99639e-06
1.54969e-06
1.18264e-06
9.36307e-07
9.66532e-07
9.92426e-07
1.07426e-06
1.19552e-06
4.11169e-05
3.62039e-05
3.16487e-05
2.74808e-05
2.37935e-05
2.06353e-05
1.79753e-05
1.55128e-05
1.31703e-05
1.099e-05
8.99984e-06
7.22021e-06
5.65807e-06
4.32014e-06
3.19067e-06
2.30116e-06
1.64712e-06
1.22045e-06
8.95308e-07
8.94109e-07
6.75369e-05
6.16208e-05
5.56544e-05
4.97326e-05
4.40198e-05
3.8726e-05
3.39845e-05
2.98101e-05
2.60949e-05
2.24488e-05
1.8943e-05
1.56405e-05
1.25865e-05
9.83564e-06
7.39836e-06
5.36156e-06
3.64784e-06
2.4796e-06
1.49957e-06
1.38688e-06
8.89802e-05
8.30308e-05
7.69914e-05
7.06616e-05
6.4177e-05
5.77513e-05
5.15904e-05
4.5856e-05
4.06419e-05
3.58837e-05
3.1116e-05
2.64222e-05
2.18748e-05
1.75735e-05
1.35762e-05
1.006e-05
6.95488e-06
4.69772e-06
2.74036e-06
2.43106e-06
0.000104676
9.88758e-05
9.29822e-05
8.69803e-05
8.06222e-05
7.40425e-05
6.74066e-05
6.08879e-05
5.46516e-05
4.8807e-05
4.32361e-05
3.75533e-05
3.18313e-05
2.61886e-05
2.0724e-05
1.57002e-05
1.11042e-05
7.59506e-06
4.4995e-06
3.95272e-06
0.000114386
0.000109059
0.000103554
9.79235e-05
9.21199e-05
8.59462e-05
7.94958e-05
7.28901e-05
6.62741e-05
5.97976e-05
5.35475e-05
4.73024e-05
4.08083e-05
3.41833e-05
2.75549e-05
2.12429e-05
1.53234e-05
1.06235e-05
6.50539e-06
5.8364e-06
0.000118541
0.000113866
0.000108996
0.000103938
9.8672e-05
9.31381e-05
8.72041e-05
8.0931e-05
7.4405e-05
6.7751e-05
6.11106e-05
5.45033e-05
4.75644e-05
4.03073e-05
3.28806e-05
2.56338e-05
1.87475e-05
1.31164e-05
8.4276e-06
7.02913e-06
0.00011855
0.000114425
0.000110092
0.000105512
0.000100733
9.57451e-05
9.04104e-05
8.46388e-05
7.84341e-05
7.1895e-05
6.51808e-05
5.83114e-05
5.11701e-05
4.35791e-05
3.57222e-05
2.79664e-05
2.05906e-05
1.44402e-05
9.35356e-06
6.8435e-06
0.000113954
0.000110266
0.000106502
0.000102518
9.82934e-05
9.38122e-05
8.90312e-05
8.37593e-05
7.80344e-05
7.18703e-05
6.52815e-05
5.83076e-05
5.09082e-05
4.31703e-05
3.52805e-05
2.75317e-05
2.02475e-05
1.41315e-05
8.96937e-06
6.13506e-06
0.000104959
0.000101766
9.84234e-05
9.49048e-05
9.11139e-05
8.70076e-05
8.25401e-05
7.76422e-05
7.22787e-05
6.6438e-05
6.0129e-05
5.33982e-05
4.6305e-05
3.89618e-05
3.15641e-05
2.4392e-05
1.7789e-05
1.22839e-05
7.70088e-06
4.96138e-06
9.31451e-05
9.00245e-05
8.68088e-05
8.34558e-05
7.98731e-05
7.60115e-05
7.18204e-05
6.72533e-05
6.22799e-05
5.68885e-05
5.10887e-05
4.49365e-05
3.85271e-05
3.1999e-05
2.55554e-05
1.94444e-05
1.39797e-05
9.5096e-06
5.87135e-06
3.61016e-06
7.94936e-05
7.62744e-05
7.30206e-05
6.96349e-05
6.60791e-05
6.23176e-05
5.83118e-05
5.40323e-05
4.9472e-05
4.4632e-05
3.95308e-05
3.42372e-05
2.88554e-05
2.35233e-05
1.84196e-05
1.3732e-05
9.69306e-06
6.48403e-06
3.93728e-06
2.3716e-06
6.41742e-05
6.0843e-05
5.74926e-05
5.40702e-05
5.05489e-05
4.69177e-05
4.3161e-05
3.92719e-05
3.52721e-05
3.11845e-05
2.70314e-05
2.28862e-05
1.8837e-05
1.49877e-05
1.14558e-05
8.34494e-06
5.78505e-06
3.82385e-06
2.3035e-06
1.43317e-06
4.71e-05
4.38428e-05
4.06078e-05
3.7379e-05
3.41336e-05
3.09024e-05
2.76903e-05
2.45072e-05
2.13911e-05
1.837e-05
1.5459e-05
1.27067e-05
1.01613e-05
7.86811e-06
5.86999e-06
4.19564e-06
2.89967e-06
1.9406e-06
1.20993e-06
8.52003e-07
2.91746e-05
2.63117e-05
2.35957e-05
2.09923e-05
1.85037e-05
1.61543e-05
1.3949e-05
1.18902e-05
1.00027e-05
8.29127e-06
6.75202e-06
5.38888e-06
4.2064e-06
3.20198e-06
2.37165e-06
1.71447e-06
1.27786e-06
9.40759e-07
7.01451e-07
5.99236e-07
1.29484e-05
1.10543e-05
9.37259e-06
7.89777e-06
6.61635e-06
5.51949e-06
4.58306e-06
3.77999e-06
3.10087e-06
2.53135e-06
2.05501e-06
1.65895e-06
1.33337e-06
1.06604e-06
8.52066e-07
7.09014e-07
7.91217e-07
7.29491e-07
8.3585e-07
6.67713e-07
2.6801e-06
2.10331e-06
1.66121e-06
1.32089e-06
1.08744e-06
9.66048e-07
8.96996e-07
8.52771e-07
8.20269e-07
7.92605e-07
7.68625e-07
7.49098e-07
7.37565e-07
7.379e-07
7.53501e-07
8.10978e-07
9.42428e-07
8.6158e-07
1.22937e-06
1.50569e-06
1.02402e-07
1.07377e-07
1.04078e-07
9.71017e-08
8.93564e-08
8.32297e-08
7.9782e-08
7.94077e-08
8.19862e-08
8.7881e-08
9.74544e-08
1.0958e-07
1.25402e-07
1.47111e-07
1.75528e-07
2.16631e-07
2.61158e-07
3.42238e-07
3.937e-07
5.41571e-07
0.0163499
0.0163498
0.0163497
0.0163497
0.0163496
0.0163495
0.0163495
0.0163494
0.0163493
0.0163383
0.0163383
0.0163383
0.0163383
0.0163383
0.0163383
0.0163384
0.0163384
0.0163383
0.0163174
0.0163172
0.0163171
0.0163169
0.0163168
0.0163166
0.0163164
0.0163163
0.0163162
0.0162977
0.0162978
0.0162979
0.0162979
0.016298
0.0162981
0.0162982
0.0162983
0.0162985
0.0162737
0.0162738
0.016274
0.0162741
0.0162742
0.0162744
0.0162745
0.0162747
0.0162748
0.0162423
0.0162424
0.0162425
0.0162426
0.0162428
0.0162429
0.016243
0.0162431
0.0162432
0.0161781
0.0161776
0.0161771
0.0161766
0.0161761
0.0161756
0.0161751
0.0161746
0.0161742
0.0161358
0.0161351
0.0161344
0.0161337
0.0161331
0.0161324
0.0161317
0.016131
0.0161304
0.0160849
0.0160839
0.016083
0.0160821
0.0160811
0.0160802
0.0160793
0.0160785
0.0160232
0.0160219
0.0160206
0.0160193
0.0160181
0.0160168
0.0160156
0.0160145
0.0159473
0.0159455
0.0159438
0.015942
0.0159402
0.0159385
0.0159368
0.0159354
0.0158527
0.0158503
0.0158479
0.0158455
0.015843
0.0158407
0.0158384
0.0158364
0.0157337
0.0157303
0.015727
0.0157236
0.0157202
0.0157169
0.0157137
0.015711
0.0155809
0.0155761
0.0155713
0.0155666
0.0155619
0.0155573
0.0155529
0.0155491
0.0153789
0.0153719
0.015365
0.015358
0.0153511
0.0153443
0.0153378
0.0153325
0.015099
0.0150884
0.0150779
0.0150674
0.0150569
0.0150467
0.015037
0.0150293
0.0146897
0.0146736
0.0146576
0.0146418
0.0146262
0.0146111
0.014597
0.0145861
0.0140896
0.0140691
0.0140493
0.0140302
0.014012
0.0139947
0.0139791
0.0139674
0.0133718
0.0133648
0.0133595
0.0133557
0.0133535
0.0133527
0.0133534
0.0133555
0.0129312
0.0129699
0.0130127
0.0130597
0.0131129
0.0131704
0.0132284
0.0132794
0.0140143
0.0142042
0.0143967
0.0145912
0.014786
0.0149765
0.015156
0.0153039
0.0179881
0.0183913
0.0187965
0.019201
0.0195997
0.0199842
0.0203355
0.0206111
0.0248525
0.0253856
0.0258955
0.0263783
0.0268265
0.027227
0.0275559
0.0277639
0.0308965
0.0313546
0.0317807
0.0321678
0.0325065
0.0327832
0.0329766
0.0330602
0.0343073
0.0345997
0.0348499
0.0350587
0.0352249
0.0353448
0.0354125
0.0354216
0.0352858
0.0354403
0.0355627
0.0356529
0.0357105
0.0357353
0.0357268
0.0356854
0.0346124
0.0346645
0.0346904
0.034691
0.0346676
0.0346221
0.0345569
0.0344753
0.032818
0.0327804
0.032721
0.0326411
0.0325434
0.0324313
0.0323097
0.0321851
0.0302502
0.0301191
0.0299682
0.0297994
0.0296152
0.0294196
0.0292188
0.0290242
0.0271428
0.0268983
0.0266352
0.0263557
0.0260636
0.0257578
0.0254355
0.0251242
0.0236887
0.0233004
0.022902
0.0225037
0.0221545
0.021876
0.0216386
0.0214431
0.0201927
0.0197131
0.0193351
0.0190224
0.0187615
0.0185523
0.0183928
0.0182967
0.0171636
0.0166843
0.0163398
0.0160762
0.0158706
0.0157195
0.0156324
0.0156248
0.0148355
0.0142777
0.0138988
0.0136324
0.0134413
0.0133186
0.0132775
0.0133294
0.0131815
0.0126023
0.0120788
0.0117195
0.0114707
0.0113209
0.0112654
0.0113281
0.0119279
0.0114213
0.0109322
0.0104783
0.0100344
0.009769
0.00961372
0.00960056
0.010901
0.010479
0.0100534
0.00962873
0.00920215
0.00881401
0.0084096
0.00822616
0.00999381
0.00965789
0.00930336
0.00892896
0.00853492
0.0081339
0.00771078
0.00732751
0.00912671
0.0088757
0.00859577
0.00828042
0.00792842
0.00754318
0.00711915
0.00668323
0.00825864
0.00807996
0.00786792
0.00761561
0.00731368
0.00696085
0.00655224
0.00609466
0.00736764
0.00725387
0.00710366
0.00690687
0.00665285
0.00633771
0.00595714
0.00551039
0.00643973
0.00638258
0.00628831
0.00614505
0.00594085
0.00567031
0.00532893
0.00491729
0.00547202
0.00546375
0.0054196
0.00532687
0.00517279
0.0049515
0.00466066
0.00430401
0.0044653
0.00449936
0.00450085
0.00445655
0.00435322
0.00418546
0.0039553
0.00367338
0.00341865
0.00348763
0.00353151
0.00353607
0.00348662
0.00337821
0.00322029
0.00303526
0.00234539
0.00242479
0.00249873
0.00255173
0.00256274
0.00252228
0.00245042
0.00238982
0.00146294
0.00150963
0.00154972
0.00157387
0.00157393
0.00155917
0.00158458
0.00171887
0.000798187
0.00082299
0.000843928
0.000857722
0.000863806
0.000871618
0.000909217
0.00101829
0.000333525
0.000350148
0.000375558
0.0004262
0.000489095
0.000539167
0.000588933
0.00065463
1.68852e-05
1.57305e-05
1.60469e-05
2.02164e-05
3.719e-05
9.35586e-05
0.000162622
0.000250002
0.0163492
0.0163686
0.0163546
0.0162801
0.0162458
0.0162156
0.016175
0.0161349
0.0160957
0.0160557
0.0160148
0.015973
0.0159306
0.0158879
0.0158455
0.0158035
0.0157626
0.0157233
0.0156863
0.0156524
0.0156221
0.0155957
0.0155736
0.0155556
0.0155416
0.0155313
0.015524
0.0155196
0.0155174
0.0155172
0.0155186
0.0155212
0.0155248
0.0155291
0.015534
0.0155393
0.0155447
0.0155502
0.0155555
0.0155608
0.0155657
0.0155704
0.0155748
0.0155788
0.0155826
0.0155859
0.015589
0.0155917
0.0155942
0.0155963
0.0163472
0.0163657
0.0163541
0.0162736
0.0162452
0.0162148
0.0161696
0.0161255
0.0160819
0.016037
0.0159906
0.0159426
0.0158932
0.0158428
0.0157919
0.0157408
0.0156902
0.0156414
0.0155957
0.0155546
0.0155193
0.0154907
0.0154692
0.0154546
0.0154466
0.0154445
0.0154473
0.0154542
0.0154643
0.0154769
0.0154914
0.0155072
0.0155238
0.0155408
0.0155579
0.0155748
0.0155914
0.0156073
0.0156226
0.0156369
0.0156504
0.0156628
0.0156742
0.0156847
0.0156941
0.0157027
0.0157103
0.0157172
0.0157233
0.0157287
0.016347
0.0163651
0.0163507
0.0162702
0.0162472
0.0162159
0.0161655
0.0161156
0.0160675
0.0160179
0.0159661
0.0159118
0.0158552
0.0157965
0.015736
0.0156743
0.0156125
0.0155524
0.0154967
0.0154484
0.01541
0.0153832
0.0153688
0.015367
0.0153768
0.0153964
0.0154238
0.0154573
0.0154951
0.0155359
0.0155784
0.0156218
0.0156652
0.015708
0.0157496
0.0157897
0.015828
0.0158643
0.0158983
0.0159298
0.015959
0.0159857
0.01601
0.0160321
0.0160519
0.0160697
0.0160856
0.0160997
0.0161122
0.0161233
0.0163474
0.0163659
0.0163482
0.01627
0.0162504
0.0162178
0.0161621
0.0161062
0.0160542
0.0160003
0.0159432
0.0158828
0.0158188
0.0157515
0.0156813
0.0156086
0.0155352
0.0154639
0.0153991
0.015346
0.0153096
0.0152935
0.0152997
0.0153278
0.0153754
0.0154391
0.0155152
0.0156004
0.0156918
0.0157862
0.0158812
0.0159751
0.0160666
0.0161546
0.0162385
0.0163177
0.016392
0.016461
0.0165247
0.0165832
0.0166366
0.016685
0.0167287
0.016768
0.0168031
0.0168345
0.0168623
0.0168869
0.0169087
0.0169278
0.0163468
0.0163694
0.0163449
0.0162706
0.0162543
0.0162204
0.0161594
0.0160983
0.0160427
0.0159848
0.0159228
0.0158564
0.0157853
0.0157095
0.0156293
0.015545
0.0154587
0.0153749
0.0153007
0.0152456
0.015219
0.0152281
0.015276
0.0153617
0.015481
0.0156268
0.0157912
0.0159671
0.0161483
0.0163299
0.016508
0.0166799
0.0168436
0.0169978
0.017142
0.0172756
0.0173987
0.0175114
0.017614
0.0177069
0.0177908
0.017866
0.0179333
0.0179933
0.0180466
0.0180938
0.0181355
0.0181723
0.0182046
0.018233
0.0163457
0.0163694
0.0163416
0.0162719
0.0162586
0.0162234
0.0161574
0.0160928
0.0160336
0.015972
0.0159059
0.0158348
0.0157577
0.0156739
0.015583
0.0154856
0.0153844
0.0152861
0.0152026
0.01515
0.0151455
0.0152018
0.015324
0.0155092
0.0157458
0.0160205
0.0163194
0.0166296
0.0169404
0.0172437
0.0175338
0.017807
0.0180614
0.0182959
0.0185107
0.018706
0.0188827
0.019042
0.0191849
0.0193127
0.0194265
0.0195277
0.0196173
0.0196966
0.0197665
0.019828
0.019882
0.0199294
0.019971
0.0200073
0.0163445
0.0163686
0.0163383
0.0162737
0.0162631
0.0162268
0.0161561
0.0160895
0.0160275
0.0159635
0.0158945
0.0158187
0.0157348
0.015642
0.0155396
0.015428
0.0153104
0.0151965
0.0151045
0.0150611
0.0150957
0.0152301
0.0154691
0.0158023
0.0162099
0.0166668
0.017148
0.017632
0.0181025
0.0185484
0.0189633
0.0193439
0.0196895
0.020001
0.02028
0.0205288
0.02075
0.0209459
0.0211191
0.021272
0.0214066
0.021525
0.0216289
0.0217201
0.0217999
0.0218698
0.0219309
0.0219842
0.0220308
0.0220714
0.0163434
0.0163673
0.0163351
0.0162758
0.0162677
0.0162304
0.0161553
0.0160877
0.0160245
0.0159587
0.0158864
0.0158055
0.0157148
0.0156131
0.0154991
0.0153727
0.0152376
0.0151068
0.0150073
0.0149815
0.0150762
0.0153244
0.0157272
0.0162645
0.0168978
0.0175828
0.0182791
0.0189554
0.019591
0.0201743
0.0207007
0.02117
0.021585
0.0219499
0.0222695
0.0225487
0.0227923
0.0230045
0.0231893
0.0233501
0.0234901
0.0236118
0.0237178
0.02381
0.0238901
0.0239599
0.0240206
0.0240734
0.0241194
0.0241594
0.0163426
0.0163656
0.0163321
0.016278
0.0162722
0.0162341
0.016155
0.016087
0.0160233
0.0159558
0.0158804
0.015795
0.0156979
0.0155874
0.0154619
0.0153204
0.0151668
0.0150179
0.0149114
0.0149118
0.0150915
0.0154904
0.0161083
0.0169022
0.0178036
0.0187413
0.0196579
0.0205148
0.0212911
0.0219792
0.0225799
0.0230994
0.0235458
0.0239279
0.0242545
0.0245335
0.024772
0.0249759
0.0251505
0.0253002
0.0254287
0.0255393
0.0256345
0.0257166
0.0257875
0.0258488
0.0259019
0.0259479
0.0259878
0.0260225
0.0163422
0.0163637
0.0163292
0.0162804
0.0162766
0.016238
0.0161551
0.0160873
0.0160235
0.0159546
0.0158765
0.0157868
0.0156838
0.0155652
0.0154284
0.0152717
0.0150988
0.0149305
0.014818
0.0148505
0.0151368
0.0157267
0.0166074
0.017698
0.0188877
0.0200747
0.0211876
0.0221863
0.0230563
0.023799
0.0244247
0.0249475
0.0253823
0.0257433
0.0260429
0.0262919
0.0264992
0.0266724
0.0268175
0.0269394
0.0270422
0.0271293
0.0272032
0.0272661
0.0273199
0.0273661
0.0274057
0.0274399
0.0274694
0.027495
0.0163423
0.0163617
0.0163266
0.0162828
0.0162804
0.0162417
0.0161555
0.0160884
0.0160246
0.0159547
0.0158743
0.015781
0.0156726
0.0155463
0.0153988
0.015227
0.0150343
0.0148453
0.0147261
0.0147978
0.0152108
0.0160268
0.0172071
0.0186154
0.0200889
0.0214967
0.0227601
0.0238464
0.0247535
0.0254962
0.0260966
0.026578
0.0269623
0.0272684
0.0275124
0.0277071
0.0278629
0.0279881
0.0280892
0.0281711
0.028238
0.0282929
0.0283382
0.0283758
0.0284073
0.0284338
0.0284562
0.0284753
0.0284918
0.0285059
0.0163436
0.0163596
0.0163243
0.0162851
0.0162825
0.0162452
0.0161561
0.0160901
0.0160266
0.015956
0.0158737
0.0157773
0.0156641
0.0155308
0.0153732
0.0151867
0.0149739
0.014763
0.0146362
0.0147512
0.0153069
0.0163764
0.0178794
0.0196072
0.0213404
0.0229246
0.0242836
0.0253995
0.0262884
0.0269812
0.0275127
0.0279156
0.0282184
0.0284442
0.0286116
0.028735
0.0288255
0.0288916
0.0289397
0.0289745
0.0289995
0.0290175
0.0290303
0.0290395
0.029046
0.0290507
0.0290542
0.0290568
0.0290588
0.0290604
0.0163449
0.0163575
0.0163223
0.0162874
0.0162836
0.0162485
0.0161569
0.0160922
0.0160292
0.0159581
0.0158744
0.0157753
0.015658
0.0155185
0.0153515
0.015151
0.0149181
0.0146843
0.0145483
0.014709
0.0154165
0.0167573
0.0185929
0.0206272
0.0225841
0.0242947
0.0256945
0.0267871
0.0276099
0.0282117
0.0286402
0.028937
0.0291363
0.0292648
0.0293427
0.0293851
0.0294031
0.0294023
0.0293933
0.0293778
0.0293587
0.0293382
0.0293177
0.0292981
0.0292798
0.029263
0.0292479
0.0292345
0.0292226
0.0292123
0.016346
0.0163555
0.0163205
0.0162895
0.016284
0.0162516
0.0161578
0.0160946
0.0160322
0.0159609
0.0158761
0.015775
0.0156541
0.0155091
0.0153336
0.0151199
0.0148673
0.0146097
0.0144623
0.0146697
0.0155295
0.0171515
0.0193183
0.0216367
0.0237775
0.0255665
0.0269586
0.0279836
0.0287023
0.0291817
0.0294821
0.0296537
0.0297351
0.0297551
0.0297351
0.0296907
0.0296332
0.02957
0.0295053
0.0294423
0.0293826
0.0293273
0.029277
0.0292318
0.0291913
0.0291554
0.0291238
0.0290961
0.029072
0.0290511
0.0163468
0.0163535
0.0163191
0.0162916
0.0162842
0.0162529
0.0161587
0.0160972
0.0160355
0.0159641
0.0158785
0.0157759
0.0156522
0.0155024
0.0153193
0.0150933
0.0148216
0.0145397
0.0143783
0.0146241
0.0156355
0.0175426
0.0200323
0.0226082
0.0248948
0.0267205
0.0280656
0.0289887
0.0295752
0.0299102
0.0300665
0.0301008
0.0300565
0.0299662
0.0298518
0.0297273
0.0296016
0.0294806
0.0293673
0.0292636
0.0291701
0.0290865
0.0290125
0.0289474
0.0288905
0.028841
0.0287982
0.0287612
0.0287293
0.0287018
0.0163471
0.0163516
0.016318
0.0162934
0.0162841
0.0162532
0.0161597
0.0160999
0.0160389
0.0159676
0.0158816
0.0157778
0.0156518
0.0154981
0.0153083
0.015071
0.0147811
0.0144746
0.0142973
0.0145725
0.0157289
0.0179207
0.0207198
0.0235265
0.0259253
0.0277541
0.0290217
0.0298175
0.0302521
0.0304286
0.0304227
0.0303151
0.0301476
0.0299515
0.0297472
0.0295479
0.0293612
0.0291907
0.0290381
0.0289051
0.0287876
0.0286837
0.028592
0.0285113
0.0284403
0.0283781
0.0283236
0.0282761
0.0282348
0.0281988
0.0163472
0.0163498
0.0163172
0.0162951
0.0162838
0.0162531
0.0161607
0.0161025
0.0160422
0.0159712
0.015885
0.0157804
0.0156527
0.0154958
0.0153001
0.0150527
0.0147454
0.0144146
0.0142209
0.0145164
0.0158153
0.0182812
0.0213723
0.0243848
0.0268683
0.0286736
0.0298408
0.0304909
0.0307605
0.0307562
0.0305984
0.0303514
0.0300634
0.0297668
0.0294815
0.0292184
0.0289889
0.0287831
0.0285983
0.0284326
0.0282843
0.028152
0.0280343
0.0279299
0.0278377
0.0277564
0.027685
0.0276224
0.0275677
0.0275199
0.0163473
0.0163481
0.0163165
0.0162967
0.0162834
0.0162527
0.0161617
0.0161051
0.0160455
0.0159748
0.0158887
0.0157836
0.0156546
0.0154951
0.0152945
0.015038
0.0147146
0.0143597
0.0141498
0.0144553
0.0158878
0.0186176
0.0219845
0.0251816
0.0277278
0.0294898
0.0305395
0.0310292
0.0311201
0.0309496
0.0306345
0.0302511
0.0298518
0.0294697
0.0291253
0.0288141
0.0285313
0.0282742
0.028041
0.0278302
0.0276405
0.0274706
0.0273188
0.0271839
0.0270644
0.0269589
0.0268659
0.0267842
0.0267127
0.0266501
0.0163473
0.0163466
0.016316
0.0162981
0.016283
0.0162523
0.0161628
0.0161076
0.0160486
0.0159784
0.0158924
0.0157872
0.0156573
0.0154957
0.0152911
0.0150266
0.0146882
0.0143098
0.014086
0.014398
0.0159459
0.018928
0.0225559
0.0259198
0.0285118
0.0302168
0.0311392
0.0314632
0.0313672
0.0310218
0.0305479
0.0300285
0.0295193
0.0290764
0.0286699
0.0282947
0.0279487
0.027631
0.0273408
0.0270772
0.0268393
0.0266255
0.0264343
0.0262642
0.0261132
0.0259798
0.0258621
0.0257587
0.0256679
0.0255884
0.0163473
0.0163452
0.0163156
0.0162994
0.0162824
0.0162518
0.0161638
0.0161099
0.0160516
0.0159818
0.0158961
0.0157909
0.0156604
0.0154973
0.0152894
0.0150179
0.0146659
0.0142649
0.0140294
0.0143305
0.0159864
0.0192126
0.0230876
0.0266024
0.0292268
0.030865
0.0316528
0.0318047
0.0315291
0.0310168
0.0303985
0.0297676
0.0291903
0.0286605
0.0281682
0.0277102
0.0272859
0.0268951
0.0265376
0.0262128
0.0259196
0.0256562
0.0254208
0.0252113
0.0250256
0.0248615
0.0247169
0.0245897
0.0244781
0.0243803
0.0163474
0.0163439
0.0163152
0.0163005
0.0162819
0.0162512
0.0161647
0.016112
0.0160544
0.015985
0.0158997
0.0157946
0.0156639
0.0154997
0.0152891
0.0150117
0.0146474
0.0142241
0.013966
0.0142579
0.016012
0.0194746
0.0235849
0.0272363
0.0298813
0.0314454
0.0320967
0.0320612
0.0316063
0.0309245
0.0301619
0.0294244
0.0287617
0.0281431
0.0275624
0.027019
0.0265136
0.0260479
0.0256221
0.0252355
0.0248867
0.0245736
0.0242941
0.0240455
0.0238252
0.0236306
0.0234591
0.0233084
0.0231762
0.0230603
0.0163474
0.0163427
0.016315
0.0163012
0.0162813
0.0162506
0.0161657
0.016114
0.0160569
0.015988
0.0159031
0.0157983
0.0156675
0.0155025
0.0152898
0.0150075
0.0146322
0.014188
0.0139051
0.0141837
0.0160244
0.0197152
0.0240497
0.0278252
0.0304808
0.0319644
0.0324742
0.0322674
0.0316262
0.0307673
0.0298546
0.0290364
0.0282794
0.0275656
0.0268945
0.0262666
0.0256829
0.0251446
0.0246522
0.0242051
0.0238018
0.0234402
0.0231175
0.0228308
0.022577
0.0223529
0.0221556
0.0219822
0.0218302
0.021697
0.0163475
0.0163417
0.0163148
0.0163014
0.0162808
0.01625
0.0161665
0.0161158
0.0160593
0.0159908
0.0159063
0.0158019
0.0156711
0.0155057
0.0152913
0.015005
0.01462
0.0141561
0.0138478
0.0141095
0.0160243
0.0199356
0.0244838
0.028372
0.0310303
0.0324303
0.0328002
0.0324222
0.0315977
0.0305579
0.0294828
0.028593
0.0277525
0.0269567
0.0262033
0.0254947
0.0248343
0.0242246
0.0236668
0.0231607
0.0227046
0.0222961
0.0219321
0.0216091
0.0213235
0.0210717
0.0208503
0.0206559
0.0204856
0.0203364
0.0163475
0.0163408
0.0163147
0.0163014
0.0162802
0.0162494
0.0161673
0.0161174
0.0160614
0.0159934
0.0159093
0.0158053
0.0156747
0.015509
0.0152934
0.0150037
0.0146102
0.0141284
0.0137944
0.0140363
0.0160137
0.0201365
0.0248887
0.0288791
0.0315328
0.0328477
0.0330806
0.0325443
0.0315666
0.0303937
0.0292312
0.0282224
0.0272789
0.0263847
0.0255381
0.0247424
0.0240017
0.0233191
0.0226959
0.0221316
0.0216243
0.021171
0.020768
0.0204111
0.0200963
0.0198192
0.019576
0.0193628
0.0191762
0.0190131
0.0163476
0.0163402
0.0163146
0.0163013
0.0162797
0.0162488
0.016168
0.0161189
0.0160633
0.0159957
0.0159121
0.0158084
0.0156781
0.0155124
0.0152959
0.0150034
0.0146026
0.0141043
0.013745
0.0139651
0.0159935
0.0203176
0.0252649
0.0293483
0.031991
0.033218
0.0333044
0.0326145
0.0314803
0.0301648
0.0289145
0.0278032
0.0267638
0.0257788
0.0248466
0.023971
0.023157
0.0224079
0.0217253
0.0211086
0.0205554
0.0200622
0.0196248
0.0192385
0.0188983
0.0185997
0.0183381
0.0181093
0.0179094
0.0177349
0.0163477
0.0163397
0.0163145
0.0163012
0.0162792
0.0162483
0.0161687
0.0161202
0.016065
0.0159978
0.0159146
0.0158114
0.0156814
0.0155157
0.0152985
0.0150038
0.0145967
0.0140835
0.0136998
0.0138967
0.0159653
0.0204778
0.0256116
0.0297801
0.0324075
0.0335501
0.0334903
0.0326337
0.0313156
0.0298151
0.0284798
0.0272957
0.0261849
0.025129
0.0241274
0.0231855
0.0223093
0.0215031
0.020769
0.0201065
0.0195132
0.0189851
0.0185177
0.0181057
0.0177438
0.0174267
0.0171495
0.0169075
0.0166965
0.0165125
0.0163478
0.0163393
0.0163145
0.016301
0.0162788
0.0162478
0.0161693
0.0161214
0.0160666
0.0159997
0.015917
0.0158141
0.0156844
0.0155189
0.0153013
0.0150048
0.0145922
0.0140658
0.0136589
0.0138319
0.0159307
0.0206156
0.025927
0.0301741
0.0327818
0.0338369
0.0336422
0.0326098
0.0310757
0.029328
0.0279495
0.0267262
0.0255715
0.0244664
0.0234123
0.0224172
0.0214895
0.0206349
0.0198564
0.019154
0.0185254
0.0179669
0.0174733
0.017039
0.0166583
0.0163255
0.0160351
0.0157822
0.015562
0.0153705
0.016348
0.016339
0.0163145
0.0163008
0.0162784
0.0162473
0.0161699
0.0161225
0.016068
0.0160014
0.015919
0.0158166
0.0156872
0.0155219
0.015304
0.015006
0.0145889
0.0140507
0.0136222
0.013771
0.0158913
0.0207304
0.0262102
0.0305304
0.0331167
0.034087
0.033768
0.0325809
0.0308679
0.0289425
0.0274794
0.026198
0.02499
0.0238367
0.0227367
0.0216949
0.0207213
0.0198231
0.0190043
0.0182654
0.0176047
0.0170181
0.0165004
0.0160457
0.015648
0.015301
0.0149989
0.0147363
0.0145083
0.0143103
0.0163482
0.0163388
0.0163145
0.0163007
0.016278
0.0162469
0.0161704
0.0161234
0.0160692
0.016003
0.0159209
0.0158188
0.0156898
0.0155247
0.0153067
0.0150075
0.0145866
0.0140379
0.0135894
0.0137141
0.0158489
0.0208223
0.0264612
0.0308499
0.0334145
0.0343052
0.0338719
0.032545
0.030671
0.0285762
0.0270095
0.0256806
0.0244303
0.0232333
0.0220904
0.0210102
0.0199981
0.0190623
0.0182078
0.0174362
0.0167459
0.0161334
0.0155933
0.0151197
0.0147059
0.0143457
0.0140327
0.0137612
0.013526
0.0133222
0.0163483
0.0163386
0.0163146
0.0163005
0.0162776
0.0162465
0.0161708
0.0161243
0.0160704
0.0160043
0.0159226
0.0158208
0.0156922
0.0155274
0.0153092
0.0150092
0.0145849
0.0140271
0.0135601
0.0136611
0.0158049
0.0208921
0.0266807
0.0311345
0.0336776
0.034494
0.0339543
0.0324946
0.0304625
0.0281863
0.0264815
0.0251339
0.0238652
0.0226438
0.0214705
0.0203562
0.0193133
0.0183467
0.0174618
0.0166611
0.015944
0.0153072
0.0147459
0.0142538
0.0138245
0.0134511
0.0131274
0.0128471
0.0126047
0.0123952
0.0163484
0.0163385
0.0163146
0.0163003
0.0162773
0.0162461
0.0161712
0.016125
0.0160713
0.0160056
0.0159241
0.0158227
0.0156943
0.0155298
0.0153116
0.0150109
0.0145838
0.0140179
0.0135341
0.0136126
0.0157608
0.0209416
0.0268705
0.0313864
0.0339087
0.0346561
0.0340183
0.0324334
0.0302449
0.0277759
0.0258967
0.0245666
0.0233009
0.0220705
0.0208789
0.01974
0.018668
0.0176743
0.0167631
0.0159361
0.0151939
0.0145338
0.0139514
0.0134408
0.0129954
0.0126085
0.0122733
0.0119836
0.0117335
0.0115177
0.0163485
0.0163384
0.0163148
0.0163001
0.016277
0.0162458
0.0161716
0.0161257
0.0160722
0.0160067
0.0159255
0.0158243
0.0156963
0.015532
0.0153139
0.0150125
0.0145831
0.0140102
0.013511
0.013569
0.0157176
0.0209727
0.0270328
0.0316082
0.0341116
0.034795
0.0340686
0.0323703
0.0300386
0.0273981
0.0253951
0.0240373
0.0227621
0.0215202
0.0203133
0.0191546
0.0180588
0.0170384
0.0161017
0.0152511
0.0144854
0.0138028
0.0131995
0.01267
0.0122079
0.0118064
0.0114589
0.0111587
0.0108999
0.010677
0.0163486
0.0163383
0.0163149
0.0163
0.0162768
0.0162455
0.0161719
0.0161263
0.016073
0.0160076
0.0159267
0.0158258
0.015698
0.015534
0.0153159
0.0150142
0.0145827
0.0140037
0.0134908
0.0135303
0.0156763
0.0209878
0.0271703
0.0318025
0.0342898
0.0349135
0.0341086
0.0323075
0.0298465
0.0270477
0.02493
0.0235144
0.0222243
0.020973
0.0197548
0.0185813
0.0174668
0.0164244
0.0154632
0.0145886
0.0138017
0.0130983
0.012475
0.0119268
0.0114478
0.0110312
0.0106705
0.010359
0.0100906
0.00985961
0.0163487
0.0163383
0.016315
0.0162998
0.0162765
0.0162452
0.0161722
0.0161268
0.0160737
0.0160085
0.0159278