/*--------------------------------*- C++ -*----------------------------------*\
  =========                 |
  \\      /  F ield         | OpenFOAM: The Open Source CFD Toolbox
   \\    /   O peration     | Website:  https://openfoam.org
    \\  /    A nd           | Version:  9
     \\/     M anipulation  |
\*---------------------------------------------------------------------------*/
FoamFile
{
    format      ascii;
    class       volScalarField;
    location    "0.008099";
    object      nuTilda;
}
// * * * * * * * * * * * * * * * * * * * * * * * * * * * * * * * * * * * * * //

dimensions      [0 2 -1 0 0 0 0];

internalField   nonuniform List<scalar> 
5373
(
1.687e-05
1.58082e-05
7.25118e-05
7.01558e-05
8.64417e-05
0.000102382
1.66058e-05
1.91683e-05
2.28679e-05
2.59162e-05
2.79814e-05
2.89134e-05
2.87624e-05
2.78393e-05
2.67024e-05
2.51116e-05
2.30179e-05
2.0653e-05
1.84364e-05
1.67085e-05
1.54591e-05
1.44538e-05
1.35167e-05
1.2939e-05
1.24193e-05
1.17068e-05
6.9847e-05
7.65254e-05
8.01484e-05
8.42117e-05
8.75058e-05
8.96996e-05
9.03834e-05
8.97921e-05
8.79839e-05
8.46021e-05
7.89727e-05
7.25613e-05
6.62606e-05
6.00514e-05
5.40524e-05
4.83712e-05
4.29087e-05
3.79278e-05
3.34112e-05
2.90911e-05
9.00729e-05
9.26886e-05
9.71848e-05
0.000100379
0.000103199
0.000105346
0.000106622
0.000107113
0.000106933
0.000105933
0.000103696
9.97735e-05
9.40069e-05
8.77602e-05
8.11176e-05
7.41849e-05
6.70706e-05
5.97235e-05
5.23288e-05
4.49502e-05
0.000103549
0.000105535
0.000107308
0.000109728
0.000111517
0.000112943
0.000113878
0.000114334
0.000114401
0.000113984
0.00011306
0.000111391
0.000108284
0.0001033
9.75583e-05
9.11879e-05
8.41445e-05
7.62969e-05
6.79127e-05
5.9324e-05
0.000112565
0.000113605
0.000114789
0.000115664
0.000116594
0.000117117
0.000117352
0.000117334
0.000117083
0.000116614
0.000115945
0.000115025
0.000113491
0.00011058
0.000106145
0.000101018
9.50058e-05
8.78835e-05
7.97843e-05
7.09861e-05
0.00011953
0.000119279
0.000119476
0.000119486
0.000119264
0.000118952
0.000118349
0.00011766
0.00011689
0.000116112
0.000115327
0.000114491
0.000113392
0.000111747
0.000108936
0.000105392
0.000100798
9.50455e-05
8.79141e-05
7.96769e-05
0.000122921
0.000121913
0.000120939
0.000119718
0.00011845
0.00011719
0.000115898
0.000114621
0.000113435
0.000112388
0.000111487
0.000110601
0.000109478
0.00010767
0.000105347
0.000102408
9.8396e-05
9.27687e-05
8.57463e-05
0.000121793
0.000119867
0.00011805
0.00011607
0.000114109
0.000112141
0.000110248
0.000108561
0.000107131
0.000105926
0.000104985
0.00010428
0.000103538
0.000102523
0.00010099
9.85425e-05
9.47422e-05
8.9362e-05
0.000117014
0.000114365
0.000111726
0.000109063
0.000106362
0.000103899
0.000101855
0.00010022
9.89841e-05
9.81855e-05
9.77671e-05
9.76443e-05
9.76131e-05
9.73715e-05
9.64433e-05
9.43255e-05
9.07883e-05
0.000112182
0.000108652
0.000105499
0.000102661
0.000100093
9.78372e-05
9.59216e-05
9.43382e-05
9.30533e-05
9.21402e-05
9.16903e-05
9.16777e-05
9.1951e-05
9.23924e-05
9.26674e-05
9.20705e-05
9.05395e-05
0.000102829
9.98226e-05
9.72203e-05
9.4991e-05
9.31131e-05
9.14838e-05
9.00091e-05
8.86906e-05
8.76219e-05
8.69368e-05
8.65919e-05
8.66744e-05
8.721e-05
8.79467e-05
8.84031e-05
8.85895e-05
9.78132e-05
9.54142e-05
9.33932e-05
9.16803e-05
9.02856e-05
8.90367e-05
8.77935e-05
8.64662e-05
8.50993e-05
8.38015e-05
8.28348e-05
8.23688e-05
8.24921e-05
8.30523e-05
8.38917e-05
8.48244e-05
9.27719e-05
9.1555e-05
9.0447e-05
8.93873e-05
8.83515e-05
8.72674e-05
8.5949e-05
8.4334e-05
8.22598e-05
8.04182e-05
7.90702e-05
7.82838e-05
7.82488e-05
7.89814e-05
8.01808e-05
9.00018e-05
8.90192e-05
8.7979e-05
8.68888e-05
8.5728e-05
8.44446e-05
8.29666e-05
8.11047e-05
7.88648e-05
7.59408e-05
7.4036e-05
7.32838e-05
7.36973e-05
7.48381e-05
8.75054e-05
8.64833e-05
8.54463e-05
8.4361e-05
8.31706e-05
8.18481e-05
8.03266e-05
7.81928e-05
7.4967e-05
7.11602e-05
6.86686e-05
6.75515e-05
6.77577e-05
6.87047e-05
8.41808e-05
8.31452e-05
8.20488e-05
8.08543e-05
7.93551e-05
7.75296e-05
7.52903e-05
7.23673e-05
6.80717e-05
6.43438e-05
6.19509e-05
6.08518e-05
6.08146e-05
6.13904e-05
7.75993e-05
7.60745e-05
7.43794e-05
7.24298e-05
7.02598e-05
6.77075e-05
6.47094e-05
6.10111e-05
5.76765e-05
5.52608e-05
5.36175e-05
5.2643e-05
5.25415e-05
6.83743e-05
6.72086e-05
6.59268e-05
6.433e-05
6.29369e-05
6.13353e-05
5.94766e-05
5.71604e-05
5.44375e-05
5.00909e-05
4.54971e-05
4.27954e-05
4.15993e-05
5.84754e-05
5.73605e-05
5.44837e-05
5.29053e-05
5.1225e-05
4.93215e-05
4.70412e-05
4.41647e-05
4.08673e-05
3.46122e-05
3.04247e-05
2.79475e-05
1.99366e-05
2.10045e-05
1.30017e-05
1.24474e-05
1.22958e-05
1.20857e-05
1.18072e-05
1.15061e-05
1.65249e-05
1.68294e-05
1.7789e-05
1.53987e-05
1.15118e-05
1.14027e-05
1.13584e-05
1.13273e-05
1.1329e-05
1.1485e-05
1.1697e-05
1.19244e-05
1.21596e-05
1.24096e-05
1.268e-05
1.29904e-05
1.33003e-05
1.36582e-05
1.41397e-05
1.49109e-05
1.61356e-05
1.77913e-05
2.03182e-05
2.50399e-05
2.82022e-05
2.71077e-05
2.59149e-05
2.51849e-05
2.48469e-05
2.45841e-05
2.42887e-05
2.39381e-05
2.34806e-05
2.29481e-05
2.23948e-05
2.18676e-05
2.14044e-05
2.10693e-05
2.09901e-05
2.14126e-05
2.27213e-05
2.46969e-05
2.78606e-05
3.17858e-05
4.28818e-05
4.08898e-05
3.91396e-05
3.75765e-05
3.62185e-05
3.48054e-05
3.33409e-05
3.18673e-05
3.03875e-05
2.89069e-05
2.74348e-05
2.59878e-05
2.45819e-05
2.32427e-05
2.19911e-05
2.11473e-05
2.20087e-05
2.30988e-05
2.52678e-05
2.72874e-05
5.70452e-05
5.46259e-05
5.2255e-05
4.9944e-05
4.77547e-05
4.57409e-05
4.39191e-05
4.20989e-05
4.02116e-05
3.82758e-05
3.63057e-05
3.43181e-05
3.23263e-05
3.03557e-05
2.84119e-05
2.66215e-05
2.51913e-05
2.4288e-05
2.40041e-05
2.50603e-05
6.87133e-05
6.626e-05
6.37244e-05
6.11266e-05
5.85235e-05
5.60026e-05
5.36312e-05
5.14319e-05
4.93658e-05
4.72046e-05
4.4966e-05
4.26676e-05
4.03209e-05
3.79542e-05
3.55678e-05
3.32602e-05
3.09699e-05
2.91379e-05
2.73498e-05
2.79217e-05
7.7358e-05
7.50177e-05
7.26214e-05
7.00759e-05
6.7423e-05
6.47361e-05
6.20886e-05
5.95449e-05
5.71511e-05
5.4886e-05
5.2509e-05
5.00351e-05
4.7473e-05
4.4848e-05
4.21627e-05
3.95088e-05
3.68044e-05
3.44619e-05
3.19595e-05
3.22002e-05
8.35343e-05
8.12833e-05
7.89922e-05
7.66486e-05
7.41503e-05
7.15415e-05
6.88767e-05
6.62151e-05
6.36187e-05
6.11335e-05
5.87088e-05
5.61517e-05
5.34668e-05
5.06743e-05
4.77814e-05
4.48747e-05
4.18984e-05
3.92265e-05
3.64192e-05
3.64871e-05
8.73427e-05
8.52797e-05
8.31505e-05
8.09716e-05
7.87246e-05
7.63286e-05
7.38134e-05
7.12186e-05
6.8595e-05
6.59982e-05
6.34636e-05
6.08916e-05
5.81492e-05
5.52527e-05
5.22166e-05
4.91218e-05
4.59589e-05
4.30447e-05
4.0224e-05
4.03476e-05
8.89761e-05
8.71669e-05
8.52863e-05
8.33357e-05
8.13084e-05
7.91808e-05
7.68978e-05
7.44786e-05
7.19524e-05
6.93637e-05
6.67668e-05
6.41692e-05
6.1403e-05
5.84409e-05
5.53054e-05
5.20722e-05
4.87889e-05
4.56912e-05
4.32064e-05
4.2217e-05
8.89821e-05
8.73882e-05
8.57173e-05
8.39546e-05
8.21198e-05
8.02108e-05
7.8172e-05
7.59659e-05
7.35909e-05
7.1082e-05
6.84998e-05
6.58493e-05
6.30738e-05
6.00658e-05
5.68625e-05
5.35377e-05
5.01947e-05
4.697e-05
4.45037e-05
4.16862e-05
8.71812e-05
8.57588e-05
8.43109e-05
8.27804e-05
8.11617e-05
7.94491e-05
7.76259e-05
7.56154e-05
7.34307e-05
7.1074e-05
6.85451e-05
6.58513e-05
6.29589e-05
5.98719e-05
5.66319e-05
5.32772e-05
4.99458e-05
4.66741e-05
4.40028e-05
4.0382e-05
8.3657e-05
8.24273e-05
8.1141e-05
7.97878e-05
7.83313e-05
7.6755e-05
7.50398e-05
7.31562e-05
7.10869e-05
6.88214e-05
6.63534e-05
6.3687e-05
6.08247e-05
5.77769e-05
5.4586e-05
5.12876e-05
4.80486e-05
4.48336e-05
4.21985e-05
3.80935e-05
7.90174e-05
7.78066e-05
7.65571e-05
7.52522e-05
7.38557e-05
7.23468e-05
7.07028e-05
6.89005e-05
6.6921e-05
6.47492e-05
6.23738e-05
5.97963e-05
5.70273e-05
5.40846e-05
5.10154e-05
4.78523e-05
4.47788e-05
4.17171e-05
3.92039e-05
3.49755e-05
7.3595e-05
7.23182e-05
7.10207e-05
6.96619e-05
6.8225e-05
6.66921e-05
6.50418e-05
6.32536e-05
6.13137e-05
5.92066e-05
5.69182e-05
5.44507e-05
5.18157e-05
4.90335e-05
4.61518e-05
4.32006e-05
4.03674e-05
3.75568e-05
3.52436e-05
3.13028e-05
6.73303e-05
6.59439e-05
6.4531e-05
6.30661e-05
6.15336e-05
5.99219e-05
5.8215e-05
5.6397e-05
5.44626e-05
5.24025e-05
5.02001e-05
4.78622e-05
4.54003e-05
4.2835e-05
4.02105e-05
3.75544e-05
3.50555e-05
3.26185e-05
3.06328e-05
2.74681e-05
5.98785e-05
5.83781e-05
5.68472e-05
5.52722e-05
5.36343e-05
5.19388e-05
5.01759e-05
4.83355e-05
4.64227e-05
4.44353e-05
4.23595e-05
4.02046e-05
3.79847e-05
3.57192e-05
3.34478e-05
3.12015e-05
2.9202e-05
2.73362e-05
2.59566e-05
2.40612e-05
5.08683e-05
4.92329e-05
4.75964e-05
4.59338e-05
4.42395e-05
4.25223e-05
4.07786e-05
3.90017e-05
3.72077e-05
3.5399e-05
3.35713e-05
3.17311e-05
2.98968e-05
2.80868e-05
2.63378e-05
2.47143e-05
2.36414e-05
2.27197e-05
2.26164e-05
2.20325e-05
3.9768e-05
3.80429e-05
3.63419e-05
3.46789e-05
3.30609e-05
3.1504e-05
3.00043e-05
2.85462e-05
2.7143e-05
2.58015e-05
2.45214e-05
2.33091e-05
2.21822e-05
2.11497e-05
2.02617e-05
1.97401e-05
2.09522e-05
2.13501e-05
2.37493e-05
2.28166e-05
2.59687e-05
2.43862e-05
2.29532e-05
2.16512e-05
2.06088e-05
2.00083e-05
1.96547e-05
1.94308e-05
1.92745e-05
1.9153e-05
1.90675e-05
1.90331e-05
1.9088e-05
1.92822e-05
1.9677e-05
2.0492e-05
2.2018e-05
2.24516e-05
2.65235e-05
2.85635e-05
1.40506e-05
1.30841e-05
1.23381e-05
1.17418e-05
1.1275e-05
1.09501e-05
1.07699e-05
1.07308e-05
1.08158e-05
1.10235e-05
1.13492e-05
1.17474e-05
1.22438e-05
1.28871e-05
1.36969e-05
1.47959e-05
1.60888e-05
1.8053e-05
2.02139e-05
2.25345e-05
0.0140174
0.0140173
0.0140173
0.0140172
0.0140171
0.014017
0.014017
0.0140169
0.0140168
0.0140074
0.0140075
0.0140075
0.0140075
0.0140075
0.0140075
0.0140075
0.0140075
0.0140075
0.0139882
0.0139881
0.013988
0.0139878
0.0139877
0.0139876
0.0139874
0.0139873
0.0139872
0.0139713
0.0139714
0.0139714
0.0139715
0.0139716
0.0139717
0.0139718
0.0139719
0.013972
0.0139498
0.0139499
0.0139501
0.0139502
0.0139503
0.0139504
0.0139506
0.0139507
0.0139508
0.0139227
0.0139228
0.0139229
0.013923
0.0139231
0.0139232
0.0139233
0.0139234
0.0139234
0.0138669
0.0138665
0.0138661
0.0138657
0.0138653
0.0138649
0.0138645
0.0138641
0.0138637
0.0138303
0.0138297
0.0138291
0.0138286
0.013828
0.0138274
0.0138268
0.0138263
0.0138258
0.0137861
0.0137853
0.0137845
0.0137838
0.013783
0.0137822
0.0137814
0.0137808
0.0137328
0.0137317
0.0137307
0.0137296
0.0137285
0.0137275
0.0137264
0.0137255
0.0136674
0.0136659
0.0136644
0.0136629
0.0136615
0.01366
0.0136586
0.0136574
0.0135861
0.013584
0.013582
0.0135799
0.0135779
0.0135759
0.013574
0.0135723
0.0134839
0.013481
0.0134782
0.0134754
0.0134725
0.0134697
0.0134671
0.0134648
0.013353
0.0133489
0.0133449
0.0133409
0.0133369
0.013333
0.0133293
0.0133262
0.0131801
0.0131742
0.0131684
0.0131625
0.0131566
0.0131509
0.0131454
0.0131409
0.0129409
0.0129319
0.012923
0.0129141
0.0129052
0.0128965
0.0128883
0.0128817
0.0125911
0.0125774
0.0125638
0.0125503
0.0125371
0.0125242
0.0125122
0.0125029
0.0120782
0.0120607
0.0120438
0.0120276
0.012012
0.0119973
0.0119839
0.011974
0.0114645
0.0114587
0.0114541
0.011451
0.0114491
0.0114485
0.011449
0.0114508
0.0110891
0.0111224
0.0111591
0.0111995
0.0112451
0.0112945
0.0113441
0.0113878
0.0120221
0.0121851
0.0123504
0.0125172
0.0126843
0.0128477
0.0130015
0.0131284
0.0154397
0.0157858
0.0161336
0.0164808
0.0168229
0.0171528
0.0174541
0.0176907
0.0213419
0.0217994
0.0222369
0.022651
0.0230353
0.0233785
0.0236603
0.023839
0.0265369
0.0269296
0.0272947
0.0276262
0.0279161
0.0281525
0.0283178
0.0283896
0.0294698
0.02972
0.0299339
0.0301122
0.0302537
0.0303553
0.0304124
0.0304201
0.0303144
0.0304461
0.0305501
0.0306263
0.0306744
0.0306943
0.0306859
0.0306501
0.0297396
0.0297833
0.0298045
0.0298037
0.0297822
0.0297417
0.0296845
0.0296141
0.028201
0.0281677
0.0281156
0.0280459
0.0279606
0.0278631
0.0277576
0.0276501
0.025997
0.0258835
0.025753
0.025607
0.0254477
0.0252786
0.0251052
0.0249375
0.0233282
0.0231174
0.0228907
0.0226499
0.0223982
0.0221346
0.021857
0.0215891
0.0203603
0.0200263
0.0196836
0.019341
0.0190405
0.0188007
0.0185963
0.0184279
0.0173554
0.0169432
0.0166184
0.0163496
0.0161253
0.0159455
0.0158083
0.0157256
0.0147506
0.0143391
0.0140435
0.0138173
0.0136408
0.0135112
0.0134366
0.0134302
0.0127473
0.0122689
0.0119439
0.0117157
0.0115521
0.0114473
0.0114126
0.0114575
0.011322
0.0108257
0.0103771
0.0100695
0.00985675
0.00972897
0.00968232
0.009737
0.0102397
0.00980605
0.00938749
0.00899921
0.00861936
0.00839278
0.00826092
0.008251
0.00935142
0.00899047
0.00862677
0.00826401
0.00789964
0.00756822
0.0072231
0.00706767
0.00856607
0.00827879
0.00797594
0.00765648
0.00732042
0.00697842
0.00661811
0.00629219
0.00781642
0.0076013
0.00736188
0.00709275
0.00679269
0.00646437
0.00610399
0.00573423
0.0070681
0.00691411
0.00673198
0.00651608
0.00625835
0.00595735
0.00561047
0.0052235
0.00630273
0.00620355
0.00607341
0.00590401
0.00568629
0.00541651
0.00509322
0.00471664
0.00550814
0.00545698
0.00537402
0.00524952
0.00507334
0.00484033
0.00454948
0.00420346
0.00468118
0.00467183
0.00463155
0.00454978
0.00441569
0.00422361
0.00397469
0.00367554
0.00382156
0.00384883
0.00384788
0.00380763
0.00371676
0.00356986
0.00337169
0.00313596
0.00292762
0.00298538
0.00302133
0.00302345
0.0029791
0.00288317
0.00274612
0.00259276
0.00201014
0.00207742
0.00213983
0.00218419
0.00219237
0.00215547
0.00209211
0.00204456
0.00125536
0.00129501
0.00132894
0.00134924
0.00134887
0.00133518
0.00135573
0.00147405
0.000687722
0.000708697
0.000726391
0.000738061
0.000743226
0.000749641
0.000781294
0.000876812
0.00030043
0.000313677
0.000333981
0.000375046
0.000426938
0.000468708
0.000510696
0.000568201
6.42842e-05
6.73131e-05
6.95343e-05
7.44722e-05
9.04765e-05
0.000129946
0.00017498
0.000238043
0.0140163
0.0140337
0.0140215
0.0139576
0.0139282
0.0139023
0.0138674
0.0138331
0.0137994
0.0137652
0.01373
0.0136942
0.0136578
0.0136212
0.0135848
0.0135488
0.0135137
0.0134801
0.0134484
0.0134193
0.0133933
0.0133707
0.0133517
0.0133363
0.0133243
0.0133154
0.0133092
0.0133054
0.0133035
0.0133033
0.0133045
0.0133067
0.0133098
0.0133136
0.0133178
0.0133223
0.0133269
0.0133316
0.0133362
0.0133407
0.013345
0.013349
0.0133527
0.0133562
0.0133594
0.0133623
0.0133649
0.0133672
0.0133693
0.0133712
0.0140146
0.0140312
0.014021
0.013952
0.0139276
0.0139015
0.0138627
0.013825
0.0137875
0.0137491
0.0137093
0.0136681
0.0136258
0.0135826
0.0135389
0.0134951
0.0134518
0.01341
0.0133708
0.0133356
0.0133053
0.0132808
0.0132623
0.0132498
0.013243
0.0132411
0.0132435
0.0132494
0.0132581
0.013269
0.0132814
0.0132949
0.0133091
0.0133237
0.0133384
0.0133529
0.0133671
0.0133808
0.0133938
0.0134062
0.0134177
0.0134283
0.0134381
0.0134471
0.0134552
0.0134625
0.0134691
0.013475
0.0134802
0.0134848
0.0140143
0.0140307
0.014018
0.013949
0.0139292
0.0139023
0.013859
0.0138163
0.013775
0.0137325
0.0136881
0.0136415
0.013593
0.0135427
0.0134908
0.0134379
0.0133849
0.0133334
0.0132857
0.0132443
0.0132113
0.0131883
0.013176
0.0131745
0.0131829
0.0131997
0.0132232
0.0132519
0.0132844
0.0133193
0.0133557
0.0133929
0.0134302
0.0134669
0.0135026
0.013537
0.0135698
0.0136009
0.01363
0.0136571
0.0136821
0.013705
0.0137259
0.0137447
0.0137618
0.013777
0.0137906
0.0138028
0.0138135
0.013823
0.0140146
0.0140313
0.0140158
0.0139487
0.0139317
0.0139038
0.013856
0.013808
0.0137635
0.0137173
0.0136683
0.0136165
0.0135617
0.013504
0.0134438
0.0133815
0.0133186
0.0132575
0.0132019
0.0131564
0.0131252
0.0131114
0.0131167
0.0131408
0.0131816
0.0132362
0.0133015
0.0133746
0.0134529
0.0135339
0.0136153
0.0136959
0.0137743
0.0138498
0.0139218
0.0139898
0.0140534
0.0141126
0.0141673
0.0142175
0.0142632
0.0143048
0.0143422
0.0143759
0.0144061
0.0144329
0.0144568
0.0144779
0.0144966
0.014513
0.0140141
0.0140343
0.0140128
0.0139491
0.013935
0.0139059
0.0138535
0.0138011
0.0137535
0.0137038
0.0136506
0.0135937
0.0135328
0.0134678
0.013399
0.0133268
0.0132529
0.013181
0.0131174
0.0130702
0.0130473
0.0130552
0.0130963
0.0131698
0.0132721
0.0133971
0.0135381
0.0136889
0.0138443
0.0140001
0.0141528
0.0143003
0.0144407
0.014573
0.0146967
0.0148113
0.0149169
0.0150136
0.0151016
0.0151813
0.0152532
0.0153178
0.0153755
0.015427
0.0154727
0.0155132
0.015549
0.0155805
0.0156082
0.0156325
0.0140132
0.0140342
0.0140099
0.0139501
0.0139385
0.0139083
0.0138517
0.0137962
0.0137454
0.0136926
0.013636
0.013575
0.0135089
0.0134371
0.0133592
0.0132757
0.013189
0.0131047
0.0130331
0.012988
0.0129843
0.0130325
0.0131373
0.0132961
0.013499
0.0137346
0.013991
0.0142571
0.0145237
0.0147839
0.0150327
0.0152671
0.0154853
0.0156866
0.0158708
0.0160384
0.01619
0.0163267
0.0164493
0.0165589
0.0166566
0.0167434
0.0168203
0.0168882
0.0169482
0.017001
0.0170474
0.017088
0.0171237
0.0171548
0.0140121
0.0140335
0.014007
0.0139516
0.0139423
0.0139111
0.0138503
0.0137932
0.01374
0.0136851
0.013626
0.013561
0.0134891
0.0134095
0.0133218
0.0132261
0.0131254
0.0130277
0.0129489
0.0129117
0.0129414
0.0130567
0.0132616
0.0135473
0.0138969
0.0142888
0.0147016
0.0151168
0.0155205
0.0159031
0.016259
0.0165856
0.0168822
0.0171494
0.0173888
0.0176023
0.0177921
0.0179602
0.0181089
0.01824
0.0183555
0.0184571
0.0185463
0.0186245
0.018693
0.0187529
0.0188053
0.0188511
0.018891
0.0189259
0.0140112
0.0140324
0.0140042
0.0139533
0.0139461
0.013914
0.0138495
0.0137915
0.0137373
0.0136808
0.0136188
0.0135495
0.0134718
0.0133846
0.0132869
0.0131785
0.0130628
0.0129507
0.0128654
0.0128433
0.0129245
0.0131374
0.0134828
0.0139436
0.0144868
0.0150745
0.0156718
0.0162521
0.0167975
0.017298
0.0177497
0.0181524
0.0185085
0.0188217
0.0190959
0.0193355
0.0195444
0.0197265
0.0198851
0.0200231
0.0201431
0.0202476
0.0203385
0.0204176
0.0204864
0.0205462
0.0205983
0.0206437
0.0206831
0.0207174
0.0140105
0.0140309
0.0140015
0.0139551
0.0139498
0.0139171
0.0138491
0.0137907
0.0137361
0.0136782
0.0136135
0.0135402
0.013457
0.0133624
0.0132548
0.0131335
0.0130019
0.0128742
0.0127829
0.0127833
0.0129374
0.0132795
0.0138094
0.0144904
0.0152637
0.0160683
0.0168548
0.01759
0.0182562
0.0188466
0.0193621
0.0198078
0.0201908
0.0205187
0.020799
0.0210384
0.0212429
0.0214178
0.0215676
0.0216961
0.0218063
0.0219012
0.0219829
0.0220533
0.0221141
0.0221667
0.0222123
0.0222517
0.022286
0.0223157
0.0140102
0.0140293
0.013999
0.013957
0.0139534
0.0139202
0.013849
0.0137908
0.013736
0.0136769
0.0136099
0.0135331
0.0134447
0.0133431
0.0132259
0.0130915
0.0129433
0.0127991
0.0127027
0.0127306
0.0129761
0.0134819
0.0142373
0.0151729
0.0161936
0.0172122
0.0181671
0.0190242
0.0197707
0.020408
0.0209448
0.0213934
0.0217664
0.0220761
0.0223331
0.0225467
0.0227246
0.0228731
0.0229975
0.0231021
0.0231903
0.023265
0.0233283
0.0233823
0.0234285
0.023468
0.023502
0.0235313
0.0235567
0.0235787
0.0140103
0.0140275
0.0139967
0.013959
0.0139566
0.0139233
0.0138492
0.0137915
0.0137368
0.0136768
0.0136079
0.0135278
0.0134349
0.0133267
0.0132003
0.013053
0.0128878
0.0127259
0.0126237
0.0126851
0.0130393
0.0137391
0.0147515
0.0159597
0.017224
0.0184321
0.0195163
0.0204484
0.0212267
0.021864
0.022379
0.022792
0.0231216
0.0233842
0.0235934
0.0237604
0.0238941
0.0240014
0.0240881
0.0241583
0.0242157
0.0242627
0.0243015
0.0243338
0.0243608
0.0243835
0.0244028
0.0244192
0.0244333
0.0244454
0.0140114
0.0140257
0.0139946
0.013961
0.0139583
0.0139262
0.0138496
0.0137928
0.0137383
0.0136777
0.0136071
0.0135244
0.0134274
0.0133131
0.0131781
0.0130182
0.0128358
0.0126551
0.0125464
0.012645
0.0131215
0.0140387
0.0153281
0.0168105
0.0182977
0.0196571
0.0208233
0.0217808
0.0225434
0.0231377
0.0235935
0.0239392
0.0241988
0.0243924
0.0245359
0.0246417
0.0247193
0.024776
0.0248172
0.0248471
0.0248685
0.0248839
0.0248949
0.0249028
0.0249084
0.0249124
0.0249154
0.0249176
0.0249193
0.0249207
0.0140125
0.0140239
0.0139929
0.0139628
0.0139591
0.0139289
0.0138501
0.0137945
0.0137403
0.0136793
0.0136075
0.0135225
0.013422
0.0133024
0.0131593
0.0129874
0.0127878
0.0125874
0.0124707
0.0126086
0.0132152
0.0143652
0.0159398
0.0176853
0.0193646
0.0208325
0.0220335
0.0229709
0.0236767
0.0241928
0.0245603
0.0248148
0.0249857
0.0250958
0.0251626
0.025199
0.0252144
0.0252137
0.025206
0.0251927
0.0251763
0.0251587
0.0251412
0.0251244
0.0251087
0.0250944
0.0250814
0.0250699
0.0250598
0.0250509
0.0140135
0.0140221
0.0139913
0.0139646
0.0139594
0.0139314
0.0138507
0.0137964
0.0137428
0.0136815
0.0136087
0.013522
0.0134184
0.0132941
0.0131437
0.0129605
0.012744
0.0125232
0.0123968
0.0125746
0.0133119
0.014703
0.016562
0.0185513
0.0203884
0.0219234
0.0231177
0.0239969
0.0246134
0.0250244
0.025282
0.025429
0.0254988
0.025516
0.0254989
0.0254609
0.0254116
0.0253574
0.0253021
0.025248
0.0251969
0.0251495
0.0251065
0.0250677
0.0250331
0.0250023
0.0249752
0.0249515
0.0249309
0.024913
0.0140143
0.0140204
0.0139901
0.0139663
0.0139595
0.0139324
0.0138514
0.0137985
0.0137454
0.0136841
0.0136107
0.0135226
0.0134166
0.0132882
0.0131313
0.0129375
0.0127047
0.012463
0.0123246
0.0125353
0.0134025
0.0150383
0.0171743
0.0193847
0.0213467
0.0229131
0.0240669
0.0248586
0.0253616
0.0256488
0.0257827
0.0258122
0.0257742
0.0256969
0.0255989
0.0254923
0.0253846
0.0252809
0.025184
0.0250952
0.025015
0.0249435
0.0248801
0.0248244
0.0247756
0.0247332
0.0246966
0.024665
0.0246377
0.0246141
0.0140145
0.0140188
0.0139891
0.0139679
0.0139593
0.0139326
0.0138521
0.0138007
0.0137481
0.0136869
0.0136131
0.0135241
0.0134161
0.0132843
0.0131217
0.0129182
0.0126698
0.012407
0.012255
0.0124909
0.0134824
0.0153624
0.017764
0.0201723
0.0222306
0.0237994
0.0248866
0.025569
0.0259416
0.0260929
0.0260879
0.0259957
0.0258523
0.0256844
0.0255094
0.0253388
0.0251789
0.0250329
0.0249022
0.0247883
0.0246877
0.0245988
0.0245203
0.0244512
0.0243904
0.0243371
0.0242905
0.0242499
0.0242145
0.0241837
0.0140147
0.0140173
0.0139884
0.0139693
0.013959
0.0139325
0.0138529
0.0138028
0.0137509
0.0136899
0.0136159
0.0135262
0.0134167
0.0132822
0.0131145
0.0129024
0.0126391
0.0123555
0.0121894
0.0124427
0.0135564
0.0156715
0.0183236
0.0209085
0.0230392
0.0245877
0.0255887
0.0261461
0.0263772
0.0263736
0.0262385
0.0260269
0.0257804
0.0255264
0.025282
0.0250568
0.0248603
0.0246841
0.024526
0.0243841
0.0242571
0.0241438
0.0240431
0.0239537
0.0238748
0.0238052
0.023744
0.0236904
0.0236436
0.0236027
0.0140147
0.0140158
0.0139878
0.0139706
0.0139586
0.0139321
0.0138537
0.0138049
0.0137536
0.0136928
0.0136189
0.0135288
0.0134182
0.0132815
0.0131096
0.0128898
0.0126126
0.0123084
0.0121284
0.0123902
0.0136185
0.01596
0.0188488
0.021592
0.0237763
0.0252875
0.0261875
0.0266074
0.0266854
0.0265394
0.0262696
0.0259413
0.0255994
0.0252723
0.0249774
0.024711
0.0244689
0.0242488
0.0240492
0.0238687
0.0237063
0.0235607
0.0234308
0.0233153
0.0232129
0.0231225
0.0230429
0.022973
0.0229117
0.0228581
0.0140148
0.0140145
0.0139873
0.0139718
0.0139582
0.0139317
0.0138545
0.0138069
0.0137561
0.0136958
0.0136219
0.0135317
0.0134203
0.0132819
0.0131066
0.0128799
0.01259
0.0122656
0.0120737
0.012341
0.0136683
0.0162264
0.0193391
0.0222252
0.0244486
0.0259108
0.0267016
0.0269794
0.0268973
0.0266016
0.0261958
0.0257511
0.0253151
0.024936
0.024588
0.0242668
0.0239706
0.0236986
0.0234501
0.0232244
0.0230205
0.0228374
0.0226737
0.0225279
0.0223986
0.0222843
0.0221835
0.0220949
0.0220171
0.021949
0.0140148
0.0140133
0.0139869
0.0139729
0.0139577
0.0139312
0.0138553
0.0138088
0.0137586
0.0136986
0.0136249
0.0135347
0.0134229
0.0132832
0.013105
0.0128725
0.0125709
0.0122271
0.0120252
0.0122833
0.0137032
0.0164708
0.0197955
0.0228111
0.025062
0.0264666
0.0271421
0.0272725
0.0270366
0.026598
0.0260686
0.0255285
0.0250343
0.0245807
0.0241593
0.0237671
0.0234037
0.0230691
0.0227629
0.0224847
0.0222334
0.0220077
0.0218061
0.0216266
0.0214674
0.0213268
0.0212028
0.0210938
0.0209982
0.0209144
0.0140149
0.0140122
0.0139866
0.0139738
0.0139572
0.0139306
0.0138561
0.0138106
0.0137609
0.0137012
0.0136279
0.0135378
0.0134257
0.0132851
0.0131047
0.0128671
0.012555
0.0121923
0.011971
0.0122211
0.0137255
0.0166959
0.0202226
0.0233552
0.0256237
0.0269647
0.0275231
0.027493
0.0271037
0.0265199
0.025867
0.0252356
0.0246683
0.0241387
0.0236415
0.0231761
0.0227432
0.0223443
0.0219795
0.0216483
0.0213493
0.021081
0.0208414
0.0206284
0.0204395
0.0202727
0.0201257
0.0199965
0.0198832
0.0197839
0.014015
0.0140112
0.0139863
0.0139744
0.0139566
0.0139301
0.0138568
0.0138122
0.013763
0.0137037
0.0136307
0.0135408
0.0134287
0.0132875
0.0131053
0.0128635
0.0125421
0.0121614
0.0119189
0.0121578
0.0137364
0.0169029
0.020622
0.0238611
0.0261386
0.0274105
0.0278477
0.0276709
0.027122
0.0263867
0.0256053
0.0249047
0.0242567
0.0236455
0.0230708
0.022533
0.0220329
0.0215717
0.0211497
0.0207665
0.0204208
0.0201108
0.0198342
0.0195884
0.0193707
0.0191786
0.0190094
0.0188607
0.0187303
0.0186162
0.014015
0.0140103
0.0139862
0.0139746
0.0139561
0.0139295
0.0138575
0.0138137
0.0137649
0.013706
0.0136334
0.0135438
0.0134317
0.0132901
0.0131065
0.0128613
0.0125316
0.0121342
0.01187
0.0120945
0.0137369
0.0170926
0.0209953
0.0243311
0.0266108
0.0278112
0.0281285
0.0278052
0.0270993
0.0262091
0.0252885
0.0245267
0.0238071
0.0231256
0.0224803
0.0218733
0.0213073
0.0207848
0.0203067
0.0198728
0.0194817
0.0191315
0.0188194
0.0185424
0.0182974
0.0180815
0.0178915
0.0177248
0.0175787
0.0174508
0.0140151
0.0140096
0.013986
0.0139746
0.0139557
0.013929
0.0138581
0.013815
0.0137666
0.0137081
0.0136359
0.0135466
0.0134347
0.0132929
0.0131083
0.0128603
0.0125233
0.0121106
0.0118245
0.0120321
0.0137284
0.0172659
0.0213439
0.0247674
0.0270432
0.0281707
0.0283708
0.0279119
0.0270748
0.0260705
0.0250751
0.0242115
0.0234035
0.0226376
0.0219123
0.0212304
0.0205956
0.0200104
0.0194761
0.0189922
0.0185572
0.0181684
0.0178227
0.0175166
0.0172465
0.0170089
0.0168002
0.0166173
0.0164573
0.0163174
0.0140152
0.014009
0.013986
0.0139745
0.0139552
0.0139285
0.0138587
0.0138162
0.0137682
0.01371
0.0136382
0.0135492
0.0134375
0.0132957
0.0131103
0.01286
0.0125169
0.0120901
0.0117825
0.0119714
0.0137117
0.0174223
0.021668
0.0251715
0.0274379
0.0284903
0.0285649
0.0279745
0.0270033
0.0258769
0.0248062
0.0238547
0.0229645
0.0221207
0.0213218
0.0205714
0.0198735
0.0192312
0.0186459
0.0181169
0.0176424
0.0172193
0.0168441
0.0165126
0.0162208
0.0159646
0.0157401
0.0155438
0.0153722
0.0152225
0.0140153
0.0140086
0.0139859
0.0139743
0.0139548
0.013928
0.0138592
0.0138173
0.0137697
0.0137118
0.0136403
0.0135517
0.0134402
0.0132984
0.0131125
0.0128604
0.0125119
0.0120725
0.011744
0.0119132
0.0136883
0.0175609
0.0219671
0.0255436
0.0277972
0.0287774
0.0287269
0.0279937
0.0268649
0.0255799
0.0244364
0.0234223
0.0224708
0.0215661
0.0207077
0.0199002
0.0191489
0.0184575
0.0178278
0.0172595
0.0167504
0.0162974
0.0158963
0.0155428
0.0152322
0.0149601
0.0147221
0.0145144
0.0143333
0.0141755
0.0140154
0.0140083
0.0139859
0.0139742
0.0139544
0.0139276
0.0138597
0.0138183
0.0137709
0.0137133
0.0136422
0.0135539
0.0134428
0.0133011
0.0131148
0.0128612
0.0125081
0.0120574
0.0117092
0.011858
0.0136593
0.0176804
0.0222394
0.0258836
0.0281206
0.029026
0.0288599
0.0279761
0.0266622
0.025165
0.0239845
0.0229368
0.0219476
0.0210006
0.0200969
0.0192438
0.0184481
0.017715
0.0170471
0.0164445
0.0159051
0.0154258
0.0150021
0.0146294
0.0143027
0.014017
0.0137677
0.0135506
0.0133616
0.0131973
0.0140156
0.014008
0.0139859
0.013974
0.013954
0.0139271
0.0138602
0.0138192
0.0137721
0.0137148
0.0136439
0.0135559
0.0134451
0.0133036
0.0131171
0.0128622
0.0125053
0.0120446
0.0116779
0.0118061
0.0136263
0.0177801
0.0224841
0.0261914
0.0284103
0.0292432
0.0289708
0.0279543
0.0264871
0.0248374
0.0235843
0.0224867
0.0214517
0.0204632
0.0195201
0.0186267
0.0177915
0.0170209
0.0163183
0.0156842
0.0151171
0.0146136
0.0141692
0.013779
0.0134375
0.0131396
0.0128802
0.0126548
0.012459
0.0122891
0.0140157
0.0140079
0.0139859
0.0139739
0.0139536
0.0139267
0.0138606
0.01382
0.0137731
0.013716
0.0136454
0.0135578
0.0134473
0.013306
0.0131194
0.0128635
0.0125033
0.0120338
0.01165
0.0117577
0.0135906
0.0178601
0.0227012
0.0264677
0.0286682
0.0294331
0.0290629
0.0279267
0.0263212
0.0245262
0.0231841
0.0220458
0.0209744
0.0199482
0.0189682
0.0180417
0.0171734
0.0163703
0.015637
0.0149747
0.0143822
0.0138563
0.0133926
0.0129859
0.0126307
0.0123213
0.0120526
0.0118195
0.0116175
0.0114425
0.0140159
0.0140077
0.0139859
0.0139737
0.0139533
0.0139264
0.0138609
0.0138207
0.013774
0.0137172
0.0136468
0.0135595
0.0134492
0.0133081
0.0131215
0.0128649
0.012502
0.0120246
0.011625
0.0117126
0.0135535
0.0179212
0.0228912
0.0267139
0.0288963
0.0295978
0.0291365
0.0278865
0.0261453
0.0241946
0.0227339
0.0215795
0.0204922
0.0194451
0.0184388
0.0174829
0.0165879
0.0157584
0.0149988
0.0143114
0.0136957
0.013149
0.0126669
0.0122443
0.0118756
0.011555
0.0112769
0.0110362
0.010828
0.0106481
0.014016
0.0140076
0.013986
0.0139736
0.013953
0.0139261
0.0138613
0.0138213
0.0137749
0.0137182
0.0136481
0.013561
0.013451
0.0133101
0.0131235
0.0128663
0.012501
0.0120169
0.0116029
0.0116713
0.0135162
0.0179647
0.0230557
0.0269321
0.0290969
0.0297395
0.0291943
0.0278369
0.0259615
0.0238451
0.0222347
0.0210952
0.0200105
0.0189555
0.0179334
0.0169562
0.0160362
0.0151832
0.0144009
0.0136908
0.0130535
0.0124866
0.0119864
0.0115479
0.0111653
0.0108329
0.010545
0.0102961
0.0100813
0.00989594
0.0140161
0.0140075
0.013986
0.0139734
0.0139528
0.0139258
0.0138616
0.0138219
0.0137756
0.0137191
0.0136492
0.0135624
0.0134526
0.013312
0.0131254
0.0128677
0.0125005
0.0120103
0.0115833
0.0116343
0.0134797
0.0179924
0.0231965
0.0271242
0.0292733
0.0298612
0.0292401
0.0277855
0.0257872
0.0235234
0.0218066
0.0206432
0.0195503
0.0184853
0.01745
0.0164557
0.0155151
0.0146391
0.0138348
0.0131044
0.0124466
0.0118604
0.0113421
0.0108873
0.0104903
0.0101454
0.00984681
0.00958894
0.0093666
0.00917507
0.0140162
0.0140075
0.0139862
0.0139733
0.0139526
0.0139255
0.0138618
0.0138223
0.0137762
0.0137199
0.0136502
0.0135636
0.0134541
0.0133136
0.0131271
0.0128691
0.0125002
0.0120048
0.0115661
0.0116013
0.0134447
0.0180063
0.0233159
0.0272927
0.0294282
0.0299652
0.0292769
0.0277341
0.0256247
0.0232249
0.0214095
0.0201964
0.0190906
0.0180175
0.0169724
0.0159652
0.0150085
0.0141134
0.013288
0.0125368
0.0118609
0.0112566
0.0107211
0.0102501
0.00983853
0.00948064
0.00917069
0.00890304
0.00867241
0.00847393
0.0140163
0.0140074
0.0139863
0.0139731
0.0139523
0.0139252