/*--------------------------------*- C++ -*----------------------------------*\
  =========                 |
  \\      /  F ield         | OpenFOAM: The Open Source CFD Toolbox
   \\    /   O peration     | Website:  https://openfoam.org
    \\  /    A nd           | Version:  9
     \\/     M anipulation  |
\*---------------------------------------------------------------------------*/
FoamFile
{
    format      ascii;
    class       surfaceScalarField;
    location    "0.008099";
    object      phi;
}
// * * * * * * * * * * * * * * * * * * * * * * * * * * * * * * * * * * * * * //

dimensions      [1 0 -1 0 0 0 0];

internalField   nonuniform List<scalar> 
10523
(
0.00108104
0.000255509
0.000549928
0.000531122
0.00203336
0.000602882
0.00198041
0.000520871
0.002483
0.00269883
0.00040426
0.000126864
0.000471248
-6.69862e-05
0.000711449
-0.000240199
0.00104585
-0.000334398
0.00140584
-0.000359988
0.00174691
-0.000341072
0.00204062
-0.000293714
0.00227273
-0.000232108
0.00246714
-0.000194405
0.00261244
-0.000145307
0.00270154
-8.90954e-05
0.00273594
-3.44026e-05
0.00271819
1.77534e-05
0.00264918
6.90071e-05
0.00253027
0.000118913
0.00237447
0.0001558
0.0021845
0.000189967
0.00196506
0.00021944
0.00173605
0.000229012
0.000230668
0.00150538
0.00198746
0.000119821
0.00207461
-0.000154143
0.00218458
-0.000350161
0.00231839
-0.000468213
0.00246625
-0.000507844
0.00262048
-0.000495306
0.00277452
-0.000447751
0.0029137
-0.000371286
0.00301672
-0.000297433
0.00308814
-0.000216727
0.00312751
-0.00012846
0.00313295
-3.9841e-05
0.00310307
4.76363e-05
0.00303749
0.00013458
0.00293624
0.00022017
0.00278791
0.000304123
0.00259896
0.000378916
0.00237291
0.000445497
0.00211387
0.00048805
0.000541539
0.001803
0.00248244
0.000120388
0.00252263
-0.000194334
0.00258441
-0.000411946
0.00266412
-0.000547915
0.00276361
-0.000607333
0.00287372
-0.000605416
0.00298077
-0.000554805
0.00308242
-0.000472939
0.0031653
-0.000380307
0.0032204
-0.000271827
0.00324866
-0.000156723
0.00324868
-3.98595e-05
0.00321779
7.85296e-05
0.00315471
0.000197657
0.00305907
0.000315808
0.00292995
0.000433248
0.00275883
0.000550039
0.00254518
0.000659144
0.002293
0.000740224
0.00082955
0.00200499
0.00273453
8.46872e-05
0.0027721
-0.000231905
0.00281456
-0.000454402
0.00286389
-0.000597244
0.00292359
-0.000667032
0.00298901
-0.00067084
0.00306083
-0.000626627
0.00313333
-0.000545434
0.00319313
-0.000440106
0.0032351
-0.000313793
0.00325844
-0.00018007
0.00326101
-4.24238e-05
0.00323873
0.00010081
0.00318843
0.000247956
0.0031079
0.000396339
0.00299534
0.000545802
0.00284827
0.000697108
0.00265534
0.000852078
0.00241798
0.000977587
0.00110404
0.00214349
0.00284496
3.25007e-05
0.00288444
-0.000271384
0.00291747
-0.000487428
0.00295031
-0.000630086
0.00298598
-0.000702705
0.00302814
-0.000713
0.003075
-0.000673483
0.00312275
-0.000593185
0.00316229
-0.000479644
0.00319548
-0.000346988
0.00321734
-0.000201931
0.00322419
-4.92752e-05
0.00321154
0.000113468
0.00317579
0.000283702
0.00311441
0.000457715
0.003024
0.000636214
0.00290082
0.00082029
0.00273992
0.00101298
0.00252838
0.00118912
0.0013665
0.00226592
0.00288526
0.00292733
-0.000313458
0.00295795
-0.000518041
0.00298173
-0.00065387
0.00300249
-0.000723468
0.00302388
-0.000734381
0.00304639
-0.000695992
0.00307075
-0.000617545
0.00309743
-0.000506328
0.00312248
-0.000372032
0.00314277
-0.000222227
0.00315398
-6.04866e-05
0.00315184
0.000115615
0.00313058
0.000304956
0.00308839
0.000499906
0.00302174
0.000702867
0.00292602
0.000916008
0.00279597
0.00114303
0.0026189
0.00136619
0.00160353
0.00238187
0.00292664
0.00294847
-0.000539873
0.00296148
-0.000666873
0.00296991
-0.0007319
0.00297741
-0.000741887
0.0029866
-0.00070518
0.00299871
-0.000629655
0.0030143
-0.00052191
0.00303187
-0.000389602
0.00304946
-0.000239824
0.0030617
-7.27266e-05
0.00306565
0.000111666
0.00305813
0.000312474
0.00303489
0.000523151
0.00299189
0.000745865
0.00292475
0.000983149
0.00282725
0.00124053
0.0026888
0.00150463
0.00180503
0.0024873
0.00292102
0.00292441
-0.000670261
0.00292271
-0.000730202
0.00291924
-0.000738417
0.00291702
-0.000702957
0.00291786
-0.0006305
0.0029228
-0.000526848
0.00293096
-0.00039776
0.00293966
-0.000248523
0.00295006
-8.31275e-05
0.00295965
0.000102075
0.00296419
0.000307933
0.0029592
0.000528147
0.00294066
0.000764402
0.00290204
0.00102177
0.00283783
0.00130474
0.0027388
0.00160366
0.00196265
0.00258119
0.00287834
-0.000663282
0.00286661
-0.000718476
0.00285268
-0.000724481
0.00283937
-0.000689647
0.00282892
-0.000620053
0.00282289
-0.000520811
0.00282203
-0.000396904
0.00282661
-0.000253103
0.00283641
-9.29284e-05
0.00284966
8.88293e-05
0.00286253
0.000295054
0.00287175
0.000518928
0.00287318
0.000762976
0.00286182
0.00103313
0.00283046
0.0013361
0.00276992
0.0016642
0.002069
0.00266358
0.00283066
0.00280805
-0.000695868
0.00278381
-0.00070024
0.00276053
-0.000666367
0.00274062
-0.000600148
0.00272604
-0.000506225
0.00271808
-0.000388952
0.00271713
-0.000252153
0.00272324
-9.90307e-05
0.00273664
7.54251e-05
0.00275481
0.00027688
0.00277527
0.000498474
0.00279424
0.000744008
0.00280732
0.00102005
0.00280837
0.00133506
0.00278633
0.00168623
0.0021237
0.00273163
0.00275326
-0.000662525
0.0027188
-0.000665783
0.00268563
-0.000633195
0.00265599
-0.000570504
0.00263198
-0.00048222
0.00261551
-0.000372483
0.00260783
-0.000244474
0.00260964
-0.000100832
0.00262189
6.31696e-05
0.00264329
0.000255487
0.00267224
0.000469515
0.00270594
0.000710308
0.00274097
0.000985019
0.00277146
0.00130457
0.00278948
0.00166821
0.00212855
0.00278463
0.00269968
0.00265384
-0.000619946
0.00261021
-0.000589562
0.00257074
-0.000531031
0.00253754
-0.000449016
0.00251273
-0.00034768
0.00249814
-0.000229882
0.00249497
-9.76642e-05
0.00250479
5.3351e-05
0.00252782
0.000232461
0.00256331
0.000434024
0.00260939
0.000664226
0.00266379
0.000930619
0.00272218
0.00124618
0.00277913
0.00161126
0.00208545
0.00282223
0.0025852
0.00253027
-0.00053463
0.00248102
-0.000481785
0.00243885
-0.000406843
0.00240609
-0.000314928
0.00238497
-0.000208757
0.0023771
-8.97952e-05
0.00238418
4.62731e-05
0.00240786
0.000208777
0.00244835
0.000393536
0.00250491
0.000607668
0.00257661
0.000858912
0.00266082
0.00116197
0.00275352
0.00151856
0.00199206
0.00284691
0.00245041
-0.000468327
0.00238921
-0.00042058
0.00233709
-0.000354723
0.00229567
-0.000273507
0.002267
-0.000180092
0.0022537
-7.64945e-05
0.00225801
4.19657e-05
0.00228233
0.000184453
0.00232712
0.000348753
0.00239267
0.000542116
0.00247976
0.000771823
0.00258755
0.00105418
0.0027146
0.00139151
0.00184911
0.00285755
0.00236178
-0.000394109
0.00229256
-0.000351362
0.00223185
-0.000294007
0.00218261
-0.000224273
0.00214716
-0.000144638
0.00212744
-5.67716e-05
0.00212665
4.27505e-05
0.00215044
0.000160661
0.00219911
0.000300083
0.00227276
0.000468465
0.0023735
0.000671083
0.0025028
0.000924881
0.0026623
0.00123201
0.0016566
0.00285482
0.00225329
0.00217763
-0.000275708
0.00211142
-0.000227794
0.00205765
-0.0001705
0.00201889
-0.000105882
0.00199711
-3.49947e-05
0.00199394
4.59277e-05
0.00201299
0.00014161
0.00206324
0.000249828
0.00214403
0.000387676
0.0022575
0.000557617
0.00240676
0.000775615
0.00259626
0.00104252
0.001413
0.00283985
0.002033
-0.000196074
0.00196389
-0.000158691
0.00190817
-0.00011478
0.00186848
-6.61904e-05
0.00184678
-1.32935e-05
0.0018448
4.79065e-05
0.00186614
0.000120275
0.0019137
0.000202264
0.00199998
0.000301398
0.00212533
0.00043227
0.00229411
0.000606832
0.00251173
0.000824903
0.00111876
0.00280597
0.00183202
0.0017645
-9.11678e-05
0.00171148
-6.17627e-05
0.00167547
-3.01843e-05
0.00165838
3.79977e-06
0.00166206
4.42234e-05
0.00169036
9.1973e-05
0.00174614
0.000146485
0.00183822
0.000209322
0.00197811
0.00029238
0.00216894
0.000416005
0.00241208
0.000581759
0.00077952
0.00275132
0.0014703
-3.23599e-05
0.00142674
-1.82017e-05
0.00140037
-3.81313e-06
0.00139279
1.13804e-05
0.00140606
3.09562e-05
0.00144359
5.44403e-05
0.00150884
8.12375e-05
0.00160483
0.000113332
0.0017446
0.000152609
0.00196519
0.00019541
0.00224524
0.000301718
0.000362209
0.00266255
0.000924729
0.000906527
0.000902714
0.000914095
0.000945051
0.000999491
0.00108073
0.00119406
0.00134667
0.00154208
0.0018438
0.002206
0.00160285
-9.74655e-05
0.0016722
-6.93517e-05
0.00172884
-5.6636e-05
0.00176464
-3.58032e-05
0.00178699
-2.23477e-05
0.0018009
-1.39151e-05
0.00180887
-7.96498e-06
0.00181237
-3.50519e-06
0.00181144
9.32666e-07
0.00180658
4.85723e-06
0.00179726
9.31745e-06
0.00178311
1.41516e-05
0.0017626
2.05168e-05
0.00173646
2.61396e-05
0.00169954
3.69183e-05
0.00165588
4.366e-05
0.00158239
7.34903e-05
0.00151365
6.87409e-05
0.00132042
0.000193224
-0.000648509
0.00196893
0.0018855
-0.00017997
0.00194764
-0.000131492
0.00200984
-0.000118831
0.00206457
-9.0531e-05
0.00211017
-6.79483e-05
0.00214949
-5.32424e-05
0.00218309
-4.15623e-05
0.00221242
-3.28316e-05
0.00223887
-2.55241e-05
0.0022633
-1.95701e-05
0.00228631
-1.36918e-05
0.0023086
-8.1335e-06
0.00232999
-8.79436e-07
0.00235109
5.04033e-06
0.00236945
1.85595e-05
0.00238777
2.5341e-05
0.00238734
7.39165e-05
0.0023894
6.66879e-05
0.00232766
0.000254958
-0.000909789
0.00258894
0.002075
-0.000249974
0.00213343
-0.000189926
0.0021847
-0.000170103
0.00222978
-0.000135611
0.00226595
-0.000104111
0.00229578
-8.3075e-05
0.00232113
-6.6912e-05
0.00234321
-5.49106e-05
0.0023638
-4.61137e-05
0.00238375
-3.95284e-05
0.00240398
-3.39179e-05
0.00242543
-2.95852e-05
0.00244838
-2.38296e-05
0.00247438
-2.09608e-05
0.00250148
-8.53246e-06
0.00253562
-8.80176e-06
0.00255764
5.18969e-05
0.00259928
2.50438e-05
0.00258204
0.000272198
-0.00107053
0.00274279
0.00218732
-0.000293804
0.00222453
-0.000227135
0.00225491
-0.000200481
0.00228286
-0.000163565
0.00230692
-0.000128167
0.00232792
-0.000104076
0.00234726
-8.62526e-05
0.00236537
-7.30234e-05
0.00238312
-6.38615e-05
0.00240116
-5.75704e-05
0.00242033
-5.30887e-05
0.00244156
-5.08081e-05
0.00246521
-4.7482e-05
0.00249238
-4.81352e-05
0.00252132
-3.74733e-05
0.00255741
-4.48885e-05
0.00258355
2.57603e-05
0.00263547
-2.68778e-05
0.00263064
0.000277022
-0.00120797
0.00276808
0.00229558
-0.000323466
0.00232174
-0.000253289
0.00234285
-0.000221597
0.00236258
-0.000183298
0.00237979
-0.000145371
0.00239405
-0.000118332
0.00240669
-9.88966e-05
0.00241836
-8.4693e-05
0.00242982
-7.53242e-05
0.0024419
-6.96453e-05
0.0024554
-6.6594e-05
0.00247111
-6.65198e-05
0.00248957
-6.59383e-05
0.00251147
-7.00357e-05
0.00253602
-6.20186e-05
0.00256732
-7.61949e-05
0.00259223
8.52225e-07
0.00264141
-7.60538e-05
0.00263823
0.000280198
-0.00133527
0.00276554
0.00239813
-0.000339726
0.00241142
-0.000266583
0.00242023
-0.000230405
0.00242856
-0.000191624
0.00243616
-0.000152971
0.00244241
-0.00012458
0.0024484
-0.000104887
0.00245469
-9.09895e-05
0.00246164
-8.22736e-05
0.00246973
-7.77303e-05
0.00247959
-7.64556e-05
0.00249181
-7.87449e-05
0.00250688
-8.10068e-05
0.00252529
-8.8444e-05
0.00254668
-8.34132e-05
0.00257389
-0.0001034
0.00259747
-2.27253e-05
0.00264202
-0.000120611
0.00264034
0.000281882
-0.00145257
0.00275764
0.00249036
-0.000342789
0.00249246
-0.00026868
0.00249181
-0.000229759
0.00249179
-0.000191605
0.00249236
-0.000153535
0.00249267
-0.00012489
0.00249333
-0.000105553
0.00249478
-9.24335e-05
0.0024972
-8.46988e-05
0.002501
-8.15307e-05
0.00250676
-8.2216e-05
0.00251498
-8.69571e-05
0.00252613
-9.2163e-05
0.00254051
-0.000102824
0.00255823
-0.000101133
0.00258094
-0.000126103
0.00260267
-4.44636e-05
0.00264187
-0.000159803
0.00264407
0.000279674
-0.00155898
0.00275048
0.0025718
-0.000333404
0.0025643
-0.000261176
0.00255556
-0.00022102
0.00254815
-0.000184197
0.00254234
-0.000147721
0.00253728
-0.000119831
0.0025332
-0.000101473
0.00253042
-8.96553e-05
0.00252902
-8.33038e-05
0.00252927
-8.17798e-05
0.00253166
-8.46011e-05
0.00253651
-9.18105e-05
0.00254428
-9.99287e-05
0.00255506
-0.000113606
0.00256944
-0.000115514
0.00258778
-0.000144447
0.00260819
-6.48723e-05
0.00264049
-0.0001921
0.00265334
0.000266827
-0.00165469
0.00274905
0.00264229
-0.000312111
0.00262652
-0.000245408
0.00261108
-0.000205582
0.00259754
-0.000170662
0.00258657
-0.00013675
0.00257729
-0.000110547
0.0025695
-9.36877e-05
0.00256337
-8.35251e-05
0.00255888
-7.88115e-05
0.00255615
-7.90525e-05
0.00255563
-8.40738e-05
0.0025575
-9.36826e-05
0.00256218
-0.000104605
0.00256959
-0.000121024
0.0025808
-0.000126719
0.00259478
-0.000158427
0.00261443
-8.4525e-05
0.00263677
-0.000214441
0.00267365
0.000229954
-0.00174063
0.00275958
0.00270136
-0.000281839
0.00267891
-0.000222961
0.00265821
-0.000184879
0.0026399
-0.000152354
0.0026249
-0.000121746
0.00261232
-9.79719e-05
0.00260166
-8.30217e-05
0.0025929
-7.47666e-05
0.00258595
-7.18585e-05
0.00258081
-7.39194e-05
0.0025779
-8.11604e-05
0.00257727
-9.30548e-05
0.00257927
-0.000106604
0.0025837
-0.000125455
0.00259196
-0.000134975
0.00260186
-0.000168324
0.00262085
-0.000103516
0.00263165
-0.000225242
0.00270132
0.000160282
-0.00181476
0.00277545
0.0027491
-0.000246312
0.00272155
-0.000195415
0.00269684
-0.000160166
0.00267502
-0.000130539
0.00265701
-0.00010373
0.00264203
-8.29973e-05
0.00262934
-7.0325e-05
0.00261878
-6.42103e-05
0.00261011
-6.31889e-05
0.00260319
-6.70032e-05
0.00259842
-7.63902e-05
0.00259575
-9.03823e-05
0.00259547
-0.000106319
0.00259729
-0.000127277
0.00260276
-0.000140452
0.00260922
-0.000174781
0.00262619
-0.000120485
0.00263151
-0.000230557
0.0027061
8.56841e-05
-0.00186927
0.00276061
0.00278436
-0.000208443
0.00275341
-0.000164458
0.0027263
-0.000133058
0.00270251
-0.000106746
0.00268269
-8.39179e-05
0.00266629
-6.65959e-05
0.00265238
-5.64121e-05
0.00264067
-5.2504e-05
0.00263097
-5.34843e-05
0.00262295
-5.89828e-05
0.00261689
-7.03337e-05
0.00261268
-8.61721e-05
0.00261054
-0.000104181
0.00261016
-0.000126889
0.00261308
-0.000143373
0.00261664
-0.000178342
0.00263079
-0.000134642
0.00263399
-0.000233751
0.00270396
1.57081e-05
-0.00189426
0.00272896
0.0028076
-0.000169138
0.00277446
-0.000131317
0.002746
-0.000104604
0.0027214
-8.21427e-05
0.00270105
-6.35632e-05
0.00268438
-4.99247e-05
0.00267049
-4.25291e-05
0.00265859
-4.05985e-05
0.00264838
-4.32771e-05
0.00263988
-5.04781e-05
0.00263314
-6.36015e-05
0.00262789
-8.09189e-05
0.00262436
-0.000100647
0.00262216
-0.000124693
0.00262281
-0.000144025
0.00262387
-0.000179404
0.00263509
-0.000145859
0.00263652
-0.000235177
0.00270238
-5.01577e-05
-0.00187803
0.00268615
0.00281809
-0.000129683
0.00278533
-9.85502e-05
0.00275678
-7.60576e-05
0.00273233
-5.76909e-05
0.00271229
-4.35253e-05
0.00269596
-3.3595e-05
0.00268262
-2.91914e-05
0.00267193
-2.99092e-05
0.0026622
-3.3541e-05
0.00265374
-4.20198e-05
0.00264701
-5.68757e-05
0.00264123
-7.51306e-05
0.00263677
-9.61902e-05
0.00263319
-0.000121119
0.0026319
-0.000142734
0.00263079
-0.00017829
0.00263915
-0.000154222
0.00263861
-0.000234637
0.00270086
-0.000112406
-0.00180552
0.00262836
0.00281665
-9.15108e-05
0.00278516
-6.70673e-05
0.00275787
-4.87604e-05
0.00273488
-3.47077e-05
0.00271649
-2.51344e-05
0.00270167
-1.8776e-05
0.00268976
-1.72805e-05
0.00268049
-2.064e-05
0.00267264
-2.56918e-05
0.00266487
-3.42497e-05
0.00265871
-5.07154e-05
0.00265296
-6.93748e-05
0.00264797
-9.12039e-05
0.00264339
-0.00011654
0.00264046
-0.000139803
0.00263743
-0.000175264
0.00264305
-0.000159839
0.00264055
-0.000232134
0.00269889
-0.000170746
-0.00165739
0.00255076
0.00280341
-5.50674e-05
0.0027744
-3.80632e-05
0.00274932
-2.3681e-05
0.00272867
-1.40512e-05
0.00271285
-9.31754e-06
0.00270052
-6.44345e-06
0.00269107
-7.83411e-06
0.00268416
-1.37271e-05
0.00267839
-1.99258e-05
0.00267285
-2.87043e-05
0.00266756
-4.54293e-05
0.0026626
-6.44195e-05
0.00265764
-8.624e-05
0.00265256
-0.00011146
0.00264847
-0.000135709
0.0026439
-0.000170702
0.00264695
-0.000162887
0.00264264
-0.000227825
0.00269532
-0.000223423
-0.00141996
0.00245789
0.0027762
-2.53032e-05
0.00275289
-1.47545e-05
0.00273289
-3.67775e-06
0.00271694
1.89968e-06
0.00270446
3.16511e-06
0.00269526
2.75312e-06
0.0026886
-1.17424e-06
0.00268447
-9.59311e-06
0.0026813
-1.67597e-05
0.00267903
-2.6434e-05
0.00267519
-4.15917e-05
0.00267147
-6.06949e-05
0.00266701
-8.17824e-05
0.00266168
-0.000106133
0.00265673
-0.000130756
0.00265056
-0.000164533
0.00265041
-0.000162735
0.00264244
-0.000219858
0.00268682
-0.000267796
-0.00107626
0.00234311
0.00272917
-3.14864e-06
0.00271339
1.02947e-06
0.00270071
8.99864e-06
0.00269165
1.09621e-05
0.00268549
9.31996e-06
0.00268189
6.35516e-06
0.00267944
1.27166e-06
0.00267847
-8.61973e-06
0.00267854
-1.68277e-05
0.00267906
-2.69578e-05
0.00267839
-4.09227e-05
0.00267624
-5.85457e-05
0.0026728
-7.83342e-05
0.00266662
-9.99519e-05
0.00265909
-0.000123226
0.00264647
-0.000151922
0.00263706
-0.000153324
0.00261467
-0.000197469
0.0026366
-0.000289723
-0.000623127
0.00218347
0.00265086
8.54157e-06
0.00264044
1.14506e-05
0.00263518
1.42587e-05
0.00263403
1.21069e-05
0.00263524
8.1146e-06
0.00263831
3.28225e-06
0.00264239
-2.8069e-06
0.00264467
-1.09022e-05
0.00264602
-1.81818e-05
0.00264652
-2.74577e-05
0.00264271
-3.7105e-05
0.00263311
-4.89459e-05
0.00261832
-6.35486e-05
0.00259593
-7.75623e-05
0.00256713
-9.44199e-05
0.00252226
-0.000107055
0.00249592
-0.000126986
0.00242683
-0.000128376
0.00235123
-0.000214124
-0.000145998
0.0018741
0.00221455
0.002226
0.00224026
0.00225236
0.00226048
0.00226376
0.00226095
0.00225005
0.00223187
0.00220441
0.00216731
0.00211836
0.00205481
0.00197725
0.00188283
0.00177577
0.00164879
0.00152041
0.00130629
0.00116029
4.69505
-0.00187157
4.69463
-0.00187479
4.69421
-0.00187799
4.6938
-0.00188118
4.69339
-0.00188437
4.69298
-0.00188755
4.69258
-0.00189072
4.69218
-0.00189385
-0.0018966
4.69178
3.93001
-0.00177128
3.92991
-0.00177624
3.92982
-0.00178116
3.92972
-0.00178606
3.92963
-0.00179093
3.92954
-0.00179578
3.92945
-0.00180059
3.92936
-0.0018053
-0.00180961
3.92927
3.42089
-0.0018735
3.42099
-0.00187769
3.42109
-0.00188186
3.42119
-0.00188602
3.42129
-0.00189017
3.42139
-0.0018943
3.42148
-0.00189842
3.42158
-0.00190248
-0.00190645
3.42168
2.9553
-0.00189528
2.95533
-0.00190027
2.95535
-0.00190525
2.95537
-0.00191021
2.9554
-0.00191516
2.95542
-0.00192009
2.95545
-0.001925
2.95548
-0.00192983
-0.00193424
2.95551
2.55239
-0.00200491
2.5525
-0.00201039
2.55261
-0.00201585
2.55273
-0.00202129
2.55284
-0.0020267
2.55295
-0.0020321
2.55306
-0.00203745
2.55317
-0.00204271
-0.00204765
2.55329
2.20739
-0.00210272
2.20748
-0.00210905
2.20758
-0.00211535
2.20768
-0.00212162
2.20779
-0.00212786
2.20789
-0.00213407
2.20799
-0.00214023
2.20809
-0.00214633
-0.00215215
2.2082
1.90674
-0.00225023
1.90689
-0.00225753
1.90704
-0.00226478
1.90719
-0.00227198
1.90734
-0.00227914
1.90749
-0.00228625
1.90764
-0.00229331
1.9078
-0.00230032
-0.00230735
1.90795
1.64863
1.6488
-0.00242707
1.64897
-0.00243514
1.64914
-0.00244314
1.64931
-0.00245106
1.64949
-0.0024589
1.64966
-0.00246667
1.64983
-0.00247436
-0.00248196
1.65001
1.42494
-0.00264731
1.42516
-0.00265609
1.42539
-0.00266475
1.42561
-0.00267328
1.42583
-0.0026817
1.42605
-0.00269
1.42628
-0.00269818
-0.00270629
1.4265
1.23209
-0.00291219
1.23236
-0.00292109
1.23262
-0.00292981
1.23289
-0.00293834
1.23315
-0.00294668
1.23342
-0.00295484
1.23368
-0.00296282
-0.00297064
1.23395
1.06559
-0.00323814
1.06591
-0.00324614
1.06624
-0.00325385
1.06656
-0.00326127
1.06688
-0.00326842
1.0672
-0.00327529
1.06752
-0.0032819
-0.00328831
1.06784
0.922426
-0.00362769
0.922813
-0.0036329
0.923197
-0.00363771
0.923578
-0.00364211
0.923955
-0.00364611
0.92433
-0.00364974
0.924701
-0.00365302
-0.003656
0.925069
0.799464
-0.0040916
0.799922
-0.00409117
0.800374
-0.00409018
0.800821
-0.00408868
0.801261
-0.00408667
0.801696
-0.00408412
0.802124
-0.00408099
-0.00407742
0.802545
0.694238
-0.00462537
0.694761
-0.00461441
0.695274
-0.00460273
0.695776
-0.00459033
0.696266
-0.00457723
0.696745
-0.00456347
0.697214
-0.00454907
-0.00453417
0.69767
0.604434
-0.00522961
0.605021
-0.00520133
0.60559
-0.00517211
0.606142
-0.00514204
0.606676
-0.00511121
0.607192
-0.0050797
0.607691
-0.00504763
-0.00501519
0.608172
0.528178
-0.00588571
0.528807
-0.00583011
0.529408
-0.00577351
0.529982
-0.00571609
0.530529
-0.00565804
0.531049
-0.00559951
0.531542
-0.0055407
-0.0054817
0.532008
0.463471
-0.00657123
0.464116
-0.00647559
0.464722
-0.00637936
0.465289
-0.00628284
0.465817
-0.00618636
0.466308
-0.00609023
0.466762
-0.0059947
-0.00590033
0.467181
0.408791
-0.00725093
0.409417
-0.00710166
0.40999
-0.00695276
0.410512
-0.00680467
0.410984
-0.00665788
0.411406
-0.00651285
0.411782
-0.00637004
-0.00622968
0.412111
0.363306
-0.00797272
0.363951
-0.00774651
0.36452
-0.00752156
0.365014
-0.00729892
0.365436
-0.00707962
0.365787
-0.00686396
0.366072
-0.00665581
-0.00645504
0.366298
0.326886
-0.00858152
0.327371
-0.0082321
0.327737
-0.0078876
0.327987
-0.00754871
0.328123
-0.00721543
0.328138
-0.00687887
0.328038
-0.00655628
-0.00624931
0.327833
0.291788
-0.00837747
0.291431
-0.00787557
0.290924
-0.00738082
0.290268
-0.00689219
0.289458
-0.00640548
0.288496
-0.00591671
0.287373
-0.00543342
-0.0049587
0.286082
0.243605
-0.00633956
0.241413
-0.00568306
0.239086
-0.0050544
0.236645
-0.00445121
0.234109
-0.00386893
0.231502
-0.00331022
0.228837
-0.00276838
-0.00225893
0.226138
0.168686
-0.00306512
0.165432
-0.00242927
0.162211
-0.00183335
0.159036
-0.0012756
0.155921
-0.000754004
0.152878
-0.000267051
0.149923
0.000186017
0.00058349
0.147081
0.097919
-0.000226209
0.095189
0.000300645
0.0925653
0.000790401
0.0900456
0.00124408
0.0876293
0.00166232
0.085317
0.00204522
0.0831121
0.00239097
0.00268286
0.0810127
0.0487186
0.00183676
0.0467305
0.00228868
0.0448142
0.00270675
0.0429676
0.00309067
0.0411902
0.00343975
0.0394822
0.0037532
0.0378437
0.0040294
0.0042602
0.0362664
0.0171638
0.00334199
0.0157092
0.00374323
0.0143039
0.00411213
0.0129472
0.00444733
0.0116398
0.00474719
0.0103826
0.00501041
0.00917432
0.00523765
0.0054284
0.00800612
-0.00203163
0.00443044
-0.00308857
0.00480017
-0.00411391
0.00513747
-0.00510623
0.00543966
-0.00606273
0.00570368
-0.0069794
0.00592708
-0.00785276
0.00611101
0.00626006
-0.00868442
-0.0130046
0.0051878
-0.0137445
0.00554008
-0.0144658
0.00585875
-0.0151653
0.00613916
-0.0158377
0.00637605
-0.0164747
0.0065641
-0.017065
0.00670135
0.00679809
-0.0176031
-0.0186396
0.00566527
-0.0191113
0.00601181
-0.0195755
0.00632292
-0.0200278
0.00659143
-0.0204606
0.00680893
-0.0208618
0.00696526
-0.0212123
0.0070519
0.00708219
-0.0214964
-0.0209187
0.00589622
-0.0211546
0.00624764
-0.0213933
0.00656169
-0.0216299
0.00682795
-0.0218543
0.0070334
-0.0220493
0.00716017
-0.0221969
0.00719952
0.00714408
-0.0222588
-0.0211855
0.00590096
-0.0212051
0.00626715
-0.0212372
0.00659386
-0.021276
0.00686675
-0.0213097
0.00706704
-0.0213179
0.00716842
-0.0212702
0.00715183
0.00699889
-0.021125
-0.020343
0.00568584
-0.0201521
0.00607626
-0.0199836
0.00642544
-0.019831
0.00671411
-0.0196807
0.00691674
-0.0195166
0.00700435
-0.0193
0.00693518
0.00667565
-0.0189768
-0.0190173
0.00524737
-0.0186127
0.00567159
-0.0182431
0.00605591
-0.0179036
0.00637452
-0.0175809
0.00659405
-0.0172583
0.0066818
-0.0169095
0.00658639
0.00622903
-0.0164629
-0.0176788
0.00458342
-0.0170535
0.00504633
-0.0164759
0.00547825
-0.0159471
0.00584581
-0.0154568
0.00610367
-0.0149934
0.00621844
-0.0145431
0.00613613
0.00569488
-0.014009
-0.0166834
0.00370874
-0.0158394
0.00420225
-0.0150445
0.00468334
-0.014313
0.00511431
-0.0136422
0.00543291
-0.0130314
0.00560764
-0.0124895
0.00559425
0.00508536
-0.01188
-0.0162536
0.00266746
-0.0152189
0.00316755
-0.0142167
0.00368109
-0.0132729
0.00417057
-0.0123978
0.00455783
-0.0116074
0.00481724
-0.0109478
0.00493463
0.00437486
-0.0102373
-0.0164484
0.00153814
-0.0152865
0.00200563
-0.0141207
0.00251527
-0.0129857
0.00303566
-0.0119023
0.00347441
-0.0108989
0.00381379
-0.0100669
0.00410263
0.00349007
-0.00918209
-0.0171603
0.000425267
-0.0159694
0.000814766
-0.0147239
0.00126969
-0.0134589
0.00177067
-0.0122007
0.00221623
-0.0109832
0.00259625
-0.00993078
0.00305026
0.00235131
-0.00879202
-0.01816
-0.000562562
-0.0170561
-0.000289126
-0.0158464
5.996e-05
-0.0145555
0.000479746
-0.0132047
0.000865475
-0.0118181
0.00120966
-0.0105208
0.00175292
0.000905916
-0.0090754
-0.019173
-0.00133538
-0.0182651
-0.00119701
-0.0172156
-0.000989592
-0.0160296
-0.000706244
-0.0147135
-0.000450623
-0.013263
-0.000240868
-0.0117493
0.000239214
-0.000844557
-0.00999879
-0.0199505
-0.00184045
-0.019317
-0.00183049
-0.0185337
-0.00177282
-0.0175841
-0.00165586
-0.0164523
-0.0015824
-0.015094
-0.00159917
-0.0134809
-0.00137394
-0.00281758
-0.0115079
-0.0203214
-0.00207017
-0.0199935
-0.0021584
-0.0195386
-0.00222764
-0.0189245
-0.00227005
-0.0181148
-0.00239207
-0.0170237
-0.00269024
-0.0155022
-0.00289547
-0.00484116
-0.0134786
-0.0202108
-0.00205596
-0.0201705
-0.00219869
-0.0200499
-0.00234823
-0.0198122
-0.00250781
-0.0194116
-0.0027926
-0.0187329
-0.00336898
-0.0175167
-0.00411169
-0.0066712
-0.0156866
-0.0196285
-0.00185612
-0.0198195
-0.00200772
-0.0199864
-0.00218127
-0.0201007
-0.00239357
-0.0201223
-0.00277094
-0.0199309
-0.00356035
-0.0191861
-0.00485656
-0.00802597
-0.0178313
-0.0186468
-0.00154033
-0.0189901
-0.00166445
-0.0193596
-0.00181171
-0.0197439
-0.00200925
-0.0201239
-0.00239095
-0.0204072
-0.00327707
-0.0202252
-0.00503853
-0.00866349
-0.0195877
-0.0173687
-0.00117343
-0.0177816
-0.00125157
-0.0182512
-0.00134214
-0.0187857
-0.00147473
-0.0193974
-0.00177927
-0.0200549
-0.00261956
-0.0204431
-0.00465035
-0.00843086
-0.0206757
-0.0158534
-0.000805575
-0.0162678
-0.000837183
-0.0167452
-0.000864705
-0.0173082
-0.000911734
-0.0179982
-0.00108926
-0.0188617
-0.00175614
-0.0197316
-0.00378044
-0.00729275
-0.0208697
-0.0140679
-0.000478244
-0.0144237
-0.000481445
-0.0148183
-0.000470088
-0.015276
-0.000454078
-0.0158615
-0.000503728
-0.0167216
-0.000896014
-0.0179783
-0.00252375
-0.00534783
-0.0199232
-0.0118565
-0.000223829
-0.012107
-0.000230943
-0.0123492
-0.000227943
-0.0125956
-0.000207655
-0.0129121
-0.000187229
-0.0135253
-0.000282777
-0.0149604
-0.00108863
-0.00281566
-0.0174926
-0.00817047
-0.00840141
-0.00862936
-0.00883701
-0.00902424
-0.00930702
-0.0103956
-0.0132113
-0.0636925
-3.63154
0.0519209
-3.08168
0.152941
-2.6951
0.239919
-2.34049
0.314892
-2.03302
0.379866
-1.76545
0.436169
-1.53325
0.485009
-1.33169
0.527392
-1.1567
0.564186
-1.00474
0.596137
-0.872756
0.623889
-0.758109
0.647998
-0.658515
0.66895
-0.572
0.687166
-0.496848
0.70301
-0.431566
0.716788
-0.374854
0.728778
-0.325598
0.739211
-0.282811
0.748288
-0.245643
0.756184
-0.213359
0.763052
-0.185316
0.769026
-0.160958
0.77422
-0.139801
0.778737
-0.121424
0.782663
-0.105462
0.786077
-0.0915982
0.789044
-0.0795565
0.791622
-0.0690977
0.793863
-0.0600137
0.79581
-0.0521238
0.797502
-0.045271
0.798972
-0.0393191
0.800249
-0.0341496
0.801359
-0.0296598
0.802323
-0.0257601
0.80316
-0.0223732
0.803887
-0.0194315
0.804519
-0.0168766
0.805067
-0.0146576
0.805544
-0.0127304
0.805957
-0.0110565
0.806317
-0.00960276
0.806629
-0.00834014
0.8069
-0.00724353
0.807136
-0.0062911
0.80734
-0.0054639
0.807518
-0.00474547
0.807672
-0.0041215
-0.00357958
0.807806
-0.0545672
-3.75448
0.046613
-3.18286
0.135436
-2.78392
0.211326
-2.41638
0.276917
-2.09861
0.333615
-1.82215
0.382779
-1.58241
0.425482
-1.3744
0.462624
-1.19384
0.49494
-1.03706
0.523065
-0.900882
0.547549
-0.782592
0.568863
-0.679829
0.587413
-0.59055
0.603552
-0.512987
0.617587
-0.445601
0.629791
-0.387059
0.640395
-0.336202
0.649608
-0.292023
0.65761
-0.253646
0.664561
-0.22031
0.670598
-0.191353
0.675841
-0.166201
0.680394
-0.144354
0.68435
-0.125379
0.687785
-0.108898
0.690769
-0.0945825
0.693362
-0.0821491
0.695614
-0.07135
0.697571
-0.0619704
0.699271
-0.0538237
0.700748
-0.0467478
0.70203
-0.040602
0.703145
-0.035264
0.704113
-0.0306277
0.704953
-0.0266009
0.705684
-0.0231034
0.706318
-0.0200657
0.706869
-0.0174274
0.707347
-0.0151359
0.707762
-0.0131457
0.708123
-0.0114172
0.708436
-0.009916
0.708708
-0.00861215
0.708944
-0.00747975
0.709149
-0.00649624
0.709328
-0.00564205
0.709482
-0.00490018
0.709617
-0.00425585
-0.00369626
0.709733
-0.0463592
-3.86274
0.042492
-3.27171
0.120351
-2.86178
0.186701
-2.48273
0.244099
-2.15601
0.29359
-1.87164
0.336451
-1.62528
0.373624
-1.41157
0.405897
-1.22611
0.433938
-1.0651
0.458303
-0.925246
0.479476
-0.803765
0.49788
-0.698232
0.513879
-0.606549
0.527791
-0.526899
0.539892
-0.457701
0.550417
-0.397585
0.559574
-0.345359
0.56754
-0.299989
0.574469
-0.260575
0.580496
-0.226337
0.585738
-0.196595
0.590297
-0.17076
0.594261
-0.148319
0.597708
-0.128826
0.600705
-0.111894
0.60331
-0.0971872
0.605573
-0.0844123
0.607539
-0.0733157
0.609245
-0.063677
0.610726
-0.0553047
0.612011
-0.0480325
0.613125
-0.0417161
0.614091
-0.03623
0.614929
-0.0314651
0.615654
-0.0273266
0.616283
-0.0237324
0.616829
-0.0206109
0.617301
-0.0178999
0.617711
-0.0155455
0.618066
-0.0135008
0.618374
-0.0117251
0.618641
-0.010183
0.618872
-0.00884368
0.619073
-0.00768056
0.619247
-0.00667044
0.619398
-0.00579318
0.619529
-0.00503131
0.619643
-0.00436965
-0.00379501
0.619742
-0.0389395
-3.95821
0.0391019
-3.34975
0.107343
-2.93002
0.165363
-2.54075
0.215464
-2.20611
0.258548
-1.91472
0.295809
-1.66254
0.328092
-1.44385
0.356118
-1.25414
0.380464
-1.08944
0.40162
-0.946403
0.420014
-0.82216
0.436013
-0.714231
0.449932
-0.620468
0.462043
-0.539009
0.472581
-0.468239
0.48175
-0.406754
0.489726
-0.353336
0.496665
-0.306927
0.502699
-0.266609
0.507946
-0.231584
0.512508
-0.201157
0.516473
-0.174725
0.519918
-0.151764
0.52291
-0.131818
0.525506
-0.11449
0.527755
-0.099436
0.5297
-0.0863573
0.531379
-0.0749952
0.532827
-0.0651248
0.534074
-0.0565511
0.535145
-0.0491044
0.536067
-0.0426372
0.536858
-0.0370211
0.537537
-0.0321444
0.538121
-0.0279102
0.538622
-0.0242338
0.539053
-0.0210418
0.539423
-0.0182706
0.539742
-0.0158645
0.540017
-0.0137756
0.540254
-0.0119619
0.540458
-0.0103872
0.540634
-0.00901993
0.540787
-0.00783277
0.540918
-0.00680197
0.541032
-0.00590691
0.54113
-0.00512969
0.541215
-0.0044548
-0.00386873
0.541289
-0.0323672
-4.0424
0.0361889
-3.41831
0.0960186
-2.98985
0.146712
-2.59145
0.190391
-2.24979
0.227845
-1.95218
0.260175
-1.69487
0.28812
-1.4718
0.312346
-1.27837
0.333369