/*--------------------------------*- C++ -*----------------------------------*\
  =========                 |
  \\      /  F ield         | OpenFOAM: The Open Source CFD Toolbox
   \\    /   O peration     | Website:  https://openfoam.org
    \\  /    A nd           | Version:  9
     \\/     M anipulation  |
\*---------------------------------------------------------------------------*/
FoamFile
{
    format      ascii;
    class       volVectorField;
    location    "0.008099";
    object      U;
}
// * * * * * * * * * * * * * * * * * * * * * * * * * * * * * * * * * * * * * //

dimensions      [0 1 -1 0 0 0 0];

internalField   nonuniform List<vector> 
5373
(
(2.58013 0.0668768 0)
(1.90228 -0.0211936 0)
(4.31782 0.0910928 3.71236e-16)
(3.94418 0.159202 -3.45594e-16)
(4.85713 0.167515 -2.62698e-16)
(5.35677 0.144186 -1.15391e-16)
(1.49341 -0.0964095 8.81539e-16)
(1.60167 -0.200394 -4.84279e-16)
(1.8859 -0.138955 -7.75036e-16)
(2.15506 0.0410203 2.94631e-16)
(2.38683 0.329597 2.32781e-16)
(2.58918 0.665667 0)
(2.75878 1.02118 -8.48482e-17)
(2.91506 1.40294 -2.31857e-16)
(3.10005 1.84557 1.43897e-16)
(3.31499 2.33022 1.36972e-16)
(3.54614 2.83815 1.00106e-21)
(3.78823 3.36383 1.32255e-16)
(4.04043 3.90898 1.32701e-16)
(4.29992 4.47436 -3.34739e-17)
(4.56217 5.05822 -3.43756e-17)
(4.82513 5.68351 7.19327e-17)
(5.11753 6.36411 3.8225e-17)
(5.47435 7.08339 0)
(5.9913 7.84637 2.84242e-17)
(6.74584 8.54466 -3.47825e-17)
(3.71765 0.252263 2.43748e-16)
(3.71554 0.330831 -5.94582e-17)
(3.80732 0.440546 -2.80698e-16)
(3.93135 0.588516 3.21279e-16)
(4.05353 0.785841 0)
(4.16696 1.02979 3.83915e-22)
(4.27024 1.31598 -9.94927e-17)
(4.36837 1.6497 -1.97811e-16)
(4.48517 2.03387 1.48113e-16)
(4.63365 2.47055 -4.99451e-17)
(4.81062 2.95749 5.11965e-17)
(5.01126 3.48992 1.05985e-16)
(5.23421 4.07181 -2.71546e-17)
(5.48186 4.71343 5.49169e-17)
(5.76199 5.42757 -1.01851e-21)
(6.0668 6.22366 1.44437e-17)
(6.39736 7.11949 -6.04523e-17)
(6.77871 8.14149 1.60413e-17)
(7.33245 9.31634 -1.73906e-17)
(8.04821 10.5492 1.92246e-17)
(4.76416 0.242394 1.58193e-16)
(4.76376 0.309684 0)
(4.80982 0.407262 2.63275e-16)
(4.87859 0.541823 -3.06353e-22)
(4.95048 0.724841 -8.50212e-17)
(5.0195 0.951182 6.80075e-22)
(5.08672 1.21891 0)
(5.1581 1.53407 1.70679e-16)
(5.24624 1.90195 -4.31656e-17)
(5.36433 2.32655 -1.31912e-21)
(5.51803 2.80447 -9.07618e-17)
(5.7066 3.32983 -9.44758e-17)
(5.93034 3.90677 2.40695e-17)
(6.19145 4.5449 -7.27151e-17)
(6.49624 5.25671 -7.37775e-17)
(6.8577 6.05639 0)
(7.28084 6.96684 0)
(7.76147 8.01264 0)
(8.40598 9.19872 3.62796e-18)
(9.23887 10.4911 9.76317e-18)
(5.32097 0.220156 1.74975e-16)
(5.33477 0.292746 -3.87252e-17)
(5.37636 0.386073 -1.54356e-16)
(5.4333 0.504781 1.53611e-16)
(5.49522 0.657533 -3.54014e-22)
(5.55777 0.848336 4.449e-22)
(5.62146 1.08402 7.82625e-17)
(5.69115 1.36868 -7.95802e-17)
(5.77727 1.70456 8.12225e-17)
(5.89051 2.09884 -4.1734e-17)
(6.04062 2.54772 0)
(6.23155 3.04959 4.49269e-17)
(6.46648 3.60953 -6.78646e-17)
(6.74695 4.2379 -2.25162e-17)
(7.07977 4.94405 9.03167e-17)
(7.47677 5.74138 1.14019e-17)
(7.96385 6.64884 -2.32137e-17)
(8.54163 7.68738 -1.19421e-17)
(9.26152 8.88107 -3.1314e-18)
(10.1422 10.2489 -3.80878e-17)
(5.66532 0.186388 1.43356e-16)
(5.68496 0.252504 -1.06708e-16)
(5.72515 0.33375 -1.43166e-16)
(5.77875 0.436256 7.19223e-17)
(5.83915 0.568338 -7.25249e-17)
(5.90265 0.735389 7.35402e-17)
(5.97017 0.943458 -1.49848e-16)
(6.04582 1.19621 -7.66879e-17)
(6.13804 1.50037 1.57768e-16)
(6.25738 1.86161 4.07691e-17)
(6.41387 2.27733 -8.46085e-17)
(6.61443 2.74997 8.8222e-17)
(6.86485 3.2846 2.20356e-17)
(7.16983 3.89008 -1.28339e-21)
(7.53724 4.5805 -6.43933e-17)
(7.97972 5.36857 3.20678e-17)
(8.52095 6.27415 -2.14339e-17)
(9.18658 7.31554 3.24763e-17)
(10.0269 8.51686 2.77819e-18)
(10.96 9.95105 1.87301e-17)
(5.89561 0.147392 2.71106e-16)
(5.91838 0.209835 -1.00818e-16)
(5.95546 0.284873 0)
(6.00377 0.37664 1.37867e-16)
(6.05982 0.491373 -2.09946e-16)
(6.12271 0.636513 -7.13991e-17)
(6.19371 0.816957 2.19648e-16)
(6.27665 1.038 -1.50861e-16)
(6.37752 1.30796 -7.80471e-17)
(6.50603 1.63029 2.0252e-16)
(6.6727 2.008 -8.4342e-17)
(6.88614 2.44598 0)
(7.15449 2.95024 4.3925e-17)
(7.48563 3.5275 0)
(7.88777 4.19093 -4.18571e-17)
(8.37674 4.96032 -1.02863e-17)
(8.97945 5.85279 -3.04793e-17)
(9.72298 6.89211 0)
(10.6935 8.08005 0)
(11.7438 9.53121 0)
(6.07443 0.165704 -2.91096e-16)
(6.10906 0.232206 1.32176e-16)
(6.1524 0.313018 -6.73512e-17)
(6.20486 0.414606 6.88197e-17)
(6.2663 0.541199 0)
(6.33845 0.69822 0)
(6.42514 0.891614 0)
(6.53225 1.12832 -7.81821e-17)
(6.66816 1.41389 4.65392e-22)
(6.84364 1.75439 1.2756e-16)
(7.06998 2.15204 -4.45619e-17)
(7.35637 2.61338 -2.22435e-17)
(7.71295 3.15026 -4.2983e-17)
(8.15108 3.77825 2.08207e-17)
(8.68475 4.5171 -3.03288e-17)
(9.34563 5.38991 3.27147e-22)
(10.1643 6.41763 -9.62384e-18)
(11.2513 7.59655 2.37345e-18)
(12.4594 9.04204 1.52895e-17)
(6.20828 0.183032 -3.19381e-22)
(6.24907 0.253437 6.66958e-17)
(6.29832 0.342388 -1.37014e-16)
(6.35748 0.453195 7.06299e-17)
(6.42896 0.590244 -7.31046e-17)
(6.51686 0.758858 -7.59627e-17)
(6.62715 0.965106 3.67741e-22)
(6.7679 1.21462 4.14116e-17)
(6.94858 1.51234 -8.68292e-17)
(7.18173 1.86332 4.56535e-17)
(7.48122 2.27838 -2.2873e-17)
(7.85987 2.77178 -1.27683e-21)
(8.33175 3.35796 2.10707e-17)
(8.91292 4.05624 1.01117e-17)
(9.63387 4.89734 -1.94348e-17)
(10.5258 5.90417 2.80756e-17)
(11.7118 7.07584 -1.81451e-17)
(13.0983 8.49354 -1.86883e-17)
(6.30895 0.198731 -6.68063e-17)
(6.3563 0.274972 0)
(6.413 0.370454 0)
(6.48236 0.488403 0)
(6.56887 0.633414 4.31239e-22)
(6.67861 0.810805 8.11912e-17)
(6.81983 1.02624 8.51882e-17)
(7.00298 1.28609 -8.95523e-17)
(7.24043 1.59945 9.43091e-17)
(7.5476 1.97474 2.37306e-17)
(7.94126 2.42347 -2.26786e-17)
(8.43944 2.96176 0)
(9.06213 3.61019 3.07883e-17)
(9.84206 4.39979 1.45485e-21)
(10.8139 5.36442 9.2519e-18)
(12.0848 6.52067 1.76506e-17)
(13.6566 7.90832 -1.04753e-18)
(6.34117 0.152596 -6.76643e-17)
(6.38722 0.215424 0)
(6.44125 0.295878 7.3087e-17)
(6.50732 0.396331 -1.52453e-16)
(6.59055 0.52073 -3.57019e-22)
(6.69734 0.673967 -1.67179e-16)
(6.83602 0.861622 4.37162e-22)
(7.01748 1.08992 -1.34374e-22)
(7.25499 1.36587 -9.74986e-17)
(7.56527 1.69851 2.46882e-17)
(7.96832 2.10021 -2.35442e-17)
(8.48604 2.58801 0)
(9.14316 3.18296 1.05289e-17)
(9.97486 3.91551 -1.97954e-17)
(11.0293 4.82213 9.2812e-18)
(12.3875 5.93442 0)
(14.1343 7.3031 0)
(6.39549 0.167173 0)
(6.44573 0.234251 7.49607e-17)
(6.50648 0.319313 1.56576e-16)
(6.58364 0.425459 8.19426e-17)
(6.68432 0.556632 8.59509e-17)
(6.81724 0.717784 -1.08624e-21)
(6.99376 0.9151 -1.10619e-21)
(7.22794 1.15551 5.02461e-17)
(7.53751 1.44816 -2.56152e-17)
(7.94513 1.80452 -1.29223e-21)
(8.47656 2.24106 -4.63081e-17)
(9.16185 2.77925 3.26478e-17)
(10.0389 3.44868 1.01596e-17)
(11.1687 4.28902 -1.88648e-17)
(12.6208 5.32807 2.18559e-18)
(14.5368 6.67063 -1.90553e-17)
(6.37817 0.129293 7.36801e-17)
(6.42253 0.183692 -7.67905e-17)
(6.47586 0.254151 -8.01798e-17)
(6.54443 0.343545 -8.39039e-17)
(6.6361 0.454974 4.39945e-17)
(6.76042 0.592348 9.24786e-17)
(6.92935 0.761319 -4.53406e-22)
(7.15768 0.968448 -5.1453e-17)
(7.46372 1.22239 5.27823e-17)
(7.87223 1.53438 -5.0634e-17)
(8.41265 1.92021 0)
(9.12037 2.40063 -1.12971e-17)
(10.037 3.0033 -2.10266e-17)
(11.2348 3.77001 4.84782e-17)
(12.7806 4.72615 2.2226e-18)
(14.8645 6.00034 -1.00661e-18)
(6.36441 0.141576 0)
(6.40862 0.198921 8.1829e-17)
(6.46676 0.272679 -1.71181e-16)
(6.5471 0.366141 1.34651e-16)
(6.66015 0.482095 0)
(6.81903 0.625337 0)
(7.03959 0.801941 0)
(7.34027 1.01963 8.11039e-17)
(7.74746 1.28894 -1.72747e-21)
(8.29356 1.62476 -2.49493e-17)
(9.01887 2.04733 1.1775e-17)
(9.96939 2.58151 -3.29018e-17)
(11.2299 3.26913 -2.0151e-17)
(12.8609 4.13162 -1.83344e-17)
(15.1169 5.29783 1.53709e-17)
(6.30548 0.155467 0)
(6.35075 0.215654 0)
(6.41749 0.292336 0)
(6.5164 0.388187 -4.84299e-17)
(6.66132 0.507199 5.10573e-17)
(6.86939 0.654403 0)
(7.16186 0.837394 -2.77927e-17)
(7.56666 1.06652 -2.7015e-17)
(8.1164 1.35499 0)
(8.85592 1.72079 0)
(9.83523 2.18531 2.31295e-17)
(11.1534 2.78976 2.12098e-17)
(12.8622 3.54987 1.91738e-17)
(15.2859 4.59622 -1.06051e-18)
(6.15302 0.119999 0)
(6.18304 0.168984 -4.53387e-17)
(6.23488 0.231125 2.38506e-16)
(6.31954 0.309676 5.02779e-17)
(6.45105 0.407705 -1.06147e-16)
(6.64708 0.529119 5.60735e-17)
(6.92906 0.679429 -5.78381e-17)
(7.32639 0.867845 2.83652e-17)
(7.87735 1.11103 -2.75979e-17)
(8.62915 1.42271 -1.32336e-17)
(9.63365 1.81732 1.23988e-17)
(11.0046 2.33524 -2.2688e-17)
(12.7855 2.98521 0)
(15.3713 3.89441 7.8305e-18)
(5.92848 0.0916047 0)
(5.94186 0.130621 -1.43344e-16)
(5.97854 0.180403 1.00809e-16)
(6.04958 0.243557 5.32462e-17)
(6.16897 0.322725 5.63327e-17)
(6.35449 0.421642 2.98271e-17)
(6.62801 0.54388 -6.789e-22)
(7.02041 0.6981 0)
(7.57023 0.895311 3.00557e-17)
(8.33077 1.15361 0)
(9.35782 1.48106 0)
(10.7784 1.91222 -6.18436e-18)
(12.6245 2.45085 5.535e-18)
(15.3725 3.20612 -9.64347e-18)
(5.59195 0.101678 -1.5632e-16)
(5.61413 0.140548 -5.51786e-17)
(5.67275 0.189954 -5.8468e-17)
(5.78159 0.252184 -6.19797e-17)
(5.95819 0.330415 -3.28366e-17)
(6.22546 0.427073 -3.36657e-17)
(6.61483 0.550686 -6.71908e-17)
(7.16739 0.70548 -3.32402e-17)
(7.93958 0.905961 3.21205e-17)
(8.9878 1.16418 -3.02052e-17)
(10.4583 1.50398 0)
(12.3711 1.91318 0)
(15.2735 2.48819 9.34333e-18)
(5.06053 0.0802396 -6.00412e-17)
(5.07048 0.109627 1.27432e-16)
(5.11868 0.147625 0)
(5.21967 0.195743 -7.14422e-17)
(5.39027 0.257079 7.51691e-17)
(5.65551 0.333092 3.81137e-17)
(6.04721 0.431256 3.79917e-17)
(6.60697 0.555842 3.7444e-17)
(7.39604 0.711882 -3.62688e-17)
(8.47089 0.915376 3.44016e-17)
(9.99109 1.19317 -7.90248e-18)
(11.9723 1.51672 7.03064e-18)
(15.0109 1.90463 -1.97592e-17)
(4.19914 0.0717426 2.041e-17)
(4.24241 0.0967719 -1.72425e-16)
(4.34014 0.127859 9.09298e-17)
(4.51086 0.165797 -9.41971e-17)
(4.77769 0.212881 -1.1846e-17)
(5.17395 0.271983 0)
(5.74277 0.343708 0)
(6.5533 0.427931 0)
(7.66993 0.526233 0)
(9.26832 0.649531 -9.62169e-18)
(11.3508 0.79747 4.20158e-18)
(14.5929 0.940136 9.01271e-18)
(2.35571 0.199711 -5.48501e-16)
(2.39227 0.23776 2.675e-16)
(2.47302 0.288404 1.37705e-16)
(2.61076 0.353357 -2.77239e-16)
(2.82422 0.436136 2.22858e-16)
(3.14712 0.540152 -1.33413e-16)
(3.62092 0.667149 1.27547e-16)
(4.31819 0.821856 -5.98672e-17)
(5.29232 0.992497 -2.75702e-17)
(6.8124 1.16428 3.75059e-17)
(8.54904 1.29078 -1.08207e-17)
(12.3682 1.2291 2.31797e-18)
(8.00008 9.20042 5.6555e-17)
(9.7017 10.0556 -2.23146e-17)
(11.4443 10.9112 -3.07838e-18)
(13.3394 11.6583 1.50036e-18)
(15.4504 12.3057 -1.47278e-18)
(17.8299 12.8801 0)
(20.5767 13.3972 0)
(23.7771 13.8637 0)
(27.5346 14.2636 2.20729e-17)
(31.9703 14.5839 4.3257e-17)
(37.2344 14.7971 -2.05798e-20)
(43.5091 14.8631 1.677e-20)
(50.9642 14.7226 3.86755e-20)
(59.8733 14.3179 -3.76944e-20)
(70.2111 13.4996 -9.10971e-18)
(82.5619 12.1801 -3.42228e-20)
(94.9122 10.2178 0)
(110.456 7.71488 6.98969e-21)
(115.974 4.54216 -6.9367e-21)
(126.406 0.54587 -6.59884e-19)
(9.28745 11.7485 -2.22711e-17)
(11.02 12.9283 2.18949e-17)
(12.9912 14.1253 0)
(15.2399 15.24 -2.23085e-17)
(17.8521 16.2742 1.28913e-18)
(20.8904 17.2723 0)
(24.4455 18.2628 1.98755e-17)
(28.6358 19.2508 -1.95135e-17)
(33.6264 20.2513 -1.91405e-17)
(39.6229 21.2494 -1.87242e-17)
(46.8851 22.2092 -1.77875e-20)
(55.7533 23.0776 -1.77502e-17)
(66.6127 23.7693 1.71915e-17)
(80.0098 24.1503 0)
(96.2684 24.0569 3.01532e-20)
(116.467 23.2823 -2.91773e-20)
(139.178 21.4994 6.75111e-18)
(167.536 18.4437 1.25295e-20)
(189.753 14.1456 1.34188e-18)
(221.302 3.00091 2.0907e-21)
(10.6449 11.5432 -1.67828e-17)
(12.4815 12.4683 1.91215e-17)
(14.5692 13.4046 0)
(16.8908 14.302 3.86092e-17)
(19.5636 15.1607 1.74216e-17)
(22.6632 16.018 -1.87014e-17)
(26.2866 16.8854 -1.79456e-17)
(30.5645 17.7571 1.80229e-17)
(35.6673 18.6247 3.55366e-17)
(41.8142 19.486 -1.74727e-17)
(49.2833 20.3239 0)
(58.4416 21.1028 0)
(69.7191 21.7546 -3.26434e-17)
(83.7228 22.2045 7.85543e-18)
(100.928 22.2284 2.88497e-20)
(122.408 21.5474 -2.79146e-20)
(147.376 19.9485 -6.43903e-18)
(178.299 16.9908 5.52891e-21)
(206.686 13.978 -1.24909e-18)
(240.864 1.4632 0)
(11.5208 11.3337 1.92606e-17)
(13.2511 12.2544 -1.72848e-17)
(15.2406 13.1811 0)
(17.4548 14.0711 -1.62716e-17)
(20.0341 14.9227 -1.85011e-17)
(23.0699 15.766 1.71199e-17)
(26.6504 16.6135 1.7315e-17)
(30.903 17.4605 1.74579e-17)
(35.9917 18.3091 -1.70153e-17)
(42.1357 19.1527 3.35839e-17)
(49.6162 19.9674 -1.60798e-20)
(58.8035 20.7071 1.58371e-20)
(70.1393 21.3072 1.57528e-17)
(84.2377 21.6353 -7.60892e-18)
(101.576 21.5506 2.81393e-20)
(123.227 20.8117 -2.73168e-20)
(148.454 19.3281 3.20884e-18)
(179.679 16.2995 -6.31209e-21)
(209.093 13.4537 -7.32633e-21)
(243.677 0.661557 1.83167e-21)
(12.3628 10.9938 1.94978e-18)
(14.0786 11.8162 1.97286e-18)
(16.0741 12.6266 1.48735e-17)
(18.2956 13.3988 1.49942e-17)
(20.8781 14.1433 1.61111e-17)
(23.9181 14.8875 0)
(27.4966 15.6437 -8.63115e-22)
(31.738 16.4074 -1.6083e-17)
(36.8092 17.1764 0)
(42.93 17.9411 -1.57853e-17)
(50.3811 18.6789 -1.51513e-20)
(59.5307 19.3504 1.49635e-20)
(70.8179 19.89 -7.46526e-18)
(84.8536 20.2023 0)
(102.112 20.1321 -6.96338e-18)
(123.679 19.4287 -2.62596e-20)
(148.796 17.9842 -3.15421e-18)
(179.991 15.0098 5.37519e-21)
(209.101 12.528 -4.96972e-21)
(243.858 -0.360969 -4.3932e-19)
(13.1948 10.5494 -1.45362e-17)
(14.877 11.3175 0)
(16.8358 12.0705 -1.3915e-17)
(19.0154 12.7912 -1.59231e-17)
(21.552 13.4979 -1.55943e-17)
(24.5522 14.2078 2.37793e-19)
(28.0985 14.9261 -1.49728e-17)
(32.3131 15.648 0)
(37.3639 16.3711 1.50594e-17)
(43.4678 17.0884 0)
(50.9019 17.7782 1.42875e-20)
(60.0329 18.4007 -1.41106e-20)
(71.2939 18.8983 7.04659e-18)
(85.2964 19.1592 0)
(102.503 19.0535 6.66244e-18)
(124.006 18.3158 6.29767e-18)
(149.002 16.8919 0)
(180.171 13.919 2.77217e-18)
(208.848 11.7113 -2.27077e-21)
(243.949 -1.36041 4.26858e-19)
(13.9694 10.0471 2.94137e-17)
(15.6184 10.7647 0)
(17.5513 11.4496 -1.41545e-17)
(19.7108 12.0999 1.51785e-17)
(22.2288 12.7428 -9.00484e-19)
(25.2148 13.3894 -2.25824e-19)
(28.7494 14.0426 2.26106e-19)
(32.9512 14.7007 0)
(37.9876 15.362 -1.42983e-17)
(44.0744 16.0203 0)
(51.4877 16.6537 6.94815e-18)
(60.5922 17.2242 -6.78376e-18)
(71.8191 17.6753 -2.61147e-20)
(85.7768 17.9016 0)
(102.92 17.7871 6.30913e-18)
(124.35 17.0611 -6.02634e-18)
(149.203 15.7305 -1.1693e-20)
(180.374 12.7951 -2.66215e-18)
(208.525 10.8607 -1.18684e-18)
(244.421 -1.99212 0)
(14.6859 9.48013 -1.17361e-17)
(16.3063 10.1439 -1.1881e-17)
(18.2113 10.7618 1.28654e-17)
(20.3506 11.3519 -1.47084e-17)
(22.8489 11.9452 1.3937e-17)
(25.8165 12.545 0)
(29.3354 13.1501 1.39478e-17)
(33.5229 13.7599 -1.38704e-17)
(38.5461 14.3711 6.86978e-18)
(44.6201 14.9767 0)
(52.0193 15.5567 1.2386e-20)
(61.1058 16.0763 6.49436e-18)
(72.3076 16.4827 -6.37109e-18)
(86.2296 16.6763 -6.14131e-18)
(103.318 16.5495 2.19401e-20)
(124.687 15.8375 -3.37452e-20)
(149.385 14.5928 1.12221e-20)
(180.645 11.7076 4.81436e-21)
(207.979 9.99567 1.15638e-18)
(245.89 -2.69583 0)
(15.3409 8.86562 1.64785e-18)
(16.9329 9.47122 1.50015e-17)
(18.8082 10.0266 -1.4327e-17)
(20.9305 10.5607 -5.34504e-22)
(23.4144 11.1031 -8.55102e-19)
(26.3686 11.6519 0)
(29.8773 12.2041 -1.36339e-17)
(34.0564 12.7602 2.02937e-17)
(39.0719 13.3171 -6.68718e-18)
(45.1377 13.8672 0)
(52.5271 14.391 -1.29214e-17)
(61.6 14.858 -6.28639e-18)
(72.7814 15.2181 6.13244e-18)
(86.673 15.3779 1.19006e-17)
(103.71 15.2382 -5.75637e-18)
(125.03 14.5502 -2.19887e-20)
(149.552 13.3877 -1.03334e-20)
(181.022 10.6398 1.00555e-20)
(206.983 9.0754 -1.14967e-18)
(249.383 -3.30479 1.96418e-19)
(15.9214 8.21038 0)
(17.4924 8.75162 1.32424e-17)
(19.3411 9.24884 1.33942e-17)
(21.4498 9.73017 0)
(23.9235 10.2219 -1.35626e-17)
(26.867 10.7205 0)
(30.3675 11.2217 0)
(34.5406 11.7262 -6.68254e-18)
(39.5509 12.2309 0)
(45.6114 12.7275 6.48329e-18)
(52.9948 13.1954 6.33551e-18)
(62.0591 13.6073 1.26957e-20)
(73.2261 13.918 0)
(87.0937 14.0412 -5.83788e-18)
(104.088 13.886 2.18166e-20)
(125.364 13.2261 2.692e-18)
(149.714 12.1387 1.06522e-20)
(181.437 9.59805 1.23787e-18)
(205.669 8.07342 -6.90912e-21)
(254.387 -3.89042 -3.81342e-19)
(16.4242 7.51322 1.64535e-18)
(17.9827 7.99128 -1.16237e-17)
(19.8098 8.43566 -8.40458e-19)
(21.9067 8.86771 -7.61602e-18)
(24.372 9.31026 0)
(27.307 9.75984 0)
(30.8014 10.2107 0)
(34.9716 10.6628 0)
(39.981 11.1125 -6.59118e-18)
(46.0405 11.5524 -6.47552e-18)
(53.4216 11.9631 -6.3371e-18)
(62.4815 12.3186 1.23604e-17)
(73.639 12.5768 0)
(87.4881 12.6612 0)
(104.448 12.4879 2.18013e-20)
(125.679 11.858 -2.74553e-18)
(149.903 10.8456 0)
(181.7 8.53573 -1.22959e-18)
(205.095 7.00428 1.75943e-18)
(255.542 -4.49887 1.90587e-19)
(16.8417 6.77592 -1.66714e-18)
(18.3933 7.19934 6.72461e-18)
(20.2063 7.59372 8.50188e-19)
(22.2959 7.97574 1.37092e-17)
(24.7572 8.36668 -8.172e-18)
(27.6873 8.76538 4.30008e-19)
(31.1781 9.16547 0)
(35.3465 9.56797 0)
(40.3557 9.96786 6.67853e-18)
(46.4176 10.3509 0)
(53.801 10.7016 6.41677e-18)
(62.8607 11.0007 -6.26472e-18)
(74.0139 11.205 0)
(87.8498 11.2488 2.96877e-18)
(104.782 11.0568 2.90321e-18)
(125.971 10.4577 -3.25514e-20)
(150.102 9.52509 5.19831e-22)
(181.865 7.44485 1.00571e-20)
(204.923 5.92009 3.08987e-23)
(255.363 -5.01395 0)
(17.1818 6.0056 1.70068e-18)
(18.7278 6.37799 -6.86125e-18)
(20.5268 6.72848 6.94384e-18)
(22.608 7.06887 -6.12475e-18)
(25.0669 7.41375 6.1498e-18)
(27.996 7.76325 0)
(31.4887 8.11015 0)
(35.6631 8.45041 6.9329e-18)
(40.6756 8.79532 -6.84784e-18)
(46.7396 9.12697 0)
(54.1288 9.41584 -1.28756e-20)
(63.1927 9.65719 1.26704e-20)
(74.3463 9.80859 0)
(88.1747 9.81236 -3.06663e-18)
(105.087 9.60333 -2.95185e-18)
(126.24 9.03801 -2.26339e-20)
(150.293 8.19125 0)
(182.005 6.33927 4.79253e-21)
(204.778 4.84519 -7.39862e-21)
(255.305 -5.43338 -9.57774e-20)
(17.4332 5.23148 8.72657e-18)
(18.978 5.55735 0)
(20.7712 5.86802 -6.24056e-18)
(22.8468 6.16972 -8.99432e-19)
(25.3026 6.47075 7.22852e-18)
(28.2304 6.77251 0)
(31.7233 7.06683 0)
(35.9057 7.34466 3.46813e-23)
(40.933 7.61497 2.49187e-23)
(47.0047 7.89259 -3.49438e-18)
(54.4011 8.12713 -3.42111e-18)
(63.4741 8.30992 3.35184e-18)
(74.633 8.41055 -2.55063e-20)
(88.46 8.37556 2.51313e-20)
(105.36 8.15165 2.3841e-20)
(126.484 7.62199 1.44765e-18)
(150.47 6.8657 1.13794e-20)
(182.134 5.23958 4.91943e-21)
(204.631 3.79534 -6.33183e-19)
(255.295 -5.52664 1.012e-19)
(17.5977 4.46249 -5.40487e-18)
(19.1416 4.7522 -1.81856e-18)
(20.9314 5.02323 9.21656e-19)
(23.0058 5.27876 1.85875e-18)
(25.4642 5.52636 -8.40986e-18)
(28.3966 5.77082 -2.33867e-19)
(31.8948 6.00689 2.33673e-19)
(36.0828 6.22853 -7.43e-18)
(41.1252 6.43155 7.36714e-18)
(47.2164 6.62607 3.64122e-18)
(54.6237 6.81043 3.58431e-18)
(63.709 6.93454 -1.69905e-22)
(74.8781 6.9859 0)
(88.709 6.91873 -3.33855e-18)
(105.604 6.68756 2.4838e-20)
(126.707 6.20246 -1.56286e-18)
(150.638 5.54635 1.11495e-20)
(182.255 4.14775 -5.77569e-21)
(204.508 2.76269 -5.10532e-21)
(255.318 -5.42386 0)
(17.6838 3.67993 0)
(19.2295 3.92454 3.77903e-18)
(21.015 4.16364 3.82661e-18)
(23.0846 4.39399 0)
(25.5409 4.62043 0)
(28.4766 4.83451 3.88931e-18)
(31.9824 5.02808 0)
(36.1832 5.19197 0)
(41.24 5.33319 0)
(47.3566 5.43091 0)
(54.7854 5.56304 1.45428e-20)
(63.8882 5.64131 -7.37087e-18)
(75.0757 5.64147 2.8067e-20)
(88.9201 5.53976 5.20313e-18)
(105.821 5.29348 2.5711e-20)
(126.92 4.84019 1.55981e-18)
(150.82 4.27457 0)
(182.389 3.0866 6.85348e-19)
(204.487 1.75938 0)
(255.319 -4.97885 0)
(17.6801 2.80749 1.95535e-18)
(19.2519 2.96475 -1.97105e-18)
(21.0582 3.12243 -5.97926e-18)
(23.1418 3.2793 1.0029e-18)
(25.6048 3.44519 -1.00686e-18)
(28.541 3.61394 -4.03038e-18)
(32.0453 3.7813 0)
(36.2477 3.93019 0)
(41.3132 4.03752 0)
(47.452 4.09759 0)
(54.9126 4.14774 1.91334e-18)
(64.0371 4.18864 1.9039e-18)
(75.2481 4.15313 0)
(89.1172 4.04305 -2.23994e-22)
(106.04 3.82222 0)
(127.159 3.43491 -1.61603e-18)
(151.043 2.98898 0)
(182.521 2.00534 -6.88242e-19)
(204.46 0.755319 -7.41213e-21)
(255.057 -4.1538 1.89465e-21)
(17.4805 2.18417 -2.05011e-18)
(19.0657 2.36491 -4.12178e-18)
(20.8895 2.52953 3.1056e-18)
(22.9946 2.66229 -3.11314e-18)
(25.4843 2.78262 -2.07585e-18)
(28.4497 2.90266 -2.07337e-18)
(31.9798 3.0169 -2.58306e-19)
(36.1983 3.13048 2.30773e-18)
(41.2791 3.19468 2.02982e-18)
(47.4386 3.18338 2.00217e-18)
(54.9358 3.12059 -1.98165e-18)
(64.0996 3.09056 1.93743e-18)
(75.3418 2.98693 -9.34732e-19)
(89.2288 2.78742 -2.70882e-18)
(106.115 2.50234 0)
(127.15 2.10564 -1.25029e-20)
(150.637 1.71845 3.96122e-19)
(181.691 0.973959 5.26538e-21)
(202.307 -0.178722 -1.60331e-19)
(252.356 -2.93043 6.63116e-20)
(17.2008 0.937591 4.29831e-18)
(18.8054 0.988549 0)
(20.618 1.04249 2.14787e-18)
(22.7075 1.08527 2.14481e-18)
(25.1869 1.13132 -4.21507e-22)
(28.1387 1.17972 2.13253e-18)
(31.6536 1.22431 -1.06016e-18)
(35.8404 1.28363 -1.04868e-18)
(40.8507 1.3353 -2.07222e-18)
(46.9034 1.37004 -2.04195e-18)
(54.2454 1.35247 0)
(63.1545 1.29905 -3.05674e-20)
(73.9721 1.27655 9.88795e-19)
(87.196 1.18865 4.65318e-19)
(103.031 1.03255 0)
(122.532 0.808614 0)
(143.047 0.577836 -4.02795e-19)
(173.482 0.20277 1.87229e-19)
(185.711 -0.674782 8.37563e-20)
(228.829 -1.20263 -8.16696e-20)
(14.1199 1.11304 -4.19333e-22)
(15.7325 1.09608 2.50705e-18)
(17.4503 1.09185 -2.48196e-18)
(19.3593 1.09278 1.22782e-18)
(21.5804 1.10026 1.21578e-18)
(24.1654 1.10481 0)
(27.1641 1.09714 1.19312e-18)
(30.6391 1.06763 -1.18066e-18)
(34.6908 1.00813 -3.64751e-20)
(39.4308 0.917384 3.62162e-20)
(44.9886 0.690488 -1.78245e-20)
(51.4981 0.258492 1.77112e-20)
(59.047 -0.202506 0)
(67.7697 -0.754875 5.45891e-19)
(77.5511 -1.38039 0)
(88.675 -1.98945 -1.5732e-20)
(99.1765 -2.49236 1.56752e-20)
(112.843 -2.58548 -2.33127e-19)
(111.502 -2.33862 1.08633e-19)
(133.009 -0.761774 0)
(30.6336 -1.34021 0)
(30.6308 -1.33987 0)
(30.6281 -1.33953 0)
(30.6254 -1.33921 0)
(30.6226 -1.33891 0)
(30.62 -1.33863 0)
(30.6173 -1.33837 0)
(30.6147 -1.33814 0)
(30.6117 -1.33795 0)
(29.5232 -0.872046 0)
(29.5224 -0.875859 0)
(29.5217 -0.879647 0)
(29.5209 -0.883412 0)
(29.5202 -0.887155 0)
(29.5195 -0.890875 0)
(29.5188 -0.894562 0)
(29.5182 -0.898175 0)
(29.5174 -0.901519 0)
(29.5856 -1.17046 0)
(29.5864 -1.17255 0)
(29.5873 -1.17463 0)
(29.5882 -1.1767 0)
(29.5891 -1.17876 0)
(29.5899 -1.18081 0)
(29.5908 -1.18286 0)
(29.5916 -1.18486 0)
(29.5926 -1.18671 0)
(29.4287 -1.02409 0)
(29.4289 -1.02682 0)
(29.4291 -1.02955 0)
(29.4294 -1.03227 0)
(29.4296 -1.03498 0)
(29.4299 -1.03768 0)
(29.4301 -1.04038 0)
(29.4304 -1.04306 0)
(29.4306 -1.04562 0)
(29.2621 -1.17261 0)
(29.2634 -1.17568 0)
(29.2646 -1.17874 0)
(29.2659 -1.18179 0)
(29.2672 -1.18483 0)
(29.2685 -1.18785 0)
(29.2698 -1.19086 0)
(29.2711 -1.19381 0)
(29.2724 -1.19652 0)
(29.1375 -1.16489 0)
(29.1388 -1.16818 0)
(29.1401 -1.17146 0)
(29.1414 -1.17472 0)
(29.1428 -1.17797 0)
(29.1441 -1.18121 0)
(29.1455 -1.18442 0)
(29.1469 -1.18758 0)
(29.1482 -1.19048 0)
(28.9775 -1.27639 0)
(28.9798 -1.28043 0)
(28.9821 -1.28445 0)
(28.9844 -1.28844 0)
(28.9867 -1.29242 0)
(28.989 -1.29637 0)
(28.9913 -1.3003 0)
(28.9937 -1.3042 0)
(28.996 -1.30809 0)
(28.8469 -1.34115 0)
(28.8499 -1.34559 0)
(28.8529 -1.34999 0)
(28.8559 -1.35435 0)
(28.859 -1.35869 0)
(28.862 -1.36299 0)
(28.865 -1.36726 0)
(28.8681 -1.37149 0)
(28.8711 -1.37571 0)
(28.7059 -1.47262 0)
(28.7103 -1.47759 0)
(28.7148 -1.4825 0)
(28.7193 -1.48736 0)
(28.7238 -1.49217 0)
(28.7284 -1.49692 0)
(28.7329 -1.50162 0)
(28.7374 -1.50628 0)
(28.5768 -1.60244 0)
(28.583 -1.60768 0)
(28.5892 -1.61283 0)
(28.5954 -1.6179 0)
(28.6016 -1.62288 0)
(28.6078 -1.62778 0)
(28.614 -1.6326 0)
(28.6201 -1.63737 0)
(28.4545 -1.77735 0)
(28.4633 -1.78249 0)
(28.472 -1.78751 0)
(28.4807 -1.79239 0)
(28.4894 -1.79715 0)
(28.498 -1.80178 0)
(28.5066 -1.80628 0)
(28.5151 -1.8107 0)
(28.3586 -1.98036 0)
(28.3706 -1.98459 0)
(28.3826 -1.98863 0)
(28.3944 -1.99247 0)
(28.4062 -1.99611 0)
(28.4178 -1.99958 0)
(28.4294 -2.00286 0)
(28.4407 -2.00602 0)
(28.2966 -2.22738 0)
(28.3133 -2.22942 0)
(28.3295 -2.23116 0)
(28.3455 -2.23263 0)
(28.3613 -2.23384 0)
(28.3769 -2.23481 0)
(28.3923 -2.23555 0)
(28.4074 -2.23614 0)
(28.29 -2.51783 0)
(28.3117 -2.51559 0)
(28.3329 -2.51301 0)
(28.3538 -2.5101 0)
(28.3741 -2.50684 0)
(28.394 -2.5032 0)
(28.4134 -2.49915 0)
(28.4331 -2.49485 0)
(28.3569 -2.84559 0)
(28.385 -2.83565 0)
(28.4123 -2.82522 0)
(28.4388 -2.81431 0)
(28.4644 -2.80297 0)
(28.4893 -2.79123 0)
(28.5132 -2.77914 0)
(28.5366 -2.76684 0)
(28.5289 -3.21909 0)
(28.5639 -3.19701 0)
(28.5973 -3.17433 0)
(28.6293 -3.15112 0)
(28.6598 -3.12745 0)
(28.6888 -3.10341 0)
(28.7162 -3.07906 0)
(28.7429 -3.05459 0)
(28.8229 -3.607 0)
(28.8646 -3.56578 0)
(28.9038 -3.52399 0)
(28.9405 -3.48178 0)
(28.9747 -3.43927 0)
(29.0066 -3.39658 0)
(29.036 -3.35385 0)
(29.0642 -3.31133 0)
(29.2725 -4.01888 0)
(29.3196 -3.95074 0)
(29.3628 -3.88244 0)
(29.4022 -3.81422 0)
(29.438 -3.74631 0)
(29.4702 -3.67893 0)
(29.4986 -3.61227 0)
(29.5257 -3.54671 0)
(29.9542 -4.39651 0)
(30.0108 -4.29349 0)
(30.0611 -4.19095 0)
(30.105 -4.08919 0)
(30.1429 -3.98853 0)
(30.1749 -3.88927 0)
(30.2003 -3.79181 0)
(30.2251 -3.69652 0)
(31.0416 -4.85894 0)
(31.0937 -4.7022 0)
(31.1342 -4.54666 0)
(31.1634 -4.3932 0)
(31.1819 -4.24266 0)
(31.189 -4.09522 0)
(31.1853 -3.95441 0)
(31.1704 -3.81955 0)
(31.9569 -5.12313 0)
(31.9263 -4.87988 0)
(31.8791 -4.64018 0)
(31.8154 -4.40415 0)
(31.7352 -4.17105 0)
(31.6392 -3.93082 0)
(31.5252 -3.69972 0)
(31.3639 -3.48039 0)
(30.8548 -4.68488 0)
(30.5876 -4.34761 0)
(30.302 -4.01598 0)
(30.001 -3.68836 0)
(29.6866 -3.36074 0)
(29.3609 -3.03779 0)
(29.0367 -2.71273 0)
(28.625 -2.38708 0)
(24.7429 -2.8635 0)
(24.2682 -2.44314 0)
(23.7971 -2.04734 0)
(23.3313 -1.67533 0)
(22.8736 -1.32574 0)
(22.4274 -0.997336 0)
(21.9998 -0.688962 0)
(21.4404 -0.413091 0)
(16.6146 -0.865102 0)
(16.1485 -0.532717 0)
(15.7002 -0.223123 0)
(15.2693 0.0650071 0)
(14.8566 0.332731 0)
(14.4649 0.580634 0)
(14.0893 0.807973 0)
(13.5797 1.00182 0)
(9.58062 0.515195 0)
(9.19034 0.799693 0)
(8.81401 1.06362 0)
(8.45108 1.30701 0)
(8.10278 1.52969 0)
(7.77227 1.73121 0)
(7.44736 1.91026 0)
(6.99673 2.05952 0)
(3.9719 1.55403 0)
(3.64359 1.80039 0)
(3.32617 2.02766 0)
(3.01943 2.23542 0)
(2.72516 2.42302 0)
(2.44645 2.58985 0)
(2.16755 2.73564 0)
(1.77549 2.85807 0)
(-0.381889 2.29967 0)
(-0.655855 2.52311 0)
(-0.921984 2.72783 0)
(-1.18011 2.91273 0)
(-1.42772 3.0766 0)
(-1.6607 3.21856 0)
(-1.89788 3.33945 0)
(-2.22486 3.44024 0)
(-3.71536 2.83704 0)
(-3.93546 3.04626 0)
(-4.15052 3.23637 0)
(-4.36008 3.40537 0)
(-4.56083 3.55107 0)
(-4.74736 3.67157 0)
(-4.93828 3.767 0)
(-5.19095 3.84124 0)
(-6.23346 3.19713 0)
(-6.39408 3.3996 0)
(-6.55276 3.58199 0)
(-6.70873 3.74097 0)
(-6.85817 3.87274 0)
(-6.99471 3.9731 0)
(-7.1324 4.03969 0)
(-7.30493 4.08052 0)
(-8.11371 3.40497 0)
(-8.20464 3.60711 0)
(-8.29743 3.7881 0)
(-8.39104 3.94303 0)
(-8.48144 4.06604 0)
(-8.56108 4.15009 0)
(-8.63458 4.18836 0)
(-8.72175 4.18699 0)
(-9.51191 3.47658 0)
(-9.51737 3.6846 0)
(-9.52942 3.87022 0)
(-9.54645 4.02634 0)
(-9.56394 4.1438 0)
(-9.57482 4.2086 0)
(-9.57196 4.2187 0)
(-9.55038 4.16105 0)
(-10.5718 3.41969 0)
(-10.4669 3.63866 0)
(-10.3747 3.83392 0)
(-10.2932 3.99604 0)
(-10.2172 4.11227 0)
(-10.1373 4.16704 0)
(-10.0495 4.1407 0)
(-9.91953 4.02341 0)
(-11.4474 3.23403 0)
(-11.1962 3.46993 0)
(-10.9666 3.68135 0)
(-10.7573 3.85569 0)
(-10.5624 3.976 0)
(-10.3744 4.02377 0)
(-10.1836 3.97233 0)
(-9.95282 3.79289 0)
(-12.3376 2.91588 0)
(-11.8945 3.17421 0)
(-11.4823 3.41049 0)
(-11.1051 3.60735 0)
(-10.7574 3.74239 0)
(-10.4342 3.79603 0)
(-10.1344 3.73823 0)
(-9.80793 3.50674 0)
(-13.5007 2.46623 0)
(-12.8201 2.74713 0)
(-12.1717 3.01366 0)
(-11.5707 3.24485 0)
(-11.0167 3.41009 0)
(-10.5105 3.48818 0)
(-10.0769 3.451 0)
(-9.65674 3.17643 0)
(-15.2277 1.90075 0)
(-14.2812 2.19503 0)
(-13.3528 2.48829 0)
(-12.4695 2.75842 0)
(-11.6386 2.96406 0)
(-10.8699 3.086 0)
(-10.2436 3.10723 0)
(-9.71074 2.80198 0)
(-17.7803 1.25529 0)
(-16.5785 1.54424 0)
(-15.3569 1.84885 0)
(-14.1549 2.14841 0)
(-12.9879 2.39308 0)
(-11.8651 2.56793 0)
(-10.949 2.68201 0)
(-10.24 2.35767 0)
(-21.3134 0.585386 0)
(-19.9244 0.842718 0)
(-18.4536 1.1321 0)
(-16.9464 1.43833 0)
(-15.4205 1.70464 0)
(-13.874 1.91949 0)
(-12.5662 2.13787 0)
(-11.5846 1.78487 0)
(-25.8267 -0.0437439 0)
(-24.3771 0.155977 0)
(-22.7716 0.398587 0)
(-21.0492 0.676815 0)
(-19.2162 0.930668 0)
(-17.2391 1.15294 0)
(-15.4603 1.45775 0)
(-14.088 1.04816 0)
(-31.1611 -0.570734 0)
(-29.8219 -0.446883 0)
(-28.2603 -0.278718 0)
(-26.4958 -0.065124 0)
(-24.5069 0.133747 0)
(-22.2018 0.311613 0)
(-19.9605 0.638019 0)
(-18.085 0.124162 0)
(-37.0352 -0.951687 0)
(-35.9901 -0.908186 0)
(-34.6888 -0.828529 0)
(-33.1234 -0.706784 0)
(-31.231 -0.601859 0)
(-28.8366 -0.526697 0)
(-26.2936 -0.283599 0)
(-23.9208 -0.975517 0)
(-43.1105 -1.16896 0)
(-42.5165 -1.19453 0)
(-41.6841 -1.19941 0)
(-40.5817 -1.17735 0)
(-39.1039 -1.18751 0)
(-36.9834 -1.26249 0)
(-34.4873 -1.22313 0)
(-31.8312 -2.16445 0)
(-49.056 -1.23046 0)
(-49.0107 -1.30196 0)
(-48.8003 -1.37028 0)
(-48.3865 -1.43323 0)
(-47.6365 -1.55432 0)
(-46.2074 -1.8028 0)
(-44.2481 -2.06768 0)
(-41.7778 -3.30382 0)
(-54.5908 -1.16278 0)
(-55.1147 -1.25333 0)
(-55.5888 -1.35332 0)
(-55.9929 -1.46868 0)
(-56.2001 -1.66941 0)
(-55.8329 -2.06597 0)
(-54.9249 -2.65283 0)
(-53.3121 -4.31232 0)
(-59.5204 -1.00804 0)
(-60.5509 -1.09193 0)
(-61.6606 -1.19023 0)
(-62.871 -1.31655 0)
(-64.1025 -1.54776 0)
(-65.01 -2.04066 0)
(-65.5811 -2.93756 0)
(-65.6092 -4.98081 0)
(-63.7291 -0.80471 0)
(-65.1397 -0.86661 0)
(-66.729 -0.940327 0)
(-68.5726 -1.04338 0)
(-70.6742 -1.25383 0)
(-72.8074 -1.76808 0)
(-75.064 -2.89514 0)
(-77.5019 -5.17232 0)
(-66.9498 -0.582955 0)
(-68.5854 -0.615711 0)
(-70.4403 -0.652276 0)
(-72.6349 -0.709858 0)
(-75.2633 -0.862111 0)
(-78.27 -1.33182 0)
(-82.0199 -2.55514 0)
(-87.3489 -4.78613 0)
(-68.4546 -0.376453 0)
(-70.1089 -0.384541 0)
(-71.9142 -0.386599 0)
(-73.9829 -0.392326 0)
(-76.4703 -0.460252 0)
(-79.5555 -0.807367 0)
(-84.1934 -1.91193 0)
(-92.7927 -3.87066 0)
(-66.5426 -0.199328 0)
(-67.9611 -0.196927 0)