# Forces      
# CofR        : (-1.050000e-01 0.000000e+00 0.000000e+00)
# Time        forces(pressure viscous)	moments(pressure viscous)
1900          	((7.734011e-01 5.129673e+01 -4.133172e-18) (3.328843e-01 2.004745e-02 1.535364e-18)) ((1.376687e-20 -2.889546e-19 -1.272884e+00) (4.557106e-22 3.425907e-21 2.284306e-03))
