/*--------------------------------*- C++ -*----------------------------------*\
  =========                 |
  \\      /  F ield         | OpenFOAM: The Open Source CFD Toolbox
   \\    /   O peration     | Website:  https://openfoam.org
    \\  /    A nd           | Version:  8
     \\/     M anipulation  |
\*---------------------------------------------------------------------------*/
FoamFile
{
    version     2.0;
    format      ascii;
    class       volScalarField;
    location    "2";
    object      nut;
}
// * * * * * * * * * * * * * * * * * * * * * * * * * * * * * * * * * * * * * //

dimensions      [0 2 -1 0 0 0 0];

internalField   nonuniform List<scalar> 
277560
(
0.13074
0.130725
0.130688
0.130634
0.130565
0.130485
0.130395
0.130298
0.130197
0.130092
0.129986
0.12988
0.129776
0.129674
0.129576
0.129483
0.129396
0.129315
0.12924
0.129173
0.129114
0.129063
0.12902
0.128985
0.12896
0.128943
0.128935
0.128935
0.128944
0.128962
0.128989
0.129023
0.129066
0.129116
0.129175
0.12924
0.129313
0.129393
0.129479
0.129571
0.129669
0.129773
0.129883
0.129997
0.130116
0.130239
0.130367
0.130498
0.130632
0.13077
0.130911
0.131054
0.131199
0.131346
0.131495
0.131646
0.131797
0.13195
0.132104
0.132258
0.132412
0.132567
0.132721
0.132875
0.133029
0.133182
0.133335
0.133487
0.133638
0.133788
0.133936
0.134083
0.134229
0.134374
0.134517
0.134658
0.134798
0.134936
0.135073
0.135207
0.13534
0.135471
0.1356
0.135727
0.135852
0.135976
0.136098
0.136217
0.136335
0.136451
0.136566
0.136678
0.136789
0.136898
0.137005
0.137111
0.137215
0.137318
0.137419
0.137519
0.137617
0.137714
0.13781
0.137904
0.137997
0.138089
0.13818
0.13827
0.138359
0.138447
0.138534
0.13862
0.138706
0.138791
0.138875
0.138958
0.139041
0.139124
0.139206
0.139287
0.130757
0.130741
0.130704
0.13065
0.130581
0.1305
0.13041
0.130313
0.130211
0.130106
0.129999
0.129893
0.129789
0.129687
0.129589
0.129495
0.129407
0.129326
0.129251
0.129183
0.129124
0.129072
0.129029
0.128994
0.128968
0.12895
0.128941
0.128942
0.12895
0.128968
0.128993
0.129028
0.12907
0.12912
0.129178
0.129243
0.129315
0.129394
0.12948
0.129572
0.12967
0.129773
0.129882
0.129996
0.130114
0.130237
0.130364
0.130495
0.130629
0.130766
0.130907
0.131049
0.131194
0.131341
0.13149
0.13164
0.131792
0.131944
0.132097
0.132251
0.132405
0.13256
0.132714
0.132868
0.133022
0.133175
0.133327
0.133479
0.13363
0.133779
0.133928
0.134075
0.134221
0.134365
0.134508
0.134649
0.134789
0.134927
0.135064
0.135198
0.135331
0.135462
0.135591
0.135718
0.135843
0.135967
0.136089
0.136209
0.136327
0.136443
0.136557
0.13667
0.136781
0.13689
0.136997
0.137103
0.137207
0.13731
0.137411
0.137511
0.13761
0.137707
0.137802
0.137897
0.13799
0.138082
0.138174
0.138264
0.138353
0.138441
0.138528
0.138615
0.1387
0.138785
0.13887
0.138953
0.139037
0.139119
0.139202
0.139283
0.130775
0.130759
0.130723
0.130668
0.130599
0.130518
0.130427
0.13033
0.130227
0.130122
0.130015
0.129908
0.129802
0.1297
0.129601
0.129507
0.129418
0.129336
0.12926
0.129192
0.129131
0.129078
0.129034
0.128999
0.128972
0.128953
0.128944
0.128943
0.128951
0.128967
0.128992
0.129025
0.129067
0.129116
0.129173
0.129237
0.129309
0.129387
0.129472
0.129563
0.12966
0.129763
0.129871
0.129984
0.130102
0.130225
0.130351
0.130481
0.130615
0.130751
0.130891
0.131033
0.131178
0.131324
0.131472
0.131622
0.131773
0.131925
0.132078
0.132232
0.132386
0.13254
0.132694
0.132848
0.133001
0.133154
0.133306
0.133458
0.133608
0.133758
0.133906
0.134054
0.134199
0.134344
0.134487
0.134628
0.134768
0.134906
0.135042
0.135177
0.13531
0.135441
0.13557
0.135698
0.135823
0.135947
0.136069
0.136189
0.136307
0.136424
0.136538
0.136651
0.136762
0.136872
0.13698
0.137086
0.13719
0.137293
0.137395
0.137495
0.137594
0.137691
0.137787
0.137882
0.137976
0.138069
0.13816
0.13825
0.13834
0.138429
0.138516
0.138603
0.138689
0.138775
0.13886
0.138944
0.139028
0.139111
0.139194
0.139276
0.130797
0.130782
0.130745
0.13069
0.130621
0.130539
0.130448
0.130349
0.130246
0.130139
0.130032
0.129924
0.129817
0.129714
0.129614
0.129518
0.129429
0.129345
0.129268
0.129199
0.129137
0.129083
0.129038
0.129001
0.128972
0.128953
0.128942
0.12894
0.128947
0.128962
0.128986
0.129018
0.129058
0.129106
0.129162
0.129225
0.129295
0.129372
0.129456
0.129546
0.129642
0.129744
0.129851
0.129964
0.130081
0.130202
0.130328
0.130457
0.13059
0.130726
0.130865
0.131006
0.13115
0.131296
0.131444
0.131593
0.131744
0.131895
0.132048
0.132201
0.132355
0.132508
0.132662
0.132816
0.132969
0.133122
0.133274
0.133425
0.133576
0.133726
0.133874
0.134021
0.134167
0.134312
0.134455
0.134596
0.134736
0.134874
0.135011
0.135146
0.135279
0.13541
0.13554
0.135667
0.135793
0.135917
0.13604
0.13616
0.136279
0.136396
0.136511
0.136624
0.136736
0.136846
0.136954
0.13706
0.137166
0.137269
0.137371
0.137472
0.137571
0.137669
0.137766
0.137861
0.137956
0.138049
0.138141
0.138232
0.138322
0.138412
0.1385
0.138588
0.138674
0.138761
0.138846
0.138931
0.139016
0.1391
0.139183
0.139266
0.130823
0.130808
0.130771
0.130716
0.130646
0.130563
0.130471
0.130372
0.130268
0.13016
0.130051
0.129942
0.129834
0.129729
0.129627
0.129531
0.129439
0.129354
0.129276
0.129205
0.129142
0.129086
0.129039
0.129001
0.128971
0.12895
0.128937
0.128934
0.128939
0.128952
0.128975
0.129005
0.129044
0.12909
0.129145
0.129206
0.129275
0.129351
0.129434
0.129522
0.129617
0.129718
0.129824
0.129935
0.130051
0.130171
0.130296
0.130424
0.130556
0.130691
0.130829
0.13097
0.131113
0.131258
0.131405
0.131554
0.131704
0.131855
0.132007
0.13216
0.132313
0.132467
0.13262
0.132774
0.132927
0.133079
0.133232
0.133383
0.133533
0.133683
0.133832
0.133979
0.134125
0.13427
0.134413
0.134555
0.134695
0.134833
0.13497
0.135105
0.135239
0.135371
0.135501
0.135629
0.135755
0.13588
0.136002
0.136123
0.136243
0.13636
0.136476
0.13659
0.136702
0.136812
0.136921
0.137029
0.137135
0.137239
0.137342
0.137443
0.137543
0.137642
0.137739
0.137836
0.137931
0.138025
0.138118
0.13821
0.138301
0.138391
0.13848
0.138568
0.138656
0.138743
0.13883
0.138916
0.139001
0.139086
0.139171
0.139255
0.130854
0.130839
0.130802
0.130746
0.130675
0.130592
0.130498
0.130398
0.130292
0.130183
0.130072
0.129962
0.129852
0.129746
0.129642
0.129544
0.129451
0.129364
0.129284
0.129211
0.129146
0.129088
0.129039
0.128999
0.128967
0.128944
0.12893
0.128924
0.128928
0.128939
0.12896
0.128988
0.129025
0.12907
0.129122
0.129182
0.12925
0.129324
0.129405
0.129492
0.129585
0.129684
0.129789
0.129899
0.130013
0.130132
0.130256
0.130383
0.130514
0.130648
0.130785
0.130925
0.131067
0.131212
0.131358
0.131506
0.131655
0.131806
0.131958
0.13211
0.132263
0.132416
0.132569
0.132722
0.132875
0.133028
0.13318
0.133331
0.133482
0.133632
0.13378
0.133928
0.134074
0.134219
0.134363
0.134505
0.134645
0.134784
0.134922
0.135057
0.135191
0.135323
0.135454
0.135583
0.13571
0.135835
0.135958
0.13608
0.1362
0.136318
0.136434
0.136549
0.136662
0.136774
0.136883
0.136992
0.137098
0.137203
0.137307
0.13741
0.137511
0.13761
0.137709
0.137806
0.137902
0.137997
0.138091
0.138184
0.138276
0.138367
0.138457
0.138547
0.138636
0.138724
0.138812
0.138899
0.138985
0.139071
0.139157
0.139243
0.130889
0.130873
0.130836
0.13078
0.130708
0.130623
0.130529
0.130427
0.13032
0.130209
0.130097
0.129984
0.129873
0.129764
0.129659
0.129559
0.129463
0.129374
0.129292
0.129217
0.129149
0.12909
0.129039
0.128996
0.128962
0.128937
0.12892
0.128913
0.128914
0.128923
0.128941
0.128968
0.129003
0.129045
0.129096
0.129154
0.129219
0.129291
0.12937
0.129456
0.129547
0.129645
0.129748
0.129856
0.129969
0.130087
0.130209
0.130335
0.130464
0.130597
0.130733
0.130872
0.131013
0.131157
0.131303
0.13145
0.131599
0.131749
0.1319
0.132052
0.132204
0.132357
0.13251
0.132663
0.132816
0.132968
0.13312
0.133272
0.133423
0.133572
0.133721
0.133869
0.134015
0.134161
0.134305
0.134447
0.134588
0.134728
0.134866
0.135002
0.135137
0.13527
0.135401
0.13553
0.135658
0.135784
0.135908
0.136031
0.136151
0.13627
0.136388
0.136503
0.136617
0.13673
0.136841
0.13695
0.137057
0.137164
0.137268
0.137372
0.137474
0.137575
0.137674
0.137773
0.13787
0.137966
0.138061
0.138155
0.138248
0.138341
0.138432
0.138523
0.138613
0.138703
0.138792
0.13888
0.138968
0.139055
0.139142
0.139229
0.130927
0.130912
0.130874
0.130817
0.130744
0.130659
0.130563
0.130459
0.13035
0.130238
0.130124
0.130009
0.129896
0.129785
0.129677
0.129575
0.129477
0.129386
0.129301
0.129223
0.129153
0.129091
0.129038
0.128992
0.128956
0.128928
0.128909
0.128899
0.128897
0.128904
0.12892
0.128944
0.128977
0.129017
0.129065
0.129121
0.129184
0.129254
0.129331
0.129415
0.129504
0.1296
0.129701
0.129807
0.129919
0.130035
0.130155
0.13028
0.130408
0.13054
0.130675
0.130812
0.130953
0.131095
0.13124
0.131387
0.131535
0.131684
0.131835
0.131986
0.132138
0.132291
0.132443
0.132596
0.132749
0.132901
0.133054
0.133205
0.133356
0.133506
0.133655
0.133803
0.13395
0.134096
0.13424
0.134383
0.134525
0.134665
0.134804
0.134941
0.135076
0.13521
0.135342
0.135472
0.135601
0.135728
0.135853
0.135976
0.136098
0.136218
0.136336
0.136453
0.136568
0.136682
0.136794
0.136904
0.137013
0.13712
0.137226
0.137331
0.137434
0.137536
0.137637
0.137736
0.137835
0.137932
0.138029
0.138124
0.138219
0.138312
0.138405
0.138497
0.138589
0.13868
0.13877
0.13886
0.138949
0.139038
0.139127
0.139215
0.13097
0.130955
0.130916
0.130859
0.130785
0.130698
0.130601
0.130495
0.130384
0.13027
0.130153
0.130037
0.129921
0.129808
0.129698
0.129592
0.129492
0.129398
0.12931
0.12923
0.129157
0.129093
0.129036
0.128988
0.128949
0.128918
0.128896
0.128883
0.128879
0.128884
0.128897
0.128918
0.128948
0.128986
0.129031
0.129085
0.129145
0.129213
0.129288
0.129369
0.129457
0.12955
0.129649
0.129754
0.129863
0.129978
0.130096
0.130219
0.130346
0.130477
0.13061
0.130747
0.130886
0.131028
0.131171
0.131317
0.131464
0.131613
0.131763
0.131914
0.132066
0.132218
0.13237
0.132523
0.132676
0.132828
0.13298
0.133132
0.133283
0.133433
0.133583
0.133731
0.133879
0.134025
0.13417
0.134314
0.134456
0.134597
0.134736
0.134874
0.13501
0.135145
0.135278
0.135409
0.135539
0.135667
0.135793
0.135917
0.13604
0.136161
0.136281
0.136399
0.136515
0.13663
0.136743
0.136855
0.136965
0.137074
0.137181
0.137287
0.137391
0.137495
0.137597
0.137698
0.137798
0.137896
0.137994
0.138091
0.138187
0.138282
0.138377
0.13847
0.138563
0.138656
0.138748
0.138839
0.13893
0.13902
0.13911
0.1392
0.131017
0.131001
0.130962
0.130904
0.130829
0.130741
0.130642
0.130535
0.130422
0.130305
0.130186
0.130067
0.129949
0.129833
0.12972
0.129612
0.129509
0.129411
0.129321
0.129238
0.129162
0.129094
0.129035
0.128984
0.128941
0.128908
0.128883
0.128867
0.12886
0.128861
0.128871
0.12889
0.128917
0.128952
0.128994
0.129045
0.129103
0.129168
0.129241
0.12932
0.129405
0.129496
0.129593
0.129695
0.129803
0.129916
0.130033
0.130154
0.130279
0.130408
0.13054
0.130675
0.130813
0.130954
0.131097
0.131242
0.131388
0.131536
0.131686
0.131836
0.131987
0.132139
0.132291
0.132444
0.132597
0.132749
0.132901
0.133053
0.133205
0.133355
0.133505
0.133654
0.133802
0.133949
0.134094
0.134239
0.134382
0.134524
0.134664
0.134803
0.13494
0.135075
0.135209
0.135342
0.135472
0.135601
0.135729
0.135855
0.135979
0.136101
0.136222
0.136341
0.136459
0.136575
0.136689
0.136802
0.136914
0.137024
0.137133
0.13724
0.137346
0.137451
0.137555
0.137657
0.137758
0.137859
0.137958
0.138057
0.138154
0.138251
0.138347
0.138442
0.138537
0.138631
0.138724
0.138817
0.138909
0.139002
0.139093
0.139185
0.131067
0.131052
0.131012
0.130953
0.130877
0.130787
0.130687
0.130578
0.130463
0.130344
0.130222
0.1301
0.129979
0.12986
0.129744
0.129633
0.129527
0.129427
0.129333
0.129246
0.129167
0.129096
0.129033
0.128979
0.128933
0.128897
0.128868
0.128849
0.128839
0.128837
0.128844
0.128859
0.128883
0.128915
0.128955
0.129003
0.129058
0.129121
0.12919
0.129267
0.129349
0.129438
0.129533
0.129633
0.129739
0.129849
0.129964
0.130084
0.130207
0.130335
0.130465
0.130599
0.130736
0.130876
0.131017
0.131161
0.131307
0.131454
0.131603
0.131753
0.131904
0.132055
0.132207
0.13236
0.132512
0.132665
0.132817
0.132969
0.133121
0.133272
0.133422
0.133572
0.13372
0.133868
0.134014
0.134159
0.134303
0.134446
0.134587
0.134727
0.134865
0.135002
0.135137
0.13527
0.135402
0.135533
0.135661
0.135788
0.135914
0.136038
0.13616
0.136281
0.1364
0.136517
0.136633
0.136748
0.136861
0.136972
0.137082
0.137191
0.137299
0.137405
0.137511
0.137615
0.137718
0.137819
0.13792
0.13802
0.13812
0.138218
0.138316
0.138412
0.138509
0.138604
0.138699
0.138794
0.138888
0.138982
0.139076
0.139169
0.131121
0.131106
0.131066
0.131006
0.130929
0.130838
0.130735
0.130624
0.130507
0.130385
0.130261
0.130136
0.130012
0.12989
0.129771
0.129657
0.129547
0.129443
0.129346
0.129256
0.129174
0.129099
0.129033
0.128975
0.128926
0.128885
0.128854
0.128831
0.128817
0.128812
0.128816
0.128828
0.128848
0.128877
0.128914
0.128959
0.129011
0.129071
0.129137
0.129211
0.129291
0.129377
0.12947
0.129567
0.129671
0.129779
0.129892
0.13001
0.130132
0.130257
0.130386
0.130519
0.130654
0.130793
0.130933
0.131076
0.131221
0.131368
0.131516
0.131665
0.131816
0.131967
0.132119
0.132271
0.132423
0.132576
0.132729
0.132881
0.133033
0.133184
0.133335
0.133485
0.133634
0.133783
0.13393
0.134076
0.134221
0.134364
0.134506
0.134647
0.134787
0.134924
0.135061
0.135196
0.135329
0.135461
0.135591
0.135719
0.135846
0.135971
0.136095
0.136217
0.136338
0.136457
0.136574
0.13669
0.136805
0.136918
0.13703
0.137141
0.13725
0.137358
0.137465
0.13757
0.137675
0.137779
0.137881
0.137983
0.138084
0.138184
0.138283
0.138382
0.13848
0.138577
0.138674
0.138771
0.138867
0.138962
0.139057
0.139152
0.131179
0.131164
0.131124
0.131063
0.130984
0.130892
0.130787
0.130674
0.130554
0.13043
0.130303
0.130175
0.130048
0.129923
0.1298
0.129682
0.129569
0.129462
0.129361
0.129267
0.129181
0.129103
0.129032
0.128971
0.128918
0.128874
0.128839
0.128812
0.128795
0.128786
0.128786
0.128795
0.128812
0.128837
0.128871
0.128912
0.128962
0.129018
0.129082
0.129153
0.12923
0.129313
0.129403
0.129499
0.1296
0.129706
0.129817
0.129932
0.130052
0.130176
0.130303
0.130434
0.130569
0.130706
0.130845
0.130987
0.131131
0.131277
0.131424
0.131573
0.131723
0.131874
0.132026
0.132178
0.13233
0.132483
0.132636
0.132788
0.132941
0.133093
0.133244
0.133395
0.133545
0.133694
0.133842
0.133989
0.134134
0.134279
0.134422
0.134564
0.134705
0.134844
0.134982
0.135118
0.135252
0.135385
0.135517
0.135647
0.135775
0.135902
0.136027
0.136151
0.136273
0.136394
0.136513
0.136631
0.136747
0.136862
0.136976
0.137088
0.137199
0.137309
0.137417
0.137525
0.137631
0.137736
0.137841
0.137944
0.138047
0.138149
0.13825
0.13835
0.13845
0.13855
0.138648
0.138747
0.138844
0.138942
0.139039
0.139136
0.13124
0.131225
0.131185
0.131123
0.131043
0.130949
0.130843
0.130727
0.130605
0.130478
0.130348
0.130217
0.130086
0.129957
0.129832
0.12971
0.129593
0.129482
0.129377
0.129279
0.129189
0.129107
0.129033
0.128968
0.128911
0.128863
0.128824
0.128794
0.128772
0.12876
0.128756
0.128761
0.128775
0.128797
0.128827
0.128865
0.128911
0.128964
0.129024
0.129092
0.129166
0.129247
0.129334
0.129427
0.129526
0.129629
0.129738
0.129852
0.129969
0.130091
0.130217
0.130347
0.130479
0.130615
0.130753
0.130894
0.131037
0.131182
0.131329
0.131477
0.131627
0.131777
0.131929
0.132081
0.132233
0.132386
0.132539
0.132692
0.132845
0.132997
0.133149
0.133301
0.133451
0.133601
0.13375
0.133898
0.134045
0.13419
0.134335
0.134478
0.13462
0.13476
0.134899
0.135037
0.135173
0.135307
0.135441
0.135572
0.135702
0.13583
0.135957
0.136083
0.136207
0.136329
0.13645
0.136569
0.136687
0.136804
0.136919
0.137033
0.137146
0.137258
0.137368
0.137477
0.137586
0.137693
0.137799
0.137905
0.138009
0.138113
0.138216
0.138318
0.13842
0.138521
0.138622
0.138722
0.138821
0.138921
0.13902
0.139119
0.131305
0.13129
0.131249
0.131186
0.131105
0.131009
0.130901
0.130783
0.130658
0.130528
0.130395
0.130261
0.130127
0.129994
0.129865
0.129739
0.129619
0.129504
0.129395
0.129293
0.129199
0.129113
0.129035
0.128965
0.128904
0.128852
0.128809
0.128775
0.12875
0.128733
0.128726
0.128727
0.128737
0.128755
0.128781
0.128816
0.128858
0.128908
0.128965
0.12903
0.129101
0.129179
0.129263
0.129353
0.129449
0.12955
0.129657
0.129768
0.129884
0.130004
0.130128
0.130256
0.130387
0.130521
0.130658
0.130798
0.13094
0.131084
0.13123
0.131378
0.131527
0.131677
0.131829
0.131981
0.132133
0.132286
0.132439
0.132592
0.132746
0.132899
0.133051
0.133203
0.133355
0.133505
0.133655
0.133804
0.133952
0.134099
0.134245
0.134389
0.134532
0.134674
0.134814
0.134953
0.135091
0.135227
0.135362
0.135495
0.135626
0.135756
0.135885
0.136012
0.136138
0.136262
0.136385
0.136506
0.136626
0.136744
0.136861
0.136977
0.137092
0.137205
0.137318
0.137429
0.137539
0.137648
0.137756
0.137864
0.13797
0.138076
0.138181
0.138285
0.138389
0.138492
0.138594
0.138696
0.138798
0.138899
0.139
0.139101
0.131372
0.131357
0.131316
0.131253
0.13117
0.131072
0.130962
0.130841
0.130713
0.130581
0.130444
0.130307
0.13017
0.130034
0.1299
0.129771
0.129646
0.129527
0.129414
0.129309
0.12921
0.129119
0.129037
0.128963
0.128898
0.128842
0.128795
0.128756
0.128727
0.128706
0.128695
0.128692
0.128698
0.128712
0.128735
0.128766
0.128804
0.128851
0.128905
0.128966
0.129034
0.129109
0.12919
0.129277
0.129371
0.129469
0.129573
0.129682
0.129796
0.129914
0.130036
0.130162
0.130292
0.130425
0.130561
0.130699
0.13084
0.130984
0.131129
0.131276
0.131424
0.131574
0.131725
0.131877
0.13203
0.132183
0.132336
0.13249
0.132643
0.132797
0.13295
0.133103
0.133255
0.133407
0.133557
0.133707
0.133856
0.134004
0.134151
0.134297
0.134442
0.134585
0.134727
0.134867
0.135006
0.135144
0.13528
0.135415
0.135549
0.13568
0.135811
0.13594
0.136067
0.136193
0.136318
0.136441
0.136563
0.136683
0.136802
0.13692
0.137036
0.137152
0.137266
0.137379
0.137491
0.137602
0.137712
0.137822
0.13793
0.138038
0.138145
0.138251
0.138357
0.138462
0.138566
0.13867
0.138774
0.138877
0.13898
0.139083
0.131443
0.131428
0.131386
0.131322
0.131238
0.131138
0.131025
0.130902
0.130772
0.130636
0.130496
0.130355
0.130214
0.130075
0.129938
0.129804
0.129676
0.129552
0.129435
0.129325
0.129222
0.129127
0.129041
0.128962
0.128893
0.128832
0.128781
0.128738
0.128704
0.12868
0.128664
0.128657
0.128659
0.128669
0.128688
0.128715
0.12875
0.128793
0.128843
0.128901
0.128966
0.129037
0.129116
0.1292
0.12929
0.129387
0.129488
0.129595
0.129706
0.129822
0.129942
0.130067
0.130194
0.130326
0.13046
0.130598
0.130738
0.13088
0.131024
0.131171
0.131319
0.131468
0.131619
0.131771
0.131923
0.132077
0.13223
0.132384
0.132538
0.132692
0.132846
0.133
0.133153
0.133305
0.133457
0.133608
0.133758
0.133907
0.134056
0.134203
0.134349
0.134493
0.134637
0.134779
0.13492
0.135059
0.135197
0.135334
0.135469
0.135602
0.135734
0.135865
0.135995
0.136122
0.136249
0.136374
0.136498
0.13662
0.136741
0.136861
0.136979
0.137097
0.137213
0.137328
0.137442
0.137555
0.137667
0.137779
0.137889
0.137999
0.138108
0.138216
0.138324
0.138431
0.138538
0.138644
0.13875
0.138855
0.13896
0.139065
0.131516
0.131501
0.131459
0.131393
0.131308
0.131206
0.131091
0.130965
0.130832
0.130693
0.13055
0.130406
0.130261
0.130118
0.129977
0.129839
0.129707
0.129579
0.129458
0.129343
0.129236
0.129137
0.129045
0.128963
0.128889
0.128823
0.128767
0.12872
0.128682
0.128653
0.128633
0.128622
0.12862
0.128626
0.128641
0.128664
0.128695
0.128734
0.128781
0.128835
0.128896
0.128965
0.12904
0.129121
0.129209
0.129302
0.129401
0.129505
0.129614
0.129728
0.129846
0.129969
0.130095
0.130225
0.130358
0.130494
0.130633
0.130774
0.130918
0.131063
0.131211
0.13136
0.13151
0.131662
0.131815
0.131968
0.132122
0.132276
0.13243
0.132585
0.132739
0.132894
0.133048
0.133201
0.133354
0.133506
0.133658
0.133808
0.133958
0.134106
0.134253
0.1344
0.134545
0.134688
0.134831
0.134972
0.135112
0.13525
0.135387
0.135522
0.135656
0.135789
0.13592
0.13605
0.136178
0.136305
0.136431
0.136555
0.136678
0.1368
0.136921
0.13704
0.137159
0.137276
0.137392
0.137507
0.137621
0.137735
0.137847
0.137959
0.13807
0.13818
0.13829
0.1384
0.138508
0.138617
0.138725
0.138832
0.138939
0.139046
0.131591
0.131576
0.131534
0.131467
0.13138
0.131276
0.131159
0.131031
0.130894
0.130752
0.130606
0.130458
0.13031
0.130163
0.130018
0.129876
0.129739
0.129607
0.129482
0.129363
0.129251
0.129147
0.129051
0.128964
0.128885
0.128815
0.128755
0.128703
0.128661
0.128627
0.128603
0.128587
0.128581
0.128583
0.128593
0.128612
0.12864
0.128675
0.128718
0.128768
0.128826
0.128891
0.128963
0.129041
0.129126
0.129216
0.129312
0.129414
0.129521
0.129632
0.129748
0.129869
0.129993
0.130121
0.130253
0.130388
0.130525
0.130666
0.130809
0.130954
0.131101
0.131249
0.131399
0.131551
0.131703
0.131857
0.132011
0.132165
0.13232
0.132475
0.13263
0.132786
0.13294
0.133095
0.133249
0.133402
0.133554
0.133706
0.133857
0.134007
0.134156
0.134304
0.13445
0.134596
0.13474
0.134883
0.135024
0.135164
0.135303
0.13544
0.135576
0.135711
0.135844
0.135976
0.136106
0.136235
0.136363
0.136489
0.136614
0.136738
0.136861
0.136982
0.137103
0.137222
0.13734
0.137458
0.137574
0.13769
0.137804
0.137918
0.138031
0.138144
0.138256
0.138367
0.138478
0.138589
0.138699
0.138809
0.138918
0.139027
0.131669
0.131654
0.131611
0.131543
0.131454
0.131348
0.131229
0.131098
0.130959
0.130813
0.130664
0.130512
0.13036
0.130209
0.13006
0.129914
0.129773
0.129637
0.129507
0.129383
0.129267
0.129159
0.129058
0.128966
0.128883
0.128808
0.128743
0.128687
0.12864
0.128602
0.128573
0.128553
0.128542
0.12854
0.128546
0.128561
0.128584
0.128615
0.128654
0.128701
0.128755
0.128817
0.128885
0.12896
0.129042
0.129129
0.129223
0.129322
0.129426
0.129535
0.129649
0.129767
0.12989
0.130017
0.130147
0.13028
0.130416
0.130556
0.130698
0.130842
0.130988
0.131136
0.131286
0.131437
0.13159
0.131743
0.131897
0.132052
0.132208
0.132363
0.132519
0.132675
0.132831
0.132986
0.133141
0.133295
0.133449
0.133602
0.133755
0.133906
0.134056
0.134206
0.134354
0.134501
0.134647
0.134791
0.134934
0.135076
0.135217
0.135356
0.135494
0.135631
0.135766
0.1359
0.136032
0.136163
0.136293
0.136422
0.136549
0.136675
0.1368
0.136923
0.137046
0.137167
0.137288
0.137407
0.137526
0.137643
0.13776
0.137876
0.137992
0.138107
0.138221
0.138335
0.138448
0.13856
0.138673
0.138785
0.138896
0.139008
0.131748
0.131734
0.13169
0.13162
0.13153
0.131422
0.1313
0.131167
0.131025
0.130876
0.130723
0.130568
0.130412
0.130257
0.130104
0.129954
0.129809
0.129668
0.129534
0.129406
0.129285
0.129171
0.129066
0.12897
0.128881
0.128802
0.128732
0.128672
0.12862
0.128577
0.128544
0.128519
0.128504
0.128497
0.128499
0.128509
0.128528
0.128555
0.128591
0.128634
0.128684
0.128742
0.128807
0.128879
0.128957
0.129041
0.129132
0.129228
0.12933
0.129437
0.129548
0.129665
0.129785
0.12991
0.130039
0.130171
0.130306
0.130444
0.130585
0.130728
0.130874
0.131021
0.131171
0.131322
0.131474
0.131628
0.131782
0.131937
0.132093
0.132249
0.132406
0.132562
0.132719
0.132875
0.133031
0.133187
0.133342
0.133496
0.13365
0.133803
0.133954
0.134105
0.134255
0.134404
0.134552
0.134698
0.134843
0.134987
0.135129
0.135271
0.135411
0.135549
0.135686
0.135822
0.135957
0.13609
0.136222
0.136352
0.136482
0.13661
0.136737
0.136863
0.136988
0.137111
0.137234
0.137356
0.137476
0.137596
0.137715
0.137834
0.137951
0.138068
0.138185
0.138301
0.138416
0.138531
0.138646
0.13876
0.138874
0.138988
0.13183
0.131815
0.13177
0.1317
0.131608
0.131498
0.131374
0.131237
0.131092
0.13094
0.130784
0.130626
0.130466
0.130307
0.13015
0.129996
0.129846
0.129701
0.129562
0.129429
0.129304
0.129186
0.129076
0.128974
0.128881
0.128797
0.128723
0.128657
0.1286
0.128553
0.128515
0.128486
0.128466
0.128454
0.128452
0.128458
0.128473
0.128496
0.128527
0.128566
0.128613
0.128667
0.128728
0.128797
0.128871
0.128953
0.12904
0.129134
0.129233
0.129337
0.129447
0.129561
0.129679
0.129802
0.129929
0.13006
0.130193
0.13033
0.13047
0.130613
0.130758
0.130905
0.131054
0.131205
0.131357
0.13151
0.131665
0.13182
0.131977
0.132133
0.13229
0.132448
0.132605
0.132762
0.132919
0.133076
0.133232
0.133388
0.133543
0.133697
0.133851
0.134003
0.134155
0.134305
0.134454
0.134603
0.13475
0.134895
0.13504
0.135183
0.135325
0.135466
0.135605
0.135743
0.13588
0.136015
0.136149
0.136282
0.136413
0.136544
0.136673
0.136801
0.136928
0.137054
0.137179
0.137303
0.137426
0.137548
0.137669
0.13779
0.13791
0.138029
0.138148
0.138266
0.138384
0.138502
0.138618
0.138735
0.138851
0.138967
0.131913
0.131898
0.131853
0.131781
0.131687
0.131575
0.131449
0.13131
0.131161
0.131006
0.130847
0.130684
0.130521
0.130358
0.130197
0.130038
0.129884
0.129735
0.129591
0.129454
0.129324
0.129201
0.129086
0.12898
0.128882
0.128794
0.128714
0.128643
0.128582
0.12853
0.128487
0.128453
0.128428
0.128412
0.128406
0.128407
0.128418
0.128436
0.128463
0.128498
0.128541
0.128592
0.128649
0.128714
0.128786
0.128864
0.128948
0.129039
0.129135
0.129237
0.129344
0.129456
0.129572
0.129693
0.129818
0.129947
0.13008
0.130216
0.130354
0.130496
0.13064
0.130787
0.130935
0.131086
0.131238
0.131391
0.131546
0.131701
0.131858
0.132015
0.132173
0.132331
0.132489
0.132647
0.132805
0.132963
0.133121
0.133278
0.133434
0.13359
0.133745
0.133899
0.134052
0.134204
0.134355
0.134505
0.134654
0.134802
0.134948
0.135094
0.135238
0.13538
0.135522
0.135662
0.135801
0.135938
0.136074
0.136209
0.136343
0.136476
0.136607
0.136738
0.136867
0.136995
0.137122
0.137249
0.137374
0.137499
0.137622
0.137745
0.137868
0.137989
0.138111
0.138231
0.138351
0.138471
0.13859
0.138709
0.138828
0.138946
0.131997
0.131982
0.131936
0.131864
0.131768
0.131654
0.131525
0.131383
0.131232
0.131074
0.130911
0.130745
0.130577
0.13041
0.130245
0.130082
0.129924
0.12977
0.129622
0.12948
0.129345
0.129218
0.129098
0.128987
0.128884
0.128791
0.128706
0.128631
0.128565
0.128508
0.12846
0.128421
0.128392
0.128371
0.12836
0.128357
0.128363
0.128377
0.1284
0.128431
0.12847
0.128516
0.12857
0.128631
0.1287
0.128775
0.128856
0.128943
0.129037
0.129136
0.12924
0.12935
0.129464
0.129583
0.129707
0.129834
0.129965
0.130099
0.130237
0.130378
0.130521
0.130667
0.130815
0.130965
0.131117
0.13127
0.131425
0.131581
0.131738
0.131895
0.132053
0.132212
0.132371
0.13253
0.132689
0.132848
0.133007
0.133165
0.133323
0.13348
0.133637
0.133793
0.133948
0.134101
0.134254
0.134406
0.134557
0.134707
0.134855
0.135002
0.135148
0.135293
0.135437
0.135579
0.13572
0.13586
0.135998
0.136136
0.136272
0.136407
0.13654
0.136673
0.136805
0.136935
0.137065
0.137193
0.137321
0.137448
0.137574
0.1377
0.137824
0.137948
0.138072
0.138195
0.138318
0.13844
0.138562
0.138683
0.138804
0.138925
0.132083
0.132068
0.132021
0.131947
0.13185
0.131734
0.131602
0.131458
0.131304
0.131142
0.130976
0.130806
0.130635
0.130464
0.130295
0.130128
0.129965
0.129807
0.129654
0.129508
0.129368
0.129236
0.129111
0.128995
0.128888
0.128789
0.1287
0.12862
0.128548
0.128487
0.128434
0.12839
0.128356
0.128331
0.128315
0.128307
0.128309
0.128319
0.128337
0.128364
0.128399
0.128441
0.128491
0.128549
0.128613
0.128685
0.128763
0.128848
0.128938
0.129034
0.129136
0.129244
0.129356
0.129473
0.129594
0.129719
0.129849
0.129982
0.130118
0.130258
0.1304
0.130545
0.130693
0.130843
0.130994
0.131147
0.131302
0.131458
0.131615
0.131773
0.131932
0.132092
0.132251
0.132412
0.132572
0.132732
0.132892
0.133051
0.13321
0.133369
0.133527
0.133684
0.133841
0.133997
0.134151
0.134305
0.134458
0.13461
0.13476
0.134909
0.135057
0.135204
0.13535
0.135494
0.135638
0.13578
0.13592
0.13606
0.136198
0.136336
0.136472
0.136607
0.136741
0.136874
0.137006
0.137137
0.137267
0.137396
0.137525
0.137653
0.13778
0.137906
0.138032
0.138158
0.138283
0.138408
0.138532
0.138656
0.13878
0.138903
0.13217
0.132155
0.132108
0.132032
0.131933
0.131815
0.131681
0.131534
0.131377
0.131212
0.131042
0.130869
0.130694
0.130519
0.130345
0.130175
0.130007
0.129845
0.129687
0.129536
0.129392
0.129255
0.129126
0.129005
0.128893
0.128789
0.128695
0.128609
0.128533
0.128466
0.128409
0.12836
0.128321
0.128291
0.12827
0.128258
0.128255
0.128261
0.128275
0.128297
0.128328
0.128366
0.128413
0.128466
0.128527
0.128595
0.12867
0.128751
0.128839
0.128933
0.129032
0.129136
0.129246
0.129361
0.12948
0.129604
0.129732
0.129863
0.129999
0.130137
0.130279
0.130423
0.13057
0.130719
0.13087
0.131023
0.131178
0.131334
0.131492
0.13165
0.131809
0.131969
0.13213
0.132291
0.132452
0.132613
0.132774
0.132935
0.133096
0.133256
0.133415
0.133574
0.133733
0.13389
0.134047
0.134202
0.134357
0.13451
0.134663
0.134814
0.134965
0.135114
0.135261
0.135408
0.135554
0.135698
0.135841
0.135983
0.136124
0.136263
0.136402
0.136539
0.136675
0.136811
0.136945
0.137079
0.137211
0.137343
0.137474
0.137605
0.137734
0.137863
0.137992
0.13812
0.138248
0.138375
0.138502
0.138628
0.138754
0.13888
0.132258
0.132243
0.132195
0.132118
0.132018
0.131897
0.131761
0.131611
0.13145
0.131283
0.131109
0.130932
0.130754
0.130575
0.130397
0.130222
0.130051
0.129884
0.129722
0.129566
0.129417
0.129276
0.129142
0.129016
0.128899
0.12879
0.128691
0.1286
0.128519
0.128448
0.128385
0.128332
0.128288
0.128253
0.128227
0.12821
0.128202
0.128203
0.128213
0.128231
0.128257
0.128292
0.128334
0.128384
0.128441
0.128506
0.128577
0.128655
0.12874
0.12883
0.128927
0.129029
0.129136
0.129249
0.129366
0.129488
0.129614
0.129744
0.129878
0.130015
0.130155
0.130299
0.130445
0.130594
0.130745
0.130897
0.131052
0.131208
0.131366
0.131525
0.131685
0.131845
0.132007
0.132168
0.13233
0.132493
0.132655
0.132817
0.132979
0.133141
0.133302
0.133462
0.133622
0.133781
0.13394
0.134097
0.134254
0.134409
0.134564
0.134717
0.13487
0.135021
0.135171
0.13532
0.135468
0.135614
0.13576
0.135904
0.136047
0.136189
0.13633
0.13647
0.136609
0.136746
0.136883
0.137019
0.137155
0.137289
0.137422
0.137555
0.137688
0.137819
0.13795
0.138081
0.138211
0.138341
0.138471
0.1386
0.138729
0.138857
0.132347
0.132332
0.132283
0.132205
0.132103
0.13198
0.131841
0.131688
0.131525
0.131354
0.131178
0.130997
0.130815
0.130632
0.130451
0.130271
0.130096
0.129924
0.129758
0.129598
0.129444
0.129298
0.129159
0.129028
0.128906
0.128792
0.128688
0.128593
0.128507
0.12843
0.128362
0.128304
0.128255
0.128215
0.128185
0.128163
0.128151
0.128147
0.128152
0.128166
0.128188
0.128218
0.128256
0.128302
0.128356
0.128416
0.128484
0.128559
0.12864
0.128728
0.128822
0.128921
0.129026
0.129136
0.129251
0.129371
0.129495
0.129624
0.129756
0.129892