/*--------------------------------*- C++ -*----------------------------------*\
  =========                 |
  \\      /  F ield         | OpenFOAM: The Open Source CFD Toolbox
   \\    /   O peration     | Website:  https://openfoam.org
    \\  /    A nd           | Version:  8
     \\/     M anipulation  |
\*---------------------------------------------------------------------------*/
FoamFile
{
    version     2.0;
    format      ascii;
    class       volScalarField;
    location    "2";
    object      nuTilda;
}
// * * * * * * * * * * * * * * * * * * * * * * * * * * * * * * * * * * * * * //

dimensions      [0 2 -1 0 0 0 0];

internalField   nonuniform List<scalar> 
277560
(
0.13954
0.138683
0.137893
0.137167
0.136503
0.135898
0.135348
0.13485
0.134402
0.134
0.133642
0.133324
0.133044
0.132799
0.132588
0.132407
0.132254
0.132128
0.132026
0.131946
0.131887
0.131848
0.131825
0.131819
0.131828
0.13185
0.131885
0.131931
0.131987
0.132053
0.132127
0.132208
0.132297
0.132391
0.132491
0.132596
0.132705
0.132818
0.132934
0.133053
0.133174
0.133297
0.133422
0.133548
0.133675
0.133803
0.133931
0.134059
0.134187
0.134314
0.134441
0.134568
0.134693
0.134818
0.134941
0.135063
0.135184
0.135303
0.13542
0.135536
0.13565
0.135762
0.135872
0.13598
0.136086
0.13619
0.136292
0.136392
0.136489
0.136585
0.136678
0.136768
0.136857
0.136943
0.137027
0.137109
0.137188
0.137265
0.137339
0.137412
0.137482
0.137549
0.137614
0.137677
0.137738
0.137796
0.137852
0.137906
0.137957
0.138006
0.138052
0.138096
0.138138
0.138178
0.138215
0.13825
0.138282
0.138312
0.13834
0.138366
0.138389
0.138409
0.138428
0.138443
0.138457
0.138468
0.138477
0.138483
0.138486
0.138488
0.138486
0.138483
0.138476
0.138468
0.138456
0.138442
0.138426
0.138407
0.138385
0.138361
0.13954
0.138681
0.137891
0.137165
0.1365
0.135895
0.135345
0.134847
0.134399
0.133997
0.133638
0.133321
0.133041
0.132796
0.132585
0.132404
0.132251
0.132125
0.132022
0.131943
0.131884
0.131844
0.131822
0.131816
0.131824
0.131846
0.131881
0.131927
0.131983
0.132048
0.132122
0.132203
0.132291
0.132386
0.132486
0.13259
0.132699
0.132812
0.132928
0.133047
0.133168
0.133291
0.133415
0.133541
0.133668
0.133796
0.133923
0.134051
0.134179
0.134307
0.134434
0.13456
0.134685
0.13481
0.134933
0.135055
0.135175
0.135294
0.135412
0.135527
0.135641
0.135753
0.135863
0.135972
0.136078
0.136182
0.136284
0.136383
0.136481
0.136576
0.136669
0.13676
0.136849
0.136935
0.137019
0.1371
0.13718
0.137257
0.137331
0.137404
0.137474
0.137541
0.137607
0.137669
0.13773
0.137788
0.137844
0.137898
0.137949
0.137998
0.138045
0.138089
0.138131
0.13817
0.138208
0.138242
0.138275
0.138305
0.138333
0.138358
0.138381
0.138402
0.13842
0.138436
0.13845
0.138461
0.138469
0.138476
0.138479
0.13848
0.138479
0.138475
0.138469
0.13846
0.138449
0.138435
0.138418
0.138399
0.138377
0.138353
0.139538
0.138678
0.137886
0.137159
0.136494
0.135888
0.135337
0.134839
0.13439
0.133988
0.133629
0.133311
0.13303
0.132786
0.132574
0.132393
0.13224
0.132113
0.132011
0.131931
0.131872
0.131832
0.131809
0.131803
0.131811
0.131833
0.131867
0.131912
0.131968
0.132033
0.132107
0.132188
0.132276
0.13237
0.132469
0.132574
0.132682
0.132795
0.132911
0.133029
0.13315
0.133273
0.133397
0.133523
0.13365
0.133777
0.133905
0.134032
0.13416
0.134287
0.134414
0.134541
0.134666
0.13479
0.134913
0.135035
0.135156
0.135275
0.135392
0.135508
0.135622
0.135734
0.135844
0.135952
0.136058
0.136162
0.136264
0.136364
0.136462
0.136557
0.136651
0.136741
0.13683
0.136917
0.137001
0.137082
0.137162
0.137239
0.137314
0.137386
0.137456
0.137524
0.13759
0.137653
0.137714
0.137772
0.137828
0.137882
0.137933
0.137982
0.138029
0.138073
0.138115
0.138155
0.138192
0.138227
0.13826
0.13829
0.138318
0.138344
0.138367
0.138388
0.138406
0.138422
0.138435
0.138446
0.138455
0.138461
0.138465
0.138466
0.138465
0.138461
0.138455
0.138446
0.138434
0.13842
0.138403
0.138384
0.138362
0.138337
0.139537
0.138674
0.13788
0.137151
0.136484
0.135876
0.135324
0.134825
0.134376
0.133973
0.133613
0.133295
0.133014
0.132769
0.132556
0.132375
0.132221
0.132094
0.131991
0.131911
0.131852
0.131811
0.131788
0.131781
0.131789
0.13181
0.131844
0.131889
0.131945
0.132009
0.132082
0.132163
0.13225
0.132344
0.132443
0.132547
0.132656
0.132768
0.132883
0.133001
0.133122
0.133245
0.133369
0.133494
0.133621
0.133748
0.133875
0.134003
0.134131
0.134258
0.134385
0.134511
0.134636
0.134761
0.134884
0.135006
0.135126
0.135245
0.135363
0.135479
0.135593
0.135705
0.135815
0.135923
0.13603
0.136134
0.136236
0.136336
0.136434
0.13653
0.136623
0.136714
0.136803
0.13689
0.136974
0.137056
0.137136
0.137213
0.137288
0.137361
0.137432
0.1375
0.137565
0.137629
0.13769
0.137748
0.137805
0.137859
0.13791
0.13796
0.138007
0.138051
0.138094
0.138133
0.138171
0.138206
0.138239
0.138269
0.138297
0.138323
0.138346
0.138367
0.138386
0.138402
0.138415
0.138426
0.138435
0.138441
0.138445
0.138446
0.138445
0.138441
0.138434
0.138425
0.138413
0.138399
0.138382
0.138363
0.138341
0.138316
0.139535
0.138668
0.137871
0.13714
0.136471
0.135862
0.135308
0.134808
0.134357
0.133953
0.133593
0.133273
0.132992
0.132746
0.132533
0.13235
0.132196
0.132069
0.131965
0.131885
0.131824
0.131783
0.13176
0.131752
0.13176
0.13178
0.131814
0.131858
0.131913
0.131977
0.132049
0.13213
0.132217
0.13231
0.132409
0.132512
0.13262
0.132732
0.132847
0.132965
0.133085
0.133207
0.133331
0.133457
0.133583
0.13371
0.133837
0.133965
0.134092
0.13422
0.134346
0.134472
0.134598
0.134722
0.134845
0.134967
0.135088
0.135207
0.135325
0.135441
0.135555
0.135668
0.135778
0.135887
0.135993
0.136098
0.1362
0.136301
0.136399
0.136495
0.136588
0.13668
0.136769
0.136856
0.136941
0.137023
0.137103
0.137181
0.137257
0.13733
0.1374
0.137469
0.137535
0.137599
0.13766
0.137719
0.137776
0.13783
0.137882
0.137932
0.137979
0.138024
0.138067
0.138107
0.138145
0.13818
0.138213
0.138244
0.138272
0.138298
0.138321
0.138342
0.138361
0.138377
0.13839
0.138402
0.13841
0.138416
0.13842
0.138421
0.13842
0.138416
0.138409
0.1384
0.138388
0.138374
0.138357
0.138337
0.138314
0.138289
0.139532
0.138662
0.137861
0.137127
0.136455
0.135844
0.135289
0.134786
0.134334
0.133929
0.133567
0.133247
0.132964
0.132718
0.132504
0.132321
0.132166
0.132038
0.131933
0.131852
0.131791
0.131749
0.131725
0.131717
0.131723
0.131743
0.131776
0.13182
0.131874
0.131937
0.132009
0.132089
0.132175
0.132268
0.132366
0.132469
0.132577
0.132688
0.132803
0.13292
0.13304
0.133162
0.133286
0.133411
0.133537
0.133664
0.133791
0.133918
0.134046
0.134173
0.1343
0.134426
0.134552
0.134676
0.134799
0.134922
0.135042
0.135162
0.13528
0.135396
0.13551
0.135623
0.135734
0.135843
0.13595
0.136055
0.136157
0.136258
0.136357
0.136453
0.136547
0.136639
0.136729
0.136816
0.136902
0.136985
0.137065
0.137143
0.137219
0.137293
0.137364
0.137433
0.1375
0.137564
0.137626
0.137685
0.137742
0.137797
0.13785
0.1379
0.137947
0.137993
0.138036
0.138076
0.138114
0.13815
0.138183
0.138214
0.138243
0.138269
0.138292
0.138314
0.138332
0.138348
0.138362
0.138373
0.138382
0.138388
0.138392
0.138393
0.138392
0.138387
0.138381
0.138371
0.138359
0.138345
0.138327
0.138307
0.138284
0.138259
0.139529
0.138654
0.13785
0.137112
0.136437
0.135823
0.135266
0.134761
0.134308
0.133901
0.133538
0.133216
0.132933
0.132685
0.13247
0.132286
0.13213
0.132001
0.131896
0.131814
0.131752
0.131709
0.131684
0.131675
0.131681
0.1317
0.131732
0.131775
0.131829
0.131891
0.131963
0.132042
0.132127
0.132219
0.132317
0.13242
0.132527
0.132637
0.132752
0.132869
0.132988
0.13311
0.133233
0.133358
0.133484
0.133611
0.133738
0.133865
0.133993
0.13412
0.134247
0.134373
0.134498
0.134623
0.134746
0.134869
0.13499
0.13511
0.135228
0.135344
0.135459
0.135572
0.135683
0.135793
0.1359
0.136006
0.136109
0.13621
0.136309
0.136406
0.136501
0.136593
0.136684
0.136772
0.136857
0.136941
0.137022
0.137101
0.137177
0.137252
0.137323
0.137393
0.13746
0.137525
0.137587
0.137647
0.137705
0.13776
0.137813
0.137864
0.137912
0.137958
0.138001
0.138042
0.138081
0.138117
0.13815
0.138182
0.13821
0.138237
0.138261
0.138282
0.138301
0.138317
0.138331
0.138342
0.138351
0.138357
0.138361
0.138362
0.13836
0.138356
0.138349
0.13834
0.138328
0.138313
0.138295
0.138274
0.138251
0.138225
0.139526
0.138646
0.137837
0.137095
0.136417
0.1358
0.13524
0.134733
0.134278
0.133869
0.133505
0.133181
0.132897
0.132648
0.132432
0.132247
0.13209
0.13196
0.131854
0.13177
0.131708
0.131664
0.131638
0.131628
0.131633
0.131652
0.131683
0.131725
0.131778
0.131839
0.13191
0.131988
0.132073
0.132165
0.132262
0.132364
0.13247
0.13258
0.132694
0.132811
0.13293
0.133051
0.133174
0.133299
0.133425
0.133551
0.133678
0.133806
0.133933
0.13406
0.134187
0.134313
0.134439
0.134564
0.134688
0.13481
0.134932
0.135052
0.13517
0.135287
0.135402
0.135516
0.135628
0.135738
0.135846
0.135951
0.136055
0.136157
0.136257
0.136354
0.13645
0.136543
0.136634
0.136723
0.136809
0.136893
0.136975
0.137054
0.137132
0.137206
0.137279
0.137349
0.137417
0.137482
0.137545
0.137606
0.137664
0.13772
0.137774
0.137825
0.137874
0.13792
0.137964
0.138005
0.138044
0.138081
0.138115
0.138146
0.138176
0.138202
0.138226
0.138248
0.138267
0.138284
0.138298
0.138309
0.138318
0.138324
0.138328
0.138329
0.138327
0.138323
0.138316
0.138306
0.138293
0.138278
0.13826
0.138239
0.138215
0.138189
0.139523
0.138637
0.137823
0.137076
0.136395
0.135774
0.135211
0.134702
0.134244
0.133834
0.133468
0.133143
0.132857
0.132606
0.132389
0.132203
0.132045
0.131914
0.131807
0.131723
0.131659
0.131614
0.131587
0.131577
0.131581
0.131598
0.131628
0.13167
0.131721
0.131782
0.131852
0.13193
0.132014
0.132105
0.132201
0.132302
0.132408
0.132518
0.132631
0.132747
0.132866
0.132987
0.13311
0.133234
0.13336
0.133486
0.133613
0.13374
0.133868
0.133995
0.134122
0.134249
0.134375
0.1345
0.134624
0.134747
0.134868
0.134989
0.135108
0.135225
0.135341
0.135455
0.135567
0.135678
0.135786
0.135893
0.135997
0.1361
0.1362
0.136299
0.136395
0.136489
0.13658
0.13667
0.136757
0.136842
0.136924
0.137005
0.137083
0.137158
0.137231
0.137302
0.137371
0.137437
0.137501
0.137562
0.137621
0.137678
0.137732
0.137783
0.137833
0.13788
0.137924
0.137966
0.138005
0.138042
0.138077
0.138109
0.138139
0.138166
0.13819
0.138212
0.138231
0.138248
0.138262
0.138274
0.138283
0.138289
0.138292
0.138293
0.138292
0.138287
0.13828
0.13827
0.138257
0.138241
0.138223
0.138202
0.138177
0.13815
0.13952
0.138627
0.137807
0.137056
0.13637
0.135746
0.13518
0.134668
0.134208
0.133795
0.133428
0.133101
0.132814
0.132562
0.132344
0.132156
0.131997
0.131865
0.131757
0.131671
0.131606
0.131561
0.131533
0.131521
0.131524
0.13154
0.131569
0.13161
0.131661
0.131721
0.13179
0.131866
0.13195
0.13204
0.132135
0.132236
0.132341
0.13245
0.132563
0.132679
0.132797
0.132918
0.133041
0.133165
0.13329
0.133416
0.133543
0.13367
0.133798
0.133925
0.134052
0.134179
0.134305
0.134431
0.134555
0.134678
0.134801
0.134921
0.135041
0.135159
0.135275
0.13539
0.135503
0.135614
0.135723
0.13583
0.135936
0.136039
0.13614
0.136239
0.136336
0.136431
0.136523
0.136614
0.136702
0.136787
0.136871
0.136952
0.137031
0.137107
0.137181
0.137253
0.137322
0.137389
0.137454
0.137516
0.137575
0.137633
0.137687
0.13774
0.13779
0.137837
0.137882
0.137925
0.137965
0.138002
0.138037
0.13807
0.1381
0.138127
0.138152
0.138174
0.138194
0.138211
0.138225
0.138237
0.138246
0.138252
0.138256
0.138256
0.138255
0.13825
0.138242
0.138232
0.138219
0.138203
0.138184
0.138162
0.138138
0.13811
0.139516
0.138616
0.13779
0.137034
0.136343
0.135715
0.135146
0.134631
0.134169
0.133754
0.133384
0.133056
0.132767
0.132514
0.132294
0.132106
0.131946
0.131812
0.131703
0.131616
0.13155
0.131503
0.131474
0.131461
0.131463
0.131479
0.131507
0.131546
0.131596
0.131655
0.131723
0.131799
0.131881
0.131971
0.132066
0.132166
0.13227
0.132379
0.132491
0.132606
0.132724
0.132845
0.132967
0.133091
0.133216
0.133342
0.133469
0.133596
0.133724
0.133851
0.133979
0.134105
0.134232
0.134358
0.134482
0.134606
0.134729
0.13485
0.13497
0.135089
0.135206
0.135321
0.135435
0.135547
0.135657
0.135765
0.135871
0.135975
0.136077
0.136177
0.136274
0.13637
0.136463
0.136555
0.136643
0.13673
0.136814
0.136896
0.136976
0.137053
0.137128
0.137201
0.137271
0.137339
0.137404
0.137467
0.137528
0.137586
0.137641
0.137694
0.137745
0.137793
0.137839
0.137882
0.137923
0.137961
0.137996
0.138029
0.138059
0.138087
0.138112
0.138135
0.138155
0.138172
0.138186
0.138198
0.138207
0.138214
0.138217
0.138218
0.138216
0.138211
0.138203
0.138193
0.138179
0.138163
0.138144
0.138122
0.138096
0.138068
0.139512
0.138605
0.137772
0.137009
0.136314
0.135682
0.135109
0.134592
0.134126
0.13371
0.133338
0.133008
0.132718
0.132463
0.132242
0.132052
0.131891
0.131756
0.131646
0.131558
0.131491
0.131443
0.131413
0.131398
0.131399
0.131414
0.131441
0.131479
0.131528
0.131586
0.131653
0.131728
0.131809
0.131898
0.131992
0.132091
0.132195
0.132303
0.132415
0.13253
0.132647
0.132767
0.132889
0.133013
0.133138
0.133264
0.133391
0.133518
0.133646
0.133773
0.133901
0.134028
0.134155
0.134281
0.134406
0.13453
0.134654
0.134775
0.134896
0.135015
0.135133
0.135249
0.135363
0.135476
0.135587
0.135696
0.135803
0.135908
0.136011
0.136111
0.13621
0.136307
0.136401
0.136493
0.136583
0.13667
0.136756
0.136839
0.136919
0.136998
0.137073
0.137147
0.137218
0.137287
0.137353
0.137417
0.137478
0.137537
0.137593
0.137647
0.137698
0.137747
0.137794
0.137837
0.137879
0.137917
0.137953
0.137987
0.138018
0.138046
0.138071
0.138094
0.138114
0.138132
0.138146
0.138158
0.138168
0.138174
0.138177
0.138178
0.138176
0.138171
0.138163
0.138152
0.138139
0.138122
0.138102
0.138079
0.138053
0.138025
0.139507
0.138592
0.137751
0.136983
0.136282
0.135646
0.135069
0.134549
0.134081
0.133662
0.133289
0.132958
0.132666
0.13241
0.132187
0.131996
0.131834
0.131697
0.131586
0.131497
0.131429
0.131379
0.131348
0.131333
0.131332
0.131346
0.131371
0.131409
0.131456
0.131513
0.131579
0.131653
0.131734
0.131822
0.131915
0.132014
0.132117
0.132224
0.132335
0.13245
0.132567
0.132686
0.132808
0.132931
0.133056
0.133182
0.133309
0.133436
0.133564
0.133692
0.13382
0.133947
0.134074
0.134201
0.134327
0.134451
0.134575
0.134698
0.134819
0.134939
0.135057
0.135174
0.135289
0.135403
0.135514
0.135624
0.135732
0.135838
0.135942
0.136044
0.136143
0.136241
0.136336
0.136429
0.13652
0.136609
0.136695
0.136779
0.13686
0.13694
0.137017
0.137091
0.137163
0.137233
0.1373
0.137364
0.137427
0.137486
0.137544
0.137598
0.13765
0.1377
0.137747
0.137791
0.137833
0.137873
0.137909
0.137943
0.137974
0.138003
0.138029
0.138052
0.138073
0.13809
0.138105
0.138117
0.138127
0.138133
0.138137
0.138137
0.138135
0.13813
0.138122
0.138111
0.138096
0.138079
0.138059
0.138036
0.138009
0.13798
0.139502
0.138577
0.137729
0.136953
0.136247
0.135606
0.135026
0.134503
0.134033
0.133612
0.133237
0.132904
0.132611
0.132354
0.13213
0.131938
0.131774
0.131636
0.131524
0.131433
0.131364
0.131314
0.131281
0.131264
0.131263
0.131275
0.1313
0.131336
0.131382
0.131438
0.131503
0.131576
0.131656
0.131743
0.131835
0.131933
0.132035
0.132142
0.132253
0.132367
0.132483
0.132603
0.132724
0.132847
0.132972
0.133098
0.133224
0.133352
0.13348
0.133608
0.133736
0.133864
0.133991
0.134118
0.134244
0.134369
0.134494
0.134617
0.134739
0.13486
0.134979
0.135096
0.135212
0.135327
0.135439
0.13555
0.135659
0.135766
0.135871
0.135973
0.136074
0.136173
0.136269
0.136363
0.136455
0.136545
0.136632
0.136717
0.1368
0.13688
0.136958
0.137033
0.137106
0.137177
0.137245
0.137311
0.137374
0.137434
0.137492
0.137548
0.137601
0.137651
0.137699
0.137744
0.137787
0.137827
0.137864
0.137898
0.13793
0.137959
0.137985
0.138009
0.13803
0.138048
0.138063
0.138075
0.138084
0.138091
0.138094
0.138095
0.138093
0.138087
0.138079
0.138067
0.138053
0.138035
0.138015
0.137991
0.137964
0.137933
0.139496
0.138561
0.137703
0.13692
0.136208
0.135562
0.134979
0.134453
0.133981
0.133559
0.133182
0.132848
0.132553
0.132295
0.13207
0.131877
0.131712
0.131573
0.131459
0.131368
0.131297
0.131246
0.131212
0.131194
0.131191
0.131202
0.131225
0.13126
0.131306
0.131361
0.131425
0.131496
0.131576
0.131661
0.131753
0.13185
0.131951
0.132058
0.132167
0.132281
0.132397
0.132516
0.132637
0.13276
0.132884
0.13301
0.133137
0.133264
0.133392
0.133521
0.133649
0.133777
0.133905
0.134032
0.134159
0.134285
0.13441
0.134534
0.134656
0.134778
0.134898
0.135016
0.135133
0.135248
0.135362
0.135474
0.135584
0.135691
0.135797
0.135901
0.136003
0.136103
0.1362
0.136295
0.136388
0.136479
0.136567
0.136654
0.136737
0.136819
0.136898
0.136974
0.137048
0.13712
0.137189
0.137255
0.137319
0.137381
0.13744
0.137496
0.13755
0.137601
0.13765
0.137696
0.137739
0.137779
0.137817
0.137852
0.137884
0.137914
0.137941
0.137965
0.137986
0.138004
0.138019
0.138032
0.138041
0.138048
0.138051
0.138052
0.138049
0.138044
0.138035
0.138023
0.138008
0.13799
0.137969
0.137944
0.137917
0.137886
0.139489
0.138541
0.137673
0.136882
0.136164
0.135514
0.134928
0.1344
0.133926
0.133502
0.133124
0.132789
0.132493
0.132234
0.132008
0.131814
0.131648
0.131508
0.131393
0.1313
0.131229
0.131176
0.131141
0.131122
0.131118
0.131127
0.131149
0.131183
0.131227
0.131281
0.131344
0.131415
0.131493
0.131577
0.131668
0.131764
0.131865
0.131971
0.13208
0.132193
0.132308
0.132427
0.132548
0.13267
0.132795
0.13292
0.133047
0.133175
0.133303
0.133431
0.13356
0.133688
0.133816
0.133944
0.134071
0.134198
0.134324
0.134448
0.134572
0.134694
0.134815
0.134934
0.135052
0.135168
0.135283
0.135395
0.135506
0.135615
0.135722
0.135827
0.13593
0.136031
0.136129
0.136226
0.13632
0.136412
0.136501
0.136588
0.136673
0.136756
0.136836
0.136913
0.136988
0.137061
0.137131
0.137199
0.137264
0.137326
0.137386
0.137443
0.137498
0.13755
0.137599
0.137646
0.13769
0.137731
0.137769
0.137805
0.137838
0.137868
0.137895
0.137919
0.13794
0.137959
0.137975
0.137987
0.137997
0.138003
0.138007
0.138007
0.138005
0.137999
0.13799
0.137978
0.137962
0.137944
0.137922
0.137897
0.137869
0.137837
0.139481
0.138517
0.137637
0.136837
0.136113
0.13546
0.134871
0.134341
0.133866
0.133441
0.133063
0.132727
0.132431
0.13217
0.131944
0.131748
0.131582
0.131441
0.131325
0.131231
0.131158
0.131104
0.131068
0.131048
0.131042
0.131051
0.131072
0.131104
0.131147
0.1312
0.131261
0.131331
0.131408
0.131492
0.131582
0.131677
0.131777
0.131882
0.13199
0.132102
0.132218
0.132336
0.132456
0.132579
0.132703
0.132828
0.132955
0.133083
0.133211
0.133339
0.133468
0.133597
0.133726
0.133854
0.133982
0.134109
0.134235
0.13436
0.134485
0.134608
0.134729
0.13485
0.134968
0.135086
0.135201
0.135315
0.135427
0.135537
0.135645
0.135751
0.135855
0.135957
0.136056
0.136154
0.136249
0.136342
0.136433
0.136521
0.136607
0.136691
0.136772
0.136851
0.136927
0.137001
0.137072
0.13714
0.137207
0.13727
0.137331
0.137389
0.137444
0.137497
0.137547
0.137595
0.137639
0.137681
0.13772
0.137756
0.13779
0.13782
0.137848
0.137872
0.137894
0.137913
0.137929
0.137941
0.137951
0.137958
0.137961
0.137962
0.137959
0.137953
0.137944
0.137931
0.137916
0.137896
0.137874
0.137848
0.137819
0.137787
0.13947
0.138486
0.137591
0.136783
0.136054
0.135398
0.134808
0.134277
0.133802
0.133377
0.132998
0.132662
0.132365
0.132105
0.131878
0.131682
0.131514
0.131373
0.131255
0.131161
0.131087
0.131031
0.130994
0.130972
0.130966
0.130973
0.130993
0.131024
0.131066
0.131117
0.131177
0.131246
0.131322
0.131405
0.131493
0.131588
0.131687
0.131791
0.131899
0.13201
0.132125
0.132243
0.132363
0.132485
0.132609
0.132734
0.132861
0.132989
0.133117
0.133246
0.133375
0.133504
0.133633
0.133762
0.13389
0.134018
0.134145
0.134271
0.134396
0.134519
0.134642
0.134763
0.134883
0.135001
0.135118
0.135232
0.135345
0.135457
0.135566
0.135673
0.135778
0.135881
0.135982
0.136081
0.136177
0.136271
0.136363
0.136453
0.13654
0.136625
0.136707
0.136787
0.136864
0.136939
0.137011
0.137081
0.137148
0.137212
0.137274
0.137333
0.13739
0.137443
0.137494
0.137542
0.137588
0.13763
0.13767
0.137707
0.137741
0.137772
0.1378
0.137825
0.137847
0.137866
0.137882
0.137895
0.137904
0.137911
0.137915
0.137915
0.137912
0.137906
0.137896
0.137883
0.137867
0.137848
0.137825
0.137798
0.137769
0.137735
0.139454
0.138443
0.137533
0.136716
0.135984
0.135327
0.134737
0.134207
0.133733
0.133308
0.13293
0.132594
0.132298
0.132037
0.13181
0.131613
0.131445
0.131303
0.131185
0.131089
0.131014
0.130958
0.130919
0.130896
0.130888
0.130894
0.130912
0.130942
0.130983
0.131033
0.131092
0.131159
0.131234
0.131316
0.131404
0.131497
0.131595
0.131699
0.131806
0.131917
0.132031
0.132148
0.132268
0.132389
0.132513
0.132638
0.132765
0.132893
0.133021
0.13315
0.133279
0.133409
0.133538
0.133668
0.133797
0.133925
0.134052
0.134179
0.134305
0.13443
0.134553
0.134675
0.134796
0.134915
0.135032
0.135148
0.135262
0.135375
0.135485
0.135593
0.1357
0.135804
0.135906
0.136006
0.136104
0.136199
0.136292
0.136383
0.136471
0.136557
0.136641
0.136722
0.1368
0.136876
0.136949
0.13702
0.137088
0.137154
0.137216
0.137276
0.137334
0.137388
0.13744
0.137489
0.137535
0.137578
0.137618
0.137656
0.13769
0.137722
0.13775
0.137776
0.137798
0.137817
0.137834
0.137847
0.137857
0.137863
0.137867
0.137867
0.137864
0.137857
0.137848
0.137835
0.137818
0.137798
0.137774
0.137747
0.137717
0.137683
0.139428
0.138382
0.137454
0.136632
0.1359
0.135245
0.134658
0.134131
0.133658
0.133235
0.132858
0.132524
0.132227
0.131967
0.13174
0.131543
0.131374
0.131231
0.131113
0.131016
0.13094
0.130883
0.130843
0.130819
0.13081
0.130814
0.130831
0.13086
0.130899
0.130948
0.131006
0.131072
0.131145
0.131226
0.131313
0.131405
0.131503
0.131605
0.131711
0.131822
0.131935
0.132052
0.132171
0.132292
0.132416
0.132541
0.132667
0.132795
0.132924
0.133053
0.133182
0.133312
0.133442
0.133572
0.133701
0.13383
0.133958
0.134086
0.134212
0.134338
0.134462
0.134585
0.134707
0.134827
0.134946
0.135062
0.135178
0.135291
0.135403
0.135512
0.13562
0.135725
0.135828
0.13593
0.136028
0.136125
0.136219
0.136311
0.136401
0.136488
0.136573
0.136655
0.136734
0.136811
0.136886
0.136958
0.137027
0.137093
0.137157
0.137218
0.137276
0.137332
0.137384
0.137434
0.137481
0.137525
0.137566
0.137604
0.137639
0.137671
0.1377
0.137726
0.137748
0.137768
0.137784
0.137798
0.137808
0.137814
0.137818
0.137818
0.137815
0.137808
0.137798
0.137784
0.137767
0.137747
0.137723
0.137695
0.137664
0.137629
0.139379
0.138286
0.137346
0.136526
0.135799
0.135151
0.134569
0.134046
0.133577
0.133158
0.132783
0.13245
0.132155
0.131895
0.131668
0.131471
0.131302
0.131159
0.13104
0.130942
0.130865
0.130807
0.130766
0.130741
0.13073
0.130733
0.130749
0.130776
0.130814
0.130862
0.130919
0.130983
0.131056
0.131135
0.131221
0.131312
0.131409
0.13151
0.131616
0.131725
0.131838
0.131954
0.132073
0.132194
0.132317
0.132442
0.132568
0.132696
0.132825
0.132954
0.133084
0.133214
0.133344
0.133474
0.133604
0.133734
0.133863
0.133991
0.134118
0.134244
0.13437
0.134494
0.134616
0.134737
0.134857
0.134975
0.135091
0.135206
0.135319
0.135429
0.135538
0.135645
0.135749
0.135852
0.135952
0.13605
0.136145
0.136238
0.136329
0.136417
0.136503
0.136587
0.136667
0.136746
0.136821
0.136894
0.136964
0.137032
0.137096
0.137158
0.137218
0.137274
0.137327
0.137378
0.137426
0.13747
0.137512
0.137551
0.137586
0.137619
0.137648
0.137674
0.137697
0.137717
0.137734
0.137747
0.137757
0.137764
0.137768
0.137768
0.137764
0.137757
0.137747
0.137733
0.137715
0.137694
0.13767
0.137641
0.137609
0.137573
0.139269
0.13813
0.137196
0.136391
0.135679
0.135042
0.134469
0.133954
0.133491
0.133075
0.132704
0.132373
0.13208
0.131821
0.131595
0.131398
0.13123
0.131086
0.130966
0.130868
0.13079
0.130731
0.130688
0.130662
0.13065
0.130652
0.130667
0.130693
0.130729
0.130775
0.130831
0.130894
0.130965
0.131043
0.131128
0.131218
0.131314
0.131414
0.131519
0.131628
0.13174
0.131855
0.131974
0.132094
0.132217
0.132342
0.132468
0.132596
0.132724
0.132854
0.132984
0.133114
0.133245
0.133375
0.133506
0.133636
0.133765
0.133894
0.134022
0.134149
0.134275
0.1344
0.134524
0.134646
0.134767
0.134886
0.135003
0.135119
0.135233
0.135345
0.135455
0.135563
0.135668
0.135772
0.135873
0.135973
0.136069
0.136164
0.136256
0.136345
0.136432
0.136517
0.136599
0.136678
0.136755
0.136829
0.1369
0.136969
0.137035
0.137098
0.137158
0.137215
0.137269
0.137321
0.137369
0.137414
0.137457
0.137496
0.137532
0.137565
0.137595
0.137622
0.137645
0.137665
0.137682
0.137696
0.137706
0.137713
0.137716
0.137716
0.137713
0.137705
0.137695
0.13768
0.137662
0.137641
0.137615
0.137586
0.137553
0.137516
0.138987
0.137876
0.136993
0.136224
0.135537
0.134919
0.134359
0.133854
0.133398
0.132988
0.132621
0.132293
0.132002
0.131746
0.13152
0.131325
0.131156
0.131012
0.130892
0.130793
0.130714
0.130654
0.130611
0.130583
0.13057
0.130571
0.130584
0.130608
0.130643
0.130688
0.130742
0.130804
0.130874
0.130951
0.131034
0.131124
0.131218
0.131318
0.131421
0.131529
0.131641
0.131756
0.131873
0.131994
0.132116
0.13224
0.132366
0.132494
0.132623
0.132752
0.132882
0.133013
0.133144
0.133275
0.133406
0.133536
0.133666
0.133796
0.133925
0.134053
0.13418
0.134306
0.13443
0.134553
0.134675
0.134795
0.134914
0.135031
0.135146
0.135259
0.13537
0.135479
0.135586
0.135691
0.135794
0.135894
0.135992
0.136088
0.136181
0.136272
0.13636
0.136446
0.136529
0.13661
0.136687
0.136763
0.136835
0.136905
0.136971
0.137035
0.137096
0.137155
0.13721
0.137262
0.137311
0.137357
0.1374
0.13744
0.137477
0.137511
0.137541
0.137568
0.137592
0.137612
0.137629
0.137643
0.137654
0.13766
0.137664
0.137663
0.13766
0.137652
0.137641
0.137626
0.137608
0.137586
0.13756
0.13753
0.137496
0.137458
0.138233
0.137499
0.136736
0.136026
0.135376
0.134781
0.134239
0.133746
0.133299
0.132896
0.132534
0.132211
0.131923
0.131668
0.131445
0.13125
0.131081
0.130938
0.130817
0.130718
0.130639
0.130577
0.130533
0.130504
0.13049
0.130489
0.130501
0.130524
0.130558
0.130601
0.130653
0.130714
0.130783
0.130858
0.13094
0.131028
0.131122
0.13122
0.131323
0.13143
0.131541
0.131655
0.131772
0.131892
0.132014
0.132138
0.132264
0.132391
0.13252
0.132649
0.132779
0.13291
0.133042
0.133173
0.133304
0.133435
0.133566
0.133696
0.133826
0.133955
0.134083
0.134209
0.134335
0.134459
0.134582
0.134703
0.134823
0.134941
0.135057
0.135171
0.135284
0.135394
0.135502
0.135608
0.135712
0.135814
0.135913
0.13601
0.136105
0.136197
0.136286
0.136373
0.136458
0.136539
0.136618
0.136695
0.136768
0.136839
0.136907
0.136972
0.137034
0.137093
0.137149
0.137202
0.137252
0.137299
0.137343
0.137383
0.137421
0.137455
0.137486
0.137513
0.137537
0.137558
0.137575
0.137589
0.1376
0.137607
0.13761
0.137609
0.137605
0.137598
0.137586
0.137571
0.137552
0.137529
0.137503
0.137472
0.137437
0.137399
0.137616
0.137086
0.136444
0.135804
0.135197
0.134631
0.134109
0.133631
0.133195
0.132801
0.132445
0.132126
0.131842
0.13159
0.131368
0.131174
0.131006
0.130863
0.130743
0.130643
0.130563
0.130501
0.130455
0.130425
0.13041
0.130408
0.130418
0.130439
0.130472
0.130514
0.130565
0.130624
0.130691
0.130765
0.130846
0.130933
0.131025
0.131122
0.131224
0.13133
0.13144
0.131553
0.13167
0.131789
0.131911
0.132034
0.13216
0.132287
0.132416
0.132545
0.132676
0.132807
0.132938
0.13307
0.133202
0.133333
0.133465
0.133595
0.133726
0.133855
0.133984
0.134111
0.134238
0.134363
0.134487
0.134609
0.13473
0.134849
0.134967
0.135082
0.135196
0.135307
0.135417
0.135524
0.135629
0.135732
0.135833
0.135931
0.136027
0.13612
0.136211
0.136299
0.136385
0.136468
0.136548
0.136625
0.1367
0.136772
0.136841
0.136907
0.13697
0.13703
0.137087
0.137141
0.137192
0.137239
0.137284
0.137325
0.137363
0.137398
0.137429
0.137457
0.137481
0.137502
0.13752
0.137534
0.137545
0.137551
0.137555
0.137554
0.13755
0.137542
0.13753
0.137515
0.137495
0.137472
0.137444
0.137413
0.137377
0.137338
0.137081
0.136679
0.136139
0.135568
0.135006
0.134471
0.133971
0.13351
0.133086
0.132701
0.132353
0.132039
0.131759
0.13151
0.13129
0.131098
0.130931
0.130788
0.130668
0.130568
0.130487
0.130424
0.130378
0.130347
0.13033
0.130326
0.130335
0.130355
0.130386
0.130426
0.130476
0.130533
0.130599
0.130672
0.130751
0.130837
0.130928
0.131024
0.131125
0.13123
0.131339
0.131451
0.131567
0.131685
0.131807
0.13193
0.132055
0.132182
0.13231
0.13244
0.13257
0.132702
0.132833
0.132965
0.133097
0.13323
0.133361
0.133493
0.133624
0.133754
0.133884
0.134012
0.13414
0.134266
0.134391
0.134514
0.134636
0.134756
0.134875
0.134991
0.135106
0.135219
0.13533
0.135438
0.135545
0.135649
0.135751
0.135851
0.135948
0.136042
0.136134
0.136224
0.136311
0.136395
0.136476
0.136555
0.13663
0.136703
0.136773
0.13684
0.136904
0.136965
0.137023
0.137078
0.13713
0.137178
0.137223
0.137265
0.137304
0.137339
0.137371
0.137399
0.137424
0.137445
0.137463
0.137477
0.137488
0.137495
0.137498
0.137497
0.137493
0.137485
0.137473
0.137457
0.137437
0.137412
0.137384
0.137352
0.137316
0.137275
0.136612
0.136293
0.135835
0.135324
0.134807
0.134304
0.133828
0.133384
0.132974
0.132599
0.132258
0.13195
0.131675
0.131429
0.131212
0.131021
0.130856
0.130713
0.130593
0.130493
0.130411
0.130348
0.1303
0.130268
0.13025
0.130245
0.130252
0.130271
0.1303
0.130339
0.130387
0.130443
0.130507
0.130578
0.130656
0.13074
0.13083
0.130925
0.131025
0.131129
0.131237
0.131348
0.131463
0.131581
0.131702
0.131825
0.131949
0.132076
0.132204
0.132334
0.132464
0.132595
0.132727
0.13286
0.132992
0.133125
0.133257
0.133389
0.133521
0.133652
0.133782
0.133911
0.13404
0.134167
0.134293
0.134417
0.13454
0.134662
0.134781
0.134899
0.135015
0.135129
0.135241
0.135351
0.135459
0.135564
0.135668
0.135768
0.135867
0.135963
0.136056
0.136147
0.136235
0.13632
0.136403
0.136482
0.136559
0.136633
0.136704
0.136773
0.136838
0.1369
0.136958
0.137014
0.137066
0.137116
0.137162
0.137204
0.137243
0.137279
0.137311
0.13734
0.137366
0.137387
0.137405
0.13742
0.13743
0.137437
0.13744
0.13744
0.137435
0.137426
0.137414
0.137397
0.137377
0.137352
0.137323
0.13729
0.137253
0.137211
0.136195
0.135932
0.135538
0.13508
0.134604
0.134133
0.13368
0.133254
0.132858
0.132494
0.132162
0.131861
0.13159
0.131348
0.131133
0.130945
0.13078
0.130639
0.130519
0.130418
0.130336
0.130272
0.130223
0.13019
0.130171
0.130164
0.13017
0.130187
0.130215
0.130252
0.130298
0.130353
0.130415
0.130485
0.130561
0.130644
0.130732
0.130826
0.130924
0.131027
0.131134
0.131245
0.131359
0.131476
0.131596
0.131718
0.131843
0.131969
0.132097
0.132226
0.132357
0.132488
0.13262
0.132753
0.132886
0.133019
0.133151
0.133284