/*--------------------------------*- C++ -*----------------------------------*\
  =========                 |
  \\      /  F ield         | OpenFOAM: The Open Source CFD Toolbox
   \\    /   O peration     | Website:  https://openfoam.org
    \\  /    A nd           | Version:  8
     \\/     M anipulation  |
\*---------------------------------------------------------------------------*/
FoamFile
{
    version     2.0;
    format      ascii;
    class       volScalarField;
    location    "2";
    object      p;
}
// * * * * * * * * * * * * * * * * * * * * * * * * * * * * * * * * * * * * * //

dimensions      [0 2 -2 0 0 0 0];

internalField   nonuniform List<scalar> 
277560
(
-0.0612905
-0.0613021
-0.0612972
-0.0612894
-0.061279
-0.061267
-0.0612537
-0.0612395
-0.0612245
-0.061209
-0.0611931
-0.0611768
-0.0611601
-0.0611431
-0.0611259
-0.0611084
-0.0610907
-0.0610727
-0.0610545
-0.0610361
-0.0610175
-0.0609986
-0.0609795
-0.0609602
-0.0609407
-0.0609209
-0.0609009
-0.0608806
-0.06086
-0.0608392
-0.0608181
-0.0607967
-0.060775
-0.060753
-0.0607307
-0.060708
-0.0606851
-0.0606617
-0.060638
-0.0606139
-0.0605895
-0.0605646
-0.0605394
-0.0605137
-0.0604877
-0.0604612
-0.0604343
-0.0604068
-0.0603791
-0.0603507
-0.0603219
-0.0602926
-0.0602628
-0.0602325
-0.0602017
-0.0601702
-0.0601384
-0.0601058
-0.0600728
-0.0600391
-0.060005
-0.05997
-0.0599347
-0.0598985
-0.0598619
-0.0598244
-0.0597865
-0.0597476
-0.0597083
-0.0596681
-0.0596274
-0.0595858
-0.0595436
-0.0595004
-0.0594567
-0.059412
-0.0593667
-0.0593204
-0.0592735
-0.0592256
-0.059177
-0.0591274
-0.059077
-0.0590256
-0.0589735
-0.0589202
-0.0588663
-0.0588111
-0.0587552
-0.0586982
-0.0586403
-0.0585812
-0.0585213
-0.0584601
-0.0583981
-0.0583348
-0.0582706
-0.0582051
-0.0581386
-0.0580708
-0.058002
-0.0579318
-0.0578606
-0.057788
-0.0577143
-0.0576391
-0.0575629
-0.0574851
-0.0574062
-0.0573257
-0.0572441
-0.0571608
-0.0570763
-0.0569901
-0.0569027
-0.0568136
-0.0567231
-0.0566296
-0.0565336
-0.0564502
-0.0613033
-0.0613077
-0.0613009
-0.0612918
-0.0612808
-0.0612683
-0.0612547
-0.0612403
-0.0612253
-0.0612097
-0.0611937
-0.0611773
-0.0611606
-0.0611436
-0.0611263
-0.0611088
-0.061091
-0.061073
-0.0610548
-0.0610364
-0.0610178
-0.0609989
-0.0609798
-0.0609605
-0.060941
-0.0609212
-0.0609012
-0.0608809
-0.0608603
-0.0608395
-0.0608184
-0.0607971
-0.0607754
-0.0607534
-0.0607311
-0.0607084
-0.0606855
-0.0606621
-0.0606385
-0.0606144
-0.06059
-0.0605652
-0.06054
-0.0605144
-0.0604883
-0.0604619
-0.060435
-0.0604076
-0.0603798
-0.0603515
-0.0603227
-0.0602935
-0.0602637
-0.0602335
-0.0602027
-0.0601714
-0.0601395
-0.0601071
-0.060074
-0.0600405
-0.0600063
-0.0599715
-0.0599361
-0.0599001
-0.0598634
-0.0598261
-0.0597881
-0.0597495
-0.0597101
-0.0596701
-0.0596293
-0.0595879
-0.0595456
-0.0595027
-0.0594589
-0.0594145
-0.0593691
-0.0593231
-0.0592761
-0.0592284
-0.0591798
-0.0591304
-0.0590799
-0.0590288
-0.0589765
-0.0589235
-0.0588695
-0.0588146
-0.0587586
-0.0587017
-0.0586437
-0.0585849
-0.0585248
-0.0584639
-0.0584017
-0.0583387
-0.0582743
-0.058209
-0.0581424
-0.0580748
-0.0580058
-0.0579359
-0.0578645
-0.0577921
-0.0577182
-0.0576433
-0.0575668
-0.0574892
-0.0574101
-0.0573298
-0.0572478
-0.0571647
-0.0570799
-0.0569939
-0.0569061
-0.0568171
-0.0567263
-0.0566328
-0.0565363
-0.056453
-0.0613189
-0.0613158
-0.0613059
-0.0612952
-0.0612833
-0.0612702
-0.0612563
-0.0612416
-0.0612264
-0.0612107
-0.0611945
-0.0611781
-0.0611613
-0.0611443
-0.0611269
-0.0611094
-0.0610916
-0.0610736
-0.0610554
-0.061037
-0.0610183
-0.0609995
-0.0609804
-0.0609611
-0.0609415
-0.0609218
-0.0609018
-0.0608815
-0.060861
-0.0608402
-0.0608191
-0.0607978
-0.0607761
-0.0607542
-0.0607319
-0.0607093
-0.0606863
-0.0606631
-0.0606394
-0.0606154
-0.060591
-0.0605663
-0.0605411
-0.0605155
-0.0604895
-0.0604631
-0.0604362
-0.060409
-0.0603812
-0.060353
-0.0603242
-0.0602951
-0.0602653
-0.0602352
-0.0602044
-0.0601732
-0.0601413
-0.060109
-0.060076
-0.0600426
-0.0600084
-0.0599737
-0.0599383
-0.0599025
-0.0598658
-0.0598286
-0.0597906
-0.0597522
-0.0597128
-0.0596729
-0.0596322
-0.0595909
-0.0595486
-0.0595058
-0.0594621
-0.0594178
-0.0593724
-0.0593265
-0.0592796
-0.059232
-0.0591834
-0.0591341
-0.0590837
-0.0590327
-0.0589805
-0.0589276
-0.0588736
-0.0588188
-0.0587629
-0.0587061
-0.0586482
-0.0585895
-0.0585295
-0.0584687
-0.0584066
-0.0583436
-0.0582794
-0.0582142
-0.0581476
-0.0580801
-0.0580113
-0.0579414
-0.0578701
-0.0577978
-0.057724
-0.0576491
-0.0575727
-0.0574952
-0.0574161
-0.0573359
-0.057254
-0.057171
-0.0570862
-0.0570002
-0.0569125
-0.0568236
-0.0567327
-0.0566393
-0.0565428
-0.0564595
-0.0613324
-0.0613243
-0.0613117
-0.0612996
-0.0612866
-0.0612729
-0.0612585
-0.0612435
-0.061228
-0.0612121
-0.0611958
-0.0611793
-0.0611624
-0.0611453
-0.0611279
-0.0611103
-0.0610925
-0.0610745
-0.0610563
-0.0610378
-0.0610192
-0.0610004
-0.0609813
-0.060962
-0.0609425
-0.0609228
-0.0609028
-0.0608825
-0.0608621
-0.0608413
-0.0608203
-0.060799
-0.0607773
-0.0607554
-0.0607332
-0.0607106
-0.0606878
-0.0606645
-0.0606409
-0.060617
-0.0605927
-0.060568
-0.0605429
-0.0605174
-0.0604915
-0.0604651
-0.0604383
-0.0604111
-0.0603835
-0.0603553
-0.0603267
-0.0602976
-0.060268
-0.0602378
-0.0602072
-0.060176
-0.0601443
-0.060112
-0.0600792
-0.0600458
-0.0600118
-0.0599772
-0.059942
-0.0599061
-0.0598697
-0.0598325
-0.0597948
-0.0597563
-0.0597172
-0.0596773
-0.0596369
-0.0595955
-0.0595536
-0.0595108
-0.0594673
-0.0594229
-0.0593779
-0.059332
-0.0592854
-0.0592377
-0.0591895
-0.0591402
-0.0590901
-0.059039
-0.0589872
-0.0589343
-0.0588806
-0.0588258
-0.0587702
-0.0587134
-0.0586559
-0.0585971
-0.0585375
-0.0584766
-0.0584149
-0.0583518
-0.0582879
-0.0582227
-0.0581565
-0.0580889
-0.0580204
-0.0579505
-0.0578795
-0.0578071
-0.0577336
-0.0576587
-0.0575826
-0.057505
-0.0574262
-0.0573459
-0.0572643
-0.0571811
-0.0570967
-0.0570105
-0.0569231
-0.056834
-0.0567434
-0.0566498
-0.0565536
-0.0564701
-0.061344
-0.0613325
-0.0613179
-0.0613045
-0.0612906
-0.0612761
-0.0612612
-0.0612458
-0.06123
-0.0612139
-0.0611975
-0.0611808
-0.0611638
-0.0611466
-0.0611292
-0.0611116
-0.0610937
-0.0610757
-0.0610575
-0.061039
-0.0610204
-0.0610015
-0.0609825
-0.0609632
-0.0609438
-0.060924
-0.0609041
-0.0608839
-0.0608635
-0.0608427
-0.0608218
-0.0608005
-0.060779
-0.0607571
-0.060735
-0.0607124
-0.0606897
-0.0606665
-0.060643
-0.0606191
-0.0605949
-0.0605702
-0.0605453
-0.0605198
-0.060494
-0.0604677
-0.0604411
-0.0604139
-0.0603864
-0.0603583
-0.0603299
-0.0603008
-0.0602714
-0.0602413
-0.0602108
-0.0601797
-0.0601482
-0.060116
-0.0600834
-0.06005
-0.0600162
-0.0599817
-0.0599467
-0.0599109
-0.0598747
-0.0598376
-0.0598001
-0.0597617
-0.0597228
-0.059683
-0.0596427
-0.0596015
-0.0595597
-0.059517
-0.0594738
-0.0594296
-0.0593848
-0.0593389
-0.0592925
-0.0592451
-0.059197
-0.0591478
-0.059098
-0.0590471
-0.0589955
-0.0589427
-0.0588892
-0.0588346
-0.0587792
-0.0587226
-0.0586652
-0.0586066
-0.0585472
-0.0584865
-0.058425
-0.0583621
-0.0582984
-0.0582333
-0.0581673
-0.0580999
-0.0580316
-0.0579618
-0.057891
-0.0578188
-0.0577455
-0.0576707
-0.0575948
-0.0575174
-0.0574388
-0.0573586
-0.0572772
-0.0571942
-0.05711
-0.057024
-0.0569367
-0.0568478
-0.0567574
-0.0566639
-0.0565678
-0.0564845
-0.0613542
-0.0613403
-0.0613242
-0.0613096
-0.0612948
-0.0612797
-0.0612643
-0.0612485
-0.0612324
-0.0612161
-0.0611995
-0.0611826
-0.0611655
-0.0611483
-0.0611308
-0.0611131
-0.0610952
-0.0610771
-0.0610589
-0.0610405
-0.0610218
-0.061003
-0.060984
-0.0609648
-0.0609453
-0.0609256
-0.0609058
-0.0608856
-0.0608652
-0.0608446
-0.0608237
-0.0608025
-0.060781
-0.0607592
-0.0607371
-0.0607147
-0.060692
-0.0606689
-0.0606455
-0.0606217
-0.0605976
-0.0605731
-0.0605482
-0.0605229
-0.0604972
-0.060471
-0.0604445
-0.0604175
-0.06039
-0.0603621
-0.0603337
-0.0603049
-0.0602755
-0.0602457
-0.0602153
-0.0601844
-0.0601529
-0.060121
-0.0600884
-0.0600553
-0.0600215
-0.0599873
-0.0599523
-0.0599169
-0.0598807
-0.0598439
-0.0598064
-0.0597683
-0.0597295
-0.0596901
-0.0596498
-0.059609
-0.0595672
-0.0595249
-0.0594817
-0.0594379
-0.0593931
-0.0593477
-0.0593013
-0.0592542
-0.0592062
-0.0591575
-0.0591077
-0.0590572
-0.0590056
-0.0589532
-0.0588998
-0.0588456
-0.0587903
-0.0587341
-0.0586768
-0.0586186
-0.0585592
-0.058499
-0.0584375
-0.0583751
-0.0583114
-0.0582468
-0.0581808
-0.0581139
-0.0580456
-0.0579763
-0.0579056
-0.0578338
-0.0577605
-0.0576862
-0.0576103
-0.0575333
-0.0574547
-0.057375
-0.0572936
-0.057211
-0.0571267
-0.0570412
-0.0569539
-0.0568654
-0.056775
-0.056682
-0.056586
-0.0565031
-0.0613632
-0.0613476
-0.0613303
-0.0613148
-0.0612993
-0.0612836
-0.0612677
-0.0612515
-0.0612351
-0.0612185
-0.0612017
-0.0611847
-0.0611675
-0.0611501
-0.0611326
-0.0611148
-0.0610969
-0.0610788
-0.0610606
-0.0610422
-0.0610235
-0.0610048
-0.0609858
-0.0609666
-0.0609472
-0.0609276
-0.0609077
-0.0608877
-0.0608673
-0.0608468
-0.0608259
-0.0608048
-0.0607834
-0.0607617
-0.0607397
-0.0607174
-0.0606948
-0.0606718
-0.0606485
-0.0606249
-0.0606008
-0.0605765
-0.0605516
-0.0605265
-0.0605009
-0.0604749
-0.0604485
-0.0604217
-0.0603943
-0.0603666
-0.0603383
-0.0603097
-0.0602804
-0.0602508
-0.0602205
-0.0601898
-0.0601585
-0.0601267
-0.0600943
-0.0600614
-0.0600278
-0.0599938
-0.059959
-0.0599238
-0.0598877
-0.0598512
-0.0598139
-0.0597761
-0.0597374
-0.0596982
-0.0596581
-0.0596176
-0.059576
-0.059534
-0.059491
-0.0594474
-0.0594028
-0.0593577
-0.0593115
-0.0592647
-0.0592169
-0.0591685
-0.0591189
-0.0590687
-0.0590173
-0.0589653
-0.0589121
-0.0588582
-0.0588031
-0.0587472
-0.0586902
-0.0586323
-0.0585732
-0.0585132
-0.058452
-0.0583899
-0.0583265
-0.0582622
-0.0581965
-0.0581299
-0.0580619
-0.0579929
-0.0579224
-0.0578509
-0.057778
-0.0577039
-0.0576284
-0.0575517
-0.0574734
-0.057394
-0.057313
-0.0572307
-0.0571468
-0.0570616
-0.0569747
-0.0568865
-0.0567965
-0.0567038
-0.0566081
-0.0565256
-0.061371
-0.0613543
-0.0613362
-0.06132
-0.0613039
-0.0612876
-0.0612712
-0.0612547
-0.061238
-0.0612212
-0.0612041
-0.061187
-0.0611697
-0.0611522
-0.0611346
-0.0611168
-0.0610989
-0.0610808
-0.0610625
-0.0610441
-0.0610255
-0.0610067
-0.0609878
-0.0609686
-0.0609493
-0.0609298
-0.06091
-0.06089
-0.0608697
-0.0608492
-0.0608285
-0.0608075
-0.0607862
-0.0607646
-0.0607427
-0.0607205
-0.060698
-0.0606752
-0.060652
-0.0606285
-0.0606046
-0.0605803
-0.0605557
-0.0605306
-0.0605052
-0.0604794
-0.0604531
-0.0604264
-0.0603993
-0.0603717
-0.0603436
-0.0603151
-0.0602861
-0.0602565
-0.0602265
-0.060196
-0.0601649
-0.0601333
-0.0601012
-0.0600684
-0.0600351
-0.0600012
-0.0599667
-0.0599316
-0.0598959
-0.0598595
-0.0598225
-0.0597848
-0.0597465
-0.0597074
-0.0596678
-0.0596273
-0.0595862
-0.0595442
-0.0595016
-0.0594581
-0.059414
-0.059369
-0.0593233
-0.0592766
-0.0592292
-0.0591809
-0.0591318
-0.0590817
-0.0590308
-0.0589789
-0.0589262
-0.0588724
-0.0588178
-0.0587621
-0.0587055
-0.0586478
-0.0585892
-0.0585294
-0.0584687
-0.0584068
-0.0583439
-0.0582797
-0.0582146
-0.0581482
-0.0580807
-0.0580118
-0.057942
-0.0578707
-0.0577983
-0.0577244
-0.0576494
-0.0575729
-0.0574953
-0.057416
-0.0573356
-0.0572535
-0.0571702
-0.0570851
-0.0569989
-0.0569109
-0.0568215
-0.056729
-0.056634
-0.0565517
-0.061378
-0.0613605
-0.0613419
-0.0613252
-0.0613085
-0.0612918
-0.061275
-0.0612581
-0.0612411
-0.061224
-0.0612068
-0.0611895
-0.061172
-0.0611545
-0.0611368
-0.061119
-0.061101
-0.0610829
-0.0610646
-0.0610462
-0.0610277
-0.0610089
-0.0609901
-0.060971
-0.0609517
-0.0609322
-0.0609125
-0.0608926
-0.0608725
-0.060852
-0.0608314
-0.0608105
-0.0607893
-0.0607678
-0.0607461
-0.060724
-0.0607017
-0.0606789
-0.0606559
-0.0606325
-0.0606088
-0.0605847
-0.0605602
-0.0605353
-0.0605101
-0.0604844
-0.0604583
-0.0604318
-0.0604049
-0.0603774
-0.0603496
-0.0603212
-0.0602924
-0.0602631
-0.0602333
-0.0602029
-0.0601721
-0.0601407
-0.0601088
-0.0600762
-0.0600432
-0.0600095
-0.0599753
-0.0599404
-0.059905
-0.0598688
-0.0598321
-0.0597946
-0.0597566
-0.0597178
-0.0596784
-0.0596382
-0.0595974
-0.0595557
-0.0595134
-0.0594702
-0.0594264
-0.0593817
-0.0593363
-0.0592899
-0.0592429
-0.0591948
-0.0591461
-0.0590963
-0.0590458
-0.0589942
-0.0589419
-0.0588885
-0.0588342
-0.0587789
-0.0587227
-0.0586653
-0.0586071
-0.0585477
-0.0584874
-0.0584258
-0.0583633
-0.0582995
-0.0582348
-0.0581688
-0.0581017
-0.0580333
-0.0579638
-0.057893
-0.057821
-0.0577476
-0.0576731
-0.057597
-0.0575199
-0.0574411
-0.0573612
-0.0572796
-0.0571968
-0.0571123
-0.0570265
-0.0569391
-0.0568502
-0.0567583
-0.0566638
-0.056582
-0.0613843
-0.0613664
-0.0613475
-0.0613303
-0.0613132
-0.061296
-0.0612788
-0.0612616
-0.0612443
-0.061227
-0.0612096
-0.0611921
-0.0611746
-0.0611569
-0.0611392
-0.0611213
-0.0611033
-0.0610852
-0.061067
-0.0610486
-0.0610301
-0.0610114
-0.0609926
-0.0609735
-0.0609543
-0.0609349
-0.0609153
-0.0608955
-0.0608755
-0.0608552
-0.0608346
-0.0608139
-0.0607928
-0.0607715
-0.0607498
-0.0607279
-0.0607057
-0.0606831
-0.0606603
-0.060637
-0.0606135
-0.0605895
-0.0605652
-0.0605405
-0.0605155
-0.06049
-0.0604641
-0.0604378
-0.060411
-0.0603838
-0.0603561
-0.060328
-0.0602994
-0.0602703
-0.0602407
-0.0602107
-0.06018
-0.0601489
-0.0601172
-0.0600849
-0.0600521
-0.0600187
-0.0599847
-0.0599501
-0.0599149
-0.0598791
-0.0598426
-0.0598055
-0.0597677
-0.0597293
-0.0596901
-0.0596503
-0.0596096
-0.0595684
-0.0595263
-0.0594836
-0.05944
-0.0593957
-0.0593505
-0.0593046
-0.0592578
-0.0592103
-0.0591617
-0.0591125
-0.0590622
-0.0590112
-0.0589591
-0.0589062
-0.0588522
-0.0587974
-0.0587415
-0.0586847
-0.0586268
-0.0585679
-0.0585079
-0.058447
-0.0583848
-0.0583216
-0.0582572
-0.0581918
-0.0581251
-0.0580573
-0.0579882
-0.057918
-0.0578463
-0.0577736
-0.0576994
-0.0576241
-0.0575473
-0.0574692
-0.0573896
-0.0573088
-0.0572263
-0.0571426
-0.0570571
-0.0569705
-0.056882
-0.056791
-0.056697
-0.056616
-0.0613903
-0.061372
-0.0613529
-0.0613354
-0.0613178
-0.0613003
-0.0612828
-0.0612652
-0.0612477
-0.0612301
-0.0612125
-0.0611949
-0.0611772
-0.0611595
-0.0611417
-0.0611238
-0.0611058
-0.0610877
-0.0610695
-0.0610511
-0.0610326
-0.061014
-0.0609952
-0.0609763
-0.0609572
-0.0609379
-0.0609184
-0.0608987
-0.0608787
-0.0608586
-0.0608382
-0.0608175
-0.0607966
-0.0607754
-0.0607539
-0.0607322
-0.0607101
-0.0606878
-0.060665
-0.060642
-0.0606186
-0.0605949
-0.0605707
-0.0605463
-0.0605213
-0.0604961
-0.0604704
-0.0604443
-0.0604177
-0.0603908
-0.0603633
-0.0603355
-0.060307
-0.0602783
-0.0602489
-0.0602191
-0.0601886
-0.0601578
-0.0601263
-0.0600944
-0.0600618
-0.0600288
-0.059995
-0.0599607
-0.0599257
-0.0598903
-0.059854
-0.0598173
-0.0597798
-0.0597417
-0.0597028
-0.0596634
-0.0596231
-0.0595822
-0.0595404
-0.0594981
-0.0594548
-0.0594109
-0.0593661
-0.0593206
-0.0592742
-0.0592271
-0.0591789
-0.0591301
-0.0590802
-0.0590296
-0.0589779
-0.0589255
-0.0588719
-0.0588176
-0.0587621
-0.0587058
-0.0586483
-0.0585899
-0.0585303
-0.0584699
-0.0584082
-0.0583456
-0.0582816
-0.0582167
-0.0581505
-0.0580833
-0.0580147
-0.0579451
-0.057874
-0.0578019
-0.0577283
-0.0576536
-0.0575774
-0.0575
-0.057421
-0.0573409
-0.057259
-0.057176
-0.0570913
-0.0570054
-0.0569176
-0.0568273
-0.056734
-0.0566537
-0.061396
-0.0613776
-0.0613583
-0.0613404
-0.0613225
-0.0613046
-0.0612867
-0.0612689
-0.0612511
-0.0612333
-0.0612155
-0.0611977
-0.06118
-0.0611622
-0.0611443
-0.0611264
-0.0611084
-0.0610903
-0.0610721
-0.0610538
-0.0610354
-0.0610169
-0.0609982
-0.0609793
-0.0609603
-0.0609411
-0.0609217
-0.0609021
-0.0608823
-0.0608623
-0.060842
-0.0608215
-0.0608007
-0.0607797
-0.0607584
-0.0607368
-0.0607149
-0.0606927
-0.0606702
-0.0606473
-0.0606241
-0.0606006
-0.0605767
-0.0605524
-0.0605277
-0.0605027
-0.0604772
-0.0604513
-0.060425
-0.0603983
-0.0603711
-0.0603435
-0.0603154
-0.0602868
-0.0602577
-0.0602281
-0.060198
-0.0601674
-0.0601363
-0.0601046
-0.0600723
-0.0600395
-0.0600061
-0.0599721
-0.0599375
-0.0599023
-0.0598665
-0.05983
-0.0597929
-0.059755
-0.0597166
-0.0596774
-0.0596376
-0.059597
-0.0595557
-0.0595136
-0.0594708
-0.0594272
-0.0593829
-0.0593377
-0.0592918
-0.0592449
-0.0591974
-0.0591488
-0.0590996
-0.0590493
-0.0589982
-0.0589461
-0.0588932
-0.0588392
-0.0587843
-0.0587283
-0.0586715
-0.0586135
-0.0585547
-0.0584946
-0.0584336
-0.0583713
-0.0583082
-0.0582437
-0.0581782
-0.0581114
-0.0580436
-0.0579744
-0.0579042
-0.0578325
-0.0577598
-0.0576856
-0.0576102
-0.0575333
-0.0574552
-0.0573756
-0.0572947
-0.0572122
-0.0571285
-0.0570431
-0.0569563
-0.0568666
-0.0567744
-0.0566946
-0.0614019
-0.0613832
-0.0613637
-0.0613455
-0.0613272
-0.061309
-0.0612907
-0.0612726
-0.0612545
-0.0612365
-0.0612186
-0.0612007
-0.0611828
-0.0611649
-0.061147
-0.0611291
-0.0611111
-0.0610931
-0.0610749
-0.0610567
-0.0610383
-0.0610198
-0.0610013
-0.0609825
-0.0609636
-0.0609445
-0.0609253
-0.0609058
-0.0608861
-0.0608662
-0.0608461
-0.0608258
-0.0608052
-0.0607843
-0.0607632
-0.0607418
-0.0607201
-0.0606981
-0.0606758
-0.0606531
-0.0606301
-0.0606068
-0.0605831
-0.060559
-0.0605346
-0.0605097
-0.0604846
-0.0604589
-0.0604329
-0.0604064
-0.0603795
-0.0603521
-0.0603243
-0.0602959
-0.0602672
-0.0602378
-0.0602081
-0.0601777
-0.060147
-0.0601155
-0.0600836
-0.0600511
-0.0600181
-0.0599843
-0.0599502
-0.0599152
-0.0598798
-0.0598436
-0.0598069
-0.0597694
-0.0597314
-0.0596925
-0.0596532
-0.0596129
-0.0595721
-0.0595303
-0.059488
-0.0594448
-0.059401
-0.0593562
-0.0593108
-0.0592643
-0.0592173
-0.0591692
-0.0591204
-0.0590706
-0.0590201
-0.0589684
-0.0589161
-0.0588625
-0.0588082
-0.0587528
-0.0586965
-0.0586391
-0.0585808
-0.0585213
-0.0584609
-0.0583992
-0.0583367
-0.0582728
-0.058208
-0.0581419
-0.0580747
-0.0580062
-0.0579367
-0.0578657
-0.0577937
-0.0577202
-0.0576456
-0.0575694
-0.0574922
-0.0574133
-0.0573333
-0.0572516
-0.0571687
-0.0570841
-0.0569983
-0.0569094
-0.0568181
-0.0567392
-0.061408
-0.061389
-0.0613693
-0.0613507
-0.061332
-0.0613133
-0.0612947
-0.0612763
-0.0612579
-0.0612397
-0.0612216
-0.0612036
-0.0611857
-0.0611677
-0.0611498
-0.0611319
-0.0611139
-0.0610959
-0.0610779
-0.0610597
-0.0610414
-0.061023
-0.0610045
-0.0609859
-0.0609671
-0.0609481
-0.060929
-0.0609097
-0.0608902
-0.0608705
-0.0608505
-0.0608303
-0.0608099
-0.0607893
-0.0607683
-0.0607471
-0.0607256
-0.0607038
-0.0606817
-0.0606593
-0.0606365
-0.0606134
-0.0605899
-0.0605661
-0.0605419
-0.0605174
-0.0604924
-0.060467
-0.0604412
-0.060415
-0.0603884
-0.0603613
-0.0603337
-0.0603058
-0.0602772
-0.0602483
-0.0602188
-0.0601888
-0.0601582
-0.0601272
-0.0600956
-0.0600635
-0.0600307
-0.0599974
-0.0599635
-0.0599291
-0.0598939
-0.0598582
-0.0598218
-0.0597848
-0.0597471
-0.0597087
-0.0596696
-0.0596299
-0.0595894
-0.0595482
-0.0595062
-0.0594636
-0.0594201
-0.0593759
-0.0593308
-0.0592851
-0.0592384
-0.0591909
-0.0591425
-0.0590934
-0.0590432
-0.0589923
-0.0589403
-0.0588875
-0.0588336
-0.0587789
-0.0587231
-0.0586664
-0.0586086
-0.0585499
-0.05849
-0.0584292
-0.0583671
-0.0583041
-0.0582398
-0.0581746
-0.058108
-0.0580404
-0.0579714
-0.0579014
-0.0578299
-0.0577574
-0.0576834
-0.0576082
-0.0575316
-0.0574538
-0.0573743
-0.0572937
-0.0572115
-0.0571281
-0.0570429
-0.0569553
-0.0568648
-0.056787
-0.0614147
-0.0613951
-0.061375
-0.061356
-0.0613368
-0.0613177
-0.0612987
-0.0612799
-0.0612614
-0.061243
-0.0612247
-0.0612066
-0.0611886
-0.0611706
-0.0611527
-0.0611348
-0.0611168
-0.0610989
-0.0610809
-0.0610628
-0.0610446
-0.0610263
-0.0610079
-0.0609894
-0.0609708
-0.060952
-0.060933
-0.0609138
-0.0608945
-0.060875
-0.0608552
-0.0608352
-0.0608149
-0.0607945
-0.0607737
-0.0607528
-0.0607314
-0.0607099
-0.060688
-0.0606658
-0.0606432
-0.0606204
-0.0605972
-0.0605737
-0.0605497
-0.0605254
-0.0605007
-0.0604757
-0.0604501
-0.0604242
-0.0603978
-0.0603711
-0.0603438
-0.0603162
-0.0602879
-0.0602593
-0.0602301
-0.0602005
-0.0601703
-0.0601396
-0.0601083
-0.0600766
-0.0600442
-0.0600113
-0.0599777
-0.0599437
-0.0599089
-0.0598737
-0.0598376
-0.0598011
-0.0597637
-0.0597259
-0.0596872
-0.059648
-0.0596079
-0.0595672
-0.0595257
-0.0594835
-0.0594405
-0.0593969
-0.0593522
-0.059307
-0.0592608
-0.059214
-0.0591661
-0.0591175
-0.0590679
-0.0590176
-0.0589661
-0.058914
-0.0588607
-0.0588066
-0.0587514
-0.0586954
-0.0586382
-0.0585802
-0.0585209
-0.0584608
-0.0583995
-0.0583372
-0.0582736
-0.0582091
-0.0581433
-0.0580765
-0.0580083
-0.0579391
-0.0578684
-0.0577968
-0.0577236
-0.0576494
-0.0575736
-0.0574967
-0.0574182
-0.0573386
-0.0572573
-0.0571749
-0.0570907
-0.0570041
-0.0569147
-0.0568379
-0.0614221
-0.0614017
-0.061381
-0.0613614
-0.0613416
-0.061322
-0.0613026
-0.0612835
-0.0612647
-0.0612461
-0.0612277
-0.0612095
-0.0611915
-0.0611735
-0.0611556
-0.0611377
-0.0611198
-0.0611019
-0.061084
-0.061066
-0.061048
-0.0610298
-0.0610115
-0.0609932
-0.0609746
-0.060956
-0.0609372
-0.0609182
-0.060899
-0.0608797
-0.0608601
-0.0608403
-0.0608203
-0.0608
-0.0607795
-0.0607587
-0.0607376
-0.0607163
-0.0606947
-0.0606727
-0.0606504
-0.0606278
-0.0606049
-0.0605816
-0.060558
-0.0605339
-0.0605095
-0.0604847
-0.0604595
-0.0604339
-0.0604079
-0.0603814
-0.0603545
-0.0603271
-0.0602993
-0.0602709
-0.0602422
-0.0602128
-0.060183
-0.0601527
-0.0601218
-0.0600904
-0.0600585
-0.0600259
-0.0599928
-0.0599591
-0.0599248
-0.0598899
-0.0598544
-0.0598182
-0.0597814
-0.0597439
-0.0597058
-0.0596669
-0.0596274
-0.0595871
-0.0595462
-0.0595045
-0.0594621
-0.0594188
-0.0593749
-0.0593301
-0.0592846
-0.0592381
-0.059191
-0.0591429
-0.059094
-0.0590441
-0.0589935
-0.0589418
-0.0588893
-0.0588358
-0.0587814
-0.0587259
-0.0586696
-0.0586121
-0.0585537
-0.0584942
-0.0584338
-0.0583721
-0.0583095
-0.0582456
-0.0581807
-0.0581146
-0.0580474
-0.0579789
-0.0579093
-0.0578383
-0.0577663
-0.0576928
-0.0576182
-0.057542
-0.0574648
-0.0573859
-0.0573059
-0.0572243
-0.0571414
-0.0570557
-0.0569676
-0.0568916
-0.0614306
-0.0614088
-0.0613873
-0.0613668
-0.0613464
-0.0613262
-0.0613064
-0.061287
-0.061268
-0.0612492
-0.0612307
-0.0612125
-0.0611943
-0.0611764
-0.0611585
-0.0611406
-0.0611228
-0.061105
-0.0610872
-0.0610694
-0.0610514
-0.0610334
-0.0610153
-0.060997
-0.0609787
-0.0609602
-0.0609416
-0.0609227
-0.0609038
-0.0608846
-0.0608653
-0.0608457
-0.0608259
-0.0608058
-0.0607856
-0.060765
-0.0607442
-0.0607231
-0.0607017
-0.06068
-0.060658
-0.0606356
-0.060613
-0.06059
-0.0605667
-0.0605429
-0.0605188
-0.0604943
-0.0604695
-0.0604441
-0.0604185
-0.0603923
-0.0603657
-0.0603387
-0.0603112
-0.0602832
-0.0602548
-0.0602258
-0.0601965
-0.0601664
-0.060136
-0.060105
-0.0600735
-0.0600413
-0.0600087
-0.0599754
-0.0599416
-0.059907
-0.059872
-0.0598363
-0.0598
-0.0597629
-0.0597253
-0.0596869
-0.059648
-0.0596082
-0.0595679
-0.0595266
-0.0594848
-0.0594421
-0.0593988
-0.0593545
-0.0593096
-0.0592637
-0.0592172
-0.0591697
-0.0591215
-0.0590722
-0.0590223
-0.0589712
-0.0589195
-0.0588666
-0.058813
-0.0587582
-0.0587026
-0.0586459
-0.0585883
-0.0585295
-0.0584699
-0.058409
-0.0583472
-0.0582842
-0.0582202
-0.0581549
-0.0580886
-0.058021
-0.0579524
-0.0578823
-0.0578113
-0.0577387
-0.0576651
-0.05759
-0.0575138
-0.0574359
-0.057357
-0.0572765
-0.0571947
-0.0571101
-0.0570233
-0.0569483
-0.0614403
-0.0614163
-0.0613937
-0.0613722
-0.061351
-0.0613303
-0.0613101
-0.0612904
-0.0612711
-0.0612522
-0.0612336
-0.0612153
-0.0611972
-0.0611792
-0.0611614
-0.0611436
-0.0611259
-0.0611082
-0.0610905
-0.0610728
-0.061055
-0.0610371
-0.0610191
-0.0610011
-0.0609829
-0.0609646
-0.0609461
-0.0609275
-0.0609088
-0.0608898
-0.0608707
-0.0608513
-0.0608317
-0.0608119
-0.0607919
-0.0607716
-0.060751
-0.0607302
-0.0607091
-0.0606876
-0.0606659
-0.0606439
-0.0606215
-0.0605988
-0.0605757
-0.0605523
-0.0605285
-0.0605044
-0.0604798
-0.0604549
-0.0604295
-0.0604037
-0.0603775
-0.0603508
-0.0603237
-0.0602961
-0.0602681
-0.0602395
-0.0602105
-0.060181
-0.0601509
-0.0601203
-0.0600892
-0.0600575
-0.0600252
-0.0599925
-0.059959
-0.0599251
-0.0598905
-0.0598553
-0.0598194
-0.059783
-0.0597458
-0.059708
-0.0596695
-0.0596304
-0.0595904
-0.0595499
-0.0595085
-0.0594665
-0.0594236
-0.0593801
-0.0593357
-0.0592906
-0.0592446
-0.0591979
-0.0591502
-0.0591018
-0.0590524
-0.0590022
-0.058951
-0.0588991
-0.058846
-0.0587922
-0.0587372
-0.0586814
-0.0586245
-0.0585667
-0.0585077
-0.0584479
-0.0583868
-0.0583248
-0.0582615
-0.0581973
-0.0581318
-0.0580653
-0.0579975
-0.0579286
-0.0578583
-0.057787
-0.0577142
-0.0576404
-0.057565
-0.0574885
-0.0574104
-0.0573313
-0.0572505
-0.0571673
-0.0570815
-0.0570079
-0.0614514
-0.0614244
-0.0614002
-0.0613776
-0.0613555
-0.0613341
-0.0613135
-0.0612935
-0.061274
-0.061255
-0.0612364
-0.0612181
-0.0612
-0.061182
-0.0611643
-0.0611466
-0.061129
-0.0611114
-0.0610938
-0.0610763
-0.0610586
-0.0610409
-0.0610231
-0.0610052
-0.0609872
-0.0609691
-0.0609509
-0.0609325
-0.0609139
-0.0608952
-0.0608763
-0.0608572
-0.0608378
-0.0608183
-0.0607985
-0.0607785
-0.0607581
-0.0607376
-0.0607167
-0.0606957
-0.0606742
-0.0606525
-0.0606304
-0.060608
-0.0605852
-0.0605622
-0.0605387
-0.0605149
-0.0604907
-0.0604661
-0.0604411
-0.0604157
-0.0603898
-0.0603636
-0.0603368
-0.0603096
-0.0602819
-0.0602539
-0.0602252
-0.0601961
-0.0601664
-0.0601364
-0.0601056
-0.0600745
-0.0600426
-0.0600104
-0.0599774
-0.059944
-0.0599098
-0.0598752
-0.0598398
-0.0598039
-0.0597672
-0.05973
-0.059692
-0.0596535
-0.0596142
-0.0595742
-0.0595334
-0.0594921
-0.0594498
-0.0594069
-0.0593631
-0.0593187
-0.0592734
-0.0592274
-0.0591803
-0.0591327
-0.059084
-0.0590346
-0.0589841
-0.058933
-0.0588807
-0.0588276
-0.0587735
-0.0587185
-0.0586624
-0.0586055
-0.0585474
-0.0584884
-0.0584282
-0.0583672
-0.0583048
-0.0582416
-0.058177
-0.0581116
-0.0580447
-0.0579769
-0.0579076
-0.0578374
-0.0577657
-0.057693
-0.0576187
-0.0575434
-0.0574665
-0.0573886
-0.0573089
-0.057227
-0.0571425
-0.0570701
-0.0614641
-0.0614328
-0.0614065
-0.0613825
-0.0613595
-0.0613376
-0.0613166
-0.0612964
-0.0612768
-0.0612577
-0.061239
-0.0612207
-0.0612027
-0.0611848
-0.0611671
-0.0611496
-0.0611321
-0.0611147
-0.0610973
-0.0610798
-0.0610624
-0.0610449
-0.0610272
-0.0610096
-0.0609918
-0.0609739
-0.0609558
-0.0609377
-0.0609193
-0.0609008
-0.0608821
-0.0608633
-0.0608442
-0.0608249
-0.0608054
-0.0607856
-0.0607656
-0.0607454
-0.0607248
-0.060704
-0.0606829
-0.0606614
-0.0606397
-0.0606176
-0.0605952
-0.0605725
-0.0605494
-0.0605259
-0.060502
-0.0604778
-0.0604532
-0.0604281
-0.0604027
-0.0603768
-0.0603505
-0.0603237
-0.0602965
-0.0602687
-0.0602406
-0.0602119
-0.0601827
-0.060153
-0.0601228
-0.0600921
-0.0600608
-0.060029
-0.0599966
-0.0599636
-0.05993
-0.0598958
-0.0598611
-0.0598256
-0.0597897
-0.0597529
-0.0597156
-0.0596776
-0.0596389
-0.0595995
-0.0595595
-0.0595186
-0.0594771
-0.0594348
-0.0593918
-0.0593479
-0.0593034
-0.0592579
-0.0592118
-0.0591647
-0.059117
-0.0590682
-0.0590187
-0.0589681
-0.0589168
-0.0588644
-0.0588113
-0.058757
-0.058702
-0.0586458
-0.0585887
-0.0585305
-0.0584714
-0.0584112
-0.05835
-0.0582876
-0.0582242
-0.0581596
-0.058094
-0.058027
-0.0579591
-0.0578897
-0.0578194
-0.0577476
-0.0576748
-0.0576004
-0.057525
-0.0574481
-0.0573699
-0.0572891
-0.0572061
-0.0571347
-0.0614783
-0.0614412
-0.0614124
-0.061387
-0.0613631
-0.0613407
-0.0613193
-0.0612989
-0.0612793
-0.0612602
-0.0612415
-0.0612233
-0.0612053
-0.0611876
-0.06117
-0.0611526
-0.0611352
-0.0611179
-0.0611007
-0.0610835
-0.0610662
-0.0610489
-0.0610315
-0.061014
-0.0609964
-0.0609787
-0.0609609
-0.060943
-0.0609249
-0.0609067
-0.0608883
-0.0608696
-0.0608508
-0.0608318
-0.0608126
-0.0607931
-0.0607734
-0.0607534
-0.0607332
-0.0607126
-0.0606919
-0.0606707
-0.0606494
-0.0606276
-0.0606056
-0.0605832
-0.0605605
-0.0605373
-0.0605139
-0.06049
-0.0604658
-0.0604411
-0.0604161
-0.0603906
-0.0603647
-0.0603383
-0.0603116
-0.0602843
-0.0602566
-0.0602283
-0.0601997
-0.0601704
-0.0601408
-0.0601105
-0.0600797
-0.0600484
-0.0600165
-0.059984
-0.0599511
-0.0599174
-0.0598833
-0.0598484
-0.059813
-0.0597768
-0.0597402
-0.0597027
-0.0596647
-0.0596259
-0.0595866
-0.0595463
-0.0595055
-0.0594639
-0.0594216
-0.0593784
-0.0593347
-0.0592899
-0.0592446
-0.0591982
-0.0591513
-0.0591033
-0.0590546
-0.0590049
-0.0589544
-0.0589029
-0.0588506
-0.0587972
-0.0587431
-0.0586878
-0.0586318
-0.0585745
-0.0585164
-0.0584571
-0.058397
-0.0583355
-0.0582733
-0.0582097
-0.0581452
-0.0580793
-0.0580125
-0.0579443
-0.0578752
-0.0578046
-0.057733
-0.0576598
-0.0575857
-0.05751
-0.0574332
-0.0573538
-0.0572722
-0.057202
-0.0614942
-0.0614489
-0.0614174
-0.0613906
-0.061366
-0.0613431
-0.0613216
-0.0613011
-0.0612815
-0.0612624
-0.0612438
-0.0612257
-0.0612078
-0.0611902
-0.0611728
-0.0611555
-0.0611384
-0.0611213
-0.0611042
-0.0610872
-0.0610701
-0.061053
-0.0610358
-0.0610186
-0.0610012
-0.0609838
-0.0609662
-0.0609485
-0.0609307
-0.0609127
-0.0608946
-0.0608762
-0.0608577
-0.060839
-0.06082
-0.0608008
-0.0607815
-0.0607618
-0.0607419
-0.0607217
-0.0607012
-0.0606805
-0.0606594
-0.060638
-0.0606163
-0.0605943
-0.060572
-0.0605492
-0.0605262
-0.0605027
-0.0604789
-0.0604546
-0.06043
-0.060405
-0.0603795
-0.0603536
-0.0603272
-0.0603005
-0.0602732
-0.0602455
-0.0602172
-0.0601886
-0.0601593
-0.0601296
-0.0600993
-0.0600686
-0.0600372
-0.0600054
-0.0599729
-0.0599399
-0.0599062
-0.059872
-0.0598371
-0.0598017
-0.0597655
-0.0597288
-0.0596914
-0.0596534
-0.0596145
-0.0595751
-0.0595349
-0.0594941
-0.0594524
-0.0594101
-0.059367
-0.0593232
-0.0592784
-0.0592331
-0.0591867
-0.0591397
-0.0590917
-0.059043
-0.0589933
-0.0589428
-0.0588913
-0.0588391
-0.0587857
-0.0587315
-0.0586763
-0.0586202
-0.0585629
-0.0585048
-0.0584456
-0.0583854
-0.058324
-0.0582617
-0.0581981
-0.0581336
-0.0580678
-0.058001
-0.0579328
-0.0578637
-0.0577931
-0.0577215
-0.0576484
-0.0575743
-0.0574986
-0.0574207
-0.0573404
-0.0572717
-0.0615107
-0.0614547
-0.0614208
-0.061393
-0.061368
-0.061345
-0.0613234
-0.061303
-0.0612834
-0.0612644
-0.061246
-0.061228
-0.0612103
-0.0611928
-0.0611756
-0.0611585
-0.0611415
-0.0611246
-0.0611077
-0.0610909
-0.0610741
-0.0610572
-0.0610403
-0.0610233
-0.0610062
-0.060989
-0.0609717
-0.0609542
-0.0609367
-0.060919
-0.0609011
-0.0608831
-0.0608648
-0.0608464
-0.0608277
-0.0608089
-0.0607898
-0.0607705
-0.0607509
-0.0607311
-0.0607109
-0.0606905
-0.0606698
-0.0606489
-0.0606275
-0.0606059
-0.0605839
-0.0605616
-0.0605389
-0.0605159
-0.0604924
-0.0604687
-0.0604444
-0.0604199