/*--------------------------------*- C++ -*----------------------------------*\
  =========                 |
  \\      /  F ield         | OpenFOAM: The Open Source CFD Toolbox
   \\    /   O peration     | Website:  https://openfoam.org
    \\  /    A nd           | Version:  8
     \\/     M anipulation  |
\*---------------------------------------------------------------------------*/
FoamFile
{
    version     2.0;
    format      ascii;
    class       volScalarField;
    location    "2";
    object      p;
}
// * * * * * * * * * * * * * * * * * * * * * * * * * * * * * * * * * * * * * //

dimensions      [0 2 -2 0 0 0 0];

internalField   nonuniform List<scalar> 
277560
(
-0.00115028
-0.00365898
-0.00616899
-0.00859397
-0.0109676
-0.0132825
-0.0155406
-0.0177401
-0.0198825
-0.0219664
-0.0239931
-0.0259619
-0.0278744
-0.0297298
-0.0315302
-0.0332749
-0.034966
-0.0366032
-0.0381885
-0.0397216
-0.0412047
-0.0426377
-0.0440224
-0.0453591
-0.0466495
-0.0478939
-0.049094
-0.0502501
-0.051364
-0.0524363
-0.0534677
-0.0544598
-0.0554113
-0.0563266
-0.0572033
-0.0580456
-0.0588514
-0.0596243
-0.0603625
-0.0610694
-0.0617435
-0.0623877
-0.0630009
-0.0635857
-0.0641412
-0.0646696
-0.0651704
-0.0656453
-0.0660943
-0.0665186
-0.0669184
-0.0672947
-0.0676478
-0.0679786
-0.0682875
-0.0685752
-0.0688421
-0.0690888
-0.069316
-0.0695238
-0.0697131
-0.0698839
-0.0700372
-0.0701729
-0.0702919
-0.0703942
-0.0704805
-0.0705507
-0.0706059
-0.0706456
-0.0706708
-0.0706813
-0.0706778
-0.0706602
-0.0706292
-0.0705846
-0.070527
-0.0704563
-0.0703731
-0.0702772
-0.0701692
-0.0700488
-0.0699166
-0.0697724
-0.0696166
-0.0694492
-0.0692705
-0.0690804
-0.0688791
-0.0686668
-0.0684433
-0.068209
-0.0679638
-0.0677079
-0.067441
-0.0671637
-0.0668755
-0.0665769
-0.0662673
-0.0659476
-0.0656169
-0.0652762
-0.0649244
-0.0645626
-0.0641898
-0.063807
-0.0634131
-0.0630092
-0.062594
-0.0621689
-0.0617323
-0.0612857
-0.0608276
-0.0603596
-0.05988
-0.0593892
-0.0588829
-0.0583754
-0.0579141
-0.0574432
-0.00115085
-0.00364788
-0.00615842
-0.00858469
-0.0109579
-0.0132733
-0.0155313
-0.0177314
-0.0198737
-0.0219579
-0.0239844
-0.0259535
-0.0278657
-0.0297215
-0.0315215
-0.0332666
-0.0349574
-0.0365949
-0.0381799
-0.0397135
-0.0411964
-0.0426297
-0.0440144
-0.0453515
-0.0466419
-0.0478869
-0.0490871
-0.0502437
-0.0513579
-0.0524305
-0.0534631
-0.0544547
-0.0554083
-0.0563228
-0.0572014
-0.0580432
-0.0588509
-0.0596235
-0.0603637
-0.0610704
-0.0617465
-0.0623907
-0.0630059
-0.0635908
-0.0641483
-0.0646769
-0.0651797
-0.065655
-0.066106
-0.0665308
-0.0669325
-0.0673094
-0.0676645
-0.067996
-0.0683069
-0.0685953
-0.0688642
-0.0691117
-0.0693407
-0.0695495
-0.0697406
-0.0699125
-0.0700676
-0.0702044
-0.0703252
-0.0704285
-0.0705166
-0.070588
-0.0706448
-0.0706857
-0.0707126
-0.0707243
-0.0707224
-0.070706
-0.0706766
-0.0706332
-0.0705772
-0.0705078
-0.0704261
-0.0703314
-0.0702248
-0.0701057
-0.0699749
-0.0698319
-0.0696776
-0.0695114
-0.069334
-0.0691451
-0.0689451
-0.068734
-0.0685118
-0.0682787
-0.0680347
-0.06778
-0.0675143
-0.0672382
-0.0669511
-0.0666538
-0.0663454
-0.0660269
-0.0656973
-0.0653578
-0.0650071
-0.0646466
-0.0642749
-0.0638933
-0.0635005
-0.0630978
-0.0626839
-0.0622601
-0.0618249
-0.0613798
-0.0609232
-0.0604568
-0.0599788
-0.0594898
-0.0589853
-0.0584807
-0.0580226
-0.0575521
-0.00114916
-0.00364395
-0.00615451
-0.00858146
-0.0109556
-0.0132724
-0.0155317
-0.0177331
-0.0198765
-0.021962
-0.0239896
-0.0259599
-0.0278732
-0.0297301
-0.0315312
-0.0332775
-0.0349694
-0.0366082
-0.0381944
-0.0397292
-0.0412134
-0.0426481
-0.0440342
-0.0453728
-0.0466647
-0.0479111
-0.0491129
-0.0502712
-0.0513869
-0.0524615
-0.0534955
-0.0544894
-0.0554448
-0.0563612
-0.0572418
-0.0580854
-0.0588952
-0.0596697
-0.060412
-0.0611208
-0.0617989
-0.0624454
-0.0630626
-0.0636498
-0.0642092
-0.0647403
-0.0652449
-0.0657228
-0.0661755
-0.0666029
-0.0670063
-0.0673858
-0.0677426
-0.0680767
-0.0683892
-0.0686802
-0.0689506
-0.0692007
-0.0694312
-0.0696425
-0.069835
-0.0700093
-0.0701657
-0.0703049
-0.0704269
-0.0705325
-0.0706218
-0.0706954
-0.0707533
-0.0707963
-0.0708243
-0.0708379
-0.0708371
-0.0708226
-0.0707941
-0.0707524
-0.0706973
-0.0706295
-0.0705486
-0.0704554
-0.0703496
-0.0702318
-0.0701018
-0.06996
-0.0698064
-0.0696412
-0.0694646
-0.0692766
-0.0690773
-0.0688668
-0.0686453
-0.0684128
-0.0681694
-0.0679151
-0.0676501
-0.0673742
-0.0670878
-0.0667905
-0.0664828
-0.0661642
-0.0658353
-0.0654955
-0.0651454
-0.0647844
-0.0644132
-0.0640311
-0.0636388
-0.0632355
-0.0628221
-0.0623976
-0.0619629
-0.0615169
-0.0610607
-0.0605933
-0.0601158
-0.0596256
-0.0591218
-0.0586157
-0.0581584
-0.0576859
-0.0011478
-0.00364414
-0.0061556
-0.00858405
-0.0109605
-0.0132796
-0.0155413
-0.0177451
-0.019891
-0.0219788
-0.0240089
-0.0259814
-0.0278971
-0.0297563
-0.0315599
-0.0333084
-0.0350028
-0.0366439
-0.0382327
-0.0397699
-0.0412567
-0.0426939
-0.0440827
-0.0454238
-0.0467186
-0.0479677
-0.0491724
-0.0503334
-0.0514521
-0.0525294
-0.0535662
-0.0545638
-0.0555215
-0.0564421
-0.0573247
-0.0581724
-0.0589841
-0.0597628
-0.0605072
-0.0612201
-0.0619004
-0.0625508
-0.0631702
-0.0637614
-0.064323
-0.064858
-0.0653649
-0.0658466
-0.0663015
-0.0667327
-0.0671383
-0.0675215
-0.0678804
-0.0682181
-0.0685327
-0.0688271
-0.0690996
-0.069353
-0.0695856
-0.0698
-0.0699945
-0.0701718
-0.0703302
-0.0704722
-0.0705962
-0.0707045
-0.0707956
-0.0708718
-0.0709315
-0.0709769
-0.0710066
-0.0710225
-0.0710234
-0.071011
-0.0709842
-0.0709445
-0.0708909
-0.0708249
-0.0707456
-0.0706541
-0.0705497
-0.0704335
-0.0703048
-0.0701646
-0.0700122
-0.0698485
-0.069673
-0.0694863
-0.0692882
-0.0690789
-0.0688585
-0.0686271
-0.0683847
-0.0681314
-0.0678674
-0.0675924
-0.067307
-0.0670104
-0.0667036
-0.0663858
-0.0660577
-0.0657185
-0.0653693
-0.0650089
-0.0646386
-0.0642569
-0.0638654
-0.0634626
-0.0630498
-0.0626256
-0.0621915
-0.0617459
-0.0612903
-0.0608231
-0.0603461
-0.0598562
-0.0593527
-0.0588466
-0.0583895
-0.0579172
-0.00114732
-0.00364704
-0.00616056
-0.00859181
-0.0109715
-0.013294
-0.0155593
-0.0177666
-0.0199159
-0.0220072
-0.0240407
-0.0260167
-0.0279358
-0.0297985
-0.0316055
-0.0333575
-0.0350554
-0.0367
-0.0382924
-0.0398332
-0.0413237
-0.0427646
-0.0441571
-0.0455021
-0.0468007
-0.0480537
-0.0492623
-0.0504273
-0.05155
-0.0526312
-0.0536722
-0.0546737
-0.0556361
-0.0565608
-0.0574475
-0.0582995
-0.0591152
-0.0598981
-0.0606465
-0.0613635
-0.0620479
-0.0627024
-0.0633259
-0.063921
-0.0644869
-0.0650256
-0.0655367
-0.066022
-0.0664812
-0.0669158
-0.0673256
-0.0677121
-0.0680752
-0.068416
-0.0687346
-0.069032
-0.0693085
-0.0695647
-0.0698011
-0.0700182
-0.0702164
-0.0703963
-0.0705583
-0.0707026
-0.07083
-0.0709406
-0.071035
-0.0711132
-0.0711761
-0.0712235
-0.0712561
-0.0712739
-0.0712775
-0.0712668
-0.0712426
-0.0712045
-0.0711534
-0.0710889
-0.0710117
-0.0709217
-0.0708193
-0.0707045
-0.0705776
-0.0704386
-0.0702879
-0.0701254
-0.0699513
-0.0697657
-0.0695688
-0.0693606
-0.0691412
-0.0689108
-0.0686692
-0.0684169
-0.0681534
-0.0678793
-0.0675943
-0.0672986
-0.066992
-0.0666749
-0.0663467
-0.0660083
-0.0656588
-0.0652991
-0.0649282
-0.0645472
-0.064155
-0.0637526
-0.063339
-0.0629153
-0.0624801
-0.0620348
-0.061578
-0.0611111
-0.0606328
-0.0601429
-0.0596378
-0.0591322
-0.0586735
-0.0582022
-0.00114721
-0.00365215
-0.00616895
-0.00860434
-0.0109884
-0.0133154
-0.0155852
-0.0177971
-0.0199509
-0.0220467
-0.0240847
-0.0260653
-0.0279888
-0.029856
-0.0316675
-0.0334241
-0.0351266
-0.0367759
-0.0383728
-0.0399184
-0.0414136
-0.0428594
-0.0442567
-0.0456066
-0.0469101
-0.0481682
-0.0493818
-0.050552
-0.0516797
-0.052766
-0.0538121
-0.0548186
-0.0557869
-0.0567162
-0.0576097
-0.0584652
-0.0592878
-0.0600741
-0.0608292
-0.0615498
-0.0622407
-0.0628989
-0.0635288
-0.0641276
-0.0646997
-0.0652422
-0.0657593
-0.0662483
-0.0667133
-0.0671515
-0.067567
-0.067957
-0.0683255
-0.0686698
-0.0689936
-0.0692944
-0.0695758
-0.0698353
-0.0700764
-0.0702966
-0.0704993
-0.0706822
-0.0708483
-0.0709957
-0.071127
-0.0712404
-0.0713384
-0.0714194
-0.0714856
-0.0715356
-0.0715714
-0.0715916
-0.0715982
-0.0715898
-0.0715683
-0.0715324
-0.0714838
-0.0714213
-0.0713465
-0.0712583
-0.0711581
-0.071045
-0.0709201
-0.0707827
-0.0706337
-0.0704726
-0.0703001
-0.0701159
-0.0699203
-0.0697134
-0.0694952
-0.0692658
-0.0690253
-0.0687739
-0.0685114
-0.0682382
-0.0679538
-0.0676589
-0.0673528
-0.0670364
-0.0667088
-0.0663709
-0.0660218
-0.0656625
-0.0652919
-0.0649112
-0.0645192
-0.0641171
-0.0637036
-0.06328
-0.0628448
-0.0623995
-0.0619426
-0.0614756
-0.060997
-0.060507
-0.0600014
-0.0594955
-0.0590364
-0.058565
-0.00114731
-0.00365925
-0.00618063
-0.00862136
-0.0110109
-0.0133435
-0.0156188
-0.0178363
-0.0199957
-0.0220971
-0.0241406
-0.0261266
-0.0280557
-0.0299285
-0.0317455
-0.0335077
-0.0352158
-0.0368708
-0.0384735
-0.0400249
-0.0415259
-0.0429776
-0.0443808
-0.0457367
-0.0470463
-0.0483104
-0.0495302
-0.0507066
-0.0518405
-0.0529331
-0.0539853
-0.0549982
-0.0559724
-0.056909
-0.0578079
-0.0586711
-0.0594984
-0.0602922
-0.0610521
-0.0617802
-0.0624758
-0.0631414
-0.0637759
-0.0643821
-0.0649586
-0.0655083
-0.0660298
-0.0665259
-0.0669951
-0.0674402
-0.0678597
-0.0682565
-0.0686288
-0.0689796
-0.0693071
-0.0696141
-0.0698991
-0.0701646
-0.070409
-0.0706349
-0.0708408
-0.0710291
-0.0711983
-0.0713507
-0.0714849
-0.0716031
-0.0717039
-0.0717894
-0.0718582
-0.0719124
-0.0719506
-0.0719748
-0.0719836
-0.0719789
-0.0719595
-0.071927
-0.0718804
-0.071821
-0.071748
-0.0716627
-0.0715642
-0.0714536
-0.0713303
-0.0711951
-0.0710476
-0.0708885
-0.0707174
-0.0705349
-0.0703406
-0.070135
-0.069918
-0.0696898
-0.0694504
-0.0691998
-0.0689383
-0.0686656
-0.0683822
-0.0680875
-0.0677824
-0.067466
-0.0671392
-0.0668011
-0.0664528
-0.066093
-0.0657231
-0.0653418
-0.0649503
-0.0645472
-0.0641341
-0.0637094
-0.0632745
-0.0628279
-0.0623711
-0.0619025
-0.061424
-0.0609322
-0.0604266
-0.0599184
-0.0594596
-0.0589857
-0.00114754
-0.00366816
-0.00619533
-0.00864264
-0.0110388
-0.013378
-0.0156599
-0.017884
-0.02005
-0.0221579
-0.024208
-0.0262006
-0.0281362
-0.0300155
-0.0318392
-0.033608
-0.0353228
-0.0369844
-0.0385939
-0.0401521
-0.04166
-0.0431186
-0.0445289
-0.0458919
-0.0472085
-0.0484798
-0.0497068
-0.0508904
-0.0520316
-0.0531315
-0.0541909
-0.055211
-0.0561925
-0.0571367
-0.0580431
-0.0589138
-0.0597483
-0.0605494
-0.0613162
-0.0620515
-0.0627541
-0.0634267
-0.0640682
-0.0646811
-0.0652646
-0.0658209
-0.0663492
-0.0668516
-0.0673275
-0.0677787
-0.0682047
-0.0686072
-0.068986
-0.0693422
-0.0696759
-0.0699881
-0.070279
-0.0705494
-0.0707995
-0.0710301
-0.0712414
-0.0714341
-0.0716084
-0.0717649
-0.0719041
-0.0720261
-0.0721315
-0.0722206
-0.0722938
-0.0723513
-0.0723936
-0.0724208
-0.0724335
-0.0724316
-0.0724158
-0.0723859
-0.0723426
-0.0722856
-0.0722157
-0.0721325
-0.0720368
-0.0719282
-0.0718074
-0.0716741
-0.0715288
-0.0713714
-0.0712022
-0.0710212
-0.0708286
-0.0706244
-0.0704087
-0.0701818
-0.0699434
-0.069694
-0.0694333
-0.0691616
-0.0688787
-0.0685851
-0.0682802
-0.0679646
-0.0676378
-0.0673005
-0.0669518
-0.0665927
-0.0662223
-0.0658415
-0.0654493
-0.0650468
-0.0646328
-0.0642085
-0.0637725
-0.0633262
-0.0628683
-0.0624
-0.0619201
-0.0614285
-0.0609214
-0.0604135
-0.0599531
-0.0594804
-0.00114787
-0.00367883
-0.00621295
-0.00866802
-0.0110718
-0.0134187
-0.0157082
-0.0179399
-0.0201134
-0.0222289
-0.0242865
-0.0262866
-0.0282297
-0.0301166
-0.0319478
-0.0337243
-0.0354468
-0.0371162
-0.0387334
-0.0402995
-0.0418153
-0.0432819
-0.0447002
-0.0460713
-0.0473961
-0.0486756
-0.0499108
-0.0511027
-0.0522523
-0.0533604
-0.0544282
-0.0554565
-0.0564465
-0.0573985
-0.0583142
-0.0591927
-0.0600364
-0.0608449
-0.0616206
-0.062363
-0.0630745
-0.0637541
-0.0644044
-0.0650243
-0.0656163
-0.0661793
-0.066716
-0.0672249
-0.0677089
-0.0681664
-0.0686003
-0.0690089
-0.0693951
-0.0697572
-0.070098
-0.0704159
-0.0707136
-0.0709894
-0.071246
-0.0714817
-0.0716991
-0.0718967
-0.0720768
-0.0722379
-0.0723824
-0.0725088
-0.0726193
-0.0727124
-0.0727903
-0.0728517
-0.0728984
-0.0729292
-0.0729459
-0.0729473
-0.0729352
-0.0729084
-0.0728684
-0.0728143
-0.0727474
-0.0726669
-0.0725739
-0.0724677
-0.0723494
-0.0722182
-0.0720751
-0.0719196
-0.0717524
-0.071573
-0.071382
-0.0711793
-0.0709651
-0.0707394
-0.0705022
-0.0702538
-0.069994
-0.0697232
-0.069441
-0.069148
-0.0688436
-0.0685285
-0.068202
-0.0678649
-0.0675164
-0.0671575
-0.0667869
-0.0664061
-0.0660136
-0.0656108
-0.0651962
-0.0647714
-0.0643347
-0.0638878
-0.0634288
-0.0629597
-0.0624786
-0.0619859
-0.0614773
-0.0609682
-0.0605065
-0.0600329
-0.00114829
-0.00369116
-0.0062333
-0.00869729
-0.0111098
-0.0134653
-0.0157635
-0.0180037
-0.0201858
-0.0223097
-0.0243758
-0.0263844
-0.0283361
-0.0302314
-0.0320712
-0.0338563
-0.0355874
-0.0372655
-0.0388916
-0.0404665
-0.0419912
-0.0434668
-0.0448942
-0.0462743
-0.0476083
-0.048897
-0.0501415
-0.0513428
-0.0525017
-0.0536192
-0.0546962
-0.0557339
-0.0567329
-0.0576947
-0.0586194
-0.0595077
-0.0603608
-0.0611784
-0.0619633
-0.0627147
-0.0634351
-0.0641236
-0.0647826
-0.0654113
-0.0660118
-0.0665834
-0.0671282
-0.0676456
-0.0681374
-0.0686032
-0.0690445
-0.0694611
-0.0698545
-0.0702243
-0.0705719
-0.0708972
-0.0712013
-0.0714842
-0.0717468
-0.0719893
-0.0722124
-0.0724164
-0.0726018
-0.0727691
-0.0729186
-0.0730507
-0.0731658
-0.0732644
-0.0733466
-0.073413
-0.0734636
-0.0734992
-0.0735196
-0.0735254
-0.0735166
-0.0734938
-0.0734569
-0.0734065
-0.0733424
-0.0732653
-0.0731748
-0.0730717
-0.0729556
-0.0728271
-0.0726861
-0.072533
-0.0723676
-0.0721902
-0.0720009
-0.0717999
-0.0715872
-0.0713628
-0.071127
-0.0708796
-0.070621
-0.0703509
-0.0700698
-0.0697772
-0.0694737
-0.0691588
-0.068833
-0.0684958
-0.0681478
-0.0677883
-0.0674182
-0.0670365
-0.0666443
-0.0662404
-0.065826
-0.0653999
-0.0649633
-0.0645149
-0.0640559
-0.0635851
-0.0631038
-0.0626093
-0.0621006
-0.0615891
-0.0611273
-0.060651
-0.00114879
-0.00370517
-0.00625633
-0.00873035
-0.0111526
-0.0135177
-0.0158255
-0.0180752
-0.0202667
-0.0224001
-0.0244756
-0.0264936
-0.0284547
-0.0303595
-0.0322088
-0.0340034
-0.0357442
-0.037432
-0.0390678
-0.0406525
-0.0421872
-0.0436727
-0.0451101
-0.0465004
-0.0478445
-0.0491435
-0.0503983
-0.0516098
-0.052779
-0.0539069
-0.0549943
-0.0560422
-0.0570518
-0.0580235
-0.0589586
-0.0598578
-0.0607207
-0.0615493
-0.0623436
-0.0631057
-0.0638352
-0.0645343
-0.0652022
-0.0658412
-0.0664503
-0.0670321
-0.0675853
-0.0681126
-0.0686125
-0.0690878
-0.0695369
-0.0699627
-0.0703635
-0.0707421
-0.0710969
-0.0714306
-0.0717415
-0.0720323
-0.0723015
-0.0725515
-0.0727808
-0.0729919
-0.0731832
-0.073357
-0.073512
-0.0736504
-0.0737706
-0.073875
-0.073962
-0.0740338
-0.074089
-0.0741295
-0.074154
-0.0741644
-0.0741595
-0.0741409
-0.0741075
-0.0740609
-0.074
-0.0739263
-0.0738387
-0.0737387
-0.0736252
-0.0734995
-0.0733608
-0.07321
-0.0730467
-0.0728714
-0.0726839
-0.0724846
-0.0722734
-0.0720505
-0.0718159
-0.0715697
-0.0713121
-0.071043
-0.0707626
-0.0704706
-0.0701677
-0.0698531
-0.0695276
-0.0691906
-0.0688427
-0.0684832
-0.068113
-0.067731
-0.0673385
-0.0669341
-0.0665191
-0.0660923
-0.0656549
-0.0652053
-0.0647453
-0.0642731
-0.0637906
-0.0632945
-0.0627841
-0.0622708
-0.0618078
-0.06133
-0.00114939
-0.00372079
-0.0062819
-0.00876701
-0.0111999
-0.0135757
-0.015894
-0.0181541
-0.020356
-0.0224997
-0.0245856
-0.0266139
-0.0285853
-0.0305005
-0.0323603
-0.0341654
-0.0359167
-0.0376151
-0.0392616
-0.0408571
-0.0424026
-0.0438991
-0.0453475
-0.0467489
-0.0481042
-0.0494143
-0.0506804
-0.0519032
-0.0530837
-0.054223
-0.0553217
-0.056381
-0.0574016
-0.0583849
-0.0593312
-0.0602415
-0.061116
-0.061956
-0.0627612
-0.0635343
-0.0642745
-0.0649844
-0.0656628
-0.0663123
-0.0669318
-0.0675237
-0.0680871
-0.0686241
-0.0691339
-0.0696185
-0.0700773
-0.0705119
-0.070922
-0.0713091
-0.0716728
-0.0720145
-0.072334
-0.0726324
-0.0729097
-0.0731668
-0.0734039
-0.0736216
-0.0738203
-0.0740004
-0.0741624
-0.0743065
-0.0744333
-0.0745431
-0.0746362
-0.074713
-0.0747739
-0.0748189
-0.0748488
-0.0748634
-0.0748633
-0.0748485
-0.0748197
-0.0747765
-0.0747197
-0.0746491
-0.0745653
-0.074468
-0.0743579
-0.0742347
-0.0740989
-0.0739504
-0.0737896
-0.0736163
-0.0734309
-0.0732334
-0.0730239
-0.0728025
-0.0725694
-0.0723245
-0.072068
-0.0717999
-0.0715203
-0.0712293
-0.0709267
-0.0706129
-0.0702875
-0.069951
-0.0696028
-0.0692436
-0.0688727
-0.068491
-0.0680974
-0.0676929
-0.0672766
-0.0668494
-0.0664103
-0.0659603
-0.0654983
-0.0650256
-0.0645408
-0.064044
-0.0635311
-0.0630171
-0.0625516
-0.0620741
-0.0011501
-0.00373805
-0.00630997
-0.0088072
-0.0112517
-0.0136391
-0.0159687
-0.0182402
-0.0204534
-0.0226083
-0.0247053
-0.0267448
-0.0287275
-0.030654
-0.032525
-0.0343415
-0.0361043
-0.0378143
-0.0394724
-0.0410796
-0.0426369
-0.0441453
-0.0456057
-0.0470191
-0.0483865
-0.0497088
-0.0509871
-0.0522222
-0.053415
-0.0545665
-0.0556776
-0.0567491
-0.0577822
-0.0587774
-0.0597361
-0.0606585
-0.0615457
-0.0623974
-0.0632155
-0.0639997
-0.0647524
-0.0654731
-0.0661638
-0.0668238
-0.0674554
-0.0680575
-0.0686326
-0.0691794
-0.0697006
-0.0701947
-0.0706644
-0.0711082
-0.0715288
-0.0719246
-0.0722983
-0.0726484
-0.0729774
-0.0732838
-0.0735701
-0.0738348
-0.0740804
-0.0743053
-0.074512
-0.0746988
-0.0748683
-0.0750188
-0.0751526
-0.0752682
-0.0753679
-0.0754501
-0.075517
-0.0755672
-0.0756026
-0.0756219
-0.0756269
-0.0756164
-0.0755922
-0.075553
-0.0755003
-0.0754333
-0.0753532
-0.0752592
-0.0751524
-0.075032
-0.0748992
-0.0747532
-0.0745949
-0.0744238
-0.0742406
-0.074045
-0.0738373
-0.0736175
-0.0733858
-0.0731422
-0.0728868
-0.0726197
-0.0723409
-0.0720505
-0.0717484
-0.071435
-0.0711098
-0.0707734
-0.0704251
-0.0700659
-0.0696946
-0.0693124
-0.0689181
-0.0685131
-0.0680957
-0.0676677
-0.0672273
-0.0667762
-0.0663127
-0.0658385
-0.0653519
-0.0648533
-0.0643381
-0.0638222
-0.0633547
-0.0628755
-0.00115094
-0.00375691
-0.00634043
-0.00885078
-0.0113078
-0.0137076
-0.0160496
-0.0183332
-0.0205585
-0.0227255
-0.0248346
-0.0268862
-0.028881
-0.0308196
-0.0327028
-0.0345316
-0.0363067
-0.0380291
-0.0396998
-0.0413196
-0.0428897
-0.0444108
-0.0458841
-0.0473105
-0.0486909
-0.0500264
-0.0513178
-0.0525661
-0.0537722
-0.054937
-0.0560614
-0.0571462
-0.0581923
-0.059201
-0.0601726
-0.0611083
-0.0620085
-0.0628736
-0.0637048
-0.0645018
-0.0652672
-0.0660003
-0.0667035
-0.0673757
-0.0680193
-0.0686334
-0.0692201
-0.0697786
-0.0703109
-0.0708164
-0.0712967
-0.0717515
-0.0721823
-0.0725887
-0.072972
-0.0733322
-0.0736704
-0.0739865
-0.0742814
-0.0745553
-0.074809
-0.0750427
-0.0752569
-0.0754521
-0.0756286
-0.0757868
-0.0759272
-0.0760502
-0.0761559
-0.0762449
-0.0763174
-0.0763739
-0.0764144
-0.0764396
-0.0764493
-0.0764442
-0.0764242
-0.0763899
-0.0763411
-0.0762785
-0.0762019
-0.0761119
-0.0760081
-0.0758913
-0.0757612
-0.0756183
-0.0754625
-0.0752941
-0.075113
-0.0749196
-0.0747138
-0.0744958
-0.0742657
-0.0740236
-0.0737694
-0.0735034
-0.0732256
-0.0729359
-0.0726346
-0.0723214
-0.0719967
-0.0716602
-0.0713122
-0.0709522
-0.070581
-0.0701976
-0.0698031
-0.0693964
-0.0689786
-0.0685485
-0.0681074
-0.067654
-0.0671896
-0.0667129
-0.0662252
-0.065724
-0.0652077
-0.0646885
-0.0642201
-0.0637376
-0.00115192
-0.00377738
-0.00637324
-0.00889765
-0.0113681
-0.0137811
-0.0161362
-0.0184329
-0.0206711
-0.022851
-0.024973
-0.0270375
-0.0290452
-0.0309968
-0.0328932
-0.034735
-0.0365234
-0.0382591
-0.0399432
-0.0415766
-0.0431602
-0.0446951
-0.0461822
-0.0476224
-0.0490168
-0.0503663
-0.0516719
-0.0529343
-0.0541546
-0.0553336
-0.0564722
-0.0575712
-0.0586318
-0.0596542
-0.0606402
-0.0615899
-0.062504
-0.0633836
-0.0642282
-0.0650398
-0.0658182
-0.0665654
-0.067281
-0.0679671
-0.0686229
-0.0692505
-0.069849
-0.0704206
-0.0709643
-0.0714825
-0.0719738
-0.0724407
-0.072882
-0.0733001
-0.0736935
-0.0740648
-0.0744126
-0.0747392
-0.0750433
-0.0753272
-0.0755895
-0.0758325
-0.0760549
-0.0762589
-0.076443
-0.0766095
-0.0767571
-0.0768877
-0.0770001
-0.0770963
-0.0771749
-0.077238
-0.0772842
-0.0773154
-0.0773303
-0.0773308
-0.0773155
-0.0772862
-0.0772418
-0.0771837
-0.077111
-0.077025
-0.0769247
-0.0768115
-0.0766845
-0.0765447
-0.0763915
-0.0762258
-0.0760471
-0.0758559
-0.075652
-0.0754359
-0.0752074
-0.0749667
-0.0747138
-0.0744488
-0.0741718
-0.0738828
-0.073582
-0.0732691
-0.0729445
-0.0726079
-0.0722597
-0.0718993
-0.0715275
-0.0711434
-0.0707481
-0.0703403
-0.0699214
-0.06949
-0.0690475
-0.0685924
-0.0681262
-0.0676474
-0.0671577
-0.066654
-0.0661353
-0.0656134
-0.0651429
-0.0646581
-0.00115308
-0.00379944
-0.00640832
-0.00894772
-0.0114324
-0.0138595
-0.0162286
-0.0185391
-0.0207911
-0.0229847
-0.0251204
-0.0271986
-0.0292201
-0.0311855
-0.0330957
-0.0349515
-0.036754
-0.0385038
-0.0402022
-0.0418499
-0.0434481
-0.0449975
-0.0464993
-0.0479544
-0.0493637
-0.0507281
-0.0520487
-0.0533262
-0.0545616
-0.0557558
-0.0569095
-0.0580237
-0.0590992
-0.0601371
-0.0611379
-0.0621025
-0.0630317
-0.0639261
-0.0647858
-0.0656123
-0.0664051
-0.0671668
-0.0678964
-0.0685966
-0.0692661
-0.0699074
-0.0705193
-0.071104
-0.0716608
-0.0721915
-0.0726954
-0.0731744
-0.0736279
-0.0740574
-0.0744626
-0.0748448
-0.0752038
-0.0755407
-0.0758555
-0.0761491
-0.0764216
-0.0766737
-0.0769057
-0.0771182
-0.0773114
-0.0774859
-0.0776419
-0.0777799
-0.0779002
-0.0780032
-0.0780892
-0.0781585
-0.0782116
-0.0782485
-0.0782698
-0.0782754
-0.0782659
-0.0782413
-0.0782022
-0.0781483
-0.0780803
-0.0779981
-0.0779021
-0.0777922
-0.077669
-0.0775321
-0.0773822
-0.0772191
-0.0770431
-0.0768542
-0.0766527
-0.0764384
-0.0762117
-0.0759725
-0.075721
-0.0754571
-0.0751811
-0.0748929
-0.0745925
-0.0742801
-0.0739555
-0.073619
-0.0732703
-0.0729099
-0.0725371
-0.0721528
-0.071756
-0.0713477
-0.0709269
-0.0704947
-0.0700498
-0.0695936
-0.0691248
-0.0686447
-0.068152
-0.0676467
-0.0671247
-0.0666012
-0.0661274
-0.0656421
-0.00115444
-0.00382309
-0.00644561
-0.00900087
-0.0115005
-0.0139426
-0.0163264
-0.0186515
-0.0209181
-0.0231262
-0.0252763
-0.0273691
-0.0294051
-0.0313851
-0.03331
-0.0351806
-0.0369979
-0.0387628
-0.0404762
-0.0421392
-0.0437527
-0.0453176
-0.046835
-0.0483057
-0.0497308
-0.0511111
-0.0524476
-0.0537411
-0.0549926
-0.0562028
-0.0573726
-0.0585028
-0.0595945
-0.0606482
-0.0616651
-0.0626456
-0.0635907
-0.0645007
-0.0653768
-0.0662184
-0.0670274
-0.0678036
-0.0685491
-0.0692633
-0.0699483
-0.0706032
-0.0712301
-0.0718281
-0.0723994
-0.0729429
-0.0734609
-0.0739521
-0.0744191
-0.0748603
-0.0752784
-0.0756718
-0.076043
-0.0763907
-0.0767171
-0.0770208
-0.0773043
-0.077566
-0.0778083
-0.0780298
-0.0782327
-0.0784156
-0.0785807
-0.0787266
-0.0788553
-0.0789656
-0.0790594
-0.0791355
-0.0791957
-0.0792388
-0.0792666
-0.0792779
-0.0792745
-0.0792551
-0.0792213
-0.0791721
-0.079109
-0.0790309
-0.0789393
-0.0788331
-0.0787137
-0.0785801
-0.0784335
-0.0782732
-0.0781
-0.0779134
-0.0777142
-0.0775018
-0.077277
-0.0770393
-0.0767891
-0.0765263
-0.0762512
-0.0759636
-0.0756636
-0.0753515
-0.0750268
-0.0746903
-0.0743411
-0.0739802
-0.0736066
-0.0732213
-0.0728234
-0.072414
-0.0719917
-0.0715579
-0.0711113
-0.0706533
-0.0701822
-0.0696999
-0.0692046
-0.0686967
-0.0681716
-0.0676452
-0.0671687
-0.066681
-0.00115601
-0.0038483
-0.00648506
-0.00905705
-0.0115724
-0.0140302
-0.0164295
-0.01877
-0.0210519
-0.0232752
-0.0254407
-0.0275486
-0.0296
-0.0315953
-0.0335357
-0.0354219
-0.0372549
-0.0390356
-0.0407649
-0.042444
-0.0440736
-0.0456549
-0.0471887
-0.0486759
-0.0501176
-0.0515147
-0.052868
-0.0541784
-0.0554468
-0.056674
-0.0578608
-0.0590081
-0.0601165
-0.0611875
-0.0622211
-0.0632185
-0.0641802
-0.0651071
-0.0659996
-0.066858
-0.0676837
-0.0684759
-0.0692376
-0.0699673
-0.070668
-0.0713381
-0.0719802
-0.072593
-0.0731789
-0.0737368
-0.0742687
-0.0747739
-0.0752542
-0.075709
-0.0761397
-0.076546
-0.0769293
-0.0772892
-0.077627
-0.0779425
-0.0782366
-0.0785095
-0.0787619
-0.0789939
-0.0792061
-0.0793989
-0.0795727
-0.0797278
-0.0798646
-0.0799835
-0.0800847
-0.0801688
-0.0802358
-0.0802864
-0.0803204
-0.0803385
-0.0803406
-0.0803275
-0.0802988
-0.0802552
-0.0801966
-0.0801237
-0.080036
-0.0799344
-0.0798185
-0.0796889
-0.0795454
-0.0793885
-0.0792179
-0.0790342
-0.0788372
-0.0786272
-0.0784041
-0.0781682
-0.0779193
-0.0776578
-0.0773836
-0.0770968
-0.0767974
-0.0764854
-0.0761611
-0.0758242
-0.075475
-0.0751133
-0.0747394
-0.0743529
-0.0739543
-0.073543
-0.0731198
-0.0726836
-0.0722357
-0.0717747
-0.0713021
-0.0708164
-0.0703192
-0.0698077
-0.0692805
-0.06875
-0.0682717
-0.0677799
-0.00115783
-0.00387506
-0.00652659
-0.00911612
-0.0116479
-0.0141222
-0.0165377
-0.0188943
-0.0211922
-0.0234315
-0.0256129
-0.0277369
-0.0298043
-0.0318158
-0.0337724
-0.0356749
-0.0375244
-0.0393216
-0.0410678
-0.0427637
-0.0444103
-0.0460087
-0.0475598
-0.0490644
-0.0505236
-0.0519383
-0.0533093
-0.0546375
-0.0559237
-0.0571688
-0.0583735
-0.0595386
-0.0606652
-0.0617536
-0.0628053
-0.0638204
-0.0647998
-0.0657442
-0.0666541
-0.0675306
-0.068373
-0.0691836
-0.0699607
-0.0707085
-0.0714241
-0.0721118
-0.0727684
-0.0733983
-0.0739984
-0.0745727
-0.0751184
-0.0756393
-0.0761329
-0.0766026
-0.0770461
-0.0774667
-0.0778621
-0.0782357
-0.078585
-0.0789133
-0.0792185
-0.0795034
-0.0797662
-0.0800095
-0.0802316
-0.0804349
-0.0806179
-0.0807829
-0.0809282
-0.0810563
-0.0811654
-0.0812579
-0.0813323
-0.0813905
-0.0814312
-0.0814564
-0.0814647
-0.0814579
-0.0814347
-0.081397
-0.0813434
-0.0812756
-0.0811923
-0.0810953
-0.0809832
-0.0808576
-0.0807174
-0.0805639
-0.0803961
-0.0802153
-0.0800205
-0.0798128
-0.0795914
-0.0793572
-0.0791098
-0.0788494
-0.0785761
-0.0782899
-0.077991
-0.0776792
-0.0773549
-0.0770177
-0.0766681
-0.0763056
-0.0759309
-0.0755432
-0.0751434
-0.0747305
-0.0743057
-0.0738676
-0.0734178
-0.0729545
-0.0724795
-0.0719912
-0.0714914
-0.0709768
-0.0704465
-0.0699125
-0.0694315
-0.0689368
-0.00115991
-0.00390335
-0.00657018
-0.00917805
-0.011727
-0.0142185
-0.0166509
-0.0190243
-0.0213389
-0.023595
-0.025793
-0.0279337
-0.0300179
-0.0320463
-0.0340198
-0.0359394
-0.0378061
-0.0396207
-0.0413843
-0.0430979
-0.0447624
-0.0463787
-0.0479479
-0.0494708
-0.0509483
-0.0523814
-0.053771
-0.0551178
-0.0564227
-0.0576866
-0.0589101
-0.060094
-0.0612392
-0.0623467
-0.0634169
-0.0644507
-0.0654487
-0.0664116
-0.06734
-0.0682346
-0.0690957
-0.0699238
-0.0707199
-0.0714839
-0.072218
-0.0729215
-0.0735963
-0.0742415
-0.0748591
-0.0754482
-0.0760109
-0.076546
-0.0770559
-0.0775393
-0.0779984
-0.078432
-0.0788423
-0.0792282
-0.0795918
-0.0799318
-0.0802504
-0.0805464
-0.0808218
-0.0810755
-0.0813095
-0.0815226
-0.0817167
-0.0818907
-0.0820465
-0.0821829
-0.0823018
-0.0824019
-0.0824853
-0.0825505
-0.0825995
-0.0826311
-0.082647
-0.0826459
-0.0826297
-0.082597
-0.0825497
-0.0824864
-0.0824088
-0.0823157
-0.0822086
-0.0820864
-0.0819505
-0.0817999
-0.0816358
-0.0814574
-0.0812656
-0.0810598
-0.0808409
-0.0806082
-0.0803624
-0.0801032
-0.079831
-0.0795456
-0.0792472
-0.0789358
-0.0786114
-0.0782743
-0.077924
-0.0775613
-0.0771853
-0.076797
-0.0763954
-0.0759817
-0.0755544
-0.0751152
-0.0746624
-0.0741976
-0.0737193
-0.0732292
-0.0727256
-0.0722087
-0.0716742
-0.0711379
-0.0706528
-0.0701568
-0.0011623
-0.00393314
-0.0066157
-0.00924269
-0.0118095
-0.0143187
-0.0167688
-0.0191597
-0.0214917
-0.0237651
-0.0259806
-0.0281387
-0.0302403
-0.0322862
-0.0342775
-0.0362149
-0.0380995
-0.0399323
-0.0417142
-0.0434461
-0.0451292
-0.0467643
-0.0483524
-0.0498943
-0.051391
-0.0528434
-0.0542524
-0.0556187
-0.0569432
-0.0582267
-0.0594699
-0.0606735
-0.0618385
-0.0629654
-0.0640554
-0.0651088
-0.0661263
-0.0671085
-0.0680563
-0.0689698
-0.0698506
-0.0706975
-0.0715124
-0.0722949
-0.0730473
-0.0737685
-0.0744611
-0.0751237
-0.0757585
-0.0763645
-0.0769437
-0.0774952
-0.0780209
-0.07852
-0.0789942
-0.0794429
-0.0798676
-0.0802679
-0.080645
-0.0809988
-0.0813302
-0.0816392
-0.0819267
-0.0821927
-0.082438
-0.0826626
-0.0828672
-0.083052
-0.0832175
-0.083364
-0.0834919
-0.0836015
-0.083693
-0.0837669
-0.0838234
-0.083863
-0.0838856
-0.0838918
-0.0838817
-0.0838557
-0.0838137
-0.0837564
-0.0836835
-0.0835957
-0.0834927
-0.0833752
-0.0832428
-0.0830962
-0.082935
-0.08276
-0.0825706
-0.0823675
-0.0821505
-0.0819199
-0.0816756
-0.0814178
-0.0811466
-0.080862
-0.0805642
-0.080253
-0.0799288
-0.0795913
-0.0792409
-0.0788771
-0.0785006
-0.0781107
-0.0777081
-0.077292
-0.0768634
-0.0764214
-0.0759668
-0.0754988
-0.0750183
-0.0745244
-0.0740182
-0.0734972
-0.0729597
-0.0724184
-0.0719307
-0.0714298
-0.00116501
-0.00396441
-0.00666319
-0.00931003
-0.0118952
-0.014423
-0.0168913
-0.0193004
-0.0216505
-0.0239419
-0.0261754
-0.0283516
-0.0304714
-0.0325356
-0.0345452
-0.0365011
-0.0384044
-0.040256
-0.0420569
-0.043808
-0.0455105
-0.0471651
-0.0487728
-0.0503346
-0.0518513
-0.0533239
-0.0547531
-0.0561397
-0.0574847
-0.0587886
-0.0600524
-0.0612766
-0.062462
-0.0636098
-0.0647201
-0.065794
-0.0668319
-0.0678345
-0.0688023
-0.0697363
-0.0706363
-0.0715038
-0.072338
-0.0731407
-0.0739113
-0.0746522
-0.0753625
-0.0760442
-0.0766962
-0.0773207
-0.0779166
-0.0784859
-0.0790276
-0.0795439
-0.0800334
-0.0804985
-0.0809379
-0.0813538
-0.0817449
-0.0821134
-0.0824581
-0.082781
-0.083081
-0.0833601
-0.0836171
-0.083854
-0.0840696
-0.0842659
-0.0844417
-0.0845988
-0.0847361
-0.0848556
-0.0849558
-0.0850388
-0.0851033
-0.0851511
-0.085181
-0.0851948
-0.0851911
-0.0851719
-0.0851358
-0.0850845
-0.0850168
-0.0849343
-0.0848358
-0.0847229
-0.0845944
-0.0844517
-0.0842938
-0.084122
-0.0839353
-0.0837349
-0.0835199
-0.0832913
-0.0830485
-0.0827922
-0.0825219
-0.0822381
-0.0819407
-0.0816298
-0.0813055
-0.0809677
-0.0806167
-0.0802521
-0.0798745
-0.0794832
-0.0790792
-0.0786613
-0.0782309
-0.0777866
-0.0773298
-0.076859
-0.0763759
-0.0758788
-0.0753695
-0.0748448
-0.0743036
-0.0737582
-0.0732673
-0.0727632
-0.00116806
-0.00399712
-0.0067125
-0.0093799
-0.0119841
-0.0145311
-0.0170182
-0.0194461
-0.0218149
-0.0241249
-0.0263771
-0.028572
-0.0307106
-0.0327937
-0.0348224
-0.0367975
-0.0387202
-0.0405913
-0.0424119
-0.044183
-0.0459056
-0.0475805
-0.0492087
-0.0507911
-0.0523286
-0.0538221
-0.0552724
-0.0566802
-0.0580465
-0.0593718
-0.0606569
-0.0619025
-0.0631097
-0.0642785
-0.0654105
-0.0665058
-0.0675651
-0.0685889
-0.0695778
-0.0705324
-0.0714538