/*--------------------------------*- C++ -*----------------------------------*\
  =========                 |
  \\      /  F ield         | OpenFOAM: The Open Source CFD Toolbox
   \\    /   O peration     | Website:  https://openfoam.org
    \\  /    A nd           | Version:  8
     \\/     M anipulation  |
\*---------------------------------------------------------------------------*/
FoamFile
{
    version     2.0;
    format      ascii;
    class       volScalarField;
    location    "23";
    object      p;
}
// * * * * * * * * * * * * * * * * * * * * * * * * * * * * * * * * * * * * * //

dimensions      [0 2 -2 0 0 0 0];

internalField   nonuniform List<scalar> 
277560
(
-0.0164021
-0.00297513
-0.005344
-0.00588845
-0.00617535
-0.00652683
-0.00679217
-0.00698104
-0.0070864
-0.0071005
-0.00701778
-0.00683456
-0.00654802
-0.00615711
-0.00566158
-0.00506272
-0.00436241
-0.00356393
-0.00267099
-0.00168856
-0.000621903
0.00052261
0.00173838
0.00301786
0.00435333
0.00573624
0.00715795
0.00860909
0.0100803
0.0115616
0.013043
0.0145142
0.0159645
0.0173841
0.0187619
0.0200882
0.0213521
0.0225444
0.0236549
0.024675
0.0255955
0.026409
0.0271077
0.0276853
0.0281358
0.0284546
0.0286375
0.0286818
0.0285852
0.0283469
0.0279668
0.0274461
0.0267866
0.0259915
0.0250644
0.0240099
0.022833
0.0215391
0.0201337
0.0186226
0.0170117
0.0153072
0.0135142
0.0116363
0.00967886
0.00764793
0.00554993
0.00339092
0.0011772
-0.00108534
-0.00339051
-0.00573266
-0.00810586
-0.0105048
-0.0129238
-0.0153579
-0.0178019
-0.0202513
-0.0227014
-0.0251479
-0.0275867
-0.0300143
-0.0324266
-0.0348208
-0.0371935
-0.0395422
-0.0418641
-0.044157
-0.0464187
-0.0486477
-0.050842
-0.0530006
-0.0551219
-0.0572055
-0.0592501
-0.0612557
-0.0632213
-0.0651474
-0.0670332
-0.0688796
-0.0706863
-0.0724542
-0.0741833
-0.0758748
-0.0775292
-0.0791476
-0.0807307
-0.08228
-0.0837963
-0.0852813
-0.0867359
-0.0881619
-0.0895604
-0.090933
-0.0922806
-0.0936096
-0.0949314
-0.0962048
-0.09725
-0.0982731
-0.0152579
-0.00396019
-0.00522128
-0.00592358
-0.0062174
-0.00656528
-0.00684076
-0.00703837
-0.00715285
-0.00717622
-0.00710298
-0.00692916
-0.00665218
-0.00627077
-0.00578489
-0.00519563
-0.00450511
-0.0037164
-0.00283345
-0.001861
-0.000804562
0.000329714
0.00153501
0.00280398
0.0041287
0.00550084
0.00691154
0.00835163
0.00981159
0.0112816
0.0127516
0.0142111
0.01565
0.0170576
0.0184237
0.0197378
0.02099
0.0221699
0.0232684
0.024276
0.0251844
0.0259851
0.0266714
0.0272361
0.027674
0.0279797
0.0281498
0.0281807
0.0280709
0.027819
0.0274253
0.0268905
0.0262172
0.0254077
0.0244666
0.023398
0.0222073
0.0208994
0.0194803
0.0179549
0.01633
0.0146107
0.0128029
0.0109099
0.00893724
0.00689039
0.00477629
0.0026005
0.000369837
-0.00191026
-0.00423315
-0.0065936
-0.00898524
-0.0114031
-0.0138412
-0.0162949
-0.0187586
-0.0212282
-0.0236985
-0.0261657
-0.0286253
-0.031074
-0.0335076
-0.0359234
-0.0383177
-0.0406884
-0.0430322
-0.0453476
-0.0476316
-0.0498833
-0.0521002
-0.0542818
-0.056426
-0.0585328
-0.0606006
-0.0626296
-0.0646187
-0.0665684
-0.0684779
-0.0703483
-0.0721788
-0.0739708
-0.0757241
-0.07744
-0.0791186
-0.0807616
-0.0823693
-0.0839433
-0.0854845
-0.0869943
-0.0884739
-0.089925
-0.0913487
-0.0927464
-0.0941192
-0.0954739
-0.0968211
-0.0981163
-0.099179
-0.100233
-0.0151429
-0.00419906
-0.0052049
-0.0059805
-0.00628113
-0.00663966
-0.00693114
-0.00714435
-0.00727482
-0.00731438
-0.00725743
-0.00709993
-0.00683934
-0.00647437
-0.00600503
-0.00543243
-0.00475874
-0.00398702
-0.00312129
-0.00216628
-0.00112754
-1.12053e-05
0.00117587
0.00242637
0.00373235
0.00508547
0.00647688
0.00789744
0.00933758
0.0107875
0.0122372
0.0136763
0.0150944
0.016481
0.017826
0.0191187
0.0203492
0.0215074
0.0225838
0.0235691
0.024455
0.0252331
0.0258964
0.026438
0.0268523
0.0271343
0.0272803
0.0272869
0.0271525
0.0268756
0.0264566
0.0258962
0.0251967
0.0243611
0.0233936
0.0222986
0.0210814
0.0197471
0.018301
0.0167486
0.0150958
0.0133484
0.0115118
0.00959024
0.00758833
0.00551207
0.00336776
0.00116171
-0.00109993
-0.00341095
-0.00576541
-0.00815729
-0.0105809
-0.0130306
-0.015501
-0.0179868
-0.020483
-0.0229847
-0.0254876
-0.027987
-0.0304791
-0.0329598
-0.0354258
-0.0378734
-0.0402998
-0.042702
-0.0450775
-0.0474238
-0.0497391
-0.0520211
-0.0542686
-0.0564798
-0.0586538
-0.0607894
-0.062886
-0.0649427
-0.0669595
-0.0689356
-0.0708716
-0.0727669
-0.0746224
-0.0764378
-0.0782141
-0.0799515
-0.0816511
-0.0833133
-0.0849395
-0.0865303
-0.0880871
-0.0896107
-0.0911026
-0.0925639
-0.0939962
-0.0954
-0.0967769
-0.098133
-0.0994797
-0.100771
-0.101822
-0.102854
-0.0151911
-0.00423798
-0.00523988
-0.00605538
-0.00637087
-0.00675081
-0.0070653
-0.00730164
-0.00745559
-0.00751883
-0.00748561
-0.00735195
-0.00711526
-0.00677437
-0.0063293
-0.00578125
-0.00513238
-0.00438587
-0.00354567
-0.00261662
-0.00160422
-0.000514679
0.000645201
0.00186802
0.00314589
0.00447042
0.00583283
0.00722389
0.0086341
0.0100537
0.0114725
0.0128804
0.0142667
0.0156214
0.0169336
0.0181935
0.0193904
0.0205149
0.0215569
0.0225077
0.0233582
0.0241008
0.0247278
0.0252329
0.02561
0.0258546
0.0259622
0.0259302
0.0257563
0.0254397
0.0249798
0.0243782
0.0236364
0.0227583
0.0217476
0.0206097
0.0193488
0.0179707
0.01648
0.0148826
0.0131838
0.0113899
0.00950609
0.00753742
0.00548778
0.00336344
0.0011702
-0.00108502
-0.00339657
-0.00575768
-0.00816289
-0.0106056
-0.0130807
-0.0155819
-0.0181044
-0.0206422
-0.023191
-0.0257452
-0.0283009
-0.030853
-0.0333982
-0.0359319
-0.0384511
-0.0409517
-0.0434314
-0.0458866
-0.0483153
-0.0507146
-0.0530829
-0.0554177
-0.0577181
-0.0599819
-0.0622086
-0.0643965
-0.0665455
-0.0686543
-0.0707233
-0.0727513
-0.0747392
-0.0766862
-0.0785934
-0.0804603
-0.0822882
-0.0840771
-0.0858283
-0.087542
-0.0892199
-0.0908623
-0.092471
-0.0940466
-0.0955908
-0.0971046
-0.0985897
-0.100047
-0.101477
-0.102888
-0.10429
-0.105635
-0.106735
-0.107816
-0.0152171
-0.00424127
-0.00530256
-0.0061466
-0.00648763
-0.00689769
-0.00724231
-0.00750907
-0.00769372
-0.00778776
-0.00778543
-0.0076828
-0.00747735
-0.00716798
-0.00675477
-0.00623897
-0.00562279
-0.00490944
-0.00410291
-0.00320806
-0.0022304
-0.00117619
-5.22085e-05
0.00113411
0.00237488
0.0036617
0.00498578
0.0063379
0.00770856
0.00908793
0.010466
0.0118325
0.0131769
0.014489
0.015758
0.0169741
0.0181267
0.0192062
0.0202026
0.0211072
0.0219109
0.022606
0.0231848
0.0236411
0.0239687
0.0241629
0.0242195
0.0241357
0.0239091
0.0235388
0.0230244
0.0223669
0.0215683
0.0206326
0.0195641
0.0183678
0.0170484
0.0156108
0.0140602
0.012402
0.0106418
0.00878559
0.00683926
0.00480778
0.00269533
0.000507325
-0.00174985
-0.00406982
-0.00644628
-0.00887306
-0.011344
-0.0138532
-0.0163946
-0.0189628
-0.0215521
-0.0241573
-0.0267732
-0.029395
-0.0320179
-0.0346377
-0.0372501
-0.0398512
-0.0424373
-0.0450051
-0.0475513
-0.0500731
-0.0525678
-0.055033
-0.0574665
-0.0598664
-0.062231
-0.0645589
-0.0668486
-0.0690994
-0.0713101
-0.0734805
-0.0756096
-0.0776976
-0.0797439
-0.0817491
-0.0837128
-0.0856359
-0.0875183
-0.089361
-0.0911644
-0.0929296
-0.0946572
-0.0963485
-0.0980041
-0.0996257
-0.101214
-0.102771
-0.104297
-0.105794
-0.107262
-0.10871
-0.110147
-0.111527
-0.112649
-0.113744
-0.0152411
-0.00422454
-0.00538284
-0.00625384
-0.00663013
-0.00707827
-0.00746002
-0.00776419
-0.00798641
-0.0081181
-0.00815358
-0.00808899
-0.00792192
-0.0076513
-0.00727731
-0.0068012
-0.00622528
-0.00555275
-0.00478768
-0.00393493
-0.00300007
-0.00198933
-0.000909574
0.000231804
0.00142687
0.00266724
0.00394408
0.00524821
0.00657008
0.00789989
0.00922761
0.0105429
0.0118356
0.0130949
0.0143109
0.0154725
0.0165704
0.0175939
0.0185341
0.019381
0.0201269
0.0207627
0.0212819
0.0216771
0.0219432
0.0220744
0.0220676
0.0219186
0.0216263
0.0211884
0.0206055
0.0198776
0.0190079
0.0179998
0.0168589
0.0155892
0.0141961
0.0126837
0.0110579
0.00932328
0.00748624
0.00555192
0.00352716
0.0014166
-0.000774665
-0.00304231
-0.00537944
-0.00778035
-0.010238
-0.0127468
-0.0152999
-0.017892
-0.0205165
-0.0231684
-0.0258413
-0.0285307
-0.0312307
-0.0339371
-0.0366444
-0.0393489
-0.0420457
-0.0447316
-0.047402
-0.0500544
-0.0526847
-0.0552908
-0.0578692
-0.0604183
-0.062935
-0.0654182
-0.0678655
-0.0702761
-0.0726479
-0.0749807
-0.0772728
-0.0795245
-0.0817344
-0.083903
-0.0860295
-0.0881147
-0.090158
-0.0921606
-0.0941222
-0.096044
-0.0979263
-0.0997704
-0.101577
-0.103347
-0.105081
-0.106782
-0.108449
-0.110086
-0.111692
-0.113269
-0.114817
-0.116346
-0.117866
-0.119327
-0.120521
-0.121685
-0.0152713
-0.00419308
-0.00547683
-0.00637712
-0.00679731
-0.00729099
-0.00771666
-0.00806498
-0.00833143
-0.00850745
-0.00858749
-0.0085678
-0.00844602
-0.00822115
-0.00789344
-0.0074642
-0.00693578
-0.00631145
-0.00559532
-0.00479227
-0.00390791
-0.00294852
-0.00192096
-0.000832661
0.000308437
0.00149393
0.00271498
0.00396239
0.00522662
0.00649784
0.00776601
0.00902091
0.0102521
0.0114493
0.0126018
0.0136994
0.0147319
0.0156896
0.0165624
0.0173416
0.018018
0.018584
0.0190316
0.0193547
0.0195469
0.0196036
0.0195203
0.0192942
0.0189226
0.0184045
0.017739
0.0169273
0.0159721
0.0148783
0.0136504
0.0122936
0.0108119
0.00921062
0.00749439
0.00566904
0.0037397
0.00171272
-0.000406269
-0.00261092
-0.00489687
-0.00725891
-0.00969179
-0.0121885
-0.0147432
-0.0173491
-0.0200004
-0.0226905
-0.025414
-0.0281646
-0.0309373
-0.033726
-0.0365261
-0.0393321
-0.0421397
-0.0449439
-0.047741
-0.0505264
-0.053297
-0.0560485
-0.0587784
-0.0614831
-0.0641604
-0.0668073
-0.0694221
-0.0720022
-0.0745465
-0.0770527
-0.0795203
-0.0819474
-0.0843339
-0.0866784
-0.0889811
-0.091241
-0.0934585
-0.0956331
-0.0977656
-0.0998557
-0.101904
-0.103912
-0.105879
-0.107806
-0.109696
-0.111547
-0.113362
-0.115141
-0.116887
-0.1186
-0.120282
-0.121933
-0.123556
-0.125157
-0.126749
-0.128281
-0.129531
-0.130741
-0.0153045
-0.00415372
-0.00558304
-0.00651621
-0.00698822
-0.00753447
-0.00801063
-0.00840964
-0.0087268
-0.00895367
-0.00908485
-0.00911666
-0.00904682
-0.00887443
-0.00859979
-0.0082243
-0.00775037
-0.00718131
-0.00652129
-0.00577524
-0.00494881
-0.00404829
-0.00308059
-0.00205316
-0.000973959
0.000148587
0.00130563
0.00248797
0.00368604
0.00489001
0.00608983
0.00727526
0.00843595
0.00956145
0.0106413
0.0116651
0.0126227
0.0135042
0.0142998
0.0150005
0.0155973
0.0160824
0.0164478
0.0166873
0.0167945
0.0167647
0.0165934
0.0162776
0.0158146
0.0152032
0.0144424
0.0135335
0.0124799
0.0112869
0.00995896
0.00850095
0.0069172
0.00521264
0.00339221
0.00146138
-0.000574322
-0.00270897
-0.00493651
-0.00725067
-0.00964603
-0.012118
-0.0146611
-0.0172692
-0.0199357
-0.0226542
-0.0254185
-0.0282225
-0.0310601
-0.0339254
-0.0368128
-0.0397169
-0.0426323
-0.0455541
-0.0484773
-0.0513975
-0.0543102
-0.0572115
-0.0600974
-0.0629646
-0.0658095
-0.0686294
-0.0714211
-0.0741826
-0.0769111
-0.0796049
-0.0822621
-0.0848812
-0.0874607
-0.0899998
-0.0924973
-0.0949527
-0.0973653
-0.0997351
-0.102062
-0.104345
-0.106586
-0.108784
-0.11094
-0.113055
-0.115129
-0.117163
-0.119158
-0.121116
-0.123037
-0.124922
-0.126774
-0.128593
-0.130381
-0.132139
-0.133868
-0.135576
-0.137277
-0.138916
-0.140258
-0.141556
-0.0153378
-0.00411153
-0.00570086
-0.00667093
-0.00720218
-0.00780757
-0.00834055
-0.00879657
-0.00917075
-0.00945477
-0.00964339
-0.00973303
-0.00972152
-0.00960805
-0.00939301
-0.00907787
-0.0086651
-0.0081581
-0.00756107
-0.00687901
-0.00611759
-0.00528316
-0.00438265
-0.00342354
-0.00241381
-0.00136192
-0.000276726
0.000832542
0.00195632
0.00308477
0.0042078
0.00531518
0.00639657
0.00744151
0.00843961
0.00938031
0.0102536
0.0110494
0.0117581
0.0123703
0.0128775
0.0132712
0.013544
0.013689
0.0137004
0.0135728
0.0133022
0.0128849
0.0123187
0.0116017
0.0107334
0.00971482
0.00855058
0.00724547
0.00580477
0.00423244
0.00253345
0.000712081
-0.0012261
-0.00327622
-0.00543213
-0.00768848
-0.0100387
-0.0124769
-0.0149966
-0.0175931
-0.0202611
-0.022995
-0.025788
-0.0286339
-0.0315261
-0.0344587
-0.0374253
-0.0404203
-0.0434376
-0.0464721
-0.0495179
-0.0525705
-0.0556245
-0.0586757
-0.0617192
-0.0647514
-0.0677679
-0.0707657
-0.0737407
-0.0766906
-0.0796118
-0.0825025
-0.0853595
-0.0881816
-0.0909661
-0.0937123
-0.0964179
-0.0990826
-0.101705
-0.104284
-0.10682
-0.109312
-0.11176
-0.114164
-0.116524
-0.118841
-0.121115
-0.123347
-0.125536
-0.127685
-0.129794
-0.131865
-0.133898
-0.135894
-0.137856
-0.139784
-0.14168
-0.143545
-0.14538
-0.147194
-0.149001
-0.150743
-0.152172
-0.153545
-0.0153697
-0.00406965
-0.0058299
-0.00684099
-0.00743844
-0.00810918
-0.00870508
-0.0092242
-0.00966146
-0.0100087
-0.0102608
-0.0104144
-0.0104673
-0.0104189
-0.0102697
-0.0100213
-0.00967606
-0.00923759
-0.00871014
-0.00809873
-0.00740911
-0.00664764
-0.00582131
-0.00493762
-0.0040046
-0.00303072
-0.00202486
-0.000996286
4.54377e-05
0.00109044
0.00212864
0.00314978
0.00414352
0.00509938
0.00600699
0.00685583
0.00763579
0.00833668
0.00894911
0.00946349
0.00987123
0.0101638
0.0103338
0.0103743
0.0102792
0.0100433
0.0096623
0.00913258
0.00845177
0.00761783
0.00663019
0.00549043
0.00420345
0.0027745
0.00120849
-0.000490409
-0.00231757
-0.00426836
-0.00633757
-0.00851992
-0.0108096
-0.0132009
-0.0156876
-0.0182634
-0.0209219
-0.0236572
-0.0264644
-0.0293381
-0.032272
-0.0352594
-0.0382941
-0.0413696
-0.0444799
-0.047619
-0.0507811
-0.0539604
-0.0571518
-0.0603498
-0.0635496
-0.0667465
-0.0699361
-0.073114
-0.0762764
-0.0794196
-0.0825402
-0.0856349
-0.0887011
-0.0917358
-0.094737
-0.0977023
-0.10063
-0.103518
-0.106366
-0.109172
-0.111935
-0.114654
-0.117329
-0.11996
-0.122546
-0.125088
-0.127585
-0.130038
-0.132448
-0.134814
-0.137139
-0.139422
-0.141666
-0.143869
-0.146036
-0.148165
-0.150259
-0.15232
-0.154349
-0.156346
-0.158314
-0.16026
-0.162202
-0.164076
-0.165619
-0.167097
-0.0153991
-0.00403004
-0.00596998
-0.00702616
-0.00769639
-0.00843834
-0.009103
-0.00969108
-0.0101972
-0.0106134
-0.0109348
-0.0111581
-0.0112814
-0.011304
-0.0112266
-0.0110509
-0.0107793
-0.0104156
-0.009964
-0.00942961
-0.00881823
-0.00813628
-0.00739078
-0.00658929
-0.00573987
-0.00485102
-0.00393165
-0.00299104
-0.00203878
-0.00108476
-0.00013907
0.000788021
0.00168611
0.00254485
0.00335367
0.00410228
0.00478023
0.0053777
0.00588482
0.00629242
0.00659142
0.00677365
0.00683121
0.00675742
0.00654589
0.0061916
0.00568981
0.00503729
0.00423104
0.00326945
0.00215143
0.00087953
-0.000541498
-0.00210566
-0.00380875
-0.00564604
-0.00761351
-0.00970593
-0.0119186
-0.0142458
-0.0166821
-0.0192211
-0.0218573
-0.0245838
-0.0273947
-0.0302829
-0.0332432
-0.0362703
-0.0393588
-0.0425015
-0.0456926
-0.048925
-0.0521932
-0.0554905
-0.0588115
-0.0621501
-0.0655013
-0.0688591
-0.0722193
-0.0755764
-0.0789265
-0.0822647
-0.0855876
-0.0888907
-0.0921714
-0.0954256
-0.0986512
-0.101845
-0.105004
-0.108127
-0.111212
-0.114257
-0.117261
-0.120222
-0.12314
-0.126012
-0.128841
-0.131623
-0.134361
-0.137053
-0.1397
-0.142301
-0.144858
-0.147371
-0.149842
-0.15227
-0.154657
-0.157004
-0.159312
-0.161582
-0.163817
-0.166017
-0.168184
-0.170319
-0.172424
-0.174507
-0.176585
-0.178594
-0.180251
-0.181829
-0.0154254
-0.00399397
-0.00612092
-0.0072261
-0.00797535
-0.00879405
-0.00953307
-0.0101957
-0.0107762
-0.011267
-0.0116632
-0.0119618
-0.012161
-0.0122603
-0.0122604
-0.0121631
-0.0119711
-0.011688
-0.0113182
-0.0108669
-0.0103399
-0.00974366
-0.00908536
-0.00837254
-0.00761329
-0.00681617
-0.0059901
-0.00514439
-0.00428864
-0.00343277
-0.00258688
-0.00176128
-0.000966312
-0.000212481
0.000489807
0.00113012
0.00169808
0.00218377
0.00257725
0.00286941
0.00305105
0.00311397
0.00305015
0.00285283
0.00251556
0.00203321
0.00140105
0.000615681
-0.000325888
-0.00142546
-0.00268396
-0.00409862
-0.00566411
-0.00737455
-0.00922559
-0.0112128
-0.0133318
-0.0155777
-0.0179455
-0.0204296
-0.0230243
-0.0257237
-0.0285216
-0.0314116
-0.0343872
-0.0374417
-0.0405689
-0.0437631
-0.0470191
-0.0503307
-0.0536913
-0.0570944
-0.0605338
-0.0640032
-0.0674968
-0.0710087
-0.0745333
-0.0780654
-0.0815997
-0.0851315
-0.088656
-0.092169
-0.0956663
-0.0991442
-0.102599
-0.106028
-0.109427
-0.112794
-0.116126
-0.119422
-0.122679
-0.125895
-0.12907
-0.132201
-0.135288
-0.13833
-0.141326
-0.144276
-0.14718
-0.150038
-0.15285
-0.155616
-0.158337
-0.161013
-0.163646
-0.166236
-0.168784
-0.171292
-0.17376
-0.176191
-0.178585
-0.180944
-0.18327
-0.185564
-0.187827
-0.190069
-0.192308
-0.194474
-0.196266
-0.197968
-0.0154479
-0.00396222
-0.00628255
-0.00744049
-0.00827473
-0.00917541
-0.00999412
-0.0107366
-0.0113969
-0.0119674
-0.0124438
-0.012823
-0.0131034
-0.0132848
-0.0133678
-0.0133544
-0.0132475
-0.0130506
-0.0127683
-0.0124058
-0.011969
-0.0114645
-0.0108994
-0.0102814
-0.00961864
-0.0089196
-0.0081933
-0.00744905
-0.00669649
-0.00594555
-0.00520638
-0.00448925
-0.00380461
-0.00316286
-0.00257454
-0.00205008
-0.00159973
-0.00123372
-0.000961687
-0.000793162
-0.000736993
-0.00080184
-0.000995418
-0.00132504
-0.00179675
-0.00241622
-0.00318776
-0.00411535
-0.00520151
-0.00644869
-0.00785719
-0.00942451
-0.0111444
-0.0130114
-0.0150208
-0.0171686
-0.0194499
-0.0218604
-0.0243944
-0.0270468
-0.0298115
-0.0326829
-0.0356543
-0.0387196
-0.0418721
-0.0451053
-0.0484123
-0.051787
-0.0552235
-0.0587166
-0.0622596
-0.0658464
-0.0694701
-0.0731249
-0.0768043
-0.0805029
-0.0842145
-0.0879343
-0.0916564
-0.0953765
-0.0990893
-0.102791
-0.106477
-0.110143
-0.113786
-0.117403
-0.12099
-0.124544
-0.128064
-0.131546
-0.134989
-0.13839
-0.141749
-0.145065
-0.148335
-0.151559
-0.154737
-0.157868
-0.160952
-0.163989
-0.166979
-0.169923
-0.17282
-0.175672
-0.178479
-0.181243
-0.183964
-0.186643
-0.189282
-0.191883
-0.194446
-0.196974
-0.199467
-0.201928
-0.204357
-0.206765
-0.20917
-0.211501
-0.213432
-0.215259
-0.0154665
-0.00393532
-0.00645466
-0.00766892
-0.00859384
-0.00958145
-0.0104849
-0.0113124
-0.0120574
-0.0127127
-0.0132743
-0.0137392
-0.0141059
-0.0143744
-0.0145456
-0.0146214
-0.0146047
-0.0144993
-0.0143099
-0.0140417
-0.0137007
-0.0132936
-0.0128275
-0.0123102
-0.0117497
-0.0111548
-0.0105344
-0.00989778
-0.00925471
-0.00861511
-0.00798914
-0.00738713
-0.00681948
-0.00629674
-0.00582933
-0.00542775
-0.00510231
-0.00486322
-0.00472018
-0.00468281
-0.00475993
-0.0049603
-0.0052917
-0.00576158
-0.00637609
-0.00714092
-0.00806049
-0.00913877
-0.0103784
-0.0117819
-0.0133496
-0.0150785
-0.0169623
-0.0189955
-0.0211732
-0.0234914
-0.0259454
-0.0285306
-0.0312415
-0.0340728
-0.0370185
-0.0400727
-0.0432289
-0.0464808
-0.0498218
-0.0532451
-0.056744
-0.0603116
-0.0639417
-0.0676286
-0.0713666
-0.0751492
-0.0789701
-0.0828227
-0.086701
-0.090599
-0.0945109
-0.0984312
-0.102355
-0.106276
-0.110191
-0.114094
-0.117982
-0.12185
-0.125695
-0.129514
-0.133302
-0.137058
-0.140779
-0.144461
-0.148104
-0.151705
-0.155263
-0.158777
-0.162244
-0.165665
-0.16904
-0.172366
-0.175645
-0.178875
-0.182058
-0.185194
-0.188283
-0.191325
-0.194323
-0.197275
-0.200185
-0.203052
-0.205879
-0.208666
-0.211416
-0.214129
-0.216808
-0.219454
-0.222068
-0.22466
-0.227252
-0.229766
-0.231855
-0.233824
-0.0154807
-0.00391359
-0.00663701
-0.00791099
-0.00893204
-0.0100113
-0.0110043
-0.0119216
-0.0127561
-0.0135011
-0.0141526
-0.0147079
-0.0151659
-0.0155264
-0.0157905
-0.0159604
-0.0160389
-0.0160302
-0.0159387
-0.01577
-0.0155302
-0.0152258
-0.0148641
-0.014453
-0.0140005
-0.0135153
-0.0130065
-0.0124834
-0.0119557
-0.0114335
-0.0109269
-0.0104461
-0.0100019
-0.00960445
-0.00926452
-0.00899248
-0.00879873
-0.00869337
-0.00868639
-0.00878718
-0.0090049
-0.00934804
-0.0098248
-0.0104424
-0.0112074
-0.0121253
-0.0132009
-0.0144378
-0.0158391
-0.017407
-0.0191422
-0.0210413
-0.0230979
-0.025306
-0.0276613
-0.0301593
-0.0327956
-0.0355651
-0.0384629
-0.041483
-0.04462
-0.0478673
-0.051219
-0.0546681
-0.0582084
-0.0618327
-0.0655346
-0.0693068
-0.0731429
-0.077036
-0.0809809
-0.0849712
-0.0890012
-0.0930638
-0.0971533
-0.101263
-0.105388
-0.109521
-0.113659
-0.117794
-0.121924
-0.126042
-0.130145
-0.134229
-0.138289
-0.142322
-0.146326
-0.150296
-0.154231
-0.158128
-0.161984
-0.165798
-0.169568
-0.173293
-0.176972
-0.180604
-0.184187
-0.187722
-0.191209
-0.194646
-0.198036
-0.201376
-0.20467
-0.207916
-0.211116
-0.21427
-0.21738
-0.220447
-0.223473
-0.226458
-0.229405
-0.232315
-0.23519
-0.23803
-0.240838
-0.243624
-0.246412
-0.249118
-0.251371
-0.253488
-0.0154905
-0.00389722
-0.00682932
-0.00816625
-0.00928864
-0.0104639
-0.0115511
-0.0125627
-0.0134913
-0.0143304
-0.0150764
-0.0157268
-0.0162805
-0.0167377
-0.0170994
-0.017368
-0.0175466
-0.0176392
-0.0176506
-0.0175863
-0.0174525
-0.0172559
-0.0170038
-0.016704
-0.0163647
-0.0159946
-0.0156028
-0.0151987
-0.0147921
-0.0143928
-0.0140112
-0.0136577
-0.0133426
-0.0130766
-0.0128702
-0.0127339
-0.0126781
-0.0127129
-0.0128484
-0.0130941
-0.013459
-0.0139519
-0.0145808
-0.0153531
-0.0162757
-0.0173539
-0.0185927
-0.0199957
-0.0215661
-0.0233061
-0.0252164
-0.0272936
-0.0295311
-0.0319227
-0.034464
-0.0371505
-0.0399778
-0.0429409
-0.0460346
-0.0492531
-0.0525907
-0.056041
-0.0595977
-0.0632542
-0.0670038
-0.0708396
-0.0747548
-0.0787424
-0.0827954
-0.086907
-0.0910706
-0.0952804
-0.0995307
-0.103815
-0.108127
-0.112461
-0.11681
-0.121169
-0.125532
-0.129895
-0.134251
-0.138597
-0.142928
-0.14724
-0.151528
-0.155789
-0.160021
-0.164219
-0.168381
-0.172505
-0.176588
-0.180628
-0.184625
-0.188575
-0.192478
-0.196334
-0.20014
-0.203898
-0.207606
-0.211265
-0.214874
-0.218434
-0.221946
-0.22541
-0.228826
-0.232197
-0.235522
-0.238805
-0.242044
-0.245243
-0.248402
-0.251524
-0.254611
-0.257663
-0.260681
-0.263678
-0.266678
-0.269594
-0.272026
-0.274306
-0.0154956
-0.0038863
-0.00703128
-0.00843423
-0.00966296
-0.0109383
-0.0121242
-0.0132344
-0.0142613
-0.015199
-0.0160438
-0.0167936
-0.0174473
-0.0180054
-0.0184692
-0.0188409
-0.0191239
-0.0193225
-0.0194413
-0.0194861
-0.0194631
-0.019379
-0.0192412
-0.0190576
-0.0188364
-0.0185864
-0.0183167
-0.0180367
-0.0177563
-0.0174853
-0.0172341
-0.017013
-0.0168327
-0.0167036
-0.0166364
-0.0166416
-0.0167296
-0.0169107
-0.0171947
-0.0175913
-0.0181097
-0.0187585
-0.019546
-0.0204796
-0.0215661
-0.0228114
-0.0242199
-0.0257959
-0.0275422
-0.0294612
-0.0315537
-0.0338163
-0.0362421
-0.0388249
-0.04156
-0.0444432
-0.0474697
-0.0506348
-0.0539328
-0.0573585
-0.0609054
-0.0645678
-0.0683388
-0.0722121
-0.0761804
-0.0802375
-0.0843757
-0.0885886
-0.0928686
-0.0972093
-0.101603
-0.106044
-0.110526
-0.115043
-0.119589
-0.124158
-0.128743
-0.133339
-0.13794
-0.142541
-0.147136
-0.151722
-0.156292
-0.160844
-0.165373
-0.169875
-0.174347
-0.178785
-0.183188
-0.187552
-0.191874
-0.196154
-0.200389
-0.204577
-0.208718
-0.21281
-0.216853
-0.220846
-0.224789
-0.228682
-0.232524
-0.236317
-0.240059
-0.243754
-0.2474
-0.250999
-0.254552
-0.258061
-0.261527
-0.264951
-0.268335
-0.271681
-0.27499
-0.278264
-0.281504
-0.284723
-0.287946
-0.29108
-0.293701
-0.29615
-0.0154961
-0.00388085
-0.00724254
-0.00871442
-0.0100543
-0.0114337
-0.0127222
-0.0139351
-0.0150646
-0.0161048
-0.0170525
-0.0179057
-0.0186636
-0.0193268
-0.0198966
-0.0203757
-0.0207674
-0.0210761
-0.0213067
-0.0214649
-0.021557
-0.0215899
-0.0215709
-0.0215081
-0.0214097
-0.0212844
-0.0211415
-0.0209905
-0.020841
-0.0207032
-0.0205873
-0.0205038
-0.0204633
-0.0204764
-0.0205536
-0.0207056
-0.0209428
-0.0212755
-0.0217135
-0.0222668
-0.0229443
-0.023755
-0.0247068
-0.0258076
-0.0270641
-0.0284823
-0.0300668
-0.0318219
-0.0337503
-0.0358547
-0.0381357
-0.0405904
-0.0432114
-0.0459924
-0.0489286
-0.0520158
-0.0552491
-0.0586237
-0.0621341
-0.0657747
-0.0695394
-0.073422
-0.0774159
-0.0815144
-0.0857106
-0.0899976
-0.0943682
-0.0988154
-0.103332
-0.107911
-0.112546
-0.117229
-0.121953
-0.126714
-0.131504
-0.136318
-0.141151
-0.145995
-0.150845
-0.155695
-0.160541
-0.165378
-0.1702
-0.175004
-0.179785
-0.184539
-0.189264
-0.193955
-0.19861
-0.203226
-0.2078
-0.212332
-0.216818
-0.221257
-0.225649
-0.229991
-0.234283
-0.238524
-0.242715
-0.246855
-0.250943
-0.254981
-0.258969
-0.262907
-0.266797
-0.270638
-0.274433
-0.278183
-0.281888
-0.285552
-0.289174
-0.292758
-0.296305
-0.299816
-0.303292
-0.306748
-0.310209
-0.313578
-0.316401
-0.319031
-0.0154918
-0.00388085
-0.00746274
-0.00900633
-0.0104619
-0.011949
-0.0133441
-0.0146636
-0.0158994
-0.017046
-0.0181004
-0.0190609
-0.0199269
-0.0206989
-0.0213787
-0.0219691
-0.0224735
-0.0228963
-0.0232426
-0.0235183
-0.0237297
-0.0238837
-0.0239878
-0.0240499
-0.0240785
-0.0240824
-0.0240707
-0.024053
-0.024039
-0.0240388
-0.0240629
-0.0241216
-0.0242256
-0.0243855
-0.024612
-0.0249157
-0.025307
-0.0257964
-0.0263937
-0.0271086
-0.0279506
-0.0289281
-0.0300499
-0.0313231
-0.0327552
-0.0343516
-0.0361179
-0.0380574
-0.0401738
-0.042469
-0.0449446
-0.047597
-0.0504196
-0.0534051
-0.0565491
-0.0598468
-0.063294
-0.066885
-0.0706151
-0.0744779
-0.0784679
-0.0825782
-0.0868029
-0.0911345
-0.0955666
-0.100092
-0.104703
-0.109393
-0.114156
-0.118982
-0.123866
-0.128801
-0.133779
-0.138793
-0.143839
-0.148908
-0.153998
-0.1591
-0.164209
-0.16932
-0.174428
-0.179526
-0.184611
-0.189678
-0.194723
-0.199741
-0.20473
-0.209685
-0.214604
-0.219484
-0.224323
-0.229119
-0.233868
-0.238571
-0.243225
-0.247829
-0.252383
-0.256885
-0.261336
-0.265735
-0.270083
-0.274378
-0.278623
-0.282818
-0.286963
-0.291059
-0.295108
-0.29911
-0.303068
-0.306983
-0.310856
-0.314689
-0.318486
-0.322245
-0.325969
-0.329671
-0.333382
-0.336996
-0.34003
-0.34285
-0.0154827
-0.00388626
-0.00769149
-0.00930942
-0.010885
-0.0124833
-0.0139887
-0.0154184
-0.0167641
-0.0180207
-0.0191855
-0.0202569
-0.0212344
-0.022119
-0.0229125
-0.0236178
-0.0242385
-0.0247792
-0.0252451
-0.025642
-0.0259764
-0.0262554
-0.0264865
-0.0266776
-0.0268372
-0.0269742
-0.0270977
-0.0272174
-0.027343
-0.0274848
-0.027653
-0.0278582
-0.028111
-0.0284221
-0.0288023
-0.0292621
-0.0298121
-0.0304626
-0.0312237
-0.0321051
-0.0331161
-0.0342656
-0.0355618
-0.0370126
-0.0386248
-0.0404048
-0.0423573
-0.0444867
-0.0467958
-0.0492872
-0.0519621
-0.0548181
-0.0578474
-0.0610435
-0.0644009
-0.0679155
-0.0715823
-0.0753965
-0.0793523
-0.0834443
-0.087666
-0.0920114
-0.0964735
-0.101046
-0.105721
-0.110492
-0.115352
-0.120293
-0.125308
-0.130391
-0.135533
-0.140727
-0.145967
-0.151246
-0.156557
-0.161893
-0.167249
-0.172619
-0.177997
-0.183379
-0.188758
-0.194129
-0.199486
-0.204827
-0.210146
-0.21544
-0.220703
-0.225934
-0.231129
-0.236285
-0.241399
-0.24647
-0.251495
-0.256473
-0.261401
-0.26628
-0.271107
-0.275883
-0.280606
-0.285277
-0.289895
-0.294462
-0.298976
-0.30344
-0.307853
-0.312217
-0.316532
-0.320801
-0.325024
-0.329203
-0.33334
-0.337437
-0.341495
-0.345516
-0.349501
-0.353465
-0.357439
-0.361313
-0.36457
-0.367591
-0.0154689
-0.00389697
-0.00792842
-0.00962315
-0.0113229
-0.0130356
-0.0146547
-0.0161981
-0.0176571
-0.0190271
-0.0203057
-0.0214913
-0.0225839
-0.0235844
-0.0244949
-0.0253186
-0.0260591
-0.0267211
-0.02731
-0.0278317
-0.0282927
-0.0287003
-0.0290618
-0.0293855
-0.0296799
-0.0299537
-0.0302162
-0.0304771
-0.0307462
-0.0310336
-0.0313498
-0.0317053
-0.0321109
-0.0325772
-0.033115
-0.033735
-0.0344477
-0.0352636
-0.0361927
-0.0372448
-0.0384291
-0.0397548
-0.0412299
-0.0428624
-0.0446593
-0.046627
-0.0487704
-0.0510938
-0.0536002
-0.0562922
-0.0591712
-0.0622351
-0.0654763
-0.0688878
-0.0724641
-0.0762008
-0.080093
-0.0841357
-0.0883233
-0.0926502
-0.0971099
-0.101696
-0.106403
-0.111222
-0.116147
-0.121171
-0.126286
-0.131485
-0.136761
-0.142107
-0.147514
-0.152977
-0.158487
-0.164038
-0.169622
-0.175234
-0.180867
-0.186515
-0.192172
-0.197833
-0.203493
-0.209146
-0.214787
-0.220411
-0.226015
-0.231593
-0.237143
-0.24266
-0.248141
-0.253583
-0.258984
-0.264342
-0.269653
-0.274917
-0.280131
-0.285295
-0.290408
-0.295468
-0.300476
-0.30543
-0.310332
-0.31518
-0.319977
-0.324721
-0.329414
-0.334057
-0.338651
-0.343197
-0.347697
-0.352152
-0.356564
-0.360935
-0.365268
-0.369562
-0.373819
-0.378055
-0.382304
-0.386447
-0.389937
-0.393166
-0.0154502
-0.00391289
-0.0081731
-0.00994699
-0.0117748
-0.0136049
-0.015341
-0.0170013
-0.0185768
-0.0200634
-0.0214589
-0.0227619
-0.0239726
-0.0250922
-0.026123
-0.0270682
-0.0279317
-0.0287183
-0.0294334
-0.0300831
-0.030674
-0.0312134
-0.0317088
-0.0321684
-0.0326008
-0.0330148
-0.0334198
-0.0338253
-0.0342413
-0.0346779
-0.0351457
-0.0356551
-0.036217
-0.036842
-0.0375411
-0.0383249
-0.039204
-0.040189
-0.0412898
-0.0425163
-0.0438778
-0.0453833
-0.0470413
-0.0488593
-0.0508448
-0.053004
-0.0553422
-0.0578635
-0.0605712
-0.0634676
-0.0665547
-0.0698304
-0.0732879
-0.0769192
-0.080719
-0.0846825
-0.088805
-0.0930811
-0.0975056
-0.102072
-0.106776
-0.111609
-0.116565
-0.121636
-0.126818
-0.1321
-0.137477
-0.142941
-0.148484
-0.1541
-0.15978
-0.165517
-0.171304
-0.177135
-0.183001
-0.188897
-0.194815
-0.20075
-0.206695
-0.212645
-0.218594
-0.224538
-0.230472
-0.236389
-0.242287
-0.24816
-0.254005
-0.259818
-0.265596
-0.271335
-0.277033
-0.282688
-0.288296
-0.293857
-0.299368
-0.304829
-0.310238
-0.315594
-0.320897
-0.326147
-0.331343
-0.336485
-0.341574
-0.346611
-0.351596
-0.35653
-0.361414
-0.366249
-0.371039
-0.375782
-0.380482
-0.385139
-0.389758
-0.394337
-0.398879
-0.4034
-0.407935
-0.412361
-0.416095
-0.419543
-0.0154269
-0.00393389
-0.00842514
-0.0102804
-0.01224
-0.0141903
-0.0160465
-0.0178266
-0.0195216
-0.0211278
-0.0226431
-0.0240665
-0.0253983
-0.0266399
-0.0277939
-0.0288635
-0.0298529
-0.030767
-0.0316113
-0.032392
-0.0331158
-0.03379
-0.0344223
-0.0350209
-0.0355944
-0.0361518
-0.0367023
-0.0372556
-0.0378216
-0.0384107
-0.0390331
-0.0396996
-0.040421
-0.041208
-0.0420716
-0.0430224
-0.0440713
-0.0452285
-0.0465044
-0.0479087
-0.0494507
-0.0511395
-0.0529835
-0.0549905
-0.0571679
-0.0595219
-0.0620582
-0.0647807
-0.067693
-0.0707973
-0.0740957
-0.0775867
-0.0812639
-0.085119
-0.0891462
-0.0933405
-0.0976973
-0.102211
-0.106877
-0.111689
-0.11664
-0.121724
-0.126935
-0.132264
-0.137706
-0.143253
-0.148897
-0.154631
-0.160448
-0.166339
-0.172298
-0.178316
-0.184387
-0.190504
-0.196659
-0.202846
-0.209057
-0.215287
-0.221528
-0.227776
-0.234024
-0.240268
-0.246502
-0.252721
-0.258922
-0.265099
-0.271249
-0.277367
-0.283451
-0.289496
-0.295501
-0.301462
-0.307378
-0.313246
-0.319064
-0.324832
-0.330548
-0.33621
-0.34182
-0.347375
-0.352876
-0.358323
-0.363716
-0.369056