/*--------------------------------*- C++ -*---------------------------------*\ 
| ========                 |                                                 | 
| \      /  F ield         | OpenFOAM: The Open Source CFD Toolbox           | 
|  \    /   O peration     | Version:  v1812                                 | 
|   \  /    A nd           | Web:      www.OpenFOAM.com                      | 
|    \/     M anipulation  |                                                 | 
\*--------------------------------------------------------------------------*/ 
FoamFile
{
    version     2.0;
    format      ascii;
    class       volVectorField;
    location    "/home/james/dafoam/myRuns/bezier_coanda_opt/0.00000000001/";
    object      sens_CL_shapey;
}
// * * * * * * * * * * * * * * * * * * * * * * * * * * * * * * * * * * * * * //

dimensions      [0 0 0 0 0 0 0];
internalField   uniform (0 0 0);
boundaryField
{
    allWalls
    {
        type  wall;
        value nonuniform List<vector>
198
(
(-0.164325 0.016443 0.000023)
(-0.161785 0.019279 0.000024)
(-0.193004 0.034319 0.000023)
(-0.048720 -0.018993 0.000023)
(0.027752 -0.021202 0.000022)
(0.055466 -0.067037 0.000022)
(0.226545 -0.163696 0.000021)
(0.235110 -0.202107 0.000020)
(0.065280 -0.050710 0.000019)
(-0.084389 0.083020 0.000019)
(-0.005669 -0.010800 0.000018)
(-0.036030 0.062002 0.000017)
(-0.053627 0.101573 0.000130)
(-0.031734 0.067050 0.000249)
(-0.032921 0.084849 0.000263)
(-0.029833 0.096009 0.000278)
(-0.021731 0.081340 0.000295)
(-0.014619 0.065901 0.000314)
(-0.012712 0.063721 0.000335)
(-0.005937 0.033517 0.000473)
(-0.014036 0.089802 0.000648)
(-0.016463 0.107823 0.000741)
(-0.013472 0.103615 0.000831)
(-0.018765 0.147721 0.000909)
(-0.019725 0.237791 0.000932)
(-0.011783 0.120953 0.000675)
(-0.001752 -0.130287 0.000346)
(-0.001072 -0.115027 0.000200)
(-0.007802 -0.098701 0.000095)
(-0.021438 -0.136915 0.000023)
(-0.040099 -0.174583 -0.000024)
(-0.061338 -0.217623 0.000019)
(-0.074902 -0.229727 0.000083)
(-0.083161 -0.228659 0.000090)
(-0.084947 -0.213892 0.000097)
(-0.075334 -0.174522 0.000103)
(-0.050543 -0.105105 0.000109)
(-0.015973 -0.021355 0.000047)
(0.019778 0.056401 -0.000017)
(0.053074 0.121328 -0.000017)
(0.081172 0.169187 -0.000017)
(0.105213 0.200140 -0.000017)
(0.139657 0.240941 -0.000017)
(0.143612 0.221039 -0.000017)
(0.105114 0.126319 -0.000017)
(0.080188 0.066436 -0.000017)
(0.058541 0.024124 -0.000017)
(0.030618 -0.010295 -0.000017)
(0.017434 0.014069 -0.000017)
(0.011440 0.033406 -0.000027)
(0.296697 -2.471966 -0.000011)
(-0.697263 1.481125 -0.000011)
(0.008762 0.740110 -0.000011)
(0.485456 -0.633419 -0.000011)
(0.140390 -0.243885 -0.000011)
(-0.123561 0.172238 -0.000012)
(0.181452 -0.361439 -0.000012)
(-0.048667 -0.296719 -0.000012)
(-0.880953 0.999440 -0.000012)
(0.398725 0.720381 -0.000013)
(0.800887 -0.510597 -0.000013)
(-0.229817 -0.330392 -0.000013)
(-0.072466 0.062740 0.000066)
(-0.328967 0.441262 0.000147)
(-0.438815 0.549971 0.000150)
(-0.331404 1.301262 0.000155)
(0.281428 0.219626 0.000160)
(0.634053 -2.138367 0.000166)
(0.211341 -1.471384 0.000353)
(-0.032704 -0.185612 0.000589)
(-0.026107 -0.015062 0.000694)
(-0.006602 -0.013795 0.000796)
(-0.005968 0.056974 0.000887)
(-0.004611 -0.019371 0.000954)
(0.007419 0.129564 0.000955)
(0.019249 0.304413 0.000754)
(0.012559 0.150249 0.000478)
(0.012651 0.111774 0.000304)
(0.013233 0.111514 0.000174)
(0.006969 0.052893 0.000079)
(0.009377 0.060215 0.000011)
(0.011689 0.066770 0.000004)
(0.009841 0.050235 0.000033)
(0.013643 0.059277 0.000049)
(0.019882 0.076518 0.000065)
(0.013682 0.047646 0.000080)
(0.011602 0.035307 0.000094)
(0.010524 0.032601 0.000052)
(0.007253 0.019638 0.000005)
(0.009698 0.017032 0.000007)
(0.012619 0.002438 0.000009)
(0.004814 -0.024538 0.000011)
(0.009572 -0.022690 0.000013)
(0.035767 0.019820 0.000014)
(0.043477 0.051979 0.000016)
(0.009839 0.060548 0.000017)
(-0.033199 0.037603 0.000019)
(-0.043189 0.009770 0.000020)
(-0.026581 0.001862 0.000021)
(-0.048528 0.005148 0.000022)
(-0.003706 0.000240 -0.000036)
(-0.014580 -0.012243 -0.000036)
(-0.010967 0.056553 -0.000036)
(-0.005357 0.127462 -0.000036)
(-0.001633 0.148022 -0.000036)
(0.002389 0.158919 -0.000036)
(0.006068 0.158146 -0.000036)
(0.010771 0.168387 -0.000036)
(0.020928 0.256505 -0.000036)
(0.034702 0.318150 -0.000036)
(0.044103 -0.254544 -0.000036)
(0.095480 -1.075409 -0.000036)
(0.310612 2.982858 -0.000022)
(1.017587 14.660708 -0.000008)
(-23.287182 -23.732041 -0.000008)
(42.947324 -252.118865 -0.000008)
(-26.775960 -3.568825 -0.000008)
(-7.518014 2.731885 -0.000008)
(-26.016038 -33.919357 -0.000008)
(-18.101699 238.164306 -0.000008)
(-1.484618 51.082493 -0.000008)
(-0.422627 21.707724 -0.000008)
(-0.414990 8.310111 -0.000008)
(0.197054 3.662173 0.000001)
(0.537179 3.292465 0.000010)
(0.212269 1.248594 0.000010)
(-0.349982 -0.980127 0.000010)
(0.493930 0.113879 0.000010)
(1.396596 2.383280 0.000010)
(2.726826 5.154717 0.000010)
(1.548533 3.785850 0.000010)
(0.367733 1.366443 0.000010)
(0.180522 1.093469 0.000010)
(-0.289943 0.177176 0.000010)
(-0.297705 0.249442 0.000010)
(-1.180198 -0.621071 0.000010)
(-1.226986 -0.500758 0.000010)
(-1.613855 -0.683588 0.000010)
(-1.237527 -0.377519 0.000010)
(-0.055238 0.302962 0.000010)
(-0.170942 0.312930 0.000010)
(-0.823944 -0.048759 0.000010)
(-0.159985 0.184822 0.000010)
(0.039214 0.160781 0.000010)
(0.187101 0.063938 0.000010)
(1.281917 0.130917 0.000010)
(1.823295 0.093523 0.000010)
(0.808820 -0.163985 0.000010)
(0.804491 -0.283787 0.000010)
(0.829118 -0.313713 0.000010)
(0.912518 -0.375836 0.000010)
(1.157712 -0.379200 0.000010)
(0.783272 -0.320324 0.000010)
(0.565389 -0.251682 0.000010)
(0.318395 -0.172208 0.000010)
(0.129981 -0.089769 0.000010)
(-0.024827 -0.018589 0.000010)
(0.115803 -0.068063 0.000010)
(0.189532 -0.086980 0.000010)
(0.006327 0.026692 0.000010)
(-0.212477 0.189291 0.000010)
(-0.450372 0.394527 0.000010)
(-0.546423 0.492204 0.000010)
(-0.790992 0.772183 0.000010)
(-0.884083 0.905984 0.000010)
(-0.448338 0.509049 0.000010)
(-0.117957 0.195299 0.000010)
(0.410632 -0.536289 0.000010)
(1.379836 -2.124722 0.000010)
(2.502725 -4.379551 0.000010)
(3.089516 -6.042873 0.000010)
(2.677303 -5.977555 0.000010)
(1.961602 -5.241845 0.000010)
(1.291868 -3.691040 0.000001)
(0.455085 -1.083044 -0.000008)
(-0.084038 0.570983 -0.000008)
(-0.242948 1.828053 -0.000008)
(-0.587901 2.035973 -0.000008)
(-60.062106 0.576706 -0.000008)
(59.385874 0.689274 -0.000008)
(-0.504375 0.865332 -0.000008)
(0.719811 -1.029861 -0.000008)
(-3.672553 16.283984 -0.000008)
(-4.525935 12.940843 -0.000008)
(0.267731 -6.250414 -0.000008)
(0.108943 -1.470430 -0.000022)
(0.019432 0.009973 -0.000036)
(0.013503 -0.265026 -0.000036)
(0.007819 -0.087960 -0.000036)
(0.005881 0.022125 -0.000036)
(0.007993 -0.062955 -0.000036)
(0.006017 0.007074 -0.000036)
(0.005229 0.088331 -0.000036)
(0.011127 -0.218957 -0.000036)
(0.004747 -0.441135 -0.000036)
(-0.077563 0.537760 -0.000036)
(-0.094806 1.569889 -0.000036)
(0.760019 -2.185722 -0.000024)
)
;
    }
}
