/*--------------------------------*- C++ -*---------------------------------*\ 
| ========                 |                                                 | 
| \      /  F ield         | OpenFOAM: The Open Source CFD Toolbox           | 
|  \    /   O peration     | Version:  v1812                                 | 
|   \  /    A nd           | Web:      www.OpenFOAM.com                      | 
|    \/     M anipulation  |                                                 | 
\*--------------------------------------------------------------------------*/ 
FoamFile
{
    version     2.0;
    format      ascii;
    class       volVectorField;
    location    "/home/james/dafoam/myRuns/bezier_coanda_opt/0.00000000001/";
    object      sens_CL_shapey;
}
// * * * * * * * * * * * * * * * * * * * * * * * * * * * * * * * * * * * * * //

dimensions      [0 0 0 0 0 0 0];
internalField   uniform (0 0 0);
boundaryField
{
    allWalls
    {
        type  wall;
        value nonuniform List<vector>
198
(
(0.015321 -0.003844 0.000155)
(0.018801 -0.005563 0.000158)
(0.017816 -0.003466 0.000157)
(-0.005938 0.009528 0.000156)
(-0.041303 0.033710 0.000154)
(-0.052756 0.045502 0.000153)
(-0.052326 0.051481 0.000151)
(-0.064895 0.070078 0.000150)
(-0.012900 0.011731 0.000148)
(0.018988 -0.019853 0.000146)
(-0.021435 0.047203 0.000144)
(-0.017704 0.035761 0.000142)
(-0.014638 0.034703 0.000399)
(-0.017994 0.045027 0.000673)
(-0.007450 0.024454 0.000711)
(-0.006504 0.022590 0.000753)
(-0.009872 0.041569 0.000801)
(-0.011593 0.052585 0.000855)
(-0.008343 0.045367 0.000912)
(-0.010019 0.062454 0.001541)
(-0.010184 0.077435 0.002321)
(-0.008860 0.083898 0.002691)
(-0.006501 0.089998 0.003065)
(-0.004937 0.144655 0.003414)
(-0.000363 0.178663 0.003577)
(0.007799 0.186170 0.002640)
(0.016364 0.207853 0.001407)
(0.025624 0.224996 0.000872)
(0.035322 0.242789 0.000448)
(0.044755 0.254556 0.000127)
(0.054330 0.267627 -0.000103)
(0.063211 0.277560 -0.000201)
(0.071151 0.284551 -0.000205)
(0.077747 0.287894 -0.000205)
(0.082537 0.286585 -0.000205)
(0.085202 0.280170 -0.000205)
(0.085485 0.268286 -0.000205)
(0.083243 0.250915 -0.000247)
(0.078824 0.229320 -0.000282)
(0.072841 0.205303 -0.000270)
(0.065160 0.178381 -0.000259)
(0.055647 0.148530 -0.000249)
(0.045505 0.119465 -0.000239)
(0.037443 0.098167 -0.000230)
(0.033363 0.088124 -0.000222)
(0.026509 0.071465 -0.000215)
(0.006689 0.023085 -0.000208)
(0.001225 0.015243 -0.000202)
(0.018428 0.066254 -0.000196)
(-0.007038 -0.048599 -0.000194)
(0.000711 -0.007743 -0.000181)
(-0.003479 0.008281 -0.000191)
(-0.005425 0.011716 -0.000182)
(-0.006564 0.015510 -0.000173)
(-0.009118 0.022016 -0.000163)
(-0.013675 0.032258 -0.000152)
(-0.018192 0.042529 -0.000139)
(-0.025872 0.063312 -0.000126)
(-0.028128 0.072528 -0.000111)
(-0.028332 0.077577 -0.000094)
(-0.010958 0.045383 -0.000076)
(0.014622 -0.019162 -0.000057)
(0.013448 -0.027269 -0.000126)
(0.010413 -0.029545 -0.000205)
(0.013102 -0.047109 -0.000205)
(0.010365 -0.042638 -0.000205)
(0.004677 -0.024541 -0.000205)
(-0.000162 -0.005673 -0.000205)
(-0.003766 0.012008 0.000003)
(-0.006345 0.028987 0.000231)
(-0.007863 0.045084 0.000266)
(-0.008104 0.058311 0.000290)
(-0.007225 0.069726 0.000296)
(-0.005429 0.080934 0.000283)
(-0.002696 0.081004 0.000239)
(0.000743 0.105007 -0.000115)
(0.002217 0.087402 -0.000468)
(0.004067 0.060425 -0.000515)
(0.005110 0.059048 -0.000538)
(0.004326 0.038696 -0.000544)
(0.005921 0.042854 -0.000539)
(0.007204 0.043416 -0.000089)
(0.007179 0.037141 0.000362)
(0.005929 0.027397 0.000373)
(0.006637 0.026417 0.000384)
(0.011288 0.038316 0.000395)
(0.007836 0.026105 0.000407)
(0.004364 0.013015 0.000253)
(0.006848 0.017458 0.000097)
(0.007393 0.016469 0.000104)
(0.004826 0.007939 0.000111)
(0.002703 -0.000943 0.000117)
(-0.000127 -0.006890 0.000123)
(-0.001863 -0.009223 0.000128)
(0.007922 0.002045 0.000133)
(0.016848 0.012943 0.000138)
(0.012761 0.015903 0.000142)
(0.005331 0.006504 0.000146)
(0.009309 -0.003384 0.000149)
(0.017114 -0.003855 0.000152)
(-0.014651 -0.068987 -0.000181)
(0.010350 0.072781 -0.000167)
(0.006163 0.094851 -0.000167)
(0.003462 0.095807 -0.000167)
(0.004543 0.138901 -0.000167)
(0.006375 0.193888 -0.000167)
(0.007203 0.223177 -0.000167)
(0.008860 0.298664 -0.000167)
(0.012173 0.422725 -0.000167)
(0.015147 0.551584 -0.000167)
(0.016542 0.656379 -0.000167)
(0.022488 0.988709 -0.000167)
(0.077922 2.394530 -0.000115)
(0.059520 4.087299 -0.000064)
(-14.551839 -6.453459 -0.000064)
(130.448352 -183.536728 -0.000064)
(-9.825526 -7.845778 -0.000064)
(0.946671 -3.746428 -0.000064)
(-7.760362 -6.100712 -0.000064)
(-116.235730 155.286659 -0.000064)
(2.850239 82.804566 -0.000064)
(4.439336 32.023712 -0.000064)
(2.379007 14.980082 -0.000064)
(0.876371 4.713486 -0.000034)
(0.475075 2.338187 -0.000005)
(0.515511 1.755730 -0.000005)
(-0.791580 -2.216783 -0.000005)
(-1.580800 -4.376817 -0.000005)
(-1.065507 -2.633604 -0.000005)
(-0.460875 -1.062582 -0.000005)
(0.668932 0.959862 -0.000005)
(3.034412 4.057258 -0.000005)
(8.015403 9.744892 -0.000005)
(17.526397 19.620757 -0.000005)
(22.660953 22.850990 -0.000005)
(25.105320 22.338922 -0.000005)
(19.423245 16.905641 -0.000005)
(41.468299 28.018029 -0.000005)
(27.431746 16.928205 -0.000005)
(-102.938778 -57.099122 -0.000005)
(-143.733564 -70.556624 -0.000005)
(-80.787892 -28.838562 -0.000005)
(-35.973049 -7.686607 -0.000005)
(27.551796 9.199097 -0.000005)
(42.497402 9.144607 -0.000005)
(28.330117 3.584062 -0.000005)
(32.845385 3.628118 -0.000005)
(25.511668 1.000609 -0.000005)
(15.269061 -0.114438 -0.000005)
(2.624893 -1.461923 -0.000005)
(-1.168186 -2.054152 -0.000005)
(3.236376 -1.768926 -0.000005)
(4.068815 -2.019404 -0.000005)
(4.089716 -1.880749 -0.000005)
(2.120198 -0.695846 -0.000005)
(-1.069924 0.500499 -0.000005)
(-0.050060 0.579956 -0.000005)
(0.650265 0.378682 -0.000005)
(0.612208 0.239258 -0.000005)
(0.439240 0.123096 -0.000005)
(0.348739 0.025903 -0.000005)
(0.281549 -0.026135 -0.000005)
(0.176622 -0.026578 -0.000005)
(0.086191 -0.004581 -0.000005)
(0.030362 0.012063 -0.000005)
(-0.000166 0.022612 -0.000005)
(-0.014679 0.028285 -0.000005)
(-0.019485 0.029546 -0.000005)
(-0.019791 0.028201 -0.000005)
(-0.018570 0.025814 -0.000005)
(-0.016826 0.023102 -0.000005)
(-0.014834 0.020293 -0.000005)
(-0.012869 0.017484 -0.000005)
(-0.009985 0.015007 -0.000034)
(-0.007188 0.012213 -0.000064)
(-0.005586 0.008620 -0.000064)
(-0.004344 0.005326 -0.000064)
(-0.003553 0.003130 -0.000064)
(-59.775098 0.001718 -0.000064)
(59.772163 0.000605 -0.000064)
(-0.000812 0.000757 -0.000064)
(-0.000610 0.001250 -0.000064)
(-0.015489 0.034097 -0.000064)
(-0.019080 0.050578 -0.000064)
(-0.005854 0.032623 -0.000064)
(-0.004288 0.028432 -0.000115)
(-0.003575 0.024348 -0.000167)
(-0.002342 0.021736 -0.000167)
(-0.001689 0.020339 -0.000167)
(-0.001295 0.019307 -0.000167)
(-0.001024 0.018387 -0.000167)
(-0.000932 0.017356 -0.000167)
(-0.000892 0.016234 -0.000167)
(-0.000682 0.013873 -0.000167)
(-0.000460 0.011841 -0.000167)
(-0.000181 0.012125 -0.000167)
(0.000371 0.010693 -0.000167)
(0.002058 -0.006448 -0.000167)
)
;
    }
}
