/*--------------------------------*- C++ -*---------------------------------*\ 
| ========                 |                                                 | 
| \      /  F ield         | OpenFOAM: The Open Source CFD Toolbox           | 
|  \    /   O peration     | Version:  v1812                                 | 
|   \  /    A nd           | Web:      www.OpenFOAM.com                      | 
|    \/     M anipulation  |                                                 | 
\*--------------------------------------------------------------------------*/ 
FoamFile
{
    version     2.0;
    format      ascii;
    class       volVectorField;
    location    "/home/james/dafoam/myRuns/bezier_coanda_opt/0.00000000001/";
    object      sens_CL_shapey;
}
// * * * * * * * * * * * * * * * * * * * * * * * * * * * * * * * * * * * * * //

dimensions      [0 0 0 0 0 0 0];
internalField   uniform (0 0 0);
boundaryField
{
    allWalls
    {
        type  wall;
        value nonuniform List<vector>
198
(
(-0.023387 0.059412 -0.000377)
(-0.029209 0.062397 -0.000369)
(0.009037 0.069556 -0.000369)
(0.114700 0.067026 -0.000369)
(-0.102419 0.101922 -0.000369)
(-1.954690 0.627167 -0.000369)
(-4.178823 1.556126 -0.000369)
(-1.277400 0.249759 -0.000369)
(3.561863 -2.978668 -0.000369)
(2.733807 -1.972450 -0.000369)
(1.067368 -1.016429 -0.000369)
(0.825760 -1.541473 -0.000369)
(-0.295686 0.908470 -0.000944)
(-0.574826 1.512319 -0.001526)
(-0.332535 0.658382 -0.001543)
(-0.186442 0.466029 -0.001567)
(-0.050688 0.072624 -0.001600)
(0.003789 0.172284 -0.001643)
(-0.009690 0.494384 -0.001698)
(-0.038542 0.683649 -0.002873)
(0.116642 -0.181224 -0.004525)
(0.258864 -0.854963 -0.005644)
(-0.087791 0.548191 -0.006990)
(-0.768298 2.581340 -0.008571)
(-0.633656 1.507543 -0.009913)
(0.057081 -1.152138 -0.008268)
(0.211376 -2.457218 -0.005120)
(0.130980 -1.969044 -0.003166)
(-0.058920 -0.868451 -0.001420)
(-0.522718 -1.949560 -0.000001)
(-0.941699 -3.007174 0.001070)
(-1.229506 -3.405663 0.002307)
(-1.634668 -3.993004 0.002994)
(-1.906111 -4.114225 0.002795)
(-1.663880 -2.995289 0.002598)
(-0.247285 0.137842 0.002406)
(1.494446 3.042260 0.002217)
(1.656441 2.877832 0.001755)
(1.053398 1.696740 0.001389)
(0.756443 1.141355 0.001392)
(0.470136 0.637956 0.001395)
(0.257313 0.262137 0.001398)
(0.117672 0.005980 0.001400)
(0.035317 -0.149832 0.001402)
(-0.012209 -0.221038 0.001405)
(-0.021340 -0.214257 0.001407)
(-0.033283 -0.211826 0.001409)
(0.014931 -0.045263 0.001410)
(0.045456 0.063361 0.001412)
(-0.122205 -0.557401 0.001192)
(0.135183 -0.795267 0.001331)
(0.031101 0.121666 0.001332)
(0.095060 -0.151325 0.001323)
(0.173643 -0.431791 0.001312)
(0.054974 -0.206059 0.001301)
(0.098917 -0.046384 0.001289)
(0.064945 -0.071082 0.001276)
(-0.041561 -0.117574 0.001262)
(0.009652 -0.097283 0.001247)
(-0.032522 0.038359 0.001230)
(-0.076734 0.140948 0.001213)
(-0.116866 0.235086 0.001194)
(-0.184063 0.378728 0.001447)
(-0.258061 0.571070 0.001764)
(-0.284155 0.799062 0.001879)
(-0.045780 0.571143 0.001997)
(0.231359 -0.277076 0.002117)
(0.251013 -0.877991 0.002239)
(0.152895 -0.720477 0.002250)
(0.048107 -0.314453 0.002131)
(0.007572 -0.109337 0.001950)
(-0.006634 -0.003225 0.001678)
(-0.014244 0.085606 0.001293)
(-0.013400 0.149301 0.000770)
(-0.006421 0.206440 0.000111)
(0.003271 0.240374 -0.000384)
(0.008144 0.175064 -0.000478)
(0.017013 0.172094 -0.000363)
(0.018731 0.153313 -0.000198)
(0.016400 0.094601 -0.000008)
(0.020551 0.104228 0.000190)
(0.024505 0.104248 -0.000515)
(0.035992 0.133420 -0.001317)
(0.028398 0.093282 -0.001315)
(0.022567 0.061038 -0.001321)
(0.029829 0.075201 -0.001332)
(0.029356 0.065315 -0.001349)
(0.030509 0.064455 -0.000861)
(0.032044 0.062567 -0.000365)
(0.034867 0.058376 -0.000368)
(0.034783 0.043971 -0.000370)
(0.037876 0.028663 -0.000372)
(0.027823 0.004058 -0.000375)
(0.020956 -0.007765 -0.000377)
(0.042619 0.018744 -0.000379)
(0.059713 0.043857 -0.000381)
(0.057948 0.057311 -0.000382)
(0.028078 0.073439 -0.000384)
(-0.015368 0.065470 -0.000385)
(-0.021931 0.050420 -0.000386)
(-0.145415 -0.495434 0.000971)
(-0.033748 0.087429 0.000971)
(-0.032436 0.030935 0.000971)
(-0.033237 -0.001772 0.000971)
(-0.027980 0.032470 0.000971)
(-0.022619 0.099313 0.000971)
(-0.018392 0.165254 0.000971)
(-0.017874 0.220134 0.000971)
(-0.020375 0.265647 0.000971)
(-0.027185 0.296068 0.000971)
(-0.039610 0.311853 0.000971)
(-0.065957 0.227886 0.000971)
(-0.111237 0.064166 0.000703)
(-0.239115 0.068004 0.000435)
(-18.220318 -9.691372 0.000435)
(24.801186 -282.750595 0.000435)
(-31.893955 -5.220482 0.000435)
(-7.371639 -1.750897 0.000435)
(-19.015267 -10.960165 0.000435)
(-8.602947 271.050857 0.000435)
(-3.740031 46.013732 0.000435)
(0.521849 21.670480 0.000435)
(-0.576069 4.066912 0.000435)
(0.120942 0.207182 0.000268)
(0.559798 1.875336 0.000100)
(0.388108 0.018637 0.000100)
(1.046994 2.339856 0.000100)
(1.438312 3.676991 0.000100)
(1.204567 3.828234 0.000100)
(0.683886 2.476657 0.000100)
(0.642154 1.958479 0.000100)
(-0.012800 0.522128 0.000100)
(0.320928 0.673254 0.000100)
(0.745659 0.981198 0.000100)
(0.482904 0.601768 0.000100)
(0.477452 0.434864 0.000100)
(0.508824 0.383765 0.000100)
(0.324988 0.205381 0.000100)
(0.445476 0.257687 0.000100)
(0.412890 0.164237 0.000100)
(0.557349 0.186095 0.000100)
(0.701301 0.221384 0.000100)
(0.721812 0.197530 0.000100)
(0.652345 0.162157 0.000100)
(0.671363 0.184752 0.000100)
(0.683580 0.204963 0.000100)
(0.714287 0.166488 0.000100)
(1.183889 0.155747 0.000100)
(1.375256 0.116357 0.000100)
(1.106176 0.050677 0.000100)
(0.925693 -0.002503 0.000100)
(0.788969 -0.037918 0.000100)
(0.666352 -0.060548 0.000100)
(0.568909 -0.074357 0.000100)
(0.480525 -0.080522 0.000100)
(0.404742 -0.082265 0.000100)
(0.335521 -0.079401 0.000100)
(0.262905 -0.068438 0.000100)
(0.179423 -0.044770 0.000100)
(0.081957 -0.003856 0.000100)
(-0.027048 0.054697 0.000100)
(-0.159236 0.145807 0.000100)
(-0.333864 0.296494 0.000100)
(-0.505542 0.475832 0.000100)
(-0.618619 0.630492 0.000100)
(-0.823354 0.934692 0.000100)
(-0.890754 1.101273 0.000100)
(-0.552528 0.726348 0.000100)
(0.345983 -0.614037 0.000100)
(1.351138 -2.407725 0.000100)
(2.160815 -4.374720 0.000100)
(2.393074 -5.504830 0.000100)
(1.925051 -5.386016 0.000100)
(1.272411 -4.044203 0.000268)
(0.381353 -1.438910 0.000435)
(-0.162130 0.281634 0.000435)
(-0.235711 1.498097 0.000435)
(-0.458387 1.623207 0.000435)
(-59.989424 0.405350 0.000435)
(59.394641 0.440287 0.000435)
(-0.298578 0.280780 0.000435)
(0.596530 -1.096152 0.000435)
(-2.818901 13.282321 0.000435)
(-3.124887 10.406507 0.000435)
(0.482505 -5.222036 0.000435)
(0.067061 -1.408208 0.000703)
(0.008551 -0.343588 0.000971)
(0.004989 -0.562037 0.000971)
(0.000352 -0.509308 0.000971)
(0.003427 -0.413320 0.000971)
(0.008228 -0.520551 0.000971)
(0.006853 -0.482069 0.000971)
(0.006678 -0.421139 0.000971)
(0.009027 -0.527795 0.000971)
(0.007413 -0.551136 0.000971)
(-0.012011 -0.189068 0.000971)
(0.000530 -0.002690 0.000971)
(0.114121 -0.900361 0.001149)
)
;
    }
}
