/*--------------------------------*- C++ -*---------------------------------*\ 
| ========                 |                                                 | 
| \      /  F ield         | OpenFOAM: The Open Source CFD Toolbox           | 
|  \    /   O peration     | Version:  v1812                                 | 
|   \  /    A nd           | Web:      www.OpenFOAM.com                      | 
|    \/     M anipulation  |                                                 | 
\*--------------------------------------------------------------------------*/ 
FoamFile
{
    version     2.0;
    format      ascii;
    class       volVectorField;
    location    "/home/james/dafoam/myRuns/bezier_coanda_opt/0.00000000001/";
    object      sens_CL_shapey;
}
// * * * * * * * * * * * * * * * * * * * * * * * * * * * * * * * * * * * * * //

dimensions      [0 0 0 0 0 0 0];
internalField   uniform (0 0 0);
boundaryField
{
    allWalls
    {
        type  wall;
        value nonuniform List<vector>
198
(
(0.006025 -0.001281 0.000136)
(0.007027 -0.001806 0.000138)
(0.006088 0.000030 0.000137)
(-0.008205 0.008165 0.000137)
(-0.028566 0.022359 0.000136)
(-0.038024 0.031997 0.000135)
(-0.038559 0.036564 0.000134)
(-0.040445 0.043014 0.000133)
(-0.031320 0.037403 0.000132)
(-0.004235 0.006202 0.000131)
(0.001380 0.003435 0.000129)
(-0.015729 0.033096 0.000128)
(-0.017515 0.038837 0.000378)
(-0.013004 0.032731 0.000646)
(-0.011349 0.033206 0.000686)
(-0.008842 0.028662 0.000731)
(-0.010493 0.040314 0.000782)
(-0.012171 0.051924 0.000839)
(-0.009257 0.044738 0.000900)
(-0.010768 0.061823 0.001512)
(-0.011250 0.077060 0.002274)
(-0.008578 0.074341 0.002644)
(-0.007061 0.087627 0.003020)
(-0.005982 0.145298 0.003375)
(-0.001503 0.168074 0.003550)
(0.006673 0.169057 0.002677)
(0.015118 0.193814 0.001497)
(0.024122 0.207610 0.000952)
(0.033723 0.223824 0.000518)
(0.043397 0.236572 0.000187)
(0.053246 0.249794 -0.000053)
(0.062545 0.260238 -0.000161)
(0.071012 0.268062 -0.000169)
(0.078143 0.272191 -0.000169)
(0.083525 0.272036 -0.000169)
(0.086560 0.266357 -0.000169)
(0.086981 0.254913 -0.000169)
(0.084652 0.237848 -0.000223)
(0.079783 0.215985 -0.000271)
(0.073011 0.191127 -0.000258)
(0.064390 0.163437 -0.000245)
(0.054180 0.133776 -0.000234)
(0.043559 0.105277 -0.000223)
(0.034413 0.082367 -0.000213)
(0.027567 0.065909 -0.000204)
(0.019458 0.046911 -0.000196)
(0.005370 0.014745 -0.000189)
(-0.001280 0.002512 -0.000182)
(0.005355 0.021733 -0.000176)
(-0.004353 -0.028152 -0.000175)
(0.002310 -0.015346 -0.000168)
(-0.003371 0.008383 -0.000173)
(-0.005390 0.010757 -0.000166)
(-0.005469 0.011977 -0.000158)
(-0.008077 0.018926 -0.000150)
(-0.012559 0.028684 -0.000140)
(-0.018143 0.041744 -0.000129)
(-0.024115 0.055907 -0.000117)
(-0.033701 0.082555 -0.000104)
(-0.035998 0.091963 -0.000090)
(-0.028867 0.083384 -0.000075)
(-0.002828 0.033207 -0.000058)
(0.027829 -0.060073 -0.000109)
(0.027923 -0.083253 -0.000169)
(0.018887 -0.063982 -0.000169)
(0.015499 -0.060949 -0.000169)
(0.011416 -0.051495 -0.000169)
(0.005402 -0.030659 -0.000169)
(-0.000214 -0.006535 0.000043)
(-0.004186 0.015318 0.000281)
(-0.006671 0.035235 0.000328)
(-0.007609 0.051720 0.000366)
(-0.007169 0.066107 0.000387)
(-0.005565 0.079731 0.000389)
(-0.002808 0.080857 0.000356)
(0.000821 0.107855 -0.000007)
(0.002465 0.092225 -0.000383)
(0.004225 0.061306 -0.000448)
(0.004637 0.053888 -0.000484)
(0.005287 0.043768 -0.000501)
(0.007283 0.050555 -0.000504)
(0.007018 0.040854 -0.000092)
(0.007372 0.036785 0.000324)
(0.007197 0.031559 0.000335)
(0.007091 0.027354 0.000347)
(0.012215 0.039647 0.000359)
(0.009021 0.029133 0.000371)
(0.003678 0.010893 0.000232)
(0.007016 0.017109 0.000090)
(0.009141 0.019580 0.000096)
(0.004686 0.007197 0.000101)
(0.001820 -0.004204 0.000106)
(0.000604 -0.007761 0.000110)
(-0.000064 -0.008657 0.000115)
(0.010827 0.004115 0.000119)
(0.019205 0.015830 0.000122)
(0.013799 0.019245 0.000125)
(0.003422 0.009903 0.000128)
(0.002197 -0.000016 0.000131)
(0.006881 -0.001114 0.000133)
(-0.007314 -0.037864 -0.000168)
(0.003610 0.031296 -0.000160)
(0.002771 0.056971 -0.000160)
(0.002446 0.077409 -0.000160)
(0.003576 0.114244 -0.000160)
(0.004975 0.152304 -0.000160)
(0.006055 0.188812 -0.000160)
(0.007808 0.253840 -0.000160)
(0.010810 0.358740 -0.000160)
(0.013803 0.477368 -0.000160)
(0.015059 0.542718 -0.000160)
(0.021426 0.795878 -0.000160)
(0.079885 2.204706 -0.000111)
(0.083453 4.147519 -0.000062)
(-14.293690 -8.138573 -0.000062)
(111.849942 -171.788238 -0.000062)
(-9.284178 -7.138749 -0.000062)
(1.065384 -3.079930 -0.000062)
(-7.977563 -8.146830 -0.000062)
(-98.715186 147.033559 -0.000062)
(2.716747 76.556554 -0.000062)
(4.080646 29.252836 -0.000062)
(2.204350 13.707856 -0.000062)
(0.835030 4.513980 -0.000062)
(0.473919 2.290119 -0.000032)
(0.447239 1.633568 -0.000001)
(-0.634300 -1.550353 -0.000001)
(-1.239407 -3.182328 -0.000001)
(-1.178603 -2.601603 -0.000001)
(-0.730880 -1.475204 -0.000001)
(-0.346017 -0.491428 -0.000001)
(0.618244 0.837906 -0.000001)
(5.309124 6.904364 -0.000001)
(10.760996 12.080489 -0.000001)
(10.970505 10.725748 -0.000001)
(16.573223 14.846948 -0.000001)
(25.749863 21.100566 -0.000001)
(20.282387 14.941180 -0.000001)
(31.326150 18.954069 -0.000001)
(-9.566274 -2.543259 -0.000001)
(-82.096628 -38.313563 -0.000001)
(-97.479536 -40.538515 -0.000001)
(-68.426810 -23.830969 -0.000001)
(-21.590011 -3.779476 -0.000001)
(27.759587 7.388743 -0.000001)
(38.513658 7.244153 -0.000001)
(22.310206 1.944637 -0.000001)
(25.849925 1.649098 -0.000001)
(18.945277 -0.667264 -0.000001)
(8.821967 -1.812567 -0.000001)
(-0.710866 -2.117288 -0.000001)
(-0.817925 -1.774326 -0.000001)
(3.982930 -1.749810 -0.000001)
(2.136168 -1.830479 -0.000001)
(1.265421 -1.609904 -0.000001)
(1.386211 -1.256377 -0.000001)
(-0.912876 0.036412 -0.000001)
(-0.236395 0.270558 -0.000001)
(0.437980 0.116515 -0.000001)
(0.491579 0.023660 -0.000001)
(0.378897 -0.018839 -0.000001)
(0.307268 -0.052788 -0.000001)
(0.249090 -0.072788 -0.000001)
(0.162306 -0.053251 -0.000001)
(0.079229 -0.014524 -0.000001)
(0.026385 0.012960 -0.000001)
(-0.001009 0.027486 -0.000001)
(-0.014310 0.035411 -0.000001)
(-0.018496 0.037669 -0.000001)
(-0.017923 0.036083 -0.000001)
(-0.015694 0.032716 -0.000001)
(-0.013190 0.028536 -0.000001)
(-0.010950 0.023994 -0.000001)
(-0.008598 0.019589 -0.000001)
(-0.005934 0.015146 -0.000032)
(-0.004016 0.010283 -0.000062)
(-0.003007 0.005902 -0.000062)
(-0.002636 0.003403 -0.000062)
(-59.774963 0.002125 -0.000062)
(59.772727 0.000624 -0.000062)
(0.000070 0.000650 -0.000062)
(-0.000255 -0.000211 -0.000062)
(-0.018787 0.058069 -0.000062)
(-0.021542 0.082038 -0.000062)
(-0.005612 0.042296 -0.000062)
(-0.004656 0.035580 -0.000111)
(-0.003785 0.030761 -0.000160)
(-0.002485 0.026743 -0.000160)
(-0.001754 0.023979 -0.000160)
(-0.001305 0.021654 -0.000160)
(-0.001003 0.019657 -0.000160)
(-0.000806 0.017384 -0.000160)
(-0.000672 0.014937 -0.000160)
(-0.000516 0.012620 -0.000160)
(-0.000235 0.010722 -0.000160)
(0.000041 0.009948 -0.000160)
(0.000402 0.010888 -0.000160)
(0.003228 -0.012115 -0.000160)
)
;
    }
}
