/*--------------------------------*- C++ -*---------------------------------*\ 
| ========                 |                                                 | 
| \      /  F ield         | OpenFOAM: The Open Source CFD Toolbox           | 
|  \    /   O peration     | Version:  v1812                                 | 
|   \  /    A nd           | Web:      www.OpenFOAM.com                      | 
|    \/     M anipulation  |                                                 | 
\*--------------------------------------------------------------------------*/ 
FoamFile
{
    version     2.0;
    format      ascii;
    class       volVectorField;
    location    "/home/james/dafoam/myRuns/bezier_coanda_opt/0.00000000001/";
    object      sens_CL_shapey;
}
// * * * * * * * * * * * * * * * * * * * * * * * * * * * * * * * * * * * * * //

dimensions      [0 0 0 0 0 0 0];
internalField   uniform (0 0 0);
boundaryField
{
    allWalls
    {
        type  wall;
        value nonuniform List<vector>
198
(
(0.019320 -0.005188 0.000134)
(0.015365 -0.005921 0.000136)
(0.010398 -0.002124 0.000135)
(-0.019059 0.015662 0.000135)
(-0.046884 0.037920 0.000135)
(-0.054611 0.050744 0.000135)
(-0.060261 0.064193 0.000134)
(-0.022511 0.025131 0.000134)
(0.002606 0.005324 0.000134)
(-0.017093 0.041160 0.000134)
(-0.013998 0.034706 0.000134)
(-0.008867 0.022800 0.000135)
(-0.008293 0.023875 0.000318)
(-0.008452 0.029184 0.000516)
(-0.009383 0.037404 0.000547)
(-0.008267 0.037914 0.000581)
(-0.007120 0.037631 0.000618)
(-0.007447 0.045712 0.000657)
(-0.007362 0.053021 0.000698)
(-0.006750 0.059344 0.001206)
(-0.006154 0.067603 0.001825)
(-0.005230 0.080441 0.002092)
(-0.003955 0.101568 0.002355)
(-0.001474 0.111066 0.002595)
(0.002973 0.146708 0.002692)
(0.008043 0.172151 0.001916)
(0.012919 0.168081 0.000948)
(0.018107 0.178742 0.000578)
(0.022907 0.184849 0.000291)
(0.027531 0.190942 0.000079)
(0.031862 0.196409 -0.000070)
(0.035788 0.200708 -0.000148)
(0.039238 0.203780 -0.000166)
(0.042107 0.205239 -0.000166)
(0.044337 0.204993 -0.000166)
(0.045891 0.202934 -0.000166)
(0.046698 0.198847 -0.000166)
(0.046666 0.192382 -0.000161)
(0.045904 0.184030 -0.000156)
(0.044599 0.174498 -0.000156)
(0.042754 0.163717 -0.000156)
(0.040055 0.150488 -0.000156)
(0.036544 0.134962 -0.000156)
(0.033365 0.121707 -0.000156)
(0.032323 0.117077 -0.000127)
(0.029411 0.106099 -0.000097)
(0.017573 0.062775 -0.000097)
(0.020256 0.080694 -0.000097)
(0.038127 0.154153 -0.000097)
(-0.007110 -0.071534 -0.000097)
(-0.005896 0.026933 -0.000110)
(-0.008936 0.026151 -0.000097)
(-0.010103 0.029727 -0.000097)
(-0.010421 0.030367 -0.000097)
(-0.009610 0.029198 -0.000097)
(-0.008374 0.027583 -0.000097)
(-0.006865 0.023355 -0.000127)
(-0.004528 0.017313 -0.000156)
(-0.005983 0.022988 -0.000156)
(-0.007383 0.027507 -0.000156)
(-0.006424 0.023931 -0.000156)
(-0.006193 0.023185 -0.000156)
(-0.006899 0.026051 -0.000161)
(-0.007750 0.030023 -0.000166)
(-0.008522 0.034468 -0.000166)
(-0.009227 0.039667 -0.000166)
(-0.009801 0.045534 -0.000166)
(-0.010132 0.051682 -0.000166)
(-0.010136 0.057767 0.000016)
(-0.009729 0.063278 0.000202)
(-0.008971 0.068679 0.000204)
(-0.007857 0.073743 0.000192)
(-0.006405 0.079016 0.000163)
(-0.004583 0.083667 0.000114)
(-0.002383 0.078736 0.000047)
(0.000098 0.097980 -0.000267)
(0.001524 0.084719 -0.000556)
(0.002644 0.054401 -0.000568)
(0.003488 0.052990 -0.000563)
(0.003991 0.045354 -0.000548)
(0.004666 0.043303 -0.000527)
(0.005101 0.038436 -0.000116)
(0.005372 0.034424 0.000284)
(0.006732 0.036276 0.000287)
(0.005472 0.027328 0.000292)
(0.003915 0.017308 0.000296)
(0.009222 0.033091 0.000301)
(0.008019 0.026737 0.000183)
(0.005371 0.014448 0.000066)
(0.006847 0.016141 0.000075)
(0.006832 0.012928 0.000083)
(0.003647 0.004821 0.000091)
(0.000491 -0.003749 0.000098)
(-0.001981 -0.008026 0.000104)
(0.002026 -0.003846 0.000110)
(0.012588 0.008009 0.000115)
(0.015863 0.014764 0.000120)
(0.010048 0.012703 0.000124)
(0.006687 0.000459 0.000128)
(0.018096 -0.005587 0.000131)
(-0.020136 -0.075018 -0.000110)
(0.014851 0.184731 -0.000122)
(0.007225 0.163398 -0.000122)
(0.003088 0.124020 -0.000122)
(0.004501 0.170879 -0.000122)
(0.007779 0.252570 -0.000122)
(0.009699 0.286194 -0.000122)
(0.011301 0.338210 -0.000122)
(0.015017 0.467113 -0.000122)
(0.018701 0.600141 -0.000122)
(0.019953 0.653102 -0.000122)
(0.027859 0.935772 -0.000122)
(0.093024 2.491038 -0.000085)
(0.117895 4.505228 -0.000048)
(-11.576219 -5.271614 -0.000048)
(109.680373 -164.792189 -0.000048)
(-9.593213 -7.027105 -0.000048)
(-1.008312 -3.531497 -0.000048)
(-7.239443 -5.628480 -0.000048)
(-95.863256 138.904239 -0.000048)
(2.416853 72.238295 -0.000048)
(3.735632 28.494977 -0.000048)
(1.991310 13.091594 -0.000048)
(0.790235 3.918746 -0.000025)
(0.277375 1.248890 -0.000003)
(0.193750 0.621203 -0.000003)
(-0.745833 -1.549620 -0.000003)
(-0.952874 -1.875868 -0.000003)
(0.466337 0.872882 -0.000003)
(1.290799 1.809603 -0.000003)
(4.053919 5.737633 -0.000003)
(9.589128 12.824585 -0.000003)
(17.404271 21.166581 -0.000003)
(21.085557 23.719370 -0.000003)
(30.512838 30.156582 -0.000003)
(27.316879 24.555811 -0.000003)
(16.638411 10.680811 -0.000003)
(-31.290058 -20.749008 -0.000003)
(-103.482222 -62.822783 -0.000003)
(-107.710186 -59.119106 -0.000003)
(-62.946007 -28.568243 -0.000003)
(4.758724 1.580404 -0.000003)
(32.258419 9.584480 -0.000003)
(28.119943 7.032401 -0.000003)
(32.966786 8.453334 -0.000003)
(29.664389 6.592949 -0.000003)
(21.109653 4.084625 -0.000003)
(4.466059 -0.267401 -0.000003)
(-1.359632 -2.097999 -0.000003)
(3.192778 -1.272775 -0.000003)
(4.662759 -1.431762 -0.000003)
(4.380001 -1.719426 -0.000003)
(1.832798 -0.701337 -0.000003)
(-1.288250 0.200351 -0.000003)
(-0.332277 0.487917 -0.000003)
(0.516195 0.424818 -0.000003)
(0.446577 0.375505 -0.000003)
(0.281764 0.265378 -0.000003)
(0.232342 0.136398 -0.000003)
(0.183130 0.056932 -0.000003)
(0.114467 0.028208 -0.000003)
(0.050177 0.025928 -0.000003)
(0.007269 0.027041 -0.000003)
(-0.011720 0.025675 -0.000003)
(-0.018981 0.023378 -0.000003)
(-0.019413 0.020767 -0.000003)
(-0.015636 0.017080 -0.000003)
(-0.011249 0.012964 -0.000003)
(-0.007413 0.008454 -0.000003)
(-0.004652 0.004398 -0.000003)
(-0.002763 0.001066 -0.000003)
(-0.001369 -0.001723 -0.000003)
(-0.000605 -0.003519 -0.000003)
(-0.000127 -0.003818 -0.000025)
(-0.000140 -0.003107 -0.000048)
(0.000592 -0.008583 -0.000048)
(0.001438 -0.011670 -0.000048)
(0.000727 -0.007701 -0.000048)
(-59.770042 -0.001926 -0.000048)
(59.772462 0.001260 -0.000048)
(0.001467 0.003005 -0.000048)
(0.000666 0.019507 -0.000048)
(0.067483 -0.291136 -0.000048)
(0.062170 -0.222738 -0.000048)
(-0.007097 0.120283 -0.000048)
(-0.003057 0.048213 -0.000085)
(-0.000822 0.009606 -0.000122)
(-0.000064 -0.001170 -0.000122)
(-0.000513 0.013016 -0.000122)
(-0.000566 0.020577 -0.000122)
(-0.000447 0.019621 -0.000122)
(-0.000581 0.019675 -0.000122)
(-0.000747 0.020222 -0.000122)
(-0.000700 0.020955 -0.000122)
(-0.000583 0.021208 -0.000122)
(-0.000388 0.020360 -0.000122)
(-0.000459 0.020971 -0.000122)
(-0.002595 0.027071 -0.000122)
)
;
    }
}
