/*--------------------------------*- C++ -*---------------------------------*\ 
| ========                 |                                                 | 
| \      /  F ield         | OpenFOAM: The Open Source CFD Toolbox           | 
|  \    /   O peration     | Version:  v1812                                 | 
|   \  /    A nd           | Web:      www.OpenFOAM.com                      | 
|    \/     M anipulation  |                                                 | 
\*--------------------------------------------------------------------------*/ 
FoamFile
{
    version     2.0;
    format      ascii;
    class       volVectorField;
    location    "/home/james/dafoam/myRuns/bezier_coanda_opt/0.00000000001/";
    object      sens_CL_shapey;
}
// * * * * * * * * * * * * * * * * * * * * * * * * * * * * * * * * * * * * * //

dimensions      [0 0 0 0 0 0 0];
internalField   uniform (0 0 0);
boundaryField
{
    allWalls
    {
        type  wall;
        value nonuniform List<vector>
198
(
(0.000269 0.000291 0.000115)
(0.000018 0.000294 0.000116)
(-0.001392 0.002251 0.000115)
(-0.011969 0.008621 0.000115)
(-0.024976 0.018432 0.000114)
(-0.029705 0.024431 0.000113)
(-0.029853 0.027431 0.000112)
(-0.032550 0.033196 0.000111)
(-0.025921 0.029156 0.000110)
(-0.005823 0.007554 0.000108)
(-0.003130 0.008738 0.000107)
(-0.017130 0.033429 0.000106)
(-0.017275 0.036010 0.000378)
(-0.013489 0.032354 0.000669)
(-0.012815 0.034959 0.000709)
(-0.010493 0.032372 0.000755)
(-0.010437 0.036565 0.000808)
(-0.011696 0.046350 0.000867)
(-0.011782 0.053714 0.000932)
(-0.011118 0.058633 0.001549)
(-0.009335 0.058354 0.002316)
(-0.007982 0.062601 0.002693)
(-0.009272 0.104936 0.003077)
(-0.008569 0.148075 0.003442)
(-0.002661 0.152710 0.003625)
(0.005279 0.164795 0.002799)
(0.013938 0.184738 0.001646)
(0.023358 0.199852 0.001069)
(0.033463 0.215395 0.000606)
(0.044136 0.230395 0.000251)
(0.055181 0.245457 -0.000009)
(0.065887 0.257971 -0.000123)
(0.075841 0.267788 -0.000128)
(0.084396 0.273620 -0.000128)
(0.091072 0.274944 -0.000128)
(0.094912 0.269788 -0.000128)
(0.095429 0.257541 -0.000128)
(0.092440 0.238507 -0.000208)
(0.086118 0.213490 -0.000281)
(0.077211 0.184519 -0.000269)
(0.066030 0.152497 -0.000257)
(0.053499 0.119691 -0.000247)
(0.041049 0.089318 -0.000237)
(0.029075 0.061699 -0.000228)
(0.017829 0.036410 -0.000220)
(0.009368 0.019333 -0.000213)
(0.002339 0.005476 -0.000206)
(-0.007017 -0.013434 -0.000200)
(-0.008506 -0.013862 -0.000194)
(-0.006438 -0.023466 -0.000189)
(0.004754 -0.028461 -0.000174)
(-0.003511 0.010146 -0.000183)
(-0.004435 0.007455 -0.000178)
(-0.002701 0.003648 -0.000172)
(-0.004657 0.010043 -0.000165)
(-0.009097 0.019450 -0.000158)
(-0.014781 0.031642 -0.000149)
(-0.022263 0.048007 -0.000140)
(-0.032400 0.072169 -0.000130)
(-0.045458 0.108293 -0.000119)
(-0.049900 0.125358 -0.000107)
(-0.046766 0.132253 -0.000094)
(-0.004337 0.051588 -0.000108)
(0.050558 -0.112942 -0.000128)
(0.050813 -0.156747 -0.000128)
(0.032512 -0.116132 -0.000128)
(0.023848 -0.098430 -0.000128)
(0.016845 -0.079033 -0.000128)
(0.008190 -0.046990 0.000087)
(0.000736 -0.013201 0.000335)
(-0.004210 0.016341 0.000399)
(-0.006698 0.039800 0.000453)
(-0.007182 0.059929 0.000493)
(-0.005991 0.078450 0.000512)
(-0.003135 0.079858 0.000489)
(0.000867 0.109330 0.000124)
(0.003124 0.102987 -0.000264)
(0.004799 0.067267 -0.000345)
(0.004502 0.050207 -0.000394)
(0.005772 0.044812 -0.000420)
(0.008186 0.053439 -0.000431)
(0.008274 0.044738 -0.000053)
(0.007319 0.034984 0.000332)
(0.008793 0.034912 0.000346)
(0.012658 0.044717 0.000359)
(0.008873 0.029126 0.000373)
(0.006782 0.020527 0.000387)
(0.006500 0.018543 0.000232)
(0.006651 0.016212 0.000073)
(0.008214 0.016560 0.000079)
(0.006237 0.006349 0.000083)
(0.003713 -0.003361 0.000088)
(-0.000830 -0.011628 0.000092)
(0.002687 -0.006892 0.000096)
(0.015514 0.008540 0.000100)
(0.020926 0.019388 0.000103)
(0.011250 0.020664 0.000106)
(-0.000298 0.009928 0.000109)
(-0.001031 0.001187 0.000112)
(0.001981 0.000601 0.000113)
(-0.003674 -0.027867 -0.000175)
(0.001006 0.001073 -0.000162)
(0.000994 0.027234 -0.000162)
(0.001412 0.055502 -0.000162)
(0.002687 0.088300 -0.000162)
(0.004037 0.117870 -0.000162)
(0.005089 0.150555 -0.000162)
(0.006703 0.205345 -0.000162)
(0.009260 0.295101 -0.000162)
(0.011947 0.399344 -0.000162)
(0.013230 0.446777 -0.000162)
(0.019134 0.645276 -0.000162)
(0.072051 1.910877 -0.000112)
(0.078879 3.741539 -0.000061)
(-13.453311 -10.276670 -0.000061)
(56.256630 -134.985253 -0.000061)
(-10.545696 -6.413488 -0.000061)
(0.862405 -2.459809 -0.000061)
(-7.584120 -10.319119 -0.000061)
(-44.414168 120.668701 -0.000061)
(1.764430 53.944730 -0.000061)
(2.980062 21.131091 -0.000061)
(1.763224 10.491729 -0.000061)
(0.673558 3.421276 -0.000062)
(0.359777 1.474613 -0.000031)
(0.307351 1.192167 -0.000001)
(-0.550633 -1.239954 -0.000001)
(-0.837171 -1.913909 -0.000001)
(-0.773116 -1.583401 -0.000001)
(-0.578290 -1.258669 -0.000001)
(-0.445705 -0.771418 -0.000001)
(0.050539 0.021838 -0.000001)
(1.177797 1.561660 -0.000001)
(3.936352 4.206051 -0.000001)
(9.505217 9.188422 -0.000001)
(15.217370 14.121303 -0.000001)
(21.533268 17.409789 -0.000001)
(32.260584 22.558503 -0.000001)
(46.833290 29.017383 -0.000001)
(30.154925 15.004389 -0.000001)
(-53.833976 -28.764111 -0.000001)
(-94.555569 -41.979632 -0.000001)
(-76.805917 -25.653840 -0.000001)
(-53.403847 -13.812442 -0.000001)
(-15.291908 -1.313910 -0.000001)
(17.945412 3.620386 -0.000001)
(28.765148 3.737976 -0.000001)
(22.582743 1.475619 -0.000001)
(23.879511 0.486636 -0.000001)
(18.527712 -1.401413 -0.000001)
(8.930094 -2.073297 -0.000001)
(-0.421654 -1.934286 -0.000001)
(-0.952415 -1.653208 -0.000001)
(3.605147 -1.851902 -0.000001)
(2.015773 -1.842957 -0.000001)
(1.303859 -1.680571 -0.000001)
(1.357913 -1.321922 -0.000001)
(-0.805832 0.057250 -0.000001)
(-0.136793 0.250964 -0.000001)
(0.510117 0.053432 -0.000001)
(0.560826 -0.045618 -0.000001)
(0.443978 -0.080758 -0.000001)
(0.321391 -0.081621 -0.000001)
(0.268106 -0.113802 -0.000001)
(0.244467 -0.147909 -0.000001)
(0.133683 -0.073254 -0.000001)
(0.037041 0.005747 -0.000001)
(0.003873 0.024386 -0.000001)
(-0.012067 0.032597 -0.000001)
(-0.022618 0.042605 -0.000001)
(-0.024820 0.045665 -0.000001)
(-0.022088 0.042977 -0.000001)
(-0.017751 0.037349 -0.000001)
(-0.013080 0.030183 -0.000000)
(-0.008628 0.022488 -0.000031)
(-0.005452 0.014699 -0.000061)
(-0.003637 0.008236 -0.000061)
(-0.003072 0.004555 -0.000061)
(-59.775136 0.002782 -0.000061)
(59.772772 0.000585 -0.000061)
(0.000069 0.000404 -0.000061)
(-0.001021 -0.000971 -0.000061)
(-0.026641 0.101007 -0.000061)
(-0.029217 0.139621 -0.000061)
(-0.006638 0.063983 -0.000061)
(-0.005775 0.047311 -0.000112)
(-0.004636 0.036718 -0.000162)
(-0.003042 0.029368 -0.000162)
(-0.002099 0.024705 -0.000162)
(-0.001455 0.020760 -0.000162)
(-0.000997 0.017038 -0.000162)
(-0.000754 0.014393 -0.000162)
(-0.000612 0.013846 -0.000162)
(-0.000293 0.008421 -0.000162)
(-0.000064 0.003517 -0.000162)
(-0.000173 0.009112 -0.000162)
(0.000295 0.012760 -0.000162)
(0.005536 -0.025982 -0.000162)
)
;
    }
}
