/*--------------------------------*- C++ -*----------------------------------*\
  =========                 |
  \\      /  F ield         | OpenFOAM: The Open Source CFD Toolbox
   \\    /   O peration     | Website:  https://openfoam.org
    \\  /    A nd           | Version:  8
     \\/     M anipulation  |
\*---------------------------------------------------------------------------*/
FoamFile
{
    version     2.0;
    format      ascii;
    class       volScalarField;
    location    "4.7";
    object      p;
}
// * * * * * * * * * * * * * * * * * * * * * * * * * * * * * * * * * * * * * //

dimensions      [0 2 -2 0 0 0 0];

internalField   nonuniform List<scalar> 
127200
(
-0.0117383
-0.0118047
-0.0118646
-0.0119179
-0.0119639
-0.0120019
-0.0120315
-0.0120521
-0.0120631
-0.0120642
-0.0120549
-0.0120348
-0.0120037
-0.0119612
-0.0119071
-0.0118413
-0.0117637
-0.011674
-0.0115724
-0.0114588
-0.0113332
-0.0111958
-0.0110466
-0.0108857
-0.0107134
-0.0105299
-0.0103354
-0.01013
-0.00991426
-0.00968829
-0.00945247
-0.00920711
-0.00895261
-0.00868933
-0.00841768
-0.00813801
-0.00785075
-0.00755633
-0.00725524
-0.006948
-0.00663514
-0.00631695
-0.00599367
-0.00566566
-0.00533342
-0.00499737
-0.00465801
-0.00431577
-0.00397111
-0.00362447
-0.00327632
-0.00292708
-0.00257721
-0.00222713
-0.00187729
-0.0015281
-0.00118001
-0.000833411
-0.000488742
-0.000146395
0.000193216
0.000529705
0.000862677
0.00119176
0.00151656
0.00183673
0.0021519
0.00246173
0.00276586
0.00306397
0.00335573
0.00364081
0.00391892
0.00418975
0.00445301
0.00470843
0.00495573
0.00519466
0.00542495
0.00564638
0.0058587
0.00606171
0.00625519
0.00643894
0.00661278
0.00677652
0.00693001
0.00707308
0.0072056
0.00732742
0.00743843
0.00753852
0.00762759
0.00770554
0.00777231
0.00782782
0.00787203
0.00790489
0.00792636
0.0079364
-0.0116213
-0.0116818
-0.0117364
-0.0117846
-0.0118255
-0.0118583
-0.0118824
-0.0118971
-0.0119021
-0.0118967
-0.0118807
-0.0118537
-0.0118153
-0.0117654
-0.0117036
-0.0116299
-0.0115442
-0.0114464
-0.0113366
-0.0112148
-0.0110812
-0.0109357
-0.0107787
-0.0106103
-0.0104307
-0.0102402
-0.010039
-0.00982755
-0.00960609
-0.00937502
-0.00913472
-0.00888556
-0.00862792
-0.00836225
-0.00808898
-0.00780824
-0.00752016
-0.00722512
-0.00692366
-0.00661623
-0.00630331
-0.00598549
-0.00566336
-0.00533734
-0.00500781
-0.00467514
-0.00433976
-0.00400206
-0.00366248
-0.00332141
-0.00297929
-0.00263653
-0.00229353
-0.00195072
-0.00160849
-0.00126724
-0.000927382
-0.000589291
-0.000253364
8.00283e-05
0.000410502
0.000737697
0.00106124
0.0013808
0.001696
0.00200651
0.00231201
0.00261215
0.00290663
0.00319514
0.00347736
0.00375302
0.00402182
0.00428348
0.00453774
0.00478433
0.00502301
0.00525354
0.00547568
0.00568921
0.00589391
0.00608959
0.00627604
0.00645308
0.00662055
0.00677826
0.00692607
0.00706383
0.00719141
0.00730867
0.00741552
0.00751184
0.00759754
0.00767253
0.00773675
0.00779012
0.00783261
0.00786417
0.00788475
0.00789433
-0.0114191
-0.0114571
-0.0114888
-0.0115137
-0.0115311
-0.0115401
-0.0115404
-0.0115315
-0.0115129
-0.0114842
-0.0114452
-0.0113956
-0.0113354
-0.0112643
-0.0111823
-0.0110895
-0.0109857
-0.0108712
-0.0107458
-0.0106099
-0.0104634
-0.0103066
-0.0101396
-0.00996263
-0.00977599
-0.00957989
-0.00937464
-0.0091605
-0.00893783
-0.00870699
-0.00846814
-0.00822112
-0.00796614
-0.00770363
-0.00743406
-0.00715803
-0.00687624
-0.00658904
-0.00629672
-0.00599955
-0.00569788
-0.00539203
-0.0050824
-0.00476935
-0.00445327
-0.00413454
-0.00381355
-0.00349066
-0.00316628
-0.00284077
-0.00251453
-0.00218791
-0.00186131
-0.00153509
-0.00120963
-0.000885291
-0.000562439
-0.000241426
7.73868e-05
0.000393657
0.000707033
0.00101718
0.00132376
0.00162646
0.00192494
0.0022189
0.00250801
0.002792
0.00307055
0.00334339
0.00361022
0.00387079
0.00412482
0.00437205
0.00461225
0.00484516
0.00507056
0.00528822
0.00549793
0.00569947
0.00589266
0.0060773
0.0062532
0.00642021
0.00657815
0.00672688
0.00686625
0.00699612
0.00711637
0.00722689
0.00732757
0.00741831
0.00749903
0.00756964
0.00763009
0.00768031
0.00772026
0.00774991
0.00776922
0.00777818
-0.0110675
-0.0110806
-0.0110878
-0.0110885
-0.0110823
-0.0110686
-0.0110471
-0.0110173
-0.0109789
-0.0109316
-0.0108751
-0.0108094
-0.0107342
-0.0106496
-0.0105554
-0.0104517
-0.0103385
-0.0102159
-0.0100838
-0.00994238
-0.00979178
-0.0096321
-0.0094635
-0.00928615
-0.00910026
-0.00890603
-0.0087037
-0.00849326
-0.0082748
-0.00804854
-0.00781497
-0.00757479
-0.00732845
-0.00707601
-0.00681767
-0.00655365
-0.00628428
-0.00600989
-0.00573084
-0.00544745
-0.00516009
-0.00486911
-0.00457486
-0.00427767
-0.0039779
-0.00367589
-0.00337199
-0.00306653
-0.00275987
-0.00245235
-0.00214432
-0.00183612
-0.0015281
-0.0012206
-0.000913945
-0.000608477
-0.000304535
-2.43661e-06
0.000297485
0.000594918
0.000889538
0.00118104
0.00146912
0.00175347
0.0020338
0.00230982
0.00258125
0.0028478
0.00310922
0.00336522
0.00361557
0.00385999
0.00409826
0.00433013
0.00455537
0.00477377
0.0049851
0.00518916
0.00538576
0.00557469
0.00575578
0.00592885
0.00609374
0.00625028
0.00639833
0.00653774
0.00666839
0.00679014
0.00690289
0.00700652
0.00710094
0.00718606
0.0072618
0.00732808
0.00738485
0.00743205
0.00746964
0.00749758
0.00751583
0.00752436
-0.0106625
-0.0106567
-0.0106449
-0.010627
-0.0106026
-0.0105714
-0.0105332
-0.0104877
-0.0104348
-0.0103741
-0.0103056
-0.0102291
-0.0101446
-0.0100519
-0.00995098
-0.00984186
-0.00972452
-0.00959895
-0.00946522
-0.00932336
-0.00917348
-0.00901564
-0.00884997
-0.00867659
-0.00849564
-0.0083072
-0.00811147
-0.00790878
-0.00769947
-0.00748365
-0.00726147
-0.00703318
-0.00679907
-0.0065594
-0.00631448
-0.00606459
-0.00581004
-0.00555109
-0.00528806
-0.00502121
-0.00475086
-0.00447729
-0.00420084
-0.0039218
-0.00364048
-0.0033572
-0.00307229
-0.00278603
-0.00249877
-0.00221081
-0.00192248
-0.00163407
-0.00134592
-0.00105832
-0.000771592
-0.000486037
-0.000201968
8.03239e-05
0.000360531
0.000638368
0.000913535
0.00118575
0.00145474
0.00172021
0.0019819
0.00223954
0.00249287
0.00274163
0.00298557
0.00322444
0.00345802
0.00368606
0.00390834
0.00412464
0.00433474
0.00453845
0.00473556
0.00492589
0.00510924
0.00528543
0.00545431
0.00561571
0.00576946
0.00591543
0.00605348
0.00618348
0.00630529
0.00641881
0.00652393
0.00662055
0.00670858
0.00678793
0.00685853
0.00692032
0.00697323
0.00701722
0.00705225
0.00707827
0.00709528
0.00710322
-0.0102461
-0.0102267
-0.010202
-0.0101718
-0.010136
-0.0100941
-0.0100462
-0.0099919
-0.00993106
-0.00986349
-0.00978905
-0.00970759
-0.00961902
-0.00952324
-0.00942021
-0.00930988
-0.00919224
-0.00906728
-0.00893504
-0.00879556
-0.0086489
-0.00849513
-0.00833437
-0.00816673
-0.00799236
-0.0078114
-0.00762401
-0.00743034
-0.00723062
-0.00702506
-0.0068139
-0.00659737
-0.00637571
-0.00614911
-0.00591785
-0.00568213
-0.00544224
-0.00519842
-0.00495094
-0.00470007
-0.00444608
-0.00418925
-0.00392987
-0.00366821
-0.00340457
-0.00313921
-0.00287244
-0.00260453
-0.00233579
-0.00206648
-0.00179692
-0.00152737
-0.00125814
-0.000989494
-0.000721731
-0.000455122
-0.000189955
7.35023e-05
0.000334967
0.000594176
0.000850856
0.00110475
0.00135559
0.00160313
0.00184712
0.0020873
0.00232344
0.0025553
0.00278265
0.00300526
0.00322292
0.0034354
0.0036425
0.00384402
0.00403976
0.00422952
0.00441313
0.00459041
0.00476118
0.00492529
0.00508256
0.00523287
0.00537605
0.00551197
0.00564052
0.00576155
0.00587496
0.00598064
0.00607849
0.00616842
0.00625035
0.00632419
0.00638987
0.00644734
0.00649655
0.00653743
0.00656997
0.00659411
0.00660985
0.00661716
-0.00985894
-0.00982935
-0.00979529
-0.00975629
-0.00971212
-0.00966256
-0.00960744
-0.00954656
-0.00947978
-0.00940694
-0.00932794
-0.00924266
-0.00915104
-0.009053
-0.0089485
-0.00883751
-0.00872004
-0.00859607
-0.00846566
-0.00832881
-0.00818562
-0.00803614
-0.0078805
-0.00771876
-0.00755105
-0.00737748
-0.00719822
-0.00701342
-0.00682326
-0.00662789
-0.00642753
-0.00622234
-0.00601255
-0.00579835
-0.00557997
-0.00535762
-0.00513155
-0.00490197
-0.00466914
-0.00443328
-0.00419467
-0.00395352
-0.00371012
-0.00346471
-0.00321755
-0.00296889
-0.00271902
-0.00246818
-0.00221664
-0.00196466
-0.00171251
-0.00146045
-0.00120875
-0.000957665
-0.000707459
-0.000458384
-0.000210707
3.53273e-05
0.000279458
0.000521445
0.000761034
0.000997989
0.00123206
0.00146303
0.00169065
0.0019147
0.00213496
0.0023512
0.00256322
0.00277081
0.00297375
0.00317186
0.00336493
0.00355279
0.00373525
0.00391213
0.00408326
0.00424848
0.00440763
0.00456056
0.00470712
0.00484718
0.00498059
0.00510724
0.005227
0.00533976
0.00544541
0.00554386
0.00563502
0.00571878
0.00579509
0.00586386
0.00592503
0.00597855
0.00602436
0.00606242
0.0060927
0.00611516
0.00612979
0.00613656
-0.00950439
-0.00946616
-0.00942404
-0.00937746
-0.00932621
-0.00927009
-0.00920898
-0.0091427
-0.00907115
-0.00899419
-0.00891175
-0.0088237
-0.00873002
-0.00863061
-0.00852548
-0.00841455
-0.00829787
-0.0081754
-0.00804719
-0.00791326
-0.0077737
-0.00762853
-0.00747785
-0.00732173
-0.0071603
-0.00699364
-0.00682192
-0.00664525
-0.00646379
-0.0062777
-0.00608715
-0.0058923
-0.00569335
-0.00549048
-0.00528389
-0.00507377
-0.00486035
-0.00464381
-0.00442439
-0.0042023
-0.00397777
-0.00375103
-0.00352231
-0.00329183
-0.00305985
-0.00282659
-0.00259229
-0.0023572
-0.00212156
-0.0018856
-0.00164957
-0.00141371
-0.00117826
-0.000943457
-0.000709548
-0.000476759
-0.000245337
-1.55037e-05
0.000212499
0.000438452
0.00066212
0.000883288
0.00110173
0.00131723
0.00152958
0.00173857
0.00194399
0.00214564
0.00234333
0.00253686
0.00272604
0.00291069
0.00309064
0.00326571
0.00343573
0.00360054
0.00375998
0.0039139
0.00406216
0.00420461
0.00434112
0.00447156
0.00459581
0.00471375
0.00482527
0.00493027
0.00502864
0.0051203
0.00520516
0.00528314
0.00535417
0.00541818
0.00547511
0.00552492
0.00556754
0.00560295
0.00563111
0.00565199
0.00566558
0.00567185
-0.00917513
-0.00912982
-0.00908105
-0.00902826
-0.00897123
-0.00890979
-0.00884385
-0.00877325
-0.00869792
-0.00861774
-0.00853264
-0.00844253
-0.00834738
-0.00824711
-0.00814174
-0.00803121
-0.00791554
-0.00779472
-0.00766881
-0.0075378
-0.00740178
-0.00726077
-0.00711487
-0.00696414
-0.00680869
-0.0066486
-0.00648401
-0.00631503
-0.00614181
-0.00596446
-0.00578316
-0.00559804
-0.0054093
-0.00521706
-0.00502155
-0.0048229
-0.00462134
-0.00441704
-0.0042102
-0.00400101
-0.0037897
-0.00357645
-0.00336149
-0.00314502
-0.00292726
-0.00270843
-0.00248874
-0.0022684
-0.00204766
-0.00182671
-0.00160579
-0.0013851
-0.00116489
-0.00094535
-0.000726717
-0.000509196
-0.000293012
-7.83707e-05
0.000134508
0.000345422
0.000554158
0.000760517
0.00096429
0.00116529
0.0013633
0.00155816
0.00174965
0.0019376
0.00212183
0.00230217
0.00247843
0.00265045
0.00281806
0.00298112
0.00313945
0.00329292
0.00344137
0.00358468
0.0037227
0.0038553
0.00398236
0.00410376
0.0042194
0.00432915
0.00443292
0.00453062
0.00462215
0.00470742
0.00478636
0.0048589
0.00492497
0.0049845
0.00503745
0.00508376
0.0051234
0.00515631
0.00518248
0.00520188
0.00521449
0.00522029
-0.00886912
-0.00881808
-0.00876394
-0.00870615
-0.00864448
-0.0085788
-0.00850906
-0.0084351
-0.00835689
-0.00827431
-0.00818732
-0.00809584
-0.00799985
-0.00789929
-0.00779417
-0.00768445
-0.00757015
-0.00745127
-0.00732785
-0.0071999
-0.00706748
-0.00693063
-0.00678944
-0.00664395
-0.00649428
-0.0063405
-0.00618273
-0.00602106
-0.00585564
-0.00568656
-0.00551399
-0.00533805
-0.00515891
-0.00497669
-0.00479157
-0.00460371
-0.00441329
-0.00422047
-0.00402544
-0.00382836
-0.00362944
-0.00342885
-0.00322679
-0.00302345
-0.00281903
-0.00261371
-0.00240772
-0.00220122
-0.00199445
-0.00178758
-0.00158082
-0.00137438
-0.00116845
-0.000963235
-0.000758936
-0.000555742
-0.000353861
-0.000153479
4.52018e-05
0.000241998
0.000436712
0.000629164
0.000819162
0.00100653
0.00119109
0.00137266
0.00155107
0.00172615
0.00189773
0.00206566
0.00222977
0.00238992
0.00254594
0.0026977
0.00284504
0.00298785
0.00312597
0.00325929
0.00338767
0.00351101
0.00362919
0.00374209
0.00384961
0.00395166
0.00404815
0.00413897
0.00422405
0.00430332
0.00437669
0.00444411
0.00450551
0.00456083
0.00461003
0.00465305
0.00468986
0.00472043
0.00474473
0.00476273
0.00477442
0.00477979
-0.00858481
-0.00852914
-0.0084707
-0.00840893
-0.00834361
-0.00827463
-0.00820196
-0.00812548
-0.00804516
-0.0079609
-0.00787269
-0.00778044
-0.00768416
-0.00758378
-0.00747934
-0.00737079
-0.00725816
-0.00714145
-0.0070207
-0.00689593
-0.00676719
-0.00663452
-0.00649801
-0.00635768
-0.00621366
-0.00606599
-0.00591481
-0.00576018
-0.00560223
-0.00544106
-0.00527682
-0.00510961
-0.00493958
-0.00476686
-0.0045916
-0.00441393
-0.00423404
-0.00405205
-0.00386815
-0.00368248
-0.00349524
-0.00330656
-0.00311664
-0.00292565
-0.00273377
-0.00254117
-0.00234804
-0.00215454
-0.00196089
-0.00176724
-0.00157379
-0.00138071
-0.00118819
-0.000996413
-0.000805564
-0.000615813
-0.000427352
-0.000240348
-5.49881e-05
0.000128563
0.000310122
0.000489528
0.000666603
0.000841189
0.00101311
0.00118223
0.00134836
0.00151136
0.00167108
0.00182738
0.00198009
0.00212909
0.00227423
0.00241539
0.00255242
0.00268522
0.00281365
0.00293759
0.00305694
0.00317158
0.00328141
0.00338633
0.00348625
0.00358106
0.0036707
0.00375508
0.00383411
0.00390774
0.00397588
0.00403849
0.00409551
0.00414687
0.00419254
0.00423248
0.00426665
0.00429502
0.00431756
0.00433425
0.00434508
0.00435003
-0.00832128
-0.00826191
-0.00820008
-0.00813521
-0.0080671
-0.00799564
-0.00792083
-0.00784257
-0.00776084
-0.00767555
-0.00758671
-0.00749425
-0.00739818
-0.00729844
-0.00719507
-0.00708803
-0.00697737
-0.00686307
-0.00674518
-0.00662371
-0.00649874
-0.00637027
-0.0062384
-0.00610316
-0.00596466
-0.00582294
-0.00567811
-0.00553025
-0.00537948
-0.00522587
-0.00506956
-0.00491065
-0.00474928
-0.00458554
-0.00441961
-0.00425158
-0.00408162
-0.00390985
-0.00373644
-0.00356151
-0.00338524
-0.00320777
-0.00302926
-0.00284986
-0.00266975
-0.00248908
-0.00230802
-0.00212672
-0.00194537
-0.00176411
-0.00158313
-0.00140257
-0.00122262
-0.00104344
-0.000865189
-0.000688032
-0.000512141
-0.000337667
-0.000164782
6.36491e-06
0.000175606
0.000342794
0.000507767
0.000670381
0.00083048
0.000987923
0.00114256
0.00129426
0.00144287
0.00158826
0.0017303
0.00186886
0.00200382
0.00213505
0.00226243
0.00238585
0.00250519
0.00262036
0.00273124
0.00283774
0.00293975
0.0030372
0.00312999
0.00321804
0.00330126
0.0033796
0.00345297
0.00352131
0.00358456
0.00364266
0.00369557
0.00374323
0.0037856
0.00382265
0.00385434
0.00388064
0.00390154
0.003917
0.00392703
0.0039316
-0.00807752
-0.00801527
-0.00795084
-0.00788365
-0.00781347
-0.00774025
-0.00766396
-0.00758455
-0.00750201
-0.00741625
-0.0073273
-0.0072351
-0.00713966
-0.00704094
-0.00693897
-0.00683374
-0.00672528
-0.00661358
-0.0064987
-0.00638064
-0.00625948
-0.00613522
-0.00600796
-0.00587773
-0.00574461
-0.00560866
-0.00546999
-0.00532864
-0.00518474
-0.00503836
-0.00488962
-0.00473861
-0.00458545
-0.00443024
-0.00427313
-0.0041142
-0.00395362
-0.00379148
-0.00362794
-0.00346312
-0.00329718
-0.00313022
-0.00296243
-0.00279391
-0.00262485
-0.00245536
-0.00228561
-0.00211573
-0.0019459
-0.00177624
-0.00160693
-0.00143809
-0.0012699
-0.00110249
-0.000936024
-0.000770642
-0.000606502
-0.000443741
-0.000282517
-0.000122964
3.47645e-05
0.000190535
0.0003442
0.000495628
0.000644676
0.000791217
0.000935114
0.00107624
0.00121447
0.00134969
0.00148175
0.00161057
0.001736
0.00185796
0.00197632
0.00209098
0.00220184
0.0023088
0.00241177
0.00251066
0.00260538
0.00269584
0.00278197
0.00286369
0.00294093
0.00301362
0.00308169
0.0031451
0.00320377
0.00325767
0.00330674
0.00335094
0.00339023
0.00342458
0.00345396
0.00347833
0.00349769
0.00351201
0.00352129
0.0035255
-0.00785288
-0.00778842
-0.00772205
-0.00765316
-0.00758154
-0.00750713
-0.00742995
-0.00734992
-0.00726706
-0.00718131
-0.00709268
-0.00700113
-0.00690668
-0.0068093
-0.00670902
-0.00660582
-0.00649976
-0.00639081
-0.00627905
-0.00616446
-0.00604713
-0.00592707
-0.00580436
-0.00567902
-0.00555115
-0.0054208
-0.00528805
-0.00515296
-0.00501564
-0.00487616
-0.00473462
-0.00459111
-0.00444574
-0.00429859
-0.00414981
-0.00399947
-0.00384772
-0.00369464
-0.00354039
-0.00338506
-0.0032288
-0.00307171
-0.00291396
-0.00275564
-0.0025969
-0.00243788
-0.0022787
-0.00211951
-0.00196044
-0.00180162
-0.00164321
-0.00148532
-0.0013281
-0.00117169
-0.00101622
-0.000861823
-0.000708646
-0.000556813
-0.000406465
-0.000257725
-0.000110733
3.43908e-05
0.000177511
0.000318509
0.000457254
0.000593632
0.000727516
0.000858795
0.000987349
0.00111307
0.00123584
0.00135557
0.00147213
0.00158544
0.00169539
0.00180189
0.00190484
0.00200416
0.00209976
0.00219155
0.00227947
0.00236342
0.00244334
0.00251916
0.00259082
0.00265825
0.00272139
0.00278019
0.00283461
0.00288458
0.00293007
0.00297105
0.00300747
0.0030393
0.00306652
0.0030891
0.00310703
0.00312028
0.00312886
0.00313274
-0.0076465
-0.0075804
-0.00751263
-0.00744259
-0.00737004
-0.00729494
-0.00721732
-0.00713712
-0.00705437
-0.006969
-0.00688105
-0.00679047
-0.0066973
-0.0066015
-0.00650312
-0.00640214
-0.00629861
-0.00619252
-0.00608393
-0.00597285
-0.00585935
-0.00574343
-0.00562518
-0.00550462
-0.00538185
-0.00525688
-0.00512983
-0.00500074
-0.00486971
-0.00473679
-0.00460209
-0.00446569
-0.00432769
-0.00418816
-0.00404723
-0.00390498
-0.00376153
-0.00361697
-0.00347143
-0.003325
-0.00317782
-0.00302997
-0.00288161
-0.00273281
-0.00258374
-0.00243449
-0.00228519
-0.00213596
-0.00198694
-0.00183823
-0.00168998
-0.00154229
-0.0013953
-0.00124912
-0.0011039
-0.000959734
-0.000816766
-0.000675105
-0.000534881
-0.000396205
-0.000259205
-0.000123988
9.32075e-06
0.000140615
0.000269776
0.000396698
0.000521269
0.000643386
0.000762939
0.000879833
0.000993961
0.00110523
0.00121355
0.00131881
0.00142094
0.00151985
0.00161545
0.00170766
0.0017964
0.0018816
0.00196319
0.00204109
0.00211524
0.00218557
0.00225204
0.00231458
0.00237313
0.00242766
0.0024781
0.00252443
0.0025666
0.00260458
0.00263833
0.00266782
0.00269304
0.00271395
0.00273055
0.00274281
0.00275073
0.0027543
-0.0074576
-0.00739034
-0.00732164
-0.00725087
-0.00717782
-0.00710244
-0.00702477
-0.00694476
-0.00686245
-0.00677778
-0.00669079
-0.00660143
-0.00650976
-0.00641574
-0.00631942
-0.00622078
-0.00611988
-0.00601671
-0.00591133
-0.00580374
-0.00569402
-0.00558217
-0.00546827
-0.00535235
-0.00523449
-0.00511472
-0.00499313
-0.00486976
-0.00474471
-0.00461803
-0.00448982
-0.00436014
-0.00422909
-0.00409674
-0.00396321
-0.00382856
-0.0036929
-0.00355633
-0.00341895
-0.00328085
-0.00314215
-0.00300294
-0.00286334
-0.00272345
-0.00258338
-0.00244324
-0.00230315
-0.0021632
-0.00202353
-0.00188423
-0.00174543
-0.00160723
-0.00146975
-0.0013331
-0.00119739
-0.00106274
-0.000929256
-0.000797045
-0.000666226
-0.000536897
-0.000409175
-0.000283158
-0.000158959
-3.6673e-05
8.35897e-05
0.000201736
0.000317661
0.000431274
0.000542475
0.000651176
0.000757282
0.000860709
0.000961366
0.00105917
0.00115405
0.00124591
0.00133469
0.0014203
0.00150268
0.00158176
0.00165748
0.00172976
0.00179856
0.00186381
0.00192546
0.00198345
0.00203776
0.00208831
0.00213508
0.00217803
0.00221711
0.00225231
0.00228358
0.00231091
0.00233426
0.00235363
0.002369
0.00238034
0.00238766
0.00239094
-0.00728528
-0.00721727
-0.00714802
-0.0070769
-0.00700369
-0.00692836
-0.00685095
-0.00677142
-0.00668981
-0.00660608
-0.00652026
-0.00643233
-0.00634232
-0.00625021
-0.00615606
-0.00605984
-0.00596162
-0.00586138
-0.0057592
-0.00565506
-0.00554905
-0.00544117
-0.0053315
-0.00522005
-0.00510692
-0.00499212
-0.00487574
-0.00475782
-0.00463846
-0.00451768
-0.0043956
-0.00427226
-0.00414777
-0.00402217
-0.00389558
-0.00376805
-0.00363971
-0.0035106
-0.00338085
-0.00325053
-0.00311976
-0.0029886
-0.00285717
-0.00272556
-0.00259388
-0.00246222
-0.00233069
-0.00219937
-0.00206839
-0.00193783
-0.00180781
-0.00167842
-0.00154977
-0.00142195
-0.00129508
-0.00116925
-0.00104456
-0.00092111
-0.000799009
-0.000678343
-0.00055922
-0.000441728
-0.000325969
-0.000212029
-0.000100009
1.00075e-05
0.000117925
0.000223663
0.000327128
0.000428242
0.000526919
0.000623083
0.000716651
0.000807551
0.000895707
0.00098105
0.00106351
0.00114302
0.00121951
0.00129292
0.0013632
0.00143029
0.00149413
0.00155467
0.00161186
0.00166566
0.00171602
0.0017629
0.00180627
0.00184609
0.00188232
0.00191494
0.00194392
0.00196924
0.00199088
0.00200881
0.00202304
0.00203353
0.00204029
0.00204331
-0.00712887
-0.00706042
-0.0069909
-0.00691971
-0.00684662
-0.00677158
-0.00669467
-0.00661584
-0.00653514
-0.00645252
-0.00636804
-0.00628166
-0.00619343
-0.00610332
-0.0060114
-0.00591764
-0.00582211
-0.00572479
-0.00562576
-0.00552501
-0.00542262
-0.00531858
-0.00521299
-0.00510584
-0.00499723
-0.00488717
-0.00477575
-0.00466301
-0.00454902
-0.00443383
-0.00431753
-0.00420016
-0.00408181
-0.00396255
-0.00384247
-0.00372161
-0.00360009
-0.00347796
-0.00335534
-0.00323227
-0.00310887
-0.0029852
-0.00286138
-0.00273748
-0.00261359
-0.0024898
-0.00236621
-0.0022429
-0.00211998
-0.00199753
-0.00187565
-0.00175442
-0.00163394
-0.00151431
-0.00139561
-0.00127794
-0.0011614
-0.00104605
-0.000932019
-0.000819367
-0.000708197
-0.000598587
-0.000490632
-0.000384409
-0.000280009
-0.000177506
-7.69894e-05
2.1469e-05
0.000117786
0.00021189
0.000303702
0.000393155
0.000480173
0.000564692
0.000646641
0.000725959
0.000802582
0.000876449
0.000947503
0.00101569
0.00108095
0.00114323
0.00120249
0.00125868
0.00131176
0.00136168
0.0014084
0.00145189
0.00149212
0.00152904
0.00156264
0.00159288
0.00161975
0.00164322
0.00166327
0.00167988
0.00169305
0.00170276
0.00170901
0.00171179
-0.00698721
-0.00691865
-0.00684915
-0.00677814
-0.00670539
-0.00663086
-0.00655464
-0.00647668
-0.00639704
-0.00631568
-0.00623264
-0.0061479
-0.00606152
-0.00597346
-0.00588379
-0.0057925
-0.00569963
-0.00560519
-0.00550925
-0.00541179
-0.00531289
-0.00521256
-0.00511088
-0.00500784
-0.00490354
-0.00479799
-0.00469127
-0.00458341
-0.0044745
-0.00436456
-0.00425369
-0.00414192
-0.00402935
-0.00391601
-0.00380201
-0.00368738
-0.00357223
-0.00345661
-0.00334061
-0.00322428
-0.00310774
-0.00299104
-0.00287428
-0.00275752
-0.00264086
-0.00252436
-0.00240814
-0.00229224
-0.00217678
-0.00206183
-0.00194747
-0.00183379
-0.00172087
-0.0016088
-0.00149766
-0.00138753
-0.0012785
-0.00117065
-0.00106406
-0.000958804
-0.000854975
-0.000752639
-0.000651886
-0.000552781
-0.00045541
-0.000359839
-0.000266148
-0.000174402
-8.46777e-05
2.96179e-06
8.8445e-05
0.00017171
0.00025269
0.000331325
0.000407554
0.000481319
0.000552562
0.00062123
0.000687271
0.000750632
0.000811266
0.000869126
0.00092417
0.000976352
0.00102564
0.00107198
0.00111535
0.00115572
0.00119305
0.00122731
0.00125848
0.00128653
0.00131145
0.00133321
0.0013518
0.00136719
0.0013794
0.00138838
0.00139416
0.00139671
-0.00685976
-0.00679126
-0.00672196
-0.0066513
-0.00657906
-0.00650519
-0.0064298
-0.00635283
-0.00627436
-0.00619433
-0.00611281
-0.00602977
-0.00594526
-0.00585927
-0.00577185
-0.00568298
-0.00559273
-0.0055011
-0.00540814
-0.00531386
-0.00521833
-0.00512155
-0.00502359
-0.00492447
-0.00482425
-0.00472297
-0.00462069
-0.00451743
-0.0044133
-0.00430829
-0.00420251
-0.00409599
-0.0039888
-0.003881
-0.00377266
-0.00366384
-0.00355461
-0.00344503
-0.00333518
-0.00322512
-0.00311495
-0.00300469
-0.00289447
-0.00278432
-0.00267435
-0.0025646
-0.00245518
-0.00234614
-0.00223757
-0.00212954
-0.00202213
-0.00191541
-0.00180947
-0.00170437
-0.0016002
-0.00149702
-0.00139492
-0.00129397
-0.00119424
-0.0010958
-0.000998728
-0.000903091
-0.000808968
-0.000716417
-0.000625517
-0.000536326
-0.000448917
-0.000363349
-0.00027969
-0.000197999
-0.000118339
-4.07664e-05
3.46585e-05
0.000107882
0.000178848
0.000247505
0.000313802
0.000377688
0.000439118
0.000498044
0.000554425
0.000608217
0.000659381
0.000707877
0.000753674
0.000796731
0.000837023
0.000874513
0.000909181
0.000940993
0.000969934
0.000995974
0.0010191
0.00103929
0.00105654
0.00107082
0.00108213
0.00109046
0.0010958
0.00109815
-0.00674555
-0.00667729
-0.00660834
-0.00653817
-0.00646655
-0.00639346
-0.00631898
-0.00624309
-0.00616585
-0.00608721
-0.00600724
-0.00592591
-0.00584328
-0.00575932
-0.0056741
-0.00558761
-0.00549991
-0.00541098
-0.00532091
-0.00522967
-0.00513735
-0.00504394
-0.00494953
-0.0048541
-0.00475775
-0.00466048
-0.00456238
-0.00446345
-0.00436378
-0.00426339
-0.00416236
-0.00406073
-0.00395857
-0.00385591
-0.00375285
-0.00364941
-0.00354568
-0.0034417
-0.00333756
-0.0032333
-0.00312901
-0.00302472
-0.00292054
-0.0028165
-0.0027127
-0.00260918
-0.00250604
-0.00240331
-0.0023011
-0.00219944
-0.00209844
-0.00199813
-0.00189861
-0.00179993
-0.00170217
-0.00160538
-0.00150966
-0.00141504
-0.00132162
-0.00122944
-0.00113858
-0.0010491
-0.000961071
-0.000874542
-0.000789585
-0.000706253
-0.000624614
-0.000544718
-0.00046663
-0.000390399
-0.000316086
-0.000243739
-0.000173413
-0.000105157
-3.90205e-05
2.49489e-05
8.67052e-05
0.000146204
0.000203403
0.00025826
0.000310738
0.000360796
0.000408402
0.000453517
0.000496114
0.000536156
0.000573622
0.000608476
0.000640703
0.00067027
0.000697164
0.000721358
0.000742843
0.000761595
0.000777609
0.000790864
0.000801361
0.000809081
0.00081403
0.000816192
-0.00664399
-0.00657607
-0.00650756
-0.00643795
-0.00636703
-0.00629478
-0.00622128
-0.0061465
-0.00607051
-0.00599328
-0.00591485
-0.00583522
-0.00575443
-0.00567247
-0.00558939
-0.0055052
-0.00541994
-0.00533361
-0.00524628
-0.00515794
-0.00506867
-0.00497846
-0.00488738
-0.00479544
-0.00470272
-0.00460922
-0.00451502
-0.00442013
-0.00432464
-0.00422855
-0.00413196
-0.00403487
-0.00393737
-0.0038395
-0.00374132
-0.00364287
-0.00354423
-0.00344543
-0.00334656
-0.00324765
-0.00314879
-0.00305001
-0.0029514
-0.00285299
-0.00275487
-0.00265709
-0.00255972
-0.0024628
-0.00236643
-0.00227064
-0.00217551
-0.0020811
-0.00198747
-0.00189468
-0.0018028
-0.00171189
-0.00162201
-0.00153322
-0.00144558
-0.00135914
-0.00127398
-0.00119015
-0.0011077
-0.00102669
-0.000947179
-0.000869217
-0.000792864
-0.000718165
-0.00064518
-0.000573951
-0.000504535
-0.000436973
-0.000371317
-0.00030761
-0.000245897
-0.000186219
-0.00012862
-7.31384e-05
-1.98123e-05
3.13198e-05
8.02248e-05
0.000126866
0.000171214
0.000213234
0.000252903
0.000290186
0.000325065
0.000357508
0.0003875
0.000415013
0.000440035
0.000462541
0.000482524
0.00049996
0.000514848
0.000527166
0.000536918
0.000544084
0.000548671
0.000550664
-0.00655395
-0.00648653
-0.00641856
-0.00634961
-0.00627946
-0.00620809
-0.0061356
-0.00606195
-0.00598722
-0.00591138
-0.00583448
-0.00575649
-0.0056775
-0.00559746
-0.00551645
-0.00543444
-0.00535152
-0.00526766
-0.00518293
-0.00509733
-0.00501093
-0.00492372
-0.00483578
-0.00474711
-0.00465778
-0.0045678
-0.00447724
-0.00438611
-0.0042945
-0.00420241
-0.00410992
-0.00401704
-0.00392387
-0.00383041
-0.00373674
-0.0036429
-0.00354895
-0.00345493
-0.00336092
-0.00326694
-0.00317308
-0.00307936
-0.00298587
-0.00289264
-0.00279974
-0.00270722
-0.00261515
-0.00252356
-0.00243255
-0.00234213
-0.0022524
-0.00216338
-0.00207515
-0.00198776
-0.00190127
-0.00181573
-0.00173121
-0.00164774
-0.00156539
-0.00148421
-0.00140427
-0.00132559
-0.00124825
-0.00117228
-0.00109776
-0.0010247
-0.000953182
-0.000883234
-0.000814912
-0.000748255
-0.000683313
-0.000620125
-0.000558735
-0.000499184
-0.000441511
-0.000385755
-0.000331953
-0.00028014
-0.000230352
-0.000182622
-0.00013698
-9.34597e-05
-5.20862e-05
-1.28916e-05
2.41031e-05
5.88673e-05
9.13844e-05
0.000121625
0.000149578
0.000175215
0.000198529
0.000219493
0.000238105
0.000254341
0.000268202
0.000279666
0.000288738
0.000295399
0.000299657
0.000301497
-0.00647526
-0.00640831
-0.00634089
-0.00627259
-0.00620319
-0.00613269
-0.00606119
-0.00598865
-0.00591515
-0.00584065
-0.00576522
-0.00568883
-0.00561154
-0.00553334
-0.00545428
-0.00537436
-0.00529364
-0.0052121
-0.00512982
-0.00504679
-0.00496308
-0.00487868
-0.00479366
-0.00470803
-0.00462186
-0.00453515
-0.00444797
-0.00436033
-0.0042723
-0.00418391
-0.00409521
-0.00400622
-0.00391703
-0.00382764
-0.00373813
-0.00364853
-0.0035589
-0.00346927
-0.00337972
-0.00329026
-0.00320099
-0.00311191
-0.00302311
-0.00293462
-0.0028465
-0.0027588
-0.00267158
-0.00258487
-0.00249876
-0.00241326
-0.00232845
-0.00224437
-0.00216108
-0.00207862
-0.00199705
-0.00191642
-0.00183678
-0.00175817
-0.00168065
-0.00160427
-0.00152908
-0.00145511
-0.00138243
-0.00131107
-0.00124108
-0.0011725
-0.00110539
-0.00103977
-0.000975701
-0.000913212
-0.000852348
-0.000793146
-0.000735645
-0.000679881
-0.00062589
-0.000573706
-0.000523364
-0.000474894
-0.000428329
-0.000383698
-0.000341028
-0.00030035
-0.000261686
-0.000225065
-0.000190506
-0.000158035
-0.000127669
-9.94326e-05
-7.33368e-05
-4.9407e-05
-2.7649e-05
-8.08694e-06
9.27733e-06
2.44213e-05
3.73472e-05
4.80342e-05
5.64884e-05
6.26907e-05
6.66511e-05
6.83523e-05
-0.00640668
-0.00634032
-0.0062735
-0.00620587
-0.00613724
-0.00606761
-0.00599707
-0.0059256
-0.00585328
-0.00578007
-0.00570604
-0.00563115
-0.00555548
-0.00547901
-0.00540179
-0.00532382
-0.00524516
-0.0051658
-0.0050858
-0.00500516
-0.00492395
-0.00484215
-0.00475985
-0.00467704
-0.00459378
-0.00451009
-0.00442602
-0.0043416
-0.00425688
-0.00417188
-0.00408667
-0.00400126
-0.00391572
-0.00383007
-0.00374437
-0.00365865
-0.00357298
-0.00348736
-0.00340189
-0.00331658
-0.00323149
-0.00314666
-0.00306215
-0.00297798
-0.00289423
-0.00281093
-0.00272813
-0.00264588
-0.00256423
-0.00248321
-0.00240289
-0.00232331
-0.00224451
-0.00216654
-0.00208946
-0.00201329
-0.0019381
-0.00186392
-0.0017908
-0.00171878
-0.00164792
-0.00157824
-0.00150979
-0.00144261
-0.00137676
-0.00131225
-0.00124914
-0.00118747
-0.00112726
-0.00106856
-0.0010114
-0.000955824
-0.000901857
-0.000849535
-0.00079889
-0.000749953
-0.000702754
-0.000657323
-0.000613685
-0.000571871
-0.000531901
-0.000493806
-0.000457603
-0.00042332
-0.000390972
-0.000360586
-0.000332172
-0.000305757
-0.000281347
-0.000258968
-0.000238623
-0.000220334
-0.000204102
-0.00018995
-0.000177872
-0.00016789
-0.000159996
-0.000154209
-0.000150519
-0.000148942
-0.00634803
-0.00628219
-0.00621591
-0.00614891
-0.00608101
-0.0060122
-0.00594258
-0.00587212
-0.00580092