/*--------------------------------*- C++ -*----------------------------------*\
  =========                 |
  \\      /  F ield         | OpenFOAM: The Open Source CFD Toolbox
   \\    /   O peration     | Website:  https://openfoam.org
    \\  /    A nd           | Version:  8
     \\/     M anipulation  |
\*---------------------------------------------------------------------------*/
FoamFile
{
    version     2.0;
    format      ascii;
    class       volVectorField;
    location    "4.7";
    object      U;
}
// * * * * * * * * * * * * * * * * * * * * * * * * * * * * * * * * * * * * * //

dimensions      [0 1 -1 0 0 0 0];

internalField   nonuniform List<vector> 
127200
(
(0.0194066 -0.000649434 1.61649e-20)
(0.021064 -0.000988101 -1.40848e-21)
(0.0227398 -0.001396 -2.98293e-21)
(0.0244189 -0.00186436 -1.66032e-20)
(0.026097 -0.00238884 -1.47398e-20)
(0.0277688 -0.00296773 1.43497e-20)
(0.0294281 -0.0035998 8.54781e-21)
(0.0310686 -0.0042838 2.12322e-21)
(0.0326843 -0.0050183 4.57497e-22)
(0.0342691 -0.00580153 4.38784e-22)
(0.0358172 -0.00663145 5.06967e-22)
(0.0373232 -0.00750572 1.00772e-21)
(0.0387819 -0.00842182 -2.93865e-21)
(0.0401884 -0.00937706 4.99373e-22)
(0.0415384 -0.0103686 1.19626e-20)
(0.0428278 -0.0113934 -1.49874e-20)
(0.044053 -0.0124484 -6.93828e-21)
(0.0452108 -0.0135304 8.71657e-21)
(0.0462985 -0.0146361 4.68016e-20)
(0.0473137 -0.0157623 -1.68157e-21)
(0.0482543 -0.0169055 -4.45607e-20)
(0.0491187 -0.0180624 1.12689e-20)
(0.0499057 -0.0192296 -4.99695e-20)
(0.0506142 -0.0204038 1.67104e-20)
(0.0512437 -0.0215816 7.22491e-20)
(0.0517938 -0.0227598 1.39653e-20)
(0.0522644 -0.0239351 -5.07012e-20)
(0.0526556 -0.0251043 -3.44998e-20)
(0.0529679 -0.0262642 1.09665e-21)
(0.0532017 -0.0274118 -3.88106e-23)
(0.0533577 -0.0285438 1.84371e-20)
(0.0534371 -0.0296571 -3.97523e-20)
(0.0534409 -0.0307486 -1.73951e-20)
(0.0533708 -0.0318152 4.30507e-20)
(0.0532288 -0.0328539 4.28194e-20)
(0.0530167 -0.0338615 2.25204e-20)
(0.0527365 -0.0348353 -2.32613e-20)
(0.0523896 -0.0357726 -6.32359e-23)
(0.0519777 -0.0366711 4.61618e-20)
(0.0515027 -0.037529 2.24676e-20)
(0.0509665 -0.0383445 -5.07742e-20)
(0.0503702 -0.0391158 6.54137e-22)
(0.0497169 -0.0398419 4.94472e-20)
(0.0490101 -0.040522 -5.45341e-20)
(0.0482524 -0.0411544 -5.09288e-20)
(0.047447 -0.0417378 2.39414e-20)
(0.0465967 -0.0422711 -2.7032e-20)
(0.0457043 -0.0427532 -2.80519e-20)
(0.0447726 -0.0431832 2.6961e-20)
(0.0438043 -0.0435601 8.02019e-22)
(0.0428023 -0.0438832 -8.06255e-22)
(0.0417692 -0.0441519 -8.16147e-20)
(0.0407077 -0.0443656 2.61657e-21)
(0.0396206 -0.0445237 8.14157e-20)
(0.0385106 -0.044626 -2.99084e-20)
(0.0373802 -0.0446721 5.94986e-22)
(0.0362321 -0.0446619 3.05846e-20)
(0.035069 -0.0445952 8.39014e-20)
(0.0338934 -0.044472 -3.18169e-21)
(0.0327078 -0.0442924 -8.34246e-20)
(0.0315148 -0.0440566 0)
(0.0303169 -0.0437648 -9.85933e-22)
(0.0291164 -0.0434173 2.76671e-20)
(0.027916 -0.0430146 -2.73128e-20)
(0.0267178 -0.0425571 2.67637e-20)
(0.0255243 -0.0420454 2.66587e-20)
(0.0243377 -0.0414801 -2.57005e-20)
(0.0231602 -0.040862 -3.87953e-22)
(0.0219942 -0.0401918 -2.83926e-20)
(0.0208417 -0.0394704 6.90876e-22)
(0.0197048 -0.0386988 -2.51168e-20)
(0.0185856 -0.0378779 -5.03953e-20)
(0.0174861 -0.0370088 2.53036e-20)
(0.0164082 -0.0360926 4.9042e-20)
(0.0153538 -0.0351305 4.91171e-20)
(0.0143247 -0.0341237 2.43543e-20)
(0.0133227 -0.0330736 -4.70385e-20)
(0.0123494 -0.0319815 -3.57221e-22)
(0.0114066 -0.0308488 -5.734e-22)
(0.0104958 -0.029677 -2.2894e-20)
(0.00961848 -0.0284676 2.14729e-20)
(0.00877612 -0.0272221 4.08447e-20)
(0.00797008 -0.0259421 1.93863e-20)
(0.00720168 -0.0246293 -3.8827e-20)
(0.00647214 -0.0232854 -3.55245e-20)
(0.00578264 -0.021912 5.23999e-22)
(0.00513428 -0.020511 3.27589e-20)
(0.00452806 -0.0190841 -1.6419e-20)
(0.00396495 -0.0176332 -4.50755e-20)
(0.00344583 -0.01616 1.43477e-20)
(0.00297149 -0.0146665 1.29308e-20)
(0.00254267 -0.0131545 1.18207e-20)
(0.00216001 -0.011626 -2.15071e-20)
(0.0018241 -0.0100828 9.03275e-21)
(0.00153545 -0.008527 1.69907e-20)
(0.0012945 -0.00696045 -2.02387e-20)
(0.00110162 -0.0053851 4.05541e-24)
(0.000957152 -0.00380284 4.3239e-21)
(0.000861417 -0.00221558 4.65755e-21)
(0.000814728 -0.00062553 4.61602e-22)
(0.0705735 -0.00766671 1.24518e-20)
(0.0741785 -0.00891469 1.04614e-20)
(0.0777012 -0.0102617 -1.24608e-20)
(0.0811146 -0.0116984 -1.5876e-20)
(0.0844072 -0.0132177 -1.50875e-20)
(0.0875684 -0.0148132 -7.43487e-21)
(0.0905893 -0.0164787 2.59107e-21)
(0.0934621 -0.0182079 5.01901e-21)
(0.0961806 -0.0199945 2.9129e-21)
(0.0987393 -0.0218322 3.21813e-21)
(0.101134 -0.0237147 6.82412e-21)
(0.103361 -0.0256359 4.52682e-21)
(0.105419 -0.0275899 -5.0111e-21)
(0.107305 -0.0295709 4.63497e-21)
(0.10902 -0.031573 -1.02048e-20)
(0.110563 -0.0335905 -1.57095e-20)
(0.111935 -0.0356178 1.85692e-20)
(0.113138 -0.0376494 -6.82594e-21)
(0.114174 -0.03968 1.67136e-20)
(0.115044 -0.0417042 -4.60333e-21)
(0.115752 -0.043717 -3.63255e-20)
(0.1163 -0.0457134 1.85091e-20)
(0.116693 -0.0476887 4.11542e-20)
(0.116934 -0.0496382 -1.25118e-20)
(0.117026 -0.0515573 -3.29025e-20)
(0.116974 -0.0534418 -6.74752e-21)
(0.116781 -0.0552873 -2.56251e-20)
(0.116453 -0.0570898 -2.09961e-21)
(0.115994 -0.0588453 1.17256e-20)
(0.115409 -0.0605499 5.49661e-23)
(0.114702 -0.0622 1.83775e-20)
(0.113878 -0.0637923 2.08907e-20)
(0.112943 -0.065324 1.88999e-21)
(0.111899 -0.0667931 -2.22283e-20)
(0.110752 -0.0681973 0)
(0.109505 -0.0695343 -6.40917e-21)
(0.108165 -0.070803 -2.60006e-21)
(0.106738 -0.0720022 3.02154e-20)
(0.105228 -0.0731301 2.92147e-20)
(0.103642 -0.0741853 -8.27531e-20)
(0.101984 -0.0751668 -3.56682e-20)
(0.100258 -0.0760738 8.86843e-20)
(0.0984691 -0.0769045 -3.87155e-20)
(0.0966202 -0.0776571 -4.37306e-20)
(0.0947156 -0.07833 -2.17331e-21)
(0.0927596 -0.0789218 2.26501e-21)
(0.0907563 -0.0794314 -2.33814e-20)
(0.0887099 -0.0798578 -5.53722e-21)
(0.0866243 -0.0802 5.76708e-20)
(0.0845037 -0.0804575 0)
(0.0823522 -0.0806297 -3.20115e-21)
(0.0801736 -0.0807161 -1.10649e-21)
(0.077972 -0.0807164 -3.40517e-20)
(0.0757511 -0.0806305 -3.4585e-20)
(0.0735148 -0.0804582 3.70965e-20)
(0.071267 -0.0801997 9.8e-20)
(0.0690112 -0.0798551 2.28156e-20)
(0.0667512 -0.0794247 -1.15317e-19)
(0.0644905 -0.0789088 -2.41067e-20)
(0.0622327 -0.0783081 5.96326e-20)
(0.0599813 -0.077623 -4.20548e-20)
(0.0577397 -0.0768542 -4.71997e-20)
(0.0555113 -0.0760026 7.55242e-20)
(0.0532993 -0.0750691 2.58947e-20)
(0.0511071 -0.0740546 -3.7468e-20)
(0.0489376 -0.0729603 1.7101e-20)
(0.0467941 -0.0717872 -3.71395e-21)
(0.0446796 -0.0705368 -1.15606e-21)
(0.042597 -0.0692103 4.11062e-20)
(0.0405492 -0.0678091 1.97464e-20)
(0.0385389 -0.0663349 -1.92802e-20)
(0.036569 -0.0647891 -1.83229e-20)
(0.0346421 -0.0631736 -5.68074e-20)
(0.0327607 -0.0614899 3.62807e-20)
(0.0309274 -0.0597401 1.88615e-20)
(0.0291445 -0.0579259 -3.67828e-20)
(0.0274145 -0.0560493 -1.96608e-20)
(0.0257394 -0.0541124 -5.21824e-20)
(0.0241216 -0.0521173 1.71e-20)
(0.022563 -0.0500661 5.06407e-20)
(0.0210657 -0.0479611 2.44404e-21)
(0.0196315 -0.0458045 -8.62305e-23)
(0.0182623 -0.0435987 1.49757e-20)
(0.0169598 -0.041346 1.1004e-21)
(0.0157256 -0.0390489 -3.54106e-22)
(0.0145613 -0.0367099 2.8923e-20)
(0.0134683 -0.0343313 1.37816e-20)
(0.0124479 -0.0319159 -2.71623e-20)
(0.0115013 -0.0294663 -1.43905e-20)
(0.0106299 -0.0269849 -8.99751e-22)
(0.00983448 -0.0244746 3.15778e-23)
(0.00911617 -0.0219379 0)
(0.00847577 -0.0193777 -8.02377e-21)
(0.00791407 -0.0167967 -1.82191e-20)
(0.00743175 -0.0141976 1.58331e-20)
(0.0070294 -0.0115832 5.92204e-21)
(0.00670752 -0.00895644 -2.11389e-20)
(0.00646657 -0.00632004 5.71153e-21)
(0.00630696 -0.00367713 1.3671e-20)
(0.00622915 -0.00103131 3.10665e-21)
(0.119013 -0.0175598 1.39044e-21)
(0.122435 -0.0192408 5.27509e-22)
(0.125645 -0.020982 6.28483e-21)
(0.128627 -0.0227725 1.84539e-21)
(0.131381 -0.0246065 2.71524e-21)
(0.133906 -0.0264781 -2.77343e-21)
(0.136204 -0.0283818 -1.818e-21)
(0.138277 -0.0303125 3.83665e-21)
(0.140128 -0.0322654 -1.08387e-21)
(0.141763 -0.0342358 7.80702e-21)
(0.143187 -0.0362183 -4.53428e-21)
(0.144405 -0.0382082 -1.05636e-20)
(0.145424 -0.040201 -3.92672e-21)
(0.14625 -0.0421925 1.28793e-22)
(0.146889 -0.0441785 -1.01568e-21)
(0.147348 -0.046155 6.95913e-21)
(0.147634 -0.0481181 -1.68353e-20)
(0.147752 -0.0500639 -1.04395e-20)
(0.14771 -0.0519888 1.81231e-20)
(0.147513 -0.053889 -2.31734e-21)
(0.147168 -0.0557612 1.65676e-20)
(0.14668 -0.0576018 4.32805e-21)
(0.146057 -0.0594075 -3.79113e-20)
(0.145303 -0.0611753 4.04626e-21)
(0.144425 -0.0629019 1.86125e-21)
(0.143427 -0.0645845 1.39461e-20)
(0.142316 -0.0662202 -8.28893e-21)
(0.141097 -0.0678063 6.62234e-21)
(0.139775 -0.0693405 9.5889e-21)
(0.138355 -0.070821 3.09704e-20)
(0.136842 -0.0722458 -9.97808e-21)
(0.13524 -0.0736133 -5.20074e-20)
(0.133556 -0.0749228 2.57002e-20)
(0.131796 -0.0761722 2.19175e-20)
(0.129963 -0.0773602 -3.19994e-20)
(0.128064 -0.0784854 -7.42644e-22)
(0.1261 -0.0795453 1.74775e-20)
(0.124075 -0.080537 -9.45251e-21)
(0.121992 -0.0814584 -1.33652e-20)
(0.119857 -0.0823073 7.76804e-21)
(0.117672 -0.0830818 4.50087e-20)
(0.115441 -0.0837803 -1.23972e-20)
(0.113167 -0.0844014 -5.92805e-20)
(0.110855 -0.084944 -1.8483e-20)
(0.108508 -0.0854074 2.38235e-20)
(0.106129 -0.0857905 2.87188e-21)
(0.103721 -0.0860927 -7.0797e-20)
(0.101289 -0.0863133 7.23084e-20)
(0.098836 -0.0864518 6.1299e-20)
(0.096365 -0.0865076 -5.31719e-20)
(0.0938796 -0.0864804 -5.184e-22)
(0.0913832 -0.0863701 2.45685e-22)
(0.0888792 -0.0861764 2.94824e-20)
(0.0863709 -0.0858993 3.2971e-20)
(0.0838616 -0.085539 -2.61367e-20)
(0.0813544 -0.0850956 1.41751e-20)
(0.0788527 -0.0845693 -8.52069e-21)
(0.0763594 -0.0839607 1.16769e-20)
(0.0738778 -0.0832701 1.95811e-20)
(0.0714109 -0.082498 -6.61414e-20)
(0.0689616 -0.0816453 -7.72827e-20)
(0.066533 -0.0807126 -9.57107e-22)
(0.064128 -0.0797007 1.0705e-19)
(0.0617494 -0.0786107 2.97897e-20)
(0.0594 -0.0774435 -2.67413e-20)
(0.0570825 -0.0762002 -5.91763e-20)
(0.0547997 -0.0748821 -1.62606e-20)
(0.0525542 -0.0734903 7.62083e-20)
(0.0503485 -0.0720262 7.48863e-23)
(0.0481852 -0.0704913 -1.53341e-20)
(0.0460667 -0.0688871 -6.95359e-22)
(0.0439954 -0.067215 -1.31757e-21)
(0.0419736 -0.0654767 8.7409e-22)
(0.0400036 -0.063674 5.33066e-22)
(0.0380875 -0.0618085 -1.31967e-22)
(0.0362275 -0.0598822 -5.66052e-23)
(0.0344257 -0.0578969 1.36601e-20)
(0.032684 -0.0558546 -1.29582e-21)
(0.0310042 -0.0537573 -1.16779e-21)
(0.0293883 -0.051607 3.81183e-20)
(0.027838 -0.0494058 -1.20183e-20)
(0.026355 -0.047156 -6.13446e-20)
(0.0249408 -0.0448597 9.73227e-22)
(0.0235971 -0.0425192 5.86808e-20)
(0.0223252 -0.0401367 1.20552e-22)
(0.0211265 -0.0377148 -3.09196e-20)
(0.0200023 -0.0352556 2.21697e-20)
(0.0189538 -0.0327616 4.09058e-20)
(0.0179821 -0.0302353 -9.40861e-21)
(0.0170883 -0.0276792 -3.49432e-20)
(0.0162732 -0.0250958 -7.3251e-21)
(0.0155379 -0.0224876 -6.83344e-21)
(0.0148829 -0.0198572 3.39077e-21)
(0.0143091 -0.0172071 1.02657e-20)
(0.013817 -0.01454 -6.86944e-21)
(0.0134071 -0.0118586 1.74421e-21)
(0.0130799 -0.00916548 -8.88766e-21)
(0.0128355 -0.0064634 -1.09322e-20)
(0.0126741 -0.00375528 3.08937e-21)
(0.0125959 -0.00104441 -3.1007e-22)
(0.148202 -0.0244456 5.62302e-21)
(0.150052 -0.0259859 -1.07982e-21)
(0.151676 -0.0275482 -2.54482e-21)
(0.153077 -0.0291258 -1.80039e-21)
(0.154266 -0.0307178 1.97281e-21)
(0.155254 -0.0323222 -1.0123e-21)
(0.156051 -0.0339375 -4.10277e-21)
(0.156667 -0.0355618 -1.08109e-20)
(0.157113 -0.0371931 -2.17744e-21)
(0.157397 -0.0388294 -3.7846e-21)
(0.157529 -0.0404684 -1.29782e-20)
(0.157517 -0.0421078 1.41754e-20)
(0.15737 -0.0437454 -3.0955e-21)
(0.157094 -0.0453786 -6.42195e-21)
(0.156696 -0.0470052 3.05674e-22)
(0.156183 -0.0486226 -5.10388e-21)
(0.15556 -0.0502283 2.8453e-21)
(0.154832 -0.0518198 2.16905e-20)
(0.154005 -0.0533946 3.80314e-21)
(0.153084 -0.0549501 -1.69967e-20)
(0.152072 -0.0564838 -4.11401e-21)
(0.150974 -0.057993 1.09607e-20)
(0.149793 -0.0594754 4.15819e-20)
(0.148533 -0.0609284 2.34596e-20)
(0.147198 -0.0623497 -2.38045e-20)
(0.14579 -0.063737 -8.31174e-22)
(0.144313 -0.0650882 -1.9755e-20)
(0.142769 -0.0664011 -2.49368e-22)
(0.141162 -0.0676739 -7.60663e-21)
(0.139495 -0.0689049 -5.79154e-21)
(0.137771 -0.0700921 -5.94396e-21)
(0.135991 -0.0712336 1.74091e-20)
(0.134157 -0.0723254 3.51877e-21)
(0.132271 -0.0733646 6.73491e-21)
(0.130336 -0.0743485 -2.45653e-21)
(0.128353 -0.0752744 -3.15954e-20)
(0.126326 -0.0761403 -4.83995e-20)
(0.124256 -0.0769446 -1.36144e-20)
(0.122146 -0.077686 4.48516e-20)
(0.12 -0.0783631 5.35466e-20)
(0.117819 -0.0789747 -1.47192e-21)
(0.115606 -0.0795195 -1.06832e-20)
(0.113365 -0.0799965 1.63922e-20)
(0.111097 -0.0804046 -7.42456e-21)
(0.108805 -0.0807428 -1.53175e-20)
(0.106493 -0.0810102 9.09544e-21)
(0.104162 -0.081206 6.20303e-20)
(0.101817 -0.0813297 4.41309e-20)
(0.0994582 -0.0813805 -3.23579e-20)
(0.0970899 -0.081358 -3.01823e-20)
(0.0947143 -0.0812618 -2.89008e-20)
(0.0923343 -0.0810917 0)
(0.0899526 -0.0808473 9.99902e-22)
(0.0875717 -0.0805287 8.19238e-21)
(0.0851945 -0.0801358 -1.50734e-21)
(0.0828236 -0.0796686 -5.28576e-20)
(0.0804617 -0.0791275 -2.10558e-20)
(0.0781114 -0.0785126 4.10088e-20)
(0.0757752 -0.0778243 -4.13742e-20)
(0.0734559 -0.0770631 -1.11235e-20)
(0.0711559 -0.0762294 4.02534e-20)
(0.0688777 -0.075324 9.58896e-22)
(0.0666239 -0.0743475 1.10033e-20)
(0.064397 -0.0733006 5.78941e-20)
(0.0621992 -0.0721844 3.86687e-20)
(0.0600331 -0.0709996 -7.71772e-20)
(0.0579009 -0.0697474 -2.48086e-23)
(0.055805 -0.0684287 2.83119e-20)
(0.0537476 -0.0670449 -6.469e-20)
(0.0517308 -0.0655971 -9.15597e-21)
(0.0497569 -0.0640867 3.61428e-20)
(0.047828 -0.062515 5.38837e-20)
(0.045946 -0.0608834 1.76598e-20)
(0.044113 -0.0591936 -4.2624e-20)
(0.0423309 -0.0574469 1.58954e-20)
(0.0406017 -0.0556452 -1.08685e-21)
(0.038927 -0.0537901 -3.29719e-20)
(0.0373087 -0.0518832 1.42482e-20)
(0.0357485 -0.0499265 1.85174e-21)
(0.034248 -0.0479217 -3.32515e-20)
(0.0328088 -0.0458709 7.77403e-22)
(0.0314324 -0.0437758 1.39235e-20)
(0.0301202 -0.0416386 -2.3117e-20)
(0.0288735 -0.0394612 -1.19998e-20)
(0.0276937 -0.0372458 2.11817e-20)
(0.026582 -0.0349944 9.65346e-21)
(0.0255396 -0.0327092 -1.80558e-20)
(0.0245675 -0.0303925 -2.02291e-21)
(0.0236667 -0.0280463 2.39547e-20)
(0.0228382 -0.025673 6.03072e-21)
(0.0220828 -0.0232749 -1.21842e-21)
(0.0214013 -0.0208542 -1.43972e-20)
(0.0207944 -0.0184133 -7.89723e-22)
(0.0202627 -0.0159544 1.73603e-20)
(0.0198068 -0.0134801 -3.55531e-21)
(0.0194271 -0.0109925 -6.00485e-21)
(0.0191239 -0.00849399 3.12722e-21)
(0.0188976 -0.00598701 -3.27405e-21)
(0.0187482 -0.00347383 2.41787e-24)
(0.0186757 -0.000956856 1.94101e-21)
(0.157126 -0.0269091 1.46878e-21)
(0.157572 -0.028135 1.24667e-21)
(0.157882 -0.0293788 -9.08053e-23)
(0.158067 -0.0306378 -3.47131e-22)
(0.158139 -0.0319127 -1.4468e-21)
(0.158106 -0.0332037 -4.07097e-21)
(0.157976 -0.0345105 -8.43099e-21)
(0.157757 -0.0358324 1.01665e-21)
(0.157452 -0.0371683 1.51191e-20)
(0.157068 -0.0385167 -6.49035e-21)
(0.156608 -0.0398758 4.01201e-21)
(0.156075 -0.0412436 -5.08125e-21)
(0.155472 -0.0426179 -1.08937e-20)
(0.154802 -0.0439963 7.85356e-21)
(0.154065 -0.0453765 8.20231e-21)
(0.153265 -0.0467559 6.81839e-21)
(0.152402 -0.0481319 7.78912e-21)
(0.151477 -0.0495019 -5.83875e-21)
(0.150492 -0.0508631 -2.06287e-20)
(0.149447 -0.052213 -9.41557e-22)
(0.148344 -0.0535488 2.32014e-20)
(0.147183 -0.0548678 -3.92412e-21)
(0.145965 -0.0561674 -6.67501e-21)
(0.144692 -0.057445 -2.72436e-20)
(0.143364 -0.058698 2.961e-21)
(0.141982 -0.0599239 -2.81932e-21)
(0.140548 -0.0611202 -2.23464e-20)
(0.139062 -0.0622846 1.62441e-20)
(0.137525 -0.063414 1.35768e-20)
(0.135939 -0.0645055 0)
(0.134304 -0.0655559 2.17837e-20)
(0.132622 -0.0665628 1.46525e-21)
(0.130895 -0.0675239 -1.88271e-20)
(0.129125 -0.0684376 -1.20738e-20)
(0.127312 -0.0693022 -1.21046e-21)
(0.12546 -0.0701158 -5.25739e-21)
(0.123569 -0.0708769 2.29825e-20)
(0.121643 -0.0715838 2.46663e-20)
(0.119683 -0.072235 1.69666e-20)
(0.117692 -0.0728291 6.59276e-22)
(0.115671 -0.0733646 -1.67143e-20)
(0.113623 -0.0738402 -1.6796e-20)
(0.11155 -0.074255 -1.90517e-20)
(0.109454 -0.0746076 3.56535e-20)
(0.107338 -0.0748973 1.34363e-21)
(0.105203 -0.0751231 -1.93836e-20)
(0.103054 -0.0752842 -3.92355e-21)
(0.10089 -0.0753799 -3.1404e-21)
(0.098716 -0.0754097 5.35089e-21)
(0.0965331 -0.0753729 -1.10856e-21)
(0.0943441 -0.0752693 0)
(0.0921514 -0.0750984 -5.84839e-21)
(0.0899573 -0.07486 -4.48947e-22)
(0.0877643 -0.0745539 -1.26134e-20)
(0.0855748 -0.0741801 -2.44098e-20)
(0.0833912 -0.0737386 1.84317e-20)
(0.0812159 -0.0732296 2.44541e-20)
(0.0790512 -0.0726531 5.8328e-21)
(0.0768996 -0.0720095 6.73784e-23)
(0.0747633 -0.0712992 -2.89093e-20)
(0.0726448 -0.0705225 -2.3126e-20)
(0.0705462 -0.0696801 3.49808e-20)
(0.06847 -0.0687725 2.25996e-20)
(0.0664183 -0.0678004 -1.17367e-20)
(0.0643933 -0.0667645 4.57664e-22)
(0.0623973 -0.0656658 -1.06859e-20)
(0.0604324 -0.064505 -2.63966e-22)
(0.0585007 -0.0632832 1.17275e-20)
(0.0566042 -0.0620015 -4.64157e-21)
(0.0547451 -0.0606609 -1.1589e-20)
(0.0529252 -0.0592626 -5.59977e-21)
(0.0511466 -0.0578079 9.88292e-21)
(0.0494112 -0.056298 1.09687e-20)
(0.0477207 -0.0547344 9.17695e-21)
(0.0460769 -0.0531185 9.28845e-21)
(0.0444817 -0.0514518 8.2586e-22)
(0.0429367 -0.0497357 1.76473e-20)
(0.0414436 -0.047972 -2.45931e-20)
(0.0400038 -0.0461623 1.93571e-21)
(0.038619 -0.0443081 2.63203e-20)
(0.0372906 -0.0424114 -2.2803e-20)
(0.0360199 -0.0404739 -4.3477e-21)
(0.0348084 -0.0384974 -2.19414e-22)
(0.0336572 -0.0364838 -8.84579e-21)
(0.0325677 -0.0344349 2.05089e-21)
(0.0315409 -0.0323529 7.66251e-21)
(0.0305779 -0.0302396 -2.90301e-21)
(0.0296797 -0.028097 -7.6936e-21)
(0.0288473 -0.0259273 -5.69288e-21)
(0.0280816 -0.0237324 -5.66223e-21)
(0.0273832 -0.0215145 8.69752e-21)
(0.026753 -0.0192757 4.88409e-21)
(0.0261917 -0.0170182 -7.74594e-21)
(0.0256997 -0.014744 4.16688e-21)
(0.0252776 -0.0124555 1.61081e-21)
(0.024926 -0.0101547 -3.72324e-21)
(0.024645 -0.00784378 -3.01302e-21)
(0.0244351 -0.00552504 -6.45795e-22)
(0.0242964 -0.00320058 9.57061e-22)
(0.0242292 -0.000872597 3.37043e-21)
(0.155883 -0.0269478 -2.76213e-21)
(0.15577 -0.0279889 2.98761e-23)
(0.155601 -0.029055 1.66155e-21)
(0.155381 -0.0301446 4.93474e-21)
(0.155114 -0.0312569 4.18999e-21)
(0.1548 -0.032391 -1.76736e-21)
(0.154441 -0.0335454 3.02562e-21)
(0.154037 -0.0347187 1.27592e-20)
(0.153587 -0.0359091 -3.39099e-21)
(0.153093 -0.0371144 -5.64219e-21)
(0.152552 -0.0383326 6.50249e-21)
(0.151965 -0.0395613 -5.24894e-21)
(0.151331 -0.0407981 -1.17613e-21)
(0.150648 -0.0420405 0)
(0.149916 -0.043286 1.85824e-21)
(0.149135 -0.044532 -1.79297e-21)
(0.148304 -0.0457758 -1.60349e-21)
(0.147423 -0.0470149 -8.13091e-23)
(0.146492 -0.0482466 -2.17914e-21)
(0.145509 -0.0494683 5.05538e-21)
(0.144476 -0.0506774 -1.29326e-20)
(0.143393 -0.0518714 -3.29254e-21)
(0.142258 -0.0530476 9.2192e-21)
(0.141074 -0.0542034 -1.26412e-20)
(0.139841 -0.0553364 9.24631e-21)
(0.138558 -0.0564441 5.86456e-21)
(0.137227 -0.0575238 -3.67313e-21)
(0.135848 -0.058573 -1.47492e-20)
(0.134423 -0.0595894 6.66809e-21)
(0.132953 -0.0605709 8.33042e-21)
(0.131438 -0.0615154 3.80709e-21)
(0.129881 -0.0624209 1.07686e-20)
(0.128283 -0.0632856 -8.92851e-21)
(0.126645 -0.0641075 -1.42533e-20)
(0.124968 -0.0648849 4.40839e-21)
(0.123256 -0.0656161 -9.87568e-21)
(0.121509 -0.0662995 1.56272e-20)
(0.119729 -0.0669335 1.75259e-20)
(0.117918 -0.0675167 -1.47766e-20)
(0.116078 -0.0680478 1.39353e-22)
(0.11421 -0.0685255 7.9867e-21)
(0.112318 -0.0689486 -2.02925e-20)
(0.110402 -0.069316 -7.13716e-21)
(0.108465 -0.0696267 7.98067e-21)
(0.10651 -0.0698797 -8.05016e-21)
(0.104537 -0.0700742 1.63115e-20)
(0.10255 -0.0702095 2.77284e-21)
(0.10055 -0.0702847 -6.85957e-21)
(0.0985398 -0.0702995 4.89751e-21)
(0.0965214 -0.0702531 -8.43924e-21)
(0.094497 -0.0701452 0)
(0.0924689 -0.0699755 -7.84191e-21)
(0.0904392 -0.0697437 -1.39975e-22)
(0.0884103 -0.0694497 7.67168e-21)
(0.0863844 -0.0690932 6.9797e-21)
(0.0843636 -0.0686744 3.89578e-21)
(0.0823501 -0.0681933 -7.04244e-21)
(0.0803463 -0.0676501 3.73823e-21)
(0.0783543 -0.0670449 -7.95368e-23)
(0.0763762 -0.0663781 -7.47196e-21)
(0.0744143 -0.06565 -2.19141e-20)
(0.0724706 -0.0648612 -6.42444e-21)
(0.0705473 -0.0640122 2.09712e-20)
(0.0686465 -0.0631035 1.68508e-20)
(0.0667702 -0.062136 -4.73619e-22)
(0.0649205 -0.0611102 -1.74874e-20)
(0.0630994 -0.060027 -8.52491e-22)
(0.0613089 -0.0588874 -9.16399e-21)
(0.0595509 -0.0576922 -2.80039e-21)
(0.0578272 -0.0564426 2.06477e-20)
(0.0561398 -0.0551395 5.44289e-21)
(0.0544904 -0.0537841 2.91945e-21)
(0.0528809 -0.0523776 9.07546e-21)
(0.0513129 -0.0509214 -1.43854e-20)
(0.0497882 -0.0494166 -1.63065e-21)
(0.0483083 -0.0478646 4.28198e-21)
(0.0468749 -0.046267 -1.12545e-20)
(0.0454894 -0.0446251 3.77041e-21)
(0.0441534 -0.0429405 1.95846e-21)
(0.0428683 -0.0412147 -2.16812e-21)
(0.0416353 -0.0394494 5.40769e-21)
(0.040456 -0.0376462 5.56952e-21)
(0.0393314 -0.0358068 -2.4379e-21)
(0.0382628 -0.0339329 5.76435e-21)
(0.0372513 -0.0320264 -5.78695e-21)
(0.036298 -0.030089 -1.22391e-20)
(0.0354039 -0.0281225 4.90677e-21)
(0.0345699 -0.0261289 1.17538e-20)
(0.033797 -0.02411 1.3417e-21)
(0.0330859 -0.0220677 -5.44086e-21)
(0.0324373 -0.0200041 -1.69853e-21)
(0.0318521 -0.017921 3.57506e-21)
(0.0313307 -0.0158206 1.00977e-21)
(0.0308737 -0.0137047 -1.21406e-21)
(0.0304817 -0.0115754 2.7533e-21)
(0.0301551 -0.00943472 1.74206e-21)
(0.0298941 -0.00728478 2.44142e-21)
(0.0296991 -0.00512761 -5.45342e-22)
(0.0295703 -0.00296526 -1.21314e-22)
(0.0295079 -0.000799832 -2.69409e-21)
(0.152765 -0.0264779 -8.44244e-22)
(0.152556 -0.0274314 -1.05087e-21)
(0.152316 -0.028409 4.92041e-21)
(0.152047 -0.0294097 2.8659e-21)
(0.151748 -0.030432 -2.69235e-21)
(0.151415 -0.0314742 -3.28604e-21)
(0.151049 -0.0325349 3.5494e-21)
(0.150647 -0.0336121 -4.68588e-22)
(0.150208 -0.0347041 -5.37498e-21)
(0.14973 -0.0358088 7.46182e-22)
(0.149211 -0.0369243 -1.07982e-21)
(0.148651 -0.0380484 -4.96471e-21)
(0.148048 -0.0391788 -9.82932e-22)
(0.147402 -0.0403135 7.65601e-21)
(0.14671 -0.04145 3.46641e-22)
(0.145973 -0.0425861 -3.72646e-21)
(0.14519 -0.0437194 2.721e-21)
(0.14436 -0.0448476 2.37664e-21)
(0.143484 -0.0459683 -7.31638e-21)
(0.142561 -0.0470792 1.83717e-21)
(0.14159 -0.0481778 -8.55876e-21)
(0.140573 -0.0492619 2.34125e-21)
(0.139509 -0.0503291 5.53283e-21)
(0.138399 -0.0513771 -6.66475e-21)
(0.137242 -0.0524035 -8.39591e-21)
(0.136041 -0.0534063 8.94621e-21)
(0.134795 -0.0543832 9.2577e-21)
(0.133506 -0.0553322 1.85985e-21)
(0.132174 -0.056251 8.52261e-21)
(0.1308 -0.0571379 1.79949e-21)
(0.129386 -0.0579908 -1.16046e-20)
(0.127933 -0.058808 -1.14412e-20)
(0.126442 -0.0595876 2.78218e-21)
(0.124915 -0.060328 1.21887e-20)
(0.123353 -0.0610275 9.09909e-21)
(0.121757 -0.0616846 1.24362e-22)
(0.12013 -0.0622979 -5.99757e-21)
(0.118472 -0.0628658 -9.57038e-22)
(0.116785 -0.0633871 -1.04866e-20)
(0.115072 -0.0638605 -7.69813e-22)
(0.113334 -0.0642847 9.6054e-21)
(0.111573 -0.0646588 -6.9761e-23)
(0.10979 -0.0649817 3.58099e-22)
(0.107988 -0.0652523 -2.437e-22)
(0.106169 -0.0654699 1.59588e-20)
(0.104333 -0.0656335 5.61347e-22)
(0.102485 -0.0657426 -1.66973e-20)
(0.100624 -0.0657964 3.08705e-21)
(0.0987544 -0.0657945 -2.34837e-21)
(0.096877 -0.0657362 -2.9716e-21)
(0.094994 -0.0656212 4.88612e-21)
(0.0931077 -0.0654492 -7.64962e-21)
(0.09122 -0.0652199 -1.25112e-20)
(0.0893329 -0.0649331 -1.49597e-20)
(0.0874486 -0.0645887 -5.4501e-24)
(0.0855691 -0.0641868 3.24053e-20)
(0.0836965 -0.0637273 1.97839e-20)
(0.0818327 -0.0632104 -2.34317e-21)
(0.0799799 -0.0626363 -9.95584e-21)
(0.0781401 -0.0620052 -7.33546e-21)
(0.0763152 -0.0613176 -1.70253e-20)
(0.0745073 -0.0605737 6.88687e-21)
(0.0727183 -0.0597742 1.60638e-20)
(0.0709502 -0.0589195 2.22532e-22)
(0.0692049 -0.0580103 9.33894e-21)
(0.0674842 -0.0570472 -5.06731e-23)
(0.0657902 -0.0560311 -8.80064e-21)
(0.0641244 -0.0549626 -6.22356e-21)
(0.0624889 -0.0538428 -8.63503e-22)
(0.0608853 -0.0526725 -4.07528e-21)
(0.0593154 -0.0514527 -1.47085e-21)
(0.0577809 -0.0501844 8.14032e-22)
(0.0562833 -0.0488689 2.89167e-21)
(0.0548244 -0.0475071 4.77402e-21)
(0.0534057 -0.0461005 9.7434e-21)
(0.0520287 -0.0446501 -3.99811e-21)
(0.0506948 -0.0431573 -1.65095e-20)
(0.0494056 -0.0416235 1.06403e-20)
(0.0481624 -0.0400501 5.17562e-21)
(0.0469664 -0.0384386 -3.50893e-21)
(0.0458191 -0.0367903 -6.52303e-21)
(0.0447216 -0.035107 -3.91318e-21)
(0.043675 -0.03339 1.23666e-20)
(0.0426805 -0.0316411 2.57213e-21)
(0.0417392 -0.0298618 -3.88482e-21)
(0.040852 -0.0280539 2.9207e-21)
(0.0400198 -0.0262191 -1.50864e-21)
(0.0392437 -0.024359 -7.8943e-21)
(0.0385243 -0.0224755 5.72059e-22)
(0.0378625 -0.0205704 2.66734e-21)
(0.0372589 -0.0186453 -3.04819e-21)
(0.0367143 -0.0167023 1.66967e-21)
(0.0362291 -0.0147431 5.77175e-21)
(0.0358039 -0.0127696 -2.6137e-21)
(0.0354391 -0.0107836 -1.03578e-21)
(0.0351352 -0.00878717 -1.32794e-22)
(0.0348924 -0.0067821 -3.53698e-22)
(0.034711 -0.00477034 1.73266e-21)
(0.0345913 -0.00275382 5.07322e-22)
(0.0345333 -0.000734471 1.3167e-21)
(0.150203 -0.0259796 -1.24052e-21)
(0.149985 -0.0268708 1.26765e-21)
(0.149741 -0.0277822 -1.26449e-21)
(0.149471 -0.0287129 -1.99426e-21)
(0.149171 -0.0296617 -1.29834e-21)
(0.148841 -0.0306272 -1.86939e-21)
(0.148478 -0.0316078 -9.95092e-22)
(0.148081 -0.032602 2.37899e-22)
(0.147649 -0.033608 -1.31257e-21)
(0.14718 -0.0346241 -2.29281e-21)
(0.146673 -0.0356486 -5.35037e-22)
(0.146127 -0.0366794 -1.96366e-21)
(0.145541 -0.0377147 2.09875e-21)
(0.144914 -0.0387525 -6.74037e-21)
(0.144246 -0.0397908 2.9949e-21)
(0.143535 -0.0408274 8.67011e-21)
(0.142782 -0.0418604 4.33325e-21)
(0.141985 -0.0428876 -4.01421e-22)
(0.141146 -0.043907 -2.36835e-21)
(0.140263 -0.0449164 6.53587e-22)
(0.139337 -0.0459138 -6.39825e-21)
(0.138368 -0.0468971 -1.96052e-21)
(0.137357 -0.0478641 6.55015e-21)
(0.136303 -0.048813 3.79968e-21)
(0.135207 -0.0497416 -1.36061e-20)
(0.134071 -0.0506481 1.02141e-20)
(0.132893 -0.0515305 1.26429e-20)
(0.131676 -0.0523869 -3.62866e-21)
(0.13042 -0.0532154 3.78049e-21)
(0.129126 -0.0540144 -6.86852e-21)
(0.127796 -0.0547821 -6.4272e-21)
(0.12643 -0.0555168 -4.177e-21)
(0.125029 -0.0562169 -2.53481e-21)
(0.123596 -0.0568808 1.72524e-20)
(0.12213 -0.0575072 5.03693e-22)
(0.120634 -0.0580945 -7.16036e-21)
(0.119109 -0.0586414 -1.46985e-22)
(0.117556 -0.0591467 -7.42734e-21)
(0.115978 -0.0596089 -7.71184e-21)
(0.114375 -0.0600271 6.67495e-22)
(0.112749 -0.0604002 1.18152e-20)
(0.111103 -0.060727 4.02668e-23)
(0.109437 -0.0610066 -7.82078e-21)
(0.107753 -0.0612382 -3.4333e-22)
(0.106053 -0.0614209 7.38673e-21)
(0.10434 -0.061554 -3.93797e-21)
(0.102614 -0.0616369 -3.2322e-21)
(0.100877 -0.0616688 1.12853e-20)
(0.0991323 -0.0616494 -2.59513e-23)
(0.0973807 -0.0615781 -7.59627e-21)
(0.0956243 -0.0614545 7.35123e-21)
(0.0938649 -0.0612784 3.48133e-21)
(0.0921045 -0.0610494 -7.25885e-21)
(0.090345 -0.0607675 -3.43917e-21)
(0.0885883 -0.0604325 -3.88176e-22)
(0.0868363 -0.0600444 7.35963e-21)
(0.0850908 -0.0596032 8.05187e-23)
(0.0833538 -0.059109 7.42918e-21)
(0.0816271 -0.0585621 4.51504e-22)
(0.0799127 -0.0579626 -7.43194e-21)
(0.0782123 -0.0573108 -3.83165e-21)
(0.0765279 -0.0566072 -6.73884e-21)
(0.0748611 -0.0558521 2.22557e-22)
(0.0732139 -0.0550462 -2.80235e-22)
(0.071588 -0.0541898 4.5786e-21)
(0.0699852 -0.0532837 -3.09814e-21)
(0.0684072 -0.0523285 -2.74596e-21)
(0.0668556 -0.0513251 3.24629e-21)
(0.0653323 -0.0502741 2.98169e-21)
(0.0638387 -0.0491764 4.22344e-22)
(0.0623765 -0.048033 -8.32986e-21)
(0.0609473 -0.0468448 -2.94953e-21)
(0.0595526 -0.0456128 8.11691e-21)
(0.0581939 -0.0443381 5.56622e-21)
(0.0568726 -0.0430219 -6.39667e-21)
(0.0555902 -0.0416652 -1.41982e-21)
(0.054348 -0.0402693 7.03937e-21)
(0.0531474 -0.0388354 4.11654e-21)
(0.0519897 -0.0373649 1.81201e-21)
(0.050876 -0.035859 -4.65497e-21)
(0.0498075 -0.0343192 -4.98521e-21)
(0.0487854 -0.0327469 -3.54557e-21)
(0.0478109 -0.0311434 -1.88992e-22)
(0.0468848 -0.0295104 1.3993e-21)
(0.0460082 -0.0278493 -7.72443e-22)
(0.045182 -0.0261616 1.71348e-21)
(0.0444072 -0.024449 4.74068e-21)
(0.0436845 -0.0227131 2.99934e-21)
(0.0430146 -0.0209554 -1.54428e-21)
(0.0423984 -0.0191776 -2.72536e-21)
(0.0418364 -0.0173815 -1.03654e-21)
(0.0413293 -0.0155687 -2.94492e-21)
(0.0408775 -0.0137409 -5.15973e-22)
(0.0404816 -0.0118998 3.28619e-21)
(0.040142 -0.0100473 -1.0871e-21)
(0.0398591 -0.00818496 1.11049e-21)
(0.0396331 -0.0063147 -2.13559e-21)
(0.0394643 -0.00443824 -1.67929e-21)
(0.0393529 -0.00255737 1.74499e-22)
(0.0392991 -0.000673902 2.03117e-21)
(0.148225 -0.0254583 -5.0077e-21)
(0.147994 -0.0262929 -2.7058e-21)
(0.147738 -0.027144 2.96036e-21)
(0.147455 -0.0280106 5.09589e-21)
(0.147143 -0.0288919 -3.03763e-21)
(0.146803 -0.0297865 1.02413e-21)
(0.146431 -0.0306932 -2.01692e-21)
(0.146027 -0.0316105 -3.30436e-21)
(0.145589 -0.0325369 2.04502e-21)
(0.145117 -0.033471 3.10887e-21)
(0.144609 -0.0344111 6.52413e-22)
(0.144065 -0.0353555 5.2561e-21)
(0.143484 -0.0363027 -8.9601e-22)
(0.142866 -0.0372507 -3.92709e-21)
(0.142209 -0.0381979 2.66624e-21)
(0.141513 -0.0391424 -4.37128e-22)
(0.140778 -0.0400825 2.01731e-21)
(0.140005 -0.0410164 -1.11878e-21)
(0.139192 -0.041942 1.5637e-22)
(0.138339 -0.0428577 -4.29132e-21)
(0.137448 -0.0437616 -5.1705e-21)
(0.136517 -0.0446518 -3.63502e-21)
(0.135548 -0.0455265 6.73007e-21)
(0.13454 -0.046384 7.59253e-21)
(0.133494 -0.0472225 -4.4282e-21)
(0.132412 -0.0480402 6.97846e-22)
(0.131292 -0.0488354 -7.86501e-22)
(0.130137 -0.0496064 -6.22712e-22)
(0.128946 -0.0503516 -1.30572e-21)
(0.127722 -0.0510694 4.22738e-21)
(0.126464 -0.0517582 -6.83892e-21)
(0.125174 -0.0524165 -5.53867e-21)
(0.123853 -0.0530429 2.59411e-21)
(0.122501 -0.053636 2.71077e-21)
(0.121122 -0.0541944 9.27144e-21)
(0.119714 -0.0547168 -5.44994e-21)
(0.118281 -0.055202 -5.56578e-21)
(0.116822 -0.0556489 -5.39965e-21)
(0.11534 -0.0560562 2.78574e-21)
(0.113837 -0.0564229 1.68951e-20)
(0.112312 -0.0567481 -2.69592e-21)
(0.110769 -0.0570307 -9.03666e-21)
(0.109209 -0.0572699 -5.83794e-21)
(0.107632 -0.057465 3.03992e-21)