/*--------------------------------*- C++ -*----------------------------------*\
  =========                 |
  \\      /  F ield         | OpenFOAM: The Open Source CFD Toolbox
   \\    /   O peration     | Website:  https://openfoam.org
    \\  /    A nd           | Version:  8
     \\/     M anipulation  |
\*---------------------------------------------------------------------------*/
FoamFile
{
    version     2.0;
    format      ascii;
    class       volScalarField;
    location    "0.2";
    object      p;
}
// * * * * * * * * * * * * * * * * * * * * * * * * * * * * * * * * * * * * * //

dimensions      [0 2 -2 0 0 0 0];

internalField   nonuniform List<scalar> 
112659
(
1.97347
1.9574
1.94331
1.92939
1.91547
1.90141
1.88713
1.87265
1.85797
1.8431
1.82804
1.81279
1.79737
1.78179
1.76606
1.75017
1.73414
1.71798
1.70169
1.68529
1.66877
1.65214
1.63542
1.61859
1.60168
1.58468
1.56759
1.55043
1.53319
1.51588
1.49851
1.48108
1.46358
1.44603
1.42843
1.41077
1.39307
1.37532
1.35753
1.3397
1.32184
1.30393
1.28599
1.26802
1.25002
1.23199
1.21394
1.19586
1.17775
1.15961
1.14146
1.12329
1.10509
1.08688
1.06866
1.05041
1.03214
1.01387
0.995575
0.977267
0.95895
0.940615
0.922267
0.903908
0.885538
0.867157
0.848762
0.83036
0.811947
0.793522
0.775089
0.756643
0.738188
0.719722
0.701247
0.682763
0.664265
0.645763
0.627248
0.608724
0.590187
0.571641
0.553086
0.534523
0.515944
0.497351
0.478757
0.460144
0.441521
0.422886
0.404237
0.385581
0.366909
0.348223
0.329523
0.310814
0.292088
0.273345
0.25459
0.23582
0.217033
0.198232
0.179414
0.160578
0.141728
0.122863
0.103976
0.0850718
0.0661498
0.0472131
0.0282521
0.00927276
-0.00972559
-0.0287459
-0.0477792
-0.0668429
-0.0859248
-0.105023
-0.124146
-0.143291
-0.162462
-0.181651
-0.200864
-0.220097
-0.23936
-0.258642
-0.277949
-0.297282
-0.316637
-0.336017
-0.355419
-0.374848
-0.3943
-0.413776
-0.43328
-0.452808
-0.47236
-0.491937
-0.51154
-0.531167
-0.550814
-0.57049
-0.59019
-0.60991
-0.629658
-0.649426
-0.669217
-0.689029
-0.708867
-0.728723
-0.7486
-0.768498
-0.788416
-0.808348
-0.828297
-0.848264
-0.868247
-0.888247
-0.908257
-0.928277
-0.948305
-0.968345
-0.988392
-1.00845
-1.0285
-1.04856
-1.06862
-1.08867
-1.10872
-1.12876
-1.14879
-1.16881
-1.18881
-1.2088
-1.22876
-1.24869
-1.2686
-1.28846
-1.3083
-1.32808
-1.34783
-1.36752
-1.38716
-1.40673
-1.42624
-1.44567
-1.46502
-1.48428
-1.50345
-1.52252
-1.54148
-1.56032
-1.57905
-1.59766
-1.61617
-1.63456
-1.65292
-1.67147
-1.69046
-1.71227
1.98033
1.96608
1.95183
1.93768
1.92374
1.90979
1.89565
1.88132
1.86678
1.85204
1.8371
1.82197
1.80667
1.79118
1.77554
1.75974
1.74379
1.72771
1.71148
1.69513
1.67867
1.66208
1.64539
1.62859
1.61169
1.59471
1.57763
1.56046
1.54322
1.52591
1.50852
1.49106
1.47353
1.45595
1.4383
1.4206
1.40285
1.38505
1.36719
1.3493
1.33136
1.31338
1.29537
1.27731
1.25922
1.2411
1.22294
1.20476
1.18655
1.16831
1.15004
1.13175
1.11344
1.09511
1.07675
1.05837
1.03998
1.02156
1.00313
0.984683
0.966216
0.947736
0.929238
0.910726
0.892201
0.873658
0.855106
0.836541
0.817962
0.799368
0.780765
0.762147
0.743519
0.724878
0.706226
0.68756
0.668884
0.650198
0.6315
0.612788
0.594065
0.57533
0.556585
0.537828
0.519058
0.500273
0.481481
0.462673
0.443852
0.425019
0.406173
0.387314
0.368442
0.349554
0.330653
0.311739
0.292809
0.273866
0.254903
0.235931
0.216935
0.197932
0.178905
0.159866
0.14081
0.121736
0.102645
0.083533
0.064406
0.0452599
0.026095
0.00691032
-0.0122938
-0.0315179
-0.050759
-0.0700247
-0.089309
-0.108613
-0.127938
-0.147286
-0.166655
-0.186046
-0.205457
-0.224891
-0.244348
-0.263829
-0.28333
-0.302855
-0.322403
-0.341974
-0.361566
-0.381184
-0.400824
-0.420485
-0.440169
-0.459881
-0.479612
-0.499367
-0.519146
-0.538944
-0.558767
-0.57861
-0.598476
-0.618363
-0.63827
-0.658197
-0.678147
-0.698113
-0.718099
-0.738102
-0.758125
-0.778164
-0.798218
-0.818285
-0.838365
-0.858458
-0.878567
-0.898686
-0.91881
-0.938939
-0.959078
-0.979221
-0.999368
-1.01952
-1.03966
-1.0598
-1.07994
-1.10006
-1.12018
-1.14029
-1.16038
-1.18044
-1.20049
-1.22052
-1.24051
-1.26047
-1.28039
-1.30027
-1.32011
-1.3399
-1.35964
-1.37932
-1.39893
-1.41847
-1.43794
-1.45732
-1.47662
-1.49583
-1.51492
-1.53391
-1.55278
-1.57154
-1.59018
-1.60869
-1.62711
-1.64546
-1.66395
-1.68293
-1.70225
-1.72179
1.98703
1.9742
1.9603
1.94611
1.93208
1.91816
1.90416
1.88996
1.87556
1.86096
1.84615
1.83115
1.81595
1.80058
1.78503
1.76933
1.75346
1.73745
1.72129
1.705
1.68858
1.67205
1.65539
1.63863
1.62175
1.60479
1.58772
1.57056
1.55332
1.536
1.51859
1.50112
1.48357
1.46595
1.44827
1.43053
1.41273
1.39487
1.37696
1.359
1.341
1.32295
1.30486
1.28672
1.26854
1.25032
1.23208
1.21379
1.19548
1.17713
1.15876
1.14035
1.12192
1.10346
1.08498
1.06648
1.04795
1.0294
1.01083
0.992234
0.973624
0.954992
0.936345
0.917678
0.898994
0.880295
0.861579
0.842847
0.824102
0.805339
0.786562
0.767775
0.748969
0.730149
0.711315
0.692471
0.67361
0.654737
0.635851
0.616951
0.598037
0.579108
0.560171
0.541217
0.522251
0.503267
0.484276
0.465269
0.446245
0.427213
0.40816
0.389099
0.370019
0.350926
0.331819
0.312698
0.293559
0.274406
0.255235
0.236052
0.216848
0.197633
0.178397
0.159147
0.139878
0.120594
0.101291
0.0819706
0.0626301
0.0432758
0.0238964
0.00450461
-0.0149117
-0.0343439
-0.0537936
-0.0732699
-0.0927607
-0.112274
-0.131803
-0.151359
-0.170933
-0.190527
-0.210142
-0.229778
-0.249437
-0.269114
-0.288815
-0.308539
-0.328283
-0.348044
-0.367831
-0.387641
-0.407468
-0.427319
-0.447191
-0.467083
-0.486998
-0.506933
-0.526887
-0.546863
-0.566856
-0.586871
-0.606903
-0.626956
-0.647026
-0.667112
-0.687216
-0.707338
-0.727472
-0.747626
-0.767791
-0.787971
-0.808159
-0.828361
-0.84857
-0.868793
-0.889021
-0.909258
-0.929493
-0.949733
-0.969976
-0.990221
-1.01046
-1.0307
-1.05093
-1.07115
-1.09137
-1.11156
-1.13174
-1.1519
-1.17205
-1.19216
-1.21225
-1.23231
-1.25233
-1.27231
-1.29225
-1.31214
-1.33199
-1.35177
-1.3715
-1.39115
-1.41074
-1.43025
-1.44968
-1.46901
-1.48825
-1.50739
-1.52642
-1.54533
-1.56412
-1.58278
-1.60133
-1.61976
-1.63809
-1.65649
-1.67523
-1.69438
-1.71336
-1.73114
1.99313
1.98173
1.96857
1.95457
1.94049
1.92656
1.91264
1.89857
1.88431
1.86985
1.85517
1.8403
1.82522
1.80997
1.79452
1.77891
1.76314
1.7472
1.73112
1.7149
1.69854
1.68205
1.66544
1.64872
1.63188
1.61493
1.59788
1.58074
1.5635
1.54617
1.52875
1.51127
1.4937
1.47605
1.45834
1.44056
1.42272
1.40481
1.38685
1.36883
1.35076
1.33264
1.31447
1.29626
1.27799
1.25969
1.24135
1.22297
1.20456
1.1861
1.16762
1.1491
1.13055
1.11197
1.09337
1.07473
1.05607
1.03738
1.01867
0.999935
0.981178
0.962397
0.943597
0.924776
0.905932
0.887073
0.868191
0.849295
0.830377
0.811446
0.792495
0.773528
0.754546
0.735544
0.716526
0.697498
0.678449
0.659385
0.64031
0.621214
0.602108
0.582984
0.563848
0.544693
0.525527
0.506343
0.487147
0.467934
0.448707
0.429464
0.410205
0.390934
0.371645
0.352342
0.333022
0.313687
0.294335
0.274969
0.255585
0.236186
0.216768
0.197336
0.177886
0.158419
0.138934
0.119433
0.0999134
0.0803769
0.0608212
0.0412502
0.0216574
0.00204656
-0.0175814
-0.0372294
-0.0568944
-0.0765813
-0.0962851
-0.116012
-0.135753
-0.155518
-0.175299
-0.195105
-0.214925
-0.234769
-0.254634
-0.274513
-0.294417
-0.314342
-0.334283
-0.354245
-0.374228
-0.394228
-0.41425
-0.434289
-0.454352
-0.474429
-0.49453
-0.514645
-0.534778
-0.554931
-0.575099
-0.595284
-0.615488
-0.635703
-0.655939
-0.676188
-0.696444
-0.716718
-0.737008
-0.757306
-0.777615
-0.797935
-0.818263
-0.838592
-0.858931
-0.879278
-0.899629
-0.919976
-0.940327
-0.960673
-0.981019
-1.00136
-1.0217
-1.04202
-1.06234
-1.08263
-1.10291
-1.12318
-1.14342
-1.16364
-1.18383
-1.20399
-1.22412
-1.24421
-1.26425
-1.28425
-1.3042
-1.3241
-1.34394
-1.36372
-1.38342
-1.40305
-1.42261
-1.44208
-1.46146
-1.48074
-1.49992
-1.51898
-1.53793
-1.55676
-1.57546
-1.59403
-1.61248
-1.63084
-1.64917
-1.66769
-1.68662
-1.70564
-1.72376
-1.73975
1.99977
1.98884
1.97649
1.96293
1.94894
1.93497
1.92109
1.90714
1.89302
1.87869
1.86416
1.84941
1.83447
1.81933
1.804
1.78849
1.77281
1.75697
1.74097
1.72482
1.70853
1.6921
1.67554
1.65886
1.64206
1.62514
1.60811
1.59098
1.57375
1.55643
1.53901
1.52151
1.50392
1.48626
1.46852
1.45071
1.43282
1.41487
1.39686
1.37878
1.36066
1.34247
1.32422
1.30594
1.28759
1.2692
1.25077
1.2323
1.21378
1.19523
1.17663
1.158
1.13933
1.12063
1.1019
1.08313
1.06434
1.04552
1.02666
1.00778
0.988882
0.969953
0.950997
0.932018
0.913017
0.893995
0.874948
0.85588
0.836794
0.817688
0.79856
0.779412
0.760248
0.741063
0.721861
0.70264
0.683404
0.664147
0.644874
0.625585
0.606281
0.586954
0.567615
0.548259
0.528888
0.509497
0.490093
0.47067
0.451233
0.431778
0.412307
0.392821
0.373318
0.353797
0.334262
0.314709
0.29514
0.275553
0.25595
0.236332
0.216694
0.197041
0.17737
0.157681
0.137976
0.118253
0.0985132
0.0787535
0.0589777
0.0391843
0.0193718
-0.000459412
-0.0203068
-0.0401746
-0.0600585
-0.0799646
-0.0998853
-0.119826
-0.139785
-0.159766
-0.179762
-0.199776
-0.219811
-0.239865
-0.259936
-0.280027
-0.300135
-0.320264
-0.340407
-0.360572
-0.380754
-0.400952
-0.421167
-0.441403
-0.461656
-0.481922
-0.502205
-0.522507
-0.542824
-0.563153
-0.583496
-0.603856
-0.624229
-0.644614
-0.665012
-0.685421
-0.705838
-0.726269
-0.746708
-0.767151
-0.787607
-0.808061
-0.828524
-0.84899
-0.869456
-0.889925
-0.910394
-0.930853
-0.951315
-0.971771
-0.992214
-1.01265
-1.03307
-1.05348
-1.07388
-1.09425
-1.1146
-1.13493
-1.15523
-1.17549
-1.19573
-1.21593
-1.23609
-1.2562
-1.27626
-1.29628
-1.31624
-1.33613
-1.35596
-1.37572
-1.3954
-1.415
-1.43452
-1.45395
-1.47327
-1.49249
-1.51159
-1.53058
-1.54945
-1.56818
-1.58679
-1.60527
-1.62364
-1.64195
-1.66034
-1.67902
-1.69795
-1.7165
-1.73367
-1.74917
2.00662
1.99574
1.98398
1.97105
1.95734
1.94342
1.92955
1.91567
1.90167
1.88749
1.87309
1.85849
1.84368
1.82867
1.81345
1.79806
1.78249
1.76674
1.75082
1.73476
1.71854
1.70217
1.68567
1.66904
1.65228
1.6354
1.6184
1.60129
1.58408
1.56677
1.54935
1.53184
1.51425
1.49657
1.4788
1.46096
1.44304
1.42505
1.40699
1.38886
1.37068
1.35243
1.33411
1.31575
1.29733
1.27886
1.26034
1.24177
1.22315
1.20449
1.18579
1.16705
1.14826
1.12944
1.11058
1.09169
1.07276
1.0538
1.03481
1.01579
0.996738
0.977656
0.958546
0.939411
0.920248
0.90106
0.881846
0.862609
0.843348
0.824066
0.804758
0.785428
0.766078
0.74671
0.727315
0.707906
0.688472
0.669022
0.64955
0.630061
0.610552
0.591024
0.571479
0.551916
0.532333
0.512731
0.493116
0.473478
0.453826
0.434154
0.414467
0.39476
0.375039
0.355296
0.33554
0.315764
0.295971
0.276163
0.256333
0.23649
0.216627
0.196749
0.176849
0.156936
0.137005
0.117054
0.0970886
0.0771014
0.0571008
0.0370788
0.0170419
-0.00301518
-0.0230872
-0.0431807
-0.0632866
-0.083416
-0.103561
-0.123722
-0.143902
-0.1641
-0.184315
-0.204547
-0.224799
-0.245064
-0.265352
-0.285651
-0.305973
-0.326305
-0.346657
-0.367027
-0.387412
-0.40781
-0.428225
-0.448655
-0.469101
-0.48956
-0.510033
-0.530518
-0.551019
-0.571531
-0.592052
-0.612588
-0.633129
-0.653685
-0.674249
-0.694817
-0.715395
-0.73598
-0.756572
-0.777164
-0.797759
-0.818352
-0.838949
-0.859547
-0.880139
-0.900732
-0.921315
-0.941889
-0.96246
-0.983017
-1.00356
-1.02409
-1.04459
-1.06509
-1.08556
-1.106
-1.12641
-1.1468
-1.16715
-1.18747
-1.20774
-1.22797
-1.24815
-1.26829
-1.28837
-1.30839
-1.32834
-1.34823
-1.36804
-1.38778
-1.40744
-1.427
-1.44646
-1.46584
-1.4851
-1.50425
-1.52328
-1.54218
-1.56096
-1.5796
-1.59811
-1.6165
-1.63481
-1.65313
-1.67162
-1.69036
-1.70903
-1.72687
-1.74339
-1.75896
2.01345
2.00251
1.99118
1.97887
1.9656
1.95185
1.93802
1.92419
1.91029
1.89624
1.88198
1.86752
1.85285
1.83797
1.82289
1.80761
1.79215
1.77651
1.76069
1.74471
1.72857
1.71228
1.69584
1.67926
1.66255
1.64571
1.62875
1.61167
1.59448
1.57718
1.55977
1.54227
1.52467
1.50697
1.48919
1.47133
1.45338
1.43535
1.41725
1.39907
1.38083
1.36252
1.34414
1.32571
1.30721
1.28866
1.27005
1.25139
1.23267
1.21391
1.1951
1.17625
1.15735
1.13841
1.11943
1.10041
1.08135
1.06225
1.04312
1.02395
1.00475
0.985516
0.966249
0.946956
0.927627
0.908274
0.888892
0.869482
0.850045
0.830583
0.811094
0.791582
0.772043
0.752485
0.7329
0.713293
0.693662
0.674013
0.654339
0.634644
0.614931
0.595195
0.575437
0.555662
0.535866
0.51605
0.496216
0.47636
0.456488
0.436595
0.416686
0.396755
0.376807
0.356842
0.336854
0.316855
0.296831
0.276794
0.256735
0.236661
0.216567
0.196458
0.176327
0.156183
0.136016
0.115839
0.0956357
0.075421
0.0551868
0.0349336
0.0146659
-0.00562157
-0.0259237
-0.0462463
-0.0665832
-0.0869388
-0.10731
-0.127698
-0.148106
-0.168527
-0.188964
-0.209419
-0.22989
-0.250375
-0.270879
-0.291395
-0.311929
-0.332474
-0.353038
-0.373612
-0.394204
-0.414806
-0.435423
-0.456053
-0.476694
-0.497346
-0.518014
-0.538686
-0.559372
-0.580063
-0.600769
-0.621479
-0.642197
-0.662919
-0.68365
-0.70438
-0.725118
-0.745858
-0.766597
-0.787336
-0.808076
-0.828812
-0.849542
-0.870266
-0.890987
-0.911698
-0.932397
-0.953082
-0.973758
-0.994411
-1.01505
-1.03567
-1.05626
-1.07683
-1.09737
-1.11788
-1.13836
-1.1588
-1.1792
-1.19955
-1.21986
-1.24012
-1.26033
-1.28047
-1.30056
-1.32058
-1.34053
-1.3604
-1.38019
-1.3999
-1.41952
-1.43903
-1.45845
-1.47776
-1.49695
-1.51602
-1.53497
-1.55379
-1.57246
-1.59101
-1.60943
-1.62775
-1.64603
-1.66438
-1.68294
-1.70158
-1.71979
-1.73694
-1.75302
-1.7688
2.02009
2.00922
1.99815
1.98638
1.97365
1.9602
1.94647
1.9327
1.91888
1.90494
1.89083
1.87652
1.86199
1.84725
1.8323
1.81715
1.8018
1.78627
1.77055
1.75467
1.73862
1.7224
1.70604
1.68952
1.67287
1.65608
1.63916
1.62212
1.60495
1.58767
1.57028
1.55278
1.53518
1.51748
1.49968
1.4818
1.46382
1.44576
1.42762
1.4094
1.39111
1.37274
1.35431
1.3358
1.31723
1.2986
1.2799
1.26116
1.24235
1.22349
1.20457
1.18561
1.1666
1.14754
1.12843
1.10928
1.09009
1.07086
1.05158
1.03227
1.01292
0.993534
0.974113
0.954655
0.935167
0.915644
0.896089
0.876505
0.85689
0.837247
0.817575
0.797874
0.778147
0.758394
0.738613
0.718808
0.698979
0.679124
0.659245
0.639342
0.619416
0.59947
0.579497
0.559505
0.539492
0.519455
0.499399
0.47932
0.459225
0.439103
0.418967
0.398807
0.378629
0.358431
0.338214
0.317979
0.297723
0.277449
0.257156
0.236846
0.216515
0.196169
0.175802
0.155418
0.135016
0.114598
0.0941606
0.0737064
0.0532353
0.0327454
0.0122425
-0.00828373
-0.0288197
-0.0493767
-0.0699481
-0.0905382
-0.111141
-0.13176
-0.152398
-0.173047
-0.193714
-0.214395
-0.235091
-0.2558
-0.276523
-0.29726
-0.318011
-0.338774
-0.359549
-0.380338
-0.401137
-0.421947
-0.442769
-0.463599
-0.484442
-0.505292
-0.526149
-0.547015
-0.567888
-0.588766
-0.609651
-0.630536
-0.651431
-0.672326
-0.693222
-0.714115
-0.735012
-0.755906
-0.776794
-0.797681
-0.818565
-0.83944
-0.860302
-0.881156
-0.901999
-0.922829
-0.943639
-0.964437
-0.985212
-1.00597
-1.02669
-1.0474
-1.06807
-1.08872
-1.10933
-1.1299
-1.15043
-1.17092
-1.19136
-1.21175
-1.23209
-1.25237
-1.27259
-1.29275
-1.31283
-1.33285
-1.35278
-1.37264
-1.39239
-1.41207
-1.43164
-1.45111
-1.47046
-1.48971
-1.50882
-1.52781
-1.54667
-1.56539
-1.58397
-1.60242
-1.62076
-1.63902
-1.6573
-1.67569
-1.69423
-1.71259
-1.73021
-1.74677
-1.76265
-1.77849
2.02654
2.01583
2.00493
1.9936
1.98141
1.96839
1.95487
1.94119
1.92745
1.91362
1.89964
1.88547
1.87108
1.85649
1.84168
1.82666
1.81144
1.79602
1.78041
1.76463
1.74867
1.73255
1.71626
1.69982
1.68323
1.66649
1.64962
1.63262
1.61549
1.59824
1.58086
1.56338
1.54578
1.52808
1.51028
1.49238
1.47438
1.4563
1.43812
1.41986
1.40152
1.3831
1.3646
1.34604
1.3274
1.30869
1.28991
1.27108
1.25218
1.23322
1.2142
1.19513
1.17601
1.15683
1.1376
1.11832
1.099
1.07963
1.06021
1.04076
1.02126
1.00172
0.982137
0.962519
0.942864
0.923173
0.903445
0.883685
0.863889
0.844062
0.824204
0.804313
0.784393
0.764441
0.744464
0.724456
0.704423
0.684361
0.66427
0.644158
0.624014
0.603853
0.583662
0.563448
0.543213
0.52295
0.502667
0.482361
0.462033
0.441683
0.421312
0.400917
0.380505
0.360068
0.339615
0.319139
0.298644
0.278132
0.257596
0.237044
0.216472
0.195882
0.175271
0.154646
0.134001
0.113337
0.0926587
0.0719593
0.0512466
0.0305131
0.00976576
-0.010998
-0.0317784
-0.0525742
-0.073385
-0.0942145
-0.115054
-0.135912
-0.156783
-0.177665
-0.198567
-0.219476
-0.240404
-0.261341
-0.28229
-0.303251
-0.324222
-0.345208
-0.3662
-0.387205
-0.408216
-0.429237
-0.450268
-0.471303
-0.492347
-0.513396
-0.53445
-0.555508
-0.57657
-0.597636
-0.618704
-0.639768
-0.660836
-0.681903
-0.702966
-0.724024
-0.745085
-0.76613
-0.787173
-0.808203
-0.829227
-0.850238
-0.871236
-0.892214
-0.91318
-0.934125
-0.955049
-0.975949
-0.996826
-1.01767
-1.03849
-1.05928
-1.08003
-1.10074
-1.12141
-1.14205
-1.16263
-1.18316
-1.20364
-1.22406
-1.24442
-1.26473
-1.28495
-1.30511
-1.32519
-1.3452
-1.36511
-1.38493
-1.40466
-1.42428
-1.44381
-1.46321
-1.48251
-1.50167
-1.52071
-1.53961
-1.55837
-1.57699
-1.59547
-1.61383
-1.63209
-1.65033
-1.66861
-1.687
-1.70538
-1.72331
-1.74033
-1.75644
-1.77224
-1.78802
2.03277
2.02231
2.01159
2.00057
1.98891
1.97636
1.96316
1.94964
1.936
1.92226
1.9084
1.89437
1.88013
1.86569
1.85102
1.83614
1.82106
1.80576
1.79028
1.7746
1.75874
1.74271
1.72651
1.71015
1.69363
1.67696
1.66014
1.64319
1.6261
1.60888
1.59153
1.57406
1.55648
1.53878
1.52098
1.50306
1.48505
1.46694
1.44874
1.43044
1.41206
1.3936
1.37504
1.35642
1.33771
1.31893
1.30008
1.28115
1.26217
1.24311
1.224
1.20482
1.18558
1.16629
1.14693
1.12753
1.10808
1.08857
1.06901
1.04941
1.02976
1.01007
0.990329
0.970546
0.950727
0.930863
0.910962
0.891024
0.871045
0.85103
0.830984
0.810901
0.790782
0.770634
0.750453
0.730243
0.709999
0.689724
0.669423
0.649091
0.628734
0.608346
0.587935
0.567493
0.54703
0.526539
0.506023
0.485483
0.464919
0.444333
0.423723
0.403089
0.382434
0.361758
0.341059
0.320338
0.2996
0.278837
0.258058
0.237256
0.216436
0.195596
0.17474
0.153861
0.132969
0.112056
0.0911255
0.0701801
0.0492161
0.0282351
0.00723955
-0.0137716
-0.0347987
-0.0558413
-0.0768983
-0.0979698
-0.119053
-0.140153
-0.161264
-0.182389
-0.203524
-0.224672
-0.24583
-0.267002
-0.288184
-0.309371
-0.33057
-0.351776
-0.372994
-0.394216
-0.415443
-0.43668
-0.457922
-0.479165
-0.500413
-0.521665
-0.542915
-0.564171
-0.585424
-0.606679
-0.627929
-0.649176
-0.670423
-0.691658
-0.712889
-0.734114
-0.755332
-0.776536
-0.797726
-0.818905
-0.840065
-0.861214
-0.88234
-0.903449
-0.92453
-0.945594
-0.966622
-0.987625
-1.0086
-1.02954
-1.05044
-1.07131
-1.09213
-1.11291
-1.13364
-1.15433
-1.17495
-1.19552
-1.21604
-1.23649
-1.25687
-1.27718
-1.29741
-1.31756
-1.33763
-1.35761
-1.3775
-1.39729
-1.41698
-1.43655
-1.45601
-1.47535
-1.49457
-1.51366
-1.5326
-1.55141
-1.57007
-1.58858
-1.60697
-1.62525
-1.64346
-1.66167
-1.67994
-1.69825
-1.71632
-1.73374
-1.75021
-1.76605
-1.78174
-1.79735
2.0388
2.02863
2.01814
2.00737
1.99611
1.98409
1.97129
1.95801
1.9445
1.93088
1.91713
1.90323
1.88914
1.87484
1.86033
1.84559
1.83064
1.81548
1.80012
1.78456
1.76882
1.75289
1.73678
1.7205
1.70406
1.68746
1.67071
1.65381
1.63676
1.61958
1.60227
1.58483
1.56726
1.54958
1.53178
1.51386
1.49583
1.47771
1.45948
1.44116
1.42274
1.40422
1.38562
1.36694
1.34817
1.32932
1.31039
1.29139
1.27232
1.25317
1.23395
1.21467
1.19532
1.17591
1.15645
1.13691
1.11733
1.09768
1.07799
1.05824
1.03844
1.01859
0.998692
0.978749
0.958756
0.93872
0.918644
0.898523
0.878363
0.85816
0.837919
0.817642
0.797326
0.776975
0.75659
0.736167
0.715711
0.695224
0.674704
0.654153
0.633571
0.612958
0.592316
0.571648
0.550949
0.530223
0.509472
0.48869
0.467889
0.447058
0.426203
0.405324
0.384423
0.363496
0.342549
0.321579
0.300585
0.279573
0.258539
0.237483
0.216409
0.195314
0.174201
0.15307
0.131919
0.11075
0.0895665
0.068363
0.0471449
0.0259102
0.00465954
-0.0166073
-0.0378839
-0.0591815
-0.0804877
-0.101809
-0.123144
-0.144488
-0.165846
-0.187215
-0.208594
-0.229983
-0.251382
-0.272789
-0.294204
-0.315629
-0.337056
-0.358491
-0.379933
-0.401377
-0.422827
-0.444281
-0.465734
-0.487191
-0.508645
-0.530102
-0.551558
-0.573008
-0.594454
-0.6159
-0.637334
-0.658765
-0.680187
-0.701597
-0.722997
-0.74439
-0.765761
-0.787119
-0.808461
-0.829785
-0.851087
-0.872369
-0.893623
-0.914853
-0.936055
-0.957228
-0.978367
-0.999467
-1.02053
-1.04157
-1.06255
-1.08349
-1.10438
-1.12522
-1.14601
-1.16674
-1.18741
-1.20801
-1.22855
-1.24902
-1.26941
-1.28973
-1.30996
-1.3301
-1.35015
-1.37011
-1.38996
-1.40971
-1.42934
-1.44886
-1.46825
-1.48752
-1.50666
-1.52565
-1.5445
-1.56321
-1.58176
-1.60018
-1.61848
-1.63667
-1.65484
-1.67303
-1.69124
-1.70935
-1.72701
-1.74387
-1.75993
-1.77559
-1.79114
-1.8065
2.04461
2.03482
2.02457
2.01401
2.0031
1.99154
1.97921
1.96625
1.95294
1.93945
1.92582
1.91205
1.8981
1.88395
1.86959
1.85501
1.8402
1.82518
1.80995
1.79452
1.77889
1.76307
1.74706
1.73088
1.71452
1.698
1.68132
1.66448
1.64749
1.63036
1.61308
1.59567
1.57813
1.56046
1.54267
1.52476
1.50673
1.48859
1.47035
1.452
1.43354
1.41499
1.39635
1.37761
1.35878
1.33986
1.32086
1.30178
1.28262
1.26339
1.24408
1.22469
1.20523
1.18571
1.16612
1.14647
1.12675
1.10697
1.08714
1.06724
1.04729
1.02729
1.00723
0.987122
0.966961
0.946752
0.926495
0.906194
0.885847
0.865453
0.84502
0.824542
0.804026
0.78347
0.762872
0.74224
0.721568
0.700862
0.680119
0.659344
0.638534
0.617689
0.596816
0.575909
0.554975
0.534007
0.513013
0.49199
0.470938
0.44986
0.428756
0.407625
0.386471
0.365288
0.344088
0.322858
0.301609
0.280336
0.259042
0.237726
0.216391
0.195035
0.173659
0.152264
0.130853
0.10942
0.0879763
0.0665095
0.0450309
0.0235341
0.0020234
-0.0195012
-0.0410415
-0.0625935
-0.0841573
-0.105737
-0.127323
-0.148923
-0.170531
-0.192152
-0.21378
-0.235414
-0.257057
-0.278706
-0.300363
-0.322021
-0.343688
-0.365355
-0.387024
-0.408697
-0.43037
-0.452045
-0.473716
-0.495384
-0.517052
-0.538715
-0.560374
-0.582024
-0.603668
-0.6253
-0.646926
-0.668538
-0.690136
-0.711723
-0.733292
-0.754848
-0.77638
-0.797891
-0.819385
-0.840851
-0.862291
-0.883703
-0.905087
-0.926436
-0.947753
-0.969038
-0.990281
-1.01148
-1.03264
-1.05375
-1.07481
-1.09582
-1.11677
-1.13767
-1.15851
-1.17928
-1.19999
-1.22063
-1.24118
-1.26166
-1.28206
-1.30238
-1.32259
-1.34272
-1.36275
-1.38267
-1.40248
-1.42217
-1.44176
-1.4612
-1.48053
-1.49971
-1.51876
-1.53766
-1.55641
-1.575
-1.59346
-1.61178
-1.62999
-1.64813
-1.66624
-1.68437
-1.70244
-1.72024
-1.73743
-1.7538
-1.76954
-1.78507
-1.80044
-1.81545
2.0502
2.04081
2.03086
2.02051
2.00989
1.99874
1.98688
1.97432
1.96128
1.94796
1.93447
1.92082
1.90702
1.89302
1.87882
1.86439
1.84973
1.83486
1.81977
1.80447
1.78896
1.77326
1.75736
1.74128
1.72502
1.70858
1.69197
1.6752
1.65828
1.6412
1.62397
1.6066
1.58909
1.57144
1.55366
1.53576
1.51774
1.4996
1.48134
1.46296
1.44448
1.4259
1.40721
1.38843
1.36954
1.35056
1.33149
1.31234
1.2931
1.27377
1.25437
1.23488
1.21532
1.19569
1.17598
1.1562
1.13636
1.11644
1.09647
1.07643
1.05633
1.03617
1.01595
0.995674
0.975346
0.954962
0.934525
0.914037
0.893502
0.87292
0.852286
0.831608
0.810886
0.79012
0.769312
0.748462
0.72757
0.706642
0.685672
0.664665
0.643625
0.622545
0.601435
0.580285
0.559107
0.537896
0.516652
0.495379
0.474077
0.452742
0.431385
0.409992
0.388581
0.367138
0.345672
0.32418
0.302667
0.281127
0.259568
0.237984
0.216382
0.194757
0.173114
0.151449
0.129769
0.108069
0.086353
0.0646183
0.042873
0.0211047
-0.000669414
-0.0224635
-0.0442675
-0.0660829
-0.0879125
-0.109751
-0.131599
-0.15346
-0.175324
-0.1972
-0.21908
-0.240968
-0.262862
-0.284757
-0.306659
-0.328561
-0.350466
-0.37237
-0.394275
-0.416177
-0.438081
-0.459976
-0.481867
-0.503755
-0.525637
-0.547509
-0.56937
-0.591223
-0.613065
-0.634891
-0.656704
-0.678503
-0.700279
-0.722038
-0.743778
-0.765497
-0.787188
-0.808857
-0.830493
-0.852105
-0.87368
-0.895227
-0.916732
-0.938204
-0.959633
-0.981022
-1.00237
-1.02366
-1.0449
-1.06609
-1.08723
-1.10831
-1.12932
-1.15027
-1.17115
-1.19196
-1.2127
-1.23336
-1.25393
-1.27442
-1.29481
-1.31512
-1.33532
-1.35542
-1.37541
-1.39529
-1.41506
-1.43469
-1.45421
-1.47359
-1.49282
-1.51192
-1.53087
-1.54967
-1.56831
-1.58681
-1.60515
-1.62338
-1.6415
-1.65958
-1.67763
-1.69565
-1.71349
-1.7309
-1.74759
-1.76355
-1.77907
-1.79445
-1.80959
-1.82423
2.05558
2.04658
2.03698
2.0269
2.01652
2.00573
1.9943
1.98218
1.96947
1.95638
1.94305
1.92956
1.91589
1.90205
1.88799
1.87372
1.85922
1.8445
1.82956
1.8144
1.79902
1.78345
1.76767
1.75169
1.73553
1.71919
1.70267
1.68598
1.66912
1.6521
1.63493
1.6176
1.60013
1.58251
1.56476
1.54687
1.52885
1.51071
1.49244
1.47406
1.45555
1.43694
1.41822
1.39939
1.38045
1.36142
1.34228
1.32306
1.30374
1.28433
1.26483
1.24525
1.22559
1.20584
1.18602
1.16612
1.14615
1.1261
1.10599
1.0858
1.06555
1.04523
1.02485
1.00441
0.983913
0.963353
0.942736
0.922062
0.901336
0.880556
0.859725
0.838842
0.817911
0.796932
0.775908
0.754838
0.733724
0.712568
0.691366
0.670129
0.64885
0.627529
0.606176
0.584781
0.563354
0.541891
0.520392
0.498865
0.477301
0.45571
0.434086
0.412433
0.390752
0.369044
0.347308
0.325548
0.303761
0.281951
0.260117
0.238259
0.216382
0.194481
0.172562
0.150623
0.128665
0.106691
0.0846976
0.0626893
0.0406663
0.0186265
-0.00342566
-0.0254885
-0.047568
-0.0696529
-0.0917523
-0.113861
-0.135974
-0.1581
-0.180228
-0.202367
-0.224507
-0.246649
-0.268799
-0.290947
-0.313097
-0.335247
-0.357395
-0.379542
-0.401685
-0.423824
-0.445956
-0.468082
-0.490198
-0.512306
-0.534402
-0.556487
-0.578558
-0.600612
-0.622653
-0.644676
-0.666677
-0.688661
-0.710619
-0.732553
-0.754461
-0.776342
-0.798193
-0.820014
-0.841798
-0.86355
-0.885262
-0.906939
-0.928567
-0.950154
-0.971692
-0.993186
-1.01463
-1.03601
-1.05734
-1.0786
-1.09981
-1.12094
-1.14202
-1.16301
-1.18393
-1.20477
-1.22553
-1.2462
-1.26678
-1.28728
-1.30767
-1.32795
-1.34813
-1.3682
-1.38815
-1.40798
-1.42769
-1.44726
-1.4667
-1.48599
-1.50515
-1.52415
-1.54299
-1.56168
-1.58022
-1.5986
-1.61685
-1.63498
-1.65303
-1.67103
-1.68898
-1.70682
-1.72435
-1.7413
-1.75755
-1.77318
-1.78852
-1.80371
-1.81853
-1.8328
2.0607
2.05215
2.04294
2.03314
2.023
2.0125
2.00149
1.98981
1.97749
1.96468
1.95156
1.93823
1.92471
1.91102
1.89712
1.88301
1.86867
1.85411
1.83932
1.82431
1.80907
1.79363
1.77797
1.76212
1.74607
1.72982
1.7134
1.69679
1.68001
1.66306
1.64595
1.62868
1.61125
1.59367
1.57594
1.55808
1.54008
1.52194
1.50367
1.48528
1.46676
1.44812
1.42937
1.4105
1.39152
1.37243
1.35324
1.33394
1.31455
1.29506
1.27548
1.2558
1.23603
1.21618
1.19625
1.17623
1.15613
1.13595
1.1157
1.09537
1.07496
1.05449
1.03395
1.01334
0.992666
0.971931
0.95113
0.930269
0.909348
0.888372
0.86734
0.846249
0.825107
0.803914
0.782669
0.761378
0.740033
0.718648
0.697211
0.675735
0.654211
0.632648
0.611043
0.589402
0.567715
0.545998
0.524239
0.502449
0.48062
0.458762
0.43687
0.414945
0.392993
0.371008
0.348999
0.326961
0.304895
0.282803
0.260692
0.238551
0.216393
0.194207
0.172008
0.149784
0.127542
0.105283
0.08301
0.0607171
0.0384119
0.0160909
-0.00624176
-0.0285855
-0.0509432
-0.0733069
-0.0956834
-0.118063
-0.140456
-0.162848
-0.185249
-0.207651
-0.23006
-0.252465
-0.274876
-0.297279
-0.319688
-0.342087
-0.364485
-0.386877
-0.409262
-0.431641
-0.454007
-0.476363
-0.498709
-0.52104
-0.543356
-0.565653
-0.587937
-0.610198
-0.632439
-0.654657
-0.676852
-0.699019
-0.721156
-0.743267
-0.765344
-0.78739
-0.809399
-0.831368
-0.853305
-0.875194
-0.897039
-0.918842
-0.940591
-0.962291
-0.983937
-1.00553
-1.02706
-1.04853
-1.06994
-1.09127
-1.11254
-1.13374
-1.15485
-1.17589
-1.19684
-1.21771
-1.23849
-1.25917
-1.27976
-1.30023
-1.32061
-1.34087
-1.36102
-1.38105
-1.40095
-1.42073
-1.44037
-1.45987
-1.47923
-1.49843
-1.51749
-1.53639
-1.55512
-1.5737
-1.59212
-1.6104
-1.62854
-1.64658
-1.66454
-1.68244
-1.70025
-1.71783
-1.73498
-1.75149
-1.76732
-1.78271
-1.79789
-1.81284
-1.8273
-1.84115
2.06559
2.05747
2.04867
2.03923
2.02934
2.01911
2.00846
1.9972
1.98529
1.97283
1.95996
1.94682
1.93347
1.91994
1.9062
1.89225
1.87808
1.86368
1.84905
1.83419
1.81911
1.8038
1.78828
1.77255
1.75661
1.74048
1.72416
1.70764
1.69095
1.67408
1.65703
1.63982
1.62245
1.60491
1.58723
1.56939
1.55141
1.53328
1.51502
1.49663
1.47809
1.45944
1.44066
1.42176
1.40273
1.3836
1.36435
1.34499
1.32553
1.30596
1.2863
1.26653
1.24667
1.22671
1.20666
1.18652
1.1663
1.14599
1.1256
1.10512
1.08457
1.06394
1.04324
1.02246
1.00162
0.9807
0.959716
0.938666
0.917552
0.896375
0.875135
0.85384
0.832482
0.811069
0.789602
0.768082
0.746506
0.724882
0.70321
0.681487
0.659718
0.637907
0.616045
0.594146
0.572202
0.550219
0.528196
0.506134
0.484039
0.461902
0.439737
0.417535
0.395302
0.373037
0.350743
0.328419
0.306068
0.283692
0.26129
0.23886
0.216413
0.193938
0.171445
0.148933
0.126401
0.10385
0.0812846
0.0587024
0.0361068
0.0134967
-0.0091216
-0.0317575
-0.0543967
-0.077049
-0.0997063
-0.12237
-0.145041
-0.167711
-0.190391
-0.213065
-0.235743
-0.25842
-0.281093
-0.303763
-0.32643
-0.349088
-0.371739
-0.394382
-0.417016
-0.439633
-0.462241
-0.484832
-0.507407
-0.529964
-0.552502
-0.575021
-0.597514
-0.619982
-0.642425
-0.664844
-0.687228
-0.709583
-0.731901
-0.754186
-0.776435
-0.798642
-0.82081
-0.842932
-0.865009
-0.887038
-0.909012
-0.930939
-0.952806
-0.974618
-0.996365
-1.01805
-1.03968
-1.06123
-1.08271
-1.10411
-1.12544
-1.14668
-1.16784
-1.18892
-1.2099
-1.23078
-1.25157
-1.27225
-1.29283
-1.3133
-1.33365
-1.35388
-1.37399
-1.39397
-1.41382
-1.43353
-1.4531
-1.47252
-1.49179
-1.5109
-1.52985
-1.54863
-1.56726
-1.58572
-1.60402
-1.62218
-1.64023
-1.65817
-1.67602
-1.6938
-1.71139
-1.72865
-1.74538
-1.76146
-1.77697
-1.79214
-1.80713
-1.82178
-1.83586
-1.84927
2.07021
2.06253
2.05417
2.04512
2.03553
2.02557
2.01523
2.00436
1.99288
1.98079
1.96822
1.95532
1.94216
1.92879
1.91522
1.90144
1.88744
1.87321
1.85874
1.84404
1.82911
1.81396
1.79858
1.78298
1.76717
1.75116
1.73494
1.71853
1.70193
1.68515
1.66818
1.65104
1.63372
1.61624
1.5986
1.5808
1.56285
1.54474
1.52649
1.5081
1.48956
1.4709
1.45209
1.43317
1.41411
1.39493
1.37563
1.35622
1.33669
1.31705
1.2973
1.27744
1.25748
1.23742
1.21727
1.19701
1.17667
1.15623
1.1357
1.11508
1.09438
1.0736
1.05273
1.03179
1.01077
0.989671
0.968501
0.947259
0.925949
0.904567
0.883124
0.861613
0.84004
0.818404
0.796709
0.774958
0.753149
0.731283
0.709366
0.687396
0.665375
0.643305
0.621186
0.599021
0.576813
0.554559
0.532264
0.509929
0.487552
0.46514
0.442689
0.420202
0.397683
0.375127
0.352545
0.329927
0.307285
0.284612
0.261914
0.239188
0.216443
0.193671
0.17088
0.148066
0.125238
0.102387