/*--------------------------------*- C++ -*----------------------------------*\
  =========                 |
  \\      /  F ield         | OpenFOAM: The Open Source CFD Toolbox
   \\    /   O peration     | Website:  https://openfoam.org
    \\  /    A nd           | Version:  8
     \\/     M anipulation  |
\*---------------------------------------------------------------------------*/
FoamFile
{
    version     2.0;
    format      ascii;
    class       volVectorField;
    location    "0.2";
    object      U;
}
// * * * * * * * * * * * * * * * * * * * * * * * * * * * * * * * * * * * * * //

dimensions      [0 1 -1 0 0 0 0];

internalField   nonuniform List<vector> 
112659
(
(14.9999 6.83999e-08 -3.83617e-24)
(15 9.43402e-07 -9.97117e-23)
(14.9999 2.43597e-06 -5.952e-22)
(14.9999 5.74474e-06 1.87847e-22)
(14.9999 9.07782e-06 3.39045e-21)
(14.9998 1.22833e-05 -3.52701e-21)
(14.9998 1.56924e-05 -1.35473e-22)
(14.9998 1.98518e-05 1.4157e-21)
(14.9998 2.44742e-05 4.5217e-21)
(14.9998 2.97761e-05 -7.51601e-21)
(14.9998 3.51646e-05 -2.0091e-22)
(14.9998 4.09746e-05 1.33133e-20)
(14.9998 4.73503e-05 8.82879e-21)
(14.9997 5.36964e-05 9.40354e-21)
(14.9997 6.04826e-05 8.51154e-21)
(14.9997 6.72087e-05 1.43789e-20)
(14.9997 7.41131e-05 -1.08485e-20)
(14.9997 8.1462e-05 1.93495e-20)
(14.9997 8.84965e-05 -1.44533e-20)
(14.9997 9.56081e-05 -2.16156e-20)
(14.9997 0.000102776 -3.91428e-20)
(14.9997 0.000110182 -1.67899e-20)
(14.9997 0.000117251 -1.7437e-20)
(14.9997 0.000124635 -1.00666e-20)
(14.9997 0.00013172 8.65914e-21)
(14.9997 0.000139167 1.91884e-20)
(14.9997 0.000146348 -3.02205e-20)
(14.9997 0.00015342 4.04569e-20)
(14.9997 0.000160657 -2.80177e-22)
(14.9997 0.000167826 2.11056e-20)
(14.9997 0.000175053 2.08897e-20)
(14.9997 0.000181977 2.56631e-22)
(14.9997 0.000188958 2.13852e-20)
(14.9997 0.000195971 2.20616e-20)
(14.9997 0.000202568 -2.2198e-20)
(14.9997 0.000209457 2.48771e-22)
(14.9997 0.000216104 -3.45256e-20)
(14.9997 0.000222766 2.2196e-20)
(14.9997 0.000229646 -9.56957e-21)
(14.9997 0.000236003 4.46865e-20)
(14.9997 0.000242626 -4.46227e-20)
(14.9997 0.000248968 3.56745e-20)
(14.9997 0.000255103 8.51739e-21)
(14.9997 0.000261318 -2.12808e-22)
(14.9997 0.000267552 2.2021e-20)
(14.9997 0.000273478 7.33801e-21)
(14.9997 0.000279689 2.15123e-20)
(14.9997 0.000285632 -3.5849e-20)
(14.9997 0.000291214 -2.13448e-20)
(14.9997 0.000297064 5.0809e-20)
(14.9997 0.00030257 1.51842e-20)
(14.9997 0.000308215 4.09036e-20)
(14.9997 0.000313575 4.04113e-20)
(14.9997 0.000319138 -1.54831e-20)
(14.9997 0.000324347 -1.57936e-20)
(14.9997 0.000329447 -1.93508e-20)
(14.9997 0.000334512 -3.81059e-20)
(14.9997 0.000339608 1.60266e-20)
(14.9997 0.000344325 1.85626e-20)
(14.9997 0.000349237 -1.82221e-20)
(14.9997 0.000353972 1.78869e-20)
(14.9998 0.000358346 -1.32531e-22)
(14.9998 0.00036294 1.71546e-20)
(14.9998 0.00036726 -1.34485e-22)
(14.9998 0.000371612 1.63942e-20)
(14.9998 0.000375854 -3.29957e-20)
(14.9998 0.000379804 0)
(14.9998 0.000384033 -1.51095e-20)
(14.9998 0.000387914 1.47151e-20)
(14.9998 0.000391648 1.43002e-20)
(14.9998 0.000395292 3.13556e-20)
(14.9998 0.000398837 -1.74477e-20)
(14.9998 0.000402222 -2.62659e-20)
(14.9998 0.000405527 3.05144e-20)
(14.9998 0.000408935 -3.5733e-20)
(14.9998 0.000412113 1.77827e-20)
(14.9998 0.00041494 4.07259e-20)
(14.9998 0.000418095 -7.28973e-21)
(14.9999 0.000420852 0)
(14.9999 0.000423564 0)
(14.9999 0.000425996 0)
(14.9999 0.000428599 -9.02657e-21)
(14.9999 0.000431004 0)
(14.9999 0.000433387 -1.03775e-20)
(14.9999 0.000435438 3.69723e-20)
(14.9999 0.000437387 1.44526e-20)
(14.9999 0.000439502 -6.27528e-20)
(14.9999 0.000441264 1.25004e-20)
(14.9999 0.000442987 1.30804e-20)
(14.9999 0.000444587 -1.88007e-20)
(14.9999 0.000446174 -4.77329e-21)
(14.9999 0.000447651 4.28725e-21)
(14.9999 0.000448884 3.74313e-21)
(15 0.000450028 3.4768e-20)
(15 0.000451 4.08887e-20)
(15 0.000451964 -1.68013e-20)
(15 0.000452737 -3.82712e-20)
(15 0.00045352 0)
(15 0.000454051 7.57226e-22)
(15 0.000454518 1.9238e-20)
(15 0.000454892 -2.43481e-22)
(15 0.000455173 -1.84892e-20)
(15 0.000455389 0)
(15 0.000455352 3.84913e-20)
(15 0.000455324 -9.12206e-21)
(15 0.000455102 -1.64165e-20)
(15 0.000454872 -6.60831e-21)
(15.0001 0.000454466 -1.92008e-20)
(15.0001 0.000453969 -2.35166e-20)
(15.0001 0.000453222 9.65443e-21)
(15.0001 0.000452361 5.26791e-21)
(15.0001 0.000451484 1.91936e-20)
(15.0001 0.000450479 -6.41008e-21)
(15.0001 0.000449431 1.92248e-20)
(15.0001 0.000448018 -1.47827e-20)
(15.0001 0.000446774 -1.10631e-20)
(15.0001 0.00044542 -2.74814e-20)
(15.0001 0.000443722 8.99252e-21)
(15.0001 0.000441996 4.74152e-20)
(15.0001 0.000440061 -2.87253e-20)
(15.0001 0.000438299 -1.88224e-20)
(15.0002 0.000436241 2.15561e-20)
(15.0002 0.000434133 1.88342e-20)
(15.0002 0.000431604 6.94608e-21)
(15.0002 0.000429412 -6.19389e-20)
(15.0002 0.000426847 1.28865e-20)
(15.0002 0.000424036 5.26045e-21)
(15.0002 0.000421326 -3.7051e-20)
(15.0002 0.000418525 4.68996e-20)
(15.0002 0.00041555 3.67035e-21)
(15.0002 0.000412462 -1.83e-20)
(15.0002 0.000409272 -1.26774e-20)
(15.0002 0.000405918 3.41369e-20)
(15.0002 0.000402188 -3.46142e-20)
(15.0002 0.000398744 1.57121e-20)
(15.0002 0.000394981 1.80607e-20)
(15.0003 0.000391091 1.78371e-20)
(15.0003 0.000387225 -3.60598e-20)
(15.0003 0.000383055 -5.40475e-20)
(15.0003 0.000379112 1.7231e-22)
(15.0003 0.00037477 1.74935e-20)
(15.0003 0.000370226 0)
(15.0003 0.000365881 2.01828e-20)
(15.0003 0.000361114 0)
(15.0003 0.000356367 -1.7227e-20)
(15.0003 0.00035157 2.15e-20)
(15.0003 0.000346641 -4.84016e-21)
(15.0003 0.000341313 2.19995e-20)
(15.0003 0.00033619 1.67461e-20)
(15.0003 0.000330741 -4.54418e-20)
(15.0003 0.000325429 -9.80252e-21)
(15.0003 0.000319723 7.11692e-21)
(15.0003 0.000314294 3.96897e-20)
(15.0003 0.000308451 -7.92916e-21)
(15.0003 0.000302293 0)
(15.0004 0.000296431 8.49724e-21)
(15.0004 0.000290209 4.01219e-20)
(15.0004 0.000283987 3.93617e-20)
(15.0004 0.000277834 -3.96012e-20)
(15.0004 0.000271429 9.90301e-21)
(15.0004 0.000264685 2.57835e-22)
(15.0004 0.000258216 1.42412e-20)
(15.0004 0.000251135 -1.42523e-20)
(15.0004 0.000244275 2.83328e-20)
(15.0004 0.000237405 1.68875e-21)
(15.0004 0.000230232 -5.17113e-20)
(15.0004 0.000223366 -1.29562e-20)
(15.0004 0.000215995 -1.18067e-20)
(15.0004 0.000208629 -2.94583e-22)
(15.0004 0.000201298 3.19055e-22)
(15.0004 0.000193585 1.17294e-20)
(15.0004 0.000185904 3.94762e-25)
(15.0004 0.000178107 -6.93752e-20)
(15.0004 0.000170466 3.55783e-20)
(15.0004 0.000162658 -3.46726e-20)
(15.0004 0.000154496 3.20846e-20)
(15.0004 0.000146718 -3.14111e-20)
(15.0004 0.000138542 2.6499e-21)
(15.0004 0.000130692 2.8859e-20)
(15.0004 0.000122393 -2.60792e-21)
(15.0004 0.000114326 -1.86141e-20)
(15.0004 0.000106273 1.77257e-20)
(15.0003 9.82566e-05 6.64729e-21)
(15.0003 8.98005e-05 -8.90397e-21)
(15.0003 8.18206e-05 -3.46442e-20)
(15.0003 7.39937e-05 1.60184e-20)
(15.0003 6.60262e-05 -1.18995e-20)
(15.0003 5.85303e-05 6.36475e-21)
(15.0003 5.09246e-05 1.34096e-20)
(15.0003 4.3951e-05 -5.42949e-21)
(15.0003 3.74318e-05 1.71355e-21)
(15.0002 3.09476e-05 5.97908e-21)
(15.0002 2.52507e-05 -6.65659e-21)
(15.0002 2.00797e-05 3.94368e-21)
(15.0002 1.58176e-05 1.77995e-21)
(15.0002 1.17653e-05 2.52533e-21)
(15.0002 7.44263e-06 -1.21298e-21)
(15.0001 3.15927e-06 -7.99354e-22)
(15 1.17707e-06 3.99122e-22)
(15.0001 1.34377e-07 -4.70083e-23)
(14.9983 9.78648e-06 7.21051e-23)
(14.9993 2.38504e-05 -8.14096e-22)
(14.9996 1.37252e-05 -2.02284e-22)
(14.9995 2.28492e-05 -3.3795e-21)
(14.9993 4.1897e-05 4.80668e-21)
(14.9993 6.04545e-05 -3.59328e-21)
(14.9992 7.56922e-05 -7.74231e-21)
(14.9992 9.04366e-05 2.90973e-22)
(14.9992 0.000105744 2.64872e-21)
(14.9992 0.000122253 6.21156e-22)
(14.9991 0.000138986 -8.93246e-21)
(14.9991 0.000156158 4.78083e-21)
(14.9991 0.000174127 1.44272e-20)
(14.9991 0.000192374 -9.72333e-21)
(14.9991 0.000211459 4.01566e-20)
(14.999 0.000230805 3.51245e-21)
(14.999 0.000250404 -2.64731e-20)
(14.999 0.000270726 -3.66999e-21)
(14.999 0.000290953 1.75152e-20)
(14.999 0.000311433 -7.62675e-23)
(14.999 0.000332032 -9.36999e-21)
(14.999 0.000353069 -3.27783e-20)
(14.999 0.000373753 -2.32927e-20)
(14.999 0.000394866 -7.22222e-23)
(14.999 0.000415649 -1.08134e-20)
(14.9989 0.00043688 2.20502e-20)
(14.9989 0.000458013 9.23569e-22)
(14.9989 0.000478934 6.79336e-22)
(14.9989 0.000499873 -1.29885e-20)
(14.9989 0.000520809 -1.2354e-20)
(14.9989 0.000541705 1.23855e-20)
(14.9989 0.000562327 6.41459e-22)
(14.9989 0.000583019 -3.96698e-20)
(14.9989 0.00060364 1.05207e-19)
(14.9989 0.000623715 1.3942e-20)
(14.999 0.000644017 2.59905e-20)
(14.999 0.000663853 -2.83382e-20)
(14.999 0.000683683 -5.0312e-22)
(14.999 0.000703807 2.62968e-20)
(14.999 0.000723075 6.55406e-20)
(14.999 0.000742642 4.12087e-20)
(14.999 0.000761706 -5.41245e-21)
(14.999 0.000780425 2.51948e-20)
(14.999 0.000799086 0)
(14.999 0.000817659 9.09905e-21)
(14.999 0.00083573 -1.60441e-20)
(14.999 0.000854077 5.62449e-20)
(14.999 0.000871757 -3.13603e-20)
(14.9991 0.000888927 -5.65263e-20)
(14.9991 0.000906351 1.62558e-20)
(14.9991 0.000923351 2.34881e-20)
(14.9991 0.000940125 1.17241e-20)
(14.9991 0.000956403 7.86126e-20)
(14.9991 0.000972963 3.94832e-20)
(14.9991 0.000988779 -1.84457e-22)
(14.9991 0.00100439 1.32774e-20)
(14.9992 0.00101984 -1.72387e-20)
(14.9992 0.00103496 -3.53382e-20)
(14.9992 0.00104957 5.81224e-20)
(14.9992 0.00106429 3.98517e-20)
(14.9992 0.00107848 1.4877e-21)
(14.9992 0.00109218 0)
(14.9993 0.00110598 1.86512e-20)
(14.9993 0.00111922 -1.82115e-20)
(14.9993 0.00113228 3.60244e-20)
(14.9993 0.00114499 1.03965e-22)
(14.9993 0.00115738 -1.33026e-22)
(14.9993 0.00116976 -3.48472e-20)
(14.9994 0.00118154 -3.74575e-20)
(14.9994 0.00119296 7.85407e-24)
(14.9994 0.00120404 3.75745e-20)
(14.9994 0.00121497 3.79684e-20)
(14.9994 0.00122545 -1.90003e-20)
(14.9994 0.00123551 8.22922e-21)
(14.9995 0.00124563 -1.91117e-20)
(14.9995 0.00125523 -3.20155e-20)
(14.9995 0.00126428 1.22685e-20)
(14.9995 0.00127353 1.93524e-20)
(14.9995 0.00128205 3.07685e-20)
(14.9996 0.00129029 -1.07688e-20)
(14.9996 0.00129799 2.98421e-20)
(14.9996 0.00130571 9.83622e-21)
(14.9996 0.00131302 -4.87032e-20)
(14.9996 0.00132011 -1.9811e-20)
(14.9997 0.00132654 1.9814e-20)
(14.9997 0.00133268 3.54159e-20)
(14.9997 0.00133877 -4.54045e-24)
(14.9997 0.0013444 1.99932e-20)
(14.9998 0.00134959 4.93222e-23)
(14.9998 0.0013545 -2.57865e-20)
(14.9998 0.00135933 -2.52767e-20)
(14.9998 0.00136358 -4.50107e-20)
(14.9998 0.00136738 3.63553e-20)
(14.9999 0.00137085 4.06113e-20)
(14.9999 0.00137403 9.007e-21)
(14.9999 0.00137712 7.42461e-21)
(14.9999 0.00137955 -2.23807e-20)
(14.9999 0.00138185 -2.04679e-20)
(15 0.00138347 -6.69298e-24)
(15 0.00138493 2.02364e-20)
(15 0.00138609 2.03125e-20)
(15 0.00138694 -6.19593e-24)
(15.0001 0.00138763 -2.05514e-20)
(15.0001 0.00138764 -4.11349e-20)
(15.0001 0.0013875 1.57333e-20)
(15.0001 0.00138671 1.75102e-20)
(15.0001 0.00138582 -2.39932e-20)
(15.0002 0.00138463 -3.81407e-23)
(15.0002 0.00138311 1.59284e-20)
(15.0002 0.00138111 4.09391e-20)
(15.0002 0.00137853 -4.66617e-20)
(15.0003 0.00137586 -2.03591e-20)
(15.0003 0.00137289 -3.84941e-23)
(15.0003 0.00136947 7.37402e-21)
(15.0003 0.00136556 4.61815e-21)
(15.0003 0.00136158 1.68134e-20)
(15.0004 0.00135731 -2.038e-20)
(15.0004 0.00135235 9.54793e-21)
(15.0004 0.00134714 2.05533e-22)
(15.0004 0.00134149 -1.05663e-20)
(15.0004 0.00133585 5.16123e-20)
(15.0005 0.00132964 -1.5936e-22)
(15.0005 0.00132312 -4.02059e-20)
(15.0005 0.00131583 -3.28564e-20)
(15.0005 0.00130873 7.16776e-23)
(15.0006 0.00130103 4.7434e-20)
(15.0006 0.00129277 -1.42719e-20)
(15.0006 0.00128455 2.00081e-20)
(15.0006 0.00127588 3.05226e-20)
(15.0006 0.0012667 -3.55811e-20)
(15.0007 0.00125735 -3.96787e-20)
(15.0007 0.00124761 5.66401e-20)
(15.0007 0.00123748 3.89043e-20)
(15.0007 0.00122668 -1.75954e-20)
(15.0007 0.00121583 -2.19932e-22)
(15.0008 0.00120462 -3.84876e-22)
(15.0008 0.00119302 -1.95155e-20)
(15.0008 0.00118118 -5.85794e-20)
(15.0008 0.00116872 1.10473e-21)
(15.0008 0.00115633 6.08811e-20)
(15.0009 0.00114338 4.0304e-20)
(15.0009 0.00112982 -2.60843e-21)
(15.0009 0.00111635 -1.7393e-22)
(15.0009 0.00110229 3.88502e-21)
(15.0009 0.00108785 0)
(15.0009 0.00107317 4.79538e-21)
(15.001 0.00105824 1.8893e-20)
(15.001 0.00104245 1.81906e-20)
(15.001 0.00102693 -3.67862e-20)
(15.001 0.00101081 -6.6865e-21)
(15.001 0.000994406 1.78375e-20)
(15.001 0.000977481 8.12126e-21)
(15.001 0.000960785 3.47302e-20)
(15.0011 0.000943473 -2.65055e-20)
(15.0011 0.00092537 3.53327e-20)
(15.0011 0.000907513 -2.76063e-20)
(15.0011 0.000889041 4.55929e-20)
(15.0011 0.00087041 -4.59403e-20)
(15.0011 0.00085165 1.18902e-20)
(15.0011 0.00083244 2.8007e-20)
(15.0012 0.000812597 4.12715e-20)
(15.0012 0.000793021 1.6401e-20)
(15.0012 0.000772406 1.26599e-20)
(15.0012 0.000752047 1.66756e-20)
(15.0012 0.000731603 1.54179e-20)
(15.0012 0.000710549 -4.52659e-20)
(15.0012 0.000689669 -4.53867e-20)
(15.0012 0.000668078 1.57514e-20)
(15.0012 0.000646314 -1.51914e-20)
(15.0012 0.000624538 3.73911e-22)
(15.0012 0.000602346 -1.5269e-20)
(15.0012 0.000580006 -8.78878e-20)
(15.0012 0.000557558 6.52237e-22)
(15.0012 0.00053502 4.36685e-20)
(15.0012 0.00051212 2.98179e-20)
(15.0012 0.000488984 2.5112e-20)
(15.0012 0.000466252 -6.85153e-20)
(15.0012 0.000442999 2.76131e-20)
(15.0012 0.000420125 1.50428e-20)
(15.0012 0.000396686 2.67079e-20)
(15.0012 0.000373628 2.16359e-20)
(15.0012 0.000350556 -1.44971e-20)
(15.0012 0.000327631 -1.00868e-20)
(15.0012 0.000304427 -3.18316e-20)
(15.0012 0.000281925 -2.5401e-20)
(15.0012 0.000259559 -9.14556e-21)
(15.0011 0.000237327 -2.52363e-20)
(15.0011 0.000215925 6.16441e-21)
(15.0011 0.000194684 -5.82942e-21)
(15.0011 0.000174238 5.55594e-21)
(15.0011 0.00015412 -3.64195e-22)
(15.001 0.000134075 -7.85536e-21)
(15.001 0.000115345 5.66414e-21)
(15.001 9.71476e-05 1.67249e-20)
(15.001 7.80314e-05 -1.44115e-21)
(15.0009 5.42329e-05 -2.48847e-22)
(15.0007 2.94138e-05 -4.32487e-21)
(15.0005 1.79623e-05 2.24838e-21)
(15.0009 3.17255e-05 -3.66324e-22)
(15.0023 1.34287e-05 -3.28205e-22)
(14.997 5.52298e-06 1.37321e-22)
(14.9985 4.57274e-05 1.28744e-22)
(14.9991 4.02632e-05 6.41427e-22)
(14.9991 3.9163e-05 -1.96156e-21)
(14.9988 6.0513e-05 -1.99489e-21)
(14.9987 9.35468e-05 8.48193e-21)
(14.9986 0.000124546 -2.19664e-21)
(14.9986 0.000152361 0)
(14.9985 0.000179663 -1.67473e-20)
(14.9985 0.000208401 2.59871e-20)
(14.9985 0.000237809 -2.29354e-20)
(14.9984 0.000267685 5.06173e-21)
(14.9984 0.000298134 5.29394e-21)
(14.9984 0.000329146 -2.10225e-20)
(14.9983 0.000361215 1.59308e-20)
(14.9983 0.000393704 7.69066e-21)
(14.9983 0.000426489 -3.79184e-20)
(14.9983 0.000460086 -3.9135e-20)
(14.9983 0.000493736 1.18372e-20)
(14.9983 0.000527799 1.25277e-20)
(14.9982 0.000562167 4.39131e-20)
(14.9982 0.000596842 1.01157e-20)
(14.9982 0.000631512 1.3197e-20)
(14.9982 0.000666494 -2.41556e-20)
(14.9982 0.000701142 1.12263e-20)
(14.9982 0.000736199 -4.94616e-20)
(14.9982 0.00077129 5.02087e-20)
(14.9982 0.000806045 1.1819e-20)
(14.9982 0.000840764 1.24547e-20)
(14.9982 0.000875602 -1.25131e-20)
(14.9982 0.00091019 -2.63513e-20)
(14.9982 0.000944701 3.94357e-20)
(14.9982 0.000979175 -6.61131e-20)
(14.9982 0.00101349 -4.06593e-20)
(14.9982 0.00104721 5.43991e-20)
(14.9982 0.00108113 5.25013e-20)
(14.9982 0.00111439 2.62311e-20)
(14.9982 0.00114751 -1.45053e-20)
(14.9983 0.00118082 1.12249e-20)
(14.9983 0.00121328 -5.18478e-20)
(14.9983 0.00124569 6.67884e-20)
(14.9983 0.00127778 1.54997e-20)
(14.9983 0.0013093 2.54374e-20)
(14.9983 0.00134083 2.5262e-20)
(14.9983 0.00137195 0)
(14.9984 0.00140233 -1.59982e-20)
(14.9984 0.0014328 7.44686e-21)
(14.9984 0.00146258 4.11986e-20)
(14.9984 0.0014918 -3.33442e-20)
(14.9984 0.0015209 -2.3769e-20)
(14.9984 0.0015496 3.01378e-20)
(14.9985 0.00157796 -4.01987e-20)
(14.9985 0.00160535 -2.85642e-20)
(14.9985 0.00163294 6.22471e-20)
(14.9985 0.00165975 1.7302e-20)
(14.9986 0.00168627 2.19412e-20)
(14.9986 0.00171213 4.64108e-20)
(14.9986 0.00173763 3.31505e-21)
(14.9986 0.00176256 -3.5742e-20)
(14.9987 0.00178721 3.80279e-20)
(14.9987 0.00181123 5.6193e-20)
(14.9987 0.00183453 1.93885e-20)
(14.9987 0.00185768 1.82257e-20)
(14.9988 0.00188027 1.29911e-22)
(14.9988 0.00190226 -5.48484e-20)
(14.9988 0.0019237 3.53884e-20)
(14.9989 0.00194475 1.8629e-20)
(14.9989 0.00196534 1.69078e-20)
(14.9989 0.00198529 -3.53161e-20)
(14.9989 0.00200466 -2.24551e-23)
(14.999 0.00202352 3.59456e-21)
(14.999 0.00204207 -1.8969e-20)
(14.999 0.00205999 -2.41023e-20)
(14.9991 0.00207709 3.32569e-20)
(14.9991 0.00209386 3.29345e-20)
(14.9991 0.00211027 -1.3019e-20)
(14.9992 0.00212593 -1.25277e-20)
(14.9992 0.00214115 -4.3604e-20)
(14.9992 0.00215568 8.05695e-21)
(14.9993 0.00216975 -1.08324e-20)
(14.9993 0.00218294 -3.97029e-20)
(14.9993 0.00219595 4.97168e-20)
(14.9994 0.00220837 1.08169e-21)
(14.9994 0.0022203 -4.00572e-20)
(14.9994 0.00223124 -6.67212e-23)
(14.9995 0.00224182 4.89805e-23)
(14.9995 0.00225198 -2.7624e-20)
(14.9995 0.00226164 2.02284e-20)
(14.9996 0.00227054 3.42818e-20)
(14.9996 0.00227891 5.85215e-21)
(14.9997 0.00228682 5.23486e-21)
(14.9997 0.00229396 2.72629e-23)
(14.9997 0.00230057 -2.47229e-20)
(14.9998 0.00230656 -3.74699e-20)
(14.9998 0.00231208 -2.06464e-20)
(14.9998 0.00231722 6.19327e-20)
(14.9999 0.00232138 1.87046e-20)
(14.9999 0.00232508 -2.07192e-20)
(14.9999 0.002328 1.98672e-20)
(15 0.00233064 3.39305e-22)
(15 0.00233261 -2.10383e-20)
(15.0001 0.0023339 7.88986e-22)
(15.0001 0.00233492 0)
(15.0001 0.00233515 1.89484e-21)
(15.0002 0.00233491 -1.835e-20)
(15.0002 0.00233368 -2.99555e-21)
(15.0002 0.00233206 2.43589e-20)
(15.0003 0.00232995 -2.9044e-20)
(15.0003 0.00232721 -2.07366e-20)
(15.0004 0.00232392 1.33841e-24)
(15.0004 0.00231983 -1.76473e-23)
(15.0004 0.00231527 4.1458e-20)
(15.0005 0.00231015 2.0605e-20)
(15.0005 0.00230424 -2.06315e-20)
(15.0005 0.0022978 2.06613e-20)
(15.0006 0.00229092 2.91413e-20)
(15.0006 0.00228364 -4.12565e-20)
(15.0006 0.00227532 -3.14008e-20)
(15.0007 0.00226647 1.03526e-20)
(15.0007 0.002257 5.17252e-20)
(15.0008 0.00224731 1.12089e-20)
(15.0008 0.00223669 -3.2235e-20)
(15.0008 0.00222556 0)
(15.0009 0.00221369 2.04139e-20)
(15.0009 0.00220132 3.37454e-20)
(15.0009 0.00218815 -2.03008e-20)
(15.001 0.00217456 -2.01674e-20)
(15.001 0.00216059 2.02307e-20)
(15.001 0.00214573 -3.13016e-20)
(15.0011 0.00213016 -2.00166e-20)
(15.0011 0.00211422 2.00745e-20)
(15.0011 0.00209772 3.71049e-20)
(15.0012 0.00208055 -5.53193e-20)
(15.0012 0.00206265 -1.58196e-21)
(15.0012 0.00204423 -1.75695e-20)
(15.0013 0.00202534 1.90593e-20)
(15.0013 0.00200582 -3.92742e-20)
(15.0013 0.00198561 1.96476e-20)
(15.0014 0.00196473 4.0131e-20)
(15.0014 0.00194364 2.12072e-20)
(15.0014 0.00192173 -1.72013e-20)
(15.0015 0.00189908 -1.89938e-20)
(15.0015 0.00187605 6.08778e-20)
(15.0015 0.00185236 -1.84609e-22)
(15.0016 0.0018282 -1.88903e-20)
(15.0016 0.00180326 0)
(15.0016 0.00177794 4.87193e-20)
(15.0016 0.00175169 -4.96063e-20)
(15.0017 0.00172557 0)
(15.0017 0.00169832 2.56249e-20)
(15.0017 0.00167062 -2.60293e-20)
(15.0017 0.00164239 1.83539e-20)
(15.0018 0.00161394 8.32483e-21)
(15.0018 0.00158479 3.65883e-20)
(15.0018 0.00155478 -2.52279e-22)
(15.0018 0.00152476 -5.52929e-20)
(15.0019 0.00149383 1.74128e-20)
(15.0019 0.00146234 -6.76158e-20)
(15.0019 0.00143074 4.57519e-20)
(15.0019 0.0013984 -2.886e-20)
(15.002 0.00136559 -1.69328e-20)
(15.002 0.0013326 -2.90155e-20)
(15.002 0.00129853 1.25596e-20)
(15.002 0.00126454 4.6789e-20)
(15.002 0.00123028 -1.44893e-20)
(15.002 0.00119511 -7.73375e-20)
(15.002 0.00116004 -5.96358e-20)
(15.0021 0.00112413 4.53096e-20)
(15.0021 0.00108789 -6.00737e-20)
(15.0021 0.00105145 0)
(15.0021 0.00101476 -4.47246e-20)
(15.0021 0.000977612 -1.48528e-20)
(15.0021 0.000940426 5.73285e-20)
(15.0021 0.000903011 -2.9299e-20)
(15.0021 0.000865014 4.45591e-20)
(15.0021 0.000826858 -5.47732e-20)
(15.0021 0.000788975 2.85743e-20)
(15.0021 0.000750488 3.97167e-20)
(15.0021 0.000712143 3.92135e-20)
(15.0021 0.000673562 3.77807e-20)
(15.0021 0.000635099 3.42133e-21)
(15.0021 0.000596753 6.99509e-22)
(15.0021 0.000558642 -1.47475e-20)
(15.0021 0.000520324 1.37343e-20)
(15.002 0.000482695 0)
(15.002 0.000445138 -2.901e-20)
(15.002 0.000407784 3.86331e-20)
(15.002 0.000371404 -1.80725e-20)
(15.002 0.000335389 -9.16847e-21)
(15.0019 0.000299748 4.84238e-21)
(15.0019 0.000264283 -3.45779e-20)
(15.0019 0.000229316 4.56064e-21)
(15.0018 0.000195783 1.17646e-20)
(15.0018 0.00016114 1.93339e-21)
(15.0017 0.000121765 2.49236e-22)
(15.0015 7.90887e-05 -2.64994e-21)
(15.0012 5.15046e-05 1.06544e-21)
(15.0012 5.40538e-05 -1.46595e-22)
(15.002 6.15905e-05 -1.57552e-21)
(15.0041 7.73021e-06 1.18548e-22)
(14.9959 8.86218e-06 -1.20758e-22)
(14.9975 5.19921e-05 6.24788e-22)
(14.9985 7.09797e-05 0)
(14.9986 6.53658e-05 0)
(14.9984 7.74296e-05 -1.01655e-21)
(14.9982 0.000116507 -1.64043e-21)
(14.998 0.000163079 -3.6214e-21)
(14.998 0.00020565 -1.78191e-21)
(14.9979 0.000245569 -5.71338e-21)
(14.9978 0.000286492 8.97295e-21)
(14.9978 0.000328421 -6.23589e-21)
(14.9978 0.000371083 -5.41517e-21)
(14.9977 0.000414341 -8.38174e-21)
(14.9977 0.000458459 5.06844e-23)
(14.9976 0.000503612 -3.32074e-20)
(14.9976 0.000549321 2.47561e-20)
(14.9976 0.000595522 7.82595e-21)
(14.9976 0.000642577 1.17232e-20)
(14.9975 0.000689977 -2.94643e-20)
(14.9975 0.00073781 1.2523e-20)
(14.9975 0.00078585 -4.46703e-20)
(14.9975 0.000834421 3.76828e-22)
(14.9975 0.000883124 9.86797e-21)
(14.9975 0.000932261 -1.27579e-20)
(14.9975 0.000980975 2.40305e-20)
(14.9974 0.00103008 3.4329e-22)
(14.9974 0.00107921 -4.87027e-20)
(14.9974 0.00112812 -2.577e-20)
(14.9974 0.00117683 1.2608e-20)
(14.9974 0.00122584 4.83147e-23)
(14.9974 0.00127457 0)
(14.9974 0.00132305 2.63075e-20)
(14.9975 0.0013714 3.97184e-20)
(14.9975 0.00141961 -2.63e-20)
(14.9975 0.0014673 -2.79947e-20)
(14.9975 0.00151493 -2.67209e-20)
(14.9975 0.001562 -2.61631e-20)
(14.9975 0.00160886 -2.6674e-20)
(14.9975 0.00165561 3.43161e-21)
(14.9975 0.00170144 -5.22488e-20)
(14.9976 0.00174717 -4.15796e-20)
(14.9976 0.00179235 1.05897e-20)
(14.9976 0.00183695 1.00011e-20)
(14.9976 0.00188151 1.57713e-20)
(14.9976 0.00192554 2.56223e-20)
(14.9977 0.00196857 -2.16199e-22)
(14.9977 0.00201155 1.64643e-20)
(14.9977 0.0020537 4.93872e-20)
(14.9977 0.00209533 2.43815e-20)
(14.9978 0.00213646 -1.67508e-20)
(14.9978 0.0021771 2.35957e-20)
(14.9978 0.00221708 -1.27188e-20)
(14.9979 0.00225634 -1.70454e-20)
(14.9979 0.00229529 -1.7709e-20)
(14.9979 0.00233331 1.76635e-20)
(14.998 0.00237091 2.66587e-20)
(14.998 0.00240751 -1.78721e-20)
(14.998 0.00244376 3.92207e-20)
(14.9981 0.0024793 -2.85685e-21)
(14.9981 0.0025142 -5.9264e-20)
(14.9981 0.00254835 -1.83457e-20)
(14.9982 0.00258168 1.83528e-20)
(14.9982 0.00261452 1.86034e-20)
(14.9983 0.00264653 5.59849e-20)
(14.9983 0.00267784 -1.84077e-20)
(14.9983 0.00270851 -3.7928e-20)
(14.9984 0.00273834 1.39987e-21)
(14.9984 0.00276748 1.71502e-20)
(14.9985 0.002796 -1.90482e-20)
(14.9985 0.00282373 1.61075e-20)
(14.9985 0.00285069 3.86076e-20)
(14.9986 0.00287685 3.06415e-20)
(14.9986 0.00290239 -5.3714e-20)
(14.9987 0.0029269 -3.38982e-20)
(14.9987 0.00295069 1.9598e-20)
(14.9988 0.00297405 6.46647e-21)
(14.9988 0.00299648 1.97368e-20)
(14.9989 0.003018 7.60019e-21)
(14.9989 0.00303866 -2.35957e-20)
(14.999 0.00305876 2.58785e-21)
(14.999 0.00307783 -4.16667e-20)
(14.9991 0.00309631 2.99625e-20)
(14.9991 0.00311393 -1.02985e-20)
(14.9992 0.00313087 -6.08742e-20)
(14.9992 0.00314665 1.16533e-20)
(14.9993 0.00316185 4.08073e-20)
(14.9993 0.00317624 4.02544e-23)
(14.9994 0.00318992 1.3378e-20)
(14.9994 0.00320271 -2.04567e-20)
(14.9995 0.0032147 -5.5952e-20)
(14.9995 0.00322577 5.41877e-21)
(14.9996 0.0032361 4.26499e-24)
(14.9996 0.00324574 2.07716e-20)
(14.9997 0.00325437 2.08422e-20)
(14.9997 0.00326219 1.12768e-20)
(14.9998 0.00326931 1.5661e-20)
(14.9998 0.00327527 -1.88833e-20)
(14.9999 0.00328055 -2.10152e-20)
(14.9999 0.00328482 -2.10374e-20)
(15 0.00328869 -2.07096e-20)
(15 0.0032915 6.30685e-20)
(15.0001 0.00329325 2.10786e-20)
(15.0001 0.00329459 -2.24159e-20)
(15.0002 0.00329492 -2.10902e-20)
(15.0002 0.00329456 -2.3521e-20)
(15.0003 0.00329302 2.41139e-20)
(15.0003 0.00329077 -4.93942e-20)
(15.0004 0.00328768 -2.10113e-20)
(15.0004 0.00328355 6.78511e-20)
(15.0005 0.00327872 4.19816e-20)
(15.0006 0.00327311 -3.61062e-20)
(15.0006 0.00326655 -7.95183e-21)
(15.0007 0.00325915 -6.00608e-23)
(15.0007 0.00325082 4.91985e-23)
(15.0008 0.00324173 4.18281e-20)
(15.0008 0.0032318 -8.78813e-21)
(15.0009 0.00322124 -3.01073e-20)
(15.0009 0.00320945 -1.09953e-20)
(15.001 0.00319693 3.1345e-20)
(15.001 0.00318349 4.14761e-20)
(15.0011 0.00316939 0)
(15.0011 0.00315421 -2.07148e-20)
(15.0012 0.00313839 -7.96789e-21)
(15.0012 0.00312164 0)
(15.0013 0.0031039 -1.37411e-20)
(15.0013 0.00308514 -1.42893e-20)
(15.0014 0.00306588 -1.48176e-20)
(15.0014 0.00304582 -2.04759e-20)
(15.0015 0.00302463 -1.57851e-20)
(15.0015 0.00300271 2.02617e-20)
(15.0016 0.00297992 -2.0344e-20)
(15.0016 0.00295623 9.48061e-23)
(15.0017 0.00293166 2.22427e-20)
(15.0017 0.00290635 1.84024e-20)
(15.0018 0.00288026 1.55845e-22)
(15.0018 0.0028532 -3.92327e-20)
(15.0019 0.00282539 -1.97761e-20)
(15.0019 0.00279674 0)
(15.0019 0.00276714 -2.34178e-23)
(15.002 0.00273693 -1.83343e-21)
(15.002 0.00270575 -4.42231e-20)
(15.0021 0.00267367 6.47392e-20)
(15.0021 0.00264082 2.25953e-20)
(15.0022 0.00260711 -8.52505e-20)
(15.0022 0.00257292 0)
(15.0022 0.00253755 1.92067e-20)
(15.0023 0.00250162 5.46085e-21)
(15.0023 0.00246456 6.58581e-21)
(15.0024 0.00242706 1.86327e-20)
(15.0024 0.00238865 -2.59947e-20)
(15.0024 0.00234941 0)
(15.0025 0.0023095 1.85233e-20)
(15.0025 0.00226892 -8.98792e-21)
(15.0025 0.00222763 9.29141e-21)
(15.0026 0.00218529 -6.38184e-20)
(15.0026 0.00214275 2.84115e-20)
(15.0026 0.00209896 -2.80884e-22)
(15.0027 0.00205443 -2.8472e-20)
(15.0027 0.00200969 1.71765e-20)
(15.0027 0.00196414 -1.73905e-20)
(15.0028 0.00191782 -1.69392e-20)
(15.0028 0.00187122 6.36494e-20)
(15.0028 0.0018234 1.61573e-20)
(15.0028 0.00177528 1.37688e-20)
(15.0029 0.00172672 -4.65982e-20)
(15.0029 0.00167733 -6.2235e-20)
(15.0029 0.00162767 4.64364e-20)
(15.0029 0.00157722 -1.5319e-20)
(15.0029 0.00152638 3.12938e-22)
(15.0029 0.00147516 1.4813e-20)
(15.003 0.00142343 0)
(15.003 0.00137112 5.99804e-20)
(15.003 0.00131892 -2.97933e-20)
(15.003 0.00126621 -2.95365e-20)
(15.003 0.00121299 -5.83741e-20)
(15.003 0.00115952 -1.54722e-20)
(15.003 0.0011062 4.09904e-20)
(15.003 0.00105209 -2.77536e-20)
(15.003 0.00099817 -1.2019e-20)
(15.003 0.000944076 -2.61784e-20)
(15.003 0.000890273 -4.09362e-20)
(15.003 0.000836363 3.93306e-20)
(15.003 0.000782594 3.957e-22)
(15.0029 0.000728853 -4.12011e-22)
(15.0029 0.000675732 2.22531e-20)
(15.0029 0.0006228 2.85529e-20)
(15.0029 0.000570087 1.14487e-20)
(15.0028 0.000518186 3.82835e-21)
(15.0028 0.000466864 -1.5562e-20)
(15.0028 0.000415754 -1.48939e-20)
(15.0027 0.000365013 3.71142e-22)
(15.0027 0.000315006 1.47444e-20)
(15.0026 0.000265651 -1.81339e-20)
(15.0025 0.000212096 7.30811e-21)
(15.0024 0.000152434 2.76475e-23)
(15.0021 0.000101985 0)
(15.0018 8.70549e-05 -1.10605e-21)
(15.002 9.57929e-05 -1.38434e-21)
(15.0033 7.03025e-05 2.44726e-22)
(15.0055 1.23266e-05 1.75086e-22)
(14.9951 8.89736e-06 -1.96548e-22)
(14.9966 5.45844e-05 -9.33841e-22)
(14.9977 9.74579e-05 0)
(14.9981 0.000100752 2.03823e-21)
(14.9979 0.000101433 1.04789e-21)
(14.9977 0.000135711 -2.70269e-21)
(14.9975 0.000192604 -5.73586e-21)
(14.9974 0.00025062 -2.50712e-21)
(14.9973 0.000304262 2.13829e-21)
(14.9972 0.000357607 -1.03276e-20)
(14.9971 0.00041196 1.59825e-20)
(14.9971 0.000467218 -8.08604e-21)
(14.997 0.000523214 1.98056e-20)
(14.997 0.000580288 -5.75925e-23)
(14.9969 0.000638376 1.0134e-20)
(14.9969 0.000697388 -7.38764e-21)
(14.9969 0.000757003 3.77266e-20)
(14.9968 0.000817347 2.78387e-20)
(14.9968 0.000878314 -8.14817e-21)
(14.9968 0.000940085 -7.01105e-22)
(14.9968 0.00100211 -1.22111e-20)
(14.9967 0.0010645 -1.01744e-20)
(14.9967 0.00112735 -2.35632e-20)
(14.9967 0.00119054 -1.05167e-20)
(14.9967 0.00125342 -2.48327e-20)
(14.9967 0.00131664 4.78899e-20)
(14.9967 0.00138006 -1.34082e-20)
(14.9967 0.0014433 -2.57367e-20)
(14.9967 0.00150626 -2.5952e-20)
(14.9967 0.0015697 -3.87653e-20)
(14.9967 0.00163263 -1.31941e-20)
(14.9967 0.00169536 0)
(14.9967 0.00175792 -4.00124e-20)
(14.9967 0.00182024 -2.68801e-20)
(14.9967 0.00188214 1.43366e-21)
(14.9967 0.00194388 -1.23692e-20)
(14.9968 0.00200495 -2.67765e-20)
(14.9968 0.00206575 -4.13272e-20)
(14.9968 0.00212616 -2.68701e-20)
(14.9968 0.00218574 5.32491e-20)
(14.9968 0.00224508 -4.41897e-21)
(14.9969 0.00230399 -4.19624e-20)
(14.9969 0.00236201 -1.0428e-20)
(14.9969 0.00241978 2.35813e-22)
(14.9969 0.00247705 -2.11075e-22)
(14.997 0.00253303 -2.52804e-20)
(14.997 0.00258876 2.50248e-20)
(14.997 0.00264384 -2.47731e-20)
(14.9971 0.00269797 2.45477e-20)
(14.9971 0.00275158 2.34181e-22)
(14.9971 0.00280457 1.68341e-20)
(14.9972 0.00285655 2.4269e-20)
(14.9972 0.00290788 5.8007e-21)
(14.9973 0.00295858 -5.53526e-21)
(14.9973 0.00300819 5.2361e-21)
(14.9973 0.00305719 2.23223e-20)
(14.9974 0.00310515 -2.19606e-20)
(14.9974 0.00315235 -2.19365e-20)
(14.9975 0.00319873 3.96682e-20)
(14.9975 0.00324426 0)
(14.9976 0.0032889 -2.05689e-20)
(14.9976 0.00333271 -4.02925e-20)
(14.9977 0.00337556 1.97124e-20)
(14.9977 0.00341729 -1.92831e-20)
(14.9978 0.00345833 3.77289e-20)
(14.9978 0.00349852 1.8949e-20)
(14.9979 0.00353752 1.80833e-20)
(14.9979 0.00357559 -1.81751e-21)
(14.998 0.00361283 -1.92524e-20)
(14.9981 0.00364928 -3.32134e-20)
(14.9981 0.00368463 1.61992e-20)
(14.9982 0.00371865 1.54892e-20)
(14.9982 0.00375199 4.65328e-21)
(14.9983 0.00378433 -1.46158e-20)
(14.9983 0.00381559 -8.4143e-21)
(14.9984 0.00384596 -1.35178e-20)
(14.9985 0.00387529 -1.32017e-20)
(14.9985 0.00390354 3.27146e-20)
(14.9986 0.00393069 -4.02751e-20)
(14.9986 0.00395703 -1.53286e-22)
(14.9987 0.00398224 2.04567e-20)
(14.9988 0.00400626 -2.04253e-20)
(14.9988 0.00402929 1.99093e-20)
(14.9989 0.00405158 -1.88413e-20)
(14.999 0.00407255 -4.19482e-24)