/*--------------------------------*- C++ -*----------------------------------*\
  =========                 |
  \\      /  F ield         | OpenFOAM: The Open Source CFD Toolbox
   \\    /   O peration     | Website:  https://openfoam.org
    \\  /    A nd           | Version:  8
     \\/     M anipulation  |
\*---------------------------------------------------------------------------*/
FoamFile
{
    version     2.0;
    format      ascii;
    class       volScalarField;
    location    "0.1378";
    object      nuTilda;
}
// * * * * * * * * * * * * * * * * * * * * * * * * * * * * * * * * * * * * * //

dimensions      [0 2 -1 0 0 0 0];

internalField   nonuniform List<scalar> 
119000
(
0.000764173
0.000120581
5.64904e-05
3.72503e-05
2.81698e-05
2.29251e-05
1.95367e-05
1.72848e-05
1.59416e-05
1.57137e-05
1.53576e-05
1.50459e-05
1.47638e-05
1.52681e-05
1.59722e-05
1.64069e-05
1.64626e-05
1.63934e-05
1.61141e-05
1.56621e-05
1.54629e-05
1.55648e-05
1.56605e-05
1.57683e-05
1.58621e-05
1.59337e-05
1.59905e-05
1.60442e-05
1.61459e-05
1.62917e-05
1.64147e-05
1.64748e-05
1.65422e-05
1.66199e-05
1.67012e-05
1.67826e-05
1.68621e-05
1.69377e-05
1.70084e-05
1.70739e-05
1.71339e-05
1.71879e-05
1.72358e-05
1.72776e-05
1.73144e-05
1.73232e-05
1.73026e-05
1.72619e-05
1.72083e-05
1.71525e-05
1.70948e-05
1.70339e-05
1.69698e-05
1.69022e-05
1.6832e-05
1.676e-05
1.66875e-05
1.66156e-05
1.65453e-05
1.64771e-05
1.64107e-05
1.63449e-05
1.62782e-05
1.62107e-05
1.61434e-05
1.60769e-05
1.60114e-05
1.59468e-05
1.58826e-05
1.58188e-05
1.57553e-05
1.56923e-05
1.56308e-05
1.5572e-05
1.55167e-05
1.54631e-05
1.54196e-05
1.54445e-05
1.50585e-05
1.64622e-05
1.49492e-05
1.74098e-05
1.48543e-05
1.79214e-05
1.48944e-05
1.48627e-05
1.48398e-05
1.46351e-05
1.43986e-05
1.41624e-05
1.38903e-05
1.37561e-05
1.36948e-05
1.35496e-05
1.33791e-05
1.3186e-05
1.28719e-05
1.23188e-05
1.17585e-05
1.10018e-05
0.00213346
0.000552262
0.000287552
0.000192612
0.000145609
0.000117941
9.98336e-05
8.71127e-05
7.73257e-05
6.97414e-05
6.39158e-05
5.94393e-05
5.65722e-05
6.04299e-05
6.53842e-05
6.89265e-05
7.10615e-05
7.24105e-05
7.3174e-05
7.4024e-05
7.51209e-05
7.61762e-05
7.71037e-05
7.80068e-05
7.88008e-05
7.94566e-05
8.00107e-05
8.05384e-05
8.11849e-05
8.18478e-05
8.24786e-05
8.31186e-05
8.37753e-05
8.44265e-05
8.50724e-05
8.57093e-05
8.63267e-05
8.69141e-05
8.74633e-05
8.79727e-05
8.84414e-05
8.88655e-05
8.92457e-05
8.9581e-05
8.98547e-05
8.99189e-05
8.98161e-05
8.96011e-05
8.93131e-05
8.89772e-05
8.86122e-05
8.82235e-05
8.78114e-05
8.73745e-05
8.69179e-05
8.64476e-05
8.59729e-05
8.55004e-05
8.50377e-05
8.45876e-05
8.41505e-05
8.37167e-05
8.32768e-05
8.28308e-05
8.2385e-05
8.19437e-05
8.15086e-05
8.10779e-05
8.06491e-05
8.02189e-05
7.97847e-05
7.93441e-05
7.88943e-05
7.84313e-05
7.79422e-05
7.73681e-05
7.67281e-05
7.6053e-05
7.52453e-05
7.48479e-05
7.38869e-05
7.3714e-05
7.26451e-05
7.26594e-05
7.1507e-05
7.08354e-05
7.03834e-05
7.00362e-05
6.97343e-05
6.94441e-05
6.91906e-05
6.90467e-05
6.88804e-05
6.8659e-05
6.84524e-05
6.8093e-05
6.69095e-05
6.40641e-05
5.7194e-05
4.77743e-05
0.00333515
0.00105341
0.000579539
0.00039246
0.000297581
0.000241018
0.000203647
0.000177168
0.000157361
0.000142024
0.00012988
0.000120112
0.000112273
0.000106954
0.000105848
0.000106104
0.000105836
0.000105691
0.000105937
0.000106292
0.000106928
0.000107586
0.000108134
0.000108592
0.000108935
0.000109109
0.000109142
0.000109134
0.000109183
0.000109307
0.000109523
0.000109854
0.00011025
0.000110661
0.000111092
0.000111534
0.000111969
0.000112376
0.000112747
0.000113077
0.000113364
0.000113607
0.000113804
0.000113956
0.000114055
0.000113929
0.000113593
0.000113125
0.000112571
0.000111962
0.000111322
0.00011066
0.000109975
0.000109266
0.000108537
0.0001078
0.000107063
0.000106338
0.000105632
0.00010495
0.000104291
0.000103641
0.000102985
0.000102325
0.00010167
0.000101026
0.000100392
9.97679e-05
9.91482e-05
9.85292e-05
9.7907e-05
9.72787e-05
9.66405e-05
9.5988e-05
9.53071e-05
9.45498e-05
9.37191e-05
9.28431e-05
9.1934e-05
9.11137e-05
9.02216e-05
8.95148e-05
8.87035e-05
8.81472e-05
8.74514e-05
8.69002e-05
8.64832e-05
8.61877e-05
8.59867e-05
8.58599e-05
8.58265e-05
8.5903e-05
8.60505e-05
8.62389e-05
8.64201e-05
8.63538e-05
8.55294e-05
8.31939e-05
7.59994e-05
6.34569e-05
0.00439671
0.0016105
0.000908923
0.000621036
0.000472621
0.000383145
0.000323532
0.000280973
0.000249022
0.000224123
0.000204206
0.000187973
0.000174598
0.000163685
0.000155143
0.000148231
0.000142374
0.000138905
0.000137335
0.00013615
0.000135697
0.000135326
0.000134852
0.000134328
0.000133734
0.000132949
0.000132032
0.000131151
0.000130402
0.000129828
0.000129457
0.000129309
0.000129262
0.000129238
0.000129281
0.000129372
0.000129476
0.000129566
0.000129628
0.00012966
0.000129659
0.000129621
0.000129545
0.000129432
0.000129279
0.00012902
0.000128633
0.00012814
0.000127572
0.000126959
0.000126325
0.000125682
0.00012502
0.000124341
0.000123655
0.000122977
0.000122322
0.000121704
0.000121135
0.000120622
0.000120165
0.000119742
0.000119332
0.000118948
0.000118606
0.000118316
0.00011808
0.000117895
0.000117759
0.000117668
0.000117618
0.000117606
0.000117627
0.000117672
0.000117716
0.000117664
0.00011751
0.000117283
0.000117004
0.00011671
0.000116379
0.000116067
0.000115721
0.000115405
0.000115041
0.000114674
0.000114286
0.000113867
0.000113411
0.000112901
0.00011234
0.000111738
0.000111106
0.000110488
0.000109961
0.000109497
0.000108859
0.000107688
0.000103553
8.78579e-05
0.00533523
0.00218053
0.00126005
0.000869461
0.000664367
0.00053944
0.000455604
0.000395381
0.000349926
0.000314292
0.000285607
0.000262053
0.000242435
0.000225986
0.000212121
0.000200188
0.0001897
0.000180786
0.000173318
0.000167598
0.000164558
0.000161993
0.00015958
0.000157408
0.000155353
0.000153122
0.000150855
0.00014883
0.000147112
0.000145715
0.000144658
0.000143947
0.000143527
0.000143323
0.000143282
0.000143343
0.00014345
0.000143569
0.00014369
0.000143816
0.00014394
0.000144062
0.00014418
0.000144295
0.000144403
0.000144467
0.000144464
0.000144397
0.000144285
0.00014415
0.00014401
0.000143873
0.000143705
0.000143503
0.00014328
0.000143051
0.000142827
0.000142621
0.000142441
0.000142289
0.00014216
0.000142008
0.000141788
0.000141539
0.000141288
0.000141051
0.000140834
0.000140637
0.000140465
0.00014032
0.000140208
0.00014013
0.000140089
0.000140083
0.00014009
0.000139918
0.000139608
0.000139217
0.000138776
0.000138307
0.000137821
0.000137333
0.000136838
0.000136342
0.000135828
0.000135293
0.000134709
0.000134049
0.00013332
0.000132512
0.000131623
0.000130651
0.000129598
0.000128496
0.000127436
0.000126477
0.000125579
0.000124684
0.000122253
0.000109192
0.00616404
0.00274107
0.00162312
0.00113207
0.000868591
0.000706671
0.000597185
0.000518069
0.000458043
0.000410759
0.000372512
0.000340935
0.000314449
0.000292012
0.000272767
0.000255934
0.000240992
0.000227722
0.000215833
0.000205492
0.00019706
0.000189544
0.000183563
0.000178839
0.000174717
0.000170872
0.000167413
0.000164525
0.00016215
0.000160253
0.000158845
0.000157915
0.000157422
0.000157294
0.000157422
0.00015771
0.000158071
0.00015847
0.000158904
0.000159381
0.000159884
0.000160409
0.000160949
0.000161498
0.000162039
0.000162527
0.000162933
0.00016326
0.00016352
0.000163727
0.000163894
0.000164023
0.000164047
0.00016397
0.000163822
0.000163628
0.000163408
0.000163181
0.000162957
0.000162741
0.000162532
0.000162245
0.000161812
0.000161327
0.000160831
0.000160347
0.000159875
0.000159418
0.000158986
0.000158586
0.000158227
0.000157916
0.000157659
0.000157458
0.000157302
0.000157089
0.000156802
0.000156465
0.000156101
0.000155731
0.000155365
0.000155014
0.000154675
0.000154342
0.000154003
0.000153645
0.000153217
0.000152663
0.000152
0.00015122
0.000150305
0.000149236
0.000147993
0.000146575
0.000145054
0.000143532
0.000142094
0.000140904
0.000139342
0.000131646
0.00689424
0.00327958
0.00199148
0.00140462
0.0010822
0.000882298
0.000746212
0.00064731
0.000571886
0.000512207
0.00046374
0.000423526
0.000389623
0.00036073
0.000335765
0.000313779
0.000294191
0.000276627
0.000260567
0.000246258
0.000233787
0.000222749
0.000213178
0.000204941
0.000197733
0.000191386
0.000186126
0.000182078
0.000178878
0.00017639
0.000174619
0.000173501
0.000172978
0.00017295
0.000173253
0.000173747
0.000174305
0.000174901
0.00017555
0.000176267
0.000177015
0.000177788
0.000178575
0.000179363
0.000180126
0.000180784
0.000181316
0.00018174
0.000182071
0.000182322
0.000182507
0.000182632
0.000182552
0.000182317
0.000181985
0.00018159
0.00018116
0.000180717
0.000180277
0.00017984
0.00017941
0.000178964
0.00017847
0.000177952
0.000177441
0.000176953
0.000176478
0.000176019
0.000175588
0.000175198
0.00017486
0.000174582
0.000174372
0.000174235
0.000174156
0.000174041
0.000173875
0.000173672
0.000173448
0.000173218
0.000172989
0.000172765
0.00017254
0.000172299
0.000172032
0.000171729
0.000171312
0.000170687
0.000169913
0.000168996
0.000167917
0.00016665
0.000165158
0.000163414
0.000161458
0.000159385
0.000157308
0.000155498
0.000153889
0.000149102
0.00753526
0.00379428
0.00236076
0.00168363
0.00130287
0.0010644
0.00090101
0.000781659
0.000690234
0.0006176
0.000558338
0.000508959
0.000467153
0.000431362
0.000400305
0.000372839
0.000348335
0.000326545
0.000307024
0.000289615
0.000274201
0.000260499
0.00024837
0.000237661
0.00022816
0.000219695
0.000212262
0.000205886
0.000200525
0.000196397
0.000193553
0.000191745
0.000190818
0.000190576
0.00019076
0.000191161
0.000191589
0.00019206
0.000192619
0.000193296
0.000194007
0.000194761
0.000195544
0.000196333
0.000197098
0.000197689
0.00019811
0.000198412
0.000198616
0.000198732
0.000198772
0.000198752
0.000198621
0.000198382
0.000198047
0.000197647
0.00019721
0.000196761
0.000196313
0.00019586
0.000195402
0.000194943
0.000194475
0.000194005
0.00019355
0.000193118
0.000192679
0.00019223
0.000191795
0.000191391
0.000191031
0.000190728
0.000190491
0.000190327
0.000190228
0.00019005
0.000189815
0.000189552
0.00018928
0.000189008
0.000188743
0.000188486
0.000188228
0.000187941
0.000187623
0.00018727
0.000186849
0.000186296
0.000185602
0.000184763
0.000183754
0.000182536
0.000181051
0.000179238
0.000177109
0.000174726
0.000172182
0.000169763
0.000167744
0.000164509
0.00809515
0.00428439
0.00272773
0.00196643
0.00152884
0.00125155
0.00106035
0.000919999
0.000812039
0.000725941
0.000655452
0.000596498
0.000546355
0.000503262
0.000465746
0.000432988
0.00040413
0.000378612
0.00035592
0.000335714
0.000317737
0.000301706
0.000287402
0.000274636
0.000263209
0.000252946
0.000243752
0.000235567
0.000228334
0.000222114
0.000217021
0.000213349
0.00021115
0.000210045
0.000209575
0.000209412
0.000209237
0.000209172
0.000209295
0.000209648
0.000210041
0.000210538
0.000211112
0.000211723
0.000212337
0.000212875
0.000213305
0.000213637
0.000213878
0.000214026
0.000214089
0.000214082
0.000213997
0.000213828
0.000213551
0.000213197
0.000212794
0.000212368
0.000211931
0.000211458
0.000210946
0.000210421
0.000209893
0.000209369
0.00020886
0.000208376
0.000207844
0.00020727
0.0002067
0.000206155
0.000205651
0.000205205
0.000204829
0.000204534
0.00020432
0.000204109
0.000203887
0.000203662
0.000203447
0.000203248
0.000203068
0.000202903
0.000202739
0.000202524
0.000202265
0.000201964
0.000201604
0.000201144
0.000200547
0.000199798
0.000198869
0.000197718
0.000196264
0.000194407
0.000192164
0.000189563
0.000186659
0.00018369
0.000181087
0.00017841
0.00858036
0.00474935
0.00308995
0.00225082
0.00175873
0.00144259
0.00122325
0.00106146
0.000936508
0.000836487
0.000754347
0.000685429
0.000626598
0.000576179
0.000532725
0.000495045
0.000462053
0.000432977
0.000407201
0.00038427
0.000363825
0.000345545
0.000329161
0.00031445
0.0003012
0.000289222
0.000278381
0.000268568
0.000259701
0.000251758
0.000244748
0.000238856
0.000234329
0.000231363
0.000229453
0.000228106
0.000226741
0.0002257
0.000225056
0.000224846
0.000224958
0.000225313
0.000225809
0.000226378
0.000226976
0.00022754
0.000228035
0.000228449
0.000228775
0.000228988
0.000229093
0.000229107
0.00022904
0.00022889
0.000228592
0.000228196
0.000227738
0.000227243
0.000226727
0.000226131
0.000225453
0.000224753
0.000224054
0.000223363
0.000222692
0.000222054
0.000221427
0.000220803
0.000220192
0.000219604
0.000219057
0.000218566
0.000218149
0.000217816
0.000217566
0.000217341
0.000217126
0.000216927
0.000216751
0.000216602
0.000216478
0.000216369
0.000216263
0.000216061
0.0002158
0.000215492
0.000215128
0.00021468
0.000214104
0.000213377
0.000212479
0.000211368
0.000209979
0.000208225
0.000206064
0.000203481
0.000200474
0.000197197
0.000194113
0.000191503
0.00900367
0.00518931
0.00344561
0.00253499
0.00199136
0.00163652
0.00138887
0.00120532
0.00106298
0.000948628
0.000854444
0.00077518
0.000707971
0.0006507
0.00060156
0.000559088
0.000522021
0.000489408
0.000460533
0.000434843
0.000411902
0.00039134
0.000372849
0.00035617
0.000341073
0.00032735
0.000314846
0.000303411
0.000292953
0.000283405
0.000274701
0.000266958
0.000260249
0.000254713
0.000250336
0.000246976
0.000244282
0.000242214
0.000240798
0.000240041
0.000239853
0.000240068
0.000240484
0.000241002
0.000241572
0.000242124
0.000242622
0.000243052
0.000243393
0.000243586
0.000243642
0.000243585
0.000243439
0.000243209
0.000242759
0.000242204
0.000241582
0.000240921
0.000240238
0.000239514
0.000238745
0.00023796
0.000237179
0.000236403
0.000235644
0.000234919
0.000234226
0.000233561
0.000232916
0.000232283
0.000231682
0.000231135
0.000230658
0.000230263
0.000229953
0.000229646
0.000229354
0.000229091
0.000228865
0.000228678
0.000228525
0.000228391
0.000228268
0.000228111
0.000227913
0.000227674
0.000227386
0.000227023
0.000226534
0.000225894
0.000225087
0.000224075
0.000222799
0.000221184
0.000219164
0.000216694
0.000213716
0.000210302
0.000206845
0.000204066
0.00937704
0.00560491
0.00379331
0.00281771
0.00222537
0.00183248
0.0015565
0.00135094
0.00119089
0.00106183
0.00095523
0.000866025
0.000790784
0.000726866
0.000672144
0.000624909
0.00058374
0.000547544
0.0005155
0.000486973
0.000461456
0.000438532
0.00041785
0.000399127
0.000382107
0.000366559
0.00035232
0.000339202
0.00032711
0.000315953
0.000305592
0.000296162
0.000287717
0.000280324
0.000273985
0.000268634
0.000264121
0.000260487
0.000257861
0.00025624
0.000255494
0.000255371
0.000255516
0.000255805
0.000256188
0.000256568
0.000256916
0.000257222
0.000257455
0.000257494
0.000257373
0.000257138
0.000256814
0.000256418
0.000255888
0.000255253
0.000254548
0.000253801
0.000253022
0.000252207
0.000251362
0.000250506
0.000249653
0.000248789
0.000247931
0.0002471
0.000246305
0.00024555
0.000244814
0.000244068
0.000243349
0.000242681
0.000242083
0.000241568
0.000241145
0.00024077
0.000240435
0.000240146
0.000239908
0.000239722
0.000239577
0.000239447
0.00023933
0.000239205
0.000239058
0.000238878
0.000238653
0.000238364
0.000237934
0.000237353
0.00023661
0.000235676
0.000234493
0.000232998
0.000231124
0.000228808
0.00022598
0.000222643
0.000219052
0.000216077
0.00970895
0.00599707
0.00413205
0.00309787
0.0024596
0.00202973
0.00172548
0.00149775
0.0013197
0.00117558
0.00105693
0.000958101
0.000874989
0.000804501
0.00074421
0.000692185
0.000646851
0.000606993
0.000571691
0.00054023
0.000512039
0.00048665
0.000463677
0.00044281
0.000423771
0.000406298
0.000390234
0.000375339
0.000361535
0.000348796
0.000337017
0.000326207
0.000316377
0.000307546
0.000299702
0.000292797
0.000286742
0.000281535
0.000277305
0.00027423
0.000272388
0.000271494
0.000270973
0.000270701
0.000270634
0.000270603
0.000270603
0.000270627
0.000270625
0.000270519
0.000270298
0.000269966
0.000269543
0.000269046
0.000268444
0.000267739
0.000266959
0.000266129
0.000265251
0.000264321
0.000263362
0.000262393
0.000261428
0.000260422
0.000259409
0.000258418
0.000257464
0.000256559
0.0002557
0.000254869
0.000254071
0.000253324
0.000252647
0.000252053
0.00025155
0.000251106
0.000250717
0.000250385
0.000250115
0.000249905
0.000249745
0.000249583
0.00024943
0.000249283
0.00024913
0.000248953
0.00024874
0.000248475
0.000248115
0.000247629
0.000246995
0.000246184
0.000245135
0.000243802
0.000242117
0.00024001
0.000237406
0.000234262
0.000230717
0.000227582
0.0100057
0.00636683
0.00446107
0.00337452
0.00269302
0.00222761
0.00189524
0.00164522
0.00144894
0.00128993
0.00115958
0.0010513
0.000960383
0.000883334
0.000817442
0.00076057
0.000710993
0.000667383
0.000628726
0.000594229
0.000563259
0.000535299
0.000509926
0.000486813
0.000465652
0.000446147
0.000428158
0.000411557
0.000396222
0.000382071
0.000369003
0.000356962
0.00034592
0.00033586
0.000326749
0.000318542
0.00031117
0.000304604
0.000298922
0.000294236
0.000290783
0.000288543
0.000286774
0.000285482
0.000284627
0.000284086
0.000283762
0.000283557
0.000283367
0.000283126
0.000282806
0.000282377
0.000281851
0.000281247
0.000280538
0.000279715
0.000278814
0.000277858
0.000276833
0.000275731
0.0002746
0.000273462
0.000272331
0.000271198
0.000270071
0.000268966
0.000267895
0.000266873
0.000265907
0.00026499
0.000264105
0.00026327
0.000262503
0.000261818
0.000261224
0.000260677
0.000260186
0.000259762
0.000259411
0.000259128
0.000258903
0.000258709
0.000258541
0.000258393
0.00025825
0.000258092
0.000257901
0.000257667
0.000257363
0.000256956
0.000256419
0.000255723
0.000254788
0.000253598
0.000252089
0.000250193
0.00024783
0.000244936
0.000241563
0.000238409
0.0102724
0.00671527
0.00477983
0.00364684
0.0029247
0.00242554
0.00206522
0.00179286
0.00157813
0.00140486
0.00126303
0.00114539
0.00104669
0.00096306
0.000891518
0.000829728
0.000775824
0.000728371
0.000686262
0.000648629
0.000614777
0.00058414
0.000556261
0.000530796
0.000507408
0.00048593
0.00046618
0.000447997
0.000431227
0.00041575
0.000401454
0.000388243
0.000376061
0.000364862
0.000354593
0.000345205
0.000336633
0.00032883
0.000321853
0.000315695
0.000310556
0.0003065
0.000303234
0.000300716
0.000298914
0.000297712
0.00029695
0.000296438
0.000295983
0.000295525
0.000295029
0.000294426
0.00029373
0.000292958
0.000292074
0.000291059
0.000289968
0.000288832
0.000287646
0.000286413
0.000285156
0.000283891
0.000282629
0.000281378
0.000280143
0.000278926
0.000277735
0.000276589
0.000275501
0.000274473
0.000273463
0.0002725
0.000271606
0.000270795
0.000270078
0.000269433
0.000268858
0.00026836
0.000267942
0.000267599
0.000267313
0.000267075
0.000266876
0.000266709
0.000266558
0.000266392
0.000266193
0.00026596
0.000265672
0.0002653
0.00026482
0.000264203
0.000263399
0.00026237
0.000261056
0.00025939
0.000257298
0.000254703
0.000251602
0.000248551
0.0105129
0.0070435
0.00508797
0.00391413
0.00315385
0.00262292
0.00223492
0.00194021
0.00170747
0.0015202
0.00136706
0.00124011
0.00113362
0.00104337
0.000966125
0.000899341
0.000841028
0.000789646
0.000743994
0.00070313
0.000666296
0.000632879
0.000602384
0.000574556
0.000549094
0.000525764
0.000504346
0.000484648
0.000466487
0.000449715
0.000434208
0.00041984
0.00040653
0.000394216
0.000382823
0.000372299
0.000362574
0.000353582
0.000345391
0.000338011
0.000331536
0.000326008
0.000321301
0.000317376
0.000314298
0.000312081
0.000310582
0.000309528
0.000308596
0.00030774
0.000306928
0.000306015
0.00030504
0.000304019
0.000302936
0.000301764
0.00030053
0.000299254
0.000297933
0.000296575
0.000295198
0.000293807
0.00029241
0.000291024
0.00028966
0.000288306
0.000286965
0.000285665
0.000284423
0.00028325
0.000282128
0.000281059
0.000280059
0.000279144
0.000278321
0.000277576
0.000276908
0.000276323
0.000275825
0.000275407
0.000275035
0.000274718
0.000274452
0.000274228
0.000274029
0.000273837
0.000273635
0.000273411
0.000273146
0.000272808
0.000272379
0.000271835
0.000271137
0.000270248
0.000269106
0.000267649
0.000265811
0.000263515
0.000260722
0.000257864
0.0107305
0.0073526
0.00538524
0.00417579
0.00337995
0.00281892
0.00240384
0.0020868
0.00183678
0.00163572
0.00147137
0.00133514
0.00122087
0.00112397
0.00104096
0.000969112
0.000906317
0.000850925
0.000801646
0.00075746
0.000717549
0.000681247
0.000648246
0.000618193
0.000590752
0.000565639
0.0005426
0.000521415
0.000501874
0.000483807
0.00046708
0.000451534
0.000437078
0.000423638
0.000411111
0.000399448
0.000388632
0.000378604
0.000369378
0.000360951
0.000353365
0.00034663
0.000340687
0.000335485
0.000331086
0.000327561
0.000324923
0.000322959
0.000321202
0.000319681
0.000318361
0.000317121
0.000315893
0.000314652
0.000313382
0.000312048
0.000310665
0.000309248
0.000307774
0.000306268
0.000304748
0.000303205
0.00030164
0.000300089
0.000298563
0.000297066
0.0002956
0.000294174
0.000292804
0.000291505
0.000290271
0.00028909
0.000287979
0.000286952
0.000286019
0.000285153
0.000284365
0.000283665
0.000283057
0.000282535
0.000282081
0.000281693
0.000281366
0.000281088
0.000280838
0.00028061
0.000280386
0.000280153
0.000279893
0.00027956
0.000279155
0.000278652
0.000278021
0.000277233
0.000276239
0.000274982
0.000273393
0.000271397
0.000268936
0.000266339
0.0109282
0.00764361
0.0056715
0.00443128
0.00360246
0.00301284
0.00257152
0.00223275
0.0019658
0.00175114
0.00157567
0.00143021
0.00130813
0.00120455
0.00111573
0.00103877
0.000971425
0.000911952
0.000858966
0.000811374
0.000768289
0.000729283
0.000693889
0.000661698
0.000632335
0.000605474
0.000580831
0.000558164
0.000537232
0.000517848
0.000499875
0.000483114
0.000467475
0.000452874
0.000439261
0.000426579
0.000414782
0.000403815
0.00039366
0.000384293
0.000375729
0.000367945
0.000360916
0.000354574
0.000348971
0.000344124
0.000340076
0.000336776
0.000334002
0.000331695
0.000329781
0.000328126
0.000326575
0.000325059
0.000323554
0.000321999
0.000320417
0.000318818
0.000317145
0.000315444
0.000313743
0.000312038
0.000310334
0.000308649
0.000306985
0.000305359
0.000303772
0.000302222
0.000300724
0.000299295
0.000297939
0.000296623
0.000295378
0.000294219
0.000293154
0.000292172
0.000291277
0.000290474
0.000289765
0.000289142
0.000288597
0.000288126
0.000287724
0.000287379
0.000287054
0.000286761
0.000286486
0.000286211
0.000285925
0.000285597
0.000285213
0.000284746
0.000284174
0.000283468
0.000282595
0.000281506
0.000280134
0.000278404
0.000276257
0.000273936
0.0111082
0.00791755
0.00594668
0.00468017
0.0038209
0.003204
0.00273753
0.0023778
0.00209424
0.00186616
0.00167966
0.001525
0.00139514
0.00128485
0.00119018
0.00110805
0.00103611
0.000972487
0.000915724
0.000864639
0.000818599
0.000776989
0.000739278
0.000705001
0.000673745
0.00064515
0.000618903
0.000594741
0.000572394
0.000551657
0.000532406
0.000514377
0.000497578
0.000481909
0.000467293
0.000453661
0.000440952
0.000429101
0.000418075
0.000407825
0.000398357
0.000389609
0.000381592
0.000374194
0.000367492
0.000361501
0.000356238
0.000351678
0.000347728
0.000344388
0.000341636
0.000339355
0.000337296
0.000335356
0.0003335
0.00033161
0.000329743
0.0003279
0.000326036
0.000324168
0.000322312
0.000320457
0.000318617
0.000316802
0.000314998
0.000313234
0.000311517
0.000309824
0.000308181
0.000306605
0.000305107
0.000303673
0.000302311
0.000301034
0.000299852
0.000298756
0.000297748
0.000296836
0.00029602
0.000295283
0.000294627
0.00029405
0.000293548
0.00029311
0.000292717
0.000292362
0.000292035
0.000291713
0.00029139
0.000291047
0.000290663
0.000290211
0.000289668
0.000289015
0.000288225
0.00028726
0.000286067
0.000284578
0.000282723
0.000280682
0.0112725
0.00817538
0.0062108
0.00492206
0.00403478
0.00339172
0.00290181
0.00252164
0.00222179
0.00198047
0.00178305
0.00161924
0.0014816
0.0013646
0.00126406
0.00117673
0.00110013
0.00103231
0.000971695
0.000917348
0.000868449
0.000824308
0.000784328
0.000747996
0.000714862
0.000684531
0.000656666
0.000630988
0.000607191
0.000585057
0.000564488
0.000545296
0.000527413
0.000510734
0.000495164
0.00048062
0.000467034
0.000454324
0.000442455
0.000431345
0.000421011
0.000411337
0.000402384
0.000394082
0.000386448
0.000379486
0.000373198
0.000367559
0.000362519
0.000358086
0.000354267
0.000351069
0.000348204
0.000345589
0.0003432
0.000340942
0.000338787
0.000336701
0.000334626
0.000332576
0.000330555
0.000328529
0.000326532
0.00032457
0.000322599
0.000320674
0.000318804
0.000316983
0.000315214
0.000313513
0.00031189
0.000310338
0.000308858
0.000307463
0.000306163
0.00030494
0.000303804
0.000302767
0.000301829
0.00030098
0.000300218
0.000299542
0.000298941
0.000298409
0.000297934
0.000297505
0.000297112
0.000296723
0.000296343
0.000295955
0.000295544
0.000295088
0.000294566
0.000293954
0.000293228
0.000292361
0.000291312
0.000290022
0.000288416
0.000286622
0.0114229
0.00841798
0.00646387
0.00515661
0.00424367
0.00357562
0.00306382
0.00266395
0.00234813
0.00209376
0.00188553
0.00171264
0.00156725
0.00144355
0.00133713
0.00124456
0.00116328
0.0010912
0.00102696
0.000969449
0.000917766
0.000871147
0.00082893
0.000790559
0.000755548
0.000723471
0.000693964
0.000666745
0.000641454
0.00061798
0.000596176
0.000575868
0.000556948
0.000539293
0.000522793
0.000507355
0.000492905
0.000479339
0.000466636
0.000454662
0.000443476
0.000433
0.00042323
0.000414123
0.000405668
0.000397854
0.000390673
0.000384094
0.000378084
0.000372648
0.000367737
0.000363419
0.000359571
0.000356134
0.000353085
0.000350335
0.000347798
0.0003454
0.000343037
0.000340741
0.000338508
0.000336257
0.000334059
0.000331916
0.000329806
0.000327742
0.000325737
0.000323792
0.0003219
0.000320073
0.000318325
0.000316646
0.000315035
0.000313509
0.000312078
0.000310735
0.000309485
0.000308333
0.000307282
0.000306319
0.000305448
0.000304667
0.000303959
0.000303319
0.000302742
0.000302219
0.00030174
0.000301285
0.000300847
0.000300409
0.000299961
0.000299484
0.000298962
0.000298366
0.000297678
0.000296874
0.000295925
0.000294785
0.000293389
0.000291814
0.0115608
0.0086462
0.00670598
0.00538351
0.00444716
0.0037553
0.003223
0.00280439
0.00247294
0.00220573
0.00198683
0.00180493
0.00165184
0.00152146
0.00140916
0.00131135
0.00122534
0.0011492
0.00108144
0.00102086
0.000966451
0.000917391
0.000872959
0.000832556
0.000795662
0.000761822
0.000730646
0.000701852
0.000675169
0.00065042
0.000627438
0.000606047
0.000586116
0.000567501
0.000550079
0.000533747
0.000518432
0.000503998
0.000490454
0.000477708
0.000465755
0.000454542
0.000444032
0.000434187
0.000424983
0.000416393
0.000408407
0.000400979
0.000394088
0.000387745
0.000381923
0.00037664
0.00037184
0.000367484
0.000363591
0.000360128
0.000357014
0.000354147
0.000351341
0.000348683
0.000346156
0.000343698
0.000341308
0.000338986
0.000336725
0.000334515
0.000332366
0.000330285
0.000328253
0.000326285
0.000324398
0.000322592
0.000320862
0.00031922
0.000317672
0.000316213
0.000314848
0.000313582
0.000312416
0.000311328
0.000310336
0.000309436
0.000308617
0.000307874
0.000307199
0.000306581
0.000306012
0.00030548
0.000304973
0.00030447
0.000303965
0.000303445
0.000302897
0.000302299
0.000301632
0.000300873
0.0003
0.000298975
0.000297743
0.000296345
0.0116876
0.0088608
0.00693721
0.0056025
0.00464486
0.00393036
0.00337881
0.00294265
0.00259591
0.00231608
0.00208664
0.00189585
0.00173513
0.00159811
0.00147995
0.00137687
0.0012863
0.00120623
0.00113506
0.00107147
0.00101438
0.000962916
0.000916281
0.000873848
0.00083506
0.000799433
0.000766615
0.000736333
0.000708312
0.000682335
0.000658211
0.000635757
0.000614829
0.000595257
0.000576907
0.000559669
0.000543477
0.00052824
0.000513925
0.000500453
0.000487787
0.000475881
0.000464676
0.000454134
0.000444226
0.000434905
0.000426166
0.000417986
0.000410342
0.000403226
0.00039662
0.000390515
0.000384881
0.000379675
0.000374918
0.000370581
0.000366642
0.000363062
0.000359729
0.000356645
0.000353769
0.000351041
0.00034841
0.000345867
0.000343415
0.000341019
0.000338693
0.000336448
0.000334279
0.000332183
0.00033017
0.000328245
0.000326397
0.000324637
0.000322973
0.000321391
0.000319901
0.00031851
0.000317221
0.000316023
0.00031492
0.00031391
0.00031298
0.00031213
0.000311353
0.00031063
0.00030996
0.000309334
0.000308743
0.00030817
0.000307606
0.000307036
0.000306451
0.000305834
0.000305169
0.000304429
0.000303599
0.00030265
0.000301537
0.000300275
0.0118042
0.0090625
0.00715765
0.00581332
0.00483639
0.0041007
0.0035307
0.0030784
0.0027167
0.0024245
0.00218471
0.00198515
0.00181687
0.00167327
0.00154926
0.00144103
0.00134606
0.00126219
0.00118768
0.00112115
0.00106144
0.00100759
0.00095876
0.000914293
0.000873595
0.000836232
0.000801849
0.000770145
0.000740828
0.000713656
0.000688413
0.000664906
0.000642985
0.00062245
0.000603156
0.000585047
0.000568039
0.000552042
0.000537002
0.000522836
0.000509489
0.000496918
0.000485042
0.000473824
0.000463235
0.00045325
0.000443851
0.00043501
0.000426704
0.000418909
0.000411613
0.000404785
0.000398416
0.000392444
0.000386897
0.000381764
0.000377029
0.000372673
0.000368651
0.000364976
0.000361603
0.00035847
0.000355481
0.000352617
0.000349896
0.000347292
0.000344786
0.000342377
0.000340063
0.000337829
0.000335683
0.000333631
0.000331649
0.000329758
0.000327967
0.000326268
0.000324665
0.000323162
0.000321757
0.000320447
0.000319234
0.000318113
0.000317063
0.000316097
0.000315207
0.000314382
0.000313616
0.000312897
0.000312218
0.000311568
0.000310936
0.000310304
0.000309665
0.000309008
0.00030832
0.000307584
0.00030678
0.000305883
0.000304854
0.000303694
0.0119118
0.00925193
0.00736741
0.00601575
0.0050214
0.00426598
0.00367841
0.00321105
0.002835
0.0025307
0.00228076
0.00207256
0.00189684
0.00174672
0.0016169
0.00150375
0.00140452
0.00131695
0.0012392
0.00116979
0.00110748
0.00105127
0.00100025
0.000953747
0.000911201
0.000872181
0.000836299
0.000803222
0.000772643
0.000744297
0.000717948
0.000693389
0.000670475
0.000648959
0.000628788
0.00060986
0.00059208
0.000575356
0.00055962
0.000544778
0.000530765
0.000517544
0.000505002
0.000493152
0.000481951
0.000471366
0.000461373
0.000451935
0.00044303
0.000434619
0.000426699
0.000419212
0.000412176
0.000405553
0.000399339
0.000393526
0.0003881
0.000383046
0.000378325
0.000373964
0.00036991
0.000366166
0.000362679
0.00035942
0.000356374
0.00035351
0.000350775
0.000348158
0.000345664
0.000343254
0.000340942
0.000338739
0.000336627
0.000334614
0.000332704
0.000330889
0.000329171
0.000327557
0.000326033
0.000324603
0.00032327
0.000322032
0.000320876
0.000319803
0.000318805
0.000317877
0.000317011
0.000316194
0.00031542
0.00031468
0.000313968
0.00031327