/*--------------------------------*- C++ -*----------------------------------*\
  =========                 |
  \\      /  F ield         | OpenFOAM: The Open Source CFD Toolbox
   \\    /   O peration     | Website:  https://openfoam.org
    \\  /    A nd           | Version:  8
     \\/     M anipulation  |
\*---------------------------------------------------------------------------*/
FoamFile
{
    version     2.0;
    format      ascii;
    class       surfaceScalarField;
    location    "0.1378";
    object      phi;
}
// * * * * * * * * * * * * * * * * * * * * * * * * * * * * * * * * * * * * * //

dimensions      [1 0 -1 0 0 0 0];

internalField   nonuniform List<scalar> 
236580
(
0.00236529
1.55675e-05
0.00229082
7.42028e-05
0.00220124
9.00052e-05
0.00210545
9.5711e-05
0.00200676
9.9029e-05
0.00190524
0.000101518
0.00180178
0.000103569
0.00169635
0.000105315
0.00159071
0.000105819
0.00148628
0.0001044
0.00138621
0.000100159
0.0012951
9.10114e-05
0.00122968
6.56026e-05
0.0012042
2.55111e-05
0.00120868
-4.44815e-06
0.00122294
-1.43432e-05
0.00123456
-1.14657e-05
0.00123911
-4.5182e-06
0.00123703
2.13158e-06
0.00123139
5.60978e-06
0.0012253
6.17875e-06
0.00121982
5.48878e-06
0.0012151
4.8466e-06
0.00121059
4.59438e-06
0.00120615
4.64406e-06
0.00120112
4.87827e-06
0.00119613
5.19367e-06
0.00119052
5.46994e-06
0.00118501
5.53118e-06
0.00117966
5.41092e-06
0.00117486
5.00226e-06
0.00117039
4.36851e-06
0.00116671
3.70307e-06
0.00116341
3.31617e-06
0.0011604
3.02741e-06
0.00115762
2.825e-06
0.00115492
2.6986e-06
0.00115239
2.60263e-06
0.00114995
2.60076e-06
0.00114724
2.62012e-06
0.00114467
2.58193e-06
0.00114201
2.67278e-06
0.00113927
2.76874e-06
0.00113648
2.89382e-06
0.00113351
3.16321e-06
0.00112977
3.74259e-06
0.00112563
4.24942e-06
0.00112085
4.92997e-06
0.00111601
5.40128e-06
0.00111046
5.74047e-06
0.0011048
5.79094e-06
0.00109894
5.88225e-06
0.00109322
5.85581e-06
0.00108736
5.89497e-06
0.00108165
5.85791e-06
0.00107582
5.88239e-06
0.00107017
5.81324e-06
0.00106447
5.77711e-06
0.001059
5.65157e-06
0.00105355
5.55182e-06
0.00104836
5.38988e-06
0.0010432
5.27295e-06
0.00103827
5.12949e-06
0.00103335
5.02661e-06
0.00102865
4.88641e-06
0.00102397
4.75558e-06
0.00101956
4.58231e-06
0.00101519
4.42174e-06
0.00101108
4.25967e-06
0.00100697
4.14851e-06
0.00100302
4.08529e-06
0.000998925
4.11242e-06
0.000994795
4.24872e-06
0.000990257
4.54187e-06
0.000985315
5.04884e-06
0.000979486
5.81898e-06
0.00097275
6.835e-06
0.000964725
8.00472e-06
0.000955428
9.38941e-06
0.000944356
1.10425e-05
0.000931393
1.30471e-05
0.000915815
1.55337e-05
0.000897213
1.86757e-05
0.000874402
2.2751e-05
0.000845971
2.84892e-05
0.000810482
3.54031e-05
0.000766657
4.38588e-05
0.000712975
5.35565e-05
0.000648314
6.46492e-05
0.000568448
7.9673e-05
0.000470636
9.77265e-05
0.000353282
0.000117073
0.00021711
0.000136008
6.50454e-05
0.000151704
-8.74776e-05
0.000152287
-0.000212473
0.000124559
-0.000287549
7.47245e-05
-0.000294154
6.04677e-06
-0.000172188
-0.000122586
-0.000342977
0.000170503
0.00241013
1.98414e-05
0.00240256
8.16188e-05
0.00238797
0.000104803
0.00236881
0.000114815
0.00234615
0.000121869
0.00232087
0.000126783
0.00229416
0.000130328
0.0022663
0.000133087
0.00223793
0.00013428
0.00220894
0.00013336
0.0021797
0.000129426
0.00214998
0.00012066
0.00211541
0.000100262
0.00207422
6.67105e-05
0.00203404
3.57342e-05
0.00199954
2.00898e-05
0.00197086
1.72951e-05
0.001946
2.03405e-05
0.00192401
2.41355e-05
0.00190376
2.5825e-05
0.00188461
2.53637e-05
0.00186625
2.38308e-05
0.00184892
2.22345e-05
0.00183234
2.12004e-05
0.00181644
2.06303e-05
0.00180093
2.02886e-05
0.00178601
2.0202e-05
0.00177136
2.00278e-05
0.00175721
1.9676e-05
0.00174352
1.91132e-05
0.00173039
1.82292e-05
0.00171772
1.69757e-05
0.00170576
1.56631e-05
0.00169445
1.46164e-05
0.00168379
1.36936e-05
0.00167372
1.29002e-05
0.00166419
1.22134e-05
0.00165521
1.16041e-05
0.00164673
1.11561e-05
0.00163856
1.07399e-05
0.0016308
1.03336e-05
0.00162338
1.0091e-05
0.00161625
9.89323e-06
0.00160941
9.76945e-06
0.00160287
9.81931e-06
0.00159642
1.01685e-05
0.00159022
1.05301e-05
0.00158407
1.11129e-05
0.00157816
1.16063e-05
0.00157202
1.19443e-05
0.00156599
1.19065e-05
0.00155997
1.1883e-05
0.00155416
1.1753e-05
0.00154837
1.16783e-05
0.00154278
1.15257e-05
0.00153724
1.14292e-05
0.0015319
1.12475e-05
0.00152661
1.10916e-05
0.00152152
1.0846e-05
0.0015165
1.06112e-05
0.0015117
1.03058e-05
0.00150699
1.00279e-05
0.00150251
9.72345e-06
0.00149812
9.45923e-06
0.00149394
9.16613e-06
0.00148985
8.87723e-06
0.00148598
8.53787e-06
0.00148222
8.19977e-06
0.00147869
7.85712e-06
0.00147528
7.56777e-06
0.00147208
7.3445e-06
0.00146894
7.24282e-06
0.00146594
7.29837e-06
0.00146288
7.58788e-06
0.00145981
8.15552e-06
0.00145651
9.10036e-06
0.00145291
1.04596e-05
0.00144869
1.21934e-05
0.00144374
1.43585e-05
0.00143776
1.69871e-05
0.00143058
2.02365e-05
0.0014218
2.42712e-05
0.00141111
2.9362e-05
0.00139794
3.58645e-05
0.00138205
4.43559e-05
0.0013626
5.47772e-05
0.00133739
6.9031e-05
0.00130501
8.58426e-05
0.00126339
0.000106192
0.00121054
0.00013238
0.00114301
0.000165138
0.00105599
0.000203901
0.000945035
0.000246797
0.000809904
0.00028661
0.000654159
0.000307813
0.00048056
0.000297866
0.000302715
0.000252244
0.000154972
0.000153341
0.0001119
-8.00495e-05
-0.000483107
0.000251602
0.00241922
2.00155e-05
0.00242465
7.61357e-05
0.00242694
0.000102631
0.00242498
0.000116742
0.00241951
0.000127453
0.00241125
0.000135046
0.00240115
0.000140472
0.00238972
0.000144483
0.00237763
0.000146444
0.00236494
0.000146047
0.00235187
0.000142532
0.00233811
0.000134393
0.00232118
0.000117263
0.00229771
9.02051e-05
0.0022696
6.386e-05
0.00224099
4.86686e-05
0.00221427
4.40829e-05
0.00218988
4.47454e-05
0.00216763
4.64149e-05
0.00214669
4.67639e-05
0.00212659
4.55093e-05
0.00210701
4.34163e-05
0.00208804
4.12701e-05
0.00206967
3.9621e-05
0.00205192
3.84794e-05
0.00203458
3.75659e-05
0.0020179
3.69878e-05
0.00200162
3.62482e-05
0.00198592
3.53956e-05
0.00197069
3.43847e-05
0.00195593
3.30834e-05
0.00194156
3.13136e-05
0.00192778
2.94623e-05
0.00191459
2.78131e-05
0.00190204
2.62645e-05
0.00189012
2.48467e-05
0.00187879
2.35494e-05
0.00186807
2.2359e-05
0.00185794
2.1373e-05
0.00184824
2.04115e-05
0.00183904
1.95382e-05
0.0018303
1.88568e-05
0.00182195
1.82569e-05
0.001814
1.77672e-05
0.0018065
1.74279e-05
0.00179934
1.73424e-05
0.00179265
1.73019e-05
0.00178627
1.75467e-05
0.00178032
1.78165e-05
0.00177439
1.79643e-05
0.00176866
1.77186e-05
0.00176305
1.75136e-05
0.00175767
1.72102e-05
0.0017524
1.69725e-05
0.00174737
1.66424e-05
0.00174244
1.63833e-05
0.00173774
1.60416e-05
0.00173313
1.57417e-05
0.00172873
1.53487e-05
0.00172442
1.49733e-05
0.00172032
1.45173e-05
0.00171632
1.40884e-05
0.00171253
1.36234e-05
0.00170884
1.32007e-05
0.00170536
1.2745e-05
0.00170199
1.22957e-05
0.00169883
1.17835e-05
0.0016958
1.12668e-05
0.001693
1.07337e-05
0.00169035
1.02476e-05
0.00168794
9.8226e-06
0.00168567
9.52634e-06
0.00168363
9.40077e-06
0.00168168
9.5475e-06
0.00167989
9.99881e-06
0.00167813
1.08771e-05
0.00167637
1.22685e-05
0.00167437
1.41996e-05
0.00167203
1.67432e-05
0.00166907
1.99484e-05
0.00166535
2.39949e-05
0.00166056
2.90613e-05
0.00165447
3.54877e-05
0.0016467
4.36378e-05
0.00163687
5.42073e-05
0.00162429
6.73521e-05
0.00160855
8.47888e-05
0.00158872
0.000105649
0.0015636
0.00013132
0.0015317
0.000164243
0.0014913
0.00020553
0.00143969
0.000255466
0.00137256
0.000313895
0.00128314
0.000375975
0.00116276
0.000428151
0.00100667
0.00045386
0.000820141
0.000438686
0.00061619
0.000357157
0.000426614
0.000109352
-0.000368964
0.000312501
0.00242165
1.83396e-05
0.00243024
6.74674e-05
0.0024382
9.47553e-05
0.00244256
0.000112345
0.00244359
0.000126502
0.0024418
0.000136813
0.00243791
0.000144376
0.00243249
0.000149858
0.00242615
0.000152815
0.00241911
0.00015307
0.00241162
0.000150035
0.00240349
0.000142471
0.00239366
0.000127138
0.00238009
0.000103759
0.00236313
8.08226e-05
0.0023447
6.70486e-05
0.00232627
6.25506e-05
0.00230816
6.28511e-05
0.00229051
6.40619e-05
0.00227317
6.40717e-05
0.00225608
6.26144e-05
0.0022391
6.03873e-05
0.00222232
5.80699e-05
0.00220581
5.61374e-05
0.00218965
5.46784e-05
0.00217372
5.34279e-05
0.00215827
5.24849e-05
0.00214307
5.13871e-05
0.0021283
5.01622e-05
0.00211395
4.87411e-05
0.00209995
4.71308e-05
0.00208621
4.50107e-05
0.00207293
4.27438e-05
0.00206013
4.06028e-05
0.00204786
3.85354e-05
0.00203612
3.65891e-05
0.0020249
3.47611e-05
0.00201422
3.30454e-05
0.00200408
3.15469e-05
0.00199438
3.00891e-05
0.00198516
2.87504e-05
0.0019764
2.76156e-05
0.00196806
2.65915e-05
0.00196013
2.57088e-05
0.00195266
2.49779e-05
0.00194554
2.44594e-05
0.0019389
2.39941e-05
0.00193264
2.37987e-05
0.0019269
2.37233e-05
0.00192128
2.36001e-05
0.00191592
2.31473e-05
0.00191069
2.27188e-05
0.00190574
2.22228e-05
0.0019009
2.17902e-05
0.00189631
2.12926e-05
0.00189183
2.08593e-05
0.00188756
2.03727e-05
0.00188338
1.99275e-05
0.00187939
1.9414e-05
0.00187547
1.89131e-05
0.00187172
1.83511e-05
0.00186802
1.78117e-05
0.00186447
1.72462e-05
0.00186098
1.67085e-05
0.00185765
1.61411e-05
0.00185438
1.55725e-05
0.00185128
1.4944e-05
0.00184825
1.42993e-05
0.00184539
1.36339e-05
0.00184263
1.29989e-05
0.00184007
1.24158e-05
0.00183764
1.19509e-05
0.00183541
1.16558e-05
0.00183329
1.16463e-05
0.00183136
1.19496e-05
0.00182951
1.27108e-05
0.00182776
1.40208e-05
0.00182598
1.59629e-05
0.00182408
1.86403e-05
0.00182186
2.21421e-05
0.00181921
2.66426e-05
0.00181588
3.23512e-05
0.00181174
3.96141e-05
0.00180652
4.88172e-05
0.00180001
6.07039e-05
0.00179167
7.56417e-05
0.00178141
9.50042e-05
0.00176827
0.000118729
0.00175193
0.00014761
0.00173114
0.000184946
0.00170481
0.000231778
0.00167122
0.000288953
0.00162751
0.000357503
0.00156761
0.000435747
0.00148142
0.000514219
0.00135903
0.000576082
0.0011954
0.000602147
0.000985128
0.000567224
0.000719745
0.000374506
-7.24527e-05
0.000422983
0.00242113
1.60971e-05
0.0024302
5.83773e-05
0.00243988
8.51303e-05
0.00244683
0.000105382
0.00245086
0.00012254
0.00245215
0.000135524
0.00245145
0.000145113
0.00244927
0.000152016
0.00244608
0.000156054
0.00244211
0.000157039
0.00243768
0.000154488
0.00243264
0.000147505
0.0024263
0.000133519
0.00241754
0.000112534
0.00240665
9.17242e-05
0.00239484
7.88457e-05
0.00238294
7.44986e-05
0.00237097
7.48337e-05
0.00235887
7.61889e-05
0.0023464
7.65451e-05
0.00233353
7.55174e-05
0.0023203
7.36317e-05
0.00230692
7.15026e-05
0.00229348
6.96152e-05
0.0022801
6.81218e-05
0.00226675
6.67468e-05
0.00225367
6.56383e-05
0.0022407
6.43421e-05
0.00222795
6.293e-05
0.00221544
6.12767e-05
0.00220316
5.94792e-05
0.00219101
5.7156e-05
0.00217914
5.4636e-05
0.00216759
5.21649e-05
0.00215641
4.97363e-05
0.00214561
4.74103e-05
0.0021352
4.51876e-05
0.0021252
4.30643e-05
0.00211566
4.11522e-05
0.00210647
3.92717e-05
0.0020977
3.75327e-05
0.00208934
3.59939e-05
0.00208136
3.45834e-05
0.00207377
3.33429e-05
0.00206658
3.2265e-05
0.00205965
3.14018e-05
0.00205315
3.05793e-05
0.00204697
2.99994e-05
0.00204127
2.95899e-05
0.00203573
2.91946e-05
0.00203043
2.85251e-05
0.00202527
2.78867e-05
0.00202037
2.71981e-05
0.00201559
2.65894e-05
0.00201102
2.59342e-05
0.00200655
2.53498e-05
0.00200228
2.47287e-05
0.00199808
2.41601e-05
0.00199404
2.35401e-05
0.00199005
2.29411e-05
0.0019862
2.22944e-05
0.00198238
2.16766e-05
0.00197868
2.10343e-05
0.00197502
2.04141e-05
0.00197148
1.97634e-05
0.00196797
1.91125e-05
0.00196458
1.84053e-05
0.00196123
1.76764e-05
0.00195801
1.69172e-05
0.00195485
1.61757e-05
0.00195185
1.5473e-05
0.00194894
1.48778e-05
0.00194621
1.44332e-05
0.00194359
1.42784e-05
0.00194115
1.44333e-05
0.00193884
1.50329e-05
0.0019367
1.61962e-05
0.00193463
1.8039e-05
0.00193262
2.06907e-05
0.0019305
2.42722e-05
0.0019282
2.89661e-05
0.00192556
3.50009e-05
0.00192248
4.27196e-05
0.00191877
5.25322e-05
0.00191435
6.5149e-05
0.00190892
8.10706e-05
0.00190285
0.000101093
0.00189369
0.000127883
0.00188334
0.000157971
0.00187059
0.000197682
0.0018544
0.000247968
0.00183346
0.000309881
0.00180602
0.000384936
0.00176812
0.000473622
0.00171166
0.000570658
0.00162508
0.000662621
0.00149638
0.000730806
0.00131102
0.000752517
0.00103687
0.000648584
0.000283641
0.000680833
0.0024192
1.38434e-05
0.00242779
4.97409e-05
0.00243762
7.53543e-05
0.00244546
9.7513e-05
0.00245087
0.00011717
0.00245377
0.000132608
0.00245482
0.000144073
0.00245455
0.000152247
0.00245335
0.000157278
0.00245141
0.000158951
0.00244905
0.00015686
0.00244608
0.000150433
0.00244201
0.000137613
0.00243609
0.000118444
0.00242869
9.91206e-05
0.00242079
8.66996e-05
0.00241309
8.22203e-05
0.00240552
8.23933e-05
0.00239787
8.3836e-05
0.00238978
8.46048e-05
0.00238113
8.41718e-05
0.00237189
8.28536e-05
0.00236222
8.11907e-05
0.0023522
7.9629e-05
0.002342
7.8341e-05
0.00233161
7.70803e-05
0.00232128
7.59886e-05
0.00231089
7.47001e-05
0.00230054
7.32766e-05
0.00229022
7.15838e-05
0.00228001
6.97194e-05
0.00226977
6.73744e-05
0.00225963
6.47797e-05
0.00224961
6.21682e-05
0.00223979
5.95638e-05
0.00223017
5.70332e-05
0.00222076
5.45768e-05
0.00221163
5.21904e-05
0.00220282
4.99884e-05
0.00219426
4.78145e-05
0.00218602
4.57672e-05
0.00217811
4.39037e-05
0.00217051
4.21737e-05
0.00216323
4.06311e-05
0.0021563
3.92684e-05
0.00214957
3.81225e-05
0.00214317
3.70218e-05
0.00213702
3.61191e-05
0.0021313
3.54116e-05
0.00212572
3.47697e-05
0.00212038
3.39207e-05
0.00211515
3.30878e-05
0.00211017
3.22244e-05
0.00210531
3.14385e-05
0.00210065
3.06335e-05
0.0020961
2.98967e-05
0.00209173
2.91481e-05
0.00208744
2.84525e-05
0.0020833
2.77302e-05
0.00207922
2.70312e-05
0.00207528
2.63023e-05
0.00207137
2.55948e-05
0.00206759
2.48685e-05
0.00206386
2.41591e-05
0.00206024
2.34305e-05
0.00205665
2.27002e-05
0.00205317
2.19255e-05
0.00204972
2.11248e-05
0.00204637
2.02924e-05
0.00204307
1.94649e-05
0.0020399
1.86669e-05
0.00203681
1.79608e-05
0.00203386
1.73957e-05
0.00203102
1.71002e-05
0.00202835
1.71142e-05
0.00202581
1.75493e-05
0.00202346
1.85425e-05
0.00202125
2.02316e-05
0.00201917
2.2766e-05
0.00201712
2.62926e-05
0.00201507
3.10063e-05
0.00201289
3.71498e-05
0.00201053
4.50573e-05
0.00200787
5.51561e-05
0.00200489
6.80997e-05
0.00200143
8.4492e-05
0.00199747
0.00010501
0.00199243
0.000132875
0.00198605
0.000164299
0.00197916
0.000204494
0.00197078
0.000256285
0.00195979
0.000320778
0.00194525
0.000399395
0.00192488
0.000493894
0.00189279
0.000602636
0.00183852
0.000716774
0.00174811
0.000821079
0.00160437
0.000896114
0.00136787
0.000884928
0.000621193
0.00103013
0.00241663
1.17628e-05
0.00242438
4.19801e-05
0.00243364
6.61409e-05
0.00244153
8.96208e-05
0.00244745
0.000111289
0.00245123
0.000128835
0.00245335
0.000141976
0.00245427
0.000151315
0.00245441
0.000157174
0.00245392
0.000159445
0.00245303
0.000157773
0.00245161
0.000151852
0.00244922
0.000140035
0.0024453
0.000122384
0.00244019
0.000104241
0.00243483
9.20535e-05
0.00242984
8.7243e-05
0.00242519
8.70664e-05
0.00242063
8.84136e-05
0.00241582
8.94205e-05
0.00241056
8.94612e-05
0.00240474
8.86954e-05
0.00239841
8.75641e-05
0.00239162
8.64482e-05
0.0023845
8.55114e-05
0.00237705
8.45183e-05
0.00236946
8.36385e-05
0.00236162
8.25324e-05
0.00235365
8.12708e-05
0.00234556
7.97029e-05
0.00233741
7.79143e-05
0.00232911
7.56847e-05
0.00232074
7.31772e-05
0.00231232
7.06001e-05
0.00230391
6.79932e-05
0.00229555
6.54259e-05
0.00228724
6.28957e-05
0.00227905
6.03941e-05
0.00227105
5.80353e-05
0.00226319
5.56757e-05
0.00225556
5.34243e-05
0.00224815
5.13257e-05
0.00224099
4.93446e-05
0.00223409
4.75714e-05
0.00222748
4.59636e-05
0.00222104
4.45947e-05
0.00221487
4.32636e-05
0.00220888
4.21017e-05
0.00220327
4.11413e-05
0.00219779
4.02757e-05
0.00219253
3.92568e-05
0.00218738
3.82477e-05
0.00218246
3.72081e-05
0.00217767
3.62445e-05
0.00217309
3.52848e-05
0.0021686
3.4399e-05
0.00216431
3.35206e-05
0.00216008
3.27013e-05
0.00215602
3.1876e-05
0.002152
3.1083e-05
0.00214811
3.02749e-05
0.00214426
2.9484e-05
0.00214053
2.86754e-05
0.00213685
2.78825e-05
0.00213327
2.70797e-05
0.00212972
2.62795e-05
0.00212625
2.54458e-05
0.00212282
2.45871e-05
0.00211946
2.36962e-05
0.00211614
2.2802e-05
0.00211293
2.19281e-05
0.00210977
2.11329e-05
0.00210674
2.04676e-05
0.00210381
2.0048e-05
0.00210102
1.99374e-05
0.00209835
2.023e-05
0.00209587
2.10605e-05
0.00209353
2.25789e-05
0.00209138
2.49515e-05
0.00208933
2.83444e-05
0.0020874
3.29665e-05
0.00208549
3.90677e-05
0.0020836
4.69773e-05
0.00208164
5.71252e-05
0.00207964
7.01192e-05
0.00207752
8.66104e-05
0.00207528
0.000107273
0.00207355
0.000134603
0.00206968
0.000168174
0.00206653
0.000207641
0.00206373
0.000259085
0.00206014
0.000324357
0.00205505
0.000404485
0.00204738
0.000501553
0.00203353
0.000616471
0.00200571
0.00074458
0.00195137
0.000875398
0.00185412
0.000993328
0.00167443
0.00106458
0.000911125
0.00138457
0.00241381
9.92834e-06
0.0024206
3.51599e-05
0.00242899
5.77849e-05
0.00243651
8.20847e-05
0.0024425
0.000105326
0.00244671
0.000124612
0.0024495
0.000139184
0.00245125
0.000149538
0.00245235
0.00015609
0.00245293
0.000158842
0.00245319
0.000157521
0.00245297
0.000152038
0.00245191
0.000141112
0.0024495
0.000124779
0.00244609
0.000107649
0.0024425
9.56084e-05
0.00243938
9.03741e-05
0.00243671
8.9723e-05
0.00243429
9.08318e-05
0.00243177
9.19181e-05
0.00242894
9.22908e-05
0.00242565
9.19703e-05
0.00242191
9.13062e-05
0.00241774
9.06117e-05
0.00241322
9.00352e-05
0.00240833
8.93727e-05
0.0024032
8.87711e-05
0.00239775
8.79524e-05
0.00239206
8.69595e-05
0.0023861
8.5656e-05
0.00237995
8.40697e-05
0.00237352
8.21021e-05
0.00236688
7.98158e-05
0.00236006
7.74166e-05
0.0023531
7.49532e-05
0.00234604
7.24894e-05
0.0023389
7.00201e-05
0.00233176
6.7529e-05
0.00232468
6.51265e-05
0.00231765
6.26971e-05
0.00231074
6.03316e-05
0.00230398
5.80784e-05
0.00229739
5.59256e-05
0.002291
5.39682e-05
0.00228486
5.21723e-05
0.00227885
5.05994e-05
0.00227307
4.90775e-05
0.00226743
4.76963e-05
0.00226212
4.65143e-05
0.00225693
4.5453e-05
0.00225193
4.42962e-05
0.00224702
4.31355e-05
0.00224232
4.19415e-05
0.00223774
4.0812e-05
0.00223335
3.97084e-05
0.00222906
3.86803e-05
0.00222494
3.76803e-05
0.0022209
3.67434e-05
0.002217
3.58232e-05
0.00221314
3.49438e-05
0.0022094
3.40692e-05
0.00220568
3.32129e-05
0.00220205
3.23438e-05
0.00219846
3.14848e-05
0.00219495
3.06223e-05
0.00219146
2.97638e-05
0.00218805
2.88819e-05
0.00218466
2.79751e-05
0.00218134
2.70375e-05
0.00217804
2.60897e-05
0.00217483
2.51549e-05
0.00217166
2.42856e-05
0.0021686
2.35335e-05
0.00216563
2.30032e-05
0.00216279
2.27729e-05
0.00216007
2.29286e-05
0.00215753
2.35995e-05
0.00215515
2.49391e-05
0.00215297
2.71223e-05
0.00215096
3.03301e-05
0.00214913
3.47803e-05
0.00214743
4.07286e-05
0.00214589
4.84988e-05
0.00214446
5.85169e-05
0.0021432
7.13543e-05
0.0021421
8.76628e-05
0.00214107
0.00010827
0.00214107
0.000134549
0.00214008
0.000169113
0.00213946
0.000208188
0.0021403
0.000258182
0.00214212
0.000322456
0.00214401
0.00040251
0.00214545
0.00050003
0.00214464
0.00061718
0.00213663
0.000752485
0.00211171
0.000900215
0.00205651
0.00104841
0.00193586
0.00118511
0.00113859
0.00170826
0.00241097
8.35991e-06
0.00241679
2.93304e-05
0.00242422
5.03963e-05
0.00243116
7.51352e-05
0.00243698
9.95469e-05
0.00244137
0.000120224
0.0024446
0.000135975
0.00244696
0.00014718
0.00244879
0.000154285
0.00245023
0.000157407
0.00245139
0.00015638
0.00245215
0.000151274
0.00245217
0.000141127
0.002451
0.000125965
0.00244891
0.000109754
0.00244665
9.78628e-05
0.00244488
9.21821e-05
0.00244361
9.10052e-05
0.00244268
9.17858e-05
0.00244175
9.28461e-05
0.00244064
9.34381e-05
0.00243915
9.34682e-05
0.00243731
9.3193e-05
0.00243509
9.2862e-05
0.00243255
9.26118e-05
0.00242967
9.22507e-05
0.00242656
9.19227e-05
0.00242314
9.13789e-05
0.00241946
9.06715e-05
0.00241546
8.96764e-05
0.00241118
8.83843e-05
0.00240655
8.67525e-05
0.00240159
8.47962e-05
0.00239634
8.269e-05
0.00239083
8.0482e-05
0.00238511
7.82298e-05
0.00237922
7.59265e-05
0.00237321
7.35502e-05
0.00236717
7.12071e-05
0.00236108
6.87956e-05
0.00235503
6.64015e-05
0.00234905
6.40732e-05
0.00234318
6.18153e-05
0.00233744
5.97521e-05
0.00233188
5.7814e-05
0.00232642
5.60845e-05
0.00232115
5.44073e-05
0.00231599
5.28524e-05
0.00231109
5.1491e-05
0.0023063
5.02629e-05
0.00230168
4.89859e-05
0.00229711
4.77058e-05
0.00229273
4.63897e-05
0.00228843
4.51246e-05
0.00228431
4.38955e-05
0.00228027
4.27417e-05
0.00227638
4.16314e-05
0.00227256
4.05899e-05
0.00226888
3.95842e-05
0.00226523
3.8628e-05
0.00226167
3.76949e-05
0.00225814
3.67875e-05
0.00225467
3.5876e-05
0.00225122
3.49712e-05
0.00224784
3.40656e-05
0.00224447
3.3162e-05
0.00224116
3.22389e-05
0.00223787
3.12905e-05
0.00223464
3.0314e-05
0.00223142
2.93231e-05
0.00222828
2.83395e-05
0.00222517
2.74081e-05
0.00222216
2.65814e-05
0.00221922
2.59527e-05
0.00221642
2.5609e-05
0.00221373
2.56334e-05
0.00221121
2.6151e-05
0.00220885
2.73115e-05
0.0022067
2.92945e-05
0.00220476
3.22879e-05
0.00220305
3.65166e-05
0.00220155
4.22374e-05
0.0022003
4.97703e-05
0.00219929
5.95295e-05
0.00219861
7.20591e-05
0.0021983
8.79811e-05
0.00219836
0.000108222
0.00219932
0.000133592
0.00220124
0.0001672
0.00220214
0.000207283
0.00220519
0.000255139
0.00221065
0.000316982
0.00221779
0.00039537
0.00222599
0.000491828
0.00223448
0.000608684
0.00224057
0.000746392
0.00223759
0.000903183
0.00221588
0.00107012
0.00214721
0.00125377
0.00129919
0.00198668
0.00240823
7.06636e-06
0.00241314
2.43899e-05
0.00241961
4.39665e-05
0.0024259
6.88199e-05
0.00243143
9.40356e-05
0.00243588
0.000115765
0.0024394
0.000132451
0.00244223
0.00014433
0.00244466
0.000151862
0.0024468
0.000155256
0.00244871
0.000154467
0.00245028
0.00014968
0.0024512
0.000140214
0.00245104
0.000126113
0.00245002
0.00011077
0.00244881
9.90433e-05
0.00244805
9.29509e-05
0.00244781
9.12308e-05
0.00244795
9.16403e-05
0.00244817
9.26045e-05
0.00244827
9.33315e-05
0.00244809
9.363e-05
0.00244762
9.36722e-05
0.00244683
9.36408e-05
0.00244578
9.36606e-05
0.00244443
9.35685e-05
0.00244288
9.34748e-05
0.00244106
9.31765e-05
0.00243901
9.27213e-05
0.00243666
9.20092e-05
0.00243403
9.1018e-05
0.00243103
8.97387e-05
0.00242767
8.81621e-05
0.00242393
8.64241e-05
0.00241985
8.45526e-05
0.00241549
8.25891e-05
0.00241088
8.05265e-05
0.00240608
7.83478e-05
0.00240114
7.61501e-05
0.00239608
7.38478e-05
0.00239097
7.15061e-05
0.00238586
6.91839e-05
0.00238078
6.69021e-05
0.00237575
6.47811e-05
0.00237086
6.27655e-05
0.002366
6.09242e-05
0.0023613
5.91379e-05
0.00235666
5.74515e-05
0.00235225
5.59452e-05
0.0023479
5.45805e-05
0.00234371
5.32097e-05
0.00233956
5.18389e-05
0.00233555
5.04343e-05
0.00233159
4.90643e-05
0.00232779
4.77328e-05
0.00232405
4.64717e-05
0.00232045
4.52658e-05
0.0023169
4.41333e-05
0.00231348
4.30519e-05
0.00231008
4.20256e-05
0.00230678
4.10382e-05
0.00230348
4.00875e-05
0.00230025
3.91464e-05
0.00229701
3.82132e-05
0.00229382
3.72816e-05
0.00229063
3.63488e-05
0.00228749
3.53969e-05
0.00228435
3.44178e-05
0.00228127
3.34119e-05
0.00227819
3.23884e-05
0.00227517
3.13664e-05
0.00227218
3.03839e-05
0.00226927
2.94926e-05
0.00226643
2.87766e-05
0.00226371
2.83269e-05
0.0022611
2.82272e-05
0.00225865
2.8596e-05
0.00225635
2.95789e-05
0.00225428
3.13547e-05
0.00225243
3.41151e-05
0.00225084
3.8087e-05
0.00224952
4.3528e-05
0.00224851
5.07492e-05
0.00224785
6.01514e-05
0.00224763
7.22529e-05
0.00224792
8.76442e-05
0.00224884
0.00010726
0.00225066
0.000131719
0.00225423
0.00016358
0.00225715
0.000204295
0.00226164
0.00025059
0.00226911
0.000309433
0.00227992
0.000384486
0.00229322
0.000478441
0.00230849
0.000593332
0.00232446
0.00073033
0.00233699
0.00089056
0.00234118
0.00106583
0.00231554
0.00127932
0.00139813
0.00221647
0.00240569
6.03212e-06
0.00240977
2.02978e-05
0.00241532
3.84566e-05
0.00242096
6.31726e-05
0.00242616
8.88657e-05
0.00243059
0.000111346
0.00243433
0.000128729
0.00243754
0.000141117
0.00244048
0.000148951
0.00244321
0.000152534
0.00244575
0.000151938
0.002448
0.000147432
0.00244967
0.00013857
0.00245037
0.000125427
0.00245023
0.000110924
0.00244987
9.9406e-05
0.00244991
9.29416e-05
0.00245045
9.07015e-05
0.00245138
9.07367e-05
0.00245242
9.15658e-05
0.00245342
9.23687e-05
0.00245419
9.28729e-05
0.00245473
9.31687e-05
0.00245501
9.3386e-05
0.00245507
9.36312e-05
0.00245489
9.37564e-05
0.00245453
9.38647e-05
0.00245396
9.37695e-05
0.00245317
9.35285e-05
0.00245215
9.30574e-05
0.00245086
9.23328e-05
0.00244926
9.13569e-05
0.00244731
9.01377e-05
0.00244498
8.87757e-05
0.00244228
8.72735e-05
0.00243924
8.56488e-05
0.00243589
8.38866e-05
0.00243228
8.1973e-05
0.00242847
7.99947e-05
0.00242446
7.78771e-05
0.00242031
7.56705e-05
0.00241608
7.34343e-05
0.00241182
7.1195e-05
0.00240754
6.9092e-05
0.00240334
6.7052e-05
0.00239912
6.51515e-05
0.00239502
6.32984e-05
0.00239093
6.15244e-05
0.00238703
5.9914e-05
0.00238318
5.8441e-05
0.00237946
5.69928e-05
0.00237575
5.5553e-05
0.00237216
5.4085e-05
0.0023686
5.26363e-05
0.00236517
5.12232e-05
0.00236179
4.98743e-05
0.00235853
4.85897e-05
0.00235531
4.73816e-05
0.00235219
4.62373e-05
0.0023491
4.51516e-05
0.00234609
4.41177e-05
0.00234308
4.31306e-05
0.00234012
4.21693e-05
0.00233714
4.12207e-05
0.0023342
4.02783e-05
0.00233124
3.93329e-05
0.00232832
3.83696e-05
0.00232538
3.73755e-05
0.00232248
3.63537e-05
0.00231958
3.53093e-05
0.00231672
3.42609e-05
0.00231388
3.32389e-05
0.00231112
3.22945e-05
0.00230841
3.15022e-05
0.00230581
3.09552e-05
0.00230331
3.07367e-05
0.00230098
3.09627e-05
0.0022988
3.17719e-05
0.00229684
3.33407e-05
0.0022951
3.58593e-05
0.00229366
3.95555e-05
0.00229252
4.46835e-05
0.00229174
5.15459e-05
0.00229138
6.05253e-05
0.00229153
7.21165e-05
0.0022923
8.68817e-05
0.00229387
0.000105704
0.00229627
0.00012932
0.00230049
0.000159362
0.00230601
0.000198778
0.00231141
0.000245186
0.00232027
0.000300574
0.002333
0.000371753
0.00234994
0.000461494
0.00237028
0.000572999
0.00239335
0.000707261
0.0024166
0.000867311
0.00243792
0.00104451
0.00244646
0.00127076
0.00144398
0.00240068
0.00240339
5.24334e-06
0.00240673
1.69341e-05
0.00241144
3.37761e-05
0.00241646
5.81362e-05
0.00242133
8.40112e-05
0.0024257
0.00010696
0.00242961
0.000124822
0.00243315
0.000137556
0.00243653
0.000145584
0.00243976
0.000149284
0.00244286
0.000148844
0.00244568
0.000144592
0.00244798
0.000136273
0.0024494
0.000123999
0.00245002
0.000110294
0.00245037
9.90303e-05
0.00245105
9.22741e-05
0.00245219
8.9547e-05
0.0024537
8.92142e-05
0.00245537
8.98817e-05
0.00245702
9.07171e-05
0.0024585
9.13755e-05
0.0024598
9.18726e-05
0.00246088
9.22888e-05
0.00246179
9.2713e-05
0.00246251
9.30181e-05
0.00246308
9.32864e-05
0.00246347
9.33692e-05
0.00246368
9.33088e-05
0.00246369
9.30389e-05
0.00246347
9.25432e-05
0.002463
9.18231e-05
0.00246223
9.09074e-05
0.00246111
8.9882e-05
0.00245965
8.87355e-05
0.00245784
8.74615e-05
0.00245568
8.6033e-05
0.00245321
8.44298e-05
0.00245048
8.27261e-05
0.0024475
8.08593e-05
0.00244431
7.88564e-05
0.00244096
7.67777e-05
0.00243751
7.46552e-05
0.00243399
7.26121e-05
0.00243049
7.06018e-05
0.00242694
6.86863e-05
0.00242345
6.68077e-05
0.00241995
6.49856e-05
0.00241659
6.33038e-05
0.00241325
6.17497e-05
0.00241003
6.02441e-05
0.00240681
5.87551e-05
0.00240368
5.72454e-05
0.00240056
5.57421e-05
0.00239754
5.42688e-05
0.00239455
5.28529e-05
0.00239167
5.15062e-05
0.00238881
5.02388e-05
0.00238604
4.9045e-05
0.00238328
4.79147e-05
0.00238058
4.68448e-05
0.00237788
4.58307e-05
0.00237523
4.48567e-05
0.00237254
4.39032e-05
0.00236988
4.29611e-05
0.00236719
4.20176e-05
0.00236452
4.10581e-05
0.00236182
4.00652e-05
0.00235914
3.90405e-05
0.00235645
3.79873e-05
0.00235379
3.69228e-05
0.00235114
3.58728e-05
0.00234855
3.48849e-05
0.00234601
3.40268e-05
0.00234357
3.3389e-05
0.00234123
3.30564e-05
0.00233904
3.31424e-05
0.00233701
3.37807e-05
0.0023352
3.51414e-05
0.00233361
3.74125e-05
0.00233233
4.08184e-05
0.00233137
4.56103e-05
0.00233081
5.20799e-05
0.00233071
6.05926e-05
0.00233118
7.16144e-05
0.00233233
8.56862e-05
0.00233438
0.00010361
0.00233738
0.000126268
0.00234209
0.000154596
0.00234922
0.000191587
0.00235638
0.00023796
0.0023656
0.000291285
0.00237942
0.000357861
0.00239825
0.000442583
0.00242221
0.000548961
0.00245054
0.000678849
0.00248143
0.000836349
0.0025141
0.00101175
0.00254523
0.00123956
0.00144598
0.00254313
0.00240136
4.6745e-06
0.00240404
1.42425e-05
0.00240801
2.98462e-05
0.00241246
5.36825e-05
0.00241701
7.94847e-05
0.00242133
0.000102653
0.00242537
0.000120791
0.0024292
0.000133727
0.00243296
0.00014185
0.00243664
0.000145612
0.0024402
0.000145296
0.00244351
0.000141282
0.00244635
0.000133462
0.00244837
0.000121986
0.00244964
0.000109038
0.00245061
9.80696e-05
0.0024518
9.11075e-05
0.00245341
8.79519e-05
0.00245538
8.72675e-05
0.00245751
8.77617e-05
0.00245965
8.85975e-05
0.00246167
8.93703e-05
0.00246355
9.00288e-05
0.00246525
9.06065e-05
0.00246682
9.11744e-05
0.00246823
9.16216e-05
0.00246952
9.20222e-05
0.00247066
9.22481e-05
0.00247166
9.23401e-05
0.00247247
9.22389e-05
0.0024731
9.19372e-05
0.00247352
9.14266e-05
0.00247369
9.07619e-05
0.00247357
9.00212e-05
0.00247314
8.91865e-05
0.00247239
8.82385e-05
0.00247129
8.71384e-05
0.00246988
8.58577e-05
0.00246817
8.44573e-05
0.00246617
8.28819e-05
0.00246391
8.11377e-05
0.00246144
7.92757e-05
0.00245881
7.73188e-05
0.00245604
7.54031e-05
0.00245326
7.34648e-05
0.00245038
7.15772e-05
0.00244753
6.97096e-05
0.00244462
6.78773e-05
0.00244182
6.61623e-05
0.00243902
6.4556e-05
0.00243631
6.30114e-05
0.00243358
6.14903e-05
0.00243093
5.99572e-05
0.00242827
5.84217e-05
0.00242568
5.69116e-05
0.00242311
5.54497e-05
0.00242062
5.40592e-05
0.00241814
5.27481e-05
0.00241573
5.15193e-05
0.00241331
5.03575e-05
0.00241096
4.9264e-05
0.00240859
4.82321e-05
0.00240625
4.72527e-05
0.00240388
4.63006e-05
0.00240153
4.53672e-05
0.00239914
4.4435e-05
0.00239675
4.34915e-05
0.00239432
4.25133e-05
0.0023919
4.15003e-05
0.00238945
4.04513e-05
0.00238703
3.93844e-05
0.0023846
3.83187e-05
0.00238222
3.73002e-05
0.00237987
3.63882e-05
0.00237762
3.56713e-05
0.00237546
3.5233e-05
0.00237344
3.51862e-05
0.00237158
3.56585e-05
0.00236993
3.68155e-05
0.00236852
3.88388e-05
0.00236741
4.19493e-05
0.00236664
4.63913e-05
0.00236629
5.24487e-05
0.00236642
6.04678e-05
0.00236717