/*--------------------------------*- C++ -*----------------------------------*\
  =========                 |
  \\      /  F ield         | OpenFOAM: The Open Source CFD Toolbox
   \\    /   O peration     | Website:  https://openfoam.org
    \\  /    A nd           | Version:  8
     \\/     M anipulation  |
\*---------------------------------------------------------------------------*/
FoamFile
{
    version     2.0;
    format      ascii;
    class       volScalarField;
    location    "24";
    object      nut;
}
// * * * * * * * * * * * * * * * * * * * * * * * * * * * * * * * * * * * * * //

dimensions      [0 2 -1 0 0 0 0];

internalField   nonuniform List<scalar> 
277560
(
0.139879
0.139631
0.139358
0.139055
0.138722
0.138359
0.137969
0.137554
0.137117
0.136662
0.13619
0.135705
0.135208
0.134701
0.134185
0.133662
0.133134
0.1326
0.132063
0.131524
0.130983
0.130442
0.129902
0.129364
0.128831
0.128304
0.127784
0.127274
0.126776
0.126292
0.125825
0.125376
0.124948
0.124545
0.124168
0.12382
0.123504
0.123221
0.122974
0.122766
0.122597
0.122469
0.122384
0.122342
0.122343
0.122388
0.122475
0.122604
0.122774
0.122983
0.123229
0.123509
0.12382
0.12416
0.124524
0.12491
0.125313
0.12573
0.126156
0.126589
0.127024
0.12746
0.127892
0.12832
0.12874
0.129152
0.129555
0.129946
0.130325
0.130691
0.131044
0.131383
0.131709
0.13202
0.132317
0.1326
0.132868
0.133123
0.133365
0.133593
0.133808
0.134011
0.134202
0.134381
0.134548
0.134705
0.134852
0.134989
0.135116
0.135234
0.135344
0.135446
0.13554
0.135627
0.135707
0.135781
0.135848
0.13591
0.135967
0.136019
0.136066
0.136109
0.136148
0.136184
0.136216
0.136244
0.13627
0.136293
0.136314
0.136333
0.136349
0.136363
0.136376
0.136387
0.136397
0.136405
0.136413
0.136419
0.136424
0.136429
0.139891
0.139647
0.139375
0.139071
0.138735
0.13837
0.137977
0.13756
0.137121
0.136663
0.13619
0.135703
0.135205
0.134696
0.13418
0.133656
0.133127
0.132593
0.132056
0.131516
0.130975
0.130433
0.129893
0.129355
0.128822
0.128295
0.127775
0.127265
0.126767
0.126283
0.125815
0.125366
0.124939
0.124535
0.124158
0.12381
0.123494
0.123211
0.122965
0.122756
0.122588
0.12246
0.122376
0.122334
0.122336
0.122381
0.12247
0.1226
0.122772
0.122982
0.12323
0.123512
0.123827
0.12417
0.124539
0.12493
0.125338
0.125761
0.126193
0.126631
0.127072
0.127513
0.12795
0.128382
0.128807
0.129222
0.129628
0.130023
0.130405
0.130774
0.13113
0.131472
0.1318
0.132114
0.132414
0.132699
0.13297
0.133227
0.133471
0.133701
0.133918
0.134123
0.134315
0.134496
0.134665
0.134824
0.134972
0.13511
0.135238
0.135358
0.135469
0.135571
0.135666
0.135754
0.135835
0.135909
0.135977
0.136039
0.136097
0.136149
0.136196
0.136239
0.136278
0.136313
0.136344
0.136372
0.136397
0.13642
0.136439
0.136457
0.136472
0.136485
0.136496
0.136505
0.136513
0.136519
0.136524
0.136528
0.136531
0.136532
0.139897
0.139656
0.139382
0.139075
0.138736
0.138366
0.137968
0.137546
0.137103
0.136642
0.136165
0.135676
0.135176
0.134666
0.134149
0.133625
0.133096
0.132562
0.132025
0.131486
0.130946
0.130406
0.129867
0.12933
0.128798
0.128272
0.127753
0.127244
0.126746
0.126263
0.125796
0.125347
0.12492
0.124517
0.12414
0.123792
0.123476
0.123193
0.122947
0.122738
0.12257
0.122443
0.122359
0.122318
0.12232
0.122367
0.122457
0.122589
0.122763
0.122977
0.123228
0.123515
0.123834
0.124184
0.12456
0.124959
0.125377
0.125808
0.126249
0.126695
0.127142
0.127588
0.128031
0.128468
0.128898
0.129318
0.129728
0.130127
0.130513
0.130887
0.131246
0.131592
0.131924
0.132242
0.132545
0.132833
0.133108
0.133368
0.133615
0.133849
0.134069
0.134276
0.134471
0.134654
0.134826
0.134987
0.135137
0.135277
0.135407
0.135528
0.13564
0.135744
0.13584
0.135929
0.13601
0.136085
0.136153
0.136216
0.136273
0.136325
0.136372
0.136414
0.136452
0.136486
0.136517
0.136544
0.136567
0.136588
0.136606
0.136621
0.136634
0.136644
0.136653
0.136659
0.136664
0.136667
0.136669
0.136669
0.136667
0.136665
0.139899
0.139659
0.139382
0.139071
0.138725
0.138348
0.137944
0.137515
0.137067
0.136601
0.136122
0.135631
0.13513
0.134621
0.134105
0.133582
0.133055
0.132523
0.131988
0.13145
0.130911
0.130373
0.129835
0.1293
0.128769
0.128244
0.127726
0.127218
0.126721
0.126238
0.125771
0.125323
0.124896
0.124493
0.124116
0.123768
0.123452
0.123169
0.122922
0.122714
0.122546
0.122419
0.122335
0.122295
0.122299
0.122347
0.122439
0.122574
0.122751
0.122968
0.123224
0.123516
0.123842
0.1242
0.124585
0.124995
0.125423
0.125864
0.126313
0.126766
0.127221
0.127674
0.128123
0.128566
0.129001
0.129427
0.129842
0.130246
0.130638
0.131016
0.131381
0.131732
0.132068
0.132391
0.132698
0.132992
0.133271
0.133535
0.133786
0.134024
0.134247
0.134458
0.134657
0.134843
0.135018
0.135181
0.135334
0.135476
0.135609
0.135732
0.135845
0.135951
0.136048
0.136137
0.13622
0.136295
0.136364
0.136426
0.136483
0.136535
0.136581
0.136622
0.136659
0.136692
0.136721
0.136746
0.136767
0.136785
0.136801
0.136813
0.136823
0.13683
0.136835
0.136838
0.136838
0.136837
0.136834
0.13683
0.136824
0.136816
0.139899
0.139657
0.139376
0.139058
0.138705
0.13832
0.137907
0.137472
0.137018
0.13655
0.136069
0.135578
0.135078
0.134571
0.134056
0.133536
0.13301
0.13248
0.131946
0.13141
0.130873
0.130336
0.1298
0.129266
0.128737
0.128212
0.127696
0.127188
0.126692
0.12621
0.125743
0.125296
0.124869
0.124465
0.124088
0.12374
0.123423
0.12314
0.122894
0.122685
0.122517
0.12239
0.122307
0.122267
0.122273
0.122322
0.122416
0.122554
0.122735
0.122957
0.123218
0.123516
0.12385
0.124217
0.124612
0.125033
0.125471
0.125922
0.12638
0.126841
0.127303
0.127763
0.128219
0.128668
0.12911
0.129542
0.129964
0.130374
0.130772
0.131157
0.131528
0.131884
0.132227
0.132555
0.132868
0.133167
0.133451
0.133721
0.133976
0.134218
0.134447
0.134662
0.134865
0.135055
0.135233
0.135399
0.135555
0.1357
0.135835
0.13596
0.136076
0.136183
0.136281
0.136372
0.136455
0.13653
0.136599
0.136662
0.136718
0.136769
0.136814
0.136854
0.13689
0.13692
0.136947
0.13697
0.136989
0.137004
0.137016
0.137025
0.137031
0.137034
0.137035
0.137033
0.137029
0.137023
0.137015
0.137005
0.136994
0.13698
0.139898
0.139653
0.139366
0.13904
0.138677
0.138283
0.137862
0.13742
0.136963
0.136494
0.136014
0.135524
0.135025
0.134519
0.134006
0.133487
0.132963
0.132434
0.131903
0.131369
0.130833
0.130298
0.129763
0.129231
0.128703
0.12818
0.127664
0.127157
0.126662
0.12618
0.125714
0.125266
0.12484
0.124436
0.124059
0.12371
0.123393
0.123109
0.122862
0.122653
0.122485
0.122358
0.122275
0.122236
0.122243
0.122294
0.12239
0.122531
0.122716
0.122942
0.123209
0.123515
0.123857
0.124233
0.124639
0.125071
0.125519
0.125979
0.126445
0.126915
0.127385
0.127853
0.128316
0.128773
0.129222
0.129661
0.13009
0.130508
0.130913
0.131304
0.131682
0.132045
0.132395
0.132729
0.133049
0.133353
0.133644
0.133919
0.13418
0.134428
0.134661
0.134881
0.135088
0.135282
0.135465
0.135635
0.135794
0.135942
0.136079
0.136207
0.136324
0.136433
0.136533
0.136625
0.136708
0.136784
0.136853
0.136916
0.136971
0.137021
0.137065
0.137104
0.137137
0.137166
0.13719
0.13721
0.137226
0.137238
0.137246
0.137251
0.137253
0.137252
0.137248
0.137241
0.137232
0.13722
0.137207
0.137191
0.137173
0.137154
0.139896
0.139646
0.139352
0.139017
0.138644
0.13824
0.137811
0.137366
0.136907
0.136438
0.135958
0.135469
0.134971
0.134466
0.133955
0.133437
0.132915
0.132388
0.131859
0.131326
0.130793
0.130259
0.129726
0.129196
0.128669
0.128147
0.127632
0.127127
0.126632
0.126151
0.125685
0.125238
0.124811
0.124407
0.124029
0.12368
0.123362
0.123078
0.12283
0.12262
0.122451
0.122324
0.122241
0.122203
0.12221
0.122263
0.122362
0.122506
0.122694
0.122925
0.123198
0.123511
0.123861
0.124247
0.124664
0.125106
0.125564
0.126033
0.126508
0.126986
0.127464
0.12794
0.128411
0.128876
0.129334
0.129781
0.130218
0.130643
0.131056
0.131455
0.13184
0.132211
0.132568
0.132909
0.133236
0.133548
0.133844
0.134126
0.134394
0.134647
0.134886
0.135111
0.135323
0.135522
0.135708
0.135882
0.136045
0.136196
0.136337
0.136467
0.136587
0.136697
0.136799
0.136891
0.136976
0.137052
0.137121
0.137183
0.137238
0.137287
0.137329
0.137366
0.137397
0.137424
0.137445
0.137462
0.137474
0.137482
0.137487
0.137487
0.137485
0.137478
0.137469
0.137457
0.137443
0.137425
0.137405
0.137383
0.137359
0.137332
0.139894
0.139637
0.139335
0.13899
0.138607
0.138193
0.13776
0.137312
0.136853
0.136383
0.135903
0.135415
0.134918
0.134414
0.133904
0.133388
0.132867
0.132343
0.131815
0.131285
0.130753
0.130221
0.12969
0.129162
0.128636
0.128116
0.127603
0.127098
0.126605
0.126124
0.125658
0.125211
0.124784
0.124379
0.124001
0.123651
0.123332
0.123047
0.122797
0.122587
0.122417
0.122289
0.122206
0.122168
0.122175
0.12223
0.12233
0.122477
0.122669
0.122905
0.123184
0.123504
0.123863
0.124257
0.124685
0.125137
0.125604
0.126082
0.126566
0.127053
0.127539
0.128024
0.128504
0.128977
0.129443
0.129899
0.130345
0.130778
0.131199
0.131607
0.132
0.132379
0.132744
0.133093
0.133427
0.133746
0.13405
0.134339
0.134612
0.134872
0.135117
0.135348
0.135565
0.135769
0.13596
0.136138
0.136305
0.13646
0.136603
0.136736
0.136858
0.136971
0.137074
0.137167
0.137252
0.137329
0.137398
0.13746
0.137514
0.137561
0.137602
0.137637
0.137666
0.13769
0.137708
0.137722
0.13773
0.137735
0.137735
0.137731
0.137723
0.137712
0.137697
0.13768
0.137659
0.137635
0.137609
0.13758
0.137549
0.137515
0.139891
0.139627
0.139316
0.138961
0.138567
0.138146
0.137709
0.13726
0.136799
0.136329
0.135849
0.135361
0.134865
0.134363
0.133854
0.13334
0.132821
0.132299
0.131773
0.131245
0.130716
0.130186
0.129658
0.129131
0.128607
0.128089
0.127577
0.127074
0.126581
0.126101
0.125636
0.125188
0.12476
0.124356
0.123976
0.123625
0.123305
0.123018
0.122767
0.122555
0.122384
0.122255
0.12217
0.122132
0.12214
0.122195
0.122297
0.122446
0.122642
0.122883
0.123167
0.123493
0.12386
0.124264
0.124701
0.125162
0.125639
0.126125
0.126618
0.127114
0.127609
0.128103
0.128592
0.129074
0.129549
0.130014
0.130468
0.130911
0.13134
0.131757
0.132159
0.132547
0.132919
0.133277
0.133619
0.133946
0.134257
0.134553
0.134834
0.1351
0.135351
0.135588
0.135811
0.13602
0.136216
0.136399
0.13657
0.136728
0.136875
0.137011
0.137136
0.13725
0.137355
0.13745
0.137536
0.137613
0.137682
0.137743
0.137796
0.137843
0.137882
0.137915
0.137941
0.137962
0.137977
0.137987
0.137992
0.137992
0.137988
0.137979
0.137966
0.13795
0.13793
0.137906
0.137879
0.137849
0.137815
0.13778
0.137741
0.1377
0.139888
0.139617
0.139296
0.138929
0.138526
0.1381
0.13766
0.137209
0.136748
0.136277
0.135797
0.135309
0.134814
0.134313
0.133806
0.133294
0.132777
0.132257
0.131734
0.131209
0.130682
0.130156
0.129629
0.129105
0.128583
0.128067
0.127556
0.127054
0.126562
0.126083
0.125618
0.12517
0.124742
0.124336
0.123955
0.123603
0.123281
0.122992
0.12274
0.122526
0.122352
0.122222
0.122136
0.122096
0.122104
0.122159
0.122262
0.122413
0.122612
0.122857
0.123146
0.123479
0.123852
0.124265
0.124711
0.125181
0.125667
0.126162
0.126664
0.127168
0.127673
0.128175
0.128673
0.129165
0.129649
0.130123
0.130587
0.131039
0.131478
0.131903
0.132315
0.132711
0.133093
0.133459
0.133809
0.134144
0.134464
0.134767
0.135056
0.135329
0.135587
0.13583
0.136059
0.136274
0.136475
0.136663
0.136838
0.137
0.13715
0.137289
0.137417
0.137533
0.13764
0.137736
0.137823
0.1379
0.137969
0.13803
0.138083
0.138128
0.138165
0.138196
0.13822
0.138238
0.13825
0.138257
0.138258
0.138253
0.138244
0.138231
0.138213
0.13819
0.138164
0.138134
0.138101
0.138064
0.138024
0.137981
0.137935
0.137886
0.139884
0.139605
0.139274
0.138897
0.138485
0.138055
0.137613
0.13716
0.136698
0.136226
0.135747
0.13526
0.134766
0.134266
0.133761
0.133251
0.132737
0.13222
0.1317
0.131178
0.130654
0.13013
0.129606
0.129084
0.128565
0.12805
0.127542
0.127041
0.126549
0.12607
0.125605
0.125157
0.124728
0.124321
0.123939
0.123585
0.123261
0.122971
0.122716
0.122499
0.122324
0.122191
0.122103
0.122061
0.122068
0.122122
0.122226
0.122379
0.122579
0.122827
0.123121
0.123459
0.12384
0.12426
0.124715
0.125194
0.125688
0.126192
0.126702
0.127215
0.127729
0.128241
0.128748
0.129249
0.129743
0.130227
0.1307
0.131161
0.13161
0.132045
0.132466
0.132871
0.133262
0.133637
0.133996
0.13434
0.134667
0.134979
0.135275
0.135556
0.135821
0.136071
0.136306
0.136526
0.136733
0.136926
0.137105
0.137272
0.137426
0.137568
0.137698
0.137818
0.137926
0.138024
0.138111
0.13819
0.138259
0.138319
0.138371
0.138415
0.138451
0.13848
0.138501
0.138517
0.138525
0.138528
0.138525
0.138516
0.138503
0.138484
0.138461
0.138433
0.1384
0.138364
0.138324
0.13828
0.138233
0.138182
0.138129
0.138072
0.139881
0.139593
0.139251
0.138864
0.138445
0.138012
0.137568
0.137114
0.13665
0.136178
0.135699
0.135213
0.13472
0.134222
0.133719
0.133212
0.132701
0.132187
0.131671
0.131152
0.130631
0.13011
0.129589
0.12907
0.128553
0.12804
0.127533
0.127033
0.126543
0.126064
0.125599
0.12515
0.124721
0.124313
0.123929
0.123572
0.123246
0.122953
0.122695
0.122476
0.122298
0.122162
0.122072
0.122028
0.122033
0.122086
0.122189
0.122342
0.122545
0.122795
0.123093
0.123436
0.123822
0.124249
0.124712
0.125199
0.125701
0.126213
0.126732
0.127254
0.127777
0.128298
0.128815
0.129326
0.129829
0.130322
0.130805
0.131277
0.131735
0.13218
0.13261
0.133026
0.133426
0.13381
0.134178
0.134531
0.134867
0.135187
0.135491
0.135779
0.136051
0.136308
0.13655
0.136776
0.136989
0.137187
0.137371
0.137542
0.1377
0.137846
0.137979
0.138101
0.138211
0.138311
0.1384
0.138479
0.138548
0.138608
0.138659
0.138702
0.138737
0.138764
0.138783
0.138795
0.138801
0.1388
0.138793
0.13878
0.138762
0.138738
0.138709
0.138675
0.138637
0.138594
0.138548
0.138497
0.138442
0.138384
0.138322
0.138257
0.139877
0.13958
0.139228
0.13883
0.138407
0.137971
0.137525
0.137069
0.136605
0.136133
0.135654
0.135169
0.134678
0.134182
0.133682
0.133179
0.132671
0.132161
0.131647
0.131132
0.130615
0.130097
0.129579
0.129063
0.128548
0.128038
0.127532
0.127034
0.126544
0.126066
0.125601
0.125151
0.12472
0.12431
0.123925
0.123566
0.123237
0.122941
0.12268
0.122457
0.122275
0.122137
0.122043
0.121997
0.121998
0.12205
0.122152
0.122305
0.122508
0.12276
0.12306
0.123407
0.123798
0.124232
0.124702
0.125196
0.125706
0.126227
0.126754
0.127285
0.127817
0.128347
0.128873
0.129393
0.129906
0.13041
0.130903
0.131384
0.131852
0.132307
0.132747
0.133172
0.133582
0.133976
0.134353
0.134715
0.13506
0.135388
0.1357
0.135996
0.136276
0.13654
0.136789
0.137022
0.137241
0.137444
0.137634
0.137809
0.137972
0.138121
0.138258
0.138382
0.138495
0.138596
0.138687
0.138766
0.138836
0.138896
0.138947
0.138989
0.139022
0.139047
0.139064
0.139074
0.139076
0.139072
0.139061
0.139044
0.139021
0.138992
0.138957
0.138918
0.138874
0.138825
0.138771
0.138713
0.138651
0.138585
0.138516
0.138443
0.139873
0.139566
0.139203
0.138797
0.13837
0.137932
0.137484
0.137027
0.136562
0.136091
0.135612
0.135129
0.13464
0.134147
0.133651
0.13315
0.132647
0.13214
0.131631
0.131119
0.130606
0.130092
0.129577
0.129064
0.128552
0.128044
0.12754
0.127043
0.126554
0.126076
0.125611
0.12516
0.124728
0.124316
0.123928
0.123566
0.123234
0.122934
0.122669
0.122443
0.122257
0.122114
0.122017
0.121967
0.121966
0.122014
0.122114
0.122266
0.122468
0.122721
0.123024
0.123373
0.123769
0.124207
0.124684
0.125185
0.125703
0.126231
0.126767
0.127306
0.127847
0.128386
0.128922
0.129452
0.129974
0.130487
0.13099
0.131482
0.13196
0.132425
0.132875
0.13331
0.13373
0.134133
0.13452
0.134891
0.135245
0.135582
0.135903
0.136207
0.136495
0.136767
0.137022
0.137262
0.137487
0.137696
0.137891
0.138072
0.138239
0.138392
0.138532
0.13866
0.138775
0.138878
0.13897
0.139051
0.139122
0.139182
0.139232
0.139273
0.139305
0.139329
0.139344
0.139351
0.13935
0.139342
0.139328
0.139306
0.139279
0.139245
0.139205
0.13916
0.13911
0.139054
0.138994
0.138929
0.138859
0.138786
0.138708
0.138627
0.139869
0.139552
0.139179
0.138765
0.138335
0.137895
0.137445
0.136987
0.136523
0.136051
0.135574
0.135093
0.134607
0.134118
0.133625
0.133128
0.132629
0.132126
0.131621
0.131114
0.130605
0.130094
0.129584
0.129074
0.128565
0.128059
0.127558
0.127062
0.126574
0.126096
0.12563
0.125179
0.124745
0.124331
0.12394
0.123574
0.123238
0.122934
0.122665
0.122434
0.122243
0.122096
0.121994
0.12194
0.121935
0.12198
0.122077
0.122226
0.122427
0.12268
0.122983
0.123335
0.123733
0.124176
0.124658
0.125166
0.12569
0.126226
0.12677
0.127318
0.127867
0.128415
0.12896
0.1295
0.130032
0.130555
0.131068
0.131569
0.132058
0.132533
0.132993
0.133439
0.133868
0.134281
0.134678
0.135058
0.135422
0.135768
0.136097
0.13641
0.136706
0.136985
0.137248
0.137495
0.137726
0.137942
0.138142
0.138328
0.1385
0.138657
0.138801
0.138932
0.13905
0.139156
0.13925
0.139332
0.139403
0.139464
0.139514
0.139555
0.139586
0.139608
0.139621
0.139626
0.139622
0.139611
0.139593
0.139567
0.139535
0.139497
0.139452
0.139401
0.139344
0.139283
0.139216
0.139144
0.139067
0.138986
0.1389
0.13881
0.139865
0.139537
0.139153
0.138734
0.138302
0.137859
0.137409
0.136951
0.136486
0.136016
0.135541
0.135062
0.13458
0.134094
0.133605
0.133113
0.132618
0.13212
0.13162
0.131117
0.130613
0.130107
0.1296
0.129094
0.128589
0.128086
0.127587
0.127093
0.126606
0.126128
0.125661
0.125209
0.124772
0.124355
0.123961
0.123592
0.123251
0.122942
0.122668
0.122431
0.122235
0.122082
0.121975
0.121916
0.121906
0.121946
0.122039
0.122185
0.122384
0.122636
0.122939
0.123292
0.123692
0.124138
0.124625
0.125139
0.125669
0.126212
0.126763
0.127319
0.127877
0.128434
0.128988
0.129537
0.130079
0.130612
0.131135
0.131646
0.132145
0.13263
0.133101
0.133556
0.133996
0.134419
0.134826
0.135216
0.135588
0.135944
0.136282
0.136603
0.136907
0.137195
0.137465
0.137719
0.137957
0.138179
0.138386
0.138577
0.138754
0.138916
0.139064
0.139198
0.139319
0.139428
0.139524
0.139608
0.139681
0.139742
0.139792
0.139833
0.139863
0.139884
0.139895
0.139898
0.139892
0.139878
0.139856
0.139826
0.13979
0.139747
0.139697
0.13964
0.139578
0.13951
0.139436
0.139357
0.139273
0.139185
0.139091
0.138993
0.13986
0.139521
0.139128
0.138705
0.13827
0.137826
0.137375
0.136917
0.136453
0.135984
0.135512
0.135036
0.134558
0.134077
0.133592
0.133105
0.132615
0.132123
0.131627
0.13113
0.130631
0.13013
0.129628
0.129126
0.128625
0.128125
0.127628
0.127136
0.12665
0.126173
0.125705
0.125251
0.124812
0.124392
0.123993
0.123619
0.123273
0.122959
0.122678
0.122436
0.122233
0.122074
0.121961
0.121895
0.121879
0.121915
0.122003
0.122145
0.12234
0.12259
0.122891
0.123244
0.123645
0.124093
0.124584
0.125102
0.125639
0.126189
0.126747
0.12731
0.127876
0.128442
0.129005
0.129563
0.130114
0.130657
0.13119
0.131712
0.13222
0.132716
0.133197
0.133662
0.134112
0.134545
0.134962
0.135362
0.135744
0.136109
0.136456
0.136786
0.137099
0.137394
0.137673
0.137934
0.138179
0.138408
0.138621
0.138818
0.139
0.139167
0.139319
0.139457
0.139582
0.139694
0.139792
0.139878
0.139952
0.140014
0.140066
0.140106
0.140136
0.140155
0.140165
0.140166
0.140158
0.140141
0.140116
0.140083
0.140042
0.139995
0.13994
0.139878
0.13981
0.139736
0.139656
0.13957
0.139479
0.139382
0.139281
0.139175
0.139855
0.139505
0.139103
0.138677
0.13824
0.137795
0.137344
0.136886
0.136423
0.135957
0.135488
0.135017
0.134543
0.134066
0.133587
0.133105
0.132621
0.132134
0.131645
0.131153
0.13066
0.130165
0.129668
0.129171
0.128674
0.128178
0.127685
0.127194
0.12671
0.126232
0.125764
0.125307
0.124866
0.124442
0.124038
0.123659
0.123306
0.122985
0.122698
0.122448
0.122238
0.122072
0.121951
0.121879
0.121856
0.121885
0.121968
0.122104
0.122295
0.122541
0.12284
0.123191
0.123593
0.124042
0.124535
0.125058
0.1256
0.126155
0.12672
0.127291
0.127865
0.128439
0.12901
0.129577
0.130138
0.13069
0.131233
0.131765
0.132284
0.132789
0.13328
0.133756
0.134216
0.13466
0.135086
0.135496
0.135888
0.136262
0.136619
0.136958
0.137279
0.137583
0.137869
0.138139
0.138391
0.138627
0.138846
0.139049
0.139237
0.139409
0.139566
0.139709
0.139837
0.139952
0.140053
0.140142
0.140217
0.140281
0.140333
0.140374
0.140403
0.140422
0.140431
0.140431
0.14042
0.140401
0.140373
0.140337
0.140292
0.14024
0.14018
0.140114
0.14004
0.13996
0.139874
0.139781
0.139683
0.139579
0.13947
0.139356
0.13985
0.139489
0.139079
0.138651
0.138213
0.137767
0.137315
0.136859
0.136398
0.135935
0.13547
0.135003
0.134534
0.134063
0.13359
0.133114
0.132636
0.132156
0.131674
0.131189
0.130702
0.130213
0.129723
0.129231
0.128739
0.128247
0.127757
0.127269
0.126786
0.126308
0.125839
0.12538
0.124935
0.124506
0.124097
0.123711
0.123352
0.123023
0.122727
0.122469
0.122251
0.122076
0.121947
0.121867
0.121836
0.121858
0.121934
0.122064
0.12225
0.122491
0.122786
0.123135
0.123535
0.123983
0.124478
0.125004
0.125551
0.126112
0.126683
0.127261
0.127842
0.128424
0.129004
0.12958
0.130149
0.130711
0.131263
0.131805
0.132334
0.13285
0.133351
0.133837
0.134307
0.134761
0.135198
0.135617
0.136019
0.136403
0.136769
0.137117
0.137448
0.13776
0.138055
0.138332
0.138592
0.138835
0.139061
0.139271
0.139464
0.139642
0.139804
0.139951
0.140084
0.140202
0.140307
0.140398
0.140476
0.140541
0.140594
0.140636
0.140665
0.140684
0.140692
0.14069
0.140678
0.140657
0.140626
0.140587
0.140539
0.140483
0.140419
0.140347
0.140268
0.140183
0.14009
0.139991
0.139886
0.139775
0.139658
0.139536
0.139844
0.139472
0.139056
0.138626
0.138187
0.137741
0.13729
0.136835
0.136377
0.135918
0.135458
0.134996
0.134533
0.134068
0.133601
0.133132
0.132662
0.132189
0.131714
0.131237
0.130758
0.130277
0.129793
0.129308
0.128821
0.128334
0.127847
0.127362
0.126879
0.126402
0.125931
0.12547
0.125021
0.124587
0.124172
0.123778
0.123411
0.123073
0.122768
0.1225
0.122273
0.122088
0.12195
0.12186
0.121821
0.121835
0.121902
0.122025
0.122204
0.122439
0.12273
0.123075
0.123472
0.123919
0.124414
0.124943
0.125493
0.126059
0.126636
0.12722
0.127808
0.128397
0.128985
0.12957
0.130148
0.130719
0.131281
0.131832
0.132371
0.132896
0.133408
0.133904
0.134385
0.134849
0.135296
0.135725
0.136137
0.136531
0.136906
0.137264
0.137603
0.137925
0.138228
0.138513
0.138781
0.139032
0.139265
0.139481
0.139681
0.139864
0.140032
0.140184
0.140321
0.140444
0.140552
0.140646
0.140726
0.140794
0.140848
0.140891
0.140921
0.14094
0.140948
0.140945
0.140932
0.140909
0.140876
0.140833
0.140782
0.140722
0.140654
0.140578
0.140494
0.140403
0.140305
0.1402
0.140088
0.13997
0.139846
0.139715
0.139838
0.139455
0.139035
0.138603
0.138164
0.137718
0.137268
0.136816
0.136362
0.135908
0.135452
0.134996
0.134539
0.134081
0.133622
0.133161
0.132699
0.132235
0.131769
0.131301
0.13083
0.130357
0.129881
0.129402
0.128921
0.128439
0.127955
0.127472
0.126991
0.126513
0.126041
0.125577
0.125124
0.124685
0.124263
0.123861
0.123484
0.123136
0.122821
0.122542
0.122304
0.122108
0.12196
0.12186
0.121811
0.121814
0.121873
0.121987
0.122158
0.122386
0.122671
0.123011
0.123404
0.123848
0.124342
0.124872
0.125426
0.125996
0.126578
0.127168
0.127763
0.128359
0.128955
0.129547
0.130134
0.130714
0.131285
0.131845
0.132394
0.13293
0.133451
0.133958
0.134448
0.134922
0.135379
0.135819
0.136241
0.136645
0.13703
0.137397
0.137746
0.138076
0.138388
0.138682
0.138958
0.139216
0.139456
0.13968
0.139886
0.140076
0.140249
0.140407
0.140549
0.140675
0.140787
0.140885
0.140968
0.141038
0.141095
0.141139
0.14117
0.14119
0.141198
0.141194
0.14118
0.141155
0.14112
0.141076
0.141022
0.140959
0.140887
0.140806
0.140718
0.140622
0.140518
0.140407
0.140288
0.140163
0.140032
0.139894
0.139832
0.139438
0.139015
0.138582
0.138143
0.137698
0.137251
0.136802
0.136352
0.135903
0.135454
0.135005
0.134555
0.134105
0.133654
0.133202
0.132749
0.132295
0.131838
0.13138
0.130919
0.130454
0.129985
0.129513
0.129037
0.128558
0.128077
0.127596
0.127116
0.126638
0.126165
0.125699
0.125242
0.124798
0.124369
0.12396
0.123573
0.123214
0.122887
0.122596
0.122345
0.122138
0.121977
0.121865
0.121805
0.121799
0.121847
0.121951
0.122113
0.122333
0.12261
0.122944
0.123332
0.123772
0.124262
0.124793
0.12535
0.125924
0.12651
0.127105
0.127706
0.128309
0.128911
0.129511
0.130107
0.130695
0.131275
0.131845
0.132403
0.132948
0.13348
0.133996
0.134497
0.134981
0.135449
0.135898
0.13633
0.136744
0.137139
0.137516
0.137874
0.138213
0.138534
0.138837
0.139121
0.139387
0.139636
0.139866
0.140079
0.140276
0.140455
0.140618
0.140765
0.140897
0.141013
0.141114
0.141201
0.141274
0.141333
0.141379
0.141412
0.141432
0.141441
0.141437
0.141422
0.141397
0.14136
0.141314
0.141257
0.141191
0.141116
0.141032
0.140939
0.140838
0.140729
0.140612
0.140487
0.140356
0.140218
0.140072
0.139825
0.139422
0.138997
0.138564
0.138125
0.137682
0.137237
0.136792
0.136349
0.135905
0.135463
0.135021
0.13458
0.134138
0.133697
0.133255
0.132813
0.13237
0.131924
0.131476
0.131023
0.130566
0.130103
0.129636
0.129164
0.128688
0.12821
0.12773
0.12725
0.126773
0.126299
0.125831
0.125371
0.124922
0.124488
0.124071
0.123676
0.123305
0.122966
0.122661
0.122397
0.122176
0.122002
0.121878
0.121806
0.121787
0.121824
0.121918
0.122069
0.122279
0.122548
0.122874
0.123255
0.12369
0.124176
0.124706
0.125264
0.125841
0.126431
0.127031
0.127637
0.128246
0.128856
0.129463
0.130066
0.130663
0.131251
0.13183
0.132398
0.132953
0.133494
0.13402
0.134531
0.135025
0.135503
0.135963
0.136405
0.136828
0.137233
0.13762
0.137988
0.138336
0.138666
0.138978
0.139271
0.139545
0.139801
0.140039
0.14026
0.140463
0.140649
0.140818
0.140971
0.141107
0.141228
0.141334
0.141425
0.141501
0.141563
0.141611
0.141645
0.141667
0.141676
0.141673
0.141659
0.141632
0.141595
0.141547
0.141488
0.141419
0.141341
0.141253
0.141157
0.141051
0.140937
0.140815
0.140685
0.140547
0.140402
0.14025
0.139819
0.139407
0.138981
0.138548
0.138109
0.137669
0.137228
0.136789
0.136351
0.135915
0.13548
0.135047
0.134614
0.134183
0.133753
0.133323
0.132892
0.13246
0.132025
0.131586
0.131141
0.130689
0.130232
0.129768
0.1293
0.128827
0.12835
0.127872
0.127393
0.126915
0.12644
0.12597
0.125508
0.125055
0.124616
0.124193
0.123789
0.123409
0.123058
0.12274
0.12246
0.122225
0.122037
0.121898
0.121813
0.121781
0.121805
0.121887
0.122027
0.122226
0.122485
0.122802
0.123175
0.123603
0.124084
0.124611
0.12517
0.125749
0.126342
0.126946
0.127557
0.128172
0.128787
0.129402
0.130012
0.130617
0.131214
0.131801
0.132378
0.132942
0.133493
0.134029
0.134549
0.135054
0.135541
0.136011
0.136463
0.136897
0.137312
0.137709
0.138086
0.138444
0.138784
0.139104
0.139406
0.139689
0.139953
0.140199
0.140427
0.140637
0.14083
0.141005
0.141164
0.141306
0.141432
0.141543
0.141637
0.141717
0.141782
0.141833
0.14187
0.141894
0.141905
0.141902
0.141888
0.141861
0.141823
0.141774
0.141714
0.141643
0.141562
0.141471
0.141371
0.141262
0.141143
0.141016
0.140881
0.140737
0.140586
0.140427
0.139812
0.139395
0.138967
0.138534
0.138098
0.13766
0.137225
0.136791
0.13636
0.135932
0.135506
0.135082
0.13466
0.134241
0.133822
0.133405
0.132987
0.132566
0.132139
0.131707
0.131268
0.130821
0.130368
0.129908
0.129442
0.128971
0.128496
0.128019
0.12754
0.127062
0.126586
0.126115
0.12565
0.125195
0.124751
0.124322
0.123912
0.123523
0.12316
0.122829
0.122535
0.122284
0.12208
0.121927
0.121826
0.12178
0.121791
0.121859
0.121987
0.122174
0.122421
0.122728
0.123092
0.123512
0.123986
0.124509
0.125067
0.125647
0.126243
0.12685
0.127465
0.128085
0.128706
0.129327
0.129944
0.130557
0.131161
0.131757
0.132343
0.132916
0.133476
0.134022
0.134552
0.135067
0.135564
0.136044
0.136506
0.13695
0.137375
0.137781
0.138169
0.138537
0.138885
0.139215
0.139526
0.139817
0.14009
0.140344
0.14058
0.140798
0.140997
0.14118
0.141345
0.141493
0.141624
0.14174
0.141839
0.141923
0.141992
0.142046
0.142086
0.142112
0.142124
0.142123
0.14211
0.142084
0.142045
0.141995
0.141934
0.141862
0.141779
0.141685
0.141582
0.141469
0.141346
0.141215
0.141074
0.140925
0.140768
0.140603
0.139805
0.139384
0.138956
0.138523
0.138089
0.137656
0.137226
0.1368
0.136377
0.135957
0.135541
0.135128
0.134719
0.134312
0.133907
0.133502
0.133094
0.132682
0.132263
0.131836
0.131401
0.130959
0.130509
0.130052
0.129588
0.129119
0.128646
0.128169
0.127691
0.127213
0.126736
0.126264
0.125797
0.125339
0.124891
0.124457
0.124041
0.123644
0.123272
0.122929
0.12262
0.122353
0.122132
0.121963
0.121846
0.121785
0.121781
0.121835
0.121949
0.122123
0.122358
0.122653
0.123007
0.123418
0.123883
0.1244
0.124955
0.125535
0.126133
0.126743
0.127362
0.127986
0.128613
0.129239
0.129863
0.130482
0.131095
0.131699
0.132293
0.132875
0.133444
0.133999
0.134539
0.135063
0.135571
0.136061
0.136533
0.136987
0.137422
0.137838
0.138235
0.138613
0.138971
0.13931
0.13963
0.139931
0.140212
0.140475
0.140719
0.140944
0.141151
0.14134
0.141512
0.141667
0.141804
0.141925
0.142029
0.142118
0.142191
0.142249
0.142292
0.14232
0.142335
0.142336
0.142324
0.142298
0.14226
0.14221
0.142148
0.142075
0.14199
0.141895
0.141789
0.141673
0.141547
0.141411
0.141266
0.141112
0.140949
0.140778
0.139798
0.139375
0.138946
0.138515
0.138085
0.137657
0.137234
0.136816
0.136401
0.135992
0.135587
0.135186
0.13479
0.134397
0.134005
0.133611
0.133212
0.132806
0.132392
0.13197
0.13154
0.131101
0.130654
0.130199
0.129738
0.12927
0.128798
0.128323
0.127845
0.127367
0.12689
0.126416
0.125947
0.125486
0.125035
0.124597
0.124174
0.123771
0.12339
0.123037
0.122715
0.122432
0.122194
0.122007
0.121874
0.121796
0.121776
0.121815
0.121914
0.122074
0.122295
0.122577
0.122919
0.123319
0.123775
0.124283
0.124836
0.125415
0.126013
0.126625
0.127247
0.127875
0.128506
0.129138
0.129768
0.130394
0.131014
0.131625
0.132227
0.132818
0.133396
0.13396
0.13451
0.135044
0.135561
0.136061
0.136543
0.137007
0.137452
0.137878
0.138285
0.138672
0.13904
0.139389
0.139718
0.140028
0.140318
0.14059
0.140842
0.141075
0.14129
0.141487
0.141666
0.141827
0.14197
0.142097
0.142207
0.142301
0.142378
0.14244
0.142487
0.142519
0.142536
0.14254
0.142529
0.142505
0.142468
0.142418
0.142356
0.142282
0.142196
0.142099
0.141991
0.141872
0.141743
0.141604
0.141455
0.141296
0.141128
0.140951
0.139793
0.139368
0.13894
0.138511
0.138085
0.137664
0.137248
0.136838
0.136434
0.136036
0.135643
0.135257
0.134875
0.134496
0.134115
0.133729
0.133337
0.132936
0.132527
0.132109
0.131682
0.131246
0.130802
0.130349
0.12989
0.129424
0.128953
0.128478
0.128001
0.127523
0.127045
0.12657
0.1261
0.125636
0.125182
0.12474
0.124312
0.123902
0.123514
0.123151
0.122818
0.12252
0.122265
0.12206
0.121909
0.121814
0.121777
0.121799
0.121882
0.122027
0.122233
0.122501
0.12283
0.123218
0.123663
0.124161
0.124708
0.125286
0.125884