/*--------------------------------*- C++ -*----------------------------------*\
  =========                 |
  \\      /  F ield         | OpenFOAM: The Open Source CFD Toolbox
   \\    /   O peration     | Website:  https://openfoam.org
    \\  /    A nd           | Version:  8
     \\/     M anipulation  |
\*---------------------------------------------------------------------------*/
FoamFile
{
    version     2.0;
    format      ascii;
    class       volScalarField;
    location    "8";
    object      p;
}
// * * * * * * * * * * * * * * * * * * * * * * * * * * * * * * * * * * * * * //

dimensions      [0 2 -2 0 0 0 0];

internalField   nonuniform List<scalar> 
277560
(
-0.589098
-0.589867
-0.591774
-0.594586
-0.598197
-0.602594
-0.607747
-0.613605
-0.620122
-0.627258
-0.634972
-0.643227
-0.651986
-0.661214
-0.670874
-0.680936
-0.691368
-0.702139
-0.71322
-0.724584
-0.736204
-0.748056
-0.760116
-0.77236
-0.784767
-0.797317
-0.809989
-0.822765
-0.835628
-0.84856
-0.861545
-0.874569
-0.887617
-0.900676
-0.913734
-0.926779
-0.9398
-0.952786
-0.965728
-0.978617
-0.991443
-1.0042
-1.01688
-1.02947
-1.04198
-1.05439
-1.0667
-1.0789
-1.09099
-1.10296
-1.11482
-1.12655
-1.13816
-1.14964
-1.16099
-1.17221
-1.18329
-1.19424
-1.20505
-1.21572
-1.22625
-1.23664
-1.24689
-1.257
-1.26697
-1.27679
-1.28648
-1.29602
-1.30543
-1.31469
-1.32382
-1.3328
-1.34165
-1.35036
-1.35893
-1.36737
-1.37568
-1.38385
-1.39189
-1.3998
-1.40758
-1.41523
-1.42276
-1.43016
-1.43743
-1.44459
-1.45162
-1.45854
-1.46534
-1.47202
-1.47859
-1.48504
-1.49139
-1.49762
-1.50375
-1.50977
-1.51568
-1.5215
-1.52721
-1.53281
-1.53833
-1.54374
-1.54906
-1.55428
-1.55941
-1.56445
-1.5694
-1.57426
-1.57904
-1.58373
-1.58833
-1.59286
-1.5973
-1.60166
-1.60595
-1.61015
-1.61429
-1.61834
-1.62233
-1.62624
-0.588679
-0.589424
-0.591314
-0.594121
-0.59773
-0.602124
-0.607273
-0.613129
-0.619644
-0.626778
-0.634491
-0.642746
-0.651504
-0.660731
-0.670392
-0.680455
-0.690887
-0.701659
-0.712742
-0.724107
-0.73573
-0.747584
-0.759647
-0.771894
-0.784304
-0.796857
-0.809533
-0.822313
-0.83518
-0.848116
-0.861106
-0.874135
-0.887188
-0.900253
-0.913316
-0.926367
-0.939393
-0.952386
-0.965334
-0.978229
-0.991062
-1.00382
-1.01651
-1.02911
-1.04163
-1.05404
-1.06636
-1.07856
-1.09066
-1.10264
-1.11451
-1.12625
-1.13786
-1.14935
-1.16071
-1.17193
-1.18302
-1.19398
-1.2048
-1.21547
-1.22601
-1.23641
-1.24667
-1.25679
-1.26676
-1.2766
-1.28629
-1.29584
-1.30525
-1.31453
-1.32366
-1.33265
-1.34151
-1.35022
-1.3588
-1.36725
-1.37556
-1.38374
-1.39179
-1.39971
-1.40749
-1.41515
-1.42269
-1.4301
-1.43738
-1.44454
-1.45158
-1.45851
-1.46531
-1.472
-1.47858
-1.48504
-1.49139
-1.49763
-1.50376
-1.50979
-1.51571
-1.52153
-1.52724
-1.53286
-1.53837
-1.54379
-1.54912
-1.55434
-1.55948
-1.56453
-1.56948
-1.57435
-1.57913
-1.58382
-1.58843
-1.59296
-1.59741
-1.60178
-1.60607
-1.61028
-1.61441
-1.61847
-1.62246
-1.62638
-0.58789
-0.588637
-0.590526
-0.593332
-0.596938
-0.601328
-0.606475
-0.612329
-0.618843
-0.625976
-0.633689
-0.641943
-0.650703
-0.659931
-0.669594
-0.679659
-0.690094
-0.70087
-0.711957
-0.723327
-0.734955
-0.746815
-0.758883
-0.771137
-0.783554
-0.796114
-0.808798
-0.821586
-0.834461
-0.847407
-0.860406
-0.873444
-0.886507
-0.899582
-0.912656
-0.925717
-0.938755
-0.951758
-0.964717
-0.977624
-0.990469
-1.00324
-1.01594
-1.02856
-1.04108
-1.05351
-1.06584
-1.07806
-1.09017
-1.10216
-1.11404
-1.12579
-1.13742
-1.14892
-1.16029
-1.17153
-1.18263
-1.1936
-1.20443
-1.21512
-1.22567
-1.23608
-1.24635
-1.25648
-1.26647
-1.27632
-1.28602
-1.29559
-1.30501
-1.31429
-1.32344
-1.33244
-1.34131
-1.35004
-1.35863
-1.36709
-1.37541
-1.3836
-1.39166
-1.39959
-1.40739
-1.41506
-1.4226
-1.43002
-1.43731
-1.44448
-1.45154
-1.45847
-1.46528
-1.47198
-1.47856
-1.48504
-1.4914
-1.49764
-1.50379
-1.50982
-1.51575
-1.52158
-1.5273
-1.53292
-1.53845
-1.54387
-1.5492
-1.55444
-1.55958
-1.56464
-1.5696
-1.57447
-1.57926
-1.58396
-1.58858
-1.59312
-1.59757
-1.60194
-1.60624
-1.61046
-1.6146
-1.61867
-1.62266
-1.62659
-0.586723
-0.587461
-0.589341
-0.592136
-0.595735
-0.600118
-0.605259
-0.611108
-0.617619
-0.624749
-0.63246
-0.640714
-0.649473
-0.658703
-0.668367
-0.678435
-0.688874
-0.699653
-0.710745
-0.722121
-0.733755
-0.745623
-0.757699
-0.769961
-0.782387
-0.794958
-0.807652
-0.820451
-0.833339
-0.846296
-0.859308
-0.87236
-0.885437
-0.898526
-0.911615
-0.924691
-0.937744
-0.950764
-0.96374
-0.976663
-0.989525
-1.00232
-1.01503
-1.02767
-1.04021
-1.05265
-1.065
-1.07724
-1.08937
-1.10138
-1.11328
-1.12505
-1.1367
-1.14822
-1.15961
-1.17087
-1.18199
-1.19298
-1.20382
-1.21454
-1.22511
-1.23554
-1.24583
-1.25598
-1.26598
-1.27585
-1.28557
-1.29516
-1.3046
-1.3139
-1.32306
-1.33209
-1.34097
-1.34972
-1.35833
-1.36681
-1.37515
-1.38335
-1.39143
-1.39937
-1.40719
-1.41488
-1.42244
-1.42987
-1.43718
-1.44437
-1.45144
-1.45839
-1.46522
-1.47193
-1.47853
-1.48502
-1.49139
-1.49766
-1.50382
-1.50986
-1.51581
-1.52165
-1.52739
-1.53302
-1.53856
-1.544
-1.54935
-1.5546
-1.55975
-1.56482
-1.56979
-1.57468
-1.57948
-1.58419
-1.58882
-1.59337
-1.59783
-1.60222
-1.60653
-1.61076
-1.61491
-1.61899
-1.62299
-1.62692
-0.585183
-0.585908
-0.587775
-0.590561
-0.59415
-0.598526
-0.60366
-0.609504
-0.61601
-0.623138
-0.630847
-0.6391
-0.64786
-0.657091
-0.666759
-0.676831
-0.687274
-0.69806
-0.709159
-0.720543
-0.732187
-0.744064
-0.756151
-0.768425
-0.780864
-0.793448
-0.806157
-0.818972
-0.831875
-0.84485
-0.85788
-0.87095
-0.884046
-0.897154
-0.910263
-0.92336
-0.936435
-0.949476
-0.962474
-0.975419
-0.988304
-1.00112
-1.01386
-1.02652
-1.03908
-1.05155
-1.06392
-1.07619
-1.08834
-1.10038
-1.1123
-1.1241
-1.13578
-1.14732
-1.15874
-1.17002
-1.18117
-1.19218
-1.20306
-1.21379
-1.22439
-1.23485
-1.24516
-1.25533
-1.26537
-1.27526
-1.28501
-1.29462
-1.30408
-1.31341
-1.3226
-1.33164
-1.34055
-1.34932
-1.35796
-1.36646
-1.37482
-1.38305
-1.39115
-1.39912
-1.40695
-1.41466
-1.42224
-1.4297
-1.43703
-1.44424
-1.45133
-1.4583
-1.46515
-1.47188
-1.4785
-1.48501
-1.4914
-1.49769
-1.50386
-1.50993
-1.51589
-1.52175
-1.5275
-1.53316
-1.53871
-1.54417
-1.54953
-1.5548
-1.55997
-1.56505
-1.57004
-1.57494
-1.57976
-1.58449
-1.58913
-1.59369
-1.59817
-1.60257
-1.60689
-1.61113
-1.6153
-1.61939
-1.62341
-1.62736
-0.583278
-0.583985
-0.585839
-0.588611
-0.592188
-0.596554
-0.60168
-0.607517
-0.614018
-0.621141
-0.628848
-0.637101
-0.645861
-0.655094
-0.664765
-0.674841
-0.685291
-0.696084
-0.707191
-0.718585
-0.73024
-0.742129
-0.75423
-0.766518
-0.778973
-0.791574
-0.8043
-0.817134
-0.830056
-0.843052
-0.856103
-0.869195
-0.882314
-0.895447
-0.90858
-0.921702
-0.934802
-0.94787
-0.960895
-0.973868
-0.986781
-0.999626
-1.01239
-1.02508
-1.03768
-1.05018
-1.06258
-1.07487
-1.08706
-1.09913
-1.11108
-1.12291
-1.13462
-1.14619
-1.15764
-1.16896
-1.18014
-1.19118
-1.20209
-1.21285
-1.22348
-1.23397
-1.24432
-1.25452
-1.26459
-1.27451
-1.28429
-1.29393
-1.30343
-1.31278
-1.322
-1.33108
-1.34002
-1.34882
-1.35748
-1.36601
-1.3744
-1.38266
-1.39079
-1.39878
-1.40665
-1.41438
-1.42199
-1.42947
-1.43683
-1.44407
-1.45118
-1.45818
-1.46505
-1.47181
-1.47846
-1.48499
-1.4914
-1.49771
-1.50391
-1.51
-1.51599
-1.52187
-1.52764
-1.53332
-1.5389
-1.54437
-1.54976
-1.55504
-1.56024
-1.56534
-1.57035
-1.57527
-1.5801
-1.58485
-1.58952
-1.5941
-1.59859
-1.60301
-1.60735
-1.61161
-1.61579
-1.6199
-1.62394
-1.6279
-0.581013
-0.581701
-0.583537
-0.586294
-0.589858
-0.594212
-0.599328
-0.605157
-0.611651
-0.61877
-0.626474
-0.634725
-0.643487
-0.652722
-0.662396
-0.672478
-0.682935
-0.693736
-0.704854
-0.716259
-0.727927
-0.739831
-0.751947
-0.764253
-0.776727
-0.789347
-0.802094
-0.81495
-0.827896
-0.840916
-0.853993
-0.867112
-0.880258
-0.893419
-0.906582
-0.919734
-0.932865
-0.945964
-0.959022
-0.972028
-0.984974
-0.997853
-1.01066
-1.02338
-1.03601
-1.04855
-1.06098
-1.07331
-1.08554
-1.09764
-1.10963
-1.1215
-1.13324
-1.14486
-1.15634
-1.1677
-1.17891
-1.19
-1.20094
-1.21175
-1.22241
-1.23294
-1.24332
-1.25357
-1.26367
-1.27363
-1.28344
-1.29312
-1.30265
-1.31205
-1.3213
-1.33041
-1.33939
-1.34822
-1.35692
-1.36548
-1.37391
-1.3822
-1.39036
-1.39839
-1.40629
-1.41406
-1.4217
-1.42921
-1.4366
-1.44387
-1.45102
-1.45804
-1.46495
-1.47173
-1.47841
-1.48497
-1.49141
-1.49775
-1.50397
-1.51009
-1.5161
-1.52201
-1.52781
-1.53351
-1.53912
-1.54462
-1.55003
-1.55534
-1.56056
-1.56568
-1.57071
-1.57566
-1.58052
-1.58529
-1.58997
-1.59457
-1.59909
-1.60353
-1.60789
-1.61217
-1.61637
-1.6205
-1.62456
-1.62854
-0.578398
-0.579062
-0.580879
-0.583617
-0.587165
-0.591505
-0.59661
-0.602429
-0.608916
-0.61603
-0.623731
-0.631981
-0.640742
-0.64998
-0.659659
-0.669747
-0.680212
-0.691023
-0.702152
-0.713571
-0.725254
-0.737174
-0.749309
-0.761634
-0.774129
-0.786772
-0.799544
-0.812425
-0.825398
-0.838446
-0.851552
-0.864702
-0.87788
-0.891074
-0.90427
-0.917457
-0.930624
-0.943759
-0.956853
-0.969897
-0.982883
-0.9958
-1.00864
-1.0214
-1.03408
-1.04666
-1.05913
-1.07151
-1.08377
-1.09592
-1.10796
-1.11987
-1.13165
-1.14331
-1.15484
-1.16624
-1.1775
-1.18862
-1.19961
-1.21046
-1.22117
-1.23174
-1.24217
-1.25245
-1.2626
-1.2726
-1.28246
-1.29218
-1.30175
-1.31119
-1.32048
-1.32964
-1.33865
-1.34753
-1.35627
-1.36487
-1.37333
-1.38167
-1.38986
-1.39793
-1.40587
-1.41367
-1.42135
-1.4289
-1.43633
-1.44363
-1.45081
-1.45787
-1.46481
-1.47164
-1.47834
-1.48494
-1.49141
-1.49778
-1.50404
-1.51019
-1.51623
-1.52217
-1.52801
-1.53374
-1.53937
-1.5449
-1.55034
-1.55568
-1.56092
-1.56608
-1.57114
-1.57611
-1.58099
-1.58579
-1.5905
-1.59512
-1.59967
-1.60413
-1.60851
-1.61282
-1.61704
-1.6212
-1.62527
-1.62927
-0.575437
-0.576076
-0.57787
-0.580588
-0.584117
-0.588442
-0.593534
-0.599342
-0.605821
-0.612928
-0.620625
-0.628873
-0.637636
-0.646876
-0.65656
-0.666655
-0.677129
-0.687951
-0.699093
-0.710527
-0.722226
-0.734166
-0.746321
-0.758669
-0.771188
-0.783856
-0.796655
-0.809565
-0.822569
-0.835648
-0.848788
-0.861972
-0.875186
-0.888416
-0.901651
-0.914877
-0.928084
-0.94126
-0.954397
-0.967484
-0.980512
-0.993475
-1.00636
-1.01917
-1.03189
-1.04451
-1.05704
-1.06946
-1.08177
-1.09397
-1.10605
-1.11801
-1.12985
-1.14156
-1.15314
-1.16458
-1.17589
-1.18707
-1.19811
-1.209
-1.21976
-1.23038
-1.24086
-1.25119
-1.26139
-1.27144
-1.28134
-1.29111
-1.30073
-1.31022
-1.31956
-1.32876
-1.33782
-1.34674
-1.35552
-1.36417
-1.37268
-1.38106
-1.3893
-1.39741
-1.40539
-1.41324
-1.42096
-1.42855
-1.43602
-1.44337
-1.45059
-1.45769
-1.46467
-1.47153
-1.47827
-1.4849
-1.49142
-1.49782
-1.50412
-1.5103
-1.51638
-1.52235
-1.52822
-1.53399
-1.53965
-1.54522
-1.55069
-1.55606
-1.56134
-1.56652
-1.57161
-1.57661
-1.58153
-1.58635
-1.59109
-1.59575
-1.60032
-1.60481
-1.60922
-1.61355
-1.61781
-1.62198
-1.62608
-1.63011
-0.572139
-0.572748
-0.574517
-0.577213
-0.580722
-0.585029
-0.590106
-0.595903
-0.602372
-0.609472
-0.617164
-0.625411
-0.634173
-0.643417
-0.653106
-0.663208
-0.673692
-0.684527
-0.695683
-0.707134
-0.718852
-0.730812
-0.74299
-0.755362
-0.767908
-0.780605
-0.793434
-0.806376
-0.819413
-0.832528
-0.845704
-0.858926
-0.87218
-0.885452
-0.898729
-0.911998
-0.92525
-0.938472
-0.951655
-0.96479
-0.977867
-0.990879
-1.00382
-1.01668
-1.02945
-1.04212
-1.0547
-1.06718
-1.07954
-1.0918
-1.10393
-1.11594
-1.12783
-1.1396
-1.15123
-1.16273
-1.1741
-1.18533
-1.19642
-1.20738
-1.21819
-1.22886
-1.23939
-1.24978
-1.26003
-1.27013
-1.2801
-1.28992
-1.29959
-1.30913
-1.31852
-1.32777
-1.33689
-1.34586
-1.35469
-1.36339
-1.37195
-1.38038
-1.38867
-1.39683
-1.40486
-1.41275
-1.42052
-1.42816
-1.43567
-1.44306
-1.45033
-1.45747
-1.4645
-1.4714
-1.47819
-1.48486
-1.49142
-1.49787
-1.5042
-1.51043
-1.51654
-1.52256
-1.52846
-1.53427
-1.53997
-1.54557
-1.55108
-1.55649
-1.5618
-1.56702
-1.57214
-1.57718
-1.58213
-1.58698
-1.59176
-1.59644
-1.60105
-1.60557
-1.61001
-1.61437
-1.61865
-1.62286
-1.62699
-1.63104
-0.568509
-0.569087
-0.570828
-0.573498
-0.576985
-0.581273
-0.586334
-0.592117
-0.598575
-0.605668
-0.613355
-0.621599
-0.630362
-0.639608
-0.649303
-0.659414
-0.669908
-0.680756
-0.691928
-0.703397
-0.715135
-0.727118
-0.739321
-0.75172
-0.764295
-0.777023
-0.789885
-0.802862
-0.815936
-0.829089
-0.842306
-0.85557
-0.868868
-0.882185
-0.895508
-0.908825
-0.922126
-0.935398
-0.948633
-0.96182
-0.974951
-0.988017
-1.00101
-1.01392
-1.02675
-1.03949
-1.05212
-1.06466
-1.07708
-1.08939
-1.10159
-1.11366
-1.12561
-1.13744
-1.14913
-1.16069
-1.17212
-1.18341
-1.19456
-1.20558
-1.21645
-1.22719
-1.23778
-1.24823
-1.25853
-1.2687
-1.27872
-1.2886
-1.29833
-1.30793
-1.31738
-1.32669
-1.33586
-1.34489
-1.35378
-1.36253
-1.37115
-1.37963
-1.38797
-1.39619
-1.40427
-1.41221
-1.42003
-1.42772
-1.43529
-1.44273
-1.45004
-1.45724
-1.46431
-1.47126
-1.4781
-1.48482
-1.49142
-1.49791
-1.50429
-1.51056
-1.51672
-1.52278
-1.52873
-1.53457
-1.54032
-1.54596
-1.55151
-1.55695
-1.56231
-1.56756
-1.57273
-1.5778
-1.58278
-1.58768
-1.59248
-1.59721
-1.60184
-1.6064
-1.61087
-1.61527
-1.61958
-1.62382
-1.62798
-1.63207
-0.564555
-0.565097
-0.566808
-0.569451
-0.572913
-0.57718
-0.582223
-0.587991
-0.594438
-0.601522
-0.609203
-0.617445
-0.626208
-0.635458
-0.645158
-0.655278
-0.665784
-0.676645
-0.687834
-0.699322
-0.711083
-0.72309
-0.735319
-0.747748
-0.760354
-0.773116
-0.786014
-0.799029
-0.812143
-0.825338
-0.838599
-0.851909
-0.865254
-0.878619
-0.891993
-0.905363
-0.918716
-0.932043
-0.945334
-0.958578
-0.971767
-0.984892
-0.997945
-1.01092
-1.02381
-1.03661
-1.04931
-1.0619
-1.07439
-1.08677
-1.09903
-1.11117
-1.12318
-1.13507
-1.14683
-1.15846
-1.16995
-1.18131
-1.19253
-1.20361
-1.21455
-1.22535
-1.23601
-1.24653
-1.2569
-1.26713
-1.27721
-1.28715
-1.29695
-1.30661
-1.31612
-1.3255
-1.33473
-1.34382
-1.35277
-1.36159
-1.37026
-1.3788
-1.38721
-1.39548
-1.40362
-1.41162
-1.4195
-1.42725
-1.43487
-1.44236
-1.44973
-1.45698
-1.4641
-1.47111
-1.47799
-1.48476
-1.49142
-1.49796
-1.50439
-1.5107
-1.51691
-1.52302
-1.52901
-1.5349
-1.54069
-1.54638
-1.55197
-1.55746
-1.56285
-1.56815
-1.57336
-1.57847
-1.5835
-1.58843
-1.59328
-1.59804
-1.60271
-1.60731
-1.61182
-1.61625
-1.6206
-1.62487
-1.62907
-1.63319
-0.560281
-0.560786
-0.562463
-0.565077
-0.568513
-0.572757
-0.57778
-0.583532
-0.589966
-0.59704
-0.604716
-0.612954
-0.621717
-0.63097
-0.640677
-0.650805
-0.661323
-0.6722
-0.683407
-0.694916
-0.7067
-0.718733
-0.730992
-0.743452
-0.756092
-0.76889
-0.781826
-0.794882
-0.808039
-0.821279
-0.834587
-0.847946
-0.861342
-0.87476
-0.888188
-0.901614
-0.915025
-0.928411
-0.941761
-0.955067
-0.968318
-0.981507
-0.994626
-1.00767
-1.02062
-1.03349
-1.04625
-1.05892
-1.07148
-1.08392
-1.09626
-1.10847
-1.12055
-1.13251
-1.14434
-1.15604
-1.16761
-1.17904
-1.19033
-1.20148
-1.21249
-1.22336
-1.23409
-1.24468
-1.25512
-1.26542
-1.27558
-1.28559
-1.29546
-1.30518
-1.31476
-1.32421
-1.3335
-1.34266
-1.35168
-1.36056
-1.3693
-1.37791
-1.38637
-1.39471
-1.40291
-1.41098
-1.41891
-1.42672
-1.4344
-1.44196
-1.44938
-1.45669
-1.46387
-1.47093
-1.47788
-1.4847
-1.49141
-1.498
-1.50449
-1.51086
-1.51712
-1.52327
-1.52932
-1.53526
-1.5411
-1.54683
-1.55247
-1.55801
-1.56345
-1.56879
-1.57404
-1.5792
-1.58427
-1.58924
-1.59413
-1.59894
-1.60365
-1.60829
-1.61284
-1.61731
-1.6217
-1.62601
-1.63024
-1.6344
-0.555695
-0.556158
-0.557801
-0.560382
-0.56379
-0.568009
-0.573011
-0.578746
-0.585166
-0.59223
-0.599898
-0.608133
-0.616896
-0.626152
-0.635865
-0.646003
-0.656534
-0.667427
-0.678652
-0.690183
-0.701992
-0.714053
-0.726342
-0.738836
-0.751511
-0.764348
-0.777326
-0.790425
-0.803627
-0.816916
-0.830274
-0.843685
-0.857136
-0.870611
-0.884097
-0.897582
-0.911055
-0.924504
-0.937919
-0.95129
-0.964609
-0.977866
-0.991054
-1.00417
-1.01719
-1.03013
-1.04297
-1.05571
-1.06834
-1.08086
-1.09327
-1.10556
-1.11772
-1.12976
-1.14166
-1.15344
-1.16508
-1.17659
-1.18796
-1.19919
-1.21027
-1.22122
-1.23203
-1.24269
-1.25321
-1.26358
-1.27381
-1.2839
-1.29384
-1.30364
-1.3133
-1.32281
-1.33218
-1.34141
-1.3505
-1.35945
-1.36826
-1.37694
-1.38547
-1.39388
-1.40214
-1.41028
-1.41828
-1.42616
-1.4339
-1.44152
-1.44901
-1.45638
-1.46362
-1.47074
-1.47775
-1.48463
-1.4914
-1.49805
-1.50459
-1.51102
-1.51733
-1.52354
-1.52964
-1.53564
-1.54153
-1.54732
-1.553
-1.55859
-1.56408
-1.56948
-1.57477
-1.57998
-1.58509
-1.59012
-1.59505
-1.5999
-1.60466
-1.60934
-1.61393
-1.61844
-1.62287
-1.62723
-1.6315
-1.63569
-0.550801
-0.551221
-0.552826
-0.555373
-0.55875
-0.562943
-0.567922
-0.573638
-0.580043
-0.587095
-0.594756
-0.602987
-0.611749
-0.621008
-0.630728
-0.640876
-0.65142
-0.662329
-0.673575
-0.685129
-0.696964
-0.709054
-0.721376
-0.733904
-0.746618
-0.759496
-0.772517
-0.785662
-0.798914
-0.812253
-0.825664
-0.839132
-0.85264
-0.866175
-0.879723
-0.893272
-0.90681
-0.920326
-0.93381
-0.947251
-0.960641
-0.973971
-0.987233
-1.00042
-1.01352
-1.02654
-1.03946
-1.05227
-1.06499
-1.07759
-1.09007
-1.10244
-1.11468
-1.1268
-1.13879
-1.15065
-1.16238
-1.17396
-1.18541
-1.19673
-1.2079
-1.21893
-1.22981
-1.24056
-1.25115
-1.26161
-1.27192
-1.28209
-1.29211
-1.30199
-1.31172
-1.32131
-1.33076
-1.34007
-1.34924
-1.35826
-1.36715
-1.3759
-1.38451
-1.39298
-1.40132
-1.40953
-1.4176
-1.42555
-1.43336
-1.44104
-1.4486
-1.45604
-1.46335
-1.47053
-1.4776
-1.48455
-1.49138
-1.49809
-1.5047
-1.51118
-1.51756
-1.52383
-1.52998
-1.53604
-1.54198
-1.54783
-1.55357
-1.55921
-1.56476
-1.5702
-1.57555
-1.58081
-1.58597
-1.59105
-1.59603
-1.60092
-1.60573
-1.61046
-1.6151
-1.61965
-1.62413
-1.62852
-1.63284
-1.63708
-0.545606
-0.54598
-0.547545
-0.550055
-0.5534
-0.557564
-0.562519
-0.568215
-0.574603
-0.581643
-0.589296
-0.597522
-0.606283
-0.615545
-0.625271
-0.635429
-0.645987
-0.656914
-0.66818
-0.679758
-0.691621
-0.703742
-0.716097
-0.728663
-0.741417
-0.754338
-0.767405
-0.780599
-0.793901
-0.807294
-0.820762
-0.834288
-0.847857
-0.861456
-0.875069
-0.888686
-0.902293
-0.91588
-0.929436
-0.942952
-0.956418
-0.969825
-0.983165
-0.996431
-1.00962
-1.02271
-1.03571
-1.04861
-1.06141
-1.0741
-1.08667
-1.09912
-1.11145
-1.12366
-1.13573
-1.14768
-1.15949
-1.17117
-1.1827
-1.1941
-1.20536
-1.21648
-1.22745
-1.23828
-1.24896
-1.25951
-1.2699
-1.28015
-1.29026
-1.30022
-1.31004
-1.31972
-1.32925
-1.33864
-1.34788
-1.35699
-1.36595
-1.37478
-1.38347
-1.39202
-1.40044
-1.40872
-1.41687
-1.42489
-1.43278
-1.44053
-1.44817
-1.45567
-1.46305
-1.47031
-1.47744
-1.48446
-1.49136
-1.49814
-1.5048
-1.51135
-1.51779
-1.52412
-1.53034
-1.53646
-1.54246
-1.54837
-1.55417
-1.55987
-1.56547
-1.57097
-1.57638
-1.58169
-1.5869
-1.59203
-1.59707
-1.60201
-1.60687
-1.61164
-1.61633
-1.62094
-1.62546
-1.6299
-1.63427
-1.63855
-0.540116
-0.540441
-0.541963
-0.544434
-0.547744
-0.551878
-0.556807
-0.562481
-0.568852
-0.575879
-0.583522
-0.591743
-0.600503
-0.609767
-0.6195
-0.629669
-0.640241
-0.651185
-0.662473
-0.674076
-0.685967
-0.698121
-0.710511
-0.723116
-0.735912
-0.748878
-0.761993
-0.775238
-0.788594
-0.802044
-0.815571
-0.829158
-0.842792
-0.856457
-0.870139
-0.883827
-0.897507
-0.911169
-0.924802
-0.938396
-0.951941
-0.96543
-0.978853
-0.992203
-1.00547
-1.01865
-1.03174
-1.04473
-1.05762
-1.07039
-1.08305
-1.0956
-1.10802
-1.12032
-1.13249
-1.14452
-1.15643
-1.16819
-1.17983
-1.19132
-1.20267
-1.21387
-1.22494
-1.23586
-1.24664
-1.25727
-1.26776
-1.2781
-1.2883
-1.29835
-1.30825
-1.31802
-1.32763
-1.33711
-1.34644
-1.35563
-1.36468
-1.37359
-1.38237
-1.391
-1.3995
-1.40786
-1.41609
-1.42419
-1.43215
-1.43999
-1.4477
-1.45528
-1.46273
-1.47006
-1.47727
-1.48436
-1.49133
-1.49818
-1.50491
-1.51153
-1.51804
-1.52443
-1.53072
-1.5369
-1.54297
-1.54893
-1.5548
-1.56056
-1.56622
-1.57178
-1.57724
-1.58261
-1.58789
-1.59307
-1.59816
-1.60316
-1.60807
-1.6129
-1.61764
-1.62229
-1.62687
-1.63136
-1.63577
-1.6401
-0.534335
-0.534609
-0.536085
-0.538516
-0.541789
-0.545891
-0.550793
-0.556444
-0.562796
-0.569808
-0.577441
-0.585656
-0.594414
-0.603681
-0.61342
-0.623599
-0.634186
-0.645148
-0.656459
-0.668087
-0.680008
-0.692195
-0.704622
-0.717267
-0.730107
-0.74312
-0.756285
-0.769583
-0.782995
-0.796505
-0.810093
-0.823746
-0.837447
-0.851181
-0.864936
-0.878698
-0.892454
-0.906195
-0.919908
-0.933584
-0.947214
-0.960788
-0.974298
-0.987736
-1.00109
-1.01437
-1.02755
-1.04063
-1.05361
-1.06648
-1.07924
-1.09187
-1.10439
-1.11679
-1.12905
-1.14119
-1.15319
-1.16505
-1.17678
-1.18837
-1.19982
-1.21112
-1.22228
-1.2333
-1.24417
-1.2549
-1.26548
-1.27592
-1.28621
-1.29636
-1.30636
-1.31621
-1.32592
-1.33549
-1.34491
-1.35419
-1.36333
-1.37233
-1.38119
-1.38991
-1.3985
-1.40695
-1.41526
-1.42344
-1.43149
-1.4394
-1.44719
-1.45485
-1.46239
-1.46979
-1.47708
-1.48424
-1.49129
-1.49821
-1.50502
-1.51171
-1.51829
-1.52475
-1.53111
-1.53736
-1.54349
-1.54953
-1.55545
-1.56128
-1.567
-1.57263
-1.57816
-1.58358
-1.58892
-1.59416
-1.59931
-1.60437
-1.60934
-1.61422
-1.61901
-1.62372
-1.62835
-1.63289
-1.63736
-1.64174
-0.528269
-0.528489
-0.529917
-0.532305
-0.535539
-0.539607
-0.54448
-0.550107
-0.556439
-0.563435
-0.571057
-0.579265
-0.588022
-0.59729
-0.607036
-0.617225
-0.627826
-0.638808
-0.650141
-0.661796
-0.673748
-0.685969
-0.698434
-0.711121
-0.724006
-0.737067
-0.750285
-0.763638
-0.777109
-0.79068
-0.804334
-0.818053
-0.831825
-0.845632
-0.859462
-0.873301
-0.887138
-0.900961
-0.914758
-0.92852
-0.942238
-0.955901
-0.969502
-0.983032
-0.996485
-1.00985
-1.02313
-1.03631
-1.04939
-1.06235
-1.07521
-1.08795
-1.10057
-1.11306
-1.12543
-1.13767
-1.14977
-1.16174
-1.17357
-1.18526
-1.19681
-1.20822
-1.21948
-1.2306
-1.24157
-1.2524
-1.26309
-1.27362
-1.28401
-1.29426
-1.30435
-1.31431
-1.32411
-1.33378
-1.3433
-1.35267
-1.36191
-1.371
-1.37995
-1.38876
-1.39744
-1.40598
-1.41438
-1.42264
-1.43078
-1.43878
-1.44665
-1.4544
-1.46201
-1.46951
-1.47687
-1.48412
-1.49124
-1.49824
-1.50512
-1.51189
-1.51855
-1.52509
-1.53151
-1.53783
-1.54404
-1.55014
-1.55614
-1.56203
-1.56783
-1.57352
-1.57911
-1.5846
-1.59
-1.5953
-1.60051
-1.60563
-1.61066
-1.6156
-1.62045
-1.62522
-1.6299
-1.6345
-1.63902
-1.64345
-0.521923
-0.522086
-0.523465
-0.525807
-0.529001
-0.533033
-0.537875
-0.543476
-0.549786
-0.556766
-0.564376
-0.572577
-0.581331
-0.590601
-0.600352
-0.610552
-0.621168
-0.632168
-0.643524
-0.655207
-0.66719
-0.679446
-0.691951
-0.704681
-0.717613
-0.730725
-0.743997
-0.757408
-0.770939
-0.784574
-0.798294
-0.812084
-0.825928
-0.839812
-0.85372
-0.86764
-0.881561
-0.895469
-0.909354
-0.923205
-0.937014
-0.950771
-0.964467
-0.978094
-0.991645
-1.00511
-1.01849
-1.03177
-1.04495
-1.05802
-1.07098
-1.08383
-1.09655
-1.10915
-1.12162
-1.13397
-1.14618
-1.15825
-1.17019
-1.18199
-1.19364
-1.20516
-1.21653
-1.22776
-1.23884
-1.24977
-1.26056
-1.2712
-1.28169
-1.29204
-1.30224
-1.3123
-1.32221
-1.33197
-1.34159
-1.35107
-1.3604
-1.36959
-1.37864
-1.38755
-1.39632
-1.40495
-1.41344
-1.4218
-1.43003
-1.43812
-1.44608
-1.45391
-1.46162
-1.46919
-1.47665
-1.48397
-1.49118
-1.49826
-1.50523
-1.51208
-1.51881
-1.52543
-1.53193
-1.53832
-1.54461
-1.55078
-1.55685
-1.56282
-1.56868
-1.57444
-1.5801
-1.58566
-1.59113
-1.5965
-1.60177
-1.60695
-1.61205
-1.61705
-1.62196
-1.62679
-1.63153
-1.63619
-1.64076
-1.64525
-0.515303
-0.515407
-0.516733
-0.519028
-0.522178
-0.526174
-0.530983
-0.536556
-0.542844
-0.549806
-0.557403
-0.565596
-0.574346
-0.583617
-0.593374
-0.603584
-0.614215
-0.625234
-0.636614
-0.648325
-0.66034
-0.672632
-0.685178
-0.697952
-0.710932
-0.724096
-0.737423
-0.750893
-0.764488
-0.778189
-0.791979
-0.805841
-0.819761
-0.833723
-0.847712
-0.861717
-0.875724
-0.889721
-0.903697
-0.917642
-0.931546
-0.945399
-0.959194
-0.972922
-0.986574
-1.00015
-1.01363
-1.02701
-1.0403
-1.05348
-1.06655
-1.0795
-1.09234
-1.10505
-1.11763
-1.13009
-1.14241
-1.1546
-1.16665
-1.17855
-1.19032
-1.20195
-1.21343
-1.22477
-1.23596
-1.24701
-1.2579
-1.26865
-1.27926
-1.28972
-1.30002
-1.31019
-1.3202
-1.33007
-1.3398
-1.34937
-1.35881
-1.3681
-1.37725
-1.38626
-1.39513
-1.40386
-1.41245
-1.42091
-1.42923
-1.43742
-1.44547
-1.4534
-1.46119
-1.46886
-1.4764
-1.48382
-1.49111
-1.49828
-1.50533
-1.51226
-1.51907
-1.52577
-1.53236
-1.53883
-1.54519
-1.55145
-1.55759
-1.56363
-1.56957
-1.5754
-1.58113
-1.58677
-1.5923
-1.59774
-1.60308
-1.60833
-1.61349
-1.61855
-1.62353
-1.62842
-1.63323
-1.63794
-1.64258
-1.64712
-0.508413
-0.508455
-0.509727
-0.511972
-0.515077
-0.519033
-0.523809
-0.529352
-0.535616
-0.542559
-0.550142
-0.558326
-0.567071
-0.576343
-0.586106
-0.596326
-0.606971
-0.61801
-0.629413
-0.641153
-0.6532
-0.66553
-0.678117
-0.690936
-0.703966
-0.717183
-0.730568
-0.744099
-0.757759
-0.771528
-0.785389
-0.799327
-0.813325
-0.827368
-0.841442
-0.855533
-0.869629
-0.883718
-0.897789
-0.911831
-0.925833
-0.939788
-0.953685
-0.967517
-0.981276
-0.994954
-1.00854
-1.02204
-1.03544
-1.04873
-1.06191
-1.07498
-1.08793
-1.10076
-1.11346
-1.12603
-1.13847
-1.15077
-1.16293
-1.17496
-1.18685
-1.19859
-1.21019
-1.22164
-1.23295
-1.24411
-1.25512
-1.26599
-1.2767
-1.28727
-1.2977
-1.30797
-1.3181
-1.32808
-1.33791
-1.3476
-1.35714
-1.36654
-1.3758
-1.38491
-1.39388
-1.40272
-1.41141
-1.41997
-1.42839
-1.43667
-1.44483
-1.45285
-1.46074
-1.4685
-1.47613
-1.48364
-1.49102
-1.49828
-1.50542
-1.51244
-1.51934
-1.52613
-1.5328
-1.53935
-1.5458
-1.55213
-1.55836
-1.56448
-1.57049
-1.5764
-1.5822
-1.58791
-1.59352
-1.59903
-1.60444
-1.60976
-1.61499
-1.62012
-1.62516
-1.63012
-1.63499
-1.63977
-1.64447
-1.64907
-0.501258
-0.501236
-0.502451
-0.504644
-0.507703
-0.511617
-0.516357
-0.52187
-0.528108
-0.535031
-0.542599
-0.550772
-0.559513
-0.568784
-0.578552
-0.588781
-0.599441
-0.610499
-0.621927
-0.633695
-0.645776
-0.658143
-0.670772
-0.683638
-0.696718
-0.709991
-0.723434
-0.737028
-0.750754
-0.764594
-0.778529
-0.792544
-0.806622
-0.820749
-0.83491
-0.849091
-0.86328
-0.877464
-0.891632
-0.905774
-0.919879
-0.933938
-0.947941
-0.961881
-0.97575
-0.989539
-1.00324
-1.01685
-1.03037
-1.04378
-1.05708
-1.07026
-1.08333
-1.09628
-1.1091
-1.12179
-1.13435
-1.14677
-1.15906
-1.17121
-1.18321
-1.19508
-1.20679
-1.21837
-1.2298
-1.24108
-1.25221
-1.26319
-1.27403
-1.28472
-1.29526
-1.30565
-1.31589
-1.32598
-1.33593
-1.34573
-1.35539
-1.3649
-1.37427
-1.38349
-1.39257
-1.40151
-1.41031
-1.41897
-1.4275
-1.43589
-1.44414
-1.45226
-1.46025
-1.46811
-1.47584
-1.48345
-1.49093
-1.49828
-1.50551
-1.51262
-1.51961
-1.52649
-1.53324
-1.53988
-1.54641
-1.55283
-1.55914
-1.56534
-1.57144
-1.57743
-1.58331
-1.58909
-1.59478
-1.60036
-1.60585
-1.61124
-1.61654
-1.62175
-1.62686
-1.63188
-1.63682
-1.64167
-1.64643
-1.6511
-0.493844
-0.493754
-0.49491
-0.497049
-0.500059
-0.50393
-0.508632
-0.514113
-0.520324
-0.527226
-0.534777
-0.542939
-0.551674
-0.560944
-0.570716
-0.580955
-0.591629
-0.602707
-0.614158
-0.625955
-0.63807
-0.650475
-0.663147
-0.676061
-0.689193
-0.702521
-0.716025
-0.729683
-0.743477
-0.757389
-0.7714
-0.785494
-0.799655
-0.813868
-0.828118
-0.842392
-0.856677
-0.870959
-0.885228
-0.899473
-0.913683
-0.92785
-0.941963
-0.956015
-0.969997
-0.983902
-0.997722
-1.01145
-1.02508
-1.03861
-1.05204
-1.06534
-1.07854
-1.0916
-1.10455
-1.11737
-1.13005
-1.1426
-1.15501
-1.16729
-1.17942
-1.19141
-1.20325
-1.21495
-1.22651
-1.23791
-1.24917
-1.26028
-1.27124
-1.28205
-1.29271
-1.30322
-1.31358
-1.3238
-1.33386
-1.34378
-1.35355
-1.36318
-1.37266
-1.382
-1.39119
-1.40025
-1.40916
-1.41793
-1.42656
-1.43506
-1.44342
-1.45164
-1.45974
-1.4677
-1.47553
-1.48324
-1.49081
-1.49826
-1.50559
-1.5128
-1.51988
-1.52685
-1.5337
-1.54043
-1.54705
-1.55355
-1.55995
-1.56624
-1.57241
-1.57849
-1.58445
-1.59032
-1.59608
-1.60174
-1.60731
-1.61278
-1.61815
-1.62343
-1.62861
-1.63371
-1.63872
-1.64363
-1.64847
-1.6532
-0.486174
-0.486015
-0.487109
-0.489191
-0.492151
-0.495977
-0.50064
-0.506086
-0.51227
-0.519148
-0.526682
-0.534832
-0.543559
-0.552829
-0.562604
-0.572852
-0.58354
-0.594636
-0.606112
-0.617938
-0.630086
-0.64253
-0.655246
-0.668207
-0.681392
-0.694778
-0.708343
-0.722067
-0.735931
-0.749916
-0.764005
-0.77818
-0.792426
-0.806728
-0.82107
-0.835439
-0.849821
-0.864205
-0.878577
-0.892929
-0.907248
-0.921526
-0.935752
-0.94992
-0.964019
-0.978043
-0.991984
-1.00584
-1.01959
-1.03325
-1.04679
-1.06023
-1.07355
-1.08674
-1.09982
-1.11276
-1.12558
-1.13826
-1.1508
-1.16321
-1.17547
-1.18759
-1.19957
-1.21139
-1.22308
-1.23461
-1.246
-1.25723
-1.26832
-1.27926
-1.29005
-1.30068
-1.31117
-1.32151
-1.3317
-1.34174
-1.35163
-1.36138
-1.37098
-1.38044
-1.38975
-1.39892
-1.40794
-1.41683
-1.42557
-1.43418
-1.44265
-1.45099
-1.45919
-1.46726
-1.4752
-1.483
-1.49068
-1.49824
-1.50566
-1.51297
-1.52015
-1.52721
-1.53416
-1.54098
-1.54769
-1.55429
-1.56078
-1.56715
-1.57342
-1.57958
-1.58563
-1.59158
-1.59742
-1.60317
-1.60881
-1.61436
-1.61981
-1.62516
-1.63043
-1.6356
-1.64068
-1.64567
-1.65057
-1.65537
-0.478253
-0.478022
-0.479052
-0.481077
-0.483983
-0.487763
-0.492384
-0.497795
-0.503948
-0.510802
-0.518317
-0.526454
-0.535174
-0.54444
-0.554219
-0.564475
-0.575176
-0.586291
-0.597791
-0.609646
-0.621828
-0.634312
-0.647071
-0.660081
-0.673319
-0.686763
-0.700391
-0.714182
-0.728117
-0.742177
-0.756345
-0.770604
-0.784937
-0.799329
-0.813766
-0.828232
-0.842715
-0.857202
-0.871682
-0.886143
-0.900574
-0.914966
-0.929309
-0.943595
-0.957815
-0.971961
-0.986027
-1
-1.01389
-1.02767
-1.04135
-1.05491
-1.06836
-1.0817
-1.0949
-1.10798
-1.12093
-1.13375
-1.14642
-1.15896
-1.17136
-1.18362
-1.19573
-1.20769
-1.21951
-1.23118
-1.2427
-1.25407
-1.26529
-1.27635
-1.28727
-1.29804
-1.30866
-1.31912
-1.32944
-1.33961
-1.34963
-1.3595
-1.36923
-1.3788
-1.38824
-1.39753
-1.40667
-1.41567
-1.42454
-1.43326
-1.44185
-1.45029
-1.45861
-1.46679
-1.47483
-1.48275
-1.49053
-1.49819
-1.50572
-1.51313
-1.52042
-1.52758
-1.53462
-1.54154
-1.54835
-1.55504
-1.56162
-1.56809
-1.57445
-1.5807
-1.58684
-1.59287
-1.5988
-1.60463
-1.61036
-1.61599
-1.62152
-1.62696
-1.6323
-1.63754
-1.6427
-1.64777
-1.65274
-1.65762
-0.470086
-0.469781
-0.470745
-0.472709
-0.475561
-0.479291
-0.48387
-0.489244
-0.495365
-0.502193
-0.509688
-0.51781
-0.526521
-0.535784
-0.545564
-0.555828
-0.566542
-0.577676
-0.589199
-0.601083
-0.613299
-0.625822
-0.638626
-0.651685
-0.664977
-0.67848
-0.692171
-0.70603
-0.720038
-0.734175
-0.748424
-0.762768
-0.77719
-0.791675
-0.806207
-0.820774
-0.83536
-0.849954
-0.864542
-0.879115
-0.893661
-0.908171
-0.922634
-0.937042
-0.951386