# Forces      
# CofR        : (0.000000e+00 0.000000e+00 0.000000e+00)
# Time        forces(pressure viscous porous)	moments(pressure viscous porous)
0.01943       	((5.061293e+00 8.349374e+01 -6.862773e-19) (7.611629e-01 -1.542348e-02 -1.772287e-19) (0.000000e+00 0.000000e+00 0.000000e+00)) ((-5.427093e+01 3.289841e+00 -8.148486e+02) (1.002526e-02 4.947559e-01 1.692171e-01) (0.000000e+00 0.000000e+00 0.000000e+00))
