/*--------------------------------*- C++ -*----------------------------------*\
  =========                 |
  \\      /  F ield         | OpenFOAM: The Open Source CFD Toolbox
   \\    /   O peration     | Website:  https://openfoam.org
    \\  /    A nd           | Version:  8
     \\/     M anipulation  |
\*---------------------------------------------------------------------------*/
FoamFile
{
    version     2.0;
    format      ascii;
    class       volScalarField;
    location    "7.4";
    object      p;
}
// * * * * * * * * * * * * * * * * * * * * * * * * * * * * * * * * * * * * * //

dimensions      [0 2 -2 0 0 0 0];

internalField   nonuniform List<scalar> 
262620
(
-1.35577
-1.35599
-1.35666
-1.35768
-1.35902
-1.36066
-1.3626
-1.36481
-1.36727
-1.36997
-1.37289
-1.37602
-1.37934
-1.38284
-1.3865
-1.39031
-1.39425
-1.39833
-1.40251
-1.4068
-1.41118
-1.41564
-1.42017
-1.42476
-1.42941
-1.43411
-1.43884
-1.44361
-1.4484
-1.4532
-1.45802
-1.46285
-1.46768
-1.4725
-1.47731
-1.48211
-1.48689
-1.49165
-1.49639
-1.5011
-1.50578
-1.51042
-1.51503
-1.5196
-1.52413
-1.52862
-1.53306
-1.53745
-1.5418
-1.5461
-1.55035
-1.55455
-1.5587
-1.56279
-1.56684
-1.57082
-1.57476
-1.57864
-1.58246
-1.58623
-1.58995
-1.5936
-1.59721
-1.60076
-1.60425
-1.60769
-1.61108
-1.61441
-1.61768
-1.62091
-1.62408
-1.6272
-1.63026
-1.63328
-1.63624
-1.63915
-1.64201
-1.64483
-1.64759
-1.65031
-1.65297
-1.65559
-1.65817
-1.6607
-1.66318
-1.66562
-1.66801
-1.67036
-1.67267
-1.67494
-1.67716
-1.67935
-1.68149
-1.6836
-1.68566
-1.68769
-1.68968
-1.69163
-1.69355
-1.69543
-1.69728
-1.69909
-1.70087
-1.70262
-1.70433
-1.70601
-1.70766
-1.70928
-1.71087
-1.71242
-1.71395
-1.71545
-1.71693
-1.71837
-1.71979
-1.72118
-1.72254
-1.72388
-1.7252
-1.72649
-1.35564
-1.35586
-1.35653
-1.35755
-1.35888
-1.36052
-1.36246
-1.36466
-1.36712
-1.36982
-1.37275
-1.37588
-1.3792
-1.38269
-1.38635
-1.39016
-1.39411
-1.39818
-1.40237
-1.40666
-1.41104
-1.4155
-1.42003
-1.42463
-1.42928
-1.43398
-1.43871
-1.44348
-1.44827
-1.45308
-1.4579
-1.46273
-1.46756
-1.47238
-1.4772
-1.482
-1.48678
-1.49155
-1.49629
-1.501
-1.50568
-1.51033
-1.51494
-1.51951
-1.52404
-1.52853
-1.53298
-1.53738
-1.54173
-1.54603
-1.55028
-1.55448
-1.55864
-1.56273
-1.56678
-1.57077
-1.57471
-1.57859
-1.58242
-1.58619
-1.5899
-1.59357
-1.59717
-1.60073
-1.60422
-1.60767
-1.61105
-1.61439
-1.61767
-1.62089
-1.62407
-1.62719
-1.63026
-1.63327
-1.63624
-1.63916
-1.64202
-1.64484
-1.6476
-1.65032
-1.65299
-1.65561
-1.65819
-1.66072
-1.66321
-1.66565
-1.66804
-1.6704
-1.67271
-1.67498
-1.67721
-1.67939
-1.68154
-1.68365
-1.68571
-1.68775
-1.68974
-1.69169
-1.69361
-1.6955
-1.69735
-1.69916
-1.70094
-1.70269
-1.7044
-1.70609
-1.70774
-1.70936
-1.71095
-1.71251
-1.71404
-1.71554
-1.71701
-1.71846
-1.71988
-1.72127
-1.72264
-1.72398
-1.72529
-1.72658
-1.35541
-1.35562
-1.35629
-1.3573
-1.35863
-1.36027
-1.36221
-1.36441
-1.36687
-1.36957
-1.37249
-1.37562
-1.37894
-1.38244
-1.3861
-1.38991
-1.39386
-1.39793
-1.40212
-1.40641
-1.41079
-1.41526
-1.41979
-1.42439
-1.42904
-1.43374
-1.43848
-1.44325
-1.44805
-1.45286
-1.45769
-1.46252
-1.46735
-1.47218
-1.477
-1.48181
-1.4866
-1.49136
-1.49611
-1.50083
-1.50551
-1.51016
-1.51478
-1.51936
-1.52389
-1.52839
-1.53284
-1.53724
-1.5416
-1.54591
-1.55017
-1.55437
-1.55853
-1.56263
-1.56668
-1.57068
-1.57462
-1.57851
-1.58234
-1.58612
-1.58984
-1.59351
-1.59712
-1.60068
-1.60418
-1.60762
-1.61102
-1.61436
-1.61764
-1.62087
-1.62405
-1.62718
-1.63025
-1.63327
-1.63624
-1.63916
-1.64203
-1.64485
-1.64762
-1.65034
-1.65302
-1.65564
-1.65822
-1.66076
-1.66325
-1.66569
-1.66809
-1.67045
-1.67276
-1.67504
-1.67727
-1.67946
-1.68161
-1.68372
-1.68579
-1.68782
-1.68982
-1.69178
-1.6937
-1.69559
-1.69744
-1.69926
-1.70104
-1.70279
-1.70451
-1.70619
-1.70785
-1.70947
-1.71106
-1.71263
-1.71416
-1.71567
-1.71714
-1.71859
-1.72001
-1.72141
-1.72278
-1.72412
-1.72544
-1.72673
-1.35506
-1.35527
-1.35593
-1.35694
-1.35827
-1.3599
-1.36183
-1.36404
-1.3665
-1.36919
-1.37211
-1.37524
-1.37856
-1.38206
-1.38572
-1.38953
-1.39348
-1.39756
-1.40175
-1.40604
-1.41043
-1.41489
-1.41943
-1.42404
-1.42869
-1.4334
-1.43814
-1.44292
-1.44772
-1.45254
-1.45737
-1.4622
-1.46704
-1.47188
-1.4767
-1.48152
-1.48631
-1.49109
-1.49584
-1.50056
-1.50526
-1.50992
-1.51454
-1.51912
-1.52367
-1.52817
-1.53263
-1.53704
-1.5414
-1.54572
-1.54999
-1.5542
-1.55836
-1.56247
-1.56653
-1.57054
-1.57449
-1.57838
-1.58222
-1.58601
-1.58974
-1.59341
-1.59703
-1.6006
-1.6041
-1.60756
-1.61096
-1.61431
-1.6176
-1.62084
-1.62402
-1.62715
-1.63023
-1.63326
-1.63624
-1.63917
-1.64204
-1.64487
-1.64765
-1.65038
-1.65306
-1.65569
-1.65828
-1.66082
-1.66331
-1.66576
-1.66817
-1.67053
-1.67286
-1.67513
-1.67737
-1.67957
-1.68172
-1.68384
-1.68592
-1.68795
-1.68996
-1.69192
-1.69385
-1.69574
-1.6976
-1.69942
-1.70121
-1.70296
-1.70469
-1.70638
-1.70804
-1.70966
-1.71126
-1.71283
-1.71437
-1.71587
-1.71736
-1.71881
-1.72023
-1.72163
-1.723
-1.72435
-1.72567
-1.72697
-1.3546
-1.3548
-1.35546
-1.35646
-1.35778
-1.35942
-1.36134
-1.36354
-1.366
-1.36869
-1.37161
-1.37474
-1.37806
-1.38156
-1.38522
-1.38903
-1.39299
-1.39707
-1.40126
-1.40555
-1.40994
-1.41441
-1.41896
-1.42357
-1.42823
-1.43294
-1.43769
-1.44247
-1.44728
-1.4521
-1.45694
-1.46179
-1.46663
-1.47148
-1.47631
-1.48113
-1.48594
-1.49072
-1.49548
-1.50022
-1.50492
-1.50959
-1.51422
-1.51882
-1.52337
-1.52788
-1.53235
-1.53677
-1.54115
-1.54547
-1.54975
-1.55397
-1.55815
-1.56227
-1.56634
-1.57035
-1.57431
-1.57822
-1.58207
-1.58586
-1.5896
-1.59329
-1.59692
-1.60049
-1.60401
-1.60748
-1.61089
-1.61424
-1.61754
-1.62079
-1.62399
-1.62713
-1.63022
-1.63325
-1.63624
-1.63918
-1.64206
-1.6449
-1.64768
-1.65042
-1.65311
-1.65575
-1.65835
-1.66089
-1.6634
-1.66586
-1.66827
-1.67064
-1.67297
-1.67526
-1.6775
-1.6797
-1.68187
-1.68399
-1.68607
-1.68812
-1.69013
-1.6921
-1.69403
-1.69593
-1.6978
-1.69963
-1.70142
-1.70318
-1.70491
-1.70661
-1.70827
-1.7099
-1.71151
-1.71308
-1.71462
-1.71614
-1.71762
-1.71908
-1.72051
-1.72192
-1.72329
-1.72465
-1.72597
-1.72727
-1.35403
-1.35422
-1.35487
-1.35587
-1.35719
-1.35881
-1.36073
-1.36293
-1.36538
-1.36808
-1.37099
-1.37412
-1.37744
-1.38094
-1.3846
-1.38842
-1.39237
-1.39645
-1.40065
-1.40495
-1.40934
-1.41382
-1.41837
-1.42298
-1.42765
-1.43237
-1.43713
-1.44192
-1.44674
-1.45157
-1.45642
-1.46127
-1.46613
-1.47098
-1.47583
-1.48066
-1.48548
-1.49027
-1.49504
-1.49979
-1.5045
-1.50918
-1.51383
-1.51844
-1.523
-1.52753
-1.53201
-1.53644
-1.54083
-1.54517
-1.54946
-1.55369
-1.55788
-1.56201
-1.56609
-1.57012
-1.57409
-1.57801
-1.58188
-1.58568
-1.58944
-1.59313
-1.59677
-1.60036
-1.60389
-1.60737
-1.61079
-1.61416
-1.61747
-1.62073
-1.62394
-1.62709
-1.63019
-1.63324
-1.63624
-1.63919
-1.64208
-1.64493
-1.64773
-1.65047
-1.65317
-1.65583
-1.65843
-1.66099
-1.6635
-1.66597
-1.6684
-1.67078
-1.67312
-1.67541
-1.67766
-1.67988
-1.68205
-1.68418
-1.68627
-1.68833
-1.69035
-1.69233
-1.69427
-1.69618
-1.69805
-1.69988
-1.70169
-1.70346
-1.70519
-1.7069
-1.70857
-1.71021
-1.71182
-1.7134
-1.71495
-1.71647
-1.71796
-1.71943
-1.72087
-1.72228
-1.72366
-1.72502
-1.72635
-1.72765
-1.35336
-1.35354
-1.35417
-1.35517
-1.35647
-1.35809
-1.36001
-1.3622
-1.36465
-1.36734
-1.37026
-1.37338
-1.3767
-1.3802
-1.38387
-1.38768
-1.39164
-1.39573
-1.39993
-1.40423
-1.40863
-1.41311
-1.41767
-1.42229
-1.42697
-1.4317
-1.43646
-1.44126
-1.44609
-1.45094
-1.45579
-1.46066
-1.46553
-1.47039
-1.47525
-1.4801
-1.48493
-1.48974
-1.49452
-1.49928
-1.50401
-1.5087
-1.51336
-1.51798
-1.52257
-1.5271
-1.5316
-1.53605
-1.54045
-1.5448
-1.54911
-1.55336
-1.55756
-1.56171
-1.56581
-1.56985
-1.57384
-1.57777
-1.58165
-1.58547
-1.58924
-1.59295
-1.59661
-1.60021
-1.60375
-1.60725
-1.61068
-1.61406
-1.61739
-1.62066
-1.62388
-1.62705
-1.63017
-1.63323
-1.63624
-1.6392
-1.64211
-1.64497
-1.64778
-1.65054
-1.65325
-1.65591
-1.65853
-1.6611
-1.66363
-1.66611
-1.66855
-1.67094
-1.67329
-1.67559
-1.67786
-1.68008
-1.68226
-1.68441
-1.68651
-1.68858
-1.6906
-1.69259
-1.69455
-1.69646
-1.69834
-1.70019
-1.702
-1.70378
-1.70552
-1.70724
-1.70892
-1.71057
-1.71219
-1.71377
-1.71533
-1.71686
-1.71836
-1.71984
-1.72128
-1.7227
-1.72409
-1.72546
-1.72679
-1.72811
-1.35257
-1.35274
-1.35337
-1.35435
-1.35565
-1.35726
-1.35917
-1.36136
-1.3638
-1.36649
-1.3694
-1.37253
-1.37585
-1.37935
-1.38301
-1.38683
-1.3908
-1.39488
-1.39909
-1.4034
-1.40781
-1.4123
-1.41686
-1.42149
-1.42618
-1.43092
-1.4357
-1.44051
-1.44534
-1.4502
-1.45507
-1.45995
-1.46484
-1.46971
-1.47459
-1.47945
-1.48429
-1.48912
-1.49392
-1.49869
-1.50344
-1.50815
-1.51282
-1.51746
-1.52206
-1.52662
-1.53113
-1.53559
-1.54001
-1.54438
-1.54871
-1.55298
-1.55719
-1.56136
-1.56547
-1.56953
-1.57354
-1.57749
-1.58138
-1.58522
-1.58901
-1.59274
-1.59641
-1.60003
-1.60359
-1.6071
-1.61055
-1.61395
-1.6173
-1.62059
-1.62382
-1.627
-1.63014
-1.63321
-1.63624
-1.63921
-1.64214
-1.64501
-1.64784
-1.65061
-1.65334
-1.65602
-1.65865
-1.66124
-1.66378
-1.66627
-1.66872
-1.67112
-1.67349
-1.67581
-1.67808
-1.68032
-1.68251
-1.68467
-1.68679
-1.68886
-1.6909
-1.6929
-1.69487
-1.69679
-1.69869
-1.70054
-1.70237
-1.70416
-1.70591
-1.70763
-1.70933
-1.71098
-1.71261
-1.71421
-1.71578
-1.71732
-1.71883
-1.72031
-1.72176
-1.72319
-1.72459
-1.72596
-1.72731
-1.72863
-1.35169
-1.35184
-1.35246
-1.35343
-1.35472
-1.35632
-1.35823
-1.36041
-1.36285
-1.36553
-1.36844
-1.37156
-1.37488
-1.37838
-1.38205
-1.38587
-1.38984
-1.39393
-1.39814
-1.40246
-1.40688
-1.41137
-1.41595
-1.42059
-1.42529
-1.43004
-1.43483
-1.43965
-1.4445
-1.44937
-1.45426
-1.45915
-1.46405
-1.46894
-1.47383
-1.47871
-1.48357
-1.48841
-1.49323
-1.49802
-1.50279
-1.50752
-1.51221
-1.51687
-1.52149
-1.52606
-1.53059
-1.53508
-1.53952
-1.54391
-1.54825
-1.55254
-1.55678
-1.56096
-1.5651
-1.56918
-1.5732
-1.57717
-1.58109
-1.58494
-1.58875
-1.5925
-1.59619
-1.59983
-1.60341
-1.60694
-1.61041
-1.61383
-1.61719
-1.6205
-1.62375
-1.62695
-1.6301
-1.6332
-1.63624
-1.63923
-1.64217
-1.64506
-1.6479
-1.6507
-1.65344
-1.65614
-1.65878
-1.66138
-1.66394
-1.66645
-1.66891
-1.67133
-1.67371
-1.67605
-1.67834
-1.68059
-1.6828
-1.68497
-1.6871
-1.68919
-1.69124
-1.69325
-1.69523
-1.69717
-1.69908
-1.70095
-1.70278
-1.70458
-1.70635
-1.70808
-1.70979
-1.71146
-1.7131
-1.7147
-1.71628
-1.71783
-1.71935
-1.72085
-1.72231
-1.72375
-1.72516
-1.72654
-1.7279
-1.72922
-1.3507
-1.35084
-1.35145
-1.3524
-1.35368
-1.35528
-1.35717
-1.35934
-1.36178
-1.36446
-1.36737
-1.37049
-1.3738
-1.37731
-1.38098
-1.3848
-1.38877
-1.39287
-1.39709
-1.40141
-1.40584
-1.41034
-1.41493
-1.41958
-1.42429
-1.42905
-1.43385
-1.43869
-1.44356
-1.44844
-1.45335
-1.45826
-1.46317
-1.46809
-1.47299
-1.47789
-1.48277
-1.48763
-1.49247
-1.49728
-1.50206
-1.50681
-1.51153
-1.51621
-1.52085
-1.52544
-1.53
-1.5345
-1.53896
-1.54338
-1.54774
-1.55205
-1.55631
-1.56052
-1.56468
-1.56878
-1.57282
-1.57682
-1.58075
-1.58463
-1.58846
-1.59223
-1.59594
-1.5996
-1.60321
-1.60675
-1.61025
-1.61368
-1.61707
-1.6204
-1.62367
-1.62689
-1.63006
-1.63318
-1.63624
-1.63925
-1.64221
-1.64512
-1.64798
-1.65079
-1.65355
-1.65627
-1.65893
-1.66155
-1.66412
-1.66665
-1.66913
-1.67157
-1.67396
-1.67631
-1.67862
-1.68089
-1.68311
-1.6853
-1.68744
-1.68955
-1.69162
-1.69364
-1.69564
-1.69759
-1.69951
-1.70139
-1.70324
-1.70506
-1.70684
-1.70859
-1.7103
-1.71198
-1.71364
-1.71526
-1.71685
-1.71841
-1.71994
-1.72145
-1.72292
-1.72437
-1.72579
-1.72718
-1.72855
-1.72989
-1.34962
-1.34974
-1.35033
-1.35127
-1.35254
-1.35412
-1.35601
-1.35817
-1.3606
-1.36328
-1.36618
-1.3693
-1.37262
-1.37612
-1.37979
-1.38362
-1.3876
-1.3917
-1.39593
-1.40026
-1.40469
-1.40921
-1.41381
-1.41847
-1.42319
-1.42797
-1.43278
-1.43764
-1.44252
-1.44742
-1.45234
-1.45727
-1.46221
-1.46714
-1.47207
-1.47698
-1.48188
-1.48677
-1.49163
-1.49646
-1.50127
-1.50604
-1.51078
-1.51548
-1.52014
-1.52476
-1.52934
-1.53387
-1.53836
-1.54279
-1.54718
-1.55152
-1.5558
-1.56003
-1.56421
-1.56834
-1.57241
-1.57642
-1.58039
-1.58429
-1.58814
-1.59193
-1.59567
-1.59935
-1.60298
-1.60655
-1.61007
-1.61353
-1.61693
-1.62029
-1.62358
-1.62683
-1.63002
-1.63315
-1.63624
-1.63927
-1.64225
-1.64518
-1.64806
-1.6509
-1.65368
-1.65641
-1.6591
-1.66174
-1.66433
-1.66687
-1.66937
-1.67183
-1.67424
-1.67661
-1.67894
-1.68122
-1.68346
-1.68566
-1.68783
-1.68995
-1.69203
-1.69408
-1.69608
-1.69805
-1.69999
-1.70189
-1.70375
-1.70558
-1.70738
-1.70914
-1.71087
-1.71256
-1.71423
-1.71587
-1.71747
-1.71904
-1.72059
-1.72211
-1.72359
-1.72505
-1.72649
-1.72789
-1.72927
-1.73062
-1.34844
-1.34854
-1.34911
-1.35004
-1.35129
-1.35287
-1.35474
-1.3569
-1.35932
-1.36199
-1.36489
-1.36801
-1.37133
-1.37483
-1.37851
-1.38234
-1.38632
-1.39043
-1.39466
-1.399
-1.40344
-1.40797
-1.41258
-1.41726
-1.422
-1.42678
-1.43162
-1.43649
-1.44139
-1.44631
-1.45125
-1.4562
-1.46115
-1.46611
-1.47105
-1.47599
-1.48092
-1.48582
-1.49071
-1.49557
-1.5004
-1.50519
-1.50996
-1.51468
-1.51937
-1.52402
-1.52862
-1.53318
-1.53769
-1.54215
-1.54657
-1.55093
-1.55524
-1.5595
-1.56371
-1.56786
-1.57196
-1.576
-1.57998
-1.58392
-1.58779
-1.59161
-1.59538
-1.59908
-1.60274
-1.60633
-1.60987
-1.61336
-1.61679
-1.62017
-1.62349
-1.62676
-1.62997
-1.63313
-1.63624
-1.63929
-1.6423
-1.64525
-1.64816
-1.65101
-1.65381
-1.65657
-1.65928
-1.66194
-1.66455
-1.66712
-1.66964
-1.67211
-1.67454
-1.67693
-1.67928
-1.68158
-1.68384
-1.68606
-1.68824
-1.69038
-1.69248
-1.69455
-1.69657
-1.69856
-1.70051
-1.70243
-1.70431
-1.70615
-1.70796
-1.70974
-1.71149
-1.7132
-1.71488
-1.71653
-1.71815
-1.71974
-1.7213
-1.72283
-1.72433
-1.7258
-1.72725
-1.72867
-1.73006
-1.73142
-1.34716
-1.34724
-1.3478
-1.34871
-1.34995
-1.35151
-1.35337
-1.35552
-1.35794
-1.3606
-1.3635
-1.36661
-1.36993
-1.37343
-1.37711
-1.38095
-1.38493
-1.38905
-1.39329
-1.39764
-1.40209
-1.40663
-1.41126
-1.41595
-1.4207
-1.42551
-1.43036
-1.43525
-1.44016
-1.44511
-1.45007
-1.45504
-1.46001
-1.46499
-1.46996
-1.47492
-1.47987
-1.4848
-1.48971
-1.4946
-1.49945
-1.50428
-1.50907
-1.51382
-1.51854
-1.52321
-1.52785
-1.53243
-1.53697
-1.54146
-1.5459
-1.5503
-1.55464
-1.55892
-1.56316
-1.56734
-1.57146
-1.57554
-1.57955
-1.58351
-1.58742
-1.59126
-1.59505
-1.59879
-1.60247
-1.60609
-1.60966
-1.61318
-1.61663
-1.62004
-1.62338
-1.62668
-1.62992
-1.6331
-1.63624
-1.63932
-1.64235
-1.64533
-1.64826
-1.65113
-1.65396
-1.65674
-1.65947
-1.66215
-1.66479
-1.66738
-1.66992
-1.67242
-1.67487
-1.67728
-1.67965
-1.68197
-1.68425
-1.6865
-1.6887
-1.69086
-1.69298
-1.69506
-1.6971
-1.69911
-1.70108
-1.70301
-1.70491
-1.70677
-1.7086
-1.7104
-1.71216
-1.71389
-1.71558
-1.71725
-1.71888
-1.72049
-1.72206
-1.72361
-1.72513
-1.72661
-1.72807
-1.72951
-1.73091
-1.73228
-1.34579
-1.34585
-1.34638
-1.34728
-1.3485
-1.35005
-1.3519
-1.35404
-1.35645
-1.35911
-1.362
-1.36511
-1.36843
-1.37193
-1.37561
-1.37946
-1.38345
-1.38757
-1.39182
-1.39618
-1.40064
-1.4052
-1.40983
-1.41454
-1.41931
-1.42413
-1.429
-1.43391
-1.43885
-1.44381
-1.44879
-1.45379
-1.45879
-1.46379
-1.46879
-1.47377
-1.47875
-1.48371
-1.48865
-1.49356
-1.49844
-1.5033
-1.50812
-1.5129
-1.51765
-1.52235
-1.52701
-1.53163
-1.5362
-1.54072
-1.54519
-1.54961
-1.55399
-1.5583
-1.56257
-1.56678
-1.57094
-1.57504
-1.57908
-1.58308
-1.58701
-1.59089
-1.59471
-1.59848
-1.60219
-1.60584
-1.60944
-1.61298
-1.61646
-1.6199
-1.62327
-1.62659
-1.62986
-1.63308
-1.63624
-1.63935
-1.6424
-1.64541
-1.64836
-1.65127
-1.65412
-1.65692
-1.65968
-1.66239
-1.66505
-1.66766
-1.67023
-1.67275
-1.67523
-1.67766
-1.68005
-1.68239
-1.6847
-1.68696
-1.68918
-1.69136
-1.69351
-1.69561
-1.69767
-1.6997
-1.70169
-1.70364
-1.70556
-1.70744
-1.70929
-1.7111
-1.71288
-1.71463
-1.71634
-1.71802
-1.71968
-1.7213
-1.72289
-1.72445
-1.72598
-1.72749
-1.72896
-1.73041
-1.73183
-1.73321
-1.34432
-1.34436
-1.34488
-1.34575
-1.34696
-1.34849
-1.35033
-1.35246
-1.35486
-1.35751
-1.3604
-1.36351
-1.36683
-1.37033
-1.37402
-1.37786
-1.38186
-1.38599
-1.39025
-1.39462
-1.3991
-1.40366
-1.40831
-1.41303
-1.41782
-1.42266
-1.42755
-1.43248
-1.43744
-1.44243
-1.44743
-1.45245
-1.45748
-1.46251
-1.46753
-1.47255
-1.47755
-1.48254
-1.4875
-1.49245
-1.49736
-1.50225
-1.5071
-1.51191
-1.51669
-1.52142
-1.52612
-1.53077
-1.53537
-1.53992
-1.54443
-1.54889
-1.55329
-1.55764
-1.56194
-1.56618
-1.57037
-1.57451
-1.57859
-1.58261
-1.58658
-1.59049
-1.59434
-1.59814
-1.60188
-1.60556
-1.60919
-1.61277
-1.61628
-1.61975
-1.62315
-1.62651
-1.6298
-1.63305
-1.63624
-1.63938
-1.64246
-1.64549
-1.64848
-1.65141
-1.65429
-1.65712
-1.6599
-1.66264
-1.66532
-1.66796
-1.67056
-1.6731
-1.6756
-1.67806
-1.68048
-1.68285
-1.68517
-1.68746
-1.6897
-1.69191
-1.69407
-1.6962
-1.69828
-1.70033
-1.70234
-1.70431
-1.70625
-1.70815
-1.71002
-1.71185
-1.71365
-1.71542
-1.71715
-1.71885
-1.72052
-1.72216
-1.72377
-1.72535
-1.7269
-1.72842
-1.72991
-1.73138
-1.73281
-1.73421
-1.34277
-1.34278
-1.34327
-1.34413
-1.34532
-1.34684
-1.34867
-1.35078
-1.35317
-1.35582
-1.3587
-1.36181
-1.36512
-1.36863
-1.37232
-1.37617
-1.38017
-1.38431
-1.38858
-1.39296
-1.39745
-1.40203
-1.4067
-1.41144
-1.41624
-1.4211
-1.42601
-1.43096
-1.43595
-1.44096
-1.44599
-1.45103
-1.45609
-1.46114
-1.46619
-1.47124
-1.47627
-1.48129
-1.48629
-1.49126
-1.49621
-1.50113
-1.50601
-1.51086
-1.51567
-1.52044
-1.52517
-1.52985
-1.53449
-1.53908
-1.54362
-1.54811
-1.55255
-1.55694
-1.56127
-1.56555
-1.56977
-1.57394
-1.57806
-1.58211
-1.58611
-1.59006
-1.59395
-1.59778
-1.60155
-1.60527
-1.60894
-1.61254
-1.61609
-1.61959
-1.62303
-1.62641
-1.62974
-1.63302
-1.63624
-1.63941
-1.64252
-1.64559
-1.6486
-1.65156
-1.65447
-1.65733
-1.66014
-1.6629
-1.66562
-1.66828
-1.6709
-1.67348
-1.67601
-1.67849
-1.68093
-1.68333
-1.68568
-1.68799
-1.69026
-1.69249
-1.69467
-1.69682
-1.69893
-1.701
-1.70303
-1.70503
-1.70699
-1.70891
-1.7108
-1.71266
-1.71448
-1.71626
-1.71801
-1.71974
-1.72142
-1.72308
-1.72471
-1.72631
-1.72787
-1.72941
-1.73092
-1.73241
-1.73386
-1.73527
-1.34112
-1.34111
-1.34158
-1.34242
-1.34359
-1.34509
-1.3469
-1.34901
-1.35139
-1.35403
-1.35691
-1.36001
-1.36332
-1.36683
-1.37052
-1.37437
-1.37838
-1.38253
-1.38681
-1.39121
-1.39571
-1.4003
-1.40499
-1.40974
-1.41457
-1.41945
-1.42438
-1.42936
-1.43437
-1.4394
-1.44446
-1.44953
-1.45461
-1.4597
-1.46478
-1.46986
-1.47492
-1.47997
-1.485
-1.49001
-1.49499
-1.49994
-1.50486
-1.50975
-1.51459
-1.5194
-1.52416
-1.52888
-1.53356
-1.53818
-1.54276
-1.54729
-1.55176
-1.55619
-1.56056
-1.56487
-1.56914
-1.57334
-1.57749
-1.58159
-1.58563
-1.58961
-1.59353
-1.5974
-1.60121
-1.60496
-1.60866
-1.6123
-1.61589
-1.61942
-1.62289
-1.62631
-1.62967
-1.63298
-1.63624
-1.63944
-1.64259
-1.64568
-1.64873
-1.65172
-1.65466
-1.65755
-1.66039
-1.66319
-1.66593
-1.66863
-1.67127
-1.67388
-1.67643
-1.67894
-1.68141
-1.68383
-1.68621
-1.68855
-1.69085
-1.6931
-1.69531
-1.69749
-1.69962
-1.70171
-1.70377
-1.70579
-1.70777
-1.70972
-1.71163
-1.71351
-1.71535
-1.71716
-1.71893
-1.72067
-1.72238
-1.72406
-1.72571
-1.72732
-1.72891
-1.73047
-1.732
-1.7335
-1.73497
-1.73639
-1.33939
-1.33935
-1.3398
-1.34061
-1.34176
-1.34325
-1.34505
-1.34714
-1.34951
-1.35214
-1.35501
-1.35811
-1.36142
-1.36493
-1.36863
-1.37249
-1.3765
-1.38066
-1.38495
-1.38936
-1.39387
-1.39848
-1.40318
-1.40796
-1.41281
-1.41771
-1.42267
-1.42766
-1.4327
-1.43776
-1.44285
-1.44795
-1.45306
-1.45817
-1.46329
-1.4684
-1.4735
-1.47858
-1.48365
-1.48869
-1.49371
-1.49869
-1.50365
-1.50857
-1.51346
-1.5183
-1.5231
-1.52786
-1.53257
-1.53724
-1.54185
-1.54642
-1.55094
-1.5554
-1.55981
-1.56416
-1.56846
-1.57271
-1.5769
-1.58103
-1.58511
-1.58913
-1.59309
-1.597
-1.60085
-1.60464
-1.60837
-1.61205
-1.61567
-1.61924
-1.62275
-1.6262
-1.6296
-1.63295
-1.63624
-1.63947
-1.64266
-1.64579
-1.64886
-1.65189
-1.65486
-1.65779
-1.66066
-1.66348
-1.66626
-1.66899
-1.67166
-1.6743
-1.67688
-1.67942
-1.68192
-1.68437
-1.68678
-1.68914
-1.69147
-1.69375
-1.69599
-1.69819
-1.70035
-1.70247
-1.70455
-1.70659
-1.7086
-1.71057
-1.71251
-1.7144
-1.71627
-1.7181
-1.7199
-1.72166
-1.72339
-1.72509
-1.72676
-1.7284
-1.73
-1.73158
-1.73313
-1.73465
-1.73614
-1.73758
-1.33757
-1.3375
-1.33792
-1.33872
-1.33985
-1.34131
-1.3431
-1.34518
-1.34754
-1.35016
-1.35302
-1.35612
-1.35943
-1.36294
-1.36664
-1.3705
-1.37452
-1.37869
-1.38299
-1.38741
-1.39194
-1.39657
-1.40129
-1.40609
-1.41095
-1.41588
-1.42086
-1.42588
-1.43094
-1.43604
-1.44115
-1.44628
-1.45143
-1.45657
-1.46172
-1.46686
-1.472
-1.47712
-1.48222
-1.4873
-1.49235
-1.49738
-1.50238
-1.50734
-1.51226
-1.51714
-1.52199
-1.52678
-1.53154
-1.53624
-1.5409
-1.54551
-1.55006
-1.55457
-1.55902
-1.56342
-1.56776
-1.57204
-1.57627
-1.58045
-1.58457
-1.58863
-1.59263
-1.59657
-1.60046
-1.6043
-1.60807
-1.61179
-1.61545
-1.61905
-1.6226
-1.62609
-1.62953
-1.63291
-1.63624
-1.63951
-1.64273
-1.64589
-1.64901
-1.65207
-1.65507
-1.65803
-1.66094
-1.6638
-1.66661
-1.66936
-1.67208
-1.67474
-1.67736
-1.67993
-1.68246
-1.68494
-1.68738
-1.68977
-1.69212
-1.69443
-1.6967
-1.69893
-1.70111
-1.70326
-1.70537
-1.70744
-1.70947
-1.71147
-1.71343
-1.71535
-1.71724
-1.71909
-1.72091
-1.7227
-1.72445
-1.72618
-1.72787
-1.72953
-1.73115
-1.73275
-1.73432
-1.73586
-1.73737
-1.73883
-1.33567
-1.33557
-1.33596
-1.33673
-1.33784
-1.33929
-1.34105
-1.34312
-1.34547
-1.34808
-1.35094
-1.35404
-1.35734
-1.36086
-1.36455
-1.36842
-1.37245
-1.37663
-1.38094
-1.38538
-1.38992
-1.39457
-1.39931
-1.40412
-1.40901
-1.41396
-1.41897
-1.42402
-1.42911
-1.43423
-1.43937
-1.44454
-1.44971
-1.45489
-1.46008
-1.46526
-1.47043
-1.47558
-1.48072
-1.48584
-1.49094
-1.496
-1.50104
-1.50604
-1.511
-1.51593
-1.52081
-1.52566
-1.53045
-1.5352
-1.5399
-1.54455
-1.54915
-1.5537
-1.55819
-1.56263
-1.56702
-1.57135
-1.57562
-1.57984
-1.584
-1.5881
-1.59214
-1.59613
-1.60006
-1.60394
-1.60775
-1.61151
-1.61521
-1.61886
-1.62244
-1.62597
-1.62945
-1.63287
-1.63624
-1.63955
-1.6428
-1.64601
-1.64916
-1.65225
-1.6553
-1.65829
-1.66123
-1.66413
-1.66697
-1.66976
-1.67251
-1.67521
-1.67786
-1.68046
-1.68302
-1.68553
-1.688
-1.69043
-1.69281
-1.69515
-1.69744
-1.6997
-1.70192
-1.70409
-1.70623
-1.70833
-1.71039
-1.71241
-1.71439
-1.71634
-1.71826
-1.72014
-1.72198
-1.72379
-1.72557
-1.72732
-1.72903
-1.73071
-1.73236
-1.73398
-1.73558
-1.73714
-1.73867
-1.74014
-1.33368
-1.33355
-1.33392
-1.33466
-1.33575
-1.33717
-1.33892
-1.34097
-1.34331
-1.34591
-1.34877
-1.35186
-1.35517
-1.35868
-1.36238
-1.36625
-1.37029
-1.37448
-1.3788
-1.38325
-1.38781
-1.39248
-1.39723
-1.40207
-1.40698
-1.41196
-1.41699
-1.42207
-1.42719
-1.43234
-1.43752
-1.44271
-1.44792
-1.45314
-1.45836
-1.46357
-1.46878
-1.47398
-1.47916
-1.48432
-1.48945
-1.49456
-1.49964
-1.50468
-1.50969
-1.51466
-1.51959
-1.52448
-1.52932
-1.53411
-1.53885
-1.54355
-1.54819
-1.55279
-1.55732
-1.56181
-1.56624
-1.57061
-1.57493
-1.57919
-1.5834
-1.58755
-1.59163
-1.59567
-1.59964
-1.60356
-1.60742
-1.61122
-1.61496
-1.61865
-1.62228
-1.62585
-1.62937
-1.63283
-1.63624
-1.63959
-1.64288
-1.64612
-1.64931
-1.65245
-1.65553
-1.65856
-1.66154
-1.66447
-1.66735
-1.67018
-1.67296
-1.67569
-1.67838
-1.68102
-1.68361
-1.68615
-1.68866
-1.69111
-1.69353
-1.6959
-1.69822
-1.70051
-1.70276
-1.70496
-1.70713
-1.70925
-1.71134
-1.71339
-1.71541
-1.71738
-1.71932
-1.72123
-1.7231
-1.72494
-1.72674
-1.72851
-1.73025
-1.73195
-1.73363
-1.73527
-1.73689
-1.73847
-1.74002
-1.74151
-1.33161
-1.33145
-1.33179
-1.3325
-1.33356
-1.33497
-1.3367
-1.33874
-1.34106
-1.34366
-1.3465
-1.34959
-1.35289
-1.35641
-1.36011
-1.36399
-1.36804
-1.37223
-1.37657
-1.38103
-1.38561
-1.39029
-1.39507
-1.39993
-1.40487
-1.40987
-1.41493
-1.42003
-1.42518
-1.43037
-1.43558
-1.44081
-1.44605
-1.45131
-1.45657
-1.46182
-1.46707
-1.47231
-1.47753
-1.48273
-1.48791
-1.49306
-1.49818
-1.50327
-1.50832
-1.51334
-1.51831
-1.52324
-1.52813
-1.53297
-1.53776
-1.5425
-1.54719
-1.55183
-1.55642
-1.56095
-1.56543
-1.56985
-1.57422
-1.57852
-1.58277
-1.58697
-1.5911
-1.59518
-1.5992
-1.60316
-1.60707
-1.61091
-1.6147
-1.61843
-1.62211
-1.62572
-1.62928
-1.63279
-1.63623
-1.63963
-1.64296
-1.64625
-1.64948
-1.65265
-1.65577
-1.65884
-1.66186
-1.66483
-1.66775
-1.67061
-1.67343
-1.6762
-1.67892
-1.6816
-1.68422
-1.6868
-1.68934
-1.69183
-1.69428
-1.69668
-1.69904
-1.70136
-1.70364
-1.70587
-1.70807
-1.71023
-1.71234
-1.71442
-1.71646
-1.71847
-1.72044
-1.72237
-1.72427
-1.72613
-1.72796
-1.72976
-1.73152
-1.73325
-1.73495
-1.73662
-1.73826
-1.73987
-1.74144
-1.74295
-1.32947
-1.32926
-1.32957
-1.33026
-1.3313
-1.33268
-1.3344
-1.33642
-1.33873
-1.34131
-1.34415
-1.34723
-1.35053
-1.35405
-1.35775
-1.36164
-1.36569
-1.3699
-1.37425
-1.37873
-1.38332
-1.38802
-1.39282
-1.39771
-1.40267
-1.40769
-1.41278
-1.41792
-1.4231
-1.42832
-1.43356
-1.43883
-1.44411
-1.4494
-1.4547
-1.45999
-1.46528
-1.47056
-1.47583
-1.48107
-1.4863
-1.49149
-1.49666
-1.5018
-1.5069
-1.51196
-1.51698
-1.52196
-1.52689
-1.53178
-1.53662
-1.54141
-1.54615
-1.55084
-1.55548
-1.56006
-1.56458
-1.56905
-1.57347
-1.57782
-1.58212
-1.58637
-1.59055
-1.59468
-1.59874
-1.60275
-1.6067
-1.6106
-1.61443
-1.61821
-1.62193
-1.62559
-1.62919
-1.63274
-1.63623
-1.63967
-1.64305
-1.64638
-1.64965
-1.65286
-1.65603
-1.65914
-1.6622
-1.66521
-1.66816
-1.67107
-1.67392
-1.67673
-1.67949
-1.6822
-1.68486
-1.68748
-1.69005
-1.69258
-1.69506
-1.6975
-1.69989
-1.70224
-1.70455
-1.70682
-1.70905
-1.71124
-1.71339
-1.7155
-1.71757
-1.7196
-1.7216
-1.72356
-1.72549
-1.72738
-1.72924
-1.73106
-1.73285
-1.73461
-1.73633
-1.73803
-1.73969
-1.74132
-1.74292
-1.74445
-1.32724
-1.327
-1.32728
-1.32794
-1.32895
-1.33031
-1.332
-1.33401
-1.3363
-1.33888
-1.34171
-1.34478
-1.34808
-1.3516
-1.35531
-1.3592
-1.36326
-1.36748
-1.37184
-1.37633
-1.38095
-1.38567
-1.39049
-1.39539
-1.40038
-1.40544
-1.41055
-1.41572
-1.42094
-1.42619
-1.43147
-1.43677
-1.44209
-1.44742
-1.45276
-1.4581
-1.46343
-1.46875
-1.47406
-1.47935
-1.48462
-1.48987
-1.49508
-1.50026
-1.50541
-1.51052
-1.51559
-1.52062
-1.52561
-1.53055
-1.53544
-1.54028
-1.54507
-1.54981
-1.5545
-1.55913
-1.5637
-1.56823
-1.57269
-1.5771
-1.58145
-1.58574
-1.58997
-1.59415
-1.59827
-1.60232
-1.60632
-1.61027
-1.61415
-1.61797
-1.62174
-1.62545
-1.6291
-1.63269
-1.63623
-1.63971
-1.64314
-1.64651
-1.64982
-1.65308
-1.65629
-1.65945
-1.66255
-1.6656
-1.66859
-1.67154
-1.67444
-1.67728
-1.68008
-1.68283
-1.68553
-1.68818
-1.69079
-1.69336
-1.69587
-1.69835
-1.70078
-1.70316
-1.70551
-1.70781
-1.71007
-1.71229
-1.71447
-1.71661
-1.71872
-1.72078
-1.72281
-1.7248
-1.72676
-1.72868
-1.73056
-1.73241
-1.73423
-1.73602
-1.73777
-1.73949
-1.74118
-1.74284
-1.74445
-1.74601
-1.32493
-1.32466
-1.3249
-1.32553
-1.32651
-1.32785
-1.32952
-1.33151
-1.33379
-1.33636
-1.33918
-1.34225
-1.34555
-1.34906
-1.35277
-1.35667
-1.36074
-1.36497
-1.36935
-1.37385
-1.37848
-1.38323
-1.38807
-1.393
-1.39801
-1.4031
-1.40824
-1.41344
-1.41869
-1.42398
-1.42929
-1.43464
-1.44
-1.44537
-1.45075
-1.45613
-1.46151
-1.46687
-1.47223
-1.47757
-1.48288
-1.48818
-1.49344
-1.49867
-1.50387
-1.50903
-1.51416
-1.51924
-1.52427
-1.52927
-1.53421
-1.5391
-1.54395
-1.54874
-1.55348
-1.55816
-1.56279
-1.56737
-1.57188
-1.57634
-1.58074
-1.58509
-1.58937
-1.5936
-1.59777
-1.60188
-1.60593
-1.60992
-1.61385
-1.61773
-1.62154
-1.6253
-1.629
-1.63264
-1.63623
-1.63976
-1.64323
-1.64665
-1.65001
-1.65331
-1.65656
-1.65976
-1.66291
-1.666
-1.66904
-1.67203
-1.67497
-1.67785
-1.68069
-1.68348
-1.68622
-1.68892
-1.69156
-1.69416
-1.69672
-1.69923
-1.70169
-1.70412
-1.7065
-1.70883
-1.71113
-1.71338
-1.7156
-1.71777
-1.71991
-1.72201
-1.72407
-1.72609
-1.72807
-1.73002
-1.73194
-1.73382
-1.73567
-1.73748
-1.73926
-1.74101
-1.74272
-1.74441
-1.74605
-1.74763
-1.32255
-1.32223
-1.32244
-1.32304
-1.324
-1.32531
-1.32696
-1.32893
-1.3312
-1.33375
-1.33656
-1.33963
-1.34292
-1.34644
-1.35015
-1.35406
-1.35814
-1.36238
-1.36676
-1.37129
-1.37594
-1.3807
-1.38556
-1.39052
-1.39556
-1.40067
-1.40585
-1.41109
-1.41637
-1.42169
-1.42704
-1.43243
-1.43783
-1.44324
-1.44866
-1.45409
-1.45951
-1.46493
-1.47033
-1.47572
-1.48108
-1.48643
-1.49174
-1.49703
-1.50228
-1.50749
-1.51267
-1.5178
-1.52289
-1.52794
-1.53293
-1.53788
-1.54278
-1.54763
-1.55242
-1.55716
-1.56184
-1.56647
-1.57104
-1.57556
-1.58001
-1.58441
-1.58875
-1.59303
-1.59725
-1.60142
-1.60552
-1.60956
-1.61355
-1.61747
-1.62134
-1.62515
-1.6289
-1.63259
-1.63623
-1.6398
-1.64332
-1.64679
-1.6502
-1.65355
-1.65685
-1.66009
-1.66328
-1.66642
-1.6695
-1.67254
-1.67552
-1.67845
-1.68133
-1.68416
-1.68694
-1.68967
-1.69236
-1.695
-1.6976
-1.70014
-1.70265
-1.70511
-1.70752
-1.7099
-1.71223
-1.71452
-1.71677
-1.71898
-1.72115
-1.72328
-1.72537
-1.72742
-1.72944
-1.73142
-1.73337
-1.73528
-1.73715
-1.739
-1.74081
-1.74258
-1.74433
-1.74604
-1.74771
-1.74931
-1.32009
-1.31973
-1.31991
-1.32048
-1.3214
-1.32269
-1.32432
-1.32627
-1.32852
-1.33106
-1.33387
-1.33692
-1.34022
-1.34373
-1.34745
-1.35136
-1.35544
-1.3597
-1.3641
-1.36864
-1.37331
-1.37809
-1.38298
-1.38796
-1.39303
-1.39817
-1.40338
-1.40865
-1.41397
-1.41933
-1.42472
-1.43014
-1.43559
-1.44104
-1.44651
-1.45198
-1.45745
-1.46291
-1.46837
-1.4738
-1.47922
-1.48462
-1.48998
-1.49532
-1.50063
-1.50589
-1.51112
-1.51631
-1.52146
-1.52656
-1.53161
-1.53662
-1.54157
-1.54648
-1.55133
-1.55612
-1.56086
-1.56555
-1.57018
-1.57475
-1.57926
-1.58371
-1.58811
-1.59244
-1.59672
-1.60094
-1.6051
-1.60919
-1.61323
-1.61721
-1.62113
-1.62499
-1.62879
-1.63254
-1.63622
-1.63985
-1.64342
-1.64694
-1.65039
-1.65379
-1.65714
-1.66043
-1.66367
-1.66685
-1.66998
-1.67306
-1.67609
-1.67906
-1.68198
-1.68486
-1.68768
-1.69046
-1.69319
-1.69587
-1.6985
-1.70109
-1.70363
-1.70613
-1.70859
-1.711
-1.71337
-1.71569
-1.71798
-1.72022
-1.72243
-1.72459
-1.72672
-1.72881
-1.73086
-1.73287
-1.73485
-1.73679
-1.7387
-1.74057
-1.74241
-1.74421
-1.74599
-1.74773
-1.74943
-1.75105
-1.31755
-1.31716
-1.3173
-1.31783
-1.31873
-1.31999
-1.3216
-1.32353
-1.32576
-1.32829
-1.33108
-1.33413
-1.33742
-1.34094
-1.34466
-1.34857
-1.35267
-1.35693
-1.36135
-1.3659
-1.37059
-1.3754
-1.38031
-1.38532
-1.39042
-1.39559
-1.40083
-1.40613
-1.41149
-1.41689
-1.42232
-1.42778
-1.43327
-1.43877
-1.44429
-1.44981
-1.45532
-1.46084
-1.46634
-1.47183
-1.4773
-1.48275
-1.48817
-1.49356
-1.49892
-1.50424
-1.50953
-1.51478
-1.51998
-1.52514
-1.53025
-1.53531
-1.54033
-1.54529
-1.5502