/*--------------------------------*- C++ -*----------------------------------*\
  =========                 |
  \\      /  F ield         | OpenFOAM: The Open Source CFD Toolbox
   \\    /   O peration     | Website:  https://openfoam.org
    \\  /    A nd           | Version:  8
     \\/     M anipulation  |
\*---------------------------------------------------------------------------*/
FoamFile
{
    version     2.0;
    format      ascii;
    class       volScalarField;
    location    "1";
    object      p;
}
// * * * * * * * * * * * * * * * * * * * * * * * * * * * * * * * * * * * * * //

dimensions      [0 2 -2 0 0 0 0];

internalField   nonuniform List<scalar> 
248760
(
0.46052
0.459725
0.457748
0.454851
0.451144
0.446642
0.441375
0.43539
0.428729
0.421429
0.413525
0.405057
0.396064
0.386582
0.376645
0.366286
0.355533
0.344419
0.332969
0.321214
0.309181
0.296898
0.284389
0.271677
0.258787
0.245728
0.232561
0.219274
0.205932
0.192521
0.179101
0.165658
0.152242
0.138831
0.125471
0.112134
0.0988632
0.0856247
0.0724645
0.0593413
0.0463039
0.0333019
0.0203898
0.00750927
-0.00527424
-0.0180219
-0.0306552
-0.0432366
-0.0556762
-0.0680384
-0.0802286
-0.0923163
-0.104208
-0.115978
-0.127538
-0.13897
-0.150187
-0.161273
-0.172145
-0.18289
-0.193423
-0.203833
-0.214033
-0.224117
-0.233993
-0.243755
-0.253308
-0.262748
-0.271975
-0.281083
-0.289971
-0.298736
-0.307273
-0.315682
-0.32386
-0.331909
-0.339728
-0.347419
-0.354881
-0.362219
-0.369329
-0.376315
-0.383072
-0.389703
-0.396103
-0.402372
-0.408407
-0.414308
-0.419972
-0.425499
-0.430788
-0.435937
-0.440847
-0.445613
-0.45014
-0.454519
-0.458658
-0.462647
-0.466396
-0.469995
-0.473356
-0.476568
-0.479547
-0.482379
-0.484983
-0.487443
-0.489676
-0.491767
-0.493631
-0.495351
-0.496842
-0.498186
-0.499298
-0.500262
-0.500992
-0.50157
-0.501917
-0.502098
-0.501989
-0.501953
0.460854
0.460079
0.458117
0.455225
0.451524
0.447028
0.441766
0.435787
0.429132
0.421836
0.413936
0.405473
0.396483
0.387004
0.377071
0.366714
0.355965
0.344852
0.333405
0.321652
0.309621
0.297339
0.284833
0.272122
0.259231
0.24618
0.233002
0.219725
0.206372
0.192969
0.179538
0.166102
0.152676
0.139273
0.125903
0.112575
0.0992927
0.0860635
0.0728908
0.0597777
0.0467244
0.033733
0.0208018
0.00793296
-0.00487422
-0.0176098
-0.0302694
-0.0428366
-0.0553046
-0.0676504
-0.079868
-0.0919354
-0.103853
-0.115601
-0.127187
-0.138593
-0.149836
-0.160897
-0.171797
-0.182516
-0.193079
-0.203464
-0.213697
-0.223754
-0.233666
-0.243402
-0.252992
-0.262404
-0.27167
-0.280749
-0.289676
-0.298407
-0.306984
-0.315358
-0.323574
-0.331586
-0.339443
-0.347096
-0.354597
-0.361896
-0.369046
-0.375992
-0.382789
-0.389378
-0.395818
-0.402046
-0.408123
-0.413985
-0.419697
-0.425191
-0.430531
-0.435652
-0.440616
-0.445357
-0.449936
-0.454287
-0.458474
-0.462431
-0.466223
-0.469786
-0.473188
-0.476366
-0.479387
-0.48219
-0.484843
-0.487282
-0.489574
-0.491654
-0.493589
-0.49531
-0.496884
-0.498243
-0.499457
-0.500456
-0.501311
-0.501953
-0.502453
-0.502734
-0.5028
-0.502897
0.461479
0.460707
0.458752
0.455868
0.452174
0.447686
0.442433
0.436461
0.429812
0.422522
0.414628
0.406169
0.397184
0.387709
0.377778
0.367424
0.356677
0.345566
0.33412
0.322368
0.310337
0.298056
0.285549
0.272839
0.259947
0.246894
0.233716
0.220431
0.207077
0.193664
0.180232
0.166786
0.153359
0.139947
0.126577
0.11324
0.0999562
0.0867178
0.073541
0.0604169
0.0473579
0.0343536
0.0214142
0.00853039
-0.0042863
-0.017038
-0.0297081
-0.042291
-0.0547673
-0.0671255
-0.0793486
-0.0914248
-0.103345
-0.115098
-0.126684
-0.138096
-0.149341
-0.160408
-0.171312
-0.182041
-0.192611
-0.203007
-0.213251
-0.223322
-0.233245
-0.242995
-0.252598
-0.262024
-0.271301
-0.280392
-0.289329
-0.29807
-0.306654
-0.315035
-0.323257
-0.331276
-0.339139
-0.346799
-0.354308
-0.361615
-0.368773
-0.375727
-0.382533
-0.389131
-0.395581
-0.401819
-0.40791
-0.413788
-0.419518
-0.425034
-0.430401
-0.43555
-0.440544
-0.445312
-0.449918
-0.454293
-0.458501
-0.462474
-0.466279
-0.469854
-0.473265
-0.476452
-0.479485
-0.482301
-0.48497
-0.487426
-0.48974
-0.491842
-0.4938
-0.495543
-0.497138
-0.498518
-0.499752
-0.500775
-0.501659
-0.502341
-0.502894
-0.503246
-0.503408
-0.503615
0.462402
0.461645
0.459705
0.456836
0.453156
0.448682
0.443441
0.437481
0.430842
0.423562
0.415677
0.407225
0.398247
0.388778
0.378853
0.368504
0.357761
0.346653
0.33521
0.32346
0.311431
0.299151
0.286645
0.273936
0.261044
0.247995
0.234806
0.221523
0.208154
0.194742
0.181294
0.167848
0.154405
0.140995
0.127609
0.114273
0.100973
0.0877335
0.0745373
0.0614109
0.0483289
0.0353214
0.022356
0.00946863
-0.00337677
-0.0161314
-0.0288308
-0.0414142
-0.0539182
-0.0662735
-0.0785207
-0.0905901
-0.102531
-0.114276
-0.125883
-0.137287
-0.148554
-0.159617
-0.170546
-0.181274
-0.191873
-0.202272
-0.212546
-0.222621
-0.232576
-0.242331
-0.251965
-0.261394
-0.2707
-0.279792
-0.288754
-0.297494
-0.306099
-0.314477
-0.322719
-0.330734
-0.338617
-0.346276
-0.353805
-0.361112
-0.368291
-0.375248
-0.382075
-0.388677
-0.395148
-0.401392
-0.407504
-0.413389
-0.419142
-0.424667
-0.430059
-0.435218
-0.440237
-0.445018
-0.449648
-0.454034
-0.458264
-0.462248
-0.466074
-0.469659
-0.473092
-0.476292
-0.479348
-0.482181
-0.484878
-0.487357
-0.489703
-0.491832
-0.493825
-0.495599
-0.497231
-0.498645
-0.499921
-0.500984
-0.501919
-0.502653
-0.503273
-0.503698
-0.503952
-0.504246
0.46362
0.462883
0.460962
0.458111
0.454449
0.449992
0.444766
0.43882
0.432195
0.424927
0.417052
0.40861
0.39964
0.39018
0.380262
0.369918
0.35918
0.348076
0.336635
0.324888
0.312861
0.300582
0.288076
0.275367
0.262476
0.249421
0.236234
0.222936
0.209564
0.196135
0.182681
0.169217
0.155766
0.142338
0.128946
0.115592
0.102286
0.0890261
0.0758219
0.0626715
0.0495811
0.0365459
0.023572
0.0106543
-0.00219771
-0.0149849
-0.0276889
-0.0403054
-0.0528099
-0.0651975
-0.0774418
-0.0895424
-0.101477
-0.113254
-0.124854
-0.136292
-0.147553
-0.158655
-0.16958
-0.180351
-0.190948
-0.201394
-0.211666
-0.221791
-0.231741
-0.241547
-0.251175
-0.260655
-0.269949
-0.279091
-0.288038
-0.296826
-0.305412
-0.313837
-0.322058
-0.330121
-0.337982
-0.345691
-0.353199
-0.360561
-0.367721
-0.374734
-0.381543
-0.388204
-0.394655
-0.400957
-0.407047
-0.412988
-0.418717
-0.424298
-0.429664
-0.43488
-0.439875
-0.444715
-0.449326
-0.453774
-0.457988
-0.462035
-0.465848
-0.469497
-0.472918
-0.476181
-0.479225
-0.482121
-0.484805
-0.487348
-0.489682
-0.491876
-0.493862
-0.495706
-0.497338
-0.498829
-0.500111
-0.501257
-0.502202
-0.50302
-0.50365
-0.504154
-0.50443
-0.504788
0.465127
0.464414
0.462516
0.459688
0.456049
0.451611
0.446405
0.440477
0.433868
0.426614
0.418752
0.410323
0.401364
0.391913
0.382004
0.371668
0.360935
0.349836
0.3384
0.326655
0.31463
0.302352
0.289848
0.277138
0.264245
0.251192
0.237995
0.224694
0.211305
0.197868
0.184393
0.170917
0.157445
0.144006
0.130594
0.117228
0.103901
0.090629
0.0774032
0.0642378
0.0511231
0.0380715
0.025073
0.0121385
-0.000738998
-0.0135433
-0.0262719
-0.038905
-0.051434
-0.0638377
-0.0761043
-0.0882201
-0.100177
-0.111969
-0.123591
-0.135047
-0.146331
-0.157454
-0.168405
-0.179199
-0.189824
-0.200295
-0.210595
-0.220746
-0.230724
-0.240555
-0.250208
-0.259712
-0.26903
-0.278193
-0.28716
-0.295967
-0.304571
-0.313014
-0.321251
-0.329331
-0.33721
-0.344937
-0.352464
-0.359845
-0.367025
-0.37406
-0.380889
-0.387569
-0.39404
-0.40036
-0.406467
-0.412425
-0.41817
-0.423768
-0.42915
-0.434385
-0.439402
-0.444264
-0.4489
-0.453374
-0.457617
-0.461694
-0.465536
-0.469215
-0.472667
-0.475961
-0.479035
-0.481962
-0.484677
-0.487252
-0.489618
-0.491844
-0.493862
-0.495738
-0.497403
-0.498924
-0.500235
-0.501409
-0.50238
-0.503224
-0.50388
-0.504413
-0.504721
-0.50511
0.466916
0.466233
0.464362
0.461561
0.457947
0.453534
0.44835
0.442443
0.435852
0.428616
0.42077
0.412355
0.40341
0.39397
0.384071
0.373744
0.363018
0.351925
0.340494
0.328753
0.31673
0.304454
0.291949
0.279239
0.266346
0.253285
0.24009
0.226772
0.213377
0.199915
0.18643
0.172927
0.159442
0.145974
0.13255
0.119157
0.105818
0.0925172
0.0792789
0.0660819
0.0529545
0.0398694
0.0268586
0.0138884
0.000999927
-0.0118411
-0.0245804
-0.0372524
-0.0497917
-0.0622344
-0.0745115
-0.0866672
-0.0986342
-0.110466
-0.122098
-0.133595
-0.144892
-0.156056
-0.167022
-0.17786
-0.1885
-0.199015
-0.209332
-0.219527
-0.229522
-0.239395
-0.249064
-0.258608
-0.267941
-0.277142
-0.286121
-0.294964
-0.303579
-0.312056
-0.320304
-0.328418
-0.336308
-0.344068
-0.351608
-0.359022
-0.366216
-0.373284
-0.380127
-0.386839
-0.393323
-0.399673
-0.405792
-0.411779
-0.417535
-0.42316
-0.428555
-0.43382
-0.438853
-0.443748
-0.448407
-0.45292
-0.457192
-0.461311
-0.465187
-0.468912
-0.472397
-0.475736
-0.478844
-0.481813
-0.484559
-0.487173
-0.489568
-0.491832
-0.493878
-0.495791
-0.497484
-0.499039
-0.500376
-0.50158
-0.502573
-0.503441
-0.504113
-0.504661
-0.504972
-0.505362
0.468982
0.468332
0.466492
0.463722
0.460138
0.455753
0.450595
0.444712
0.438143
0.430927
0.4231
0.414702
0.405771
0.396345
0.386458
0.376141
0.365424
0.354338
0.342912
0.331175
0.319155
0.30688
0.294376
0.281664
0.268767
0.255708
0.242499
0.229179
0.215762
0.202289
0.188777
0.175256
0.161742
0.148255
0.134801
0.12139
0.108022
0.0947035
0.081434
0.06822
0.0550587
0.0419569
0.0289102
0.0159251
0.0029983
-0.0098566
-0.0226372
-0.0353224
-0.0479062
-0.0603623
-0.0726861
-0.0848541
-0.0968693
-0.108712
-0.120395
-0.131901
-0.14325
-0.154424
-0.165443
-0.17629
-0.186987
-0.19751
-0.207885
-0.218086
-0.22814
-0.238017
-0.247746
-0.257291
-0.266684
-0.275883
-0.284922
-0.29376
-0.302436
-0.310905
-0.319214
-0.327319
-0.335271
-0.343021
-0.350624
-0.358027
-0.365285
-0.372341
-0.379248
-0.385947
-0.392495
-0.398829
-0.40501
-0.410976
-0.416793
-0.422395
-0.427851
-0.433094
-0.438192
-0.443074
-0.447806
-0.452316
-0.456671
-0.460796
-0.464761
-0.468494
-0.472066
-0.475409
-0.478597
-0.481563
-0.484381
-0.486984
-0.489446
-0.491696
-0.493808
-0.495708
-0.497468
-0.499017
-0.500427
-0.501628
-0.502693
-0.503554
-0.504285
-0.504811
-0.505136
-0.505476
0.471318
0.470706
0.468902
0.466166
0.462616
0.458262
0.453133
0.447277
0.440734
0.43354
0.425734
0.417355
0.408442
0.399031
0.389158
0.378852
0.368145
0.357067
0.345648
0.333915
0.321899
0.309625
0.29712
0.284407
0.271508
0.25844
0.245232
0.231894
0.218468
0.20497
0.19144
0.177888
0.164351
0.150831
0.137353
0.12391
0.110519
0.0971693
0.0838764
0.0706299
0.0574443
0.04431
0.0312385
0.0182197
0.00526774
-0.00762103
-0.0204282
-0.03315
-0.0457627
-0.0582562
-0.0706107
-0.0828175
-0.0948642
-0.106745
-0.118459
-0.130003
-0.141383
-0.152594
-0.163646
-0.174531
-0.185261
-0.195821
-0.20623
-0.216468
-0.226556
-0.236469
-0.246231
-0.255812
-0.265238
-0.274471
-0.283542
-0.292413
-0.30112
-0.309622
-0.317962
-0.3261
-0.334082
-0.341865
-0.349499
-0.356935
-0.364224
-0.37131
-0.378247
-0.384976
-0.391552
-0.397912
-0.404119
-0.410111
-0.415951
-0.421577
-0.427059
-0.432331
-0.437461
-0.442377
-0.447151
-0.451706
-0.456108
-0.460282
-0.464294
-0.468073
-0.471686
-0.475066
-0.478285
-0.481276
-0.484116
-0.486736
-0.489213
-0.491475
-0.493598
-0.495507
-0.497273
-0.498827
-0.500241
-0.501445
-0.502512
-0.503375
-0.504109
-0.504638
-0.504964
-0.505309
0.473919
0.473349
0.471585
0.468888
0.465374
0.461055
0.455959
0.450133
0.443618
0.43645
0.428667
0.420309
0.411416
0.402023
0.392164
0.381872
0.371176
0.360107
0.348695
0.336968
0.324955
0.312683
0.300178
0.287462
0.274558
0.261489
0.248266
0.234926
0.221475
0.207964
0.194401
0.180829
0.167253
0.153709
0.140191
0.126724
0.113294
0.0999216
0.0865889
0.0733204
0.0600939
0.0469378
0.033823
0.0207838
0.00778721
-0.00512196
-0.0179772
-0.0307202
-0.0433835
-0.0559005
-0.0683086
-0.0805399
-0.0926401
-0.104546
-0.116313
-0.127881
-0.139314
-0.150549
-0.161654
-0.172563
-0.183346
-0.193931
-0.204393
-0.214656
-0.224796
-0.234734
-0.244548
-0.254153
-0.263629
-0.272886
-0.282007
-0.290903
-0.299658
-0.308184
-0.316573
-0.324736
-0.332766
-0.340574
-0.348255
-0.355715
-0.363048
-0.370157
-0.377136
-0.383885
-0.390499
-0.396878
-0.403121
-0.409131
-0.415006
-0.420652
-0.426172
-0.431466
-0.436636
-0.44158
-0.446399
-0.450985
-0.455432
-0.459636
-0.463691
-0.467496
-0.471145
-0.474544
-0.477789
-0.480792
-0.483649
-0.486275
-0.488763
-0.491027
-0.493158
-0.495068
-0.496844
-0.498401
-0.499826
-0.501035
-0.502116
-0.502987
-0.503737
-0.504276
-0.504618
-0.504965
0.476778
0.476255
0.474534
0.47188
0.468407
0.464126
0.459066
0.453273
0.446789
0.439649
0.431892
0.423559
0.414687
0.405313
0.395471
0.385194
0.37451
0.363451
0.352047
0.340326
0.328317
0.316047
0.303541
0.290823
0.277916
0.264835
0.251613
0.238251
0.224793
0.211252
0.197669
0.18406
0.170457
0.156872
0.143324
0.129815
0.116355
0.102942
0.089582
0.0762716
0.0630182
0.0498184
0.0366781
0.0235928
0.0105717
-0.00238633
-0.0152657
-0.0280618
-0.0407507
-0.0533249
-0.0657593
-0.0780509
-0.0901775
-0.102145
-0.113936
-0.125567
-0.137022
-0.14832
-0.159446
-0.170419
-0.181221
-0.191873
-0.202353
-0.212684
-0.22284
-0.232847
-0.242675
-0.25235
-0.261836
-0.271164
-0.280294
-0.289261
-0.298024
-0.306623
-0.315018
-0.323254
-0.331288
-0.33917
-0.346852
-0.354385
-0.361716
-0.368896
-0.375867
-0.382685
-0.389288
-0.395735
-0.401964
-0.40804
-0.413902
-0.419616
-0.425121
-0.430486
-0.435643
-0.440662
-0.445469
-0.450131
-0.45457
-0.458852
-0.462898
-0.466778
-0.470416
-0.473884
-0.477112
-0.480176
-0.483009
-0.485689
-0.488148
-0.490464
-0.492568
-0.494535
-0.496291
-0.497913
-0.499323
-0.500598
-0.501661
-0.50259
-0.503312
-0.503892
-0.504209
-0.504574
0.479892
0.47942
0.477746
0.475138
0.47171
0.467471
0.462449
0.456693
0.450242
0.443133
0.435405
0.427097
0.418249
0.408897
0.399074
0.388812
0.378142
0.367095
0.355699
0.343985
0.33198
0.319712
0.307205
0.294485
0.28157
0.268489
0.255247
0.241882
0.228399
0.214843
0.201225
0.18759
0.173945
0.160326
0.146733
0.13319
0.119687
0.106241
0.0928382
0.0794945
0.0661993
0.0529655
0.0397821
0.0266624
0.0135981
0.000604621
-0.0123204
-0.0251546
-0.0378913
-0.0505069
-0.0629924
-0.0753279
-0.0875057
-0.0995172
-0.11136
-0.123035
-0.134539
-0.145881
-0.157055
-0.168073
-0.178923
-0.18962
-0.200148
-0.210525
-0.220728
-0.23078
-0.240654
-0.250373
-0.259904
-0.269275
-0.278449
-0.287458
-0.296263
-0.304903
-0.313339
-0.321616
-0.32969
-0.337611
-0.345331
-0.352901
-0.360267
-0.367481
-0.374485
-0.381334
-0.387967
-0.394442
-0.4007
-0.406804
-0.412692
-0.418435
-0.423968
-0.429365
-0.434554
-0.439608
-0.44445
-0.449151
-0.453629
-0.45795
-0.462035
-0.465951
-0.469623
-0.473121
-0.476377
-0.479465
-0.482319
-0.485018
-0.487495
-0.489828
-0.491945
-0.493925
-0.495691
-0.497319
-0.498732
-0.500009
-0.501073
-0.502002
-0.502727
-0.503316
-0.503647
-0.504031
0.483254
0.482836
0.481214
0.478656
0.475275
0.471081
0.466102
0.460385
0.45397
0.446895
0.439198
0.430919
0.422096
0.412767
0.402965
0.39272
0.382066
0.371031
0.359645
0.347938
0.335937
0.323671
0.311164
0.29844
0.285523
0.272426
0.259184
0.245796
0.232306
0.218715
0.205077
0.191399
0.177723
0.164056
0.150428
0.136835
0.123298
0.109802
0.096367
0.0829741
0.0696472
0.056362
0.0431475
0.0299747
0.0168797
0.00383023
-0.0091258
-0.0220189
-0.0347893
-0.0474684
-0.05999
-0.072391
-0.0846066
-0.0966847
-0.108565
-0.120304
-0.131845
-0.143251
-0.154462
-0.165543
-0.17643
-0.187192
-0.197757
-0.208198
-0.218438
-0.228555
-0.238465
-0.248246
-0.257812
-0.267243
-0.27645
-0.285517
-0.294353
-0.30305
-0.311516
-0.319846
-0.32795
-0.335923
-0.343672
-0.351292
-0.358685
-0.365948
-0.37298
-0.379876
-0.386535
-0.393057
-0.399342
-0.405491
-0.411407
-0.417195
-0.422755
-0.428195
-0.433411
-0.438505
-0.443372
-0.448112
-0.452613
-0.456971
-0.46108
-0.465032
-0.468727
-0.472261
-0.475539
-0.47866
-0.481535
-0.484263
-0.486757
-0.489114
-0.491244
-0.493245
-0.495023
-0.496669
-0.498093
-0.499391
-0.500467
-0.501419
-0.502158
-0.502769
-0.503108
-0.503507
0.48686
0.486501
0.484933
0.482428
0.479099
0.474954
0.47002
0.464345
0.457969
0.45093
0.443267
0.435018
0.426224
0.41692
0.407139
0.396914
0.386276
0.375254
0.363879
0.35218
0.340185
0.327921
0.315413
0.302686
0.289759
0.276661
0.263397
0.250006
0.236486
0.222881
0.209204
0.195497
0.181776
0.16807
0.154392
0.140758
0.127171
0.113636
0.100151
0.0867217
0.0733433
0.0600219
0.0467533
0.0335448
0.020393
0.00730858
-0.00570749
-0.0186365
-0.0314714
-0.0441881
-0.0567789
-0.0692189
-0.0815066
-0.093623
-0.105576
-0.117352
-0.128966
-0.140406
-0.151691
-0.162805
-0.173768
-0.184561
-0.195205
-0.205676
-0.215997
-0.226141
-0.236132
-0.245937
-0.255584
-0.265035
-0.274322
-0.283405
-0.29232
-0.301028
-0.309572
-0.317911
-0.326092
-0.334071
-0.341898
-0.349522
-0.356995
-0.364261
-0.371373
-0.378272
-0.385014
-0.391539
-0.397908
-0.40406
-0.41006
-0.415846
-0.421488
-0.426918
-0.432208
-0.437286
-0.442221
-0.446939
-0.451508
-0.455848
-0.460029
-0.463971
-0.467745
-0.471276
-0.474636
-0.477754
-0.480708
-0.483427
-0.485991
-0.48833
-0.490526
-0.492503
-0.494345
-0.495972
-0.497467
-0.498749
-0.499904
-0.500847
-0.501659
-0.502256
-0.502629
-0.502996
0.490703
0.490406
0.488897
0.48645
0.483175
0.479081
0.474196
0.468566
0.462233
0.455233
0.447605
0.43939
0.430625
0.421348
0.411591
0.401387
0.390766
0.379759
0.368395
0.356705
0.344715
0.332454
0.319946
0.307215
0.294285
0.281169
0.267904
0.254486
0.240957
0.227318
0.213619
0.199868
0.18611
0.172354
0.158633
0.144947
0.131315
0.117729
0.104202
0.0907213
0.0772998
0.0639261
0.0506132
0.0373509
0.0241536
0.0110145
-0.00204827
-0.0150337
-0.0279183
-0.0406945
-0.0533381
-0.06584
-0.0781828
-0.0903618
-0.10237
-0.114208
-0.125877
-0.137378
-0.148718
-0.159893
-0.170912
-0.181766
-0.192467
-0.203
-0.213379
-0.223583
-0.23363
-0.243494
-0.253195
-0.262702
-0.27204
-0.281175
-0.290139
-0.298897
-0.307488
-0.315874
-0.324099
-0.332124
-0.339994
-0.347663
-0.35518
-0.362491
-0.369649
-0.376594
-0.383383
-0.389954
-0.39637
-0.402566
-0.40861
-0.414438
-0.420117
-0.425583
-0.430904
-0.436011
-0.440976
-0.445723
-0.450323
-0.454697
-0.458918
-0.462903
-0.466724
-0.470303
-0.473712
-0.476877
-0.479874
-0.48263
-0.485227
-0.487591
-0.489806
-0.491796
-0.493644
-0.495273
-0.49677
-0.498054
-0.49921
-0.500159
-0.500984
-0.501596
-0.501986
-0.502371
0.49478
0.49455
0.493103
0.490716
0.4875
0.483461
0.478627
0.473045
0.466756
0.459798
0.452209
0.444029
0.435296
0.426048
0.416317
0.406134
0.395532
0.384541
0.37319
0.361509
0.349525
0.337267
0.324758
0.312024
0.299084
0.285967
0.272676
0.259254
0.245693
0.232043
0.218299
0.204521
0.190712
0.176916
0.163138
0.149408
0.135719
0.12209
0.108505
0.0949821
0.0815011
0.0680848
0.054709
0.0414038
0.0281415
0.0149602
0.00183052
-0.0111974
-0.0241515
-0.036972
-0.0496888
-0.0622378
-0.0746558
-0.0868831
-0.0989678
-0.110854
-0.122599
-0.134148
-0.145565
-0.156788
-0.167885
-0.178789
-0.189569
-0.200152
-0.210608
-0.220862
-0.230986
-0.240897
-0.250672
-0.260224
-0.269633
-0.278811
-0.287842
-0.29664
-0.305295
-0.313719
-0.322006
-0.330067
-0.337997
-0.345703
-0.353278
-0.360626
-0.367842
-0.374825
-0.381672
-0.388282
-0.394755
-0.400989
-0.407087
-0.41295
-0.41868
-0.424176
-0.429543
-0.434676
-0.439684
-0.444457
-0.449098
-0.453499
-0.457764
-0.46178
-0.465648
-0.469261
-0.472719
-0.475919
-0.478962
-0.48175
-0.484387
-0.486778
-0.489025
-0.491035
-0.492907
-0.494551
-0.496069
-0.497365
-0.498541
-0.499501
-0.500346
-0.500969
-0.50137
-0.50175
0.499084
0.498924
0.497544
0.495221
0.492066
0.488085
0.483306
0.477775
0.471534
0.464619
0.457071
0.448928
0.44023
0.431013
0.421309
0.41115
0.400568
0.389594
0.378256
0.366585
0.354608
0.342353
0.329844
0.317106
0.304162
0.291026
0.277734
0.264282
0.250715
0.237024
0.223263
0.209436
0.195591
0.181742
0.167918
0.154129
0.140391
0.126703
0.113071
0.0994874
0.0859581
0.072478
0.0590534
0.0456813
0.0323709
0.0191213
0.00594563
-0.00715246
-0.0201526
-0.0330467
-0.0458106
-0.0584374
-0.0709045
-0.0832127
-0.0953463
-0.107316
-0.119109
-0.130744
-0.142208
-0.15352
-0.164664
-0.175659
-0.186484
-0.19716
-0.20766
-0.218006
-0.228169
-0.238173
-0.247983
-0.257626
-0.267065
-0.276333
-0.285391
-0.294277
-0.302954
-0.311465
-0.31977
-0.327918
-0.335862
-0.343653
-0.35124
-0.358675
-0.365901
-0.372972
-0.379828
-0.386527
-0.393007
-0.39933
-0.405434
-0.411384
-0.417115
-0.422696
-0.42806
-0.433276
-0.438274
-0.443126
-0.447756
-0.452238
-0.456491
-0.46059
-0.464453
-0.468153
-0.47161
-0.4749
-0.477945
-0.480823
-0.483459
-0.485936
-0.488178
-0.49027
-0.492136
-0.493863
-0.495369
-0.49674
-0.497893
-0.498915
-0.499722
-0.500383
-0.500746
-0.501134
0.503613
0.503527
0.502216
0.499961
0.496871
0.492951
0.488229
0.482752
0.476561
0.469693
0.462188
0.454085
0.445423
0.436238
0.426563
0.41643
0.40587
0.394913
0.38359
0.37193
0.35996
0.347709
0.3352
0.322459
0.309504
0.296366
0.283048
0.269591
0.255989
0.242288
0.228483
0.214629
0.200733
0.186841
0.172958
0.159119
0.145319
0.131578
0.117884
0.104247
0.0906534
0.0771171
0.0636268
0.0501973
0.0368211
0.0235147
0.0102743
-0.00288007
-0.0159454
-0.0288977
-0.0417293
-0.0544175
-0.0669551
-0.079328
-0.0915342
-0.10357
-0.115438
-0.127141
-0.13868
-0.150062
-0.161283
-0.172349
-0.183251
-0.193998
-0.204572
-0.214988
-0.225223
-0.235294
-0.245171
-0.254878
-0.264383
-0.273711
-0.282832
-0.291777
-0.300515
-0.309083
-0.317446
-0.325649
-0.333649
-0.341494
-0.349135
-0.356621
-0.3639
-0.371022
-0.377929
-0.384678
-0.391208
-0.397581
-0.403732
-0.409729
-0.415505
-0.421131
-0.426537
-0.431795
-0.436834
-0.441729
-0.446402
-0.450929
-0.455229
-0.45938
-0.463295
-0.467051
-0.470563
-0.473908
-0.477005
-0.479934
-0.482616
-0.485134
-0.48741
-0.489532
-0.491419
-0.493157
-0.494666
-0.496036
-0.497184
-0.498195
-0.498993
-0.499649
-0.500011
-0.500402
0.50836
0.508352
0.507114
0.504929
0.501907
0.498052
0.49339
0.48797
0.481832
0.475014
0.467554
0.459493
0.45087
0.441719
0.432075
0.421968
0.411431
0.400494
0.389186
0.377537
0.365576
0.353328
0.34082
0.328075
0.315117
0.301958
0.288638
0.27515
0.261541
0.2478
0.23398
0.220076
0.206146
0.192196
0.178267
0.164362
0.15051
0.136701
0.122952
0.109244
0.0955959
0.0819865
0.0684406
0.0549363
0.0415056
0.0281246
0.0148322
0.00160303
-0.0115137
-0.0245429
-0.0374278
-0.0501969
-0.0627914
-0.0752484
-0.0875142
-0.0996375
-0.111567
-0.12336
-0.134963
-0.146437
-0.157722
-0.168882
-0.179848
-0.190687
-0.201325
-0.211831
-0.222125
-0.232281
-0.242216
-0.252005
-0.261563
-0.270972
-0.280146
-0.28917
-0.29796
-0.306606
-0.315021
-0.323299
-0.331349
-0.339268
-0.346957
-0.354514
-0.361838
-0.369027
-0.375978
-0.382791
-0.389362
-0.395796
-0.401988
-0.408043
-0.413858
-0.419541
-0.424985
-0.430299
-0.435376
-0.440327
-0.44504
-0.449623
-0.453963
-0.45817
-0.462127
-0.465938
-0.469492
-0.472891
-0.476029
-0.47901
-0.481729
-0.484294
-0.486602
-0.488763
-0.490674
-0.492441
-0.493966
-0.495356
-0.496512
-0.497537
-0.498336
-0.498999
-0.499348
-0.499731
0.513323
0.513395
0.512233
0.510123
0.507173
0.503384
0.498786
0.493425
0.487343
0.480576
0.473165
0.465148
0.456565
0.447451
0.437839
0.427761
0.417248
0.406331
0.39504
0.383404
0.371451
0.359208
0.3467
0.333952
0.320983
0.307823
0.294474
0.280982
0.267336
0.253586
0.239719
0.225793
0.21181
0.197817
0.183827
0.169867
0.155946
0.142077
0.128257
0.11449
0.100768
0.0870984
0.0734774
0.0599134
0.0464064
0.0329676
0.0195988
0.0063145
-0.00688033
-0.0199651
-0.0329318
-0.0457583
-0.0584397
-0.0709572
-0.0833145
-0.0954998
-0.107525
-0.119381
-0.131084
-0.142622
-0.15401
-0.165232
-0.176304
-0.187202
-0.197945
-0.208505
-0.218903
-0.229108
-0.239143
-0.248977
-0.258637
-0.268087
-0.277363
-0.286428
-0.295321
-0.304005
-0.312524
-0.320837
-0.328991
-0.336939
-0.34473
-0.352311
-0.359734
-0.366942
-0.373989
-0.380815
-0.38748
-0.393923
-0.400207
-0.406269
-0.412176
-0.417864
-0.423401
-0.428719
-0.433891
-0.438844
-0.443652
-0.448236
-0.452672
-0.456876
-0.460925
-0.464733
-0.468377
-0.471772
-0.475
-0.477975
-0.480783
-0.483343
-0.48574
-0.487895
-0.489893
-0.491655
-0.493269
-0.494653
-0.495892
-0.496903
-0.497771
-0.498406
-0.498771
-0.499101
0.518494
0.518652
0.51757
0.515537
0.51266
0.508942
0.504411
0.499112
0.493088
0.486376
0.479014
0.471044
0.462504
0.453428
0.44385
0.433802
0.423315
0.41242
0.401146
0.389523
0.37758
0.365342
0.352836
0.340084
0.327111
0.31393
0.300581
0.287055
0.273402
0.259609
0.24573
0.231753
0.217738
0.203686
0.189644
0.175617
0.161634
0.147693
0.133808
0.119967
0.106181
0.0924369
0.0787497
0.0651108
0.0515369
0.0380237
0.0245886
0.0112301
-0.00203126
-0.0151912
-0.028227
-0.0411321
-0.0538867
-0.0664863
-0.0789209
-0.0911918
-0.103298
-0.115241
-0.127027
-0.138655
-0.150128
-0.161441
-0.172598
-0.183586
-0.194412
-0.205059
-0.215537
-0.225825
-0.23594
-0.245854
-0.25559
-0.26512
-0.274473
-0.283616
-0.292586
-0.301349
-0.309945
-0.318334
-0.32656
-0.334581
-0.34244
-0.350088
-0.357574
-0.364844
-0.371949
-0.378831
-0.38555
-0.392046
-0.398381
-0.404493
-0.410449
-0.416186
-0.421773
-0.427141
-0.432366
-0.437372
-0.442235
-0.446874
-0.451366
-0.455625
-0.459728
-0.463586
-0.467277
-0.470717
-0.473985
-0.476997
-0.47984
-0.482431
-0.484858
-0.487037
-0.489057
-0.490837
-0.492467
-0.493863
-0.495115
-0.496135
-0.497013
-0.497654
-0.498022
-0.498355
0.523872
0.524118
0.523119
0.521167
0.518368
0.514723
0.510261
0.505027
0.499064
0.492408
0.4851
0.477178
0.468682
0.459647
0.450105
0.440089
0.429629
0.418756
0.407501
0.395893
0.383959
0.371727
0.359222
0.346468
0.333484
0.320302
0.306923
0.293393
0.279702
0.2659
0.251972
0.237977
0.223903
0.209811
0.195703
0.181618
0.167562
0.153555
0.139592
0.125685
0.11182
0.0980106
0.0842426
0.0705377
0.056881
0.0433021
0.029783
0.0163599
0.00301347
-0.0102113
-0.0233354
-0.036308
-0.0491551
-0.061826
-0.0743576
-0.0867029
-0.0989091
-0.11093
-0.122819
-0.134524
-0.146103
-0.157495
-0.168758
-0.179825
-0.190756
-0.20148
-0.212061
-0.222424
-0.232638
-0.242625
-0.25246
-0.262062
-0.271513
-0.280728
-0.289795
-0.298628
-0.307319
-0.315776
-0.324094
-0.332179
-0.340124
-0.347832
-0.355398
-0.362722
-0.369902
-0.376836
-0.383625
-0.390168
-0.396569
-0.402726
-0.408746
-0.414526
-0.420174
-0.425585
-0.43087
-0.43592
-0.440844
-0.445527
-0.450082
-0.454388
-0.458551
-0.462453
-0.4662
-0.469678
-0.472993
-0.476037
-0.478918
-0.481531
-0.483986
-0.486181
-0.488221
-0.490009
-0.491654
-0.493053
-0.494316
-0.495338
-0.496229
-0.496878
-0.49726
-0.497596
0.529451
0.529788
0.528875
0.527007
0.524289
0.520721
0.51633
0.511164
0.505264
0.498668
0.491414
0.483544
0.475095
0.466102
0.456598
0.446614
0.436183
0.425335
0.4141
0.402507
0.390584
0.378359
0.365855
0.353098
0.340111
0.326907
0.313527
0.299963
0.286264
0.272417
0.258477
0.244426
0.230325
0.216174
0.202008
0.187859
0.173732
0.159653
0.145616
0.131633
0.117693
0.103807
0.0899636
0.0761792
0.0624475
0.0487865
0.0351929
0.0216863
0.00826677
-0.00504397
-0.0182423
-0.0313055
-0.0442292
-0.0569965
-0.0696077
-0.0820548
-0.0943419
-0.106469
-0.118439
-0.130255
-0.141915
-0.153421
-0.164764
-0.175947
-0.186956
-0.197796
-0.208451
-0.21893
-0.229214
-0.239317
-0.249217
-0.258935
-0.268447
-0.277779
-0.286903
-0.295853
-0.304595
-0.313168
-0.321533
-0.32973
-0.337716
-0.345534
-0.353135
-0.360565
-0.367774
-0.374812
-0.381625
-0.38827
-0.39469
-0.400946
-0.40698
-0.412856
-0.418512
-0.424017
-0.429304
-0.434446
-0.439369
-0.444146
-0.448697
-0.453097
-0.457259
-0.461257
-0.465004
-0.468577
-0.471891
-0.475026
-0.477901
-0.480602
-0.483047
-0.485325
-0.487353
-0.489219
-0.490842
-0.492314
-0.493549
-0.494638
-0.495498
-0.496205
-0.496572
-0.496948
0.535227
0.535659
0.534836
0.533055
0.530421
0.526931
0.522616
0.51752
0.511687
0.505152
0.497956
0.490139
0.481739
0.47279
0.463325
0.453377
0.442976
0.432153
0.420939
0.409362
0.397451
0.385232
0.372731
0.359972
0.346974
0.33377
0.320359
0.306791
0.293051
0.279195
0.265203
0.251135
0.236978
0.222778
0.20856
0.194338
0.180146
0.165985
0.151876
0.137808
0.123796
0.109823
0.0959077
0.0820343
0.0682297
0.0544777
0.0408114
0.0272129
0.0137212
0.000316454
-0.0129555
-0.0261164
-0.0391175
-0.0519882
-0.0646812
-0.0772359
-0.0896078
-0.101846
-0.113904
-0.125834
-0.137582
-0.149204
-0.160636
-0.171935
-0.183033
-0.193989
-0.20473
-0.215323
-0.22569
-0.235903
-0.245884
-0.25571
-0.2653
-0.274737
-0.283938
-0.292989
-0.301806
-0.310477
-0.318913
-0.327205
-0.335259
-0.343168
-0.350834
-0.358352
-0.365623
-0.372745
-0.379617
-0.386341
-0.392816
-0.399147
-0.405233
-0.411178
-0.416881
-0.422449
-0.427777
-0.432975
-0.437932
-0.442759
-0.447341
-0.451788
-0.455982
-0.460029
-0.463812
-0.467439
-0.470795
-0.473989
-0.476911
-0.479671
-0.482163
-0.4845
-0.486573
-0.488495
-0.490158
-0.491681
-0.492949
-0.494076
-0.494956
-0.495688
-0.496056
-0.496438
0.541195
0.541726
0.540995
0.539305
0.536757
0.53335
0.529112
0.52409
0.518325
0.511854
0.504718
0.496957
0.488607
0.479704
0.470281
0.460369
0.45
0.439204
0.428012
0.416453
0.404555
0.392344
0.379846
0.367084
0.354083
0.340857
0.327446
0.313842
0.300095
0.286192
0.272187
0.258063
0.243876
0.229625
0.215343
0.201062
0.186793
0.172558
0.158363
0.144217
0.130117
0.116066
0.102061
0.0881097
0.0742138
0.060384
0.0466245
0.0329489
0.0193626
0.00588116
-0.00748894
-0.0207292
-0.0338342
-0.0467881
-0.0595918
-0.0722336
-0.084722
-0.097049
-0.109228
-0.121247
-0.13312
-0.14483
-0.15639
-0.167776
-0.179002
-0.190041
-0.200911
-0.211582
-0.222075
-0.232362
-0.242468
-0.252363
-0.262076
-0.271578
-0.280901
-0.290013
-0.298952
-0.307679
-0.316237
-0.324581
-0.332755
-0.340711
-0.348497
-0.356058
-0.363446
-0.370606
-0.377593
-0.38435
-0.390938
-0.397297
-0.403491
-0.409458
-0.415266
-0.420848
-0.426276
-0.431479
-0.436531
-0.441356
-0.446031
-0.450475
-0.454767
-0.458818
-0.462709
-0.46635
-0.469822
-0.473036
-0.476075
-0.478854
-0.48146
-0.483806
-0.485985
-0.487909
-0.489672
-0.491185
-0.492545
-0.493656
-0.494611
-0.495312
-0.495703
-0.496035
0.547354
0.547985
0.547351
0.545754
0.543296
0.539974
0.535816
0.53087
0.525176
0.518772
0.511699
0.503995
0.495698
0.486844
0.477464
0.46759
0.457254
0.446486
0.435318
0.423777
0.411892
0.39969
0.387195
0.374432
0.361422
0.348195
0.334753
0.321145
0.307357
0.293443
0.279386
0.265244
0.251001
0.236703
0.222372
0.208017
0.193678
0.179359
0.165083
0.150846