/*--------------------------------*- C++ -*---------------------------------*\ 
| ========                 |                                                 | 
| \      /  F ield         | OpenFOAM: The Open Source CFD Toolbox           | 
|  \    /   O peration     | Version:  v1812                                 | 
|   \  /    A nd           | Web:      www.OpenFOAM.com                      | 
|    \/     M anipulation  |                                                 | 
\*--------------------------------------------------------------------------*/ 
FoamFile
{
    version     2.0;
    format      ascii;
    class       volVectorField;
    location    "/home/james/dafoam/myRuns/bezier_foil/0.00000000001/";
    object      sens_CMZ_shapey;
}
// * * * * * * * * * * * * * * * * * * * * * * * * * * * * * * * * * * * * * //

dimensions      [0 0 0 0 0 0 0];
internalField   uniform (0 0 0);
boundaryField
{
    allWalls
    {
        type  wall;
        value nonuniform List<vector>
80
(
(-0.004825 0.018627 -0.000000)
(0.014937 -0.017865 -0.000000)
(0.034374 -0.041252 -0.000000)
(0.024517 -0.039570 -0.000000)
(0.014186 -0.031084 0.000000)
(0.009199 -0.025968 0.000000)
(0.006553 -0.022750 0.000000)
(0.004770 -0.019803 0.000000)
(0.004439 -0.021486 0.000000)
(0.004088 -0.023371 -0.000000)
(0.003178 -0.022334 -0.000001)
(0.002296 -0.019590 -0.000001)
(0.001590 -0.017072 -0.000001)
(0.001143 -0.015423 -0.000001)
(0.000682 -0.012760 -0.000000)
(0.000257 -0.007750 0.000000)
(-0.000000 -0.001013 0.000001)
(0.000076 0.006954 0.000001)
(0.000673 0.021281 0.000002)
(0.001981 0.037313 0.000002)
(0.003706 0.049703 0.000002)
(0.005083 0.056182 0.000002)
(0.005644 0.055723 0.000001)
(0.006814 0.062481 0.000001)
(0.008216 0.072220 0.000000)
(0.008593 0.073175 -0.000000)
(0.008957 0.074711 -0.000000)
(0.009463 0.077990 -0.000000)
(0.009947 0.081453 -0.000000)
(0.010590 0.086558 -0.000000)
(0.011147 0.091269 -0.000000)
(0.011154 0.091906 -0.000000)
(0.011550 0.096259 -0.000000)
(0.016027 0.134001 -0.000000)
(0.022318 0.185835 -0.000000)
(0.012201 0.102567 -0.000000)
(-0.015906 -0.115832 -0.000000)
(0.057798 0.565212 -0.000000)
(0.205796 1.756453 -0.000000)
(0.138702 -3.348944 -0.000000)
(0.004489 0.020105 -0.000000)
(-0.012117 -0.014768 -0.000000)
(-0.034143 -0.040078 -0.000000)
(-0.026154 -0.040747 -0.000000)
(-0.015172 -0.031970 -0.000000)
(-0.009745 -0.026746 0.000000)
(-0.006902 -0.023436 0.000000)
(-0.004838 -0.019855 0.000000)
(-0.004684 -0.022590 0.000000)
(-0.004257 -0.024238 0.000000)
(-0.003036 -0.021565 0.000000)
(-0.002204 -0.019304 0.000000)
(-0.001618 -0.017898 0.000000)
(-0.001091 -0.015581 0.000000)
(-0.000524 -0.011260 0.000000)
(-0.000222 -0.008011 0.000000)
(-0.000041 -0.002631 -0.000001)
(-0.000126 0.007503 -0.000001)
(-0.000821 0.023274 -0.000001)
(-0.002012 0.037100 -0.000002)
(-0.003504 0.047402 -0.000002)
(-0.004475 0.051073 -0.000001)
(-0.005707 0.057948 -0.000001)
(-0.007039 0.067090 -0.000001)
(-0.007719 0.069730 -0.000000)
(-0.008336 0.072663 -0.000000)
(-0.008809 0.074808 -0.000000)
(-0.009352 0.078008 -0.000000)
(-0.009910 0.081673 -0.000000)
(-0.010613 0.086819 -0.000000)
(-0.011236 0.091602 -0.000000)
(-0.011295 0.092243 -0.000000)
(-0.011737 0.096496 -0.000000)
(-0.016369 0.134425 -0.000000)
(-0.022965 0.187174 -0.000000)
(-0.012688 0.103908 -0.000000)
(0.016462 -0.117157 -0.000000)
(-0.059166 0.561038 -0.000000)
(-0.212623 1.759123 -0.000000)
(-0.130639 -3.343768 -0.000000)
)
;
    }
}
