/*--------------------------------*- C++ -*---------------------------------*\ 
| ========                 |                                                 | 
| \      /  F ield         | OpenFOAM: The Open Source CFD Toolbox           | 
|  \    /   O peration     | Version:  v1812                                 | 
|   \  /    A nd           | Web:      www.OpenFOAM.com                      | 
|    \/     M anipulation  |                                                 | 
\*--------------------------------------------------------------------------*/ 
FoamFile
{
    version     2.0;
    format      ascii;
    class       volVectorField;
    location    "/home/james/dafoam/myRuns/bezier_foil/0.00000000001/";
    object      sens_CMZ_shapey;
}
// * * * * * * * * * * * * * * * * * * * * * * * * * * * * * * * * * * * * * //

dimensions      [0 0 0 0 0 0 0];
internalField   uniform (0 0 0);
boundaryField
{
    allWalls
    {
        type  wall;
        value nonuniform List<vector>
80
(
(-0.026545 0.000713 -0.000004)
(0.085709 -0.098813 -0.000004)
(0.077280 -0.097853 -0.000004)
(0.023179 -0.046187 -0.000004)
(0.006883 -0.036067 -0.000005)
(0.004006 -0.021311 -0.000006)
(-0.000819 -0.005211 -0.000006)
(0.002968 -0.014150 -0.000006)
(0.003453 -0.018861 -0.000006)
(0.002714 -0.017267 0.000003)
(0.002287 -0.016926 0.000012)
(0.002338 -0.018602 0.000012)
(0.001798 -0.015962 0.000012)
(0.001299 -0.012505 0.000012)
(0.000751 -0.007566 0.000028)
(0.000982 -0.012023 0.000045)
(0.000964 -0.012817 0.000049)
(-0.000048 0.001614 0.000053)
(-0.000743 0.018541 0.000059)
(-0.000662 0.036253 0.000074)
(0.000423 0.048651 0.000085)
(0.002056 0.051741 0.000081)
(0.004152 0.058410 0.000076)
(0.006526 0.068924 0.000071)
(0.008678 0.073441 0.000051)
(0.010748 0.076484 0.000032)
(0.012812 0.079509 0.000032)
(0.014808 0.082104 0.000032)
(0.016871 0.085088 0.000032)
(0.019222 0.089429 0.000017)
(0.021466 0.093253 0.000001)
(0.022074 0.090579 0.000001)
(0.022683 0.088704 0.000001)
(0.032686 0.121447 0.000001)
(0.049419 0.175796 0.000003)
(0.026875 0.092026 0.000005)
(-0.038726 -0.113125 0.000005)
(0.101541 0.376331 0.000005)
(0.394077 1.308678 0.000005)
(-0.196192 -3.289771 0.000005)
(-0.058517 0.039797 -0.000004)
(-0.006010 0.003133 -0.000004)
(-0.011879 -0.010957 -0.000004)
(-0.010678 -0.013356 -0.000004)
(-0.009165 -0.017065 -0.000004)
(-0.009527 -0.021723 -0.000005)
(-0.007579 -0.020775 -0.000006)
(-0.007434 -0.024307 -0.000006)
(-0.006212 -0.024067 -0.000006)
(-0.004448 -0.021610 -0.000006)
(-0.003537 -0.021402 0.000004)
(-0.002568 -0.020643 0.000013)
(-0.001611 -0.018383 0.000013)
(-0.000633 -0.013714 0.000013)
(-0.000078 -0.009682 0.000013)
(0.000180 -0.005174 0.000029)
(-0.000117 0.002320 0.000047)
(-0.001171 0.013530 0.000051)
(-0.002912 0.026588 0.000055)
(-0.004981 0.040449 0.000060)
(-0.006297 0.049590 0.000070)
(-0.006620 0.054087 0.000076)
(-0.006481 0.056683 0.000072)
(-0.006287 0.059797 0.000069)
(-0.006215 0.065118 0.000065)
(-0.005752 0.067799 0.000048)
(-0.005111 0.069490 0.000032)
(-0.004629 0.073811 0.000032)
(-0.004014 0.077195 0.000032)
(-0.003203 0.078052 0.000032)
(-0.002558 0.087117 0.000017)
(-0.001798 0.096249 0.000001)
(-0.000861 0.111568 0.000001)
(0.000231 0.149985 0.000001)
(0.001566 0.135195 0.000001)
(0.000888 -0.030441 0.000003)
(0.005390 0.034066 0.000005)
(0.041523 1.120679 0.000005)
(0.044098 1.807852 0.000005)
(-0.443511 -3.316445 0.000005)
)
;
    }
}
