/*--------------------------------*- C++ -*---------------------------------*\ 
| ========                 |                                                 | 
| \      /  F ield         | OpenFOAM: The Open Source CFD Toolbox           | 
|  \    /   O peration     | Version:  v1812                                 | 
|   \  /    A nd           | Web:      www.OpenFOAM.com                      | 
|    \/     M anipulation  |                                                 | 
\*--------------------------------------------------------------------------*/ 
FoamFile
{
    version     2.0;
    format      ascii;
    class       volVectorField;
    location    "/home/james/dafoam/myRuns/bezier_foil/0.00000000001/";
    object      sens_CMZ_shapey;
}
// * * * * * * * * * * * * * * * * * * * * * * * * * * * * * * * * * * * * * //

dimensions      [0 0 0 0 0 0 0];
internalField   uniform (0 0 0);
boundaryField
{
    allWalls
    {
        type  wall;
        value nonuniform List<vector>
80
(
(-0.026962 0.008819 -0.000003)
(0.060523 -0.071862 -0.000003)
(0.078651 -0.106758 -0.000003)
(0.029252 -0.050755 -0.000003)
(0.000351 -0.015823 -0.000004)
(0.005769 -0.025762 -0.000005)
(0.001146 -0.011145 -0.000005)
(0.003415 -0.015833 -0.000005)
(0.003757 -0.020023 -0.000005)
(0.003178 -0.019752 0.000003)
(0.002166 -0.015935 0.000011)
(0.002116 -0.017398 0.000010)
(0.002160 -0.019244 0.000010)
(0.001368 -0.013910 0.000010)
(0.000819 -0.009106 0.000023)
(0.000546 -0.006875 0.000038)
(0.000681 -0.011250 0.000041)
(0.000185 -0.002100 0.000045)
(-0.000575 0.020172 0.000049)
(-0.000239 0.037251 0.000063)
(0.000931 0.047840 0.000072)
(0.002591 0.052389 0.000068)
(0.004592 0.060509 0.000064)
(0.006686 0.068640 0.000060)
(0.008601 0.072878 0.000042)
(0.010446 0.076149 0.000026)
(0.012259 0.079260 0.000026)
(0.014017 0.082103 0.000026)
(0.015839 0.085368 0.000026)
(0.017927 0.090018 0.000014)
(0.019944 0.094310 0.000001)
(0.020562 0.092534 0.000001)
(0.021187 0.091505 0.000001)
(0.030241 0.124852 0.000001)
(0.045760 0.181479 0.000002)
(0.026100 0.100233 0.000004)
(-0.034088 -0.110875 0.000004)
(0.100331 0.416911 0.000004)
(0.374005 1.386134 0.000004)
(-0.143386 -3.274234 0.000004)
(-0.042963 0.033544 -0.000003)
(-0.004025 0.000731 -0.000003)
(-0.014378 -0.014768 -0.000003)
(-0.013203 -0.017887 -0.000003)
(-0.009701 -0.018855 -0.000003)
(-0.010048 -0.023360 -0.000004)
(-0.007508 -0.021057 -0.000005)
(-0.007363 -0.024750 -0.000005)
(-0.006138 -0.024342 -0.000005)
(-0.004355 -0.021780 -0.000005)
(-0.003535 -0.021790 0.000003)
(-0.002530 -0.020622 0.000011)
(-0.001634 -0.018263 0.000011)
(-0.000713 -0.014307 0.000011)
(-0.000183 -0.010513 0.000011)
(0.000138 -0.005595 0.000024)
(-0.000047 0.001379 0.000039)
(-0.000917 0.012427 0.000042)
(-0.002572 0.026464 0.000046)
(-0.004446 0.039587 0.000049)
(-0.005781 0.048527 0.000058)
(-0.006408 0.054589 0.000063)
(-0.006479 0.057913 0.000060)
(-0.006271 0.059559 0.000057)
(-0.006353 0.065049 0.000054)
(-0.006207 0.069403 0.000040)
(-0.005656 0.070455 0.000026)
(-0.005305 0.074203 0.000026)
(-0.004940 0.078887 0.000026)
(-0.004398 0.081791 0.000026)
(-0.003708 0.083903 0.000014)
(-0.003269 0.094237 0.000001)
(-0.003037 0.115396 0.000001)
(-0.002772 0.148761 0.000001)
(-0.001340 0.133047 0.000001)
(0.001692 -0.032422 0.000002)
(0.004545 0.072031 0.000004)
(0.010988 1.128716 0.000004)
(-0.003045 1.697030 0.000004)
(-0.394633 -3.414757 0.000004)
)
;
    }
}
