# Forces      
# CofR        : (-2.250000e-01 0.000000e+00 0.000000e+00)
# Time        forces(pressure viscous)	moments(pressure viscous)
0             	((9.509673e+01 4.263256e-13 1.894252e-17) (4.368626e-01 3.344086e-16 1.134240e-22)) ((2.657673e-18 1.526535e-18 -6.661338e-16) (-8.168468e-24 2.888588e-24 8.746462e-18))
