/*--------------------------------*- C++ -*----------------------------------*\
  =========                 |
  \\      /  F ield         | OpenFOAM: The Open Source CFD Toolbox
   \\    /   O peration     | Website:  https://openfoam.org
    \\  /    A nd           | Version:  8
     \\/     M anipulation  |
\*---------------------------------------------------------------------------*/
FoamFile
{
    version     2.0;
    format      ascii;
    class       volVectorField;
    location    "0.26";
    object      U;
}
// * * * * * * * * * * * * * * * * * * * * * * * * * * * * * * * * * * * * * //

dimensions      [0 1 -1 0 0 0 0];

internalField   nonuniform List<vector> 
112745
(
(15 3.3126e-08 -1.8652e-24)
(15 4.58928e-07 -4.84846e-23)
(15 1.18484e-06 -2.89429e-22)
(14.9999 2.79438e-06 9.13534e-23)
(14.9999 4.41608e-06 1.64904e-21)
(14.9999 5.97621e-06 -1.71569e-21)
(14.9999 7.6361e-06 -6.59105e-23)
(14.9999 9.66178e-06 6.88889e-22)
(14.9999 1.19137e-05 2.20072e-21)
(14.9999 1.44976e-05 -3.65883e-21)
(14.9999 1.71249e-05 -9.78255e-23)
(14.9999 1.9959e-05 6.48394e-21)
(14.9999 2.30701e-05 4.3009e-21)
(14.9999 2.61687e-05 4.58205e-21)
(14.9999 2.94837e-05 4.14851e-21)
(14.9999 3.27713e-05 7.01011e-21)
(14.9999 3.61479e-05 -5.29041e-21)
(14.9999 3.97435e-05 9.43873e-21)
(14.9999 4.31881e-05 -7.05241e-21)
(14.9999 4.66725e-05 -1.05503e-20)
(14.9999 5.01865e-05 -1.91109e-20)
(14.9998 5.38198e-05 -8.19991e-21)
(14.9998 5.72901e-05 -8.51859e-21)
(14.9998 6.09172e-05 -4.91942e-21)
(14.9998 6.44004e-05 4.23298e-21)
(14.9998 6.80634e-05 9.38313e-21)
(14.9998 7.15986e-05 -1.47826e-20)
(14.9998 7.50827e-05 1.97963e-20)
(14.9998 7.86503e-05 -1.37142e-22)
(14.9998 8.21871e-05 1.03342e-20)
(14.9998 8.57547e-05 1.02319e-20)
(14.9998 8.91765e-05 1.25742e-22)
(14.9998 9.26289e-05 1.04817e-20)
(14.9998 9.60992e-05 1.08169e-20)
(14.9998 9.93676e-05 -1.08875e-20)
(14.9998 0.000102782 1.22058e-22)
(14.9998 0.00010608 -1.69456e-20)
(14.9998 0.000109388 1.08978e-20)
(14.9998 0.000112805 -4.70012e-21)
(14.9998 0.000115968 2.19555e-20)
(14.9998 0.000119264 -2.19319e-20)
(14.9998 0.000122424 1.754e-20)
(14.9998 0.000125484 4.18923e-21)
(14.9998 0.000128586 -1.04703e-22)
(14.9998 0.000131699 1.08385e-20)
(14.9998 0.000134663 3.61302e-21)
(14.9998 0.00013777 1.05956e-20)
(14.9998 0.000140746 -1.76631e-20)
(14.9998 0.000143547 -1.05205e-20)
(14.9999 0.000146482 2.50517e-20)
(14.9999 0.000149249 7.48926e-21)
(14.9999 0.000152088 2.01824e-20)
(14.9999 0.000154787 1.99465e-20)
(14.9999 0.000157588 -7.64481e-21)
(14.9999 0.000160217 -7.80089e-21)
(14.9999 0.000162793 -9.56158e-21)
(14.9999 0.000165354 -1.88355e-20)
(14.9999 0.000167932 7.9244e-21)
(14.9999 0.000170325 9.18194e-21)
(14.9999 0.000172815 -9.01677e-21)
(14.9999 0.00017522 8.85405e-21)
(14.9999 0.000177448 -6.56275e-23)
(14.9999 0.000179786 8.49766e-21)
(14.9999 0.00018199 -6.66344e-23)
(14.9999 0.000184212 8.12682e-21)
(14.9999 0.000186379 -1.63617e-20)
(14.9999 0.000188405 0)
(14.9999 0.000190569 -7.49803e-21)
(14.9999 0.000192563 7.30497e-21)
(14.9999 0.000194485 7.10154e-21)
(14.9999 0.000196363 1.5576e-20)
(14.9999 0.000198193 -8.66989e-21)
(14.9999 0.000199946 -1.30579e-20)
(14.9999 0.000201659 1.51743e-20)
(14.9999 0.000203425 -1.77747e-20)
(14.9999 0.000205078 8.84876e-21)
(14.9999 0.000206557 2.02744e-20)
(14.9999 0.000208201 -3.62907e-21)
(14.9999 0.000209647 0)
(14.9999 0.000211072 0)
(14.9999 0.000212358 0)
(14.9999 0.00021373 -4.50213e-21)
(14.9999 0.000215004 0)
(14.9999 0.000216268 -5.17741e-21)
(14.9999 0.000217368 1.84558e-20)
(14.9999 0.000218417 7.21911e-21)
(15 0.000219549 -3.13479e-20)
(15 0.000220506 6.24539e-21)
(15 0.000221444 6.53748e-21)
(15 0.000222321 -9.40135e-21)
(15 0.000223193 -2.38888e-21)
(15 0.000224009 2.14651e-21)
(15 0.000224704 1.87488e-21)
(15 0.000225355 1.74089e-20)
(15 0.00022592 2.04833e-20)
(15 0.000226482 -8.4179e-21)
(15 0.000226948 -1.91843e-20)
(15 0.000227419 0)
(15 0.000227765 3.81047e-22)
(15 0.000228078 9.65364e-21)
(15 0.000228344 -1.21001e-22)
(15 0.000228565 -9.28567e-21)
(15 0.000228752 0)
(15 0.000228813 1.9342e-20)
(15 0.000228878 -4.58064e-21)
(15 0.000228846 -8.2563e-21)
(15 0.000228809 -3.32177e-21)
(15 0.000228684 -9.66185e-21)
(15 0.000228513 -1.18365e-20)
(15 0.000228215 4.85916e-21)
(15 0.000227861 2.65244e-21)
(15 0.000227498 9.67164e-21)
(15 0.00022707 -3.23001e-21)
(15 0.00022662 9.69404e-21)
(15.0001 0.000225985 -7.45454e-21)
(15.0001 0.000225435 -5.58352e-21)
(15.0001 0.00022483 -1.38708e-20)
(15.0001 0.00022405 4.5397e-21)
(15.0001 0.000223256 2.39516e-20)
(15.0001 0.000222355 -1.45139e-20)
(15.0001 0.000221541 -9.51424e-21)
(15.0001 0.000220578 1.08979e-20)
(15.0001 0.000219587 9.52678e-21)
(15.0001 0.000218384 3.51563e-21)
(15.0001 0.00021735 -3.13502e-20)
(15.0001 0.000216126 6.52421e-21)
(15.0001 0.000214777 2.6654e-21)
(15.0001 0.000213478 -1.87739e-20)
(15.0001 0.000212132 2.37709e-20)
(15.0001 0.000210697 1.86183e-21)
(15.0001 0.000209204 -9.28235e-21)
(15.0001 0.000207657 -6.43121e-21)
(15.0001 0.000206027 1.73266e-20)
(15.0001 0.000204204 -1.75751e-20)
(15.0001 0.000202525 7.97955e-21)
(15.0001 0.000200684 9.17692e-21)
(15.0001 0.000198776 9.06643e-21)
(15.0001 0.000196879 -1.83347e-20)
(15.0001 0.000194826 -2.74904e-20)
(15.0001 0.000192887 8.76782e-23)
(15.0001 0.000190744 8.90415e-21)
(15.0001 0.000188497 0)
(15.0001 0.000186349 1.02798e-20)
(15.0001 0.000183984 0)
(15.0002 0.000181629 -8.78074e-21)
(15.0002 0.000179246 1.09622e-20)
(15.0002 0.000176794 -2.46851e-21)
(15.0002 0.000174137 1.12248e-20)
(15.0002 0.000171582 8.54751e-21)
(15.0002 0.00016886 -2.3202e-20)
(15.0002 0.000166205 -5.00707e-21)
(15.0002 0.000163347 3.63624e-21)
(15.0002 0.000160629 2.02864e-20)
(15.0002 0.000157697 -4.05411e-21)
(15.0002 0.000154602 0)
(15.0002 0.000151657 4.34764e-21)
(15.0002 0.000148525 2.0536e-20)
(15.0002 0.00014539 2.01539e-20)
(15.0002 0.000142289 -2.02836e-20)
(15.0002 0.000139057 5.07403e-21)
(15.0002 0.000135648 1.32154e-22)
(15.0002 0.000132379 7.3019e-21)
(15.0002 0.000128792 -7.31011e-21)
(15.0002 0.000125317 1.45371e-20)
(15.0002 0.000121834 8.6675e-22)
(15.0002 0.000118194 -2.65506e-20)
(15.0002 0.000114708 -6.65449e-21)
(15.0002 0.00011096 -6.0662e-21)
(15.0002 0.000107213 -1.51407e-22)
(15.0002 0.000103481 1.6404e-22)
(15.0002 9.95491e-05 6.03263e-21)
(15.0002 9.56315e-05 2.04361e-25)
(15.0002 9.16514e-05 -3.57052e-20)
(15.0002 8.77487e-05 1.83172e-20)
(15.0002 8.37575e-05 -1.78569e-20)
(15.0002 7.95811e-05 1.65296e-20)
(15.0002 7.55995e-05 -1.6188e-20)
(15.0002 7.14102e-05 1.36613e-21)
(15.0002 6.73864e-05 1.48825e-20)
(15.0002 6.31274e-05 -1.34537e-21)
(15.0002 5.89857e-05 -9.60553e-21)
(15.0002 5.48484e-05 9.15008e-21)
(15.0002 5.07273e-05 3.43244e-21)
(15.0002 4.63762e-05 -4.5992e-21)
(15.0002 4.22683e-05 -1.79005e-20)
(15.0002 3.82367e-05 8.27924e-21)
(15.0002 3.41297e-05 -6.15223e-21)
(15.0002 3.02639e-05 3.29169e-21)
(15.0001 2.63389e-05 6.93719e-21)
(15.0001 2.27384e-05 -2.80968e-21)
(15.0001 1.93709e-05 8.86997e-22)
(15.0001 1.60194e-05 3.09588e-21)
(15.0001 1.30737e-05 -3.44766e-21)
(15.0001 1.03988e-05 2.04312e-21)
(15.0001 8.19338e-06 9.22396e-22)
(15.0001 6.0955e-06 1.309e-21)
(15.0001 3.85619e-06 -6.28903e-22)
(15 1.63686e-06 -4.14547e-22)
(15 6.09609e-07 2.07028e-22)
(15 6.98407e-08 -2.43904e-23)
(14.9992 4.75844e-06 3.50603e-23)
(14.9997 1.15983e-05 -3.95853e-22)
(14.9998 6.67517e-06 -9.83643e-23)
(14.9997 1.11143e-05 -1.64347e-21)
(14.9997 2.03812e-05 2.33778e-21)
(14.9996 2.94112e-05 -1.74785e-21)
(14.9996 3.68292e-05 -3.76659e-21)
(14.9996 4.40108e-05 1.4158e-22)
(14.9996 5.14696e-05 1.28905e-21)
(14.9996 5.95165e-05 3.02356e-22)
(14.9996 6.76764e-05 -4.34893e-21)
(14.9996 7.6054e-05 2.32816e-21)
(14.9996 8.48252e-05 7.02741e-21)
(14.9995 9.37366e-05 -4.73736e-21)
(14.9995 0.000103061 1.95699e-20)
(14.9995 0.000112519 1.71227e-21)
(14.9995 0.000122107 -1.29084e-20)
(14.9995 0.000132053 -1.79012e-21)
(14.9995 0.000141958 8.54523e-21)
(14.9995 0.000151995 -3.72208e-23)
(14.9995 0.000162095 -4.57405e-21)
(14.9995 0.000172417 -1.60062e-20)
(14.9995 0.000182573 -1.13779e-20)
(14.9995 0.000192946 -3.52895e-23)
(14.9995 0.000203165 -5.28517e-21)
(14.9995 0.00021361 1.07807e-20)
(14.9995 0.000224015 4.51722e-22)
(14.9995 0.000234323 3.33156e-22)
(14.9995 0.000244647 -6.35736e-21)
(14.9995 0.000254977 -6.04792e-21)
(14.9995 0.000265296 6.06532e-21)
(14.9995 0.000275487 3.14269e-22)
(14.9995 0.00028572 -1.94412e-20)
(14.9995 0.000295926 5.15775e-20)
(14.9995 0.000305872 6.83681e-21)
(14.9995 0.000315935 1.27511e-20)
(14.9995 0.000325778 -1.39058e-20)
(14.9995 0.000335626 -2.47014e-22)
(14.9995 0.000345624 1.29151e-20)
(14.9995 0.000355209 3.2199e-20)
(14.9995 0.000364949 2.02519e-20)
(14.9995 0.000374448 -2.65821e-21)
(14.9995 0.000383784 1.23916e-20)
(14.9995 0.000393099 0)
(14.9995 0.000402377 4.4802e-21)
(14.9995 0.000411415 -7.89777e-21)
(14.9995 0.000420596 2.76994e-20)
(14.9995 0.000429454 -1.54542e-20)
(14.9995 0.000438068 -2.78579e-20)
(14.9995 0.000446813 8.01321e-21)
(14.9995 0.000455355 1.1586e-20)
(14.9996 0.000463792 5.79056e-21)
(14.9996 0.00047199 3.88006e-20)
(14.9996 0.000480333 1.94947e-20)
(14.9996 0.000488315 -9.11283e-23)
(14.9996 0.000496203 6.55505e-21)
(14.9996 0.000504012 -8.51891e-21)
(14.9996 0.000511666 -1.74696e-20)
(14.9996 0.000519075 2.87519e-20)
(14.9996 0.000526544 1.97237e-20)
(14.9996 0.000533757 7.4072e-22)
(14.9996 0.000540728 0)
(14.9996 0.000547754 9.24148e-21)
(14.9996 0.000554512 -9.027e-21)
(14.9996 0.00056118 1.78582e-20)
(14.9997 0.000567681 5.15807e-23)
(14.9997 0.000574032 -6.60202e-23)
(14.9997 0.000580378 -1.72935e-20)
(14.9997 0.000586429 -1.85901e-20)
(14.9997 0.00059231 3.90292e-24)
(14.9997 0.000598022 1.86614e-20)
(14.9997 0.000603666 1.88638e-20)
(14.9997 0.00060909 -9.44323e-21)
(14.9997 0.000614308 4.10262e-21)
(14.9997 0.000619562 -9.50537e-21)
(14.9997 0.000624558 -1.59347e-20)
(14.9998 0.000629283 6.11204e-21)
(14.9998 0.000634113 9.63536e-21)
(14.9998 0.000638581 1.53308e-20)
(14.9998 0.000642913 -5.37152e-21)
(14.9998 0.00064698 1.488e-20)
(14.9998 0.000651059 4.91049e-21)
(14.9998 0.000654937 -2.42981e-20)
(14.9998 0.000658705 -9.8848e-21)
(14.9998 0.000662146 9.88972e-21)
(14.9998 0.000665448 1.7696e-20)
(14.9999 0.000668726 -2.27188e-24)
(14.9999 0.000671774 9.98976e-21)
(14.9999 0.000674607 2.47047e-23)
(14.9999 0.000677297 -1.29001e-20)
(14.9999 0.000679952 -1.26497e-20)
(14.9999 0.000682321 -2.25284e-20)
(14.9999 0.000684463 1.81908e-20)
(14.9999 0.00068644 2.03351e-20)
(14.9999 0.000688275 4.53141e-21)
(15 0.000690066 3.7403e-21)
(15 0.000691529 -1.12251e-20)
(15 0.000692926 -1.02632e-20)
(15 0.000693982 -3.41156e-24)
(15 0.000694958 1.01479e-20)
(15 0.000695783 1.02034e-20)
(15 0.000696456 -3.05695e-24)
(15 0.000697047 -1.0324e-20)
(15 0.000697295 -2.06712e-20)
(15 0.000697473 7.9224e-21)
(15.0001 0.000697318 8.81232e-21)
(15.0001 0.000697115 -1.20633e-20)
(15.0001 0.000696764 -1.91359e-23)
(15.0001 0.00069624 8.02504e-21)
(15.0001 0.00069548 2.06164e-20)
(15.0001 0.000694421 -2.34998e-20)
(15.0001 0.00069332 -1.02598e-20)
(15.0001 0.000692066 -1.93437e-23)
(15.0001 0.000690582 3.71211e-21)
(15.0002 0.000688852 2.34273e-21)
(15.0002 0.000687088 8.47197e-21)
(15.0002 0.000685172 -1.02884e-20)
(15.0002 0.000682905 4.81531e-21)
(15.0002 0.000680513 1.16521e-22)
(15.0002 0.000677898 -5.33346e-21)
(15.0002 0.000675285 2.60856e-20)
(15.0002 0.000672381 -8.04864e-23)
(15.0002 0.00066932 -2.03399e-20)
(15.0003 0.000665862 -1.66215e-20)
(15.0003 0.000662501 3.6245e-23)
(15.0003 0.000658837 2.40098e-20)
(15.0003 0.000654882 -7.22429e-21)
(15.0003 0.000650948 1.01397e-20)
(15.0003 0.000646777 1.54622e-20)
(15.0003 0.000642352 -1.80388e-20)
(15.0003 0.000637834 -2.01295e-20)
(15.0003 0.000633115 2.87387e-20)
(15.0004 0.000628192 1.97507e-20)
(15.0004 0.000622928 -8.93051e-21)
(15.0004 0.000617634 -1.11649e-22)
(15.0004 0.000612156 -2.00913e-22)
(15.0004 0.000606471 -9.91617e-21)
(15.0004 0.000600663 -2.97861e-20)
(15.0004 0.000594535 5.57024e-22)
(15.0004 0.000588441 3.09737e-20)
(15.0004 0.000582054 2.05139e-20)
(15.0004 0.000575354 -1.32374e-21)
(15.0005 0.000568693 -8.85677e-23)
(15.0005 0.000561729 1.97541e-21)
(15.0005 0.00055456 0)
(15.0005 0.000547272 2.44132e-21)
(15.0005 0.000539845 9.63852e-21)
(15.0005 0.000531978 9.28355e-21)
(15.0005 0.000524239 -1.87803e-20)
(15.0005 0.000516193 -3.41102e-21)
(15.0005 0.000507991 9.11293e-21)
(15.0005 0.00049952 4.14682e-21)
(15.0005 0.000491159 1.77485e-20)
(15.0005 0.000482477 -1.3552e-20)
(15.0006 0.000473385 1.80761e-20)
(15.0006 0.000464411 -1.4125e-20)
(15.0006 0.000455117 2.33383e-20)
(15.0006 0.000445734 -2.35244e-20)
(15.0006 0.000436278 6.08858e-21)
(15.0006 0.000426586 1.43506e-20)
(15.0006 0.000416562 2.11533e-20)
(15.0006 0.000406667 8.41107e-21)
(15.0006 0.000396232 6.49247e-21)
(15.0006 0.000385921 8.55776e-21)
(15.0006 0.000375559 7.91514e-21)
(15.0006 0.000364876 -2.32442e-20)
(15.0006 0.000354276 -2.33143e-20)
(15.0006 0.000343302 8.09457e-21)
(15.0006 0.000332231 -7.80794e-21)
(15.0006 0.000321146 1.92263e-22)
(15.0006 0.000309839 -7.85339e-21)
(15.0006 0.000298448 -4.52242e-20)
(15.0006 0.000286994 3.35725e-22)
(15.0006 0.000275484 2.24848e-20)
(15.0006 0.000263781 1.53587e-20)
(15.0006 0.000251947 1.29398e-20)
(15.0006 0.000240313 -3.53151e-20)
(15.0006 0.000228403 1.42374e-20)
(15.0006 0.000216679 7.75846e-21)
(15.0006 0.000204656 1.37797e-20)
(15.0006 0.000192821 1.11668e-20)
(15.0006 0.000180971 -7.48443e-21)
(15.0006 0.000169188 -5.20936e-21)
(15.0006 0.000157254 -1.64446e-20)
(15.0006 0.000145674 -1.31265e-20)
(15.0006 0.000134157 -4.72769e-21)
(15.0006 0.000122702 -1.30496e-20)
(15.0006 0.000111667 3.18857e-21)
(15.0006 0.00010071 -3.01619e-21)
(15.0006 9.01576e-05 2.87554e-21)
(15.0006 7.97678e-05 -1.88549e-22)
(15.0005 6.94103e-05 -4.06798e-21)
(15.0005 5.97277e-05 2.93409e-21)
(15.0005 5.03165e-05 8.66601e-21)
(15.0005 4.04233e-05 -7.4695e-22)
(15.0005 2.80977e-05 -1.29007e-22)
(15.0004 1.52382e-05 -2.24262e-21)
(15.0003 9.3087e-06 1.16615e-21)
(15.0005 1.64485e-05 -1.90043e-22)
(15.0012 6.96521e-06 -1.70326e-22)
(14.9985 2.68556e-06 6.67758e-23)
(14.9993 2.2236e-05 6.26026e-23)
(14.9996 1.95788e-05 3.119e-22)
(14.9996 1.90456e-05 -9.53887e-22)
(14.9994 2.94332e-05 -9.70189e-22)
(14.9994 4.55046e-05 4.12556e-21)
(14.9993 6.05907e-05 -1.06857e-21)
(14.9993 7.41335e-05 0)
(14.9993 8.74331e-05 -8.14955e-21)
(14.9993 0.000101438 1.26483e-20)
(14.9993 0.000115775 -1.11652e-20)
(14.9992 0.000130347 2.46462e-21)
(14.9992 0.000145207 2.57826e-21)
(14.9992 0.000160349 -1.0241e-20)
(14.9992 0.000176016 7.76261e-21)
(14.9992 0.000191897 3.74832e-21)
(14.9992 0.000207931 -1.84864e-20)
(14.9992 0.000224372 -1.90849e-20)
(14.9992 0.00024085 5.77446e-21)
(14.9991 0.00025754 6.11309e-21)
(14.9991 0.00027439 2.14338e-20)
(14.9991 0.000291401 4.9386e-21)
(14.9991 0.000308422 6.44571e-21)
(14.9991 0.000325606 -1.18012e-20)
(14.9991 0.000342639 5.48585e-21)
(14.9991 0.000359885 -2.418e-20)
(14.9991 0.000377159 2.45533e-20)
(14.9991 0.000394282 5.78099e-21)
(14.9991 0.000411399 6.09395e-21)
(14.9991 0.000428586 -6.12451e-21)
(14.9991 0.000445664 -1.29039e-20)
(14.9991 0.000462716 1.93167e-20)
(14.9991 0.000479763 -3.23935e-20)
(14.9991 0.000496746 -1.99298e-20)
(14.9991 0.000513445 2.66729e-20)
(14.9991 0.000530261 2.57543e-20)
(14.9991 0.000546758 1.28721e-20)
(14.9991 0.000563202 -7.11883e-21)
(14.9991 0.000579755 5.51417e-21)
(14.9991 0.000595898 -2.54704e-20)
(14.9992 0.000612031 3.28198e-20)
(14.9992 0.000628017 7.6175e-21)
(14.9992 0.000643737 1.251e-20)
(14.9992 0.000659471 1.24283e-20)
(14.9992 0.000675015 0)
(14.9992 0.000690208 -7.87355e-21)
(14.9992 0.000705454 3.6612e-21)
(14.9992 0.000720372 2.02957e-20)
(14.9992 0.000735026 -1.6428e-20)
(14.9992 0.000749632 -1.17202e-20)
(14.9992 0.00076405 1.48704e-20)
(14.9992 0.000778312 -1.98322e-20)
(14.9993 0.000792107 -1.41055e-20)
(14.9993 0.00080601 3.07354e-20)
(14.9993 0.000819536 8.54256e-21)
(14.9993 0.000832928 1.08439e-20)
(14.9993 0.000846008 2.2952e-20)
(14.9993 0.000858913 1.64575e-21)
(14.9993 0.000871551 -1.76724e-20)
(14.9993 0.000884059 1.88169e-20)
(14.9993 0.000896261 2.78121e-20)
(14.9994 0.000908117 9.60484e-21)
(14.9994 0.000919911 9.02453e-21)
(14.9994 0.000931432 6.44183e-23)
(14.9994 0.000942661 -2.71951e-20)
(14.9994 0.000953632 1.75591e-20)
(14.9994 0.000964411 9.23748e-21)
(14.9994 0.000974976 8.39617e-21)
(14.9995 0.000985228 -1.7534e-20)
(14.9995 0.000995196 -1.11604e-23)
(14.9995 0.00100492 1.77543e-21)
(14.9995 0.0010145 -9.42294e-21)
(14.9995 0.00102377 -1.19677e-20)
(14.9995 0.00103264 1.65426e-20)
(14.9996 0.00104135 1.63884e-20)
(14.9996 0.00104989 -6.48694e-21)
(14.9996 0.00105806 -6.24491e-21)
(14.9996 0.00106601 -2.17286e-20)
(14.9996 0.00107363 4.0017e-21)
(14.9996 0.00108103 -5.4072e-21)
(14.9997 0.00108799 -1.97869e-20)
(14.9997 0.00109487 2.47973e-20)
(14.9997 0.00110146 5.17394e-22)
(14.9997 0.0011078 -1.99849e-20)
(14.9997 0.00111366 -3.33992e-23)
(14.9997 0.00111934 2.45548e-23)
(14.9998 0.00112481 -1.38082e-20)
(14.9998 0.00113004 1.01066e-20)
(14.9998 0.00113489 1.71225e-20)
(14.9998 0.00113948 2.93782e-21)
(14.9998 0.00114385 2.62999e-21)
(14.9998 0.00114783 1.37291e-23)
(14.9999 0.00115155 -1.23863e-20)
(14.9999 0.00115496 -1.8749e-20)
(14.9999 0.00115814 -1.03415e-20)
(14.9999 0.00116112 3.10317e-20)
(14.9999 0.00116362 9.36341e-21)
(15 0.00116589 -1.0389e-20)
(15 0.00116777 9.95298e-21)
(15 0.00116951 1.82598e-22)
(15 0.00117092 -1.05491e-20)
(15 0.00117198 3.83986e-22)
(15 0.00117291 0)
(15.0001 0.00117344 9.40019e-22)
(15.0001 0.00117374 -9.23706e-21)
(15.0001 0.00117354 -1.49438e-21)
(15.0001 0.00117314 1.22423e-20)
(15.0001 0.00117249 -1.45923e-20)
(15.0002 0.00117153 -1.04396e-20)
(15.0002 0.00117029 6.82093e-25)
(15.0002 0.00116865 -8.88474e-24)
(15.0002 0.00116676 2.08937e-20)
(15.0002 0.00116459 1.03882e-20)
(15.0003 0.00116203 -1.04052e-20)
(15.0003 0.00115919 1.04238e-20)
(15.0003 0.00115613 1.46958e-20)
(15.0003 0.00115286 -2.08291e-20)
(15.0003 0.00114907 -1.58706e-20)
(15.0003 0.00114501 5.24178e-21)
(15.0004 0.00114063 2.61311e-20)
(15.0004 0.00113613 5.65599e-21)
(15.0004 0.00113116 -1.62924e-20)
(15.0004 0.00112593 0)
(15.0004 0.00112033 1.0332e-20)
(15.0005 0.00111446 1.70748e-20)
(15.0005 0.00110818 -1.0282e-20)
(15.0005 0.00110169 -1.02182e-20)
(15.0005 0.001095 1.02538e-20)
(15.0005 0.00108785 -1.58502e-20)
(15.0005 0.00108034 -1.01526e-20)
(15.0006 0.00107264 1.01855e-20)
(15.0006 0.00106464 1.88234e-20)
(15.0006 0.0010563 -2.80688e-20)
(15.0006 0.00104759 -8.13021e-22)
(15.0006 0.0010386 -8.90855e-21)
(15.0006 0.00102937 9.67846e-21)
(15.0007 0.00101981 -1.99606e-20)
(15.0007 0.00100989 9.99361e-21)
(15.0007 0.000999623 2.0411e-20)
(15.0007 0.000989244 1.07861e-20)
(15.0007 0.000978437 -8.7668e-21)
(15.0007 0.000967245 -9.67485e-21)
(15.0008 0.000955855 3.1012e-20)
(15.0008 0.000944119 -9.403e-23)
(15.0008 0.000932133 -9.63225e-21)
(15.0008 0.000919743 0)
(15.0008 0.000907146 2.48455e-20)
(15.0008 0.000894068 -2.53074e-20)
(15.0009 0.000881048 0)
(15.0009 0.00086744 1.30827e-20)
(15.0009 0.000853592 -1.32942e-20)
(15.0009 0.000839463 9.38177e-21)
(15.0009 0.000825211 4.25104e-21)
(15.0009 0.000810589 1.87043e-20)
(15.0009 0.000795518 -1.29032e-22)
(15.0009 0.000780435 -2.82928e-20)
(15.001 0.00076487 8.91638e-21)
(15.001 0.000749008 -3.46208e-20)
(15.001 0.00073308 2.34394e-20)
(15.001 0.00071676 -1.4789e-20)
(15.001 0.000700183 -8.68264e-21)
(15.001 0.000683509 -1.48795e-20)
(15.001 0.000666261 6.44096e-21)
(15.001 0.000649048 2.40133e-20)
(15.001 0.000631679 -7.43653e-21)
(15.001 0.000613832 -3.97218e-20)
(15.0011 0.000596025 -3.0637e-20)
(15.0011 0.000577775 2.32868e-20)
(15.0011 0.00055934 -3.08838e-20)
(15.0011 0.000540789 0)
(15.0011 0.000522095 -2.30101e-20)
(15.0011 0.000503149 -7.64281e-21)
(15.0011 0.000484173 2.95155e-20)
(15.0011 0.000465065 -1.50888e-20)
(15.0011 0.000445645 2.29548e-20)
(15.0011 0.000426127 -2.82284e-20)
(15.0011 0.000406738 1.47306e-20)
(15.0011 0.000387023 2.04821e-20)
(15.0011 0.000367367 2.02293e-20)
(15.0011 0.000347576 1.94966e-20)
(15.0011 0.000327832 1.76546e-21)
(15.0011 0.000308135 3.61206e-22)
(15.0011 0.000288546 -7.61745e-21)
(15.0011 0.000268837 7.09639e-21)
(15.0011 0.00024947 0)
(15.001 0.000230128 -1.49992e-20)
(15.001 0.000210878 1.99807e-20)
(15.001 0.000192119 -9.34977e-21)
(15.001 0.000173538 -4.74465e-21)
(15.001 0.000155139 2.50673e-21)
(15.001 0.000136819 -1.79047e-20)
(15.001 0.000118747 2.36222e-21)
(15.0009 0.000101407 6.09524e-21)
(15.0009 8.34826e-05 1.00194e-21)
(15.0009 6.30948e-05 1.29197e-22)
(15.0008 4.09863e-05 -1.37399e-21)
(15.0006 2.66962e-05 5.5256e-22)
(15.0006 2.80287e-05 -7.60448e-23)
(15.001 3.194e-05 -8.17522e-22)
(15.0021 4.01103e-06 6.1537e-23)
(14.998 4.30959e-06 -5.8726e-23)
(14.9988 2.52826e-05 3.03816e-22)
(14.9993 3.4515e-05 0)
(14.9993 3.17857e-05 0)
(14.9992 3.7658e-05 -4.94362e-22)
(14.9991 5.66696e-05 -7.97848e-22)
(14.999 7.93299e-05 -1.76153e-21)
(14.999 0.000100052 -8.66895e-22)
(14.999 0.000119492 -2.77993e-21)
(14.999 0.00013943 4.36674e-21)
(14.9989 0.000159866 -3.03535e-21)
(14.9989 0.00018067 -2.63636e-21)
(14.9989 0.000201776 -4.08164e-21)
(14.9989 0.000223312 2.4687e-23)
(14.9988 0.000245365 -1.61786e-20)
(14.9988 0.000267702 1.20641e-20)
(14.9988 0.000290293 3.81461e-21)
(14.9988 0.000313314 5.71629e-21)
(14.9988 0.000336519 -1.43702e-20)
(14.9988 0.00035995 6.10985e-21)
(14.9988 0.000383497 -2.17996e-20)
(14.9988 0.000407321 1.83953e-22)
(14.9988 0.000431224 4.81813e-21)
(14.9988 0.000455356 -6.23236e-21)
(14.9988 0.000479299 1.17418e-20)
(14.9988 0.000503448 1.67793e-22)
(14.9987 0.000527628 -2.3811e-20)
(14.9987 0.000551719 -1.26042e-20)
(14.9987 0.000575727 6.16767e-21)
(14.9987 0.000599904 2.36473e-23)
(14.9987 0.000623955 0)
(14.9987 0.000647907 1.28848e-20)
(14.9988 0.00067181 1.94584e-20)
(14.9988 0.00069566 -1.28902e-20)
(14.9988 0.000719273 -1.37219e-20)
(14.9988 0.000742877 -1.31059e-20)
(14.9988 0.000766225 -1.2837e-20)
(14.9988 0.000789483 -1.30925e-20)
(14.9988 0.000812708 1.67972e-21)
(14.9988 0.000835494 -2.56644e-20)
(14.9988 0.000858251 -2.04283e-20)
(14.9988 0.000880756 5.20877e-21)
(14.9988 0.000902992 4.9215e-21)
(14.9988 0.000925223 7.75472e-21)
(14.9988 0.000947209 1.26093e-20)
(14.9989 0.000968723 -1.06442e-22)
(14.9989 0.000990228 8.10415e-21)
(14.9989 0.00101134 2.43326e-20)
(14.9989 0.00103221 1.20172e-20)
(14.9989 0.00105285 -8.25393e-21)
(14.9989 0.00107326 1.1639e-20)
(14.9989 0.00109336 -6.28842e-21)
(14.9989 0.00111312 -8.40812e-21)
(14.999 0.00113275 -8.73882e-21)
(14.999 0.00115192 8.71945e-21)
(14.999 0.00117091 1.31836e-20)
(14.999 0.00118942 -8.82878e-21)
(14.999 0.00120776 1.93919e-20)
(14.999 0.00122577 -1.42261e-21)
(14.9991 0.00124348 -2.93292e-20)
(14.9991 0.00126083 -9.07591e-21)
(14.9991 0.00127778 9.08259e-21)
(14.9991 0.0012945 9.21006e-21)
(14.9991 0.00131083 2.77382e-20)
(14.9992 0.00132682 -9.11949e-21)
(14.9992 0.0013425 -1.87977e-20)
(14.9992 0.00135778 6.81623e-22)
(14.9992 0.00137273 8.51872e-21)
(14.9992 0.00138738 -9.45072e-21)
(14.9993 0.00140165 8.00776e-21)
(14.9993 0.00141554 1.91692e-20)
(14.9993 0.00142905 1.52469e-20)
(14.9993 0.00144226 -2.6703e-20)
(14.9993 0.00145497 -1.68634e-20)
(14.9994 0.00146733 9.74476e-21)
(14.9994 0.00147948 3.20205e-21)
(14.9994 0.00149118 9.8209e-21)
(14.9994 0.00150243 3.76832e-21)
(14.9995 0.00151327 -1.17799e-20)
(14.9995 0.00152383 1.31976e-21)
(14.9995 0.00153389 -2.07944e-20)
(14.9995 0.00154365 1.49205e-20)
(14.9996 0.001553 -5.11954e-21)
(14.9996 0.00156202 -3.03681e-20)
(14.9996 0.00157046 5.79935e-21)
(14.9996 0.00157861 2.0372e-20)
(14.9997 0.00158637 2.02182e-23)
(14.9997 0.00159378 6.66671e-21)
(14.9997 0.00160075 -1.02233e-20)
(14.9997 0.00160732 -2.79565e-20)
(14.9998 0.00161344 2.72695e-21)
(14.9998 0.00161919 2.16582e-24)
(14.9998 0.0016246 1.0396e-20)
(14.9998 0.00162951 1.04352e-20)
(14.9999 0.00163401 5.5963e-21)
(14.9999 0.00163817 7.81218e-21)
(14.9999 0.00164175 -9.44716e-21)
(14.9999 0.00164499 -1.0537e-20)
(15 0.00164772 -1.05518e-20)
(15 0.00165026 -1.03746e-20)
(15 0.00165226 3.16787e-20)
(15 0.00165374 1.0586e-20)
(15.0001 0.001655 -1.1244e-20)
(15.0001 0.00165576 -1.05989e-20)
(15.0001 0.00165618 -1.18078e-20)
(15.0001 0.001656 1.21101e-20)
(15.0002 0.00165546 -2.48156e-20)
(15.0002 0.0016545 -1.05749e-20)
(15.0002 0.00165302 3.41434e-20)
(15.0002 0.00165117 2.1144e-20)
(15.0003 0.00164894 -1.82083e-20)
(15.0003 0.00164623 -4.04198e-21)
(15.0003 0.00164309 -3.01142e-23)
(15.0004 0.00163948 2.46816e-23)
(15.0004 0.00163548 2.11045e-20)
(15.0004 0.00163105 -4.41897e-21)
(15.0004 0.00162631 -1.51853e-20)
(15.0005 0.00162093 -5.56996e-21)
(15.0005 0.00161519 1.58216e-20)
(15.0005 0.00160898 2.09647e-20)
(15.0005 0.00160243 0)
(15.0006 0.00159532 -1.0478e-20)
(15.0006 0.00158789 -4.04744e-21)
(15.0006 0.00157998 0)
(15.0006 0.00157156 -6.94283e-21)
(15.0007 0.00156262 -7.22317e-21)
(15.0007 0.00155342 -7.49371e-21)
(15.0007 0.00154381 -1.03794e-20)
(15.0007 0.00153362 -7.99019e-21)
(15.0008 0.00152305 1.02783e-20)
(15.0008 0.00151203 -1.03237e-20)
(15.0008 0.00150054 4.80379e-23)
(15.0008 0.0014886 1.13089e-20)
(15.0009 0.00147628 9.33521e-21)
(15.0009 0.00146355 7.90759e-23)
(15.0009 0.00145032 -1.99187e-20)
(15.0009 0.00143669 -1.00571e-20)
(15.001 0.00142264 0)
(15.001 0.00140808 -1.19019e-23)
(15.001 0.0013932 -9.21591e-22)
(15.001 0.00137782 -2.24984e-20)
(15.0011 0.00136197 3.29589e-20)
(15.0011 0.00134572 1.15046e-20)
(15.0011 0.00132901 -4.34408e-20)
(15.0011 0.00131205 0)
(15.0011 0.00129447 9.79884e-21)
(15.0012 0.0012766 2.77724e-21)
(15.0012 0.00125813 3.3526e-21)
(15.0012 0.00123943 9.51621e-21)
(15.0012 0.00122025 -1.32718e-20)
(15.0012 0.00120062 0)
(15.0013 0.00118065 9.47028e-21)
(15.0013 0.00116031 -4.58865e-21)
(15.0013 0.0011396 4.7459e-21)
(15.0013 0.00111833 -3.26551e-20)
(15.0013 0.00109695 1.4539e-20)
(15.0014 0.00107491 -1.43783e-22)
(15.0014 0.00105247 -1.4581e-20)
(15.0014 0.00102992 8.80342e-21)
(15.0014 0.00100693 -8.91612e-21)
(15.0014 0.000983522 -8.68784e-21)
(15.0014 0.00095996 3.26505e-20)
(15.0014 0.00093575 8.29268e-21)
(15.0015 0.000911371 7.06422e-21)
(15.0015 0.000886749 -2.3928e-20)
(15.0015 0.000861681 -3.19703e-20)
(15.0015 0.000836461 2.38618e-20)
(15.0015 0.000810811 -7.872e-21)
(15.0015 0.000784942 1.60904e-22)
(15.0015 0.000758861 7.62092e-21)
(15.0015 0.000732498 0)
(15.0015 0.000705817 3.08737e-20)
(15.0015 0.000679173 -1.53409e-20)
(15.0015 0.000652252 -1.52139e-20)
(15.0015 0.000625043 -3.00782e-20)
(15.0015 0.000597685 -7.97415e-21)
(15.0015 0.000570391 2.11362e-20)
(15.0015 0.000542666 -1.43151e-20)
(15.0015 0.00051502 -6.202e-21)
(15.0015 0.000487265 -1.35117e-20)
(15.0015 0.000459641 -2.11353e-20)
(15.0015 0.000431943 2.03129e-20)
(15.0015 0.000404299 2.04435e-22)
(15.0015 0.000376651 -2.1293e-22)
(15.0015 0.000349304 1.15042e-20)
(15.0015 0.000322038 1.47658e-20)
(15.0015 0.000294866 5.92221e-21)
(15.0015 0.000268097 1.98078e-21)
(15.0015 0.000241611 -8.05494e-21)
(15.0014 0.000215219 -7.71142e-21)
(15.0014 0.000189001 1.92216e-22)
(15.0014 0.000163149 7.63838e-21)
(15.0013 0.00013762 -9.39688e-21)
(15.0013 0.000109899 3.78802e-21)
(15.0012 7.89982e-05 1.43343e-23)
(15.0011 5.2862e-05 0)
(15.0009 4.51352e-05 -5.73712e-22)
(15.0011 4.96777e-05 -7.18245e-22)
(15.0017 3.64611e-05 1.27015e-22)
(15.0028 6.39551e-06 9.0903e-23)
(14.9976 4.32694e-06 -9.55906e-23)
(14.9983 2.65432e-05 -4.54122e-22)
(14.9989 4.73906e-05 0)
(14.9991 4.89915e-05 9.91132e-22)
(14.999 4.93275e-05 5.09586e-22)
(14.9989 6.60057e-05 -1.31442e-21)
(14.9988 9.3686e-05 -2.78987e-21)
(14.9987 0.00012192 -1.21959e-21)
(14.9987 0.000148036 1.04035e-21)
(14.9986 0.00017402 -5.02547e-21)
(14.9986 0.000200507 7.77852e-21)
(14.9986 0.000227447 -3.93625e-21)
(14.9985 0.00025476 9.64317e-21)
(14.9985 0.000282613 -2.80481e-23)
(14.9985 0.000310976 4.93665e-21)
(14.9985 0.000339807 -3.59944e-21)
(14.9985 0.000368949 1.83869e-20)
(14.9985 0.000398464 1.35712e-20)
(14.9984 0.000428303 -3.97307e-21)
(14.9984 0.000458552 -3.41986e-22)
(14.9984 0.000488948 -5.95858e-21)
(14.9984 0.000519542 -4.96534e-21)
(14.9984 0.000550378 -1.15041e-20)
(14.9984 0.000581403 -5.13541e-21)
(14.9984 0.0006123 -1.21316e-20)
(14.9984 0.000643383 2.34016e-20)
(14.9984 0.000674588 -6.55574e-21)
(14.9984 0.000705728 -1.25858e-20)
(14.9984 0.000736748 -1.26954e-20)
(14.9984 0.000768032 -1.89685e-20)
(14.9984 0.000799085 -6.45715e-21)
(14.9984 0.000830067 0)
(14.9984 0.000860985 -1.95989e-20)
(14.9984 0.00089181 -1.31725e-20)
(14.9984 0.000922449 6.97932e-22)
(14.9984 0.000953035 -6.06861e-21)
(14.9984 0.000983315 -1.31362e-20)
(14.9984 0.00101348 -2.0279e-20)
(14.9984 0.00104349 -1.3192e-20)
(14.9984 0.0010731 2.61527e-20)
(14.9984 0.00110263 -2.16332e-21)
(14.9985 0.00113196 -2.06209e-20)
(14.9985 0.00116087 -5.13197e-21)
(14.9985 0.00118969 1.16002e-22)
(14.9985 0.00121828 -1.03876e-22)
(14.9985 0.00124626 -1.2445e-20)
(14.9985 0.00127413 1.2324e-20)
(14.9985 0.00130171 -1.22049e-20)
(14.9986 0.00132884 1.20986e-20)
(14.9986 0.00135573 1.15474e-22)
(14.9986 0.00138234 8.29612e-21)
(14.9986 0.00140847 1.19758e-20)
(14.9986 0.0014343 2.87188e-21)
(14.9986 0.00145984 -2.74244e-21)
(14.9987 0.00148486 2.59627e-21)
(14.9987 0.0015096 1.10332e-20)
(14.9987 0.00153383 -1.0859e-20)
(14.9987 0.00155772 -1.08516e-20)
(14.9988 0.00158121 1.96199e-20)
(14.9988 0.00160431 0)
(14.9988 0.00162698 -1.0188e-20)
(14.9988 0.00164925 -1.99659e-20)
(14.9988 0.00167107 9.7722e-21)
(14.9989 0.00169235 -9.56359e-21)
(14.9989 0.0017133 1.87201e-20)
(14.9989 0.00173385 9.38968e-21)
(14.999 0.00175382 8.9805e-21)
(14.999 0.00177334 -8.84787e-22)
(14.999 0.00179247 -9.55052e-21)
(14.999 0.00181121 -1.65169e-20)
(14.9991 0.00182943 8.05961e-21)
(14.9991 0.001847 7.70993e-21)
(14.9991 0.00186424 2.29375e-21)
(14.9991 0.001881 -7.28226e-21)
(14.9992 0.00189723 -4.22077e-21)
(14.9992 0.00191304 -6.74187e-21)
(14.9992 0.00192833 -6.58767e-21)
(14.9993 0.0019431 1.63021e-20)
(14.9993 0.00195733 -2.00527e-20)
(14.9993 0.00197117 -7.66758e-23)
(14.9994 0.00198446 1.01931e-20)