/*--------------------------------*- C++ -*----------------------------------*\
  =========                 |
  \\      /  F ield         | OpenFOAM: The Open Source CFD Toolbox
   \\    /   O peration     | Website:  https://openfoam.org
    \\  /    A nd           | Version:  8
     \\/     M anipulation  |
\*---------------------------------------------------------------------------*/
FoamFile
{
    version     2.0;
    format      ascii;
    class       volScalarField;
    location    "1.1";
    object      p;
}
// * * * * * * * * * * * * * * * * * * * * * * * * * * * * * * * * * * * * * //

dimensions      [0 2 -2 0 0 0 0];

internalField   nonuniform List<scalar> 
277560
(
0.000121558
0.000391822
0.000682474
0.000962678
0.00123963
0.00151388
0.00178534
0.00205408
0.00232025
0.00258376
0.00284497
0.00310341
0.00335952
0.00361306
0.00386437
0.00411333
0.0043602
0.0046049
0.00484767
0.00508841
0.00532735
0.0055644
0.00579985
0.0060336
0.00626593
0.0064967
0.00672627
0.00695445
0.00718165
0.00740765
0.0076329
0.00785718
0.00808092
0.00830389
0.00852656
0.00874868
0.00897074
0.00919248
0.0094144
0.00963623
0.00985847
0.0100809
0.0103039
0.0105273
0.0107516
0.0109765
0.0112025
0.0114294
0.0116575
0.0118867
0.0121175
0.0123495
0.0125833
0.0128185
0.0130557
0.0132945
0.0135356
0.0137784
0.0140237
0.014271
0.0145208
0.0147729
0.0150278
0.0152851
0.0155454
0.0158083
0.0160743
0.0163431
0.0166153
0.0168905
0.0171693
0.0174512
0.0177368
0.0180259
0.0183189
0.0186154
0.018916
0.0192205
0.0195292
0.0198419
0.0201591
0.0204805
0.0208065
0.0211369
0.0214722
0.0218121
0.022157
0.0225067
0.0228617
0.0232217
0.0235871
0.0239577
0.024334
0.0247157
0.0251033
0.0254965
0.0258958
0.026301
0.0267125
0.0271301
0.0275542
0.0279846
0.0284218
0.0288656
0.0293164
0.029774
0.0302389
0.0307109
0.0311904
0.0316773
0.032172
0.0326743
0.0331847
0.0337031
0.0342298
0.0347644
0.0353081
0.0358672
0.0364422
0.0369408
0.000121861
0.000390501
0.00068038
0.000960828
0.00123773
0.001512
0.00178351
0.00205232
0.0023185
0.00258216
0.0028433
0.00310189
0.00335804
0.00361164
0.003863
0.00411203
0.00435897
0.00460375
0.00484658
0.00508742
0.00532642
0.00556358
0.0057991
0.00603295
0.00626532
0.0064962
0.00672579
0.00695409
0.00718129
0.00740742
0.00763267
0.00785709
0.00808083
0.00830394
0.0085266
0.00874886
0.0089709
0.00919277
0.00941465
0.00963661
0.0098588
0.0100813
0.0103043
0.0105278
0.010752
0.010977
0.011203
0.0114299
0.011658
0.0118873
0.0121179
0.0123501
0.0125837
0.012819
0.0130561
0.013295
0.0135359
0.0137788
0.0140239
0.0142713
0.0145209
0.0147731
0.0150278
0.0152852
0.0155452
0.0158081
0.0160739
0.0163428
0.0166147
0.01689
0.0171684
0.0174504
0.0177357
0.0180248
0.0183175
0.0186141
0.0189145
0.019219
0.0195274
0.0198402
0.0201571
0.0204786
0.0208044
0.0211349
0.0214699
0.0218098
0.0221546
0.0225044
0.0228591
0.0232192
0.0235845
0.0239553
0.0243314
0.0247133
0.0251008
0.0254943
0.0258935
0.026299
0.0267105
0.0271283
0.0275525
0.0279833
0.0284207
0.0288649
0.0293159
0.029774
0.0302392
0.0307118
0.0311916
0.0316792
0.0321743
0.0326774
0.0331884
0.0337076
0.034235
0.0347705
0.0353149
0.0358755
0.0364519
0.0369516
0.00012204
0.000390279
0.000679761
0.000959977
0.00123684
0.00151115
0.00178275
0.00205165
0.00231793
0.00258167
0.00284293
0.0031017
0.00335791
0.00361174
0.00386318
0.0041124
0.00435944
0.00460444
0.00484739
0.00508843
0.00532758
0.00556498
0.00580065
0.00603475
0.00626728
0.00649844
0.00672819
0.00695678
0.00718415
0.00741058
0.00763598
0.00786066
0.00808452
0.00830787
0.0085306
0.00875308
0.00897518
0.00919725
0.00941916
0.00964129
0.00986349
0.0100861
0.0103091
0.0105328
0.010757
0.0109821
0.011208
0.011435
0.0116631
0.0118925
0.0121231
0.0123553
0.0125889
0.0128243
0.0130613
0.0133003
0.0135411
0.0137841
0.0140291
0.0142765
0.0145261
0.0147783
0.0150329
0.0152902
0.0155502
0.0158131
0.0160788
0.0163477
0.0166195
0.0168947
0.017173
0.017455
0.0177402
0.0180293
0.0183218
0.0186184
0.0189186
0.0192231
0.0195314
0.0198441
0.020161
0.0204824
0.0208081
0.0211385
0.0214735
0.0218134
0.022158
0.0225078
0.0228625
0.0232226
0.0235878
0.0239585
0.0243347
0.0247166
0.0251041
0.0254975
0.0258968
0.0263023
0.0267139
0.0271319
0.0275561
0.0279871
0.0284246
0.028869
0.0293202
0.0297786
0.0302441
0.030717
0.0311972
0.0316852
0.0321808
0.0326845
0.033196
0.0337159
0.034244
0.0347804
0.0353256
0.0358872
0.0364647
0.0369653
0.000122377
0.000390558
0.000679781
0.000959802
0.00123668
0.00151105
0.00178273
0.00205174
0.00231813
0.00258202
0.0028434
0.00310234
0.00335878
0.00361282
0.00386444
0.00411388
0.00436111
0.00460632
0.00484948
0.00509076
0.00533014
0.00556778
0.0058037
0.00603805
0.00627086
0.00650229
0.00673236
0.00696124
0.00718896
0.0074157
0.00764148
0.00786646
0.00809069
0.00831432
0.0085374
0.00876008
0.00898245
0.00920466
0.00942677
0.00964895
0.00987131
0.010094
0.0103171
0.0105407
0.010765
0.0109901
0.0112161
0.0114431
0.0116712
0.0119005
0.0121312
0.0123633
0.012597
0.0128323
0.0130694
0.0133082
0.0135491
0.0137919
0.014037
0.0142842
0.0145339
0.0147859
0.0150405
0.0152976
0.0155576
0.0158202
0.0160859
0.0163545
0.0166263
0.0169012
0.0171796
0.0174611
0.0177464
0.0180351
0.0183276
0.0186238
0.0189241
0.0192282
0.0195365
0.0198489
0.0201657
0.0204868
0.0208125
0.0211427
0.0214777
0.0218173
0.022162
0.0225116
0.0228663
0.0232262
0.0235915
0.0239622
0.0243385
0.0247203
0.025108
0.0255014
0.025901
0.0263065
0.0267184
0.0271365
0.0275611
0.0279922
0.0284302
0.0288749
0.0293266
0.0297854
0.0302515
0.0307248
0.0312058
0.0316944
0.0321908
0.0326951
0.0332076
0.0337283
0.0342575
0.0347947
0.0353411
0.0359037
0.0364826
0.036984
0.000122841
0.000391005
0.000680132
0.000960114
0.00123708
0.00151155
0.00178335
0.00205249
0.00231906
0.00258308
0.00284469
0.00310381
0.00336054
0.0036148
0.00386675
0.0041164
0.00436394
0.00460937
0.00485284
0.00509435
0.00533406
0.00557195
0.0058082
0.00604281
0.00627598
0.00650767
0.00673813
0.00696731
0.00719546
0.00742252
0.00764877
0.00787411
0.00809883
0.00832283
0.00854642
0.00876945
0.00899228
0.00921477
0.00943725
0.00965962
0.00988224
0.010105
0.0103282
0.0105518
0.0107763
0.0110013
0.0112274
0.0114544
0.0116826
0.0119119
0.0121427
0.0123747
0.0126085
0.0128437
0.0130809
0.0133197
0.0135606
0.0138033
0.0140484
0.0142956
0.0145452
0.0147971
0.0150517
0.0153087
0.0155686
0.0158311
0.0160968
0.0163652
0.0166369
0.0169117
0.0171899
0.0174713
0.0177564
0.0180449
0.0183374
0.0186334
0.0189335
0.0192374
0.0195457
0.0198579
0.0201747
0.0204956
0.0208212
0.0211513
0.0214862
0.0218258
0.0221704
0.02252
0.0228747
0.0232346
0.0235999
0.0239706
0.0243469
0.0247288
0.0251166
0.0255101
0.0259098
0.0263155
0.0267276
0.0271458
0.0275707
0.0280021
0.0284404
0.0288854
0.0293376
0.0297967
0.0302633
0.0307371
0.0312186
0.0317077
0.0322048
0.0327097
0.0332229
0.0337443
0.0342743
0.0348124
0.0353597
0.0359232
0.0365032
0.0370055
0.000123375
0.000391548
0.000680743
0.000960814
0.00123793
0.00151255
0.00178451
0.00205383
0.00232058
0.00258485
0.00284665
0.00310607
0.00336308
0.00361768
0.00386996
0.00411993
0.0043678
0.00461355
0.00485736
0.00509921
0.00533925
0.00557749
0.00581408
0.00604905
0.00628255
0.00651461
0.00674542
0.00697499
0.00720351
0.007431
0.00765765
0.00788346
0.00810862
0.00833314
0.00855718
0.00878075
0.00900402
0.00922702
0.00944989
0.0096727
0.00989559
0.0101187
0.0103421
0.0105659
0.0107904
0.0110155
0.0112416
0.0114687
0.0116968
0.0119263
0.012157
0.0123892
0.0126229
0.0128583
0.0130953
0.0133343
0.0135751
0.0138179
0.0140629
0.0143101
0.0145596
0.0148115
0.0150659
0.015323
0.0155827
0.0158453
0.0161106
0.0163791
0.0166506
0.0169253
0.0172033
0.0174847
0.0177695
0.018058
0.0183501
0.0186461
0.0189459
0.0192499
0.0195578
0.0198701
0.0201866
0.0205076
0.0208329
0.021163
0.0214978
0.0218374
0.0221819
0.0225315
0.0228861
0.0232461
0.0236113
0.0239822
0.0243584
0.0247405
0.0251283
0.0255221
0.0259218
0.0263278
0.0267399
0.0271585
0.0275836
0.0280154
0.0284538
0.0288993
0.0293517
0.0298114
0.0302782
0.0307526
0.0312345
0.0317243
0.0322218
0.0327274
0.0332411
0.0337633
0.0342939
0.0348328
0.0353808
0.0359453
0.0365261
0.0370294
0.000123984
0.000392186
0.000681578
0.000961825
0.00123914
0.00151395
0.00178612
0.00205567
0.00232267
0.00258718
0.0028493
0.00310901
0.00336636
0.00362136
0.00387399
0.00412439
0.0043726
0.00461878
0.00486294
0.00510522
0.00534562
0.00558431
0.00582127
0.00605668
0.00629054
0.00652306
0.00675422
0.00698425
0.00721313
0.00744112
0.00766814
0.00789448
0.00812005
0.00834514
0.00856961
0.00879378
0.0090175
0.00924109
0.00946438
0.00968773
0.00991098
0.0101345
0.0103582
0.0105823
0.0108069
0.0110324
0.0112585
0.0114857
0.0117139
0.0119434
0.0121742
0.0124065
0.0126402
0.0128757
0.0131128
0.0133518
0.0135926
0.0138356
0.0140805
0.0143278
0.0145772
0.0148292
0.0150835
0.0153405
0.0156001
0.0158627
0.016128
0.0163964
0.0166677
0.0169425
0.0172202
0.0175016
0.0177863
0.0180747
0.0183666
0.0186626
0.0189623
0.0192661
0.0195739
0.0198862
0.0202025
0.0205234
0.0208487
0.0211788
0.0215135
0.0218531
0.0221976
0.0225472
0.0229018
0.0232618
0.0236271
0.023998
0.0243744
0.0247565
0.0251444
0.0255384
0.0259382
0.0263444
0.0267567
0.0271755
0.0276008
0.0280328
0.0284715
0.0289173
0.02937
0.0298299
0.0302971
0.0307719
0.0312542
0.0317443
0.0322422
0.0327483
0.0332625
0.0337851
0.0343162
0.0348556
0.0354042
0.0359693
0.0365507
0.0370547
0.000124656
0.000392891
0.000682582
0.000963073
0.00124065
0.0015157
0.00178813
0.00205796
0.00232525
0.0025901
0.00285251
0.0031126
0.00337033
0.00362573
0.00387881
0.00412966
0.0043783
0.00462492
0.00486952
0.00511226
0.00535312
0.00559226
0.00582968
0.00606555
0.00629988
0.00653285
0.00676449
0.00699497
0.00722433
0.00745276
0.00768029
0.00790709
0.00813319
0.00835875
0.00858379
0.00880844
0.00903274
0.0092568
0.00948066
0.00970446
0.00992823
0.0101521
0.0103762
0.0106007
0.0108257
0.0110513
0.0112777
0.011505
0.0117334
0.011963
0.012194
0.0124264
0.0126604
0.0128959
0.0131332
0.0133722
0.0136132
0.0138561
0.0141012
0.0143484
0.0145979
0.0148498
0.0151042
0.0153612
0.0156209
0.0158833
0.0161486
0.0164169
0.0166883
0.0169628
0.0172407
0.0175218
0.0178066
0.0180948
0.0183868
0.0186825
0.0189822
0.0192859
0.0195937
0.0199057
0.0202222
0.0205429
0.0208683
0.0211982
0.021533
0.0218725
0.0222171
0.0225666
0.0229214
0.0232813
0.0236468
0.0240176
0.0243942
0.0247763
0.0251644
0.0255584
0.0259585
0.0263647
0.0267773
0.0271962
0.0276218
0.0280539
0.028493
0.0289388
0.0293919
0.029852
0.0303195
0.0307944
0.0312771
0.0317674
0.0322657
0.032772
0.0332866
0.0338094
0.0343409
0.0348805
0.0354295
0.0359948
0.0365768
0.0370811
0.000125372
0.000393626
0.000683698
0.000964501
0.00124239
0.00151775
0.00179049
0.00206066
0.00232831
0.00259349
0.00285633
0.00311678
0.00337494
0.00363079
0.00388437
0.00413567
0.00438484
0.00463191
0.00487703
0.00512022
0.00536163
0.00560124
0.00583922
0.00607556
0.00631046
0.00654389
0.0067761
0.00700704
0.00723698
0.00746588
0.00769399
0.00792126
0.00814795
0.00837398
0.00859962
0.00882474
0.00904964
0.00927415
0.0094986
0.00972282
0.00994714
0.0101714
0.010396
0.0106208
0.0108462
0.0110721
0.0112988
0.0115264
0.0117551
0.0119849
0.0122162
0.0124488
0.012683
0.0129186
0.0131561
0.0133953
0.0136365
0.0138794
0.0141247
0.0143719
0.0146216
0.0148734
0.015128
0.0153849
0.0156447
0.015907
0.0161724
0.0164406
0.0167121
0.0169865
0.0172645
0.0175456
0.0178303
0.0181185
0.0184105
0.0187061
0.0190058
0.0193094
0.0196172
0.0199292
0.0202456
0.0205663
0.0208917
0.0212216
0.0215564
0.0218959
0.0222406
0.0225901
0.022945
0.023305
0.0236705
0.0240415
0.0244181
0.0248004
0.0251886
0.0255827
0.0259829
0.0263892
0.026802
0.0272211
0.0276468
0.0280791
0.0285183
0.0289643
0.0294175
0.0298777
0.0303454
0.0308205
0.0313033
0.0317937
0.0322922
0.0327985
0.0333132
0.0338362
0.0343678
0.0349075
0.0354566
0.0360219
0.0366039
0.0371084
0.000126111
0.000394365
0.000684895
0.000966075
0.00124435
0.00152008
0.0017932
0.00206375
0.0023318
0.00259742
0.00286065
0.00312157
0.00338019
0.00363652
0.0038906
0.00414244
0.00439214
0.00463973
0.00488538
0.00512911
0.00537106
0.00561122
0.00584975
0.00608666
0.00632211
0.00655613
0.00678889
0.00702042
0.00725092
0.00748041
0.00770908
0.00793695
0.00816419
0.00839081
0.00861697
0.00884268
0.00906807
0.00929315
0.00951805
0.0097428
0.00996752
0.0101923
0.0104173
0.0106425
0.0108683
0.0110946
0.0113217
0.0115497
0.0117787
0.012009
0.0122405
0.0124735
0.0127079
0.0129439
0.0131816
0.013421
0.0136623
0.0139056
0.0141508
0.0143983
0.014648
0.0149001
0.0151545
0.0154117
0.0156714
0.0159339
0.0161992
0.0164676
0.0167389
0.0170136
0.0172914
0.0175726
0.0178573
0.0181456
0.0184375
0.0187332
0.0190328
0.0193365
0.0196442
0.0199563
0.0202726
0.0205934
0.0209187
0.0212488
0.0215835
0.0219232
0.0222678
0.0226175
0.0229723
0.0233325
0.0236981
0.0240692
0.0244458
0.0248283
0.0252165
0.0256108
0.026011
0.0264176
0.0268303
0.0272496
0.0276753
0.0281078
0.028547
0.0289932
0.0294463
0.0299068
0.0303744
0.0308496
0.0313323
0.0318229
0.0323212
0.0328277
0.0333422
0.0338652
0.0343966
0.0349363
0.0354851
0.0360504
0.0366321
0.0371366
0.000126865
0.000395106
0.000686162
0.000967782
0.0012465
0.00152268
0.00179624
0.00206725
0.00233576
0.00260183
0.00286556
0.00312696
0.00338607
0.00364293
0.00389754
0.00414996
0.00440021
0.0046484
0.0048946
0.00513892
0.00538141
0.0056222
0.00586128
0.00609883
0.00633485
0.00656953
0.00680286
0.00703507
0.00726614
0.00749632
0.00772555
0.0079541
0.00818188
0.00840916
0.00863582
0.00886215
0.00908799
0.00931364
0.00953894
0.00976421
0.0099893
0.0102146
0.0104399
0.0106657
0.0108918
0.0111186
0.0113461
0.0115747
0.0118041
0.0120349
0.0122668
0.0125003
0.012735
0.0129714
0.0132093
0.0134492
0.0136906
0.0139342
0.0141796
0.0144273
0.0146771
0.0149294
0.0151839
0.0154412
0.015701
0.0159636
0.016229
0.0164975
0.0167689
0.0170436
0.0173215
0.0176029
0.0178875
0.018176
0.0184679
0.0187638
0.0190633
0.0193671
0.0196748
0.0199869
0.0203032
0.0206242
0.0209495
0.0212796
0.0216144
0.0219542
0.0222988
0.0226486
0.0230035
0.0233638
0.0237293
0.0241006
0.0244773
0.0248598
0.0252481
0.0256425
0.0260428
0.0264494
0.0268622
0.0272815
0.0277072
0.0281398
0.0285789
0.0290252
0.0294783
0.0299387
0.0304063
0.0308814
0.031364
0.0318545
0.0323526
0.0328589
0.0333732
0.033896
0.0344271
0.0349665
0.035515
0.0360799
0.0366611
0.0371655
0.000127628
0.000395864
0.000687516
0.00096964
0.00124888
0.00152556
0.00179964
0.00207115
0.00234018
0.00260679
0.00287102
0.00313297
0.00339264
0.00365005
0.00390524
0.00415825
0.00440911
0.00465793
0.00490472
0.00514966
0.00539276
0.00563416
0.00587388
0.00611207
0.00634874
0.00658407
0.00681807
0.00705095
0.0072827
0.00751353
0.00774345
0.00797262
0.00820106
0.00842891
0.00865618
0.00888301
0.00910939
0.00933547
0.00956127
0.00978693
0.0100125
0.0102382
0.010464
0.0106902
0.0109169
0.0111442
0.0113723
0.0116013
0.0118314
0.0120627
0.0122952
0.012529
0.0127642
0.013001
0.0132394
0.0134795
0.0137214
0.0139651
0.0142109
0.0144588
0.0147089
0.0149612
0.0152161
0.0154734
0.0157334
0.0159961
0.0162617
0.0165302
0.0168018
0.0170766
0.0173546
0.017636
0.0179209
0.0182093
0.0185015
0.0187973
0.0190971
0.0194008
0.0197087
0.0200207
0.0203373
0.0206581
0.0209836
0.0213137
0.0216487
0.0219884
0.0223332
0.022683
0.023038
0.0233983
0.0237641
0.0241352
0.0245121
0.0248946
0.0252831
0.0256773
0.0260778
0.0264843
0.0268972
0.0273164
0.0277423
0.0281746
0.0286139
0.0290599
0.029513
0.0299732
0.0304408
0.0309156
0.0313981
0.0318882
0.0323862
0.0328921
0.0334062
0.0339285
0.0344593
0.0349981
0.0355462
0.0361103
0.0366912
0.037195
0.0001284
0.000396659
0.000688977
0.000971668
0.00125149
0.00152875
0.0018034
0.00207549
0.00234509
0.00261226
0.0028771
0.00313963
0.00339989
0.0036579
0.00391371
0.00416734
0.00441887
0.0046683
0.00491578
0.00516133
0.0054051
0.00564713
0.00588755
0.00612638
0.00636378
0.00659977
0.00683453
0.00706806
0.00730059
0.00753206
0.00776272
0.00799249
0.00822163
0.00845001
0.00867791
0.00890519
0.00913214
0.00935861
0.00958492
0.00981095
0.0100371
0.0102631
0.0104895
0.0107162
0.0109435
0.0111714
0.0114002
0.0116298
0.0118606
0.0120923
0.0123254
0.0125596
0.0127954
0.0130326
0.0132715
0.0135119
0.0137542
0.0139983
0.0142445
0.0144926
0.014743
0.0149956
0.0152507
0.0155081
0.0157684
0.0160312
0.016297
0.0165657
0.0168375
0.0171124
0.0173906
0.0176721
0.0179572
0.0182458
0.0185381
0.0188341
0.019134
0.0194378
0.0197459
0.020058
0.0203746
0.0206955
0.0210212
0.0213513
0.0216864
0.0220261
0.022371
0.0227209
0.023076
0.0234363
0.0238022
0.0241733
0.0245503
0.0249328
0.0253213
0.0257155
0.026116
0.0265224
0.0269353
0.0273544
0.0277802
0.0282124
0.0286515
0.0290974
0.0295503
0.0300103
0.0304776
0.0309521
0.0314343
0.031924
0.0324217
0.0329271
0.0334408
0.0339625
0.0344928
0.035031
0.0355784
0.0361418
0.0367218
0.0372251
0.000129179
0.000397507
0.000690559
0.000973883
0.00125436
0.00153226
0.00180754
0.00208026
0.00235049
0.00261831
0.00288376
0.00314693
0.00340784
0.0036665
0.00392296
0.00417726
0.00442946
0.00467958
0.00492775
0.00517398
0.00541844
0.00566116
0.00590229
0.00614184
0.00637996
0.00661669
0.00685219
0.00708648
0.00731972
0.00755193
0.00778327
0.00801372
0.00824345
0.00847244
0.00870085
0.00892866
0.00915605
0.00938302
0.00960975
0.00983631
0.0100629
0.0102895
0.0105165
0.0107439
0.0109718
0.0112004
0.0114298
0.0116601
0.0118914
0.0121238
0.0123574
0.0125923
0.0128285
0.0130662
0.0133055
0.0135464
0.0137891
0.0140336
0.0142801
0.0145286
0.0147793
0.0150322
0.0152875
0.0155453
0.0158057
0.0160689
0.0163348
0.0166038
0.0168757
0.0171509
0.0174293
0.0177111
0.0179962
0.0182851
0.0185775
0.0188737
0.0191738
0.0194779
0.0197859
0.0200983
0.0204149
0.020736
0.0210616
0.021392
0.021727
0.022067
0.0224119
0.0227619
0.023117
0.0234775
0.0238432
0.0242145
0.0245913
0.024974
0.0253623
0.0257566
0.0261569
0.0265634
0.026976
0.0273951
0.0278206
0.0282528
0.0286916
0.0291373
0.0295898
0.0300496
0.0305164
0.0309907
0.0314723
0.0319617
0.0324587
0.0329637
0.0334766
0.0339979
0.0345273
0.0350649
0.0356114
0.0361741
0.036753
0.0372558
0.000129965
0.000398421
0.000692276
0.000976297
0.0012575
0.0015361
0.00181208
0.00208549
0.00235641
0.0026249
0.00289106
0.00315491
0.0034165
0.00367585
0.003933
0.00418801
0.00444091
0.00469178
0.00494064
0.00518763
0.0054328
0.00567628
0.00591812
0.00615846
0.00639732
0.00663486
0.00687108
0.00710617
0.00734011
0.00757308
0.00780504
0.00803619
0.00826646
0.00849607
0.00872493
0.0089533
0.0091811
0.00940863
0.00963581
0.00986298
0.0100901
0.0103175
0.010545
0.0107732
0.0110018
0.0112312
0.0114612
0.0116923
0.0119242
0.0121572
0.0123913
0.0126268
0.0128635
0.0131018
0.0133414
0.0135829
0.0138259
0.0140709
0.0143177
0.0145667
0.0148176
0.015071
0.0153265
0.0155847
0.0158453
0.0161088
0.016375
0.0166443
0.0169165
0.0171919
0.0174705
0.0177526
0.018038
0.018327
0.0186196
0.0189161
0.0192163
0.0195207
0.0198289
0.0201414
0.0204581
0.0207794
0.0211051
0.0214356
0.0217707
0.0221108
0.0224556
0.0228057
0.0231608
0.0235213
0.023887
0.0242584
0.0246351
0.0250177
0.025406
0.0258002
0.0262003
0.0266067
0.0270191
0.0274381
0.0278633
0.0282952
0.0287337
0.0291791
0.0296312
0.0300906
0.0305569
0.0310308
0.0315119
0.0320007
0.0324971
0.0330014
0.0335136
0.0340341
0.0345627
0.0350995
0.035645
0.0362067
0.0367846
0.0372867
0.000130756
0.000399416
0.000694139
0.000978924
0.00126092
0.00154029
0.00181702
0.00209118
0.00236284
0.00263209
0.00289896
0.00316356
0.00342588
0.00368597
0.00394385
0.00419959
0.00445324
0.00470487
0.00495451
0.00520228
0.00544822
0.00569248
0.0059351
0.00617623
0.00641588
0.00665421
0.00689122
0.00712707
0.00736174
0.00759539
0.00782802
0.00805976
0.00829062
0.00852074
0.00875014
0.008979
0.00920736
0.00943542
0.00966324
0.00989103
0.0101189
0.010347
0.0105754
0.0108042
0.0110336
0.0112637
0.0114945
0.0117261
0.0119587
0.0121923
0.0124271
0.0126631
0.0129004
0.0131391
0.0133793
0.0136211
0.0138647
0.0141101
0.0143574
0.0146066
0.0148581
0.0151117
0.0153677
0.0156261
0.0158872
0.0161509
0.0164175
0.016687
0.0169596
0.0172352
0.0175142
0.0177964
0.0180822
0.0183714
0.0186644
0.018961
0.0192615
0.0195659
0.0198745
0.0201871
0.020504
0.0208253
0.0211512
0.0214817
0.021817
0.022157
0.022502
0.022852
0.0232073
0.0235676
0.0239335
0.0243046
0.0246814
0.0250638
0.025452
0.025846
0.0262461
0.0266521
0.0270644
0.0274829
0.027908
0.0283394
0.0287776
0.0292225
0.0296743
0.030133
0.030599
0.0310721
0.0315527
0.0320407
0.0325366
0.03304
0.0335515
0.034071
0.0345989
0.0351345
0.0356792
0.0362396
0.0368165
0.0373176
0.000131552
0.000400498
0.000696159
0.000981777
0.00126462
0.00154483
0.00182238
0.00209735
0.00236982
0.00263984
0.00290752
0.00317288
0.00343599
0.00369685
0.00395552
0.00421204
0.00446648
0.0047189
0.00496937
0.00521794
0.00546472
0.00570977
0.00595324
0.00619516
0.00643565
0.00667474
0.00691256
0.0071491
0.00738453
0.00761879
0.00785209
0.00808436
0.00831583
0.00854644
0.00877646
0.00900583
0.00923487
0.00946352
0.00969214
0.00992063
0.0101493
0.0103782
0.0106074
0.010837
0.0110672
0.0112979
0.0115295
0.0117617
0.011995
0.0122292
0.0124646
0.0127011
0.012939
0.0131782
0.013419
0.0136613
0.0139054
0.0141511
0.0143989
0.0146485
0.0149004
0.0151544
0.0154108
0.0156696
0.0159311
0.0161951
0.0164621
0.0167319
0.0170049
0.0172808
0.0175602
0.0178427
0.0181288
0.0184182
0.0187115
0.0190083
0.0193092
0.0196137
0.0199225
0.0202353
0.0205524
0.0208738
0.0211998
0.0215303
0.0218657
0.0222057
0.0225509
0.0229008
0.0232561
0.0236164
0.0239822
0.0243532
0.0247299
0.0251121
0.0255002
0.025894
0.0262938
0.0266996
0.0271116
0.0275298
0.0279544
0.0283855
0.0288232
0.0292676
0.0297189
0.030177
0.0306424
0.0311148
0.0315947
0.0320819
0.0325769
0.0330795
0.0335901
0.0341086
0.0346355
0.03517
0.0357136
0.0362727
0.0368484
0.0373485
0.000132354
0.000401681
0.000698349
0.000984868
0.00126864
0.00154974
0.00182817
0.00210401
0.00237732
0.0026482
0.00291669
0.00318289
0.00344683
0.00370852
0.00396801
0.00422535
0.00448063
0.00473389
0.00498521
0.00523464
0.00548229
0.00572819
0.0059725
0.00621524
0.00645654
0.00669642
0.00693498
0.00717224
0.00740833
0.00764324
0.00787713
0.00811
0.00834204
0.00857327
0.00880389
0.00903396
0.00926371
0.00949317
0.00972257
0.00995193
0.0101814
0.0104111
0.0106411
0.0108715
0.0111024
0.0113339
0.0115661
0.0117991
0.012033
0.0122678
0.0125038
0.0127409
0.0129793
0.0132191
0.0134603
0.0137032
0.0139477
0.014194
0.0144421
0.0146923
0.0149445
0.015199
0.0154557
0.015715
0.0159768
0.0162414
0.0165087
0.016779
0.0170522
0.0173286
0.0176082
0.0178911
0.0181774
0.0184673
0.0187607
0.019058
0.0193589
0.0196639
0.0199727
0.0202858
0.020603
0.0209246
0.0212506
0.0215813
0.0219165
0.0222568
0.0226017
0.0229518
0.0233069
0.0236673
0.0240329
0.0244039
0.0247804
0.0251625
0.0255503
0.0259439
0.0263433
0.0267489
0.0271604
0.0275783
0.0280024
0.0284331
0.0288702
0.0293141
0.0297647
0.0302223
0.0306868
0.0311585
0.0316375
0.032124
0.0326179
0.0331196
0.0336291
0.0341466
0.0346722
0.0352057
0.0357479
0.0363059
0.0368799
0.0373791
0.000133165
0.000402975
0.000700718
0.000988205
0.00127296
0.00155503
0.00183439
0.00211115
0.00238537
0.00265713
0.00292653
0.00319361
0.00345842
0.00372098
0.00398134
0.00423956
0.00449571
0.00474985
0.00500205
0.0052524
0.00550091
0.00574771
0.00599284
0.00623643
0.0064785
0.00671916
0.00695842
0.0071964
0.0074331
0.00766868
0.00790314
0.00813669
0.00836931
0.00860129
0.00883259
0.00906352
0.00929403
0.00952443
0.00975461
0.00998488
0.0102151
0.0104457
0.0106764
0.0109076
0.0111392
0.0113715
0.0116043
0.0118381
0.0120725
0.0123081
0.0125446
0.0127824
0.0130213
0.0132617
0.0135034
0.0137468
0.0139917
0.0142385
0.0144871
0.0147378
0.0149904
0.0152453
0.0155025
0.0157623
0.0160245
0.0162895
0.0165572
0.016828
0.0171016
0.0173784
0.0176583
0.0179416
0.0182282
0.0185185
0.0188122
0.0191097
0.0194109
0.0197161
0.0200251
0.0203384
0.0206557
0.0209775
0.0213035
0.0216343
0.0219696
0.0223098
0.0226547
0.0230048
0.0233598
0.0237201
0.0240855
0.0244565
0.0248327
0.0252146
0.0256021
0.0259954
0.0263945
0.0267997
0.0272108
0.0276283
0.0280518
0.028482
0.0289184
0.0293617
0.0298115
0.0302684
0.0307321
0.031203
0.031681
0.0321665
0.0326594
0.0331601
0.0336684
0.0341848
0.0347091
0.0352413
0.0357821
0.0363387
0.0369112
0.0374093
0.000133987
0.000404396
0.000703284
0.000991802
0.0012776
0.0015607
0.00184106
0.00211879
0.00239397
0.0026667
0.00293701
0.00320503
0.00347076
0.00373425
0.00399553
0.00425467
0.00451173
0.00476678
0.0050199
0.00527116
0.00552058
0.00576827
0.00601424
0.00625863
0.00650147
0.00674286
0.00698282
0.00722147
0.00745883
0.00769506
0.0079302
0.00816444
0.00839783
0.00863059
0.00886277
0.00909455
0.00932597
0.00955721
0.00978828
0.0100194
0.0102505
0.0104818
0.0107133
0.0109453
0.0111777
0.0114106
0.0116442
0.0118785
0.0121137
0.0123498
0.012587
0.0128253
0.0130649
0.0133057
0.0135481
0.0137919
0.0140374
0.0142847
0.0145338
0.0147848
0.015038
0.0152934
0.0155511
0.0158112
0.016074
0.0163394
0.0166077
0.0168788
0.0171529
0.01743
0.0177104
0.017994
0.018281
0.0185715
0.0188656
0.0191633
0.0194648
0.0197701
0.0200795
0.0203928
0.0207104
0.0210321
0.0213584
0.021689
0.0220245
0.0223646
0.0227096
0.0230595
0.0234145
0.0237745
0.0241399
0.0245105
0.0248866
0.0252682
0.0256555
0.0260483
0.0264471
0.0268518
0.0272625
0.0276793
0.0281025
0.0285318
0.0289678
0.0294102
0.0298594
0.0303152
0.0307782
0.031248
0.0317252
0.0322095
0.0327015
0.0332008
0.033708
0.034223
0.0347461
0.0352768
0.0358163
0.0363711
0.0369422
0.0374389
0.000134829
0.000405958
0.000706059
0.000995668
0.00128258
0.00156675
0.00184818
0.00212694
0.00240315
0.00267685
0.00294818
0.00321717
0.00348387
0.00374833
0.00401058
0.00427067
0.00452868
0.00478468
0.00503873
0.0052909
0.00554124
0.00578978
0.0060366
0.00628177
0.00652537
0.00676746
0.00700814
0.00724745
0.00748554
0.00772246
0.00795841
0.00819341
0.00842772
0.00866132
0.00889446
0.00912709
0.00935946
0.00959151
0.00982351
0.0100554
0.0102874
0.0105194
0.0107518
0.0109845
0.0112176
0.0114512
0.0116856
0.0119205
0.0121564
0.0123931
0.012631
0.0128698
0.01311
0.0133514
0.0135943
0.0138386
0.0140847
0.0143324
0.014582
0.0148336
0.0150873
0.0153431
0.0156014
0.015862
0.0161253
0.0163912
0.0166599
0.0169314
0.017206
0.0174835
0.0177643
0.0180482
0.0183357
0.0186264
0.0189209
0.0192188
0.0195206
0.0198261
0.0201357
0.0204492
0.0207669
0.0210887
0.021415
0.0217457
0.0220812
0.0224212
0.0227662
0.0231159
0.0234709
0.0238307
0.024196
0.0245663
0.0249422
0.0253234
0.0257103
0.0261028
0.0265012
0.0269053
0.0273156
0.0277317
0.0281543
0.0285829
0.0290182
0.0294597
0.0299081
0.0303631
0.0308251
0.0312939
0.03177
0.0322532
0.0327439
0.033242
0.0337479
0.0342614
0.0347831
0.0353123
0.0358502
0.0364034
0.0369727
0.0374681
0.000135695
0.000407676
0.000709059
0.000999816
0.00128789
0.00157321
0.00185575
0.00213561
0.00241288
0.00268765
0.00296
0.00323003
0.00349776
0.00376322
0.00402647
0.00428755
0.00454655
0.0048035
0.00505849
0.00531157
0.0055628
0.0058122
0.00605985
0.00630578
0.00655014
0.00679295
0.00703437
0.00727442
0.0075133
0.00775104
0.00798785
0.00822378
0.00845901
0.00869355
0.00892759
0.00916115
0.00939439
0.00962734
0.00986017
0.0100929
0.0103257
0.0105586
0.0107917
0.0110251
0.011259
0.0114934
0.0117284
0.0119641
0.0122006
0.0124379
0.0126763
0.0129158
0.0131565
0.0133986
0.013642
0.0138869
0.0141334
0.0143817
0.0146318
0.0148839
0.0151381
0.0153945
0.0156532
0.0159145
0.0161782
0.0164446
0.0167138
0.0169858
0.0172607
0.0175388
0.0178199
0.0181043
0.018392
0.0186831
0.0189778
0.0192761
0.019578
0.0198838
0.0201935
0.0205073
0.020825
0.021147
0.0214733
0.0218041
0.0221394
0.0224795
0.0228243
0.0231741
0.0235287
0.0238885
0.0242533
0.0246236
0.024999
0.02538
0.0257665
0.0261586
0.0265564
0.0269601
0.0273697
0.0277854
0.0282071
0.0286352
0.0290694
0.0295103
0.0299576
0.0304118
0.0308726
0.0313405
0.0318152
0.0322973
0.0327866
0.0332835
0.0337878
0.0343001
0.03482
0.0353478
0.0358839
0.0364354
0.0370028
0.0374969
0.000136595
0.000409559
0.000712294
0.00100425
0.00129355
0.00158007
0.00186378
0.00214479
0.00242318
0.00269906
0.00297251
0.0032436
0.00351239
0.00377891
0.00404319
0.00430529
0.00456527
0.0048232
0.00507912
0.00533311
0.00558521
0.00583547
0.00608392
0.00633066
0.00657577
0.00681938
0.00706157
0.00730249
0.00754222
0.00778092
0.00801864
0.00825557
0.0084917
0.00872723
0.00896214
0.00919667
0.00943074
0.00966463
0.00989825
0.0101319
0.0103654
0.0105992
0.010833
0.0110673
0.0113018
0.0115369
0.0117726
0.012009
0.0122461
0.0124842
0.0127231
0.0129633
0.0132045
0.0134472
0.0136911
0.0139366
0.0141836
0.0144325
0.014683
0.0149357
0.0151904
0.0154475
0.0157067
0.0159685
0.0162327
0.0164997
0.0167693
0.0170419
0.0173172
0.0175957
0.0178771
0.018162
0.0184499
0.0187415
0.0190363
0.019335
0.0196371
0.0199432
0.020253
0.0205669
0.0208847
0.0212069
0.0215331
0.0218639
0.0221992
0.0225392
0.0228839
0.0232336
0.0235879
0.0239476
0.0243121
0.0246821
0.0250572
0.0254379
0.0258238
0.0262155
0.0266128
0.0270159
0.0274248
0.0278399
0.0282608
0.0286881
0.0291215
0.0295615
0.0300079
0.030461
0.0309207
0.0313874
0.031861
0.0323418
0.0328298
0.0333252
0.0338281
0.0343388
0.0348571
0.0353832
0.0359176
0.0364673
0.0370327
0.0375253
0.000137537
0.000411617
0.000715767
0.00100899
0.00129955
0.00158733
0.00187227
0.00215448
0.00243405
0.00271109
0.00298567
0.00325789
0.00352777
0.00379537
0.0040607
0.00432384
0.00458482
0.00484371
0.00510056
0.00535545
0.00560841
0.00585952
0.00610881
0.0063564
0.00660234
0.00684681
0.00708988
0.00733174
0.00757243
0.00781211
0.00805082
0.00828871
0.0085258
0.00876226
0.00899812
0.00923353
0.00946852
0.00970325
0.00993775
0.0101722
0.0104066
0.0106411
0.0108757
0.0111107
0.011346
0.0115818
0.0118182
0.0120552
0.012293
0.0125317
0.0127713
0.013012
0.0132539
0.0134971
0.0137416
0.0139876
0.0142352
0.0144846
0.0147358
0.014989
0.0152444
0.0155019
0.0157618
0.0160241
0.0162889
0.0165563
0.0168265
0.0170994
0.0173753
0.0176541
0.017936
0.0182211
0.0185095
0.0188013
0.0190965
0.0193953
0.0196978
0.0200039
0.020314
0.0206279
0.020946
0.0212681
0.0215944
0.0219251
0.0222604
0.0226002
0.0229449
0.0232942
0.0236486
0.0240078
0.0243723
0.0247417
0.0251166
0.0254966
0.0258823