/*--------------------------------*- C++ -*----------------------------------*\
  =========                 |
  \\      /  F ield         | OpenFOAM: The Open Source CFD Toolbox
   \\    /   O peration     | Website:  https://openfoam.org
    \\  /    A nd           | Version:  8
     \\/     M anipulation  |
\*---------------------------------------------------------------------------*/
FoamFile
{
    version     2.0;
    format      ascii;
    class       surfaceScalarField;
    location    "0.2";
    object      phi;
}
// * * * * * * * * * * * * * * * * * * * * * * * * * * * * * * * * * * * * * //

dimensions      [0 3 -1 0 0 0 0];

internalField   nonuniform List<scalar> 
224740
(
-0.00359969
0.0263997
-0.00840021
0.0708005
-0.0119997
0.115199
-0.0167989
0.159599
-0.0215982
0.203999
-0.0251975
0.248399
-0.028797
0.291599
-0.0323964
0.335999
-0.0359958
0.379199
-0.0395952
0.424799
-0.0419946
0.466799
-0.045594
0.511199
-0.0491933
0.555599
-0.0527927
0.597599
-0.0539921
0.640799
-0.0575914
0.685199
-0.0611907
0.727199
-0.0635901
0.770399
-0.0659894
0.812399
-0.0671888
0.854399
-0.0707881
0.897599
-0.0719874
0.938399
-0.0743868
0.980399
-0.0755861
1.0224
-0.0779854
1.0632
-0.0791847
1.104
-0.081584
1.146
-0.0827834
1.1844
-0.0839827
1.2252
-0.086382
1.266
-0.0875813
1.3044
-0.0887806
1.344
-0.08998
1.3824
-0.0899793
1.4208
-0.0911787
1.4592
-0.091178
1.4964
-0.0923774
1.5348
-0.0935767
1.572
-0.093576
1.608
-0.0947754
1.644
-0.0947748
1.68
-0.0947741
1.716
-0.0947735
1.7496
-0.0947729
1.7856
-0.0947723
1.8192
-0.0947716
1.8528
-0.094771
1.8864
-0.0935704
1.9188
-0.0935699
1.9512
-0.0935693
1.9836
-0.0923687
2.0136
-0.0923681
2.046
-0.0911676
2.0748
-0.090567
2.10564
-0.0897265
2.13468
-0.0887659
2.16336
-0.0878054
2.19168
-0.0868449
2.2194
-0.0856444
2.24652
-0.0844439
2.27304
-0.0832434
2.2992
-0.0819229
2.32464
-0.0804825
2.34948
-0.079042
2.37384
-0.0776015
2.3976
-0.0760411
2.42076
-0.0743606
2.4432
-0.0728002
2.46528
-0.0711198
2.48664
-0.0693194
2.50728
-0.067519
2.52744
-0.0655986
2.54688
-0.0636783
2.56572
-0.0616379
2.58396
-0.0595975
2.6016
-0.0576772
2.61864
-0.0555169
2.63484
-0.0533566
2.65044
-0.0511963
2.66556
-0.048916
2.67984
-0.0467557
2.69364
-0.0445954
2.7066
-0.0421952
2.71884
-0.0399149
2.73072
-0.0375147
2.74164
-0.0351145
2.75196
-0.0327142
2.76168
-0.030314
2.77068
-0.0279139
2.77896
-0.0253937
2.78652
-0.0228735
2.79348
-0.0203533
2.79972
-0.0178332
2.80536
-0.0151931
2.81004
-0.0127929
2.81436
-0.0102129
2.8178
-0.00765676
2.82058
-0.00508866
2.82266
-0.00252063
2.82404
4.74643e-05
2.82475
0.00261547
2.82475
0.00518355
2.82404
0.00775155
2.82266
0.0103076
2.82058
0.0128876
2.8178
0.0152876
2.81436
0.0179275
2.81004
0.0204475
2.80536
0.0229675
2.79972
0.0254874
2.79348
0.0280073
2.78652
0.0304072
2.77896
0.0328071
2.77068
0.035207
2.76168
0.0376068
2.75196
0.0400067
2.74164
0.0422866
2.73072
0.0446864
2.71884
0.0468462
2.7066
0.049006
2.69364
0.0512858
2.67984
0.0534456
2.66556
0.0556054
2.65044
0.0577651
2.63484
0.0596849
2.61864
0.0617246
2.6016
0.0637643
2.58396
0.0656841
2.56572
0.0676038
2.54688
0.0694034
2.52744
0.0712032
2.50728
0.0728828
2.48664
0.0744424
2.46528
0.076122
2.4432
0.0776817
2.42076
0.0791213
2.3976
0.0805609
2.37384
0.0820005
2.34948
0.08332
2.32464
0.0845197
2.2992
0.0857192
2.27304
0.0869187
2.24652
0.0878783
2.2194
0.0888378
2.19168
0.0897973
2.16336
0.0906368
2.13468
0.0912363
2.10564
0.0924357
2.0748
0.0924352
2.046
0.0936346
2.0136
0.0936341
1.9836
0.0936335
1.9512
0.094833
1.9188
0.0948323
1.8864
0.0948317
1.8528
0.0948311
1.8192
0.0948305
1.7856
0.0948299
1.7496
0.0948292
1.716
0.0948286
1.68
0.093628
1.644
0.0936273
1.608
0.0924266
1.572
0.0912259
1.5348
0.0912252
1.4964
0.0900245
1.4592
0.0900238
1.4208
0.0888231
1.3824
0.0876224
1.344
0.0864217
1.3044
0.0840209
1.266
0.0828202
1.2252
0.0816195
1.1844
0.0792187
1.146
0.0780179
1.104
0.0756172
1.0632
0.0744164
1.0224
0.0720157
0.980401
0.0708149
0.938401
0.0672141
0.897601
0.0660134
0.854401
0.0636126
0.812401
0.0612118
0.770401
0.057611
0.727201
0.0540102
0.685201
0.0528095
0.640801
0.0492087
0.597601
0.0456079
0.555601
0.0420071
0.511201
0.0396064
0.466801
0.0360055
0.424801
0.0324048
0.379201
0.0288041
0.336001
0.0252034
0.291601
0.0216025
0.248401
0.0168014
0.204001
0.0120004
0.159601
0.00839967
0.115201
0.00360043
0.0707992
0.0264004
-0.00479819
0.0311979
-0.00959856
0.0756009
-0.013199
0.1188
-0.0179979
0.164398
-0.021596
0.207597
-0.0239939
0.250797
-0.028792
0.296398
-0.0323903
0.339598
-0.0359886
0.382798
-0.0395867
0.428397
-0.0431848
0.470398
-0.0467829
0.514797
-0.0479811
0.556798
-0.0515791
0.601197
-0.0551772
0.644397
-0.0575752
0.687597
-0.0599732
0.729597
-0.0623712
0.772797
-0.0647692
0.814797
-0.0683671
0.857997
-0.0695651
0.898797
-0.073163
0.941997
-0.074361
0.981597
-0.0767589
1.0248
-0.0779569
1.0644
-0.0803548
1.1064
-0.0815527
1.1472
-0.0839506
1.1868
-0.0851486
1.2264
-0.0851466
1.266
-0.0863445
1.3056
-0.0875425
1.3452
-0.0887404
1.3836
-0.0899383
1.422
-0.0911363
1.4604
-0.0923343
1.4976
-0.0923323
1.5348
-0.0923303
1.572
-0.0935283
1.6092
-0.0935264
1.644
-0.0947244
1.6812
-0.0935225
1.7148
-0.0947205
1.7508
-0.0947187
1.7856
-0.0947167
1.8192
-0.0947149
1.8528
-0.0947131
1.8864
-0.0935113
1.9176
-0.0935095
1.9512
-0.0923077
1.9824
-0.0935059
2.0148
-0.0911043
2.0436
-0.0911025
2.0748
-0.0905008
2.10504
-0.0896592
2.13384
-0.0888175
2.16252
-0.0877359
2.1906
-0.0866544
2.21832
-0.0855728
2.24544
-0.0844913
2.27196
-0.0831698
2.29788
-0.0818484
2.32332
-0.0804069
2.34804
-0.0790855
2.37252
-0.0775242
2.39604
-0.0759628
2.4192
-0.0744014
2.44164
-0.0727202
2.4636
-0.0709189
2.48484
-0.0691177
2.50548
-0.0673166
2.52564
-0.0653953
2.54496
-0.0635942
2.56392
-0.0616732
2.58204
-0.0596321
2.59956
-0.057471
2.61648
-0.05543
2.6328
-0.0533891
2.6484
-0.0511081
2.66328
-0.0489473
2.67768
-0.0466664
2.69136
-0.0443856
2.70432
-0.0421048
2.71656
-0.0397041
2.72832
-0.0374233
2.73936
-0.0350227
2.74956
-0.032622
2.75928
-0.0301013
2.76816
-0.0277008
2.77656
-0.0253002
2.78412
-0.0227798
2.79096
-0.0202593
2.7972
-0.0177389
2.80284
-0.0152185
2.80752
-0.0126981
2.81184
-0.0101057
2.81521
-0.00754943
2.81802
-0.00498119
2.8201
-0.00242502
2.82149
0.000143173
2.82218
0.0027113
2.82218
0.00526744
2.82149
0.00783552
2.8201
0.0103916
2.81802
0.0129835
2.81521
0.0155034
2.81184
0.0180233
2.80752
0.0205433
2.80284
0.0230631
2.7972
0.025583
2.79096
0.0279826
2.78412
0.0303824
2.77656
0.0329021
2.76816
0.0353017
2.75928
0.0377014
2.74956
0.0399809
2.73936
0.0423805
2.72832
0.0446599
2.71656
0.0469395
2.70432
0.0492189
2.69136
0.0513783
2.67768
0.0536576
2.66328
0.0556969
2.6484
0.0577362
2.6328
0.0598954
2.61648
0.0619346
2.59956
0.0638538
2.58204
0.0656529
2.56392
0.0675719
2.54496
0.069371
2.52564
0.07117
2.50548
0.0729689
2.48484
0.0746479
2.4636
0.0762068
2.44164
0.0777656
2.4192
0.0793245
2.39604
0.0806433
2.37252
0.082082
2.34804
0.0834007
2.32332
0.0847194
2.29788
0.0857981
2.27196
0.0868766
2.24544
0.0879553
2.21832
0.0890338
2.1906
0.0898723
2.16252
0.0907107
2.13384
0.0913091
2.10504
0.0913075
2.0748
0.093706
2.0436
0.0925042
2.0148
0.0937025
1.9824
0.0937007
1.9512
0.0948991
1.9176
0.0948973
1.8864
0.0948954
1.8528
0.0948935
1.8192
0.0948917
1.7856
0.0936897
1.7508
0.0948878
1.7148
0.0936858
1.6812
0.0936838
1.644
0.0924817
1.6092
0.0924797
1.572
0.0924776
1.5348
0.0912755
1.4976
0.0900734
1.4604
0.0888712
1.422
0.087669
1.3836
0.0864668
1.3452
0.0852646
1.3056
0.0852624
1.266
0.0840602
1.2264
0.0816579
1.1868
0.0804556
1.1472
0.0780532
1.1064
0.076851
1.0644
0.0744486
1.0248
0.0732464
0.981603
0.0696439
0.942003
0.0684416
0.898803
0.0648392
0.858003
0.0624368
0.814803
0.0600345
0.772803
0.0576321
0.729603
0.0552297
0.687603
0.0516273
0.644403
0.0480249
0.601203
0.0468226
0.556803
0.0432202
0.514803
0.0396178
0.470403
0.0360154
0.428403
0.0324132
0.382803
0.028811
0.339603
0.0240084
0.296403
0.0216056
0.250804
0.0180028
0.207604
0.0132014
0.164402
0.00960207
0.1188
0.00480261
0.0755987
0.031203
-0.00479729
0.0359952
-0.00839591
0.0791995
-0.0131967
0.123601
-0.0167966
0.167998
-0.0203944
0.211195
-0.025191
0.255594
-0.0287876
0.299994
-0.0323846
0.343195
-0.0359817
0.386395
-0.0383788
0.430795
-0.0431756
0.475194
-0.0455725
0.517194
-0.0491693
0.560394
-0.052766
0.604794
-0.0551628
0.646794
-0.0575595
0.689994
-0.0611561
0.733194
-0.0635528
0.775194
-0.0659494
0.817194
-0.0671461
0.859194
-0.0707426
0.902394
-0.0719393
0.943194
-0.0755357
0.985194
-0.0767323
1.02599
-0.0791288
1.06679
-0.0803254
1.10759
-0.081522
1.14839
-0.0827186
1.18799
-0.0839151
1.22759
-0.0863116
1.26839
-0.0875081
1.30679
-0.0887047
1.34639
-0.0899012
1.38479
-0.0910979
1.42319
-0.0910945
1.46039
-0.092291
1.49879
-0.0922878
1.53479
-0.0934843
1.57319
-0.093481
1.60919
-0.0946777
1.64519
-0.0934745
1.67999
-0.0946712
1.71599
-0.094668
1.75079
-0.0946647
1.78559
-0.0946616
1.81919
-0.0946584
1.85279
-0.0934554
1.88519
-0.0946522
1.91879
-0.0934493
1.94999
-0.0934462
1.98239
-0.0922433
2.01359
-0.0922403
2.04359
-0.0922375
2.07479
-0.0904347
2.10323
-0.0895918
2.13299
-0.0886291
2.16156
-0.0876665
2.18964
-0.0867036
2.21736
-0.0855011
2.24424
-0.0842984
2.27076
-0.082976
2.29656
-0.0816535
2.322
-0.0804511
2.34684
-0.0788887
2.37096
-0.0774463
2.3946
-0.0758841
2.41764
-0.0742019
2.43996
-0.0725196
2.46192
-0.0708376
2.48316
-0.0691555
2.5038
-0.0672334
2.52372
-0.0654315
2.54316
-0.0633896
2.56188
-0.0614678
2.58012
-0.059546
2.59764
-0.0575041
2.61444
-0.0553424
2.63064
-0.0531809
2.64624
-0.0510192
2.66112
-0.0488578
2.67552
-0.0465764
2.68908
-0.0442949
2.70204
-0.0420135
2.71428
-0.0397323
2.72604
-0.0373311
2.73696
-0.0349299
2.74716
-0.0325288
2.75688
-0.0301278
2.76576
-0.0276067
2.77404
-0.0250859
2.7816
-0.022685
2.78856
-0.0201642
2.79468
-0.0176434
2.80032
-0.0151227
2.805
-0.0126021
2.80932
-0.0100216
2.81263
-0.00746517
2.81546
-0.00489678
2.81753
-0.00232831
2.81892
0.000240001
2.81962
0.00280823
2.81962
0.0053763
2.81892
0.00794445
2.81753
0.0105006
2.81546
0.0130806
2.81263
0.0156006
2.80932
0.0181204
2.805
0.0206401
2.80032
0.0231598
2.79468
0.0255595
2.78856
0.0280792
2.7816
0.0305986
2.77404
0.0329981
2.76576
0.0353975
2.75688
0.0377968
2.74716
0.0401961
2.73696
0.0424754
2.72604
0.0447545
2.71428
0.0470335
2.70204
0.0493125
2.68908
0.0514716
2.67552
0.0536304
2.66112
0.0557893
2.64624
0.0579481
2.63064
0.0599867
2.61444
0.0619053
2.59764
0.063824
2.58012
0.0658624
2.56188
0.0676609
2.54316
0.0695792
2.52372
0.0712575
2.5038
0.0729359
2.48316
0.0746139
2.46192
0.0762922
2.43996
0.0778502
2.41764
0.0792882
2.3946
0.0808461
2.37096
0.082044
2.34684
0.0833618
2.322
0.0846797
2.29656
0.0858773
2.27076
0.087075
2.24424
0.0880324
2.21736
0.08899
2.18964
0.0899476
2.16156
0.0907848
2.133
0.0925822
2.10324
0.0925796
2.0748
0.0925767
2.0436
0.0937739
2.01361
0.093771
1.98241
0.0949681
1.95001
0.093765
1.91881
0.094962
1.88521
0.0949589
1.85281
0.0949559
1.81921
0.0949525
1.78561
0.0949493
1.75081
0.093746
1.71601
0.0949427
1.68001
0.0937394
1.64521
0.093736
1.60921
0.0925324
1.57321
0.092529
1.53481
0.0913254
1.49881
0.0913218
1.46041
0.0901182
1.42321
0.0889146
1.38481
0.0877109
1.34641
0.0865071
1.30681
0.0841032
1.26841
0.0828995
1.22761
0.0816958
1.18801
0.0804919
1.14841
0.0792881
1.10761
0.0768842
1.06681
0.0756804
1.02601
0.0720763
0.985207
0.0708725
0.943207
0.0672684
0.902407
0.0660646
0.859207
0.0636606
0.817207
0.0612567
0.775207
0.0576526
0.733207
0.0552487
0.690007
0.0528447
0.646807
0.0492407
0.604807
0.0456367
0.560407
0.0432328
0.517207
0.0384287
0.475207
0.0360249
0.430807
0.0324212
0.386407
0.0288172
0.343207
0.0252125
0.300008
0.0204077
0.255608
0.0168047
0.211207
0.0132047
0.168002
0.00840592
0.123599
0.00480395
0.0792007
0.036007
-0.00359725
0.0395924
-0.00839366
0.0839959
-0.0131935
0.128401
-0.0167943
0.171599
-0.0215929
0.215994
-0.0251891
0.25919
-0.0287842
0.303589
-0.0323796
0.34679
-0.0359755
0.389991
-0.0395713
0.43439
-0.0419671
0.47759
-0.0455626
0.52079
-0.0491581
0.56399
-0.0515537
0.60719
-0.0551491
0.65039
-0.0575445
0.69239
-0.0599399
0.735589
-0.0623352
0.777589
-0.0659304
0.820789
-0.0683256
0.861589
-0.069521
0.903589
-0.0719161
0.945589
-0.0743112
0.987589
-0.0755065
1.02719
-0.0779016
1.06919
-0.0790968
1.10879
-0.0814919
1.15079
-0.082687
1.18919
-0.0850821
1.22999
-0.0862772
1.26959
-0.0874724
1.30799
-0.0874676
1.34639
-0.0886628
1.38599
-0.0898579
1.42439
-0.0910531
1.46159
-0.0910484
1.49879
-0.0934434
1.53719
-0.0934387
1.57319
-0.093434
1.60919
-0.0934294
1.64519
-0.0946246
1.68119
-0.0946201
1.71599
-0.0946156
1.75079
-0.094611
1.78559
-0.0946065
1.81919
-0.0946021
1.85279
-0.0945976
1.88519
-0.0933934
1.91759
-0.0933891
1.94999
-0.0933847
1.98239
-0.0921807
2.01239
-0.0921765
2.04359
-0.0909723
2.07359
-0.0903682
2.10263
-0.0895244
2.13215
-0.0885604
2.16059
-0.0877165
2.18879
-0.0865128
2.21615
-0.0854291
2.24315
-0.0842255
2.26955
-0.0830218
2.29535
-0.0816982
2.32067
-0.0802547
2.34539
-0.0788115
2.36951
-0.0773681
2.39315
-0.0756848
2.41595
-0.0742417
2.43851
-0.0725587
2.46023
-0.0707555
2.48135
-0.0689525
2.50199
-0.0671497
2.52191
-0.065347
2.54135
-0.0634242
2.55995
-0.0613816
2.57807
-0.0593389
2.59559
-0.0572966
2.61239
-0.055254
2.62859
-0.0530917
2.64407
-0.0510496
2.65907
-0.0487673
2.67324
-0.0464852
2.6868
-0.0442033
2.69976
-0.0420415
2.71212
-0.0396396
2.72364
-0.0372377
2.73456
-0.0348361
2.74476
-0.0324346
2.75448
-0.0300331
2.76336
-0.0275117
2.77152
-0.0251104
2.7792
-0.0225892
2.78604
-0.020068
2.79216
-0.0175468
2.7978
-0.015026
2.80248
-0.012385
2.80668
-0.00992431
2.81017
-0.00735549
2.81289
-0.00479894
2.81497
-0.00223045
2.81635
0.00033799
2.81705
0.00290632
2.81705
0.0054746
2.81635
0.00803082
2.81497
0.0105988
2.8129
0.0130588
2.81017
0.0156986
2.80668
0.0182185
2.80248
0.0207382
2.7978
0.0232577
2.79216
0.0257772
2.78604
0.0281766
2.7792
0.030696
2.77152
0.0330952
2.76336
0.0354944
2.75448
0.0378936
2.74476
0.0402924
2.73456
0.0426912
2.72364
0.0448501
2.71212
0.0471289
2.69976
0.0494075
2.6868
0.0516858
2.67324
0.0537244
2.65908
0.0558827
2.64408
0.0579208
2.6286
0.0599591
2.6124
0.061997
2.5956
0.0640351
2.57808
0.0659528
2.55996
0.0677507
2.54136
0.0695485
2.52193
0.071346
2.50201
0.0731433
2.48137
0.0748209
2.46025
0.0762582
2.43853
0.0779355
2.41597
0.0793725
2.39317
0.0808097
2.36953
0.0822467
2.34541
0.0835635
2.32069
0.0847602
2.29537
0.085957
2.26957
0.0870336
2.24317
0.0882302
2.21617
0.0890666
2.18881
0.090023
2.16061
0.0908594
2.13217
0.0914556
2.10265
0.0926517
2.07361
0.0926476
2.04361
0.0938439
2.01241
0.0938396
1.98241
0.0938354
1.95001
0.0950313
1.91761
0.0950269
1.88521
0.0950225
1.85281
0.095018
1.81921
0.0950134
1.78561
0.0950089
1.75081
0.0950044
1.71601
0.0937995
1.68121
0.0937947
1.64521
0.0937899
1.60921
0.0937851
1.57321
0.0913799
1.53721
0.0913749
1.49881
0.0901698
1.46161
0.0889646
1.42441
0.0877595
1.38601
0.0877543
1.34641
0.0865491
1.30801
0.0853438
1.26961
0.0829384
1.23001
0.081733
1.18921
0.0793275
1.15081
0.0781222
1.10881
0.0757167
1.06921
0.0745113
1.02721
0.0721057
0.987613
0.0697001
0.945613
0.0684947
0.903613
0.0660892
0.861613
0.0624835
0.820813
0.0600779
0.777613
0.0576724
0.735613
0.0552668
0.692413
0.0516612
0.650413
0.0492557
0.607213
0.04565
0.564013
0.0420444
0.520813
0.039639
0.477613
0.0360336
0.434412
0.0324281
0.390012
0.0288219
0.346813
0.0252153
0.303615
0.0216099
0.259214
0.0168081
0.216009
0.0132094
0.171601
0.00840922
0.128399
0.00360403
0.0840059
0.039611
-0.00479699
0.0443894
-0.00959203
0.088791
-0.01319
0.131998
-0.0167908
0.1752
-0.0203908
0.219594
-0.0251874
0.263987
-0.0287818
0.307184
-0.0323756
0.350384
-0.0359699
0.393585
-0.0395645
0.437985
-0.043159
0.481185
-0.0467533
0.524384
-0.0491477
0.566384
-0.0527418
0.610784
-0.055136
0.652784
-0.05873
0.695984
-0.0611241
0.737983
-0.0635181
0.779983
-0.0647122
0.821983
-0.0683059
0.865183
-0.0706997
0.905983
-0.0730935
0.947983
-0.0742874
0.988783
-0.0766811
1.02958
-0.077875
1.07038
-0.0802686
1.11118
-0.0814624
1.15198
-0.0826562
1.19038
-0.0838499
1.23118
-0.0850435
1.27078
-0.0862372
1.30918
-0.0886309
1.34878
-0.0898245
1.38718
-0.0898184
1.42438
-0.0910121
1.46278
-0.0922058
1.49998
-0.0921998
1.53718
-0.0921938
1.57318
-0.0933876
1.61038
-0.0933815
1.64518
-0.0933755
1.68118
-0.0945693
1.71718
-0.0945634
1.75078
-0.0945575
1.78558
-0.0945516
1.81918
-0.0933461
1.85158
-0.0933404
1.88518
-0.0945345
1.91878
-0.0933289
1.94878
-0.0921235
1.98118
-0.0921178
2.01238
-0.0909125
2.04239
-0.0909073
2.07359
-0.090302
2.10203
-0.0894568
2.13131
-0.0886116
2.15975
-0.0875265
2.18771
-0.0864417
2.21507
-0.0853568
2.24207
-0.0841521
2.26835
-0.0829473
2.29415
-0.0816227
2.31935
-0.0801783
2.34395
-0.0788537
2.36819
-0.0772893
2.39159
-0.0757251
2.41439
-0.074041
2.43683
-0.0723569
2.45855
-0.0706731
2.47967
-0.0689891
2.50031
-0.0671853
2.52011
-0.0651418
2.53931
-0.0633383
2.55815
-0.0614144
2.57615
-0.0593714
2.59355
-0.0573279
2.61035
-0.055165
2.62643
-0.0530018
2.64191
-0.0508388
2.65691
-0.0486759
2.67107
-0.0463934
2.68451
-0.0441107
2.69747
-0.0418281
2.70983
-0.0394256
2.72123
-0.0371434
2.73227
-0.0347413
2.74235
-0.032339
2.75207
-0.0298171
2.76083
-0.0275353
2.76923
-0.0248936
2.77656
-0.0224919
2.78364
-0.0199706
2.78964
-0.0174491
2.79528
-0.0149281
2.79996
-0.0124068
2.80416
-0.00981385
2.80758
-0.00726902
2.81035
-0.00470003
2.8124
-0.00213139
2.81378
0.000437174
2.81448
0.00300561
2.81448
0.00557398
2.81378
0.008142
2.8124
0.0106862
2.81035
0.0132783
2.80758
0.015798
2.80416
0.0183179
2.79996
0.0208374
2.79528
0.0233571
2.78964
0.0257564
2.78364
0.0283956
2.77656
0.0306748
2.76924
0.0331938
2.76084
0.0355925
2.75208
0.0379914
2.74236
0.0402701
2.73228
0.0426685
2.72124
0.0449468
2.70984
0.047225
2.69748
0.0495033
2.68452
0.0516613
2.67109
0.0538192
2.65693
0.0559768
2.64193
0.0581348
2.62645
0.0601721
2.61037
0.0622099
2.59357
0.0641268
2.57617
0.0659241
2.55817
0.0679613
2.53933
0.0697582
2.52013
0.071435
2.50033
0.0731119
2.47969
0.0747885
2.45857
0.076465
2.43685
0.0780214
2.41441
0.0795777
2.39161
0.0808936
2.36821
0.0823297
2.34397
0.0836457
2.31937
0.0848414
2.29417
0.0860372
2.26837
0.0871127
2.24209
0.0881883
2.21509
0.0892637
2.18773
0.0900989
2.15977
0.090934
2.13133
0.091529
2.10205
0.0915241
2.07361
0.092719
2.04241
0.0927135
2.01241
0.0939083
1.98121
0.0951029
1.94881
0.0938972
1.91882
0.0938916
1.88522
0.0950861
1.85162
0.0950802
1.81922
0.0950744
1.78562
0.0950683
1.75082
0.093862
1.71722
0.0938559
1.68122
0.0938497
1.64522
0.0926432
1.61042
0.0926371
1.57322
0.0926307
1.53722
0.0914241
1.50002
0.0902175
1.46282
0.090211
1.42442
0.0890042
1.38722
0.0865973
1.34882
0.0853905
1.30922
0.0841836
1.27082
0.0829766
1.23122
0.0817698
1.19042
0.0805628
1.15202
0.0781557
1.11122
0.0769488
1.07042
0.0745416
1.02962
0.0733346
0.98882
0.0709275
0.94802
0.0685203
0.90602
0.0649128
0.86522
0.0637058
0.82202
0.0612988
0.78002
0.0588916
0.73802
0.0552843
0.69602
0.0528772
0.65282
0.0492698
0.61082
0.0468628
0.56642
0.0432556
0.52442
0.0396485
0.48122
0.0360414
0.438019
0.0324338
0.39362
0.0288255
0.350421
0.0252176
0.307222
0.020413
0.264018
0.0168132
0.219609
0.0132145
0.1752
0.00961165
0.132002
0.00480443
0.0888131
0.0444155
-0.00479686
0.0491863
-0.00839147
0.0923856
-0.0131869
0.136794
-0.0179863
0.179999
-0.0215872
0.223194
-0.0251854
0.267585
-0.0287799
0.310778
-0.0323725
0.353977
-0.037165
0.398377
-0.0395584
0.440378
-0.0431517
0.484778
-0.045545
0.526778
-0.049138
0.569977
-0.051531
0.613177
-0.0551237
0.656376
-0.0575166
0.698376
-0.0599093
0.740376
-0.0635018
0.783576
-0.0658943
0.824376
-0.0670871
0.866376
-0.0694796
0.908375
-0.0718719
0.950375
-0.0742643
0.991175
-0.0766565
1.03198
-0.0778489
1.07158
-0.0802411
1.11357
-0.0814334
1.15317
-0.0838256
1.19277
-0.0850179
1.23237
-0.0862102
1.27197
-0.0874025
1.31038
-0.0885946
1.34997
-0.0885872
1.38718
-0.0897794
1.42558
-0.0909717
1.46398
-0.0921639
1.50118
-0.0921564
1.53718
-0.0933487
1.57438
-0.0933412
1.61038
-0.0945336
1.64638
-0.0945263
1.68118
-0.0945189
1.71718
-0.0945116
1.75078
-0.0945043
1.78558
-0.0944971
1.81918
-0.0944899
1.85158
-0.0944828
1.88518
-0.0932758
1.91758
-0.0932689
1.94878
-0.093262
1.98118
-0.0920553
2.01118
-0.0920485
2.04238
-0.0908418
2.07238
-0.0902355
2.10142
-0.089389
2.13046
-0.0884226
2.15878
-0.0874565
2.18674
-0.0864901
2.2141
-0.0852842
2.24086
-0.0840781
2.26714
-0.0828726
2.29294
-0.0815467
2.31802
-0.0802212
2.34262
-0.0786555
2.36662
-0.0770904
2.39002
-0.0756451
2.41294
-0.0740797
2.43526
-0.0723946
2.45686
-0.0707096
2.47798
-0.068785
2.49838
-0.0669805
2.51831
-0.0651755
2.53751
-0.0632512
2.55623
-0.061207
2.57411
-0.0591626
2.59151
-0.0571186
2.60831
-0.0550747
2.62439
-0.0530309
2.63987
-0.0507473
2.65463
-0.048464
2.66879
-0.0463002
2.68235
-0.0441369
2.69531
-0.0417339
2.70743
-0.0394511
2.71895
-0.0369283
2.72975
-0.0346454
2.74007
-0.0322429
2.74967
-0.0298405
2.75843
-0.0273183
2.76671
-0.0249161
2.77415
-0.0222741
2.78099
-0.0198721
2.78723
-0.0173506
2.79275
-0.0148286
2.79743
-0.0123076
2.80164
-0.00972587
2.805
-0.00715684
2.80778
-0.00459991
2.80984
-0.00203112
2.81121
0.00053758
2.81191
0.00310613
2.81191
0.00567459
2.81121
0.00823091
2.80985
0.0107991
2.80778
0.0133786
2.805
0.0158989
2.80164
0.0184181
2.79744
0.0209378
2.79276
0.0233371
2.78724
0.0259763
2.781
0.0283753
2.77416
0.0308942
2.76672
0.0332931
2.75844
0.0356917
2.74968
0.03797
2.74008
0.0404884
2.72977
0.0427667
2.71897
0.0451649
2.70745
0.0473227
2.69533
0.04948
2.68237
0.0517578
2.66881
0.0540352
2.65465
0.0560724
2.63989
0.0581096
2.62441
0.0601466
2.60833
0.0621832
2.59153
0.06422
2.57413
0.0661366
2.55625
0.0679325
2.53753
0.069729
2.51833
0.0716452
2.49841
0.0733211
2.47801
0.0749968
2.45689
0.0765522
2.43529
0.0779877
2.41297
0.0795433
2.39005
0.0810983
2.36666
0.0824135
2.34266
0.0837282
2.31806
0.0849234
2.29298
0.0861179
2.26718
0.0873126
2.2409
0.0882666
2.21414
0.0892211
2.18678
0.0901751
2.15882
0.0910091
2.1305
0.0916031
2.10146
0.0927967
2.07242
0.0927902
2.04242
0.0939839
2.01122
0.0939772
1.98122
0.0939704
1.94882
0.0951636
1.91762
0.0951566
1.88522
0.0951494
1.85162
0.0951423
1.81922
0.0951349
1.78562
0.0951276
1.75082
0.0951201
1.71722
0.0951127
1.68122
0.0939047
1.64642
0.093897
1.61043
0.092689
1.57443
0.0926811
1.53723
0.091473
1.50123
0.0902647
1.46403
0.0890565
1.42563
0.0890485
1.38723
0.08784
1.35003
0.0866316
1.31043
0.0854232
1.27203
0.0842148
1.23243
0.081806
1.19283
0.0805974
1.15323
0.0781887
1.11363
0.0769801
1.07163
0.0745712
1.03203
0.0721624
0.991228
0.0697535
0.950429
0.0673447
0.908429
0.0661363
0.866428
0.0637275
0.824429
0.0601184
0.783629
0.0577096
0.740429
0.0553009
0.698429
0.0516919
0.656429
0.0492832
0.613229
0.0456743
0.570029
0.0432658
0.526828
0.0396571
0.484828
0.0372484
0.440428
0.0324383
0.39843
0.0288283
0.354031
0.0252207
0.31083
0.0216183
0.267621
0.0180198
0.223207
0.0132191
0.180001
0.00841253
0.136808
0.00480465
0.0924209
0.0492201
-0.00359707
0.0527833
-0.00839124
0.0971797
-0.011985
0.140388
-0.0167821
0.184796
-0.0215826
0.227995
-0.0251822
0.271184
-0.0287779
0.314374
-0.0323701
0.357569
-0.0359614
0.401969
-0.0395531
0.44397
-0.0419452
0.48717
-0.0455371
0.53037
-0.0491289
0.573569
-0.0527204
0.616768
-0.0551121
0.658768
-0.0575037
0.700768
-0.0610948
0.743967
-0.0622864
0.784767
-0.0658775
0.827967
-0.0682686
0.868767
-0.0706596
0.910766
-0.0718509
0.951566
-0.0742417
0.993566
-0.0754329
1.03317
-0.0790234
1.07517
-0.0790146
1.11357
-0.0814053
1.15557
-0.0825961
1.19397
-0.083787
1.23357
-0.0849779
1.27317
-0.0873683
1.31277
-0.0873594
1.34997
-0.0897499
1.38957
-0.0909407
1.42677
-0.0909317
1.46397
-0.0909228
1.50117
-0.0921136
1.53837
-0.0933043
1.57557
-0.0932954
1.61037
-0.0932867
1.64637
-0.0944776
1.68237
-0.093269
1.71597
-0.0944599
1.75197
-0.0944513
1.78557
-0.0932428
1.81797
-0.094434
1.85277
-0.0944254
1.88517
-0.0932172
1.91637
-0.0932089
1.94877
-0.0932006
1.98117
-0.0931924
2.01117
-0.0919845
2.04117
-0.0907767
2.07117
-0.0901689
2.10081
-0.0892011
2.12949
-0.0883535
2.15793
-0.0873859
2.18577
-0.0862987
2.21301
-0.0852116
2.23977
-0.0840043
2.26593
-0.0827972
2.29173
-0.0814704
2.31669
-0.0800234
2.34118
-0.0785772
2.36518
-0.0771304
2.38858
-0.0755641
2.41138
-0.0738782
2.43358
-0.072312
2.4553
-0.0705061
2.47618
-0.0688202
2.4967
-0.0668944
2.51638
-0.0650891
2.5357
-0.0630436
2.55418
-0.0611185
2.57218
-0.0591936
2.58958
-0.0570288
2.60614
-0.0549838
2.62234
-0.0528192
2.6377
-0.0506548
2.65246
-0.0484905
2.66662
-0.0463266
2.68019
-0.0439226
2.69291
-0.041639
2.70515
-0.0392353
2.71655
-0.0369516
2.72747
-0.0345485
2.73767
-0.0321455
2.74727
-0.0297426
2.75603
-0.0272195
2.76419
-0.0248173
2.77175
-0.0222948
2.77847
-0.0197725
2.78471
-0.0172503
2.79023
-0.0147286
2.79491
-0.0120867
2.79899
-0.00962527
2.80253
-0.00706766
2.80522
-0.00449854
2.80728
-0.0019296
2.80864
0.000639238
2.80934
0.00320791
2.80934
0.00577646
2.80865
0.00834485
2.80728
0.0109007
2.80523
0.0133608
2.80254
0.0160004
2.799
0.0185202
2.79492
0.0210395
2.79024
0.0235586
2.78472
0.0260776
2.77848
0.0284769
2.77176
0.0309952
2.76421
0.0333937
2.75605
0.0357921
2.74729
0.0381904
2.73769
0.0404681
2.72749
0.0428657
2.71657
0.0451435
2.70517
0.0475408
2.69293
0.0496983
2.68021
0.0518553
2.66665
0.0540122
2.65249
0.0561689
2.63773
0.0582051
2.62237
0.0603615
2.60617
0.0622777
2.58961
0.0641938
2.57221
0.0662294
2.55422
0.0680252
2.53574
0.0699406
2.51642
0.0716157
2.49674
0.0734107
2.47622
0.0749656
2.45534
0.0766407
2.43362
0.0781952
2.41142
0.0796294
2.38862
0.081064
2.36522
0.0824978
2.34122
0.0838118
2.31674
0.0850054
2.29178
0.0861988
2.26598
0.0872724
2.23982
0.0883458
2.21306
0.0892988
2.18583
0.0901317
2.15799
0.0910844
2.12955
0.091677
2.10087
0.0928696
2.07123
0.0940621
2.04123
0.0940542
2.01123
0.0940462
1.98123
0.0940381
1.94883
0.0952301
1.91643
0.0952215
1.88523
0.0940128
1.85283
0.0952044
1.81803
0.0951957
1.78563
0.0939865
1.75203
0.0951778
1.71603
0.0939684
1.68243
0.0939594
1.64643
0.0939502
1.61043
0.0927405
1.57564
0.0915308
1.53844
0.0915214
1.50124
0.0915119
1.46404
0.0903021
1.42684
0.0878918
1.38964
0.0878822
1.35004
0.0854717
1.31284
0.0842617
1.27324
0.0830516
1.23364
0.0818415
1.19404
0.079431
1.15564
0.0794211
1.11364
0.0758104
1.07524
0.0746003
1.03324
0.0721897
0.993639
0.0709796
0.951639
0.0685691
0.910839
0.0661586
0.868839
0.0625479
0.828039
0.0613378
0.784839
0.0577271
0.744039
0.0553168
0.700839
0.0529065
0.658839
0.0492958
0.616839
0.0456854
0.573639
0.042075
0.530439
0.0396648
0.487239
0.0360537
0.444039
0.0324418
0.402042
0.0288313
0.357642
0.0252254
0.314436
0.0216252
0.271221
0.0168261
0.228006
0.012022
0.184805
0.00841295
0.140417
0.00360438
0.0972295
0.0528245
-0.00479651
0.0575799
-0.00959082
0.101974
-0.0131835
0.14398
-0.0167784
0.188391
-0.0203776
0.231594
-0.0239781
0.274785
-0.0287751
0.319171
-0.032368
0.361162
-0.0359584
0.405559
-0.0395486
0.44756
-0.0431391
0.490761
-0.0467297
0.53396
-0.0491205
0.57596
-0.051511
0.619159
-0.0551011
0.662358
-0.0574914
0.703158
-0.0598816
0.746358
-0.0634714
0.788357
-0.0646616
0.829157
-0.068251
0.872356
-0.069441
0.911957
-0.0730301
0.955156
-0.0742201
0.994756
-0.0766094
1.03556
-0.0777989
1.07636
-0.0801882
1.11596
-0.0813778
1.15676
-0.0825673
1.19516
-0.0849562
1.23595
-0.0861456
1.27436
-0.0861353
1.31276
-0.0885243
1.35235
-0.0885138
1.38956
-0.089703
1.42796
-0.0908923
1.46516
-0.0920818
1.50236
-0.0920712
1.53836
-0.0920607
1.57556
-0.0932502
1.61156
-0.0944393
1.64756
-0.0932295
1.68116
-0.0944189
1.71716
-0.0944088
1.75196
-0.0943985
1.78556
-0.0943886
1.81796
-0.0943784
1.85276
-0.0931688
1.88396
-0.0943585
1.91756
-0.093149
1.94756
-0.0919397
1.97996
-0.0919301
2.01116
-0.0919203
2.04116
-0.0907114
2.06996
-0.0901019
2.1002
-0.0892531
2.12864
-0.0884041
2.15708
-0.0873153
2.18468
-0.0863468
2.21204
-0.0851382
2.23857
-0.0840497
2.26485
-0.0826016
2.29029
-0.0812737
2.31537
-0.0799458
2.33985
-0.0786178
2.36385
-0.0770502
2.38701
-0.0754828
2.40981
-0.0739155
2.43201
-0.0721083
2.45349
-0.0704216
2.47449
-0.0686147
2.49489
-0.066808
2.51457
-0.0648817
2.53377
-0.0630752
2.55237
-0.0611493
2.57026
-0.0589831
2.58742
-0.0570574
2.60422
-0.0548919
2.62018
-0.0527266
2.63554
-0.0505617
2.6503
-0.0483963
2.66446
-0.0461118
2.6779
-0.043827
2.69062
-0.0415425
2.70286
-0.0392584
2.71426
-0.0368541
2.72506
-0.0344504
2.73526
-0.0320469
2.74487
-0.0295231
2.75351
-0.0271203
2.76179
-0.0245968
2.76923
-0.0221939
2.77607
-0.0196716
2.78219
-0.017149
2.78771
-0.014627
2.79239
-0.0121048
2.79647
-0.00951114
2.79994
-0.00695365
2.80267
-0.00439591
2.80472
-0.0018268
2.80608
0.000742177
2.80677
0.00331097
2.80677
0.00587962
2.80608
0.00843564
2.80472
0.0109919
2.80267
0.013584
2.79995
0.0161035
2.79648
0.0186233
2.7924
0.0211424
2.78772
0.0236619
2.7822
0.0260607
2.77608
0.0285789
2.76925
0.0309778
2.76181
0.0334956
2.75353
0.0358937
2.74489
0.0382917
2.73529
0.040689
2.72509
0.0429666
2.71429
0.0452436
2.70289
0.0475204
2.69065
0.0497975
2.67793
0.0519535
2.66449
0.0541102
2.65033
0.0562663
2.63558
0.0584223
2.62022
0.060338
2.60426
0.0624932
2.58746
0.0644086
2.5703
0.0662034
2.55242
0.0681185
2.53382
0.069913
2.51462
0.0717073
2.49494
0.0733818
2.47454
0.0751758
2.45354
0.0767296
2.43207
0.0782832
2.40987
0.0798367
2.38707
0.0811496
2.36391
0.0824627
2.33991
0.0837757
2.31543
0.0852085
2.29035
0.0862808
2.26491
0.0874729
2.23863
0.0884252
2.21211
0.089497
2.18475
0.0903286
2.15715
0.0911604
2.12871
0.0917514
2.10028
0.092943
2.07004
0.0929336
2.04124
0.0929243
2.01124
0.0941152
1.98004
0.0953061
1.94764
0.0940958
1.91764
0.0952864
1.88404
0.0952762
1.85284
0.0952663
1.81804
0.0952559
1.78564
0.0952457
1.75204
0.0940348
1.71724
0.0952248
1.68124
0.0940135
1.64765
0.0928026
1.61165
0.0927917
1.57565
0.0927806
1.53845
0.0915694
1.50245
0.090358
1.46525
0.0891465
1.42805
0.0891351
1.38965
0.0867232
1.35245
0.0867119
1.31285
0.0855003
1.27445
0.083088
1.23605
0.0818764
1.19525
0.0806646
1.15685
0.0782525
1.11605
0.0770406
1.07645
0.0746284
1.03565
0.0734168
0.994851
0.0698041
0.955251
0.0685924
0.912051
0.0649798
0.872452
0.0637681
0.829251
0.0601558
0.788451
0.0577438
0.746451
0.0553319
0.703251