/*--------------------------------*- C++ -*----------------------------------*\
  =========                 |
  \\      /  F ield         | OpenFOAM: The Open Source CFD Toolbox
   \\    /   O peration     | Website:  https://openfoam.org
    \\  /    A nd           | Version:  8
     \\/     M anipulation  |
\*---------------------------------------------------------------------------*/
FoamFile
{
    version     2.0;
    format      ascii;
    class       volScalarField;
    location    "0.3";
    object      p;
}
// * * * * * * * * * * * * * * * * * * * * * * * * * * * * * * * * * * * * * //

dimensions      [0 2 -2 0 0 0 0];

internalField   nonuniform List<scalar> 
262620
(
0.228316
0.228241
0.228006
0.227653
0.227193
0.226626
0.225959
0.225198
0.22435
0.223419
0.222411
0.221332
0.220186
0.218978
0.217713
0.216395
0.215028
0.213617
0.212164
0.210675
0.209152
0.207599
0.206019
0.204414
0.202788
0.201144
0.199484
0.197811
0.196127
0.194435
0.192736
0.191032
0.189324
0.187616
0.185908
0.184201
0.182499
0.1808
0.179108
0.177423
0.175746
0.174078
0.172421
0.170774
0.16914
0.167517
0.165909
0.164314
0.162734
0.161168
0.159619
0.158085
0.156568
0.155067
0.153584
0.152118
0.15067
0.149239
0.147827
0.146433
0.145057
0.1437
0.142361
0.141041
0.13974
0.138457
0.137194
0.135949
0.134722
0.133515
0.132326
0.131156
0.130004
0.128871
0.127756
0.12666
0.125582
0.124522
0.12348
0.122456
0.12145
0.120462
0.119491
0.118538
0.117603
0.116685
0.115784
0.114901
0.114034
0.113185
0.112352
0.111537
0.110738
0.109957
0.109192
0.108444
0.107712
0.106998
0.106299
0.105618
0.104952
0.104304
0.103671
0.103055
0.102455
0.101872
0.101304
0.100753
0.100218
0.0996993
0.0991958
0.0987097
0.0982385
0.0977847
0.0973458
0.0969244
0.0965178
0.0961305
0.0957629
0.0953824
0.22836
0.228285
0.228053
0.2277
0.22724
0.226674
0.226007
0.225247
0.224399
0.223469
0.222462
0.221383
0.220237
0.219029
0.217764
0.216446
0.215079
0.213668
0.212216
0.210726
0.209203
0.20765
0.206069
0.204465
0.202839
0.201194
0.199534
0.19786
0.196177
0.194484
0.192785
0.19108
0.189373
0.187664
0.185955
0.184248
0.182545
0.180846
0.179153
0.177468
0.17579
0.174122
0.172464
0.170817
0.169181
0.167559
0.165949
0.164354
0.162773
0.161207
0.159657
0.158123
0.156605
0.155104
0.15362
0.152153
0.150704
0.149273
0.14786
0.146466
0.145089
0.143731
0.142392
0.141072
0.13977
0.138487
0.137223
0.135977
0.134751
0.133543
0.132354
0.131183
0.130031
0.128897
0.127782
0.126686
0.125607
0.124547
0.123505
0.122481
0.121475
0.120487
0.119516
0.118563
0.117628
0.11671
0.115809
0.114925
0.114059
0.113209
0.112377
0.111561
0.110762
0.10998
0.109215
0.108466
0.107735
0.10702
0.106322
0.10564
0.104975
0.104326
0.103693
0.103077
0.102477
0.101892
0.101325
0.100772
0.100236
0.0997153
0.0992113
0.0987221
0.0982497
0.097792
0.0973511
0.0969247
0.0965151
0.0961217
0.0957496
0.0953627
0.22844
0.228366
0.228135
0.227783
0.227324
0.226758
0.226093
0.225333
0.224486
0.223556
0.222549
0.221471
0.220325
0.219118
0.217853
0.216535
0.215169
0.213757
0.212305
0.210815
0.209292
0.207738
0.206157
0.204552
0.202926
0.201281
0.19962
0.197946
0.196261
0.194568
0.192868
0.191163
0.189455
0.187745
0.186035
0.184327
0.182623
0.180923
0.17923
0.177543
0.175864
0.174195
0.172536
0.170887
0.169251
0.167627
0.166016
0.16442
0.162838
0.161271
0.159719
0.158183
0.156664
0.155162
0.153677
0.152209
0.150759
0.149327
0.147913
0.146517
0.145139
0.14378
0.14244
0.141119
0.139816
0.138532
0.137266
0.13602
0.134792
0.133583
0.132393
0.131221
0.130068
0.128934
0.127818
0.126721
0.125641
0.12458
0.123538
0.122513
0.121506
0.120517
0.119546
0.118592
0.117656
0.116737
0.115835
0.11495
0.114083
0.113232
0.112398
0.111581
0.110781
0.109998
0.109232
0.108482
0.10775
0.107034
0.106335
0.105653
0.104987
0.104337
0.103704
0.103087
0.102486
0.1019
0.101332
0.100778
0.100241
0.0997186
0.0992131
0.0987222
0.098248
0.0977881
0.0973447
0.0969152
0.0965021
0.0961044
0.0957268
0.0953352
0.228559
0.228486
0.228257
0.227907
0.227449
0.226885
0.22622
0.225462
0.224616
0.223687
0.222681
0.221603
0.220458
0.219251
0.217986
0.216669
0.215302
0.213891
0.212438
0.210948
0.209425
0.207871
0.206289
0.204684
0.203057
0.201411
0.199749
0.198074
0.196389
0.194695
0.192994
0.191288
0.189578
0.187867
0.186156
0.184447
0.182741
0.18104
0.179345
0.177656
0.175976
0.174305
0.172644
0.170994
0.169356
0.167731
0.166118
0.16452
0.162936
0.161367
0.159814
0.158277
0.156756
0.155252
0.153765
0.152295
0.150843
0.149409
0.147993
0.146596
0.145216
0.143856
0.142514
0.141191
0.139886
0.138601
0.137334
0.136086
0.134856
0.133646
0.132454
0.131281
0.130127
0.128991
0.127874
0.126775
0.125695
0.124633
0.123589
0.122563
0.121555
0.120565
0.119593
0.118638
0.117701
0.116781
0.115878
0.114992
0.114124
0.113272
0.112437
0.111618
0.110817
0.110032
0.109265
0.108514
0.107781
0.107064
0.106364
0.10568
0.105013
0.104362
0.103728
0.103109
0.102507
0.10192
0.101349
0.100794
0.100255
0.0997306
0.0992229
0.0987293
0.0982525
0.0977894
0.0973427
0.0969095
0.0964922
0.0960897
0.0957069
0.0953103
0.228715
0.228645
0.228418
0.22807
0.227614
0.227052
0.226389
0.225632
0.224787
0.223859
0.222854
0.221777
0.220633
0.219426
0.218162
0.216845
0.215478
0.214067
0.212614
0.211124
0.2096
0.208045
0.206463
0.204857
0.203229
0.201582
0.199919
0.198243
0.196557
0.194861
0.193159
0.191451
0.18974
0.188028
0.186315
0.184604
0.182896
0.181193
0.179496
0.177805
0.176123
0.17445
0.172787
0.171135
0.169494
0.167866
0.166252
0.164651
0.163065
0.161493
0.159938
0.158398
0.156874
0.155368
0.153879
0.152407
0.150952
0.149516
0.148098
0.146698
0.145316
0.143953
0.142609
0.141283
0.139976
0.138688
0.137419
0.136169
0.134938
0.133725
0.132531
0.131356
0.1302
0.129062
0.127943
0.126843
0.125761
0.124697
0.123651
0.122623
0.121614
0.120622
0.119648
0.118692
0.117753
0.116831
0.115927
0.115039
0.114169
0.113315
0.112478
0.111658
0.110855
0.110069
0.1093
0.108548
0.107812
0.107094
0.106392
0.105707
0.105038
0.104386
0.10375
0.10313
0.102525
0.101938
0.101364
0.100808
0.100266
0.0997407
0.0992296
0.0987347
0.0982539
0.0977891
0.0973379
0.0969025
0.0964803
0.0960749
0.0956869
0.0952876
0.228908
0.228841
0.228617
0.228272
0.227818
0.227258
0.226597
0.225842
0.224999
0.224073
0.223069
0.221993
0.220849
0.219643
0.21838
0.217062
0.215696
0.214284
0.212832
0.211341
0.209816
0.208261
0.206678
0.205071
0.203442
0.201794
0.20013
0.198452
0.196764
0.195067
0.193363
0.191654
0.189941
0.188226
0.186511
0.184798
0.183088
0.181382
0.179683
0.17799
0.176305
0.174629
0.172963
0.171308
0.169665
0.168034
0.166416
0.164813
0.163223
0.161649
0.16009
0.158548
0.157021
0.155512
0.154019
0.152544
0.151087
0.149648
0.148226
0.146823
0.145439
0.144073
0.142726
0.141397
0.140088
0.138797
0.137525
0.136272
0.135038
0.133823
0.132626
0.131449
0.13029
0.12915
0.128028
0.126925
0.125841
0.124774
0.123726
0.122697
0.121685
0.120691
0.119715
0.118756
0.117815
0.116892
0.115985
0.115096
0.114223
0.113368
0.112529
0.111707
0.110902
0.110114
0.109343
0.108588
0.107851
0.107131
0.106426
0.10574
0.105069
0.104415
0.103776
0.103154
0.102548
0.101958
0.101382
0.100823
0.100279
0.0997512
0.0992375
0.0987401
0.0982566
0.0977891
0.0973354
0.0968971
0.096472
0.0960636
0.0956726
0.0952705
0.229138
0.229075
0.228854
0.228512
0.228061
0.227504
0.226845
0.226092
0.225251
0.224326
0.223323
0.222249
0.221106
0.219901
0.218638
0.217321
0.215955
0.214543
0.21309
0.211599
0.210074
0.208518
0.206934
0.205325
0.203695
0.202046
0.20038
0.198701
0.197011
0.195311
0.193605
0.191894
0.190179
0.188462
0.186745
0.185029
0.183316
0.181607
0.179904
0.178208
0.17652
0.174841
0.173172
0.171514
0.169867
0.168233
0.166612
0.165005
0.163412
0.161834
0.160272
0.158725
0.157195
0.155682
0.154186
0.152707
0.151247
0.149804
0.148379
0.146972
0.145584
0.144215
0.142864
0.141532
0.140219
0.138924
0.137649
0.136393
0.135155
0.133937
0.132737
0.131556
0.130394
0.129251
0.128127
0.127021
0.125933
0.124864
0.123813
0.122781
0.121766
0.12077
0.119791
0.11883
0.117886
0.11696
0.116051
0.115159
0.114284
0.113426
0.112585
0.111761
0.110953
0.110163
0.109389
0.108632
0.107892
0.107169
0.106462
0.105773
0.105099
0.104442
0.103801
0.103177
0.102567
0.101975
0.101397
0.100836
0.100289
0.0997589
0.0992427
0.098743
0.0982571
0.0977875
0.0973315
0.0968912
0.0964639
0.0960535
0.0956605
0.0952572
0.229404
0.229345
0.229128
0.228789
0.228341
0.227787
0.227131
0.226381
0.225541
0.224619
0.223618
0.222544
0.221403
0.220199
0.218936
0.21762
0.216254
0.214842
0.213389
0.211897
0.210371
0.208814
0.207229
0.205619
0.203988
0.202336
0.200669
0.198988
0.197295
0.195594
0.193885
0.192171
0.190454
0.188734
0.187014
0.185295
0.183578
0.181867
0.18016
0.178461
0.176769
0.175086
0.173413
0.171751
0.170101
0.168462
0.166837
0.165226
0.163629
0.162047
0.160481
0.15893
0.157396
0.155879
0.154379
0.152896
0.151431
0.149984
0.148554
0.147144
0.145752
0.144378
0.143023
0.141687
0.14037
0.139072
0.137792
0.136532
0.135291
0.134068
0.132865
0.13168
0.130515
0.129368
0.12824
0.12713
0.126039
0.124967
0.123913
0.122877
0.121859
0.120859
0.119877
0.118913
0.117966
0.117037
0.116125
0.115231
0.114353
0.113492
0.112649
0.111821
0.111011
0.110218
0.109441
0.108681
0.107938
0.107211
0.106502
0.105808
0.105132
0.104472
0.103829
0.103201
0.10259
0.101994
0.101414
0.10085
0.100302
0.0997683
0.0992511
0.098748
0.0982611
0.097788
0.0973309
0.0968872
0.0964592
0.0960459
0.0956527
0.095248
0.229705
0.22965
0.229437
0.229102
0.228659
0.228108
0.227455
0.226707
0.22587
0.22495
0.223951
0.222879
0.221739
0.220536
0.219274
0.217958
0.216592
0.21518
0.213726
0.212234
0.210707
0.209149
0.207563
0.205952
0.204318
0.202665
0.200996
0.199312
0.197617
0.195913
0.194202
0.192485
0.190764
0.189041
0.187318
0.185595
0.183876
0.18216
0.18045
0.178746
0.17705
0.175363
0.173686
0.17202
0.170365
0.168722
0.167093
0.165477
0.163875
0.162289
0.160718
0.159162
0.157623
0.156101
0.154596
0.153109
0.151639
0.150187
0.148753
0.147338
0.145941
0.144562
0.143203
0.141862
0.14054
0.139238
0.137954
0.136689
0.135443
0.134217
0.133009
0.13182
0.13065
0.129499
0.128367
0.127253
0.126158
0.125081
0.124023
0.122984
0.121962
0.120958
0.119973
0.119005
0.118055
0.117122
0.116207
0.115309
0.114428
0.113564
0.112717
0.111887
0.111073
0.110276
0.109496
0.108732
0.107986
0.107256
0.106543
0.105846
0.105166
0.104503
0.103856
0.103226
0.102612
0.102013
0.101432
0.100865
0.100314
0.0997787
0.0992595
0.0987545
0.0982659
0.0977912
0.0973326
0.0968875
0.0964582
0.0960438
0.0956499
0.0952448
0.23004
0.22999
0.229782
0.229452
0.229012
0.228465
0.227816
0.227071
0.226237
0.225319
0.224322
0.223252
0.222113
0.220911
0.21965
0.218335
0.216969
0.215557
0.214103
0.21261
0.211082
0.209523
0.207935
0.206322
0.204687
0.203032
0.20136
0.199674
0.197976
0.196269
0.194554
0.192834
0.19111
0.189384
0.187657
0.185931
0.184207
0.182487
0.180772
0.179064
0.177364
0.175672
0.17399
0.172319
0.170659
0.169012
0.167377
0.165756
0.164149
0.162557
0.160981
0.159421
0.157876
0.156349
0.154839
0.153346
0.15187
0.150413
0.148974
0.147553
0.146151
0.144768
0.143403
0.142057
0.14073
0.139422
0.138133
0.136863
0.135613
0.134381
0.133168
0.131975
0.1308
0.129644
0.128507
0.127389
0.126289
0.125208
0.124145
0.123101
0.122075
0.121067
0.120077
0.119105
0.118151
0.117215
0.116295
0.115394
0.114509
0.113641
0.112791
0.111957
0.111139
0.110339
0.109555
0.108788
0.108038
0.107304
0.106587
0.105887
0.105204
0.104537
0.103888
0.103255
0.102638
0.102037
0.101453
0.100884
0.100332
0.0997944
0.0992735
0.0987669
0.0982769
0.0978008
0.0973411
0.0968949
0.0964646
0.0960492
0.0956546
0.0952488
0.230408
0.230365
0.230161
0.229836
0.229401
0.228858
0.228213
0.227472
0.22664
0.225725
0.22473
0.223662
0.222525
0.221324
0.220064
0.218749
0.217384
0.215972
0.214517
0.213024
0.211495
0.209934
0.208345
0.20673
0.205093
0.203435
0.201761
0.200072
0.198371
0.19666
0.194943
0.193219
0.191491
0.189761
0.18803
0.186299
0.184571
0.182847
0.181127
0.179414
0.177709
0.176012
0.174325
0.172648
0.170983
0.16933
0.16769
0.166063
0.164451
0.162853
0.161271
0.159705
0.158155
0.156621
0.155105
0.153606
0.152125
0.150662
0.149217
0.14779
0.146382
0.144993
0.143622
0.142271
0.140938
0.139625
0.13833
0.137055
0.135799
0.134561
0.133343
0.132144
0.130964
0.129803
0.128661
0.127538
0.126433
0.125347
0.124279
0.12323
0.122199
0.121186
0.120191
0.119215
0.118256
0.117315
0.116392
0.115485
0.114597
0.113725
0.11287
0.112032
0.111211
0.110407
0.109619
0.108848
0.108094
0.107357
0.106636
0.105933
0.105246
0.104577
0.103924
0.103288
0.102669
0.102066
0.101479
0.100909
0.100354
0.0998152
0.0992915
0.0987845
0.0982917
0.0978153
0.0973529
0.0969066
0.0964738
0.0960583
0.0956621
0.0952566
0.230809
0.230773
0.230575
0.230255
0.229825
0.229287
0.228645
0.227908
0.22708
0.226167
0.225175
0.224109
0.222974
0.221774
0.220515
0.219201
0.217835
0.216423
0.214968
0.213474
0.211944
0.210382
0.208792
0.207175
0.205535
0.203875
0.202198
0.200506
0.198801
0.197087
0.195366
0.193638
0.191906
0.190172
0.188436
0.186701
0.184968
0.183239
0.181514
0.179796
0.178085
0.176383
0.17469
0.173007
0.171336
0.169677
0.168031
0.166398
0.164779
0.163175
0.161587
0.160014
0.158458
0.156918
0.155395
0.15389
0.152403
0.150933
0.149482
0.148049
0.146634
0.145238
0.143861
0.142503
0.141165
0.139845
0.138544
0.137263
0.136
0.134757
0.133533
0.132328
0.131142
0.129976
0.128828
0.127698
0.126588
0.125496
0.124423
0.123368
0.122332
0.121314
0.120314
0.119333
0.118369
0.117423
0.116495
0.115584
0.114691
0.113814
0.112955
0.112113
0.111288
0.110479
0.109687
0.108912
0.108154
0.107413
0.106689
0.105982
0.105292
0.104619
0.103963
0.103324
0.102702
0.102096
0.101507
0.100934
0.100377
0.0998362
0.0993106
0.0988018
0.0983075
0.0978297
0.0973662
0.0969188
0.0964851
0.0960685
0.0956716
0.0952655
0.231243
0.231213
0.231022
0.230707
0.230283
0.229749
0.229112
0.228379
0.227555
0.226645
0.225656
0.224592
0.223458
0.22226
0.221002
0.219689
0.218324
0.216912
0.215456
0.213961
0.21243
0.210867
0.209274
0.207655
0.206013
0.20435
0.20267
0.200975
0.199267
0.197549
0.195823
0.194091
0.192355
0.190616
0.188876
0.187136
0.185397
0.183662
0.181932
0.180208
0.178492
0.176783
0.175084
0.173395
0.171718
0.170052
0.168399
0.16676
0.165135
0.163524
0.161929
0.160349
0.158786
0.157239
0.155709
0.154197
0.152703
0.151226
0.149768
0.148328
0.146906
0.145503
0.14412
0.142755
0.141409
0.140083
0.138775
0.137487
0.136218
0.134968
0.133738
0.132526
0.131334
0.130161
0.129007
0.127871
0.126755
0.125657
0.124578
0.123517
0.122475
0.121452
0.120446
0.119459
0.11849
0.117538
0.116605
0.115689
0.11479
0.113909
0.113045
0.112198
0.111368
0.110555
0.109759
0.108979
0.108217
0.107472
0.106743
0.106033
0.105339
0.104663
0.104003
0.103361
0.102735
0.102127
0.101534
0.100959
0.1004
0.099857
0.0993293
0.0988186
0.0983224
0.0978431
0.0973781
0.0969294
0.0964944
0.0960769
0.0956794
0.0952732
0.231709
0.231686
0.231501
0.231193
0.230774
0.230246
0.229614
0.228885
0.228064
0.227158
0.226172
0.22511
0.223979
0.222782
0.221526
0.220213
0.218848
0.217436
0.21598
0.214484
0.212952
0.211387
0.209792
0.208171
0.206526
0.204861
0.203177
0.201478
0.199767
0.198044
0.196314
0.194578
0.192837
0.191093
0.189348
0.187602
0.185858
0.184118
0.182381
0.180651
0.178928
0.177213
0.175508
0.173812
0.172128
0.170455
0.168795
0.167149
0.165516
0.163898
0.162296
0.160709
0.159138
0.157584
0.156047
0.154527
0.153025
0.151541
0.150075
0.148627
0.147198
0.145788
0.144397
0.143025
0.141672
0.140338
0.139023
0.137728
0.136452
0.135195
0.133957
0.132739
0.13154
0.13036
0.129199
0.128057
0.126934
0.12583
0.124744
0.123677
0.122629
0.121599
0.120588
0.119594
0.118619
0.117662
0.116722
0.115801
0.114897
0.11401
0.113141
0.112289
0.111454
0.110636
0.109835
0.109051
0.108285
0.107535
0.106802
0.106087
0.105389
0.104709
0.104046
0.103399
0.102771
0.102159
0.101564
0.100985
0.100424
0.0998783
0.0993496
0.0988358
0.0983388
0.0978565
0.0973906
0.0969391
0.0965035
0.0960836
0.0956863
0.095279
0.232205
0.232191
0.232013
0.231711
0.231299
0.230776
0.230149
0.229424
0.228608
0.227705
0.226722
0.225663
0.224534
0.223339
0.222084
0.220772
0.219407
0.217995
0.216539
0.215042
0.213509
0.211942
0.210345
0.208722
0.207074
0.205406
0.203718
0.202016
0.2003
0.198574
0.196839
0.195097
0.193351
0.191602
0.189851
0.1881
0.18635
0.184603
0.182861
0.181124
0.179394
0.177673
0.17596
0.174257
0.172565
0.170885
0.169218
0.167564
0.165924
0.164298
0.162688
0.161093
0.159514
0.157952
0.156407
0.154879
0.153369
0.151877
0.150403
0.148948
0.147511
0.146092
0.144693
0.143313
0.141952
0.14061
0.139288
0.137985
0.136701
0.135436
0.134191
0.132965
0.131759
0.130572
0.129403
0.128254
0.127124
0.126013
0.124921
0.123847
0.122792
0.121756
0.120737
0.119738
0.118756
0.117793
0.116847
0.115919
0.115009
0.114117
0.113242
0.112384
0.111544
0.110721
0.109915
0.109126
0.108355
0.1076
0.106864
0.106144
0.105441
0.104756
0.104089
0.103438
0.102806
0.10219
0.101592
0.10101
0.100446
0.0998977
0.0993666
0.0988508
0.0983519
0.0978679
0.0974006
0.0969476
0.0965106
0.0960895
0.0956914
0.0952837
0.232732
0.232726
0.232555
0.232261
0.231855
0.231338
0.230717
0.229997
0.229185
0.228286
0.227306
0.226251
0.225124
0.223931
0.222677
0.221365
0.220001
0.218589
0.217132
0.215635
0.2141
0.212531
0.210933
0.209306
0.207656
0.205984
0.204294
0.202587
0.200867
0.199136
0.197396
0.195649
0.193898
0.192143
0.190386
0.188629
0.186873
0.18512
0.18337
0.181627
0.17989
0.178161
0.17644
0.17473
0.173031
0.171343
0.169667
0.168005
0.166357
0.164723
0.163104
0.161501
0.159914
0.158344
0.15679
0.155254
0.153735
0.152235
0.150752
0.149288
0.147842
0.146416
0.145008
0.14362
0.14225
0.1409
0.139569
0.138258
0.136966
0.135693
0.13444
0.133206
0.131991
0.130796
0.12962
0.128463
0.127326
0.126207
0.125107
0.124027
0.122964
0.121921
0.120896
0.119889
0.118901
0.117931
0.116978
0.116044
0.115128
0.114229
0.113348
0.112485
0.111639
0.11081
0.109999
0.109205
0.108428
0.107668
0.106926
0.106201
0.105495
0.104804
0.104133
0.103478
0.102841
0.102221
0.10162
0.101034
0.100467
0.0999155
0.0993818
0.0988634
0.0983625
0.0978765
0.0974075
0.096953
0.0965149
0.0960926
0.0956943
0.0952864
0.233289
0.233292
0.233129
0.232842
0.232443
0.231933
0.231317
0.230603
0.229795
0.228901
0.227924
0.226871
0.225747
0.224556
0.223303
0.221993
0.220629
0.219217
0.21776
0.216261
0.214725
0.213155
0.211554
0.209925
0.208271
0.206596
0.204902
0.203191
0.201466
0.19973
0.197985
0.196233
0.194476
0.192715
0.190952
0.189189
0.187426
0.185666
0.18391
0.182158
0.180414
0.178677
0.176949
0.175231
0.173523
0.171827
0.170143
0.168472
0.166815
0.165173
0.163545
0.161933
0.160337
0.158758
0.157195
0.15565
0.154123
0.152613
0.151121
0.149648
0.148194
0.146758
0.145342
0.143944
0.142566
0.141207
0.139867
0.138547
0.137246
0.135965
0.134703
0.13346
0.132237
0.131034
0.12985
0.128685
0.127539
0.126413
0.125305
0.124217
0.123147
0.122096
0.121064
0.12005
0.119054
0.118077
0.117118
0.116177
0.115254
0.114349
0.113462
0.112592
0.11174
0.110905
0.110088
0.109289
0.108506
0.107742
0.106994
0.106264
0.105551
0.104857
0.10418
0.103521
0.102879
0.102255
0.101649
0.10106
0.100489
0.0999348
0.099397
0.0988769
0.0983723
0.0978851
0.0974131
0.0969579
0.0965174
0.096095
0.0956956
0.0952883
0.233876
0.233888
0.233733
0.233454
0.233062
0.232559
0.231949
0.23124
0.230438
0.229547
0.228575
0.227525
0.226403
0.225214
0.223963
0.222654
0.221291
0.219878
0.218421
0.216921
0.215383
0.213811
0.212208
0.210576
0.20892
0.207241
0.205542
0.203827
0.202098
0.200357
0.198606
0.196849
0.195085
0.193318
0.191549
0.189779
0.188009
0.186242
0.184478
0.182719
0.180966
0.179221
0.177485
0.175758
0.174042
0.172337
0.170644
0.168965
0.167299
0.165647
0.16401
0.162389
0.160784
0.159195
0.157623
0.156068
0.154531
0.153012
0.151511
0.150029
0.148565
0.147119
0.145693
0.144286
0.142898
0.14153
0.140181
0.138851
0.137541
0.136251
0.13498
0.133729
0.132497
0.131285
0.130092
0.128918
0.127764
0.126629
0.125513
0.124417
0.123339
0.12228
0.12124
0.120219
0.119216
0.118231
0.117265
0.116317
0.115387
0.114474
0.11358
0.112704
0.111846
0.111005
0.110181
0.109376
0.108588
0.107817
0.107064
0.106328
0.10561
0.10491
0.104228
0.103564
0.102917
0.102289
0.101677
0.101085
0.100509
0.0999514
0.0994103
0.0988873
0.0983802
0.0978908
0.0974171
0.0969606
0.0965187
0.0960953
0.0956954
0.0952878
0.234491
0.234512
0.234367
0.234096
0.233712
0.233215
0.232612
0.231909
0.231112
0.230226
0.229257
0.228211
0.227092
0.225905
0.224655
0.223347
0.221985
0.220573
0.219114
0.217614
0.216075
0.214501
0.212895
0.21126
0.2096
0.207918
0.206215
0.204495
0.202761
0.201015
0.199259
0.197495
0.195726
0.193952
0.192176
0.190399
0.188622
0.186846
0.185075
0.183308
0.181547
0.179793
0.178048
0.176312
0.174587
0.172873
0.171171
0.169482
0.167807
0.166146
0.164499
0.162868
0.161253
0.159655
0.158073
0.156508
0.154961
0.153432
0.151921
0.150428
0.148954
0.147499
0.146063
0.144646
0.143248
0.14187
0.140511
0.139172
0.137852
0.136552
0.135272
0.134011
0.13277
0.131548
0.130346
0.129163
0.128
0.126856
0.125732
0.124627
0.12354
0.122473
0.121425
0.120395
0.119384
0.118391
0.117417
0.116461
0.115524
0.114605
0.113703
0.11282
0.111955
0.111107
0.110277
0.109465
0.10867
0.107894
0.107134
0.106393
0.105669
0.104963
0.104275
0.103606
0.102954
0.102321
0.101705
0.101108
0.100528
0.099967
0.0994222
0.098896
0.0983858
0.097894
0.0974179
0.0969595
0.0965159
0.0960912
0.0956908
0.0952836
0.235134
0.235166
0.23503
0.234768
0.234392
0.233902
0.233306
0.232609
0.231817
0.230936
0.229971
0.228928
0.227812
0.226628
0.22538
0.224073
0.222711
0.221299
0.21984
0.218339
0.216798
0.215222
0.213614
0.211976
0.210313
0.208626
0.20692
0.205195
0.203456
0.201704
0.199942
0.198172
0.196396
0.194616
0.192832
0.191048
0.189263
0.18748
0.1857
0.183925
0.182155
0.180393
0.178638
0.176893
0.175159
0.173435
0.171724
0.170025
0.16834
0.166668
0.165012
0.163371
0.161746
0.160137
0.158544
0.156969
0.155412
0.153872
0.152351
0.150848
0.149363
0.147897
0.146451
0.145023
0.143615
0.142227
0.140858
0.139508
0.138178
0.136868
0.135578
0.134307
0.133056
0.131824
0.130613
0.129421
0.128248
0.127095
0.125961
0.124847
0.123752
0.122675
0.121618
0.12058
0.119561
0.11856
0.117578
0.116614
0.115669
0.114742
0.113833
0.112943
0.11207
0.111215
0.110378
0.109559
0.108758
0.107975
0.107209
0.106461
0.105731
0.10502
0.104326
0.103651
0.102995
0.102356
0.101736
0.101134
0.100551
0.0999847
0.0994374
0.0989066
0.0983944
0.0978984
0.0974206
0.0969585
0.0965139
0.0960864
0.0956861
0.0952778
0.235805
0.235848
0.235721
0.235468
0.235101
0.234619
0.234029
0.233339
0.232552
0.231676
0.230716
0.229677
0.228564
0.227382
0.226136
0.224831
0.22347
0.222057
0.220598
0.219096
0.217553
0.215975
0.214364
0.212724
0.211057
0.209366
0.207655
0.205926
0.204181
0.202424
0.200656
0.198879
0.197096
0.195309
0.193518
0.191726
0.189933
0.188142
0.186353
0.184569
0.18279
0.181019
0.179255
0.1775
0.175756
0.174022
0.172301
0.170592
0.168896
0.167215
0.165548
0.163896
0.16226
0.16064
0.159037
0.157452
0.155883
0.154333
0.1528
0.151286
0.149791
0.148314
0.146856
0.145418
0.143999
0.1426
0.14122
0.139859
0.138519
0.137198
0.135897
0.134616
0.133355
0.132113
0.130891
0.129689
0.128507
0.127344
0.1262
0.125076
0.123972
0.122886
0.12182
0.120773
0.119745
0.118735
0.117745
0.116773
0.115819
0.114885
0.113968
0.11307
0.11219
0.111328
0.110484
0.109657
0.108849
0.108059
0.107286
0.106532
0.105796
0.105077
0.104378
0.103697
0.103035
0.102392
0.101767
0.10116
0.100573
0.100003
0.0994516
0.0989175
0.0984022
0.0979033
0.0974229
0.0969584
0.0965116
0.0960821
0.0956804
0.0952714
0.236504
0.236558
0.236441
0.236197
0.235838
0.235365
0.234782
0.234098
0.233318
0.232447
0.231492
0.230456
0.229347
0.228168
0.226924
0.225619
0.224259
0.222847
0.221387
0.219884
0.21834
0.21676
0.215146
0.213503
0.211832
0.210137
0.208421
0.206687
0.204937
0.203174
0.201399
0.199616
0.197826
0.196031
0.194233
0.192433
0.190632
0.188832
0.187034
0.185241
0.183453
0.181671
0.179898
0.178133
0.176379
0.174635
0.172903
0.171183
0.169477
0.167784
0.166106
0.164444
0.162797
0.161166
0.159551
0.157954
0.156375
0.154813
0.153269
0.151743
0.150236
0.148748
0.147279
0.145829
0.144399
0.142988
0.141597
0.140226
0.138874
0.137542
0.13623
0.134938
0.133666
0.132413
0.131181
0.129968
0.128775
0.127602
0.126448
0.125314
0.1242
0.123105
0.122029
0.120972
0.119935
0.118916
0.117917
0.116937
0.115975
0.115032
0.114107
0.113201
0.112313
0.111444
0.110592
0.109758
0.108943
0.108145
0.107366
0.106605
0.105862
0.105137
0.104432
0.103745
0.103077
0.102428
0.101798
0.101187
0.100595
0.10002
0.0994655
0.0989276
0.0984091
0.0979071
0.097424
0.0969569
0.0965077
0.0960759
0.0956728
0.0952624
0.237229
0.237294
0.237188
0.236954
0.236604
0.236139
0.235564
0.234887
0.234113
0.233248
0.232297
0.231266
0.23016
0.228983
0.227741
0.226438
0.225079
0.223667
0.222207
0.220703
0.219157
0.217575
0.215959
0.214312
0.212637
0.210939
0.209218
0.207478
0.205723
0.203953
0.202172
0.200382
0.198585
0.196783
0.194976
0.193168
0.191358
0.189549
0.187743
0.18594
0.184142
0.182351
0.180567
0.178792
0.177026
0.175272
0.173529
0.171798
0.170081
0.168377
0.166688
0.165014
0.163355
0.161713
0.160087
0.158478
0.156886
0.155312
0.153756
0.152219
0.1507
0.1492
0.147719
0.146258
0.144815
0.143393
0.14199
0.140607
0.139243
0.1379
0.136576
0.135273
0.133989
0.132725
0.131482
0.130258
0.129054
0.12787
0.126706
0.125561
0.124437
0.123331
0.122246
0.121179
0.120133
0.119105
0.118096
0.117107
0.116136
0.115185
0.114252
0.113338
0.112442
0.111565
0.110706
0.109865
0.109043
0.108238
0.107452
0.106684
0.105934
0.105204
0.104492
0.103799
0.103124
0.10247
0.101834
0.101217
0.100619
0.100041
0.0994806
0.0989396
0.098416
0.0979115
0.097424
0.096955
0.0965017
0.0960681
0.095662
0.0952506
0.23798
0.238058
0.237962
0.237739
0.237398
0.236942
0.236375
0.235705
0.234937
0.234078
0.233132
0.232105
0.231002
0.229829
0.228589
0.227288
0.225929
0.224518
0.223057
0.221552
0.220005
0.21842
0.216801
0.215151
0.213473
0.21177
0.210044
0.208299
0.206538
0.204762
0.202975
0.201177
0.199373
0.197562
0.195748
0.19393
0.192112
0.190294
0.188478
0.186665
0.184858
0.183056
0.181261
0.179475
0.177699
0.175934
0.174179
0.172437
0.170708
0.168993
0.167292
0.165606
0.163935
0.162281
0.160643
0.159021
0.157418
0.155831
0.154263
0.152713
0.151182
0.14967
0.148177
0.146703
0.145248
0.143813
0.142398
0.141003
0.139627
0.138272
0.136936
0.135621
0.134325
0.13305
0.131795
0.130559
0.129344
0.128149
0.126974
0.125819
0.124683
0.123568
0.122472
0.121395
0.120339
0.119301
0.118283
0.117284
0.116305
0.115344
0.114403
0.11348
0.112576
0.111691
0.110824
0.109976
0.109146
0.108335
0.107542
0.106767
0.106011
0.105274
0.104555
0.103856
0.103175
0.102515
0.101872
0.10125
0.100646
0.100062
0.0994959
0.0989496
0.0984207
0.0979115
0.0974194
0.0969463
0.0964893
0.0960526
0.0956444
0.095232
0.238757
0.238848
0.238763
0.23855
0.23822
0.237772
0.237213
0.236551
0.23579
0.234936
0.233996
0.232973
0.231874
0.230704
0.229466
0.228167
0.226809
0.225398
0.223937
0.222431
0.220882
0.219295
0.217674
0.21602
0.214338
0.21263
0.2109
0.20915
0.207382
0.2056
0.203805
0.202001
0.200189
0.19837
0.196547
0.194721
0.192894
0.191066
0.18924
0.187417
0.185599
0.183787
0.181981
0.180184
0.178397
0.17662
0.174854
0.1731
0.171359
0.169632
0.167918
0.16622
0.164537
0.16287
0.161219
0.159585
0.157969
0.15637
0.154789
0.153226
0.151683
0.150157
0.148651
0.147165
0.145697
0.14425
0.142822
0.141414
0.140026
0.138658
0.13731
0.135982
0.134674
0.133387
0.13212
0.130873
0.129646
0.128439
0.127253
0.126087
0.12494
0.123814
0.122707
0.121621
0.120554
0.119507
0.118479
0.117471
0.116482
0.115512
0.114562
0.11363
0.112718
0.111824
0.11095
0.110094
0.109257
0.108438
0.107638
0.106856
0.106093
0.105349
0.104623
0.103917
0.10323
0.102562
0.101913
0.101284
0.100674
0.100084
0.0995127
0.09896
0.098427
0.0979118
0.097416
0.0969374
0.0964773
0.0960358
0.0956255
0.0952103
0.23956
0.239663
0.23959
0.239388
0.239068
0.238629
0.238079
0.237425
0.236671
0.235823
0.234888
0.23387
0.232775
0.231608
0.230373
0.229075
0.227718
0.226307
0.224846
0.223339
0.221789
0.2202
0.218575
0.216918
0.215232
0.21352
0.211785
0.210029
0.208255
0.206466
0.204665
0.202853
0.201033
0.199206
0.197374
0.195539
0.193702
0.191865
0.190029
0.188195
0.186366
0.184543
0.182726
0.180918
0.179119
0.17733
0.175552
0.173786
0.172033
0.170293
0.168567
0.166856
0.16516
0.16348
0.161816
0.160169
0.15854
0.156928
0.155334
0.153758
0.1522
0.150662
0.149143
0.147643
0.146162
0.144701
0.14326
0.141839
0.140438
0.139057
0.137697
0.136356
0.135036
0.133736
0.132456
0.131197
0.129958
0.12874
0.127542
0.126364
0.125206
0.124069
0.122952
0.121854
0.120777
0.119719
0.118681
0.117662
0.116664
0.115684
0.114725
0.113784
0.112863
0.111961
0.111077
0.110213
0.109368
0.108541
0.107734
0.106944
0.106174
0.105422
0.104689
0.103976
0.103281
0.102606
0.101951
0.101315
0.100699
0.100102
0.0995258
0.0989678
0.0984299
0.0979101
0.0974098
0.0969268
0.0964624
0.0960168
0.0956031
0.0951852
0.240387
0.240504
0.240443
0.240252
0.239942
0.239513
0.238972
0.238325
0.237579
0.236737
0.235808
0.234795
0.233704
0.23254
0.231308
0.230012
0.228656
0.227246
0.225784
0.224276
0.222724
0.221133
0.219506
0.217845
0.216155
0.214439
0.212698
0.210936
0.209156
0.207361
0.205552
0.203733
0.201904
0.200069
0.198228
0.196384
0.194537
0.19269
0.190843
0.188999
0.187159
0.185324
0.183496
0.181676
0.179865
0.178064
0.176274
0.174495
0.172729
0.170976
0.169238
0.167513
0.165804
0.164111
0.162434
0.160773
0.15913
0.157504
0.155897
0.154307
0.152736
0.151184
0.149651
0.148137
0.146643
0.145169
0.143714
0.14228
0.140865
0.139471
0.138097
0.136743
0.13541
0.134097
0.132805
0.131533
0.130282
0.129051
0.127841
0.126651
0.125482
0.124332
0.123203
0.122094
0.121006
0.119937
0.118888
0.117859
0.11685
0.11586
0.11489
0.11394
0.113009
0.112097
0.111205
0.110332
0.109477
0.108642
0.107826
0.107029
0.10625
0.105491
0.104751
0.104029
0.103328
0.102646
0.101984
0.101341
0.100719
0.100116
0.099534
0.0989705
0.0984274
0.0979025
0.0973976
0.09691
0.0964414
0.0959916
0.0955749
0.0951544
0.241239
0.241369
0.24132
0.241141
0.240842
0.240424
0.239892
0.239253
0.238514
0.237679
0.236755
0.235748
0.234661
0.2335
0.232271
0.230977
0.229623
0.228213
0.226751
0.225242