/*--------------------------------*- C++ -*----------------------------------*\
  =========                 |
  \\      /  F ield         | OpenFOAM: The Open Source CFD Toolbox
   \\    /   O peration     | Website:  https://openfoam.org
    \\  /    A nd           | Version:  8
     \\/     M anipulation  |
\*---------------------------------------------------------------------------*/
FoamFile
{
    version     2.0;
    format      ascii;
    class       surfaceScalarField;
    location    "11.215";
    object      phi;
}
// * * * * * * * * * * * * * * * * * * * * * * * * * * * * * * * * * * * * * //

dimensions      [0 3 -1 0 0 0 0];

internalField   nonuniform List<scalar> 
238800
(
-0.00822734
0.000150934
0.00807641
-0.00837497
0.000147633
-0.00851931
0.000144338
-0.00866012
0.000140804
-0.00879725
0.000137137
-0.00893063
0.000133376
-0.00906017
0.000129538
-0.0091858
0.00012563
-0.00930746
0.000121661
-0.00942509
0.000117636
-0.00953866
0.000113564
-0.00964811
0.000109451
-0.00975341
0.000105302
-0.00985454
0.000101125
-0.00995146
9.69246e-05
-0.0100442
9.27071e-05
-0.0101326
8.84782e-05
-0.0102169
8.42433e-05
-0.0102969
8.00078e-05
-0.0103727
7.57767e-05
-0.0104442
7.15549e-05
-0.0105116
6.73474e-05
-0.0105747
6.31587e-05
-0.0106337
5.89936e-05
-0.0106886
5.48563e-05
-0.0107393
5.0751e-05
-0.010786
4.66819e-05
-0.0108287
4.26524e-05
-0.0108673
3.86634e-05
-0.0109021
3.47159e-05
-0.0109329
3.08123e-05
-0.0109598
2.69553e-05
-0.010983
2.31484e-05
-0.0110024
1.93946e-05
-0.0110181
1.56973e-05
-0.0110301
1.20599e-05
-0.0110386
8.48589e-06
-0.0110436
4.97846e-06
-0.0110451
1.54152e-06
-0.0110433
-1.81883e-06
-0.0110382
-5.09581e-06
-0.0110299
-8.28811e-06
-0.0110185
-1.13991e-05
-0.0110041
-1.44328e-05
-0.0109867
-1.73926e-05
-0.0109664
-2.0282e-05
-0.0109433
-2.31041e-05
-0.0109174
-2.58618e-05
-0.0108889
-2.85577e-05
-0.0108577
-3.11945e-05
-0.0108239
-3.37746e-05
-0.0107876
-3.63e-05
-0.0107488
-3.87732e-05
-0.0107077
-4.11961e-05
-0.0106641
-4.35704e-05
-0.0106182
-4.58981e-05
-0.01057
-4.81807e-05
-0.0105196
-5.04202e-05
-0.010467
-5.26175e-05
-0.0104122
-5.47745e-05
-0.0103553
-5.68924e-05
-0.0102963
-5.89723e-05
-0.0102353
-6.10156e-05
-0.0101723
-6.30234e-05
-0.0101073
-6.49966e-05
-0.0100404
-6.69364e-05
-0.00997151
-6.88437e-05
-0.00990079
-7.07193e-05
-0.00982823
-7.25641e-05
-0.00975385
-7.43789e-05
-0.00967768
-7.61646e-05
-0.00959976
-7.79216e-05
-0.00952011
-7.9651e-05
-0.00943876
-8.1353e-05
-0.00935573
-8.30286e-05
-0.00927105
-8.4678e-05
-0.00918475
-8.63021e-05
-0.00909685
-8.79013e-05
-0.00900737
-8.9476e-05
-0.00891635
-9.10268e-05
-0.00882379
-9.25541e-05
-0.00872973
-9.40583e-05
-0.00863419
-9.55398e-05
-0.00853719
-9.69991e-05
-0.00843876
-9.84365e-05
-0.00833891
-9.98523e-05
-0.00823766
-0.000101247
-0.00813504
-0.000102621
-0.00803106
-0.000103974
-0.00792576
-0.000105307
-0.00781914
-0.000106619
-0.00771123
-0.000107912
-0.00760204
-0.000109186
-0.0074916
-0.00011044
-0.00737993
-0.000111675
-0.00726703
-0.000112891
-0.00715295
-0.000114089
-0.00703768
-0.000115268
-0.00692125
-0.000116428
-0.00680368
-0.00011757
-0.00668499
-0.000118693
-0.00656519
-0.000119798
-0.0064443
-0.000120885
-0.00632235
-0.000121953
-0.00619935
-0.000123002
-0.00607532
-0.000124031
-0.00595028
-0.000125041
-0.00582425
-0.00012603
-0.00569725
-0.000126997
-0.00556931
-0.000127941
-0.00544045
-0.00012886
-0.0053107
-0.000129752
-0.00518008
-0.000130614
-0.00504864
-0.000131444
-0.0049164
-0.000132238
-0.00478341
-0.000132995
-0.0046497
-0.000133711
-0.00451531
-0.000134387
-0.00438028
-0.000135025
-0.00424466
-0.000135627
-0.00410846
-0.000136197
-0.00397172
-0.00013674
-0.00383446
-0.000137259
-0.0036967
-0.000137756
-0.00355847
-0.000138234
-0.00341978
-0.000138693
-0.00328064
-0.000139133
-0.00314109
-0.000139557
-0.00300112
-0.000139963
-0.00286077
-0.000140351
-0.00272005
-0.000140722
-0.00257897
-0.000141076
-0.00243756
-0.000141412
-0.00229583
-0.00014173
-0.0021538
-0.00014203
-0.00201149
-0.000142313
-0.00186891
-0.000142577
-0.00172609
-0.000142822
-0.00158304
-0.00014305
-0.00143978
-0.000143258
-0.00129634
-0.000143448
-0.00115272
-0.000143618
-0.00100895
-0.000143769
-0.000865048
-0.0001439
-0.000721036
-0.000144012
-0.000576933
-0.000144103
-0.000432759
-0.000144174
-0.000288536
-0.000144223
-0.000144285
-0.000144251
-0.000144258
-2.72043e-08
-0.0113295
0.000163635
0.0113168
-0.0113382
0.000156352
-0.011343
0.000149156
-0.0113443
0.000142032
-0.0113421
0.000134972
-0.0113367
0.000127977
-0.0113282
0.000121052
-0.0113168
0.000114201
-0.0113026
0.000107428
-0.0112857
0.000100738
-0.0112662
9.41344e-05
-0.0112444
8.76217e-05
-0.0112203
8.12028e-05
-0.0111941
7.48805e-05
-0.0111658
6.86571e-05
-0.0111356
6.25347e-05
-0.0111037
5.65147e-05
-0.01107
5.05983e-05
-0.0110348
4.4786e-05
-0.0109981
3.90785e-05
-0.01096
3.34756e-05
-0.0109206
2.79771e-05
-0.0108801
2.25823e-05
-0.0108384
1.72907e-05
-0.0107956
1.2101e-05
-0.0107519
7.01354e-06
-0.0107072
2.02793e-06
-0.0106617
-2.85671e-06
-0.0106154
-7.64253e-06
-0.0105684
-1.23318e-05
-0.0105206
-1.69266e-05
-0.0104722
-2.14288e-05
-0.0104232
-2.58406e-05
-0.0103737
-3.01641e-05
-0.0103236
-3.44017e-05
-0.010273
-3.85558e-05
-0.0102219
-4.26289e-05
-0.0101703
-4.6623e-05
-0.0101182
-5.05404e-05
-0.0100656
-5.43845e-05
-0.0100125
-5.81651e-05
-0.00995893
-6.18915e-05
-0.00990476
-6.55687e-05
-0.00984999
-6.91999e-05
-0.0097946
-7.2787e-05
-0.00973855
-7.63312e-05
-0.00968182
-7.98339e-05
-0.00962439
-8.32959e-05
-0.00956623
-8.6718e-05
-0.00950732
-9.01009e-05
-0.00944765
-9.34454e-05
-0.0093872
-9.67519e-05
-0.00932595
-0.000100021
-0.00926389
-0.000103254
-0.00920101
-0.00010645
-0.0091373
-0.000109611
-0.00907274
-0.000112736
-0.00900734
-0.000115826
-0.00894107
-0.000118882
-0.00887395
-0.000121903
-0.00880595
-0.000124891
-0.00873707
-0.000127845
-0.00866732
-0.000130766
-0.00859669
-0.000133655
-0.00852518
-0.00013651
-0.00845278
-0.000139333
-0.0083795
-0.000142124
-0.00830534
-0.000144882
-0.00823029
-0.000147609
-0.00815437
-0.000150304
-0.00807757
-0.000152967
-0.00799989
-0.000155599
-0.00792134
-0.0001582
-0.00784192
-0.000160769
-0.00776164
-0.000163307
-0.00768051
-0.000165814
-0.00759852
-0.00016829
-0.00751569
-0.000170735
-0.00743201
-0.000173149
-0.00734751
-0.000175532
-0.00726218
-0.000177884
-0.00717603
-0.000180205
-0.00708908
-0.000182495
-0.00700132
-0.000184754
-0.00691278
-0.000186983
-0.00682345
-0.00018918
-0.00673335
-0.000191346
-0.00664249
-0.000193481
-0.00655088
-0.000195585
-0.00645853
-0.000197658
-0.00636545
-0.000199699
-0.00627165
-0.000201709
-0.00617715
-0.000203687
-0.00608195
-0.000205634
-0.00598608
-0.000207549
-0.00588954
-0.000209432
-0.00579234
-0.000211283
-0.00569451
-0.000213102
-0.00559605
-0.000214888
-0.00549698
-0.000216641
-0.00539731
-0.000218362
-0.00529706
-0.000220049
-0.00519624
-0.000221703
-0.00509487
-0.000223323
-0.00499296
-0.00022491
-0.00489053
-0.000226461
-0.0047876
-0.000227978
-0.00468417
-0.00022946
-0.00458026
-0.000230906
-0.00447588
-0.000232317
-0.00437105
-0.000233691
-0.00426577
-0.000235028
-0.00416006
-0.000236329
-0.00405391
-0.000237593
-0.00394733
-0.000238819
-0.00384031
-0.000240009
-0.00373286
-0.000241161
-0.00362497
-0.000242278
-0.00351664
-0.000243358
-0.00340786
-0.000244403
-0.00329865
-0.000245414
-0.003189
-0.00024639
-0.00307892
-0.000247333
-0.00296844
-0.000248242
-0.00285755
-0.000249118
-0.00274628
-0.000249961
-0.00263465
-0.000250772
-0.00252265
-0.000251549
-0.00241032
-0.000252294
-0.00229767
-0.000253006
-0.0021847
-0.000253685
-0.00207145
-0.000254332
-0.00195791
-0.000254945
-0.00184412
-0.000255525
-0.00173008
-0.000256072
-0.0016158
-0.000256586
-0.00150131
-0.000257066
-0.00138662
-0.000257513
-0.00127175
-0.000257927
-0.0011567
-0.000258306
-0.00104149
-0.000258652
-0.000926148
-0.000258964
-0.000810676
-0.000259241
-0.000695092
-0.000259485
-0.000579409
-0.000259694
-0.000463644
-0.000259869
-0.000347809
-0.000260009
-0.000231918
-0.000260114
-0.000115985
-0.000260184
-0.00026022
-2.23412e-08
-0.0101482
0.000151848
0.01016
-0.0101362
0.000144331
-0.0101239
0.000136882
-0.0101115
0.000129559
-0.0100989
0.000122348
-0.0100861
0.000115243
-0.0100733
0.000108237
-0.0100604
0.000101328
-0.0100475
9.4512e-05
-0.0100346
8.77875e-05
-0.0100216
8.1152e-05
-0.0100086
7.46032e-05
-0.0099955
6.81391e-05
-0.00998237
6.17572e-05
-0.00996917
5.54553e-05
-0.00995587
4.92311e-05
-0.00994244
4.30823e-05
-0.00992884
3.70067e-05
-0.00991506
3.10019e-05
-0.00990105
2.50657e-05
-0.00988677
1.91956e-05
-0.00987218
1.33896e-05
-0.00985724
7.64485e-06
-0.00984191
1.95751e-06
-0.00982613
-3.67582e-06
-0.00980986
-9.25799e-06
-0.00979304
-1.47912e-05
-0.00977562
-2.02778e-05
-0.00975755
-2.57173e-05
-0.00973877
-3.11087e-05
-0.00971924
-3.64522e-05
-0.00969892
-4.17486e-05
-0.00967776
-4.69993e-05
-0.00965572
-5.22061e-05
-0.00963275
-5.73708e-05
-0.00960881
-6.24957e-05
-0.00958386
-6.75831e-05
-0.00955785
-7.26355e-05
-0.00953073
-7.76557e-05
-0.00950247
-8.26465e-05
-0.00947302
-8.76101e-05
-0.00944237
-9.25476e-05
-0.00941048
-9.74589e-05
-0.00937733
-0.000102343
-0.00934292
-0.0001072
-0.00930722
-0.000112029
-0.00927023
-0.000116827
-0.00923193
-0.000121594
-0.00919232
-0.000126329
-0.00915139
-0.000131032
-0.00910914
-0.0001357
-0.00906556
-0.000140333
-0.00902065
-0.000144931
-0.00897441
-0.000149492
-0.00892684
-0.000154016
-0.00887795
-0.000158503
-0.00882773
-0.000162951
-0.0087762
-0.00016736
-0.00872335
-0.00017173
-0.0086692
-0.00017606
-0.00861374
-0.00018035
-0.00855698
-0.000184599
-0.00849894
-0.000188807
-0.00843962
-0.000192975
-0.00837903
-0.0001971
-0.00831718
-0.000201184
-0.00825408
-0.000205226
-0.00818974
-0.000209225
-0.00812416
-0.000213182
-0.00805737
-0.000217096
-0.00798937
-0.000220967
-0.00792018
-0.000224795
-0.0078498
-0.00022858
-0.00777824
-0.000232321
-0.00770553
-0.000236018
-0.00763167
-0.000239672
-0.00755668
-0.000243281
-0.00748057
-0.000246846
-0.00740335
-0.000250367
-0.00732504
-0.000253843
-0.00724565
-0.000257275
-0.00716519
-0.000260662
-0.00708369
-0.000264004
-0.00700114
-0.000267301
-0.00691757
-0.000270552
-0.00683299
-0.000273758
-0.00674742
-0.000276918
-0.00666087
-0.000280033
-0.00657335
-0.000283102
-0.00648488
-0.000286125
-0.00639548
-0.000289102
-0.00630516
-0.000292032
-0.00621393
-0.000294916
-0.00612181
-0.000297753
-0.00602882
-0.000300543
-0.00593496
-0.000303286
-0.00584026
-0.000305983
-0.00574473
-0.000308631
-0.00564839
-0.000311233
-0.00555124
-0.000313786
-0.00545331
-0.000316292
-0.00535461
-0.00031875
-0.00525516
-0.00032116
-0.00515496
-0.000323521
-0.00505404
-0.000325833
-0.0049524
-0.000328097
-0.00485007
-0.000330312
-0.00474705
-0.000332478
-0.00464336
-0.000334594
-0.00453902
-0.000336661
-0.00443403
-0.000338678
-0.00432841
-0.000340645
-0.00422218
-0.000342562
-0.00411534
-0.000344429
-0.00400792
-0.000346246
-0.00389991
-0.000348012
-0.00379135
-0.000349729
-0.00368223
-0.000351394
-0.00357258
-0.000353009
-0.00346241
-0.000354574
-0.00335173
-0.000356088
-0.00324057
-0.000357551
-0.00312894
-0.000358965
-0.00301686
-0.000360328
-0.00290433
-0.00036164
-0.00279139
-0.000362902
-0.00267805
-0.000364114
-0.00256432
-0.000365276
-0.00245023
-0.000366387
-0.00233579
-0.000367448
-0.00222102
-0.000368459
-0.00210593
-0.000369419
-0.00199054
-0.000370329
-0.00187488
-0.000371189
-0.00175895
-0.000371998
-0.00164278
-0.000372757
-0.00152638
-0.000373466
-0.00140977
-0.000374124
-0.00129297
-0.000374731
-0.00117599
-0.000375289
-0.00105884
-0.000375795
-0.000941556
-0.000376251
-0.000824141
-0.000376657
-0.000706614
-0.000377011
-0.000588993
-0.000377316
-0.000471293
-0.000377569
-0.00035353
-0.000377772
-0.00023572
-0.000377924
-0.000117879
-0.000378025
-0.000378076
-2.27007e-08
-0.0100149
0.000154722
0.0100121
-0.0100175
0.000146907
-0.0100197
0.000139094
-0.0100215
0.000131333
-0.0100228
0.000123624
-0.0100235
0.000115962
-0.0100236
0.000108346
-0.0100231
0.000100775
-0.0100218
9.32471e-05
-0.0100198
8.57609e-05
-0.0100169
7.83154e-05
-0.0100132
7.09099e-05
-0.0100086
6.35436e-05
-0.0100031
5.6216e-05
-0.00999657
4.89267e-05
-0.00998902
4.16753e-05
-0.0099804
3.44617e-05
-0.00997067
2.72857e-05
-0.00995982
2.01474e-05
-0.0099478
1.30468e-05
-0.00993459
5.98399e-06
-0.00992016
-1.03932e-06
-0.00990449
-8.02201e-06
-0.00988757
-1.49632e-05
-0.00986939
-2.18623e-05
-0.00984992
-2.87197e-05
-0.00982918
-3.55365e-05
-0.00980714
-4.23129e-05
-0.00978381
-4.90491e-05
-0.00975918
-5.57451e-05
-0.00973323
-6.24005e-05
-0.00970596
-6.9015e-05
-0.00967737
-7.55885e-05
-0.00964746
-8.21203e-05
-0.00961622
-8.86103e-05
-0.00958366
-9.50583e-05
-0.00954978
-0.000101464
-0.00951458
-0.000107827
-0.00947809
-0.000114147
-0.00944032
-0.000120424
-0.00940127
-0.000126658
-0.00936097
-0.000132848
-0.00931943
-0.000138995
-0.00927668
-0.000145097
-0.00923272
-0.000151156
-0.00918758
-0.00015717
-0.00914127
-0.000163138
-0.0090938
-0.000169062
-0.00904519
-0.00017494
-0.00899545
-0.000180773
-0.00894459
-0.000186559
-0.00889262
-0.000192299
-0.00883956
-0.000197992
-0.00878542
-0.000203638
-0.0087302
-0.000209237
-0.00867391
-0.000214789
-0.00861657
-0.000220292
-0.00855818
-0.000225747
-0.00849876
-0.000231154
-0.0084383
-0.000236513
-0.00837683
-0.000241822
-0.00831435
-0.000247082
-0.00825086
-0.000252293
-0.00818638
-0.000257454
-0.00812092
-0.000262566
-0.00805447
-0.000267627
-0.00798706
-0.000272637
-0.00791869
-0.000277597
-0.00784937
-0.000282506
-0.0077791
-0.000287364
-0.0077079
-0.00029217
-0.00763577
-0.000296925
-0.00756272
-0.000301627
-0.00748876
-0.000306278
-0.00741391
-0.000310876
-0.00733816
-0.000315421
-0.00726153
-0.000319913
-0.00718402
-0.000324352
-0.00710565
-0.000328737
-0.00702642
-0.000333069
-0.00694635
-0.000337347
-0.00686544
-0.000341571
-0.00678371
-0.00034574
-0.00670115
-0.000349854
-0.00661779
-0.000353913
-0.00653363
-0.000357917
-0.00644869
-0.000361865
-0.00636296
-0.000365758
-0.00627647
-0.000369595
-0.00618922
-0.000373375
-0.00610122
-0.000377099
-0.00601249
-0.000380766
-0.00592303
-0.000384375
-0.00583285
-0.000387928
-0.00574197
-0.000391423
-0.0056504
-0.00039486
-0.00555814
-0.000398239
-0.00546522
-0.000401559
-0.00537163
-0.000404822
-0.00527739
-0.000408025
-0.00518251
-0.000411169
-0.00508701
-0.000414254
-0.00499089
-0.000417279
-0.00489417
-0.000420244
-0.00479685
-0.00042315
-0.00469895
-0.000425995
-0.00460048
-0.00042878
-0.00450146
-0.000431504
-0.00440189
-0.000434167
-0.00430178
-0.000436769
-0.00420115
-0.000439309
-0.0041
-0.000441788
-0.00399836
-0.000444206
-0.00389623
-0.000446561
-0.00379362
-0.000448855
-0.00369054
-0.000451086
-0.00358702
-0.000453256
-0.00348305
-0.000455362
-0.00337865
-0.000457407
-0.00327384
-0.000459388
-0.00316862
-0.000461307
-0.00306301
-0.000463163
-0.00295702
-0.000464956
-0.00285066
-0.000466686
-0.00274394
-0.000468353
-0.00263689
-0.000469956
-0.00252951
-0.000471496
-0.00242181
-0.000472973
-0.00231381
-0.000474387
-0.00220552
-0.000475737
-0.00209696
-0.000477023
-0.00198813
-0.000478245
-0.00187906
-0.000479404
-0.00176975
-0.000480499
-0.00166022
-0.00048153
-0.00155048
-0.000482496
-0.00144054
-0.000483399
-0.00133043
-0.000484238
-0.00122015
-0.000485012
-0.00110972
-0.000485722
-0.000999144
-0.000486368
-0.000888446
-0.000486949
-0.000777637
-0.000487466
-0.00066673
-0.000487918
-0.00055574
-0.000488306
-0.00044468
-0.000488629
-0.000333564
-0.000488888
-0.000222406
-0.000489082
-0.000111221
-0.000489211
-0.000489276
-2.10551e-08
-0.00992152
0.000161493
0.00991475
-0.00992739
0.000152772
-0.00993237
0.00014408
-0.00993645
0.000135412
-0.0099396
0.000126769
-0.00994179
0.000118151
-0.009943
0.000109557
-0.00994321
0.000100988
-0.00994241
9.24457e-05
-0.00994058
8.39297e-05
-0.00993771
7.54411e-05
-0.00993378
6.69805e-05
-0.00992878
5.85487e-05
-0.00992271
5.01464e-05
-0.00991556
4.17744e-05
-0.00990732
3.34334e-05
-0.00989798
2.51242e-05
-0.00988754
1.68475e-05
-0.009876
8.60399e-06
-0.00986334
3.93458e-07
-0.00984958
-7.78442e-06
-0.00983469
-1.59295e-05
-0.00981867
-2.40414e-05
-0.00980151
-3.21181e-05
-0.00978322
-4.01581e-05
-0.00976378
-4.81603e-05
-0.00974319
-5.61238e-05
-0.00972145
-6.40478e-05
-0.00969857
-7.1932e-05
-0.00967454
-7.97757e-05
-0.00964936
-8.75787e-05
-0.00962304
-9.53404e-05
-0.00959556
-0.00010306
-0.00956695
-0.000110739
-0.00953718
-0.000118375
-0.00950627
-0.000125968
-0.00947422
-0.000133519
-0.00944102
-0.000141026
-0.00940667
-0.00014849
-0.00937119
-0.00015591
-0.00933456
-0.000163286
-0.00929679
-0.000170617
-0.00925788
-0.000177903
-0.00921783
-0.000185144
-0.00917665
-0.000192339
-0.00913433
-0.000199487
-0.00909088
-0.000206589
-0.0090463
-0.000213643
-0.00900059
-0.000220649
-0.00895376
-0.000227606
-0.00890581
-0.000234515
-0.00885673
-0.000241373
-0.00880654
-0.000248182
-0.00875524
-0.00025494
-0.00870283
-0.000261646
-0.00864932
-0.000268301
-0.00859471
-0.000274903
-0.008539
-0.000281452
-0.00848221
-0.000287948
-0.00842434
-0.000294389
-0.00836538
-0.000300776
-0.00830536
-0.000307108
-0.00824426
-0.000313384
-0.00818211
-0.000319604
-0.00811891
-0.000325768
-0.00805466
-0.000331874
-0.00798938
-0.000337923
-0.00792306
-0.000343913
-0.00785572
-0.000349845
-0.00778737
-0.000355717
-0.00771801
-0.00036153
-0.00764765
-0.000367283
-0.00757631
-0.000372975
-0.00750398
-0.000378606
-0.00743068
-0.000384176
-0.00735641
-0.000389684
-0.0072812
-0.000395129
-0.00720504
-0.000400512
-0.00712794
-0.000405831
-0.00704993
-0.000411087
-0.00697099
-0.000416279
-0.00689116
-0.000421406
-0.00681043
-0.000426469
-0.00672882
-0.000431466
-0.00664633
-0.000436397
-0.00656299
-0.000441263
-0.00647879
-0.000446062
-0.00639375
-0.000450794
-0.00630789
-0.000455458
-0.00622121
-0.000460056
-0.00613372
-0.000464585
-0.00604544
-0.000469046
-0.00595638
-0.000473438
-0.00586655
-0.000477761
-0.00577596
-0.000482015
-0.00568462
-0.000486199
-0.00559254
-0.000490313
-0.00549974
-0.000494357
-0.00540624
-0.00049833
-0.00531203
-0.000502231
-0.00521714
-0.000506062
-0.00512157
-0.00050982
-0.00502534
-0.000513507
-0.00492847
-0.000517121
-0.00483095
-0.000520663
-0.00473281
-0.000524132
-0.00463407
-0.000527528
-0.00453472
-0.00053085
-0.00443479
-0.000534099
-0.00433428
-0.000537273
-0.00423322
-0.000540374
-0.00413161
-0.000543399
-0.00402946
-0.000546351
-0.0039268
-0.000549227
-0.00382363
-0.000552028
-0.00371996
-0.000554753
-0.00361581
-0.000557403
-0.0035112
-0.000559977
-0.00340613
-0.000562476
-0.00330062
-0.000564898
-0.00319468
-0.000567243
-0.00308833
-0.000569512
-0.00298158
-0.000571704
-0.00287445
-0.00057382
-0.00276694
-0.000575858
-0.00265908
-0.000577819
-0.00255087
-0.000579703
-0.00244234
-0.00058151
-0.00233349
-0.000583239
-0.00222433
-0.00058489
-0.00211489
-0.000586463
-0.00200518
-0.000587958
-0.00189521
-0.000589375
-0.00178499
-0.000590715
-0.00167455
-0.000591975
-0.00156388
-0.000593158
-0.00145302
-0.000594262
-0.00134197
-0.000595287
-0.00123075
-0.000596234
-0.00111937
-0.000597103
-0.00100784
-0.000597892
-0.00089619
-0.000598603
-0.00078442
-0.000599235
-0.00067255
-0.000599788
-0.000560594
-0.000600262
-0.000448566
-0.000600657
-0.00033648
-0.000600974
-0.000224351
-0.000601211
-0.000112193
-0.000601369
-0.000601448
-2.08108e-08
-0.0101213
0.000166841
0.010116
-0.0101256
0.000157102
-0.0101289
0.000147323
-0.010131
0.000137558
-0.0101321
0.000127807
-0.010132
0.000118072
-0.0101308
0.000108356
-0.0101285
9.86582e-05
-0.010125
8.89809e-05
-0.0101204
7.93251e-05
-0.0101146
6.96918e-05
-0.0101077
6.00824e-05
-0.0100997
5.04978e-05
-0.0100905
4.09393e-05
-0.0100801
3.14078e-05
-0.0100686
2.19045e-05
-0.0100559
1.24304e-05
-0.010042
2.98668e-06
-0.010027
-6.42471e-06
-0.0100108
-1.58021e-05
-0.00999344
-2.5144e-05
-0.00997492
-3.44506e-05
-0.00995524
-4.37216e-05
-0.0099344
-5.29567e-05
-0.00991241
-6.21553e-05
-0.00988925
-7.13167e-05
-0.00986493
-8.04402e-05
-0.00983946
-8.95251e-05
-0.00981282
-9.85704e-05
-0.00978502
-0.000107575
-0.00975606
-0.00011654
-0.00972594
-0.000125462
-0.00969466
-0.000134341
-0.00966222
-0.000143177
-0.00962862
-0.000151969
-0.00959387
-0.000160716
-0.00955798
-0.000169418
-0.00952093
-0.000178072
-0.00948274
-0.00018668
-0.00944341
-0.00019524
-0.00940295
-0.00020375
-0.00936135
-0.000212212
-0.00931863
-0.000220623
-0.00927479
-0.000228984
-0.00922984
-0.000237292
-0.00918378
-0.000245549
-0.00913661
-0.000253753
-0.00908835
-0.000261902
-0.009039
-0.000269998
-0.00898857
-0.000278038
-0.00893706
-0.000286023
-0.00888449
-0.000293951
-0.00883084
-0.000301822
-0.00877615
-0.000309636
-0.0087204
-0.000317391
-0.00866362
-0.000325086
-0.0086058
-0.000332723
-0.00854695
-0.000340299
-0.00848709
-0.000347813
-0.00842621
-0.000355267
-0.00836433
-0.000362658
-0.00830145
-0.000369986
-0.00823758
-0.000377251
-0.00817273
-0.000384452
-0.00810691
-0.000391588
-0.00804013
-0.000398659
-0.00797239
-0.000405664
-0.0079037
-0.000412603
-0.00783407
-0.000419474
-0.00776351
-0.000426279
-0.00769202
-0.000433015
-0.00761962
-0.000439682
-0.00754632
-0.00044628
-0.00747211
-0.000452809
-0.00739702
-0.000459267
-0.00732105
-0.000465654
-0.00724421
-0.00047197
-0.00716651
-0.000478214
-0.00708796
-0.000484386
-0.00700856
-0.000490484
-0.00692833
-0.000496509
-0.00684727
-0.00050246
-0.00676541
-0.000508337
-0.00668273
-0.000514139
-0.00659927
-0.000519865
-0.00651501
-0.000525515
-0.00642999
-0.000531089
-0.00634419
-0.000536586
-0.00625764
-0.000542006
-0.00617035
-0.000547348
-0.00608233
-0.000552612
-0.00599358
-0.000557796
-0.00590411
-0.000562902
-0.00581394
-0.000567928
-0.00572308
-0.000572875
-0.00563154
-0.00057774
-0.00553933
-0.000582525
-0.00544646
-0.000587228
-0.00535294
-0.00059185
-0.00525878
-0.00059639
-0.00516399
-0.000600847
-0.00506859
-0.000605222
-0.00497259
-0.000609513
-0.00487599
-0.00061372
-0.00477881
-0.000617844
-0.00468106
-0.000621883
-0.00458275
-0.000625837
-0.00448389
-0.000629707
-0.0043845
-0.000633491
-0.00428458
-0.000637189
-0.00418415
-0.000640802
-0.00408322
-0.000644328
-0.00398181
-0.000647767
-0.00387991
-0.00065112
-0.00377756
-0.000654385
-0.00367475
-0.000657563
-0.0035715
-0.000660653
-0.00346782
-0.000663655
-0.00336373
-0.000666569
-0.00325923
-0.000669394
-0.00315434
-0.000672131
-0.00304908
-0.000674778
-0.00294344
-0.000677336
-0.00283746
-0.000679805
-0.00273113
-0.000682184
-0.00262448
-0.000684474
-0.00251751
-0.000686673
-0.00241024
-0.000688782
-0.00230268
-0.0006908
-0.00219484
-0.000692729
-0.00208673
-0.000694566
-0.00197838
-0.000696312
-0.00186979
-0.000697968
-0.00176097
-0.000699532
-0.00165194
-0.000701005
-0.00154271
-0.000702386
-0.0014333
-0.000703676
-0.00132371
-0.000704874
-0.00121396
-0.000705981
-0.00110407
-0.000706995
-0.000994046
-0.000707918
-0.000883901
-0.000708748
-0.000773648
-0.000709487
-0.000663303
-0.000710133
-0.000552878
-0.000710687
-0.000442386
-0.000711149
-0.000331841
-0.000711519
-0.000221256
-0.000711796
-0.000110645
-0.00071198
-0.000712073
-1.99018e-08
-0.0102375
0.00017123
0.0102331
-0.0102407
0.000160325
-0.0102429
0.000149455
-0.0102439
0.000138596
-0.0102438
0.00012775
-0.0102427
0.000116918
-0.0102404
0.0001061
-0.0102371
9.52993e-05
-0.0102326
8.45156e-05
-0.010227
7.37507e-05
-0.0102203
6.30058e-05
-0.0102125
5.22821e-05
-0.0102036
4.1581e-05
-0.0101936
3.09034e-05
-0.0101824
2.02508e-05
-0.0101702
9.62406e-06
-0.0101567
-9.75884e-07
-0.0101422
-1.15485e-05
-0.0101265
-2.20934e-05
-0.0101097
-3.2609e-05
-0.0100918
-4.30933e-05
-0.0100727
-5.35451e-05
-0.0100525
-6.39627e-05
-0.0100311
-7.43451e-05
-0.0100085
-8.46908e-05
-0.00998485
-9.49991e-05
-0.00996002
-0.000105269
-0.00993404
-0.000115498
-0.00990693
-0.000125687
-0.00987867
-0.000135835
-0.00984927
-0.000145939
-0.00981873
-0.000156
-0.00978706
-0.000166016
-0.00975425
-0.000175987
-0.0097203
-0.000185911
-0.00968523
-0.000195787
-0.00964904
-0.000205616
-0.00961171
-0.000215395
-0.00957327
-0.000225123
-0.00953371
-0.000234801
-0.00949303
-0.000244427
-0.00945124
-0.000254
-0.00940835
-0.00026352
-0.00936435
-0.000272985
-0.00931924
-0.000282394
-0.00927305
-0.000291747
-0.00922576
-0.000301043
-0.00917738
-0.000310281
-0.00912791
-0.000319461
-0.00907737
-0.00032858
-0.00902575
-0.000337639
-0.00897307
-0.000346637
-0.00891932
-0.000355572
-0.00886451
-0.000364445
-0.00880865
-0.000373253
-0.00875174
-0.000381997
-0.00869378
-0.000390676
-0.00863479
-0.000399288
-0.00857477
-0.000407833
-0.00851373
-0.00041631
-0.00845167
-0.000424719
-0.0083886
-0.000433058
-0.00832452
-0.000441327
-0.00825945
-0.000449525
-0.00819339
-0.000457652
-0.00812634
-0.000465705
-0.00805832
-0.000473686
-0.00798933
-0.000481593
-0.00791938
-0.000489425
-0.00784847
-0.000497182
-0.00777663
-0.000504862
-0.00770384
-0.000512466
-0.00763013
-0.000519992
-0.0075555
-0.00052744
-0.00747996
-0.000534809
-0.00740351
-0.000542099
-0.00732618
-0.000549308
-0.00724795
-0.000556436
-0.00716886
-0.000563483
-0.00708889
-0.000570447
-0.00700807
-0.000577329
-0.00692641
-0.000584127
-0.0068439
-0.000590841
-0.00676057
-0.000597471
-0.00667642
-0.000604015
-0.00659146
-0.000610473
-0.00650571
-0.000616844
-0.00641917
-0.000623128
-0.00633185
-0.000629325
-0.00624376
-0.000635434
-0.00615492
-0.000641453
-0.00606533
-0.000647383
-0.00597501
-0.000653224
-0.00588397
-0.000658974
-0.00579221
-0.000664632
-0.00569975
-0.0006702
-0.0056066
-0.000675675
-0.00551277
-0.000681058
-0.00541827
-0.000686348
-0.00532312
-0.000691544
-0.00522732
-0.000696647
-0.00513089
-0.000701655
-0.00503383
-0.000706568
-0.00493617
-0.000711385
-0.0048379
-0.000716107
-0.00473905
-0.000720733
-0.00463963
-0.000725262
-0.00453964
-0.000729694
-0.0044391
-0.000734029
-0.00433803
-0.000738265
-0.00423643
-0.000742404
-0.00413431
-0.000746444
-0.00403169
-0.000750385
-0.00392859
-0.000754226
-0.003825
-0.000757968
-0.00372096
-0.00076161
-0.00361646
-0.000765151
-0.00351152
-0.000768592
-0.00340616
-0.000771932
-0.00330038
-0.00077517
-0.00319421
-0.000778307
-0.00308764
-0.000781342
-0.00298071
-0.000784275
-0.00287341
-0.000787105
-0.00276576
-0.000789833
-0.00265777
-0.000792458
-0.00254946
-0.00079498
-0.00244085
-0.000797398
-0.00233194
-0.000799713
-0.00222274
-0.000801924
-0.00211328
-0.000804031
-0.00200355
-0.000806034
-0.00189359
-0.000807932
-0.0017834
-0.000809726
-0.00167298
-0.000811415
-0.00156237
-0.000813
-0.00145157
-0.000814479
-0.00134059
-0.000815853
-0.00122945
-0.000817123
-0.00111816
-0.000818286
-0.00100673
-0.000819345
-0.000895181
-0.000820297
-0.000783524
-0.000821144
-0.000671771
-0.000821886
-0.000559937
-0.000822521
-0.000448036
-0.000823051
-0.000336079
-0.000823475
-0.000224082
-0.000823793
-0.000112058
-0.000824005
-0.000824111
-1.95508e-08
-0.0104635
0.000174371
0.0104604
-0.0104656
0.000162389
-0.0104665
0.000150361
-0.0104662
0.00013834
-0.0104648
0.000126329
-0.0104622
0.00011433
-0.0104585
0.000102343
-0.0104535
9.03718e-05
-0.0104474
7.84162e-05
-0.0104402
6.64786e-05
-0.0104317
5.45603e-05
-0.0104221
4.26626e-05
-0.0104113
3.07871e-05
-0.0103993
1.89354e-05
-0.0103862
7.10873e-06
-0.0103719
-4.69104e-06
-0.0103564
-1.64622e-05
-0.0103398
-2.82028e-05
-0.0103219
-3.99123e-05
-0.010303
-5.15896e-05
-0.0102828
-6.3234e-05
-0.0102615
-7.48442e-05
-0.0102391
-8.6419e-05
-0.0102154
-9.79574e-05
-0.0101907
-0.000109458
-0.0101648
-0.00012092
-0.0101377
-0.000132342
-0.0101095
-0.000143723
-0.0100801
-0.000155061
-0.0100496
-0.000166355
-0.0100179
-0.000177605
-0.00998509
-0.000188809
-0.00995114
-0.000199966
-0.00991605
-0.000211075
-0.00987983
-0.000222134
-0.00984247
-0.000233143
-0.00980399
-0.0002441
-0.00976438
-0.000255004
-0.00972364
-0.000265855
-0.0096818
-0.00027665
-0.00963883
-0.00028739
-0.00959476
-0.000298073
-0.00954958
-0.000308698
-0.0095033
-0.000319263
-0.00945593
-0.000329768
-0.00940747
-0.000340212
-0.00935791
-0.000350594
-0.00930728
-0.000360912
-0.00925558
-0.000371166
-0.0092028
-0.000381355
-0.00914896
-0.000391478
-0.00909407
-0.000401533
-0.00903812
-0.00041152
-0.00898113
-0.000421438
-0.00892309
-0.000431286
-0.00886403
-0.000441062
-0.00880394
-0.000450766
-0.00874283
-0.000460398
-0.00868071
-0.000469955
-0.00861758
-0.000479438
-0.00855345
-0.000488844
-0.00848834
-0.000498174
-0.00842224
-0.000507427
-0.00835516
-0.000516601
-0.00828712
-0.000525696
-0.00821811
-0.00053471
-0.00814816
-0.000543644
-0.00807725
-0.000552495
-0.00800541
-0.000561264
-0.00793265
-0.000569949
-0.00785896
-0.00057855
-0.00778436
-0.000587065
-0.00770886
-0.000595495
-0.00763246
-0.000603837
-0.00755518
-0.000612092
-0.00747702
-0.000620259
-0.00739799
-0.000628336
-0.0073181
-0.000636324
-0.00723736
-0.00064422
-0.00715578
-0.000652025
-0.00707337
-0.000659738
-0.00699014
-0.000667358
-0.0069061
-0.000674885
-0.00682125
-0.000682316
-0.00673562
-0.000689653
-0.00664919
-0.000696894
-0.006562
-0.000704039
-0.00647404
-0.000711086
-0.00638533
-0.000718036
-0.00629588
-0.000724887
-0.00620569
-0.000731639
-0.00611478
-0.000738291
-0.00602316
-0.000744843
-0.00593084
-0.000751294
-0.00583783
-0.000757643
-0.00574414
-0.00076389
-0.00564978
-0.000770034
-0.00555477
-0.000776075
-0.0054591
-0.000782012
-0.0053628
-0.000787844
-0.00526588
-0.000793571
-0.00516834
-0.000799193
-0.0050702
-0.000804708
-0.00497147
-0.000810117
-0.00487216
-0.000815418
-0.00477228
-0.000820612
-0.00467184
-0.000825698
-0.00457086
-0.000830674
-0.00446935
-0.000835542
-0.00436731
-0.0008403
-0.00426477
-0.000844948
-0.00416173
-0.000849486
-0.0040582
-0.000853912
-0.0039542
-0.000858228
-0.00384973
-0.000862431
-0.00374482
-0.000866523
-0.00363947
-0.000870501
-0.00353369
-0.000874367
-0.00342751
-0.00087812
-0.00332092
-0.000881759
-0.00321394
-0.000885284
-0.00310659
-0.000888694
-0.00299887
-0.00089199
-0.00289081
-0.000895171
-0.0027824
-0.000898237
-0.00267367
-0.000901187
-0.00256463
-0.000904022
-0.00245529
-0.00090674
-0.00234566
-0.000909342
-0.00223576
-0.000911828
-0.00212559
-0.000914196
-0.00201518
-0.000916448
-0.00190453
-0.000918582
-0.00179365
-0.000920599
-0.00168257
-0.000922498
-0.00157129
-0.00092428
-0.00145983
-0.000925943
-0.00134819
-0.000927488
-0.0012364
-0.000928915
-0.00112446
-0.000930224
-0.00101239
-0.000931413