/*--------------------------------*- C++ -*---------------------------------*\ 
| ========                 |                                                 | 
| \      /  F ield         | OpenFOAM: The Open Source CFD Toolbox           | 
|  \    /   O peration     | Version:  v1812                                 | 
|   \  /    A nd           | Web:      www.OpenFOAM.com                      | 
|    \/     M anipulation  |                                                 | 
\*--------------------------------------------------------------------------*/ 
FoamFile
{
    version     2.0;
    format      ascii;
    class       volVectorField;
    location    "/home/james/dafoam/myRuns/bezier_coanda_opt/0.00000000001/";
    object      sens_CL_shapey;
}
// * * * * * * * * * * * * * * * * * * * * * * * * * * * * * * * * * * * * * //

dimensions      [0 0 0 0 0 0 0];
internalField   uniform (0 0 0);
boundaryField
{
    allWalls
    {
        type  wall;
        value nonuniform List<vector>
188
(
(-0.259607 0.101000 0.000005)
(0.015371 -0.135809 -0.000094)
(0.857932 -0.244748 -0.000094)
(0.175168 -0.029539 0.000005)
(0.130430 -0.117920 0.000005)
(0.263829 -0.427846 -0.000033)
(-0.071513 0.062873 -0.000033)
(-0.267559 0.329055 0.000005)
(-0.047145 0.069122 0.000205)
(-0.086886 0.141896 0.000429)
(-0.066434 0.133477 0.000479)
(-0.062171 0.141980 0.000402)
(-0.027994 0.081782 0.000399)
(-0.029394 0.102178 0.000551)
(-0.012951 0.051716 0.000652)
(-0.011618 0.055483 0.000757)
(-0.012776 0.072294 0.000868)
(-0.009571 0.061869 0.001050)
(-0.007696 0.059808 0.001205)
(-0.007222 0.069453 0.001371)
(-0.005174 0.062484 0.001546)
(-0.003569 0.058486 0.001788)
(-0.002383 0.052031 0.002019)
(-0.001109 0.078498 0.001742)
(0.000278 0.094413 0.001473)
(0.002739 0.082350 0.001456)
(0.002371 0.051056 0.001306)
(0.002918 0.034517 0.001121)
(0.005407 0.051505 0.000952)
(0.006122 0.047709 0.000496)
(0.007425 0.049431 0.000116)
(0.008561 0.050363 0.000104)
(0.009870 0.052535 0.000093)
(0.011713 0.057330 0.000083)
(0.013874 0.063430 0.000073)
(0.016399 0.070489 0.000247)
(0.019204 0.078408 0.000425)
(0.022180 0.086930 0.000424)
(0.025193 0.095430 0.000424)
(0.028084 0.103254 0.000424)
(0.031617 0.113338 0.000424)
(0.035930 0.125783 0.000459)
(0.037027 0.125801 0.000495)
(0.032481 0.105324 0.000495)
(0.040823 0.128254 0.000495)
(0.084525 0.263620 0.000495)
(0.080985 0.210938 0.000495)
(-0.096534 -0.457851 0.000204)
(-0.259421 -1.151986 -0.000086)
(0.320442 1.478603 -0.000086)
(0.142688 -1.445024 -0.000086)
(-0.220412 1.036114 -0.000086)
(-0.082498 0.341118 0.000204)
(0.025814 -0.084208 0.000495)
(-0.023396 0.066690 0.000495)
(0.013466 -0.032638 0.000495)
(0.016738 -0.047139 0.000495)
(0.018478 -0.056350 0.000495)
(0.037100 -0.121555 0.000459)
(0.070400 -0.255942 0.000424)
(0.101039 -0.436235 0.000424)
(0.050651 -0.341612 0.000424)
(0.199097 -0.244552 0.000424)
(0.120781 -0.236399 0.000424)
(-0.098924 -0.077076 0.000259)
(-0.055360 0.067756 0.000102)
(-0.060063 0.171713 0.000116)
(-0.001688 0.259897 0.000131)
(0.041934 0.091264 0.000147)
(0.023512 -0.174630 0.000162)
(-0.004218 -0.095782 0.000435)
(-0.012900 0.061435 0.000737)
(-0.009308 0.091245 0.000806)
(-0.005186 0.089078 0.000869)
(-0.002450 0.095298 0.000891)
(0.000161 0.107166 0.000824)
(0.001815 0.089155 0.000971)
(0.002639 0.062460 0.001060)
(0.004185 0.063043 0.000668)
(0.005253 0.060474 0.000489)
(0.005452 0.051537 0.000424)
(0.005761 0.045523 0.000238)
(0.006282 0.042078 0.000254)
(0.006415 0.037218 0.000280)
(0.007034 0.034797 0.000258)
(0.007289 0.032073 0.000241)
(0.007431 0.029405 0.000228)
(0.008028 0.029285 0.000149)
(0.008807 0.028619 0.000070)
(0.010734 0.025805 0.000132)
(0.011212 0.012559 0.000199)
(0.008619 -0.003007 0.000101)
(0.010750 0.009230 0.000024)
(0.011654 0.054575 -0.000065)
(-0.010451 0.086734 -0.000084)
(-0.065172 0.073285 0.000005)
(-0.207015 -0.031872 0.000005)
(-0.516239 -0.224820 -0.000105)
(-0.508417 -0.248316 -0.000105)
(0.350454 -0.087614 0.000005)
(0.303675 1.568812 -0.000086)
(-0.264760 -1.262021 -0.000086)
(-0.110643 -0.697768 -0.000086)
(0.016368 0.393332 -0.000086)
(0.022469 0.500614 -0.000086)
(0.006561 0.173997 -0.000086)
(0.011901 0.127148 -0.000086)
(0.025982 0.183395 -0.000086)
(0.054739 0.627595 -0.000086)
(0.087931 0.931997 -0.000065)
(0.088076 -1.584860 -0.000044)
(0.227815 -5.218834 -0.000044)
(1.160261 9.097607 -0.000044)
(4.023724 53.635453 -0.000044)
(-40.769730 -81.100587 -0.000044)
(47.561568 -464.023473 -0.000044)
(-27.158170 -5.716893 -0.000044)
(-11.844372 -1.589310 -0.000044)
(-53.151635 -131.980688 -0.000044)
(-4.874541 492.770833 -0.000044)
(5.947469 56.241976 -0.000007)
(-5.726886 25.906959 0.000029)
(-3.394334 5.044885 0.000029)
(-0.035248 1.289469 0.000029)
(3.165664 8.976299 0.000029)
(2.116712 6.191907 0.000029)
(1.242091 3.652192 0.000029)
(2.078396 4.396311 0.000029)
(0.623482 2.217174 0.000029)
(0.933670 2.769620 0.000029)
(3.646002 6.020629 0.000029)
(-0.377476 1.436479 0.000029)
(-0.212821 0.833625 0.000029)
(-0.202005 1.294447 0.000029)
(-0.864324 0.378363 0.000029)
(-1.261560 0.609700 0.000029)
(-0.833902 0.547023 0.000029)
(-0.166693 1.233721 0.000029)
(-0.809061 0.646956 0.000029)
(0.720343 1.266410 0.000029)
(0.065701 0.847900 0.000029)
(0.997774 0.937839 0.000029)
(1.296015 0.709851 0.000029)
(2.081246 0.446786 0.000029)
(2.289520 0.035080 0.000029)
(2.219232 -0.296677 0.000029)
(1.400632 -0.427140 0.000029)
(1.268837 -0.523965 0.000029)
(1.215438 -0.497601 0.000029)
(0.633997 -0.307130 0.000029)
(0.677570 -0.318987 0.000029)
(0.587130 -0.291619 0.000029)
(0.403281 -0.282971 0.000029)
(0.538660 -0.441583 0.000029)
(0.480981 -0.456653 0.000029)
(0.430212 -0.470421 0.000029)
(0.746533 -0.822087 0.000029)
(0.957690 -1.105016 0.000029)
(0.794106 -1.011108 0.000029)
(0.883143 -1.285567 0.000029)
(1.178932 -1.948621 0.000029)
(1.334958 -2.533684 0.000029)
(1.149137 -2.540077 0.000029)
(0.840835 -2.257788 0.000029)
(0.314393 -1.038460 0.000029)
(0.053917 -0.114377 0.000029)
(-0.160811 1.156618 0.000029)
(-0.427526 1.617616 -0.000007)
(-23.332377 0.265804 -0.000044)
(22.989593 0.261146 -0.000044)
(-0.335238 0.169645 -0.000044)
(0.376410 -0.342405 -0.000044)
(-2.122588 8.757630 -0.000044)
(-2.411767 5.544101 -0.000044)
(0.370425 -4.598915 -0.000044)
(0.066167 -0.888744 -0.000044)
(0.006894 0.031846 -0.000044)
(0.012305 -0.104997 -0.000044)
(0.012262 -0.029819 -0.000065)
(0.010863 0.027503 -0.000086)
(0.007863 0.038167 -0.000086)
(0.004758 0.072652 -0.000086)
(0.002203 0.112264 -0.000086)
(0.005506 -0.032659 -0.000086)
(0.006349 -0.158942 -0.000086)
(-0.022393 0.420359 -0.000086)
(-0.028451 1.166280 -0.000086)
(0.226698 -1.326100 -0.000086)
)
;
    }
}
