/*--------------------------------*- C++ -*---------------------------------*\ 
| ========                 |                                                 | 
| \      /  F ield         | OpenFOAM: The Open Source CFD Toolbox           | 
|  \    /   O peration     | Version:  v1812                                 | 
|   \  /    A nd           | Web:      www.OpenFOAM.com                      | 
|    \/     M anipulation  |                                                 | 
\*--------------------------------------------------------------------------*/ 
FoamFile
{
    version     2.0;
    format      ascii;
    class       volVectorField;
    location    "/home/james/dafoam/myRuns/bezier_coanda_opt/0.00000000001/";
    object      sens_CL_shapey;
}
// * * * * * * * * * * * * * * * * * * * * * * * * * * * * * * * * * * * * * //

dimensions      [0 0 0 0 0 0 0];
internalField   uniform (0 0 0);
boundaryField
{
    allWalls
    {
        type  wall;
        value nonuniform List<vector>
188
(
(-0.026986 0.004390 0.000266)
(-0.035742 0.011881 0.000278)
(-0.033529 0.017886 0.000277)
(-0.030612 0.020690 0.000275)
(-0.020475 0.017279 0.000274)
(-0.007190 0.008869 0.000272)
(-0.015010 0.024022 0.000271)
(-0.018269 0.030268 0.000269)
(-0.014121 0.029524 0.000268)
(-0.015726 0.038081 0.000266)
(-0.012410 0.036228 0.000265)
(-0.010985 0.037012 0.000263)
(-0.009794 0.038029 0.000430)
(-0.008996 0.039972 0.000599)
(-0.008124 0.041814 0.000600)
(-0.007467 0.044693 0.000602)
(-0.006656 0.046976 0.000603)
(-0.005984 0.050584 0.000605)
(-0.005271 0.054673 0.001160)
(-0.004456 0.058690 0.001811)
(-0.003598 0.064664 0.002008)
(-0.002622 0.073284 0.002211)
(-0.001321 0.086000 0.002413)
(0.000420 0.099858 0.002609)
(0.003044 0.117684 0.002633)
(0.005904 0.126880 0.002164)
(0.008865 0.130173 0.001981)
(0.010950 0.128379 0.001626)
(0.013107 0.128515 0.000919)
(0.015606 0.134608 0.000727)
(0.017427 0.134860 0.000523)
(0.019415 0.137873 0.000302)
(0.021175 0.140008 -0.000120)
(0.022856 0.142411 -0.000233)
(0.024421 0.144690 -0.000189)
(0.025846 0.146723 -0.000359)
(0.027236 0.148445 -0.000266)
(0.028456 0.149734 -0.000246)
(0.029350 0.150293 -0.000276)
(0.030057 0.150299 -0.000265)
(0.030543 0.149557 -0.000233)
(0.030789 0.147952 -0.000177)
(0.030762 0.145374 -0.000227)
(0.030516 0.141971 -0.000200)
(0.030083 0.137668 -0.000095)
(0.028990 0.130326 -0.000071)
(0.027083 0.118282 -0.000172)
(0.025992 0.111317 -0.000226)
(0.024712 0.100985 -0.000169)
(0.016527 0.059733 -0.000169)
(-0.000927 0.001191 -0.000169)
(-0.002586 0.007318 -0.000169)
(-0.003353 0.010848 0.000003)
(-0.004724 0.015880 0.000170)
(-0.006569 0.022116 0.000098)
(-0.008386 0.029386 -0.000069)
(-0.008569 0.030810 -0.000075)
(-0.004725 0.020531 0.000016)
(-0.001592 0.016475 0.000076)
(-0.002188 0.018817 0.000138)
(-0.002400 0.013776 0.000072)
(-0.002371 0.011272 0.000073)
(-0.003885 0.017370 0.000143)
(-0.005475 0.025162 0.000150)
(-0.006574 0.031488 0.000159)
(-0.007359 0.037600 0.000097)
(-0.007777 0.043678 0.000032)
(-0.007888 0.049124 0.000123)
(-0.007689 0.053756 0.000357)
(-0.007221 0.057600 0.000539)
(-0.006540 0.060880 0.000591)
(-0.005668 0.063579 0.000661)
(-0.004668 0.066524 0.000746)
(-0.003492 0.068945 0.000806)
(-0.002155 0.068519 0.000835)
(-0.000803 0.069714 0.000795)
(0.000594 0.067820 0.000628)
(0.001435 0.051733 0.000469)
(0.002080 0.043014 0.000408)
(0.002803 0.043396 0.000360)
(0.002995 0.036929 0.000320)
(0.003296 0.033256 0.000287)
(0.003526 0.029959 0.000430)
(0.003829 0.027393 0.000586)
(0.004158 0.026083 0.000586)
(0.003834 0.021482 0.000586)
(0.004400 0.021879 0.000586)
(0.004503 0.020951 0.000586)
(0.005003 0.019346 0.000401)
(0.005640 0.018619 0.000217)
(0.006518 0.016166 0.000222)
(0.007135 0.010586 0.000226)
(0.004565 -0.002058 0.000230)
(0.003529 -0.006893 0.000234)
(0.007722 0.005617 0.000238)
(0.008208 0.022413 0.000241)
(-0.000358 0.015211 0.000245)
(-0.006410 -0.000647 0.000248)
(-0.007475 -0.002372 0.000251)
(-0.012967 -0.000276 0.000253)
(0.004043 0.081584 -0.000169)
(-0.002108 0.132893 -0.000169)
(0.000089 0.125257 -0.000169)
(0.004736 0.168381 -0.000169)
(0.007345 0.238654 -0.000169)
(0.008856 0.274426 -0.000169)
(0.010857 0.315463 -0.000169)
(0.014671 0.407448 -0.000169)
(0.021828 0.600807 -0.000169)
(0.028368 0.780437 -0.000135)
(0.028605 0.621553 -0.000101)
(0.048054 0.819927 -0.000101)
(0.233857 4.639611 -0.000101)
(0.531326 10.703479 -0.000101)
(-15.163371 -35.282480 -0.000101)
(199.248971 -355.878226 -0.000101)
(-13.329735 -12.953354 -0.000101)
(-12.140242 -5.788431 -0.000101)
(-20.020420 -37.626315 -0.000101)
(-173.757569 346.673692 -0.000101)
(8.997853 99.194700 -0.000043)
(5.907703 45.723844 0.000014)
(0.938627 13.285571 0.000014)
(-0.158942 -2.020680 0.000014)
(3.525980 10.059801 0.000014)
(0.129421 1.126321 0.000014)
(-1.115592 -2.358285 0.000014)
(-0.706759 -1.193059 0.000014)
(-0.472814 -0.893593 0.000014)
(0.951608 1.275636 0.000014)
(0.450186 0.678626 0.000014)
(0.352459 0.494244 0.000014)
(0.716294 0.830684 0.000014)
(0.948833 0.944834 0.000014)
(0.909563 0.873844 0.000014)
(4.949883 3.024209 0.000014)
(9.210335 5.018242 0.000014)
(11.124120 5.056188 0.000014)
(20.154580 7.241695 0.000014)
(-6.065420 -0.414559 0.000014)
(0.548672 -1.011117 0.000014)
(14.813637 2.805828 0.000014)
(8.034731 -1.256609 0.000014)
(-9.945135 -4.882766 0.000014)
(-90.964271 4.787334 0.000014)
(-80.576910 18.120858 0.000014)
(2.886244 3.112402 0.000014)
(41.036698 -17.018315 0.000014)
(36.871738 -17.694831 0.000014)
(16.558524 -8.187112 0.000014)
(4.021059 -2.422577 0.000014)
(-0.136962 -1.427513 0.000014)
(0.300495 -1.820556 0.000014)
(1.068972 -2.366511 0.000014)
(1.520375 -1.670848 0.000014)
(0.155800 0.052809 0.000014)
(0.503327 0.042898 0.000014)
(0.691396 -0.278429 0.000014)
(0.460850 -0.252445 0.000014)
(0.271591 -0.189548 0.000014)
(0.179766 -0.163952 0.000014)
(0.102761 -0.104465 0.000014)
(0.033748 -0.026591 0.000014)
(-0.001739 0.016926 0.000014)
(-0.017369 0.038882 0.000014)
(-0.020111 0.043648 0.000014)
(-0.018410 0.038519 0.000014)
(-0.013237 0.023110 -0.000043)
(-23.440389 0.009065 -0.000101)
(23.432588 0.001992 -0.000101)
(-0.007432 0.010122 -0.000101)
(0.006050 0.000151 -0.000101)
(0.005082 -0.001105 -0.000101)
(-0.022588 0.036582 -0.000101)
(-0.019393 0.037525 -0.000101)
(-0.007387 0.017299 -0.000101)
(-0.004912 0.014899 -0.000101)
(-0.003322 0.011113 -0.000101)
(-0.002249 0.010651 -0.000135)
(-0.001624 0.010190 -0.000169)
(-0.001328 0.009455 -0.000169)
(-0.001140 0.008746 -0.000169)
(-0.001006 0.007801 -0.000169)
(-0.000934 0.007167 -0.000169)
(-0.000620 0.006350 -0.000169)
(-0.000273 0.005879 -0.000169)
(-0.000103 0.006167 -0.000169)
(0.000129 0.001688 -0.000169)
)
;
    }
}
