/*--------------------------------*- C++ -*---------------------------------*\ 
| ========                 |                                                 | 
| \      /  F ield         | OpenFOAM: The Open Source CFD Toolbox           | 
|  \    /   O peration     | Version:  v1812                                 | 
|   \  /    A nd           | Web:      www.OpenFOAM.com                      | 
|    \/     M anipulation  |                                                 | 
\*--------------------------------------------------------------------------*/ 
FoamFile
{
    version     2.0;
    format      ascii;
    class       volVectorField;
    location    "/home/james/dafoam/myRuns/bezier_coanda_opt/0.00000000001/";
    object      sens_CL_shapey;
}
// * * * * * * * * * * * * * * * * * * * * * * * * * * * * * * * * * * * * * //

dimensions      [0 0 0 0 0 0 0];
internalField   uniform (0 0 0);
boundaryField
{
    allWalls
    {
        type  wall;
        value nonuniform List<vector>
188
(
(-0.259030 0.100589 0.000138)
(0.022208 -0.138050 0.000142)
(0.864051 -0.246649 0.000140)
(0.175504 -0.029916 0.000139)
(0.131223 -0.119873 0.000137)
(0.262151 -0.427458 0.000135)
(-0.073992 0.065508 0.000134)
(-0.268463 0.330962 0.000132)
(-0.047556 0.069833 0.000130)
(-0.086877 0.142249 0.000128)
(-0.066661 0.134221 0.000126)
(-0.062146 0.142227 0.000124)
(-0.027939 0.081868 0.000250)
(-0.029144 0.101494 0.000378)
(-0.012962 0.051948 0.000380)
(-0.011713 0.056087 0.000383)
(-0.012707 0.072173 0.000385)
(-0.009567 0.062031 0.000388)
(-0.007668 0.059882 0.000837)
(-0.007180 0.069513 0.001356)
(-0.005150 0.062535 0.001505)
(-0.003549 0.058403 0.001664)
(-0.002380 0.052033 0.001830)
(-0.001380 0.078493 0.002000)
(-0.000253 0.094485 0.001965)
(0.002198 0.082340 0.001767)
(0.001849 0.051039 0.001572)
(0.002418 0.034697 0.001348)
(0.004913 0.051629 0.001147)
(0.005629 0.047798 0.000969)
(0.006894 0.049448 0.000827)
(0.008010 0.050411 0.000691)
(0.009345 0.052713 0.000550)
(0.011180 0.057413 0.000359)
(0.013348 0.063499 0.000235)
(0.016444 0.070738 0.000239)
(0.019710 0.078390 0.000244)
(0.022636 0.086760 0.000177)
(0.025678 0.095410 0.000087)
(0.028583 0.103234 0.000045)
(0.032131 0.113341 0.000023)
(0.036461 0.125883 0.000023)
(0.037496 0.125776 -0.000003)
(0.032896 0.105147 -0.000003)
(0.041250 0.128159 0.000023)
(0.084940 0.263740 0.000023)
(0.081439 0.211170 -0.000023)
(-0.096404 -0.458695 -0.000077)
(-0.259734 -1.154269 -0.000085)
(0.320529 1.481187 -0.000085)
(0.142537 -1.443016 -0.000085)
(-0.220281 1.034679 -0.000085)
(-0.082463 0.340788 -0.000058)
(0.026053 -0.084341 0.000146)
(-0.022809 0.066142 0.000173)
(0.013911 -0.032536 0.000023)
(0.017165 -0.046977 0.000023)
(0.018959 -0.056363 0.000023)
(0.037628 -0.121399 0.000023)
(0.070914 -0.255520 0.000174)
(0.101565 -0.435649 0.000257)
(0.051256 -0.341459 0.000261)
(0.199352 -0.244608 0.000337)
(0.121245 -0.236321 0.000344)
(-0.098651 -0.077049 0.000354)
(-0.055645 0.067219 0.000448)
(-0.060662 0.172348 0.000460)
(-0.002473 0.258180 0.000390)
(0.041633 0.084382 0.000604)
(0.022764 -0.175562 0.000859)
(-0.005300 -0.091147 0.000955)
(-0.013565 0.063232 0.001050)
(-0.009833 0.091524 0.001181)
(-0.005727 0.089399 0.001263)
(-0.003002 0.095658 0.001289)
(-0.000398 0.107261 0.001225)
(0.001555 0.089414 0.000912)
(0.002651 0.062490 0.000647)
(0.004192 0.062755 0.000570)
(0.005343 0.061075 0.000508)
(0.005512 0.051845 0.000459)
(0.005798 0.045299 0.000421)
(0.006335 0.042112 0.000374)
(0.006460 0.037330 0.000346)
(0.007055 0.034776 0.000348)
(0.007330 0.032071 0.000350)
(0.007477 0.029436 0.000351)
(0.008078 0.029255 0.000353)
(0.008892 0.028785 0.000237)
(0.010739 0.025800 0.000120)
(0.011291 0.012731 0.000122)
(0.008676 -0.002788 0.000123)
(0.010962 0.009643 0.000125)
(0.011954 0.055116 0.000126)
(-0.009890 0.086157 0.000127)
(-0.064816 0.071698 0.000129)
(-0.207553 -0.033010 0.000130)
(-0.517226 -0.224698 0.000131)
(-0.513258 -0.248110 0.000132)
(0.345920 -0.088027 0.000133)
(0.303928 1.571507 -0.000085)
(-0.264786 -1.264389 -0.000085)
(-0.110609 -0.698549 -0.000085)
(0.016431 0.393972 -0.000085)
(0.022507 0.500755 -0.000085)
(0.006568 0.173745 -0.000085)
(0.011896 0.126922 -0.000085)
(0.025975 0.183222 -0.000085)
(0.054732 0.627615 -0.000085)
(0.087916 0.931892 -0.000064)
(0.088024 -1.586140 -0.000043)
(0.227727 -5.220580 -0.000043)
(1.160311 9.100496 -0.000043)
(4.024069 53.644632 -0.000043)
(-40.742234 -81.089381 -0.000043)
(47.605972 -463.907937 -0.000043)
(-27.150276 -5.707240 -0.000043)
(-11.861512 -1.595533 -0.000043)
(-53.145903 -131.984494 -0.000043)
(-4.923311 492.644112 -0.000043)
(5.947766 56.257404 -0.000007)
(-5.727628 25.893455 0.000029)
(-3.398636 5.012077 0.000029)
(-0.026050 1.321344 0.000029)
(3.168824 9.010927 0.000029)
(2.108867 6.181375 0.000029)
(1.237203 3.644482 0.000029)
(2.072595 4.385529 0.000029)
(0.623736 2.216355 0.000029)
(0.943079 2.785208 0.000029)
(3.637293 6.017713 0.000029)
(-0.375819 1.437605 0.000029)
(-0.217743 0.831871 0.000029)
(-0.201194 1.292945 0.000029)
(-0.863061 0.381794 0.000029)
(-1.261602 0.607736 0.000029)
(-0.833138 0.549069 0.000029)
(-0.170336 1.230559 0.000029)
(-0.805880 0.649445 0.000029)
(0.717397 1.264783 0.000029)
(0.068203 0.849366 0.000029)
(0.996058 0.937205 0.000029)
(1.297257 0.710837 0.000029)
(2.082633 0.446987 0.000029)
(2.293354 0.036047 0.000029)
(2.218065 -0.296256 0.000029)
(1.401727 -0.426797 0.000029)
(1.267870 -0.523742 0.000029)
(1.216291 -0.497916 0.000029)
(0.634588 -0.307747 0.000029)
(0.675284 -0.318250 0.000029)
(0.586626 -0.291611 0.000029)
(0.411728 -0.287700 0.000029)
(0.539496 -0.441347 0.000029)
(0.479846 -0.456191 0.000029)
(0.432329 -0.472339 0.000029)
(0.737994 -0.814398 0.000029)
(0.951564 -1.100029 0.000029)
(0.794329 -1.012173 0.000029)
(0.882356 -1.284789 0.000029)
(1.179273 -1.948922 0.000029)
(1.333617 -2.530070 0.000029)
(1.145463 -2.531857 0.000029)
(0.837654 -2.249998 0.000029)
(0.312923 -1.034129 0.000029)
(0.053106 -0.112391 0.000029)
(-0.161021 1.154177 0.000029)
(-0.426574 1.613493 -0.000007)
(-23.332031 0.265477 -0.000043)
(22.990467 0.260308 -0.000043)
(-0.334237 0.168797 -0.000043)
(0.374127 -0.341404 -0.000043)
(-2.117463 8.736077 -0.000043)
(-2.404675 5.528529 -0.000043)
(0.369663 -4.588800 -0.000043)
(0.065980 -0.886638 -0.000043)
(0.006886 0.031418 -0.000043)
(0.012284 -0.104811 -0.000043)
(0.012247 -0.029844 -0.000064)
(0.010850 0.027507 -0.000085)
(0.007851 0.038200 -0.000085)
(0.004748 0.072737 -0.000085)
(0.002204 0.112129 -0.000085)
(0.005504 -0.032683 -0.000085)
(0.006338 -0.158806 -0.000085)
(-0.022379 0.419789 -0.000085)
(-0.028423 1.164763 -0.000085)
(0.226542 -1.324192 -0.000085)
)
;
    }
}
