/*--------------------------------*- C++ -*---------------------------------*\ 
| ========                 |                                                 | 
| \      /  F ield         | OpenFOAM: The Open Source CFD Toolbox           | 
|  \    /   O peration     | Version:  v1812                                 | 
|   \  /    A nd           | Web:      www.OpenFOAM.com                      | 
|    \/     M anipulation  |                                                 | 
\*--------------------------------------------------------------------------*/ 
FoamFile
{
    version     2.0;
    format      ascii;
    class       volVectorField;
    location    "/home/james/dafoam/myRuns/bezier_coanda_opt/0.00000000001/";
    object      sens_CL_shapey;
}
// * * * * * * * * * * * * * * * * * * * * * * * * * * * * * * * * * * * * * //

dimensions      [0 0 0 0 0 0 0];
internalField   uniform (0 0 0);
boundaryField
{
    allWalls
    {
        type  wall;
        value nonuniform List<vector>
188
(
(-0.256646 0.099508 0.000138)
(0.038352 -0.143308 0.000143)
(0.878638 -0.251303 0.000141)
(0.177102 -0.031221 0.000139)
(0.132902 -0.124197 0.000137)
(0.258296 -0.426726 0.000135)
(-0.079656 0.071765 0.000132)
(-0.270548 0.335505 0.000130)
(-0.047891 0.070527 0.000128)
(-0.086616 0.142600 0.000125)
(-0.067283 0.136128 0.000123)
(-0.062080 0.142714 0.000120)
(-0.027748 0.081652 0.000248)
(-0.028896 0.101009 0.000377)
(-0.013001 0.052337 0.000379)
(-0.011711 0.056203 0.000382)
(-0.012650 0.072137 0.000384)
(-0.009600 0.062327 0.000387)
(-0.007670 0.059950 0.000836)
(-0.007187 0.069666 0.001355)
(-0.005137 0.062478 0.001503)
(-0.003533 0.058239 0.001661)
(-0.002372 0.051994 0.001826)
(-0.001081 0.078419 0.002122)
(0.000325 0.094657 0.002085)
(0.002737 0.082198 0.001760)
(0.002409 0.050889 0.001566)
(0.003002 0.034974 0.001344)
(0.005479 0.051701 0.001144)
(0.006174 0.047969 0.000967)
(0.007463 0.049600 0.000795)
(0.008637 0.050524 0.000635)
(0.009964 0.052796 0.000506)
(0.011773 0.057531 0.000333)
(0.013866 0.063426 0.000223)
(0.016338 0.070541 0.000230)
(0.019051 0.078371 0.000236)
(0.022000 0.086696 0.000172)
(0.025053 0.095285 0.000089)
(0.027913 0.103153 0.000167)
(0.031381 0.113227 0.000162)
(0.035569 0.125440 0.000062)
(0.036637 0.125266 0.000026)
(0.032123 0.104861 0.000026)
(0.040405 0.128006 0.000062)
(0.084056 0.264029 0.000062)
(0.080643 0.211489 0.000010)
(-0.097051 -0.460974 -0.000063)
(-0.260501 -1.159738 -0.000085)
(0.320812 1.487460 -0.000085)
(0.141942 -1.436017 -0.000085)
(-0.219632 1.029608 -0.000085)
(-0.082250 0.339479 -0.000012)
(0.025730 -0.084183 0.000194)
(-0.023119 0.065157 0.000194)
(0.013081 -0.031876 0.000062)
(0.016393 -0.046391 0.000062)
(0.018400 -0.056343 0.000062)
(0.037049 -0.121083 0.000062)
(0.070321 -0.254372 0.000062)
(0.101244 -0.434097 0.000126)
(0.051443 -0.341961 0.000260)
(0.197870 -0.245036 0.000334)
(0.120051 -0.235612 0.000340)
(-0.097909 -0.077134 0.000349)
(-0.054451 0.065292 0.000429)
(-0.060138 0.173652 0.000440)
(-0.002503 0.252111 0.000383)
(0.042687 0.065401 0.000601)
(0.022557 -0.175925 0.000860)
(-0.006324 -0.077127 0.000955)
(-0.013463 0.068377 0.001049)
(-0.009292 0.092459 0.001108)
(-0.005198 0.090432 0.001189)
(-0.002461 0.096654 0.001191)
(0.000170 0.107661 0.001127)
(0.001847 0.090064 0.000908)
(0.002635 0.062491 0.000643)
(0.004081 0.061396 0.000567)
(0.005474 0.062258 0.000506)
(0.005632 0.053014 0.000458)
(0.005714 0.044554 0.000420)
(0.006352 0.042172 0.000374)
(0.006459 0.037273 0.000345)
(0.007062 0.034716 0.000347)
(0.007345 0.032076 0.000349)
(0.007485 0.029398 0.000350)
(0.008107 0.029234 0.000352)
(0.008922 0.028684 0.000236)
(0.010778 0.025690 0.000119)
(0.011217 0.012509 0.000120)
(0.008658 -0.002642 0.000122)
(0.010934 0.010167 0.000123)
(0.011554 0.055223 0.000125)
(-0.011108 0.086224 0.000126)
(-0.066438 0.071498 0.000128)
(-0.208098 -0.033520 0.000129)
(-0.518069 -0.223995 0.000130)
(-0.523482 -0.247612 0.000131)
(0.336590 -0.088971 0.000132)
(0.304564 1.577998 -0.000085)
(-0.264923 -1.270101 -0.000085)
(-0.110575 -0.700602 -0.000085)
(0.016563 0.395361 -0.000085)
(0.022590 0.501105 -0.000085)
(0.006580 0.173120 -0.000085)
(0.011885 0.126285 -0.000085)
(0.025959 0.182637 -0.000085)
(0.054726 0.627433 -0.000085)
(0.087898 0.931377 -0.000064)
(0.087919 -1.589950 -0.000042)
(0.227575 -5.227000 -0.000042)
(1.160505 9.104113 -0.000042)
(4.025438 53.670107 -0.000042)
(-40.668859 -81.037935 -0.000042)
(47.640797 -463.552904 -0.000042)
(-27.128706 -5.678414 -0.000042)
(-11.899202 -1.606910 -0.000042)
(-53.124524 -131.976913 -0.000042)
(-4.975750 492.259450 -0.000042)
(5.944372 56.259323 -0.000007)
(-5.733145 25.844220 0.000029)
(-3.409646 4.930285 0.000029)
(-0.005235 1.394932 0.000029)
(3.173533 9.083843 0.000029)
(2.090467 6.156143 0.000029)
(1.226705 3.628856 0.000029)
(2.059919 4.361985 0.000029)
(0.624196 2.215069 0.000029)
(0.962631 2.818626 0.000029)
(3.617852 6.011560 0.000029)
(-0.372920 1.439724 0.000029)
(-0.228749 0.828149 0.000029)
(-0.199841 1.289737 0.000029)
(-0.860859 0.389324 0.000029)
(-1.261881 0.603788 0.000029)
(-0.831448 0.553978 0.000029)
(-0.176986 1.224519 0.000029)
(-0.797429 0.655660 0.000029)
(0.711869 1.261547 0.000029)
(0.073776 0.852668 0.000029)
(0.992235 0.935836 0.000029)
(1.299589 0.712908 0.000029)
(2.085149 0.447075 0.000029)
(2.303018 0.037819 0.000029)
(2.214967 -0.295448 0.000029)
(1.404531 -0.426463 0.000029)
(1.266819 -0.523574 0.000029)
(1.216198 -0.498146 0.000029)
(0.638210 -0.310183 0.000029)
(0.668483 -0.315634 0.000029)
(0.586255 -0.292460 0.000029)
(0.431173 -0.298082 0.000029)
(0.541641 -0.441459 0.000029)
(0.477609 -0.454915 0.000029)
(0.435109 -0.475453 0.000029)
(0.718570 -0.796402 0.000029)
(0.938296 -1.089992 0.000029)
(0.801957 -1.023737 0.000029)
(0.868308 -1.263000 0.000029)
(1.175858 -1.945596 0.000029)
(1.337635 -2.533005 0.000029)
(1.133858 -2.506174 0.000029)
(0.830231 -2.231409 0.000029)
(0.308782 -1.022307 0.000029)
(0.051320 -0.108494 0.000029)
(-0.161184 1.146951 0.000029)
(-0.423732 1.601658 -0.000007)
(-23.331101 0.264243 -0.000042)
(22.992736 0.257915 -0.000042)
(-0.331366 0.166483 -0.000042)
(0.368224 -0.338728 -0.000042)
(-2.103487 8.677053 -0.000042)
(-2.385127 5.486419 -0.000042)
(0.367806 -4.560415 -0.000042)
(0.065492 -0.880739 -0.000042)
(0.006848 0.030504 -0.000042)
(0.012215 -0.104126 -0.000042)
(0.012203 -0.030081 -0.000064)
(0.010798 0.027595 -0.000085)
(0.007796 0.038534 -0.000085)
(0.004700 0.073099 -0.000085)
(0.002189 0.111651 -0.000085)
(0.005472 -0.032661 -0.000085)
(0.006281 -0.158166 -0.000085)
(-0.022323 0.417847 -0.000085)
(-0.028339 1.159372 -0.000085)
(0.225856 -1.317689 -0.000085)
)
;
    }
}
