/*--------------------------------*- C++ -*---------------------------------*\ 
| ========                 |                                                 | 
| \      /  F ield         | OpenFOAM: The Open Source CFD Toolbox           | 
|  \    /   O peration     | Version:  v1812                                 | 
|   \  /    A nd           | Web:      www.OpenFOAM.com                      | 
|    \/     M anipulation  |                                                 | 
\*--------------------------------------------------------------------------*/ 
FoamFile
{
    version     2.0;
    format      ascii;
    class       volVectorField;
    location    "/home/james/dafoam/myRuns/bezier_coanda_opt/0.00000000001/";
    object      sens_CL_shapey;
}
// * * * * * * * * * * * * * * * * * * * * * * * * * * * * * * * * * * * * * //

dimensions      [0 0 0 0 0 0 0];
internalField   uniform (0 0 0);
boundaryField
{
    allWalls
    {
        type  wall;
        value nonuniform List<vector>
188
(
(-0.257894 0.100022 0.000007)
(0.030925 -0.140927 -0.000127)
(0.872299 -0.249286 -0.000127)
(0.176556 -0.030712 0.000007)
(0.132019 -0.122148 0.000007)
(0.259971 -0.427065 -0.000061)
(-0.077091 0.068952 -0.000061)
(-0.269719 0.333681 0.000007)
(-0.047766 0.070321 0.000209)
(-0.086763 0.142515 0.000434)
(-0.066989 0.135253 0.000483)
(-0.062065 0.142442 0.000392)
(-0.027836 0.081786 0.000360)
(-0.029024 0.101242 0.000510)
(-0.013000 0.052116 0.000629)
(-0.011741 0.056153 0.000748)
(-0.012699 0.072177 0.000883)
(-0.009596 0.062195 0.001062)
(-0.007696 0.059905 0.001228)
(-0.007214 0.069561 0.001446)
(-0.005160 0.062518 0.001649)
(-0.003546 0.058341 0.001923)
(-0.002375 0.052072 0.002089)
(-0.001112 0.078515 0.001739)
(0.000277 0.094488 0.001491)
(0.002720 0.082162 0.001475)
(0.002378 0.050976 0.001324)
(0.002947 0.034817 0.001140)
(0.005420 0.051614 0.000971)
(0.006140 0.047879 0.000520)
(0.007427 0.049554 0.000144)
(0.008550 0.050446 0.000133)
(0.009876 0.052714 0.000123)
(0.011697 0.057426 0.000112)
(0.013838 0.063452 0.000102)
(0.016369 0.070596 0.000251)
(0.019139 0.078417 0.000404)
(0.022056 0.086741 0.000402)
(0.025094 0.095388 0.000402)
(0.028007 0.103340 0.000402)
(0.031460 0.113165 0.000402)
(0.035720 0.125475 0.000438)
(0.036823 0.125546 0.000473)
(0.032305 0.105132 0.000473)
(0.040616 0.128071 0.000473)
(0.084293 0.263910 0.000473)
(0.080802 0.211411 0.000473)
(-0.096914 -0.460049 0.000193)
(-0.260214 -1.157580 -0.000086)
(0.320736 1.484904 -0.000086)
(0.142327 -1.440335 -0.000086)
(-0.220090 1.032762 -0.000086)
(-0.082351 0.340295 0.000193)
(0.025874 -0.084167 0.000473)
(-0.023179 0.065941 0.000473)
(0.013330 -0.032179 0.000473)
(0.016602 -0.046617 0.000473)
(0.018474 -0.056181 0.000473)
(0.037075 -0.121151 0.000438)
(0.070329 -0.254968 0.000402)
(0.101085 -0.434768 0.000402)
(0.050916 -0.341136 0.000402)
(0.198548 -0.244439 0.000402)
(0.120685 -0.235891 0.000402)
(-0.098295 -0.076890 0.000263)
(-0.054816 0.066328 0.000131)
(-0.060252 0.173201 0.000145)
(-0.002321 0.255232 0.000160)
(0.042516 0.074177 0.000175)
(0.023028 -0.176373 0.000190)
(-0.005582 -0.084087 0.000459)
(-0.013310 0.065841 0.000756)
(-0.009350 0.091933 0.000825)
(-0.005238 0.089860 0.000887)
(-0.002497 0.096115 0.000909)
(0.000131 0.107458 0.000841)
(0.001836 0.089602 0.000775)
(0.002657 0.062672 0.000895)
(0.004188 0.062852 0.000913)
(0.005326 0.061057 0.000715)
(0.005487 0.051794 0.000468)
(0.005757 0.045325 0.000276)
(0.006304 0.042119 0.000263)
(0.006461 0.037372 0.000272)
(0.007057 0.034803 0.000252)
(0.007333 0.032123 0.000237)
(0.007473 0.029473 0.000225)
(0.008080 0.029275 0.000123)
(0.008927 0.028810 0.000016)
(0.010772 0.025748 0.000105)
(0.011307 0.012695 0.000203)
(0.008720 -0.002683 0.000105)
(0.011064 0.009978 -0.000015)
(0.011958 0.055383 -0.000135)
(-0.010123 0.085960 -0.000113)
(-0.065354 0.071002 0.000007)
(-0.208027 -0.033657 0.000007)
(-0.518043 -0.224437 -0.000139)
(-0.519194 -0.247904 -0.000139)
(0.340719 -0.088576 0.000007)
(0.304328 1.575393 -0.000086)
(-0.264922 -1.267827 -0.000086)
(-0.110611 -0.699806 -0.000086)
(0.016512 0.394849 -0.000086)
(0.022561 0.501043 -0.000086)
(0.006579 0.173429 -0.000086)
(0.011895 0.126607 -0.000086)
(0.025974 0.182962 -0.000086)
(0.054742 0.627686 -0.000086)
(0.087926 0.931855 -0.000065)
(0.087986 -1.588438 -0.000044)
(0.227688 -5.224866 -0.000044)
(1.160695 9.104948 -0.000044)
(4.025814 53.669864 -0.000044)
(-40.711635 -81.079479 -0.000044)
(47.738323 -463.842502 -0.000044)
(-27.135486 -5.693210 -0.000044)
(-11.882175 -1.601347 -0.000044)
(-53.144978 -132.006558 -0.000044)
(-5.059318 492.553088 -0.000044)
(5.951702 56.310187 -0.000007)
(-5.728113 25.888274 0.000029)
(-3.404432 4.972664 0.000029)
(-0.014404 1.361156 0.000029)
(3.174091 9.058053 0.000029)
(2.099301 6.168743 0.000029)
(1.231243 3.634846 0.000029)
(2.065306 4.371727 0.000029)
(0.623943 2.214790 0.000029)
(0.955299 2.805225 0.000029)
(3.626318 6.014007 0.000029)
(-0.375486 1.437134 0.000029)
(-0.225821 0.827582 0.000029)
(-0.201947 1.289348 0.000029)
(-0.866254 0.382568 0.000029)
(-1.271328 0.599335 0.000029)
(-0.842912 0.545876 0.000029)
(-0.194047 1.218734 0.000029)
(-0.814215 0.647829 0.000029)
(0.705677 1.261472 0.000029)
(0.037154 0.844817 0.000029)
(0.947867 0.928976 0.000029)
(1.259168 0.703999 0.000029)
(2.196694 0.455704 0.000029)
(2.512507 0.056610 0.000029)
(2.215577 -0.273819 0.000029)
(1.323617 -0.409834 0.000029)
(1.251913 -0.516862 0.000029)
(1.195305 -0.492782 0.000029)
(0.631998 -0.309590 0.000029)
(0.667510 -0.318656 0.000029)
(0.586338 -0.296076 0.000029)
(0.421193 -0.297145 0.000029)
(0.536124 -0.443279 0.000029)
(0.471476 -0.455237 0.000029)
(0.430600 -0.475212 0.000029)
(0.728633 -0.807539 0.000029)
(0.944451 -1.094998 0.000029)
(0.795993 -1.014964 0.000029)
(0.881580 -1.283908 0.000029)
(1.180384 -1.949997 0.000029)
(1.332255 -2.525706 0.000029)
(1.140843 -2.521316 0.000029)
(0.833419 -2.239545 0.000029)
(0.310824 -1.028036 0.000029)
(0.051995 -0.109581 0.000029)
(-0.161310 1.150999 0.000029)
(-0.425412 1.608064 -0.000007)
(-23.331646 0.265056 -0.000044)
(22.991599 0.259243 -0.000044)
(-0.332904 0.167671 -0.000044)
(0.371218 -0.340082 -0.000044)
(-2.110708 8.708244 -0.000044)
(-2.395392 5.508179 -0.000044)
(0.368731 -4.575897 -0.000044)
(0.065819 -0.883915 -0.000044)
(0.006870 0.030900 -0.000044)
(0.012242 -0.104539 -0.000044)
(0.012216 -0.029885 -0.000065)
(0.010821 0.027534 -0.000086)
(0.007824 0.038274 -0.000086)
(0.004724 0.072870 -0.000086)
(0.002194 0.111945 -0.000086)
(0.005490 -0.032722 -0.000086)
(0.006314 -0.158616 -0.000086)
(-0.022364 0.419046 -0.000086)
(-0.028391 1.162748 -0.000086)
(0.226327 -1.321671 -0.000086)
)
;
    }
}
