/*--------------------------------*- C++ -*----------------------------------*\
  =========                 |
  \\      /  F ield         | OpenFOAM: The Open Source CFD Toolbox
   \\    /   O peration     | Website:  https://openfoam.org
    \\  /    A nd           | Version:  8
     \\/     M anipulation  |
\*---------------------------------------------------------------------------*/
FoamFile
{
    version     2.0;
    format      ascii;
    class       volScalarField;
    location    "46";
    object      nuTilda;
}
// * * * * * * * * * * * * * * * * * * * * * * * * * * * * * * * * * * * * * //

dimensions      [0 2 -1 0 0 0 0];

internalField   nonuniform List<scalar> 
277560
(
0.153986
0.154055
0.154105
0.154159
0.154214
0.15427
0.154328
0.154387
0.154448
0.15451
0.154573
0.154638
0.154704
0.154771
0.15484
0.15491
0.154982
0.155055
0.155129
0.155205
0.155281
0.155359
0.155438
0.155517
0.155597
0.155679
0.155761
0.155845
0.155929
0.156015
0.156102
0.15619
0.15628
0.15637
0.156462
0.156555
0.156649
0.156744
0.156841
0.156939
0.157038
0.157138
0.15724
0.157343
0.157447
0.157553
0.15766
0.157768
0.157878
0.157989
0.158102
0.158215
0.158331
0.158447
0.158566
0.158685
0.158806
0.158929
0.159053
0.159179
0.159306
0.159435
0.159565
0.159698
0.159831
0.159967
0.160104
0.160243
0.160383
0.160524
0.160667
0.160811
0.160957
0.161104
0.161253
0.161403
0.161554
0.161708
0.161863
0.162019
0.162178
0.162339
0.162501
0.162665
0.162831
0.162999
0.16317
0.163342
0.163516
0.163693
0.163871
0.164052
0.164235
0.164421
0.164609
0.164799
0.164992
0.165187
0.165385
0.165585
0.165788
0.165994
0.166203
0.166414
0.166628
0.166845
0.167065
0.167288
0.167514
0.167744
0.167976
0.168212
0.168451
0.168694
0.16894
0.169189
0.169442
0.169699
0.169962
0.170236
0.154048
0.154119
0.154169
0.154223
0.154279
0.154336
0.154394
0.154453
0.154513
0.154575
0.154638
0.154703
0.154769
0.154836
0.154904
0.154974
0.155045
0.155118
0.155192
0.155268
0.155346
0.155425
0.155506
0.155587
0.155669
0.155752
0.155835
0.155919
0.156004
0.156091
0.156178
0.156267
0.156356
0.156447
0.156539
0.156632
0.156726
0.156822
0.156918
0.157016
0.157115
0.157215
0.157316
0.157419
0.157523
0.157628
0.157734
0.157841
0.15795
0.15806
0.158172
0.158284
0.158398
0.158513
0.15863
0.158747
0.158867
0.158987
0.159109
0.159232
0.159356
0.159482
0.15961
0.159738
0.159869
0.160001
0.160135
0.160274
0.160415
0.160558
0.160703
0.16085
0.160999
0.161149
0.161299
0.16145
0.161602
0.161755
0.16191
0.162067
0.162225
0.162385
0.162546
0.16271
0.162875
0.163043
0.163212
0.163383
0.163556
0.163731
0.163908
0.164088
0.164269
0.164453
0.164639
0.164827
0.165018
0.165211
0.165407
0.165605
0.165805
0.166008
0.166214
0.166423
0.166634
0.166848
0.167065
0.167285
0.167508
0.167734
0.167963
0.168195
0.168431
0.16867
0.168912
0.169158
0.169407
0.16966
0.169919
0.170189
0.154129
0.154204
0.154256
0.154314
0.154371
0.15443
0.154491
0.154552
0.154615
0.154679
0.154743
0.15481
0.154877
0.154945
0.155015
0.155086
0.155157
0.15523
0.155304
0.155379
0.155456
0.155539
0.155625
0.155715
0.155805
0.155893
0.155981
0.156069
0.156159
0.156249
0.15634
0.156432
0.156525
0.156619
0.156715
0.156811
0.156908
0.157007
0.157106
0.157207
0.157308
0.157411
0.157515
0.15762
0.157726
0.157834
0.157942
0.158052
0.158162
0.158274
0.158387
0.158502
0.158617
0.158734
0.158852
0.158971
0.159092
0.159214
0.159337
0.159461
0.159587
0.159715
0.159844
0.159974
0.160106
0.160239
0.160375
0.160511
0.160649
0.160789
0.160929
0.161071
0.161214
0.161359
0.161504
0.161651
0.1618
0.16195
0.162102
0.162255
0.16241
0.162567
0.162725
0.162885
0.163047
0.163211
0.163376
0.163544
0.163713
0.163885
0.164058
0.164234
0.164412
0.164592
0.164774
0.164958
0.165145
0.165334
0.165526
0.16572
0.165916
0.166116
0.166317
0.166522
0.166729
0.166939
0.167152
0.167368
0.167587
0.16781
0.168035
0.168263
0.168495
0.16873
0.168969
0.169211
0.169457
0.169706
0.169961
0.170229
0.154315
0.154398
0.154458
0.154522
0.154586
0.154651
0.154718
0.154785
0.154854
0.154924
0.154994
0.155066
0.155139
0.155214
0.155289
0.155366
0.155444
0.155523
0.155603
0.155686
0.15577
0.155856
0.155943
0.156031
0.156119
0.156207
0.156296
0.156385
0.156476
0.156567
0.156659
0.156752
0.156846
0.156941
0.157036
0.157133
0.157231
0.157329
0.157429
0.15753
0.157631
0.157734
0.157837
0.157942
0.158047
0.158153
0.158261
0.158369
0.158479
0.15859
0.158701
0.158814
0.158928
0.159042
0.159158
0.159276
0.159394
0.159513
0.159634
0.159755
0.159878
0.160002
0.160128
0.160254
0.160382
0.160511
0.160641
0.160772
0.160905
0.161038
0.161173
0.16131
0.161447
0.161586
0.161727
0.161868
0.162012
0.162157
0.162303
0.162451
0.162601
0.162752
0.162905
0.16306
0.163216
0.163374
0.163535
0.163697
0.163861
0.164027
0.164195
0.164365
0.164537
0.164711
0.164888
0.165067
0.165248
0.165432
0.165618
0.165806
0.165997
0.166191
0.166387
0.166586
0.166788
0.166992
0.1672
0.16741
0.167624
0.16784
0.16806
0.168283
0.168509
0.168739
0.168972
0.169209
0.169449
0.169693
0.169943
0.170205
0.154646
0.154736
0.1548
0.154869
0.154937
0.155007
0.155077
0.155149
0.155221
0.155295
0.155369
0.155445
0.155521
0.155598
0.155676
0.155756
0.155836
0.155917
0.156
0.156083
0.156167
0.156252
0.156337
0.156423
0.156509
0.156596
0.156684
0.156772
0.156861
0.156951
0.157041
0.157132
0.157224
0.157317
0.15741
0.157504
0.157599
0.157695
0.157791
0.157889
0.157987
0.158086
0.158186
0.158287
0.158389
0.158491
0.158594
0.158699
0.158804
0.15891
0.159016
0.159124
0.159233
0.159343
0.159453
0.159565
0.159677
0.159791
0.159905
0.160021
0.160138
0.160255
0.160374
0.160494
0.160615
0.160737
0.16086
0.160984
0.16111
0.161237
0.161365
0.161494
0.161625
0.161757
0.161891
0.162026
0.162163
0.162301
0.16244
0.162582
0.162724
0.162869
0.163015
0.163163
0.163313
0.163465
0.163618
0.163774
0.163931
0.16409
0.164252
0.164416
0.164581
0.164749
0.16492
0.165092
0.165267
0.165444
0.165624
0.165807
0.165992
0.166179
0.16637
0.166563
0.166759
0.166957
0.167159
0.167364
0.167572
0.167783
0.167998
0.168215
0.168436
0.168661
0.168889
0.169121
0.169356
0.169595
0.169841
0.170098
0.155058
0.155152
0.155219
0.155289
0.15536
0.155431
0.155503
0.155576
0.15565
0.155724
0.155799
0.155874
0.15595
0.156027
0.156105
0.156183
0.156262
0.156342
0.156422
0.156502
0.156583
0.156665
0.156747
0.156829
0.156912
0.156995
0.157079
0.157163
0.157248
0.157333
0.157419
0.157506
0.157593
0.157681
0.157769
0.157858
0.157947
0.158038
0.158129
0.15822
0.158313
0.158406
0.158499
0.158594
0.158689
0.158785
0.158881
0.158979
0.159077
0.159176
0.159275
0.159376
0.159477
0.15958
0.159683
0.159787
0.159892
0.159997
0.160104
0.160212
0.160321
0.160431
0.160542
0.160654
0.160767
0.160882
0.160997
0.161114
0.161232
0.161351
0.161472
0.161594
0.161718
0.161843
0.161969
0.162097
0.162227
0.162358
0.162491
0.162625
0.162761
0.162899
0.163039
0.163181
0.163324
0.16347
0.163617
0.163767
0.163918
0.164072
0.164228
0.164386
0.164546
0.164709
0.164874
0.165042
0.165212
0.165385
0.16556
0.165738
0.165919
0.166102
0.166288
0.166477
0.16667
0.166865
0.167063
0.167265
0.16747
0.167678
0.167889
0.168104
0.168323
0.168545
0.16877
0.169
0.169233
0.169471
0.169714
0.169969
0.155501
0.155596
0.155663
0.155732
0.155802
0.155872
0.155943
0.156014
0.156086
0.156158
0.15623
0.156303
0.156376
0.15645
0.156524
0.156598
0.156672
0.156747
0.156822
0.156898
0.156974
0.15705
0.157126
0.157202
0.157279
0.157357
0.157434
0.157512
0.157591
0.15767
0.157749
0.157829
0.157909
0.15799
0.158071
0.158152
0.158234
0.158317
0.1584
0.158484
0.158569
0.158654
0.15874
0.158826
0.158913
0.159001
0.159089
0.159178
0.159268
0.159359
0.159451
0.159543
0.159636
0.15973
0.159825
0.159921
0.160018
0.160116
0.160215
0.160315
0.160416
0.160518
0.160622
0.160726
0.160832
0.16094
0.161048
0.161158
0.161269
0.161382
0.161497
0.161612
0.16173
0.161849
0.161969
0.162092
0.162216
0.162342
0.162469
0.162599
0.16273
0.162863
0.162999
0.163136
0.163276
0.163417
0.163561
0.163707
0.163855
0.164006
0.164159
0.164314
0.164472
0.164632
0.164795
0.16496
0.165128
0.165299
0.165473
0.165649
0.165829
0.166011
0.166196
0.166385
0.166576
0.166771
0.166968
0.16717
0.167374
0.167582
0.167793
0.168008
0.168227
0.168449
0.168675
0.168905
0.169139
0.169377
0.16962
0.169876
0.155937
0.156028
0.156092
0.156158
0.156225
0.156291
0.156358
0.156424
0.156491
0.156559
0.156626
0.156693
0.156761
0.156828
0.156896
0.156964
0.157032
0.1571
0.157168
0.157236
0.157305
0.157374
0.157442
0.157512
0.157581
0.15765
0.15772
0.15779
0.157861
0.157932
0.158003
0.158074
0.158146
0.158218
0.158291
0.158364
0.158437
0.158512
0.158586
0.158662
0.158738
0.158814
0.158891
0.158969
0.159048
0.159128
0.159208
0.159289
0.159371
0.159453
0.159537
0.159622
0.159707
0.159794
0.159882
0.15997
0.16006
0.160151
0.160244
0.160337
0.160432
0.160529
0.160626
0.160725
0.160826
0.160928
0.161031
0.161137
0.161243
0.161352
0.161462
0.161574
0.161687
0.161803
0.16192
0.162039
0.162161
0.162284
0.162409
0.162536
0.162665
0.162797
0.162931
0.163066
0.163205
0.163345
0.163488
0.163633
0.163781
0.163931
0.164083
0.164238
0.164396
0.164557
0.16472
0.164886
0.165054
0.165226
0.1654
0.165577
0.165757
0.16594
0.166127
0.166316
0.166509
0.166704
0.166904
0.167106
0.167312
0.167521
0.167734
0.16795
0.16817
0.168394
0.168622
0.168853
0.169088
0.169327
0.169573
0.16983
0.156335
0.156418
0.156477
0.156537
0.156598
0.156658
0.156718
0.156778
0.156838
0.156898
0.156958
0.157018
0.157078
0.157137
0.157197
0.157257
0.157317
0.157376
0.157436
0.157496
0.157556
0.157616
0.157676
0.157736
0.157797
0.157858
0.157919
0.15798
0.158042
0.158104
0.158166
0.158229
0.158292
0.158355
0.158419
0.158484
0.158549
0.158615
0.158681
0.158749
0.158816
0.158885
0.158955
0.159025
0.159096
0.159169
0.159242
0.159316
0.159391
0.159468
0.159545
0.159624
0.159704
0.159785
0.159867
0.159951
0.160036
0.160123
0.160211
0.1603
0.160391
0.160484
0.160578
0.160674
0.160772
0.160871
0.160972
0.161075
0.16118
0.161287
0.161395
0.161506
0.161618
0.161733
0.161849
0.161968
0.162089
0.162212
0.162337
0.162464
0.162593
0.162725
0.162859
0.162995
0.163134
0.163275
0.163419
0.163565
0.163713
0.163864
0.164018
0.164174
0.164333
0.164494
0.164658
0.164825
0.164995
0.165167
0.165342
0.165521
0.165702
0.165886
0.166073
0.166263
0.166456
0.166653
0.166853
0.167056
0.167262
0.167472
0.167685
0.167901
0.168122
0.168345
0.168573
0.168804
0.169039
0.169278
0.169522
0.169779
0.156672
0.156744
0.156795
0.156848
0.1569
0.156952
0.157004
0.157056
0.157107
0.157158
0.157209
0.15726
0.15731
0.157361
0.157411
0.157462
0.157512
0.157563
0.157613
0.157664
0.157715
0.157766
0.157817
0.157868
0.15792
0.157971
0.158024
0.158076
0.158129
0.158183
0.158237
0.158291
0.158346
0.158402
0.158458
0.158515
0.158573
0.158632
0.158692
0.158752
0.158814
0.158876
0.15894
0.159005
0.159071
0.159138
0.159206
0.159276
0.159346
0.159419
0.159492
0.159568
0.159644
0.159722
0.159802
0.159883
0.159966
0.160051
0.160137
0.160225
0.160315
0.160407
0.1605
0.160595
0.160692
0.160791
0.160892
0.160995
0.1611
0.161207
0.161316
0.161427
0.16154
0.161656
0.161773
0.161892
0.162014
0.162138
0.162264
0.162392
0.162523
0.162655
0.16279
0.162928
0.163068
0.16321
0.163354
0.163501
0.16365
0.163802
0.163957
0.164113
0.164273
0.164435
0.164599
0.164767
0.164936
0.165109
0.165284
0.165463
0.165644
0.165827
0.166014
0.166204
0.166397
0.166592
0.166791
0.166993
0.167198
0.167407
0.167619
0.167834
0.168052
0.168274
0.1685
0.168729
0.168962
0.169199
0.169441
0.169695
0.156932
0.156991
0.157033
0.157076
0.157119
0.157161
0.157203
0.157245
0.157286
0.157328
0.157369
0.15741
0.157451
0.157491
0.157532
0.157573
0.157614
0.157655
0.157696
0.157738
0.157779
0.157821
0.157864
0.157907
0.15795
0.157994
0.158038
0.158083
0.158128
0.158174
0.158221
0.158269
0.158318
0.158368
0.158418
0.15847
0.158522
0.158576
0.158631
0.158687
0.158744
0.158803
0.158863
0.158925
0.158988
0.159052
0.159118
0.159186
0.159255
0.159326
0.159398
0.159472
0.159548
0.159625
0.159705
0.159786
0.159869
0.159953
0.16004
0.160129
0.160219
0.160311
0.160406
0.160502
0.1606
0.1607
0.160803
0.160907
0.161013
0.161122
0.161232
0.161344
0.161459
0.161576
0.161694
0.161815
0.161938
0.162063
0.162191
0.16232
0.162452
0.162586
0.162722
0.16286
0.163
0.163143
0.163288
0.163436
0.163586
0.163738
0.163892
0.164049
0.164209
0.164371
0.164535
0.164702
0.164872
0.165044
0.165219
0.165396
0.165576
0.165759
0.165945
0.166134
0.166325
0.16652
0.166718
0.166918
0.167122
0.167329
0.167539
0.167752
0.167969
0.168189
0.168413
0.16864
0.168871
0.169105
0.169345
0.169597
0.157108
0.15715
0.157183
0.157215
0.157247
0.157279
0.157311
0.157342
0.157373
0.157404
0.157435
0.157466
0.157497
0.157529
0.15756
0.157592
0.157624
0.157656
0.157689
0.157722
0.157756
0.15779
0.157825
0.157861
0.157897
0.157934
0.157972
0.158011
0.158051
0.158092
0.158134
0.158177
0.158222
0.158267
0.158314
0.158363
0.158412
0.158464
0.158516
0.15857
0.158626
0.158684
0.158743
0.158803
0.158866
0.15893
0.158996
0.159063
0.159133
0.159204
0.159277
0.159352
0.159429
0.159508
0.159588
0.159671
0.159755
0.159842
0.15993
0.16002
0.160113
0.160207
0.160303
0.160401
0.160501
0.160603
0.160708
0.160814
0.160922
0.161032
0.161144
0.161258
0.161374
0.161492
0.161613
0.161735
0.161859
0.161986
0.162114
0.162245
0.162377
0.162512
0.162649
0.162788
0.16293
0.163073
0.163219
0.163367
0.163517
0.163669
0.163824
0.163981
0.16414
0.164302
0.164467
0.164633
0.164803
0.164975
0.165149
0.165326
0.165506
0.165688
0.165873
0.166061
0.166252
0.166446
0.166643
0.166843
0.167045
0.167251
0.16746
0.167673
0.167889
0.168108
0.16833
0.168556
0.168786
0.169019
0.169258
0.169508
0.157195
0.157222
0.157243
0.157265
0.157286
0.157307
0.157329
0.15735
0.157371
0.157392
0.157414
0.157436
0.157458
0.157481
0.157504
0.157527
0.157552
0.157577
0.157602
0.157629
0.157656
0.157685
0.157714
0.157744
0.157776
0.157809
0.157843
0.157878
0.157915
0.157953
0.157992
0.158033
0.158076
0.15812
0.158166
0.158213
0.158262
0.158313
0.158366
0.15842
0.158476
0.158534
0.158594
0.158656
0.158719
0.158785
0.158852
0.158922
0.158993
0.159066
0.159141
0.159219
0.159298
0.159379
0.159462
0.159546
0.159633
0.159722
0.159813
0.159905
0.16
0.160096
0.160195
0.160295
0.160397
0.160502
0.160608
0.160716
0.160826
0.160938
0.161052
0.161167
0.161285
0.161405
0.161527
0.16165
0.161776
0.161903
0.162033
0.162165
0.162298
0.162434
0.162572
0.162711
0.162853
0.162997
0.163144
0.163292
0.163443
0.163595
0.16375
0.163908
0.164067
0.164229
0.164394
0.16456
0.16473
0.164901
0.165076
0.165253
0.165432
0.165614
0.165799
0.165986
0.166177
0.16637
0.166566
0.166765
0.166967
0.167172
0.167381
0.167592
0.167807
0.168025
0.168247
0.168471
0.1687
0.168932
0.169169
0.169418
0.157199
0.157209
0.15722
0.157231
0.157242
0.157253
0.157265
0.157277
0.157289
0.157302
0.157316
0.15733
0.157344
0.15736
0.157377
0.157394
0.157413
0.157432
0.157453
0.157475
0.157498
0.157523
0.157549
0.157577
0.157606
0.157636
0.157669
0.157703
0.157738
0.157776
0.157815
0.157856
0.157899
0.157943
0.15799
0.158038
0.158089
0.158141
0.158195
0.158252
0.15831
0.15837
0.158432
0.158496
0.158562
0.158631
0.158701
0.158773
0.158847
0.158923
0.159001
0.159081
0.159162
0.159246
0.159332
0.159419
0.159509
0.1596
0.159693
0.159788
0.159885
0.159984
0.160085
0.160187
0.160292
0.160398
0.160506
0.160616
0.160728
0.160841
0.160957
0.161074
0.161193
0.161314
0.161437
0.161562
0.161689
0.161817
0.161948
0.16208
0.162215
0.162351
0.16249
0.16263
0.162773
0.162918
0.163064
0.163213
0.163364
0.163517
0.163672
0.16383
0.16399
0.164152
0.164316
0.164483
0.164652
0.164824
0.164998
0.165175
0.165354
0.165535
0.16572
0.165907
0.166097
0.16629
0.166485
0.166684
0.166885
0.167089
0.167297
0.167508
0.167721
0.167939
0.168159
0.168383
0.16861
0.168841
0.169077
0.169324
0.157127
0.157121
0.157123
0.157125
0.157127
0.15713
0.157134
0.157138
0.157143
0.157149
0.157156
0.157165
0.157174
0.157185
0.157197
0.157211
0.157226
0.157242
0.15726
0.15728
0.157302
0.157325
0.15735
0.157377
0.157406
0.157437
0.157469
0.157504
0.157541
0.15758
0.15762
0.157663
0.157708
0.157755
0.157804
0.157855
0.157908
0.157963
0.15802
0.15808
0.158141
0.158204
0.15827
0.158337
0.158406
0.158478
0.158551
0.158626
0.158703
0.158783
0.158864
0.158946
0.159031
0.159118
0.159206
0.159297
0.159389
0.159483
0.159578
0.159676
0.159775
0.159876
0.159979
0.160084
0.16019
0.160298
0.160408
0.16052
0.160633
0.160748
0.160865
0.160984
0.161105
0.161227
0.161351
0.161477
0.161605
0.161735
0.161867
0.162
0.162135
0.162273
0.162412
0.162553
0.162697
0.162842
0.162989
0.163139
0.16329
0.163444
0.1636
0.163758
0.163918
0.16408
0.164245
0.164412
0.164582
0.164754
0.164928
0.165105
0.165285
0.165467
0.165652
0.165839
0.16603
0.166223
0.166419
0.166617
0.166819
0.167024
0.167232
0.167443
0.167657
0.167875
0.168096
0.16832
0.168548
0.168779
0.169016
0.169264
0.156991
0.156973
0.156967
0.156962
0.156957
0.156953
0.156951
0.156949
0.15695
0.156951
0.156955
0.156959
0.156966
0.156974
0.156984
0.156996
0.15701
0.157026
0.157044
0.157064
0.157086
0.15711
0.157136
0.157164
0.157195
0.157228
0.157263
0.1573
0.157339
0.157381
0.157425
0.157471
0.157519
0.157569
0.157622
0.157677
0.157733
0.157792
0.157853
0.157916
0.157981
0.158048
0.158117
0.158188
0.158261
0.158336
0.158413
0.158492
0.158572
0.158655
0.158739
0.158825
0.158913
0.159003
0.159094
0.159187
0.159282
0.159379
0.159477
0.159577
0.159679
0.159782
0.159887
0.159994
0.160103
0.160213
0.160325
0.160439
0.160554
0.160671
0.16079
0.16091
0.161032
0.161156
0.161282
0.16141
0.161539
0.16167
0.161803
0.161938
0.162075
0.162213
0.162354
0.162496
0.162641
0.162787
0.162936
0.163087
0.163239
0.163394
0.163551
0.16371
0.163872
0.164036
0.164202
0.16437
0.164541
0.164715
0.16489
0.165069
0.16525
0.165434
0.16562
0.165809
0.166001
0.166196
0.166394
0.166595
0.166799
0.167006
0.167217
0.16743
0.167647
0.167868
0.168092
0.168319
0.16855
0.168785
0.169025
0.169277
0.156808
0.15678
0.156769
0.156758
0.156748
0.15674
0.156734
0.15673
0.156728
0.156727
0.156729
0.156732
0.156738
0.156746
0.156757
0.156769
0.156784
0.156801
0.156821
0.156843
0.156867
0.156894
0.156923
0.156955
0.156989
0.157025
0.157063
0.157104
0.157148
0.157193
0.157241
0.157291
0.157344
0.157398
0.157455
0.157514
0.157575
0.157638
0.157703
0.15777
0.157839
0.15791
0.157984
0.158059
0.158135
0.158214
0.158295
0.158377
0.158461
0.158547
0.158635
0.158724
0.158816
0.158908
0.159003
0.159099
0.159197
0.159297
0.159398
0.159501
0.159605
0.159712
0.159819
0.159929
0.16004
0.160153
0.160267
0.160383
0.160501
0.16062
0.160741
0.160864
0.160988
0.161115
0.161242
0.161372
0.161504
0.161637
0.161772
0.161909
0.162047
0.162188
0.16233
0.162475
0.162621
0.162769
0.16292
0.163072
0.163227
0.163384
0.163542
0.163703
0.163867
0.164032
0.1642
0.16437
0.164543
0.164718
0.164896
0.165076
0.165259
0.165444
0.165632
0.165823
0.166017
0.166213
0.166413
0.166615
0.166821
0.16703
0.167242
0.167457
0.167675
0.167897
0.168123
0.168351
0.168584
0.16882
0.169062
0.169314
0.156594
0.156559
0.156545
0.156531
0.156519
0.156509
0.156502
0.156497
0.156494
0.156494
0.156496
0.156501
0.156508
0.156518
0.15653
0.156546
0.156563
0.156584
0.156606
0.156632
0.15666
0.156691
0.156724
0.15676
0.156798
0.156839
0.156882
0.156927
0.156975
0.157025
0.157078
0.157133
0.15719
0.157249
0.15731
0.157373
0.157439
0.157506
0.157576
0.157647
0.157721
0.157796
0.157873
0.157952
0.158033
0.158116
0.1582
0.158287
0.158375
0.158464
0.158555
0.158648
0.158743
0.158839
0.158937
0.159037
0.159138
0.159241
0.159345
0.159452
0.159559
0.159668
0.159779
0.159892
0.160006
0.160121
0.160239
0.160358
0.160478
0.1606
0.160724
0.16085
0.160977
0.161106
0.161236
0.161369
0.161503
0.161638
0.161776
0.161915
0.162056
0.162199
0.162344
0.162491
0.162639
0.16279
0.162943
0.163097
0.163254
0.163412
0.163573
0.163736
0.163901
0.164068
0.164238
0.164409
0.164584
0.16476
0.164939
0.16512
0.165304
0.16549
0.165679
0.165871
0.166065
0.166262
0.166461
0.166664
0.16687
0.167078
0.167289
0.167504
0.167722
0.167942
0.168167
0.168394
0.168625
0.168859
0.169099
0.16935
0.156364
0.156327
0.156311
0.156296
0.156284
0.156275
0.156268
0.156265
0.156264
0.156266
0.15627
0.156278
0.156288
0.156302
0.156318
0.156337
0.156358
0.156383
0.15641
0.15644
0.156473
0.156509
0.156547
0.156587
0.15663
0.156676
0.156724
0.156774
0.156827
0.156882
0.156939
0.156999
0.157061
0.157125
0.15719
0.157258
0.157328
0.1574
0.157474
0.15755
0.157627
0.157707
0.157788
0.157871
0.157956
0.158042
0.158131
0.158221
0.158312
0.158405
0.1585
0.158597
0.158695
0.158795
0.158896
0.158999
0.159103
0.159209
0.159317
0.159426
0.159537
0.15965
0.159763
0.159879
0.159996
0.160115
0.160235
0.160357
0.16048
0.160605
0.160732
0.16086
0.16099
0.161122
0.161255
0.16139
0.161526
0.161665
0.161805
0.161946
0.16209
0.162235
0.162382
0.162531
0.162682
0.162834
0.162989
0.163145
0.163303
0.163464
0.163626
0.16379
0.163956
0.164125
0.164295
0.164468
0.164643
0.16482
0.164999
0.165181
0.165365
0.165551
0.16574
0.165932
0.166125
0.166322
0.166521
0.166722
0.166927
0.167134
0.167344
0.167556
0.167772
0.167991
0.168212
0.168437
0.168664
0.168895
0.169131
0.169376
0.156132
0.156095
0.156081
0.156068
0.156057
0.15605
0.156046
0.156046
0.156048
0.156053
0.156062
0.156074
0.156088
0.156106
0.156127
0.156151
0.156177
0.156207
0.156239
0.156274
0.156312
0.156352
0.156395
0.156441
0.156489
0.15654
0.156593
0.156648
0.156705
0.156765
0.156827
0.156891
0.156958
0.157026
0.157096
0.157168
0.157242
0.157318
0.157396
0.157476
0.157557
0.15764
0.157725
0.157812
0.1579
0.15799
0.158082
0.158175
0.15827
0.158366
0.158464
0.158564
0.158665
0.158768
0.158872
0.158978
0.159085
0.159194
0.159305
0.159417
0.15953
0.159645
0.159762
0.15988
0.159999
0.16012
0.160243
0.160367
0.160493
0.16062
0.160749
0.16088
0.161012
0.161146
0.161281
0.161418
0.161556
0.161696
0.161838
0.161982
0.162127
0.162273
0.162422
0.162572
0.162724
0.162878
0.163034
0.163191
0.16335
0.163511
0.163674
0.163839
0.164006
0.164175
0.164345
0.164518
0.164693
0.16487
0.165049
0.16523
0.165414
0.165599
0.165787
0.165978
0.16617
0.166365
0.166563
0.166763
0.166966
0.167171
0.167379
0.16759
0.167804
0.16802
0.16824
0.168462
0.168687
0.168916
0.169149
0.169392
0.15591
0.155877
0.155865
0.155855
0.155848
0.155844
0.155844
0.155848
0.155855
0.155865
0.155878
0.155895
0.155914
0.155937
0.155963
0.155992
0.156024
0.156058
0.156096
0.156136
0.156179
0.156224
0.156272
0.156323
0.156375
0.156431
0.156488
0.156548
0.15661
0.156674
0.15674
0.156808
0.156879
0.156951
0.157025
0.157101
0.157178
0.157258
0.157339
0.157422
0.157507
0.157593
0.157681
0.15777
0.157862
0.157954
0.158049
0.158145
0.158242
0.158341
0.158441
0.158543
0.158647
0.158752
0.158858
0.158966
0.159075
0.159186
0.159298
0.159412
0.159527
0.159644
0.159762
0.159882
0.160003
0.160125
0.160249
0.160375
0.160502
0.16063
0.16076
0.160892
0.161025
0.16116
0.161296
0.161434
0.161573
0.161714
0.161856
0.162001
0.162146
0.162294
0.162443
0.162594
0.162746
0.1629
0.163056
0.163214
0.163373
0.163535
0.163698
0.163862
0.164029
0.164198
0.164368
0.164541
0.164715
0.164892
0.165071
0.165251
0.165434
0.165619
0.165807
0.165996
0.166188
0.166382
0.166579
0.166778
0.16698
0.167184
0.167391
0.167601
0.167814
0.168029
0.168248
0.168469
0.168694
0.168922
0.169154
0.169397
0.155707
0.155679
0.155671
0.155665
0.155662
0.155664
0.155668
0.155677
0.155689
0.155704
0.155722
0.155744
0.155769
0.155797
0.155828
0.155862
0.155899
0.155939
0.155981
0.156026
0.156074
0.156124
0.156176
0.156231
0.156288
0.156348
0.156409
0.156473
0.156539
0.156607
0.156677
0.156748
0.156822
0.156897
0.156974
0.157053
0.157134
0.157216
0.1573
0.157385
0.157472
0.157561
0.157651
0.157743
0.157836
0.157931
0.158027
0.158125
0.158224
0.158325
0.158426
0.15853
0.158635
0.158741
0.158848
0.158957
0.159067
0.159179
0.159292
0.159406
0.159522
0.159639
0.159758
0.159878
0.159999
0.160122
0.160246
0.160372
0.160499
0.160627
0.160757
0.160889
0.161022
0.161156
0.161292
0.16143
0.161569
0.16171
0.161852
0.161996
0.162142
0.162289
0.162438
0.162589
0.162741
0.162895
0.163051
0.163209
0.163369
0.16353
0.163693
0.163858
0.164025
0.164194
0.164365
0.164538
0.164714
0.164891
0.165071
0.165252
0.165436
0.165623
0.165811
0.166002
0.166196
0.166392
0.16659
0.166791
0.166995
0.167202
0.167411
0.167623
0.167838
0.168057
0.168278
0.168503
0.168732
0.168963
0.169201
0.169449
0.155527
0.155506
0.155503
0.155502
0.155505
0.155511
0.155521
0.155535
0.155552
0.155573
0.155597
0.155624
0.155654
0.155687
0.155723
0.155762
0.155804
0.155848
0.155895
0.155944
0.155996
0.156051
0.156107
0.156166
0.156227
0.15629
0.156355
0.156422
0.156491
0.156562
0.156635
0.156709
0.156786
0.156863
0.156943
0.157024
0.157107
0.157191
0.157277
0.157365
0.157454
0.157544
0.157636
0.157729
0.157823
0.157919
0.158017
0.158115
0.158215
0.158316
0.158419
0.158523
0.158628
0.158735
0.158843
0.158952
0.159062
0.159174
0.159287
0.159401
0.159516
0.159633
0.159751
0.159871
0.159992
0.160114
0.160237
0.160362
0.160489
0.160616
0.160746
0.160876
0.161008
0.161142
0.161277
0.161413
0.161552
0.161691
0.161833
0.161976
0.162121
0.162267
0.162416
0.162566
0.162719
0.162873
0.163029
0.163187
0.163348
0.16351
0.163675
0.163841
0.164009
0.164179
0.164351
0.164525
0.164701
0.164879
0.16506
0.165245
0.165433
0.165623
0.165816
0.166012
0.16621
0.166411
0.166615
0.166821
0.167031
0.167243
0.167459
0.167677
0.167898
0.168121
0.168346
0.168574
0.168805
0.169039
0.169278
0.169528
0.155376
0.155362
0.155364
0.155369
0.155377
0.155389
0.155405
0.155424
0.155446
0.155472
0.155501
0.155533
0.155568
0.155606
0.155647
0.15569
0.155737
0.155785
0.155836
0.15589
0.155946
0.156004
0.156064
0.156126
0.15619
0.156256
0.156324
0.156394
0.156466
0.15654
0.156615
0.156692
0.15677
0.15685
0.156932
0.157015
0.157099
0.157185
0.157272
0.157361
0.157451
0.157543
0.157635
0.15773
0.157825
0.157922
0.15802
0.158119
0.158219
0.158321
0.158424
0.158528
0.158633
0.15874
0.158848
0.158957
0.159067
0.159179
0.159291
0.159405
0.15952
0.159637
0.159754
0.159873
0.159994
0.160115
0.160238
0.160362
0.160488
0.160615
0.160743
0.160873
0.161004
0.161137
0.161271
0.161407
0.161544
0.161683
0.161823
0.161965
0.162108
0.162254
0.162401
0.16255
0.162701
0.162854
0.163009
0.163167
0.163329
0.163496
0.163665
0.163836
0.16401
0.164187
0.164367
0.164549
0.164733
0.164921
0.165111
0.165304
0.165499
0.165695
0.165893
0.166091
0.166292
0.166494
0.166699
0.166906
0.167115
0.167326
0.167541
0.167757
0.167977
0.168198
0.168423
0.168651
0.168881
0.169115
0.169354
0.169602
0.155253
0.155248
0.155256
0.155266
0.15528
0.155297
0.155318
0.155343
0.15537
0.155401
0.155435
0.155472
0.155512
0.155554
0.155599
0.155647
0.155697
0.15575
0.155805
0.155862
0.155921
0.155982
0.156046
0.156111
0.156178
0.156247
0.156318
0.15639
0.156464
0.15654
0.156617
0.156696
0.156776
0.156858
0.156941
0.157026
0.157112
0.157199
0.157288
0.157378
0.157469
0.157562
0.157655
0.15775
0.157847
0.157944
0.158043
0.158143
0.158244
0.158346
0.158449
0.158554
0.158659
0.158766
0.158874
0.158984
0.159094
0.159206
0.159319
0.159433
0.159548
0.159665
0.159782
0.159901
0.160022
0.160144
0.160267
0.160391
0.160517
0.160644
0.160773
0.160903
0.161034
0.161167
0.161302
0.161438
0.161575
0.161714
0.161855
0.161998
0.162142
0.162288
0.162435
0.162585
0.162737
0.162891
0.163048
0.163209
0.163375
0.163544
0.163715
0.163888
0.164064
0.164242
0.164423
0.164606
0.164791
0.164978
0.165168
0.16536
0.165554
0.16575
0.165948
0.166146
0.166346
0.166548
0.166751
0.166956
0.167163
0.167374
0.167586
0.167802
0.16802
0.168241
0.168465
0.168692
0.168922
0.169155
0.169393
0.169641
0.15516
0.155164
0.155176
0.155192
0.155212
0.155234
0.155261
0.15529
0.155323
0.155359
0.155397
0.155439
0.155483
0.155529
0.155579
0.15563
0.155684
0.15574
0.155799
0.155859
0.155922
0.155986
0.156052
0.156121
0.15619
0.156262
0.156335
0.15641
0.156486
0.156564
0.156644
0.156725
0.156807
0.15689
0.156975
0.157062
0.157149
0.157238
0.157328
0.157419
0.157512
0.157606
0.157701
0.157797
0.157894
0.157992
0.158092
0.158193
0.158295
0.158398
0.158502
0.158608
0.158714
0.158822
0.158931
0.159041
0.159153
0.159265
0.159379
0.159494
0.159611
0.159728
0.159847
0.159967
0.160089
0.160212
0.160336
0.160462
0.160589
0.160717
0.160847
0.160979
0.161112
0.161247
0.161383
0.161521
0.161661
0.161803
0.161946
0.162091
0.162238
0.162387
0.162539
0.162692
0.162848
0.163006
0.163167
0.16333
0.163495
0.163662
0.163831
0.164002
0.164175
0.164349
0.164525
0.164704
0.164883
0.165065
0.165248
0.165433
0.165619
0.165808
0.165997
0.166188
0.166381
0.166576
0.166773
0.166972
0.167174
0.167379
0.167588
0.167801
0.168016
0.168236
0.168458
0.168685
0.168914
0.169148
0.169386
0.169636
0.155095
0.155107
0.155125
0.155147
0.155171
0.155199
0.155231
0.155265
0.155303
0.155343
0.155386
0.155432
0.15548
0.155531
0.155584
0.155639
0.155697
0.155757
0.155818
0.155882
0.155948
0.156015
0.156084
0.156155
0.156228
0.156302
0.156378
0.156455
0.156534
0.156614
0.156695
0.156778
0.156862
0.156948
0.157035
0.157123
0.157212
0.157303
0.157395
0.157488
0.157582
0.157677
0.157774
0.157871
0.15797
0.15807
0.158171
0.158273
0.158377
0.158481
0.158587
0.158694
0.158802
0.158911
0.159022
0.159133
0.159246
0.15936
0.159476
0.159592
0.15971
0.159829
0.159949
0.160071
0.160194
0.160319
0.160445
0.160572
0.160701
0.160831
0.160963
0.161096
0.161231
0.161368
0.161506
0.161645
0.161787
0.16193
0.162075
0.162221
0.16237
0.16252
0.162672
0.162826
0.162981
0.163138
0.163297
0.163458
0.16362
0.163784
0.16395
0.164117
0.164285
0.164455
0.164627
0.164801
0.164976
0.165152
0.165331
0.165511
0.165693
0.165876
0.166062
0.166249
0.166439
0.166631
0.166825
0.167022
0.167221
0.167422
0.167627
0.167834
0.168045
0.168257
0.168473
0.168692
0.168913
0.169138
0.169366
0.169605
0.155056
0.155077
0.155101
0.155127
0.155157
0.15519
0.155226
0.155266
0.155308
0.155352
0.1554
0.15545
0.155502
0.155556
0.155613
0.155672
0.155734
0.155797
0.155862
0.155929
0.155997
0.156068
0.15614
0.156214
0.156289
0.156366
0.156444
0.156524
0.156605
0.156688
0.156771
0.156857
0.156943
0.157031
0.15712
0.15721
0.157301
0.157394
0.157487
0.157582
0.157678
0.157775
0.157874
0.157973
0.158073
0.158175
0.158278
0.158382
0.158487
0.158593
0.1587
0.158809
0.158918
0.159029
0.159141