/*--------------------------------*- C++ -*----------------------------------*\
  =========                 |
  \\      /  F ield         | OpenFOAM: The Open Source CFD Toolbox
   \\    /   O peration     | Website:  https://openfoam.org
    \\  /    A nd           | Version:  8
     \\/     M anipulation  |
\*---------------------------------------------------------------------------*/
FoamFile
{
    version     2.0;
    format      ascii;
    class       volScalarField;
    location    "0.719575";
    object      nut;
}
// * * * * * * * * * * * * * * * * * * * * * * * * * * * * * * * * * * * * * //

dimensions      [0 2 -1 0 0 0 0];

internalField   nonuniform List<scalar> 
127200
(
0.000196382
0.000202044
0.000207435
0.000212616
0.000217602
0.000222349
0.000226781
0.000230878
0.000234655
0.000238132
0.000241325
0.00024425
0.00024692
0.000249349
0.000251549
0.000253529
0.000255297
0.000256859
0.000258218
0.00025937
0.000260309
0.000261021
0.00026149
0.000261726
0.000261859
0.000261883
0.000261807
0.000261636
0.000261373
0.000261022
0.000260584
0.000260062
0.000259458
0.000258772
0.000258006
0.000257161
0.000256237
0.000255237
0.000254159
0.000253005
0.000251776
0.000250471
0.000249091
0.000247637
0.000246107
0.000244503
0.000242824
0.00024107
0.000239241
0.000237336
0.000235355
0.000233297
0.000231162
0.000228948
0.000226656
0.000224282
0.000221828
0.00021929
0.000216666
0.000213954
0.00021115
0.000208252
0.000205257
0.000202161
0.00019896
0.00019565
0.000192226
0.000188681
0.000185009
0.000181204
0.000177255
0.000173154
0.00016889
0.000164448
0.000159814
0.000154969
0.000149894
0.000144564
0.000138956
0.000133052
0.000126864
0.000120489
0.000114251
0.000108867
0.000105306
0.000103758
0.000103188
0.000102828
0.000102487
0.000102138
0.000101777
0.000101401
0.000101008
0.000100595
0.000100159
9.96967e-05
9.92094e-05
9.87465e-05
9.84964e-05
9.82299e-05
0.000307134
0.000304766
0.000302627
0.000301438
0.000302234
0.000305626
0.000310198
0.000314761
0.00031925
0.000323676
0.000328052
0.000332387
0.000336694
0.000340981
0.000345259
0.00034954
0.000353834
0.000358154
0.000362515
0.000366929
0.000371396
0.000375897
0.000380444
0.00038502
0.000389512
0.000393931
0.000398282
0.000402567
0.000406789
0.000410951
0.000415055
0.000419103
0.000423095
0.000427032
0.000430915
0.000434746
0.000438524
0.00044225
0.000445925
0.000449549
0.000453121
0.000456643
0.000460114
0.000463535
0.000466906
0.000470226
0.000473496
0.000476716
0.000479886
0.000483006
0.000486077
0.000489098
0.00049207
0.000494993
0.000497868
0.000500697
0.00050348
0.000506222
0.000508924
0.000511581
0.000514187
0.000516742
0.000519245
0.000521697
0.000524098
0.000526449
0.000528749
0.000530999
0.0005332
0.000535353
0.000537458
0.000539516
0.000541529
0.000543496
0.00054542
0.000547302
0.000549142
0.000550941
0.000552696
0.000554404
0.000556054
0.000557628
0.000559094
0.000560418
0.000561576
0.00056258
0.000563476
0.000564302
0.00056507
0.000565781
0.000566434
0.000567027
0.000567556
0.000568018
0.000568409
0.000568723
0.000568952
0.000569087
0.000569123
0.000569083
0.000542034
0.000555687
0.000569266
0.000582764
0.000596135
0.000609308
0.000622211
0.000634826
0.000647163
0.000659238
0.000671064
0.000682652
0.000694016
0.000705166
0.00071611
0.000726858
0.000737414
0.000747784
0.000757969
0.00076797
0.000777799
0.000787491
0.000797052
0.000806482
0.000815775
0.000824933
0.000833956
0.000842847
0.000851607
0.000860238
0.000868744
0.000877124
0.000885382
0.000893518
0.000901534
0.00090943
0.000917207
0.000924867
0.00093241
0.000939836
0.000947145
0.000954338
0.000961416
0.000968378
0.000975224
0.000981954
0.000988569
0.000995068
0.00100145
0.00100772
0.00101387
0.00101991
0.00102582
0.00103163
0.00103731
0.00104288
0.00104833
0.00105367
0.00105888
0.00106398
0.00106896
0.00107383
0.00107857
0.00108319
0.0010877
0.00109208
0.00109635
0.0011005
0.00110453
0.00110843
0.00111222
0.00111589
0.00111943
0.00112286
0.00112616
0.00112935
0.00113241
0.00113535
0.00113816
0.00114085
0.00114341
0.00114585
0.00114815
0.00115031
0.00115234
0.00115423
0.00115599
0.00115763
0.00115914
0.00116052
0.00116178
0.00116292
0.00116393
0.00116481
0.00116556
0.00116619
0.00116668
0.00116704
0.00116727
0.00116738
0.000894725
0.000916199
0.000937171
0.000957676
0.000977737
0.000997381
0.00101664
0.00103552
0.00105407
0.00107227
0.00109016
0.00110774
0.00112503
0.00114204
0.00115878
0.00117525
0.00119147
0.00120744
0.00122319
0.0012387
0.001254
0.00126908
0.00128395
0.00129861
0.00131306
0.00132731
0.00134136
0.00135521
0.00136886
0.00138232
0.00139559
0.00140866
0.00142155
0.00143425
0.00144677
0.0014591
0.00147124
0.00148321
0.00149499
0.00150659
0.001518
0.00152924
0.0015403
0.00155117
0.00156186
0.00157238
0.00158271
0.00159286
0.00160283
0.00161262
0.00162222
0.00163165
0.00164089
0.00164995
0.00165882
0.00166751
0.00167602
0.00168435
0.00169249
0.00170044
0.00170821
0.0017158
0.00172319
0.0017304
0.00173743
0.00174426
0.00175091
0.00175737
0.00176364
0.00176972
0.00177562
0.00178132
0.00178683
0.00179215
0.00179728
0.00180222
0.00180696
0.00181151
0.00181587
0.00182003
0.00182399
0.00182776
0.00183132
0.00183468
0.00183784
0.0018408
0.00184356
0.00184612
0.00184848
0.00185064
0.00185261
0.00185438
0.00185596
0.00185733
0.00185851
0.00185949
0.00186027
0.00186086
0.00186124
0.00186143
0.00130302
0.00133135
0.00135916
0.00138648
0.00141335
0.00143977
0.00146577
0.00149135
0.00151653
0.00154132
0.00156573
0.00158976
0.00161344
0.00163677
0.00165975
0.00168241
0.00170474
0.00172675
0.00174845
0.00176985
0.00179095
0.00181177
0.00183229
0.00185254
0.00187252
0.00189221
0.00191164
0.00193081
0.0019497
0.00196834
0.00198671
0.00200482
0.00202268
0.00204028
0.00205762
0.00207471
0.00209155
0.00210814
0.00212447
0.00214055
0.00215638
0.00217196
0.00218729
0.00220237
0.0022172
0.00223178
0.0022461
0.00226018
0.002274
0.00228757
0.00230088
0.00231395
0.00232676
0.00233932
0.00235162
0.00236367
0.00237546
0.002387
0.00239828
0.0024093
0.00242006
0.00243057
0.00244081
0.0024508
0.00246053
0.00246999
0.00247919
0.00248814
0.00249681
0.00250523
0.00251338
0.00252127
0.00252889
0.00253624
0.00254333
0.00255015
0.0025567
0.00256299
0.002569
0.00257474
0.00258021
0.00258541
0.00259033
0.00259497
0.00259935
0.00260344
0.00260727
0.00261081
0.00261409
0.00261709
0.00261981
0.00262227
0.00262445
0.00262635
0.00262798
0.00262934
0.00263043
0.00263125
0.00263179
0.00263206
0.00176021
0.00179569
0.00183061
0.00186502
0.00189894
0.00193237
0.00196533
0.00199782
0.00202985
0.00206143
0.00209257
0.00212327
0.00215355
0.00218342
0.00221287
0.00224194
0.0022706
0.00229889
0.0023268
0.00235433
0.0023815
0.00240831
0.00243477
0.00246087
0.00248663
0.00251204
0.00253711
0.00256185
0.00258625
0.00261031
0.00263404
0.00265744
0.00268051
0.00270325
0.00272567
0.00274776
0.00276952
0.00279096
0.00281207
0.00283286
0.00285333
0.00287347
0.00289328
0.00291278
0.00293194
0.00295079
0.0029693
0.0029875
0.00300536
0.0030229
0.00304011
0.003057
0.00307355
0.00308978
0.00310568
0.00312125
0.00313648
0.00315138
0.00316595
0.00318019
0.00319409
0.00320766
0.00322089
0.00323379
0.00324634
0.00325856
0.00327044
0.00328198
0.00329318
0.00330403
0.00331455
0.00332472
0.00333455
0.00334403
0.00335317
0.00336196
0.0033704
0.0033785
0.00338624
0.00339364
0.00340068
0.00340737
0.00341371
0.0034197
0.00342534
0.00343062
0.00343554
0.00344012
0.00344434
0.00344821
0.00345172
0.00345488
0.00345769
0.00346014
0.00346225
0.003464
0.00346539
0.00346644
0.00346714
0.00346749
0.00226405
0.0023068
0.00234895
0.00239054
0.00243159
0.00247211
0.00251211
0.00255159
0.00259056
0.00262904
0.00266702
0.00270451
0.00274153
0.00277807
0.00281415
0.00284976
0.00288493
0.00291965
0.00295392
0.00298776
0.00302116
0.00305414
0.00308669
0.00311883
0.00315054
0.00318184
0.00321273
0.00324321
0.00327328
0.00330294
0.0033322
0.00336106
0.00338951
0.00341756
0.00344521
0.00347246
0.00349931
0.00352576
0.00355182
0.00357747
0.00360272
0.00362758
0.00365203
0.00367608
0.00369974
0.00372299
0.00374584
0.00376829
0.00379034
0.00381198
0.00383322
0.00385405
0.00387448
0.0038945
0.00391411
0.00393332
0.00395211
0.0039705
0.00398847
0.00400603
0.00402317
0.0040399
0.00405622
0.00407212
0.0040876
0.00410267
0.00411731
0.00413153
0.00414534
0.00415872
0.00417167
0.00418421
0.00419632
0.004208
0.00421925
0.00423008
0.00424048
0.00425045
0.00425998
0.00426909
0.00427776
0.004286
0.00429381
0.00430118
0.00430812
0.00431463
0.0043207
0.00432633
0.00433153
0.00433629
0.00434062
0.00434451
0.00434796
0.00435099
0.00435357
0.00435573
0.00435745
0.00435874
0.00435959
0.00436002
0.00281191
0.00286198
0.0029114
0.00296022
0.00300847
0.00305614
0.00310325
0.0031498
0.00319581
0.00324126
0.00328618
0.00333056
0.00337441
0.00341773
0.00346054
0.00350282
0.00354459
0.00358585
0.00362661
0.00366686
0.00370662
0.00374588
0.00378465
0.00382293
0.00386073
0.00389804
0.00393487
0.00397121
0.00400708
0.00404247
0.00407738
0.00411181
0.00414577
0.00417925
0.00421226
0.00424479
0.00427685
0.00430843
0.00433954
0.00437017
0.00440033
0.00443001
0.00445921
0.00448794
0.00451619
0.00454396
0.00457125
0.00459806
0.00462439
0.00465024
0.0046756
0.00470048
0.00472487
0.00474878
0.0047722
0.00479513
0.00481757
0.00483952
0.00486098
0.00488194
0.00490241
0.00492238
0.00494186
0.00496084
0.00497932
0.0049973
0.00501478
0.00503175
0.00504822
0.00506419
0.00507965
0.0050946
0.00510905
0.00512298
0.00513641
0.00514932
0.00516173
0.00517362
0.00518499
0.00519585
0.0052062
0.00521602
0.00522534
0.00523413
0.0052424
0.00525016
0.0052574
0.00526412
0.00527032
0.005276
0.00528116
0.0052858
0.00528992
0.00529352
0.00529661
0.00529918
0.00530123
0.00530277
0.00530379
0.0053043
0.00340183
0.00345928
0.00351605
0.00357217
0.00362768
0.00368258
0.00373687
0.00379057
0.00384367
0.00389618
0.00394811
0.00399945
0.0040502
0.00410038
0.00414998
0.00419901
0.00424746
0.00429534
0.00434266
0.00438942
0.00443561
0.00448124
0.00452631
0.00457083
0.00461479
0.0046582
0.00470105
0.00474336
0.00478511
0.00482631
0.00486696
0.00490706
0.00494661
0.00498561
0.00502406
0.00506196
0.00509932
0.00513611
0.00517236
0.00520806
0.0052432
0.00527779
0.00531183
0.00534531
0.00537823
0.00541059
0.0054424
0.00547365
0.00550433
0.00553446
0.00556402
0.00559301
0.00562144
0.0056493
0.0056766
0.00570332
0.00572947
0.00575505
0.00578005
0.00580448
0.00582833
0.0058516
0.0058743
0.00589641
0.00591794
0.00593888
0.00595925
0.00597902
0.00599821
0.0060168
0.00603481
0.00605223
0.00606905
0.00608528
0.00610092
0.00611596
0.0061304
0.00614425
0.00615749
0.00617014
0.00618218
0.00619363
0.00620447
0.00621471
0.00622435
0.00623338
0.00624181
0.00624963
0.00625685
0.00626346
0.00626947
0.00627488
0.00627968
0.00628388
0.00628747
0.00629046
0.00629285
0.00629464
0.00629583
0.00629642
0.00403256
0.00409747
0.00416164
0.00422514
0.00428797
0.00435015
0.00441168
0.00447258
0.00453283
0.00459245
0.00465144
0.00470979
0.0047675
0.00482459
0.00488104
0.00493686
0.00499205
0.00504661
0.00510055
0.00515386
0.00520654
0.0052586
0.00531003
0.00536084
0.00541103
0.00546059
0.00550953
0.00555785
0.00560555
0.00565263
0.00569908
0.00574491
0.00579011
0.00583469
0.00587864
0.00592197
0.00596468
0.00600675
0.0060482
0.00608902
0.0061292
0.00616876
0.00620768
0.00624597
0.00628362
0.00632063
0.00635701
0.00639275
0.00642784
0.00646229
0.0064961
0.00652926
0.00656177
0.00659364
0.00662485
0.00665541
0.00668532
0.00671457
0.00674316
0.00677109
0.00679837
0.00682498
0.00685093
0.00687621
0.00690083
0.00692478
0.00694806
0.00697066
0.0069926
0.00701386
0.00703445
0.00705436
0.00707359
0.00709214
0.00711002
0.00712721
0.00714372
0.00715954
0.00717468
0.00718914
0.0072029
0.00721599
0.00722838
0.00724008
0.0072511
0.00726142
0.00727105
0.00728
0.00728825
0.00729581
0.00730268
0.00730886
0.00731435
0.00731915
0.00732325
0.00732667
0.00732941
0.00733145
0.00733281
0.00733349
0.00470317
0.0047756
0.00484725
0.00491816
0.00498837
0.00505789
0.00512671
0.00519485
0.0052623
0.00532907
0.00539516
0.00546055
0.00552527
0.00558929
0.00565263
0.00571529
0.00577725
0.00583853
0.00589912
0.00595902
0.00601823
0.00607675
0.00613459
0.00619173
0.00624818
0.00630394
0.00635901
0.00641338
0.00646706
0.00652005
0.00657234
0.00662394
0.00667484
0.00672503
0.00677453
0.00682333
0.00687142
0.00691881
0.0069655
0.00701147
0.00705674
0.0071013
0.00714515
0.00718828
0.00723069
0.00727239
0.00731337
0.00735363
0.00739317
0.00743198
0.00747007
0.00750743
0.00754406
0.00757995
0.00761512
0.00764954
0.00768323
0.00771619
0.0077484
0.00777986
0.00781059
0.00784056
0.00786979
0.00789827
0.007926
0.00795297
0.00797919
0.00800466
0.00802936
0.00805331
0.0080765
0.00809892
0.00812058
0.00814147
0.0081616
0.00818096
0.00819955
0.00821737
0.00823442
0.0082507
0.00826621
0.00828094
0.00829489
0.00830807
0.00832048
0.0083321
0.00834295
0.00835302
0.00836232
0.00837083
0.00837857
0.00838553
0.00839171
0.00839712
0.00840175
0.0084056
0.00840868
0.00841098
0.00841252
0.00841328
0.00541298
0.00549298
0.00557215
0.00565055
0.00572818
0.00580507
0.00588123
0.00595665
0.00603133
0.00610528
0.00617849
0.00625097
0.00632271
0.00639371
0.00646396
0.00653347
0.00660224
0.00667025
0.00673752
0.00680404
0.0068698
0.00693481
0.00699906
0.00706256
0.0071253
0.00718728
0.00724849
0.00730895
0.00736864
0.00742756
0.00748572
0.0075431
0.00759971
0.00765555
0.00771062
0.0077649
0.00781841
0.00787114
0.00792308
0.00797424
0.00802461
0.00807419
0.00812298
0.00817098
0.00821818
0.00826458
0.00831019
0.00835499
0.00839899
0.00844218
0.00848457
0.00852614
0.0085669
0.00860685
0.00864598
0.00868429
0.00872178
0.00875845
0.00879429
0.00882931
0.0088635
0.00889685
0.00892938
0.00896107
0.00899192
0.00902193
0.00905111
0.00907944
0.00910693
0.00913357
0.00915937
0.00918431
0.00920841
0.00923166
0.00925405
0.00927559
0.00929627
0.0093161
0.00933507
0.00935318
0.00937042
0.00938681
0.00940234
0.009417
0.0094308
0.00944374
0.00945581
0.00946701
0.00947736
0.00948683
0.00949544
0.00950319
0.00951007
0.00951608
0.00952123
0.00952552
0.00952895
0.00953152
0.00953323
0.00953408
0.00616145
0.00624908
0.00633583
0.00642174
0.00650684
0.00659115
0.00667467
0.0067574
0.00683934
0.0069205
0.00700087
0.00708045
0.00715923
0.00723722
0.00731441
0.00739079
0.00746637
0.00754114
0.0076151
0.00768824
0.00776057
0.00783208
0.00790277
0.00797263
0.00804167
0.00810988
0.00817725
0.0082438
0.0083095
0.00837437
0.0084384
0.00850158
0.00856392
0.00862541
0.00868605
0.00874584
0.00880477
0.00886284
0.00892005
0.0089764
0.00903188
0.00908649
0.00914024
0.00919311
0.0092451
0.00929622
0.00934646
0.00939581
0.00944428
0.00949186
0.00953855
0.00958434
0.00962924
0.00967325
0.00971635
0.00975855
0.00979985
0.00984024
0.00987972
0.00991829
0.00995595
0.00999269
0.0100285
0.0100634
0.0100974
0.0101305
0.0101626
0.0101938
0.0102241
0.0102534
0.0102818
0.0103093
0.0103358
0.0103614
0.0103861
0.0104098
0.0104326
0.0104544
0.0104753
0.0104953
0.0105143
0.0105323
0.0105494
0.0105656
0.0105808
0.010595
0.0106083
0.0106206
0.010632
0.0106425
0.010652
0.0106605
0.0106681
0.0106747
0.0106804
0.0106851
0.0106889
0.0106917
0.0106936
0.0106945
0.00694818
0.00704348
0.00713785
0.00723132
0.00732393
0.00741568
0.00750659
0.00759666
0.0076859
0.00777428
0.00786183
0.00794852
0.00803437
0.00811936
0.00820349
0.00828676
0.00836916
0.00845069
0.00853135
0.00861113
0.00869002
0.00876804
0.00884516
0.0089214
0.00899673
0.00907117
0.00914471
0.00921734
0.00928907
0.00935989
0.00942979
0.00949877
0.00956683
0.00963397
0.00970018
0.00976547
0.00982982
0.00989324
0.00995571
0.0100172
0.0100778
0.0101375
0.0101962
0.0102539
0.0103107
0.0103665
0.0104214
0.0104753
0.0105282
0.0105802
0.0106312
0.0106812
0.0107302
0.0107783
0.0108254
0.0108715
0.0109166
0.0109607
0.0110038
0.0110459
0.011087
0.0111272
0.0111663
0.0112044
0.0112415
0.0112776
0.0113127
0.0113468
0.0113798
0.0114119
0.0114429
0.0114729
0.0115019
0.0115298
0.0115567
0.0115826
0.0116075
0.0116314
0.0116542
0.0116759
0.0116967
0.0117164
0.0117351
0.0117527
0.0117693
0.0117848
0.0117994
0.0118128
0.0118253
0.0118367
0.011847
0.0118564
0.0118646
0.0118719
0.0118781
0.0118832
0.0118874
0.0118905
0.0118925
0.0118935
0.00777285
0.00787587
0.00797789
0.00807896
0.00817911
0.00827834
0.00837667
0.00847411
0.00857065
0.00866628
0.00876102
0.00885484
0.00894776
0.00903976
0.00913085
0.009221
0.00931023
0.00939853
0.00948588
0.00957229
0.00965776
0.00974227
0.00982583
0.00990843
0.00999006
0.0100707
0.0101504
0.0102291
0.0103069
0.0103836
0.0104594
0.0105342
0.0106079
0.0106807
0.0107525
0.0108233
0.010893
0.0109618
0.0110295
0.0110962
0.0111619
0.0112266
0.0112902
0.0113528
0.0114144
0.0114749
0.0115344
0.0115928
0.0116502
0.0117066
0.0117619
0.0118161
0.0118692
0.0119213
0.0119724
0.0120223
0.0120712
0.0121191
0.0121658
0.0122115
0.012256
0.0122995
0.0123419
0.0123833
0.0124235
0.0124626
0.0125006
0.0125376
0.0125734
0.0126081
0.0126418
0.0126743
0.0127057
0.012736
0.0127652
0.0127933
0.0128202
0.0128461
0.0128708
0.0128944
0.0129169
0.0129382
0.0129585
0.0129776
0.0129956
0.0130124
0.0130282
0.0130428
0.0130563
0.0130686
0.0130798
0.0130899
0.0130989
0.0131068
0.0131135
0.0131191
0.0131236
0.0131269
0.0131292
0.0131303
0.00863523
0.008746
0.00885572
0.00896442
0.00907213
0.00917887
0.00928465
0.00938946
0.00949332
0.00959622
0.00969816
0.00979913
0.00989912
0.00999814
0.0100962
0.0101932
0.0102893
0.0103843
0.0104784
0.0105714
0.0106635
0.0107545
0.0108445
0.0109334
0.0110213
0.0111082
0.011194
0.0112788
0.0113626
0.0114452
0.0115269
0.0116074
0.0116869
0.0117653
0.0118426
0.0119189
0.011994
0.0120681
0.0121411
0.0122129
0.0122837
0.0123534
0.0124219
0.0124894
0.0125557
0.0126209
0.012685
0.012748
0.0128098
0.0128705
0.01293
0.0129884
0.0130457
0.0131018
0.0131568
0.0132106
0.0132633
0.0133148
0.0133652
0.0134144
0.0134624
0.0135092
0.0135549
0.0135994
0.0136427
0.0136849
0.0137259
0.0137656
0.0138042
0.0138416
0.0138778
0.0139129
0.0139467
0.0139793
0.0140108
0.014041
0.01407
0.0140979
0.0141245
0.0141499
0.0141741
0.0141971
0.0142189
0.0142395
0.0142589
0.0142771
0.014294
0.0143097
0.0143243
0.0143376
0.0143497
0.0143606
0.0143702
0.0143787
0.0143859
0.014392
0.0143968
0.0144004
0.0144028
0.014404
0.00953511
0.00965368
0.00977113
0.00988749
0.0100028
0.0101171
0.0102303
0.0103425
0.0104537
0.0105639
0.010673
0.0107812
0.0108882
0.0109943
0.0110993
0.0112032
0.0113061
0.0114079
0.0115086
0.0116083
0.0117069
0.0118044
0.0119008
0.011996
0.0120902
0.0121833
0.0122753
0.0123661
0.0124558
0.0125444
0.0126319
0.0127182
0.0128033
0.0128873
0.0129702
0.0130519
0.0131324
0.0132118
0.01329
0.013367
0.0134428
0.0135174
0.0135909
0.0136632
0.0137342
0.0138041
0.0138728
0.0139402
0.0140065
0.0140715
0.0141353
0.0141979
0.0142592
0.0143194
0.0143783
0.0144359
0.0144923
0.0145475
0.0146015
0.0146542
0.0147056
0.0147558
0.0148047
0.0148524
0.0148988
0.0149439
0.0149878
0.0150304
0.0150718
0.0151118
0.0151506
0.0151881
0.0152244
0.0152593
0.015293
0.0153254
0.0153565
0.0153863
0.0154148
0.015442
0.0154679
0.0154926
0.0155159
0.015538
0.0155587
0.0155782
0.0155963
0.0156132
0.0156287
0.015643
0.015656
0.0156676
0.015678
0.015687
0.0156948
0.0157013
0.0157064
0.0157103
0.0157129
0.0157142
0.0104724
0.0105988
0.010724
0.010848
0.0109709
0.0110928
0.0112135
0.0113331
0.0114517
0.0115691
0.0116855
0.0118008
0.0119149
0.012028
0.0121399
0.0122507
0.0123604
0.012469
0.0125764
0.0126827
0.0127878
0.0128917
0.0129945
0.0130961
0.0131966
0.0132958
0.0133939
0.0134908
0.0135864
0.0136809
0.0137742
0.0138662
0.013957
0.0140466
0.014135
0.0142221
0.0143079
0.0143926
0.0144759
0.0145581
0.0146389
0.0147185
0.0147968
0.0148739
0.0149497
0.0150242
0.0150974
0.0151693
0.0152399
0.0153093
0.0153773
0.015444
0.0155094
0.0155735
0.0156363
0.0156978
0.0157579
0.0158168
0.0158743
0.0159304
0.0159853
0.0160388
0.0160909
0.0161417
0.0161912
0.0162393
0.0162861
0.0163315
0.0163756
0.0164183
0.0164596
0.0164996
0.0165382
0.0165754
0.0166113
0.0166458
0.016679
0.0167108
0.0167411
0.0167702
0.0167978
0.0168241
0.0168489
0.0168724
0.0168946
0.0169153
0.0169346
0.0169526
0.0169692
0.0169844
0.0169982
0.0170106
0.0170217
0.0170313
0.0170396
0.0170465
0.017052
0.0170561
0.0170589
0.0170603
0.0114469
0.0115811
0.0117141
0.0118459
0.0119764
0.0121058
0.0122341
0.0123611
0.012487
0.0126118
0.0127354
0.0128578
0.012979
0.0130991
0.013218
0.0133357
0.0134522
0.0135674
0.0136815
0.0137944
0.013906
0.0140164
0.0141256
0.0142335
0.0143402
0.0144456
0.0145497
0.0146526
0.0147542
0.0148545
0.0149536
0.0150513
0.0151477
0.0152429
0.0153367
0.0154292
0.0155204
0.0156102
0.0156988
0.015786
0.0158718
0.0159563
0.0160395
0.0161213
0.0162018
0.0162808
0.0163586
0.0164349
0.0165099
0.0165835
0.0166557
0.0167266
0.016796
0.016864
0.0169307
0.0169959
0.0170598
0.0171222
0.0171832
0.0172429
0.0173011
0.0173578
0.0174132
0.0174671
0.0175196
0.0175707
0.0176203
0.0176685
0.0177153
0.0177606
0.0178044
0.0178469
0.0178878
0.0179274
0.0179655
0.0180021
0.0180372
0.0180709
0.0181032
0.018134
0.0181633
0.0181912
0.0182176
0.0182425
0.018266
0.018288
0.0183085
0.0183276
0.0183452
0.0183613
0.018376
0.0183892
0.0184009
0.0184111
0.0184199
0.0184272
0.0184331
0.0184375
0.0184404
0.0184418
0.0124586
0.0126007
0.0127415
0.012881
0.0130192
0.0131562
0.0132919
0.0134264
0.0135597
0.0136917
0.0138225
0.0139521
0.0140804
0.0142075
0.0143333
0.0144579
0.0145811
0.0147031
0.0148239
0.0149433
0.0150614
0.0151783
0.0152938
0.015408
0.0155208
0.0156324
0.0157426
0.0158514
0.0159589
0.0160651
0.0161698
0.0162732
0.0163753
0.0164759
0.0165752
0.016673
0.0167695
0.0168645
0.0169582
0.0170504
0.0171412
0.0172306
0.0173186
0.0174051
0.0174902
0.0175739
0.0176561
0.0177368
0.0178161
0.0178939
0.0179703
0.0180452
0.0181186
0.0181906
0.0182611
0.0183301
0.0183976
0.0184636
0.0185281
0.0185911
0.0186526
0.0187127
0.0187712
0.0188282
0.0188837
0.0189377
0.0189901
0.0190411
0.0190905
0.0191384
0.0191848
0.0192296
0.0192729
0.0193147
0.019355
0.0193937
0.0194308
0.0194665
0.0195006
0.0195331
0.0195641
0.0195936
0.0196215
0.0196478
0.0196726
0.0196959
0.0197176
0.0197377
0.0197563
0.0197734
0.0197889
0.0198028
0.0198152
0.019826
0.0198353
0.0198431
0.0198492
0.0198539
0.019857
0.0198585
0.0135074
0.0136574
0.013806
0.0139533
0.0140991
0.0142437
0.0143869
0.0145289
0.0146695
0.0148088
0.0149469
0.0150836
0.015219
0.015353
0.0154858
0.0156172
0.0157472
0.0158759
0.0160033
0.0161293
0.0162539
0.0163771
0.0164989
0.0166194
0.0167384
0.0168561
0.0169723
0.0170871
0.0172004
0.0173123
0.0174228
0.0175319
0.0176394
0.0177456
0.0178502
0.0179534
0.0180551
0.0181553
0.018254
0.0183513
0.018447
0.0185412
0.0186339
0.0187251
0.0188148
0.018903
0.0189896
0.0190747
0.0191583
0.0192403
0.0193208
0.0193997
0.0194771
0.0195529
0.0196272
0.0196999
0.019771
0.0198405
0.0199085
0.0199749
0.0200397
0.020103
0.0201646
0.0202247
0.0202831
0.02034
0.0203953
0.0204489
0.020501
0.0205515
0.0206003
0.0206475
0.0206932
0.0207372
0.0207795
0.0208203
0.0208595
0.020897
0.0209329
0.0209672
0.0209998
0.0210308
0.0210602
0.021088
0.0211141
0.0211386
0.0211614
0.0211827
0.0212023
0.0212202
0.0212365
0.0212512
0.0212643
0.0212757
0.0212855
0.0212936
0.0213001
0.021305
0.0213083
0.0213099
0.0145932
0.0147512
0.0149076
0.0150626
0.0152162
0.0153683
0.0155191
0.0156685
0.0158165
0.0159631
0.0161083
0.0162521
0.0163946
0.0165356
0.0166753
0.0168135
0.0169503
0.0170857
0.0172196
0.0173521
0.0174832
0.0176128
0.0177409
0.0178676
0.0179928
0.0181164
0.0182386
0.0183593
0.0184785
0.0185962
0.0187123
0.018827
0.01894
0.0190516
0.0191616
0.01927
0.0193769
0.0194823
0.019586
0.0196882
0.0197888
0.0198878
0.0199853
0.0200811
0.0201753
0.020268
0.020359
0.0204484
0.0205362
0.0206224
0.0207069
0.0207898
0.0208711
0.0209507
0.0210287
0.0211051
0.0211798
0.0212528
0.0213242
0.021394
0.021462
0.0215284
0.0215932
0.0216562
0.0217176
0.0217773
0.0218354
0.0218917
0.0219464
0.0219994
0.0220506
0.0221002
0.0221481
0.0221943
0.0222388
0.0222816
0.0223227
0.0223621
0.0223998
0.0224358
0.0224701
0.0225026
0.0225335
0.0225626
0.02259
0.0226157
0.0226397
0.022662
0.0226826
0.0227014
0.0227186
0.022734
0.0227477
0.0227597
0.02277
0.0227785
0.0227853
0.0227905
0.0227939
0.0227956
0.015716
0.0158819
0.0160462
0.0162089
0.0163702
0.0165299
0.0166882
0.016845
0.0170004
0.0171543
0.0173067
0.0174576
0.0176071
0.0177551
0.0179017
0.0180467
0.0181902
0.0183323
0.0184728
0.0186118
0.0187492
0.0188852
0.0190196
0.0191524
0.0192837
0.0194134
0.0195415
0.0196681
0.019793
0.0199164
0.0200382
0.0201583
0.0202769
0.0203938
0.0205091
0.0206228
0.0207348
0.0208452
0.020954
0.0210611
0.0211665
0.0212702
0.0213723
0.0214728
0.0215715
0.0216685
0.0217639
0.0218576
0.0219495
0.0220398
0.0221284
0.0222152
0.0223003
0.0223838
0.0224654
0.0225454
0.0226236
0.0227001
0.0227749
0.0228479
0.0229192
0.0229887
0.0230565
0.0231226
0.0231868
0.0232493
0.0233101
0.0233691
0.0234263
0.0234818
0.0235355
0.0235874
0.0236375
0.0236859
0.0237325
0.0237773
0.0238203
0.0238615
0.023901
0.0239386
0.0239745
0.0240086
0.0240409
0.0240714
0.0241001
0.024127
0.0241521
0.0241754
0.024197
0.0242167
0.0242346
0.0242508
0.0242651
0.0242776
0.0242884
0.0242974
0.0243045
0.0243099
0.0243135
0.0243153
0.0168757
0.0170495
0.0172217
0.0173922
0.0175611
0.0177285
0.0178942
0.0180585
0.0182212
0.0183823
0.0185419
0.0187
0.0188565
0.0190114
0.0191648
0.0193166
0.0194669
0.0196155
0.0197626
0.019908
0.0200518
0.0201941
0.0203347
0.0204736
0.020611
0.0207467
0.0208807
0.0210131
0.0211438
0.0212728
0.0214001
0.0215258
0.0216498
0.021772
0.0218926
0.0220114
0.0221285
0.0222439
0.0223576
0.0224695
0.0225797
0.0226882
0.0227949
0.0228998
0.023003
0.0231044
0.0232041
0.0233019
0.023398
0.0234923
0.0235849
0.0236756
0.0237645
0.0238517
0.023937
0.0240205
0.0241022
0.0241821
0.0242602
0.0243365
0.0244109
0.0244835
0.0245543
0.0246233
0.0246904
0.0247557
0.0248191
0.0248807
0.0249404
0.0249983
0.0250544
0.0251086
0.0251609
0.0252114
0.0252601
0.0253068
0.0253517
0.0253948
0.025436
0.0254753
0.0255127
0.0255483
0.025582
0.0256138
0.0256438
0.0256719
0.0256981
0.0257225
0.0257449
0.0257655
0.0257842
0.0258011
0.0258161
0.0258292
0.0258404
0.0258497
0.0258572
0.0258628
0.0258666
0.0258684
0.0180722
0.018254
0.018434
0.0186122
0.0187888
0.0189638
0.019137
0.0193087
0.0194787
0.0196471
0.0198139
0.019979
0.0201425
0.0203043
0.0204645
0.0206231
0.02078
0.0209352
0.0210888
0.0212406
0.0213908
0.0215393
0.0216861
0.0218311
0.0219744
0.0221161
0.0222559
0.0223941
0.0225305
0.0226651
0.0227979
0.022929
0.0230584
0.0231859
0.0233117
0.0234356
0.0235578
0.0236781
0.0237967
0.0239134
0.0240283
0.0241414
0.0242526
0.024362
0.0244696
0.0245753
0.0246792
0.0247812
0.0248814
0.0249797
0.0250761
0.0251706
0.0252633
0.0253541
0.025443
0.0255301
0.0256152
0.0256985
0.0257798
0.0258593
0.0259368
0.0260124
0.0260862
0.026158
0.0262279
0.0262959
0.026362
0.0264261
0.0264884
0.0265487
0.026607
0.0266635
0.026718
0.0267706
0.0268212
0.0268699
0.0269167
0.0269615
0.0270044
0.0270453
0.0270843
0.0271213
0.0271564
0.0271896
0.0272208
0.02725
0.0272773
0.0273027
0.0273261
0.0273475
0.027367
0.0273846
0.0274002
0.0274138
0.0274255
0.0274352
0.027443
0.0274488
0.0274527
0.0274547
0.0193054
0.0194951
0.019683
0.019869
0.0200532
0.0202357
0.0204165
0.0205955
0.0207728
0.0209484
0.0211223
0.0212945
0.0214649
0.0216337
0.0218007
0.0219659
0.0221294
0.0222912
0.0224512
0.0226094
0.0227659
0.0229206
0.0230735
0.0232246
0.0233738
0.0235213
0.023667
0.0238108
0.0239528
0.024093
0.0242313
0.0243678
0.0245024
0.0246352
0.0247661
0.0248951
0.0250222
0.0251474
0.0252708
0.0253922
0.0255118
0.0256294
0.0257452
0.025859
0.0259709
0.0260808
0.0261889
0.026295
0.0263991
0.0265013
0.0266016
0.0266999
0.0267963
0.0268907
0.0269831
0.0270736
0.0271621
0.0272487
0.0273332
0.0274158
0.0274964
0.027575
0.0276517
0.0277263
0.027799
0.0278696
0.0279383
0.0280049
0.0280696
0.0281323
0.0281929
0.0282516
0.0283082
0.0283628
0.0284154
0.028466
0.0285146
0.0285612
0.0286057
0.0286482
0.0286887
0.0287272
0.0287637
0.0287981
0.0288305
0.0288609
0.0288893
0.0289156
0.0289399
0.0289622
0.0289824
0.0290007
0.0290168
0.029031
0.0290432
0.0290533
0.0290614
0.0290674
0.0290715
0.0290735
0.0205752
0.0207728
0.0209685
0.0211622
0.0213541
0.0215442
0.0217324
0.0219188
0.0221034
0.0222861
0.0224671
0.0226463
0.0228237
0.0229992
0.023173
0.0233449
0.0235149
0.0236832
0.0238496
0.0240141
0.0241768
0.0243377
0.0244966
0.0246537
0.0248089
0.0249622
0.0251136
0.025263
0.0254106
0.0255563
0.0257
0.0258418
0.0259816
0.0261195
0.0262555
0.0263895
0.0265215
0.0266515
0.0267796
0.0269057
0.0270299
0.027152
0.0272722
0.0273903
0.0275064
0.0276206
0.0277327
0.0278428
0.0279509
0.028057
0.028161
0.0282631
0.028363
0.028461
0.0285569
0.0286508
0.0287426
0.0288323
0.02892
0.0290057
0.0290893
0.0291708
0.0292503
0.0293277
0.0294031
0.0294763
0.0295475
0.0296166
0.0296837
0.0297486
0.0298115
0.0298723
0.029931
0.0299877
0.0300422
0.0300947
0.030145
0.0301933
0.0302395
0.0302835
0.0303255
0.0303654
0.0304032
0.0304389
0.0304725
0.030504
0.0305334
0.0305607
0.0305859
0.0306089
0.0306299
0.0306488
0.0306656
0.0306803
0.0306929
0.0307034
0.0307117
0.030718
0.0307222
0.0307243
0.0218814
0.0220869
0.0222904
0.0224919
0.0226914
0.0228889
0.0230845
0.0232782
0.0234701
0.02366
0.023848
0.0240341
0.0242184
0.0244007
0.0245811
0.0247597
0.0249363
0.0251109
0.0252837
0.0254545
0.0256233
0.0257903
0.0259552
0.0261182
0.0262792
0.0264382
0.0265953
0.0267503
0.0269034
0.0270545
0.0272035
0.0273505
0.0274955
0.0276385
0.0277794
0.0279183
0.0280552
0.02819
0.0283228
0.0284535
0.0285821
0.0287086
0.0288331
0.0289555
0.0290759
0.0291941
0.0293102
0.0294243
0.0295363
0.0296461
0.0297539
0.0298595
0.029963
0.0300645
0.0301638
0.0302609
0.030356
0.0304489
0.0305397
0.0306284
0.0307149
0.0307993
0.0308815
0.0309617
0.0310396
0.0311154
0.0311891
0.0312606
0.03133
0.0313972
0.0314623
0.0315252
0.0315859
0.0316445
0.0317009
0.0317552
0.0318073
0.0318572
0.031905
0.0319506
0.031994
0.0320353
0.0320744
0.0321113
0.032146
0.0321786
0.032209
0.0322372
0.0322633
0.0322872
0.0323089
0.0323284
0.0323458
0.032361
0.032374
0.0323848
0.0323935
0.0324
0.0324044
0.0324065
0.0232238