/*--------------------------------*- C++ -*----------------------------------*\
  =========                 |
  \\      /  F ield         | OpenFOAM: The Open Source CFD Toolbox
   \\    /   O peration     | Website:  https://openfoam.org
    \\  /    A nd           | Version:  8
     \\/     M anipulation  |
\*---------------------------------------------------------------------------*/
FoamFile
{
    version     2.0;
    format      ascii;
    class       surfaceScalarField;
    location    "0.719575";
    object      phi;
}
// * * * * * * * * * * * * * * * * * * * * * * * * * * * * * * * * * * * * * //

dimensions      [0 3 -1 0 0 0 0];

internalField   nonuniform List<scalar> 
253240
(
-0.00449395
0.000187192
0.00430676
-0.00467045
0.000176498
-0.00483653
0.000166081
-0.00499217
0.000155646
-0.0051375
0.000145325
-0.00527266
0.000135159
-0.00539783
0.000125167
-0.0055132
0.000115374
-0.00561902
0.000105815
-0.00571553
9.6515e-05
-0.00580301
8.74848e-05
-0.00588174
7.87264e-05
-0.00595198
7.02362e-05
-0.00601398
6.20067e-05
-0.00606801
5.40308e-05
-0.00611432
4.63029e-05
-0.00615314
3.88217e-05
-0.00618473
3.15942e-05
-0.00620937
2.46355e-05
-0.00622733
1.79645e-05
-0.00623892
1.15815e-05
-0.0062444
5.48206e-06
-0.00624424
-1.57394e-07
-0.00623921
-5.02558e-06
-0.00623005
-9.16044e-06
-0.00621723
-1.28286e-05
-0.00620106
-1.61692e-05
-0.00618178
-1.92793e-05
-0.00615956
-2.22209e-05
-0.00613452
-2.50348e-05
-0.00610677
-2.77472e-05
-0.0060764
-3.03777e-05
-0.00604346
-3.29376e-05
-0.00600802
-3.54374e-05
-0.00597014
-3.78821e-05
-0.00592986
-4.02769e-05
-0.00588724
-4.26255e-05
-0.00584231
-4.49302e-05
-0.00579511
-4.71934e-05
-0.0057457
-4.94167e-05
-0.0056941
-5.16014e-05
-0.00564035
-5.37484e-05
-0.00558449
-5.58591e-05
-0.00552655
-5.79332e-05
-0.00546658
-5.99721e-05
-0.00540461
-6.19763e-05
-0.00534066
-6.39464e-05
-0.00527478
-6.58815e-05
-0.00520699
-6.77834e-05
-0.00513734
-6.96513e-05
-0.00506586
-7.14855e-05
-0.00499257
-7.32864e-05
-0.00491752
-7.50538e-05
-0.00484073
-7.67876e-05
-0.00476224
-7.84884e-05
-0.00468209
-8.01556e-05
-0.0046003
-8.17892e-05
-0.00451691
-8.33891e-05
-0.00443195
-8.49552e-05
-0.00434546
-8.64881e-05
-0.00425748
-8.79867e-05
-0.00416803
-8.9452e-05
-0.00407714
-9.08832e-05
-0.00398486
-9.22805e-05
-0.00389122
-9.36439e-05
-0.00379625
-9.49731e-05
-0.00369998
-9.62687e-05
-0.00360245
-9.75305e-05
-0.00350369
-9.87593e-05
-0.00340373
-9.99557e-05
-0.00330261
-0.000101121
-0.00320035
-0.000102256
-0.00309699
-0.000103364
-0.00299254
-0.000104448
-0.00288703
-0.000105513
-0.00278046
-0.000106564
-0.00267285
-0.000107612
-0.00256419
-0.000108666
-0.00245444
-0.000109743
-0.00234359
-0.000110857
-0.00223156
-0.000112021
-0.00211834
-0.000113227
-0.00200392
-0.00011442
-0.00188844
-0.000115478
-0.0017722
-0.00011624
-0.00165554
-0.00011666
-0.00153864
-0.000116897
-0.0014215
-0.00011714
-0.00130406
-0.000117445
-0.00118627
-0.000117791
-0.00106811
-0.000118153
-0.000949605
-0.000118509
-0.000830766
-0.000118839
-0.000711641
-0.000119125
-0.000592303
-0.000119338
-0.000472864
-0.000119439
-0.000353506
-0.000119358
-0.000234516
-0.00011899
-0.000116364
-0.000118151
-0.000116368
3.12698e-09
-0.00661236
0.000255965
0.00654359
-0.00666913
0.000233263
-0.00671497
0.00021192
-0.00675114
0.000191813
-0.00677876
0.000172952
-0.0067989
0.000155297
-0.00681252
0.000138781
-0.00682047
0.000123327
-0.00682352
0.000108865
-0.00682233
9.53313e-05
-0.00681751
8.26609e-05
-0.00680957
7.07916e-05
-0.006799
5.96637e-05
-0.00678622
4.92202e-05
-0.00677159
3.94095e-05
-0.00675547
3.01823e-05
-0.00673815
2.14938e-05
-0.00671986
1.33039e-05
-0.0067008
5.57616e-06
-0.00668111
-1.71816e-06
-0.00666096
-8.56769e-06
-0.00664051
-1.497e-05
-0.00661969
-2.09793e-05
-0.00659792
-2.6796e-05
-0.00657451
-3.2572e-05
-0.00654909
-3.82489e-05
-0.00652145
-4.3809e-05
-0.00649148
-4.92466e-05
-0.00645914
-5.45627e-05
-0.00642441
-5.97617e-05
-0.00638731
-6.48489e-05
-0.00634786
-6.98301e-05
-0.00630608
-7.47116e-05
-0.00626202
-7.94978e-05
-0.00621571
-8.41938e-05
-0.00616719
-8.88034e-05
-0.00611648
-9.33302e-05
-0.00606363
-9.77765e-05
-0.00600868
-0.000102146
-0.00595166
-0.00010644
-0.0058926
-0.00011066
-0.00583154
-0.000114808
-0.00576852
-0.000118885
-0.00570356
-0.000122893
-0.0056367
-0.000126832
-0.00556797
-0.000130703
-0.00549741
-0.000134507
-0.00542505
-0.000138244
-0.00535092
-0.000141914
-0.00527505
-0.000145518
-0.00519748
-0.000149057
-0.00511823
-0.00015253
-0.00503735
-0.000155937
-0.00495486
-0.000159279
-0.00487079
-0.000162556
-0.00478518
-0.000165767
-0.00469805
-0.000168913
-0.00460945
-0.000171994
-0.0045194
-0.000175009
-0.00442793
-0.000177959
-0.00433507
-0.000180844
-0.00424086
-0.000183663
-0.00414532
-0.000186418
-0.0040485
-0.000189106
-0.00395041
-0.00019173
-0.0038511
-0.000194289
-0.00375058
-0.000196783
-0.0036489
-0.000199212
-0.00354608
-0.000201578
-0.00344216
-0.00020388
-0.00333716
-0.00020612
-0.00323111
-0.000208299
-0.00312406
-0.000210417
-0.00301603
-0.000212476
-0.00290707
-0.000214477
-0.00279721
-0.000216423
-0.00268651
-0.000218312
-0.00257503
-0.000220148
-0.00246284
-0.000221927
-0.00235005
-0.000223648
-0.00223677
-0.000225302
-0.00212312
-0.000226876
-0.00200919
-0.00022835
-0.00189498
-0.000229696
-0.00178032
-0.000230898
-0.00166502
-0.000231961
-0.00154899
-0.000232925
-0.0014323
-0.000233824
-0.00131508
-0.000234671
-0.0011974
-0.000235469
-0.00107934
-0.000236212
-0.000960954
-0.000236896
-0.000842277
-0.000237517
-0.000723334
-0.000238067
-0.00060413
-0.000238542
-0.000484636
-0.000238933
-0.000364765
-0.000239229
-0.00024434
-0.000239415
-0.000123025
-0.000239467
-0.000239395
3.14373e-09
-0.00665105
0.000274821
0.0066322
-0.00666856
0.000250772
-0.00668496
0.000228322
-0.00670044
0.000207294
-0.00671507
0.000187578
-0.00672883
0.000169058
-0.00674168
0.000151626
-0.00675353
0.000135179
-0.00676429
0.00011963
-0.00677386
0.000104898
-0.00678211
9.09118e-05
-0.00678893
7.76071e-05
-0.00679419
6.49264e-05
-0.00679779
5.28176e-05
-0.00679961
4.1233e-05
-0.00679956
3.0128e-05
-0.00679752
1.94619e-05
-0.00679341
9.19381e-06
-0.00678712
-7.155e-07
-0.00677853
-1.03157e-05
-0.00676745
-1.9646e-05
-0.00675369
-2.87269e-05
-0.00673705
-3.76152e-05
-0.00671751
-4.63439e-05
-0.00669517
-5.49034e-05
-0.00667015
-6.32782e-05
-0.00664249
-7.14684e-05
-0.00661225
-7.94791e-05
-0.0065795
-8.73188e-05
-0.00654426
-9.49955e-05
-0.00650659
-0.000102518
-0.00646653
-0.000109895
-0.00642411
-0.000117133
-0.00637937
-0.000124237
-0.00633235
-0.000131215
-0.00628308
-0.000138071
-0.0062316
-0.000144808
-0.00617795
-0.000151429
-0.00612216
-0.000157939
-0.00606426
-0.00016434
-0.00600428
-0.000170633
-0.00594227
-0.000176821
-0.00587825
-0.000182906
-0.00581225
-0.000188887
-0.00574432
-0.000194767
-0.00567448
-0.000200546
-0.00560276
-0.000206226
-0.0055292
-0.000211806
-0.00545382
-0.000217288
-0.00537667
-0.000222671
-0.00529777
-0.000227956
-0.00521716
-0.000233143
-0.00513486
-0.000238232
-0.00505092
-0.000243224
-0.00496536
-0.000248117
-0.00487821
-0.000252913
-0.00478951
-0.00025761
-0.0046993
-0.00026221
-0.0046076
-0.000266711
-0.00451444
-0.000271114
-0.00441987
-0.000275419
-0.00432391
-0.000279625
-0.00422659
-0.000283732
-0.00412796
-0.00028774
-0.00402804
-0.00029165
-0.00392687
-0.00029546
-0.00382448
-0.000299171
-0.00372091
-0.000302783
-0.00361619
-0.000306296
-0.00351036
-0.000309711
-0.00340345
-0.000313026
-0.00329551
-0.000316243
-0.00318656
-0.000319361
-0.00307666
-0.000322383
-0.00296583
-0.000325306
-0.00285412
-0.000328131
-0.00274157
-0.000330859
-0.00262823
-0.000333488
-0.00251414
-0.000336018
-0.00239935
-0.000338443
-0.00228389
-0.00034076
-0.0021678
-0.000342962
-0.00205111
-0.000345038
-0.00193383
-0.00034698
-0.00181595
-0.000348782
-0.00169746
-0.000350447
-0.0015784
-0.000351983
-0.00145882
-0.000353404
-0.00133878
-0.000354716
-0.00121832
-0.000355923
-0.00109751
-0.000357026
-0.000976379
-0.000358025
-0.000854978
-0.000358918
-0.000733343
-0.000359702
-0.000611509
-0.000360375
-0.000489508
-0.000360935
-0.000367359
-0.000361378
-0.000245069
-0.000361705
-0.000122619
-0.000361917
-0.000362018
3.00372e-09
-0.00673504
0.000302207
0.00670765
-0.00676231
0.000278046
-0.00678899
0.000254998
-0.00681473
0.000233035
-0.00683922
0.000212071
-0.00686219
0.000192026
-0.00688339
0.000172828
-0.00690263
0.000154415
-0.00691973
0.000136729
-0.00693454
0.000119716
-0.00694696
0.00010333
-0.00695688
8.75284e-05
-0.00696423
7.22701e-05
-0.00696893
5.75194e-05
-0.00697094
4.32423e-05
-0.00697022
2.94083e-05
-0.00696675
1.59889e-05
-0.00696051
2.95829e-06
-0.00695152
-9.70967e-06
-0.0069398
-2.20355e-05
-0.00692538
-3.40626e-05
-0.00690829
-4.58125e-05
-0.0068886
-5.73113e-05
-0.00686636
-6.85816e-05
-0.00684163
-7.96361e-05
-0.00681442
-9.04825e-05
-0.00678477
-0.000101127
-0.00675267
-0.000111576
-0.00671815
-0.000121836
-0.00668123
-0.000131914
-0.00664194
-0.000141814
-0.00660029
-0.000151542
-0.00655632
-0.000161105
-0.00651005
-0.000170506
-0.00646151
-0.00017975
-0.00641074
-0.000188841
-0.00635777
-0.000197784
-0.00630262
-0.00020658
-0.00624532
-0.000215233
-0.00618592
-0.000223745
-0.00612443
-0.000232119
-0.0060609
-0.000240355
-0.00599535
-0.000248457
-0.00592781
-0.000256423
-0.00585832
-0.000264257
-0.00578691
-0.000271959
-0.00571361
-0.000279529
-0.00563844
-0.000286969
-0.00556145
-0.000294278
-0.00548267
-0.000301456
-0.00540212
-0.000308505
-0.00531984
-0.000315424
-0.00523586
-0.000322213
-0.00515021
-0.000328872
-0.00506293
-0.000335401
-0.00497404
-0.000341799
-0.00488358
-0.000348068
-0.00479158
-0.000354205
-0.00469808
-0.000360212
-0.00460311
-0.000366087
-0.0045067
-0.000371831
-0.00440888
-0.000377443
-0.00430969
-0.000382923
-0.00420916
-0.000388269
-0.00410733
-0.000393484
-0.00400422
-0.000398564
-0.00389988
-0.000403512
-0.00379434
-0.000408325
-0.00368763
-0.000413004
-0.00357979
-0.000417549
-0.00347086
-0.000421959
-0.00336087
-0.000426233
-0.00324986
-0.000430373
-0.00313787
-0.000434376
-0.00302493
-0.000438243
-0.00291109
-0.000441972
-0.00279639
-0.000445563
-0.00268086
-0.000449014
-0.00256455
-0.000452324
-0.00244751
-0.000455489
-0.00232976
-0.000458508
-0.00221135
-0.000461377
-0.00209229
-0.000464091
-0.00197263
-0.000466648
-0.00185236
-0.000469047
-0.00173152
-0.000471288
-0.00161013
-0.000473373
-0.00148823
-0.000475307
-0.00136585
-0.000477091
-0.00124304
-0.000478729
-0.00111985
-0.000480221
-0.000996308
-0.000481567
-0.00087246
-0.000482767
-0.000748342
-0.00048382
-0.000623993
-0.000484725
-0.000499446
-0.000485481
-0.000374738
-0.000486087
-0.000249902
-0.000486541
-0.000124974
-0.000486844
-0.000486995
2.96111e-09
-0.00691987
0.000332535
0.00688954
-0.0069493
0.000307479
-0.00697753
0.000283232
-0.00700426
0.000259765
-0.00702924
0.000237049
-0.00705227
0.000215055
-0.00707319
0.000193748
-0.00709187
0.000173097
-0.00710821
0.000153069
-0.00712213
0.000133632
-0.00713355
0.000114755
-0.00714243
9.64092e-05
-0.00714873
7.85653e-05
-0.00715241
6.11956e-05
-0.00715344
4.4273e-05
-0.0071518
2.77713e-05
-0.00714747
1.16647e-05
-0.00714045
-4.07101e-06
-0.00713069
-1.94614e-05
-0.00711821
-3.45186e-05
-0.00710301
-4.92607e-05
-0.00708512
-6.37071e-05
-0.00706455
-7.78754e-05
-0.00704135
-9.17808e-05
-0.00701556
-0.000105434
-0.00698719
-0.000118846
-0.0069563
-0.000132024
-0.0069229
-0.000144975
-0.00688703
-0.000157707
-0.00684871
-0.000170226
-0.00680799
-0.000182539
-0.00676488
-0.00019465
-0.00671942
-0.000206567
-0.00667163
-0.000218292
-0.00662155
-0.000229831
-0.00656921
-0.000241187
-0.00651463
-0.000252364
-0.00645784
-0.000263364
-0.00639888
-0.000274191
-0.00633778
-0.000284846
-0.00627457
-0.000295332
-0.00620927
-0.00030565
-0.00614193
-0.000315801
-0.00607257
-0.000325787
-0.00600121
-0.00033561
-0.00592791
-0.000345268
-0.00585267
-0.000354763
-0.00577554
-0.000364096
-0.00569655
-0.000373267
-0.00561574
-0.000382275
-0.00553312
-0.000391122
-0.00544874
-0.000399806
-0.00536262
-0.000408328
-0.0052748
-0.000416688
-0.00518532
-0.000424885
-0.0050942
-0.000432918
-0.00500148
-0.000440789
-0.00490719
-0.000448495
-0.00481137
-0.000456037
-0.00471404
-0.000463414
-0.00461525
-0.000470625
-0.00451502
-0.00047767
-0.00441339
-0.000484549
-0.0043104
-0.000491261
-0.00420608
-0.000497805
-0.00410047
-0.00050418
-0.00399359
-0.000510387
-0.00388549
-0.000516423
-0.00377621
-0.00052229
-0.00366577
-0.000527986
-0.00355422
-0.000533511
-0.00344159
-0.000538863
-0.00332792
-0.000544043
-0.00321324
-0.000549049
-0.0030976
-0.000553881
-0.00298104
-0.000558537
-0.00286358
-0.000563017
-0.00274528
-0.000567318
-0.00262616
-0.00057144
-0.00250627
-0.000575381
-0.00238564
-0.000579138
-0.00226431
-0.00058271
-0.00214231
-0.000586095
-0.00201966
-0.00058929
-0.00189642
-0.000592296
-0.00177259
-0.000595111
-0.00164823
-0.000597737
-0.00152336
-0.000600175
-0.00139803
-0.000602424
-0.00127227
-0.000604488
-0.00114612
-0.000606365
-0.00101964
-0.000608056
-0.000892842
-0.000609561
-0.000765782
-0.000610879
-0.000638496
-0.000612011
-0.000511022
-0.000612955
-0.000383398
-0.000613711
-0.000255661
-0.000614278
-0.000127848
-0.000614657
-0.000614846
2.95008e-09
-0.00716875
0.000362455
0.00713883
-0.00719717
0.000335893
-0.00722386
0.000309926
-0.00724868
0.000284584
-0.00727149
0.000259858
-0.00729217
0.000235734
-0.00731061
0.000212197
-0.00732674
0.000189226
-0.00734048
0.000166805
-0.00735176
0.000144911
-0.00736053
0.000123524
-0.00736674
0.000102625
-0.00737037
8.21921e-05
-0.00737138
6.2207e-05
-0.00736976
4.26503e-05
-0.00736549
2.35041e-05
-0.00735858
4.75073e-06
-0.00734902
-1.36268e-05
-0.00733684
-3.16451e-05
-0.00732203
-4.93249e-05
-0.00730461
-6.66819e-05
-0.00728459
-8.37313e-05
-0.00726198
-0.000100485
-0.0072368
-0.000116957
-0.00720908
-0.000133156
-0.00717883
-0.000149091
-0.00714609
-0.000164771
-0.00711086
-0.000180203
-0.00707317
-0.000195393
-0.00703305
-0.000210348
-0.00699052
-0.000225072
-0.0069456
-0.000239571
-0.00689832
-0.000253848
-0.0068487
-0.000267909
-0.00679677
-0.000281757
-0.00674257
-0.000295394
-0.00668611
-0.000308825
-0.00662742
-0.000322051
-0.00656654
-0.000335074
-0.00650349
-0.000347897
-0.0064383
-0.000360521
-0.006371
-0.000372947
-0.00630162
-0.000385177
-0.0062302
-0.000397211
-0.00615676
-0.00040905
-0.00608133
-0.000420695
-0.00600395
-0.000432146
-0.00592464
-0.000443404
-0.00584344
-0.000454467
-0.00576038
-0.000465336
-0.00567549
-0.000476012
-0.0055888
-0.000486493
-0.00550035
-0.000496779
-0.00541017
-0.000506871
-0.00531829
-0.000516767
-0.00522474
-0.000526466
-0.00512956
-0.000535969
-0.00503278
-0.000545274
-0.00493444
-0.000554381
-0.00483456
-0.000563289
-0.00473319
-0.000571997
-0.00463036
-0.000580504
-0.00452609
-0.000588811
-0.00442044
-0.000596915
-0.00431343
-0.000604816
-0.0042051
-0.000612513
-0.00409548
-0.000620005
-0.00398461
-0.000627292
-0.00387253
-0.000634372
-0.00375927
-0.000641245
-0.00364487
-0.000647909
-0.00352937
-0.000654364
-0.0034128
-0.000660609
-0.00329521
-0.000666642
-0.00317663
-0.000672463
-0.00305709
-0.000678071
-0.00293665
-0.000683463
-0.00281533
-0.00068864
-0.00269317
-0.000693599
-0.00257021
-0.000698338
-0.00244649
-0.000702858
-0.00232204
-0.000707156
-0.00219691
-0.00071123
-0.00207112
-0.00071508
-0.00194471
-0.000718705
-0.00181772
-0.000722104
-0.00169018
-0.000725278
-0.00156213
-0.000728225
-0.0014336
-0.000730947
-0.00130465
-0.000733443
-0.0011753
-0.000735713
-0.0010456
-0.000737758
-0.000915583
-0.000739577
-0.000785292
-0.000741169
-0.000654768
-0.000742536
-0.000524047
-0.000743675
-0.000393171
-0.000744587
-0.000262178
-0.000745271
-0.000131107
-0.000745728
-0.000745956
2.96529e-09
-0.00744052
0.000389897
0.00741308
-0.00746627
0.000361639
-0.00749022
0.00033388
-0.00751227
0.00030663
-0.0075323
0.000279891
-0.00755023
0.000253661
-0.00756596
0.000227935
-0.00757944
0.000202703
-0.00759059
0.000177955
-0.00759936
0.000153679
-0.0076057
0.000129863
-0.00760957
0.000106493
-0.00761093
8.35558e-05
-0.00760976
6.10374e-05
-0.00760603
3.89231e-05
-0.00759973
1.71993e-05
-0.00759083
-4.14821e-06
-0.00757932
-2.51334e-05
-0.0075652
-4.57675e-05
-0.00754846
-6.60612e-05
-0.00752912
-8.60265e-05
-0.00750718
-0.000105674
-0.00748265
-0.000125014
-0.00745555
-0.000144057
-0.00742589
-0.00016281
-0.0073937
-0.000181281
-0.00735899
-0.000199478
-0.00732179
-0.000217406
-0.00728211
-0.000235071
-0.00723998
-0.000252479
-0.00719542
-0.000269633
-0.00714845
-0.000286538
-0.0070991
-0.000303199
-0.00704739
-0.000319617
-0.00699335
-0.000335797
-0.00693701
-0.00035174
-0.00687838
-0.00036745
-0.00681751
-0.000382928
-0.0067544
-0.000398176
-0.00668911
-0.000413195
-0.00662164
-0.000427986
-0.00655204
-0.000442551
-0.00648032
-0.000456891
-0.00640653
-0.000471004
-0.00633069
-0.000484893
-0.00625282
-0.000498557
-0.00617297
-0.000511997
-0.00609117
-0.000525211
-0.00600743
-0.000538201
-0.0059218
-0.000550964
-0.00583431
-0.000563502
-0.00574499
-0.000575813
-0.00565388
-0.000587897
-0.005561
-0.000599753
-0.00546638
-0.00061138
-0.00537007
-0.000622778
-0.00527209
-0.000633945
-0.00517249
-0.00064488
-0.00507129
-0.000655583
-0.00496852
-0.000666053
-0.00486423
-0.000676288
-0.00475845
-0.000686287
-0.00465121
-0.00069605
-0.00454255
-0.000705575
-0.0044325
-0.000714862
-0.00432111
-0.000723908
-0.0042084
-0.000732713
-0.00409441
-0.000741276
-0.00397919
-0.000749595
-0.00386277
-0.00075767
-0.00374518
-0.000765499
-0.00362646
-0.000773081
-0.00350665
-0.000780415
-0.00338579
-0.0007875
-0.00326392
-0.000794334
-0.00314108
-0.000800916
-0.0030173
-0.000807245
-0.00289262
-0.00081332
-0.00276708
-0.000819139
-0.00264071
-0.0008247
-0.00251357
-0.000830003
-0.00238568
-0.000835046
-0.00225708
-0.000839829
-0.00212781
-0.000844349
-0.00199791
-0.000848607
-0.00186741
-0.000852601
-0.00173636
-0.00085633
-0.00160479
-0.000859796
-0.00147274
-0.000862996
-0.00134025
-0.000865932
-0.00120736
-0.000868602
-0.00107411
-0.000871006
-0.000940547
-0.000873144
-0.0008067
-0.000875016
-0.000672614
-0.000876621
-0.000538329
-0.00087796
-0.000403885
-0.000879031
-0.000269322
-0.000879835
-0.000134679
-0.00088037
-0.000880638
3.0042e-09
-0.00773576
0.000415291
0.00771036
-0.00775932
0.000385198
-0.00778095
0.000355509
-0.00780057
0.000326251
-0.00781811
0.00029743
-0.0078335
0.000269048
-0.00784666
0.000241104
-0.00785756
0.000213595
-0.00786612
0.000186515
-0.0078723
0.00015986
-0.00787606
0.000133623
-0.00787736
0.000107794
-0.00787617
8.23664e-05
-0.00787246
5.73312e-05
-0.00786622
3.26795e-05
-0.00785742
8.402e-06
-0.00784606
-1.55095e-05
-0.00783213
-3.90648e-05
-0.00781562
-6.22733e-05
-0.00779654
-8.51439e-05
-0.00777488
-0.000107685
-0.00775065
-0.000129904
-0.00772386
-0.00015181
-0.00769451
-0.000173408
-0.00766261
-0.000194705
-0.00762819
-0.000215708
-0.00759124
-0.00023642
-0.0075518
-0.000256848
-0.00750988
-0.000276996
-0.00746549
-0.000296866
-0.00741866
-0.000316464
-0.0073694
-0.000335792
-0.00731775
-0.000354853
-0.00726372
-0.00037365
-0.00720733
-0.000392183
-0.00714861
-0.000410457
-0.00708759
-0.000428471
-0.00702429
-0.000446228
-0.00695874
-0.000463729
-0.00689096
-0.000480973
-0.00682098
-0.000497963
-0.00674884
-0.000514698
-0.00667455
-0.000531178
-0.00659815
-0.000547404
-0.00651967
-0.000563376
-0.00643913
-0.000579092
-0.00635657
-0.000594554
-0.00627203
-0.00060976
-0.00618552
-0.000624709
-0.00609708
-0.000639401
-0.00600675
-0.000653836
-0.00591455
-0.000668011
-0.00582052
-0.000681926
-0.00572469
-0.000695581
-0.0056271
-0.000708973
-0.00552777
-0.000722102
-0.00542675
-0.000734967
-0.00532407
-0.000747566
-0.00521975
-0.000759898
-0.00511384
-0.000771962
-0.00500637
-0.000783756
-0.00489738
-0.000795279
-0.0047869
-0.000806529
-0.00467497
-0.000817506
-0.00456163
-0.000828207
-0.0044469
-0.000838632
-0.00433084
-0.000848779
-0.00421347
-0.000858646
-0.00409483
-0.000868233
-0.00397496
-0.000877537
-0.00385391
-0.000886557
-0.00373169
-0.000895293
-0.00360837
-0.000903742
-0.00348396
-0.000911903
-0.00335852
-0.000919775
-0.00323208
-0.000927356
-0.00310468
-0.000934645
-0.00297636
-0.000941641
-0.00284716
-0.000948341
-0.00271712
-0.000954746
-0.00258627
-0.000960852
-0.00245465
-0.000966661
-0.00232231
-0.000972169
-0.00218928
-0.000977376
-0.00205561
-0.000982281
-0.00192133
-0.000986883
-0.00178648
-0.000991182
-0.0016511
-0.000995177
-0.00151523
-0.000998866
-0.00137891
-0.00100225
-0.00124218
-0.00100533
-0.00110509
-0.0010081
-0.000967665
-0.00101057
-0.000829957
-0.00101272
-0.000692005
-0.00101457
-0.000553848
-0.00101612
-0.000415528
-0.00101735
-0.000277086
-0.00101828
-0.000138562
-0.00101889
-0.0010192
3.0663e-09
-0.00805105
0.000438586
0.00802776
-0.0080724
0.000406547
-0.00809175
0.000374857
-0.00810903
0.000343533
-0.00812419
0.000312586
-0.00813716
0.000282019
-0.00814789
0.000251836
-0.00815633
0.000222038
-0.00816244
0.000192624
-0.00816617
0.000163592
-0.00816749
0.000134941
-0.00816636
0.000106665
-0.00816276
7.87614e-05
-0.00815665
5.1225e-05
-0.00814802
2.40504e-05
-0.00813685
-2.76778e-06
-0.00812313
-2.92353e-05
-0.00810683
-5.53576e-05
-0.00808797
-8.11402e-05
-0.00806652
-0.000106588
-0.0080425
-0.000131707
-0.0080159
-0.000156502
-0.00798674
-0.000180978
-0.00795501
-0.000205139
-0.00792072
-0.000228991
-0.00788389
-0.000252536
-0.00784453
-0.000275779
-0.00780266
-0.000298722
-0.00775829
-0.00032137
-0.00771143
-0.000343724
-0.00766211
-0.000365787
-0.00761034
-0.00038756
-0.00755615
-0.000409046
-0.00749955
-0.000430246
-0.00744057
-0.000451161
-0.00737924
-0.000471793
-0.00731557
-0.000492141
-0.00724959
-0.000512207
-0.00718132
-0.000531992
-0.0071108
-0.000551494
-0.00703805
-0.000570714
-0.0069631
-0.000589652
-0.00688597
-0.000608308
-0.00680669
-0.00062668
-0.0067253
-0.000644769
-0.00664182
-0.000662574
-0.00655628
-0.000680093
-0.00646871
-0.000697325
-0.00637915
-0.000714271
-0.00628763
-0.000730927
-0.00619417
-0.000747294
-0.00609881
-0.00076337
-0.00600158
-0.000779152
-0.00590252
-0.000794641
-0.00580166
-0.000809834
-0.00569903
-0.00082473
-0.00559467
-0.000839328
-0.00548862
-0.000853624
-0.00538089
-0.000867619
-0.00527155
-0.000881311
-0.0051606
-0.000894696
-0.00504811
-0.000907775
-0.00493409
-0.000920545
-0.00481859
-0.000933005
-0.00470165
-0.000945153
-0.00458329
-0.000956987
-0.00446356
-0.000968505
-0.0043425
-0.000979707
-0.00422015
-0.000990589
-0.00409653
-0.00100115
-0.0039717
-0.00101139
-0.00384569
-0.00102131
-0.00371853
-0.0010309
-0.00359027
-0.00104016
-0.00346095
-0.0010491
-0.00333061
-0.0010577
-0.00319928
-0.00106597
-0.00306701
-0.00107391
-0.00293384
-0.00108152
-0.0027998
-0.00108879
-0.00266493
-0.00109572
-0.00252928
-0.00110231
-0.00239289
-0.00110856
-0.0022558
-0.00111447
-0.00211804
-0.00112004
-0.00197966
-0.00112527
-0.00184069
-0.00113015
-0.00170119
-0.00113468
-0.00156118
-0.00113887
-0.00142072
-0.00114271
-0.00127984
-0.00114621
-0.00113858
-0.00114936
-0.00099699
-0.00115216
-0.000855106
-0.00115461
-0.000712971
-0.00115671
-0.000570627
-0.00115846
-0.000428116
-0.00115986
-0.000285479
-0.00116091
-0.000142759
-0.00116161
-0.00116197
3.15161e-09
-0.00838754
0.000460078
0.00836605
-0.00840698
0.000425988
-0.00842432
0.000392194
-0.0084395
0.000358718
-0.00845249
0.000325568
-0.00846322
0.000292753
-0.00847166
0.000260278
-0.00847777
0.000228146
-0.00848151
0.00019636
-0.00848284
0.000164921
-0.00848173
0.00013383
-0.00847815
0.000103086
-0.00847207
7.26886e-05
-0.00846349
4.2636e-05
-0.00845236
1.29269e-05
-0.00843869
-1.64412e-05
-0.00842245
-4.54708e-05
-0.00840365
-7.41646e-05
-0.00838226
-0.000102525
-0.00835829
-0.000130556
-0.00833174
-0.000158259
-0.0083026
-0.000185638
-0.00827089
-0.000212694
-0.0082366
-0.000239431
-0.00819974
-0.000265851
-0.00816032
-0.000291955
-0.00811835
-0.000317746
-0.00807385
-0.000343226
-0.00802682
-0.000368395
-0.00797729
-0.000393255
-0.00792527
-0.000417808
-0.00787078
-0.000442053
-0.00781383
-0.000465992
-0.00775445
-0.000489624
-0.00769266
-0.000512951
-0.00762848
-0.000535972
-0.00756193
-0.000558688
-0.00749305
-0.000581096
-0.00742184
-0.000603198
-0.00734834
-0.000624993
-0.00727257
-0.00064648
-0.00719457
-0.000667657
-0.00711435
-0.000688525
-0.00703195
-0.000709081
-0.00694739
-0.000729325
-0.00686071
-0.000749255
-0.00677194
-0.000768869
-0.00668109
-0.000788167
-0.00658822
-0.000807146
-0.00649334
-0.000825806
-0.00639649
-0.000844143
-0.0062977
-0.000862157
-0.00619701
-0.000879845
-0.00609445
-0.000897205
-0.00599005
-0.000914237
-0.00588384
-0.000930936
-0.00577586
-0.000947303
-0.00566616
-0.000963334
-0.00555475
-0.000979028
-0.00544167
-0.000994382
-0.00532698
-0.0010094
-0.00521069
-0.00102406
-0.00509284
-0.00103839
-0.00497348
-0.00105237
-0.00485264
-0.00106599
-0.00473036
-0.00107927
-0.00460668
-0.00109219
-0.00448163
-0.00110476
-0.00435525
-0.00111696
-0.00422759
-0.00112881
-0.00409868
-0.0011403
-0.00396856
-0.00115143
-0.00383727
-0.00116219
-0.00370485
-0.00117258
-0.00357134
-0.0011826
-0.00343679
-0.00119226
-0.00330122
-0.00120154
-0.00316469
-0.00121044
-0.00302723
-0.00121898
-0.00288889
-0.00122713
-0.00274969
-0.00123491
-0.0026097
-0.0012423
-0.00246894
-0.00124932
-0.00232746
-0.00125595
-0.0021853
-0.0012622
-0.00204251
-0.00126806
-0.00189911
-0.00127354
-0.00175517
-0.00127863
-0.00161071
-0.00128333
-0.00146578
-0.00128764
-0.00132042
-0.00129157
-0.00117468
-0.0012951
-0.00102859
-0.00129824
-0.000882207
-0.00130099
-0.000735565
-0.00130335
-0.000588709
-0.00130532
-0.000441681
-0.00130689
-0.000294524
-0.00130807
-0.000147282
-0.00130886
-0.00130925
3.26064e-09
-0.00874545
0.00047987
0.00872566
-0.00876309
0.000443624
-0.00877853
0.000407635
-0.00879173
0.000371922
-0.00880266
0.000336496
-0.00881127
0.000301365
-0.00881753
0.000266538
-0.00882141
0.00023202
-0.00882286
0.000197815
-0.00882187
0.000163927
-0.0088184
0.000130359
-0.00881242
9.71133e-05
-0.00880393
6.41924e-05
-0.00879289
3.15966e-05
-0.00877929
-6.7279e-07
-0.00876312
-3.26157e-05
-0.00874435
-6.42319e-05
-0.008723
-9.55213e-05
-0.00869904
-0.000126484
-0.00867247
-0.000157121
-0.0086433
-0.000187433
-0.00861152
-0.000217419
-0.00857713
-0.000247081
-0.00854014
-0.000276419
-0.00850056
-0.000305433
-0.00845839
-0.000334123
-0.00841365
-0.000362491
-0.00836634
-0.000390535
-0.00831648
-0.000418256
-0.00826408
-0.000445654
-0.00820916
-0.000472729
-0.00815173
-0.000499479
-0.00809182
-0.000525904
-0.00802944
-0.000552005
-0.00796461
-0.000577779
-0.00789736
-0.000603226
-0.0078277
-0.000628345
-0.00775566
-0.000653134
-0.00768127
-0.000677592
-0.00760454
-0.000701718
-0.00752551
-0.000725511
-0.0074442
-0.000748967
-0.00736064
-0.000772087
-0.00727485
-0.000794867
-0.00718687
-0.000817307
-0.00709673
-0.000839402
-0.00700444
-0.000861153
-0.00691005
-0.000882557
-0.00681359
-0.000903611
-0.00671508
-0.000924314
-0.00661456
-0.000944662
-0.00651206
-0.000964655
-0.00640762
-0.000984288
-0.00630126
-0.00100356
-0.00619303
-0.00102247
-0.00608295
-0.00104101
-0.00597107
-0.00105919
-0.00585741
-0.00107699
-0.00574201
-0.00109442
-0.00562492
-0.00111148
-0.00550616
-0.00112816
-0.00538577
-0.00114445
-0.00526379
-0.00116037
-0.00514027
-0.00117589
-0.00501522
-0.00119104
-0.0048887
-0.00120579
-0.00476075
-0.00122015
-0.00463139
-0.00123411
-0.00450068
-0.00124768
-0.00436865
-0.00126084
-0.00423534
-0.00127361
-0.0041008
-0.00128597
-0.00396505
-0.00129793
-0.00382815
-0.00130948
-0.00369013
-0.00132062
-0.00355103
-0.00133135
-0.0034109
-0.00134167
-0.00326978
-0.00135157
-0.0031277
-0.00136105
-0.00298472
-0.00137011
-0.00284087
-0.00137876
-0.0026962
-0.00138698
-0.00255075
-0.00139477
-0.00240455
-0.00140215
-0.00225766
-0.00140909
-0.00211011
-0.00141561
-0.00196195
-0.0014217
-0.00181322
-0.00142736
-0.00166397
-0.00143258
-0.00151424
-0.00143738
-0.00136407
-0.00144174
-0.0012135
-0.00144567
-0.00106258
-0.00144916
-0.000911353
-0.00145222
-0.000759864
-0.00145484
-0.000608154
-0.00145703
-0.000456269
-0.00145878
-0.000304251
-0.00146009
-0.000152146
-0.00146096
-0.0014614
3.39416e-09
-0.00912573
0.000498129
0.00910747
-0.00914173
0.00045962
-0.00915542
0.000421333
-0.00916679
0.000383289
-0.00917579
0.000345498
-0.0091824
0.000307972
-0.00918658
0.000270718
-0.0091883
0.000233743
-0.00918754
0.000197055
-0.00918428
0.000160659
-0.00917848
0.00012456
-0.00917012
8.87621e-05
-0.0091592
5.32696e-05
-0.00914569
1.80859e-05
-0.00912958
-1.67857e-05
-0.00911085
-5.13429e-05
-0.0090895
-8.55832e-05
-0.00906552
-0.000119505
-0.0090389
-0.000153105
-0.00900963
-0.000186384
-0.00897773
-0.000219338
-0.00894318
-0.000251966
-0.00890599
-0.000284268
-0.00886617
-0.000316241
-0.00882372
-0.000347885
-0.00877865
-0.000379197
-0.00873096
-0.000410177
-0.00868067
-0.000440823
-0.00862779
-0.000471134
-0.00857234
-0.000501108
-0.00851433
-0.000530743
-0.00845377
-0.000560038
-0.00839068
-0.00058899
-0.00832509
-0.000617599
-0.008257
-0.000645862
-0.00818645
-0.000673776
-0.00811346
-0.000701341
-0.00803804
-0.000728553
-0.00796022
-0.000755411
-0.00788003
-0.000781912
-0.00779748
-0.000808054
-0.00771262
-0.000833834
-0.00762545
-0.000859249
-0.00753602
-0.000884298
-0.00744435
-0.000908977
-0.00735047
-0.000933283
-0.00725441
-0.000957215
-0.0071562
-0.000980769
-0.00705587
-0.00100394
-0.00695345
-0.00102673
-0.00684898
-0.00104914
-0.00674248
-0.00107115
-0.006634
-0.00109277
-0.00652356
-0.001114
-0.0064112
-0.00113483
-0.00629696
-0.00115526
-0.00618086
-0.00117528
-0.00606295
-0.0011949
-0.00594326
-0.00121411
-0.00582184
-0.00123291
-0.00569871
-0.00125129
-0.00557391
-0.00126925
-0.00544748
-0.00128679
-0.00531947
-0.00130391
-0.0051899
-0.0013206
-0.00505882
-0.00133687
-0.00492627
-0.0013527
-0.00479228
-0.00136809
-0.00465691
-0.00138305
-0.00452018
-0.00139757
-0.00438214
-0.00141165
-0.00424283
-0.00142528
-0.00410229
-0.00143847
-0.00396057
-0.00145121
-0.0038177
-0.00146349
-0.00367372
-0.00147533
-0.00352869
-0.0014867
-0.00338263
-0.00149762
-0.0032356
-0.00150808
-0.00308764
-0.00151808
-0.00293879
-0.00152761
-0.00278909
-0.00153668
-0.00263859
-0.00154528
-0.00248732
-0.00155341
-0.00233535
-0.00156107
-0.0021827
-0.00156826
-0.00202942
-0.00157497
-0.00187556