/*--------------------------------*- C++ -*----------------------------------*\
  =========                 |
  \\      /  F ield         | OpenFOAM: The Open Source CFD Toolbox
   \\    /   O peration     | Website:  https://openfoam.org
    \\  /    A nd           | Version:  8
     \\/     M anipulation  |
\*---------------------------------------------------------------------------*/
FoamFile
{
    version     2.0;
    format      ascii;
    class       volVectorField;
    location    "0.12";
    object      U;
}
// * * * * * * * * * * * * * * * * * * * * * * * * * * * * * * * * * * * * * //

dimensions      [0 1 -1 0 0 0 0];

internalField   nonuniform List<vector> 
108736
(
(14.9999 2.16758e-06 -1.74614e-24)
(15 3.36389e-07 -4.03731e-23)
(14.9999 2.13383e-06 -2.14422e-22)
(14.9999 6.01068e-06 6.43433e-23)
(14.9999 1.04055e-05 1.13967e-21)
(14.9998 1.44479e-05 -1.18656e-21)
(14.9998 1.78819e-05 -4.60659e-23)
(14.9998 2.13642e-05 4.86922e-22)
(14.9998 2.50982e-05 1.57307e-21)
(14.9998 2.9151e-05 -2.64839e-21)
(14.9998 3.30602e-05 -7.17804e-23)
(14.9998 3.69778e-05 4.82683e-21)
(14.9998 4.10912e-05 3.25051e-21)
(14.9998 4.51038e-05 3.51559e-21)
(14.9998 4.92252e-05 3.23207e-21)
(14.9998 5.33031e-05 5.54759e-21)
(14.9998 5.73768e-05 -4.2504e-21)
(14.9998 6.16526e-05 7.70007e-21)
(14.9998 6.57726e-05 -5.83744e-21)
(14.9998 6.98685e-05 -8.85719e-21)
(14.9998 7.40063e-05 -1.6269e-20)
(14.9998 7.82395e-05 -7.07442e-21)
(14.9998 8.23142e-05 -7.44414e-21)
(14.9998 8.65332e-05 -4.35359e-21)
(14.9998 9.0622e-05 3.7891e-21)
(14.9998 9.48733e-05 8.49681e-21)
(14.9998 9.90298e-05 -1.35354e-20)
(14.9998 0.000103106 1.83116e-20)
(14.9998 0.000107265 -1.2808e-22)
(14.9998 0.000111423 9.74759e-21)
(14.9998 0.000115602 9.73794e-21)
(14.9998 0.000119635 1.20714e-22)
(14.9998 0.000123694 1.0144e-20)
(14.9998 0.000127772 1.05501e-20)
(14.9998 0.000131646 -1.06964e-20)
(14.9998 0.000135661 1.20762e-22)
(14.9998 0.000139567 -1.68768e-20)
(14.9998 0.000143488 1.09246e-20)
(14.9998 0.000147533 -4.74139e-21)
(14.9998 0.0001513 2.22694e-20)
(14.9998 0.0001552 -2.2369e-20)
(14.9998 0.000158969 1.79824e-20)
(14.9998 0.000162616 4.31712e-21)
(14.9998 0.000166306 -1.08352e-22)
(14.9998 0.000170021 1.12704e-20)
(14.9998 0.000173566 3.77429e-21)
(14.9998 0.000177274 1.11106e-20)
(14.9998 0.000180838 -1.85912e-20)
(14.9998 0.000184197 -1.11145e-20)
(14.9998 0.000187708 2.65586e-20)
(14.9998 0.000191029 7.96561e-21)
(14.9998 0.000194433 2.15395e-20)
(14.9998 0.000197683 2.13518e-20)
(14.9998 0.000201042 -8.20591e-21)
(14.9998 0.000204205 -8.39667e-21)
(14.9998 0.000207308 -1.0321e-20)
(14.9998 0.000210392 -2.03827e-20)
(14.9998 0.000213494 8.59461e-21)
(14.9998 0.000216386 9.98305e-21)
(14.9998 0.000219384 -9.82494e-21)
(14.9998 0.000222285 9.66772e-21)
(14.9998 0.000224982 -7.18052e-23)
(14.9998 0.000227802 9.31476e-21)
(14.9999 0.000230466 -7.31512e-23)
(14.9999 0.000233155 8.93985e-21)
(14.9999 0.000235776 -1.80264e-20)
(14.9999 0.00023823 0)
(14.9999 0.000240849 -8.28701e-21)
(14.9999 0.000243269 8.08513e-21)
(14.9999 0.000245595 7.87051e-21)
(14.9999 0.000247875 1.72834e-20)
(14.9999 0.000250095 -9.63119e-21)
(14.9999 0.00025222 -1.4525e-20)
(14.9999 0.000254304 1.68962e-20)
(14.9999 0.000256447 -1.98108e-20)
(14.9999 0.000258456 9.87217e-21)
(14.9999 0.000260257 2.26424e-20)
(14.9999 0.000262252 -4.05517e-21)
(14.9999 0.000264016 0)
(14.9999 0.000265748 0)
(14.9999 0.000267319 0)
(14.9999 0.000268988 -5.04803e-21)
(14.9999 0.000270543 0)
(14.9999 0.000272084 -5.81082e-21)
(14.9999 0.000273434 2.07277e-20)
(14.9999 0.000274709 8.11311e-21)
(14.9999 0.000276093 -3.52418e-20)
(14.9999 0.000277271 7.02354e-21)
(14.9999 0.000278415 7.355e-21)
(15 0.000279495 -1.05814e-20)
(15 0.000280561 -2.68995e-21)
(15 0.000281564 2.41766e-21)
(15 0.000282424 2.11221e-21)
(15 0.000283227 1.96138e-20)
(15 0.000283924 2.30819e-20)
(15 0.000284617 -9.48687e-21)
(15 0.000285201 -2.1623e-20)
(15 0.000285788 0)
(15 0.000286221 4.2946e-22)
(15 0.000286617 1.08813e-20)
(15 0.000286957 -1.36542e-22)
(15 0.000287241 -1.04671e-20)
(15 0.000287488 0)
(15 0.00028758 2.18033e-20)
(15 0.000287673 -5.16441e-21)
(15 0.000287655 -9.30501e-21)
(15 0.000287633 -3.74422e-21)
(15 0.000287502 -1.08865e-20)
(15 0.000287311 -1.33345e-20)
(15 0.000286972 5.47379e-21)
(15 0.000286567 2.98714e-21)
(15.0001 0.000286145 1.08863e-20)
(15.0001 0.000285654 -3.63515e-21)
(15.0001 0.000285126 1.09035e-20)
(15.0001 0.000284382 -8.38259e-21)
(15.0001 0.000283748 -6.27371e-21)
(15.0001 0.000283033 -1.55803e-20)
(15.0001 0.000282115 5.09707e-21)
(15.0001 0.000281179 2.68703e-20)
(15.0001 0.000280119 -1.62737e-20)
(15.0001 0.000279159 -1.06599e-20)
(15.0001 0.000278024 1.22035e-20)
(15.0001 0.000276851 1.0658e-20)
(15.0001 0.000275428 3.92854e-21)
(15.0001 0.000274207 -3.50156e-20)
(15.0001 0.000272759 7.28104e-21)
(15.0001 0.000271161 2.9698e-21)
(15.0001 0.000269621 -2.0906e-20)
(15.0001 0.000268031 2.64444e-20)
(15.0001 0.000266332 2.06716e-21)
(15.0001 0.000264562 -1.03008e-20)
(15.0001 0.000262736 -7.13098e-21)
(15.0001 0.0002608 1.91794e-20)
(15.0002 0.000258641 -1.94271e-20)
(15.0002 0.000256653 8.8099e-21)
(15.0002 0.000254474 1.01124e-20)
(15.0002 0.000252213 9.97436e-21)
(15.0002 0.000249969 -2.01381e-20)
(15.0002 0.000247546 -3.01396e-20)
(15.0002 0.000245248 9.59267e-23)
(15.0002 0.000242715 9.72387e-21)
(15.0002 0.000240065 0)
(15.0002 0.000237521 1.11808e-20)
(15.0002 0.000234733 0)
(15.0002 0.000231953 -9.50421e-21)
(15.0002 0.00022914 1.18376e-20)
(15.0002 0.000226249 -2.66033e-21)
(15.0002 0.000223122 1.2056e-20)
(15.0002 0.000220107 9.15285e-21)
(15.0002 0.000216904 -2.47732e-20)
(15.0002 0.000213781 -5.32613e-21)
(15.0002 0.000210428 3.85869e-21)
(15.0002 0.000207233 2.14428e-20)
(15.0002 0.000203789 -4.2716e-21)
(15.0002 0.000200163 0)
(15.0002 0.000196708 4.54439e-21)
(15.0002 0.00019304 2.13654e-20)
(15.0002 0.000189384 2.08728e-20)
(15.0002 0.00018576 -2.09111e-20)
(15.0002 0.000181977 5.20681e-21)
(15.0002 0.00017802 1.34866e-22)
(15.0003 0.000174199 7.41011e-21)
(15.0003 0.000170031 -7.37587e-21)
(15.0003 0.000165988 1.45781e-20)
(15.0003 0.000161941 8.6135e-22)
(15.0003 0.000157741 -2.6283e-20)
(15.0003 0.000153689 -6.54151e-21)
(15.0003 0.000149367 -5.92144e-21)
(15.0003 0.000145044 -1.46637e-22)
(15.0003 0.000140725 1.57569e-22)
(15.0003 0.000136204 5.74449e-21)
(15.0003 0.000131679 2.46046e-25)
(15.0003 0.000127125 -3.33781e-20)
(15.0003 0.000122643 1.69597e-20)
(15.0003 0.000118032 -1.63608e-20)
(15.0003 0.000113269 1.49799e-20)
(15.0003 0.000108676 -1.45088e-20)
(15.0003 0.000103885 1.21129e-21)
(15.0003 9.92409e-05 1.30222e-20)
(15.0003 9.4357e-05 -1.16355e-21)
(15.0003 8.95555e-05 -8.19123e-21)
(15.0003 8.47667e-05 7.69905e-21)
(15.0003 7.99034e-05 2.84862e-21)
(15.0003 7.47914e-05 -3.76359e-21)
(15.0003 6.98948e-05 -1.44381e-20)
(15.0003 6.49422e-05 6.58284e-21)
(15.0003 5.98791e-05 -4.82174e-21)
(15.0003 5.49041e-05 2.54437e-21)
(15.0003 4.97353e-05 5.2881e-21)
(15.0003 4.47705e-05 -2.11386e-21)
(15.0003 3.97479e-05 6.59459e-22)
(15.0002 3.44602e-05 2.27598e-21)
(15.0002 2.95508e-05 -2.51066e-21)
(15.0002 2.49388e-05 1.47376e-21)
(15.0002 2.03174e-05 6.59598e-22)
(15.0002 1.47233e-05 9.37345e-22)
(15.0002 8.49043e-06 -4.59947e-22)
(15.0001 3.02877e-06 -3.19613e-22)
(15 3.36863e-07 1.79073e-22)
(15.0001 3.25368e-06 -2.37292e-23)
(14.999 5.10526e-06 1.73445e-23)
(14.9996 1.47411e-05 -2.02549e-22)
(14.9998 4.8546e-06 -4.6334e-23)
(14.9997 8.06582e-06 -7.86698e-22)
(14.9996 1.94366e-05 1.10388e-21)
(14.9996 3.33696e-05 -8.35162e-22)
(14.9995 4.56935e-05 -1.84851e-21)
(14.9995 5.64302e-05 7.18981e-23)
(14.9995 6.69586e-05 6.71718e-22)
(14.9994 7.84653e-05 1.64196e-22)
(14.9994 9.02672e-05 -2.42986e-21)
(14.9994 0.000102081 1.34681e-21)
(14.9994 0.000114112 4.22483e-21)
(14.9994 0.000126112 -2.95138e-21)
(14.9994 0.0001384 1.25507e-20)
(14.9994 0.000150735 1.15216e-21)
(14.9994 0.000163031 -8.79262e-21)
(14.9994 0.000175607 -1.27535e-21)
(14.9994 0.000188103 6.13566e-21)
(14.9993 0.000200624 -2.75421e-23)
(14.9993 0.00021317 -3.45353e-21)
(14.9993 0.000225881 -1.23896e-20)
(14.9993 0.0002384 -9.00312e-21)
(14.9993 0.000251107 -2.84821e-23)
(14.9993 0.000263641 -4.33777e-21)
(14.9993 0.000276355 9.00892e-21)
(14.9993 0.000289087 3.84788e-22)
(14.9993 0.000301647 3.08138e-22)
(14.9993 0.000314185 -5.59025e-21)
(14.9993 0.000326781 -5.37244e-21)
(14.9993 0.000339311 5.4566e-21)
(14.9993 0.000351728 2.86791e-22)
(14.9993 0.000364162 -1.79334e-20)
(14.9993 0.000376556 4.81002e-20)
(14.9993 0.000388685 6.43446e-21)
(14.9993 0.000400888 1.2134e-20)
(14.9994 0.000412879 -1.3334e-20)
(14.9994 0.000424862 -2.39242e-22)
(14.9994 0.000437014 1.26066e-20)
(14.9994 0.000448707 3.16588e-20)
(14.9994 0.000460525 2.00526e-20)
(14.9994 0.000472121 -2.63447e-21)
(14.9994 0.000483498 1.24351e-20)
(14.9994 0.000494834 0)
(14.9994 0.000506144 4.55743e-21)
(14.9994 0.000517174 -8.05519e-21)
(14.9994 0.000528353 2.84112e-20)
(14.9994 0.000539167 -1.5942e-20)
(14.9994 0.000549689 -2.88418e-20)
(14.9994 0.000560344 8.32901e-21)
(14.9994 0.000570784 1.21044e-20)
(14.9994 0.000581079 6.08732e-21)
(14.9994 0.000591108 4.08298e-20)
(14.9995 0.000601282 2.05883e-20)
(14.9995 0.000611044 -9.66073e-23)
(14.9995 0.000620689 6.95647e-21)
(14.9995 0.000630236 -9.07934e-21)
(14.9995 0.000639585 -1.86731e-20)
(14.9995 0.000648667 3.08337e-20)
(14.9995 0.000657787 2.12121e-20)
(14.9995 0.000666612 8.05198e-22)
(14.9995 0.000675162 0)
(14.9995 0.000683748 1.00093e-20)
(14.9995 0.000692028 -9.7978e-21)
(14.9996 0.000700195 1.94163e-20)
(14.9996 0.000708152 5.62186e-23)
(14.9996 0.000715943 -7.20845e-23)
(14.9996 0.000723706 -1.89062e-20)
(14.9996 0.000731134 -2.03519e-20)
(14.9996 0.000738334 4.28298e-24)
(14.9996 0.000745342 2.04928e-20)
(14.9996 0.000752262 2.07447e-20)
(14.9996 0.000758912 -1.03987e-20)
(14.9997 0.000765322 4.53235e-21)
(14.9997 0.00077176 -1.04934e-20)
(14.9997 0.000777894 -1.76151e-20)
(14.9997 0.000783701 6.76627e-21)
(14.9997 0.000789617 1.06716e-20)
(14.9997 0.000795117 1.69992e-20)
(14.9997 0.00080043 -5.96336e-21)
(14.9997 0.000805438 1.65278e-20)
(14.9998 0.000810442 5.4605e-21)
(14.9998 0.000815213 -2.70284e-20)
(14.9998 0.000819841 -1.10019e-20)
(14.9998 0.000824091 1.10144e-20)
(14.9998 0.000828142 1.97246e-20)
(14.9998 0.000832173 -2.53433e-24)
(14.9998 0.000835944 1.11439e-20)
(14.9998 0.000839422 2.75844e-23)
(14.9999 0.000842752 -1.44045e-20)
(14.9999 0.000846018 -1.41297e-20)
(14.9999 0.000848941 -2.5171e-20)
(14.9999 0.000851599 2.03281e-20)
(14.9999 0.000854043 2.27307e-20)
(14.9999 0.000856314 5.06877e-21)
(14.9999 0.000858528 4.18414e-21)
(15 0.000860361 -1.25532e-20)
(15 0.000862095 -1.14779e-20)
(15 0.000863416 -3.81657e-24)
(15 0.000864643 1.13489e-20)
(15 0.000865683 1.1411e-20)
(15 0.000866539 -3.42107e-24)
(15 0.000867297 -1.15468e-20)
(15 0.00086764 -2.3119e-20)
(15.0001 0.00086788 8.85854e-21)
(15.0001 0.000867732 9.85317e-21)
(15.0001 0.000867522 -1.34885e-20)
(15.0001 0.000867133 -2.14008e-23)
(15.0001 0.000866521 8.96731e-21)
(15.0001 0.000865632 2.3034e-20)
(15.0001 0.000864386 -2.6249e-20)
(15.0002 0.000863068 -1.1455e-20)
(15.0002 0.000861588 -2.16077e-23)
(15.0002 0.0008598 4.14307e-21)
(15.0002 0.000857732 2.60713e-21)
(15.0002 0.000855635 9.44589e-21)
(15.0002 0.00085332 -1.14584e-20)
(15.0002 0.000850601 5.36244e-21)
(15.0003 0.00084772 1.23723e-22)
(15.0003 0.000844582 -5.93084e-21)
(15.0003 0.000841428 2.89719e-20)
(15.0003 0.000837938 -8.93664e-23)
(15.0003 0.000834236 -2.25486e-20)
(15.0003 0.000830078 -1.84125e-20)
(15.0003 0.000826019 4.01286e-23)
(15.0003 0.000821596 2.65441e-20)
(15.0004 0.000816829 -7.97951e-21)
(15.0004 0.000812075 1.11797e-20)
(15.0004 0.000807042 1.70364e-20)
(15.0004 0.000801699 -1.9842e-20)
(15.0004 0.00079624 -2.21042e-20)
(15.0004 0.000790551 3.1517e-20)
(15.0004 0.000784594 2.16217e-20)
(15.0005 0.000778247 -9.76617e-21)
(15.0005 0.000771844 -1.21903e-22)
(15.0005 0.000765234 -2.12306e-22)
(15.0005 0.000758367 -1.07841e-20)
(15.0005 0.000751347 -3.23141e-20)
(15.0005 0.000743962 6.10195e-22)
(15.0005 0.000736587 3.34623e-20)
(15.0005 0.000728876 2.21077e-20)
(15.0006 0.000720805 -1.43071e-21)
(15.0006 0.000712744 -9.49995e-23)
(15.0006 0.000704349 2.12025e-21)
(15.0006 0.000695696 0)
(15.0006 0.000686898 2.60319e-21)
(15.0006 0.000677929 1.02079e-20)
(15.0006 0.000668456 9.7976e-21)
(15.0006 0.000659104 -1.97502e-20)
(15.0006 0.00064941 -3.58497e-21)
(15.0007 0.000639506 9.50932e-21)
(15.0007 0.00062931 4.32152e-21)
(15.0007 0.000619222 1.83862e-20)
(15.0007 0.00060875 -1.397e-20)
(15.0007 0.000597808 1.85235e-20)
(15.0007 0.000586984 -1.4414e-20)
(15.0007 0.000575785 2.36767e-20)
(15.0007 0.000564499 -2.37248e-20)
(15.0007 0.00055311 6.11501e-21)
(15.0007 0.000541406 1.42994e-20)
(15.0007 0.00052938 2.0943e-20)
(15.0008 0.00051744 8.2536e-21)
(15.0008 0.000504891 6.3401e-21)
(15.0008 0.000492476 8.26502e-21)
(15.0008 0.000479982 7.57769e-21)
(15.0008 0.000467164 -2.20682e-20)
(15.0008 0.000454361 -2.19183e-20)
(15.0008 0.000441163 7.52357e-21)
(15.0008 0.000427838 -7.20019e-21)
(15.0008 0.000414451 1.74933e-22)
(15.0008 0.000400841 -7.07014e-21)
(15.0008 0.000387062 -4.00852e-20)
(15.0008 0.000373265 2.93583e-22)
(15.0008 0.000359346 1.93811e-20)
(15.0008 0.000345115 1.30181e-20)
(15.0008 0.000330804 1.07533e-20)
(15.0008 0.000316612 -2.88814e-20)
(15.0008 0.000302091 1.14224e-20)
(15.0008 0.000287697 6.11143e-21)
(15.0008 0.000272937 1.05953e-20)
(15.0008 0.000258263 8.36146e-21)
(15.0008 0.000243491 -5.49621e-21)
(15.0008 0.000228615 -3.70695e-21)
(15.0008 0.000213493 -1.14118e-20)
(15.0008 0.000198584 -8.89061e-21)
(15.0008 0.000183471 -3.08572e-21)
(15.0008 0.000168253 -8.2746e-21)
(15.0008 0.000153246 1.95123e-21)
(15.0008 0.000138023 -1.78746e-21)
(15.0008 0.0001229 1.64831e-21)
(15.0008 0.000107584 -1.05207e-22)
(15.0007 9.24999e-05 -2.18387e-21)
(15.0007 7.85967e-05 1.54192e-21)
(15.0007 6.41679e-05 4.39543e-21)
(15.0006 4.71354e-05 -3.72865e-22)
(15.0005 2.74506e-05 -6.33036e-23)
(15.0004 1.12412e-05 -1.11538e-21)
(15.0003 7.00193e-06 5.98449e-22)
(15.0006 2.16142e-05 -1.01234e-22)
(15.0014 7.72024e-06 -8.82837e-23)
(14.9982 4.68575e-06 2.23915e-23)
(14.9991 2.82677e-05 2.95887e-23)
(14.9995 2.2353e-05 1.55325e-22)
(14.9996 1.68652e-05 -4.69343e-22)
(14.9994 2.55844e-05 -4.68813e-22)
(14.9993 4.5976e-05 1.98623e-21)
(14.9992 6.86687e-05 -5.24727e-22)
(14.9991 8.87242e-05 0)
(14.9991 0.000106701 -4.2755e-21)
(14.9991 0.000125224 6.87084e-21)
(14.9991 0.00014466 -6.27318e-21)
(14.999 0.000164421 1.42964e-21)
(14.999 0.000184298 1.54608e-21)
(14.999 0.000204289 -6.36579e-21)
(14.999 0.000224675 4.985e-21)
(14.999 0.000245193 2.47791e-21)
(14.9989 0.000265705 -1.26138e-20)
(14.9989 0.000286506 -1.33967e-20)
(14.9989 0.000307297 4.16778e-21)
(14.9989 0.000328209 4.52484e-21)
(14.9989 0.000349229 1.6233e-20)
(14.9989 0.000370336 3.82094e-21)
(14.9989 0.00039143 5.10712e-21)
(14.9989 0.000412648 -9.53179e-21)
(14.9989 0.000433679 4.50858e-21)
(14.9989 0.000454871 -2.02557e-20)
(14.9989 0.000476139 2.0909e-20)
(14.9989 0.000497176 4.99364e-21)
(14.9989 0.000518151 5.34164e-21)
(14.9989 0.000539251 -5.44428e-21)
(14.9989 0.000560171 -1.1632e-20)
(14.9989 0.000581089 1.76226e-20)
(14.9989 0.000601969 -2.98856e-20)
(14.9989 0.00062276 -1.85903e-20)
(14.9989 0.00064325 2.51288e-20)
(14.9989 0.000663817 2.45065e-20)
(14.9989 0.000684043 1.23571e-20)
(14.9989 0.000704192 -6.888e-21)
(14.9989 0.000724452 5.38751e-21)
(14.9989 0.000744261 -2.50483e-20)
(14.9989 0.000763989 3.25005e-20)
(14.999 0.000783611 7.58972e-21)
(14.999 0.000802884 1.25542e-20)
(14.999 0.000822158 1.25476e-20)
(14.999 0.000841219 0)
(14.999 0.000859863 -8.03212e-21)
(14.999 0.00087854 3.74573e-21)
(14.999 0.000896852 2.09188e-20)
(14.999 0.000914842 -1.70048e-20)
(14.999 0.000932744 -1.21921e-20)
(14.999 0.000950457 1.55397e-20)
(14.9991 0.000967946 -2.07909e-20)
(14.9991 0.000984906 -1.48536e-20)
(14.9991 0.00100195 3.24622e-20)
(14.9991 0.00101857 9.04854e-21)
(14.9991 0.00103502 1.15297e-20)
(14.9991 0.00105109 2.44829e-20)
(14.9991 0.00106693 1.76567e-21)
(14.9992 0.00108248 -1.89428e-20)
(14.9992 0.00109782 2.02285e-20)
(14.9992 0.00111282 2.99697e-20)
(14.9992 0.00112741 1.03782e-20)
(14.9992 0.00114189 9.768e-21)
(14.9992 0.00115607 6.99195e-23)
(14.9993 0.00116987 -2.95683e-20)
(14.9993 0.00118336 1.91324e-20)
(14.9993 0.00119662 1.00782e-20)
(14.9993 0.0012096 9.18124e-21)
(14.9993 0.00122223 -1.91997e-20)
(14.9993 0.00123448 -1.22439e-23)
(14.9994 0.00124646 1.94529e-21)
(14.9994 0.00125824 -1.03624e-20)
(14.9994 0.00126965 -1.31744e-20)
(14.9994 0.00128057 1.82433e-20)
(14.9994 0.00129128 1.80952e-20)
(14.9995 0.0013018 -7.17293e-21)
(14.9995 0.00131187 -6.91277e-21)
(14.9995 0.00132165 -2.40709e-20)
(14.9995 0.00133105 4.43286e-21)
(14.9995 0.00134015 -6.00254e-21)
(14.9996 0.00134875 -2.19737e-20)
(14.9996 0.0013572 2.7562e-20)
(14.9996 0.00136533 5.70113e-22)
(14.9996 0.00137315 -2.22425e-20)
(14.9997 0.00138039 -3.72169e-23)
(14.9997 0.00138738 2.73828e-23)
(14.9997 0.00139413 -1.53973e-20)
(14.9997 0.0014006 1.12738e-20)
(14.9997 0.00140658 1.91065e-20)
(14.9998 0.00141227 3.28154e-21)
(14.9998 0.00141765 2.93884e-21)
(14.9998 0.00142257 1.53485e-23)
(14.9998 0.00142718 -1.38429e-20)
(14.9999 0.0014314 -2.09554e-20)
(14.9999 0.00143534 -1.15613e-20)
(14.9999 0.00143904 3.46974e-20)
(14.9999 0.00144216 1.04698e-20)
(14.9999 0.00144498 -1.16181e-20)
(15 0.00144732 1.11302e-20)
(15 0.0014495 2.04595e-22)
(15 0.00145127 -1.1797e-20)
(15 0.00145262 4.29335e-22)
(15.0001 0.0014538 0)
(15.0001 0.00145451 1.05139e-21)
(15.0001 0.0014549 -1.03296e-20)
(15.0001 0.00145471 -1.67134e-21)
(15.0001 0.00145427 1.36873e-20)
(15.0002 0.00145353 -1.63122e-20)
(15.0002 0.00145239 -1.16665e-20)
(15.0002 0.00145091 7.61477e-25)
(15.0002 0.00144896 -9.92345e-24)
(15.0003 0.00144669 2.33267e-20)
(15.0003 0.0014441 1.15934e-20)
(15.0003 0.00144098 -1.1607e-20)
(15.0003 0.00143756 1.1622e-20)
(15.0004 0.00143388 1.63777e-20)
(15.0004 0.00142991 -2.31968e-20)
(15.0004 0.00142533 -1.76617e-20)
(15.0004 0.0014204 5.82812e-21)
(15.0005 0.00141511 2.9044e-20)
(15.0005 0.00140964 6.28295e-21)
(15.0005 0.00140362 -1.80798e-20)
(15.0005 0.00139726 0)
(15.0005 0.00139047 1.14426e-20)
(15.0006 0.00138334 1.88939e-20)
(15.0006 0.00137571 -1.13635e-20)
(15.0006 0.00136783 -1.12799e-20)
(15.0006 0.0013597 1.13056e-20)
(15.0007 0.00135101 -1.746e-20)
(15.0007 0.00134188 -1.11647e-20)
(15.0007 0.00133252 1.1185e-20)
(15.0007 0.00132281 2.06426e-20)
(15.0007 0.00131265 -3.07354e-20)
(15.0008 0.00130207 -8.84928e-22)
(15.0008 0.00129114 -9.72719e-21)
(15.0008 0.00127991 1.05437e-20)
(15.0008 0.00126829 -2.16997e-20)
(15.0008 0.00125622 1.08403e-20)
(15.0009 0.00124376 2.20965e-20)
(15.0009 0.00123113 1.16527e-20)
(15.0009 0.00121799 -9.44058e-21)
(15.0009 0.0012044 -1.03975e-20)
(15.001 0.00119053 3.32466e-20)
(15.001 0.00117628 -1.00558e-22)
(15.001 0.00116171 -1.02664e-20)
(15.001 0.00114665 0)
(15.001 0.00113132 2.63286e-20)
(15.001 0.00111546 -2.67282e-20)
(15.0011 0.00109961 0)
(15.0011 0.00108309 1.37169e-20)
(15.0011 0.00106624 -1.38828e-20)
(15.0011 0.0010491 9.75206e-21)
(15.0011 0.00103177 4.40598e-21)
(15.0011 0.00101399 1.92807e-20)
(15.0012 0.000995705 -1.32351e-22)
(15.0012 0.000977369 -2.88671e-20)
(15.0012 0.000958456 9.0434e-21)
(15.0012 0.000939201 -3.49362e-20)
(15.0012 0.000919848 2.3498e-20)
(15.0012 0.000899986 -1.47348e-20)
(15.0013 0.000879896 -8.58686e-21)
(15.0013 0.000859603 -1.46186e-20)
(15.0013 0.000838663 6.28547e-21)
(15.0013 0.000817742 2.32135e-20)
(15.0013 0.00079661 -7.13524e-21)
(15.0013 0.000774949 -3.77189e-20)
(15.0013 0.000753253 -2.88243e-20)
(15.0013 0.000731065 2.16777e-20)
(15.0013 0.000708632 -2.84423e-20)
(15.0014 0.000686013 0)
(15.0014 0.000663247 -2.06757e-20)
(15.0014 0.00064011 -6.78352e-21)
(15.0014 0.000616974 2.57949e-20)
(15.0014 0.000593599 -1.29994e-20)
(15.0014 0.000569771 1.94719e-20)
(15.0014 0.000545863 -2.35144e-20)
(15.0014 0.000521976 1.20591e-20)
(15.0014 0.000497669 1.64351e-20)
(15.0014 0.000473322 1.5901e-20)
(15.0014 0.000448756 1.49919e-20)
(15.0014 0.000424085 1.34029e-21)
(15.0014 0.000399333 2.64979e-22)
(15.0014 0.000374509 -5.45202e-21)
(15.0014 0.000349428 4.94252e-21)
(15.0014 0.000324466 0)
(15.0014 0.000299236 -9.8343e-21)
(15.0014 0.000273899 1.27116e-20)
(15.0013 0.000248794 -5.75563e-21)
(15.0013 0.000223537 -2.83361e-21)
(15.0013 0.000198103 1.44237e-21)
(15.0013 0.000172783 -9.9946e-21)
(15.0012 0.000148438 1.274e-21)
(15.0012 0.000124476 3.18965e-21)
(15.0011 9.70528e-05 5.11358e-22)
(15.001 6.5272e-05 6.44627e-23)
(15.0008 3.63738e-05 -6.89592e-22)
(15.0006 2.4254e-05 2.80987e-22)
(15.0007 3.29936e-05 -3.91706e-23)
(15.0013 4.16945e-05 -4.06954e-22)
(15.0027 7.15026e-06 2.22505e-23)
(14.9975 5.72227e-06 -1.82813e-23)
(14.9985 3.48748e-05 1.26756e-22)
(14.9991 4.39004e-05 0)
(14.9993 3.49583e-05 0)
(14.9992 3.38513e-05 -2.4387e-22)
(14.999 5.28601e-05 -3.91015e-22)
(14.9989 8.36885e-05 -8.74774e-22)
(14.9988 0.000114563 -4.44e-22)
(14.9988 0.000141609 -1.45881e-21)
(14.9987 0.000167473 2.37949e-21)
(14.9987 0.000194163 -1.71432e-21)
(14.9986 0.000221713 -1.53354e-21)
(14.9986 0.000249557 -2.46452e-21)
(14.9986 0.000277678 1.53832e-23)
(14.9986 0.000306157 -1.04109e-20)
(14.9985 0.000334827 8.00131e-21)
(14.9985 0.000363631 2.60298e-21)
(14.9985 0.00039271 4.0214e-21)
(14.9985 0.000421936 -1.03707e-20)
(14.9985 0.000451292 4.52852e-21)
(14.9985 0.000480703 -1.65327e-20)
(14.9985 0.000510313 1.42655e-22)
(14.9985 0.000539988 3.813e-21)
(14.9984 0.000569844 -5.04029e-21)
(14.9984 0.000599485 9.66786e-21)
(14.9984 0.000629255 1.40596e-22)
(14.9984 0.000659096 -2.02798e-20)
(14.9984 0.000688787 -1.09058e-20)
(14.9984 0.00071832 5.41131e-21)
(14.9984 0.000748076 2.10595e-23)
(14.9984 0.00077765 0)
(14.9984 0.000807108 1.17618e-20)
(14.9984 0.000836494 1.79601e-20)
(14.9985 0.000865789 -1.20296e-20)
(14.9985 0.000894838 -1.29265e-20)
(14.9985 0.000923816 -1.24731e-20)
(14.9985 0.000952523 -1.23279e-20)
(14.9985 0.000981108 -1.26823e-20)
(14.9985 0.00100963 1.63054e-21)
(14.9985 0.00103766 -2.52413e-20)
(14.9985 0.00106559 -2.02309e-20)
(14.9985 0.00109328 5.19928e-21)
(14.9985 0.00112062 4.94413e-21)
(14.9985 0.00114793 7.8258e-21)
(14.9986 0.00117496 1.28035e-20)
(14.9986 0.00120143 -1.08674e-22)
(14.9986 0.00122785 8.31092e-21)
(14.9986 0.00125383 2.50882e-20)
(14.9986 0.00127951 1.24467e-20)
(14.9986 0.00130488 -8.58209e-21)
(14.9987 0.00133001 1.21578e-20)
(14.9987 0.00135473 -6.60427e-21)
(14.9987 0.00137907 -8.84573e-21)
(14.9987 0.00140319 -9.22581e-21)
(14.9987 0.00142681 9.23659e-21)
(14.9988 0.00145018 1.40219e-20)
(14.9988 0.00147296 -9.41056e-21)
(14.9988 0.00149554 2.07359e-20)
(14.9988 0.00151773 -1.53057e-21)
(14.9988 0.00153951 -3.15319e-20)
(14.9989 0.00156088 -9.77844e-21)
(14.9989 0.00158177 9.80868e-21)
(14.9989 0.00160235 9.96876e-21)
(14.9989 0.00162247 3.00922e-20)
(14.999 0.00164217 -9.91196e-21)
(14.999 0.00166149 -2.04711e-20)
(14.999 0.00168031 7.39143e-22)
(14.999 0.00169872 9.31472e-21)
(14.9991 0.00171679 -1.03461e-20)
(14.9991 0.00173437 8.78429e-21)
(14.9991 0.0017515 2.10497e-20)
(14.9991 0.00176815 1.67741e-20)
(14.9992 0.00178443 -2.94078e-20)
(14.9992 0.0018001 -1.85963e-20)
(14.9992 0.00181533 1.07571e-20)
(14.9992 0.00183032 3.53547e-21)
(14.9993 0.00184475 1.08653e-20)
(14.9993 0.00185861 4.17016e-21)
(14.9993 0.001872 -1.30644e-20)
(14.9994 0.00188501 1.47012e-21)
(14.9994 0.00189744 -2.30968e-20)
(14.9994 0.00190947 1.6579e-20)
(14.9994 0.00192102 -5.6913e-21)
(14.9995 0.00193214 -3.37977e-20)
(14.9995 0.00194258 6.45611e-21)
(14.9995 0.00195263 2.27001e-20)
(14.9996 0.00196222 2.25553e-23)
(14.9996 0.00197139 7.43442e-21)
(14.9996 0.00197998 -1.14086e-20)
(14.9997 0.00198812 -3.1209e-20)
(14.9997 0.00199568 3.04708e-21)
(14.9997 0.0020028 2.42222e-24)
(14.9998 0.0020095 1.16169e-20)
(14.9998 0.00201558 1.16634e-20)
(14.9998 0.00202116 6.25232e-21)
(14.9999 0.00202631 8.73255e-21)
(14.9999 0.00203078 -1.05626e-20)
(14.9999 0.0020348 -1.1783e-20)
(14.9999 0.00203822 -1.17998e-20)
(15 0.00204138 -1.16006e-20)
(15 0.00204389 3.54255e-20)
(15 0.00204576 1.18384e-20)
(15.0001 0.00204737 -1.25741e-20)
(15.0001 0.00204837 -1.18527e-20)
(15.0001 0.00204891 -1.32034e-20)
(15.0002 0.00204876 1.35404e-20)
(15.0002 0.00204816 -2.7742e-20)
(15.0002 0.00204703 -1.18199e-20)
(15.0003 0.00204527 3.81544e-20)
(15.0003 0.00204306 2.36214e-20)
(15.0003 0.00204039 -2.03351e-20)
(15.0004 0.0020371 -4.51176e-21)
(15.0004 0.00203333 -3.36102e-23)
(15.0004 0.00202894 2.7535e-23)
(15.0005 0.0020241 2.35293e-20)
(15.0005 0.00201874 -4.92468e-21)
(15.0005 0.00201295 -1.69118e-20)
(15.0006 0.00200644 -6.1983e-21)
(15.0006 0.00199944 1.75968e-20)
(15.0006 0.0019919 2.32989e-20)
(15.0007 0.00198391 0)
(15.0007 0.00197528 -1.16257e-20)
(15.0007 0.00196621 -4.48554e-21)
(15.0008 0.0019566 0)
(15.0008 0.00194633 -7.68245e-21)
(15.0008 0.00193544 -7.98411e-21)
(15.0009 0.00192424 -8.27368e-21)
(15.0009 0.00191251 -1.14441e-20)
(15.0009 0.00190008 -8.80002e-21)
(15.001 0.0018872 1.1303e-20)
(15.001 0.00187376 -1.13367e-20)
(15.001 0.00185976 5.26852e-23)
(15.001 0.00184519 1.2379e-20)
(15.0011 0.00183018 1.02048e-20)
(15.0011 0.00181465 8.6295e-23)
(15.0011 0.00179851 -2.16971e-20)
(15.0012 0.00178189 -1.09316e-20)
(15.0012 0.00176474 0)
(15.0012 0.001747 -1.28862e-23)
(15.0013 0.00172884 -9.97796e-22)
(15.0013 0.00171008 -2.42462e-20)
(15.0013 0.00169077 3.54295e-20)
(15.0013 0.00167092 1.23357e-20)
(15.0014 0.00165056 -4.64452e-20)
(15.0014 0.00162987 0)
(15.0014 0.00160844 1.04136e-20)
(15.0014 0.00158662 2.94503e-21)
(15.0015 0.00156414 3.54311e-21)
(15.0015 0.0015413 1.00115e-20)
(15.0015 0.00151792 -1.39138e-20)
(15.0015 0.00149398 0)
(15.0016 0.00146963 9.8455e-21)
(15.0016 0.00144483 -4.75397e-21)
(15.0016 0.00141955 4.89421e-21)
(15.0016 0.00139364 -3.34882e-20)
(15.0017 0.00136755 1.48355e-20)
(15.0017 0.00134067 -1.45945e-22)
(15.0017 0.00131332 -1.47136e-20)
(15.0017 0.0012858 8.82636e-21)
(15.0017 0.00125773 -8.88172e-21)
(15.0018 0.00122922 -8.59508e-21)
(15.0018 0.00120044 3.20787e-20)
(15.0018 0.00117092 8.08521e-21)
(15.0018 0.00114116 6.83736e-21)
(15.0018 0.00111108 -2.29435e-20)
(15.0019 0.0010805 -3.03738e-20)
(15.0019 0.00104965 2.2453e-20)
(15.0019 0.00101832 -7.33635e-21)
(15.0019 0.000986685 1.4826e-22)
(15.0019 0.00095476 6.93663e-21)
(15.0019 0.000922488 0)
(15.0019 0.000889775 2.74046e-20)
(15.0019 0.000857117 -1.34246e-20)
(15.0019 0.00082403 -1.31186e-20)
(15.0019 0.00079052 -2.55188e-20)
(15.002 0.000756848 -6.65755e-21)
(15.002 0.00072308 1.73099e-20)
(15.002 0.000688772 -1.15087e-20)
(15.002 0.000654412 -4.87786e-21)
(15.002 0.000619844 -1.04131e-20)
(15.002 0.000585226 -1.59218e-20)
(15.002 0.000550363 1.49352e-20)
(15.0019 0.000515334 1.46389e-22)
(15.0019 0.000480148 -1.48466e-22)
(15.0019 0.000444953 7.79519e-21)
(15.0019 0.000409562 9.70818e-21)
(15.0019 0.000374013 3.78434e-21)
(15.0019 0.000338519 1.23406e-21)
(15.0018 0.00030295 -4.81947e-21)
(15.0018 0.000267312 -4.4698e-21)
(15.0018 0.00023242 1.07854e-22)
(15.0017 0.000198202 4.14291e-21)
(15.0017 0.00016165 -4.94317e-21)
(15.0016 0.000118841 1.9457e-21)
(15.0014 7.53964e-05 7.30211e-24)
(15.0011 4.86946e-05 0)
(15.001 5.11629e-05 -2.96655e-22)
(15.0012 6.50454e-05 -3.59847e-22)
(15.0022 5.16625e-05 5.71784e-23)
(15.0038 8.7748e-06 3.08756e-23)
(14.9969 6.05389e-06 -3.47303e-23)
(14.9979 3.73076e-05 -1.75872e-22)
(14.9986 6.37749e-05 0)
(14.999 6.13255e-05 4.88662e-22)
(14.999 5.07711e-05 2.56191e-22)
(14.9988 6.0266e-05 -6.63821e-22)
(14.9986 9.247e-05 -1.40569e-21)
(14.9985 0.000133047 -6.23278e-22)
(14.9984 0.000170777 5.54593e-22)
(14.9984 0.00020515 -2.74907e-21)
(14.9983 0.000239163 4.40048e-21)
(14.9983 0.000274193 -2.30931e-21)
(14.9982 0.000309893 5.83199e-21)
(14.9982 0.000346077 -1.75569e-23)
(14.9981 0.000382589 3.19212e-21)
(14.9981 0.000419472 -2.39086e-21)
(14.9981 0.000456562 1.26042e-20)
(14.9981 0.000493849 9.55782e-21)
(14.9981 0.000531403 -2.86892e-21)
(14.998 0.000569312 -2.53731e-22)
(14.998 0.000607295 -4.53295e-21)
(14.998 0.000645381 -3.85284e-21)
(14.998 0.000683701 -9.1312e-21)
(14.998 0.000722145 -4.15016e-21)
(14.998 0.000760446 -1.00033e-20)
(14.998 0.000798846 1.96239e-20)
(14.998 0.000837412 -5.59967e-21)
(14.998 0.000875857 -1.09012e-20)
(14.998 0.000914107 -1.11592e-20)
(14.998 0.000952667 -1.68962e-20)
(14.998 0.000990932 -5.82095e-21)
(14.998 0.0010291 0)
(14.998 0.00106719 -1.81064e-20)
(14.998 0.00110513 -1.23022e-20)
(14.998 0.00114288 6.46687e-22)
(14.998 0.00118051 -5.78531e-21)
(14.998 0.00121781 -1.2623e-20)
(14.998 0.00125495 -1.96423e-20)
(14.998 0.00129186 -1.28839e-20)
(14.9981 0.00132835 2.5733e-20)
(14.9981 0.00136467 -2.13225e-21)
(14.9981 0.0014008 -2.05666e-20)
(14.9981 0.00143641 -5.15824e-21)
(14.9981 0.00147189 1.1718e-22)
(14.9981 0.00150709 -1.05523e-22)
(14.9982 0.00154156 -1.27072e-20)
(14.9982 0.00157587 1.2648e-20)
(14.9982 0.00160986 -1.25874e-20)
(14.9982 0.00164328 1.25347e-20)
(14.9982 0.0016764 1.20161e-22)
(14.9983 0.00170919 8.66154e-21)
(14.9983 0.00174137 1.25604e-20)
(14.9983 0.00177322 3.02925e-21)
(14.9983 0.00180467 -2.90307e-21)
(14.9984 0.00183552 2.75789e-21)
(14.9984 0.001866 1.17327e-20)
(14.9984 0.00189588 -1.15823e-20)
(14.9984 0.00192531 -1.16076e-20)
(14.9985 0.00195429 2.10392e-20)
(14.9985 0.00198275 0)
(14.9985 0.0020107 -1.09835e-20)
(14.9985 0.00203818 -2.15753e-20)
(14.9986 0.00206506 1.05834e-20)
(14.9986 0.00209131 -1.03796e-20)
(14.9986 0.00211715 2.03587e-20)
(14.9987 0.00214248 1.02254e-20)
(14.9987 0.00216712 9.80321e-21)
(14.9987 0.00219119 -9.6179e-22)
(14.9988 0.0022148 -1.04552e-20)
(14.9988 0.00223791 -1.81203e-20)
(14.9988 0.00226039 8.85496e-21)
(14.9989 0.00228207 8.48271e-21)
(14.9989 0.00230334 2.52137e-21)
(14.9989 0.00232403 -8.03334e-21)
(14.999 0.00234405 -4.66733e-21)
(14.999 0.00236356 -7.45465e-21)
(14.9991 0.00238244 -7.2918e-21)
(14.9991 0.00240065 1.80573e-20)
(14.9991 0.00241824 -2.22282e-20)
(14.9992 0.00243531 -8.51267e-23)
(14.9992 0.00245173 1.13188e-20)