/*--------------------------------*- C++ -*----------------------------------*\
  =========                 |
  \\      /  F ield         | OpenFOAM: The Open Source CFD Toolbox
   \\    /   O peration     | Website:  https://openfoam.org
    \\  /    A nd           | Version:  8
     \\/     M anipulation  |
\*---------------------------------------------------------------------------*/
FoamFile
{
    version     2.0;
    format      ascii;
    class       volScalarField;
    location    "44";
    object      nuTilda;
}
// * * * * * * * * * * * * * * * * * * * * * * * * * * * * * * * * * * * * * //

dimensions      [0 2 -1 0 0 0 0];

internalField   nonuniform List<scalar> 
277560
(
0.14403
0.144061
0.144129
0.144223
0.144347
0.144502
0.144685
0.144895
0.145129
0.145383
0.145654
0.145937
0.146229
0.146526
0.146822
0.147116
0.147401
0.147677
0.147938
0.148183
0.148409
0.148615
0.148799
0.14896
0.149098
0.149213
0.149305
0.149374
0.14942
0.149444
0.149448
0.149431
0.149394
0.149339
0.149266
0.149178
0.149074
0.148958
0.148828
0.148688
0.148539
0.14838
0.148215
0.148043
0.147867
0.147687
0.147504
0.147319
0.147133
0.146948
0.146763
0.146579
0.146396
0.146216
0.146039
0.145864
0.145693
0.145524
0.145359
0.145198
0.14504
0.144885
0.144733
0.144585
0.14444
0.144299
0.14416
0.144025
0.143892
0.143762
0.143635
0.143511
0.143389
0.14327
0.143154
0.14304
0.142929
0.142821
0.142715
0.142612
0.142511
0.142414
0.142318
0.142226
0.142136
0.142049
0.141964
0.141882
0.141803
0.141726
0.141651
0.141579
0.141509
0.141442
0.141377
0.141314
0.141253
0.141195
0.141139
0.141085
0.141033
0.140983
0.140935
0.140889
0.140844
0.140802
0.140761
0.140721
0.140684
0.140648
0.140614
0.140582
0.140551
0.140523
0.140495
0.14047
0.140446
0.140424
0.140403
0.140383
0.143927
0.143925
0.14397
0.144039
0.144139
0.14427
0.144431
0.144622
0.14484
0.145082
0.145343
0.145621
0.145911
0.146208
0.14651
0.146812
0.147109
0.147399
0.147677
0.14794
0.148186
0.148412
0.148616
0.148798
0.148956
0.14909
0.1492
0.149286
0.149349
0.149388
0.149406
0.149402
0.149377
0.149333
0.149271
0.149192
0.149097
0.148988
0.148865
0.148731
0.148587
0.148434
0.148272
0.148105
0.147931
0.147754
0.147574
0.147391
0.147207
0.147023
0.146839
0.146656
0.146474
0.146294
0.146117
0.145942
0.145771
0.145602
0.145437
0.145274
0.145115
0.14496
0.144807
0.144658
0.144512
0.144369
0.144229
0.144091
0.143957
0.143825
0.143696
0.14357
0.143446
0.143325
0.143206
0.14309
0.142976
0.142866
0.142757
0.142652
0.14255
0.14245
0.142354
0.14226
0.14217
0.142082
0.141997
0.141916
0.141837
0.141761
0.141688
0.141617
0.141548
0.141482
0.141418
0.141357
0.141298
0.141242
0.141188
0.141137
0.141088
0.141041
0.140996
0.140952
0.14091
0.140869
0.140829
0.140791
0.140754
0.140719
0.140685
0.140653
0.140622
0.140593
0.140565
0.140538
0.140514
0.140491
0.140469
0.140449
0.143701
0.143645
0.143652
0.14368
0.143739
0.143829
0.143952
0.144108
0.144293
0.144507
0.144744
0.145003
0.145278
0.145567
0.145864
0.146166
0.14647
0.146769
0.147061
0.147342
0.147608
0.147855
0.148083
0.148287
0.148468
0.148625
0.148756
0.148862
0.148943
0.149
0.149034
0.149045
0.149034
0.149003
0.148953
0.148885
0.148801
0.148702
0.148589
0.148464
0.148328
0.148183
0.148029
0.147869
0.147704
0.147534
0.14736
0.147185
0.147008
0.14683
0.146652
0.146475
0.146299
0.146125
0.145954
0.145784
0.145617
0.145453
0.145292
0.145133
0.144978
0.144825
0.144676
0.144529
0.144385
0.144244
0.144106
0.14397
0.143837
0.143706
0.143577
0.143451
0.143327
0.143205
0.143086
0.142969
0.142855
0.142744
0.142635
0.142529
0.142427
0.142328
0.142233
0.142141
0.142054
0.14197
0.14189
0.141814
0.141741
0.141673
0.141606
0.141542
0.141481
0.141422
0.141364
0.141309
0.141257
0.141207
0.14116
0.141121
0.141087
0.141054
0.141021
0.140989
0.140957
0.140926
0.140895
0.140865
0.140835
0.140806
0.140777
0.140748
0.14072
0.140692
0.140664
0.140637
0.140611
0.140584
0.140559
0.140533
0.143475
0.143359
0.143322
0.143303
0.143313
0.143355
0.143431
0.143541
0.143685
0.14386
0.144063
0.144291
0.14454
0.144807
0.145088
0.145379
0.145677
0.145976
0.146273
0.146564
0.146843
0.147108
0.147355
0.147581
0.147783
0.147961
0.148113
0.148239
0.14834
0.148415
0.148465
0.148492
0.148497
0.14848
0.148443
0.148388
0.148316
0.148228
0.148127
0.148014
0.147889
0.147756
0.147614
0.147465
0.147311
0.147153
0.146991
0.146827
0.146661
0.146495
0.146328
0.146162
0.145998
0.145834
0.145672
0.145513
0.145356
0.145201
0.145048
0.144898
0.144751
0.144606
0.144464
0.144324
0.144187
0.144052
0.143919
0.143788
0.143659
0.143533
0.143408
0.143286
0.143165
0.143047
0.14293
0.142816
0.142704
0.142595
0.142488
0.142386
0.142287
0.142193
0.142105
0.142021
0.141941
0.141866
0.141796
0.141737
0.141686
0.141639
0.141593
0.14155
0.141508
0.141468
0.141431
0.141394
0.14136
0.141328
0.141297
0.141268
0.14124
0.141213
0.141187
0.14116
0.141134
0.141108
0.141081
0.141054
0.141027
0.141
0.140972
0.140943
0.140914
0.140885
0.140855
0.140825
0.140794
0.140762
0.14073
0.140698
0.143318
0.143147
0.143066
0.143002
0.142965
0.142957
0.142984
0.143047
0.143146
0.143279
0.143442
0.143634
0.143849
0.144086
0.144341
0.144611
0.144893
0.145181
0.145473
0.145763
0.146046
0.14632
0.146579
0.14682
0.147039
0.147235
0.147405
0.147549
0.147667
0.147759
0.147825
0.147866
0.147885
0.147882
0.147858
0.147816
0.147757
0.147682
0.147594
0.147493
0.147382
0.147262
0.147134
0.147
0.14686
0.146716
0.146569
0.14642
0.146269
0.146118
0.145966
0.145815
0.145664
0.145515
0.145368
0.145222
0.145078
0.144936
0.144797
0.144659
0.144524
0.14439
0.144259
0.14413
0.144003
0.143878
0.143754
0.143633
0.143513
0.143394
0.143278
0.143162
0.143049
0.142937
0.142826
0.142717
0.14261
0.142506
0.142404
0.142306
0.142214
0.14213
0.14206
0.141998
0.14194
0.141886
0.141837
0.141791
0.141749
0.14171
0.141674
0.141639
0.141606
0.141575
0.141546
0.141517
0.14149
0.141464
0.141438
0.141413
0.141389
0.141364
0.14134
0.141315
0.14129
0.141264
0.141238
0.141212
0.141184
0.141156
0.141128
0.141098
0.141068
0.141037
0.141005
0.140973
0.14094
0.140907
0.140873
0.140839
0.143256
0.143054
0.142917
0.142813
0.142732
0.142677
0.142658
0.142676
0.142731
0.142822
0.142947
0.143101
0.143281
0.143485
0.14371
0.143953
0.144211
0.14448
0.144758
0.145038
0.145318
0.145592
0.145856
0.146105
0.146336
0.146545
0.14673
0.146889
0.147022
0.147128
0.147208
0.147263
0.147294
0.147303
0.147292
0.147261
0.147214
0.147152
0.147076
0.146988
0.146891
0.146785
0.146671
0.146552
0.146428
0.1463
0.14617
0.146037
0.145903
0.145768
0.145634
0.145499
0.145366
0.145233
0.145102
0.144973
0.144845
0.144719
0.144594
0.144472
0.144351
0.144232
0.144115
0.144
0.143886
0.143773
0.143663
0.143553
0.143445
0.143338
0.143232
0.143127
0.143024
0.142921
0.142819
0.142719
0.142619
0.142521
0.142424
0.142334
0.142256
0.14219
0.14213
0.142075
0.142023
0.141976
0.141931
0.141889
0.14185
0.141813
0.141778
0.141745
0.141714
0.141683
0.141655
0.141627
0.1416
0.141573
0.141548
0.141522
0.141498
0.141473
0.141448
0.141423
0.141398
0.141372
0.141346
0.14132
0.141293
0.141266
0.141238
0.141209
0.14118
0.141151
0.141121
0.141091
0.14106
0.14103
0.140999
0.140969
0.143269
0.143051
0.14289
0.142748
0.142618
0.142518
0.142456
0.14243
0.142445
0.142498
0.142586
0.142705
0.142852
0.143024
0.143218
0.143433
0.143665
0.143912
0.14417
0.144436
0.144706
0.144975
0.145238
0.145491
0.145729
0.145948
0.146144
0.146316
0.146462
0.146582
0.146674
0.146741
0.146784
0.146804
0.146803
0.146783
0.146746
0.146694
0.14663
0.146554
0.146469
0.146376
0.146277
0.146172
0.146064
0.145952
0.145837
0.145722
0.145605
0.145488
0.14537
0.145254
0.145138
0.145023
0.144909
0.144797
0.144686
0.144577
0.144469
0.144363
0.144259
0.144156
0.144054
0.143954
0.143855
0.143758
0.143661
0.143565
0.143471
0.143377
0.143284
0.143192
0.143101
0.14301
0.14292
0.14283
0.142741
0.142653
0.142566
0.142481
0.142402
0.142333
0.142274
0.142219
0.142166
0.142116
0.14207
0.142025
0.141983
0.141943
0.141905
0.141868
0.141833
0.141799
0.141766
0.141735
0.141705
0.141676
0.141648
0.14162
0.141594
0.141568
0.141542
0.141517
0.141493
0.141469
0.141445
0.14142
0.141397
0.141373
0.141348
0.141324
0.1413
0.141275
0.14125
0.141226
0.1412
0.141175
0.14115
0.141124
0.143339
0.143111
0.142933
0.142772
0.142619
0.142482
0.142369
0.142296
0.142272
0.142289
0.142344
0.142432
0.142549
0.142691
0.142857
0.143044
0.14325
0.143474
0.143712
0.143961
0.144218
0.144478
0.144738
0.144991
0.145233
0.14546
0.145668
0.145852
0.146011
0.146144
0.146249
0.146328
0.146382
0.146412
0.14642
0.14641
0.146382
0.146339
0.146284
0.146219
0.146144
0.146063
0.145976
0.145884
0.14579
0.145692
0.145593
0.145493
0.145392
0.145292
0.145191
0.145092
0.144993
0.144895
0.144799
0.144704
0.14461
0.144518
0.144427
0.144338
0.14425
0.144163
0.144077
0.143993
0.14391
0.143827
0.143745
0.143664
0.143584
0.143504
0.143425
0.143346
0.143267
0.143189
0.14311
0.143033
0.142955
0.142879
0.142802
0.142728
0.142654
0.142583
0.142512
0.142443
0.142378
0.142319
0.142267
0.142218
0.14217
0.142123
0.142077
0.142033
0.14199
0.14195
0.141911
0.141873
0.141838
0.141803
0.141771
0.14174
0.14171
0.141682
0.141655
0.141629
0.141604
0.141581
0.141559
0.141537
0.141516
0.141496
0.141476
0.141457
0.141438
0.141419
0.141399
0.14138
0.14136
0.141341
0.14132
0.141299
0.143449
0.143214
0.143027
0.142854
0.142686
0.142529
0.142388
0.142271
0.142198
0.142177
0.1422
0.142259
0.142348
0.142464
0.142604
0.142766
0.142949
0.14315
0.143368
0.1436
0.143843
0.144093
0.144346
0.144598
0.144844
0.145078
0.145295
0.145493
0.145666
0.145814
0.145934
0.146026
0.146093
0.146134
0.146152
0.14615
0.14613
0.146095
0.146048
0.14599
0.145924
0.145852
0.145775
0.145694
0.14561
0.145525
0.145439
0.145353
0.145266
0.14518
0.145095
0.145011
0.144928
0.144846
0.144766
0.144687
0.144609
0.144533
0.144459
0.144385
0.144313
0.144242
0.144171
0.144102
0.144034
0.143966
0.143898
0.143831
0.143764
0.143698
0.143631
0.143565
0.143498
0.143432
0.143365
0.143298
0.143231
0.143164
0.143097
0.143029
0.142962
0.142896
0.142829
0.142763
0.142698
0.142634
0.142571
0.142509
0.142447
0.142384
0.142321
0.142262
0.142208
0.142159
0.142112
0.142067
0.142023
0.141981
0.14194
0.141902
0.141865
0.141831
0.141799
0.14177
0.141742
0.141716
0.141692
0.14167
0.141649
0.14163
0.141612
0.141595
0.141579
0.141564
0.141549
0.141535
0.14152
0.141506
0.141491
0.141477
0.143591
0.143351
0.143158
0.142977
0.1428
0.142631
0.142473
0.142331
0.142216
0.142148
0.142134
0.142165
0.142229
0.142321
0.142438
0.142577
0.142738
0.142918
0.143117
0.143331
0.14356
0.143799
0.144045
0.144295
0.144542
0.144782
0.145011
0.145222
0.145411
0.145576
0.145714
0.145823
0.145904
0.145959
0.145989
0.145996
0.145984
0.145956
0.145915
0.145864
0.145804
0.145738
0.145668
0.145595
0.14552
0.145445
0.145369
0.145293
0.145218
0.145145
0.145072
0.145001
0.144932
0.144864
0.144798
0.144733
0.14467
0.144608
0.144548
0.144489
0.144431
0.144374
0.144318
0.144263
0.144208
0.144153
0.144099
0.144045
0.143991
0.143936
0.143882
0.143827
0.143771
0.143715
0.143658
0.143601
0.143542
0.143483
0.143424
0.143363
0.143302
0.14324
0.143178
0.143115
0.143051
0.142988
0.142923
0.142859
0.142794
0.142729
0.142664
0.142599
0.142536
0.142474
0.142412
0.142352
0.142292
0.142233
0.142175
0.142121
0.142073
0.14203
0.14199
0.141952
0.141918
0.141885
0.141855
0.141828
0.141803
0.14178
0.14176
0.141743
0.141727
0.141713
0.1417
0.141689
0.141679
0.14167
0.141661
0.141653
0.143756
0.143514
0.143316
0.143131
0.142948
0.142771
0.142602
0.142446
0.142307
0.142198
0.142139
0.142135
0.142174
0.142243
0.142338
0.142457
0.142597
0.142758
0.142939
0.143137
0.143351
0.143578
0.143816
0.144061
0.144309
0.144554
0.144792
0.145017
0.145224
0.145408
0.145566
0.145696
0.145797
0.145869
0.145913
0.145933
0.145931
0.145911
0.145875
0.145828
0.145773
0.145711
0.145645
0.145577
0.145508
0.145438
0.14537
0.145302
0.145236
0.145171
0.145109
0.145048
0.14499
0.144934
0.144879
0.144827
0.144776
0.144727
0.144679
0.144632
0.144587
0.144543
0.144499
0.144456
0.144413
0.144371
0.144328
0.144285
0.144242
0.144199
0.144155
0.14411
0.144064
0.144017
0.143969
0.14392
0.14387
0.143818
0.143765
0.14371
0.143655
0.143597
0.143539
0.143479
0.143417
0.143355
0.143291
0.143226
0.143161
0.143094
0.143027
0.14296
0.142892
0.142825
0.142758
0.142692
0.142626
0.142561
0.142498
0.142437
0.142377
0.14232
0.142266
0.142214
0.142164
0.142116
0.14207
0.142028
0.141992
0.141962
0.141937
0.141915
0.141897
0.141881
0.141868
0.141858
0.14185
0.141844
0.141839
0.141836
0.14394
0.143696
0.143496
0.143308
0.143121
0.142939
0.142764
0.142597
0.142443
0.142309
0.142209
0.142163
0.142171
0.142217
0.142291
0.14239
0.142512
0.142655
0.142818
0.142999
0.143199
0.143414
0.143642
0.143881
0.144127
0.144375
0.144621
0.144858
0.145082
0.145287
0.145468
0.145622
0.145746
0.14584
0.145904
0.14594
0.145951
0.14594
0.145912
0.14587
0.145817
0.145758
0.145694
0.145628
0.145561
0.145495
0.14543
0.145366
0.145306
0.145247
0.145192
0.145139
0.145088
0.145041
0.144995
0.144952
0.144911
0.144872
0.144835
0.144799
0.144764
0.14473
0.144697
0.144665
0.144632
0.1446
0.144568
0.144535
0.144502
0.144468
0.144434
0.144398
0.14436
0.144322
0.144282
0.14424
0.144197
0.144152
0.144105
0.144056
0.144005
0.143952
0.143897
0.14384
0.143782
0.143721
0.143658
0.143594
0.143529
0.143462
0.143394
0.143325
0.143255
0.143185
0.143114
0.143044
0.142974
0.142904
0.142836
0.142768
0.142703
0.142639
0.142577
0.142517
0.14246
0.142405
0.142353
0.142304
0.142259
0.142218
0.142179
0.142145
0.142114
0.142086
0.142065
0.142051
0.142041
0.142035
0.142031
0.142029
0.144142
0.143896
0.143694
0.143503
0.143314
0.143129
0.142949
0.142776
0.142613
0.142463
0.142335
0.142248
0.142214
0.142233
0.142287
0.142367
0.142471
0.142596
0.142742
0.142908
0.143092
0.143294
0.143511
0.143742
0.143984
0.144232
0.144482
0.14473
0.144969
0.145193
0.145398
0.145578
0.145729
0.145849
0.145937
0.145994
0.146022
0.146025
0.146007
0.145971
0.145922
0.145865
0.145801
0.145735
0.145668
0.145602
0.145537
0.145475
0.145416
0.14536
0.145308
0.14526
0.145214
0.145172
0.145133
0.145097
0.145063
0.145032
0.145002
0.144975
0.144948
0.144923
0.144899
0.144875
0.144852
0.144829
0.144805
0.144781
0.144756
0.144731
0.144704
0.144676
0.144647
0.144616
0.144583
0.144548
0.144511
0.144472
0.144431
0.144388
0.144342
0.144293
0.144242
0.144189
0.144133
0.144075
0.144014
0.143951
0.143887
0.14382
0.143752
0.143682
0.143611
0.14354
0.143467
0.143394
0.143321
0.143248
0.143176
0.143105
0.143034
0.142965
0.142898
0.142833
0.14277
0.142709
0.142651
0.142597
0.142545
0.142497
0.142452
0.142411
0.142375
0.142342
0.142313
0.142289
0.142268
0.142252
0.14224
0.142232
0.144358
0.144111
0.143907
0.143714
0.143523
0.143336
0.143154
0.142976
0.142806
0.142647
0.142502
0.142383
0.142309
0.142289
0.142319
0.142379
0.142465
0.142573
0.142703
0.142853
0.143022
0.14321
0.143415
0.143636
0.143871
0.144115
0.144367
0.144621
0.144871
0.145113
0.145339
0.145545
0.145724
0.145873
0.14599
0.146073
0.146125
0.146146
0.146142
0.146115
0.146073
0.146018
0.145955
0.145887
0.145818
0.145749
0.145682
0.145618
0.145558
0.145501
0.14545
0.145402
0.145359
0.145319
0.145284
0.145251
0.145222
0.145196
0.145172
0.14515
0.14513
0.145112
0.145094
0.145077
0.145061
0.145045
0.145028
0.145012
0.144994
0.144976
0.144956
0.144935
0.144912
0.144888
0.144862
0.144833
0.144802
0.144769
0.144733
0.144695
0.144653
0.144609
0.144562
0.144513
0.14446
0.144405
0.144347
0.144286
0.144223
0.144158
0.14409
0.144021
0.14395
0.143878
0.143805
0.143731
0.143656
0.143582
0.143507
0.143433
0.14336
0.143288
0.143217
0.143148
0.143081
0.143016
0.142953
0.142894
0.142837
0.142784
0.142734
0.142687
0.142645
0.142606
0.14257
0.142539
0.142512
0.142489
0.142469
0.142453
0.144588
0.14434
0.144133
0.143939
0.143746
0.143558
0.143373
0.143193
0.143018
0.142852
0.142697
0.142559
0.14245
0.14239
0.142384
0.142422
0.14249
0.142581
0.142695
0.142829
0.142983
0.143157
0.143349
0.143558
0.143783
0.144021
0.14427
0.144525
0.144783
0.145037
0.145282
0.14551
0.145717
0.145897
0.146045
0.146158
0.146238
0.146283
0.146298
0.146286
0.146253
0.146203
0.146141
0.146073
0.146
0.145928
0.145856
0.145788
0.145723
0.145663
0.145609
0.145559
0.145514
0.145475
0.145439
0.145408
0.145381
0.145357
0.145336
0.145318
0.145302
0.145288
0.145275
0.145263
0.145252
0.145241
0.14523
0.145219
0.145207
0.145195
0.145181
0.145165
0.145149
0.14513
0.145109
0.145086
0.145061
0.145032
0.145001
0.144968
0.144931
0.144891
0.144848
0.144801
0.144752
0.1447
0.144644
0.144586
0.144525
0.144461
0.144395
0.144327
0.144257
0.144185
0.144112
0.144037
0.143962
0.143886
0.14381
0.143735
0.14366
0.143585
0.143512
0.14344
0.14337
0.143301
0.143235
0.143172
0.143111
0.143053
0.142998
0.142947
0.142898
0.142854
0.142813
0.142775
0.142741
0.142711
0.142684
0.142661
0.144832
0.144582
0.144372
0.144175
0.143981
0.143791
0.143605
0.143423
0.143246
0.143075
0.142913
0.142763
0.142632
0.142535
0.142488
0.142495
0.142542
0.142616
0.142713
0.142832
0.142971
0.14313
0.143309
0.143505
0.143718
0.143947
0.14419
0.144443
0.144702
0.144963
0.145221
0.145468
0.145699
0.145907
0.146087
0.146233
0.146344
0.146418
0.146458
0.146466
0.146448
0.146407
0.14635
0.146282
0.146207
0.14613
0.146052
0.145978
0.145907
0.145841
0.14578
0.145726
0.145677
0.145634
0.145596
0.145563
0.145535
0.145511
0.14549
0.145473
0.145459
0.145447
0.145436
0.145427
0.14542
0.145412
0.145405
0.145398
0.145391
0.145382
0.145373
0.145362
0.14535
0.145336
0.145319
0.145301
0.14528
0.145256
0.145229
0.145199
0.145166
0.145129
0.145089
0.145046
0.145
0.14495
0.144897
0.14484
0.144781
0.144719
0.144654
0.144587
0.144517
0.144446
0.144372
0.144298
0.144222
0.144145
0.144068
0.143991
0.143914
0.143837
0.143762
0.143687
0.143614
0.143543
0.143473
0.143406
0.143341
0.14328
0.143221
0.143165
0.143112
0.143063
0.143018
0.142976
0.142937
0.142902
0.142871
0.142844
0.145089
0.144837
0.144623
0.144424
0.144228
0.144036
0.143848
0.143664
0.143485
0.143311
0.143144
0.142987
0.142843
0.142719
0.142635
0.142602
0.14262
0.142675
0.142756
0.142859
0.142983
0.143128
0.143292
0.143474
0.143675
0.143893
0.144126
0.144372
0.144629
0.144892
0.145157
0.145418
0.145667
0.1459
0.146108
0.146286
0.14643
0.146538
0.146607
0.146641
0.146642
0.146616
0.146568
0.146503
0.146428
0.146347
0.146264
0.146182
0.146103
0.146029
0.145961
0.145898
0.145843
0.145793
0.14575
0.145713
0.145681
0.145655
0.145632
0.145614
0.145599
0.145586
0.145577
0.145569
0.145562
0.145556
0.145551
0.145547
0.145542
0.145536
0.14553
0.145522
0.145513
0.145502
0.145489
0.145474
0.145456
0.145435
0.145411
0.145384
0.145354
0.14532
0.145283
0.145242
0.145198
0.14515
0.145099
0.145044
0.144986
0.144925
0.144861
0.144794
0.144725
0.144653
0.14458
0.144505
0.144428
0.14435
0.144272
0.144193
0.144114
0.144036
0.143958
0.143881
0.143805
0.143731
0.143658
0.143588
0.143521
0.143456
0.143394
0.143336
0.14328
0.143229
0.143181
0.143136
0.143096
0.14306
0.143027
0.142999
0.14536
0.145105
0.144887
0.144684
0.144485
0.144291
0.144101
0.143916
0.143735
0.143559
0.143389
0.143226
0.143073
0.142935
0.14282
0.142749
0.142728
0.142758
0.14282
0.142908
0.143017
0.143147
0.143297
0.143465
0.143653
0.143858
0.144079
0.144316
0.144566
0.144826
0.145093
0.14536
0.145623
0.145874
0.146106
0.146314
0.14649
0.146631
0.146733
0.146796
0.146823
0.146817
0.146783
0.146727
0.146655
0.146573
0.146486
0.146397
0.146309
0.146226
0.146147
0.146076
0.146011
0.145953
0.145902
0.145858
0.14582
0.145788
0.145761
0.145739
0.145721
0.145707
0.145695
0.145686
0.145679
0.145673
0.145669
0.145664
0.14566
0.145656
0.145651
0.145645
0.145638
0.145629
0.145618
0.145604
0.145588
0.14557
0.145548
0.145523
0.145495
0.145463
0.145427
0.145388
0.145345
0.145299
0.145249
0.145195
0.145138
0.145078
0.145014
0.144948
0.144879
0.144807
0.144734
0.144658
0.144581
0.144502
0.144423
0.144343
0.144263
0.144183
0.144103
0.144024
0.143947
0.143871
0.143797
0.143725
0.143655
0.143589
0.143525
0.143465
0.143409
0.143356
0.143307
0.143263
0.143223
0.143187
0.143156
0.143129
0.145644
0.145387
0.145163
0.144956
0.144753
0.144556
0.144364
0.144177
0.143995
0.143817
0.143645
0.143478
0.143319
0.143171
0.14304
0.142934
0.142875
0.142867
0.142907
0.142977
0.143071
0.143186
0.143322
0.143476
0.14365
0.143842
0.144051
0.144276
0.144516
0.144769
0.145032
0.145301
0.145569
0.145833
0.146084
0.146315
0.14652
0.146692
0.146828
0.146924
0.146981
0.147
0.146985
0.146943
0.146879
0.1468
0.14671
0.146616
0.146521
0.146427
0.146339
0.146256
0.14618
0.146112
0.146052
0.145998
0.145952
0.145913
0.145879
0.145851
0.145828
0.14581
0.145794
0.145782
0.145773
0.145765
0.145759
0.145754
0.145749
0.145744
0.145739
0.145733
0.145726
0.145718
0.145708
0.145695
0.14568
0.145662
0.145641
0.145617
0.14559
0.145559
0.145525
0.145487
0.145445
0.145399
0.14535
0.145298
0.145241
0.145182
0.145119
0.145053
0.144984
0.144913
0.144839
0.144764
0.144687
0.144608
0.144529
0.144449
0.144368
0.144288
0.144208
0.144129
0.144051
0.143974
0.1439
0.143828
0.143758
0.143692
0.143628
0.143568
0.143512
0.14346
0.143413
0.14337
0.143332
0.143298
0.14327
0.143246
0.145942
0.145682
0.145452
0.145239
0.145032
0.144832
0.144637
0.144448
0.144264
0.144084
0.14391
0.14374
0.143578
0.143423
0.143281
0.143155
0.143061
0.143014
0.143017
0.143067
0.143144
0.143245
0.143366
0.143507
0.143666
0.143844
0.14404
0.144253
0.144481
0.144725
0.14498
0.145244
0.145514
0.145783
0.146045
0.146294
0.146523
0.146723
0.14689
0.147019
0.147107
0.147155
0.147165
0.147142
0.147091
0.147019
0.146931
0.146835
0.146733
0.146632
0.146533
0.146439
0.146352
0.146272
0.1462
0.146136
0.146079
0.14603
0.145988
0.145953
0.145923
0.145898
0.145877
0.14586
0.145847
0.145835
0.145826
0.145818
0.145811
0.145804
0.145798
0.145791
0.145783
0.145774
0.145763
0.14575
0.145735
0.145717
0.145696
0.145673
0.145645
0.145615
0.145581
0.145543
0.145502
0.145457
0.145408
0.145356
0.145301
0.145242
0.14518
0.145114
0.145047
0.144976
0.144904
0.144829
0.144753
0.144675
0.144597
0.144518
0.144438
0.144359
0.14428
0.144203
0.144126
0.144052
0.143979
0.143909
0.143841
0.143777
0.143716
0.143659
0.143605
0.143556
0.143512
0.143472
0.143437
0.143407
0.143382
0.143363
0.146254
0.145991
0.145754
0.145535
0.145323
0.145118
0.14492
0.144728
0.144542
0.14436
0.144184
0.144012
0.143846
0.143688
0.143538
0.1434
0.143282
0.143198
0.143163
0.143179
0.143237
0.143322
0.143428
0.143555
0.143701
0.143866
0.144048
0.144247
0.144463
0.144694
0.14494
0.145196
0.145462
0.145731
0.145999
0.146259
0.146504
0.146727
0.146921
0.14708
0.1472
0.147279
0.147317
0.147318
0.147285
0.147225
0.147144
0.147048
0.146944
0.146836
0.146728
0.146624
0.146525
0.146432
0.146348
0.146272
0.146204
0.146144
0.146092
0.146047
0.146009
0.145976
0.145948
0.145925
0.145906
0.145889
0.145875
0.145863
0.145853
0.145843
0.145834
0.145824
0.145814
0.145803
0.145791
0.145776
0.14576
0.145741
0.145719
0.145695
0.145667
0.145636
0.145602
0.145564
0.145523
0.145479
0.14543
0.145379
0.145324
0.145265
0.145204
0.14514
0.145073
0.145004
0.144933
0.144859
0.144785
0.144709
0.144632
0.144555
0.144478
0.144402
0.144326
0.144251
0.144177
0.144106
0.144036
0.14397
0.143906
0.143845
0.143788
0.143734
0.143685
0.14364
0.143599
0.143563
0.143532
0.143505
0.143483
0.143466
0.146581
0.146316
0.146071
0.145844
0.145626
0.145416
0.145213
0.145018
0.144828
0.144645
0.144466
0.144293
0.144124
0.143962
0.143807
0.143662
0.143529
0.143418
0.143346
0.143324
0.14335
0.143417
0.143508
0.143621
0.143753
0.143904
0.144073
0.144259
0.144462
0.14468
0.144914
0.14516
0.145418
0.145682
0.14595
0.146215
0.146471
0.14671
0.146926
0.147112
0.147261
0.147371
0.147438
0.147465
0.147455
0.147412
0.147342
0.147252
0.147149
0.147037
0.146923
0.146809
0.146699
0.146595
0.146498
0.14641
0.146329
0.146258
0.146194
0.146139
0.14609
0.146048
0.146012
0.145982
0.145955
0.145932
0.145913
0.145895
0.14588
0.145866
0.145853
0.14584
0.145826
0.145812
0.145797
0.145781
0.145762
0.145742
0.145719
0.145693
0.145664
0.145632
0.145597
0.145559
0.145518
0.145473
0.145425
0.145373
0.145319
0.145261
0.1452
0.145137
0.145072
0.145004
0.144934
0.144863
0.14479
0.144716
0.144642
0.144567
0.144493
0.144419
0.144346
0.144274
0.144204
0.144136
0.14407
0.144006
0.143946
0.143889
0.143836
0.143786
0.14374
0.143698
0.143661
0.143628
0.143599
0.143575
0.143556
0.14354
0.146929
0.146656
0.146402
0.146167
0.145941
0.145725
0.145517
0.145317
0.145124
0.144938
0.144757
0.144581
0.144411
0.144246
0.144087
0.143936
0.143795
0.143668
0.143565
0.143505
0.143494
0.143531
0.143605
0.143703
0.143822
0.14396
0.144115
0.144288
0.144478
0.144683
0.144904
0.145139
0.145386
0.145643
0.145906
0.14617
0.146431
0.146681
0.146912
0.147119
0.147294
0.147432
0.147529
0.147584
0.147598
0.147576
0.147522
0.147443
0.147344
0.147233
0.147115
0.146994
0.146875
0.14676
0.146652
0.14655
0.146458
0.146374
0.146298
0.146231
0.146172
0.14612
0.146075
0.146035
0.146001
0.145971
0.145944
0.145921
0.1459
0.14588
0.145862
0.145845
0.145828
0.14581
0.145792
0.145772
0.145751
0.145728
0.145703
0.145675
0.145645
0.145612
0.145576
0.145537
0.145495
0.145449
0.145401
0.14535
0.145295
0.145238
0.145178
0.145116
0.145051
0.144985
0.144917
0.144847
0.144776
0.144705
0.144633
0.14456
0.144489
0.144417
0.144347
0.144278
0.144211
0.144146
0.144083
0.144023
0.143966
0.143912
0.143862
0.143816
0.143773
0.143734
0.1437
0.14367
0.143645
0.143624
0.143608
0.143597
0.147303
0.147014
0.146749
0.146504
0.14627
0.146046
0.145832
0.145627
0.14543
0.145239
0.145055
0.144877
0.144704
0.144537
0.144375
0.14422
0.144073
0.143937
0.143816
0.143722
0.143673
0.143673
0.143721
0.143802
0.143907
0.144031
0.144174
0.144334
0.14451
0.144703
0.144911
0.145133
0.145369
0.145615
0.145871
0.146131
0.146391
0.146645
0.146887
0.147109
0.147305
0.147467
0.147591
0.147674
0.147715
0.147717
0.147682
0.147617
0.147528
0.147421
0.147303
0.147178
0.147052
0.146928
0.146809
0.146696
0.146591
0.146495
0.146408
0.146329
0.146259
0.146196
0.146141
0.146092
0.146049
0.146011
0.145977
0.145946
0.145919
0.145894
0.14587
0.145848
0.145826
0.145804
0.145782
0.145759
0.145734
0.145709
0.145681
0.145651
0.145619
0.145584
0.145547
0.145507
0.145464
0.145418
0.145369
0.145317
0.145263
0.145206
0.145147
0.145086
0.145022
0.144957
0.14489
0.144822
0.144753
0.144683
0.144614
0.144544
0.144475
0.144406
0.144339
0.144273
0.144209
0.144147
0.144088
0.144031
0.143977
0.143927
0.14388
0.143837
0.143798
0.143764
0.143733
0.143707
0.143686
0.143669
0.143658
0.143651
0.147701
0.147389
0.147112
0.146857
0.146613
0.146381
0.146159
0.145948
0.145745
0.14555
0.145363
0.145181
0.145006
0.144836
0.144672
0.144514
0.144362
0.144219
0.144087
0.143973
0.143888
0.14385
0.143861
0.143918
0.144007
0.144118
0.144248
0.144395
0.144559
0.144739
0.144934
0.145143
0.145367
0.145602
0.145848
0.146101
0.146357
0.146611
0.146858
0.14709
0.147301
0.147483
0.147631
0.14774
0.147807
0.147834
0.147821
0.147774
0.147698
0.1476
0.147485
0.14736
0.14723
0.147099
0.146971
0.146848
0.146732
0.146624
0.146525
0.146435
0.146353
0.14628
0.146214
0.146156
0.146103
0.146057
0.146015
0.145977
0.145943
0.145912
0.145882
0.145854
0.145828
0.145801
0.145775
0.145748
0.145721
0.145692
0.145661
0.145629
0.145595
0.145558
0.145519
0.145478
0.145433
0.145387
0.145337
0.145286
0.145231
0.145175
0.145116
0.145055
0.144992
0.144928
0.144862
0.144796
0.144729
0.144661
0.144593
0.144526
0.144459
0.144393
0.144328
0.144265
0.144204
0.144146
0.144089
0.144036
0.143986
0.14394
0.143897
0.143858
0.143823
0.143792
0.143766
0.143744
0.143727
0.143715
0.143707
0.143704
0.148118
0.147783
0.147493
0.147226
0.146971
0.146729
0.146499
0.14628
0.146071
0.145871
0.145679
0.145494
0.145315
0.145143
0.144976
0.144815
0.144659
0.144511
0.144372
0.144245
0.144137
0.144063
0.144036
0.144057
0.144124
0.144219
0.144336
0.144471
0.144623
0.14479
0.144973
0.14517
0.145381
0.145605
0.145839
0.146083
0.146332
0.146582
0.14683
0.147067
0.147288
0.147486
0.147653
0.147785
0.147878
0.147929
0.14794
0.147914
0.147854
0.147768
0.14766
0.147538
0.147407
0.147272
0.147138
0.147006
0.146881
0.146762
0.146652
0.146551
0.146458
0.146374
0.146299
0.14623
0.146169
0.146114
0.146064
0.146019
0.145978
0.14594
0.145905
0.145872
0.14584
0.145809
0.145779
0.145748
0.145717
0.145685
0.145652
0.145617
0.14558
0.145542
0.145501
0.145458
0.145413
0.145365
0.145315
0.145263
0.145208
0.145151
0.145092
0.145032
0.14497
0.144906
0.144841
0.144776
0.14471
0.144643
0.144577
0.144511
0.144446
0.144382
0.14432
0.144259
0.1442
0.144144
0.14409
0.14404
0.143992
0.143948
0.143908
0.143872
0.14384
0.143813
0.14379
0.143772
0.143758
0.143749
0.143745
0.143747
0.148553
0.148197
0.147893
0.147612
0.147345
0.147092
0.146852
0.146625
0.146408
0.146202
0.146004
0.145815
0.145633
0.145457
0.145287
0.145123
0.144965
0.144813
0.144668
0.144533
0.144411
0.144309
0.144246
0.14423
0.144261
0.144336
0.144439
0.144561
0.1447
0.144856
0.145027
0.145212
0.145411
0.145622
0.145846
0.146079
0.146319
0.146564
0.146808
0.147046
0.147273
0.147481
0.147664
0.147816
0.147931
0.148006
0.148041
0.148037
0.147996
0.147924
0.147828
0.147712
0.147584
0.147448
0.147309
0.147172
0.147038
0.146911
0.146791
0.146679
0.146577
0.146483
0.146397
0.146319
0.146249
0.146186
0.146128
0.146076
0.146028
0.145984
0.145943
0.145904
0.145868
0.145832
0.145798
0.145764
0.145729
0.145694
0.145658
0.145621
0.145582
0.145542
0.145499
0.145455
0.145408
0.145359
0.145309
0.145256
0.1452
0.145143
0.145084
0.145024
0.144962
0.144898
0.144834
0.144769
0.144703
0.144638
0.144572
0.144507
0.144442
0.144379
0.144317
0.144257
0.144199
0.144144
0.144091
0.144041
0.143995
0.143952
0.143913
0.143878
0.143847
0.143821
0.143799
0.143782
0.14377
0.143764
0.143764
0.143773
0.14901
0.148632
0.148312
0.148017
0.147736
0.147471
0.14722
0.146983
0.146758
0.146544
0.14634
0.146145
0.145959
0.145779
0.145606
0.145439
0.145278
0.145123
0.144974
0.144833
0.144702
0.144584
0.14449
0.144437
0.144431
0.144472
0.144556
0.144664
0.144791
0.144935
0.145094
0.145268
0.145455
0.145655
0.145867
0.146089
0.14632
0.146556
0.146795
0.147032
0.14726
0.147475
0.147669
0.147837
0.147971
0.148069
0.148127
0.148145
0.148125
0.14807
0.147987
0.147881
0.147759
0.147625
0.147485
0.147344