/*--------------------------------*- C++ -*----------------------------------*\
  =========                 |
  \\      /  F ield         | OpenFOAM: The Open Source CFD Toolbox
   \\    /   O peration     | Website:  https://openfoam.org
    \\  /    A nd           | Version:  8
     \\/     M anipulation  |
\*---------------------------------------------------------------------------*/
FoamFile
{
    version     2.0;
    format      ascii;
    class       volScalarField;
    location    "0.02";
    object      nut;
}
// * * * * * * * * * * * * * * * * * * * * * * * * * * * * * * * * * * * * * //

dimensions      [0 2 -1 0 0 0 0];

internalField   nonuniform List<scalar> 
104000
(
0.0160006
0.00534892
0.00243417
0.00148006
0.00102673
0.000771893
0.000610932
0.000500951
0.000421492
0.000361583
0.000314842
0.000277329
0.000246494
0.00022062
0.000198517
0.000179334
0.000162461
0.000147483
0.00013416
0.000122397
0.000112159
0.000103315
9.55708e-05
8.85958e-05
8.21216e-05
7.59615e-05
6.99862e-05
6.41008e-05
5.82285e-05
5.23057e-05
4.62862e-05
4.01692e-05
3.40653e-05
2.83328e-05
2.35143e-05
1.98003e-05
1.69554e-05
1.46854e-05
1.2801e-05
1.12033e-05
9.83892e-06
8.67502e-06
7.69157e-06
6.8826e-06
6.24847e-06
5.75529e-06
5.31852e-06
4.98535e-06
4.7617e-06
4.57105e-06
4.38472e-06
4.19894e-06
4.01798e-06
3.84023e-06
3.66774e-06
3.50527e-06
3.3609e-06
3.24293e-06
3.15319e-06
3.08588e-06
3.03191e-06
2.98357e-06
2.93613e-06
2.88753e-06
2.83722e-06
2.78543e-06
2.73255e-06
2.67906e-06
2.62531e-06
2.57164e-06
2.51827e-06
2.46537e-06
2.41306e-06
2.36144e-06
2.31058e-06
2.26059e-06
2.21152e-06
2.16351e-06
2.11671e-06
2.07141e-06
2.0281e-06
1.98751e-06
1.95048e-06
1.91775e-06
1.88963e-06
1.866e-06
1.84628e-06
1.82965e-06
1.81525e-06
1.80227e-06
1.79004e-06
1.77803e-06
1.76589e-06
1.75338e-06
1.74038e-06
1.72684e-06
1.71278e-06
1.69832e-06
1.68365e-06
1.66905e-06
1.65486e-06
1.64139e-06
1.6289e-06
1.61752e-06
1.60726e-06
1.59804e-06
1.5897e-06
1.58206e-06
1.57492e-06
1.5681e-06
1.56142e-06
1.55476e-06
1.54803e-06
1.54115e-06
1.5341e-06
1.52687e-06
1.5195e-06
1.51204e-06
1.50458e-06
1.49717e-06
1.48984e-06
1.48263e-06
1.47561e-06
1.46882e-06
1.46232e-06
1.45613e-06
1.45022e-06
1.44459e-06
1.43919e-06
1.43399e-06
1.42893e-06
1.42398e-06
1.4191e-06
1.41427e-06
1.40948e-06
1.40473e-06
1.40002e-06
1.39537e-06
1.39079e-06
1.38633e-06
1.38198e-06
1.37779e-06
1.37376e-06
1.36989e-06
1.36618e-06
1.36264e-06
1.35925e-06
1.35599e-06
1.35284e-06
1.34979e-06
1.34682e-06
1.34392e-06
1.34107e-06
1.33826e-06
1.3355e-06
1.33278e-06
1.33009e-06
1.32746e-06
1.32488e-06
1.32237e-06
1.31992e-06
1.31754e-06
1.31523e-06
1.31302e-06
1.31068e-06
1.30813e-06
1.30539e-06
1.30255e-06
1.29968e-06
1.2968e-06
1.29393e-06
1.2911e-06
1.28829e-06
1.28552e-06
1.28278e-06
1.28008e-06
1.2774e-06
1.27477e-06
1.27217e-06
1.2696e-06
1.26707e-06
1.26458e-06
1.26213e-06
1.25972e-06
1.25735e-06
1.25501e-06
1.2527e-06
1.25043e-06
1.24818e-06
1.24596e-06
1.24377e-06
1.24159e-06
1.23943e-06
1.23729e-06
1.23515e-06
1.23303e-06
1.23092e-06
1.22882e-06
1.22672e-06
1.22463e-06
1.22254e-06
1.22046e-06
1.21838e-06
1.21631e-06
1.21423e-06
1.21216e-06
1.21009e-06
1.20801e-06
1.20592e-06
1.20383e-06
1.20172e-06
1.19959e-06
1.19745e-06
1.19528e-06
1.19309e-06
1.19086e-06
1.1886e-06
1.1863e-06
1.18395e-06
1.18156e-06
1.17911e-06
1.1766e-06
1.17403e-06
1.17139e-06
1.16867e-06
1.16586e-06
1.16296e-06
1.15996e-06
1.15684e-06
1.1536e-06
1.15021e-06
1.14668e-06
1.14298e-06
1.13911e-06
1.13505e-06
1.13079e-06
1.12631e-06
1.12159e-06
1.11662e-06
1.11138e-06
1.10585e-06
1.10001e-06
1.09382e-06
1.08728e-06
1.08034e-06
1.07299e-06
1.06519e-06
1.0569e-06
1.04809e-06
1.03872e-06
1.02875e-06
1.01813e-06
1.00681e-06
9.94743e-07
9.8187e-07
9.68132e-07
9.53464e-07
9.37797e-07
9.21059e-07
9.03174e-07
8.84058e-07
8.63625e-07
8.41786e-07
8.18445e-07
7.93504e-07
7.66863e-07
7.38419e-07
7.08067e-07
6.75716e-07
6.40809e-07
6.03902e-07
5.6509e-07
5.24409e-07
4.8205e-07
4.3856e-07
3.9645e-07
3.66358e-07
3.49404e-07
3.35987e-07
3.2193e-07
3.07406e-07
2.92985e-07
2.81384e-07
2.70795e-07
2.5987e-07
2.4803e-07
2.3466e-07
2.20264e-07
2.03779e-07
1.81855e-07
1.52279e-07
1.15124e-07
7.62498e-08
4.90255e-08
4.69807e-08
5.1515e-08
5.42588e-08
5.03334e-08
4.02265e-08
3.21923e-08
0.0648718
0.0243416
0.0118545
0.00719723
0.00499145
0.00374621
0.00295932
0.00242266
0.00203616
0.00174611
0.00152126
0.00134232
0.00119681
0.00107632
0.000974989
0.000888639
0.000814207
0.000749414
0.000692581
0.000642455
0.000597835
0.000557855
0.000521842
0.000489254
0.000459649
0.000432658
0.000407971
0.000385324
0.00036449
0.000345276
0.000327514
0.000311066
0.000295818
0.000281659
0.000268466
0.000256131
0.000244566
0.000233703
0.000223488
0.000213871
0.000204802
0.000196239
0.00018814
0.000180468
0.000173192
0.00016629
0.000159758
0.000153563
0.000147649
0.000141994
0.000136576
0.000131382
0.000126401
0.000121637
0.000117129
0.000113002
0.000109494
0.000106826
0.000104982
0.000103723
0.000102774
0.000101934
0.000101091
0.000100193
9.92264e-05
9.81916e-05
9.70975e-05
9.59554e-05
9.47758e-05
9.35686e-05
9.23417e-05
9.11013e-05
8.98522e-05
8.85988e-05
8.7345e-05
8.60946e-05
8.48515e-05
8.36207e-05
8.24094e-05
8.12307e-05
8.0106e-05
7.90652e-05
7.81409e-05
7.73576e-05
7.67227e-05
7.62261e-05
7.58449e-05
7.55506e-05
7.53143e-05
7.51106e-05
7.49188e-05
7.47233e-05
7.4513e-05
7.4281e-05
7.4024e-05
7.37408e-05
7.34328e-05
7.31048e-05
7.27653e-05
7.24266e-05
7.21018e-05
7.18031e-05
7.1539e-05
7.13134e-05
7.11257e-05
7.09721e-05
7.08462e-05
7.07407e-05
7.06483e-05
7.05622e-05
7.04766e-05
7.03869e-05
7.02896e-05
7.01826e-05
7.00649e-05
6.9937e-05
6.98006e-05
6.96582e-05
6.95144e-05
6.93699e-05
6.92258e-05
6.90843e-05
6.89485e-05
6.88209e-05
6.8703e-05
6.85953e-05
6.84973e-05
6.8408e-05
6.83257e-05
6.82487e-05
6.81752e-05
6.81037e-05
6.80329e-05
6.79619e-05
6.78903e-05
6.78183e-05
6.77463e-05
6.76753e-05
6.76062e-05
6.75403e-05
6.74786e-05
6.74219e-05
6.73709e-05
6.73257e-05
6.72864e-05
6.72526e-05
6.72239e-05
6.71995e-05
6.71787e-05
6.71608e-05
6.71449e-05
6.71306e-05
6.71174e-05
6.71048e-05
6.7093e-05
6.70818e-05
6.70716e-05
6.70626e-05
6.70552e-05
6.70498e-05
6.70467e-05
6.70461e-05
6.70477e-05
6.70546e-05
6.70499e-05
6.70329e-05
6.70073e-05
6.6977e-05
6.69443e-05
6.6911e-05
6.68777e-05
6.68449e-05
6.68128e-05
6.67816e-05
6.67512e-05
6.67218e-05
6.66933e-05
6.66659e-05
6.66396e-05
6.66146e-05
6.65908e-05
6.65684e-05
6.65475e-05
6.65279e-05
6.65098e-05
6.64931e-05
6.64777e-05
6.64635e-05
6.64504e-05
6.64383e-05
6.64271e-05
6.64167e-05
6.64071e-05
6.6398e-05
6.63896e-05
6.63818e-05
6.63746e-05
6.63678e-05
6.63617e-05
6.63561e-05
6.63511e-05
6.63467e-05
6.63431e-05
6.63403e-05
6.63382e-05
6.6337e-05
6.63366e-05
6.63371e-05
6.63383e-05
6.63404e-05
6.63432e-05
6.63467e-05
6.63509e-05
6.63558e-05
6.63612e-05
6.63673e-05
6.6374e-05
6.63812e-05
6.6389e-05
6.63974e-05
6.64064e-05
6.6416e-05
6.64261e-05
6.64369e-05
6.64482e-05
6.646e-05
6.64722e-05
6.64848e-05
6.64974e-05
6.65101e-05
6.65227e-05
6.65351e-05
6.65473e-05
6.65591e-05
6.65705e-05
6.65815e-05
6.65919e-05
6.66019e-05
6.66112e-05
6.66198e-05
6.66278e-05
6.66349e-05
6.66411e-05
6.66463e-05
6.66504e-05
6.66532e-05
6.66546e-05
6.66544e-05
6.66524e-05
6.66483e-05
6.6642e-05
6.6633e-05
6.66211e-05
6.66058e-05
6.65869e-05
6.65637e-05
6.65358e-05
6.65025e-05
6.64633e-05
6.64174e-05
6.63638e-05
6.63017e-05
6.623e-05
6.61474e-05
6.60524e-05
6.59434e-05
6.58184e-05
6.56747e-05
6.55184e-05
6.52238e-05
6.48746e-05
6.44892e-05
6.40691e-05
6.36112e-05
6.31125e-05
6.25576e-05
6.19453e-05
6.12959e-05
6.06225e-05
5.99216e-05
5.91826e-05
5.83909e-05
5.7533e-05
5.65897e-05
5.55279e-05
5.4294e-05
5.28274e-05
5.11102e-05
4.90123e-05
4.61985e-05
4.22223e-05
3.65507e-05
2.85873e-05
1.93532e-05
1.65845e-05
1.66482e-05
1.68778e-05
1.60234e-05
1.35724e-05
1.09429e-05
0.0852083
0.0412228
0.0230487
0.0147382
0.0104088
0.00787039
0.0062397
0.00511848
0.00430715
0.00369641
0.00322199
0.00284392
0.00253616
0.00228111
0.00206652
0.00188359
0.00172588
0.00158857
0.001468
0.00136136
0.00126641
0.00118138
0.00110484
0.00103564
0.000972822
0.000915594
0.000863294
0.000815359
0.000771311
0.000730737
0.000693281
0.000658643
0.000626579
0.000596885
0.000569296
0.00054361
0.000519654
0.00049728
0.000476353
0.000456755
0.000438379
0.000421127
0.00040491
0.000389647
0.000375273
0.000361729
0.000348954
0.000336887
0.000325468
0.000314644
0.000304371
0.000294607
0.000285317
0.000276471
0.00026804
0.000260003
0.000252346
0.000245063
0.00023815
0.000231591
0.000225364
0.000219441
0.000213796
0.000208403
0.000203237
0.000198281
0.000193518
0.000188935
0.000184522
0.000180271
0.00017617
0.00017221
0.000168383
0.000164683
0.000161106
0.000157649
0.000154313
0.000151101
0.000148033
0.000145147
0.000142508
0.000140191
0.000138251
0.000136682
0.000135429
0.000134412
0.000133554
0.000132793
0.000132084
0.000131397
0.000130712
0.000130014
0.000129297
0.000128556
0.000127791
0.000127004
0.000126199
0.000125395
0.000124615
0.000123886
0.000123231
0.00012266
0.000122172
0.000121757
0.000121403
0.000121092
0.000120811
0.000120546
0.000120288
0.000120028
0.000119761
0.000119482
0.000119191
0.000118885
0.000118567
0.00011824
0.00011791
0.000117583
0.00011727
0.000116957
0.000116648
0.000116352
0.000116075
0.000115818
0.00011558
0.000115359
0.000115152
0.000114955
0.000114765
0.000114579
0.000114396
0.000114213
0.000114029
0.000113845
0.000113661
0.000113479
0.000113301
0.000113128
0.000112963
0.000112807
0.000112662
0.000112527
0.000112402
0.000112288
0.000112183
0.000112086
0.000111996
0.000111912
0.000111831
0.000111754
0.000111679
0.000111606
0.000111534
0.000111464
0.000111395
0.000111329
0.000111266
0.000111206
0.00011115
0.000111098
0.000111051
0.000111009
0.00011097
0.000110946
0.000110842
0.000110728
0.000110616
0.000110508
0.000110402
0.000110297
0.000110193
0.000110089
0.000109985
0.000109881
0.000109778
0.000109676
0.000109574
0.000109474
0.000109375
0.000109277
0.000109182
0.000109089
0.000108997
0.000108908
0.00010882
0.000108734
0.00010865
0.000108568
0.000108486
0.000108406
0.000108328
0.00010825
0.000108173
0.000108097
0.000108021
0.000107947
0.000107873
0.0001078
0.000107729
0.000107658
0.000107588
0.000107519
0.000107451
0.000107385
0.00010732
0.000107256
0.000107194
0.000107133
0.000107072
0.000107013
0.000106956
0.000106899
0.000106843
0.000106788
0.000106734
0.000106681
0.000106629
0.000106578
0.000106528
0.000106479
0.000106431
0.000106384
0.000106338
0.000106293
0.00010625
0.000106207
0.000106164
0.000106123
0.000106081
0.000106039
0.000105998
0.000105956
0.000105914
0.000105873
0.000105831
0.000105789
0.000105747
0.000105705
0.000105662
0.00010562
0.000105577
0.000105534
0.000105491
0.000105447
0.000105404
0.00010536
0.000105315
0.00010527
0.000105225
0.000105179
0.000105132
0.000105085
0.000105036
0.000104987
0.000104936
0.000104884
0.000104831
0.000104777
0.000104721
0.000104663
0.000104604
0.000104543
0.00010448
0.000104415
0.000104348
0.000104279
0.000104208
0.000104133
0.00010406
0.000103977
0.000103876
0.000103759
0.000103628
0.000103485
0.000103331
0.000103166
0.000102989
0.000102798
0.000102597
0.000102389
0.000102176
0.000101957
0.000101728
0.00010148
0.000101202
0.000100871
0.000100454
9.99242e-05
9.92357e-05
9.82913e-05
9.6928e-05
9.49501e-05
9.21136e-05
8.82635e-05
8.53336e-05
8.40161e-05
8.35612e-05
8.20422e-05
7.71777e-05
6.86301e-05
0.0977217
0.0550948
0.0338745
0.0227617
0.0164684
0.0126045
0.010059
0.00828335
0.00698712
0.0060057
0.00524027
0.0046285
0.00412941
0.00371511
0.00336605
0.00306816
0.00281113
0.00258719
0.00239044
0.00221632
0.00206123
0.00192231
0.00179725
0.00168417
0.00158153
0.00148803
0.0014026
0.00132433
0.00125242
0.00118621
0.00112513
0.00106865
0.00101635
0.000967844
0.000922774
0.00088083
0.000841738
0.000805253
0.000771157
0.000739252
0.000709361
0.000681324
0.000654995
0.000630239
0.00060695
0.000585052
0.00056441
0.000544923
0.000526499
0.000509058
0.000492528
0.000476845
0.000461953
0.000447799
0.000434336
0.000421521
0.000409316
0.000397694
0.000386625
0.000376081
0.000366029
0.000356443
0.000347293
0.000338548
0.000330179
0.000322162
0.000314476
0.000307104
0.000300028
0.000293233
0.000286696
0.0002804
0.000274333
0.000268488
0.000262857
0.000257431
0.0002522
0.000247155
0.000242289
0.000237598
0.000233068
0.0002287
0.000224501
0.00022048
0.000216639
0.000212972
0.000209467
0.000206112
0.000202893
0.000199798
0.000196814
0.000193934
0.000191148
0.000188452
0.000185852
0.000183334
0.000180929
0.00017869
0.000176675
0.000174921
0.000173432
0.000172173
0.000171092
0.000170136
0.000169261
0.000168434
0.000167631
0.000166837
0.000166043
0.000165242
0.000164431
0.00016361
0.00016278
0.000161948
0.000161121
0.000160312
0.000159535
0.000158802
0.000158137
0.000157419
0.000156752
0.000156146
0.000155593
0.00015508
0.000154597
0.000154135
0.000153687
0.000153248
0.000152812
0.000152378
0.000151944
0.00015151
0.000151078
0.00015065
0.00015023
0.000149824
0.000149434
0.000149064
0.000148716
0.00014839
0.000148085
0.000147801
0.000147533
0.000147281
0.00014704
0.000146809
0.000146585
0.000146366
0.000146151
0.000145938
0.000145728
0.00014552
0.000145315
0.000145116
0.000144922
0.000144735
0.000144556
0.000144387
0.000144226
0.000144075
0.000143933
0.000143799
0.000143672
0.000143553
0.000143435
0.000143314
0.000143189
0.000143063
0.000142935
0.000142807
0.000142679
0.00014255
0.000142423
0.000142295
0.000142169
0.000142045
0.000141922
0.000141802
0.000141685
0.000141571
0.00014146
0.000141352
0.000141246
0.000141144
0.000141043
0.000140945
0.000140849
0.000140754
0.00014066
0.000140568
0.000140477
0.000140387
0.000140298
0.00014021
0.000140124
0.000140038
0.000139954
0.000139872
0.00013979
0.000139711
0.000139633
0.000139558
0.000139484
0.000139412
0.000139342
0.000139274
0.000139208
0.000139143
0.000139079
0.000139017
0.000138956
0.000138897
0.000138838
0.000138781
0.000138725
0.00013867
0.000138617
0.000138565
0.000138514
0.000138465
0.000138417
0.00013837
0.000138325
0.000138281
0.000138239
0.000138196
0.000138154
0.000138111
0.000138067
0.000138023
0.000137978
0.000137933
0.000137888
0.000137842
0.000137795
0.000137747
0.000137699
0.00013765
0.000137601
0.00013755
0.000137499
0.000137446
0.000137392
0.000137337
0.00013728
0.000137222
0.000137161
0.000137099
0.000137034
0.000136966
0.000136896
0.000136822
0.000136745
0.000136663
0.000136577
0.000136487
0.000136392
0.000136291
0.000136185
0.000136072
0.000135952
0.000135825
0.000135691
0.000135548
0.000135397
0.000135237
0.000135068
0.000134889
0.000134701
0.000134503
0.000134295
0.000134075
0.000133841
0.000133592
0.000133329
0.000133057
0.000132782
0.000132507
0.000132237
0.000131978
0.00013174
0.000131531
0.000131361
0.000131239
0.00013117
0.000131157
0.000131195
0.000131272
0.000131371
0.000131459
0.00013147
0.000131311
0.000130866
0.000129947
0.000128824
0.000128089
0.000128045
0.000128206
0.000127422
0.000125483
0.105989
0.066251
0.043726
0.0306775
0.0227517
0.0176618
0.0142136
0.0117657
0.009958
0.00857865
0.00749691
0.0066288
0.0059184
0.00532727
0.00482826
0.00440175
0.00403326
0.00371189
0.0034293
0.00317903
0.00295599
0.00275611
0.00257611
0.00241331
0.00226552
0.00213088
0.00200786
0.00189515
0.00179162
0.00169631
0.0016084
0.00152714
0.0014519
0.00138213
0.00131733
0.00125704
0.00120088
0.00114848
0.00109954
0.00105378
0.00101092
0.000970744
0.000933037
0.000897605
0.000864275
0.000832889
0.000803297
0.000775358
0.000748947
0.000723951
0.000700271
0.000677817
0.000656505
0.000636262
0.000617018
0.000598713
0.000581292
0.000564715
0.000548948
0.000533927
0.000519607
0.000505948
0.000492912
0.000480447
0.000468515
0.000457089
0.000446145
0.000435658
0.000425605
0.00041596
0.000406677
0.00039774
0.000389144
0.000380879
0.000372931
0.000365284
0.000357921
0.000350827
0.000343987
0.000337392
0.000330983
0.000324771
0.000318768
0.000312976
0.000307388
0.000301997
0.000296796
0.000291777
0.00028693
0.000282247
0.000277718
0.000273336
0.000269091
0.000264976
0.000260994
0.000257024
0.000253174
0.00024946
0.000245881
0.000242442
0.000239144
0.000235987
0.000232967
0.000230074
0.000227296
0.000224622
0.000222042
0.000219545
0.000217124
0.000214772
0.000212488
0.000210272
0.00020813
0.000206075
0.00020413
0.000202319
0.000200666
0.000199181
0.000197862
0.000196677
0.000195597
0.000194598
0.000193659
0.000192762
0.000191892
0.000191039
0.000190195
0.000189357
0.000188521
0.000187688
0.00018686
0.000186042
0.000185241
0.000184466
0.000183726
0.000183028
0.000182377
0.000181773
0.000181213
0.000180693
0.000180206
0.000179746
0.000179306
0.000178882
0.000178467
0.00017806
0.000177657
0.000177257
0.000176859
0.000176464
0.000176074
0.000175692
0.00017532
0.000174961
0.000174619
0.000174294
0.000173987
0.000173697
0.000173424
0.000173166
0.000172921
0.000172687
0.000172461
0.000172243
0.00017203
0.00017182
0.000171612
0.000171404
0.000171198
0.000170992
0.000170789
0.000170587
0.000170389
0.000170193
0.000170002
0.000169816
0.000169635
0.00016946
0.00016929
0.000169126
0.000168967
0.000168813
0.000168662
0.000168514
0.000168369
0.000168226
0.000168085
0.000167946
0.000167807
0.00016767
0.000167535
0.000167402
0.000167271
0.000167142
0.000167015
0.00016689
0.000166767
0.000166647
0.00016653
0.000166417
0.000166307
0.0001662
0.000166096
0.000165995
0.000165896
0.0001658
0.000165706
0.000165614
0.000165523
0.000165435
0.000165348
0.000165262
0.000165179
0.000165097
0.000165017
0.00016494
0.000164864
0.000164791
0.00016472
0.000164651
0.000164584
0.00016452
0.000164457
0.000164396
0.000164337
0.000164275
0.000164211
0.000164146
0.00016408
0.000164014
0.000163947
0.00016388
0.000163813
0.000163745
0.000163677
0.000163608
0.000163539
0.000163469
0.000163399
0.000163327
0.000163255
0.000163181
0.000163107
0.00016303
0.000162952
0.000162872
0.000162789
0.000162704
0.000162616
0.000162524
0.000162428
0.000162328
0.000162223
0.000162113
0.000161997
0.000161875
0.000161746
0.000161611
0.000161467
0.000161314
0.000161153
0.000160981
0.000160798
0.000160603
0.000160395
0.000160174
0.000159938
0.000159686
0.000159418
0.000159133
0.00015883
0.000158509
0.000158171
0.000157791
0.000157391
0.000156976
0.000156548
0.00015611
0.000155668
0.000155229
0.000154802
0.000154399
0.000154038
0.000153734
0.000153506
0.000153376
0.000153359
0.000153469
0.000153715
0.000154096
0.000154594
0.000155167
0.000155752
0.000156226
0.000156533
0.000156844
0.00015746
0.000158467
0.00015943
0.000160054
0.111745
0.0752164
0.0524454
0.0381795
0.0289891
0.0228379
0.0185519
0.0154507
0.0131306
0.0113439
0.00993323
0.00879549
0.00786086
0.0070808
0.00642072
0.00585544
0.00536628
0.0049391
0.00456308
0.00422975
0.00393246
0.00366589
0.00342571
0.00320841
0.00301108
0.00283129
0.00266698
0.00251643
0.00237816
0.00225087
0.00213346
0.00202497
0.00192453
0.00183141
0.00174493
0.00166451
0.00158962
0.00151977
0.00145456
0.0013936
0.00133653
0.00128306
0.0012329
0.00118578
0.00114147
0.00109975
0.00106042
0.0010233
0.00098821
0.000955011
0.000923569
0.000893767
0.000865494
0.00083865
0.000813142
0.000788891
0.00076583
0.000743892
0.000722997
0.000703081
0.000684097
0.000665995
0.00064872
0.000632186
0.000616355
0.000601206
0.000586708
0.000572825
0.000559523
0.000546764
0.000534444
0.000522603
0.000511241
0.000500334
0.000489854
0.000479775
0.000470073
0.000460727
0.000451718
0.000443036
0.0004345
0.000426275
0.000418357
0.000410721
0.000403348
0.000396224
0.000389341
0.000382688
0.000376255
0.000370031
0.000364005
0.000358167
0.000352508
0.000347019
0.000341695
0.000336515
0.000331472
0.000326568
0.000321802
0.000317173
0.000312678
0.000308316
0.000304085
0.000299981
0.000296001
0.000292139
0.000288389
0.000284747
0.000281205
0.000277759
0.000274403
0.000271135
0.000267952
0.000264852
0.000261837
0.000258909
0.000256075
0.000253338
0.000250703
0.000248168
0.000245729
0.00024338
0.000241113
0.000238921
0.000236798
0.000234736
0.000232732
0.000230783
0.000228889
0.000227053
0.000225283
0.000223592
0.000221995
0.000220509
0.000219145
0.000217904
0.000216777
0.000215749
0.000214801
0.000213915
0.000213074
0.000212266
0.000211479
0.000210708
0.000209946
0.000209191
0.000208442
0.0002077
0.000206967
0.000206249
0.000205552
0.000204882
0.000204245
0.000203644
0.00020308
0.000202553
0.000202058
0.000201592
0.000201149
0.000200726
0.000200318
0.00019992
0.000199531
0.000199147
0.000198767
0.000198391
0.000198018
0.000197649
0.000197286
0.000196931
0.000196583
0.000196242
0.00019591
0.000195587
0.000195276
0.000194977
0.00019469
0.000194413
0.000194146
0.000193887
0.000193634
0.000193387
0.000193145
0.000192905
0.000192668
0.000192432
0.000192199
0.000191967
0.000191738
0.000191512
0.000191289
0.000191072
0.00019086
0.00019065
0.000190442
0.000190239
0.000190041
0.00018985
0.000189665
0.000189486
0.000189312
0.000189143
0.000188977
0.000188816
0.000188657
0.000188502
0.000188348
0.000188197
0.000188049
0.000187903
0.000187759
0.000187618
0.000187481
0.000187347
0.000187216
0.00018709
0.000186967
0.000186847
0.000186732
0.00018662
0.000186511
0.000186404
0.000186301
0.000186199
0.000186101
0.000185983
0.000185865
0.000185749
0.000185634
0.000185521
0.000185408
0.000185295
0.000185183
0.000185071
0.000184959
0.000184848
0.000184737
0.000184626
0.000184515
0.000184404
0.000184293
0.000184181
0.000184068
0.000183954
0.000183838
0.000183721
0.000183601
0.000183479
0.000183353
0.000183224
0.00018309
0.000182953
0.000182811
0.000182663
0.00018251
0.000182351
0.000182184
0.000182011
0.000181829
0.000181637
0.000181436
0.000181224
0.000181
0.000180762
0.000180511
0.000180244
0.00017996
0.000179659
0.000179338
0.000178997
0.000178635
0.000178249
0.000177841
0.000177405
0.00017694
0.000176447
0.000175928
0.000175385
0.000174823
0.000174246
0.000173663
0.000173083
0.000172521
0.000171995
0.000171527
0.000171141
0.000170868
0.000170737
0.000170779
0.000171019
0.000171476
0.000172155
0.00017304
0.00017408
0.000175196
0.000176365
0.000177691
0.000179323
0.00018119
0.000183019
0.115928
0.0824754
0.0600688
0.0451289
0.035015
0.0279887
0.022959
0.0192488
0.0164341
0.0142443
0.0125024
0.0110894
0.00992345
0.0089469
0.00811821
0.0074069
0.00679021
0.00625082
0.00577539
0.00535351
0.0049769
0.00463895
0.00433429
0.00405852
0.00380799
0.00357966
0.00337096
0.00317972
0.00300404
0.00284233
0.00269318
0.00255536
0.0024278
0.00230954
0.00219975
0.00209766
0.00200262
0.00191401
0.00183131
0.00175401
0.00168169
0.00161394
0.00155041
0.00149075
0.00143466
0.00138187
0.0013321
0.00128513
0.00124075
0.00119876
0.00115901
0.00112135
0.00108563
0.00105173
0.00101952
0.000988923
0.000959849
0.000932209
0.000905866
0.000880765
0.000856855
0.000834073
0.000812339
0.000791489
0.000771546
0.000752491
0.000734273
0.000716839
0.000700139
0.000684128
0.000668551
0.000653639
0.000639355
0.000625647
0.000612473
0.000599801
0.000587603
0.000575853
0.000564527
0.000553607
0.000543044
0.000532829
0.000522959
0.000513422
0.000504205
0.000495298
0.000486694
0.000478376
0.000470327
0.000462535
0.000454986
0.00044767
0.000440574
0.00043369
0.000427008
0.000420517
0.000414207
0.000408072
0.000402105
0.0003963
0.000390652
0.000385158
0.000379815
0.000374619
0.000369567
0.000364652
0.000359869
0.000355213
0.000350678
0.000346261
0.000341955
0.000337756
0.00033366
0.000329665
0.000325765
0.000321961
0.000318249
0.000314629
0.000311102
0.000307666
0.000304322
0.000301066
0.000297897
0.00029481
0.000291802
0.00028887
0.000286011
0.00028322
0.000280495
0.000277834
0.000275235
0.000272701
0.000270232
0.000267832
0.000265508
0.000263261
0.000261093
0.000259003
0.000256989
0.000255044
0.000253164
0.00025134
0.00024957
0.000247848
0.000246173
0.000244544
0.000242962
0.000241434
0.000239966
0.000238572
0.000237261
0.000236044
0.000234921
0.000233887
0.000232934
0.000232049
0.000231218
0.00023043
0.000229673
0.00022894
0.000228223
0.000227519
0.000226822
0.000226134
0.000225452
0.000224779
0.000224118
0.000223473
0.00022285
0.000222255
0.00022167
0.000221101
0.000220556
0.000220037
0.000219543
0.000219072
0.00021862
0.000218185
0.000217761
0.000217348
0.000216941
0.000216539
0.000216141
0.000215746
0.000215353
0.000214962
0.000214576
0.000214194
0.000213819
0.000213452
0.000213096
0.000212751
0.000212421
0.000212074
0.00021174
0.000211421
0.000211115
0.00021082
0.000210535
0.000210258
0.000209987
0.000209722
0.000209461
0.000209204
0.00020895
0.0002087
0.000208452
0.000208207
0.000207967
0.00020773
0.000207499
0.000207274
0.000207054
0.000206841
0.000206635
0.000206434
0.00020624
0.000206052
0.000205868
0.00020569
0.000205515
0.000205344
0.000205175
0.000205009
0.000204845
0.000204679
0.000204512
0.000204342
0.000204173
0.000204003
0.000203835
0.000203667
0.000203501
0.000203336
0.000203173
0.000203012
0.000202852
0.000202694
0.000202536
0.00020238
0.000202224
0.000202068
0.000201911
0.000201754
0.000201596
0.000201436
0.000201273
0.000201108
0.000200939
0.000200767
0.000200591
0.000200412
0.000200228
0.00020004
0.000199847
0.000199648
0.000199443
0.00019923
0.000199009
0.000198779
0.000198538
0.000198287
0.000198023
0.000197746
0.000197454
0.000197147
0.000196822
0.000196479
0.000196115
0.00019573
0.000195322
0.000194889
0.00019443
0.000193943
0.000193427
0.00019288
0.0001923
0.000191687
0.000191045
0.000190376
0.000189684
0.000188977
0.000188263
0.000187558
0.000186878
0.000186247
0.000185693
0.000185251
0.000184958
0.000184858
0.000184992
0.000185398
0.000186104
0.000187119
0.000188419
0.000189962
0.00019174
0.000193813
0.000196213
0.000198756
0.11908
0.088417
0.0667059
0.0514827
0.0407348
0.0330163
0.0273493
0.0230889
0.0198106
0.0172328
0.0151654
0.0134778
0.0120784
0.0109016
0.00989981
0.00903768
0.00828861
0.00763227
0.0070529
0.00653815
0.00607816
0.00566505
0.00529236
0.00495482
0.00464804
0.00436835
0.00411263
0.00387825
0.00366294
0.00346472
0.00328189
0.00311297
0.00295662
0.0028117
0.00267717
0.00255211
0.0024357
0.0023272
0.00222595
0.00213136
0.00204287
0.00196001
0.00188232
0.00180939
0.00174084
0.00167633
0.00161552
0.00155814
0.00150392
0.00145264
0.00140411
0.00135814
0.00131456
0.00127321
0.00123393
0.00119664
0.00116125
0.00112762
0.00109552
0.00106497
0.00103591
0.00100824
0.000981845
0.000956396
0.000932158
0.000909042
0.000886952
0.000865815
0.000845572
0.000826168
0.000807507
0.000789574
0.000772349
0.000755799
0.000739889
0.000724583
0.000709849
0.000695657
0.000681978
0.000668789
0.000656059
0.000643764
0.000631886
0.000620405
0.000609306
0.000598572
0.000588189
0.000578142
0.000568415
0.000558993
0.000549863
0.00054101
0.000532423
0.000524088
0.000515997
0.000508137
0.000500498
0.000493071
0.000485847
0.000478818
0.000471977
0.00046532
0.000458848
0.000452553
0.000446425
0.000440458
0.000434647
0.000428984
0.000423464
0.000418082
0.000412834
0.000407713
0.000402715
0.000397837
0.000393072
0.000388418
0.000383872
0.000379431
0.000375092
0.000370855
0.000366718
0.000362679
0.000358734
0.000354882
0.000351118
0.000347441
0.000343848
0.000340335
0.000336899
0.000333536
0.000330243
0.00032702
0.000323865
0.000320779
0.000317761
0.000314812
0.000311933
0.000309124
0.000306383
0.000303708
0.000301095
0.000298543
0.00029605
0.000293614
0.000291235
0.000288909
0.000286635
0.000284412
0.000282242
0.000280125
0.000278065
0.000276065
0.000274118
0.000272229
0.000270402
0.000268638
0.000266933
0.000265283
0.000263684
0.000262132
0.000260622
0.000259153
0.000257723
0.000256332
0.000254984
0.000253684
0.000252441
0.000251263
0.000250158
0.000249139
0.000248093
0.000247116
0.000246212
0.00024537
0.000244575
0.000243818
0.000243087
0.000242378
0.000241684
0.000241
0.000240325
0.000239657
0.000238994
0.000238337
0.000237687
0.000237047
0.000236419
0.000235808
0.000235216
0.000234647
0.000234103
0.000233583
0.000233088
0.000232612
0.000232153
0.000231708
0.000231275
0.000230855
0.000230443
0.000230038
0.000229639
0.000229245
0.000228854
0.000228467
0.000228084
0.000227704
0.000227329
0.000226961
0.0002266
0.000226249
0.000225908
0.000225579
0.00022526
0.000224952
0.000224655
0.000224367
0.000224087
0.000223814
0.000223547
0.000223285
0.000223027
0.000222772
0.000222519
0.000222267
0.000222014
0.000221761
0.000221508
0.000221256
0.000221005
0.000220756
0.000220511
0.000220269
0.00022003
0.000219796
0.000219566
0.00021934
0.000219117
0.000218896
0.000218678
0.000218462
0.000218247
0.000218032
0.000217816
0.0002176
0.000217384
0.000217166
0.000216944
0.000216719
0.000216491
0.000216262
0.00021603
0.000215796
0.00021556
0.00021532
0.000215076
0.000214826
0.000214571
0.000214309
0.000214039
0.00021376
0.00021347
0.00021317
0.000212859
0.000212534
0.000212194
0.00021184
0.000211468
0.000211079
0.000210669
0.000210237
0.000209783
0.000209303
0.000208796
0.000208262
0.000207697
0.0002071
0.000206463
0.000205792
0.000205088
0.00020435
0.000203582
0.000202785
0.000201966
0.000201133
0.000200299
0.00019948
0.000198698
0.000197983
0.00019737
0.000196902
0.000196629
0.000196605
0.000196884
0.000197515
0.000198532
0.000199941
0.000201733
0.000203915
0.000206515
0.000209434
0.12153
0.0933388
0.0724858
0.0572501
0.046102
0.0378569
0.0316601
0.0269157
0.0232132
0.0202699
0.0178892
0.0159328
0.0143017
0.0129243
0.0117475
0.0107319
0.00984739
0.00907083
0.00838421
0.00777332
0.0072268
0.0067355
0.00629192
0.00588992
0.00552436
0.00519093
0.00488599
0.00460642
0.00434954
0.00411304
0.00389489
0.00369333
0.00350679
0.00333389
0.0031734
0.00302424
0.00288541
0.00275605
0.00263536
0.00252262
0.0024172
0.0023185
0.00222598
0.00213915
0.00205756
0.00198077
0.00190841
0.00184011
0.00177559
0.00171459
0.00165686
0.00160221
0.0015504
0.00150128
0.00145459
0.00141033
0.00136837
0.00132853
0.00129036
0.00125417
0.00121977
0.00118703
0.00115582
0.00112597
0.00109745
0.00107019
0.00104413
0.0010192
0.000995319
0.000972432
0.00095047
0.000929379
0.000909118
0.000889646
0.000870923
0.000852911
0.000835572
0.000818873
0.00080278
0.000787264
0.000772295
0.000757845
0.000743888
0.000730402
0.000717366
0.000704757
0.000692558
0.00068075
0.000669316
0.000658239
0.000647502
0.000637091
0.000626991
0.000617189
0.000607671
0.000598425
0.000589441
0.000580706
0.000572211
0.000563945
0.000555901
0.00054807