/*--------------------------------*- C++ -*----------------------------------*\
  =========                 |
  \\      /  F ield         | OpenFOAM: The Open Source CFD Toolbox
   \\    /   O peration     | Website:  https://openfoam.org
    \\  /    A nd           | Version:  8
     \\/     M anipulation  |
\*---------------------------------------------------------------------------*/
FoamFile
{
    version     2.0;
    format      ascii;
    class       volScalarField;
    location    "0.02";
    object      nuTilda;
}
// * * * * * * * * * * * * * * * * * * * * * * * * * * * * * * * * * * * * * //

dimensions      [0 2 -1 0 0 0 0];

internalField   nonuniform List<scalar> 
104000
(
0.0160006
0.00534893
0.00243423
0.00148022
0.00102707
0.000772493
0.000611888
0.000502367
0.000423481
0.000364265
0.000318341
0.000281774
0.000252015
0.000227351
0.000206589
0.000188877
0.000173597
0.000160319
0.000148779
0.000138842
0.000130416
0.000123317
0.000117232
0.000111844
0.000106907
0.000102258
9.77832e-05
9.33968e-05
8.90221e-05
8.45849e-05
8.00109e-05
7.52449e-05
7.03093e-05
6.54424e-05
6.10979e-05
5.75195e-05
5.45906e-05
5.2097e-05
4.98869e-05
4.78828e-05
4.60489e-05
4.4373e-05
4.2861e-05
4.15471e-05
4.04887e-05
3.97696e-05
3.9744e-05
4.05133e-05
4.13773e-05
4.21202e-05
4.26852e-05
4.30699e-05
4.32757e-05
4.33414e-05
4.32985e-05
4.31777e-05
4.30112e-05
4.28325e-05
4.26634e-05
4.25082e-05
4.23608e-05
4.22149e-05
4.20676e-05
4.1919e-05
4.17701e-05
4.16215e-05
4.14734e-05
4.13258e-05
4.11781e-05
4.10301e-05
4.08814e-05
4.07318e-05
4.0581e-05
4.0429e-05
4.02759e-05
4.01217e-05
3.99666e-05
3.9811e-05
3.96554e-05
3.9501e-05
3.93492e-05
3.92029e-05
3.90652e-05
3.8939e-05
3.88261e-05
3.87265e-05
3.86389e-05
3.85607e-05
3.84893e-05
3.84221e-05
3.83569e-05
3.82923e-05
3.8227e-05
3.81604e-05
3.80923e-05
3.80225e-05
3.79511e-05
3.78786e-05
3.78055e-05
3.77329e-05
3.76619e-05
3.75936e-05
3.75289e-05
3.74682e-05
3.74116e-05
3.73588e-05
3.73092e-05
3.72621e-05
3.72168e-05
3.71727e-05
3.71291e-05
3.70856e-05
3.7042e-05
3.6998e-05
3.69535e-05
3.69085e-05
3.68632e-05
3.68178e-05
3.67726e-05
3.67278e-05
3.66835e-05
3.66397e-05
3.65968e-05
3.65548e-05
3.65141e-05
3.64745e-05
3.64361e-05
3.63988e-05
3.63623e-05
3.63267e-05
3.62916e-05
3.62571e-05
3.62228e-05
3.61889e-05
3.61552e-05
3.61217e-05
3.60884e-05
3.60556e-05
3.60231e-05
3.59911e-05
3.59597e-05
3.59289e-05
3.58988e-05
3.58694e-05
3.58406e-05
3.58126e-05
3.57851e-05
3.57581e-05
3.57316e-05
3.57056e-05
3.56799e-05
3.56544e-05
3.56293e-05
3.56043e-05
3.55796e-05
3.55551e-05
3.55309e-05
3.55069e-05
3.54831e-05
3.54597e-05
3.54365e-05
3.54137e-05
3.53911e-05
3.5369e-05
3.53464e-05
3.53232e-05
3.52994e-05
3.52754e-05
3.52514e-05
3.52275e-05
3.52038e-05
3.51803e-05
3.5157e-05
3.51339e-05
3.51109e-05
3.5088e-05
3.50653e-05
3.50428e-05
3.50204e-05
3.49982e-05
3.49761e-05
3.49542e-05
3.49324e-05
3.49107e-05
3.48892e-05
3.48678e-05
3.48465e-05
3.48253e-05
3.48042e-05
3.47832e-05
3.47622e-05
3.47413e-05
3.47204e-05
3.46996e-05
3.46787e-05
3.46579e-05
3.4637e-05
3.46161e-05
3.45952e-05
3.45743e-05
3.45532e-05
3.45322e-05
3.4511e-05
3.44897e-05
3.44684e-05
3.44469e-05
3.44252e-05
3.44034e-05
3.43814e-05
3.43591e-05
3.43366e-05
3.43139e-05
3.42908e-05
3.42673e-05
3.42435e-05
3.42193e-05
3.41946e-05
3.41694e-05
3.41437e-05
3.41173e-05
3.40904e-05
3.40627e-05
3.40342e-05
3.4005e-05
3.39748e-05
3.39436e-05
3.39114e-05
3.38781e-05
3.38434e-05
3.38074e-05
3.377e-05
3.37309e-05
3.36901e-05
3.36475e-05
3.36028e-05
3.35559e-05
3.35067e-05
3.34549e-05
3.34003e-05
3.33427e-05
3.32819e-05
3.32175e-05
3.31492e-05
3.30768e-05
3.29998e-05
3.29178e-05
3.28304e-05
3.27371e-05
3.26373e-05
3.25305e-05
3.24159e-05
3.22929e-05
3.21605e-05
3.20178e-05
3.18637e-05
3.16971e-05
3.15166e-05
3.13207e-05
3.11076e-05
3.08753e-05
3.06216e-05
3.03436e-05
3.00385e-05
2.97024e-05
2.93312e-05
2.89199e-05
2.84624e-05
2.79515e-05
2.73794e-05
2.67474e-05
2.60427e-05
2.52486e-05
2.43463e-05
2.33184e-05
2.21452e-05
2.06777e-05
1.95578e-05
1.90422e-05
1.87555e-05
1.85195e-05
1.82926e-05
1.80672e-05
1.78819e-05
1.77083e-05
1.75242e-05
1.73187e-05
1.70783e-05
1.68105e-05
1.64839e-05
1.6014e-05
1.53095e-05
1.42639e-05
1.28553e-05
1.15101e-05
1.14001e-05
1.16641e-05
1.18134e-05
1.1591e-05
1.09629e-05
1.03757e-05
0.0648718
0.0243416
0.0118545
0.00719724
0.00499146
0.00374624
0.00295936
0.00242272
0.00203625
0.00174622
0.00152141
0.00134252
0.00119706
0.00107663
0.000975365
0.000889092
0.000814746
0.00075005
0.000693324
0.000643319
0.000598831
0.000558998
0.000523146
0.000490736
0.000461325
0.000434546
0.000410089
0.000387691
0.000367128
0.000348205
0.000330756
0.000314643
0.000299752
0.000285972
0.000273181
0.000261271
0.000250156
0.000239769
0.000230055
0.000220963
0.000212444
0.000204454
0.000196951
0.000189898
0.000183262
0.000177025
0.000171189
0.000165725
0.000160565
0.000155681
0.000151048
0.00014665
0.00014247
0.000138509
0.000134795
0.000131424
0.000128581
0.000126436
0.000124965
0.000123969
0.000123221
0.000122561
0.000121898
0.000121192
0.000120431
0.000119618
0.000118759
0.000117863
0.00011694
0.000115997
0.000115041
0.000114077
0.000113108
0.000112137
0.000111169
0.000110205
0.000109249
0.000108305
0.000107377
0.000106477
0.00010562
0.000104828
0.000104126
0.000103533
0.000103053
0.000102677
0.000102388
0.000102165
0.000101986
0.000101832
0.000101686
0.000101537
0.000101377
0.000101201
0.000101007
0.000100792
0.000100559
0.000100312
0.000100055
9.98e-05
9.95553e-05
9.93304e-05
9.91316e-05
9.89618e-05
9.88206e-05
9.87049e-05
9.861e-05
9.85304e-05
9.84607e-05
9.83957e-05
9.83311e-05
9.82634e-05
9.819e-05
9.81094e-05
9.80208e-05
9.79246e-05
9.7822e-05
9.7715e-05
9.7607e-05
9.74985e-05
9.73903e-05
9.72841e-05
9.71822e-05
9.70864e-05
9.6998e-05
9.69171e-05
9.68436e-05
9.67766e-05
9.67148e-05
9.66569e-05
9.66017e-05
9.65479e-05
9.64947e-05
9.64413e-05
9.63876e-05
9.63335e-05
9.62794e-05
9.6226e-05
9.61741e-05
9.61246e-05
9.60783e-05
9.60357e-05
9.59973e-05
9.59634e-05
9.59338e-05
9.59084e-05
9.58867e-05
9.58682e-05
9.58524e-05
9.58388e-05
9.58267e-05
9.58158e-05
9.58056e-05
9.5796e-05
9.57868e-05
9.57782e-05
9.57703e-05
9.57633e-05
9.57575e-05
9.57532e-05
9.57506e-05
9.57499e-05
9.57509e-05
9.57557e-05
9.57519e-05
9.57389e-05
9.57195e-05
9.56965e-05
9.56718e-05
9.56466e-05
9.56214e-05
9.55966e-05
9.55723e-05
9.55486e-05
9.55256e-05
9.55033e-05
9.54818e-05
9.5461e-05
9.5441e-05
9.5422e-05
9.54039e-05
9.53869e-05
9.53709e-05
9.5356e-05
9.53421e-05
9.53293e-05
9.53174e-05
9.53065e-05
9.52964e-05
9.5287e-05
9.52783e-05
9.52701e-05
9.52625e-05
9.52554e-05
9.52488e-05
9.52425e-05
9.52367e-05
9.52313e-05
9.52263e-05
9.52217e-05
9.52176e-05
9.52139e-05
9.52108e-05
9.52083e-05
9.52064e-05
9.5205e-05
9.52043e-05
9.52042e-05
9.52047e-05
9.52058e-05
9.52074e-05
9.52095e-05
9.52122e-05
9.52153e-05
9.52189e-05
9.52229e-05
9.52273e-05
9.52322e-05
9.52375e-05
9.52432e-05
9.52493e-05
9.52559e-05
9.52628e-05
9.52702e-05
9.5278e-05
9.52861e-05
9.52945e-05
9.53031e-05
9.53118e-05
9.53205e-05
9.53291e-05
9.53375e-05
9.53456e-05
9.53535e-05
9.5361e-05
9.53682e-05
9.53749e-05
9.53811e-05
9.53868e-05
9.5392e-05
9.53965e-05
9.54003e-05
9.54034e-05
9.54056e-05
9.54068e-05
9.5407e-05
9.5406e-05
9.54035e-05
9.53996e-05
9.53939e-05
9.53863e-05
9.53764e-05
9.53641e-05
9.5349e-05
9.53306e-05
9.53087e-05
9.52828e-05
9.52523e-05
9.52167e-05
9.51754e-05
9.51275e-05
9.50721e-05
9.50084e-05
9.49351e-05
9.4851e-05
9.47543e-05
9.46434e-05
9.45154e-05
9.43749e-05
9.41274e-05
9.38347e-05
9.35091e-05
9.31499e-05
9.27528e-05
9.23118e-05
9.18088e-05
9.12749e-05
9.07442e-05
9.02157e-05
8.9678e-05
8.91175e-05
8.85203e-05
8.78748e-05
8.71657e-05
8.63678e-05
8.54408e-05
8.43398e-05
8.3051e-05
8.14661e-05
7.93228e-05
7.6264e-05
7.18125e-05
6.52676e-05
5.68644e-05
5.4082e-05
5.41485e-05
5.43825e-05
5.34738e-05
5.07555e-05
4.75283e-05
0.0852083
0.0412228
0.0230487
0.0147382
0.0104088
0.00787039
0.00623971
0.00511849
0.00430716
0.00369643
0.00322203
0.00284396
0.00253621
0.00228118
0.0020666
0.00188369
0.001726
0.00158871
0.00146817
0.00136155
0.00126663
0.00118164
0.00110514
0.00103597
0.000973199
0.000916021
0.000863774
0.000815897
0.000771911
0.000731406
0.000694023
0.000659465
0.000627487
0.000597885
0.000570394
0.000544813
0.000520969
0.000498714
0.000477914
0.000458451
0.000440218
0.000423116
0.000407058
0.000391962
0.000377764
0.000364404
0.000351822
0.000339957
0.000328749
0.000318146
0.000308102
0.000298576
0.000289534
0.000280945
0.00027278
0.000265017
0.000257643
0.000250651
0.000244035
0.000237778
0.000231859
0.000226249
0.000220921
0.000215849
0.000211011
0.000206387
0.000201962
0.000197722
0.000193656
0.000189756
0.000186011
0.000182412
0.000178949
0.000175617
0.000172411
0.000169327
0.000166365
0.000163528
0.000160831
0.000158307
0.000156009
0.000154001
0.000152326
0.000150976
0.000149901
0.000149031
0.000148297
0.000147646
0.000147042
0.000146456
0.000145872
0.000145279
0.000144669
0.000144041
0.000143393
0.000142727
0.000142047
0.000141369
0.000140713
0.000140101
0.000139552
0.000139073
0.000138665
0.000138318
0.000138022
0.000137762
0.000137527
0.000137306
0.000137091
0.000136874
0.000136652
0.00013642
0.000136177
0.000135923
0.000135659
0.000135387
0.000135114
0.000134843
0.000134583
0.000134324
0.000134068
0.000133824
0.000133595
0.000133383
0.000133187
0.000133004
0.000132833
0.000132671
0.000132514
0.000132362
0.00013221
0.00013206
0.000131909
0.000131757
0.000131606
0.000131457
0.00013131
0.000131169
0.000131033
0.000130905
0.000130786
0.000130675
0.000130573
0.00013048
0.000130394
0.000130314
0.000130241
0.000130171
0.000130105
0.000130042
0.000129981
0.000129921
0.000129862
0.000129805
0.000129749
0.000129694
0.000129643
0.000129594
0.000129548
0.000129506
0.000129467
0.000129433
0.000129401
0.000129381
0.000129297
0.000129203
0.000129112
0.000129024
0.000128937
0.000128852
0.000128766
0.000128682
0.000128597
0.000128512
0.000128428
0.000128345
0.000128262
0.00012818
0.0001281
0.000128021
0.000127943
0.000127867
0.000127793
0.00012772
0.000127649
0.000127579
0.000127511
0.000127443
0.000127377
0.000127312
0.000127248
0.000127185
0.000127122
0.000127061
0.000127
0.000126939
0.000126879
0.00012682
0.000126762
0.000126704
0.000126648
0.000126592
0.000126537
0.000126483
0.000126431
0.000126379
0.000126328
0.000126279
0.00012623
0.000126182
0.000126135
0.000126089
0.000126044
0.000125999
0.000125956
0.000125913
0.000125871
0.000125829
0.000125789
0.000125749
0.00012571
0.000125672
0.000125635
0.000125599
0.000125564
0.000125529
0.000125495
0.000125461
0.000125427
0.000125394
0.00012536
0.000125327
0.000125293
0.000125259
0.000125225
0.000125192
0.000125158
0.000125124
0.000125089
0.000125055
0.00012502
0.000124986
0.000124951
0.000124916
0.000124881
0.000124845
0.00012481
0.000124773
0.000124737
0.0001247
0.000124662
0.000124624
0.000124585
0.000124545
0.000124504
0.000124462
0.00012442
0.000124376
0.00012433
0.000124284
0.000124236
0.000124186
0.000124135
0.000124083
0.000124028
0.000123971
0.000123913
0.000123851
0.000123791
0.000123721
0.000123637
0.00012354
0.00012343
0.000123309
0.000123177
0.000123035
0.000122883
0.000122724
0.000122558
0.000122388
0.000122216
0.00012204
0.000121855
0.000121657
0.000121433
0.000121168
0.000120835
0.000120413
0.000119864
0.000119111
0.000118026
0.000116458
0.000114222
0.00011121
0.000108941
0.000107925
0.000107572
0.000106406
0.000102714
9.6286e-05
0.0977217
0.0550948
0.0338745
0.0227617
0.0164684
0.0126045
0.010059
0.00828335
0.00698712
0.00600571
0.00524028
0.00462852
0.00412943
0.00371514
0.00336608
0.0030682
0.00281117
0.00258724
0.0023905
0.0022164
0.00206132
0.00192241
0.00179736
0.0016843
0.00158167
0.00148819
0.00140278
0.00132453
0.00125265
0.00118647
0.00112541
0.00106897
0.0010167
0.000968226
0.000923194
0.000881291
0.000842243
0.000805804
0.000771757
0.000739905
0.00071007
0.000682093
0.000655826
0.000631136
0.000607917
0.000586092
0.000565527
0.000546121
0.000527781
0.000510428
0.00049399
0.000478404
0.000463613
0.000449563
0.000436209
0.000423508
0.000411421
0.00039992
0.000388978
0.000378563
0.000368646
0.000359197
0.000350189
0.00034159
0.000333371
0.000325507
0.000317979
0.000310769
0.000303859
0.000297233
0.000290869
0.00028475
0.000278865
0.000273205
0.000267762
0.000262528
0.000257492
0.000252646
0.000247981
0.000243494
0.000239171
0.000235012
0.000231024
0.000227214
0.000223583
0.000220125
0.000216829
0.000213681
0.000210668
0.000207778
0.000205
0.000202324
0.000199742
0.00019725
0.000194853
0.000192537
0.000190331
0.000188282
0.000186442
0.000184845
0.000183491
0.000182348
0.000181368
0.000180502
0.000179711
0.000178964
0.000178239
0.000177524
0.000176808
0.000176087
0.000175358
0.000174621
0.000173877
0.000173131
0.000172391
0.000171668
0.000170974
0.000170321
0.000169727
0.000169089
0.000168496
0.000167957
0.000167466
0.000167011
0.000166583
0.000166174
0.000165777
0.000165388
0.000165003
0.000164619
0.000164236
0.000163853
0.000163472
0.000163095
0.000162726
0.000162368
0.000162025
0.0001617
0.000161394
0.000161108
0.000160841
0.000160591
0.000160357
0.000160135
0.000159925
0.000159722
0.000159526
0.000159334
0.000159146
0.00015896
0.000158776
0.000158594
0.000158416
0.000158241
0.000158072
0.000157909
0.000157753
0.000157605
0.000157465
0.000157334
0.00015721
0.000157093
0.000156982
0.000156879
0.000156776
0.00015667
0.000156562
0.000156452
0.000156341
0.00015623
0.000156118
0.000156006
0.000155895
0.000155785
0.000155675
0.000155567
0.00015546
0.000155356
0.000155255
0.000155156
0.000155059
0.000154965
0.000154874
0.000154785
0.000154698
0.000154613
0.000154529
0.000154447
0.000154366
0.000154286
0.000154207
0.000154128
0.000154052
0.000153976
0.000153901
0.000153827
0.000153754
0.000153683
0.000153612
0.000153544
0.000153476
0.000153411
0.000153347
0.000153285
0.000153225
0.000153166
0.000153108
0.000153052
0.000152997
0.000152944
0.000152891
0.000152839
0.000152789
0.00015274
0.000152691
0.000152644
0.000152598
0.000152553
0.000152509
0.000152466
0.000152425
0.000152385
0.000152346
0.000152308
0.000152271
0.000152235
0.000152198
0.000152161
0.000152123
0.000152085
0.000152047
0.000152008
0.000151969
0.000151929
0.000151888
0.000151848
0.000151806
0.000151764
0.000151721
0.000151678
0.000151633
0.000151588
0.000151541
0.000151494
0.000151445
0.000151395
0.000151343
0.000151289
0.000151233
0.000151175
0.000151114
0.000151051
0.000150984
0.000150914
0.00015084
0.000150763
0.000150681
0.000150594
0.000150502
0.000150405
0.000150303
0.000150194
0.000150078
0.000149956
0.000149826
0.000149689
0.000149543
0.000149389
0.000149228
0.000149058
0.000148879
0.00014869
0.00014849
0.000148275
0.000148049
0.000147816
0.000147579
0.000147343
0.000147112
0.00014689
0.000146687
0.000146508
0.000146363
0.000146258
0.000146199
0.000146188
0.00014622
0.000146286
0.00014637
0.000146444
0.000146453
0.000146316
0.000145935
0.000145152
0.000144198
0.000143575
0.000143537
0.000143675
0.000143017
0.000141383
0.105989
0.066251
0.043726
0.0306775
0.0227517
0.0176618
0.0142136
0.0117657
0.00995801
0.00857866
0.00749691
0.00662881
0.00591841
0.00532728
0.00482827
0.00440177
0.00403328
0.00371191
0.00342933
0.00317907
0.00295603
0.00275615
0.00257616
0.00241337
0.00226559
0.00213096
0.00200795
0.00189525
0.00179173
0.00169644
0.00160853
0.00152729
0.00145207
0.00138232
0.00131753
0.00125727
0.00120112
0.00114875
0.00109984
0.0010541
0.00101127
0.000971123
0.000933448
0.000898049
0.000864753
0.000833404
0.00080385
0.000775952
0.000749583
0.000724633
0.000700999
0.000678593
0.000657333
0.000637143
0.000617954
0.000599706
0.000582346
0.000565831
0.000550128
0.000535174
0.000520923
0.000507336
0.000494373
0.000481983
0.000470129
0.000458784
0.000447922
0.000437521
0.000427555
0.000417999
0.000408808
0.000399966
0.000391466
0.0003833
0.000375454
0.00036791
0.000360653
0.000353667
0.000346937
0.000340453
0.000334159
0.000328065
0.000322181
0.00031651
0.000311046
0.00030578
0.000300705
0.000295813
0.000291095
0.000286543
0.000282146
0.000277897
0.000273786
0.000269807
0.000265962
0.000262134
0.000258428
0.000254857
0.000251422
0.000248125
0.00024497
0.000241954
0.000239073
0.000236317
0.000233676
0.000231137
0.000228691
0.000226327
0.000224039
0.00022182
0.000219668
0.000217583
0.000215571
0.000213644
0.000211823
0.00021013
0.000208586
0.000207201
0.000205972
0.000204869
0.000203866
0.000202939
0.000202067
0.000201235
0.000200429
0.000199639
0.000198859
0.000198084
0.000197312
0.000196543
0.00019578
0.000195026
0.000194289
0.000193576
0.000192896
0.000192255
0.000191657
0.000191103
0.000190591
0.000190114
0.000189668
0.000189247
0.000188845
0.000188456
0.000188078
0.000187706
0.000187338
0.000186972
0.000186609
0.000186249
0.000185894
0.000185545
0.000185207
0.00018488
0.000184569
0.000184273
0.000183994
0.000183731
0.000183483
0.000183248
0.000183026
0.000182813
0.000182608
0.00018241
0.000182217
0.000182027
0.000181838
0.00018165
0.000181462
0.000181276
0.000181092
0.000180909
0.000180729
0.000180553
0.000180379
0.000180211
0.000180047
0.000179889
0.000179736
0.000179588
0.000179444
0.000179304
0.000179168
0.000179035
0.000178904
0.000178775
0.000178647
0.000178521
0.000178396
0.000178273
0.000178151
0.000178031
0.000177913
0.000177797
0.000177682
0.000177569
0.000177458
0.00017735
0.000177245
0.000177143
0.000177044
0.000176947
0.000176854
0.000176763
0.000176674
0.000176587
0.000176503
0.00017642
0.000176339
0.000176259
0.00017618
0.000176104
0.000176028
0.000175955
0.000175883
0.000175813
0.000175745
0.00017568
0.000175616
0.000175554
0.000175494
0.000175436
0.00017538
0.000175325
0.000175272
0.000175216
0.000175159
0.0001751
0.000175041
0.000174981
0.000174922
0.000174862
0.000174801
0.00017474
0.000174679
0.000174617
0.000174555
0.000174493
0.000174429
0.000174365
0.0001743
0.000174234
0.000174167
0.000174099
0.000174029
0.000173957
0.000173883
0.000173806
0.000173727
0.000173645
0.000173559
0.000173469
0.000173375
0.000173276
0.000173172
0.000173063
0.000172948
0.000172827
0.000172698
0.000172561
0.000172417
0.000172263
0.000172099
0.000171925
0.000171739
0.000171541
0.00017133
0.000171105
0.000170866
0.000170612
0.000170342
0.000170056
0.000169754
0.000169415
0.000169059
0.000168689
0.000168308
0.000167919
0.000167526
0.000167136
0.000166757
0.0001664
0.00016608
0.00016581
0.000165609
0.000165493
0.000165478
0.000165576
0.000165794
0.00016613
0.000166571
0.000167078
0.000167597
0.000168018
0.00016829
0.000168566
0.000169114
0.000170011
0.00017087
0.000171427
0.111745
0.0752164
0.0524454
0.0381795
0.0289891
0.0228379
0.0185519
0.0154507
0.0131307
0.0113439
0.00993323
0.00879549
0.00786086
0.0070808
0.00642073
0.00585546
0.00536629
0.00493912
0.00456309
0.00422977
0.00393249
0.00366591
0.00342574
0.00320845
0.00301112
0.00283133
0.00266703
0.00251649
0.00237822
0.00225094
0.00213354
0.00202505
0.00192463
0.00183152
0.00174505
0.00166464
0.00158976
0.00151993
0.00145473
0.00139378
0.00133673
0.00128328
0.00123313
0.00118604
0.00114175
0.00110005
0.00106074
0.00102364
0.000988576
0.000955403
0.000923988
0.000894214
0.000865971
0.000839158
0.000813682
0.000789465
0.000766439
0.000744537
0.00072368
0.000703803
0.000684859
0.000666799
0.000649568
0.000633078
0.000617293
0.000602191
0.000587742
0.00057391
0.000560659
0.000547953
0.000535689
0.000523904
0.0005126
0.000501752
0.000491333
0.000481315
0.000471676
0.000462395
0.000453453
0.000444838
0.000436372
0.000428219
0.000420374
0.000412812
0.000405514
0.000398467
0.000391661
0.000385088
0.000378735
0.000372592
0.000366649
0.000360895
0.000355322
0.000349919
0.000344683
0.000339592
0.00033464
0.000329828
0.000325155
0.000320619
0.000316219
0.000311953
0.000307818
0.000303812
0.00029993
0.000296166
0.000292516
0.000288973
0.000285531
0.000282186
0.000278932
0.000275766
0.000272685
0.000269688
0.000266776
0.000263952
0.00026122
0.000258586
0.000256052
0.000253617
0.000251276
0.000249024
0.000246854
0.000244757
0.000242728
0.00024076
0.00023885
0.000236993
0.000235191
0.000233446
0.000231765
0.00023016
0.000228647
0.00022724
0.00022595
0.000224777
0.000223713
0.000222743
0.000221849
0.000221013
0.000220221
0.00021946
0.00021872
0.000217994
0.000217278
0.000216569
0.000215866
0.000215169
0.000214482
0.000213809
0.000213155
0.000212528
0.000211932
0.00021137
0.000210843
0.00021035
0.000209887
0.000209452
0.000209039
0.000208644
0.000208263
0.000207892
0.000207529
0.000207171
0.000206817
0.000206467
0.000206119
0.000205776
0.000205438
0.000205108
0.000204784
0.000204467
0.000204158
0.000203858
0.000203569
0.000203292
0.000203025
0.000202768
0.00020252
0.00020228
0.000202045
0.000201816
0.000201591
0.000201369
0.000201149
0.000200931
0.000200715
0.0002005
0.000200288
0.000200078
0.000199873
0.000199671
0.000199476
0.000199281
0.000199089
0.000198901
0.000198718
0.000198541
0.00019837
0.000198205
0.000198044
0.000197888
0.000197735
0.000197586
0.000197439
0.000197296
0.000197154
0.000197015
0.000196878
0.000196743
0.00019661
0.000196481
0.000196354
0.00019623
0.00019611
0.000195993
0.00019588
0.00019577
0.000195663
0.00019556
0.000195459
0.000195362
0.000195266
0.000195172
0.000195082
0.000194974
0.000194865
0.000194758
0.000194652
0.000194548
0.000194444
0.00019434
0.000194237
0.000194134
0.000194031
0.000193929
0.000193826
0.000193724
0.000193622
0.00019352
0.000193418
0.000193315
0.000193211
0.000193106
0.000193
0.000192892
0.000192782
0.00019267
0.000192554
0.000192436
0.000192313
0.000192187
0.000192056
0.000191921
0.00019178
0.000191634
0.000191481
0.000191322
0.000191155
0.00019098
0.000190795
0.000190601
0.000190395
0.000190178
0.000189947
0.000189703
0.000189443
0.000189167
0.000188874
0.000188562
0.00018823
0.000187878
0.000187505
0.000187107
0.000186682
0.000186233
0.000185759
0.000185265
0.000184752
0.000184228
0.000183697
0.00018317
0.00018266
0.000182183
0.000181757
0.000181408
0.00018116
0.000181042
0.000181079
0.000181296
0.000181711
0.000182326
0.000183129
0.000184074
0.000185089
0.000186154
0.000187364
0.000188855
0.000190564
0.000192242
0.115928
0.0824754
0.0600688
0.0451289
0.035015
0.0279887
0.022959
0.0192488
0.0164341
0.0142443
0.0125024
0.0110894
0.00992346
0.0089469
0.00811821
0.00740691
0.00679021
0.00625082
0.0057754
0.00535352
0.00497691
0.00463897
0.00433431
0.00405854
0.00380801
0.00357969
0.00337099
0.00317975
0.00300408
0.00284238
0.00269323
0.00255542
0.00242786
0.00230961
0.00219982
0.00209775
0.00200271
0.00191411
0.00183141
0.00175413
0.00168182
0.00161408
0.00155055
0.00149091
0.00143484
0.00138205
0.0013323
0.00128535
0.00124098
0.00119901
0.00115928
0.00112163
0.00108593
0.00105205
0.00101987
0.000989288
0.000960238
0.00093262
0.000906302
0.000881226
0.000857342
0.000834587
0.000812881
0.000792059
0.000772146
0.000753122
0.000734936
0.000717534
0.000700868
0.00068489
0.000669349
0.000654473
0.000640227
0.000626557
0.000613423
0.000600792
0.000588635
0.000576926
0.000565644
0.000554768
0.00054425
0.000534081
0.000524258
0.00051477
0.000505602
0.000496745
0.000488192
0.000479925
0.000471929
0.000464191
0.000456697
0.000449435
0.000442396
0.000435569
0.000428945
0.000422513
0.000416264
0.00041019
0.000404284
0.000398542
0.000392958
0.000387528
0.00038225
0.000377121
0.000372135
0.000367287
0.000362573
0.000357986
0.000353521
0.000349173
0.000344938
0.000340811
0.000336788
0.000332866
0.00032904
0.00032531
0.000321673
0.000318129
0.000314677
0.000311318
0.00030805
0.000304871
0.000301779
0.000298769
0.000295839
0.000292984
0.000290202
0.000287489
0.000284842
0.000282259
0.000279739
0.000277282
0.000274891
0.000272569
0.000270322
0.000268151
0.000266058
0.000264042
0.000262101
0.000260228
0.000258418
0.000256665
0.000254963
0.00025331
0.000251703
0.00025014
0.000248625
0.000247161
0.000245757
0.000244424
0.000243172
0.000242009
0.000240938
0.000239952
0.000239043
0.0002382
0.000237409
0.000236658
0.000235938
0.000235241
0.000234559
0.000233889
0.000233228
0.000232574
0.000231926
0.000231288
0.000230661
0.000230049
0.000229459
0.000228895
0.000228341
0.000227802
0.000227286
0.000226795
0.000226328
0.000225882
0.000225456
0.000225044
0.000224644
0.000224253
0.000223869
0.000223489
0.000223114
0.000222741
0.00022237
0.000222002
0.000221637
0.000221277
0.000220923
0.000220578
0.000220242
0.000219917
0.000219607
0.000219281
0.000218966
0.000218666
0.000218378
0.000218101
0.000217833
0.000217573
0.000217318
0.000217069
0.000216824
0.000216583
0.000216344
0.000216109
0.000215876
0.000215646
0.000215421
0.000215199
0.000214982
0.00021477
0.000214565
0.000214365
0.000214171
0.000213984
0.000213802
0.000213625
0.000213453
0.000213286
0.000213122
0.000212962
0.000212804
0.000212648
0.000212495
0.00021234
0.000212183
0.000212024
0.000211865
0.000211707
0.000211549
0.000211392
0.000211237
0.000211083
0.00021093
0.00021078
0.00021063
0.000210482
0.000210335
0.000210189
0.000210043
0.000209897
0.000209751
0.000209604
0.000209456
0.000209307
0.000209155
0.000209001
0.000208843
0.000208682
0.000208519
0.000208351
0.00020818
0.000208005
0.000207824
0.000207639
0.000207447
0.000207249
0.000207043
0.000206828
0.000206604
0.00020637
0.000206124
0.000205866
0.000205595
0.000205308
0.000205006
0.000204687
0.000204349
0.000203991
0.000203612
0.000203209
0.000202783
0.000202331
0.000201852
0.000201345
0.000200807
0.00020024
0.000199645
0.000199026
0.000198386
0.000197732
0.000197074
0.000196423
0.000195796
0.000195214
0.000194704
0.000194296
0.000194027
0.000193935
0.000194058
0.000194431
0.000195081
0.000196017
0.000197216
0.000198641
0.000200286
0.000202208
0.000204437
0.000206804
0.11908
0.088417
0.0667059
0.0514827
0.0407348
0.0330163
0.0273493
0.0230889
0.0198106
0.0172328
0.0151654
0.0134778
0.0120784
0.0109016
0.00989982
0.00903769
0.00828861
0.00763227
0.00705291
0.00653815
0.00607817
0.00566506
0.00529237
0.00495484
0.00464806
0.00436837
0.00411265
0.00387828
0.00366296
0.00346475
0.00328193
0.003113
0.00295666
0.00281175
0.00267722
0.00255217
0.00243576
0.00232727
0.00222603
0.00213144
0.00204296
0.0019601
0.00188242
0.0018095
0.00174096
0.00167645
0.00161566
0.00155829
0.00150408
0.00145281
0.00140429
0.00135834
0.00131476
0.00127343
0.00123417
0.00119689
0.00116151
0.0011279
0.00109582
0.00106529
0.00103624
0.00100859
0.000982216
0.000956787
0.00093257
0.000909474
0.000887406
0.000866292
0.000846072
0.000826692
0.000808055
0.000790147
0.000772948
0.000756425
0.000740542
0.000725263
0.000710558
0.000696394
0.000682746
0.000669587
0.000656888
0.000644625
0.000632779
0.000621331
0.000610266
0.000599567
0.000589219
0.000579208
0.000569517
0.000560132
0.00055104
0.000542225
0.000533677
0.000525383
0.000517331
0.000509512
0.000501915
0.000494531
0.00048735
0.000480365
0.000473568
0.000466957
0.000460531
0.000454281
0.0004482
0.000442281
0.000436518
0.000430904
0.000425434
0.000420102
0.000414904
0.000409834
0.000404888
0.000400062
0.00039535
0.00039075
0.000386258
0.000381871
0.000377587
0.000373406
0.000369325
0.000365343
0.000361455
0.00035766
0.000353954
0.000350335
0.0003468
0.000343347
0.00033997
0.000336666
0.000333434
0.000330271
0.000327177
0.000324152
0.000321195
0.000318308
0.000315491
0.000312743
0.000310065
0.000307451
0.0003049
0.000302409
0.000299978
0.000297604
0.000295286
0.000293021
0.000290809
0.000288648
0.000286539
0.000284483
0.000282483
0.000280543
0.000278656
0.000276826
0.000275057
0.000273349
0.0002717
0.000270105
0.00026856
0.000267061
0.000265605
0.000264187
0.000262809
0.000261468
0.00026017
0.000258919
0.000257724
0.000256591
0.000255529
0.00025455
0.000253546
0.000252608
0.000251742
0.000250934
0.000250172
0.000249446
0.000248746
0.000248067
0.000247402
0.000246748
0.000246102
0.000245463
0.000244829
0.000244201
0.00024358
0.000242968
0.000242369
0.000241785
0.00024122
0.000240678
0.000240158
0.000239663
0.000239191
0.000238738
0.0002383
0.000237876
0.000237464
0.000237063
0.000236671
0.000236286
0.000235907
0.000235532
0.00023516
0.000234792
0.000234427
0.000234066
0.00023371
0.00023336
0.000233018
0.000232684
0.000232361
0.000232048
0.000231745
0.000231453
0.000231171
0.000230898
0.000230632
0.000230373
0.00023012
0.000229872
0.000229627
0.000229385
0.000229146
0.000228907
0.000228668
0.000228428
0.000228189
0.00022795
0.000227712
0.000227477
0.000227244
0.000227015
0.00022679
0.000226568
0.00022635
0.000226136
0.000225925
0.000225717
0.000225511
0.000225307
0.000225103
0.0002249
0.000224696
0.000224492
0.000224288
0.000224082
0.000223872
0.00022366
0.000223445
0.000223228
0.00022301
0.000222789
0.000222566
0.000222339
0.000222109
0.000221874
0.000221633
0.000221386
0.000221131
0.000220868
0.000220596
0.000220313
0.000220019
0.000219713
0.000219394
0.00021906
0.000218711
0.000218344
0.000217959
0.000217553
0.000217126
0.000216675
0.000216199
0.000215697
0.000215166
0.000214607
0.00021401
0.00021338
0.000212721
0.00021203
0.000211311
0.000210566
0.000209801
0.000209023
0.000208244
0.00020748
0.000206751
0.000206085
0.000205514
0.000205078
0.000204824
0.000204802
0.000205061
0.000205649
0.000206596
0.000207909
0.000209582
0.000211621
0.000214056
0.000216796
0.12153
0.0933388
0.0724858
0.0572501
0.046102
0.0378569
0.0316601
0.0269157
0.0232132
0.0202699
0.0178892
0.0159328
0.0143017
0.0129243
0.0117475
0.0107319
0.00984739
0.00907083
0.00838421
0.00777332
0.00722681
0.0067355
0.00629193
0.00588993
0.00552437
0.00519094
0.004886
0.00460644
0.00434956
0.00411306
0.00389492
0.00369336
0.00350682
0.00333392
0.00317344
0.00302428
0.00288546
0.0027561
0.00263541
0.00252268
0.00241726
0.00231856
0.00222605
0.00213923
0.00205764
0.00198086
0.0019085
0.00184022
0.0017757
0.00171471
0.00165699
0.00160235
0.00155054
0.00150144
0.00145476
0.00141051
0.00136856
0.00132873
0.00129058
0.00125439
0.00122001
0.00118728
0.00115609
0.00112625
0.00109774
0.0010705
0.00104446
0.00101954
0.00099568
0.000972811
0.000950866
0.000929793
0.00090955
0.000890098
0.000871394
0.000853402
0.000836084
0.000819406
0.000803335
0.00078784
0.000772894
0.000758467
0.000744534
0.000731072
0.000718059
0.000705476
0.000693302
0.00068152
0.000670113
0.000659062
0.000648353
0.00063797
0.000627898
0.000618125
0.000608636
0.00059942
0.000590466
0.000581762
0.000573298
0.000565065
0.000557053