/*--------------------------------*- C++ -*----------------------------------*\
  =========                 |
  \\      /  F ield         | OpenFOAM: The Open Source CFD Toolbox
   \\    /   O peration     | Website:  https://openfoam.org
    \\  /    A nd           | Version:  8
     \\/     M anipulation  |
\*---------------------------------------------------------------------------*/
FoamFile
{
    version     2.0;
    format      ascii;
    class       surfaceScalarField;
    location    "0.02";
    object      phi;
}
// * * * * * * * * * * * * * * * * * * * * * * * * * * * * * * * * * * * * * //

dimensions      [0 3 -1 0 0 0 0];

internalField   nonuniform List<scalar> 
206740
(
0.00201631
-0.00145691
0.00283642
-0.000820218
0.00317163
-0.000335416
0.00324371
-7.22138e-05
0.00320656
3.69478e-05
0.00314232
6.42636e-05
0.00307675
6.56511e-05
0.00301486
6.2153e-05
0.00295747
5.7646e-05
0.00290468
5.30746e-05
0.00285599
4.89061e-05
0.00281089
4.52984e-05
0.00276886
4.21659e-05
0.00272953
3.94404e-05
0.00269254
3.7057e-05
0.0026576
3.49598e-05
0.00262449
3.31083e-05
0.00259299
3.14477e-05
0.00256296
2.99727e-05
0.00253419
2.86537e-05
0.00250656
2.75192e-05
0.00247988
2.652e-05
0.00245408
2.56586e-05
0.00242902
2.48681e-05
0.00240468
2.41725e-05
0.00238094
2.35255e-05
0.00235778
2.2972e-05
0.00233508
2.24692e-05
0.00231283
2.20629e-05
0.00229088
2.17008e-05
0.00226927
2.14144e-05
0.00224791
2.11176e-05
0.00222689
2.08132e-05
0.00220618
2.04628e-05
0.00218579
2.01819e-05
0.00216559
1.99528e-05
0.00214559
1.97997e-05
0.00212571
1.96377e-05
0.00210602
1.94922e-05
0.00208647
1.93091e-05
0.00206714
1.91385e-05
0.00204797
1.89386e-05
0.00202903
1.87588e-05
0.00201025
1.85566e-05
0.00199169
1.83761e-05
0.00197331
1.81722e-05
0.00195514
1.80033e-05
0.0019371
1.78351e-05
0.00191924
1.7702e-05
0.00190148
1.75625e-05
0.00188388
1.74517e-05
0.00186637
1.73267e-05
0.00184901
1.72181e-05
0.00183177
1.70759e-05
0.00181472
1.69097e-05
0.00179792
1.6645e-05
0.00178152
1.62712e-05
0.00176564
1.5732e-05
0.00175044
1.5077e-05
0.00173597
1.43302e-05
0.00172227
1.35879e-05
0.00170926
1.28755e-05
0.00169691
1.22545e-05
0.00168507
1.17123e-05
0.0016737
1.12752e-05
0.00166267
1.09103e-05
0.00165195
1.06302e-05
0.00164145
1.03984e-05
0.00163114
1.02256e-05
0.00162096
1.0079e-05
0.00161091
9.97081e-06
0.00160095
9.87324e-06
0.00159108
9.80031e-06
0.00158126
9.72829e-06
0.00157152
9.67168e-06
0.00156184
9.60913e-06
0.00155222
9.55426e-06
0.00154266
9.48652e-06
0.00153319
9.41687e-06
0.0015238
9.32352e-06
0.00151453
9.21333e-06
0.0015054
9.0632e-06
0.00149648
8.87901e-06
0.00148777
8.64301e-06
0.00147936
8.36932e-06
0.00147125
8.05326e-06
0.00146349
7.71921e-06
0.00145607
7.37039e-06
0.001449
7.03228e-06
0.00144224
6.70646e-06
0.00143579
6.41236e-06
0.0014296
6.14585e-06
0.00142365
5.91906e-06
0.00141789
5.7227e-06
0.00141229
5.56331e-06
0.00140682
5.42848e-06
0.00140147
5.32174e-06
0.00139621
5.22964e-06
0.00139103
5.15344e-06
0.00138591
5.07885e-06
0.00138088
5.00623e-06
0.00137593
4.92298e-06
0.00137107
4.83188e-06
0.00136632
4.72509e-06
0.00136169
4.60969e-06
0.00135718
4.48238e-06
0.0013528
4.35284e-06
0.00134856
4.21971e-06
0.00134445
4.09254e-06
0.00134046
3.96954e-06
0.00133658
3.85852e-06
0.0013328
3.75621e-06
0.00132912
3.66829e-06
0.0013255
3.59011e-06
0.00132196
3.52555e-06
0.00131848
3.46894e-06
0.00131504
3.42287e-06
0.00131164
3.38114e-06
0.00130828
3.34505e-06
0.00130496
3.3084e-06
0.00130167
3.2743e-06
0.00129841
3.23785e-06
0.0012952
3.20134e-06
0.00129203
3.16006e-06
0.0012889
3.11699e-06
0.00128582
3.06867e-06
0.00128279
3.01895e-06
0.00127981
2.96541e-06
0.00127689
2.91234e-06
0.00127402
2.85769e-06
0.0012712
2.80562e-06
0.00126844
2.75397e-06
0.00126572
2.70636e-06
0.00126305
2.66028e-06
0.00126043
2.61865e-06
0.00125784
2.57847e-06
0.00125529
2.54205e-06
0.00125278
2.50603e-06
0.0012503
2.47234e-06
0.00124785
2.43767e-06
0.00124544
2.40396e-06
0.00124307
2.36818e-06
0.00124073
2.33259e-06
0.00123843
2.29464e-06
0.00123616
2.25685e-06
0.00123394
2.21711e-06
0.00123176
2.17816e-06
0.00122962
2.13812e-06
0.00122751
2.09973e-06
0.00122545
2.06121e-06
0.00122342
2.02514e-06
0.00122142
1.98965e-06
0.00121946
1.95706e-06
0.00121753
1.92531e-06
0.00121564
1.89644e-06
0.00121376
1.86823e-06
0.00121192
1.84247e-06
0.0012101
1.81693e-06
0.00120831
1.79332e-06
0.00120653
1.76953e-06
0.00120479
1.74741e-06
0.00120306
1.72526e-06
0.00120135
1.70549e-06
0.00119967
1.68581e-06
0.001198
1.66976e-06
0.00119634
1.6585e-06
0.00119468
1.65285e-06
0.00119303
1.64918e-06
0.00119139
1.6476e-06
0.00118974
1.64537e-06
0.0011881
1.64341e-06
0.00118646
1.63974e-06
0.00118483
1.63582e-06
0.0011832
1.63015e-06
0.00118157
1.6243e-06
0.00117996
1.61695e-06
0.00117835
1.60969e-06
0.00117675
1.60119e-06
0.00117516
1.59299e-06
0.00117358
1.5838e-06
0.00117201
1.57505e-06
0.00117044
1.56551e-06
0.00116889
1.55655e-06
0.00116734
1.547e-06
0.00116581
1.53819e-06
0.00116428
1.52903e-06
0.00116277
1.5208e-06
0.00116126
1.51247e-06
0.00115976
1.50529e-06
0.00115826
1.49826e-06
0.00115677
1.49255e-06
0.00115529
1.4872e-06
0.00115381
1.48328e-06
0.00115234
1.47986e-06
0.00115086
1.47798e-06
0.00114939
1.47674e-06
0.00114792
1.4771e-06
0.00114644
1.47822e-06
0.00114497
1.48098e-06
0.00114349
1.48458e-06
0.001142
1.48986e-06
0.00114051
1.49606e-06
0.00113901
1.50399e-06
0.00113751
1.51298e-06
0.00113599
1.52379e-06
0.00113446
1.53583e-06
0.00113291
1.54986e-06
0.00113135
1.56536e-06
0.00112978
1.58306e-06
0.00112818
1.60255e-06
0.00112656
1.6245e-06
0.00112492
1.64858e-06
0.00112325
1.67544e-06
0.00112155
1.70481e-06
0.00111982
1.7373e-06
0.00111805
1.77272e-06
0.00111625
1.81161e-06
0.0011144
1.85389e-06
0.00111251
1.90007e-06
0.00111056
1.95012e-06
0.00110857
2.00455e-06
0.00110651
2.06342e-06
0.00110439
2.12722e-06
0.0011022
2.19611e-06
0.00109994
2.27056e-06
0.00109759
2.35084e-06
0.00109516
2.43751e-06
0.00109264
2.53104e-06
0.00109001
2.63193e-06
0.00108728
2.74078e-06
0.00108443
2.85809e-06
0.00108145
2.98455e-06
0.00107833
3.12067e-06
0.00107507
3.26725e-06
0.00107166
3.42483e-06
0.00106807
3.59436e-06
0.0010643
3.77641e-06
0.00106033
3.9721e-06
0.00105616
4.18209e-06
0.00105176
4.4077e-06
0.00104711
4.64966e-06
0.00104221
4.90952e-06
0.00103703
5.18814e-06
0.00103155
5.48731e-06
0.00102575
5.80801e-06
0.0010196
6.15232e-06
0.00101309
6.52138e-06
0.00100618
6.91758e-06
0.000998839
7.34226e-06
0.000991047
7.79814e-06
0.000982766
8.28677e-06
0.000973961
8.81123e-06
0.000964593
9.37331e-06
0.000954622
9.97647e-06
0.000944005
1.06228e-05
0.000932694
1.1316e-05
0.000920641
1.20584e-05
0.000907791
1.28543e-05
0.00089409
1.3706e-05
0.000879477
1.4618e-05
0.000863888
1.55929e-05
0.000847257
1.66351e-05
0.000829513
1.77471e-05
0.000810584
1.89331e-05
0.000790392
2.01951e-05
0.000768858
2.15368e-05
0.0007459
2.296e-05
0.000721436
2.4467e-05
0.000695375
2.60628e-05
0.000667621
2.77561e-05
0.000638088
2.95347e-05
0.000606717
3.1373e-05
0.000573474
3.32437e-05
0.000538356
3.5119e-05
0.000501398
3.69597e-05
0.000462677
3.87216e-05
0.000422321
4.03574e-05
0.000380511
4.18105e-05
0.000337499
4.30117e-05
0.000293609
4.38903e-05
0.00024923
4.43781e-05
0.000204813
4.44156e-05
0.000160855
4.39561e-05
0.000117877
4.2974e-05
7.64006e-05
4.14705e-05
3.68853e-05
3.9508e-05
-5.13267e-07
3.73909e-05
-3.48614e-05
3.4346e-05
-6.53807e-05
3.05244e-05
-9.2636e-05
2.72654e-05
-0.000117553
2.49365e-05
-0.000141185
2.36548e-05
-0.000163144
2.19902e-05
-0.00018178
1.86608e-05
-0.000193624
1.18721e-05
-0.0001939
2.92611e-07
-0.000183262
-1.05982e-05
-0.000167153
-1.60603e-05
-0.000153698
-1.34408e-05
6.58876e-06
-0.000160544
0.00206203
-0.00166229
0.00237443
-0.0011327
0.00258366
-0.000544777
0.00271181
-0.000200527
0.00278093
-3.2329e-05
0.00280826
3.68215e-05
0.00281089
6.29708e-05
0.00280093
7.21031e-05
0.00278471
7.38732e-05
0.00276547
7.23212e-05
0.00274495
6.94224e-05
0.00272414
6.60867e-05
0.00270357
6.26964e-05
0.00268354
5.94187e-05
0.00266419
5.63299e-05
0.0026456
5.34581e-05
0.00262779
5.08046e-05
0.00261074
4.8361e-05
0.00259445
4.61164e-05
0.00257887
4.40698e-05
0.00256399
4.22188e-05
0.00254977
4.05531e-05
0.00253618
3.90472e-05
0.00252316
3.76785e-05
0.00251068
3.64263e-05
0.0024987
3.5282e-05
0.0024872
3.42366e-05
0.00247615
3.32882e-05
0.00246554
3.24292e-05
0.00245534
3.16551e-05
0.00244556
3.09503e-05
0.00243614
3.02969e-05
0.00242703
2.96699e-05
0.00241817
2.90799e-05
0.00240955
2.85559e-05
0.00240115
2.81141e-05
0.00239297
2.77331e-05
0.00238498
2.7392e-05
0.00237716
2.70702e-05
0.00236947
2.67627e-05
0.00236191
2.64629e-05
0.00235445
2.6174e-05
0.00234709
2.58926e-05
0.00233981
2.56231e-05
0.00233261
2.53623e-05
0.00232545
2.51148e-05
0.00231837
2.48839e-05
0.00231133
2.46723e-05
0.00230437
2.44687e-05
0.00229747
2.42741e-05
0.00229065
2.40845e-05
0.0022839
2.39014e-05
0.00227723
2.37165e-05
0.00227061
2.35248e-05
0.00226404
2.33105e-05
0.00225747
2.30623e-05
0.00225082
2.27636e-05
0.002244
2.24057e-05
0.00223696
2.19791e-05
0.00222966
2.14926e-05
0.00222215
2.09626e-05
0.00221448
2.04177e-05
0.00220672
1.98804e-05
0.00219895
1.93727e-05
0.0021912
1.89042e-05
0.00218352
1.84831e-05
0.00217593
1.81078e-05
0.00216845
1.7778e-05
0.00216108
1.74873e-05
0.00215384
1.72327e-05
0.00214671
1.70067e-05
0.00213969
1.68064e-05
0.00213277
1.66251e-05
0.00212596
1.64607e-05
0.00211925
1.63074e-05
0.00211262
1.61632e-05
0.00210607
1.60222e-05
0.00209961
1.58816e-05
0.00209322
1.5734e-05
0.00208691
1.55739e-05
0.00208067
1.53919e-05
0.00207449
1.5182e-05
0.00206837
1.4937e-05
0.00206231
1.46564e-05
0.00205628
1.43408e-05
0.00205029
1.39975e-05
0.00204432
1.36337e-05
0.00203838
1.32607e-05
0.00203248
1.28873e-05
0.00202662
1.25238e-05
0.00202082
1.21767e-05
0.00201507
1.18526e-05
0.0020094
1.15537e-05
0.0020038
1.12827e-05
0.00199829
1.1038e-05
0.00199286
1.08184e-05
0.00198753
1.06201e-05
0.00198229
1.04397e-05
0.00197714
1.02715e-05
0.00197208
1.01106e-05
0.00196711
9.95096e-06
0.00196222
9.78893e-06
0.0019574
9.6207e-06
0.00195266
9.44588e-06
0.00194798
9.26412e-06
0.00194336
9.07798e-06
0.00193881
8.88931e-06
0.0019343
8.70189e-06
0.00192986
8.518e-06
0.00192547
8.34107e-06
0.00192114
8.17259e-06
0.00191686
8.0148e-06
0.00191265
7.86794e-06
0.00190849
7.73292e-06
0.00190439
7.60878e-06
0.00190035
7.49533e-06
0.00189637
7.39067e-06
0.00189244
7.29407e-06
0.00188857
7.20243e-06
0.00188476
7.11444e-06
0.00188099
7.02902e-06
0.00187727
6.94521e-06
0.0018736
6.86092e-06
0.00186998
6.77566e-06
0.0018664
6.68837e-06
0.00186286
6.59951e-06
0.00185936
6.50887e-06
0.0018559
6.41756e-06
0.00185248
6.32585e-06
0.0018491
6.23507e-06
0.00184576
6.14553e-06
0.00184245
6.05845e-06
0.00183917
5.97388e-06
0.00183594
5.89267e-06
0.00183274
5.81444e-06
0.00182957
5.73951e-06
0.00182644
5.66703e-06
0.00182335
5.59694e-06
0.00182029
5.52813e-06
0.00181727
5.46042e-06
0.00181428
5.39281e-06
0.00181132
5.32532e-06
0.00180839
5.25724e-06
0.0018055
5.18891e-06
0.00180264
5.11995e-06
0.0017998
5.05102e-06
0.001797
4.98196e-06
0.00179422
4.91361e-06
0.00179148
4.84593e-06
0.00178876
4.77976e-06
0.00178607
4.71504e-06
0.00178341
4.65248e-06
0.00178078
4.59186e-06
0.00177817
4.53367e-06
0.00177559
4.47748e-06
0.00177304
4.42358e-06
0.00177051
4.37138e-06
0.00176801
4.32108e-06
0.00176554
4.27207e-06
0.00176309
4.22461e-06
0.00176066
4.17828e-06
0.00175826
4.13365e-06
0.00175587
4.09133e-06
0.00175351
4.05233e-06
0.00175117
4.01732e-06
0.00174885
3.98725e-06
0.00174654
3.96039e-06
0.00174426
3.93612e-06
0.001742
3.91344e-06
0.00173976
3.89207e-06
0.00173754
3.87114e-06
0.00173533
3.85066e-06
0.00173315
3.83007e-06
0.00173097
3.80963e-06
0.00172882
3.78892e-06
0.00172667
3.76829e-06
0.00172454
3.74744e-06
0.00172242
3.72673e-06
0.00172032
3.70589e-06
0.00171822
3.68529e-06
0.00171614
3.66467e-06
0.00171407
3.64442e-06
0.00171201
3.62433e-06
0.00170996
3.60477e-06
0.00170792
3.58558e-06
0.00170589
3.56718e-06
0.00170387
3.54941e-06
0.00170186
3.5327e-06
0.00169986
3.51694e-06
0.00169786
3.50252e-06
0.00169588
3.48932e-06
0.0016939
3.47772e-06
0.00169192
3.46754e-06
0.00168995
3.45913e-06
0.00168799
3.45236e-06
0.00168603
3.44759e-06
0.00168407
3.44466e-06
0.00168211
3.44389e-06
0.00168016
3.44515e-06
0.00167821
3.44873e-06
0.00167625
3.45451e-06
0.0016743
3.46278e-06
0.00167234
3.47346e-06
0.00167037
3.48686e-06
0.00166841
3.50293e-06
0.00166643
3.52202e-06
0.00166445
3.54415e-06
0.00166245
3.56967e-06
0.00166045
3.59866e-06
0.00165843
3.63152e-06
0.0016564
3.66835e-06
0.00165435
3.70957e-06
0.00165228
3.75535e-06
0.00165019
3.80613e-06
0.00164808
3.86211e-06
0.00164594
3.92375e-06
0.00164377
3.99133e-06
0.00164157
4.06532e-06
0.00163934
4.14606e-06
0.00163707
4.23408e-06
0.00163475
4.32978e-06
0.0016324
4.43375e-06
0.00162999
4.54648e-06
0.00162753
4.66861e-06
0.00162501
4.80072e-06
0.00162243
4.94352e-06
0.00161978
5.09782e-06
0.00161706
5.26453e-06
0.00161426
5.44453e-06
0.00161138
5.63879e-06
0.0016084
5.84835e-06
0.00160532
6.07424e-06
0.00160214
6.31766e-06
0.00159884
6.57979e-06
0.00159541
6.86199e-06
0.00159185
7.16559e-06
0.00158815
7.49219e-06
0.00158429
7.84332e-06
0.00158026
8.22083e-06
0.00157606
8.62651e-06
0.00157166
9.0625e-06
0.00156705
9.53089e-06
0.00156222
1.00342e-05
0.00155714
1.05748e-05
0.0015518
1.11557e-05
0.00154619
1.17797e-05
0.00154027
1.24502e-05
0.00153403
1.31704e-05
0.00152744
1.39445e-05
0.00152047
1.47762e-05
0.0015131
1.56702e-05
0.0015053
1.66309e-05
0.00149702
1.76638e-05
0.00148823
1.87742e-05
0.0014789
1.99681e-05
0.00146897
2.12517e-05
0.00145841
2.26322e-05
0.00144716
2.41165e-05
0.00143516
2.57128e-05
0.00142236
2.74291e-05
0.00140869
2.92744e-05
0.00139408
3.12578e-05
0.00137844
3.33892e-05
0.00136171
3.56784e-05
0.00134378
3.81361e-05
0.00132455
4.07725e-05
0.00130392
4.35984e-05
0.00128177
4.66281e-05
0.00125797
4.98698e-05
0.00123241
5.33292e-05
0.00120494
5.70133e-05
0.0011754
6.09147e-05
0.00114364
6.50166e-05
0.00110947
6.92922e-05
0.00107274
7.37033e-05
0.00103327
7.81975e-05
0.000990926
8.27072e-05
0.000945602
8.71427e-05
0.00089723
9.13918e-05
0.000845806
9.53216e-05
0.000791409
9.87831e-05
0.000734215
0.000101617
0.000674514
0.000103665
0.000612713
0.000104783
0.000549344
0.000104847
0.000485048
0.000103813
0.000420892
0.000101556
0.000357422
9.78273e-05
0.000294893
9.30656e-05
0.000234119
8.80557e-05
0.000175791
8.32838e-05
0.000120718
7.87549e-05
6.9727e-05
7.3011e-05
2.38605e-05
6.45642e-05
-1.68222e-05
5.25854e-05
-5.41371e-05
3.76397e-05
-8.66544e-05
2.19689e-05
-0.000111177
8.51014e-06
-0.000128339
3.74848e-06
2.18856e-05
-0.000143752
0.00208895
-0.00159461
0.0021588
-0.00120255
0.00230931
-0.000695309
0.00244443
-0.000335663
0.00254007
-0.000128001
0.00259734
-2.04542e-05
0.00262715
3.31737e-05
0.00263989
5.94266e-05
0.00264231
7.15208e-05
0.00263852
7.61959e-05
0.00263103
7.69946e-05
0.0026214
7.57906e-05
0.00261061
7.35555e-05
0.00259926
7.08256e-05
0.00258775
6.78984e-05
0.00257631
6.49432e-05
0.00256509
6.20555e-05
0.00255419
5.92833e-05
0.00254366
5.66607e-05
0.00253353
5.42007e-05
0.00252382
5.19228e-05
0.00251453
4.98187e-05
0.00250568
4.78882e-05
0.00249721
4.6106e-05
0.00248914
4.44696e-05
0.00248142
4.29558e-05
0.00247405
4.15689e-05
0.00246699
4.02883e-05
0.00246025
3.91208e-05
0.0024538
3.80435e-05
0.00244763
3.70602e-05
0.00244172
3.61409e-05
0.00243604
3.52865e-05
0.00243056
3.4482e-05
0.00242529
3.37596e-05
0.00242022
3.3113e-05
0.00241533
3.25494e-05
0.00241061
3.20359e-05
0.00240604
3.15727e-05
0.00240158
3.11335e-05
0.00239725
3.07273e-05
0.00239301
3.03355e-05
0.00238886
2.9971e-05
0.00238479
2.9618e-05
0.00238079
2.92909e-05
0.00237685
2.89749e-05
0.00237298
2.86861e-05
0.00236917
2.84099e-05
0.00236542
2.81554e-05
0.00236171
2.79053e-05
0.00235807
2.76695e-05
0.00235447
2.7432e-05
0.00235092
2.72009e-05
0.00234742
2.69584e-05
0.00234397
2.67092e-05
0.00234053
2.64355e-05
0.0023371
2.61439e-05
0.00233362
2.58194e-05
0.00233008
2.54688e-05
0.00232644
2.50813e-05
0.00232268
2.4673e-05
0.0023188
2.42454e-05
0.00231482
2.38208e-05
0.00231074
2.34015e-05
0.00230659
2.3005e-05
0.0023024
2.26283e-05
0.00229819
2.22824e-05
0.00229396
2.19598e-05
0.00228975
2.16673e-05
0.00228554
2.13954e-05
0.00228137
2.11485e-05
0.00227722
2.09169e-05
0.00227311
2.07044e-05
0.00226903
2.05017e-05
0.002265
2.03121e-05
0.002261
2.01268e-05
0.00225705
1.99485e-05
0.00225313
1.9768e-05
0.00224925
1.95867e-05
0.0022454
1.93952e-05
0.00224157
1.9194e-05
0.00223776
1.89745e-05
0.00223393
1.8738e-05
0.00223009
1.8478e-05
0.00222621
1.81986e-05
0.00222228
1.78976e-05
0.00221832
1.7583e-05
0.0022143
1.72566e-05
0.00221024
1.69283e-05
0.00220614
1.66008e-05
0.00220202
1.62831e-05
0.00219788
1.59762e-05
0.00219373
1.56863e-05
0.00218958
1.54122e-05
0.00218545
1.51568e-05
0.00218133
1.49161e-05
0.00217725
1.46906e-05
0.0021732
1.44744e-05
0.00216919
1.42665e-05
0.00216523
1.40608e-05
0.00216131
1.38572e-05
0.00215743
1.36513e-05
0.0021536
1.34445e-05
0.0021498
1.32345e-05
0.00214603
1.3024e-05
0.00214228
1.28121e-05
0.00213856
1.26024e-05
0.00213485
1.23948e-05
0.00213117
1.21928e-05
0.0021275
1.19964e-05
0.00212386
1.18085e-05
0.00212023
1.16285e-05
0.00211664
1.14584e-05
0.00211306
1.12968e-05
0.00210952
1.11446e-05
0.00210601
1.09996e-05
0.00210253
1.08623e-05
0.00209908
1.07305e-05
0.00209567
1.06043e-05
0.0020923
1.04811e-05
0.00208896
1.0361e-05
0.00208565
1.02414e-05
0.00208239
1.01228e-05
0.00207915
1.00036e-05
0.00207595
9.88493e-06
0.00207278
9.76583e-06
0.00206963
9.64756e-06
0.00206651
9.52951e-06
0.00206342
9.41314e-06
0.00206035
9.29794e-06
0.00205731
9.18533e-06
0.00205428
9.07476e-06
0.00205129
8.96741e-06
0.00204831
8.86252e-06
0.00204536
8.76092e-06
0.00204243
8.66152e-06
0.00203953
8.5648e-06
0.00203665
8.46949e-06
0.0020338
8.37593e-06
0.00203097
8.28289e-06
0.00202817
8.19081e-06
0.0020254
8.09868e-06
0.00202264
8.00717e-06
0.00201991
7.91553e-06
0.0020172
7.82461e-06
0.00201452
7.73386e-06
0.00201185
7.64426e-06
0.00200921
7.5554e-06
0.00200658
7.46826e-06
0.00200398
7.38246e-06
0.00200139
7.29892e-06
0.00199882
7.21717e-06
0.00199627
7.13797e-06
0.00199374
7.06068e-06
0.00199123
6.98588e-06
0.00198874
6.91283e-06
0.00198627
6.84197e-06
0.00198382
6.77256e-06
0.00198138
6.70505e-06
0.00197897
6.63881e-06
0.00197657
6.57447e-06
0.00197419
6.51154e-06
0.00197183
6.45192e-06
0.00196948
6.39486e-06
0.00196716
6.34029e-06
0.00196486
6.28882e-06
0.00196258
6.24102e-06
0.00196031
6.19599e-06
0.00195807
6.15372e-06
0.00195585
6.11315e-06
0.00195365
6.07428e-06
0.00195146
6.03633e-06
0.00194929
5.99954e-06
0.00194714
5.96329e-06
0.001945
5.92793e-06
0.00194287
5.89293e-06
0.00194076
5.85871e-06
0.00193867
5.82483e-06
0.00193658
5.79171e-06
0.00193451
5.75898e-06
0.00193244
5.72708e-06
0.00193039
5.6957e-06
0.00192835
5.66531e-06
0.00192632
5.63564e-06
0.0019243
5.60718e-06
0.00192229
5.57971e-06
0.00192029
5.55373e-06
0.00191829
5.52905e-06
0.0019163
5.50617e-06
0.00191432
5.48492e-06
0.00191235
5.46575e-06
0.00191038
5.44849e-06
0.00190841
5.43352e-06
0.00190645
5.42064e-06
0.0019045
5.4103e-06
0.00190254
5.40238e-06
0.00190059
5.39727e-06
0.00189864
5.39482e-06
0.00189669
5.39541e-06
0.00189474
5.39892e-06
0.00189279
5.40573e-06
0.00189084
5.41576e-06
0.00188889
5.4294e-06
0.00188693
5.44664e-06
0.00188497
5.4679e-06
0.001883
5.49323e-06
0.00188102
5.52308e-06
0.00187904
5.55756e-06
0.00187704
5.59716e-06
0.00187503
5.64206e-06
0.00187301
5.69275e-06
0.00187097
5.74948e-06
0.00186892
5.81277e-06
0.00186684
5.88294e-06
0.00186474
5.96053e-06
0.00186262
6.04594e-06
0.00186048
6.13976e-06
0.0018583
6.24246e-06
0.0018561
6.3547e-06
0.00185386
6.47704e-06
0.00185158
6.61022e-06
0.00184926
6.75491e-06
0.0018469
6.91194e-06
0.00184448
7.08213e-06
0.00184202
7.26635e-06
0.0018395
7.46553e-06
0.00183692
7.68088e-06
0.00183427
7.91359e-06
0.00183156
8.16487e-06
0.00182876
8.43603e-06
0.00182588
8.72846e-06
0.00182292
9.04364e-06
0.00181985
9.38314e-06
0.00181669
9.7487e-06
0.00181341
1.01421e-05
0.00181001
1.05653e-05
0.00180648
1.10205e-05
0.00180282
1.15098e-05
0.00179901
1.20357e-05
0.00179503
1.2601e-05
0.00179089
1.32082e-05
0.00178656
1.38607e-05
0.00178204
1.45615e-05
0.0017773
1.53143e-05
0.00177233
1.61229e-05
0.00176712
1.69916e-05
0.00176165
1.79245e-05
0.0017559
1.89268e-05
0.00174984
2.00035e-05
0.00174346
2.11603e-05
0.00173673
2.24031e-05
0.00172962
2.37388e-05
0.00172211
2.5174e-05
0.00171417
2.67168e-05
0.00170576
2.8375e-05
0.00169686
3.01578e-05
0.00168742
3.20745e-05
0.0016774
3.41354e-05
0.00166676
3.63514e-05
0.00165546
3.87346e-05
0.00164343
4.12971e-05
0.00163064
4.40527e-05
0.00161701
4.70153e-05
0.00160249
5.02003e-05
0.00158701
5.36229e-05
0.00157048
5.73002e-05
0.00155283
6.12482e-05
0.00153397
6.54864e-05
0.00151381
7.00292e-05
0.00149225
7.48911e-05
0.00146917
8.00873e-05
0.00144446
8.56259e-05
0.00141797
9.1505e-05
0.00138955
9.77142e-05
0.00135902
0.000104231
0.0013262
0.000111019
0.00129088
0.000118024
0.00125286
0.000125169
0.0012119
0.00013235
0.00116779
0.000139429
0.00112033
0.000146239
0.00106937
0.00015258
0.00101481
0.000158226
0.000956651
0.000162939
0.000895024
0.000166472
0.00083023
0.000168605
0.000762676
0.000169109
0.00069278
0.00016772
0.000621363
0.000164481
0.000549672
0.000159745
0.000479065
0.00015389
0.000410759
0.00014706
0.000345127
0.000138643
0.000281741
0.000127947
0.000220314
0.000114008
0.000161075
9.68735e-05
0.00010513
7.79216e-05
5.4536e-05
5.91221e-05
1.33424e-05
4.4944e-05
4.78194e-05
-1.2722e-05
0.00215979
-0.0014739
0.00213328
-0.00117606
0.00220646
-0.000768536
0.0023074
-0.000436688
0.00239492
-0.000215622
0.00245753
-8.31595e-05
0.00249792
-7.29114e-06
0.00252206
3.52261e-05
0.00253508
5.84528e-05
0.00254067
7.05569e-05
0.00254138
7.62436e-05
0.00253891
7.82065e-05
0.00253441
7.79953e-05
0.00252866
7.65229e-05
0.00252215
7.43385e-05
0.00251524
7.17781e-05
0.00250817
6.9048e-05
0.00250108
6.62772e-05
0.0024941
6.35467e-05
0.00248729
6.09109e-05
0.0024807
5.84038e-05
0.00247436
5.60442e-05
0.00246829
5.38369e-05
0.00246249
5.17795e-05
0.00245697
4.98657e-05
0.0024517
4.80892e-05
0.00244668
4.64429e-05
0.00244191
4.49209e-05
0.00243737
4.35153e-05
0.00243305
4.22185e-05
0.00242894
4.10199e-05
0.00242502
3.99084e-05
0.00242128
3.88726e-05
0.00241769
3.79121e-05
0.00241426
3.70343e-05
0.00241098
3.62453e-05
0.00240783
3.55377e-05
0.00240481
3.48992e-05
0.00240191
3.43155e-05
0.00239911
3.37773e-05
0.00239641
3.32763e-05
0.00239379
3.28086e-05
0.00239123
3.23697e-05
0.00238875
3.19585e-05
0.00238632
3.15723e-05
0.00238394
3.12107e-05
0.00238161
3.0872e-05
0.00237932
3.05561e-05
0.00237708
3.02582e-05
0.00237488
2.99746e-05
0.00237271
2.97004e-05
0.00237059
2.94329e-05
0.00236849
2.9167e-05
0.00236643
2.88986e-05
0.0023644
2.86215e-05
0.00236239
2.8332e-05
0.00236039
2.80265e-05
0.00235839
2.77052e-05
0.00235639
2.73665e-05
0.00235435
2.70123e-05
0.00235228
2.66452e-05
0.00235016
2.62725e-05
0.00234798
2.59008e-05
0.00234575
2.55378e-05
0.00234348
2.51878e-05
0.00234117
2.48553e-05
0.00233882
2.45414e-05
0.00233646
2.42474e-05
0.00233407
2.39719e-05
0.00233168
2.37145e-05
0.00232928
2.34725e-05
0.00232689
2.32446e-05
0.00232449
2.3028e-05
0.00232211
2.28212e-05
0.00231974
2.26215e-05
0.00231738
2.24273e-05
0.00231503
2.22355e-05
0.0023127
2.20442e-05
0.00231038
2.18501e-05
0.00230807
2.16512e-05
0.00230577
2.14445e-05
0.00230347
2.12285e-05
0.00230116
2.10008e-05
0.00229883
2.07606e-05
0.00229648
2.05066e-05
0.00229409
2.02399e-05
0.00229167
1.9962e-05
0.00228921
1.96767e-05
0.00228672
1.93875e-05
0.00228418
1.90994e-05
0.00228161
1.88158e-05
0.00227902
1.85405e-05
0.0022764
1.82755e-05
0.00227375
1.80229e-05
0.0022711
1.77826e-05
0.00226843
1.75544e-05
0.00226576
1.73363e-05
0.00226308
1.71267e-05
0.0022604
1.69233e-05
0.00225771
1.67242e-05
0.00225502
1.6527e-05
0.00225232
1.63302e-05
0.00224961
1.61323e-05
0.00224689
1.59328e-05
0.00224416
1.57317e-05
0.00224142
1.55299e-05
0.00223868
1.53282e-05
0.00223593
1.51283e-05
0.00223317
1.49313e-05
0.00223042
1.47389e-05
0.00222766
1.45519e-05
0.0022249
1.43713e-05
0.00222215
1.41972e-05
0.0022194
1.40298e-05
0.00221666
1.38684e-05
0.00221394
1.37127e-05
0.00221123
1.35615e-05
0.00220853
1.3415e-05
0.00220586
1.32718e-05
0.0022032
1.31311e-05
0.00220055
1.29927e-05
0.00219793
1.28565e-05
0.00219532
1.27218e-05
0.00219273
1.25885e-05
0.00219015
1.24564e-05
0.00218758
1.23255e-05
0.00218503
1.21956e-05
0.00218248
1.20672e-05
0.00217995
1.19403e-05
0.00217743
1.18152e-05
0.00217492
1.1692e-05
0.00217242
1.15709e-05
0.00216993
1.1452e-05
0.00216745
1.13353e-05
0.00216499
1.12206e-05
0.00216254
1.11079e-05
0.0021601
1.09967e-05
0.00215768
1.08869e-05
0.00215528
1.07782e-05
0.00215289
1.06706e-05
0.00215051
1.05638e-05
0.00214815
1.04579e-05
0.0021458
1.03527e-05
0.00214347
1.02484e-05
0.00214115
1.01449e-05
0.00213884
1.00427e-05
0.00213654
9.9416e-06
0.00213425
9.84202e-06
0.00213198
9.74398e-06
0.00212971
9.64779e-06
0.00212746
9.55343e-06
0.00212522
9.46114e-06
0.00212298
9.37078e-06
0.00212076
9.28246e-06
0.00211856
9.19599e-06
0.00211636
9.11141e-06
0.00211417
9.02849e-06
0.002112
8.94729e-06
0.00210984
8.86765e-06
0.00210769
8.78972e-06
0.00210556
8.71352e-06
0.00210343
8.63923e-06
0.00210132
8.56748e-06
0.00209922
8.49799e-06
0.00209713
8.43003e-06
0.00209506
8.36483e-06
0.002093
8.30278e-06
0.00209096
8.24392e-06
0.00208893
8.18777e-06
0.00208691
8.13396e-06
0.00208491
8.08194e-06
0.00208292
8.03157e-06
0.00208094
7.9825e-06
0.00207897
7.93469e-06
0.00207701
7.88786e-06
0.00207507
7.84205e-06
0.00207314
7.7971e-06
0.00207121
7.7531e-06
0.0020693
7.70998e-06
0.0020674
7.66788e-06
0.0020655
7.62679e-06
0.00206362
7.58689e-06
0.00206174
7.5482e-06
0.00205987
7.51093e-06
0.00205801
7.47513e-06
0.00205616
7.44104e-06
0.00205431
7.40872e-06
0.00205246
7.37844e-06
0.00205063
7.35024e-06
0.00204879
7.32439e-06
0.00204696
7.30093e-06
0.00204514
7.28009e-06
0.00204332
7.26186e-06
0.0020415
7.24641e-06
0.00203968
7.23389e-06
0.00203787
7.22456e-06
0.00203605
7.21847e-06
0.00203424
7.21583e-06
0.00203243
7.21673e-06
0.00203061
7.22141e-06
0.0020288
7.22999e-06
0.00202698
7.24275e-06
0.00202515
7.25988e-06
0.00202333
7.28169e-06
0.00202149
7.30841e-06
0.00201965
7.34042e-06
0.00201781
7.37801e-06
0.00201595
7.4216e-06
0.00201409
7.47153e-06
0.00201221
7.52825e-06
0.00201032
7.59217e-06
0.00200841
7.66378e-06
0.00200649
7.74353e-06
0.00200455
7.832e-06
0.00200259
7.9297e-06
0.0020006
8.03725e-06
0.0019986
8.15527e-06
0.00199656
8.28448e-06
0.0019945
8.42558e-06
0.00199241
8.57939e-06
0.00199028
8.74675e-06
0.00198812
8.92858e-06
0.00198591
9.12588e-06
0.00198366
9.33974e-06
0.00198137
9.5712e-06
0.00197902
9.82153e-06
0.00197662
1.00922e-05
0.00197415
1.03846e-05
0.00197163
1.07002e-05
0.00196903
1.10407e-05
0.00196636
1.14077e-05
0.00196361
1.1803e-05
0.00196077
1.22287e-05
0.00195784
1.26869e-05
0.00195482
1.31799e-05
0.00195168
1.37101e-05
0.00194843
1.428e-05
0.00194505
1.48926e-05
0.00194155
1.55508e-05
0.0019379
1.6258e-05
0.0019341
1.70176e-05
0.00193013
1.78334e-05
0.001926
1.87095e-05
0.00192167
1.96503e-05
0.00191714
2.06606e-05
0.00191239
2.17453e-05
0.00190742
2.29102e-05
0.00190219
2.4161e-05
0.0018967
2.55042e-05
0.00189092
2.69467e-05
0.00188483
2.84961e-05
0.00187842
3.01601e-05
0.00187165
3.19476e-05
0.00186451
3.38679e-05
0.00185696
3.5931e-05
0.00184898
3.81476e-05
0.00184053
4.05297e-05
0.00183159
4.30895e-05
0.0018221
4.58406e-05
0.00181205
4.87973e-05
0.00180138
5.19752e-05
0.00179004
5.53906e-05
0.00177801
5.90612e-05
0.00176521
6.30054e-05
0.00175159
6.7243e-05
0.0017371
7.17945e-05
0.00172168
7.66812e-05
0.00170524
8.19257e-05
0.00168773
8.75498e-05
0.00166905
9.35726e-05
0.00164913
0.000100014
0.00162787
0.00010689
0.00160517
0.000114212
0.00158091
0.000121981
0.00155495
0.00013019
0.00152716
0.000138818
0.00149736
0.000147831
0.00146536
0.000157173
0.00143095
0.000166765
0.00139388
0.000176496
0.00135391
0.00018622
0.00131074
0.000195754
0.00126409
0.000204873
0.00121372
0.000213321
0.00115939
0.000220802
0.00110099
0.000227005
0.0010385
0.000231605
0.000971988
0.000234238
0.000901814
0.000234659
0.000828719
0.000232845
0.000753741
0.000228874
0.000678037
0.000222772
0.000602476
0.000214212
0.000527566
0.000202865
0.000453319
0.000188262
0.000379918
0.000170285
0.000308236
0.000149621
0.000239963
0.000127416
0.000178693
0.000106225
9.42065e-05
0.000132294
0.00221112
-0.00134479
0.00214892
-0.00111384
0.00217015
-0.000789767
0.00223292
-0.000499456
0.00230123
-0.000283934
0.00235833
-0.000140265
0.00240062
-4.9562e-05
0.0024298
6.07629e-06
0.00244883
3.94708e-05
0.00246042
5.90155e-05
0.00246673
6.99828e-05
0.00246936
7.56285e-05
0.00246946
7.79536e-05
0.00246782
7.82067e-05
0.00246503
7.71743e-05
0.00246149
7.53601e-05
0.00245749
7.30895e-05
0.00245322
7.05744e-05
0.00244884
6.7957e-05
0.00244445
6.53308e-05
0.00244011
6.27612e-05
0.00243588
6.02863e-05
0.0024318
5.79313e-05
0.00242789
5.57044e-05
0.00242415
5.36128e-05
0.00242059
5.16531e-05
0.0024172
4.98267e-05
0.002414
4.81259e-05
0.00241096
4.65492e-05
0.00240808
4.50856e-05
0.00240536
4.3731e-05
0.00240279
4.24715e-05
0.00240035
4.13035e-05
0.00239802
4.02202e-05
0.00239581
3.92293e-05
0.00239371
3.8328e-05
0.00239172
3.75149e-05
0.00238982
3.67748e-05
0.00238801
3.6101e-05
0.00238629
3.54795e-05
0.00238463
3.49072e-05
0.00238304
3.4374e-05
0.00238151
3.38799e-05
0.00238003
3.34175e-05
0.00237859
3.29884e-05
0.00237718
3.2586e-05
0.00237582
3.22125e-05
0.00237449
3.18617e-05
0.00237319
3.15338e-05
0.00237191
3.12203e-05
0.00237067
3.09209e-05
0.00236945
3.06279e-05
0.00236825
3.03408e-05
0.00236707
3.00515e-05
0.00236591
2.97592e-05
0.00236476
2.94565e-05
0.00236362
2.91447e-05
0.00236248
2.88205e-05
0.00236133
2.84876e-05
0.00236018
2.81443e-05
0.002359
2.77968e-05
0.00235781
2.74469e-05
0.00235658
2.7103e-05
0.00235533
2.6767e-05
0.00235406
2.64449e-05
0.00235276
2.61367e-05
0.00235143
2.58459e-05
0.00235009
2.55704e-05
0.00234873
2.53117e-05
0.00234736
2.50664e-05
0.00234598
2.48351e-05
0.0023446
2.46137e-05
0.0023432
2.44024e-05
0.00234181
2.41976e-05
0.00234042
2.39993e-05
0.00233903
2.38037e-05
0.00233764
2.36105e-05
0.00233625
2.34161e-05
0.00233487
2.32198e-05
0.00233349