/*--------------------------------*- C++ -*----------------------------------*\
  =========                 |
  \\      /  F ield         | OpenFOAM: The Open Source CFD Toolbox
   \\    /   O peration     | Website:  https://openfoam.org
    \\  /    A nd           | Version:  8
     \\/     M anipulation  |
\*---------------------------------------------------------------------------*/
FoamFile
{
    version     2.0;
    format      ascii;
    class       volScalarField;
    location    "0.5";
    object      nut;
}
// * * * * * * * * * * * * * * * * * * * * * * * * * * * * * * * * * * * * * //

dimensions      [0 2 -1 0 0 0 0];

internalField   nonuniform List<scalar> 
277560
(
0.0100031
0.0100081
0.0100113
0.0100126
0.0100124
0.0100106
0.0100075
0.0100033
0.00999804
0.00999186
0.00998489
0.00997724
0.00996901
0.00996031
0.00995123
0.00994186
0.00993231
0.00992266
0.00991299
0.00990339
0.00989394
0.00988472
0.00987579
0.00986723
0.00985909
0.00985143
0.00984428
0.0098377
0.0098317
0.00982632
0.00982157
0.00981746
0.00981399
0.00981114
0.00980892
0.0098073
0.00980625
0.00980574
0.00980576
0.00980625
0.00980719
0.00980853
0.00981024
0.00981228
0.00981462
0.00981721
0.00982002
0.00982301
0.00982617
0.00982944
0.00983282
0.00983627
0.00983977
0.00984329
0.00984683
0.00985036
0.00985387
0.00985734
0.00986077
0.00986413
0.00986744
0.00987067
0.00987382
0.00987689
0.00987987
0.00988276
0.00988556
0.00988826
0.00989086
0.00989337
0.00989577
0.00989808
0.00990029
0.00990241
0.00990442
0.00990634
0.00990816
0.00990989
0.00991153
0.00991307
0.00991451
0.00991587
0.00991714
0.00991832
0.00991941
0.00992041
0.00992133
0.00992216
0.00992291
0.00992357
0.00992415
0.00992465
0.00992507
0.00992541
0.00992567
0.00992585
0.00992596
0.00992599
0.00992595
0.00992583
0.00992564
0.00992539
0.00992506
0.00992467
0.00992421
0.00992369
0.00992311
0.00992248
0.00992179
0.00992105
0.00992026
0.00991943
0.00991856
0.00991766
0.00991674
0.00991579
0.00991482
0.00991384
0.00991286
0.00991188
0.0100038
0.010009
0.010012
0.0100132
0.0100127
0.0100108
0.0100075
0.0100032
0.0099978
0.00999152
0.00998447
0.00997676
0.00996848
0.00995973
0.00995061
0.00994121
0.00993162
0.00992193
0.00991222
0.00990259
0.00989311
0.00988385
0.00987489
0.00986629
0.00985812
0.00985042
0.00984324
0.00983663
0.00983061
0.0098252
0.00982044
0.00981631
0.00981284
0.00981
0.00980779
0.00980619
0.00980517
0.0098047
0.00980476
0.0098053
0.0098063
0.0098077
0.00980948
0.00981159
0.009814
0.00981666
0.00981955
0.00982262
0.00982585
0.00982921
0.00983266
0.00983619
0.00983976
0.00984336
0.00984697
0.00985057
0.00985414
0.00985768
0.00986116
0.00986459
0.00986795
0.00987123
0.00987443
0.00987755
0.00988057
0.0098835
0.00988634
0.00988907
0.00989171
0.00989425
0.00989668
0.00989901
0.00990125
0.00990338
0.00990541
0.00990735
0.00990918
0.00991092
0.00991256
0.00991411
0.00991556
0.00991692
0.00991818
0.00991936
0.00992044
0.00992144
0.00992235
0.00992317
0.0099239
0.00992456
0.00992512
0.00992561
0.00992601
0.00992633
0.00992657
0.00992673
0.00992682
0.00992683
0.00992676
0.00992662
0.00992641
0.00992613
0.00992579
0.00992537
0.00992489
0.00992435
0.00992375
0.0099231
0.00992239
0.00992163
0.00992082
0.00991997
0.00991908
0.00991816
0.00991721
0.00991623
0.00991523
0.00991422
0.0099132
0.00991217
0.0100035
0.0100083
0.0100108
0.0100115
0.0100107
0.0100084
0.010005
0.0100004
0.00999482
0.00998841
0.00998124
0.00997343
0.00996507
0.00995626
0.00994708
0.00993762
0.00992796
0.00991821
0.00990844
0.00989873
0.00988917
0.00987983
0.00987078
0.0098621
0.00985383
0.00984603
0.00983876
0.00983206
0.00982595
0.00982047
0.00981563
0.00981145
0.00980793
0.00980506
0.00980284
0.00980124
0.00980025
0.00979983
0.00979994
0.00980056
0.00980164
0.00980315
0.00980504
0.00980728
0.00980982
0.00981262
0.00981565
0.00981887
0.00982225
0.00982576
0.00982936
0.00983303
0.00983675
0.0098405
0.00984425
0.00984799
0.00985169
0.00985536
0.00985897
0.00986252
0.00986599
0.00986938
0.00987269
0.0098759
0.00987902
0.00988204
0.00988496
0.00988777
0.00989048
0.00989308
0.00989558
0.00989797
0.00990026
0.00990244
0.00990451
0.00990648
0.00990835
0.00991012
0.00991179
0.00991335
0.00991482
0.00991619
0.00991747
0.00991865
0.00991973
0.00992072
0.00992162
0.00992243
0.00992315
0.00992378
0.00992433
0.00992479
0.00992516
0.00992545
0.00992565
0.00992578
0.00992582
0.00992579
0.00992567
0.00992549
0.00992522
0.00992489
0.00992448
0.00992401
0.00992347
0.00992286
0.00992219
0.00992147
0.00992068
0.00991985
0.00991896
0.00991803
0.00991705
0.00991604
0.009915
0.00991393
0.00991284
0.00991173
0.00991062
0.00990951
0.0100029
0.0100066
0.0100084
0.0100085
0.0100071
0.0100044
0.0100006
0.00999574
0.00998996
0.00998337
0.00997607
0.00996815
0.00995971
0.00995082
0.00994157
0.00993204
0.00992231
0.00991248
0.00990261
0.0098928
0.00988312
0.00987365
0.00986447
0.00985563
0.00984721
0.00983926
0.00983182
0.00982495
0.00981868
0.00981305
0.00980808
0.00980378
0.00980016
0.00979722
0.00979496
0.00979334
0.00979236
0.00979197
0.00979215
0.00979286
0.00979406
0.0097957
0.00979774
0.00980014
0.00980287
0.00980586
0.00980909
0.00981252
0.00981612
0.00981984
0.00982366
0.00982755
0.00983148
0.00983544
0.0098394
0.00984334
0.00984724
0.0098511
0.00985489
0.00985862
0.00986226
0.00986582
0.00986928
0.00987264
0.0098759
0.00987906
0.0098821
0.00988503
0.00988785
0.00989056
0.00989316
0.00989564
0.00989801
0.00990027
0.00990242
0.00990445
0.00990638
0.0099082
0.00990992
0.00991152
0.00991303
0.00991443
0.00991572
0.00991692
0.00991802
0.00991902
0.00991992
0.00992073
0.00992144
0.00992205
0.00992258
0.00992302
0.00992336
0.00992362
0.00992379
0.00992387
0.00992387
0.00992379
0.00992362
0.00992338
0.00992306
0.00992266
0.00992218
0.00992164
0.00992102
0.00992034
0.00991959
0.00991877
0.0099179
0.00991696
0.00991597
0.00991493
0.00991383
0.0099127
0.00991155
0.00991041
0.00990928
0.00990814
0.00990701
0.00990587
0.0100021
0.0100045
0.0100053
0.0100045
0.0100025
0.00999931
0.00999509
0.00998993
0.00998391
0.00997713
0.00996969
0.00996168
0.00995316
0.00994421
0.0099349
0.0099253
0.0099155
0.00990556
0.00989558
0.00988563
0.0098758
0.00986616
0.00985678
0.00984775
0.00983911
0.00983092
0.00982325
0.00981613
0.00980962
0.00980375
0.00979855
0.00979405
0.00979026
0.00978719
0.00978483
0.00978316
0.00978216
0.00978179
0.00978203
0.00978283
0.00978415
0.00978594
0.00978817
0.00979078
0.00979373
0.00979697
0.00980045
0.00980415
0.00980801
0.00981201
0.00981611
0.00982028
0.00982449
0.00982871
0.00983294
0.00983714
0.0098413
0.0098454
0.00984944
0.00985339
0.00985726
0.00986103
0.0098647
0.00986825
0.0098717
0.00987503
0.00987824
0.00988134
0.00988431
0.00988716
0.00988989
0.0098925
0.00989499
0.00989735
0.0098996
0.00990173
0.00990375
0.00990565
0.00990743
0.00990911
0.00991067
0.00991212
0.00991346
0.0099147
0.00991583
0.00991685
0.00991778
0.0099186
0.00991932
0.00991994
0.00992046
0.00992089
0.00992123
0.00992147
0.00992162
0.00992168
0.00992165
0.00992154
0.00992134
0.00992107
0.00992071
0.00992028
0.00991977
0.00991919
0.00991854
0.00991783
0.00991706
0.00991623
0.00991535
0.00991443
0.00991349
0.00991257
0.00991168
0.00991081
0.00990995
0.00990909
0.00990823
0.00990737
0.00990648
0.00990556
0.0100012
0.0100022
0.0100017
0.01
0.00999729
0.00999358
0.00998897
0.0099835
0.00997725
0.0099703
0.00996275
0.00995468
0.00994613
0.00993716
0.00992782
0.00991817
0.00990829
0.00989825
0.00988813
0.00987803
0.00986801
0.00985815
0.00984854
0.00983924
0.00983031
0.00982182
0.00981382
0.00980635
0.00979949
0.00979326
0.00978773
0.00978292
0.00977887
0.00977558
0.00977305
0.00977127
0.00977019
0.00976981
0.00977008
0.00977096
0.0097724
0.00977437
0.0097768
0.00977964
0.00978285
0.00978638
0.00979017
0.00979418
0.00979837
0.0098027
0.00980713
0.00981163
0.00981617
0.00982073
0.00982527
0.00982979
0.00983426
0.00983866
0.00984298
0.00984722
0.00985136
0.00985539
0.0098593
0.0098631
0.00986678
0.00987033
0.00987375
0.00987704
0.0098802
0.00988323
0.00988613
0.00988889
0.00989153
0.00989404
0.00989642
0.00989868
0.00990081
0.00990282
0.00990471
0.00990647
0.00990812
0.00990965
0.00991106
0.00991237
0.00991355
0.00991463
0.0099156
0.00991646
0.00991722
0.00991787
0.00991842
0.00991887
0.00991922
0.00991948
0.00991964
0.00991971
0.00991969
0.00991959
0.0099194
0.00991913
0.00991878
0.00991836
0.00991787
0.00991732
0.00991671
0.00991604
0.00991534
0.0099146
0.00991387
0.0099132
0.00991257
0.00991199
0.00991144
0.00991093
0.00991045
0.00990997
0.00990951
0.00990899
0.00990838
0.00990769
0.0100003
0.00999964
0.00999791
0.00999526
0.00999182
0.00998764
0.0099827
0.00997699
0.00997055
0.00996346
0.00995587
0.00994782
0.00993932
0.00993039
0.00992107
0.00991141
0.00990148
0.00989136
0.00988111
0.00987083
0.00986059
0.00985049
0.00984059
0.00983097
0.00982168
0.00981279
0.00980436
0.00979643
0.00978907
0.00978234
0.0097763
0.00977103
0.00976657
0.00976295
0.00976017
0.00975818
0.00975696
0.00975649
0.00975674
0.00975767
0.00975923
0.00976136
0.00976401
0.00976711
0.00977062
0.00977446
0.0097786
0.00978297
0.00978753
0.00979224
0.00979706
0.00980194
0.00980687
0.0098118
0.00981672
0.0098216
0.00982643
0.00983118
0.00983584
0.0098404
0.00984485
0.00984919
0.0098534
0.00985747
0.00986142
0.00986522
0.00986889
0.00987242
0.0098758
0.00987904
0.00988214
0.0098851
0.00988792
0.00989061
0.00989315
0.00989557
0.00989784
0.00989999
0.00990201
0.0099039
0.00990566
0.0099073
0.00990881
0.00991021
0.00991148
0.00991264
0.00991369
0.00991462
0.00991544
0.00991616
0.00991676
0.00991727
0.00991767
0.00991797
0.00991817
0.00991829
0.00991831
0.00991825
0.0099181
0.00991788
0.00991758
0.00991722
0.00991679
0.00991631
0.00991578
0.00991522
0.00991464
0.00991409
0.00991362
0.00991322
0.00991288
0.0099126
0.00991236
0.00991217
0.00991201
0.00991182
0.00991157
0.00991124
0.0099108
0.00991027
0.00999928
0.00999699
0.009994
0.00999042
0.00998641
0.00998191
0.0099768
0.00997099
0.00996444
0.00995726
0.00994978
0.00994194
0.00993365
0.00992492
0.00991576
0.00990623
0.00989638
0.00988629
0.00987602
0.00986565
0.00985525
0.00984491
0.00983469
0.00982466
0.00981489
0.00980544
0.00979636
0.00978773
0.00977961
0.00977209
0.00976526
0.00975922
0.00975409
0.00974998
0.00974683
0.00974451
0.00974299
0.0097423
0.00974244
0.00974336
0.00974499
0.00974727
0.00975013
0.00975351
0.00975733
0.00976153
0.00976605
0.00977083
0.00977581
0.00978094
0.00978619
0.00979151
0.00979687
0.00980223
0.00980756
0.00981285
0.00981808
0.00982322
0.00982826
0.00983319
0.009838
0.00984267
0.00984721
0.00985161
0.00985585
0.00985995
0.0098639
0.00986769
0.00987133
0.00987482
0.00987816
0.00988134
0.00988438
0.00988726
0.00989
0.0098926
0.00989505
0.00989737
0.00989954
0.00990158
0.00990348
0.00990526
0.0099069
0.00990842
0.00990981
0.00991108
0.00991223
0.00991326
0.00991417
0.00991497
0.00991566
0.00991624
0.00991672
0.0099171
0.00991737
0.00991756
0.00991765
0.00991765
0.00991758
0.00991743
0.0099172
0.00991692
0.00991657
0.00991618
0.00991575
0.0099153
0.00991487
0.00991451
0.00991423
0.00991404
0.00991392
0.00991387
0.00991388
0.00991393
0.00991396
0.00991393
0.00991382
0.00991361
0.00991331
0.00991289
0.00999817
0.00999427
0.00999019
0.0099858
0.00998155
0.00997712
0.00997224
0.00996681
0.00996084
0.00995442
0.00994755
0.00994018
0.00993228
0.00992387
0.00991498
0.00990565
0.00989595
0.00988594
0.00987569
0.00986526
0.00985471
0.00984413
0.00983357
0.00982312
0.00981283
0.00980276
0.00979297
0.00978352
0.00977449
0.00976596
0.00975808
0.00975098
0.00974475
0.00973945
0.00973509
0.00973169
0.00972928
0.00972792
0.0097277
0.0097285
0.00973011
0.00973248
0.00973552
0.00973917
0.00974332
0.00974789
0.00975282
0.00975804
0.00976347
0.00976907
0.00977479
0.00978059
0.00978641
0.00979224
0.00979803
0.00980378
0.00980944
0.00981501
0.00982046
0.0098258
0.00983099
0.00983604
0.00984095
0.00984569
0.00985028
0.0098547
0.00985896
0.00986305
0.00986697
0.00987074
0.00987433
0.00987777
0.00988104
0.00988416
0.00988712
0.00988993
0.00989258
0.00989508
0.00989744
0.00989965
0.00990172
0.00990365
0.00990545
0.00990711
0.00990864
0.00991003
0.00991131
0.00991245
0.00991348
0.00991439
0.00991518
0.00991586
0.00991643
0.0099169
0.00991726
0.00991753
0.0099177
0.00991779
0.00991779
0.00991772
0.00991758
0.00991738
0.00991712
0.00991681
0.00991648
0.00991612
0.00991579
0.00991556
0.00991542
0.00991537
0.00991541
0.00991552
0.00991568
0.00991588
0.00991604
0.00991611
0.0099161
0.00991599
0.00991577
0.00991545
0.00999686
0.00999189
0.0099876
0.00998352
0.00997967
0.00997572
0.00997136
0.00996651
0.00996126
0.0099557
0.00994955
0.00994275
0.00993531
0.00992727
0.00991867
0.00990957
0.00990003
0.00989011
0.00987988
0.00986939
0.00985871
0.00984791
0.00983706
0.00982621
0.00981543
0.00980477
0.00979427
0.00978398
0.00977394
0.00976424
0.00975509
0.00974677
0.00973926
0.0097326
0.00972687
0.00972215
0.00971853
0.00971604
0.0097147
0.00971451
0.00971544
0.00971752
0.00972062
0.00972445
0.0097289
0.00973385
0.0097392
0.00974488
0.00975079
0.00975689
0.00976311
0.00976941
0.00977574
0.00978206
0.00978835
0.00979457
0.00980071
0.00980673
0.00981264
0.0098184
0.00982402
0.00982948
0.00983477
0.00983989
0.00984484
0.00984961
0.0098542
0.00985862
0.00986285
0.00986691
0.00987079
0.0098745
0.00987804
0.0098814
0.0098846
0.00988764
0.00989051
0.00989322
0.00989578
0.00989818
0.00990043
0.00990253
0.00990449
0.00990631
0.00990799
0.00990953
0.00991094
0.00991221
0.00991336
0.00991438
0.00991529
0.00991607
0.00991674
0.00991731
0.00991776
0.00991812
0.00991838
0.00991854
0.00991863
0.00991863
0.00991857
0.00991844
0.00991825
0.00991802
0.00991775
0.00991747
0.0099172
0.00991704
0.00991698
0.00991702
0.00991716
0.00991737
0.00991764
0.00991792
0.00991815
0.0099183
0.00991835
0.0099183
0.00991815
0.0099179
0.00999647
0.00999141
0.00998749
0.009984
0.00998094
0.00997776
0.00997407
0.00996981
0.00996503
0.00995974
0.00995386
0.00994733
0.00994016
0.00993236
0.00992397
0.00991504
0.00990561
0.00989575
0.0098855
0.00987494
0.00986413
0.00985313
0.00984201
0.00983082
0.00981964
0.0098085
0.00979748
0.00978663
0.00977602
0.00976573
0.00975587
0.00974652
0.00973772
0.00972952
0.00972222
0.00971603
0.00971095
0.00970706
0.00970441
0.00970304
0.00970295
0.0097041
0.00970645
0.00970997
0.00971453
0.00971977
0.00972552
0.00973164
0.00973805
0.00974465
0.00975139
0.00975821
0.00976506
0.00977191
0.00977871
0.00978543
0.00979206
0.00979857
0.00980494
0.00981116
0.00981722
0.0098231
0.0098288
0.00983432
0.00983965
0.00984479
0.00984974
0.0098545
0.00985906
0.00986343
0.00986761
0.00987161
0.00987542
0.00987905
0.0098825
0.00988577
0.00988887
0.00989181
0.00989457
0.00989717
0.00989961
0.0099019
0.00990403
0.00990601
0.00990784
0.00990952
0.00991107
0.00991248
0.00991375
0.00991489
0.0099159
0.00991679
0.00991756
0.00991821
0.00991876
0.0099192
0.00991953
0.00991977
0.00991993
0.00992
0.00991999
0.00991992
0.00991979
0.00991961
0.00991939
0.00991915
0.00991892
0.00991879
0.00991876
0.00991885
0.00991903
0.0099193
0.00991964
0.00991997
0.00992024
0.00992043
0.00992053
0.00992054
0.00992044
0.00992022
0.00999685
0.00999267
0.00998969
0.00998695
0.00998427
0.00998139
0.00997808
0.00997424
0.00996984
0.00996486
0.00995925
0.00995298
0.00994605
0.00993847
0.00993026
0.00992146
0.00991213
0.0099023
0.00989203
0.0098814
0.00987045
0.00985925
0.00984787
0.00983637
0.00982481
0.00981325
0.00980177
0.00979042
0.00977928
0.00976842
0.00975791
0.00974784
0.00973825
0.00972923
0.00972085
0.0097132
0.00970644
0.00970099
0.00969688
0.00969413
0.00969279
0.00969285
0.00969428
0.00969701
0.00970099
0.00970615
0.00971214
0.00971865
0.00972551
0.0097326
0.00973986
0.0097472
0.00975458
0.00976195
0.00976927
0.00977651
0.00978365
0.00979065
0.0097975
0.00980419
0.0098107
0.00981702
0.00982315
0.00982908
0.00983481
0.00984033
0.00984564
0.00985075
0.00985565
0.00986034
0.00986483
0.00986912
0.00987322
0.00987711
0.00988082
0.00988434
0.00988767
0.00989083
0.0098938
0.0098966
0.00989923
0.0099017
0.009904
0.00990613
0.00990812
0.00990995
0.00991162
0.00991316
0.00991455
0.0099158
0.00991691
0.0099179
0.00991876
0.00991949
0.00992011
0.00992062
0.00992102
0.00992132
0.00992153
0.00992165
0.00992169
0.00992166
0.00992157
0.00992143
0.00992124
0.00992103
0.00992082
0.00992067
0.00992065
0.00992074
0.00992094
0.00992123
0.0099216
0.00992196
0.00992227
0.00992249
0.00992262
0.00992266
0.00992259
0.00992241
0.00999794
0.00999492
0.00999255
0.00999036
0.00998813
0.00998564
0.00998273
0.0099793
0.00997527
0.00997062
0.00996531
0.00995931
0.00995262
0.00994524
0.0099372
0.00992852
0.00991926
0.00990945
0.00989916
0.00988844
0.00987735
0.00986596
0.00985433
0.00984253
0.00983062
0.00981867
0.00980674
0.00979492
0.00978327
0.00977185
0.00976075
0.00975003
0.00973976
0.00973
0.00972083
0.00971232
0.00970455
0.00969766
0.00969189
0.00968764
0.00968492
0.00968374
0.00968409
0.00968592
0.00968916
0.00969371
0.00969951
0.00970623
0.00971345
0.00972099
0.00972873
0.00973658
0.00974447
0.00975236
0.0097602
0.00976796
0.00977559
0.00978309
0.00979043
0.00979759
0.00980456
0.00981132
0.00981788
0.00982423
0.00983035
0.00983626
0.00984194
0.0098474
0.00985263
0.00985765
0.00986245
0.00986704
0.00987142
0.00987558
0.00987954
0.00988331
0.00988687
0.00989024
0.00989342
0.00989642
0.00989923
0.00990187
0.00990433
0.00990662
0.00990874
0.0099107
0.00991251
0.00991415
0.00991565
0.009917
0.0099182
0.00991927
0.00992021
0.00992101
0.00992169
0.00992226
0.00992271
0.00992306
0.00992331
0.00992346
0.00992353
0.00992353
0.00992346
0.00992333
0.00992316
0.00992296
0.00992275
0.00992258
0.00992254
0.00992262
0.00992281
0.00992311
0.00992349
0.00992387
0.00992419
0.00992443
0.00992458
0.00992464
0.0099246
0.00992444
0.00999887
0.00999701
0.00999543
0.00999388
0.00999218
0.00999017
0.00998771
0.0099847
0.00998107
0.00997677
0.00997177
0.00996605
0.0099596
0.00995242
0.00994454
0.00993598
0.00992678
0.00991699
0.00990666
0.00989585
0.00988463
0.00987305
0.00986117
0.00984908
0.00983683
0.0098245
0.00981216
0.00979988
0.00978773
0.00977578
0.00976411
0.00975279
0.00974188
0.00973145
0.00972157
0.00971231
0.00970376
0.00969598
0.00968909
0.00968329
0.00967911
0.00967661
0.00967578
0.00967659
0.00967899
0.00968287
0.00968814
0.00969469
0.00970213
0.00971003
0.00971819
0.0097265
0.00973488
0.00974327
0.0097516
0.00975986
0.00976799
0.00977597
0.00978379
0.00979141
0.00979884
0.00980605
0.00981303
0.00981978
0.00982631
0.00983259
0.00983864
0.00984445
0.00985002
0.00985536
0.00986046
0.00986534
0.00986999
0.00987442
0.00987863
0.00988262
0.00988641
0.00988999
0.00989336
0.00989654
0.00989953
0.00990233
0.00990494
0.00990737
0.00990962
0.0099117
0.00991362
0.00991536
0.00991695
0.00991838
0.00991967
0.0099208
0.0099218
0.00992266
0.00992339
0.00992399
0.00992448
0.00992486
0.00992513
0.00992531
0.0099254
0.0099254
0.00992534
0.00992522
0.00992505
0.00992485
0.00992463
0.00992443
0.00992435
0.0099244
0.00992458
0.00992487
0.00992525
0.00992563
0.00992596
0.00992622
0.00992638
0.00992646
0.00992643
0.00992629
0.00999961
0.00999889
0.00999817
0.00999734
0.00999625
0.00999479
0.00999282
0.00999027
0.00998705
0.00998313
0.00997846
0.00997302
0.00996681
0.00995984
0.00995211
0.00994366
0.00993452
0.00992474
0.00991438
0.00990348
0.00989211
0.00988034
0.00986823
0.00985586
0.00984329
0.00983059
0.00981784
0.00980512
0.00979249
0.00978003
0.00976781
0.00975591
0.0097444
0.00973334
0.0097228
0.00971287
0.0097036
0.00969508
0.00968739
0.00968064
0.00967505
0.00967118
0.00966913
0.00966887
0.00967036
0.00967351
0.0096782
0.00968431
0.00969172
0.00969986
0.00970837
0.00971709
0.00972591
0.00973476
0.00974357
0.00975229
0.0097609
0.00976935
0.00977763
0.00978571
0.00979357
0.00980121
0.00980861
0.00981576
0.00982267
0.00982932
0.00983573
0.00984188
0.00984777
0.00985342
0.00985882
0.00986397
0.00986889
0.00987357
0.00987801
0.00988223
0.00988622
0.00989
0.00989356
0.00989691
0.00990005
0.009903
0.00990574
0.0099083
0.00991067
0.00991285
0.00991486
0.00991669
0.00991836
0.00991986
0.0099212
0.00992239
0.00992343
0.00992433
0.00992509
0.00992573
0.00992624
0.00992663
0.00992692
0.0099271
0.00992719
0.0099272
0.00992714
0.00992701
0.00992683
0.00992662
0.00992638
0.00992615
0.00992603
0.00992605
0.0099262
0.00992647
0.00992685
0.00992723
0.00992756
0.00992782
0.009928
0.00992808
0.00992806
0.00992794
0.0100002
0.0100006
0.0100007
0.0100007
0.0100003
0.00999938
0.00999794
0.00999587
0.00999308
0.00998955
0.00998522
0.00998008
0.00997412
0.00996735
0.00995977
0.00995143
0.00994235
0.00993258
0.00992217
0.00991119
0.00989968
0.00988772
0.00987538
0.00986273
0.00984984
0.00983679
0.00982364
0.00981049
0.0097974
0.00978444
0.0097717
0.00975925
0.00974716
0.00973551
0.00972435
0.00971378
0.00970386
0.00969467
0.00968628
0.00967879
0.00967233
0.00966715
0.00966388
0.00966254
0.00966309
0.00966547
0.00966955
0.00967521
0.00968233
0.00969057
0.00969935
0.00970842
0.00971762
0.00972689
0.00973613
0.0097453
0.00975435
0.00976325
0.00977196
0.00978047
0.00978876
0.0097968
0.0098046
0.00981214
0.00981942
0.00982643
0.00983317
0.00983964
0.00984585
0.00985179
0.00985747
0.00986289
0.00986805
0.00987297
0.00987763
0.00988206
0.00988624
0.0098902
0.00989393
0.00989743
0.00990072
0.00990379
0.00990666
0.00990932
0.00991179
0.00991407
0.00991615
0.00991806
0.00991979
0.00992134
0.00992273
0.00992396
0.00992503
0.00992596
0.00992674
0.00992739
0.00992791
0.00992831
0.00992859
0.00992878
0.00992886
0.00992886
0.00992879
0.00992865
0.00992845
0.00992822
0.00992797
0.00992772
0.00992754
0.00992752
0.00992764
0.00992789
0.00992826
0.00992863
0.00992897
0.00992923
0.00992941
0.0099295
0.00992949
0.00992937
0.0100008
0.0100021
0.0100032
0.0100039
0.0100041
0.0100039
0.010003
0.0100014
0.00999908
0.00999594
0.00999196
0.00998712
0.00998142
0.00997484
0.00996742
0.00995918
0.00995016
0.0099404
0.00992995
0.00991887
0.00990722
0.00989508
0.00988251
0.00986959
0.00985639
0.00984299
0.00982946
0.00981589
0.00980235
0.00978892
0.00977567
0.0097627
0.00975006
0.00973783
0.0097261
0.00971493
0.0097044
0.00969458
0.00968556
0.00967741
0.00967025
0.00966424
0.00965975
0.00965735
0.00965698
0.00965857
0.00966203
0.00966722
0.00967399
0.00968219
0.00969115
0.00970049
0.00971003
0.00971967
0.0097293
0.00973888
0.00974834
0.00975765
0.00976678
0.00977569
0.00978438
0.00979281
0.00980098
0.00980889
0.00981651
0.00982386
0.00983092
0.0098377
0.0098442
0.00985042
0.00985636
0.00986202
0.00986742
0.00987255
0.00987742
0.00988203
0.0098864
0.00989051
0.00989439
0.00989804
0.00990145
0.00990464
0.00990761
0.00991037
0.00991292
0.00991527
0.00991743
0.00991939
0.00992117
0.00992276
0.00992419
0.00992544
0.00992654
0.00992748
0.00992827
0.00992892
0.00992944
0.00992984
0.00993012
0.00993029
0.00993036
0.00993035
0.00993025
0.00993009
0.00992988
0.00992962
0.00992935
0.00992907
0.00992885
0.00992879
0.00992887
0.0099291
0.00992945
0.00992982
0.00993015
0.00993042
0.00993061
0.0099307
0.0099307
0.00993059
0.0100012
0.0100035
0.0100054
0.0100069
0.0100079
0.0100082
0.0100079
0.0100068
0.010005
0.0100022
0.00999861
0.00999408
0.00998862
0.00998225
0.00997498
0.00996684
0.00995787
0.00994811
0.00993762
0.00992644
0.00991466
0.00990234
0.00988954
0.00987636
0.00986285
0.00984911
0.00983521
0.00982123
0.00980725
0.00979336
0.00977964
0.00976615
0.00975298
0.00974022
0.00972793
0.00971619
0.00970509
0.00969469
0.00968508
0.00967634
0.00966856
0.00966187
0.00965648
0.00965305
0.00965179
0.00965262
0.00965547
0.0096602
0.00966664
0.00967466
0.00968373
0.00969329
0.00970312
0.00971307
0.00972306
0.009733
0.00974284
0.00975253
0.00976204
0.00977133
0.00978039
0.00978918
0.00979771
0.00980595
0.0098139
0.00982156
0.00982892
0.00983599
0.00984276
0.00984923
0.00985541
0.00986131
0.00986691
0.00987224
0.0098773
0.00988209
0.00988661
0.00989087
0.00989489
0.00989866
0.00990218
0.00990547
0.00990854
0.00991138
0.009914
0.00991641
0.00991862
0.00992063
0.00992244
0.00992407
0.00992552
0.00992679
0.0099279
0.00992884
0.00992964
0.00993029
0.0099308
0.00993118
0.00993145
0.0099316
0.00993166
0.00993162
0.00993151
0.00993132
0.00993108
0.0099308
0.0099305
0.00993019
0.00992993
0.00992982
0.00992988
0.00993008
0.00993042
0.00993079
0.00993112
0.00993139
0.00993158
0.00993168
0.00993168
0.00993158
0.0100017
0.0100048
0.0100076
0.0100098
0.0100114
0.0100124
0.0100127
0.0100121
0.0100107
0.0100084
0.0100051
0.0100009
0.00999568
0.00998951
0.00998239
0.00997435
0.00996542
0.00995566
0.00994512
0.00993385
0.00992193
0.00990943
0.00989641
0.00988296
0.00986916
0.00985508
0.00984082
0.00982644
0.00981205
0.00979771
0.00978351
0.00976954
0.00975587
0.00974259
0.00972977
0.0097175
0.00970585
0.0096949
0.00968474
0.00967544
0.00966711
0.00965985
0.00965382
0.00964943
0.00964733
0.00964745
0.0096497
0.00965397
0.00966008
0.00966788
0.009677
0.00968675
0.00969682
0.00970705
0.00971735
0.00972762
0.0097378
0.00974784
0.0097577
0.00976734
0.00977673
0.00978586
0.00979471
0.00980327
0.00981152
0.00981947
0.00982711
0.00983444
0.00984146
0.00984816
0.00985457
0.00986067
0.00986647
0.00987199
0.00987721
0.00988215
0.00988682
0.00989122
0.00989535
0.00989923
0.00990285
0.00990623
0.00990937
0.00991228
0.00991497
0.00991743
0.00991968
0.00992173
0.00992357
0.00992522
0.00992668
0.00992797
0.00992908
0.00993002
0.00993081
0.00993145
0.00993195
0.00993232
0.00993257
0.0099327
0.00993273
0.00993267
0.00993253
0.00993232
0.00993205
0.00993174
0.00993141
0.00993107
0.00993077
0.00993062
0.00993065
0.00993083
0.00993116
0.00993152
0.00993185
0.00993212
0.00993232
0.00993242
0.00993243
0.00993234
0.0100021
0.0100061
0.0100096
0.0100125
0.0100148
0.0100164
0.0100173
0.0100172
0.0100163
0.0100143
0.0100114
0.0100075
0.0100025
0.00999656
0.00998959
0.00998164
0.00997276
0.009963
0.0099524
0.00994104
0.00992898
0.0099163
0.00990306
0.00988935
0.00987526
0.00986086
0.00984624
0.00983148
0.00981667
0.0098019
0.00978726
0.00977281
0.00975866
0.00974488
0.00973156
0.00971877
0.0097066
0.00969514
0.00968446
0.00967465
0.0096658
0.00965801
0.00965141
0.00964628
0.00964341
0.00964285
0.00964454
0.00964838
0.00965418
0.00966176
0.00967089
0.00968078
0.00969105
0.00970153
0.00971211
0.00972267
0.00973316
0.00974352
0.00975369
0.00976364
0.00977335
0.00978278
0.00979193
0.00980077
0.00980931
0.00981752
0.00982541
0.00983298
0.00984023
0.00984716
0.00985376
0.00986005
0.00986603
0.00987171
0.00987709
0.00988217
0.00988697
0.00989148
0.00989572
0.0098997
0.00990341
0.00990687
0.00991008
0.00991305
0.00991578
0.00991829
0.00992057
0.00992265
0.00992451
0.00992618
0.00992765
0.00992894
0.00993005
0.00993099
0.00993177
0.0099324
0.00993288
0.00993323
0.00993346
0.00993357
0.00993357
0.00993348
0.00993331
0.00993307
0.00993278
0.00993244
0.00993208
0.00993171
0.00993137
0.00993119
0.00993118
0.00993135
0.00993166
0.00993202
0.00993235
0.00993263
0.00993283
0.00993294
0.00993295
0.00993286
0.0100025
0.0100072
0.0100114
0.0100151
0.0100181
0.0100203
0.0100217
0.0100221
0.0100216
0.0100201
0.0100175
0.0100139
0.0100092
0.0100034
0.00999656
0.0099887
0.00997986
0.00997009
0.00995944
0.00994798
0.00993578
0.00992291
0.00990946
0.00989549
0.00988111
0.00986639
0.00985142
0.00983629
0.00982109
0.0098059
0.00979082
0.00977592
0.0097613
0.00974705
0.00973324
0.00971996
0.0097073
0.00969535
0.00968417
0.00967388
0.00966454
0.00965627
0.00964918
0.0096435
0.00963988
0.0096387
0.00963987
0.00964329
0.0096488
0.00965619
0.0096653
0.00967529
0.00968573
0.00969643
0.00970724
0.00971807
0.00972884
0.00973948
0.00974994
0.00976018
0.00977017
0.00977988
0.0097893
0.0097984
0.00980719
0.00981565
0.00982377
0.00983156
0.00983902
0.00984614
0.00985293
0.00985939
0.00986553
0.00987136
0.00987688
0.00988209
0.009887
0.00989162
0.00989596
0.00990002
0.00990381
0.00990733
0.0099106
0.00991362
0.0099164
0.00991894
0.00992126
0.00992336
0.00992524
0.00992691
0.00992839
0.00992968
0.00993079
0.00993172
0.00993249
0.00993311
0.00993357
0.0099339
0.0099341
0.00993419
0.00993417
0.00993405
0.00993385
0.00993358
0.00993326
0.00993289
0.0099325
0.0099321
0.00993173
0.00993151
0.00993148
0.00993163
0.00993193
0.00993229
0.00993262
0.0099329
0.0099331
0.00993322
0.00993324
0.00993316
0.0100028
0.0100083
0.0100132
0.0100176
0.0100212
0.010024
0.0100259
0.0100269
0.0100268
0.0100257
0.0100234
0.0100201
0.0100156
0.01001
0.0100033
0.00999549
0.00998668
0.0099769
0.00996619
0.00995463
0.00994229
0.00992924
0.00991557
0.00990136
0.00988669
0.00987166
0.00985635
0.00984086
0.00982527
0.00980968
0.00979417
0.00977884
0.00976377
0.00974905
0.00973478
0.00972103
0.0097079
0.00969547
0.00968384
0.00967307
0.00966328
0.00965456
0.00964703
0.00964088
0.0096366
0.00963484
0.00963553
0.00963858
0.00964382
0.00965105
0.00966011
0.00967017
0.00968077
0.00969165
0.00970268
0.00971374
0.00972475
0.00973564
0.00974636
0.00975686
0.00976711
0.00977708
0.00978674
0.00979609
0.0098051
0.00981378
0.00982212
0.00983011
0.00983775
0.00984505
0.00985201
0.00985863
0.00986492
0.00987088
0.00987652
0.00988185
0.00988686
0.00989158
0.00989601
0.00990014
0.009904
0.00990759
0.00991091
0.00991398
0.0099168
0.00991937
0.00992172
0.00992383
0.00992573
0.00992741
0.0099289
0.00993019
0.00993129
0.00993221
0.00993297
0.00993357
0.00993402
0.00993432
0.0099345
0.00993456
0.00993452
0.00993437
0.00993415
0.00993385
0.00993349
0.0099331
0.00993268
0.00993225
0.00993185
0.0099316
0.00993154
0.00993167
0.00993196
0.00993232
0.00993266
0.00993294
0.00993315
0.00993327
0.0099333
0.00993322
0.0100032
0.0100093
0.0100149
0.0100199
0.0100241
0.0100275
0.0100299
0.0100314
0.0100317
0.010031
0.0100291
0.010026
0.0100217
0.0100163
0.0100097
0.010002
0.00999322
0.00998342
0.00997265
0.00996099
0.00994851
0.00993528
0.00992139
0.00990693
0.00989198
0.00987665
0.00986101
0.00984516
0.00982919
0.0098132
0.00979728
0.00978153
0.00976602
0.00975087
0.00973614
0.00972195
0.00970837
0.00969549
0.0096834
0.0096722
0.00966197
0.00965283
0.00964487
0.00963829
0.00963343
0.00963116
0.00963142
0.00963412
0.00963912
0.0096462
0.0096552
0.00966534
0.00967605
0.0096871
0.00969832
0.00970959
0.00972082
0.00973194
0.00974289
0.00975363
0.00976411
0.0097743