/*--------------------------------*- C++ -*----------------------------------*\
  =========                 |
  \\      /  F ield         | OpenFOAM: The Open Source CFD Toolbox
   \\    /   O peration     | Website:  https://openfoam.org
    \\  /    A nd           | Version:  8
     \\/     M anipulation  |
\*---------------------------------------------------------------------------*/
FoamFile
{
    version     2.0;
    format      ascii;
    class       volScalarField;
    location    "0.5";
    object      p;
}
// * * * * * * * * * * * * * * * * * * * * * * * * * * * * * * * * * * * * * //

dimensions      [0 2 -2 0 0 0 0];

internalField   nonuniform List<scalar> 
277560
(
-5.16544e-05
-0.000119998
-0.000182651
-0.000247778
-0.000311855
-0.000374877
-0.000437058
-0.000498414
-0.000558866
-0.000618572
-0.000677252
-0.000735382
-0.000792582
-0.000849168
-0.000904908
-0.000960041
-0.00101442
-0.00106825
-0.0011214
-0.00117407
-0.00122613
-0.00127778
-0.0013289
-0.0013797
-0.00143002
-0.00148011
-0.00152978
-0.00157931
-0.00162848
-0.00167761
-0.00172644
-0.0017753
-0.00182392
-0.00187266
-0.00192121
-0.00196995
-0.00201857
-0.00206743
-0.00211622
-0.00216533
-0.00221442
-0.00226386
-0.00231335
-0.00236325
-0.00241323
-0.00246367
-0.00251424
-0.00256531
-0.00261656
-0.00266834
-0.00272035
-0.00277294
-0.00282578
-0.00287925
-0.00293301
-0.00298743
-0.00304219
-0.00309765
-0.00315347
-0.00321003
-0.003267
-0.00332475
-0.00338293
-0.00344194
-0.00350142
-0.00356175
-0.0036226
-0.00368435
-0.00374664
-0.00380987
-0.00387368
-0.00393848
-0.00400389
-0.00407033
-0.00413742
-0.00420558
-0.00427444
-0.00434439
-0.0044151
-0.00448694
-0.00455958
-0.00463338
-0.00470804
-0.00478389
-0.00486066
-0.00493865
-0.00501761
-0.00509783
-0.00517907
-0.00526162
-0.00534524
-0.00543021
-0.0055163
-0.00560378
-0.00569244
-0.00578254
-0.00587386
-0.00596668
-0.00606077
-0.00615641
-0.00625337
-0.00635193
-0.00645187
-0.00655346
-0.00665649
-0.00676122
-0.00686745
-0.00697544
-0.00708498
-0.00719634
-0.00730931
-0.00742417
-0.00754068
-0.00765916
-0.00777934
-0.00790147
-0.00802545
-0.00815302
-0.00828398
-0.00839817
-5.06093e-05
-0.000120497
-0.000182783
-0.000247632
-0.00031177
-0.000374835
-0.000437056
-0.000498443
-0.000558973
-0.000618635
-0.00067747
-0.00073554
-0.000792801
-0.000849418
-0.000905208
-0.000960367
-0.00101478
-0.00106863
-0.00112182
-0.00117449
-0.00122659
-0.00127825
-0.0013294
-0.00138019
-0.00143054
-0.00148061
-0.00153032
-0.00157981
-0.00162904
-0.00167811
-0.00172699
-0.00177579
-0.00182447
-0.00187313
-0.00192174
-0.0019704
-0.00201908
-0.00206785
-0.00211672
-0.00216572
-0.00221488
-0.00226423
-0.0023138
-0.00236359
-0.00241365
-0.00246399
-0.00251464
-0.00256561
-0.00261694
-0.00266862
-0.00272072
-0.00277319
-0.00282613
-0.00287949
-0.00293335
-0.00298765
-0.00304251
-0.00309785
-0.00315378
-0.00321022
-0.00326729
-0.00332491
-0.00338321
-0.00344208
-0.00350168
-0.00356187
-0.00362285
-0.00368444
-0.00374686
-0.00380994
-0.00387389
-0.00393852
-0.00400407
-0.00407034
-0.00413757
-0.00420556
-0.00427455
-0.00434435
-0.00441518
-0.00448686
-0.00455962
-0.00463328
-0.00470806
-0.00478378
-0.00486065
-0.00493853
-0.00501759
-0.00509771
-0.00517906
-0.00526151
-0.00534524
-0.00543012
-0.00551633
-0.00560374
-0.00569252
-0.00578256
-0.00587403
-0.00596679
-0.00606105
-0.00615665
-0.0062538
-0.00635234
-0.0064525
-0.00655411
-0.00665738
-0.00676217
-0.00686868
-0.00697677
-0.00708664
-0.00719814
-0.00731149
-0.00742655
-0.00754352
-0.00766225
-0.00778298
-0.00790542
-0.00803003
-0.00815809
-0.00828991
-0.00840453
-5.05491e-05
-0.000120799
-0.000182936
-0.000247775
-0.000311998
-0.000375139
-0.000437435
-0.000498904
-0.000559513
-0.000619281
-0.000678178
-0.000736283
-0.000793678
-0.00085029
-0.000906211
-0.000961389
-0.00101592
-0.00106978
-0.00112307
-0.00117577
-0.00122796
-0.00127962
-0.00133087
-0.00138165
-0.0014321
-0.00148215
-0.00153196
-0.00158142
-0.00163074
-0.00167978
-0.00172874
-0.0017775
-0.00182626
-0.00187488
-0.00192357
-0.00197218
-0.00202094
-0.00206966
-0.0021186
-0.00216755
-0.00221678
-0.00226608
-0.00231571
-0.00236546
-0.00241559
-0.00246587
-0.00251659
-0.00256751
-0.00261891
-0.00267054
-0.0027227
-0.00277513
-0.00282813
-0.00288144
-0.00293536
-0.00298963
-0.00304455
-0.00309984
-0.00315583
-0.00321223
-0.00326937
-0.00332695
-0.00338531
-0.00344414
-0.00350379
-0.00356395
-0.00362498
-0.00368654
-0.00374901
-0.00381206
-0.00387605
-0.00394066
-0.00400626
-0.0040725
-0.00413978
-0.00420774
-0.00427678
-0.00434655
-0.00441743
-0.00448909
-0.00456189
-0.00463554
-0.00471034
-0.00478606
-0.00486296
-0.00494084
-0.00501993
-0.00510005
-0.00518143
-0.00526388
-0.00534765
-0.00543253
-0.00551878
-0.0056062
-0.00569503
-0.00578508
-0.0058766
-0.00596939
-0.0060637
-0.00615934
-0.00625655
-0.00635515
-0.00645538
-0.00655705
-0.00666042
-0.00676528
-0.0068719
-0.00698009
-0.00709009
-0.00720173
-0.00731524
-0.00743045
-0.00754762
-0.00766654
-0.0077875
-0.00791018
-0.00803507
-0.00816343
-0.0082956
-0.0084105
-5.05994e-05
-0.000121056
-0.000183208
-0.00024813
-0.000312467
-0.000375722
-0.000438136
-0.000499723
-0.000560464
-0.000620325
-0.000679376
-0.000737585
-0.000795057
-0.000851762
-0.000907806
-0.00096308
-0.00101772
-0.00107167
-0.00112506
-0.00117784
-0.00123013
-0.00128187
-0.00133319
-0.00138406
-0.00143457
-0.00148469
-0.00153455
-0.00158409
-0.00163344
-0.00168256
-0.00173154
-0.00178037
-0.00182914
-0.00187783
-0.00192652
-0.0019752
-0.00202394
-0.00207274
-0.00212165
-0.00217068
-0.00221987
-0.00226925
-0.00231884
-0.00236866
-0.00241874
-0.00246911
-0.00251977
-0.00257077
-0.00262211
-0.00267383
-0.00272592
-0.00277845
-0.00283137
-0.00288478
-0.00293862
-0.00299299
-0.00304782
-0.00310323
-0.00315912
-0.00321563
-0.00327267
-0.00333037
-0.00338862
-0.00344757
-0.00350711
-0.0035674
-0.00362831
-0.00369001
-0.00375235
-0.00381554
-0.0038794
-0.00394416
-0.00400962
-0.00407601
-0.00414315
-0.00421128
-0.00428018
-0.0043501
-0.00442085
-0.00449267
-0.00456535
-0.00463913
-0.00471384
-0.00478969
-0.00486652
-0.00494451
-0.00502354
-0.00510379
-0.00518511
-0.0052677
-0.00535142
-0.00543645
-0.00552266
-0.00561024
-0.00569904
-0.00578926
-0.00588076
-0.00597374
-0.00606805
-0.00616389
-0.00626111
-0.00635993
-0.00646019
-0.0065621
-0.00666551
-0.00677064
-0.00687732
-0.00698579
-0.00709587
-0.0072078
-0.00732142
-0.00743695
-0.00755423
-0.0076735
-0.00779458
-0.00791764
-0.00804265
-0.00817141
-0.00830374
-0.00841897
-5.06521e-05
-0.000121342
-0.000183617
-0.000248684
-0.000313175
-0.000376588
-0.000439162
-0.00050091
-0.0005618
-0.000621859
-0.000681023
-0.000739406
-0.000796978
-0.000853866
-0.000909997
-0.000965454
-0.0010202
-0.00107432
-0.0011278
-0.00118074
-0.0012331
-0.001285
-0.00133639
-0.0013874
-0.00143797
-0.00148824
-0.00153813
-0.00158782
-0.00163719
-0.00168644
-0.00173544
-0.0017844
-0.00183317
-0.00188198
-0.00193066
-0.00197945
-0.00202817
-0.00207707
-0.00212596
-0.00217509
-0.00222426
-0.00227373
-0.00232329
-0.0023732
-0.00242325
-0.00247371
-0.00252434
-0.00257543
-0.00262673
-0.00267854
-0.0027306
-0.0027832
-0.0028361
-0.00288958
-0.0029434
-0.00299784
-0.00305265
-0.00310812
-0.00316399
-0.00322058
-0.00327759
-0.00333536
-0.00339358
-0.00345261
-0.00351213
-0.00357249
-0.00363337
-0.00369514
-0.00375747
-0.00382072
-0.00388457
-0.00394939
-0.00401484
-0.0040813
-0.00414843
-0.00421662
-0.00428551
-0.00435551
-0.00442625
-0.00449813
-0.00457082
-0.00464467
-0.00471939
-0.00479529
-0.00487214
-0.0049502
-0.00502925
-0.00510956
-0.00519092
-0.00527358
-0.00535733
-0.00544244
-0.00552869
-0.00561634
-0.0057052
-0.0057955
-0.00588707
-0.00598013
-0.00607451
-0.00617045
-0.00626776
-0.00636668
-0.00646703
-0.00656906
-0.00667257
-0.00677782
-0.00688462
-0.00699323
-0.00710344
-0.00721552
-0.00732927
-0.00744497
-0.00756241
-0.00768186
-0.00780312
-0.00792637
-0.00805158
-0.00818055
-0.0083131
-0.00842856
-5.0724e-05
-0.00012166
-0.000184138
-0.000249409
-0.000314101
-0.000377716
-0.000440494
-0.000502442
-0.000563543
-0.000623769
-0.00068317
-0.000741715
-0.000799474
-0.000856516
-0.000912812
-0.000968457
-0.00102336
-0.00107766
-0.00113129
-0.00118439
-0.0012369
-0.00128895
-0.00134048
-0.00139162
-0.00144233
-0.00149271
-0.00154274
-0.00159252
-0.00164202
-0.00169135
-0.00174047
-0.00178949
-0.00183837
-0.00188722
-0.00193602
-0.00198483
-0.00203366
-0.00208258
-0.00213157
-0.0021807
-0.00222998
-0.00227944
-0.0023291
-0.002379
-0.00242915
-0.00247958
-0.00253032
-0.00258138
-0.00263279
-0.00268456
-0.00273673
-0.00278929
-0.00284231
-0.00289574
-0.00294967
-0.00300406
-0.00305899
-0.0031144
-0.00317041
-0.00322692
-0.00328407
-0.00334176
-0.00340013
-0.00345907
-0.00351874
-0.00357901
-0.00364005
-0.00370172
-0.00376421
-0.00382737
-0.00389138
-0.0039561
-0.00402172
-0.00408808
-0.00415539
-0.00422347
-0.00429255
-0.00436243
-0.00443336
-0.00450514
-0.00457801
-0.00465177
-0.00472666
-0.0048025
-0.00487951
-0.00495752
-0.00503673
-0.005117
-0.00519852
-0.00528114
-0.00536506
-0.00545014
-0.00553656
-0.00562419
-0.00571322
-0.00580352
-0.00589526
-0.00598832
-0.00608289
-0.00617883
-0.00627634
-0.00637527
-0.00647582
-0.00657786
-0.0066816
-0.00678687
-0.00689389
-0.00700252
-0.00711297
-0.00722509
-0.00733909
-0.00745483
-0.00757253
-0.00769204
-0.00781359
-0.00793691
-0.00806243
-0.00819148
-0.00832435
-0.00843989
-5.08065e-05
-0.000122003
-0.000184758
-0.000250291
-0.000315229
-0.000379092
-0.000442116
-0.000504308
-0.00056564
-0.000626127
-0.000685729
-0.000744509
-0.000802493
-0.000859711
-0.000916251
-0.000972056
-0.0010272
-0.00108166
-0.00113553
-0.00118877
-0.00124151
-0.00129369
-0.00134543
-0.0013967
-0.00144761
-0.0014981
-0.00154832
-0.00159819
-0.00164788
-0.00169728
-0.00174658
-0.00179565
-0.0018447
-0.00189359
-0.00194254
-0.00199138
-0.00204036
-0.00208929
-0.00213842
-0.00218756
-0.00223696
-0.00228642
-0.0023362
-0.0023861
-0.00243637
-0.00248679
-0.00253764
-0.00258869
-0.00264021
-0.00269197
-0.00274425
-0.0027968
-0.00284992
-0.00290334
-0.00295738
-0.00301176
-0.00306679
-0.00312219
-0.00317829
-0.0032348
-0.00329205
-0.00334973
-0.0034082
-0.00346714
-0.0035269
-0.00358717
-0.0036483
-0.00370998
-0.00377256
-0.00383572
-0.00389982
-0.00396455
-0.00403026
-0.00409662
-0.00416402
-0.00423211
-0.00430128
-0.00437118
-0.0044422
-0.004514
-0.00458695
-0.00466075
-0.00473572
-0.0048116
-0.00488868
-0.00496674
-0.00504603
-0.00512635
-0.00520795
-0.00529062
-0.00537463
-0.00545976
-0.00554628
-0.00563397
-0.0057231
-0.00581346
-0.0059053
-0.00599843
-0.0060931
-0.00618912
-0.00628673
-0.00638574
-0.00648641
-0.00658854
-0.00669238
-0.00679775
-0.0069049
-0.00701363
-0.00712421
-0.00723644
-0.00735058
-0.00746645
-0.00758431
-0.00770395
-0.00782566
-0.00794913
-0.00807483
-0.00820405
-0.00833711
-0.0084528
-5.08998e-05
-0.000122371
-0.000185464
-0.000251312
-0.000316543
-0.000380697
-0.00044401
-0.000506485
-0.000568102
-0.000628834
-0.00068874
-0.000747765
-0.000805998
-0.000863466
-0.000920228
-0.000976262
-0.00103166
-0.00108634
-0.00114043
-0.0011939
-0.00124684
-0.00129923
-0.00135117
-0.00140263
-0.00145373
-0.00150441
-0.0015548
-0.00160485
-0.00165468
-0.00170425
-0.00175367
-0.00180291
-0.00185207
-0.00190111
-0.00195014
-0.00199913
-0.00204817
-0.00209723
-0.00214641
-0.00219568
-0.00224511
-0.0022947
-0.0023445
-0.00239453
-0.0024448
-0.00249536
-0.00254621
-0.00259739
-0.0026489
-0.0027008
-0.00275306
-0.00280575
-0.00285885
-0.00291242
-0.00296642
-0.00302095
-0.00307594
-0.0031315
-0.00318756
-0.00324423
-0.00330142
-0.00335928
-0.00341768
-0.0034768
-0.0035365
-0.00359694
-0.00365801
-0.00371986
-0.00378238
-0.00384572
-0.00390976
-0.00397467
-0.0040403
-0.00410687
-0.00417419
-0.00424248
-0.00431157
-0.00438167
-0.00445261
-0.00452462
-0.0045975
-0.00467149
-0.00474641
-0.00482246
-0.00489951
-0.00497774
-0.005057
-0.00513749
-0.00521907
-0.00530192
-0.0053859
-0.00547121
-0.00555771
-0.00564558
-0.0057347
-0.00582524
-0.00591707
-0.00601039
-0.00610505
-0.00620126
-0.00629887
-0.00639808
-0.00649874
-0.00660108
-0.00670492
-0.0068105
-0.00691765
-0.0070266
-0.00713719
-0.00724965
-0.00736381
-0.00747991
-0.00759779
-0.00771769
-0.00783943
-0.00796316
-0.00808888
-0.00821837
-0.00835148
-0.00846742
-5.09965e-05
-0.000122759
-0.000186249
-0.000252462
-0.000318029
-0.000382518
-0.000446158
-0.000508956
-0.00057088
-0.000631949
-0.000692117
-0.000751459
-0.000809972
-0.000867725
-0.000924728
-0.000981061
-0.00103668
-0.00109166
-0.00114598
-0.00119972
-0.00125287
-0.00130552
-0.00135766
-0.00140938
-0.00146065
-0.00151158
-0.00156212
-0.00161242
-0.00166239
-0.0017122
-0.00176173
-0.00181119
-0.00186044
-0.0019097
-0.00195881
-0.00200799
-0.00205709
-0.00210633
-0.00215555
-0.00220499
-0.00225445
-0.0023042
-0.00235403
-0.0024042
-0.0024545
-0.00250519
-0.00255606
-0.00260738
-0.00265891
-0.00271094
-0.00276322
-0.00281604
-0.00286915
-0.00292285
-0.00297687
-0.00303152
-0.00308653
-0.00314222
-0.00319829
-0.00325508
-0.00331229
-0.00337026
-0.00342869
-0.00348792
-0.00354764
-0.0036082
-0.00366929
-0.00373126
-0.0037938
-0.00385725
-0.00392132
-0.00398634
-0.00405201
-0.00411867
-0.00418603
-0.00425443
-0.00432355
-0.00439376
-0.00446474
-0.00453684
-0.00460977
-0.00468386
-0.00475883
-0.00483499
-0.00491209
-0.00499041
-0.00506974
-0.00515032
-0.00523197
-0.00531491
-0.00539897
-0.00548437
-0.00557094
-0.00565891
-0.0057481
-0.00583874
-0.00593065
-0.00602407
-0.00611881
-0.00621513
-0.00631281
-0.00641213
-0.00651288
-0.00661533
-0.00671926
-0.00682495
-0.0069322
-0.00704126
-0.00715195
-0.00726453
-0.0073788
-0.00749502
-0.00761302
-0.00773305
-0.0078549
-0.00797877
-0.00810462
-0.00823425
-0.00836748
-0.00848358
-5.10985e-05
-0.000123167
-0.000187105
-0.000253727
-0.000319673
-0.000384536
-0.000448545
-0.000511701
-0.000573985
-0.000635373
-0.000695909
-0.000755565
-0.000814395
-0.000872456
-0.000929768
-0.000986383
-0.00104229
-0.00109756
-0.00115216
-0.00120618
-0.00125959
-0.00131251
-0.0013649
-0.00141687
-0.00146838
-0.00151954
-0.00157032
-0.00162083
-0.00167102
-0.00172102
-0.00177077
-0.0018204
-0.00186985
-0.00191925
-0.00196855
-0.00201786
-0.00206714
-0.00211648
-0.00216587
-0.00221539
-0.00226501
-0.00231482
-0.0023648
-0.00241502
-0.00246547
-0.0025162
-0.00256722
-0.00261856
-0.00267025
-0.0027223
-0.00277474
-0.00282757
-0.00288084
-0.00293454
-0.00298873
-0.00304338
-0.00309856
-0.00315423
-0.00321049
-0.00326726
-0.00332465
-0.0033826
-0.00344122
-0.00350042
-0.00356033
-0.00362086
-0.00368214
-0.00374408
-0.00380681
-0.00387023
-0.00393449
-0.00399947
-0.00406535
-0.00413197
-0.00419953
-0.00426789
-0.00433722
-0.00440739
-0.00447858
-0.00455064
-0.00462378
-0.00469783
-0.004773
-0.00484913
-0.00492642
-0.00500472
-0.00508423
-0.0051648
-0.00524662
-0.00532955
-0.00541379
-0.00549919
-0.00558594
-0.0056739
-0.00576327
-0.00585391
-0.005946
-0.00603941
-0.00613435
-0.00623065
-0.00632854
-0.00642785
-0.0065288
-0.00663123
-0.00673537
-0.00684105
-0.0069485
-0.00705756
-0.00716846
-0.00728103
-0.00739551
-0.00751174
-0.00762995
-0.00774998
-0.00787206
-0.00799593
-0.00812201
-0.00825164
-0.00838512
-0.00850122
-5.12003e-05
-0.000123592
-0.000188027
-0.000255102
-0.000321467
-0.000386744
-0.00045116
-0.000514713
-0.000577379
-0.000639166
-0.000700045
-0.000760069
-0.000819256
-0.000877655
-0.000935308
-0.000992223
-0.00104847
-0.00110403
-0.00115896
-0.00121326
-0.001267
-0.00132017
-0.00137287
-0.00142508
-0.00147689
-0.00152827
-0.00157934
-0.00163004
-0.00168052
-0.00173069
-0.00178072
-0.0018305
-0.00188022
-0.00192976
-0.00197931
-0.00202873
-0.00207824
-0.00212768
-0.00217728
-0.00222687
-0.0022767
-0.00232656
-0.00237673
-0.002427
-0.00247763
-0.0025284
-0.00257959
-0.00263097
-0.00268283
-0.00273491
-0.00278751
-0.00284038
-0.00289381
-0.00294755
-0.0030019
-0.00305658
-0.00311191
-0.00316762
-0.00322402
-0.00328083
-0.00333838
-0.00339636
-0.00345512
-0.00351437
-0.00357442
-0.00363499
-0.00369641
-0.00375839
-0.00382126
-0.00388472
-0.00394911
-0.00401415
-0.00408014
-0.00414682
-0.0042145
-0.00428291
-0.00435236
-0.00442259
-0.0044939
-0.00456602
-0.00463928
-0.00471339
-0.00478868
-0.00486487
-0.00494228
-0.00502065
-0.00510027
-0.00518091
-0.00526285
-0.00534586
-0.0054302
-0.00551568
-0.00560254
-0.00569058
-0.00578006
-0.00587077
-0.00596298
-0.00605647
-0.00615151
-0.0062479
-0.00634589
-0.00644528
-0.00654634
-0.00664885
-0.0067531
-0.00685886
-0.00696642
-0.00707557
-0.00718657
-0.00729923
-0.00741382
-0.00753013
-0.00764845
-0.00776856
-0.00789076
-0.00801471
-0.00814091
-0.00827063
-0.00840422
-0.0085204
-5.13044e-05
-0.000124035
-0.000189014
-0.000256582
-0.000323405
-0.000389135
-0.000453994
-0.000517979
-0.000581073
-0.000643253
-0.000704563
-0.000764963
-0.000824533
-0.000883305
-0.00094132
-0.000998593
-0.00105518
-0.00111107
-0.00116635
-0.00122097
-0.00127503
-0.00132851
-0.00138152
-0.00143402
-0.00148611
-0.00153778
-0.00158911
-0.00164009
-0.00169081
-0.00174124
-0.0017915
-0.00184153
-0.00189146
-0.00194123
-0.00199096
-0.00204061
-0.00209028
-0.00213993
-0.00218967
-0.00223946
-0.0022894
-0.00233946
-0.00238971
-0.00244016
-0.00249086
-0.00254181
-0.00259306
-0.00264463
-0.00269653
-0.00274879
-0.00280143
-0.00285449
-0.00290795
-0.00296188
-0.00301625
-0.00307113
-0.00312648
-0.00318239
-0.0032388
-0.00329581
-0.00335336
-0.00341155
-0.00347032
-0.00352977
-0.00358982
-0.0036506
-0.00371202
-0.00377421
-0.00383707
-0.00390075
-0.00396513
-0.00403038
-0.00409637
-0.00416326
-0.00423094
-0.00429956
-0.004369
-0.00443944
-0.00451074
-0.00458308
-0.00465632
-0.00473065
-0.00480591
-0.00488232
-0.00495971
-0.00503829
-0.0051179
-0.00519874
-0.00528066
-0.00536387
-0.00544821
-0.00553387
-0.00562073
-0.00570896
-0.00579843
-0.00588934
-0.00598153
-0.00607522
-0.00617025
-0.00626683
-0.00636481
-0.0064644
-0.00656543
-0.00666815
-0.00677237
-0.00687834
-0.00698588
-0.00709523
-0.0072062
-0.00731907
-0.00743362
-0.00755014
-0.00766843
-0.00778875
-0.0079109
-0.00803508
-0.00816123
-0.00829116
-0.00842471
-0.0085411
-5.14085e-05
-0.0001245
-0.000190066
-0.000258166
-0.000325484
-0.000391702
-0.000457039
-0.000521492
-0.000585035
-0.000647682
-0.000709394
-0.000770233
-0.000830209
-0.000889386
-0.00094779
-0.00100545
-0.00106239
-0.00111867
-0.00117428
-0.00122928
-0.00128366
-0.00133751
-0.00139081
-0.00144366
-0.00149603
-0.00154803
-0.00159962
-0.00165092
-0.00170187
-0.00175263
-0.00180308
-0.00185343
-0.00190354
-0.00195361
-0.0020035
-0.00205343
-0.00210325
-0.00215317
-0.00220303
-0.00225307
-0.00230311
-0.0023534
-0.00240374
-0.00245441
-0.00250518
-0.00255634
-0.00260765
-0.00265941
-0.00271138
-0.00276384
-0.00281654
-0.00286978
-0.00292331
-0.00297742
-0.00303185
-0.0030869
-0.00314232
-0.0031984
-0.00325488
-0.00331206
-0.00336967
-0.00342803
-0.00348686
-0.00354647
-0.00360659
-0.00366752
-0.00372901
-0.00379135
-0.00385429
-0.00391811
-0.00398257
-0.00404795
-0.00411403
-0.00418105
-0.00424881
-0.00431756
-0.00438709
-0.00445766
-0.00452903
-0.00460151
-0.00467482
-0.00474929
-0.00482462
-0.00490117
-0.00497863
-0.00505734
-0.00513702
-0.00521799
-0.0053
-0.00538332
-0.00546774
-0.00555353
-0.00564046
-0.00572881
-0.00581836
-0.00590939
-0.00600166
-0.00609546
-0.00619056
-0.00628725
-0.0063853
-0.006485
-0.00658611
-0.00668894
-0.00679323
-0.0068993
-0.00700691
-0.00711635
-0.0072274
-0.00734036
-0.00745498
-0.00757159
-0.00768995
-0.00781036
-0.00793258
-0.00805683
-0.00818305
-0.00831306
-0.00844667
-0.00856315
-5.1516e-05
-0.000124989
-0.000191182
-0.000259849
-0.000327695
-0.000394436
-0.000460286
-0.000525236
-0.000589273
-0.000652375
-0.000714578
-0.000775856
-0.000836266
-0.000895874
-0.000954697
-0.00101277
-0.00107011
-0.00112677
-0.00118275
-0.00123814
-0.00129289
-0.00134709
-0.00140074
-0.00145393
-0.00150663
-0.00155896
-0.00161086
-0.00166246
-0.00171372
-0.00176475
-0.0018155
-0.0018661
-0.00191649
-0.00196679
-0.00201696
-0.0020671
-0.00211717
-0.00216728
-0.00221739
-0.00226759
-0.00231786
-0.00236828
-0.00241885
-0.00246962
-0.00252061
-0.00257186
-0.00262339
-0.00267523
-0.0027274
-0.00277993
-0.00283284
-0.00288614
-0.00293989
-0.00299405
-0.0030487
-0.0031038
-0.00315943
-0.00321556
-0.00327225
-0.00332947
-0.00338731
-0.0034457
-0.00350475
-0.00356439
-0.00362473
-0.0036857
-0.00374741
-0.00380978
-0.00387293
-0.00393678
-0.00400146
-0.00406687
-0.00413315
-0.00420021
-0.00426818
-0.00433695
-0.0044067
-0.00447728
-0.00454888
-0.00462135
-0.00469489
-0.00476934
-0.00484492
-0.00492144
-0.00499914
-0.00507783
-0.00515774
-0.0052387
-0.00532091
-0.00540424
-0.00548886
-0.00557464
-0.00566178
-0.00575012
-0.00583987
-0.00593088
-0.00602336
-0.00611714
-0.00621245
-0.00630911
-0.00640737
-0.00650703
-0.00660835
-0.00671114
-0.00681564
-0.00692166
-0.00702947
-0.00713887
-0.00725012
-0.00736302
-0.00747784
-0.0075944
-0.00771295
-0.0078333
-0.00795572
-0.00807991
-0.00820632
-0.00833627
-0.00847006
-0.0085865
-5.1625e-05
-0.000125504
-0.000192362
-0.000261628
-0.000330035
-0.000397331
-0.000463724
-0.000529204
-0.000593753
-0.000657375
-0.000720047
-0.000781811
-0.000842691
-0.000902749
-0.00096202
-0.00102052
-0.00107829
-0.00113535
-0.00119176
-0.00124752
-0.00130268
-0.00135724
-0.00141129
-0.00146481
-0.0015179
-0.00157052
-0.0016228
-0.00167469
-0.00172631
-0.00177759
-0.00182869
-0.00187952
-0.00193025
-0.00198076
-0.00203125
-0.00208159
-0.00213197
-0.00218225
-0.00223265
-0.002283
-0.00233355
-0.00238411
-0.00243493
-0.00248582
-0.00253705
-0.0025884
-0.00264016
-0.00269209
-0.00274448
-0.0027971
-0.00285023
-0.00290362
-0.00295757
-0.00301182
-0.00306667
-0.00312186
-0.00317769
-0.00323391
-0.00329079
-0.0033481
-0.00340613
-0.00346461
-0.00352384
-0.00358358
-0.00364409
-0.00370515
-0.00376703
-0.0038295
-0.00389281
-0.00395677
-0.0040216
-0.00408711
-0.00415355
-0.0042207
-0.00428882
-0.00435769
-0.00442759
-0.00449826
-0.00457002
-0.00464257
-0.00471627
-0.0047908
-0.00486652
-0.00494313
-0.00502097
-0.00509974
-0.00517979
-0.00526083
-0.00534318
-0.00542659
-0.00551134
-0.00559721
-0.00568446
-0.00577289
-0.00586276
-0.00595384
-0.00604643
-0.00614029
-0.0062357
-0.00633244
-0.0064308
-0.00653054
-0.00663195
-0.00673481
-0.0068394
-0.00694549
-0.00705339
-0.00716285
-0.00727418
-0.00738714
-0.00750204
-0.00761865
-0.00773728
-0.00785767
-0.00798016
-0.00810439
-0.00823088
-0.00836087
-0.00849472
-0.00861119
-5.17378e-05
-0.000126045
-0.000193603
-0.000263499
-0.000332497
-0.000400378
-0.000467344
-0.000533382
-0.00059848
-0.000662618
-0.000725832
-0.000788087
-0.000849459
-0.000909992
-0.000969736
-0.0010287
-0.00108692
-0.00114441
-0.00120124
-0.0012574
-0.00131299
-0.00136795
-0.00142239
-0.00147629
-0.00152975
-0.00158274
-0.00163537
-0.0016876
-0.00173954
-0.00179116
-0.00184257
-0.00189372
-0.00194473
-0.00199555
-0.00204629
-0.00209692
-0.00214754
-0.00219811
-0.00224872
-0.00229935
-0.00235008
-0.0024009
-0.00245188
-0.00250302
-0.00255438
-0.00260597
-0.00265785
-0.00271001
-0.00276251
-0.00281536
-0.00286858
-0.00292221
-0.00297625
-0.00303073
-0.00308566
-0.00314109
-0.003197
-0.00325345
-0.00331041
-0.00336795
-0.00342604
-0.00348476
-0.00354406
-0.00360402
-0.0036646
-0.00372589
-0.00378783
-0.00385052
-0.0039139
-0.00397807
-0.00404297
-0.0041087
-0.00417519
-0.00424256
-0.00431073
-0.00437983
-0.00444975
-0.00452066
-0.00459242
-0.00466523
-0.00473891
-0.0048137
-0.00488941
-0.00496627
-0.0050441
-0.00512311
-0.00520315
-0.00528442
-0.00536677
-0.00545039
-0.00553514
-0.00562121
-0.00570847
-0.00579709
-0.00588695
-0.00597825
-0.00607082
-0.00616488
-0.00626027
-0.00635721
-0.00645553
-0.00655547
-0.00665684
-0.0067599
-0.00686444
-0.00697073
-0.00707857
-0.00718823
-0.0072995
-0.00741265
-0.00752749
-0.00764428
-0.00776283
-0.00788342
-0.00800582
-0.00813024
-0.00825663
-0.0083868
-0.00852056
-0.0086372
-5.18528e-05
-0.000126614
-0.000194905
-0.000265459
-0.000335077
-0.000403571
-0.000471137
-0.000537762
-0.000603426
-0.000668139
-0.000731871
-0.000794671
-0.000856554
-0.000917591
-0.000977823
-0.00103727
-0.00109596
-0.00115391
-0.00121117
-0.0012678
-0.00132378
-0.00137919
-0.00143402
-0.00148834
-0.00154216
-0.00159556
-0.00164853
-0.00170116
-0.00175341
-0.00180542
-0.00185711
-0.00190863
-0.0019599
-0.00201108
-0.00206207
-0.00211304
-0.00216387
-0.00221477
-0.00226558
-0.00231653
-0.00236744
-0.00241855
-0.00246969
-0.00252111
-0.00257262
-0.00262448
-0.00267648
-0.00272889
-0.00278151
-0.0028346
-0.00288794
-0.00294181
-0.00299596
-0.00305067
-0.00310572
-0.00316137
-0.00321739
-0.00327406
-0.00333113
-0.00338888
-0.00344709
-0.00350601
-0.00356542
-0.00362558
-0.00368628
-0.00374776
-0.00380981
-0.00387269
-0.00393618
-0.00400053
-0.00406554
-0.00413145
-0.00419805
-0.0042656
-0.00433386
-0.00440313
-0.00447315
-0.00454423
-0.00461609
-0.00468906
-0.00476284
-0.00483779
-0.00491359
-0.0049906
-0.00506852
-0.00514768
-0.00522781
-0.00530922
-0.00539166
-0.00547541
-0.00556025
-0.00564645
-0.00573379
-0.00582254
-0.00591248
-0.00600388
-0.00609653
-0.0061907
-0.00628616
-0.0063832
-0.00648159
-0.00658163
-0.00668306
-0.00678621
-0.00689081
-0.00699719
-0.00710508
-0.00721482
-0.00732613
-0.00743936
-0.00755424
-0.0076711
-0.00778969
-0.00791034
-0.00803277
-0.00815725
-0.00828367
-0.00841388
-0.00854766
-0.00866438
-5.19719e-05
-0.000127209
-0.000196265
-0.000267503
-0.000337768
-0.000406902
-0.000475095
-0.00054233
-0.000608596
-0.000673876
-0.000738198
-0.000801541
-0.000863958
-0.000925522
-0.000986263
-0.00104622
-0.00110539
-0.00116383
-0.00122156
-0.00127863
-0.00133506
-0.00139091
-0.00144617
-0.00150091
-0.00155514
-0.00160893
-0.00166229
-0.00171529
-0.00176792
-0.00182027
-0.00187232
-0.00192417
-0.00197579
-0.00202727
-0.00207859
-0.00212984
-0.00218099
-0.00223215
-0.00228327
-0.00233444
-0.00238565
-0.00243698
-0.0024884
-0.00254
-0.00259178
-0.0026438
-0.00269606
-0.00274862
-0.0028015
-0.00285472
-0.00290831
-0.0029623
-0.0030167
-0.00307153
-0.00312683
-0.00318259
-0.00323887
-0.00329563
-0.00335296
-0.00341081
-0.00346926
-0.00352827
-0.00358793
-0.00364818
-0.00370912
-0.00377069
-0.00383298
-0.00389594
-0.00395967
-0.0040241
-0.00408934
-0.00415532
-0.00422215
-0.00428976
-0.00435827
-0.00442758
-0.00449785
-0.00456895
-0.00464107
-0.00471405
-0.00478809
-0.00486304
-0.00493911
-0.00501611
-0.00509429
-0.00517344
-0.00525381
-0.00533522
-0.00541788
-0.00550163
-0.00558668
-0.00567287
-0.00576042
-0.00584916
-0.00593931
-0.00603069
-0.00612354
-0.00621769
-0.00631335
-0.00641036
-0.00650895
-0.00660894
-0.00671058
-0.00681367
-0.00691847
-0.00702478
-0.00713287
-0.00724253
-0.00735403
-0.00746718
-0.00758224
-0.00769903
-0.0078178
-0.00793835
-0.00806097
-0.00818535
-0.00831195
-0.00844206
-0.008576
-0.00869263
-5.20938e-05
-0.000127832
-0.000197682
-0.000269629
-0.000340566
-0.000410366
-0.00047921
-0.00054708
-0.000613963
-0.000679861
-0.000744754
-0.000808679
-0.000871659
-0.000933765
-0.000995042
-0.00105551
-0.0011152
-0.00117414
-0.00123236
-0.00128989
-0.0013468
-0.00140308
-0.0014588
-0.00151397
-0.00156864
-0.00162283
-0.00167661
-0.00172997
-0.00178302
-0.00183571
-0.00188817
-0.00194033
-0.00199234
-0.0020441
-0.0020958
-0.00214731
-0.00219883
-0.00225023
-0.0023017
-0.00235309
-0.00240464
-0.00245616
-0.00250791
-0.00255969
-0.00261177
-0.00266395
-0.0027165
-0.00276921
-0.00282236
-0.00287573
-0.00292959
-0.00298371
-0.00303837
-0.00309334
-0.00314889
-0.00320479
-0.0032613
-0.00331821
-0.00337576
-0.00343375
-0.00349242
-0.00355158
-0.00361145
-0.00367184
-0.00373298
-0.00379469
-0.00385718
-0.00392028
-0.0039842
-0.00404876
-0.00411419
-0.00418029
-0.00424731
-0.00431503
-0.00438373
-0.00445315
-0.0045236
-0.00459481
-0.0046671
-0.00474019
-0.0048144
-0.00488945
-0.00496568
-0.00504277
-0.00512111
-0.00520035
-0.00528088
-0.00536236
-0.00544517
-0.00552901
-0.0056142
-0.00570047
-0.00578815
-0.00587697
-0.00596723
-0.0060587
-0.00615166
-0.00624587
-0.00634164
-0.00643871
-0.0065374
-0.00663745
-0.00673918
-0.00684232
-0.00694721
-0.00705357
-0.00716173
-0.00727144
-0.00738302
-0.0074962
-0.00761133
-0.00772814
-0.00784697
-0.00796755
-0.00809022
-0.00821462
-0.00834127
-0.0084714
-0.00860537
-0.00872202
-5.22202e-05
-0.000128481
-0.000199152
-0.000271833
-0.000343465
-0.000413955
-0.000483473
-0.000552002
-0.000619529
-0.000686042
-0.000751567
-0.000816076
-0.000879637
-0.000942304
-0.00100414
-0.00106514
-0.00112537
-0.00118482
-0.00124354
-0.00130157
-0.00135895
-0.0014157
-0.00147189
-0.0015275
-0.00158262
-0.00163723
-0.00169144
-0.00174521
-0.00179865
-0.00185174
-0.00190456
-0.0019571
-0.00200946
-0.00206159
-0.00211361
-0.00216548
-0.00221729
-0.00226903
-0.00232077
-0.0023725
-0.00242429
-0.00247613
-0.00252811
-0.00258019
-0.00263248
-0.00268495
-0.00273768
-0.00279068
-0.00284399
-0.00289764
-0.00295165
-0.00300606
-0.00306086
-0.00311611
-0.00317179
-0.00322796
-0.0032846
-0.00334177
-0.00339945
-0.0034577
-0.0035165
-0.00357591
-0.0036359
-0.00369654
-0.0037578
-0.00381975
-0.00388235
-0.00394569
-0.00400971
-0.00407452
-0.00414004
-0.00420638
-0.00427348
-0.00434145
-0.00441021
-0.00447988
-0.00455038
-0.00462185
-0.00469418
-0.00476752
-0.00484176
-0.00491707
-0.0049933
-0.00507067
-0.00514899
-0.0052285
-0.00530901
-0.00539075
-0.00547354
-0.00555761
-0.00564279
-0.00572929
-0.00581695
-0.00590598
-0.00599622
-0.0060879
-0.00618083
-0.00627525
-0.00637098
-0.00646826
-0.0065669
-0.00666715
-0.00676882
-0.00687216
-0.00697698
-0.00708353
-0.00719162
-0.00730152
-0.00741301
-0.00752639
-0.00764142
-0.00775841
-0.00787714
-0.0079979
-0.00812047
-0.00824504
-0.00837158
-0.00850186
-0.00863573
-0.00875253
-5.23499e-05
-0.000129157
-0.000200676
-0.000274112
-0.000346462
-0.000417663
-0.000487878
-0.000557086
-0.000625273
-0.000692446
-0.000758581
-0.000823719
-0.000887874
-0.000951127
-0.00101353
-0.0010751
-0.00113586
-0.00119585
-0.00125509
-0.00131363
-0.00137149
-0.00142875
-0.00148539
-0.00154149
-0.00159705
-0.00165213
-0.00170674
-0.00176096
-0.00181479
-0.00186831
-0.00192149
-0.00197445
-0.00202714
-0.00207968
-0.002132
-0.00218427
-0.00223637
-0.00228848
-0.00234049