/*--------------------------------*- C++ -*----------------------------------*\
  =========                 |
  \\      /  F ield         | OpenFOAM: The Open Source CFD Toolbox
   \\    /   O peration     | Website:  https://openfoam.org
    \\  /    A nd           | Version:  8
     \\/     M anipulation  |
\*---------------------------------------------------------------------------*/
FoamFile
{
    version     2.0;
    format      ascii;
    class       volScalarField;
    location    "0.1";
    object      p;
}
// * * * * * * * * * * * * * * * * * * * * * * * * * * * * * * * * * * * * * //

dimensions      [0 2 -2 0 0 0 0];

internalField   nonuniform List<scalar> 
262620
(
0.242985
0.24288
0.242537
0.242019
0.241339
0.240498
0.239504
0.238366
0.237093
0.235692
0.234171
0.232537
0.230798
0.228959
0.227028
0.225011
0.222912
0.220738
0.218494
0.216186
0.213818
0.211395
0.208922
0.206404
0.203846
0.201251
0.198622
0.195963
0.193276
0.190567
0.187838
0.185096
0.182341
0.179581
0.176813
0.174045
0.171275
0.16851
0.165747
0.162994
0.160245
0.157509
0.154781
0.152068
0.149366
0.146682
0.144013
0.141364
0.138734
0.136128
0.133543
0.130985
0.128452
0.125949
0.123474
0.12103
0.118618
0.116241
0.113898
0.111592
0.109324
0.107096
0.10491
0.102767
0.10067
0.0986188
0.0966177
0.0946664
0.0927693
0.0909256
0.0891404
0.0874122
0.0857467
0.0841418
0.0826035
0.081129
0.0797248
0.0783875
0.0771234
0.0759287
0.0748096
0.0737618
0.0727915
0.0718936
0.0710741
0.0703277
0.0696598
0.0690651
0.0685483
0.0681039
0.0677363
0.0674399
0.0672184
0.0670663
0.0669866
0.0669743
0.0670314
0.0671534
0.0673418
0.0675921
0.0679055
0.0682779
0.0687099
0.0691978
0.0697418
0.0703386
0.0709881
0.0716871
0.0724355
0.0732303
0.0740711
0.0749551
0.075882
0.076849
0.0778561
0.0788994
0.0799803
0.081105
0.0822863
0.0833085
0.243055
0.242949
0.24261
0.242092
0.241414
0.240574
0.239581
0.238445
0.237173
0.235773
0.234253
0.232621
0.230883
0.229046
0.227116
0.225099
0.223002
0.220829
0.218587
0.21628
0.213913
0.211491
0.209019
0.206503
0.203945
0.201351
0.198724
0.196065
0.193378
0.190669
0.187942
0.1852
0.182447
0.179686
0.176921
0.174153
0.171386
0.168621
0.165861
0.163107
0.160362
0.157626
0.154902
0.152189
0.149491
0.146808
0.144142
0.141495
0.138869
0.136264
0.133684
0.131129
0.128601
0.126101
0.123631
0.121192
0.118786
0.116413
0.114076
0.111775
0.109513
0.107291
0.10511
0.102972
0.100879
0.0988325
0.0968339
0.0948855
0.0929885
0.0911456
0.0893575
0.0876273
0.0859554
0.0843452
0.0827969
0.0813138
0.0798958
0.0785465
0.0772652
0.0760555
0.0749162
0.073851
0.0728582
0.0719412
0.0710978
0.0703314
0.0696393
0.0690244
0.0684837
0.06802
0.0676298
0.0673156
0.0670737
0.066906
0.066809
0.0667839
0.0668272
0.0669398
0.0671183
0.067363
0.0676709
0.0680419
0.0684732
0.0689646
0.0695133
0.0701188
0.0707789
0.0714927
0.0722582
0.0730746
0.0739398
0.0748531
0.0758125
0.0768175
0.077866
0.0789576
0.0800903
0.0812767
0.0825248
0.0836077
0.243177
0.243073
0.242736
0.24222
0.241543
0.240706
0.239715
0.238581
0.23731
0.235913
0.234395
0.232764
0.231028
0.229193
0.227265
0.22525
0.223154
0.220983
0.218742
0.216437
0.214072
0.211651
0.209181
0.206666
0.20411
0.201517
0.19889
0.196232
0.193546
0.190838
0.18811
0.185368
0.182615
0.179856
0.17709
0.174324
0.171557
0.168794
0.166034
0.163282
0.160538
0.157804
0.15508
0.152369
0.149671
0.146989
0.144324
0.141678
0.139053
0.13645
0.133871
0.131317
0.128791
0.126293
0.123825
0.121388
0.118984
0.116613
0.114278
0.111979
0.109719
0.107498
0.105319
0.103182
0.10109
0.0990433
0.0970446
0.0950955
0.0931972
0.0913522
0.0895613
0.0878275
0.0861512
0.0845357
0.0829811
0.0814909
0.080065
0.0787069
0.0774159
0.0761959
0.0750456
0.0739689
0.0729639
0.0720345
0.0711782
0.0703989
0.0696934
0.0690655
0.0685116
0.0680352
0.0676326
0.0673065
0.0670535
0.0668753
0.0667689
0.0667352
0.0667713
0.0668775
0.0670512
0.0672922
0.0675982
0.0679687
0.0684016
0.0688962
0.0694508
0.0700642
0.0707351
0.0714622
0.0722446
0.0730808
0.0739699
0.0749105
0.0759016
0.0769425
0.0780317
0.0791689
0.0803525
0.0815969
0.0829113
0.0840522
0.243358
0.243256
0.242922
0.24241
0.241736
0.240902
0.239914
0.238782
0.237515
0.23612
0.234605
0.232977
0.231244
0.229411
0.227486
0.225473
0.22338
0.221211
0.218973
0.21667
0.214307
0.211889
0.209421
0.206907
0.204353
0.201762
0.199137
0.19648
0.193796
0.191087
0.188361
0.185619
0.182867
0.180107
0.177344
0.174577
0.171812
0.169049
0.166292
0.16354
0.160798
0.158064
0.155343
0.152632
0.149937
0.147255
0.144593
0.141947
0.139324
0.136722
0.134146
0.131594
0.12907
0.126574
0.124109
0.121674
0.119272
0.116903
0.11457
0.112274
0.110015
0.107796
0.105618
0.103482
0.101389
0.0993431
0.097343
0.0953924
0.0934911
0.0916428
0.0898468
0.0881076
0.0864239
0.0848009
0.0832365
0.0817365
0.0802984
0.0789281
0.0776228
0.0763886
0.075222
0.0741294
0.0731066
0.0721601
0.071285
0.0704879
0.0697632
0.0691174
0.0685447
0.068051
0.0676305
0.0672882
0.067019
0.0668265
0.0667062
0.0666605
0.0666856
0.0667828
0.066949
0.0671848
0.0674874
0.067857
0.0682913
0.0687899
0.0693512
0.0699744
0.0706581
0.0714013
0.0722031
0.0730622
0.073978
0.0749492
0.0759749
0.0770545
0.0781867
0.0793714
0.0806068
0.0819087
0.0832865
0.0844834
0.243596
0.243499
0.243169
0.24266
0.241991
0.24116
0.240176
0.239048
0.237784
0.236393
0.234881
0.233257
0.231527
0.229698
0.227776
0.225767
0.223677
0.221511
0.219276
0.216975
0.214615
0.2122
0.209734
0.207223
0.204671
0.202082
0.199459
0.196804
0.194121
0.191414
0.188688
0.185948
0.183196
0.180437
0.177674
0.174908
0.172144
0.169382
0.166626
0.163876
0.161134
0.158402
0.155681
0.152972
0.150277
0.147598
0.144935
0.142292
0.139669
0.137069
0.134493
0.131943
0.12942
0.126925
0.124461
0.122027
0.119626
0.117258
0.114925
0.112629
0.11037
0.10815
0.105971
0.103834
0.10174
0.0996909
0.0976884
0.0957335
0.0938285
0.0919742
0.0901734
0.0884264
0.0867365
0.0851038
0.0835318
0.0820204
0.0805733
0.0791901
0.0778747
0.0766261
0.0754485
0.0743404
0.0733059
0.0723432
0.0714563
0.0706426
0.0699063
0.0692443
0.0686604
0.0681512
0.0677202
0.067364
0.0670851
0.0668804
0.0667518
0.0666962
0.0667148
0.0668049
0.0669669
0.0671985
0.0674998
0.0678687
0.0683048
0.0688066
0.0693733
0.0700037
0.0706968
0.0714515
0.0722669
0.0731421
0.074076
0.0750679
0.0761169
0.0772223
0.0783837
0.0795992
0.0808702
0.0822083
0.0836286
0.0848584
0.24389
0.243798
0.243473
0.242969
0.242304
0.241479
0.240499
0.239375
0.238116
0.236729
0.235222
0.233603
0.231877
0.230052
0.228134
0.226129
0.224042
0.221881
0.219649
0.217352
0.214995
0.212583
0.210121
0.207613
0.205063
0.202476
0.199856
0.197203
0.194523
0.191817
0.189093
0.186352
0.183602
0.180843
0.178081
0.175316
0.172552
0.169791
0.167036
0.164287
0.161547
0.158816
0.156096
0.153388
0.150694
0.148015
0.145354
0.142711
0.140089
0.13749
0.134914
0.132365
0.129843
0.127349
0.124885
0.122452
0.12005
0.117683
0.115349
0.113052
0.110792
0.108571
0.10639
0.10425
0.102153
0.1001
0.0980936
0.096134
0.0942235
0.0923632
0.0905555
0.0888011
0.087103
0.0854615
0.0838801
0.0823586
0.0809008
0.0795064
0.0781793
0.0769186
0.0757284
0.0746075
0.07356
0.0725841
0.0716839
0.070857
0.0701077
0.0694328
0.0688363
0.0683149
0.0678721
0.0675046
0.0672151
0.0670007
0.066863
0.0667996
0.0668112
0.0668956
0.067053
0.0672815
0.0675807
0.067949
0.0683858
0.0688897
0.0694598
0.0700951
0.0707943
0.0715568
0.0723811
0.0732668
0.0742122
0.0752172
0.0762802
0.0774006
0.0785778
0.0798097
0.0810979
0.0824534
0.083891
0.0851342
0.24424
0.244154
0.243834
0.243336
0.242677
0.241856
0.240882
0.239764
0.23851
0.237128
0.235627
0.234012
0.232291
0.230471
0.228558
0.226557
0.224476
0.222318
0.220091
0.217798
0.215445
0.213037
0.210578
0.208073
0.205527
0.202943
0.200325
0.197676
0.194998
0.192295
0.189571
0.186833
0.184082
0.181325
0.178562
0.175799
0.173035
0.170275
0.16752
0.164773
0.162033
0.159303
0.156584
0.153877
0.151184
0.148506
0.145845
0.143203
0.140581
0.137983
0.135407
0.132858
0.130336
0.127842
0.125377
0.122943
0.120541
0.118172
0.115837
0.113537
0.111275
0.109051
0.106866
0.104722
0.102621
0.100564
0.0985522
0.0965865
0.0946702
0.0928028
0.0909885
0.0892262
0.0875207
0.0858705
0.084281
0.0827502
0.081284
0.0798798
0.0785439
0.0772732
0.0760742
0.0749432
0.073887
0.0729012
0.0719925
0.0711562
0.0703987
0.0697149
0.0691108
0.0685812
0.0681315
0.0677566
0.067461
0.0672401
0.0670973
0.0670285
0.0670359
0.0671162
0.0672705
0.067496
0.0677931
0.0681597
0.0685954
0.0690986
0.0696686
0.0703042
0.0710041
0.0717675
0.072593
0.0734801
0.0744271
0.0754335
0.076498
0.0776195
0.0787975
0.0800295
0.0813171
0.0826707
0.0841044
0.0853419
0.244643
0.244563
0.24425
0.243759
0.243106
0.242292
0.241324
0.240212
0.238964
0.237588
0.236092
0.234484
0.232769
0.230954
0.229046
0.227051
0.224975
0.222822
0.2206
0.218312
0.215963
0.21356
0.211105
0.208604
0.206061
0.203481
0.200867
0.19822
0.195545
0.192844
0.190123
0.187385
0.184636
0.181879
0.179117
0.176354
0.173591
0.170832
0.168078
0.16533
0.162592
0.159863
0.157145
0.154438
0.151746
0.149069
0.146408
0.143766
0.141145
0.138545
0.13597
0.13342
0.130897
0.128402
0.125936
0.1235
0.121096
0.118724
0.116387
0.114084
0.111818
0.10959
0.107401
0.105253
0.103146
0.101084
0.0990655
0.0970942
0.0951706
0.0932973
0.0914749
0.0897064
0.0879923
0.0863359
0.0847375
0.0832007
0.0817255
0.0803156
0.0789707
0.0776948
0.0764869
0.0753512
0.0742864
0.0732964
0.0723795
0.0715396
0.0707743
0.0700874
0.069476
0.0689438
0.0684874
0.0681101
0.0678085
0.0675851
0.067437
0.0673657
0.0673684
0.0674462
0.0675963
0.0678193
0.0681127
0.0684765
0.0689088
0.0694088
0.0699751
0.0706066
0.0713022
0.0720605
0.0728806
0.073761
0.0747009
0.0756988
0.0767539
0.0778651
0.0790311
0.080251
0.0815239
0.0828642
0.0842789
0.0855028
0.245098
0.245026
0.244721
0.244237
0.243591
0.242784
0.241823
0.240718
0.239477
0.238108
0.236619
0.235017
0.233308
0.2315
0.229598
0.227609
0.225539
0.223392
0.221175
0.218892
0.216549
0.21415
0.2117
0.209203
0.206664
0.204088
0.201477
0.198834
0.196162
0.193465
0.190745
0.18801
0.185261
0.182506
0.179744
0.176981
0.174219
0.17146
0.168706
0.16596
0.163222
0.160494
0.157776
0.155071
0.152379
0.149702
0.147041
0.144399
0.141777
0.139177
0.136601
0.134049
0.131525
0.129028
0.12656
0.124122
0.121715
0.11934
0.116999
0.114692
0.112422
0.110189
0.107995
0.105841
0.103729
0.10166
0.0996358
0.097658
0.095728
0.093848
0.0920191
0.090244
0.0885236
0.086861
0.0852568
0.0837142
0.0822337
0.0808188
0.0794694
0.0781892
0.0769774
0.0758382
0.0747701
0.0737772
0.0728576
0.0720154
0.0712478
0.070559
0.0699456
0.0694117
0.0689534
0.0685742
0.0682705
0.0680452
0.0678947
0.0678211
0.0678211
0.067896
0.0680431
0.0682626
0.0685523
0.0689117
0.0693392
0.0698335
0.0703936
0.0710178
0.0717053
0.0724543
0.0732643
0.0741332
0.0750606
0.0760445
0.0770841
0.0781781
0.0793253
0.0805248
0.0817752
0.0830909
0.0844773
0.0856753
0.245605
0.245542
0.245244
0.244768
0.24413
0.243331
0.242378
0.241281
0.240047
0.238686
0.237204
0.235609
0.233908
0.232107
0.230212
0.22823
0.226166
0.224025
0.221814
0.219537
0.217199
0.214806
0.212361
0.209869
0.207335
0.204763
0.202156
0.199517
0.196849
0.194154
0.191438
0.188704
0.185958
0.183202
0.180442
0.177679
0.174918
0.172158
0.169406
0.166659
0.163922
0.161194
0.158478
0.155772
0.153081
0.150403
0.147743
0.1451
0.142477
0.139876
0.137298
0.134745
0.132218
0.129719
0.127248
0.124807
0.122396
0.120018
0.117672
0.115361
0.113086
0.110848
0.108648
0.106488
0.10437
0.102295
0.100264
0.0982809
0.0963443
0.0944589
0.0926237
0.0908438
0.0891177
0.0874511
0.085842
0.0842964
0.0828121
0.0813952
0.080043
0.0787618
0.0775485
0.0764092
0.0753403
0.074348
0.0734283
0.0725871
0.0718198
0.0711323
0.0705193
0.0699866
0.0695283
0.06915
0.0688459
0.0686206
0.0684689
0.0683941
0.0683917
0.068464
0.0686072
0.0688223
0.0691063
0.0694593
0.069879
0.0703646
0.0709146
0.0715276
0.0722025
0.0729377
0.0737325
0.0745849
0.0754945
0.0764591
0.0774781
0.07855
0.0796734
0.0808474
0.0820705
0.0833567
0.0847096
0.085878
0.246162
0.246108
0.245819
0.245352
0.244723
0.243933
0.242988
0.241899
0.240674
0.239321
0.237848
0.236261
0.234567
0.232774
0.230887
0.228912
0.226855
0.224721
0.222516
0.220246
0.217914
0.215527
0.213087
0.210601
0.208072
0.205505
0.202901
0.200267
0.197603
0.194912
0.192199
0.189467
0.186722
0.183968
0.181208
0.178446
0.175685
0.172926
0.170173
0.167428
0.164691
0.161963
0.159247
0.156542
0.15385
0.151173
0.148512
0.145868
0.143244
0.140641
0.138061
0.135506
0.132976
0.130474
0.128
0.125555
0.12314
0.120757
0.118407
0.116091
0.11381
0.111566
0.109361
0.107195
0.105071
0.10299
0.100954
0.0989636
0.0970223
0.0951307
0.0932919
0.0915065
0.089778
0.0881068
0.0864967
0.0849478
0.083464
0.082045
0.0806948
0.0794127
0.0782026
0.0770633
0.0759987
0.0750072
0.0740924
0.0732522
0.0724902
0.0718035
0.0711955
0.0706631
0.0702094
0.0698307
0.0695298
0.0693031
0.0691527
0.0690752
0.069072
0.0691399
0.0692796
0.0694884
0.0697661
0.0701105
0.0705208
0.0709953
0.0715328
0.0721318
0.0727909
0.0735091
0.0742847
0.0751166
0.0760034
0.0769443
0.0779376
0.0789825
0.0800779
0.0812222
0.082416
0.0836692
0.0849889
0.0861248
0.246767
0.246724
0.246445
0.245988
0.245369
0.244587
0.243652
0.242572
0.241356
0.240012
0.238548
0.236969
0.235285
0.2335
0.23162
0.229653
0.227604
0.225478
0.22328
0.221017
0.218692
0.216311
0.213878
0.211397
0.208874
0.206311
0.203713
0.201082
0.198423
0.195736
0.193026
0.190297
0.187554
0.184801
0.182042
0.17928
0.17652
0.173762
0.171009
0.168264
0.165527
0.1628
0.160084
0.157379
0.154687
0.152009
0.149347
0.146702
0.144076
0.141472
0.138889
0.136331
0.133799
0.131293
0.128815
0.126366
0.123947
0.121559
0.119203
0.116882
0.114595
0.112346
0.110134
0.107963
0.105833
0.103746
0.101705
0.0997098
0.0977638
0.0958682
0.0940257
0.0922374
0.0905067
0.0888341
0.0872233
0.0856745
0.0841915
0.0827742
0.0814263
0.0801472
0.0789407
0.0778055
0.0767454
0.0757585
0.0748485
0.0740131
0.0732557
0.0725734
0.0719694
0.0714405
0.0709895
0.0706128
0.0703131
0.0700865
0.0699351
0.0698555
0.0698488
0.0699122
0.0700458
0.0702475
0.0705164
0.070851
0.0712498
0.0717116
0.0722345
0.0728178
0.0734594
0.0741588
0.0749137
0.075724
0.0765873
0.0775035
0.0784704
0.0794876
0.0805537
0.0816669
0.0828283
0.084047
0.0853292
0.0864312
0.247421
0.247389
0.24712
0.246674
0.246065
0.245294
0.244368
0.243299
0.242093
0.240758
0.239303
0.237734
0.236059
0.234283
0.232412
0.230454
0.228413
0.226294
0.224105
0.221849
0.219531
0.217157
0.21473
0.212256
0.209738
0.207181
0.204588
0.201963
0.199307
0.196625
0.193919
0.191193
0.188451
0.1857
0.182942
0.180182
0.177421
0.174664
0.171911
0.169166
0.166429
0.163703
0.160986
0.158282
0.155589
0.152911
0.150248
0.147601
0.144973
0.142367
0.139781
0.13722
0.134684
0.132175
0.129692
0.127239
0.124815
0.122422
0.120061
0.117734
0.115443
0.113187
0.11097
0.108793
0.106658
0.104566
0.10252
0.10052
0.0985712
0.0966721
0.0948279
0.0930377
0.0913069
0.0896339
0.0880248
0.0864773
0.0849977
0.0835832
0.0822402
0.0809653
0.0797648
0.0786348
0.0775813
0.0766001
0.0756969
0.0748671
0.0741161
0.0734387
0.0728402
0.0723149
0.0718678
0.0714931
0.0711951
0.0709682
0.0708159
0.0707333
0.0707228
0.0707801
0.0709066
0.0710991
0.0713576
0.0716798
0.0720647
0.0725108
0.0730166
0.0735811
0.0742024
0.0748799
0.0756116
0.0763973
0.0772347
0.0781238
0.0790625
0.0800502
0.0810856
0.0821669
0.0832952
0.084479
0.0857236
0.0867909
0.248122
0.248101
0.247844
0.247409
0.246811
0.246051
0.245136
0.244077
0.242882
0.241558
0.240113
0.238554
0.236888
0.235122
0.233261
0.231311
0.229279
0.22717
0.224988
0.22274
0.220431
0.218064
0.215644
0.213176
0.210665
0.208113
0.205527
0.202906
0.200256
0.197577
0.194875
0.192153
0.189414
0.186664
0.183908
0.181148
0.178388
0.175631
0.172879
0.170134
0.167397
0.164671
0.161954
0.159249
0.156556
0.153877
0.151213
0.148565
0.145935
0.143325
0.140737
0.138172
0.135633
0.133119
0.130632
0.128174
0.125745
0.123347
0.120981
0.118648
0.116351
0.11409
0.111868
0.109686
0.107545
0.105449
0.103399
0.101396
0.0994437
0.0975437
0.0956974
0.0939082
0.0921768
0.0905068
0.0888987
0.0873562
0.0858791
0.0844713
0.0831321
0.0818652
0.0806693
0.079548
0.0784996
0.0775274
0.0766292
0.075808
0.0750612
0.0743915
0.0737959
0.0732768
0.0728308
0.0724601
0.072161
0.0719353
0.0717795
0.0716946
0.0716777
0.0717291
0.0718461
0.0720287
0.0722747
0.0725831
0.0729524
0.0733813
0.0738684
0.0744123
0.0750118
0.0756654
0.0763721
0.0771305
0.0779398
0.0787986
0.0797061
0.0806612
0.081663
0.0827105
0.0838032
0.0849529
0.0861592
0.0871963
0.248869
0.248861
0.248615
0.248192
0.247606
0.246857
0.245954
0.244906
0.243722
0.242409
0.240975
0.239427
0.237772
0.236016
0.234165
0.232225
0.230202
0.228102
0.22593
0.22369
0.221389
0.21903
0.216617
0.214157
0.211652
0.209108
0.206525
0.203911
0.201265
0.198593
0.195894
0.193176
0.19044
0.187692
0.184937
0.182178
0.179419
0.176662
0.17391
0.171166
0.168429
0.165702
0.162986
0.160281
0.157587
0.154907
0.152241
0.149591
0.146959
0.144346
0.141755
0.139187
0.136643
0.134125
0.131634
0.129171
0.126737
0.124334
0.121963
0.119625
0.117322
0.115056
0.112828
0.110641
0.108497
0.106397
0.104343
0.102338
0.100384
0.0984834
0.0966374
0.0948492
0.09312
0.091453
0.0898488
0.088311
0.0868395
0.0854379
0.0841055
0.0828458
0.0816575
0.0805441
0.0795035
0.078539
0.0776481
0.0768339
0.0760935
0.0754295
0.0748385
0.0743232
0.0738797
0.0735103
0.0732109
0.0729836
0.0728243
0.0727345
0.0727106
0.0727535
0.0728602
0.0730308
0.0732631
0.0735563
0.073909
0.0743196
0.0747873
0.07531
0.0758873
0.0765169
0.0771988
0.0779305
0.0787122
0.0795417
0.0804186
0.0813417
0.0823099
0.0833229
0.0843795
0.0854921
0.0866584
0.0876596
0.24966
0.249665
0.249432
0.249022
0.248449
0.247712
0.246821
0.245786
0.244613
0.243312
0.24189
0.240353
0.238709
0.236964
0.235123
0.233194
0.231181
0.229091
0.226928
0.224697
0.222404
0.220054
0.217649
0.215196
0.212699
0.21016
0.207586
0.204976
0.202337
0.199668
0.196975
0.19426
0.191528
0.188782
0.186029
0.183271
0.180512
0.177756
0.175005
0.17226
0.169524
0.166797
0.16408
0.161374
0.15868
0.155999
0.153332
0.15068
0.148045
0.14543
0.142835
0.140263
0.137716
0.135193
0.132698
0.13023
0.127791
0.125383
0.123006
0.120663
0.118355
0.116084
0.113852
0.111661
0.109512
0.10741
0.105354
0.103348
0.101393
0.0994929
0.0976476
0.0958624
0.0941358
0.0924738
0.0908741
0.089343
0.0878776
0.0864841
0.0851588
0.0839081
0.0827276
0.0816234
0.0805905
0.0796348
0.0787512
0.0779448
0.0772102
0.0765523
0.0759653
0.0754538
0.0750119
0.0746436
0.0743429
0.0741135
0.0739497
0.0738543
0.0738224
0.073856
0.0739512
0.0741089
0.0743261
0.0746028
0.0749371
0.0753278
0.0757739
0.0762736
0.0768263
0.07743
0.0780847
0.0787881
0.0795403
0.0803393
0.0811847
0.0820752
0.0830097
0.0839878
0.0850083
0.0860835
0.0872089
0.0881734
0.250496
0.250514
0.250295
0.249898
0.249338
0.248615
0.247737
0.246714
0.245554
0.244265
0.242855
0.24133
0.239698
0.237964
0.236135
0.234217
0.232215
0.230134
0.227981
0.22576
0.223477
0.221135
0.218739
0.216294
0.213803
0.211273
0.208704
0.206102
0.203466
0.200804
0.198115
0.195405
0.192676
0.189933
0.187181
0.184425
0.181667
0.178912
0.176161
0.173417
0.170681
0.167954
0.165237
0.16253
0.159835
0.157153
0.154484
0.15183
0.149193
0.146574
0.143976
0.141401
0.138849
0.136322
0.133822
0.131349
0.128906
0.126492
0.124111
0.121763
0.11945
0.117175
0.114939
0.112744
0.110593
0.108488
0.106431
0.104424
0.10247
0.10057
0.0987284
0.0969453
0.0952244
0.0935662
0.0919742
0.0904484
0.0889923
0.0876051
0.0862902
0.0850464
0.0838766
0.0827791
0.0817568
0.0808071
0.0799329
0.0791312
0.0784045
0.0777493
0.0771679
0.0766567
0.0762175
0.0758465
0.0755453
0.0753101
0.0751421
0.0750378
0.074998
0.0750196
0.0751031
0.0752456
0.0754473
0.075706
0.0760209
0.0763906
0.0768139
0.0772897
0.0778164
0.0783933
0.0790189
0.0796925
0.0804128
0.0811793
0.0819906
0.0828463
0.0837456
0.0846874
0.0856724
0.0867091
0.0877963
0.0887236
0.251373
0.251407
0.251202
0.250819
0.250273
0.249564
0.248699
0.247689
0.246543
0.245267
0.243869
0.242357
0.240737
0.239016
0.237199
0.235292
0.233301
0.231232
0.229089
0.226878
0.224604
0.222271
0.219884
0.217448
0.214966
0.212441
0.209881
0.207283
0.204656
0.201998
0.199315
0.196608
0.193884
0.191144
0.188394
0.185639
0.182883
0.180128
0.177378
0.174634
0.171898
0.169171
0.166453
0.163746
0.161051
0.158367
0.155696
0.15304
0.1504
0.147779
0.145178
0.142598
0.140042
0.137511
0.135007
0.132529
0.130081
0.127663
0.125277
0.122924
0.120607
0.118328
0.116089
0.113891
0.111738
0.109631
0.107574
0.105567
0.103614
0.101717
0.099879
0.0981004
0.0963849
0.094733
0.0931481
0.0916301
0.0901823
0.088804
0.0874981
0.0862635
0.0851028
0.0840143
0.0830003
0.0820586
0.0811915
0.0803961
0.0796744
0.0790232
0.0784445
0.0779344
0.0774948
0.0771218
0.0768169
0.0765762
0.076401
0.0762876
0.0762371
0.076246
0.076315
0.0764416
0.0766255
0.076865
0.0771591
0.0775068
0.0779066
0.0783578
0.0788584
0.0794084
0.0800053
0.0806497
0.0813391
0.0820739
0.0828521
0.0836737
0.0845375
0.0854424
0.0863895
0.0873866
0.0884312
0.0893198
0.252294
0.252343
0.252152
0.251784
0.251253
0.250558
0.249707
0.248712
0.247579
0.246317
0.244933
0.243434
0.241827
0.240118
0.238313
0.236419
0.23444
0.232381
0.23025
0.22805
0.225786
0.223463
0.221085
0.218657
0.216183
0.213668
0.211113
0.208524
0.205901
0.20325
0.200571
0.197871
0.195149
0.192413
0.189666
0.186913
0.184158
0.181404
0.178654
0.175911
0.173175
0.170448
0.16773
0.165022
0.162325
0.15964
0.156968
0.15431
0.151667
0.149043
0.146438
0.143855
0.141295
0.13876
0.136251
0.133769
0.131316
0.128893
0.126503
0.124146
0.121826
0.119542
0.117301
0.1151
0.112947
0.110839
0.108782
0.106776
0.104827
0.102933
0.1011
0.0993257
0.0976173
0.095972
0.0943958
0.0928857
0.0914477
0.0900781
0.0887825
0.0875567
0.0864061
0.0853259
0.0843211
0.0833865
0.0825269
0.0817367
0.0810204
0.0803721
0.079796
0.0792859
0.0788458
0.0784696
0.0781608
0.0779135
0.077731
0.0776075
0.0775459
0.0775412
0.0775955
0.077705
0.0778706
0.0780896
0.078362
0.0786861
0.0790609
0.0794856
0.0799584
0.0804792
0.0810459
0.0816588
0.0823156
0.0830169
0.0837605
0.0845466
0.0853737
0.0862406
0.0871486
0.0881047
0.0891054
0.0899531
0.253254
0.253319
0.253144
0.252792
0.252276
0.251596
0.25076
0.249779
0.248661
0.247413
0.246043
0.244559
0.242965
0.24127
0.239478
0.237596
0.235629
0.233583
0.231463
0.229273
0.22702
0.224707
0.222339
0.219921
0.217456
0.214947
0.212402
0.209818
0.207204
0.204557
0.201886
0.199189
0.196472
0.193739
0.190995
0.188244
0.185491
0.182739
0.17999
0.177247
0.174511
0.171783
0.169065
0.166357
0.163659
0.160973
0.158298
0.155638
0.152993
0.150365
0.147757
0.14517
0.142606
0.140067
0.137553
0.135067
0.13261
0.130183
0.127788
0.125428
0.123104
0.120818
0.118574
0.116373
0.114217
0.112111
0.110055
0.108052
0.106105
0.104216
0.102387
0.100621
0.0989183
0.0972825
0.0957133
0.094214
0.0927837
0.0914254
0.0901378
0.0889233
0.08778
0.0867104
0.0857117
0.0847862
0.0839309
0.0831477
0.0824332
0.0817892
0.0812119
0.080703
0.0802586
0.0798801
0.0795636
0.0793104
0.0791167
0.0789837
0.0789078
0.0788899
0.0789271
0.0790198
0.0791654
0.079364
0.0796136
0.0799137
0.0802628
0.08066
0.0811042
0.0815942
0.0821294
0.0827085
0.083331
0.0839956
0.0847021
0.0854492
0.0862366
0.0870634
0.08793
0.0888456
0.0898021
0.090613
0.254256
0.254337
0.254178
0.253842
0.253342
0.252677
0.251857
0.250892
0.249789
0.248556
0.247201
0.24573
0.244151
0.24247
0.240691
0.238822
0.236868
0.234835
0.232726
0.230549
0.228307
0.226004
0.223647
0.221237
0.218781
0.216283
0.213743
0.211169
0.20856
0.205922
0.203254
0.200564
0.197851
0.195123
0.192381
0.189633
0.186881
0.18413
0.181382
0.17864
0.175904
0.173177
0.170458
0.16775
0.165051
0.162363
0.159687
0.157024
0.154377
0.151746
0.149135
0.146544
0.143976
0.141432
0.138915
0.136424
0.133963
0.131532
0.129134
0.12677
0.124443
0.122155
0.119909
0.117708
0.115553
0.113447
0.111393
0.109394
0.107451
0.105568
0.103745
0.101986
0.100291
0.0986643
0.0971045
0.0956148
0.0941945
0.0928462
0.0915684
0.0903635
0.0892294
0.0881681
0.0871771
0.0862582
0.0854083
0.0846293
0.0839176
0.0832747
0.0826971
0.0821861
0.0817377
0.0813535
0.0810293
0.0807668
0.0805618
0.0804159
0.0803252
0.080291
0.0803101
0.0803831
0.0805077
0.0806835
0.0809092
0.0811837
0.0815061
0.0818749
0.0822898
0.0827487
0.0832521
0.0837976
0.0843858
0.0850147
0.0856844
0.0863935
0.0871419
0.0879287
0.0887544
0.0896281
0.0905401
0.0913106
0.255295
0.255394
0.255252
0.254933
0.254449
0.253801
0.252997
0.252047
0.25096
0.249743
0.248403
0.246948
0.245384
0.243716
0.241952
0.240097
0.238156
0.236135
0.23404
0.231874
0.229644
0.227353
0.225005
0.222606
0.22016
0.217669
0.21514
0.212572
0.209972
0.207338
0.204679
0.201993
0.199286
0.196561
0.193823
0.191077
0.188328
0.185578
0.182831
0.180089
0.177354
0.174627
0.171909
0.169199
0.1665
0.16381
0.161133
0.158468
0.155818
0.153185
0.15057
0.147975
0.145403
0.142856
0.140334
0.13784
0.135374
0.13294
0.130539
0.128173
0.125843
0.123554
0.121307
0.119106
0.116951
0.114849
0.112797
0.110803
0.108865
0.106989
0.105172
0.103423
0.101736
0.10012
0.0985689
0.0970905
0.09568
0.094343
0.0930747
0.0918804
0.0907547
0.0897026
0.0887183
0.0878065
0.0869611
0.0861864
0.0854763
0.0848346
0.0842552
0.0837419
0.0832882
0.082898
0.0825649
0.0822927
0.082075
0.0819155
0.0818084
0.0817569
0.0817561
0.0818082
0.0819096
0.0820613
0.082261
0.0825083
0.0828021
0.083141
0.0835248
0.0839516
0.0844217
0.0849329
0.085486
0.0860787
0.0867116
0.0873828
0.0880923
0.0888391
0.0896236
0.0904545
0.0913199
0.0920481
0.256374
0.25649
0.256366
0.256064
0.255598
0.254966
0.254179
0.253246
0.252175
0.250974
0.24965
0.248211
0.246662
0.245009
0.24326
0.241419
0.239492
0.237485
0.235402
0.233249
0.231031
0.228751
0.226415
0.224026
0.22159
0.21911
0.216587
0.214029
0.211434
0.20881
0.206156
0.203477
0.200774
0.198054
0.19532
0.192577
0.189829
0.187081
0.184335
0.181594
0.17886
0.176133
0.173414
0.170705
0.168004
0.165314
0.162635
0.159968
0.157316
0.154679
0.152061
0.149463
0.146888
0.144336
0.141811
0.139313
0.136844
0.134407
0.132002
0.129634
0.127303
0.125013
0.122767
0.120566
0.118414
0.116314
0.114267
0.112277
0.110346
0.108476
0.106669
0.104927
0.103252
0.101644
0.100106
0.0986364
0.0972384
0.0959104
0.0946541
0.0934677
0.0923528
0.0913069
0.0903314
0.0894235
0.0885843
0.0878107
0.0871037
0.0864598
0.0858801
0.085361
0.0849034
0.0845036
0.0841627
0.083877
0.0836477
0.083471
0.0833485
0.0832765
0.0832563
0.0832851
0.0833633
0.0834891
0.0836622
0.0838814
0.0841455
0.0844541
0.0848056
0.0851999
0.085635
0.0861115
0.0866272
0.0871827
0.087776
0.0884077
0.089076
0.0897811
0.0905233
0.0913098
0.0921294
0.0928138
0.257489
0.257624
0.257518
0.257234
0.256785
0.256171
0.255402
0.254486
0.253432
0.252248
0.25094
0.249517
0.247984
0.246347
0.244613
0.242787
0.240875
0.238881
0.236812
0.234672
0.232466
0.230199
0.227874
0.225496
0.22307
0.220599
0.218087
0.215536
0.212951
0.210333
0.207687
0.205012
0.202316
0.199601
0.19687
0.19413
0.191384
0.188638
0.185893
0.183154
0.18042
0.177693
0.174975
0.172265
0.169564
0.166873
0.164192
0.161523
0.158868
0.156229
0.153608
0.151006
0.148427
0.145872
0.143343
0.140842
0.13837
0.13593
0.133524
0.131153
0.128822
0.126532
0.124287
0.122087
0.119939
0.117841
0.115801
0.113816
0.111894
0.11003
0.108234
0.1065
0.104836
0.103238
0.101712
0.100253
0.0988665
0.0975482
0.0963029
0.0951251
0.0940195
0.0929803
0.0920117
0.0911081
0.0902729
0.0895006
0.0887943
0.0881483
0.0875658
0.0870409
0.0865766
0.0861673
0.0858161
0.0855172
0.0852739
0.0850806
0.0849403
0.0848482
0.0848068
0.084812
0.0848657
0.0849647
0.08511
0.0852993
0.0855326
0.0858087
0.0861267
0.0864861
0.0868854
0.0873249
0.0878028
0.0883197
0.0888735
0.0894649
0.0900921
0.0907549
0.091454
0.0921954
0.0929669
0.0936066
0.258641
0.258795
0.258707
0.258442
0.258012
0.257417
0.256665
0.255766
0.25473
0.253563
0.252273
0.250867
0.24935
0.24773
0.246011
0.244201
0.242303
0.240324
0.238269
0.236143
0.23395
0.231695
0.229382
0.227016
0.2246
0.22214
0.219636
0.217095
0.214517
0.211908
0.209267
0.206601
0.20391
0.201199
0.198472
0.195735
0.192992
0.190248
0.187505
0.184766
0.182033
0.179308
0.176589
0.173879
0.171177
0.168484
0.165802
0.163131
0.160474
0.157832
0.155208
0.152603
0.150021
0.147463
0.14493
0.142426
0.139952
0.13751
0.135102
0.132731
0.130399
0.12811
0.125865
0.12367
0.121524
0.119433
0.117397
0.115421
0.113504
0.111652
0.109863
0.108142
0.106487
0.104901
0.103384
0.101938
0.100561
0.0992548
0.0980173
0.0968501
0.0957503
0.0947195
0.0937544
0.0928562
0.0920215
0.0912513
0.0905421
0.0898947
0.0893056
0.0887755
0.088301
0.0878829
0.0875176
0.0872062
0.0869453
0.0867359
0.0865749
0.0864631
0.0863978
0.0863798
0.0864067
0.086479
0.0865946
0.0867539
0.0869553
0.0871984
0.0874822
0.0878059
0.0881689
0.0885702
0.0890095
0.0894856
0.0899983
0.0905466
0.0911304
0.0917487
0.0924024
0.0930985
0.0938213
0.0944191
0.259828
0.260002
0.259933
0.259688
0.259277
0.2587
0.257966
0.257087
0.256068
0.25492
0.253647
0.252258
0.250759
0.249155
0.247453
0.245658
0.243776
0.241813
0.239772
0.23766
0.23548
0.233238
0.230937
0.228583
0.226179
0.223727
0.221235
0.218702
0.216135
0.213531
0.2109
0.208239
0.205555
0.202849
0.200126
0.197392
0.194652
0.19191
0.189169
0.186432
0.1837
0.180975
0.178256
0.175546
0.172843
0.170149
0.167465
0.164792
0.162133
0.159488
0.156861
0.154254
0.151669
0.149107
0.146572
0.144065
0.141589
0.139145
0.136736
0.134365
0.132034
0.129746
0.127505
0.125312
0.123172
0.121086
0.119057
0.117089
0.115181
0.113338
0.11156
0.109849
0.108205
0.106631
0.105126
0.103691
0.102324
0.101028
0.0998001
0.0986411
0.0975486
0.0965234
0.0955628
0.0946674
0.093834
0.0930632
0.0923517
0.0917001
0.0911051
0.090567
0.0900827
0.0896528
0.0892741
0.0889473
0.0886692
0.088441
0.0882592
0.0881251
0.0880357
0.0879921
0.0879916
0.0880351
0.0881206
0.0882483
0.088417
0.0886262
0.0888753
0.0891631
0.0894895
0.0898529
0.0902535
0.0906895
0.0911611
0.0916669
0.0922069
0.0927803
0.093388
0.094037
0.0947096
0.0952617
0.26105
0.261245
0.261196
0.26097
0.260578
0.260021
0.259307
0.258446
0.257446
0.256316
0.255062
0.253691
0.252209
0.250623
0.248938
0.24716
0.245294
0.243345
0.24132
0.239222
0.237056
0.234827
0.23254
0.230197
0.227804
0.225365
0.222881
0.22036