/*--------------------------------*- C++ -*----------------------------------*\
  =========                 |
  \\      /  F ield         | OpenFOAM: The Open Source CFD Toolbox
   \\    /   O peration     | Website:  https://openfoam.org
    \\  /    A nd           | Version:  9
     \\/     M anipulation  |
\*---------------------------------------------------------------------------*/
FoamFile
{
    format      ascii;
    class       volScalarField;
    location    "0.0025";
    object      nuTilda;
}
// * * * * * * * * * * * * * * * * * * * * * * * * * * * * * * * * * * * * * //

dimensions      [0 2 -1 0 0 0 0];

internalField   nonuniform List<scalar> 
6098
(
0.0125737
0.0126582
0.0127353
0.0128059
0.0128707
0.0129303
0.0129853
0.0130366
0.0130842
0.0131285
0.0131696
0.013208
0.0132438
0.0132774
0.0133088
0.0133383
0.013366
0.0133923
0.0134171
0.0134406
0.013463
0.0134843
0.0135046
0.013524
0.0135423
0.013559
0.0135744
0.0135884
0.0136006
0.0124392
0.0125281
0.0126093
0.0126839
0.012753
0.0128178
0.0128779
0.0129336
0.0129847
0.0130322
0.0130765
0.0131179
0.0131565
0.0131927
0.0132266
0.0132585
0.0132884
0.0133166
0.0133433
0.0133685
0.0133923
0.0134149
0.0134363
0.0134567
0.0134762
0.0134947
0.0135124
0.0135294
0.0135458
0.0122922
0.0123862
0.0124731
0.0125534
0.0126278
0.0126966
0.0127604
0.0128196
0.0128746
0.0129258
0.0129736
0.0130183
0.01306
0.0130992
0.0131359
0.0131704
0.013203
0.0132336
0.0132626
0.01329
0.0133159
0.0133405
0.0133638
0.0133859
0.0134069
0.0134269
0.0134458
0.0134639
0.013481
0.0121351
0.012232
0.0123221
0.012406
0.0124841
0.0125567
0.0126243
0.0126872
0.012746
0.0128008
0.0128521
0.0129002
0.0129452
0.0129874
0.0130272
0.0130646
0.0130999
0.0131332
0.0131647
0.0131945
0.0132227
0.0132496
0.0132751
0.0132993
0.0133224
0.0133444
0.0133653
0.0133854
0.0134046
0.0119712
0.0120702
0.012163
0.0122499
0.0123312
0.0124073
0.0124785
0.0125451
0.0126075
0.012666
0.0127208
0.0127723
0.0128207
0.0128663
0.0129092
0.0129496
0.0129878
0.013024
0.0130582
0.0130906
0.0131214
0.0131506
0.0131784
0.0132049
0.0132301
0.0132542
0.0132772
0.0132991
0.0133201
0.0118005
0.011901
0.0119958
0.0120851
0.0121691
0.0122483
0.0123227
0.0123927
0.0124586
0.0125206
0.0125789
0.0126339
0.0126857
0.0127346
0.0127807
0.0128243
0.0128656
0.0129046
0.0129416
0.0129768
0.0130102
0.0130419
0.0130721
0.0131009
0.0131284
0.0131546
0.0131797
0.0132037
0.0132267
0.0116235
0.0117247
0.0118207
0.0119117
0.0119979
0.0120796
0.0121568
0.0122299
0.0122989
0.0123642
0.0124259
0.0124843
0.0125395
0.0125917
0.0126412
0.012688
0.0127325
0.0127746
0.0128146
0.0128526
0.0128888
0.0129232
0.012956
0.0129873
0.0130171
0.0130457
0.013073
0.0130991
0.0131241
0.0114407
0.0115418
0.0116383
0.0117303
0.011818
0.0119015
0.0119811
0.0120567
0.0121285
0.0121968
0.0122616
0.0123232
0.0123816
0.0124371
0.0124898
0.01254
0.0125876
0.0126329
0.012676
0.012717
0.0127561
0.0127934
0.0128289
0.0128628
0.0128952
0.0129262
0.0129559
0.0129843
0.0130116
0.0112527
0.0113531
0.0114494
0.0115416
0.0116301
0.0117148
0.0117959
0.0118735
0.0119476
0.0120184
0.0120859
0.0121504
0.0122118
0.0122704
0.0123262
0.0123795
0.0124303
0.0124788
0.012525
0.0125691
0.0126113
0.0126515
0.01269
0.0127267
0.0127619
0.0127956
0.0128278
0.0128587
0.0128884
0.0110602
0.0111595
0.011255
0.0113468
0.0114353
0.0115204
0.0116024
0.0116813
0.0117571
0.0118298
0.0118996
0.0119664
0.0120305
0.0120918
0.0121504
0.0122066
0.0122604
0.0123118
0.0123611
0.0124083
0.0124535
0.0124967
0.0125382
0.0125779
0.012616
0.0126526
0.0126876
0.0127213
0.0127536
0.0108634
0.0109615
0.0110559
0.0111469
0.0112349
0.01132
0.0114022
0.0114817
0.0115586
0.0116327
0.0117042
0.0117729
0.0118391
0.0119026
0.0119637
0.0120223
0.0120787
0.0121328
0.0121849
0.0122348
0.0122829
0.012329
0.0123734
0.0124161
0.0124571
0.0124965
0.0125345
0.0125711
0.0126063
0.0107589
0.0108523
0.0109426
0.0110299
0.0111147
0.011197
0.0112769
0.0113546
0.0114299
0.0115028
0.0115732
0.011641
0.0117064
0.0117694
0.01183
0.0118885
0.0119448
0.0119991
0.0120514
0.0121018
0.0121505
0.0121974
0.0122426
0.0122863
0.0123284
0.0123691
0.0124084
0.0124463
0.0105511
0.0106435
0.010733
0.0108198
0.0109042
0.0109864
0.0110667
0.0111451
0.0112214
0.0112955
0.0113672
0.0114366
0.0115035
0.0115682
0.0116306
0.0116909
0.0117491
0.0118053
0.0118596
0.0119121
0.0119628
0.0120118
0.0120591
0.0121049
0.0121493
0.0121921
0.0122335
0.0122736
0.0103374
0.0104286
0.0105173
0.0106034
0.0106873
0.0107691
0.0108492
0.0109276
0.0110045
0.0110793
0.011152
0.0112225
0.0112907
0.0113568
0.0114207
0.0114826
0.0115424
0.0116004
0.0116564
0.0117107
0.0117632
0.011814
0.0118633
0.011911
0.0119573
0.0120021
0.0120455
0.0120875
0.0101171
0.0102072
0.0102948
0.0103802
0.0104634
0.0105446
0.0106241
0.0107021
0.0107789
0.010854
0.0109273
0.0109986
0.0110678
0.011135
0.0112002
0.0112633
0.0113246
0.011384
0.0114415
0.0114973
0.0115515
0.0116039
0.0116549
0.0117043
0.0117522
0.0117988
0.0118439
0.0118877
0.00989028
0.00997898
0.0100655
0.0101499
0.0102323
0.0103128
0.0103916
0.0104689
0.010545
0.0106199
0.0106934
0.0107651
0.010835
0.010903
0.0109691
0.0110333
0.0110957
0.0111562
0.0112151
0.0112722
0.0113277
0.0113816
0.011434
0.0114848
0.0115343
0.0115823
0.011629
0.0116743
0.00965677
0.00974391
0.00982914
0.00991245
0.0099939
0.0100736
0.0101516
0.0102281
0.0103033
0.0103776
0.0104507
0.0105224
0.0105926
0.010661
0.0107278
0.0107927
0.0108559
0.0109174
0.0109772
0.0110354
0.011092
0.0111471
0.0112007
0.0112528
0.0113035
0.0113528
0.0114008
0.0114475
0.00950219
0.00958583
0.00966784
0.0097482
0.00982692
0.00990406
0.00997973
0.0100541
0.0101274
0.0101997
0.0102709
0.010341
0.0104095
0.0104765
0.0105418
0.0106056
0.0106677
0.0107282
0.0107871
0.0108446
0.0109005
0.0109551
0.0110082
0.0110599
0.0111103
0.0111594
0.0112072
0.00925396
0.00933582
0.00941632
0.00949538
0.00957298
0.00964913
0.00972388
0.00979734
0.00986963
0.00994093
0.0100113
0.0100808
0.010149
0.0102159
0.0102812
0.0103451
0.0104075
0.0104684
0.0105278
0.0105857
0.0106423
0.0106974
0.0107512
0.0108037
0.0108548
0.0109047
0.0109534
0.0090001
0.00907984
0.0091585
0.00923597
0.00931219
0.00938714
0.00946082
0.00953328
0.00960459
0.00967488
0.00974425
0.00981274
0.00988025
0.0099466
0.0100116
0.0100753
0.0101376
0.0101984
0.0102579
0.010316
0.0103727
0.0104281
0.0104822
0.0105351
0.0105867
0.0106371
0.0106863
0.00874194
0.00881907
0.00889543
0.0089709
0.00904539
0.00911884
0.0091912
0.00926248
0.00933271
0.00940195
0.00947026
0.0095377
0.00960422
0.00966972
0.00973405
0.00979712
0.00985888
0.00991931
0.00997845
0.0100363
0.0100929
0.0101481
0.0102022
0.010255
0.0103066
0.010357
0.0104064
0.00855543
0.00862882
0.00870172
0.008774
0.00884553
0.00891624
0.00898607
0.009055
0.00912305
0.00919022
0.00925653
0.00932192
0.00938631
0.00944961
0.00951173
0.00957263
0.00963228
0.00969071
0.00974792
0.00980389
0.00985864
0.0099122
0.00996459
0.0100158
0.010066
0.010115
0.00829108
0.00836101
0.00843079
0.00850029
0.00856941
0.00863803
0.00870604
0.00877338
0.00883999
0.0089058
0.00897076
0.00903478
0.0090978
0.00915973
0.00922052
0.00928016
0.00933865
0.00939599
0.00945217
0.00950717
0.00956101
0.00961373
0.00966532
0.00971582
0.00976524
0.0098136
0.00802993
0.00809574
0.0081617
0.00822776
0.00829388
0.0083599
0.00842566
0.00849099
0.00855572
0.0086197
0.00868283
0.00874502
0.00880618
0.0088663
0.00892532
0.00898325
0.00904009
0.00909586
0.00915053
0.00920412
0.00925663
0.00930807
0.00935846
0.0094078
0.00945612
0.0095034
0.00783723
0.00789869
0.00796066
0.00802313
0.00808595
0.0081488
0.00821139
0.00827347
0.00833486
0.00839545
0.00845515
0.0085139
0.00857167
0.00862844
0.00868417
0.00873891
0.00879263
0.00884534
0.00889703
0.00894771
0.00899737
0.00904603
0.00909371
0.00914041
0.00918614
0.00758835
0.00764498
0.00770221
0.00776022
0.00781892
0.00787793
0.00793689
0.00799551
0.00805361
0.00811103
0.00816768
0.0082235
0.00827843
0.00833244
0.00838551
0.00843765
0.00848885
0.0085391
0.00858838
0.00863671
0.00868408
0.00873051
0.00877599
0.00882054
0.00886418
0.00740299
0.00745495
0.00750758
0.0075611
0.00761532
0.00766986
0.00772436
0.00777857
0.00783231
0.00788545
0.00793787
0.00798952
0.00804034
0.00809032
0.00813944
0.00818767
0.008235
0.00828141
0.00832691
0.00837149
0.00841516
0.00845792
0.00849978
0.00854076
0.00717392
0.00722088
0.00726807
0.00731579
0.00736426
0.00741346
0.00746309
0.00751279
0.00756232
0.00761146
0.00766009
0.00770807
0.00775534
0.00780187
0.00784761
0.00789252
0.00793658
0.00797977
0.00802208
0.00806351
0.00810405
0.0081437
0.00818247
0.00822037
0.00695788
0.00700062
0.00704319
0.00708574
0.00712847
0.00717159
0.0072153
0.00725958
0.00730414
0.0073487
0.00739302
0.00743693
0.00748029
0.00752304
0.00756512
0.00760645
0.007647
0.00768672
0.00772561
0.00776364
0.0078008
0.00783711
0.00787254
0.00790713
0.00679255
0.00683158
0.0068702
0.00690853
0.00694669
0.00698481
0.00702305
0.00706161
0.00710057
0.00713978
0.00717897
0.00721791
0.0072565
0.00729458
0.00733207
0.00736888
0.00740494
0.00744022
0.00747468
0.0075083
0.00754108
0.00757301
0.00760409
0.0065942
0.0066306
0.00666632
0.00670148
0.00673615
0.00677038
0.00680424
0.00683782
0.00687121
0.00690453
0.00693793
0.00697146
0.00700513
0.00703869
0.00707194
0.00710471
0.0071369
0.00716842
0.00719921
0.00722923
0.00725844
0.00728683
0.00731439
0.00643687
0.00647068
0.00650365
0.00653589
0.00656744
0.00659836
0.00662868
0.00665843
0.00668766
0.00671641
0.00674474
0.00677288
0.00680095
0.00682903
0.00685706
0.00688488
0.00691231
0.00693921
0.00696548
0.00699105
0.00701588
0.00703994
0.00624724
0.00627982
0.00631139
0.00634204
0.00637184
0.00640082
0.00642901
0.00645642
0.00648309
0.00650902
0.00653423
0.0065588
0.00658284
0.0066064
0.00662953
0.00665231
0.0066748
0.00669705
0.00671902
0.00674059
0.00676166
0.00678213
0.00608973
0.00612069
0.00615048
0.00617923
0.006207
0.00623383
0.00625973
0.00628473
0.00630888
0.00633221
0.00635472
0.00637645
0.00639744
0.00641767
0.00643719
0.00645604
0.00647428
0.00649201
0.00650922
0.00652594
0.00654219
0.00592791
0.00595742
0.00598564
0.00601269
0.00603864
0.00606355
0.00608743
0.00611032
0.00613226
0.00615327
0.00617334
0.00619252
0.00621084
0.00622825
0.00624488
0.0062609
0.00627627
0.00629091
0.00630484
0.00631808
0.0057303
0.0057598
0.00578786
0.00581462
0.00584014
0.0058645
0.00588769
0.00590976
0.00593075
0.00595068
0.00596953
0.0059875
0.00600469
0.00602101
0.00603644
0.00605099
0.00606468
0.00607747
0.00608941
0.00610052
0.005554
0.0055824
0.00560926
0.00563473
0.00565889
0.00568175
0.00570336
0.00572374
0.00574327
0.00576181
0.00577933
0.00579576
0.00581112
0.00582544
0.00583873
0.00585097
0.00586222
0.0058725
0.00588188
0.0053659
0.00539302
0.00541855
0.00544257
0.00546522
0.00548692
0.00550748
0.00552684
0.00554498
0.00556186
0.00557751
0.00559195
0.00560521
0.00561727
0.0056282
0.00563804
0.00564679
0.00565452
0.0051363
0.00516336
0.00518866
0.00521288
0.00523586
0.00525748
0.0052777
0.00529653
0.00531393
0.00532994
0.0053446
0.00535787
0.00536984
0.00538056
0.00539002
0.00539826
0.00540535
0.00541169
0.0049193
0.00494514
0.00496938
0.00499203
0.0050131
0.00503256
0.00505044
0.00506678
0.00508155
0.00509482
0.00510668
0.0051171
0.00512614
0.00513388
0.00514087
0.00514752
0.0051537
0.00468767
0.00471155
0.00473356
0.00475379
0.00477229
0.00478903
0.00480409
0.00481759
0.00482948
0.00483987
0.00484881
0.004857
0.00486491
0.00487218
0.00487846
0.00488372
0.00441669
0.0044398
0.00446099
0.00448025
0.00449768
0.00451325
0.00452713
0.00453944
0.00455011
0.0045599
0.00456944
0.00457811
0.00458565
0.00459188
0.00459659
0.00459972
0.00415687
0.00417747
0.00419606
0.00421284
0.00422798
0.00424139
0.00425345
0.00426484
0.00427523
0.00428417
0.00429132
0.00429658
0.00429986
0.00430108
0.00429966
0.00389422
0.00391292
0.00392949
0.00394393
0.00395699
0.00396898
0.00397923
0.00398747
0.00399348
0.00399722
0.00399861
0.00399701
0.00399191
0.00398384
0.00361822
0.003635
0.00364944
0.00366267
0.00367433
0.00368395
0.00369122
0.00369605
0.0036983
0.00369778
0.00369321
0.00368542
0.00367458
0.00366069
0.00335856
0.00337187
0.00338316
0.00339212
0.0033985
0.00340223
0.00340317
0.00340038
0.00339389
0.00338399
0.00337088
0.0033545
0.00333483
0.00309778
0.00310625
0.00311202
0.00311494
0.00311499
0.00311068
0.00310283
0.00309152
0.00307682
0.00305867
0.00303706
0.00301182
0.00283391
0.00283644
0.00283579
0.00283087
0.00282238
0.00281037
0.00279488
0.00277579
0.0027531
0.00272669
0.00269643
0.00256679
0.00256194
0.00255351
0.00254156
0.00252611
0.00250701
0.00248411
0.0024575
0.00242695
0.00239237
0.00229638
0.00228524
0.00227063
0.00225241
0.0022304
0.00220468
0.00217507
0.00214149
0.0021037
0.00202836
0.00201193
0.00199185
0.00196817
0.00194075
0.00190939
0.0018741
0.00183469
0.00178483
0.00176755
0.0017469
0.00172272
0.00169484
0.0016632
0.00162766
0.00158815
0.00152037
0.00149722
0.00147051
0.0014403
0.00140626
0.00136805
0.00129755
0.00127573
0.00125104
0.00122166
0.00118048
0.00111392
0.00109124
0.00106451
0.00103253
0.000878442
0.0136086
0.0136087
0.0136086
0.0136083
0.0136079
0.0136074
0.0136067
0.0136059
0.0136049
0.0136039
0.0136027
0.0136014
0.0136001
0.0135987
0.0135972
0.0135589
0.0135591
0.0135591
0.013559
0.0135587
0.0135583
0.0135578
0.0135571
0.0135563
0.0135553
0.0135543
0.0135531
0.0135518
0.0135505
0.013549
0.0134944
0.0134947
0.0134947
0.0134947
0.0134945
0.0134941
0.0134936
0.013493
0.0134923
0.0134914
0.0134905
0.0134894
0.0134882
0.013487
0.0134856
0.0134195
0.0134198
0.0134199
0.0134199
0.0134198
0.0134195
0.0134191
0.0134186
0.013418
0.0134173
0.0134165
0.0134156
0.0134146
0.0134134
0.0134122
0.0133362
0.0133365
0.0133367
0.0133368
0.0133367
0.0133366
0.0133363
0.013336
0.0133355
0.0133349
0.0133342
0.0133334
0.0133326
0.0133316
0.0133306
0.0132441
0.0132445
0.0132448
0.0132449
0.0132449
0.0132449
0.0132447
0.0132445
0.0132441
0.0132436
0.0132431
0.0132425
0.0132418
0.013241
0.0132401
0.0131429
0.0131433
0.0131436
0.0131439
0.013144
0.013144
0.0131439
0.0131438
0.0131435
0.0131432
0.0131428
0.0131423
0.0131417
0.013141
0.0131403
0.0130318
0.0130323
0.0130327
0.013033
0.0130332
0.0130333
0.0130333
0.0130332
0.0130331
0.0130328
0.0130325
0.0130322
0.0130317
0.0130312
0.0130306
0.0129101
0.0129107
0.0129111
0.0129115
0.0129118
0.012912
0.0129121
0.0129121
0.012912
0.0129119
0.0129117
0.0129114
0.0129111
0.0129106
0.0129101
0.0127771
0.0127777
0.0127782
0.0127786
0.012779
0.0127793
0.0127795
0.0127796
0.0127796
0.0127795
0.0127794
0.0127792
0.012779
0.0127787
0.0127783
0.0126317
0.0126323
0.0126329
0.0126335
0.0126339
0.0126343
0.0126346
0.0126348
0.0126349
0.0126349
0.0126348
0.0126347
0.0126346
0.0126344
0.0126341
0.0124734
0.0124741
0.0124748
0.0124754
0.0124759
0.0124764
0.0124767
0.012477
0.0124773
0.0124774
0.0124774
0.0124774
0.0124773
0.0124772
0.012477
0.0123019
0.0123027
0.0123035
0.0123041
0.0123047
0.0123053
0.0123057
0.0123061
0.0123064
0.0123066
0.0123068
0.0123068
0.0123067
0.0123066
0.0123065
0.0121169
0.0121178
0.0121186
0.0121193
0.01212
0.0121206
0.0121211
0.0121215
0.0121219
0.0121222
0.0121224
0.0121225
0.0121225
0.0121224
0.0121223
0.011918
0.011919
0.0119199
0.0119206
0.0119214
0.011922
0.0119226
0.011923
0.0119235
0.0119238
0.0119241
0.0119242
0.0119242
0.0119242
0.0119241
0.0117054
0.0117064
0.0117073
0.0117082
0.011709
0.0117096
0.0117102
0.0117108
0.0117112
0.0117116
0.0117119
0.011712
0.0117121
0.011712
0.0117119
0.0114793
0.0114803
0.0114813
0.0114822
0.011483
0.0114838
0.0114844
0.0114849
0.0114854
0.0114858
0.0114861
0.0114862
0.0114862
0.0114861
0.011486
0.0112394
0.0112406
0.0112416
0.0112426
0.0112434
0.0112442
0.0112448
0.0112454
0.0112458
0.0112462
0.0112464
0.0112464
0.0112464
0.0112463
0.0112461
0.010986
0.0109872
0.0109883
0.0109893
0.0109901
0.0109909
0.0109916
0.0109921
0.0109925
0.0109928
0.0109929
0.0109929
0.0109928
0.0109926
0.0109924
0.0107189
0.0107202
0.0107214
0.0107224
0.0107233
0.010724
0.0107247
0.0107252
0.0107256
0.0107257
0.0107257
0.0107256
0.0107254
0.0107252
0.0107249
0.0104388
0.0104402
0.0104414
0.0104425
0.0104434
0.0104441
0.0104448
0.0104452
0.0104455
0.0104455
0.0104454
0.0104452
0.010445
0.0104447
0.0104443
0.010147
0.0101485
0.0101497
0.0101508
0.0101518
0.0101525
0.0101531
0.0101536
0.0101537
0.0101537
0.0101535
0.0101533
0.010153
0.0101525
0.010152
0.00984499
0.00984648
0.0098478
0.00984892
0.00984987
0.00985065
0.00985125
0.00985159
0.00985162
0.00985153
0.00985133
0.00985104
0.00985065
0.00985016
0.00984956
0.00953389
0.00953545
0.00953681
0.00953798
0.00953895
0.00953974
0.00954034
0.00954061
0.00954059
0.00954045
0.00954022
0.00953987
0.00953942
0.00953887
0.00953819
0.00921547
0.0092171
0.00921851
0.00921972
0.00922072
0.00922153
0.00922212
0.00922234
0.0092223
0.00922215
0.00922188
0.00922151
0.00922102
0.00922044
0.00921971
0.00889201
0.00889369
0.00889516
0.00889641
0.00889746
0.0088983
0.00889892
0.00889917
0.00889914
0.00889899
0.00889873
0.00889836
0.00889788
0.0088973
0.00889662
0.00856676
0.00856849
0.00857001
0.00857133
0.00857246
0.00857339
0.00857414
0.00857456
0.00857464
0.00857456
0.00857438
0.00857411
0.00857373
0.00857326
0.00857269
0.0082443
0.00824606
0.00824765
0.00824906
0.00825029
0.00825136
0.00825227
0.00825299
0.00825342
0.00825358
0.00825355
0.00825344
0.00825324
0.00825297
0.00825262
0.00792885
0.00793065
0.00793231
0.00793383
0.00793521
0.00793646
0.00793758
0.00793857
0.00793945
0.00794016
0.00794066
0.00794097
0.0079411
0.00794109
0.00794103
0.00762352
0.00762534
0.00762707
0.0076287
0.00763025
0.0076317
0.00763307
0.00763436
0.00763556
0.00763669
0.00763774
0.00763872
0.00763964
0.00764049
0.00764124
0.00733154
0.00733338
0.00733519
0.00733697
0.00733872
0.00734043
0.00734211
0.00734375
0.00734537
0.00734695
0.00734851
0.00735003
0.00735153
0.007353
0.00735444
0.00705485
0.00705671
0.00705861
0.00706054
0.0070625
0.00706448
0.0070665
0.00706853
0.00707059
0.00707266
0.00707476
0.00707687
0.007079
0.00708114
0.0070833
0.00679484
0.0067967
0.00679869
0.00680077
0.00680296
0.00680524
0.00680761
0.00681007
0.0068126
0.00681521
0.0068179
0.00682064
0.00682345
0.00682632
0.00682924
0.00655234
0.00655418
0.00655621
0.00655842
0.00656081
0.00656336
0.00656607
0.00656892
0.00657192
0.00657504
0.00657829
0.00658166
0.00658513
0.0065887
0.00659237
0.00632614
0.00632784
0.00632982
0.00633206
0.00633454
0.00633725
0.00634019
0.00634333
0.00634667
0.00635019
0.00635389
0.00635775
0.00636176
0.00636592
0.0063702
0.00610716
0.00610881
0.00611078
0.00611307
0.00611566
0.00611854
0.00612168
0.00612508
0.00612871
0.00613256
0.00613663
0.00614089
0.00614533
0.00614994
0.00615471
0.00588734
0.00588895
0.00589093
0.00589327
0.00589595
0.00589895
0.00590225
0.00590583
0.00590967
0.00591377
0.00591809
0.00592263
0.00592737
0.00593229
0.00593738
0.0056589
0.00566049
0.00566249
0.00566487
0.00566761
0.00567069
0.00567408
0.00567777
0.00568174
0.00568598
0.00569045
0.00569515
0.00570005
0.00570515
0.00571042
0.00541554
0.0054172
0.00541927
0.00542173
0.00542457
0.00542774
0.00543124
0.00543503
0.00543911
0.00544344
0.00544802
0.00545281
0.00545781
0.005463
0.00546835
0.00515734
0.00515911
0.00516129
0.00516385
0.00516677
0.00517001
0.00517356
0.0051774
0.0051815
0.00518584
0.00519041
0.00519519
0.00520015
0.00520529
0.00521057
0.00488654
0.00488817
0.00489037
0.00489292
0.00489582
0.00489903
0.00490253
0.0049063
0.00491032
0.00491457
0.00491902
0.00492367
0.00492849
0.00493345
0.00493856
0.00460074
0.00460178
0.00460365
0.0046061
0.00460888
0.00461197
0.00461535
0.00461899
0.00462287
0.00462698
0.00463128
0.00463577
0.00464043
0.00464523
0.00465017
0.00429603
0.00429629
0.00429748
0.00429949
0.00430217
0.00430517
0.00430847
0.00431204
0.00431586
0.0043199
0.00432415
0.00432859
0.0043332
0.00433796
0.00434286
0.00397517
0.00397504
0.00397574
0.00397738
0.00397983
0.00398292
0.00398632
0.00399002
0.00399398
0.00399819
0.00400261
0.00400723
0.00401204
0.004017
0.0040221
0.00364715
0.00364679
0.00364702
0.00364836
0.00365064
0.00365371
0.00365726
0.00366112
0.00366526
0.00366965
0.00367426
0.00367907
0.00368406
0.00368921
0.0036945
0.00331613
0.00331551
0.00331541
0.00331645
0.00331859
0.00332163
0.00332537
0.00332943
0.0033338
0.00333842
0.00334328
0.00334835
0.0033536
0.00335901
0.00336456
0.00298811
0.00298723
0.00298697
0.00298781
0.00298995
0.00299312
0.00299712
0.00300147
0.00300615
0.0030111
0.0030163
0.00302172
0.00302733
0.00303309
0.00303901
0.00266802
0.00266691
0.00266654
0.00266741
0.00266979
0.00267334
0.00267771
0.00268247
0.00268758
0.002693
0.00269867
0.00270457
0.00271066
0.00271691
0.0027233
0.00235981
0.0023585
0.00235812
0.00235929
0.00236217
0.00236634
0.00237117
0.00237645
0.0023821
0.00238807
0.0023943
0.00240077
0.00240742
0.00241423
0.00242118
0.002068
0.00206657
0.00206628
0.00206805
0.0020717
0.00207652
0.00208193
0.00208782
0.00209411
0.00210072
0.0021076
0.00211469
0.00212197
0.00212939
0.00213693
0.00179731
0.00179586
0.00179578
0.00179836
0.00180291
0.00180829
0.00181431
0.00182084
0.00182777
0.00183504
0.00184256
0.00185029
0.00185818
0.0018662
0.00187433
0.00155047
0.00154911
0.0015496
0.00155309
0.00155821
0.00156418
0.00157081
0.00157796
0.00158552
0.0015934
0.00160152
0.00160983
0.00161829
0.00162686
0.00163551
0.00133167
0.00133047
0.00133165
0.00133584
0.00134127
0.00134757
0.00135454
0.00136203
0.00136991
0.00137811
0.00138655
0.00139518
0.00140394
0.00141283
0.00142179
0.001148
0.00114717
0.00114901
0.00115326
0.00115851
0.00116452
0.00117109
0.00117808
0.00118543
0.00119311
0.00120111
0.00120936
0.00121782
0.00122646
0.00123523
0.00100209
0.00100148
0.00100343
0.00100732
0.00101198
0.00101726
0.00102306
0.00102929
0.00103582
0.00104257
0.00104949
0.00105653
0.00106368
0.00107097
0.00107839
0.000865246
0.000870154
0.000878436
0.00088768
0.000896961
0.000905825
0.000914033
0.000921513
0.000928337
0.000934588
0.000940345
0.000945704
0.000950771
0.000955673
0.000960623
0.000757478
0.000776661
0.000796636
0.000816581
0.000835981
0.000852598
0.000866482
0.000877883
0.000887091
0.000894425
0.000725372
0.000748152
0.000770446
0.000790121
0.013595
0.0135922
0.0135895
0.013587
0.0135846
0.0135467
0.0135438
0.013541
0.0135383
0.0135356
0.0134834
0.0134807
0.013478
0.0134753
0.0134727
0.0134102
0.0134077
0.0134053
0.0134028
0.0134004
0.0133288
0.0133266
0.0133243
0.0133222
0.01332
0.0132385
0.0132366
0.0132346
0.0132327
0.0132307
0.0131389
0.0131372
0.0131355
0.0131338
0.0131321
0.0130293
0.0130279
0.0130264
0.0130249
0.0130234
0.0129091
0.0129078
0.0129066
0.0129053
0.012904
0.0127774
0.0127763
0.0127753
0.0127742
0.012773
0.0126333
0.0126325
0.0126316
0.0126307
0.0126298
0.0124763
0.0124757
0.012475
0.0124743
0.0124736
0.0123059
0.0123055
0.012305
0.0123045
0.0123039
0.0121219
0.0121215
0.0121211
0.0121206
0.0121201
0.0119236
0.0119233
0.0119229
0.0119225
0.011922
0.0117115
0.0117111
0.0117107
0.0117103
0.0117098
0.0114855
0.011485
0.0114846
0.0114841
0.0114836
0.0112455
0.0112449
0.0112443
0.0112437
0.0112431
0.0109915
0.0109907
0.01099
0.0109892
0.0109884
0.0107238
0.0107227
0.0107217
0.0107207
0.0107197
0.0104429
0.0104416
0.0104403
0.010439
0.0104378
0.0101505
0.0101488
0.0101472
0.0101457
0.0101443
0.00984775
0.00984581
0.00984395
0.0098422
0.00984055
0.00953621
0.00953402
0.00953196
0.00953004
0.00952826
0.00921764
0.00921533
0.00921319
0.00921122
0.00920938
0.00889461
0.00889241
0.00889038
0.00888848
0.00888672
0.00857113
0.00856932
0.00856767
0.00856618
0.00856484
0.00825181
0.0082507
0.00824975
0.00824896
0.00824833
0.00794084
0.00794068
0.00794066
0.007941
0.0079417
0.00764249
0.00764472
0.00764708
0.00764958
0.00765223
0.00735716
0.00736166
0.00736605
0.00737036
0.00737461
0.00708762
0.00709437
0.00710084
0.00710705
0.00711305
0.00683529
0.00684445
0.00685309
0.00686129
0.00686909
0.0066001
0.00661159
0.00662232
0.00663239
0.00664187
0.00637935
0.00639281
0.00640529
0.00641692
0.0064278
0.00616497
0.00617997
0.00619382
0.00620668
0.00621867
0.0059484
0.00596446
0.00597927
0.00599299
0.00600578
0.00572185
0.00573852
0.0057539
0.00576818
0.00578152
0.00547997
0.00549696
0.00551268
0.00552733
0.00554109
0.00522203
0.0052389
0.00525459
0.00526933
0.00528329
0.00494961
0.00496609
0.00498165
0.00499647
0.00501072
0.00466083
0.00467713
0.00469286
0.00470817
0.00472317
0.00435344
0.00437012
0.00438669
0.00440318
0.00441961
0.00403309
0.00405083
0.0040687
0.00408664
0.00410463
0.00370581
0.00372446
0.00374352
0.00376286
0.0037824
0.00337633
0.00339612
0.00341659
0.00343753
0.00345878
0.00305139
0.00307254
0.00309464
0.00311733
0.00314042
0.00273648
0.00275932
0.0027833
0.00280797
0.00283307
0.00243527
0.00245996
0.00248596
0.00251271
0.00253988
0.00215193
0.00217852
0.0022066
0.00223544
0.00226466
0.00189014
0.00191852
0.00194854
0.00197938
0.00201055
0.001652
0.00168202
0.00171387
0.00174652
0.00177946
0.00143855
0.00146972
0.00150297
0.00153714
0.00157162
0.00125143
0.00128257
0.00131622
0.00135107
0.00138644
0.00109204
0.00112077
0.00115299
0.00118716
0.00122247
0.000970265
0.00099211
0.00101798
0.00104729
0.00107946
0.00090511
0.000914916
0.000924521
0.000939499
0.000961082
0.000820897
0.000837987
0.000836609
0.000835912
0.000846256
0.000717012
0.000725671
0.000715506
0.000716997
0.000419236
0.000452398
0.000464537
0.0135785
0.013572
0.0135682
0.0135664
0.0135662
0.013567
0.0135687
0.0135709
0.0135736
0.0135766
0.0135799
0.0135834
0.0135871
0.0135911
0.0135953
0.0135998
0.0136044
0.0136093
0.0136145
0.0136198
0.0136255
0.0136314
0.0136375
0.0136439
0.0136507
0.0136577
0.013665
0.0136726
0.0136805
0.0136887
0.0136973
0.0137062
0.0137154
0.013725
0.0137351
0.0137455
0.0137564
0.0137677
0.0137796
0.0137919
0.0138046
0.0138178
0.0138312
0.0138449
0.0138587
0.0138727
0.013887
0.0139018
0.0139173
0.0139344
0.0139537
0.0139751
0.013997
0.0140209
0.0140567
0.0140928
0.014118
0.0141143
0.0140765
0.0140312
0.0135278
0.0135191
0.0135138
0.013511
0.0135103
0.0135109
0.0135126
0.0135152
0.0135184
0.013522
0.013526
0.0135303
0.0135349
0.0135398
0.0135449
0.0135504
0.0135562
0.0135623
0.0135686
0.0135752
0.013582
0.0135891
0.0135965
0.0136042
0.0136122
0.0136205
0.0136291
0.013638
0.0136472
0.0136567
0.0136665
0.0136767
0.0136871
0.0136979
0.0137091
0.0137206
0.0137326
0.0137451
0.0137581
0.0137715
0.0137855
0.0137999
0.0138148
0.01383
0.0138451
0.0138601
0.0138748
0.0138893
0.013904
0.0139201
0.013939
0.0139616
0.0139841
0.014007
0.0140388
0.0140771
0.0141105
0.0141175
0.0140848
0.0140355
0.0134644
0.0134554
0.0134501
0.0134476
0.0134472
0.0134485
0.0134509
0.0134541
0.0134579
0.0134621
0.0134666
0.0134716
0.0134769
0.0134826
0.0134887
0.0134951
0.0135019
0.013509
0.0135164
0.0135242
0.0135323
0.0135407
0.0135496
0.0135587
0.0135682
0.0135781
0.0135883
0.0135989
0.0136099
0.0136211
0.0136328
0.0136447
0.013657
0.0136696
0.0136825
0.0136957
0.0137093
0.0137232
0.0137374
0.0137521
0.0137672
0.0137829
0.0137994
0.0138161
0.0138328
0.0138496
0.0138657
0.0138811
0.0138958
0.013911
0.0139285
0.0139497
0.013973
0.0139968
0.0140232
0.0140611
0.0140996
0.014116
0.0140899
0.01404
0.0133921
0.0133831
0.013378
0.0133761
0.0133762
0.0133785
0.0133818
0.013386
0.0133909
0.0133964
0.0134023
0.0134087
0.0134155
0.0134226
0.0134301
0.013438
0.0134462
0.0134548
0.0134638
0.0134732
0.013483
0.0134931
0.0135036
0.0135146
0.0135258
0.0135375
0.0135495
0.0135619
0.0135746
0.0135877
0.0136011
0.0136148
0.0136288
0.0136431
0.0136576
0.0136724
0.0136874
0.0137027
0.0137182
0.0137339
0.0137499
0.0137661
0.0137826
0.0137996
0.0138172
0.0138356
0.0138536
0.0138707
0.0138865
0.0139015
0.0139179
0.0139388
0.0139626
0.013987
0.0140111
0.0140468
0.0140883
0.0141126
0.0140936
0.0140434
0.0133119
0.0133033
0.0132988
0.0132977
0.013299
0.0133023
0.0133067
0.0133122
0.0133185
0.0133254
0.0133328
0.0133407
0.013349
0.0133578
0.0133669
0.0133765
0.0133865
0.0133969
0.0134078
0.0134191
0.0134308
0.0134429
0.0134555
0.0134684
0.0134818
0.0134955
0.0135097
0.0135241
0.0135389
0.0135541
0.0135695
0.0135852
0.0136011
0.0136173
0.0136337
0.0136502
0.0136669
0.0136838
0.0137008
0.0137179
0.0137351
0.0137524
0.0137699
0.0137876
0.0138055
0.0138239
0.013843
0.0138617
0.0138791
0.013895
0.0139107
0.0139299
0.0139537
0.013979
0.014004
0.0140346
0.0140772
0.0141078
0.0140958
0.0140461
0.0132229
0.0132149
0.0132112
0.0132108
0.0132135
0.0132181
0.013224
0.0132311
0.013239
0.0132476
0.0132568
0.0132664
0.0132766
0.0132872
0.0132984
0.01331
0.0133221
0.0133346
0.0133477
0.0133612
0.0133752
0.0133897
0.0134046
0.01342
0.0134357
0.0134519
0.0134684
0.0134852
0.0135024
0.0135199
0.0135376
0.0135555
0.0135736
0.0135919
0.0136103
0.0136288
0.0136474
0.013666
0.0136846
0.0137032
0.0137218
0.0137403
0.0137589
0.0137775
0.0137962
0.0138149
0.0138339
0.0138535
0.0138725
0.0138898
0.0139057
0.0139237
0.0139461
0.0139718
0.0139972
0.0140244
0.014067
0.0141022
0.014097
0.0140478
0.0131246
0.0131172
0.0131145
0.0131152
0.0131193
0.0131254
0.0131332
0.0131421
0.013152
0.0131625
0.0131737
0.0131855
0.0131978
0.0132107
0.0132241
0.0132381
0.0132526
0.0132677
0.0132834
0.0132995
0.0133162
0.0133333
0.013351
0.013369
0.0133875
0.0134064
0.0134257
0.0134452
0.0134651
0.0134851
0.0135054
0.0135258
0.0135463
0.0135669
0.0135875
0.0136081
0.0136286
0.0136491
0.0136694
0.0136896
0.0137096
0.0137295
0.0137492
0.0137689
0.0137884
0.0138079
0.0138273
0.0138468
0.0138666
0.0138853
0.0139022
0.0139196
0.0139401
0.0139656
0.0139914
0.0140162
0.0140578
0.0140963
0.0140972
0.0140489
0.0130164
0.0130098
0.013008
0.0130106
0.0130162
0.0130241
0.0130339
0.0130449
0.0130569
0.0130698
0.0130833
0.0130975
0.0131124
0.0131278
0.013144
0.0131607
0.0131781
0.0131961
0.0132147
0.0132338
0.0132535
0.0132738
0.0132945
0.0133157
0.0133373
0.0133593
0.0133816
0.0134042
0.013427
0.0134499
0.013473
0.0134961
0.0135192
0.0135423
0.0135652
0.0135881
0.0136107
0.0136331
0.0136552
0.0136771
0.0136986
0.0137198
0.0137407
0.0137614
0.0137818
0.013802
0.0138221
0.013842
0.0138618
0.0138814
0.0138994
0.0139169
0.0139364
0.0139604
0.0139868
0.0140116
0.0140498
0.0140904
0.0140967
0.0140492
0.0128974
0.0128918
0.0128909
0.0128955
0.0129032
0.0129133
0.0129254
0.0129389
0.0129535
0.012969
0.0129853
0.0130023
0.01302