/*--------------------------------*- C++ -*----------------------------------*\
  =========                 |
  \\      /  F ield         | OpenFOAM: The Open Source CFD Toolbox
   \\    /   O peration     | Website:  https://openfoam.org
    \\  /    A nd           | Version:  9
     \\/     M anipulation  |
\*---------------------------------------------------------------------------*/
FoamFile
{
    format      ascii;
    class       volScalarField;
    location    "0.0025";
    object      T;
}
// * * * * * * * * * * * * * * * * * * * * * * * * * * * * * * * * * * * * * //

dimensions      [0 0 0 1 0 0 0];

internalField   nonuniform List<scalar> 
9689
(
298.057
298.056
298.055
298.054
298.053
298.052
298.051
298.05
298.049
298.048
298.047
298.046
298.045
298.045
298.044
298.043
298.042
298.042
298.041
298.04
298.04
298.039
298.038
298.038
298.037
298.037
298.036
298.036
298.035
298.034
298.034
298.033
298.033
298.032
298.031
298.031
298.03
298.029
298.028
298.058
298.057
298.055
298.054
298.053
298.052
298.051
298.05
298.049
298.048
298.047
298.046
298.045
298.044
298.043
298.042
298.042
298.041
298.04
298.039
298.039
298.038
298.037
298.036
298.036
298.035
298.034
298.034
298.033
298.033
298.032
298.031
298.031
298.03
298.03
298.029
298.029
298.028
298.028
298.059
298.057
298.056
298.055
298.054
298.053
298.052
298.051
298.05
298.049
298.048
298.047
298.046
298.045
298.044
298.043
298.042
298.041
298.04
298.04
298.039
298.038
298.037
298.037
298.036
298.035
298.035
298.034
298.033
298.033
298.032
298.031
298.031
298.03
298.029
298.029
298.028
298.028
298.027
298.059
298.058
298.057
298.055
298.054
298.053
298.052
298.051
298.05
298.049
298.048
298.047
298.046
298.045
298.044
298.043
298.042
298.041
298.04
298.04
298.039
298.038
298.037
298.036
298.036
298.035
298.034
298.034
298.033
298.032
298.032
298.031
298.03
298.03
298.029
298.029
298.028
298.027
298.027
298.06
298.058
298.057
298.056
298.055
298.054
298.053
298.052
298.05
298.049
298.048
298.047
298.046
298.045
298.044
298.044
298.043
298.042
298.041
298.04
298.039
298.038
298.038
298.037
298.036
298.035
298.034
298.034
298.033
298.032
298.032
298.031
298.03
298.03
298.029
298.028
298.028
298.027
298.027
298.06
298.059
298.058
298.056
298.055
298.054
298.053
298.052
298.051
298.05
298.049
298.048
298.047
298.046
298.045
298.044
298.043
298.042
298.041
298.04
298.039
298.039
298.038
298.037
298.036
298.035
298.035
298.034
298.033
298.032
298.032
298.031
298.03
298.03
298.029
298.028
298.028
298.027
298.026
298.061
298.059
298.058
298.057
298.056
298.055
298.054
298.053
298.052
298.05
298.049
298.048
298.047
298.046
298.045
298.044
298.044
298.043
298.042
298.041
298.04
298.039
298.038
298.037
298.037
298.036
298.035
298.034
298.033
298.033
298.032
298.031
298.03
298.03
298.029
298.028
298.028
298.027
298.026
298.061
298.06
298.059
298.058
298.056
298.055
298.054
298.053
298.052
298.051
298.05
298.049
298.048
298.047
298.046
298.045
298.044
298.043
298.042
298.041
298.04
298.039
298.039
298.038
298.037
298.036
298.035
298.034
298.034
298.033
298.032
298.031
298.031
298.03
298.029
298.028
298.028
298.027
298.026
298.062
298.06
298.059
298.058
298.057
298.056
298.055
298.054
298.053
298.052
298.051
298.049
298.048
298.047
298.046
298.045
298.045
298.044
298.043
298.042
298.041
298.04
298.039
298.038
298.037
298.036
298.036
298.035
298.034
298.033
298.032
298.032
298.031
298.03
298.029
298.029
298.028
298.027
298.026
298.061
298.06
298.059
298.057
298.056
298.055
298.054
298.053
298.052
298.051
298.05
298.049
298.048
298.047
298.046
298.045
298.044
298.043
298.042
298.041
298.04
298.039
298.038
298.038
298.037
298.036
298.035
298.034
298.033
298.033
298.032
298.031
298.03
298.029
298.029
298.028
298.027
298.026
298.061
298.06
298.059
298.058
298.057
298.056
298.055
298.054
298.053
298.052
298.051
298.049
298.048
298.047
298.046
298.045
298.044
298.043
298.043
298.042
298.041
298.04
298.039
298.038
298.037
298.036
298.035
298.034
298.034
298.033
298.032
298.031
298.03
298.03
298.029
298.028
298.027
298.026
298.062
298.061
298.059
298.058
298.057
298.056
298.055
298.054
298.053
298.052
298.051
298.05
298.049
298.048
298.047
298.046
298.045
298.044
298.043
298.042
298.041
298.04
298.039
298.038
298.037
298.036
298.035
298.035
298.034
298.033
298.032
298.031
298.03
298.03
298.029
298.028
298.027
298.026
298.062
298.061
298.06
298.059
298.058
298.057
298.056
298.055
298.053
298.052
298.051
298.05
298.049
298.048
298.047
298.046
298.045
298.044
298.043
298.042
298.041
298.04
298.039
298.038
298.037
298.037
298.036
298.035
298.034
298.033
298.032
298.031
298.03
298.03
298.029
298.028
298.027
298.026
298.062
298.061
298.06
298.059
298.058
298.057
298.056
298.055
298.054
298.053
298.052
298.051
298.05
298.049
298.048
298.047
298.046
298.044
298.043
298.042
298.042
298.041
298.04
298.039
298.038
298.037
298.036
298.035
298.034
298.033
298.032
298.031
298.03
298.03
298.029
298.028
298.027
298.026
298.063
298.061
298.06
298.059
298.058
298.057
298.056
298.055
298.054
298.053
298.052
298.051
298.05
298.049
298.048
298.047
298.046
298.045
298.044
298.043
298.042
298.041
298.04
298.039
298.038
298.037
298.036
298.035
298.034
298.033
298.032
298.031
298.03
298.029
298.029
298.028
298.027
298.026
298.063
298.062
298.061
298.059
298.058
298.057
298.056
298.055
298.054
298.053
298.052
298.051
298.05
298.049
298.048
298.047
298.046
298.045
298.044
298.043
298.042
298.041
298.04
298.039
298.038
298.037
298.036
298.035
298.034
298.033
298.032
298.031
298.03
298.029
298.028
298.028
298.027
298.026
298.063
298.062
298.061
298.06
298.059
298.057
298.056
298.055
298.054
298.053
298.052
298.051
298.05
298.049
298.048
298.047
298.046
298.045
298.044
298.043
298.042
298.041
298.04
298.039
298.038
298.037
298.036
298.035
298.034
298.033
298.032
298.031
298.03
298.029
298.028
298.027
298.026
298.025
298.062
298.061
298.06
298.058
298.057
298.056
298.055
298.054
298.053
298.052
298.051
298.05
298.049
298.048
298.047
298.046
298.045
298.044
298.043
298.042
298.04
298.039
298.038
298.037
298.036
298.035
298.034
298.033
298.032
298.031
298.03
298.03
298.029
298.028
298.027
298.026
298.025
298.062
298.06
298.059
298.058
298.057
298.056
298.055
298.054
298.053
298.052
298.051
298.05
298.049
298.048
298.047
298.045
298.044
298.043
298.042
298.041
298.04
298.039
298.038
298.037
298.036
298.035
298.034
298.033
298.032
298.031
298.03
298.029
298.028
298.027
298.026
298.025
298.024
298.061
298.06
298.059
298.058
298.057
298.056
298.055
298.054
298.053
298.052
298.05
298.049
298.048
298.047
298.046
298.045
298.044
298.043
298.042
298.041
298.04
298.039
298.037
298.036
298.035
298.034
298.033
298.032
298.031
298.03
298.029
298.028
298.027
298.026
298.025
298.024
298.023
298.061
298.06
298.059
298.058
298.056
298.055
298.054
298.053
298.052
298.051
298.05
298.049
298.048
298.047
298.045
298.044
298.043
298.042
298.041
298.04
298.039
298.038
298.037
298.036
298.035
298.034
298.033
298.031
298.03
298.029
298.028
298.027
298.026
298.025
298.024
298.023
298.022
298.06
298.059
298.058
298.057
298.056
298.055
298.054
298.052
298.051
298.05
298.049
298.048
298.047
298.046
298.045
298.044
298.042
298.041
298.04
298.039
298.038
298.037
298.036
298.035
298.034
298.033
298.031
298.03
298.029
298.028
298.027
298.026
298.025
298.024
298.023
298.022
298.021
298.059
298.057
298.056
298.055
298.054
298.053
298.052
298.05
298.049
298.048
298.047
298.046
298.045
298.044
298.042
298.041
298.04
298.039
298.038
298.037
298.036
298.035
298.033
298.032
298.031
298.03
298.029
298.028
298.027
298.026
298.025
298.024
298.023
298.022
298.021
298.02
298.058
298.056
298.055
298.054
298.053
298.052
298.05
298.049
298.048
298.047
298.046
298.045
298.043
298.042
298.041
298.04
298.039
298.038
298.037
298.035
298.034
298.033
298.032
298.031
298.03
298.029
298.028
298.026
298.025
298.024
298.023
298.022
298.021
298.02
298.019
298.018
298.057
298.055
298.054
298.053
298.052
298.05
298.049
298.048
298.047
298.046
298.044
298.043
298.042
298.041
298.04
298.038
298.037
298.036
298.035
298.034
298.033
298.031
298.03
298.029
298.028
298.027
298.026
298.025
298.024
298.022
298.021
298.02
298.019
298.018
298.017
298.016
298.055
298.054
298.053
298.051
298.05
298.049
298.048
298.046
298.045
298.044
298.043
298.041
298.04
298.039
298.038
298.036
298.035
298.034
298.033
298.032
298.03
298.029
298.028
298.027
298.026
298.025
298.024
298.022
298.021
298.02
298.019
298.018
298.017
298.016
298.015
298.014
298.053
298.051
298.05
298.048
298.047
298.046
298.044
298.043
298.042
298.041
298.039
298.038
298.037
298.035
298.034
298.033
298.032
298.031
298.029
298.028
298.027
298.026
298.024
298.023
298.022
298.021
298.02
298.019
298.018
298.016
298.015
298.014
298.013
298.012
298.011
298.051
298.049
298.048
298.046
298.045
298.044
298.042
298.041
298.04
298.038
298.037
298.036
298.034
298.033
298.032
298.03
298.029
298.028
298.027
298.025
298.024
298.023
298.022
298.02
298.019
298.018
298.017
298.016
298.014
298.013
298.012
298.011
298.01
298.009
298.008
298.049
298.047
298.046
298.044
298.043
298.041
298.04
298.038
298.037
298.036
298.034
298.033
298.031
298.03
298.029
298.027
298.026
298.025
298.023
298.022
298.021
298.02
298.018
298.017
298.016
298.015
298.013
298.012
298.011
298.01
298.009
298.007
298.006
298.005
298.004
298.047
298.045
298.044
298.042
298.04
298.039
298.037
298.036
298.034
298.033
298.031
298.03
298.028
298.027
298.025
298.024
298.023
298.021
298.02
298.019
298.017
298.016
298.015
298.013
298.012
298.011
298.009
298.008
298.007
298.006
298.005
298.003
298.002
298.001
298
298.043
298.041
298.039
298.038
298.036
298.034
298.033
298.031
298.029
298.028
298.026
298.025
298.023
298.022
298.02
298.019
298.017
298.016
298.015
298.013
298.012
298.01
298.009
298.008
298.006
298.005
298.004
298.003
298.001
298
297.999
297.998
297.996
297.995
298.04
298.038
298.036
298.035
298.033
298.031
298.029
298.028
298.026
298.024
298.023
298.021
298.019
298.018
298.016
298.015
298.013
298.012
298.01
298.009
298.007
298.006
298.004
298.003
298.002
298
297.999
297.997
297.996
297.995
297.994
297.992
297.991
297.99
298.035
298.033
298.031
298.029
298.028
298.026
298.024
298.022
298.02
298.018
298.017
298.015
298.013
298.012
298.01
298.008
298.007
298.005
298.004
298.002
298.001
297.999
297.998
297.996
297.995
297.993
297.992
297.991
297.989
297.988
297.987
297.985
297.984
298.032
298.03
298.028
298.026
298.024
298.022
298.02
298.018
298.016
298.014
298.012
298.01
298.008
298.007
298.005
298.003
298.001
298
297.998
297.996
297.995
297.993
297.992
297.99
297.989
297.987
297.986
297.984
297.983
297.981
297.98
297.979
297.977
298.029
298.026
298.024
298.022
298.02
298.017
298.015
298.013
298.011
298.009
298.007
298.005
298.003
298.001
297.999
297.998
297.996
297.994
297.992
297.99
297.989
297.987
297.985
297.984
297.982
297.98
297.979
297.977
297.976
297.974
297.973
297.972
297.97
298.022
298.02
298.017
298.015
298.013
298.011
298.008
298.006
298.004
298.002
298
297.998
297.996
297.993
297.991
297.99
297.988
297.986
297.984
297.982
297.98
297.978
297.977
297.975
297.973
297.972
297.97
297.968
297.967
297.965
297.964
297.962
298.018
298.015
298.013
298.01
298.008
298.005
298.003
298.001
297.998
297.996
297.994
297.991
297.989
297.987
297.985
297.983
297.981
297.979
297.977
297.975
297.973
297.971
297.969
297.967
297.965
297.963
297.962
297.96
297.958
297.957
297.955
297.953
298.01
298.008
298.005
298.002
298
297.997
297.995
297.992
297.99
297.987
297.985
297.982
297.98
297.978
297.976
297.973
297.971
297.969
297.967
297.965
297.963
297.961
297.959
297.957
297.955
297.953
297.951
297.949
297.947
297.945
297.944
298.005
298.002
297.999
297.996
297.993
297.991
297.988
297.985
297.983
297.98
297.978
297.975
297.973
297.97
297.968
297.965
297.963
297.961
297.958
297.956
297.954
297.951
297.949
297.947
297.945
297.943
297.941
297.939
297.937
297.935
297.933
297.995
297.992
297.989
297.986
297.984
297.981
297.978
297.975
297.972
297.97
297.967
297.964
297.962
297.959
297.956
297.954
297.951
297.949
297.946
297.944
297.942
297.939
297.937
297.935
297.932
297.93
297.928
297.926
297.924
297.922
297.988
297.985
297.982
297.979
297.976
297.973
297.97
297.967
297.964
297.961
297.958
297.955
297.952
297.95
297.947
297.944
297.941
297.939
297.936
297.933
297.931
297.928
297.926
297.923
297.921
297.919
297.916
297.914
297.912
297.909
297.977
297.974
297.97
297.967
297.964
297.961
297.958
297.954
297.951
297.948
297.945
297.942
297.939
297.936
297.933
297.93
297.927
297.925
297.922
297.919
297.916
297.914
297.911
297.908
297.906
297.903
297.901
297.898
297.896
297.968
297.965
297.961
297.958
297.954
297.951
297.947
297.944
297.941
297.937
297.934
297.931
297.928
297.925
297.921
297.918
297.915
297.912
297.909
297.906
297.903
297.9
297.897
297.895
297.892
297.889
297.886
297.884
297.881
297.955
297.951
297.947
297.944
297.94
297.936
297.933
297.929
297.926
297.922
297.919
297.915
297.912
297.908
297.905
297.902
297.898
297.895
297.892
297.889
297.886
297.883
297.88
297.876
297.873
297.871
297.868
297.865
297.94
297.936
297.932
297.928
297.924
297.921
297.917
297.913
297.909
297.905
297.902
297.898
297.894
297.891
297.887
297.884
297.88
297.877
297.873
297.87
297.866
297.863
297.86
297.857
297.853
297.85
297.847
297.929
297.924
297.92
297.916
297.912
297.907
297.903
297.899
297.895
297.891
297.887
297.883
297.879
297.875
297.871
297.867
297.864
297.86
297.856
297.852
297.849
297.845
297.842
297.838
297.835
297.831
297.828
297.911
297.907
297.902
297.898
297.893
297.889
297.884
297.88
297.875
297.871
297.867
297.862
297.858
297.854
297.85
297.846
297.842
297.838
297.834
297.83
297.826
297.822
297.818
297.814
297.81
297.806
297.898
297.893
297.888
297.883
297.878
297.873
297.868
297.863
297.859
297.854
297.849
297.845
297.84
297.835
297.831
297.826
297.822
297.817
297.813
297.809
297.804
297.8
297.796
297.792
297.788
297.783
297.877
297.872
297.866
297.861
297.856
297.851
297.845
297.84
297.835
297.83
297.825
297.82
297.815
297.81
297.805
297.8
297.795
297.791
297.786
297.781
297.776
297.772
297.767
297.763
297.758
297.855
297.849
297.843
297.837
297.832
297.826
297.82
297.815
297.809
297.804
297.798
297.793
297.787
297.782
297.777
297.771
297.766
297.761
297.756
297.75
297.745
297.74
297.735
297.73
297.836
297.829
297.823
297.817
297.811
297.805
297.798
297.792
297.786
297.78
297.774
297.768
297.762
297.756
297.75
297.745
297.739
297.733
297.727
297.722
297.716
297.71
297.705
297.699
297.808
297.801
297.794
297.788
297.781
297.774
297.768
297.761
297.754
297.748
297.741
297.735
297.728
297.722
297.715
297.709
297.702
297.696
297.69
297.683
297.677
297.671
297.664
297.777
297.77
297.762
297.755
297.747
297.74
297.733
297.725
297.718
297.711
297.704
297.697
297.689
297.682
297.675
297.668
297.661
297.654
297.647
297.64
297.633
297.626
297.742
297.734
297.726
297.717
297.709
297.701
297.693
297.685
297.677
297.669
297.661
297.653
297.645
297.637
297.63
297.622
297.614
297.606
297.599
297.591
297.583
297.711
297.702
297.693
297.684
297.675
297.666
297.657
297.648
297.64
297.631
297.622
297.613
297.604
297.595
297.587
297.578
297.569
297.561
297.552
297.544
297.534
297.666
297.657
297.647
297.637
297.627
297.617
297.607
297.597
297.587
297.578
297.568
297.558
297.548
297.539
297.529
297.519
297.51
297.5
297.49
297.48
297.616
297.605
297.594
297.583
297.572
297.561
297.55
297.539
297.528
297.518
297.507
297.496
297.485
297.474
297.463
297.452
297.442
297.431
297.419
297.559
297.546
297.534
297.522
297.51
297.498
297.486
297.474
297.461
297.449
297.437
297.425
297.413
297.401
297.389
297.377
297.364
297.351
297.493
297.48
297.466
297.453
297.439
297.426
297.412
297.399
297.385
297.372
297.358
297.345
297.331
297.317
297.304
297.29
297.275
297.434
297.419
297.404
297.389
297.374
297.359
297.344
297.329
297.314
297.299
297.284
297.269
297.254
297.239
297.224
297.208
297.191
297.352
297.336
297.319
297.302
297.286
297.269
297.252
297.236
297.219
297.202
297.185
297.168
297.152
297.135
297.117
297.099
297.259
297.241
297.223
297.204
297.186
297.167
297.149
297.131
297.112
297.094
297.075
297.057
297.039
297.019
296.999
297.155
297.135
297.115
297.095
297.074
297.054
297.034
297.014
296.994
296.973
296.954
296.934
296.912
296.891
297.039
297.017
296.995
296.973
296.951
296.929
296.908
296.886
296.864
296.843
296.822
296.799
296.778
296.911
296.888
296.864
296.84
296.817
296.794
296.771
296.748
296.727
296.705
296.68
296.66
296.772
296.747
296.722
296.698
296.674
296.65
296.627
296.605
296.583
296.558
296.54
296.623
296.597
296.572
296.548
296.525
296.502
296.481
296.46
296.437
296.422
296.443
296.42
296.398
296.377
296.358
296.339
296.322
296.315
296.292
296.273
296.256
296.24
296.227
296.22
296.222
296.152
296.141
296.133
296.131
296.137
296.148
296.045
296.055
296.074
296.098
296.07
298.027
298.027
298.027
298.027
298.027
298.027
298.026
298.026
298.026
298.026
298.025
298.025
298.025
298.024
298.024
298.028
298.028
298.028
298.028
298.027
298.027
298.027
298.027
298.027
298.026
298.026
298.026
298.025
298.025
298.025
298.027
298.027
298.027
298.027
298.027
298.026
298.026
298.026
298.026
298.025
298.025
298.025
298.025
298.024
298.024
298.027
298.027
298.026
298.026
298.026
298.026
298.026
298.026
298.025
298.025
298.025
298.025
298.024
298.024
298.023
298.026
298.026
298.026
298.026
298.026
298.026
298.026
298.025
298.025
298.025
298.025
298.024
298.024
298.024
298.023
298.026
298.026
298.026
298.026
298.026
298.026
298.025
298.025
298.025
298.025
298.024
298.024
298.024
298.023
298.023
298.026
298.026
298.026
298.026
298.026
298.026
298.025
298.025
298.025
298.025
298.024
298.024
298.024
298.023
298.023
298.026
298.026
298.026
298.026
298.026
298.026
298.025
298.025
298.025
298.025
298.024
298.024
298.024
298.023
298.023
298.026
298.026
298.026
298.026
298.026
298.026
298.025
298.025
298.025
298.025
298.024
298.024
298.024
298.023
298.023
298.026
298.026
298.026
298.026
298.026
298.026
298.025
298.025
298.025
298.025
298.024
298.024
298.024
298.023
298.023
298.026
298.026
298.026
298.026
298.026
298.026
298.025
298.025
298.025
298.025
298.024
298.024
298.024
298.023
298.023
298.026
298.026
298.026
298.026
298.026
298.026
298.025
298.025
298.025
298.025
298.024
298.024
298.023
298.023
298.023
298.026
298.026
298.026
298.026
298.026
298.025
298.025
298.025
298.025
298.024
298.024
298.024
298.023
298.023
298.023
298.026
298.026
298.026
298.026
298.025
298.025
298.025
298.025
298.025
298.024
298.024
298.024
298.023
298.023
298.022
298.026
298.026
298.026
298.025
298.025
298.025
298.025
298.025
298.024
298.024
298.024
298.023
298.023
298.023
298.022
298.025
298.025
298.025
298.025
298.025
298.025
298.025
298.024
298.024
298.024
298.023
298.023
298.023
298.022
298.022
298.025
298.025
298.025
298.025
298.025
298.024
298.024
298.024
298.024
298.023
298.023
298.023
298.022
298.022
298.021
298.024
298.024
298.024
298.024
298.024
298.024
298.024
298.023
298.023
298.023
298.022
298.022
298.022
298.021
298.021
298.024
298.024
298.024
298.023
298.023
298.023
298.023
298.023
298.022
298.022
298.022
298.021
298.021
298.021
298.02
298.023
298.023
298.023
298.023
298.023
298.022
298.022
298.022
298.022
298.021
298.021
298.021
298.02
298.02
298.019
298.022
298.022
298.022
298.022
298.022
298.021
298.021
298.021
298.021
298.02
298.02
298.019
298.019
298.019
298.018
298.021
298.021
298.021
298.02
298.02
298.02
298.02
298.02
298.019
298.019
298.019
298.018
298.018
298.017
298.017
298.019
298.019
298.019
298.019
298.019
298.019
298.018
298.018
298.018
298.017
298.017
298.017
298.016
298.016
298.015
298.018
298.017
298.017
298.017
298.017
298.017
298.017
298.016
298.016
298.016
298.015
298.015
298.014
298.014
298.013
298.015
298.015
298.015
298.015
298.015
298.015
298.015
298.014
298.014
298.013
298.013
298.013
298.012
298.012
298.011
298.013
298.013
298.013
298.013
298.013
298.012
298.012
298.012
298.011
298.011
298.011
298.01
298.009
298.009
298.008
298.01
298.01
298.01
298.01
298.01
298.01
298.009
298.009
298.009
298.008
298.008
298.007
298.007
298.006
298.005
298.007
298.007
298.007
298.007
298.007
298.006
298.006
298.006
298.005
298.005
298.004
298.004
298.003
298.002
298.002
298.003
298.003
298.003
298.003
298.003
298.003
298.002
298.002
298.001
298.001
298
298
297.999
297.999
297.998
297.999
297.999
297.999
297.999
297.999
297.998
297.998
297.998
297.997
297.997
297.996
297.995
297.995
297.994
297.993
297.995
297.995
297.994
297.994
297.994
297.994
297.993
297.993
297.992
297.992
297.991
297.991
297.99
297.989
297.988
297.989
297.989
297.989
297.989
297.989
297.988
297.988
297.987
297.987
297.986
297.986
297.985
297.984
297.983
297.983
297.983
297.983
297.983
297.983
297.983
297.982
297.982
297.981
297.981
297.98
297.98
297.979
297.978
297.977
297.976
297.977
297.977
297.977
297.976
297.976
297.976
297.975
297.975
297.974
297.973
297.973
297.972
297.971
297.97
297.969
297.969
297.969
297.969
297.969
297.969
297.968
297.968
297.967
297.967
297.966
297.965
297.964
297.964
297.963
297.962
297.961
297.961
297.961
297.961
297.96
297.96
297.96
297.959
297.958
297.958
297.957
297.956
297.955
297.954
297.953
297.952
297.952
297.952
297.952
297.952
297.951
297.951
297.95
297.949
297.949
297.948
297.947
297.946
297.945
297.944
297.943
297.943
297.942
297.942
297.942
297.941
297.941
297.94
297.94
297.939
297.938
297.937
297.936
297.935
297.934
297.932
297.932
297.932
297.932
297.931
297.931
297.93
297.93
297.929
297.928
297.927
297.926
297.925
297.924
297.923
297.921
297.92
297.92
297.92
297.92
297.919
297.919
297.918
297.917
297.917
297.916
297.915
297.914
297.913
297.912
297.908
297.908
297.908
297.907
297.907
297.907
297.906
297.905
297.905
297.904
297.903
297.902
297.901
297.9
297.899
297.894
297.894
297.894
297.894
297.893
297.893
297.892
297.892
297.891
297.89
297.889
297.888
297.887
297.886
297.885
297.879
297.879
297.879
297.879
297.878
297.878
297.877
297.877
297.876
297.875
297.874
297.873
297.873
297.872
297.87
297.863
297.863
297.863
297.862
297.862
297.862
297.861
297.86
297.86
297.859
297.858
297.857
297.856
297.855
297.854
297.845
297.845
297.845
297.845
297.844
297.844
297.843
297.843
297.842
297.841
297.84
297.839
297.839
297.838
297.837
297.826
297.826
297.825
297.825
297.825
297.824
297.824
297.823
297.822
297.822
297.821
297.82
297.819
297.818
297.817
297.805
297.804
297.804
297.804
297.804
297.803
297.803
297.802
297.801
297.801
297.8
297.799
297.798
297.797
297.796
297.781
297.781
297.781
297.781
297.78
297.78
297.779
297.779
297.778
297.777
297.777
297.776
297.775
297.774
297.773
297.756
297.756
297.755
297.755
297.755
297.754
297.754
297.753
297.753
297.752
297.751
297.75
297.75
297.749
297.748
297.728
297.727
297.727
297.727
297.726
297.726
297.726
297.725
297.724
297.724
297.723
297.722
297.722
297.721
297.72
297.696
297.696
297.696
297.696
297.695
297.695
297.694
297.694
297.693
297.693
297.692
297.691
297.69
297.69
297.689
297.661
297.661
297.661
297.661
297.66
297.66
297.66
297.659
297.659
297.658
297.657
297.657
297.656
297.655
297.654
297.623
297.622
297.622
297.622
297.622
297.621
297.621
297.62
297.62
297.619
297.619
297.618
297.617
297.617
297.616
297.579
297.579
297.579
297.578
297.578
297.578
297.577
297.577
297.576
297.576
297.575
297.575
297.574
297.574
297.573
297.53
297.53
297.53
297.53
297.529
297.529
297.528
297.528
297.528
297.527
297.527
297.526
297.526
297.525
297.525
297.476
297.475
297.475
297.475
297.474
297.474
297.474
297.473
297.473
297.472
297.472
297.472
297.471
297.471
297.47
297.414
297.414
297.414
297.413
297.413
297.413
297.412
297.412
297.412
297.411
297.411
297.411
297.41
297.41
297.409
297.346
297.345
297.345
297.345
297.345
297.344
297.344
297.344
297.343
297.343
297.343
297.343
297.342
297.342
297.342
297.27
297.269
297.269
297.269
297.268
297.268
297.268
297.268
297.268
297.267
297.267
297.267
297.267
297.267
297.267
297.185
297.185
297.185
297.185
297.184
297.184
297.184
297.184
297.184
297.184
297.184
297.184
297.184
297.185
297.185
297.093
297.093
297.093
297.092
297.092
297.092
297.093
297.093
297.093
297.094
297.094
297.095
297.095
297.096
297.096
296.993
296.992
296.992
296.992
296.993
296.993
296.994
296.995
296.995
296.996
296.997
296.998
296.999
297
297.001
296.885
296.885
296.885
296.886
296.886
296.887
296.888
296.89
296.891
296.892
296.894
296.895
296.896
296.898
296.899
296.772
296.772
296.772
296.773
296.775
296.776
296.778
296.78
296.782
296.783
296.785
296.787
296.789
296.791
296.793
296.655
296.655
296.656
296.658
296.66
296.662
296.664
296.667
296.669
296.672
296.674
296.677
296.679
296.682
296.684
296.536
296.536
296.538
296.541
296.543
296.546
296.549
296.552
296.556
296.559
296.562
296.565
296.569
296.572
296.575
296.421
296.422
296.425
296.428
296.431
296.435
296.438
296.442
296.446
296.45
296.454
296.458
296.462
296.466
296.47
296.315
296.317
296.32
296.324
296.328
296.332
296.337
296.342
296.346
296.351
296.356
296.36
296.365
296.37
296.374
296.224
296.227
296.231
296.236
296.24
296.245
296.251
296.256
296.261
296.267
296.272
296.277
296.282
296.288
296.293
296.154
296.158
296.163
296.168
296.174
296.179
296.185
296.191
296.197
296.202
296.208
296.214
296.219
296.225
296.23
296.108
296.113
296.119
296.125
296.131
296.137
296.143
296.15
296.156
296.162
296.168
296.174
296.18
296.185
296.191
296.085
296.091
296.097
296.103
296.11
296.117
296.124
296.131
296.138
296.145
296.151
296.157
296.163
296.169
296.175
296.122
296.129
296.136
296.143
296.15
296.157
296.164
296.17
296.176
296.184
296.19
296.196
298.024
298.023
298.022
298.022
298.021
298.024
298.023
298.023
298.022
298.022
298.023
298.023
298.022
298.021
298.021
298.023
298.022
298.021
298.021
298.02
298.023
298.022
298.021
298.02
298.02
298.022
298.022
298.021
298.02
298.019
298.022
298.021
298.021
298.02
298.019
298.022
298.021
298.02
298.02
298.019
298.022
298.021
298.02
298.02
298.019
298.022
298.021
298.02
298.02
298.019
298.022
298.021
298.02
298.019
298.019
298.022
298.021
298.02
298.019
298.018
298.022
298.021
298.02
298.019
298.018
298.022
298.021
298.02
298.019
298.018
298.021
298.02
298.02
298.019
298.018
298.021
298.02
298.019
298.018
298.017
298.021
298.02
298.019
298.018
298.017
298.02
298.019
298.018
298.017
298.016
298.019
298.018
298.017
298.016
298.015
298.018
298.017
298.016
298.015
298.014
298.017
298.016
298.015
298.013
298.012
298.016
298.014
298.013
298.012
298.011
298.014
298.013
298.011
298.01
298.009
298.012
298.011
298.009
298.008
298.006
298.01
298.008
298.007
298.005
298.003
298.007
298.005
298.004
298.002
298
298.004
298.002
298
297.998
297.997
298
297.998
297.996
297.994
297.993
297.996
297.994
297.992
297.99
297.988
297.992
297.989
297.987
297.985
297.983
297.987
297.984
297.982
297.979
297.977
297.981
297.978
297.976
297.973
297.971
297.974
297.972
297.969
297.966
297.964
297.967
297.964
297.962
297.959
297.956
297.96
297.957
297.954
297.951
297.948
297.951
297.948
297.945
297.942
297.94
297.942
297.939
297.936
297.933
297.93
297.932
297.929
297.925
297.923
297.92
297.921
297.918
297.915
297.912
297.909
297.909
297.906
297.903
297.9
297.898
297.897
297.893
297.89
297.888
297.885
297.883
297.88
297.877
297.874
297.872
297.868
297.865
297.862
297.859
297.857
297.852
297.849
297.846
297.843
297.841
297.834
297.831
297.829
297.826
297.824
297.815
297.812
297.809
297.807
297.805
297.794
297.791
297.789
297.786
297.784
297.771
297.768
297.766
297.764
297.762
297.746
297.743
297.741
297.739
297.737
297.718
297.715
297.713
297.711
297.71
297.687
297.685
297.683
297.681
297.68
297.653
297.651
297.649
297.647
297.646
297.614
297.612
297.611
297.609
297.608
297.571
297.57
297.568
297.567
297.566
297.523
297.522
297.52
297.519
297.519
297.469
297.468
297.467
297.466
297.466
297.408
297.408
297.407
297.407
297.407
297.341
297.341
297.341
297.341
297.342
297.267
297.267
297.268
297.27
297.271
297.185
297.187
297.19
297.192
297.194
297.098
297.101
297.104
297.107
297.111
297.003
297.008
297.012
297.017
297.021
296.903
296.909
296.915
296.921
296.927
296.798
296.806
296.814
296.822
296.83
296.69
296.7
296.711
296.721
296.731
296.583
296.596
296.608
296.621
296.633
296.48
296.495
296.51
296.525
296.54
296.386
296.403
296.421
296.438
296.455
296.305
296.325
296.344
296.363
296.382
296.244
296.265
296.285
296.305
296.324
296.205
296.226
296.246
296.265
296.285
296.188
296.208
296.228
296.246
296.264
296.19
296.212
296.231
296.248
296.264
296.21
296.232
296.251
296.268
296.281
296.26
296.277
296.292
296.304
296.307
296.307
296.31
296.371
296.332
298.021
298.02
298.02
298.02
298.019
298.019
298.018
298.018
298.017
298.017
298.017
298.016
298.016
298.016
298.015
298.015
298.015
298.015
298.014
298.014
298.014
298.014
298.014
298.014
298.014
298.014
298.013
298.013
298.013
298.013
298.013
298.013
298.013
298.013
298.013
298.013
298.013
298.012
298.012
298.012
298.012
298.012
298.012
298.012
298.012
298.011
298.011
298.011
298.011
298.011
298.011
298.01
298.01
298.01
298.01
298.01
298.009
298.009
298.009
298.009
298.009
298.008
298.008
298.008
298.007
298.007
298.007
298.007
298.006
298.006
298.005
298.005
298.005
298.004
298.004
298.003
298.002
298.001
298.001
298.001
298.021
298.021
298.02
298.02
298.019
298.019
298.018
298.018
298.017
298.017
298.016
298.016
298.016
298.015
298.015
298.015
298.014
298.014
298.014
298.014
298.014
298.013
298.013
298.013
298.013
298.013
298.013
298.013
298.013
298.012
298.012
298.012
298.012
298.012
298.012
298.012
298.012
298.011
298.011
298.011
298.011
298.011
298.011
298.01
298.01
298.01
298.01
298.009
298.009
298.009
298.009
298.008
298.008
298.008
298.008
298.007
298.007
298.007
298.007
298.006
298.006
298.006
298.005
298.005
298.005
298.004
298.004
298.004
298.004
298.003
298.003
298.003
298.003
298.002
298.002
298.002
298.001
298.001
298
298.001
298.02
298.02
298.019
298.019
298.018
298.018
298.017
298.017
298.016
298.016
298.015
298.015
298.014
298.014
298.014
298.014
298.013
298.013
298.013
298.013
298.013
298.012
298.012
298.012
298.012
298.012
298.012
298.012
298.012
298.011
298.011
298.011
298.011
298.011
298.011
298.011
298.011
298.01
298.01
298.01
298.01
298.01
298.01
298.009
298.009
298.009
298.009
298.008
298.008
298.008