/*--------------------------------*- C++ -*----------------------------------*\
  =========                 |
  \\      /  F ield         | OpenFOAM: The Open Source CFD Toolbox
   \\    /   O peration     | Website:  https://openfoam.org
    \\  /    A nd           | Version:  8
     \\/     M anipulation  |
\*---------------------------------------------------------------------------*/
FoamFile
{
    version     2.0;
    format      ascii;
    class       volScalarField;
    location    "4.2";
    object      p;
}
// * * * * * * * * * * * * * * * * * * * * * * * * * * * * * * * * * * * * * //

dimensions      [0 2 -2 0 0 0 0];

internalField   nonuniform List<scalar> 
262620
(
-1.36048
-1.36069
-1.36136
-1.36237
-1.36369
-1.36533
-1.36725
-1.36944
-1.37188
-1.37456
-1.37746
-1.38056
-1.38386
-1.38733
-1.39096
-1.39474
-1.39866
-1.4027
-1.40685
-1.41111
-1.41545
-1.41988
-1.42438
-1.42894
-1.43355
-1.43822
-1.44292
-1.44765
-1.4524
-1.45718
-1.46196
-1.46676
-1.47155
-1.47634
-1.48112
-1.48589
-1.49064
-1.49537
-1.50008
-1.50476
-1.50941
-1.51402
-1.5186
-1.52314
-1.52765
-1.53211
-1.53652
-1.54089
-1.54522
-1.5495
-1.55372
-1.5579
-1.56203
-1.5661
-1.57012
-1.57409
-1.578
-1.58186
-1.58567
-1.58942
-1.59312
-1.59676
-1.60035
-1.60389
-1.60737
-1.6108
-1.61417
-1.61749
-1.62075
-1.62397
-1.62713
-1.63023
-1.63329
-1.6363
-1.63925
-1.64216
-1.64501
-1.64782
-1.65058
-1.65329
-1.65595
-1.65857
-1.66114
-1.66366
-1.66614
-1.66858
-1.67097
-1.67332
-1.67563
-1.67789
-1.68012
-1.6823
-1.68445
-1.68656
-1.68863
-1.69066
-1.69265
-1.69461
-1.69653
-1.69841
-1.70027
-1.70208
-1.70387
-1.70562
-1.70734
-1.70903
-1.71069
-1.71231
-1.71391
-1.71548
-1.71701
-1.71853
-1.72001
-1.72146
-1.72289
-1.72429
-1.72567
-1.72702
-1.72835
-1.72965
-1.36035
-1.36056
-1.36122
-1.36223
-1.36356
-1.36519
-1.3671
-1.36929
-1.37174
-1.37442
-1.37731
-1.38042
-1.38371
-1.38718
-1.39082
-1.3946
-1.39851
-1.40256
-1.40671
-1.41097
-1.41531
-1.41974
-1.42424
-1.4288
-1.43342
-1.43808
-1.44279
-1.44752
-1.45228
-1.45705
-1.46184
-1.46664
-1.47143
-1.47622
-1.48101
-1.48578
-1.49053
-1.49526
-1.49997
-1.50466
-1.50931
-1.51393
-1.51851
-1.52305
-1.52756
-1.53202
-1.53644
-1.54082
-1.54514
-1.54942
-1.55365
-1.55783
-1.56196
-1.56604
-1.57006
-1.57403
-1.57795
-1.58181
-1.58562
-1.58938
-1.59308
-1.59673
-1.60032
-1.60386
-1.60734
-1.61077
-1.61414
-1.61747
-1.62073
-1.62395
-1.62711
-1.63022
-1.63328
-1.63629
-1.63925
-1.64216
-1.64502
-1.64783
-1.65059
-1.6533
-1.65596
-1.65858
-1.66116
-1.66368
-1.66617
-1.66861
-1.671
-1.67335
-1.67566
-1.67793
-1.68016
-1.68235
-1.6845
-1.68661
-1.68868
-1.69071
-1.6927
-1.69466
-1.69659
-1.69848
-1.70033
-1.70215
-1.70394
-1.70569
-1.70741
-1.7091
-1.71076
-1.71239
-1.71399
-1.71556
-1.7171
-1.71861
-1.72009
-1.72155
-1.72298
-1.72439
-1.72576
-1.72712
-1.72845
-1.72975
-1.36011
-1.36032
-1.36099
-1.36199
-1.36331
-1.36494
-1.36686
-1.36905
-1.37149
-1.37416
-1.37706
-1.38017
-1.38346
-1.38693
-1.39056
-1.39435
-1.39827
-1.40231
-1.40646
-1.41072
-1.41507
-1.4195
-1.424
-1.42857
-1.43319
-1.43786
-1.44256
-1.4473
-1.45206
-1.45684
-1.46163
-1.46643
-1.47123
-1.47602
-1.48081
-1.48559
-1.49034
-1.49508
-1.4998
-1.50448
-1.50914
-1.51376
-1.51835
-1.5229
-1.52741
-1.53188
-1.5363
-1.54068
-1.54501
-1.5493
-1.55353
-1.55772
-1.56185
-1.56593
-1.56996
-1.57394
-1.57786
-1.58173
-1.58555
-1.58931
-1.59301
-1.59666
-1.60026
-1.6038
-1.60729
-1.61073
-1.61411
-1.61743
-1.62071
-1.62393
-1.62709
-1.63021
-1.63327
-1.63629
-1.63925
-1.64216
-1.64502
-1.64784
-1.6506
-1.65332
-1.65599
-1.65861
-1.66119
-1.66372
-1.6662
-1.66865
-1.67105
-1.6734
-1.67572
-1.67799
-1.68022
-1.68241
-1.68456
-1.68667
-1.68875
-1.69078
-1.69278
-1.69475
-1.69667
-1.69856
-1.70042
-1.70224
-1.70403
-1.70579
-1.70752
-1.70921
-1.71087
-1.7125
-1.7141
-1.71567
-1.71722
-1.71873
-1.72022
-1.72168
-1.72311
-1.72452
-1.7259
-1.72726
-1.72859
-1.72989
-1.35977
-1.35997
-1.36063
-1.36163
-1.36295
-1.36457
-1.36649
-1.36867
-1.37111
-1.37379
-1.37669
-1.37979
-1.38308
-1.38656
-1.39019
-1.39397
-1.39789
-1.40194
-1.40609
-1.41035
-1.41471
-1.41914
-1.42365
-1.42822
-1.43284
-1.43751
-1.44222
-1.44696
-1.45173
-1.45651
-1.46131
-1.46611
-1.47092
-1.47572
-1.48051
-1.4853
-1.49006
-1.49481
-1.49953
-1.50422
-1.50888
-1.51351
-1.51811
-1.52267
-1.52718
-1.53166
-1.53609
-1.54048
-1.54482
-1.54911
-1.55335
-1.55755
-1.56169
-1.56578
-1.56981
-1.5738
-1.57773
-1.5816
-1.58543
-1.58919
-1.59291
-1.59657
-1.60017
-1.60372
-1.60722
-1.61066
-1.61405
-1.61738
-1.62066
-1.62389
-1.62706
-1.63018
-1.63326
-1.63628
-1.63924
-1.64216
-1.64503
-1.64785
-1.65062
-1.65335
-1.65602
-1.65865
-1.66124
-1.66377
-1.66627
-1.66872
-1.67112
-1.67348
-1.6758
-1.67808
-1.68032
-1.68251
-1.68467
-1.68679
-1.68887
-1.69091
-1.69292
-1.69488
-1.69682
-1.69871
-1.70057
-1.7024
-1.7042
-1.70596
-1.70769
-1.70938
-1.71105
-1.71269
-1.71429
-1.71587
-1.71742
-1.71894
-1.72043
-1.72189
-1.72333
-1.72474
-1.72612
-1.72748
-1.72882
-1.73012
-1.35931
-1.35951
-1.36016
-1.36116
-1.36247
-1.36409
-1.366
-1.36818
-1.37062
-1.37329
-1.37619
-1.37929
-1.38259
-1.38606
-1.38969
-1.39348
-1.3974
-1.40145
-1.40561
-1.40987
-1.41423
-1.41866
-1.42317
-1.42775
-1.43238
-1.43705
-1.44177
-1.44652
-1.45129
-1.45608
-1.46089
-1.4657
-1.47051
-1.47532
-1.48013
-1.48492
-1.48969
-1.49444
-1.49917
-1.50387
-1.50855
-1.51319
-1.51779
-1.52236
-1.52689
-1.53137
-1.53581
-1.54021
-1.54456
-1.54886
-1.55311
-1.55732
-1.56147
-1.56557
-1.56962
-1.57361
-1.57755
-1.58144
-1.58527
-1.58905
-1.59277
-1.59644
-1.60005
-1.60361
-1.60712
-1.61057
-1.61397
-1.61731
-1.6206
-1.62384
-1.62702
-1.63015
-1.63323
-1.63626
-1.63924
-1.64217
-1.64504
-1.64787
-1.65065
-1.65339
-1.65607
-1.65871
-1.6613
-1.66384
-1.66635
-1.6688
-1.67121
-1.67358
-1.67591
-1.6782
-1.68044
-1.68265
-1.68481
-1.68693
-1.68902
-1.69107
-1.69308
-1.69506
-1.69699
-1.6989
-1.70077
-1.7026
-1.7044
-1.70617
-1.7079
-1.70961
-1.71128
-1.71292
-1.71453
-1.71611
-1.71767
-1.71919
-1.72069
-1.72216
-1.7236
-1.72502
-1.72641
-1.72777
-1.72911
-1.73042
-1.35875
-1.35894
-1.35958
-1.36057
-1.36188
-1.36349
-1.3654
-1.36757
-1.37001
-1.37268
-1.37557
-1.37868
-1.38197
-1.38544
-1.38908
-1.39286
-1.39679
-1.40084
-1.405
-1.40927
-1.41363
-1.41807
-1.42259
-1.42717
-1.43181
-1.43649
-1.44121
-1.44597
-1.45075
-1.45555
-1.46036
-1.46519
-1.47001
-1.47483
-1.47964
-1.48444
-1.48923
-1.49399
-1.49873
-1.50345
-1.50813
-1.51278
-1.5174
-1.52198
-1.52652
-1.53102
-1.53547
-1.53988
-1.54424
-1.54855
-1.55282
-1.55704
-1.5612
-1.56531
-1.56937
-1.57338
-1.57733
-1.58123
-1.58507
-1.58886
-1.5926
-1.59628
-1.59991
-1.60348
-1.607
-1.61046
-1.61387
-1.61722
-1.62053
-1.62377
-1.62697
-1.63011
-1.6332
-1.63624
-1.63923
-1.64217
-1.64506
-1.6479
-1.65069
-1.65343
-1.65613
-1.65878
-1.66138
-1.66393
-1.66644
-1.66891
-1.67133
-1.67371
-1.67605
-1.67834
-1.6806
-1.68281
-1.68498
-1.68712
-1.68921
-1.69127
-1.69329
-1.69527
-1.69722
-1.69913
-1.70101
-1.70285
-1.70466
-1.70644
-1.70818
-1.70989
-1.71157
-1.71322
-1.71484
-1.71643
-1.71799
-1.71952
-1.72102
-1.7225
-1.72394
-1.72537
-1.72676
-1.72813
-1.72948
-1.7308
-1.35808
-1.35826
-1.35889
-1.35987
-1.36117
-1.36278
-1.36468
-1.36685
-1.36928
-1.37195
-1.37484
-1.37794
-1.38124
-1.38471
-1.38835
-1.39213
-1.39606
-1.40012
-1.40428
-1.40856
-1.41292
-1.41737
-1.42189
-1.42648
-1.43113
-1.43582
-1.44055
-1.44532
-1.45011
-1.45492
-1.45974
-1.46458
-1.46941
-1.47424
-1.47907
-1.48388
-1.48868
-1.49346
-1.49821
-1.50294
-1.50764
-1.5123
-1.51693
-1.52153
-1.52608
-1.53059
-1.53506
-1.53948
-1.54386
-1.54819
-1.55247
-1.5567
-1.56088
-1.56501
-1.56908
-1.5731
-1.57707
-1.58098
-1.58484
-1.58865
-1.5924
-1.59609
-1.59973
-1.60332
-1.60685
-1.61033
-1.61375
-1.61712
-1.62044
-1.6237
-1.62691
-1.63007
-1.63317
-1.63622
-1.63923
-1.64218
-1.64508
-1.64793
-1.65073
-1.65349
-1.6562
-1.65886
-1.66147
-1.66404
-1.66656
-1.66904
-1.67147
-1.67386
-1.67621
-1.67852
-1.68078
-1.68301
-1.68519
-1.68734
-1.68944
-1.69151
-1.69354
-1.69553
-1.69749
-1.69941
-1.70129
-1.70315
-1.70496
-1.70675
-1.7085
-1.71022
-1.71191
-1.71357
-1.71519
-1.71679
-1.71836
-1.7199
-1.72141
-1.72289
-1.72435
-1.72578
-1.72718
-1.72856
-1.72992
-1.73124
-1.3573
-1.35747
-1.35809
-1.35906
-1.36035
-1.36195
-1.36385
-1.36602
-1.36844
-1.37111
-1.374
-1.3771
-1.38039
-1.38386
-1.3875
-1.39129
-1.39522
-1.39928
-1.40345
-1.40773
-1.4121
-1.41656
-1.42109
-1.42569
-1.43034
-1.43504
-1.43979
-1.44456
-1.44937
-1.45419
-1.45903
-1.46387
-1.46872
-1.47357
-1.4784
-1.48323
-1.48804
-1.49284
-1.49761
-1.50235
-1.50706
-1.51175
-1.51639
-1.521
-1.52557
-1.5301
-1.53459
-1.53903
-1.54342
-1.54777
-1.55206
-1.55631
-1.56051
-1.56465
-1.56874
-1.57278
-1.57677
-1.5807
-1.58457
-1.5884
-1.59216
-1.59588
-1.59953
-1.60314
-1.60668
-1.61018
-1.61362
-1.617
-1.62033
-1.62361
-1.62684
-1.63001
-1.63313
-1.6362
-1.63922
-1.64218
-1.6451
-1.64797
-1.65079
-1.65356
-1.65628
-1.65895
-1.66158
-1.66416
-1.6667
-1.66919
-1.67164
-1.67404
-1.6764
-1.67872
-1.681
-1.68323
-1.68543
-1.68759
-1.6897
-1.69178
-1.69383
-1.69583
-1.6978
-1.69973
-1.70163
-1.70349
-1.70532
-1.70711
-1.70888
-1.71061
-1.7123
-1.71397
-1.71561
-1.71722
-1.71879
-1.72034
-1.72186
-1.72336
-1.72482
-1.72626
-1.72767
-1.72906
-1.73042
-1.73175
-1.35642
-1.35658
-1.35719
-1.35815
-1.35943
-1.36102
-1.36291
-1.36507
-1.36749
-1.37015
-1.37304
-1.37614
-1.37943
-1.3829
-1.38654
-1.39034
-1.39427
-1.39833
-1.40251
-1.4068
-1.41118
-1.41564
-1.42018
-1.42479
-1.42945
-1.43417
-1.43892
-1.44371
-1.44852
-1.45336
-1.45821
-1.46307
-1.46794
-1.4728
-1.47765
-1.4825
-1.48733
-1.49213
-1.49692
-1.50168
-1.50641
-1.51111
-1.51578
-1.52041
-1.525
-1.52955
-1.53405
-1.53851
-1.54292
-1.54729
-1.5516
-1.55587
-1.56009
-1.56425
-1.56836
-1.57242
-1.57642
-1.58037
-1.58427
-1.58811
-1.5919
-1.59563
-1.59931
-1.60293
-1.60649
-1.61001
-1.61346
-1.61687
-1.62022
-1.62351
-1.62676
-1.62995
-1.63309
-1.63617
-1.63921
-1.64219
-1.64512
-1.64801
-1.65084
-1.65363
-1.65637
-1.65906
-1.6617
-1.6643
-1.66685
-1.66936
-1.67182
-1.67424
-1.67661
-1.67895
-1.68124
-1.68349
-1.6857
-1.68787
-1.69
-1.6921
-1.69415
-1.69617
-1.69815
-1.70009
-1.702
-1.70388
-1.70572
-1.70753
-1.7093
-1.71104
-1.71275
-1.71443
-1.71608
-1.7177
-1.71929
-1.72085
-1.72238
-1.72388
-1.72536
-1.7268
-1.72823
-1.72962
-1.73099
-1.73233
-1.35545
-1.35558
-1.35618
-1.35713
-1.3584
-1.35998
-1.36186
-1.36402
-1.36643
-1.36909
-1.37197
-1.37507
-1.37836
-1.38184
-1.38548
-1.38927
-1.39321
-1.39728
-1.40147
-1.40576
-1.41015
-1.41462
-1.41917
-1.42379
-1.42846
-1.43319
-1.43795
-1.44276
-1.44759
-1.45244
-1.45731
-1.46218
-1.46706
-1.47194
-1.47681
-1.48168
-1.48652
-1.49135
-1.49616
-1.50094
-1.50569
-1.51041
-1.5151
-1.51975
-1.52436
-1.52893
-1.53345
-1.53793
-1.54237
-1.54675
-1.55109
-1.55538
-1.55962
-1.5638
-1.56794
-1.57202
-1.57604
-1.58001
-1.58393
-1.58779
-1.5916
-1.59535
-1.59905
-1.60269
-1.60628
-1.60982
-1.61329
-1.61672
-1.62009
-1.62341
-1.62667
-1.62988
-1.63304
-1.63614
-1.6392
-1.6422
-1.64515
-1.64805
-1.65091
-1.65371
-1.65647
-1.65918
-1.66184
-1.66445
-1.66702
-1.66955
-1.67203
-1.67446
-1.67685
-1.6792
-1.68151
-1.68378
-1.686
-1.68819
-1.69034
-1.69244
-1.69451
-1.69655
-1.69854
-1.7005
-1.70242
-1.70431
-1.70617
-1.70799
-1.70977
-1.71153
-1.71325
-1.71494
-1.7166
-1.71823
-1.71984
-1.72141
-1.72295
-1.72446
-1.72595
-1.72741
-1.72884
-1.73025
-1.73163
-1.73298
-1.35437
-1.35449
-1.35507
-1.35601
-1.35727
-1.35884
-1.36071
-1.36286
-1.36526
-1.36792
-1.3708
-1.37389
-1.37719
-1.38066
-1.3843
-1.3881
-1.39205
-1.39612
-1.40031
-1.40461
-1.40901
-1.41349
-1.41805
-1.42268
-1.42737
-1.43211
-1.43689
-1.44171
-1.44655
-1.45142
-1.45631
-1.4612
-1.4661
-1.471
-1.47589
-1.48077
-1.48564
-1.49049
-1.49532
-1.50012
-1.50489
-1.50964
-1.51435
-1.51902
-1.52365
-1.52824
-1.53279
-1.5373
-1.54175
-1.54617
-1.55053
-1.55484
-1.5591
-1.56331
-1.56747
-1.57157
-1.57562
-1.57962
-1.58356
-1.58744
-1.59127
-1.59505
-1.59877
-1.60244
-1.60605
-1.6096
-1.61311
-1.61655
-1.61995
-1.62328
-1.62657
-1.6298
-1.63298
-1.63611
-1.63918
-1.64221
-1.64518
-1.64811
-1.65098
-1.6538
-1.65658
-1.65931
-1.66199
-1.66462
-1.66721
-1.66975
-1.67225
-1.67471
-1.67712
-1.67948
-1.68181
-1.68409
-1.68634
-1.68854
-1.6907
-1.69283
-1.69491
-1.69696
-1.69897
-1.70095
-1.70289
-1.70479
-1.70666
-1.7085
-1.7103
-1.71207
-1.7138
-1.71551
-1.71718
-1.71883
-1.72044
-1.72203
-1.72358
-1.72511
-1.72661
-1.72808
-1.72953
-1.73095
-1.73234
-1.7337
-1.3532
-1.3533
-1.35387
-1.35479
-1.35603
-1.35759
-1.35945
-1.36159
-1.36399
-1.36664
-1.36952
-1.37261
-1.3759
-1.37938
-1.38302
-1.38683
-1.39077
-1.39485
-1.39905
-1.40336
-1.40777
-1.41226
-1.41683
-1.42148
-1.42618
-1.43093
-1.43573
-1.44056
-1.44543
-1.45031
-1.45522
-1.46013
-1.46505
-1.46997
-1.47488
-1.47979
-1.48468
-1.48955
-1.4944
-1.49923
-1.50402
-1.50879
-1.51352
-1.51822
-1.52288
-1.5275
-1.53207
-1.5366
-1.54109
-1.54552
-1.54991
-1.55425
-1.55854
-1.56277
-1.56695
-1.57108
-1.57516
-1.57918
-1.58315
-1.58706
-1.59092
-1.59472
-1.59847
-1.60216
-1.60579
-1.60937
-1.6129
-1.61637
-1.61979
-1.62315
-1.62646
-1.62972
-1.63292
-1.63607
-1.63917
-1.64222
-1.64521
-1.64816
-1.65106
-1.6539
-1.6567
-1.65945
-1.66215
-1.66481
-1.66742
-1.66998
-1.6725
-1.67497
-1.6774
-1.67979
-1.68214
-1.68444
-1.6867
-1.68892
-1.6911
-1.69325
-1.69535
-1.69742
-1.69944
-1.70144
-1.70339
-1.70531
-1.7072
-1.70905
-1.71087
-1.71265
-1.71441
-1.71613
-1.71782
-1.71947
-1.7211
-1.7227
-1.72427
-1.72581
-1.72733
-1.72881
-1.73027
-1.7317
-1.73311
-1.73448
-1.35193
-1.35201
-1.35256
-1.35347
-1.3547
-1.35624
-1.35809
-1.36022
-1.36262
-1.36526
-1.36814
-1.37123
-1.37452
-1.37799
-1.38164
-1.38545
-1.3894
-1.39349
-1.39769
-1.40201
-1.40643
-1.41093
-1.41552
-1.42017
-1.42489
-1.42966
-1.43447
-1.43933
-1.44421
-1.44911
-1.45404
-1.45897
-1.46391
-1.46885
-1.47379
-1.47872
-1.48363
-1.48853
-1.49341
-1.49826
-1.50308
-1.50788
-1.51264
-1.51736
-1.52205
-1.52669
-1.53129
-1.53585
-1.54036
-1.54483
-1.54924
-1.55361
-1.55793
-1.56219
-1.5664
-1.57056
-1.57466
-1.57871
-1.58271
-1.58665
-1.59053
-1.59436
-1.59814
-1.60185
-1.60552
-1.60913
-1.61268
-1.61618
-1.61962
-1.62301
-1.62635
-1.62963
-1.63286
-1.63603
-1.63916
-1.64223
-1.64525
-1.64822
-1.65114
-1.65401
-1.65683
-1.65961
-1.66233
-1.66501
-1.66764
-1.67023
-1.67277
-1.67526
-1.67771
-1.68012
-1.68249
-1.68481
-1.68709
-1.68934
-1.69154
-1.6937
-1.69582
-1.69791
-1.69996
-1.70197
-1.70394
-1.70588
-1.70778
-1.70965
-1.71149
-1.71329
-1.71506
-1.71679
-1.7185
-1.72017
-1.72182
-1.72343
-1.72502
-1.72657
-1.7281
-1.7296
-1.73108
-1.73252
-1.73394
-1.73532
-1.35057
-1.35063
-1.35116
-1.35205
-1.35326
-1.3548
-1.35663
-1.35876
-1.36114
-1.36378
-1.36665
-1.36974
-1.37303
-1.3765
-1.38015
-1.38396
-1.38792
-1.39201
-1.39623
-1.40056
-1.40499
-1.4095
-1.4141
-1.41877
-1.42351
-1.42829
-1.43312
-1.438
-1.4429
-1.44783
-1.45277
-1.45773
-1.46269
-1.46766
-1.47262
-1.47757
-1.48251
-1.48744
-1.49234
-1.49722
-1.50207
-1.50689
-1.51168
-1.51643
-1.52115
-1.52582
-1.53045
-1.53504
-1.53958
-1.54408
-1.54853
-1.55292
-1.55727
-1.56156
-1.5658
-1.56999
-1.57413
-1.57821
-1.58223
-1.5862
-1.59012
-1.59398
-1.59778
-1.60153
-1.60522
-1.60886
-1.61244
-1.61597
-1.61944
-1.62286
-1.62622
-1.62953
-1.63279
-1.63599
-1.63914
-1.64224
-1.64529
-1.64828
-1.65123
-1.65413
-1.65697
-1.65977
-1.66252
-1.66523
-1.66788
-1.67049
-1.67306
-1.67557
-1.67805
-1.68048
-1.68287
-1.68521
-1.68752
-1.68978
-1.69201
-1.69419
-1.69633
-1.69844
-1.70051
-1.70254
-1.70453
-1.70649
-1.70841
-1.7103
-1.71215
-1.71397
-1.71576
-1.71751
-1.71924
-1.72093
-1.72259
-1.72422
-1.72582
-1.7274
-1.72894
-1.73046
-1.73194
-1.73341
-1.73484
-1.73623
-1.34912
-1.34915
-1.34966
-1.35054
-1.35173
-1.35325
-1.35508
-1.35719
-1.35957
-1.3622
-1.36506
-1.36815
-1.37144
-1.37491
-1.37857
-1.38238
-1.38634
-1.39044
-1.39467
-1.39901
-1.40345
-1.40798
-1.41259
-1.41728
-1.42203
-1.42683
-1.43168
-1.43658
-1.4415
-1.44645
-1.45142
-1.4564
-1.46139
-1.46638
-1.47137
-1.47635
-1.48132
-1.48627
-1.4912
-1.49611
-1.50099
-1.50584
-1.51066
-1.51544
-1.52019
-1.5249
-1.52956
-1.53418
-1.53875
-1.54328
-1.54776
-1.55219
-1.55657
-1.56089
-1.56517
-1.56939
-1.57355
-1.57767
-1.58172
-1.58573
-1.58967
-1.59356
-1.5974
-1.60118
-1.6049
-1.60857
-1.61218
-1.61574
-1.61925
-1.62269
-1.62609
-1.62943
-1.63271
-1.63595
-1.63913
-1.64225
-1.64533
-1.64835
-1.65133
-1.65425
-1.65713
-1.65995
-1.66273
-1.66546
-1.66814
-1.67077
-1.67336
-1.67591
-1.67841
-1.68086
-1.68328
-1.68565
-1.68797
-1.69026
-1.6925
-1.69471
-1.69688
-1.699
-1.70109
-1.70314
-1.70516
-1.70714
-1.70908
-1.71099
-1.71286
-1.7147
-1.71651
-1.71828
-1.72002
-1.72174
-1.72341
-1.72506
-1.72668
-1.72827
-1.72983
-1.73137
-1.73287
-1.73435
-1.7358
-1.73721
-1.34757
-1.34759
-1.34808
-1.34893
-1.35011
-1.35161
-1.35342
-1.35552
-1.35789
-1.36052
-1.36338
-1.36646
-1.36975
-1.37322
-1.37688
-1.3807
-1.38467
-1.38878
-1.39301
-1.39736
-1.40181
-1.40636
-1.41099
-1.41569
-1.42046
-1.42528
-1.43015
-1.43507
-1.44001
-1.44498
-1.44998
-1.45499
-1.46
-1.46502
-1.47003
-1.47504
-1.48004
-1.48502
-1.48999
-1.49493
-1.49984
-1.50472
-1.50957
-1.51439
-1.51917
-1.52391
-1.52861
-1.53326
-1.53787
-1.54243
-1.54694
-1.55141
-1.55582
-1.56018
-1.56449
-1.56874
-1.57294
-1.57709
-1.58118
-1.58522
-1.5892
-1.59312
-1.59699
-1.60081
-1.60456
-1.60827
-1.61191
-1.6155
-1.61904
-1.62252
-1.62594
-1.62932
-1.63263
-1.6359
-1.63911
-1.64227
-1.64537
-1.64843
-1.65143
-1.65438
-1.65729
-1.66014
-1.66295
-1.6657
-1.66841
-1.67107
-1.67369
-1.67626
-1.67879
-1.68127
-1.68371
-1.6861
-1.68846
-1.69077
-1.69304
-1.69527
-1.69746
-1.69961
-1.70172
-1.70379
-1.70583
-1.70783
-1.7098
-1.71173
-1.71362
-1.71548
-1.71731
-1.7191
-1.72086
-1.72259
-1.72429
-1.72596
-1.7276
-1.72921
-1.73079
-1.73234
-1.73386
-1.73536
-1.73682
-1.73824
-1.34594
-1.34593
-1.3464
-1.34723
-1.34839
-1.34988
-1.35167
-1.35376
-1.35612
-1.35874
-1.36159
-1.36467
-1.36796
-1.37144
-1.3751
-1.37892
-1.3829
-1.38701
-1.39126
-1.39562
-1.40008
-1.40464
-1.40929
-1.41401
-1.41879
-1.42364
-1.42853
-1.43347
-1.43844
-1.44344
-1.44845
-1.45349
-1.45853
-1.46358
-1.46862
-1.47366
-1.47869
-1.48371
-1.4887
-1.49367
-1.49862
-1.50354
-1.50842
-1.51328
-1.51809
-1.52286
-1.5276
-1.53229
-1.53693
-1.54153
-1.54608
-1.55058
-1.55503
-1.55942
-1.56377
-1.56806
-1.5723
-1.57648
-1.58061
-1.58468
-1.5887
-1.59266
-1.59656
-1.60041
-1.60421
-1.60794
-1.61162
-1.61525
-1.61882
-1.62233
-1.62579
-1.6292
-1.63255
-1.63585
-1.63909
-1.64228
-1.64542
-1.6485
-1.65154
-1.65452
-1.65746
-1.66034
-1.66318
-1.66596
-1.6687
-1.67139
-1.67404
-1.67664
-1.67919
-1.6817
-1.68417
-1.68659
-1.68897
-1.69131
-1.6936
-1.69586
-1.69807
-1.70025
-1.70238
-1.70448
-1.70654
-1.70857
-1.71055
-1.71251
-1.71442
-1.71631
-1.71816
-1.71997
-1.72175
-1.7235
-1.72522
-1.72691
-1.72857
-1.7302
-1.7318
-1.73337
-1.73491
-1.73642
-1.73791
-1.73934
-1.34422
-1.34418
-1.34463
-1.34544
-1.34658
-1.34805
-1.34983
-1.35191
-1.35426
-1.35687
-1.35972
-1.36279
-1.36607
-1.36955
-1.37322
-1.37704
-1.38103
-1.38515
-1.38941
-1.39378
-1.39826
-1.40283
-1.40749
-1.41223
-1.41704
-1.4219
-1.42682
-1.43178
-1.43678
-1.4418
-1.44685
-1.45191
-1.45698
-1.46206
-1.46714
-1.47221
-1.47727
-1.48232
-1.48735
-1.49235
-1.49734
-1.50229
-1.50721
-1.5121
-1.51695
-1.52176
-1.52653
-1.53126
-1.53594
-1.54058
-1.54517
-1.5497
-1.55419
-1.55863
-1.56301
-1.56734
-1.57162
-1.57584
-1.58
-1.58411
-1.58817
-1.59217
-1.59611
-1.6
-1.60383
-1.6076
-1.61132
-1.61498
-1.61859
-1.62214
-1.62563
-1.62907
-1.63246
-1.63579
-1.63907
-1.64229
-1.64547
-1.64859
-1.65165
-1.65467
-1.65764
-1.66055
-1.66342
-1.66624
-1.66901
-1.67173
-1.67441
-1.67704
-1.67962
-1.68216
-1.68465
-1.6871
-1.68951
-1.69187
-1.6942
-1.69648
-1.69872
-1.70092
-1.70308
-1.70521
-1.70729
-1.70934
-1.71136
-1.71333
-1.71527
-1.71718
-1.71905
-1.72089
-1.72269
-1.72447
-1.72621
-1.72792
-1.7296
-1.73124
-1.73286
-1.73445
-1.73602
-1.73755
-1.73905
-1.74051
-1.34242
-1.34235
-1.34277
-1.34355
-1.34468
-1.34613
-1.3479
-1.34996
-1.3523
-1.3549
-1.35774
-1.36081
-1.3641
-1.36758
-1.37124
-1.37507
-1.37906
-1.3832
-1.38746
-1.39185
-1.39634
-1.40093
-1.40561
-1.41037
-1.4152
-1.42008
-1.42502
-1.43001
-1.43503
-1.44008
-1.44516
-1.45025
-1.45535
-1.46046
-1.46557
-1.47068
-1.47577
-1.48086
-1.48592
-1.49097
-1.49598
-1.50098
-1.50594
-1.51086
-1.51575
-1.5206
-1.52541
-1.53018
-1.5349
-1.53958
-1.5442
-1.54878
-1.55331
-1.55779
-1.56221
-1.56658
-1.5709
-1.57516
-1.57937
-1.58352
-1.58761
-1.59165
-1.59563
-1.59956
-1.60343
-1.60724
-1.611
-1.6147
-1.61834
-1.62193
-1.62547
-1.62894
-1.63237
-1.63573
-1.63905
-1.64231
-1.64552
-1.64867
-1.65178
-1.65483
-1.65783
-1.66078
-1.66368
-1.66653
-1.66933
-1.67209
-1.67479
-1.67745
-1.68007
-1.68264
-1.68516
-1.68764
-1.69008
-1.69247
-1.69482
-1.69713
-1.6994
-1.70163
-1.70382
-1.70597
-1.70809
-1.71016
-1.7122
-1.7142
-1.71617
-1.7181
-1.71999
-1.72185
-1.72368
-1.72548
-1.72724
-1.72897
-1.73068
-1.73235
-1.73399
-1.7356
-1.73718
-1.73874
-1.74026
-1.74173
-1.34053
-1.34043
-1.34083
-1.34159
-1.34269
-1.34412
-1.34587
-1.34792
-1.35025
-1.35284
-1.35568
-1.35874
-1.36202
-1.36551
-1.36917
-1.37301
-1.37701
-1.38115
-1.38543
-1.38982
-1.39433
-1.39894
-1.40364
-1.40842
-1.41327
-1.41818
-1.42314
-1.42815
-1.4332
-1.43828
-1.44339
-1.44851
-1.45365
-1.45879
-1.46393
-1.46907
-1.47421
-1.47933
-1.48443
-1.48951
-1.49457
-1.4996
-1.5046
-1.50956
-1.51449
-1.51939
-1.52424
-1.52905
-1.53381
-1.53853
-1.5432
-1.54782
-1.55239
-1.55691
-1.56137
-1.56579
-1.57015
-1.57445
-1.5787
-1.58289
-1.58703
-1.59111
-1.59513
-1.5991
-1.60301
-1.60687
-1.61066
-1.6144
-1.61809
-1.62172
-1.62529
-1.62881
-1.63227
-1.63567
-1.63903
-1.64233
-1.64557
-1.64876
-1.6519
-1.65499
-1.65803
-1.66101
-1.66395
-1.66683
-1.66967
-1.67246
-1.6752
-1.67789
-1.68054
-1.68314
-1.6857
-1.68821
-1.69068
-1.6931
-1.69548
-1.69782
-1.70012
-1.70238
-1.7046
-1.70678
-1.70892
-1.71102
-1.71308
-1.71511
-1.7171
-1.71906
-1.72098
-1.72287
-1.72472
-1.72654
-1.72833
-1.73009
-1.73181
-1.7335
-1.73517
-1.7368
-1.73841
-1.73998
-1.74152
-1.74301
-1.33856
-1.33843
-1.3388
-1.33953
-1.34061
-1.34202
-1.34376
-1.34579
-1.34811
-1.35069
-1.35352
-1.35658
-1.35986
-1.36334
-1.36701
-1.37086
-1.37486
-1.37901
-1.3833
-1.38771
-1.39223
-1.39686
-1.40158
-1.40638
-1.41125
-1.41618
-1.42117
-1.42621
-1.43129
-1.4364
-1.44154
-1.44669
-1.45186
-1.45704
-1.46222
-1.4674
-1.47257
-1.47772
-1.48287
-1.48799
-1.49308
-1.49816
-1.5032
-1.50821
-1.51318
-1.51811
-1.52301
-1.52786
-1.53267
-1.53743
-1.54214
-1.54681
-1.55142
-1.55599
-1.5605
-1.56495
-1.56936
-1.57371
-1.578
-1.58224
-1.58642
-1.59054
-1.59461
-1.59862
-1.60257
-1.60647
-1.61031
-1.61409
-1.61782
-1.62149
-1.6251
-1.62866
-1.63216
-1.63561
-1.639
-1.64234
-1.64563
-1.64886
-1.65203
-1.65516
-1.65823
-1.66126
-1.66423
-1.66715
-1.67002
-1.67285
-1.67562
-1.67835
-1.68103
-1.68367
-1.68626
-1.6888
-1.6913
-1.69376
-1.69617
-1.69854
-1.70087
-1.70316
-1.70541
-1.70762
-1.70979
-1.71192
-1.71401
-1.71607
-1.71809
-1.72007
-1.72202
-1.72393
-1.72581
-1.72766
-1.72947
-1.73125
-1.733
-1.73472
-1.7364
-1.73806
-1.73969
-1.74129
-1.74285
-1.74436
-1.33651
-1.33635
-1.33668
-1.33739
-1.33844
-1.33984
-1.34156
-1.34357
-1.34588
-1.34845
-1.35127
-1.35433
-1.35761
-1.36109
-1.36476
-1.36861
-1.37262
-1.37678
-1.38108
-1.38551
-1.39005
-1.39469
-1.39943
-1.40425
-1.40914
-1.41411
-1.41912
-1.42419
-1.4293
-1.43444
-1.43961
-1.4448
-1.45
-1.45522
-1.46043
-1.46565
-1.47086
-1.47605
-1.48123
-1.4864
-1.49154
-1.49665
-1.50174
-1.50679
-1.51181
-1.51679
-1.52172
-1.52662
-1.53148
-1.53628
-1.54104
-1.54575
-1.55042
-1.55502
-1.55958
-1.56409
-1.56854
-1.57293
-1.57727
-1.58155
-1.58578
-1.58995
-1.59406
-1.59812
-1.60212
-1.60606
-1.60994
-1.61377
-1.61754
-1.62125
-1.62491
-1.62851
-1.63206
-1.63555
-1.63898
-1.64236
-1.64568
-1.64896
-1.65217
-1.65534
-1.65845
-1.66151
-1.66452
-1.66748
-1.67039
-1.67325
-1.67607
-1.67883
-1.68155
-1.68422
-1.68684
-1.68942
-1.69195
-1.69444
-1.69689
-1.69929
-1.70166
-1.70398
-1.70626
-1.70849
-1.71069
-1.71286
-1.71498
-1.71706
-1.71911
-1.72112
-1.7231
-1.72504
-1.72695
-1.72882
-1.73066
-1.73246
-1.73424
-1.73598
-1.73769
-1.73937
-1.74103
-1.74265
-1.74424
-1.74576
-1.33438
-1.33418
-1.33449
-1.33517
-1.3362
-1.33757
-1.33927
-1.34127
-1.34356
-1.34612
-1.34894
-1.35199
-1.35526
-1.35875
-1.36242
-1.36628
-1.37029
-1.37447
-1.37878
-1.38322
-1.38777
-1.39244
-1.39719
-1.40204
-1.40696
-1.41194
-1.41699
-1.42208
-1.42722
-1.4324
-1.4376
-1.44282
-1.44807
-1.45332
-1.45857
-1.46383
-1.46907
-1.47431
-1.47954
-1.48474
-1.48993
-1.49509
-1.50021
-1.50531
-1.51038
-1.5154
-1.52039
-1.52533
-1.53023
-1.53509
-1.5399
-1.54466
-1.54936
-1.55402
-1.55863
-1.56318
-1.56768
-1.57212
-1.57651
-1.58084
-1.58511
-1.58933
-1.59349
-1.59759
-1.60164
-1.60563
-1.60956
-1.61343
-1.61725
-1.62101
-1.62471
-1.62835
-1.63194
-1.63548
-1.63895
-1.64238
-1.64574
-1.64906
-1.65232
-1.65552
-1.65868
-1.66178
-1.66483
-1.66783
-1.67078
-1.67368
-1.67653
-1.67933
-1.68208
-1.68479
-1.68745
-1.69007
-1.69264
-1.69516
-1.69764
-1.70008
-1.70247
-1.70483
-1.70714
-1.70941
-1.71164
-1.71383
-1.71599
-1.7181
-1.72018
-1.72222
-1.72423
-1.7262
-1.72813
-1.73003
-1.7319
-1.73373
-1.73553
-1.7373
-1.73904
-1.74075
-1.74242
-1.74407
-1.74568
-1.74723
-1.33217
-1.33193
-1.33221
-1.33286
-1.33386
-1.33521
-1.33689
-1.33888
-1.34116
-1.34371
-1.34651
-1.34956
-1.35283
-1.35632
-1.35999
-1.36385
-1.36788
-1.37206
-1.37639
-1.38084
-1.38541
-1.39009
-1.39487
-1.39974
-1.40468
-1.4097
-1.41477
-1.4199
-1.42507
-1.43028
-1.43551
-1.44077
-1.44605
-1.45134
-1.45664
-1.46193
-1.46722
-1.4725
-1.47777
-1.48302
-1.48825
-1.49346
-1.49863
-1.50378
-1.50889
-1.51396
-1.519
-1.52399
-1.52894
-1.53385
-1.5387
-1.54351
-1.54827
-1.55298
-1.55764
-1.56224
-1.56679
-1.57128
-1.57572
-1.5801
-1.58442
-1.58869
-1.5929
-1.59705
-1.60114
-1.60518
-1.60916
-1.61308
-1.61694
-1.62075
-1.6245
-1.62819
-1.63183
-1.6354
-1.63893
-1.64239
-1.64581
-1.64916
-1.65247
-1.65572
-1.65891
-1.66206
-1.66515
-1.66819
-1.67118
-1.67412
-1.67701
-1.67985
-1.68264
-1.68539
-1.68809
-1.69074
-1.69334
-1.6959
-1.69842
-1.70089
-1.70332
-1.70571
-1.70806
-1.71036
-1.71263
-1.71485
-1.71704
-1.71918
-1.72129
-1.72336
-1.7254
-1.7274
-1.72936
-1.73129
-1.73319
-1.73505
-1.73688
-1.73867
-1.74044
-1.74217
-1.74387
-1.74555
-1.74718
-1.74875
-1.32988
-1.32961
-1.32985
-1.33047
-1.33145
-1.33278
-1.33443
-1.3364
-1.33867
-1.34121
-1.344
-1.34705
-1.35032
-1.3538
-1.35748
-1.36134
-1.36538
-1.36957
-1.37391
-1.37838
-1.38297
-1.38767
-1.39247
-1.39736
-1.40233
-1.40737
-1.41247
-1.41763
-1.42283
-1.42808
-1.43335
-1.43865
-1.44397
-1.44929
-1.45463
-1.45997
-1.4653
-1.47063
-1.47594
-1.48124
-1.48652
-1.49177
-1.49699
-1.50219
-1.50735
-1.51247
-1.51756
-1.5226
-1.5276
-1.53256
-1.53747
-1.54233
-1.54714
-1.5519
-1.55661
-1.56126
-1.56586
-1.5704
-1.57489
-1.57932
-1.5837
-1.58802
-1.59228
-1.59648
-1.60063
-1.60471
-1.60874
-1.61271
-1.61663
-1.62048
-1.62428
-1.62802
-1.6317
-1.63533
-1.6389
-1.64241
-1.64587
-1.64927
-1.65262
-1.65592
-1.65916
-1.66234
-1.66548
-1.66856
-1.67159
-1.67458
-1.67751
-1.68039
-1.68322
-1.68601
-1.68874
-1.69143
-1.69408
-1.69668
-1.69923
-1.70174
-1.70421
-1.70663
-1.70901
-1.71135
-1.71365
-1.71591
-1.71813
-1.72031
-1.72245
-1.72455
-1.72662
-1.72865
-1.73064
-1.7326
-1.73453
-1.73642
-1.73828
-1.7401
-1.74189
-1.74365
-1.74538
-1.74708
-1.74874
-1.75033
-1.32752
-1.32721
-1.32741
-1.32801
-1.32896
-1.33026
-1.33189
-1.33385
-1.33609
-1.33862
-1.34141
-1.34445
-1.34771
-1.3512
-1.35488
-1.35875
-1.36279
-1.36699
-1.37134
-1.37583
-1.38044
-1.38516
-1.38998
-1.3949
-1.39989
-1.40496
-1.4101
-1.41529
-1.42052
-1.4258
-1.43111
-1.43645
-1.4418
-1.44718
-1.45255
-1.45794
-1.46331
-1.46869
-1.47405
-1.47939
-1.48472
-1.49002
-1.49529
-1.50054
-1.50575
-1.51092
-1.51606
-1.52116
-1.52621
-1.53122
-1.53618
-1.5411
-1.54596
-1.55078
-1.55554
-1.56024
-1.5649
-1.5695
-1.57404
-1.57852
-1.58295
-1.58733
-1.59164
-1.59589
-1.60009
-1.60423
-1.60831
-1.61233
-1.6163
-1.6202
-1.62405
-1.62784
-1.63157
-1.63525
-1.63887
-1.64243
-1.64594
-1.64939
-1.65278
-1.65612
-1.65941
-1.66264
-1.66582
-1.66895
-1.67202
-1.67505
-1.67802
-1.68095
-1.68382
-1.68665
-1.68943
-1.69216
-1.69484
-1.69748
-1.70007
-1.70262
-1.70512
-1.70758
-1.71
-1.71238
-1.71471
-1.71701
-1.71926
-1.72147
-1.72365
-1.72578
-1.72788
-1.72995
-1.73197
-1.73396
-1.73592
-1.73784
-1.73973
-1.74158
-1.7434
-1.74519
-1.74695
-1.74868
-1.75036
-1.75198
-1.32508
-1.32473
-1.3249
-1.32546
-1.32638
-1.32766
-1.32927
-1.3312
-1.33344
-1.33595
-1.33873
-1.34176
-1.34503
-1.34851
-1.35219
-1.35607
-1.36012
-1.36433
-1.3687
-1.3732
-1.37782
-1.38256
-1.38741
-1.39235
-1.39737
-1.40247
-1.40764
-1.41286
-1.41813
-1.42345
-1.4288
-1.43417
-1.43957
-1.44498
-1.45041
-1.45583
-1.46126
-1.46668
-1.47209
-1.47748
-1.48285
-1.48821
-1.49353
-1.49883
-1.50409
-1.50932
-1.51451
-1.51966
-1.52477
-1.52984
-1.53485
-1.53982
-1.54474
-1.54961
-1.55443
-1.55919
-1.5639
-1.56856
-1.57315
-1.5777
-1.58218
-1.58661
-1.59098
-1.59529
-1.59954
-1.60373
-1.60786
-1.61194
-1.61596
-1.61992
-1.62382
-1.62766
-1.63144
-1.63517
-1.63884
-1.64245
-1.646
-1.6495
-1.65295
-1.65633
-1.65967
-1.66295
-1.66618
-1.66935
-1.67247
-1.67554
-1.67856
-1.68153
-1.68444
-1.68731
-1.69013
-1.69291
-1.69563
-1.69831
-1.70094
-1.70353
-1.70607
-1.70857
-1.71103
-1.71344
-1.71581
-1.71814
-1.72043
-1.72268
-1.72489
-1.72706
-1.72919
-1.73129
-1.73335
-1.73537
-1.73736
-1.73931
-1.74123
-1.74311
-1.74496
-1.74678
-1.74857
-1.75033
-1.75204
-1.75368
-1.32256
-1.32217
-1.32231
-1.32284
-1.32373
-1.32498
-1.32657
-1.32848
-1.3307
-1.3332
-1.33597
-1.33899
-1.34225
-1.34574
-1.34942
-1.3533
-1.35736
-1.36159
-1.36596
-1.37048
-1.37513
-1.37989
-1.38476
-1.38972
-1.39478
-1.39991
-1.4051
-1.41036
-1.41567
-1.42102
-1.42641
-1.43182
-1.43726
-1.44272
-1.44819
-1.45366
-1.45913
-1.4646
-1.47006
-1.47551
-1.48093
-1.48634
-1.49172
-1.49707
-1.50238
-1.50767
-1.51291
-1.51812
-1.52329
-1.52841
-1.53348
-1.53851
-1.54349
-1.54841
-1.55329
-1.55811