/*--------------------------------*- C++ -*----------------------------------*\
  =========                 |
  \\      /  F ield         | OpenFOAM: The Open Source CFD Toolbox
   \\    /   O peration     | Website:  https://openfoam.org
    \\  /    A nd           | Version:  8
     \\/     M anipulation  |
\*---------------------------------------------------------------------------*/
FoamFile
{
    version     2.0;
    format      ascii;
    class       volScalarField;
    location    "6";
    object      p;
}
// * * * * * * * * * * * * * * * * * * * * * * * * * * * * * * * * * * * * * //

dimensions      [0 2 -2 0 0 0 0];

internalField   nonuniform List<scalar> 
248760
(
0.0170206
0.0169883
0.0168387
0.0166238
0.0163361
0.015978
0.0155543
0.0150679
0.0145219
0.0139193
0.0132628
0.012555
0.0117986
0.0109961
0.0101498
0.00926203
0.00833501
0.00737091
0.00637182
0.00533978
0.00427676
0.00318469
0.00206544
0.000920822
-0.000247386
-0.00143746
-0.00264773
-0.00387657
-0.00512238
-0.00638362
-0.00765881
-0.00894649
-0.0102453
-0.0115537
-0.0128706
-0.0141946
-0.0155245
-0.0168591
-0.0181972
-0.0195378
-0.0208798
-0.0222222
-0.023564
-0.0249042
-0.026242
-0.0275765
-0.0289069
-0.0302324
-0.0315523
-0.0328659
-0.0341725
-0.0354715
-0.0367623
-0.0380444
-0.0393171
-0.0405801
-0.0418328
-0.0430749
-0.0443058
-0.0455253
-0.0467331
-0.0479286
-0.0491118
-0.0502823
-0.0514398
-0.0525842
-0.0537151
-0.0548325
-0.0559362
-0.057026
-0.0581018
-0.0591634
-0.0602108
-0.0612439
-0.0622626
-0.0632669
-0.0642567
-0.065232
-0.0661927
-0.0671389
-0.0680706
-0.0689877
-0.0698902
-0.0707783
-0.0716519
-0.0725111
-0.0733559
-0.0741863
-0.0750025
-0.0758045
-0.0765923
-0.077366
-0.0781257
-0.0788715
-0.0796035
-0.0803216
-0.0810261
-0.081717
-0.0823944
-0.0830583
-0.083709
-0.0843464
-0.0849706
-0.0855818
-0.0861801
-0.0867655
-0.0873381
-0.0878981
-0.0884455
-0.0889804
-0.0895029
-0.0900132
-0.0905112
-0.0909971
-0.0914709
-0.0919328
-0.0923821
-0.0928206
-0.0932592
-0.0936933
0.0170306
0.0169976
0.0168492
0.0166342
0.0163468
0.0159891
0.0155657
0.0150797
0.014534
0.0139317
0.0132755
0.0125682
0.0118121
0.01101
0.010164
0.00927661
0.00834996
0.00738622
0.00638749
0.0053558
0.00429314
0.00320141
0.0020825
0.000938212
-0.000229674
-0.00141944
-0.0026294
-0.00385794
-0.00510347
-0.00636445
-0.00763938
-0.00892681
-0.0102253
-0.0115336
-0.0128503
-0.0141741
-0.0155038
-0.0168382
-0.0181763
-0.0195167
-0.0208586
-0.0222009
-0.0235426
-0.0248827
-0.0262204
-0.0275549
-0.0288853
-0.0302108
-0.0315307
-0.0328443
-0.0341509
-0.03545
-0.0367408
-0.038023
-0.0392958
-0.0405588
-0.0418117
-0.0430538
-0.0442849
-0.0455045
-0.0467124
-0.0479081
-0.0490914
-0.050262
-0.0514197
-0.0525642
-0.0536954
-0.054813
-0.0559168
-0.0570068
-0.0580828
-0.0591446
-0.0601922
-0.0612255
-0.0622444
-0.0632489
-0.0642389
-0.0652144
-0.0661754
-0.0671218
-0.0680537
-0.068971
-0.0698738
-0.0707621
-0.0716359
-0.0724953
-0.0733403
-0.0741709
-0.0749873
-0.0757895
-0.0765775
-0.0773515
-0.0781114
-0.0788574
-0.0795895
-0.0803079
-0.0810126
-0.0817036
-0.0823812
-0.0830454
-0.0836962
-0.0843337
-0.0849581
-0.0855695
-0.0861679
-0.0867535
-0.0873262
-0.0878863
-0.0884338
-0.0889688
-0.0894913
-0.0900016
-0.0904996
-0.0909855
-0.0914594
-0.0919212
-0.0923704
-0.0928089
-0.0932478
-0.0936806
0.0170475
0.0170148
0.0168671
0.0166524
0.0163656
0.0160084
0.0155856
0.0151001
0.014555
0.0139533
0.0132978
0.012591
0.0118356
0.011034
0.0101887
0.00930192
0.00837589
0.00741277
0.00641466
0.00538359
0.00432153
0.00323039
0.00211206
0.000968344
-0.000198988
-0.00138822
-0.00259767
-0.00382571
-0.00507076
-0.00633128
-0.00760578
-0.00889281
-0.010191
-0.0114989
-0.0128152
-0.0141387
-0.0154682
-0.0168024
-0.0181401
-0.0194804
-0.0208221
-0.0221643
-0.0235058
-0.0248459
-0.0261836
-0.027518
-0.0288484
-0.0301739
-0.0314939
-0.0328076
-0.0341143
-0.0354135
-0.0367045
-0.0379868
-0.0392598
-0.040523
-0.0417761
-0.0430185
-0.0442498
-0.0454697
-0.0466779
-0.0478739
-0.0490575
-0.0502285
-0.0513865
-0.0525314
-0.0536629
-0.0547809
-0.0558851
-0.0569755
-0.0580518
-0.0591141
-0.0601621
-0.0611958
-0.0622152
-0.0632201
-0.0642105
-0.0651865
-0.0661479
-0.0670947
-0.068027
-0.0689448
-0.069848
-0.0707367
-0.071611
-0.0724708
-0.0733162
-0.0741473
-0.0749642
-0.0757668
-0.0765552
-0.0773296
-0.0780899
-0.0788363
-0.0795688
-0.0802876
-0.0809926
-0.0816841
-0.082362
-0.0830266
-0.0836777
-0.0843157
-0.0849404
-0.0855521
-0.0861508
-0.0867367
-0.0873097
-0.0878701
-0.0884179
-0.0889531
-0.0894759
-0.0899864
-0.0904847
-0.0909707
-0.0914448
-0.0919067
-0.092356
-0.0927946
-0.0932334
-0.0936663
0.0170725
0.0170405
0.0168935
0.0166795
0.0163935
0.0160371
0.015615
0.0151304
0.0145862
0.0139854
0.0133307
0.0126248
0.0118703
0.0110697
0.0102253
0.00933939
0.00841428
0.00745209
0.00645489
0.00542472
0.00436355
0.00327329
0.00215582
0.00101295
-0.000153569
-0.001342
-0.00255068
-0.00377799
-0.00502233
-0.00628218
-0.00755604
-0.00884246
-0.01014
-0.0114474
-0.0127633
-0.0140863
-0.0154153
-0.0167492
-0.0180866
-0.0194266
-0.0207681
-0.02211
-0.0234514
-0.0247913
-0.0261289
-0.0274633
-0.0287937
-0.0301192
-0.0314392
-0.032753
-0.0340599
-0.0353592
-0.0366504
-0.0379329
-0.0392062
-0.0404697
-0.0417231
-0.0429658
-0.0441976
-0.0454179
-0.0466264
-0.0478229
-0.049007
-0.0501784
-0.0513369
-0.0524823
-0.0536143
-0.0547328
-0.0558376
-0.0569285
-0.0580055
-0.0590683
-0.0601169
-0.0611512
-0.0621712
-0.0631767
-0.0641678
-0.0651443
-0.0661063
-0.0670538
-0.0679867
-0.0689051
-0.0698089
-0.0706983
-0.0715732
-0.0724336
-0.0732797
-0.0741114
-0.0749288
-0.075732
-0.0765211
-0.077296
-0.0780569
-0.0788039
-0.079537
-0.0802564
-0.080962
-0.081654
-0.0823325
-0.0829975
-0.0836492
-0.0842876
-0.0849129
-0.0855251
-0.0861243
-0.0867106
-0.0872841
-0.0878448
-0.088393
-0.0889286
-0.0894518
-0.0899626
-0.0904612
-0.0909475
-0.0914218
-0.0918839
-0.0923334
-0.0927722
-0.0932111
-0.0936441
0.0171056
0.0170745
0.0169284
0.0167154
0.0164304
0.016075
0.015654
0.0151705
0.0146274
0.0140276
0.0133741
0.0126694
0.0119161
0.0111167
0.0102735
0.00938885
0.00846495
0.00750396
0.00650796
0.00547898
0.00441898
0.00332988
0.00221354
0.00107177
-9.36693e-05
-0.00128106
-0.00248873
-0.00371507
-0.00495848
-0.00621744
-0.00749046
-0.00877609
-0.0100729
-0.0113796
-0.0126948
-0.0140173
-0.0153458
-0.0166791
-0.0180161
-0.0193557
-0.0206969
-0.0220385
-0.0233797
-0.0247195
-0.026057
-0.0273913
-0.0287216
-0.0300472
-0.0313674
-0.0326813
-0.0339883
-0.0352879
-0.0365794
-0.0378622
-0.0391358
-0.0403997
-0.0416535
-0.0428967
-0.0441289
-0.0453498
-0.0465589
-0.0477559
-0.0489406
-0.0501127
-0.0512719
-0.052418
-0.0535507
-0.0546699
-0.0557754
-0.0568671
-0.0579448
-0.0590085
-0.0600579
-0.061093
-0.0621138
-0.0631201
-0.064112
-0.0650894
-0.0660522
-0.0670005
-0.0679343
-0.0688535
-0.0697583
-0.0706485
-0.0715242
-0.0723855
-0.0732324
-0.0740649
-0.0748832
-0.0756872
-0.0764771
-0.0772529
-0.0780146
-0.0787624
-0.0794963
-0.0802164
-0.0809228
-0.0816156
-0.0822949
-0.0829606
-0.0836131
-0.0842522
-0.0848782
-0.0854911
-0.0860909
-0.0866779
-0.087252
-0.0878135
-0.0883622
-0.0888985
-0.0894222
-0.0899336
-0.0904327
-0.0909196
-0.0913945
-0.0918571
-0.0923071
-0.0927463
-0.0931857
-0.0936191
0.0171466
0.0171165
0.0169716
0.0167597
0.016476
0.0161218
0.0157021
0.0152199
0.0146782
0.0140799
0.0134278
0.0127246
0.0119727
0.0111748
0.0103331
0.00944994
0.00852754
0.00756804
0.00657353
0.00554601
0.00448746
0.00339978
0.00228484
0.00114443
-1.96843e-05
-0.00120579
-0.00241222
-0.00363736
-0.00487963
-0.0061375
-0.00740947
-0.00869412
-0.00999004
-0.0112959
-0.0126103
-0.013932
-0.0152598
-0.0165926
-0.0179291
-0.0192682
-0.0206089
-0.0219503
-0.0232912
-0.0246308
-0.0259681
-0.0273024
-0.0286327
-0.0299584
-0.0312786
-0.0325927
-0.0339
-0.0351998
-0.0364916
-0.0377748
-0.0390489
-0.0403133
-0.0415677
-0.0428114
-0.0440443
-0.0452658
-0.0464756
-0.0476734
-0.0488588
-0.0500317
-0.0511917
-0.0523386
-0.0534722
-0.0545923
-0.0556988
-0.0567914
-0.0578701
-0.0589347
-0.0599851
-0.0610212
-0.062043
-0.0630503
-0.0640432
-0.0650217
-0.0659855
-0.0669349
-0.0678697
-0.06879
-0.0696958
-0.070587
-0.0714638
-0.0723261
-0.0731741
-0.0740077
-0.074827
-0.075632
-0.0764229
-0.0771997
-0.0779624
-0.0787112
-0.0794461
-0.0801672
-0.0808746
-0.0815683
-0.0822485
-0.0829152
-0.0835685
-0.0842086
-0.0848354
-0.0854492
-0.0860499
-0.0866377
-0.0872127
-0.0877749
-0.0883245
-0.0888615
-0.089386
-0.0898981
-0.090398
-0.0908855
-0.091361
-0.0918243
-0.092275
-0.0927148
-0.0931548
-0.0935889
0.0171952
0.0171664
0.0170228
0.0168124
0.01653
0.0161774
0.0157592
0.0152787
0.0147386
0.0141419
0.0134915
0.01279
0.0120399
0.0112437
0.0104038
0.00952242
0.00860179
0.00764406
0.0066513
0.00562552
0.00456869
0.0034827
0.00236941
0.00123062
6.8081e-05
-0.0011165
-0.00232145
-0.00354517
-0.00478608
-0.00604265
-0.0073134
-0.00859688
-0.0098917
-0.0111965
-0.01251
-0.0138308
-0.0151579
-0.0164899
-0.0178258
-0.0191644
-0.0205046
-0.0218456
-0.0231862
-0.0245255
-0.0258627
-0.0271969
-0.0285272
-0.029853
-0.0311733
-0.0324876
-0.0337952
-0.0350954
-0.0363876
-0.0376713
-0.0389458
-0.0402109
-0.0414658
-0.0427103
-0.0439438
-0.0451661
-0.0463768
-0.0475754
-0.0487618
-0.0499356
-0.0510966
-0.0522445
-0.0533792
-0.0545004
-0.0556079
-0.0567016
-0.0577815
-0.0588472
-0.0598988
-0.0609361
-0.0619591
-0.0629677
-0.0639618
-0.0649415
-0.0659066
-0.0668572
-0.0677933
-0.0687148
-0.0696218
-0.0705144
-0.0713924
-0.072256
-0.0731052
-0.07394
-0.0747606
-0.0755669
-0.076359
-0.077137
-0.0779009
-0.0786509
-0.079387
-0.0801093
-0.0808178
-0.0815127
-0.082194
-0.0828619
-0.0835163
-0.0841575
-0.0847855
-0.0854003
-0.0860021
-0.0865909
-0.0871669
-0.0877302
-0.0882808
-0.0888188
-0.0893443
-0.0898574
-0.0903582
-0.0908467
-0.0913231
-0.0917874
-0.0922389
-0.0926796
-0.0931205
-0.0935555
0.0172513
0.017224
0.0170819
0.0168731
0.0165924
0.0162415
0.0158251
0.0153464
0.0148082
0.0142135
0.013565
0.0128655
0.0121174
0.0113232
0.0104854
0.00960603
0.00868745
0.00773176
0.00674102
0.00571725
0.0046624
0.00357836
0.00246698
0.00133006
0.000169341
-0.00101347
-0.00221672
-0.0034388
-0.00467814
-0.00593321
-0.00720253
-0.00848467
-0.00977823
-0.0110819
-0.0123942
-0.0137141
-0.0150402
-0.0163714
-0.0177066
-0.0190445
-0.0203843
-0.0217247
-0.023065
-0.0244041
-0.0257411
-0.0270751
-0.0284055
-0.0297313
-0.0310518
-0.0323663
-0.0336742
-0.0349748
-0.0362675
-0.0375517
-0.0388269
-0.0400926
-0.0413483
-0.0425935
-0.043828
-0.0450511
-0.0462627
-0.0474624
-0.0486498
-0.0498247
-0.0509869
-0.052136
-0.0532718
-0.0543943
-0.0555031
-0.0565981
-0.0576793
-0.0587463
-0.0597993
-0.060838
-0.0618624
-0.0628724
-0.063868
-0.0648491
-0.0658156
-0.0667677
-0.0677052
-0.0686282
-0.0695367
-0.0704307
-0.0713102
-0.0721752
-0.0730259
-0.0738622
-0.0746842
-0.0754919
-0.0762854
-0.0770649
-0.0778302
-0.0785816
-0.0793191
-0.0800428
-0.0807527
-0.0814489
-0.0821316
-0.0828007
-0.0834565
-0.084099
-0.0847282
-0.0853443
-0.0859474
-0.0865374
-0.0871147
-0.0876791
-0.0882309
-0.0887701
-0.0892967
-0.089811
-0.0903129
-0.0908026
-0.0912801
-0.0917454
-0.092198
-0.0926398
-0.0930817
-0.0935179
0.0173147
0.0172892
0.0171486
0.0169418
0.016663
0.016314
0.0158996
0.015423
0.0148869
0.0142943
0.0136481
0.0129508
0.012205
0.0114131
0.0105775
0.00970052
0.00878426
0.00783088
0.00684244
0.00582094
0.00476833
0.0036865
0.00257728
0.00144247
0.000283815
-0.000897001
-0.00209832
-0.00331854
-0.0045561
-0.00580947
-0.00707718
-0.0083578
-0.00964992
-0.0109522
-0.0122634
-0.0135821
-0.0149072
-0.0162374
-0.0175718
-0.018909
-0.0202481
-0.0215881
-0.0229279
-0.0242667
-0.0256035
-0.0269374
-0.0282678
-0.0295936
-0.0309143
-0.0322291
-0.0335374
-0.0348384
-0.0361316
-0.0374165
-0.0386923
-0.0399588
-0.0412153
-0.0424615
-0.0436969
-0.0449211
-0.0461338
-0.0473346
-0.0485232
-0.0496994
-0.0508628
-0.0520132
-0.0531505
-0.0542743
-0.0553846
-0.0564811
-0.0575637
-0.0586324
-0.0596869
-0.0607271
-0.0617531
-0.0627647
-0.0637619
-0.0647446
-0.0657129
-0.0666666
-0.0676058
-0.0685304
-0.0694406
-0.0703362
-0.0712174
-0.0720841
-0.0729364
-0.0737744
-0.074598
-0.0754074
-0.0762025
-0.0769836
-0.0777506
-0.0785036
-0.0792427
-0.0799679
-0.0806794
-0.0813772
-0.0820614
-0.0827321
-0.0833894
-0.0840334
-0.0846641
-0.0852816
-0.0858862
-0.0864777
-0.0870564
-0.0876223
-0.0881755
-0.088716
-0.0892441
-0.0897597
-0.090263
-0.0907539
-0.0912329
-0.0916994
-0.0921535
-0.0925964
-0.0930397
-0.093477
0.0173852
0.0173617
0.017223
0.0170182
0.0167414
0.0163946
0.0159825
0.0155081
0.0149744
0.0143843
0.0137405
0.0130457
0.0123024
0.0115131
0.0106801
0.00980567
0.00889199
0.00794118
0.00695529
0.00593632
0.00488621
0.00380684
0.00270004
0.00156759
0.000411223
-0.000767364
-0.00196653
-0.00318468
-0.00442024
-0.00567172
-0.00693763
-0.00821654
-0.00950707
-0.0108079
-0.0121176
-0.0134351
-0.014759
-0.0160883
-0.0174216
-0.0187581
-0.0200965
-0.0214358
-0.0227752
-0.0241136
-0.0254502
-0.0267841
-0.0281144
-0.0294403
-0.0307612
-0.0320763
-0.033385
-0.0346865
-0.0359803
-0.0372658
-0.0385425
-0.0398098
-0.0410672
-0.0423144
-0.0435509
-0.0447763
-0.0459902
-0.0471922
-0.0483822
-0.0495597
-0.0507246
-0.0518765
-0.0530153
-0.0541407
-0.0552526
-0.0563508
-0.0574351
-0.0585054
-0.0595617
-0.0606037
-0.0616315
-0.0626449
-0.0636439
-0.0646285
-0.0655985
-0.0665541
-0.0674951
-0.0684217
-0.0693337
-0.0702312
-0.0711142
-0.0719828
-0.072837
-0.0736768
-0.0745023
-0.0753135
-0.0761105
-0.0768934
-0.0776622
-0.078417
-0.0791579
-0.0798849
-0.0805981
-0.0812977
-0.0819836
-0.0826561
-0.0833151
-0.0839607
-0.0845931
-0.0852124
-0.0858185
-0.0864117
-0.0869919
-0.0875594
-0.0881142
-0.0886563
-0.0891859
-0.0897031
-0.0902078
-0.0907003
-0.0911806
-0.0916488
-0.0921041
-0.0925486
-0.0929931
-0.0934321
0.0174628
0.0174413
0.0173046
0.0171021
0.0168277
0.0164832
0.0160736
0.0156018
0.0150706
0.0144831
0.013842
0.01315
0.0124095
0.011623
0.0107928
0.00992123
0.00901039
0.00806241
0.00707933
0.00606315
0.00501579
0.00393913
0.00283498
0.00170513
0.000551297
-0.000624834
-0.00182163
-0.00303749
-0.00427086
-0.00552024
-0.00678416
-0.0080612
-0.00934997
-0.0106491
-0.0119573
-0.0132734
-0.0145961
-0.0159241
-0.0172565
-0.018592
-0.0199296
-0.0212684
-0.0226072
-0.0239453
-0.0252816
-0.0266153
-0.0279456
-0.0292716
-0.0305927
-0.0319082
-0.0332173
-0.0345193
-0.0358138
-0.0371
-0.0383775
-0.0396458
-0.0409043
-0.0421526
-0.0433902
-0.0446169
-0.0458321
-0.0470356
-0.048227
-0.0494061
-0.0505726
-0.0517261
-0.0528666
-0.0539938
-0.0551074
-0.0562074
-0.0572936
-0.0583658
-0.059424
-0.060468
-0.0614977
-0.0625131
-0.0635142
-0.0645007
-0.0654728
-0.0664305
-0.0673736
-0.0683021
-0.0692162
-0.0701158
-0.0710009
-0.0718715
-0.0727278
-0.0735696
-0.0743972
-0.0752105
-0.0760095
-0.0767944
-0.0775652
-0.0783221
-0.0790649
-0.0797939
-0.0805091
-0.0812107
-0.0818985
-0.0825729
-0.0832338
-0.0838814
-0.0845157
-0.0851368
-0.0857448
-0.0863398
-0.0869219
-0.0874912
-0.0880477
-0.0885917
-0.089123
-0.089642
-0.0901484
-0.0906427
-0.0911247
-0.0915946
-0.0920516
-0.0924979
-0.0929441
-0.0933848
0.0175472
0.017528
0.0173935
0.0171934
0.0169215
0.0165796
0.0161727
0.0157036
0.0151753
0.0145907
0.0139525
0.0132635
0.012526
0.0117426
0.0109155
0.010047
0.00913922
0.00819432
0.00721431
0.00620117
0.00515681
0.0040831
0.00298186
0.00185484
0.00070377
-0.000469679
-0.00166388
-0.00287724
-0.00410822
-0.00535531
-0.00661706
-0.00789204
-0.00917888
-0.0104762
-0.0117828
-0.0130973
-0.0144185
-0.0157453
-0.0170766
-0.0184111
-0.0197479
-0.0210859
-0.0224242
-0.0237618
-0.0250978
-0.0264314
-0.0277616
-0.0290878
-0.0304092
-0.0317249
-0.0330345
-0.0343371
-0.0356323
-0.0369194
-0.0381978
-0.0394671
-0.0407267
-0.0419762
-0.0432151
-0.0444431
-0.0456598
-0.0468649
-0.0480579
-0.0492387
-0.0504069
-0.0515622
-0.0527046
-0.0538336
-0.0549493
-0.0560513
-0.0571395
-0.0582138
-0.059274
-0.0603202
-0.061352
-0.0623696
-0.0633729
-0.0643617
-0.065336
-0.0662958
-0.0672412
-0.0681721
-0.0690884
-0.0699902
-0.0708776
-0.0717505
-0.072609
-0.0734532
-0.0742829
-0.0750985
-0.0758998
-0.0766869
-0.0774599
-0.078219
-0.078964
-0.0796952
-0.0804126
-0.0811162
-0.0818063
-0.0824827
-0.0831457
-0.0837954
-0.0844317
-0.0850549
-0.0856649
-0.0862619
-0.0868459
-0.0874172
-0.0879757
-0.0885215
-0.0890547
-0.0895755
-0.0900838
-0.0905799
-0.0910637
-0.0915353
-0.0919941
-0.092442
-0.0928899
-0.0933323
0.0176382
0.0176215
0.0174894
0.017292
0.0170227
0.0166837
0.0162796
0.0158135
0.0152882
0.0147067
0.0140718
0.0133859
0.0126518
0.0118716
0.0110478
0.0101827
0.00927826
0.00833669
0.00736
0.00635014
0.00530903
0.00423852
0.00314041
0.00201646
0.000868384
-0.00030216
-0.00149355
-0.0027042
-0.00393258
-0.0051772
-0.00643659
-0.00770934
-0.00899407
-0.0102895
-0.0115942
-0.012907
-0.0142268
-0.0155522
-0.0168822
-0.0182156
-0.0195515
-0.0208888
-0.0222264
-0.0235636
-0.0248992
-0.0262326
-0.0275628
-0.0288891
-0.0302107
-0.0315268
-0.0328369
-0.0341402
-0.0354361
-0.036724
-0.0380035
-0.0392738
-0.0405346
-0.0417854
-0.0430258
-0.0442553
-0.0454736
-0.0466803
-0.0478751
-0.0490577
-0.0502277
-0.0513851
-0.0525294
-0.0536605
-0.0547783
-0.0558824
-0.0569729
-0.0580494
-0.059112
-0.0601604
-0.0611946
-0.0622146
-0.0632202
-0.0642114
-0.0651882
-0.0661505
-0.0670983
-0.0680316
-0.0689504
-0.0698547
-0.0707445
-0.0716199
-0.0724809
-0.0733275
-0.0741597
-0.0749777
-0.0757814
-0.076571
-0.0773465
-0.0781079
-0.0788553
-0.0795889
-0.0803086
-0.0810146
-0.081707
-0.0823858
-0.0830511
-0.083703
-0.0843416
-0.084967
-0.0855793
-0.0861785
-0.0867648
-0.0873382
-0.0878989
-0.0884469
-0.0889823
-0.0895052
-0.0900157
-0.0905139
-0.0909998
-0.0914736
-0.0919344
-0.0923845
-0.0928343
-0.0932789
0.0177358
0.0177216
0.0175921
0.0173976
0.0171312
0.0167951
0.0163942
0.0159312
0.0154092
0.0148311
0.0141995
0.0135171
0.0127865
0.0120099
0.0111897
0.0103281
0.00942726
0.00848928
0.00751615
0.00650982
0.0054722
0.00440513
0.00331039
0.00218974
0.00104488
-0.000122534
-0.0013109
-0.00251864
-0.00374422
-0.00498616
-0.00624301
-0.00751335
-0.00879582
-0.0100891
-0.0113919
-0.0127029
-0.014021
-0.0153449
-0.0166736
-0.0180059
-0.0193407
-0.0206771
-0.0220141
-0.0233507
-0.024686
-0.0260192
-0.0273494
-0.0286758
-0.0299976
-0.0313141
-0.0326247
-0.0339287
-0.0352254
-0.0365143
-0.0377948
-0.0390663
-0.0403284
-0.0415806
-0.0428225
-0.0440536
-0.0452736
-0.0464821
-0.0476788
-0.0488633
-0.0500354
-0.0511948
-0.0523413
-0.0534747
-0.0545947
-0.0557012
-0.056794
-0.057873
-0.058938
-0.0599889
-0.0610257
-0.0620482
-0.0630564
-0.0640502
-0.0650296
-0.0659945
-0.066945
-0.0678809
-0.0688024
-0.0697094
-0.0706019
-0.0714799
-0.0723436
-0.0731928
-0.0740277
-0.0748483
-0.0756547
-0.0764469
-0.077225
-0.077989
-0.078739
-0.0794751
-0.0801974
-0.080906
-0.0816008
-0.0822821
-0.0829499
-0.0836043
-0.0842453
-0.0848732
-0.0854878
-0.0860894
-0.086678
-0.0872538
-0.0878167
-0.088367
-0.0889046
-0.0894298
-0.0899424
-0.0904429
-0.0909308
-0.0914067
-0.0918696
-0.0923216
-0.0927734
-0.09322
0.0178397
0.0178283
0.0177015
0.01751
0.0172467
0.0169138
0.0165162
0.0160566
0.0155381
0.0149635
0.0143356
0.0136569
0.01293
0.0121572
0.0113408
0.010483
0.00958601
0.00865185
0.00768253
0.00667997
0.00564608
0.00458268
0.00349156
0.00237444
0.00123302
6.89511e-05
-0.00111617
-0.00232079
-0.00354337
-0.00478245
-0.00603657
-0.00730433
-0.00858438
-0.00987538
-0.011176
-0.0124851
-0.0138014
-0.0151238
-0.016451
-0.017782
-0.0191158
-0.0204513
-0.0217875
-0.0231236
-0.0244585
-0.0257914
-0.0271215
-0.028448
-0.0297701
-0.0310871
-0.0323982
-0.0337029
-0.0350005
-0.0362903
-0.0375719
-0.0388447
-0.0401082
-0.0413619
-0.0426054
-0.0438382
-0.04506
-0.0462704
-0.0474691
-0.0486557
-0.04983
-0.0509917
-0.0521405
-0.0532762
-0.0543987
-0.0555077
-0.056603
-0.0576846
-0.0587523
-0.0598059
-0.0608454
-0.0618706
-0.0628816
-0.0638782
-0.0648604
-0.0658281
-0.0667814
-0.0677202
-0.0686446
-0.0695544
-0.0704498
-0.0713307
-0.0721972
-0.0730493
-0.0738871
-0.0747105
-0.0755197
-0.0763147
-0.0770956
-0.0778624
-0.0786152
-0.0793541
-0.0800792
-0.0807905
-0.081488
-0.082172
-0.0828424
-0.0834995
-0.0841431
-0.0847736
-0.0853908
-0.085995
-0.0865861
-0.0871645
-0.0877298
-0.0882827
-0.0888226
-0.0893504
-0.0898653
-0.0903682
-0.0908585
-0.0913369
-0.091802
-0.0922565
-0.0927105
-0.0931594
0.0179498
0.0179414
0.0178174
0.0176292
0.0173691
0.0170396
0.0166454
0.0161895
0.0156746
0.0151038
0.0144798
0.013805
0.0130821
0.0123133
0.0115009
0.0106472
0.00975429
0.00882419
0.00785891
0.00686037
0.00583044
0.00477095
0.00368366
0.00257031
0.00143256
0.000272048
-0.000909626
-0.00211091
-0.0033303
-0.00456632
-0.00581753
-0.00708254
-0.00835999
-0.00964856
-0.010947
-0.012254
-0.0135684
-0.014889
-0.0162147
-0.0175443
-0.0188769
-0.0202115
-0.0215469
-0.0228823
-0.0242168
-0.0255495
-0.0268795
-0.0282061
-0.0295284
-0.0308458
-0.0321575
-0.033463
-0.0347614
-0.0360524
-0.0373351
-0.0386093
-0.0398742
-0.0411295
-0.0423747
-0.0436094
-0.0448331
-0.0460455
-0.0472463
-0.0484352
-0.0496118
-0.0507758
-0.0519271
-0.0530654
-0.0541905
-0.0553021
-0.0564002
-0.0574845
-0.058555
-0.0596115
-0.0606538
-0.061682
-0.0626959
-0.0636955
-0.0646807
-0.0656515
-0.0666078
-0.0675497
-0.0684771
-0.06939
-0.0702884
-0.0711724
-0.0720419
-0.0728971
-0.0737379
-0.0745644
-0.0753767
-0.0761747
-0.0769586
-0.0777284
-0.0784842
-0.079226
-0.079954
-0.0806682
-0.0813687
-0.0820555
-0.0827289
-0.0833887
-0.0840352
-0.0846684
-0.0852884
-0.0858953
-0.0864892
-0.0870701
-0.0876383
-0.0881936
-0.0887364
-0.0892665
-0.0897842
-0.0902894
-0.0907824
-0.0912629
-0.0917309
-0.0921873
-0.0926442
-0.0930949
0.0180659
0.0180606
0.0179398
0.0177549
0.0174982
0.0171723
0.0167818
0.0163296
0.0158187
0.0152519
0.0146319
0.0139613
0.0132425
0.012478
0.0116699
0.0108205
0.00993187
0.00900607
0.00804507
0.00705077
0.00602505
0.0049697
0.00388648
0.00277711
0.00164325
0.000486519
-0.000691492
-0.00188925
-0.00310524
-0.00433801
-0.00558612
-0.0068482
-0.00812289
-0.00940888
-0.0107049
-0.0120097
-0.013322
-0.0146408
-0.0159648
-0.017293
-0.0186244
-0.0199579
-0.0212924
-0.0226272
-0.0239612
-0.0252936
-0.0266235
-0.0279501
-0.0292728
-0.0305906
-0.0319029
-0.0332091
-0.0345086
-0.0358006
-0.0370846
-0.0383601
-0.0396266
-0.0408836
-0.0421306
-0.0433672
-0.0445929
-0.0458075
-0.0470106
-0.0482018
-0.0493808
-0.0505474
-0.0517013
-0.0528423
-0.0539701
-0.0550846
-0.0561856
-0.0572729
-0.0583463
-0.0594058
-0.0604513
-0.0614826
-0.0624996
-0.0635024
-0.0644908
-0.0654648
-0.0664243
-0.0673694
-0.0683001
-0.0692162
-0.0701179
-0.0710052
-0.071878
-0.0727364
-0.0735805
-0.0744102
-0.0752257
-0.0760269
-0.076814
-0.077587
-0.078346
-0.079091
-0.0798221
-0.0805394
-0.0812429
-0.0819329
-0.0826092
-0.0832721
-0.0839215
-0.0845577
-0.0851806
-0.0857904
-0.0863872
-0.086971
-0.087542
-0.0881001
-0.0886456
-0.0891784
-0.0896988
-0.0902067
-0.0907023
-0.0911855
-0.0916558
-0.0921151
-0.0925742
-0.0930278
0.018188
0.0181859
0.0180683
0.017887
0.0176339
0.0173117
0.0169251
0.0164769
0.0159701
0.0154075
0.0147917
0.0141255
0.0134111
0.0126511
0.0118475
0.0110026
0.0101185
0.00919727
0.00824078
0.00725097
0.00622967
0.00517869
0.00409977
0.00299461
0.00186486
0.000712127
-0.000462011
-0.00165603
-0.00286842
-0.00409775
-0.00534259
-0.00660156
-0.00787332
-0.00915656
-0.01045
-0.0117524
-0.0130626
-0.0143794
-0.0157017
-0.0170284
-0.0183584
-0.0196907
-0.0210244
-0.0223584
-0.0236919
-0.0250239
-0.0263537
-0.0276804
-0.0290033
-0.0303216
-0.0316346
-0.0329416
-0.034242
-0.0355352
-0.0368205
-0.0380975
-0.0393656
-0.0406243
-0.0418732
-0.0431118
-0.0443398
-0.0455566
-0.0467621
-0.0479558
-0.0491374
-0.0503067
-0.0514633
-0.0526072
-0.0537379
-0.0548554
-0.0559594
-0.0570498
-0.0581264
-0.0591891
-0.0602378
-0.0612724
-0.0622928
-0.0632989
-0.0642907
-0.0652681
-0.0662311
-0.0671796
-0.0681137
-0.0690333
-0.0699385
-0.0708292
-0.0717055
-0.0725673
-0.0734148
-0.074248
-0.0750669
-0.0758716
-0.076662
-0.0774384
-0.0782007
-0.0789491
-0.0796835
-0.0804041
-0.081111
-0.0818041
-0.0824837
-0.0831498
-0.0838024
-0.0844417
-0.0850678
-0.0856807
-0.0862805
-0.0868674
-0.0874413
-0.0880025
-0.0885509
-0.0890867
-0.0896099
-0.0901208
-0.0906192
-0.0911052
-0.0915783
-0.0920403
-0.0925021
-0.0929585
0.0183158
0.0183171
0.0182028
0.0180253
0.017776
0.0174577
0.0170751
0.0166311
0.0161286
0.0155704
0.0149591
0.0142975
0.0135877
0.0128324
0.0120335
0.0111934
0.0103141
0.00939759
0.00844584
0.00746073
0.0064441
0.00539772
0.00432332
0.00322259
0.00209716
0.000948644
-0.000221411
-0.00141148
-0.00262009
-0.00384579
-0.00508717
-0.00634285
-0.00761152
-0.00889185
-0.0101826
-0.0114825
-0.0127904
-0.0141051
-0.0154256
-0.0167506
-0.0180791
-0.0194102
-0.0207429
-0.0220761
-0.023409
-0.0247407
-0.0260704
-0.0273972
-0.0287203
-0.0300391
-0.0313527
-0.0326605
-0.0339619
-0.0352563
-0.036543
-0.0378215
-0.0390913
-0.0403519
-0.0416028
-0.0428435
-0.0440737
-0.0452929
-0.0465009
-0.0476972
-0.0488815
-0.0500536
-0.0512132
-0.05236
-0.0534939
-0.0546145
-0.0557217
-0.0568154
-0.0578954
-0.0589615
-0.0600136
-0.0610517
-0.0620756
-0.0630853
-0.0640806
-0.0650616
-0.0660282
-0.0669804
-0.0679181
-0.0688414
-0.0697502
-0.0706446
-0.0715245
-0.07239
-0.0732412
-0.074078
-0.0749005
-0.0757088
-0.0765028
-0.0772828
-0.0780487
-0.0788005
-0.0795385
-0.0802626
-0.0809729
-0.0816695
-0.0823525
-0.0830219
-0.0836779
-0.0843206
-0.0849499
-0.0855661
-0.0861691
-0.0867592
-0.0873363
-0.0879006
-0.0884521
-0.0889909
-0.0895172
-0.090031
-0.0905324
-0.0910213
-0.0914974
-0.0919621
-0.0924268
-0.0928858
0.0184492
0.0184541
0.0183433
0.0181696
0.0179242
0.01761
0.0172318
0.0167921
0.0162941
0.0157404
0.0151339
0.014477
0.0137721
0.0130217
0.0122278
0.0113926
0.0105183
0.0096068
0.00866002
0.00767985
0.00666811
0.00562655
0.0045569
0.00346082
0.00233994
0.00119584
3.00799e-05
-0.00115585
-0.00236046
-0.00358234
-0.00482007
-0.0060723
-0.00733769
-0.00861496
-0.00990285
-0.0112001
-0.0125056
-0.0138181
-0.0151365
-0.0164598
-0.0177869
-0.0191167
-0.0204482
-0.0217806
-0.0231129
-0.0244442
-0.0257737
-0.0271005
-0.0284239
-0.0297431
-0.0310574
-0.0323661
-0.0336686
-0.0349642
-0.0362523
-0.0375324
-0.038804
-0.0400665
-0.0413194
-0.0425624
-0.0437949
-0.0450167
-0.0462272
-0.0474263
-0.0486135
-0.0497885
-0.0509512
-0.0521011
-0.0532382
-0.0543621
-0.0554728
-0.0565699
-0.0576534
-0.0587231
-0.0597788
-0.0608206
-0.0618482
-0.0628616
-0.0638607
-0.0648455
-0.0658159
-0.0667719
-0.0677134
-0.0686406
-0.0695532
-0.0704514
-0.0713352
-0.0722046
-0.0730596
-0.0739002
-0.0747266
-0.0755387
-0.0763365
-0.0771203
-0.0778899
-0.0786455
-0.0793871
-0.0801149
-0.0808289
-0.0815291
-0.0822157
-0.0828887
-0.0835483
-0.0841944
-0.0848272
-0.0854468
-0.0860533
-0.0866467
-0.0872272
-0.0877947
-0.0883496
-0.0888916
-0.0894211
-0.0899381
-0.0904426
-0.0909347
-0.0914138
-0.0918815
-0.0923492
-0.0928112
0.018588
0.0185966
0.0184895
0.0183199
0.0180786
0.0177687
0.0173948
0.0169597
0.0164663
0.0159175
0.0153158
0.0146639
0.0139641
0.0132188
0.0124301
0.0116001
0.010731
0.0098247
0.00888312
0.00790811
0.00690148
0.00586497
0.00480029
0.00370908
0.00259296
0.00145351
0.000292243
-0.000889331
-0.00208976
-0.00330762
-0.00454152
-0.00579011
-0.00705207
-0.00832611
-0.00961098
-0.0109055
-0.0122084
-0.0135186
-0.0148349
-0.0161563
-0.0174817
-0.0188101
-0.0201406
-0.021472
-0.0228036
-0.0241345
-0.0254638
-0.0267906
-0.0281142
-0.0294339
-0.0307489
-0.0320585
-0.033362
-0.0346589
-0.0359485
-0.0372303
-0.0385037
-0.0397681
-0.0410233
-0.0422685
-0.0435036
-0.0447279
-0.0459412
-0.0471431
-0.0483333
-0.0495115
-0.0506773
-0.0518306
-0.052971
-0.0540984
-0.0552126
-0.0563134
-0.0574005
-0.058474
-0.0595335
-0.0605791
-0.0616106
-0.0626279
-0.063631
-0.0646198
-0.0655942
-0.0665542
-0.0674998
-0.068431
-0.0693477
-0.07025
-0.0711378
-0.0720112
-0.0728703
-0.0737149
-0.0745453
-0.0753614
-0.0761633
-0.0769509
-0.0777245
-0.0784841
-0.0792296
-0.0799613
-0.0806791
-0.0813831
-0.0820735
-0.0827503
-0.0834135
-0.0840634
-0.0846999
-0.085323
-0.0859331
-0.0865301
-0.0871141
-0.0876851
-0.0882433
-0.0887888
-0.0893217
-0.0898419
-0.0903498
-0.090845
-0.0913273
-0.0917982
-0.092269
-0.092734
0.0187322
0.0187446
0.0186413
0.0184759
0.0182388
0.0179333
0.017564
0.0171337
0.0166452
0.0161013
0.0155048
0.014858
0.0141635
0.0134235
0.0126402
0.0118156
0.010952
0.0100511
0.00911493
0.00814531
0.00714401
0.00611277
0.00505328
0.00396716
0.00285602
0.00172141
0.000564859
-0.000612161
-0.0018082
-0.00302185
-0.00425173
-0.0054965
-0.00675485
-0.0080255
-0.00930721
-0.0105988
-0.011899
-0.0132067
-0.0145208
-0.0158402
-0.0171639
-0.0184909
-0.0198201
-0.0211506
-0.0224815
-0.0238118
-0.0251409
-0.0264677
-0.0277915
-0.0291117
-0.0304273
-0.0317378
-0.0330425
-0.0343406
-0.0356318
-0.0369153
-0.0381905
-0.0394571
-0.0407145
-0.0419622
-0.0431997
-0.0444268
-0.045643
-0.0468479
-0.0480412
-0.0492226
-0.0503918
-0.0515485
-0.0526925
-0.0538235
-0.0549414
-0.0560459
-0.057137
-0.0582143
-0.0592779
-0.0603275
-0.061363
-0.0623845
-0.0633917
-0.0643846
-0.0653633
-0.0663275
-0.0672773
-0.0682128
-0.0691337
-0.0700403
-0.0709324
-0.07181
-0.0726733
-0.0735222
-0.0743568
-0.0751771
-0.0759831
-0.076775
-0.0775527
-0.0783164
-0.079066
-0.0798018
-0.0805236
-0.0812317
-0.081926
-0.0826067
-0.0832739
-0.0839276
-0.0845679
-0.0851949
-0.0858087
-0.0864094
-0.0869971
-0.0875718
-0.0881336
-0.0886827
-0.089219
-0.0897428
-0.090254
-0.0907528
-0.0912384
-0.0917126
-0.0921866
-0.0926551
0.0188816
0.0188979
0.0187986
0.0186375
0.0184048
0.0181039
0.0177394
0.0173139
0.0168305
0.0162918
0.0157005
0.0150592
0.0143701
0.0136356
0.0128579
0.012039
0.011181
0.0102858
0.00935524
0.00839123
0.00739549
0.00636974
0.00531565
0.00423484
0.0031289
0.00199935
0.000847719
-0.000324543
-0.001516
-0.00272525
-0.00395092
-0.00519169
-0.00644626
-0.00771335
-0.00899173
-0.0102802
-0.0115776
-0.0128827
-0.0141945
-0.0155118
-0.0168337
-0.0181591
-0.0194869
-0.0208164
-0.0221465
-0.0234763
-0.0248051
-0.0261319
-0.0274559
-0.0287765
-0.0300928
-0.0314042
-0.03271
-0.0340096
-0.0353023
-0.0365875
-0.0378648
-0.0391335
-0.0403932
-0.0416434
-0.0428836
-0.0441135
-0.0453326