/*--------------------------------*- C++ -*----------------------------------*\
  =========                 |
  \\      /  F ield         | OpenFOAM: The Open Source CFD Toolbox
   \\    /   O peration     | Website:  https://openfoam.org
    \\  /    A nd           | Version:  8
     \\/     M anipulation  |
\*---------------------------------------------------------------------------*/
FoamFile
{
    version     2.0;
    format      ascii;
    class       volScalarField;
    location    "0.6";
    object      p;
}
// * * * * * * * * * * * * * * * * * * * * * * * * * * * * * * * * * * * * * //

dimensions      [0 2 -2 0 0 0 0];

internalField   nonuniform List<scalar> 
10000
(
-1.73938e+13
-1.73023e+13
-1.96548e+12
6.88365e+12
9.37013e+12
8.58227e+12
6.74241e+12
4.9079e+12
3.43405e+12
2.35453e+12
1.59937e+12
1.08185e+12
7.30711e+11
4.93012e+11
3.32355e+11
2.23692e+11
1.50285e+11
1.00701e+11
6.72861e+10
4.47961e+10
2.97083e+10
1.96054e+10
1.2865e+10
8.37827e+09
5.40454e+09
3.44151e+09
2.15571e+09
1.32193e+09
7.90547e+08
4.60207e+08
2.62231e+08
1.4837e+08
8.50233e+07
5.0086e+07
3.05202e+07
1.92506e+07
1.25794e+07
8.52034e+06
5.9742e+06
4.31744e+06
3.19716e+06
2.41101e+06
1.84235e+06
1.42105e+06
1.10379e+06
861936
676150
532516
421024
334123
266216
212987
171193
138302
112394
91960.5
75849.2
63146.6
53152.2
45306.3
39176.9
34416.3
30754.7
27973.6
25903
24405.4
23375.2
22726.1
22391.8
22306.2
22395.6
22528.7
22469.6
21736.2
19439.8
13900
2228.37
-20620.3
-62681.5
-137012
-262778
-468784
-793431
-1.28919e+06
-2.01798e+06
-3.05486e+06
-4.47488e+06
-6.35603e+06
-8.75751e+06
-1.17266e+07
-1.52749e+07
-1.94009e+07
-2.40749e+07
-2.92907e+07
-3.50458e+07
-4.12896e+07
-4.75239e+07
-5.15413e+07
-4.69094e+07
-2.34205e+07
-2.40571e+12
-5.64823e+12
-2.6326e+12
7.02228e+11
2.34772e+12
2.62924e+12
2.256e+12
1.71254e+12
1.21716e+12
8.35538e+11
5.63222e+11
3.76878e+11
2.51467e+11
1.67869e+11
1.12104e+11
7.49501e+10
5.00974e+10
3.34872e+10
2.23513e+10
1.49014e+10
9.90799e+09
6.57086e+09
4.33734e+09
2.84685e+09
1.85136e+09
1.18956e+09
7.5134e+08
4.64874e+08
2.80953e+08
1.66515e+08
9.79909e+07
5.84916e+07
3.60712e+07
2.31868e+07
1.55243e+07
1.07776e+07
7.71094e+06
5.65386e+06
4.22497e+06
3.20318e+06
2.45402e+06
1.89463e+06
1.47089e+06
1.147e+06
897607
704780
555057
438528
347539
276367
220537
176683
142151
114938
93455.7
76496.9
63101.3
52534.8
44210.2
37676.3
32570.8
28614.2
25582.3
23302.8
21640.6
20497.3
19804
19526.5
19659.8
20246.7
21358.9
23147.9
25766.5
29504.7
34520.6
41189.9
49338.3
59090.8
68993.9
77948.4
81264.2
74745.1
47623.1
-9524.28
-115595
-285330
-543950
-907027
-1.39902e+06
-2.02849e+06
-2.8111e+06
-3.74631e+06
-4.84299e+06
-6.1114e+06
-7.56724e+06
-9.19337e+06
-1.07244e+07
-1.12299e+07
-8.73427e+06
-3.29356e+06
3.54611e+10
-1.50665e+12
-1.22145e+12
-2.11486e+11
5.02392e+11
7.56671e+11
7.20834e+11
5.71536e+11
4.11439e+11
2.80277e+11
1.85282e+11
1.20635e+11
7.81614e+10
5.06501e+10
3.295e+10
2.15299e+10
1.41436e+10
9.33092e+09
6.18364e+09
4.1105e+09
2.74105e+09
1.83025e+09
1.22269e+09
8.14425e+08
5.39304e+08
3.53154e+08
2.27837e+08
1.44351e+08
9.00757e+07
5.59223e+07
3.52403e+07
2.29827e+07
1.56454e+07
1.10774e+07
8.10674e+06
6.09099e+06
4.66722e+06
3.6223e+06
2.83248e+06
2.22318e+06
1.74811e+06
1.37567e+06
1.08332e+06
853744
673579
532187
421239
334110
265642
211763
169321
135836
109393
88484.9
71945.1
58854.3
48498.9
40314.3
33861.1
28790.5
24830.9
21767
19432.6
17698.3
16468.9
15677.9
15288.6
15294.6
15726.1
16656.6
18215.9
20602.5
24105.3
29112.6
36146.4
45832.9
58958.8
76311.5
98787.4
126918
161126
200687
244397
288819
329914
360749
374798
363358
320497
239413
117489
-50006.3
-266680
-542641
-894546
-1.31294e+06
-1.68265e+06
-1.66764e+06
-882632
-1776.24
3.67576e+11
-2.35594e+11
-4.48668e+11
-2.18433e+11
4.51763e+10
1.83501e+11
2.08696e+11
1.76414e+11
1.2856e+11
8.57736e+10
5.40454e+10
3.28462e+10
1.95106e+10
1.14623e+10
6.71089e+09
3.9518e+09
2.35381e+09
1.43076e+09
8.91349e+08
5.73251e+08
3.80485e+08
2.60755e+08
1.82849e+08
1.30141e+08
9.27125e+07
6.55789e+07
4.57541e+07
3.16461e+07
2.19726e+07
1.56538e+07
1.16076e+07
8.93769e+06
7.03133e+06
5.58599e+06
4.46454e+06
3.58886e+06
2.89664e+06
2.34119e+06
1.88963e+06
1.52071e+06
1.21953e+06
974921
777440
618998
492469
391818
311925
248613
198457
158734
127256
102305
82511.4
66805.9
54338.9
44446
36599.8
30387.5
25481
21623.6
18612
16288
14528.2
13240
12356.2
11834.2
11655.6
11828.7
12393.4
13428
15060.7
17481.3
20959.9
25862.9
32672.3
42003.2
54599
71343.9
93171.2
121070
155798
197921
247235
303008
363174
425174
485161
539759
585173
619282
639838
645570
633663
598935
533531
438404
356130
388463
547775
393905
2.52533e+11
4.62051e+10
-1.34692e+11
-1.10508e+11
-2.24021e+10
4.03374e+10
6.21373e+10
5.74408e+10
4.27169e+10
2.76866e+10
1.61332e+10
8.48783e+09
3.94437e+09
1.47879e+09
2.71533e+08
-2.39406e+08
-3.93976e+08
-3.86405e+08
-3.17325e+08
-2.36305e+08
-1.63876e+08
-1.0704e+08
-6.58485e+07
-3.79928e+07
-2.02273e+07
-9.55495e+06
-3.42155e+06
7240.09
1.93392e+06
2.99614e+06
3.49075e+06
3.561e+06
3.34325e+06
2.97618e+06
2.56833e+06
2.17792e+06
1.82751e+06
1.52102e+06
1.25655e+06
1.03062e+06
839828
680545
549076
441581
354393
284083
227637
182448
146344
117528
94545.4
76218.5
61608.6
49962.2
40682.8
33293.1
27416.3
22751.5
19061.5
16157.7
13892
12148.4
10837.8
9893.55
9269.37
8937.99
8891.23
9142.96
9730.88
10725.2
12231.7
14408
17465.6
21695.9
27463.8
35239.8
45574.4
59116.6
76552.5
98568.7
125745
158414
196546
239514
286140
334517
382449
427453
467545
501062
527229
545340
554640
553466
538166
508952
481358
479970
459581
231862
1.26107e+11
5.58691e+10
-3.81803e+10
-4.67379e+10
-1.61738e+10
1.16868e+10
2.40765e+10
2.42297e+10
1.8716e+10
1.22318e+10
6.93617e+09
3.33854e+09
1.1989e+09
7.98532e+07
-4.121e+08
-5.58958e+08
-5.3792e+08
-4.50043e+08
-3.47457e+08
-2.53919e+08
-1.7784e+08
-1.2016e+08
-7.86071e+07
-4.98907e+07
-3.07351e+07
-1.83072e+07
-1.03859e+07
-5.36253e+06
-2.18122e+06
-201734
946149
1.51045e+06
1.69199e+06
1.65631e+06
1.51729e+06
1.34076e+06
1.15918e+06
987293
831017
692593
572338
469643
383182
311285
252071
203685
164369
132565
106912
86269.3
69681.8
56369.9
45695.1
37143.3
30298.2
24826.5
20460.1
16985.2
14230.8
12061.3
10369.3
9071.27
8102.85
7416.83
6981.22
6778.28
6805.68
7076.39
7623.74
8501.43
9794.2
11615.7
14127.5
17529.1
22086.9
28106.4
35968.8
46066.8
58841.1
74655.9
93822.4
116405
142240
170718
200873
231275
260298
286218
307593
323391
333175
336930
334882
327035
312636
291709
268463
247814
203418
76156.5
4.97048e+10
2.42707e+10
-1.38865e+10
-1.85653e+10
-5.30798e+09
7.9071e+09
1.43062e+10
1.46182e+10
1.17691e+10
8.14712e+09
5.0061e+09
2.73841e+09
1.29197e+09
4.61428e+08
3.53087e+07
-1.50215e+08
-2.05676e+08
-1.98305e+08
-1.66021e+08
-1.28207e+08
-9.37511e+07
-6.5776e+07
-4.46429e+07
-2.94606e+07
-1.89612e+07
-1.18808e+07
-7.16604e+06
-4.0286e+06
-1.94099e+06
-578192
258846
713518
910095
951324
909867
829552
734723
638022
545952
461639
386532
320999
264812
217300
177590
144695
117642
95513.6
77491
62857.4
51007
41428
33699.3
27472.4
22464.1
18443.1
15222.8
12652.2
10610.3
8999.98
7744.79
6784.6
6073.61
5578.41
5276.66
5157.15
5219.08
5474.5
5947.71
6680.91
7732.52
9187.4
11151.3
13766.5
17197.3
21650.3
27341.9
34518
43392.7
54157.8
66886.6
81527.4
97789.7
115146
132766
149590
164392
175962
183282
185692
183009
175519
163833
148679
130415
109262
86852.3
64509.1
35090.6
-6755.88
1.30701e+10
1.04278e+09
-9.81649e+09
-7.90751e+09
2.50526e+08
7.37583e+09
1.06761e+10
1.06264e+10
8.75954e+09
6.38706e+09
4.25132e+09
2.62376e+09
1.50979e+09
8.05842e+08
3.9065e+08
1.61526e+08
4.47044e+07
-8.62857e+06
-2.82268e+07
-3.14635e+07
-2.77436e+07
-2.19324e+07
-1.62372e+07
-1.15138e+07
-7.90424e+06
-5.26742e+06
-3.36924e+06
-2.00301e+06
-1.01977e+06
-329563
124332
390366
519796
561124
551243
514223
464403
410182
356289
305411
258950
217581
181451
150403
124059
101941
83521.4
68286.8
55749.9
45478.1
37089.5
30259.3
24710.7
20214.3
16578.3
13645.9
11287.9
9399.64
7895.97
6708.72
5783.43
5077.53
4558.53
4202.76
3994.89
3927.05
3999.89
4221.69
4611.42
5197.17
6021.95
7139.85
8625.3
10564
13066
16245.9
20238.2
25160.4
31126.4
38185.8
46332.8
55424.4
65192.2
75165.7
84718.8
93048.1
99293.7
102601
102293
97961.9
89586.5
77531
62489.1
45311.4
26667.4
7049.29
-12606
-30168.3
-42426
-38105.4
-2.1736e+09
-9.26218e+09
-8.65976e+09
-3.5898e+09
2.38169e+09
6.5923e+09
8.28626e+09
7.99734e+09
6.6475e+09
4.99704e+09
3.48932e+09
2.3008e+09
1.44781e+09
8.75276e+08
5.10163e+08
2.86959e+08
1.55396e+08
8.05225e+07
3.93773e+07
1.76633e+07
6.7377e+06
1.59807e+06
-586077
-1.33172e+06
-1.42524e+06
-1.24054e+06
-950635
-633045
-331315
-74335.9
119271
245248
313015
338572
336994
319314
292928
262563
231234
200775
172303
146423
123416
103316
86008.4
71275.4
58855.1
48462.7
39823.4
32677
26792
21962.6
18012.8
14791.7
12172.9
10050.3
8336.53
6959.26
5859.73
4990.17
4312.49
3796.65
3419.74
3165.21
3022.11
2985.36
3055.01
3237.65
3545.36
3998.63
4624.17
5459.81
6549.62
7950.82
9723.84
11940.4
14664.9
17961.6
21864.2
26378.5
31440.8
36916.4
42557.6
48009.5
52794.8
56351.9
58075
57396.2
53872
47271.4
37643.8
25338.1
10960.7
-4747.59
-21101
-37552.7
-53041.9
-64801.2
-65833
-43391.2
-6.88674e+09
-1.16749e+10
-7.29396e+09
-1.64112e+09
2.87906e+09
5.49302e+09
6.32751e+09
5.93663e+09
4.92711e+09
3.75797e+09
2.69275e+09
1.83922e+09
1.20975e+09
7.72002e+08
4.8063e+08
2.93109e+08
1.75632e+08
1.03606e+08
6.02536e+07
3.45513e+07
1.95215e+07
1.08297e+07
5.85856e+06
3.04541e+06
1.48301e+06
646034
234162
68573.2
38907.9
72959.3
124964
169578
197499
209088
208251
199066
184743
167662
149480
131348
114009
97942.1
83400.2
70493.9
59214.1
49484.6
41178.7
34151.4
28247.7
23318.8
19224.3
15838.4
13049.3
10760.5
8888.87
7364.41
6128.03
5130.9
4332.53
3700.07
3206.94
2832.24
2559.92
2378.26
2279.77
2260.53
2320.89
2464.6
2700.44
3040.72
3504.01
4112.33
4895.06
5883.51
7115.63
8626.33
10451.8
12613.5
15120.4
17946.3
21028.4
24241.7
27397.6
30228.3
32397.3
33513.4
33168
30987.2
26689.4
20149.2
11436.9
840.139
-11172.2
-24019.5
-37135.1
-49950.4
-61376.2
-68479.1
-64141.6
-38141.1
-7.26821e+09
-1.06062e+10
-5.6278e+09
-6.03746e+08
2.73959e+09
4.37245e+09
4.73336e+09
4.32386e+09
3.56169e+09
2.72891e+09
1.98094e+09
1.37918e+09
9.29277e+08
6.10037e+08
3.92224e+08
2.47983e+08
1.5466e+08
9.53692e+07
5.82379e+07
3.525e+07
2.11462e+07
1.25574e+07
7.35883e+06
4.23347e+06
2.37247e+06
1.2848e+06
670646
345176
190804
131578
118617
122705
128948
131741
130111
124739
116690
106962
96392.5
85615.8
75105.2
65179.3
56046
47810.7
40512.3
34132.1
28620.6
23904.5
19902.6
16529.4
13703.7
11348.4
9394.63
7780.78
6453.61
5366.89
4481.67
3764.95
3189.42
2732.52
2376.03
2105.43
1909.53
1780.23
1712.05
1702.4
1750.96
1860.5
2035.94
2285.81
2620.65
3055.16
3605.26
4290.81
5130.51
6144.56
7346.39
8744.16
10328.8
12073.2
13917.7
15767.2
17479.6
18865.7
19692.2
19693.1
18598.4
16162.4
12211.7
6675.26
-377.15
-8733.77
-18051.5
-27907.9
-37860.2
-47394.7
-55453.4
-59414.2
-53246
-30079.3
-6.11155e+09
-8.42085e+09
-4.06505e+09
-5.8222e+07
2.34776e+09
3.36636e+09
3.47825e+09
3.10107e+09
2.52665e+09
1.93291e+09
1.41015e+09
9.91527e+08
6.77038e+08
4.51615e+08
2.95623e+08
1.90597e+08
1.21367e+08
7.64947e+07
4.77892e+07
2.96182e+07
1.82112e+07
1.1099e+07
6.69102e+06
3.97561e+06
2.317e+06
1.31787e+06
730514
398739
222765
137778
102021
89607.4
86033.5
84416.9
82171
78646
73908.3
68269.6
62080.1
55669.6
49304.8
43194.6
37480.7
32254.4
27557.8
23401.2
19767.6
16625.3
13931.7
11640.8
9705.08
8079.37
6721.03
5591.94
4657.83
3889.08
3259.89
2748.53
2336.55
2008.75
1752.67
1558.35
1418.07
1326.1
1278.71
1273.75
1311.07
1391.9
1519.65
1698.94
1936.78
2241.01
2621.81
3089.02
3653.75
4324.14
5106.35
5998.46
6989.98
8054.19
9145.63
10193
11096
11724.2
11917.9
11501.5
10294.1
8139.45
4924.44
612.779
-4744.65
-10995.9
-17904.3
-25169.7
-32454
-39316.9
-44846.9
-46871.6
-40811.4
-22329.1
-4.62708e+09
-6.23615e+09
-2.81837e+09
1.91105e+08
1.88661e+09
2.52029e+09
2.51421e+09
2.19433e+09
1.76678e+09
1.34487e+09
9.8153e+08
6.93063e+08
4.76639e+08
3.2085e+08
2.12265e+08
1.38439e+08
8.92404e+07
5.69605e+07
3.60499e+07
2.26387e+07
1.41088e+07
8.71977e+06
5.33577e+06
3.2236e+06
1.91554e+06
1.11512e+06
634858
355546
200494
119896
81436.9
64743.8
57865.4
54624.9
52290
49825.4
46931.3
43601.3
39950.6
36125.5
32274.3
28519.4
24957.9
21654.1
18647.6
15954
13573.4
11492.7
9692.19
8146.83
6830.49
5716.28
4778.95
3994.67
3342.13
2802.19
2358.28
1995.98
1703.14
1469.52
1286.71
1147.93
1047.84
982.53
949.24
946.52
973.883
1032.17
1123.04
1249.54
1415.29
1625.32
1884.66
2199.31
2573.96
3012.86
3516.48
4081.6
4697.07
5342.48
5983.86
6570.89
7034.87
7286.42
7220.3
6717.76
5662.53
3949.76
1509.93
-1681.87
-5587.11
-10105.7
-15075.8
-20287.8
-25492.3
-30327
-34033.8
-34950.8
-29757.8
-15967.2
-3.30924e+09
-4.41446e+09
-1.90053e+09
2.66473e+08
1.44015e+09
1.83689e+09
1.78648e+09
1.53296e+09
1.22054e+09
9.23339e+08
6.72323e+08
4.75173e+08
3.27836e+08
2.21794e+08
1.47636e+08
9.69675e+07
6.29755e+07
4.05137e+07
2.58465e+07
1.6365e+07
1.02841e+07
6.41147e+06
3.95959e+06
2.4168e+06
1.45303e+06
857473
495664
281632
159873
94244.1
61211.9
45747.4
38793.1
35449.4
33397.4
31656.7
29847.4
27856.9
25689.1
23402.8
21071.4
18768.4
16553.6
14473.3
12556.5
10820.1
9268.53
7899.28
6703.04
5667.65
4778.36
4020.16
3377.78
2836.97
2384.31
2007.83
1696.8
1441.93
1235.17
1069.76
940.041
841.429
770.31
723.919
700.381
698.499
717.933
758.883
822.423
910.011
1023.97
1166.72
1341.37
1550.53
1796.86
2081.33
2403.48
2759.1
3139.69
3529.94
3906.01
4233.72
4466.09
4544.55
4397.78
3949.21
3119.94
1843.47
71.4547
-2210.18
-4978.77
-8166.87
-11667.3
-15334.9
-18981.7
-22322.7
-24773.7
-25091.1
-20983.1
-11098.4
-2.25823e+09
-3.03019e+09
-1.26495e+09
2.49157e+08
1.05225e+09
1.30407e+09
1.24697e+09
1.05647e+09
8.33445e+08
6.26586e+08
4.54748e+08
3.21072e+08
2.21741e+08
1.5037e+08
1.00445e+08
6.62463e+07
4.32272e+07
2.79466e+07
1.79225e+07
1.14079e+07
7.20872e+06
4.51975e+06
2.80851e+06
1.72573e+06
1.04549e+06
622304
363113
208101
118595
69345.5
43849.1
31471
25693.3
22893.6
21294.1
20098.7
18970.9
17779.6
16493.5
15127.8
13719.7
12310.2
10937.8
9632.32
8415.96
7301.63
6296.09
5399.88
4610.09
3920.56
3323.81
2811.19
2374.01
2003.57
1691.77
1431.03
1214.62
1036.5
891.489
775.095
683.581
613.868
563.488
530.572
513.741
512.18
525.452
553.674
597.233
657.061
734.204
830.179
946.334
1084.22
1244.65
1428
1632.9
1856.16
2091.29
2327.63
2549.1
2732.46
2847.15
2853.51
2705.72
2351.72
1741.09
827.799
-418.674
-2010.45
-3932.11
-6141.55
-8567.05
-11107.3
-13626.2
-15902.6
-17489.3
-17507.7
-14403.9
-7548.9
-1.49798e+09
-2.0295e+09
-8.32723e+08
1.97799e+08
7.39962e+08
9.02636e+08
8.54334e+08
7.17851e+08
5.62416e+08
4.20685e+08
3.04262e+08
2.14464e+08
1.48062e+08
1.00498e+08
6.72447e+07
4.44583e+07
2.90908e+07
1.88675e+07
1.21398e+07
7.75451e+06
4.91768e+06
3.0952e+06
1.93105e+06
1.19187e+06
725581
434215
254737
146638
83630.2
48542.5
30102.6
21000.6
16694.3
14617.1
13483.2
12704.4
12019.4
11318
10562
9752.03
8905.41
8046.79
7199.52
6384.13
5615.47
4904.11
4255.62
3672.47
3153.92
2697.62
2299.6
1955.32
1659.68
1407.67
1194.29
1014.95
865.348
741.704
640.63
559.228
495.025
445.969
410.41
387.042
374.937
373.436
382.235
401.231
430.66
470.87
522.518
586.228
662.823
752.842
856.725
974.17
1104.15
1244.1
1389.6
1533.46
1664.87
1768.86
1824.86
1807.57
1685.93
1426.67
995.071
361.654
-495.861
-1585.11
-2898.32
-4407.71
-6065.99
-7803.23
-9517.92
-11044.8
-12060.5
-11942.5
-9678.12
-5030.59
-9.59864e+08
-1.33073e+09
-5.45574e+08
1.40286e+08
5.02669e+08
6.09725e+08
5.74649e+08
4.80662e+08
3.75002e+08
2.7945e+08
2.01564e+08
1.41813e+08
9.78319e+07
6.64033e+07
4.4467e+07
2.94347e+07
1.92934e+07
1.25366e+07
8.0838e+06
5.17498e+06
3.28969e+06
2.07551e+06
1.29829e+06
803494
490591
294438
173178
99793.8
56781.9
32668.2
19908.7
13576.2
10585
9168.66
8432.7
7961.39
7568.05
7169.79
6736.11
6262.61
5759.01
5239.64
4720.06
4213.4
3730.49
3278.67
2862.92
2485.51
2147.15
1846.94
1583.18
1353.36
1154.76
984.391
839.342
716.758
614.026
528.721
458.71
402.105
357.299
322.937
297.905
281.334
272.547
271.102
276.696
289.251
308.776
335.485
369.608
411.534
461.546
519.969
586.808
661.833
744.126
831.981
922.399
1010.63
1089.77
1149.82
1177.78
1156.59
1066.53
884.843
589.322
159.171
-419.91
-1154.73
-2040.18
-3059.18
-4180.02
-5353.6
-6507.4
-7518.43
-8151.37
-7988.26
-6372.65
-3292.84
-6.02825e+08
-8.56329e+08
-3.54413e+08
9.25594e+07
3.31454e+08
4.02795e+08
3.7964e+08
3.1722e+08
2.47021e+08
1.83723e+08
1.3227e+08
9.2941e+07
6.40611e+07
4.34728e+07
2.91163e+07
1.92865e+07
1.26525e+07
8.23123e+06
5.31413e+06
3.40676e+06
2.1686e+06
1.37025e+06
858338
532012
325254
195410
114937
66106
37392.4
21252.6
12703.6
8479.35
6514.4
5617.98
5182.46
4926.12
4720.89
4510.16
4271.75
4002.44
3707.76
3397.45
3081.46
2769.08
2467.53
2182.44
1917.39
1674.67
1455.15
1258.89
1085.13
932.72
800.116
685.69
587.693
504.449
434.326
375.839
327.623
288.482
257.369
233.396
215.831
204.073
197.674
196.286
199.708
207.805
220.578
238.055
260.381
287.67
320.103
357.737
400.576
448.333
500.421
555.67
612.135
666.806
715.138
750.88
765.354
747.819
684.879
562.062
363.95
77.2037
-308.739
-798.233
-1389.05
-2069.81
-2819.4
-3603.89
-4370.08
-5029.22
-5417.99
-5250.76
-4121.39
-2114.6
-3.66543e+08
-5.40405e+08
-2.28496e+08
5.70317e+07
2.12724e+08
2.60605e+08
2.46631e+08
2.06431e+08
1.60829e+08
1.19568e+08
8.60318e+07
6.04072e+07
4.16194e+07
2.82357e+07
1.89136e+07
1.25315e+07
8.22573e+06
5.35454e+06
3.45968e+06
2.21951e+06
1.41399e+06
894024
560397
347474
212465
127567
74887.7
42869.2
24021.7
13426.7
7835.22
5103.43
3869.19
3340.42
3112.21
2996.26
2908.16
2810.41
2689.17
2542.47
2374.71
2192.43
2002.77
1811.96
1625.3
1446.64
1278.88
1123.75
982.28
854.752
741.034
640.563
552.602
476.213
410.43
354.237
306.669
266.796
233.779
206.852
185.347
168.689
156.388
148.053
143.363
142.088
144.051
149.162
157.362
168.666
183.092
200.717
221.571
245.701
273.029
303.39
336.36
371.205
406.697
440.894
470.978
492.825
501.02
488.34
446.328
365.069
234.735
45.8968
-208.193
-531.187
-921.511
-1372.1
-1868.64
-2387.27
-2890.5
-3314.38
-3544.02
-3395.22
-2615.65
-1333.42
-2.18956e+08
-3.35117e+08
-1.45404e+08
3.36342e+07
1.33564e+08
1.65638e+08
1.57787e+08
1.32613e+08
1.03551e+08
7.7084e+07
5.54891e+07
3.89712e+07
2.68502e+07
1.82184e+07
1.22047e+07
8.08906e+06
5.31128e+06
3.45903e+06
2.23579e+06
1.435e+06
914446
578318
362478
224692
137263
82264.8
48110.2
27342.5
15116.6
8259.27
4665.64
2943.15
2199.1
1912.06
1814.46
1783.16
1763.15
1730.83
1677.76
1603.67
1511.96
1407.66
1295.72
1180.71
1066.27
955.332
849.924
751.519
660.941
578.646
504.68
438.888
380.89
330.222
286.323
248.624
216.537
189.511
167.018
148.584
133.783
122.243
113.65
107.736
104.291
103.144
104.18
107.305
112.481
119.675
128.902
140.162
153.484
168.849
186.226
205.475
226.348
248.377
270.792
292.401
311.375
325.168
330.18
321.894
294.578
241.953
157.216
34.3632
-131.516
-342.679
-598.501
-894.151
-1219.97
-1559.51
-1885.78
-2153.84
-2286.21
-2160.57
-1630.21
-823.476
-1.26357e+08
-2.03528e+08
-9.11131e+07
1.90288e+07
8.23012e+07
1.03621e+08
9.96001e+07
8.41966e+07
6.60105e+07
4.92621e+07
3.55224e+07
2.49725e+07
1.72184e+07
1.16881e+07
7.83379e+06
5.19382e+06
3.4118e+06
2.22265e+06
1.43719e+06
922585
587995
371792
232946
144265
87996.3
52586.2
30596.3
17223
9358.3
4961.49
2679.83
1612.66
1179.95
1040.09
1017.73
1032.2
1048.24
1051
1035.9
1003.41
956.539
898.993
834.522
766.322
697.102
628.898
563.295
501.351
443.811
391.06
343.29
300.475
262.487
229.078
199.966
174.815
153.296
135.07
119.822
107.256
97.1059
89.1343
83.1355
78.9378
76.3951
75.3962
75.8482
77.6923
80.8791
85.3906
91.2077
98.3369
106.768
116.501
127.494
139.676
152.882
166.832
181.057
194.797
206.936
215.8
219.161
213.986
196.677
162.95
108.505
29.1454
-78.2087
-215.319
-381.64
-574.084
-786.038
-1005.99
-1215.18
-1382.01
-1453.41
-1353.32
-995.265
-497.61
-7.15197e+07
-1.21316e+08
-5.59122e+07
1.06982e+07
5.00947e+07
6.4065e+07
6.21775e+07
5.29371e+07
4.17126e+07
3.12466e+07
2.25893e+07
1.59112e+07
1.09847e+07
7.46457e+06
5.00666e+06
3.32182e+06
2.18317e+06
1.423e+06
920399
591001
376649
238111
149088
92231.1
56143.2
33437
19333.3
10759.3
5722.03
2917.49
1478.25
825.29
582.224
526.055
541.727
576.819
608.571
627.87
632.196
622.522
601.25
571.293
535.35
495.818
454.595
413.215
372.792
334.172
297.901
264.355
233.711
206.044
181.313
159.425
140.226
123.544
109.184
96.9539
86.661
78.127
71.185
65.6863
61.5
58.5121
56.6292
55.7711
55.8786
56.9011
58.8083
61.5731
65.1869
69.637
74.9245
81.0348
87.9526
95.6256
103.964
112.795
121.831
130.612
138.415
144.216
146.535
143.485
132.639
111.305
76.5349
25.6944
-43.3989
-131.782
-239.21
-363.51
-500.182
-641.322
-773.69
-875.519
-911.825
-833.374
-594.51
-292.763
-3.87994e+07
-7.05305e+07
-3.34009e+07
6.12807e+06
3.02695e+07
3.92535e+07
3.84857e+07
3.30169e+07
2.61738e+07
1.96945e+07
1.4288e+07
1.00894e+07
6.97965e+06
4.74987e+06
3.18992e+06
2.11841e+06
1.3935e+06
908846
588186
377787
240806
152194
95240.8
58846.4
35748.4
21211.1
12182.7
6693.76
3472.64
1685.81
779.435
381.545
248.859
235.759
266.823
307.575
343.31
368.253
381.162
383.003
375.759
361.58
342.511
320.253
296.22
271.487
246.9
223.06
200.415
179.247
159.743
141.982
125.991
111.734
99.1471
88.137
78.6015
70.4273
63.5041
57.7226
52.9823
49.19
46.2626
44.1281
42.7232
41.9973
41.906
42.4181
43.5056
45.1534
47.3464
50.0808
53.3481
57.1463
61.4595
66.2642
71.5033
77.0772
82.8115
88.4157
93.4511
97.2445
98.883
97.1055
90.3986
76.9419
54.8927
22.4418
-21.7451
-78.427
-147.341
-227.055
-314.473
-404.101
-486.854
-547.733
-563.296
-504.078
-345.531
-166.856
-2.04499e+07
-4.00494e+07
-1.92869e+07
3.79306e+06
1.83149e+07
2.39619e+07
2.36949e+07
2.04831e+07
1.63377e+07
1.23564e+07
8.99959e+06
6.3756e+06
4.42126e+06
3.01505e+06
2.02803e+06
1.34872e+06
888157
579853
375537
241357
153885
97265.2
60839.5
37556.9
22771.7
13465.4
7682.59
4166.26
2103.09
961.934
388.971
145.835
75.054
81.4558
115.244
153.694
187.112
211.837
227.192
234.066
233.946
228.467
219.093
207.084
193.432
178.938
164.193
149.659
135.656
122.422
110.099
98.7822
88.5049
79.2742
71.0631
63.8316
57.5231
52.0778
47.4305
43.5185
40.2803
37.6591
35.6034
34.0667
33.0096
32.397
32.2014
32.3985
32.9718
33.9064
35.1952
36.8302
38.8102
41.1294
43.784
46.757
50.0193
53.5104
57.124
60.6849
63.9094
66.386
67.5104
66.5024
62.3482
53.9154
39.957
19.3576
-8.80221
-44.9423
-88.9069
-139.67
-195.113
-251.491
-302.496
-337.974
-342.752
-298.279
-194.208
-91.0069
-1.00878e+07
-2.19641e+07
-1.06089e+07
2.60772e+06
1.11776e+07
1.4629e+07
1.45584e+07
1.26682e+07
1.01668e+07
7.72867e+06
5.6539e+06
4.0194e+06
2.79566e+06
1.91097e+06
1.28807e+06
858043
565910
369916
239847
154275
98431.1
62232.6
38927.8
24016.3
14543
8575.19
4864.55
2605.7
1279.56
546.811
181.684
31.2653
-6.31898
6.557
36.9104
69.5238
97.9157
119.634
134.317
142.636
145.717
144.728
140.745
134.654
127.181
118.884
110.202
101.458
92.9009
84.7009
76.9824
69.819
63.2568
57.3103
51.9792
47.2452
43.0836
39.4611
36.343
33.6924
31.4735
29.6522
28.1966
27.0782
26.2713
25.7543
25.5077
25.5172
25.7693
26.2562
26.97
27.9083
29.0673
30.447
32.043
33.8491
35.8471
38.0024
40.2512
42.4826
44.5244
46.1066
46.8582
46.2607
43.687
38.3791
29.5684
16.5025
-1.36476
-24.3229
-52.2096
-84.3289
-119.223
-154.308
-185.305
-205.331
-204.424
-171.999
-103.974
-46.5377
-4.65618e+06
-1.16e+07
-5.4502e+06
1.99689e+06
6.94552e+06
8.98808e+06
8.96161e+06
7.83653e+06
6.32154e+06
4.82946e+06
3.54799e+06
2.53185e+06
1.76648e+06
1.21083e+06
818005
546057
360770
236213
153362
98771.2
63077.3
39912.8
24976.5
15411.2
9326.91
5490.6
3101.58
1644.79
787.666
313.549
78.0959
-16.8061
-37.187
-24.047
0.583445
26.4301
49.0627
66.8108
79.4198
87.3874
91.5023
92.6083
91.4564
88.6851
84.7977
80.1984
75.1918
70.0177
64.8501
59.8225
55.025
50.5231
46.3541
42.541
39.0893
35.997
33.2524
30.8407
28.7427
26.9384
25.4072
24.129
23.0848
22.2569
21.6298
21.1891
20.9234
20.822
20.8777
21.0835
21.4361
21.9321
22.5714
23.3523
24.2749
25.3348
26.5232
27.8192
29.1841
30.551
31.8085
32.7923
33.2578
32.8865
31.2619
27.9176
22.3401
14.0736
2.75175
-11.7722
-29.3854
-49.5856
-71.3707
-92.991
-111.518
-122.36
-119.18
-95.5559
-51.6256
-21.239
-1.81683e+06
-5.75588e+06
-2.47475e+06
1.63594e+06
4.42344e+06
5.5817e+06
5.54739e+06
4.86126e+06
3.93701e+06
3.02013e+06
2.22782e+06
1.59546e+06
1.11684e+06
767677
519978
347879
230324
151076
98258.7
63375.3
40530.3
25675
16083.9
9931.69
6013.82
3539.29
1995.53
1051.52
494.212
184.784
30.8699
-30.5645
-42.3688
-31.5562
-12.8968
6.59142
23.8309
37.6237
47.7738
54.6061
58.6714
60.5487
60.7684
59.769
57.9086
55.4643
52.656
49.6489
46.5722
43.5196
40.5623
37.7482
35.1115
32.6713
30.439
28.4166
26.6021
24.9885
23.567
22.3268
21.2568
20.3453
19.5813
18.9544
18.4548
18.0743
17.805
17.641
17.5768
17.6091
17.7346
17.9526
18.262
18.6636
19.1566
19.7404
20.4093
21.1518
21.9446
22.7455
23.4872
24.0624
24.322
24.0559
23.0088
20.8716
17.3313
12.085
4.92086
-4.25633
-15.341
-27.9853
-41.4989
-54.6816
-65.5635
-71.0772
-67.1462
-50.3778
-22.1624
-7.44472
-490751
-2.6136e+06
-855211
1.37678e+06
2.90156e+06
3.52331e+06
3.46704e+06
3.03458e+06
2.46191e+06
1.89435e+06
1.40189e+06
1.00732e+06
707254
487558
331083
222049
147332
96844.4
63103.9
40776.4
26120.1
16573.9
10398.3
6431.24
3900.22
2298.86
1297.18
682.569
317.94
114.25
12.2547
-28.6063
-36.1549
-28.2297
-14.7839
-0.648936
12.0102
22.3256
30.1226
35.6054
39.1362
41.1114
41.8891
41.7746
41.0104
39.7919
38.2685
36.5589
34.7519
32.9171
31.1045
29.3523
27.6859
26.1233
24.6743
23.3447
22.1351
21.0441
20.0677
19.2009
18.4379
17.7723
17.1979
16.7088
16.2993
15.9642
15.6992
15.5002
15.3644
15.2892
15.2734
15.316
15.4174
15.5775
15.7973
16.0761
16.4115
16.7968
17.2178
17.6495
18.0488
18.351
18.4587
18.2441
17.5393
16.1553
13.8851
10.5468
6.00048
0.203703
-6.76694
-14.6604
-22.9995
-30.9728
-37.2466
-39.7992
-36.0839
-24.1781
-6.33513
-0.382823
98034
-977912
-27648.6
1.15857e+06
1.96149e+06
2.26696e+06
2.19481e+06
1.91081e+06
1.54935e+06
1.19374e+06
885514
637911
449130
310413
211337
142070
94484.7
62236.9
40639.4
26310.6
16887.3
10735.8
6749.68
4183.93
2544.24
1504.39
852.167
450.307
210.528
75.4955
7.1248
-20.6993
-26.0676
-20.7549
-11.4744
-1.55712
7.46228
14.9406
20.7229
24.9218
27.772
29.5331
30.4478
30.7194
30.5151
29.9656
29.1757
28.2253
27.1781
26.0818
24.9738
23.8808
22.8233
21.8149
20.8651
19.9792
19.16
18.4078
17.722
17.1002
16.5399
16.0378
15.5906
15.1952
14.8482
14.5468
14.2884
14.0708
13.8922
13.7513
13.6474
13.5802
13.5499
13.5572
13.6026
13.6864
13.8074
13.9619
14.1419
14.3319
14.5062
14.6234
14.6251
14.4282
13.9305
13.0081
11.5348
9.39033
6.49339
2.81737
-1.57463
-6.5072
-11.6512
-16.4504
-20.0107
-20.995
-17.801
-9.57278
1.59234
2.86593
290473
-195118
339159
960122
1.36199e+06
1.49013e+06
1.41091e+06
1.21699e+06
983248
757215
562196
405726
286236
198287
135298
91163.3
60758.3
40109.2
26243.4
17026.3
10950.4
6977.12
4397.09
2733.71
1668.4
991.392
565.409
301.84
143.58
53.6363
7.46587
-11.7927
-15.8831
-12.5744
-6.38564
0.380586
6.63951
11.9177
16.0799
19.182
21.3677
22.8057
23.6536
24.0478
24.0984
23.8948
23.5063
22.9888
22.3849
21.7288
21.046
20.3566
19.6751
19.0125
18.3762
17.7712
17.2006
16.6658
16.1672
15.7044
15.2763
14.8817
14.5188
14.1861
13.8819
13.6046
13.3529
13.1256
12.9217
12.7405
12.5819
12.4458
12.3325
12.2426
12.1769
12.1357
12.1188
12.1243
12.1477
12.18
12.2055
12.2001
12.1266
11.9355
11.5607
10.9268
9.95059
8.55858
6.69598
4.35061
1.56601
-1.53461
-4.72368
-7.6249
-9.63521
-9.87816
-7.36984
-1.71024
5.09152
4.03123
317719
144051
460962
780220
965962
999624
921979
784843
630156
483978
359159
259346
183220
127130
86914.4
58674.7
39186
25918.5
16993.4
11046.8
7120.15
4547
2873.53
1792.46
1098.94
657.141
378.412
205.248
100.665
40.6931
9.45491
-3.94102
-7.12833
-5.20925
-1.21267
3.28901
7.53278
11.1726
14.0947
16.3192
17.9317
19.0375
19.7389
20.1237
20.2654
20.2222
20.0413
19.7593
19.4061
19.0044
18.5725
18.1242
17.6705
17.2192
16.7764
16.346
15.9311
15.5332
15.1534
14.7919
14.4488
14.1235
13.8155
13.524
13.2484
12.9878
12.7417
12.5094
12.2905
12.0848
11.8923
11.713
11.5474
11.3961
11.2597
11.1387
11.0332
10.9426
10.8645
10.7938
10.7219
10.6342
10.5092
10.316
10.0154
9.55877
8.89523
7.97527
6.76473
5.25342
3.47121
1.50114
-0.502938
-2.28412
-3.43769
-3.38589
-1.5218
2.22209
6.23135
4.15104
272104
254031
456711
619919
694409
682730
612132
512902
408133
312006
231022
166734
117832
81847.2
56028.8
37886.1
25343.5
16793.2
11029.7
7184.08
4639.74
2970.12
1882.26
1178.54
726.228
437.607
255.07
141.326
72.3105
32.4431
11.4148
2.15656
-0.279028
0.770294
3.29767
6.23605
9.05938
11.5196
13.5265
15.0816
16.233
17.0456
17.5834
17.9031
18.052
18.0685
17.9834
17.8215
17.6024
17.342
17.0526
16.744
16.424
16.0984
15.7717
15.4472
15.1272
14.8136
14.5073
14.209
13.919
13.6374
13.3642
13.0991
12.842
12.5925
12.3504
12.1156
11.8878
11.6671
11.4536
11.2474
11.049
10.8589
10.6777
10.5058
10.3437
10.1913
10.0475
9.9099
9.77381
9.63142
9.47019
9.2728
9.01511
8.66849
8.19976
7.57781
6.77782
5.79167
4.6361
3.36413
2.0785
0.95003
0.24991
0.356165
1.63503
4.04628
6.22723
3.7938
211681
260024
398754
482205
502731
472669
412147
339309
267105
202854
149662
107814
76155.8
52908.4
36248.7
24536.3
16435.5
10905.5
7174.19
4680.42
3028.71
1943.09
1234.99
776.206
481.009
292.366
172.927
98.3852
53.0608
26.7741
12.7941
6.52529
4.7554
5.31922
6.90126
8.79697
10.6506
12.2901
13.646
14.7116
15.5126
16.0879
16.4772
16.7164
16.8359
16.8607
16.811
16.7031
16.5504
16.3634
16.1508
15.9193
15.6746
15.4207
15.1612
14.8985
14.6346
14.371
14.1086
13.8483
13.5905
13.3356
13.0837
12.8349
12.5892
12.3466
12.1072
11.8709
11.6377
11.4079
11.1813
10.9586
10.7397
10.5254
10.3159
10.112
9.91391
9.722
9.53598
9.35491
9.17666
8.9972
8.81027
8.60607
8.37158
8.08937
7.73988
7.30219
6.75934
6.10265
5.33932
4.50067
3.65093
2.90276
2.43529
2.4957
3.30173
4.72903
5.73175
3.28198
153877
223590
323469
367213
364163
330152
280532
226897
176469
132978
97617.4
70122.4
49454.4
34341.8
23529.6
15936.6
10683.3
7096.45
4673.72
3053.53
1979.09