/*--------------------------------*- C++ -*----------------------------------*\
  =========                 |
  \\      /  F ield         | OpenFOAM: The Open Source CFD Toolbox
   \\    /   O peration     | Website:  https://openfoam.org
    \\  /    A nd           | Version:  8
     \\/     M anipulation  |
\*---------------------------------------------------------------------------*/
FoamFile
{
    version     2.0;
    format      ascii;
    class       volVectorField;
    location    "0.6";
    object      U;
}
// * * * * * * * * * * * * * * * * * * * * * * * * * * * * * * * * * * * * * //

dimensions      [0 1 -1 0 0 0 0];

internalField   nonuniform List<vector> 
10000
(
(0.233798 0.724179 0)
(0.4821 0.339031 0)
(0.537402 -0.0671249 7.52667e-21)
(0.501646 -0.408919 -6.49765e-23)
(0.414907 -0.662739 -1.24574e-21)
(0.310119 -0.830423 0)
(0.208636 -0.928772 0)
(0.121875 -0.979448 0)
(0.0537762 -1.00242 0)
(0.00359352 -1.01283 0)
(-0.0317265 -1.02043 0)
(-0.0558837 -1.03043 0)
(-0.0722807 -1.04489 0)
(-0.0836217 -1.06397 0)
(-0.0918522 -1.08687 0)
(-0.0982628 -1.11245 0)
(-0.103649 -1.13953 0)
(-0.108457 -1.16699 0)
(-0.112908 -1.19381 0)
(-0.117068 -1.21907 0)
(-0.120906 -1.2419 2.64469e-20)
(-0.124317 -1.26145 4.62355e-22)
(-0.127136 -1.27691 -2.7789e-20)
(-0.129147 -1.28749 0)
(-0.130082 -1.29243 0)
(-0.129625 -1.29104 9.7033e-21)
(-0.127401 -1.2826 1.41716e-22)
(-0.122951 -1.26643 -9.61275e-21)
(-0.115691 -1.24179 0)
(-0.104845 -1.20791 0)
(-0.0894016 -1.16405 0)
(-0.0681113 -1.10971 6.93561e-21)
(-0.0395926 -1.0448 6.47319e-23)
(-0.00250931 -0.9697 -5.02941e-21)
(0.0442529 -0.885079 0)
(0.101485 -0.791485 0)
(0.169477 -0.688758 0)
(0.247097 -0.575831 0)
(0.329383 -0.452741 -6.27624e-21)
(0.405552 -0.326272 -5.01216e-23)
(0.463475 -0.212564 4.83108e-21)
(0.49905 -0.126675 -3.88199e-21)
(0.517051 -0.0711729 -2.49017e-23)
(0.524418 -0.0390186 2.31445e-21)
(0.526274 -0.0215508 -1.77407e-21)
(0.525596 -0.01233 -1.10318e-23)
(0.523939 -0.00745767 1.05332e-21)
(0.522056 -0.0048104 0)
(0.520279 -0.00329693 0)
(0.518733 -0.00237308 0)
(0.517441 -0.0017697 0)
(0.516385 -0.00135189 0)
(0.51553 -0.00104961 -2.39212e-22)
(0.514841 -0.000824312 -1.89975e-22)
(0.514285 -0.000653187 -1.33476e-24)
(0.513837 -0.000521698 1.15961e-22)
(0.513472 -0.000419953 9.22882e-23)
(0.513173 -0.0003409 0)
(0.512927 -0.000279338 0)
(0.51272 -0.000231354 0)
(0.512546 -0.000193964 -3.48793e-23)
(0.512396 -0.000164866 -4.08918e-25)
(0.512265 -0.000142259 2.06351e-23)
(0.512149 -0.000124694 7.76957e-24)
(0.512043 -0.00011093 1.50203e-25)
(0.511945 -9.97702e-05 -4.04815e-24)
(0.511851 -8.98363e-05 2.68927e-24)
(0.511758 -7.92309e-05 1.12749e-25)
(0.511661 -6.49945e-05 -6.72442e-25)
(0.511556 -4.22384e-05 -6.15175e-27)
(0.511435 -2.75738e-06 3.653e-26)
(0.511289 6.71448e-05 1.18468e-25)
(0.511102 0.000190011 0)
(0.510856 0.000402257 0)
(0.51052 0.000761542 0)
(0.510056 0.00135712 0)
(0.509411 0.00232387 0)
(0.508512 0.00386 -2.07156e-22)
(0.50727 0.00624754 9.22633e-24)
(0.505569 0.00987199 6.34905e-22)
(0.50327 0.015234 0)
(0.500213 0.0229394 0)
(0.496222 0.0336488 0)
(0.491115 0.0479647 0)
(0.484735 0.0662462 0)
(0.476983 0.0883739 0)
(0.467863 0.11355 0)
(0.457517 0.140257 0)
(0.446217 0.16648 0)
(0.434302 0.190147 0)
(0.422072 0.209615 0)
(0.409714 0.223986 0)
(0.397288 0.233185 0)
(0.384804 0.237856 0)
(0.372367 0.23916 0)
(0.360341 0.238517 1.11755e-20)
(0.349561 0.236828 -3.17055e-22)
(0.341299 0.233858 4.06998e-22)
(0.336826 0.22838 0)
(0.337405 0.217652 0)
(0.510099 0.48172 0)
(0.598851 0.25946 0)
(0.645082 0.0258712 2.18417e-21)
(0.637233 -0.193745 -1.19693e-22)
(0.587085 -0.376084 -1.56197e-21)
(0.515001 -0.512073 0)
(0.438979 -0.604483 0)
(0.37096 -0.66265 0)
(0.316703 -0.69767 0)
(0.277334 -0.71934 0)
(0.251248 -0.734864 0)
(0.235686 -0.748762 0)
(0.227767 -0.763404 0)
(0.225009 -0.77969 0)
(0.225505 -0.797653 0)
(0.227891 -0.816883 0)
(0.231239 -0.836789 0)
(0.234932 -0.856728 0)
(0.238559 -0.876056 0)
(0.241844 -0.894147 0)
(0.244595 -0.910384 9.66659e-21)
(0.246688 -0.924156 1.01193e-21)
(0.248051 -0.934857 -1.01879e-20)
(0.248664 -0.941889 0)
(0.24856 -0.944665 0)
(0.247826 -0.942613 3.63129e-21)
(0.246605 -0.935165 3.12228e-22)
(0.245114 -0.921733 -3.66089e-21)
(0.243684 -0.90167 0)
(0.242833 -0.874273 0)
(0.243335 -0.838825 0)
(0.246254 -0.794738 2.67854e-21)
(0.252854 -0.741722 1.47239e-22)
(0.26441 -0.6799 -2.09558e-21)
(0.281972 -0.609806 0)
(0.306174 -0.532294 0)
(0.337072 -0.448515 0)
(0.373869 -0.36029 0)
(0.414209 -0.271276 -4.05868e-21)
(0.453467 -0.188334 -1.51941e-22)
(0.485938 -0.119984 3.6844e-21)
(0.508153 -0.0710385 -3.12862e-21)
(0.520562 -0.0400158 -8.20237e-23)
(0.525921 -0.0220163 1.99383e-21)
(0.527117 -0.012147 -1.55706e-21)
(0.526236 -0.00689259 -3.72961e-23)
(0.52452 -0.00410818 9.44641e-22)
(0.522626 -0.00260309 0)
(0.520853 -0.00175371 0)
(0.519315 -0.00124447 0)
(0.518032 -0.000918016 0)
(0.516983 -0.00069552 0)
(0.516134 -0.000536406 -2.1943e-22)
(0.51545 -0.000418731 -1.78715e-22)
(0.514898 -0.000329794 -4.59312e-24)
(0.514452 -0.000261671 1.04116e-22)
(0.514089 -0.000209069 8.51576e-23)
(0.513791 -0.000168259 0)
(0.513545 -0.000136515 0)
(0.513339 -0.000111802 0)
(0.513165 -9.25783e-05 -3.2205e-23)
(0.513015 -7.76631e-05 -1.43634e-24)
(0.512884 -6.61434e-05 1.88758e-23)
(0.512767 -5.72925e-05 7.00395e-24)
(0.512661 -5.04908e-05 5.35625e-25)
(0.512562 -4.51319e-05 -3.26336e-24)
(0.512467 -4.04873e-05 1.72505e-24)
(0.512372 -3.54996e-05 4.21918e-25)
(0.512273 -2.8447e-05 1.27978e-24)
(0.512164 -1.64053e-05 -3.0189e-24)
(0.512039 5.61201e-06 2.37282e-25)
(0.511886 4.59981e-05 7.8306e-24)
(0.511689 0.000118612 0)
(0.511427 0.000245851 0)
(0.511068 0.00046309 0)
(0.510569 0.00082488 0)
(0.509872 0.00141316 0)
(0.5089 0.00234746 6.9605e-23)
(0.507555 0.00379624 1.82296e-23)
(0.505721 0.00598722 -4.32028e-23)
(0.503262 0.00921216 0)
(0.500037 0.0138186 0)
(0.495916 0.0201787 0)
(0.490811 0.0286242 0)
(0.484701 0.039345 0)
(0.477656 0.0522659 0)
(0.469837 0.0669438 0)
(0.461459 0.082547 0)
(0.452722 0.0979659 0)
(0.443741 0.112039 0)
(0.434505 0.123811 0)
(0.424898 0.132723 0)
(0.414754 0.13869 0)
(0.403963 0.142067 0)
(0.3926 0.143545 0)
(0.381087 0.143968 3.08936e-21)
(0.370295 0.144001 -6.36534e-22)
(0.361395 0.143874 1.4395e-21)
(0.35546 0.143521 0)
(0.35196 0.143374 0)
(0.652489 0.417264 -8.63045e-22)
(0.690113 0.252146 -1.86162e-21)
(0.718153 0.0646294 -4.69146e-22)
(0.717869 -0.121417 7.46026e-22)
(0.688523 -0.285336 1.66005e-21)
(0.640237 -0.415836 4.67158e-21)
(0.585482 -0.511249 6.0043e-21)
(0.534287 -0.576507 6.91736e-21)
(0.492581 -0.619443 7.52688e-21)
(0.462515 -0.647934 0)
(0.44364 -0.668357 8.30019e-21)
(0.434137 -0.685123 8.61101e-21)
(0.43176 -0.700856 8.9145e-21)
(0.434393 -0.716841 9.22961e-21)
(0.440293 -0.733495 9.54938e-21)
(0.448129 -0.750731 0)
(0.456927 -0.768202 1.01988e-20)
(0.465979 -0.785446 1.05145e-20)
(0.474755 -0.801954 1.08077e-20)
(0.482843 -0.8172 1.10798e-20)
(0.489905 -0.830648 1.53736e-20)
(0.495658 -0.841758 -1.72561e-20)
(0.499864 -0.849981 7.36426e-21)
(0.502334 -0.854774 1.16769e-20)
(0.502927 -0.855594 1.16065e-20)
(0.501554 -0.851909 1.29679e-20)
(0.498183 -0.84318 1.06277e-20)
(0.492857 -0.828838 8.70451e-21)
(0.485726 -0.808247 9.50016e-21)
(0.477127 -0.780694 0)
(0.467657 -0.745448 7.47077e-21)
(0.458217 -0.701902 7.88133e-21)
(0.449956 -0.649769 -2.96051e-21)
(0.444111 -0.589229 4.33035e-21)
(0.441822 -0.520985 5.31797e-21)
(0.443965 -0.446262 0)
(0.45103 -0.366897 5.46062e-21)
(0.462937 -0.285749 5.72157e-21)
(0.478669 -0.207459 -3.75756e-21)
(0.495916 -0.138583 5.90391e-21)
(0.51146 -0.0851621 9.09805e-21)
(0.522679 -0.0488776 -3.43952e-21)
(0.528885 -0.0267673 3.65835e-21)
(0.531055 -0.0142817 5.09192e-21)
(0.530685 -0.00757602 -6.54377e-22)
(0.529038 -0.00408223 1.73064e-21)
(0.52694 -0.00228412 1.09793e-21)
(0.524841 -0.00135191 -1.02008e-21)
(0.522952 -0.000854212 3.87325e-22)
(0.52134 -0.000574483 -3.2654e-22)
(0.520006 -0.000406336 -2.58961e-22)
(0.518919 -0.000297833 1.93294e-22)
(0.518042 -0.000223328 -7.49068e-22)
(0.517335 -0.000169715 5.93238e-23)
(0.516765 -0.000129902 2.17197e-22)
(0.516303 -9.97508e-05 3.08149e-22)
(0.515928 -7.66456e-05 2.50093e-22)
(0.51562 -5.88183e-05 -3.92925e-24)
(0.515365 -4.50155e-05 -3.32281e-24)
(0.515152 -3.43219e-05 8.91321e-23)
(0.514972 -2.60621e-05 -4.1474e-23)
(0.514816 -1.97358e-05 6.84407e-23)
(0.514681 -1.49718e-05 8.39683e-23)
(0.514559 -1.14856e-05 6.41005e-23)
(0.514448 -9.03382e-06 4.99036e-23)
(0.514345 -7.34793e-06 4.48244e-23)
(0.514244 -6.03308e-06 4.63072e-23)
(0.514143 -4.3998e-06 -2.13703e-23)
(0.514038 -1.18826e-06 4.41256e-23)
(0.513921 5.88383e-06 3.09466e-23)
(0.513786 2.08389e-05 -1.74833e-23)
(0.51362 5.05708e-05 4.78058e-23)
(0.513408 0.000106553 2.66806e-23)
(0.513127 0.000207403 0)
(0.512746 0.000382516 1.02545e-23)
(0.51222 0.00067717 -4.50972e-24)
(0.511494 0.00115909 -2.91461e-23)
(0.510492 0.00192672 1.52567e-22)
(0.509123 0.00311791 -1.33468e-22)
(0.507277 0.00491803 -5.8012e-22)
(0.504837 0.00756277 -4.07725e-22)
(0.501683 0.0113315 -6.68038e-22)
(0.497721 0.0165215 -1.06849e-21)
(0.492903 0.0233981 -1.64056e-21)
(0.487252 0.0321155 0)
(0.480876 0.0426241 -3.48307e-21)
(0.473952 0.0545882 -4.77877e-21)
(0.466675 0.0673692 -6.26193e-21)
(0.459191 0.0801005 -7.87116e-21)
(0.451535 0.0918586 -9.47431e-21)
(0.443612 0.101863 0)
(0.435235 0.109637 -1.22984e-20)
(0.426194 0.115089 -1.33797e-20)
(0.416362 0.118498 -1.42186e-20)
(0.405815 0.120449 -1.48291e-20)
(0.394963 0.121674 -1.39901e-20)
(0.38461 0.12282 1.45481e-20)
(0.375825 0.124221 -1.26417e-20)
(0.369589 0.12592 -9.34819e-21)
(0.366052 0.128082 -4.38032e-21)
(0.743405 0.347951 -9.11495e-24)
(0.759829 0.230196 1.37698e-23)
(0.777063 0.0873597 1.39062e-23)
(0.778849 -0.0620648 3.19018e-36)
(0.760999 -0.200687 -7.67621e-22)
(0.728072 -0.317003 -2.41717e-35)
(0.688291 -0.406733 6.54895e-35)
(0.649498 -0.471449 -3.14676e-35)
(0.617091 -0.516045 -9.62149e-22)
(0.593634 -0.546388 -1.33345e-34)
(0.579438 -0.567758 1.32457e-21)
(0.573432 -0.58416 1.10493e-34)
(0.573941 -0.598224 -9.6186e-35)
(0.579219 -0.611439 -6.43704e-36)
(0.58772 -0.624482 -1.04475e-21)
(0.598193 -0.637511 -8.99327e-35)
(0.609665 -0.650391 8.26786e-22)
(0.621384 -0.662831 -1.01247e-34)
(0.632751 -0.674465 1.05227e-34)
(0.643272 -0.684893 -1.20086e-34)
(0.652518 -0.693695 -5.69639e-22)
(0.660108 -0.700446 -2.38735e-34)
(0.6657 -0.704711 5.6133e-22)
(0.668995 -0.706059 1.19824e-34)
(0.669742 -0.704061 1.26838e-34)
(0.667735 -0.698292 3.41932e-22)
(0.66283 -0.688319 5.18521e-35)
(0.654955 -0.673674 -4.08259e-22)
(0.644151 -0.653825 -9.00642e-22)
(0.630647 -0.628169 -1.30691e-34)
(0.614935 -0.596093 8.91728e-22)
(0.59782 -0.557123 -9.32952e-22)
(0.580374 -0.511116 -3.56552e-37)
(0.563806 -0.458407 1.23373e-21)
(0.549303 -0.399873 -1.47426e-21)
(0.537892 -0.336932 2.27096e-37)
(0.530326 -0.271588 2.17282e-21)
(0.52694 -0.206625 -2.75774e-21)
(0.527432 -0.14594 -3.22088e-21)
(0.530683 -0.0943344 3.7501e-21)
(0.534853 -0.0556457 -1.18276e-22)
(0.538031 -0.0302688 -3.41083e-21)
(0.539204 -0.015372 3.02293e-21)
(0.538479 -0.00730932 1.20814e-21)
(0.536517 -0.00320763 -1.95177e-21)
(0.534002 -0.00123344 -7.79975e-22)
(0.531416 -0.000338905 -1.20072e-21)
(0.529027 3.43747e-05 4.6047e-22)
(0.526951 0.000168596 3.64901e-22)
(0.52521 0.000199877 -5.97985e-22)
(0.52378 0.000190914 4.73963e-22)
(0.52262 0.000169114 -3.75836e-22)
(0.521684 0.000145631 -1.44167e-22)
(0.52093 0.000124474 3.58863e-22)
(0.520321 0.000106691 -1.23591e-35)
(0.519829 9.22011e-05 1.53919e-22)
(0.519428 8.057e-05 -3.89763e-24)
(0.519099 7.13017e-05 -9.95588e-23)
(0.518826 6.39401e-05 7.84718e-23)
(0.518599 5.80901e-05 -2.51016e-36)
(0.518405 5.34125e-05 -4.62961e-23)
(0.518239 4.96113e-05 3.65663e-23)
(0.518093 4.64247e-05 2.64466e-23)
(0.517963 4.3623e-05 8.82094e-24)
(0.517843 4.10212e-05 1.9545e-36)
(0.51773 3.85134e-05 -2.84527e-24)
(0.51762 3.61456e-05 -4.77327e-26)
(0.517509 3.42477e-05 2.86048e-37)
(0.51739 3.36631e-05 -1.38763e-23)
(0.517259 3.61261e-05 2.3142e-23)
(0.517105 4.48696e-05 -9.34138e-37)
(0.516917 6.55676e-05 -5.11774e-23)
(0.516677 0.000107765 7.27041e-23)
(0.516362 0.000186979 5.70764e-37)
(0.515941 0.000327681 -1.39934e-22)
(0.515369 0.000567373 -1.10519e-36)
(0.514592 0.000961852 -1.27267e-36)
(0.513537 0.00159155 3.33486e-22)
(0.512119 0.00256825 7.7905e-36)
(0.510239 0.00404081 -5.38326e-22)
(0.507793 0.0061969 -6.64303e-36)
(0.504682 0.00925669 -2.96868e-37)
(0.500834 0.0134528 -1.05257e-35)
(0.496224 0.0189912 9.50865e-22)
(0.490894 0.0259927 2.67529e-35)
(0.484959 0.0344219 -9.34157e-22)
(0.478589 0.0440283 -4.61346e-36)
(0.471958 0.0543298 -2.30073e-35)
(0.465184 0.0646686 -5.46905e-36)
(0.45828 0.0743342 3.0541e-22)
(0.451138 0.0827169 6.58014e-35)
(0.443568 0.0894358 2.69928e-23)
(0.435371 0.0944097 3.67897e-35)
(0.426432 0.097863 2.30379e-36)
(0.416837 0.100271 -5.24481e-35)
(0.406972 0.102238 -4.36801e-22)
(0.397571 0.104305 1.96746e-34)
(0.389599 0.10673 -3.48642e-22)
(0.383938 0.109447 2.29724e-35)
(0.380866 0.112299 -1.13704e-36)
(0.800098 0.292145 -1.77089e-22)
(0.807707 0.207616 2.36251e-22)
(0.819232 0.0986455 3.1571e-22)
(0.821845 -0.0208289 3.27906e-22)
(0.810748 -0.136599 -6.22202e-22)
(0.787634 -0.237982 -7.73541e-22)
(0.757862 -0.319537 -1.27626e-21)
(0.727432 -0.380702 -1.61539e-21)
(0.701044 -0.42419 -1.79029e-21)
(0.681375 -0.454173 0)
(0.669241 -0.474878 -1.81024e-21)
(0.664161 -0.489801 -1.74102e-21)
(0.664962 -0.501439 -1.65896e-21)
(0.67025 -0.511356 -1.58337e-21)
(0.678695 -0.520387 -1.5214e-21)
(0.689151 -0.52887 0)
(0.700684 -0.536834 -1.45617e-21)
(0.712537 -0.544135 -1.45423e-21)
(0.724091 -0.550538 -1.47072e-21)
(0.734815 -0.555764 -1.50784e-21)
(0.744245 -0.559513 -2.10544e-21)
(0.751959 -0.56148 2.45557e-21)
(0.757576 -0.561357 -1.04186e-21)
(0.760753 -0.558842 -1.82412e-21)
(0.761191 -0.553641 -1.92054e-21)
(0.758639 -0.545467 -2.20458e-21)
(0.752903 -0.534024 -1.99334e-21)
(0.743864 -0.518986 -1.93345e-21)
(0.731517 -0.499969 -2.08867e-21)
(0.716046 -0.47653 0)
(0.697889 -0.448233 -2.17356e-21)
(0.677787 -0.414787 -2.30188e-21)
(0.656728 -0.376219 1.28315e-21)
(0.635833 -0.333001 -3.18614e-21)
(0.616199 -0.28608 -3.34055e-21)
(0.59877 -0.236832 0)
(0.584245 -0.187017 -4.64637e-21)
(0.572997 -0.138818 -5.5208e-21)
(0.565002 -0.0949705 -2.75954e-21)
(0.559822 -0.0585953 -6.93976e-21)
(0.556576 -0.0320211 -3.12726e-21)
(0.554077 -0.0151824 -3.29896e-21)
(0.551402 -0.00581154 -5.06237e-21)
(0.548277 -0.00116215 -1.49665e-21)
(0.54488 0.000864067 -3.72731e-21)
(0.541511 0.00156505 -2.54005e-21)
(0.538399 0.00165638 1.37567e-21)
(0.535668 0.00150249 1.5222e-21)
(0.533355 0.00127568 -5.80847e-22)
(0.531438 0.00105006 4.91265e-22)
(0.529872 0.000852658 3.90351e-22)
(0.528605 0.000689554 -2.91542e-22)
(0.527582 0.000558492 3.7687e-22)
(0.526757 0.000454595 -6.86003e-22)
(0.526091 0.000372743 -3.26004e-22)
(0.52555 0.000308422 -8.61499e-23)
(0.52511 0.000257923 -7.59136e-23)
(0.524749 0.000218287 5.80697e-24)
(0.524449 0.000187184 4.87451e-24)
(0.524199 0.000162774 -1.29669e-22)
(0.523986 0.000143597 -5.07959e-23)
(0.523803 0.000128479 -9.78609e-23)
(0.523642 0.000116464 -5.65536e-23)
(0.523497 0.000106769 -6.83297e-23)
(0.523363 9.87599e-05 -7.05565e-23)
(0.523237 9.19629e-05 -7.11222e-23)
(0.523111 8.61139e-05 -6.71544e-23)
(0.522983 8.12701e-05 3.22203e-23)
(0.522845 7.80136e-05 -5.39476e-23)
(0.52269 7.77925e-05 -8.37557e-23)
(0.522508 8.34652e-05 3.57039e-23)
(0.522286 0.000100141 -4.40437e-23)
(0.522005 0.000136433 -9.26231e-23)
(0.52164 0.000206276 0)
(0.521159 0.00033146 -1.43426e-22)
(0.520519 0.000545041 -1.88195e-22)
(0.519665 0.000895634 -2.52077e-22)
(0.518529 0.00145249 7.7031e-23)
(0.517032 0.00231068 -4.62815e-22)
(0.515084 0.00359524 -1.28431e-21)
(0.512595 0.00546189 -8.27882e-22)
(0.509482 0.00809128 -1.07951e-21)
(0.505689 0.0116722 -1.37222e-21)
(0.501206 0.0163706 -1.69529e-21)
(0.496081 0.0222833 0)
(0.490424 0.0293837 -2.31973e-21)
(0.48439 0.0374754 -2.54766e-21)
(0.478139 0.0461794 -2.6768e-21)
(0.47178 0.0549763 -2.68535e-21)
(0.465327 0.0633006 -2.58144e-21)
(0.458696 0.0706609 0)
(0.45173 0.0767448 -2.10659e-21)
(0.444264 0.0814801 -1.77899e-21)
(0.436217 0.085044 -1.40402e-21)
(0.42768 0.087818 -9.85369e-22)
(0.419012 0.0902837 -3.52464e-22)
(0.410856 0.0928465 2.8041e-22)
(0.404029 0.0956437 -4.59159e-22)
(0.399239 0.0984952 -8.44142e-22)
(0.396648 0.101104 -9.1825e-22)
(0.836237 0.248669 0)
(0.840311 0.18675 0)
(0.849028 0.102903 -1.95989e-22)
(0.852329 0.00714599 4.58744e-36)
(0.845592 -0.0892794 -2.63039e-22)
(0.828988 -0.176965 0)
(0.805956 -0.250145 0)
(0.781058 -0.306941 0)
(0.758317 -0.348461 0)
(0.740376 -0.37748 0)
(0.728391 -0.397251 0)
(0.722353 -0.410724 0)
(0.721527 -0.42018 0)
(0.724859 -0.427168 0)
(0.731241 -0.432616 0)
(0.73966 -0.436991 0)
(0.74925 -0.44046 0)
(0.759286 -0.443006 0)
(0.769159 -0.444511 0)
(0.778347 -0.444811 0)
(0.786391 -0.44372 -8.6236e-22)
(0.792878 -0.441047 1.67506e-35)
(0.797436 -0.436609 1.06807e-21)
(0.799735 -0.430232 0)
(0.799486 -0.421762 0)
(0.796446 -0.411055 -3.73223e-22)
(0.790428 -0.397965 6.15662e-36)
(0.781314 -0.382324 3.54776e-22)
(0.769099 -0.363914 0)
(0.753948 -0.342472 0)
(0.73626 -0.31775 0)
(0.716695 -0.28964 -1.79258e-22)
(0.696119 -0.258312 1.32539e-35)
(0.675478 -0.224311 -9.89942e-23)
(0.655654 -0.188548 0)
(0.637345 -0.152208 0)
(0.621012 -0.116629 0)
(0.606872 -0.083258 0)
(0.594958 -0.053721 -2.74217e-21)
(0.585222 -0.0298059 -1.06595e-34)
(0.577475 -0.0128341 3.64126e-21)
(0.5712 -0.00262594 -3.53808e-21)
(0.565756 0.00246948 -6.39806e-35)
(0.560772 0.00443179 2.71111e-21)
(0.556176 0.00476203 -2.2564e-21)
(0.55203 0.00436779 2.82148e-35)
(0.5484 0.00372785 1.50441e-21)
(0.545304 0.0030675 0)
(0.542719 0.00247784 0)
(0.540592 0.00198496 0)
(0.538858 0.00158662 0)
(0.537454 0.00127022 0)
(0.536319 0.00102106 -4.07479e-22)
(0.535401 0.000825577 -3.26316e-22)
(0.534659 0.00067239 2.17379e-37)
(0.534055 0.000552348 2.08504e-22)
(0.533563 0.00045825 1.66185e-22)
(0.533158 0.000384479 0)
(0.532822 0.000326656 0)
(0.53254 0.000281361 0)
(0.532301 0.000245901 -6.33689e-23)
(0.532094 0.00021814 -4.91748e-37)
(0.531912 0.000196369 3.50629e-23)
(0.531747 0.000179216 1.18855e-23)
(0.531594 0.000165589 1.33353e-36)
(0.531447 0.000154671 -1.8602e-24)
(0.531301 0.000145946 -3.15883e-24)
(0.531149 0.000139314 9.86834e-38)
(0.530984 0.000135279 1.51e-23)
(0.530797 0.000135291 -2.29981e-23)
(0.530577 0.00014227 8.62854e-37)
(0.530308 0.000161401 4.59107e-23)
(0.529971 0.000201307 0)
(0.529539 0.000275701 0)
(0.528979 0.000405645 0)
(0.528248 0.000622508 0)
(0.527291 0.00097161 0)
(0.526046 0.00151636 4.82994e-22)
(0.524437 0.00234236 4.3726e-36)
(0.522385 0.00356029 -7.34397e-22)
(0.519811 0.00530592 0)
(0.516647 0.00773436 0)
(0.512852 0.0110056 0)
(0.508424 0.0152584 0)
(0.503416 0.0205724 0)
(0.497934 0.0269238 0)
(0.492123 0.034148 0)
(0.486132 0.0419293 0)
(0.48007 0.0498346 0)
(0.473969 0.0573905 0)
(0.467771 0.0641814 0)
(0.461362 0.0699373 0)
(0.454616 0.0745855 0)
(0.447479 0.0782586 0)
(0.440046 0.0812528 0)
(0.43263 0.0839361 2.56571e-22)
(0.425763 0.0865921 2.39674e-35)
(0.420088 0.0892624 -2.78983e-22)
(0.416111 0.0917312 0)
(0.413838 0.0937253 0)
(0.860915 0.216417 0)
(0.863923 0.169056 0)
(0.871318 0.102987 -1.25629e-22)
(0.875296 0.0251651 -1.41643e-36)
(0.871634 -0.0557891 -1.83002e-22)
(0.859646 -0.131924 0)
(0.841437 -0.197666 0)
(0.820432 -0.250406 0)
(0.800018 -0.290109 0)
(0.782707 -0.318424 0)
(0.769872 -0.337728 0)
(0.761874 -0.35042 0)
(0.758363 -0.35851 0)
(0.758604 -0.363472 0)
(0.761723 -0.366272 0)
(0.76686 -0.367472 0)
(0.773245 -0.367349 0)
(0.780211 -0.365996 0)
(0.787194 -0.363402 0)
(0.793707 -0.359506 0)
(0.799328 -0.354221 -6.18105e-22)
(0.803686 -0.347462 -2.15886e-35)
(0.806457 -0.339156 8.47659e-22)
(0.807359 -0.329247 0)
(0.806152 -0.317706 0)
(0.802643 -0.304525 -3.32215e-22)
(0.796685 -0.289702 5.09053e-36)
(0.788194 -0.27322 3.4696e-22)
(0.777181 -0.255027 0)
(0.763798 -0.235034 0)
(0.748393 -0.213168 0)
(0.731514 -0.189471 -2.40367e-22)
(0.713855 -0.164211 -2.8048e-36)
(0.69613 -0.137942 -1.98153e-25)
(0.678945 -0.111469 0)
(0.662693 -0.0857252 0)
(0.647546 -0.0616169 0)
(0.63351 -0.0399427 0)
(0.620574 -0.0214616 -2.52651e-21)
(0.608889 -0.00701226 -6.94011e-35)
(0.59873 0.00273548 3.56363e-21)
(0.590138 0.00795437 -3.54442e-21)
(0.582825 0.00978556 2.25649e-35)
(0.576477 0.00962961 2.81652e-21)
(0.570927 0.0085581 -2.3788e-21)
(0.56611 0.00720678 -6.43417e-36)
(0.561993 0.00589115 1.62585e-21)
(0.558528 0.00473916 0)
(0.555653 0.00378297 0)
(0.55329 0.00301187 0)
(0.551363 0.00239966 0)
(0.549798 0.00191748 0)
(0.548529 0.0015391 -4.62266e-22)
(0.547499 0.00124252 -3.72155e-22)
(0.546664 0.00101006 2.8577e-36)
(0.545983 0.000827784 2.39859e-22)
(0.545425 0.000684801 1.91816e-22)
(0.544965 0.000572651 0)
(0.544583 0.000484744 0)
(0.544262 0.000415938 0)
(0.543989 0.0003622 -7.33815e-23)
(0.543752 0.000320347 -4.43554e-37)
(0.543542 0.000287862 3.99532e-23)
(0.543352 0.000262754 1.31988e-23)
(0.543173 0.00024348 7.00628e-37)
(0.543 0.000228908 -9.53703e-25)
(0.542826 0.000218354 -5.25589e-24)
(0.542643 0.000211686 7.22629e-37)
(0.542443 0.000209535 1.99795e-23)
(0.542214 0.000213646 -2.95577e-23)
(0.541945 0.000227417 4.3634e-37)
(0.541617 0.000256707 5.66104e-23)
(0.54121 0.000310976 0)
(0.540696 0.000404865 0)
(0.540039 0.000560298 0)
(0.539197 0.000809144 0)
(0.538117 0.00119641 0)
(0.536738 0.00178371 5.29734e-22)
(0.534992 0.00265253 2.04642e-35)
(0.532808 0.00390622 -7.70856e-22)
(0.530119 0.00566932 0)
(0.526869 0.00808167 0)
(0.523032 0.0112852 0)
(0.518616 0.0154008 0)
(0.513677 0.0204952 0)
(0.508323 0.0265429 0)
(0.502693 0.0333941 0)
(0.496931 0.0407662 0)
(0.491149 0.048273 0)
(0.485393 0.0554915 0)
(0.479634 0.0620479 0)
(0.473787 0.0676922 0)
(0.467759 0.0723423 0)
(0.461513 0.076088 0)
(0.455133 0.0791523 0)
(0.448871 0.0818104 3.94977e-22)
(0.443142 0.0842577 -5.20048e-35)
(0.438416 0.0864928 -3.46461e-22)
(0.435035 0.0883368 0)
(0.432896 0.0896192 0)
(0.880394 0.193689 0)
(0.883542 0.154923 0)
(0.890343 0.100772 -4.03042e-23)
(0.894903 0.035934 8.79007e-37)
(0.893495 -0.0331591 -1.62227e-22)
(0.88497 -0.10002 0)
(0.870487 -0.159582 0)
(0.852545 -0.208937 0)
(0.833926 -0.247286 0)
(0.816933 -0.275393 0)
(0.803039 -0.294879 0)
(0.792873 -0.307609 0)
(0.78641 -0.315289 0)
(0.783209 -0.319269 0)
(0.782629 -0.320509 0)
(0.78398 -0.319629 0)
(0.786608 -0.316991 0)
(0.789931 -0.312782 0)
(0.793447 -0.307084 0)
(0.796729 -0.299923 0)
(0.799411 -0.291303 -1.44912e-22)
(0.801187 -0.281226 -3.42891e-35)
(0.801797 -0.269712 3.73458e-22)
(0.80103 -0.256805 0)
(0.798718 -0.242584 0)
(0.794734 -0.227154 -1.96154e-22)
(0.788991 -0.210641 8.54974e-37)
(0.781448 -0.193165 2.39586e-22)
(0.772135 -0.174818 0)
(0.761187 -0.155667 0)
(0.748878 -0.135784 0)
(0.73562 -0.115326 -2.2415e-22)
(0.721908 -0.0946115 1.35006e-35)
(0.70821 -0.0741584 4.20238e-23)
(0.694853 -0.054636 0)
(0.681948 -0.0367317 0)
(0.669406 -0.0209909 0)
(0.657038 -0.00772608 0)
(0.64475 0.00290181 -2.31e-21)
(0.632762 0.0106717 -4.98392e-35)
(0.621622 0.0153094 3.45218e-21)
(0.611786 0.0169428 -3.51292e-21)
(0.603308 0.0163489 -1.01693e-34)
(0.596013 0.014538 2.89408e-21)
(0.589732 0.0123029 -2.48071e-21)
(0.584354 0.0101064 5.18719e-36)
(0.579794 0.00815995 1.73873e-21)
(0.575971 0.00652743 0)
(0.572797 0.00519997 0)
(0.570184 0.00413933 0)
(0.568045 0.00330001 0)
(0.5663 0.00263906 0)
(0.564879 0.00211967 -5.20034e-22)
(0.563721 0.00171176 -4.21022e-22)
(0.562777 0.00139136 -1.81246e-36)
(0.562005 0.00113963 2.73888e-22)
(0.561371 0.000941841 2.19831e-22)
(0.560846 0.000786524 0)
(0.560409 0.000664721 0)
(0.56004 0.000569432 0)
(0.559725 0.000495173 -8.44471e-23)
(0.559451 0.000437636 -1.65e-36)
(0.559207 0.000393439 4.52866e-23)
(0.558984 0.000359952 1.45897e-23)
(0.558774 0.000335182 2.15219e-37)
(0.558568 0.000317733 1.29434e-25)
(0.558359 0.000306833 -7.62643e-24)
(0.558137 0.000302459 7.60903e-37)
(0.557892 0.000305561 2.52493e-23)
(0.557613 0.000318452 -3.65094e-23)
(0.557284 0.000345385 -7.07286e-37)
(0.556886 0.000393382 6.73759e-23)
(0.556397 0.000473396 0)
(0.555786 0.000601869 0)
(0.555018 0.000802726 0)
(0.55405 0.00110986 0)
(0.552831 0.00156998 0)
(0.551303 0.00224561 5.61634e-22)
(0.549405 0.00321768 -5.6163e-36)
(0.547074 0.0045869 -7.79773e-22)
(0.544254 0.00647233 0)
(0.540904 0.00900552 0)
(0.537008 0.0123176 0)
(0.532586 0.0165177 0)
(0.527703 0.0216628 0)
(0.522467 0.0277221 0)
(0.517016 0.0345484 0)
(0.511493 0.0418705 0)
(0.50601 0.0493208 0)
(0.500624 0.0564974 0)
(0.495321 0.0630431 0)
(0.490035 0.0687122 0)
(0.484691 0.0734079 0)
(0.479253 0.077182 0)
(0.473783 0.0801995 0)
(0.468467 0.0826702 5.55834e-22)
(0.463609 0.0847395 1.12669e-35)
(0.459541 0.086407 -3.11475e-22)
(0.456495 0.08757 0)
(0.454328 0.088178 0)
(0.898926 0.178716 0)
(0.902806 0.144209 0)
(0.909353 0.0974389 3.92205e-23)
(0.914316 0.0415353 -6.65176e-23)
(0.914525 -0.0188158 -1.65953e-22)
(0.908647 -0.0784807 0)
(0.897182 -0.133073 0)
(0.881879 -0.179692 0)
(0.864954 -0.217088 0)
(0.848432 -0.245377 0)
(0.833777 -0.26555 0)
(0.821789 -0.278981 0)
(0.812689 -0.287059 0)
(0.806293 -0.290975 0)
(0.802182 -0.291642 0)
(0.799839 -0.289705 0)
(0.79874 -0.285582 0)
(0.798403 -0.279538 0)
(0.798405 -0.271729 0)
(0.79839 -0.262258 0)
(0.798062 -0.251201 3.75108e-22)
(0.797184 -0.238634 1.17457e-21)
(0.795572 -0.224653 -1.61279e-22)
(0.79309 -0.209381 0)
(0.789647 -0.192982 0)
(0.785186 -0.175656 -3.15253e-23)
(0.779682 -0.157629 -7.11549e-22)
(0.773135 -0.139133 9.69876e-23)
(0.765591 -0.120383 0)
(0.757153 -0.10157 4.36348e-22)
(0.748013 -0.0828792 0)
(0.738439 -0.0645445 -1.68644e-22)
(0.728727 -0.0469006 -4.30755e-22)
(0.71912 -0.0304054 4.92078e-23)
(0.709706 -0.0155904 0)
(0.700372 -0.0029371 -4.4802e-21)
(0.690832 0.00727552 0)
(0.68075 0.0150572 0)
(0.669938 0.0206157 -2.32098e-21)
(0.658599 0.0240879 8.30478e-21)
(0.647401 0.0254049 3.31322e-21)
(0.637073 0.0246327 -3.71875e-21)
(0.627958 0.0223142 7.4558e-21)
(0.620049 0.0192338 2.94563e-21)
(0.613231 0.0160335 -2.56236e-21)
(0.607393 0.0130858 4.22332e-21)
(0.60244 0.0105464 1.84198e-21)
(0.598277 0.00844218 -2.67142e-21)
(0.594807 0.00673821 -1.11226e-21)
(0.591936 0.00537662 -8.96374e-22)
(0.589573 0.00429672 -7.22741e-22)
(0.587634 0.00344358 -5.83417e-22)
(0.586047 0.00277079 -1.96544e-21)
(0.584747 0.00224059 2.92411e-22)
(0.583682 0.00182282 6.22187e-22)
(0.582807 0.00149369 8.18681e-22)
(0.582084 0.00123452 2.5011e-22)
(0.581485 0.00103067 -1.10363e-23)
(0.580983 0.000870684 -9.21282e-24)
(0.580559 0.000745567 0)
(0.580194 0.000648282 -1.03233e-22)
(0.579875 0.000573312 1.81674e-22)
(0.57959 0.000516362 5.10921e-23)
(0.579328 0.000474137 1.6087e-23)
(0.579079 0.000444209 1.34341e-22)
(0.578833 0.000424961 1.33094e-24)
(0.578581 0.00041562 -1.02067e-23)
(0.578313 0.000416396 -7.1084e-23)
(0.578016 0.000428741 3.07853e-23)
(0.577676 0.000455767 -4.36424e-23)
(0.577278 0.000502878 -1.01857e-22)
(0.5768 0.00057863 7.78836e-23)
(0.576217 0.000695932 0)
(0.575499 0.000873581 -5.55706e-22)
(0.574609 0.00113822 0)
(0.573505 0.00152663 0)
(0.572138 0.00208841 0)
(0.570455 0.00288848 5.80397e-22)
(0.5684 0.00400932 1.28744e-21)
(0.565919 0.0055517 -7.675e-22)
(0.562968 0.0076329 0)
(0.559517 0.0103804 0)
(0.555564 0.0139195 0)
(0.55114 0.0183516 0)
(0.546318 0.0237259 0)
(0.541208 0.0300043 0)
(0.53595 0.0370341 0)
(0.530684 0.0445409 0)
(0.525521 0.0521567 0)
(0.520517 0.0594813 0)
(0.515663 0.0661575 0)
(0.510901 0.0719345 0)
(0.506158 0.0766991 0)
(0.501389 0.0804732 0)
(0.496625 0.0833805 0)
(0.491992 0.0855912 7.05619e-22)
(0.487701 0.0872311 -9.25736e-22)
(0.483989 0.0883266 -2.08487e-22)
(0.481039 0.0888581 0)
(0.478712 0.0888805 0)
(0.919335 0.169877 0)
(0.924228 0.13653 0)
(0.93067 0.0937177 0)
(0.935824 0.0435342 -6.46398e-37)
(0.937103 -0.0106619 0)
(0.933193 -0.0649147 0)
(0.924174 -0.115577 0)
(0.911215 -0.159969 0)
(0.896016 -0.196642 0)
(0.880287 -0.225278 0)
(0.865393 -0.246375 0)
(0.852205 -0.260881 0)
(0.841117 -0.26988 0)
(0.832146 -0.274383 0)
(0.825067 -0.275226 0)
(0.819529 -0.273042 0)
(0.815141 -0.268287 0)
(0.811528 -0.261273 0)
(0.808353 -0.252221 0)
(0.805337 -0.241292 0)
(0.802257 -0.228622 0)
(0.798946 -0.214346 5.37929e-36)
(0.795293 -0.198619 0)
(0.791234 -0.181626 0)
(0.786747 -0.163595 0)
(0.781839 -0.144796 3.74041e-22)
(0.776537 -0.125533 5.32106e-36)
(0.770876 -0.106123 -1.37874e-22)
(0.764904 -0.0868724 4.75557e-24)
(0.758693 -0.0680661 1.73843e-36)
(0.752346 -0.0499699 -2.46973e-22)
(0.745999 -0.032862 0)
(0.739776 -0.0170695 -1.03732e-35)
(0.733732 -0.00298082 0)
(0.727777 0.00899525 -1.42418e-22)
(0.721643 0.0185355 -9.17377e-35)
(0.71492 0.025538 1.05319e-21)
(0.707171 0.0302013 -3.93525e-23)
(0.698122 0.0329277 -1.42389e-36)
(0.687911 0.0340206 8.34917e-23)
(0.677207 0.0334715 -1.00895e-22)
(0.666891 0.0312638 -6.15502e-36)
(0.657521 0.0278026 1.04017e-22)
(0.649254 0.0237759 0)
(0.642058 0.0197786 0)
(0.635855 0.0161604 6.68403e-35)
(0.630559 0.0130608 -1.87305e-21)
(0.62608 0.0104925 -8.16909e-22)
(0.622322 0.00840678 6.40954e-22)
(0.619192 0.00673298 3.37257e-35)
(0.616599 0.00539903 2.756e-35)
(0.614457 0.00433998 -7.5595e-22)
(0.612692 0.00350091 3.21087e-22)
(0.611239 0.00283681 7.7241e-22)
(0.610042 0.00231156 1.8587e-35)
(0.609053 0.00189641 1.61878e-35)
(0.608233 0.00156863 -9.02519e-24)
(0.607549 0.00131033 -7.25525e-24)
(0.606974 0.00110739 5.78171e-24)
(0.606485 0.000948726 -1.56386e-37)
(0.606064 0.000825643 -2.57866e-37)
(0.605693 0.000731339 2.61448e-24)
(0.60536 0.000660551 0)
(0.605051 0.0006093 5.20097e-23)
(0.604756 0.00057473 3.49636e-36)
(0.604463 0.000555047 7.63279e-24)
(0.604161 0.000549552 0)
(0.603837 0.000558801 -1.29018e-36)
(0.603479 0.000584889 0)
(0.603071 0.000631913 0)
(0.602594 0.000706629 -3.32232e-36)
(0.602026 0.000819373 0)
(0.601341 0.00098526 3.28729e-22)
(0.600508 0.00122573 1.66636e-35)
(0.59949 0.00157043 -5.088e-22)
(0.598246 0.00205943 0)
(0.596729 0.00274559 0)
(0.59489 0.00369693 0)
(0.592682 0.00499838 3.00538e-35)