/*--------------------------------*- C++ -*----------------------------------*\
  =========                 |
  \\      /  F ield         | OpenFOAM: The Open Source CFD Toolbox
   \\    /   O peration     | Website:  https://openfoam.org
    \\  /    A nd           | Version:  8
     \\/     M anipulation  |
\*---------------------------------------------------------------------------*/
FoamFile
{
    version     2.0;
    format      ascii;
    class       volScalarField;
    location    "3.1";
    object      p;
}
// * * * * * * * * * * * * * * * * * * * * * * * * * * * * * * * * * * * * * //

dimensions      [0 2 -2 0 0 0 0];

internalField   nonuniform List<scalar> 
262620
(
-1.2131
-1.21329
-1.21389
-1.21481
-1.216
-1.21748
-1.21921
-1.22119
-1.2234
-1.22582
-1.22844
-1.23125
-1.23423
-1.23736
-1.24065
-1.24407
-1.24761
-1.25126
-1.25502
-1.25887
-1.26281
-1.26681
-1.27089
-1.27502
-1.2792
-1.28342
-1.28768
-1.29197
-1.29628
-1.30061
-1.30495
-1.3093
-1.31365
-1.318
-1.32234
-1.32667
-1.33099
-1.33528
-1.33956
-1.34382
-1.34805
-1.35225
-1.35642
-1.36055
-1.36465
-1.36871
-1.37274
-1.37673
-1.38067
-1.38457
-1.38843
-1.39224
-1.39601
-1.39974
-1.40341
-1.40704
-1.41062
-1.41416
-1.41764
-1.42108
-1.42447
-1.42782
-1.43111
-1.43435
-1.43755
-1.4407
-1.4438
-1.44686
-1.44986
-1.45282
-1.45574
-1.45861
-1.46143
-1.4642
-1.46694
-1.46962
-1.47227
-1.47487
-1.47743
-1.47994
-1.48241
-1.48485
-1.48724
-1.48959
-1.4919
-1.49418
-1.49641
-1.49861
-1.50077
-1.50289
-1.50498
-1.50703
-1.50905
-1.51104
-1.51299
-1.5149
-1.51679
-1.51864
-1.52047
-1.52226
-1.52402
-1.52575
-1.52746
-1.52913
-1.53078
-1.5324
-1.53399
-1.53556
-1.5371
-1.53862
-1.54011
-1.54158
-1.54303
-1.54445
-1.54585
-1.54723
-1.54858
-1.54992
-1.55124
-1.55252
-1.21298
-1.21317
-1.21377
-1.21468
-1.21588
-1.21735
-1.21909
-1.22106
-1.22327
-1.22569
-1.22831
-1.23112
-1.2341
-1.23723
-1.24052
-1.24394
-1.24748
-1.25114
-1.2549
-1.25875
-1.26268
-1.26669
-1.27076
-1.2749
-1.27908
-1.2833
-1.28756
-1.29185
-1.29617
-1.3005
-1.30484
-1.30919
-1.31354
-1.31789
-1.32223
-1.32657
-1.33089
-1.33519
-1.33947
-1.34372
-1.34796
-1.35216
-1.35633
-1.36047
-1.36457
-1.36864
-1.37266
-1.37665
-1.3806
-1.3845
-1.38836
-1.39218
-1.39595
-1.39968
-1.40336
-1.40699
-1.41057
-1.41411
-1.4176
-1.42104
-1.42443
-1.42778
-1.43107
-1.43432
-1.43752
-1.44067
-1.44378
-1.44684
-1.44984
-1.45281
-1.45572
-1.45859
-1.46142
-1.4642
-1.46693
-1.46962
-1.47227
-1.47487
-1.47743
-1.47995
-1.48242
-1.48486
-1.48725
-1.48961
-1.49192
-1.4942
-1.49644
-1.49864
-1.5008
-1.50292
-1.50501
-1.50707
-1.50909
-1.51108
-1.51303
-1.51495
-1.51684
-1.51869
-1.52052
-1.52231
-1.52407
-1.52581
-1.52751
-1.52919
-1.53084
-1.53246
-1.53406
-1.53563
-1.53717
-1.53869
-1.54019
-1.54166
-1.5431
-1.54453
-1.54593
-1.54731
-1.54867
-1.55
-1.55132
-1.55261
-1.21277
-1.21296
-1.21356
-1.21447
-1.21566
-1.21713
-1.21886
-1.22084
-1.22304
-1.22546
-1.22808
-1.23089
-1.23387
-1.23701
-1.24029
-1.24371
-1.24726
-1.25091
-1.25467
-1.25852
-1.26246
-1.26647
-1.27055
-1.27468
-1.27887
-1.28309
-1.28736
-1.29165
-1.29597
-1.3003
-1.30465
-1.309
-1.31335
-1.31771
-1.32205
-1.32639
-1.33071
-1.33502
-1.3393
-1.34356
-1.3478
-1.35201
-1.35618
-1.36032
-1.36443
-1.3685
-1.37253
-1.37653
-1.38048
-1.38439
-1.38825
-1.39207
-1.39585
-1.39958
-1.40326
-1.4069
-1.41049
-1.41403
-1.41752
-1.42097
-1.42437
-1.42771
-1.43102
-1.43427
-1.43747
-1.44063
-1.44374
-1.4468
-1.44981
-1.45278
-1.4557
-1.45857
-1.4614
-1.46418
-1.46692
-1.46962
-1.47227
-1.47487
-1.47744
-1.47996
-1.48244
-1.48488
-1.48727
-1.48963
-1.49195
-1.49423
-1.49647
-1.49867
-1.50084
-1.50297
-1.50506
-1.50712
-1.50914
-1.51113
-1.51309
-1.51501
-1.5169
-1.51876
-1.52059
-1.52238
-1.52415
-1.52589
-1.5276
-1.52928
-1.53093
-1.53255
-1.53415
-1.53572
-1.53727
-1.53879
-1.54029
-1.54176
-1.54321
-1.54464
-1.54604
-1.54742
-1.54878
-1.55012
-1.55144
-1.55273
-1.21246
-1.21264
-1.21324
-1.21414
-1.21533
-1.2168
-1.21853
-1.2205
-1.22271
-1.22513
-1.22774
-1.23055
-1.23353
-1.23666
-1.23995
-1.24337
-1.24692
-1.25058
-1.25434
-1.25819
-1.26213
-1.26614
-1.27022
-1.27436
-1.27855
-1.28278
-1.28705
-1.29134
-1.29566
-1.3
-1.30435
-1.30871
-1.31307
-1.31743
-1.32178
-1.32612
-1.33045
-1.33476
-1.33905
-1.34332
-1.34756
-1.35178
-1.35596
-1.36011
-1.36422
-1.3683
-1.37233
-1.37633
-1.38029
-1.38421
-1.38808
-1.39191
-1.39569
-1.39943
-1.40312
-1.40676
-1.41036
-1.4139
-1.4174
-1.42086
-1.42426
-1.42762
-1.43092
-1.43418
-1.43739
-1.44056
-1.44367
-1.44674
-1.44976
-1.45273
-1.45566
-1.45854
-1.46137
-1.46416
-1.46691
-1.46961
-1.47226
-1.47488
-1.47745
-1.47997
-1.48246
-1.4849
-1.48731
-1.48967
-1.49199
-1.49428
-1.49652
-1.49873
-1.5009
-1.50304
-1.50514
-1.5072
-1.50923
-1.51122
-1.51319
-1.51511
-1.51701
-1.51887
-1.5207
-1.52251
-1.52428
-1.52602
-1.52773
-1.52942
-1.53107
-1.5327
-1.53431
-1.53588
-1.53743
-1.53896
-1.54046
-1.54194
-1.54339
-1.54482
-1.54623
-1.54761
-1.54898
-1.55032
-1.55164
-1.55293
-1.21204
-1.21222
-1.21281
-1.21371
-1.2149
-1.21636
-1.21809
-1.22006
-1.22226
-1.22468
-1.22729
-1.2301
-1.23308
-1.23621
-1.2395
-1.24292
-1.24647
-1.25013
-1.25389
-1.25775
-1.26169
-1.26571
-1.26979
-1.27393
-1.27813
-1.28236
-1.28663
-1.29094
-1.29526
-1.29961
-1.30397
-1.30833
-1.3127
-1.31706
-1.32142
-1.32577
-1.33011
-1.33443
-1.33873
-1.343
-1.34725
-1.35147
-1.35566
-1.35982
-1.36394
-1.36803
-1.37207
-1.37608
-1.38005
-1.38397
-1.38785
-1.39169
-1.39548
-1.39923
-1.40292
-1.40658
-1.41018
-1.41374
-1.41725
-1.42071
-1.42412
-1.42749
-1.4308
-1.43407
-1.43729
-1.44046
-1.44358
-1.44666
-1.44969
-1.45267
-1.45561
-1.45849
-1.46134
-1.46414
-1.46689
-1.4696
-1.47226
-1.47488
-1.47746
-1.47999
-1.48249
-1.48494
-1.48735
-1.48972
-1.49205
-1.49434
-1.49659
-1.49881
-1.50099
-1.50313
-1.50524
-1.50731
-1.50934
-1.51134
-1.51331
-1.51524
-1.51714
-1.51901
-1.52085
-1.52266
-1.52444
-1.52618
-1.5279
-1.52959
-1.53126
-1.53289
-1.5345
-1.53608
-1.53764
-1.53917
-1.54067
-1.54216
-1.54362
-1.54505
-1.54646
-1.54785
-1.54922
-1.55057
-1.5519
-1.55319
-1.21153
-1.21171
-1.21229
-1.21318
-1.21436
-1.21582
-1.21754
-1.21951
-1.22171
-1.22412
-1.22674
-1.22954
-1.23252
-1.23566
-1.23894
-1.24237
-1.24591
-1.24958
-1.25334
-1.25721
-1.26115
-1.26517
-1.26926
-1.27341
-1.27761
-1.28185
-1.28613
-1.29044
-1.29477
-1.29912
-1.30349
-1.30786
-1.31224
-1.31661
-1.32098
-1.32534
-1.32968
-1.33401
-1.33832
-1.3426
-1.34686
-1.35109
-1.35529
-1.35946
-1.36359
-1.36769
-1.37175
-1.37577
-1.37974
-1.38368
-1.38757
-1.39142
-1.39522
-1.39898
-1.40269
-1.40635
-1.40997
-1.41354
-1.41706
-1.42053
-1.42395
-1.42733
-1.43065
-1.43393
-1.43716
-1.44034
-1.44348
-1.44656
-1.4496
-1.4526
-1.45554
-1.45844
-1.46129
-1.4641
-1.46686
-1.46958
-1.47225
-1.47488
-1.47747
-1.48002
-1.48252
-1.48498
-1.4874
-1.48978
-1.49212
-1.49442
-1.49668
-1.49891
-1.50109
-1.50324
-1.50536
-1.50744
-1.50948
-1.51149
-1.51346
-1.51541
-1.51732
-1.51919
-1.52104
-1.52285
-1.52464
-1.52639
-1.52812
-1.52982
-1.53149
-1.53313
-1.53474
-1.53633
-1.5379
-1.53943
-1.54095
-1.54244
-1.5439
-1.54534
-1.54676
-1.54816
-1.54953
-1.55089
-1.55222
-1.55352
-1.21093
-1.21109
-1.21166
-1.21255
-1.21372
-1.21517
-1.21689
-1.21886
-1.22105
-1.22346
-1.22608
-1.22888
-1.23185
-1.23499
-1.23828
-1.24171
-1.24526
-1.24892
-1.25269
-1.25656
-1.26051
-1.26453
-1.26863
-1.27278
-1.27699
-1.28124
-1.28552
-1.28984
-1.29418
-1.29854
-1.30292
-1.3073
-1.31168
-1.31607
-1.32045
-1.32482
-1.32917
-1.33351
-1.33783
-1.34213
-1.3464
-1.35064
-1.35486
-1.35904
-1.36318
-1.36729
-1.37136
-1.37539
-1.37938
-1.38333
-1.38724
-1.3911
-1.39491
-1.39868
-1.40241
-1.40608
-1.40971
-1.41329
-1.41683
-1.42031
-1.42375
-1.42713
-1.43047
-1.43377
-1.43701
-1.4402
-1.44335
-1.44645
-1.4495
-1.45251
-1.45546
-1.45837
-1.46124
-1.46406
-1.46683
-1.46956
-1.47225
-1.47489
-1.47749
-1.48004
-1.48256
-1.48503
-1.48746
-1.48985
-1.4922
-1.49451
-1.49679
-1.49902
-1.50122
-1.50338
-1.5055
-1.50759
-1.50964
-1.51166
-1.51365
-1.5156
-1.51752
-1.5194
-1.52126
-1.52308
-1.52488
-1.52664
-1.52838
-1.53008
-1.53176
-1.53341
-1.53503
-1.53663
-1.5382
-1.53975
-1.54127
-1.54276
-1.54424
-1.54569
-1.54711
-1.54852
-1.5499
-1.55126
-1.5526
-1.55391
-1.21023
-1.21038
-1.21094
-1.21182
-1.21299
-1.21443
-1.21614
-1.2181
-1.22029
-1.2227
-1.22531
-1.22811
-1.23109
-1.23423
-1.23751
-1.24094
-1.24449
-1.24816
-1.25194
-1.25581
-1.25976
-1.2638
-1.2679
-1.27206
-1.27627
-1.28053
-1.28482
-1.28915
-1.2935
-1.29787
-1.30226
-1.30665
-1.31105
-1.31545
-1.31984
-1.32422
-1.32859
-1.33294
-1.33727
-1.34158
-1.34587
-1.35013
-1.35435
-1.35855
-1.36271
-1.36683
-1.37092
-1.37496
-1.37897
-1.38293
-1.38685
-1.39073
-1.39456
-1.39834
-1.40208
-1.40577
-1.40941
-1.41301
-1.41656
-1.42006
-1.42351
-1.42691
-1.43027
-1.43357
-1.43683
-1.44004
-1.4432
-1.44632
-1.44938
-1.4524
-1.45537
-1.4583
-1.46118
-1.46401
-1.4668
-1.46954
-1.47224
-1.47489
-1.47751
-1.48007
-1.4826
-1.48509
-1.48753
-1.48993
-1.4923
-1.49462
-1.4969
-1.49915
-1.50136
-1.50353
-1.50567
-1.50777
-1.50983
-1.51186
-1.51386
-1.51582
-1.51775
-1.51965
-1.52151
-1.52335
-1.52515
-1.52693
-1.52867
-1.53039
-1.53208
-1.53374
-1.53537
-1.53698
-1.53856
-1.54011
-1.54164
-1.54315
-1.54463
-1.54608
-1.54752
-1.54893
-1.55032
-1.55169
-1.55304
-1.55436
-1.20944
-1.20957
-1.21013
-1.211
-1.21215
-1.21359
-1.21529
-1.21725
-1.21943
-1.22184
-1.22445
-1.22724
-1.23022
-1.23336
-1.23665
-1.24008
-1.24363
-1.24731
-1.25108
-1.25496
-1.25892
-1.26296
-1.26707
-1.27124
-1.27546
-1.27973
-1.28403
-1.28837
-1.29273
-1.29711
-1.30151
-1.30592
-1.31033
-1.31474
-1.31914
-1.32354
-1.32792
-1.33229
-1.33664
-1.34096
-1.34527
-1.34954
-1.35378
-1.35799
-1.36217
-1.36631
-1.37041
-1.37447
-1.37849
-1.38247
-1.38641
-1.3903
-1.39415
-1.39795
-1.40171
-1.40542
-1.40908
-1.41269
-1.41626
-1.41977
-1.42324
-1.42666
-1.43003
-1.43336
-1.43663
-1.43986
-1.44304
-1.44616
-1.44925
-1.45228
-1.45527
-1.45821
-1.46111
-1.46395
-1.46676
-1.46952
-1.47223
-1.4749
-1.47753
-1.48011
-1.48265
-1.48515
-1.48761
-1.49003
-1.4924
-1.49474
-1.49704
-1.4993
-1.50152
-1.50371
-1.50586
-1.50797
-1.51005
-1.51209
-1.5141
-1.51607
-1.51802
-1.51993
-1.5218
-1.52365
-1.52547
-1.52725
-1.52901
-1.53073
-1.53243
-1.5341
-1.53575
-1.53736
-1.53896
-1.54052
-1.54206
-1.54358
-1.54507
-1.54654
-1.54798
-1.5494
-1.5508
-1.55218
-1.55354
-1.55486
-1.20855
-1.20868
-1.20922
-1.21008
-1.21122
-1.21265
-1.21435
-1.21629
-1.21847
-1.22087
-1.22348
-1.22628
-1.22925
-1.23239
-1.23568
-1.23911
-1.24267
-1.24635
-1.25013
-1.25401
-1.25798
-1.26203
-1.26615
-1.27032
-1.27455
-1.27883
-1.28315
-1.2875
-1.29187
-1.29627
-1.30068
-1.3051
-1.30952
-1.31395
-1.31837
-1.32278
-1.32718
-1.33157
-1.33593
-1.34027
-1.34459
-1.34888
-1.35314
-1.35737
-1.36157
-1.36572
-1.36984
-1.37393
-1.37797
-1.38197
-1.38592
-1.38983
-1.3937
-1.39752
-1.4013
-1.40502
-1.4087
-1.41234
-1.41592
-1.41946
-1.42294
-1.42638
-1.42977
-1.43311
-1.43641
-1.43965
-1.44285
-1.446
-1.4491
-1.45215
-1.45515
-1.45811
-1.46103
-1.46389
-1.46671
-1.46949
-1.47222
-1.47491
-1.47755
-1.48015
-1.48271
-1.48522
-1.4877
-1.49013
-1.49252
-1.49488
-1.49719
-1.49947
-1.5017
-1.5039
-1.50607
-1.5082
-1.51029
-1.51234
-1.51437
-1.51636
-1.51831
-1.52023
-1.52212
-1.52398
-1.52581
-1.52761
-1.52938
-1.53112
-1.53283
-1.53452
-1.53617
-1.5378
-1.5394
-1.54098
-1.54253
-1.54406
-1.54556
-1.54704
-1.5485
-1.54993
-1.55134
-1.55273
-1.5541
-1.55543
-1.20758
-1.20769
-1.20822
-1.20906
-1.2102
-1.21162
-1.2133
-1.21524
-1.21742
-1.21982
-1.22242
-1.22521
-1.22819
-1.23133
-1.23462
-1.23805
-1.24161
-1.2453
-1.24908
-1.25297
-1.25695
-1.261
-1.26513
-1.26932
-1.27356
-1.27785
-1.28218
-1.28654
-1.29093
-1.29534
-1.29976
-1.3042
-1.30864
-1.31308
-1.31752
-1.32195
-1.32636
-1.33077
-1.33515
-1.33951
-1.34385
-1.34816
-1.35244
-1.35669
-1.3609
-1.36508
-1.36922
-1.37332
-1.37739
-1.38141
-1.38538
-1.38931
-1.3932
-1.39704
-1.40084
-1.40459
-1.40829
-1.41194
-1.41555
-1.41911
-1.42261
-1.42607
-1.42948
-1.43285
-1.43616
-1.43942
-1.44264
-1.44581
-1.44893
-1.452
-1.45503
-1.45801
-1.46094
-1.46382
-1.46666
-1.46946
-1.47221
-1.47491
-1.47758
-1.48019
-1.48277
-1.4853
-1.48779
-1.49024
-1.49266
-1.49503
-1.49736
-1.49965
-1.5019
-1.50412
-1.5063
-1.50844
-1.51055
-1.51262
-1.51466
-1.51666
-1.51864
-1.52057
-1.52248
-1.52435
-1.5262
-1.52801
-1.52979
-1.53155
-1.53327
-1.53497
-1.53664
-1.53828
-1.53989
-1.54148
-1.54305
-1.54459
-1.5461
-1.54759
-1.54906
-1.55051
-1.55193
-1.55333
-1.55471
-1.55605
-1.20652
-1.20661
-1.20713
-1.20796
-1.20908
-1.21049
-1.21217
-1.2141
-1.21627
-1.21866
-1.22126
-1.22405
-1.22702
-1.23016
-1.23346
-1.23689
-1.24046
-1.24415
-1.24794
-1.25184
-1.25582
-1.25988
-1.26402
-1.26822
-1.27247
-1.27677
-1.28111
-1.28549
-1.28989
-1.29432
-1.29876
-1.30321
-1.30767
-1.31213
-1.31659
-1.32104
-1.32547
-1.32989
-1.3343
-1.33868
-1.34304
-1.34737
-1.35167
-1.35594
-1.36018
-1.36438
-1.36854
-1.37267
-1.37675
-1.38079
-1.38479
-1.38875
-1.39266
-1.39652
-1.40034
-1.40411
-1.40784
-1.41152
-1.41514
-1.41872
-1.42225
-1.42574
-1.42917
-1.43255
-1.43589
-1.43918
-1.44242
-1.44561
-1.44875
-1.45184
-1.45489
-1.45789
-1.46084
-1.46375
-1.46661
-1.46942
-1.47219
-1.47492
-1.4776
-1.48024
-1.48284
-1.48539
-1.4879
-1.49037
-1.4928
-1.49519
-1.49754
-1.49985
-1.50212
-1.50435
-1.50655
-1.50871
-1.51084
-1.51293
-1.51498
-1.517
-1.51899
-1.52094
-1.52287
-1.52476
-1.52661
-1.52844
-1.53024
-1.53201
-1.53375
-1.53546
-1.53714
-1.5388
-1.54043
-1.54204
-1.54361
-1.54517
-1.54669
-1.5482
-1.54968
-1.55114
-1.55257
-1.55399
-1.55538
-1.55673
-1.20538
-1.20545
-1.20595
-1.20677
-1.20787
-1.20927
-1.21094
-1.21286
-1.21503
-1.21741
-1.22001
-1.2228
-1.22577
-1.22891
-1.2322
-1.23564
-1.23921
-1.2429
-1.24671
-1.25061
-1.2546
-1.25867
-1.26282
-1.26703
-1.2713
-1.27561
-1.27997
-1.28436
-1.28878
-1.29322
-1.29768
-1.30215
-1.30663
-1.31111
-1.31558
-1.32005
-1.32451
-1.32895
-1.33338
-1.33778
-1.34216
-1.34652
-1.35084
-1.35513
-1.3594
-1.36362
-1.36781
-1.37196
-1.37606
-1.38013
-1.38416
-1.38814
-1.39207
-1.39596
-1.3998
-1.4036
-1.40735
-1.41105
-1.4147
-1.41831
-1.42186
-1.42537
-1.42883
-1.43224
-1.4356
-1.43891
-1.44217
-1.44538
-1.44855
-1.45167
-1.45474
-1.45776
-1.46074
-1.46367
-1.46655
-1.46939
-1.47218
-1.47493
-1.47763
-1.48029
-1.48291
-1.48548
-1.48801
-1.4905
-1.49295
-1.49536
-1.49773
-1.50006
-1.50235
-1.50461
-1.50683
-1.509
-1.51115
-1.51326
-1.51533
-1.51737
-1.51937
-1.52135
-1.52328
-1.52519
-1.52707
-1.52891
-1.53073
-1.53251
-1.53427
-1.536
-1.5377
-1.53937
-1.54101
-1.54263
-1.54422
-1.54579
-1.54734
-1.54885
-1.55035
-1.55182
-1.55327
-1.5547
-1.55611
-1.55747
-1.20415
-1.2042
-1.20468
-1.20548
-1.20658
-1.20796
-1.20962
-1.21154
-1.21369
-1.21607
-1.21866
-1.22145
-1.22442
-1.22756
-1.23086
-1.2343
-1.23787
-1.24157
-1.24538
-1.24929
-1.25329
-1.25737
-1.26153
-1.26575
-1.27003
-1.27436
-1.27873
-1.28314
-1.28758
-1.29204
-1.29652
-1.30101
-1.3055
-1.31
-1.3145
-1.31899
-1.32347
-1.32794
-1.33239
-1.33681
-1.34122
-1.3456
-1.34995
-1.35427
-1.35855
-1.3628
-1.36702
-1.37119
-1.37533
-1.37942
-1.38347
-1.38748
-1.39144
-1.39535
-1.39923
-1.40305
-1.40682
-1.41055
-1.41423
-1.41786
-1.42144
-1.42498
-1.42846
-1.4319
-1.43528
-1.43862
-1.44191
-1.44515
-1.44834
-1.45148
-1.45458
-1.45762
-1.46062
-1.46358
-1.46649
-1.46935
-1.47216
-1.47494
-1.47766
-1.48035
-1.48298
-1.48558
-1.48814
-1.49065
-1.49312
-1.49555
-1.49794
-1.50029
-1.50261
-1.50488
-1.50712
-1.50932
-1.51148
-1.51361
-1.5157
-1.51776
-1.51979
-1.52178
-1.52373
-1.52566
-1.52755
-1.52942
-1.53125
-1.53305
-1.53483
-1.53657
-1.53829
-1.53998
-1.54164
-1.54327
-1.54488
-1.54647
-1.54803
-1.54956
-1.55107
-1.55256
-1.55402
-1.55547
-1.55689
-1.55826
-1.20284
-1.20287
-1.20333
-1.20412
-1.2052
-1.20657
-1.20822
-1.21012
-1.21227
-1.21464
-1.21723
-1.22001
-1.22298
-1.22612
-1.22942
-1.23286
-1.23644
-1.24014
-1.24396
-1.24788
-1.25189
-1.25598
-1.26015
-1.26439
-1.26868
-1.27303
-1.27742
-1.28184
-1.2863
-1.29078
-1.29527
-1.29978
-1.3043
-1.30882
-1.31334
-1.31786
-1.32236
-1.32685
-1.33133
-1.33578
-1.34021
-1.34462
-1.34899
-1.35334
-1.35765
-1.36193
-1.36617
-1.37037
-1.37454
-1.37866
-1.38274
-1.38677
-1.39076
-1.39471
-1.39861
-1.40246
-1.40626
-1.41002
-1.41373
-1.41738
-1.42099
-1.42456
-1.42807
-1.43153
-1.43494
-1.43831
-1.44163
-1.44489
-1.44811
-1.45128
-1.4544
-1.45748
-1.4605
-1.46348
-1.46642
-1.4693
-1.47215
-1.47494
-1.47769
-1.4804
-1.48307
-1.48569
-1.48827
-1.4908
-1.4933
-1.49575
-1.49817
-1.50054
-1.50288
-1.50517
-1.50743
-1.50965
-1.51184
-1.51399
-1.5161
-1.51818
-1.52023
-1.52224
-1.52421
-1.52616
-1.52807
-1.52996
-1.53181
-1.53363
-1.53542
-1.53718
-1.53892
-1.54063
-1.54231
-1.54396
-1.54559
-1.54719
-1.54876
-1.55031
-1.55184
-1.55334
-1.55483
-1.55628
-1.55772
-1.55911
-1.20144
-1.20145
-1.2019
-1.20266
-1.20373
-1.20509
-1.20672
-1.20862
-1.21075
-1.21312
-1.2157
-1.21848
-1.22145
-1.22459
-1.22789
-1.23134
-1.23492
-1.23863
-1.24245
-1.24638
-1.2504
-1.25451
-1.25869
-1.26294
-1.26725
-1.27161
-1.27602
-1.28046
-1.28493
-1.28943
-1.29395
-1.29849
-1.30303
-1.30757
-1.31212
-1.31665
-1.32118
-1.3257
-1.3302
-1.33468
-1.33914
-1.34357
-1.34798
-1.35235
-1.35669
-1.361
-1.36527
-1.3695
-1.3737
-1.37785
-1.38196
-1.38602
-1.39004
-1.39402
-1.39795
-1.40183
-1.40566
-1.40945
-1.41319
-1.41688
-1.42052
-1.42411
-1.42765
-1.43114
-1.43459
-1.43798
-1.44132
-1.44462
-1.44787
-1.45107
-1.45422
-1.45732
-1.46037
-1.46338
-1.46634
-1.46926
-1.47213
-1.47495
-1.47773
-1.48046
-1.48315
-1.4858
-1.4884
-1.49097
-1.49349
-1.49597
-1.4984
-1.5008
-1.50316
-1.50548
-1.50777
-1.51001
-1.51222
-1.51439
-1.51653
-1.51863
-1.52069
-1.52273
-1.52473
-1.52669
-1.52863
-1.53053
-1.5324
-1.53424
-1.53606
-1.53784
-1.53959
-1.54132
-1.54302
-1.54469
-1.54633
-1.54795
-1.54955
-1.55112
-1.55266
-1.55418
-1.55568
-1.55716
-1.55861
-1.56001
-1.19997
-1.19996
-1.20038
-1.20113
-1.20218
-1.20352
-1.20514
-1.20702
-1.20915
-1.21151
-1.21409
-1.21687
-1.21983
-1.22297
-1.22627
-1.22972
-1.23331
-1.23703
-1.24086
-1.2448
-1.24883
-1.25295
-1.25714
-1.26141
-1.26573
-1.27011
-1.27454
-1.279
-1.28349
-1.28801
-1.29255
-1.29711
-1.30168
-1.30625
-1.31081
-1.31538
-1.31994
-1.32448
-1.32901
-1.33352
-1.33801
-1.34247
-1.3469
-1.35131
-1.35568
-1.36002
-1.36432
-1.36858
-1.37281
-1.37699
-1.38113
-1.38523
-1.38928
-1.39329
-1.39725
-1.40116
-1.40503
-1.40885
-1.41262
-1.41634
-1.42001
-1.42363
-1.42721
-1.43073
-1.43421
-1.43763
-1.44101
-1.44433
-1.44761
-1.45084
-1.45402
-1.45715
-1.46024
-1.46328
-1.46627
-1.46921
-1.47211
-1.47496
-1.47777
-1.48053
-1.48325
-1.48592
-1.48855
-1.49114
-1.49369
-1.49619
-1.49866
-1.50108
-1.50347
-1.50581
-1.50812
-1.51039
-1.51262
-1.51482
-1.51698
-1.5191
-1.52119
-1.52325
-1.52527
-1.52726
-1.52921
-1.53114
-1.53303
-1.53489
-1.53673
-1.53853
-1.54031
-1.54205
-1.54377
-1.54546
-1.54713
-1.54876
-1.55038
-1.55196
-1.55353
-1.55507
-1.55658
-1.55808
-1.55955
-1.56097
-1.19842
-1.19838
-1.19878
-1.19951
-1.20054
-1.20187
-1.20348
-1.20535
-1.20747
-1.20982
-1.21239
-1.21516
-1.21813
-1.22127
-1.22457
-1.22802
-1.23162
-1.23534
-1.23918
-1.24313
-1.24717
-1.2513
-1.25551
-1.25979
-1.26413
-1.26853
-1.27297
-1.27746
-1.28197
-1.28652
-1.29108
-1.29566
-1.30025
-1.30485
-1.30944
-1.31403
-1.31862
-1.32319
-1.32775
-1.33229
-1.33681
-1.3413
-1.34577
-1.3502
-1.35461
-1.35898
-1.36331
-1.36761
-1.37187
-1.37608
-1.38026
-1.38439
-1.38847
-1.39251
-1.39651
-1.40046
-1.40436
-1.40821
-1.41201
-1.41577
-1.41947
-1.42313
-1.42674
-1.43029
-1.4338
-1.43726
-1.44067
-1.44403
-1.44734
-1.4506
-1.45381
-1.45698
-1.46009
-1.46316
-1.46618
-1.46916
-1.47208
-1.47497
-1.4778
-1.48059
-1.48334
-1.48604
-1.4887
-1.49132
-1.4939
-1.49643
-1.49892
-1.50137
-1.50378
-1.50616
-1.50849
-1.51079
-1.51304
-1.51527
-1.51745
-1.5196
-1.52171
-1.52379
-1.52584
-1.52785
-1.52983
-1.53178
-1.5337
-1.53558
-1.53744
-1.53926
-1.54106
-1.54283
-1.54457
-1.54628
-1.54796
-1.54962
-1.55125
-1.55286
-1.55444
-1.556
-1.55754
-1.55905
-1.56054
-1.56197
-1.19679
-1.19673
-1.1971
-1.19781
-1.19882
-1.20013
-1.20173
-1.20359
-1.2057
-1.20804
-1.2106
-1.21337
-1.21633
-1.21947
-1.22278
-1.22624
-1.22984
-1.23357
-1.23741
-1.24137
-1.24543
-1.24957
-1.2538
-1.25809
-1.26245
-1.26687
-1.27133
-1.27584
-1.28037
-1.28494
-1.28953
-1.29413
-1.29875
-1.30337
-1.308
-1.31262
-1.31724
-1.32184
-1.32643
-1.331
-1.33555
-1.34007
-1.34457
-1.34904
-1.35348
-1.35789
-1.36225
-1.36658
-1.37088
-1.37513
-1.37934
-1.3835
-1.38763
-1.3917
-1.39573
-1.39972
-1.40365
-1.40754
-1.41138
-1.41517
-1.41891
-1.4226
-1.42624
-1.42984
-1.43338
-1.43687
-1.44031
-1.44371
-1.44705
-1.45035
-1.45359
-1.45679
-1.45994
-1.46304
-1.46609
-1.4691
-1.47206
-1.47497
-1.47784
-1.48066
-1.48344
-1.48618
-1.48887
-1.49151
-1.49412
-1.49668
-1.4992
-1.50168
-1.50412
-1.50652
-1.50888
-1.5112
-1.51349
-1.51574
-1.51795
-1.52012
-1.52226
-1.52437
-1.52644
-1.52848
-1.53048
-1.53245
-1.53439
-1.5363
-1.53818
-1.54003
-1.54185
-1.54364
-1.5454
-1.54714
-1.54884
-1.55052
-1.55218
-1.55381
-1.55541
-1.55699
-1.55854
-1.56008
-1.56158
-1.56304
-1.19509
-1.19499
-1.19535
-1.19603
-1.19702
-1.19832
-1.1999
-1.20174
-1.20384
-1.20618
-1.20874
-1.2115
-1.21446
-1.2176
-1.22091
-1.22437
-1.22797
-1.23171
-1.23556
-1.23953
-1.2436
-1.24776
-1.252
-1.25631
-1.26069
-1.26513
-1.26961
-1.27414
-1.2787
-1.28329
-1.2879
-1.29254
-1.29718
-1.30183
-1.30649
-1.31114
-1.31578
-1.32042
-1.32504
-1.32964
-1.33423
-1.33879
-1.34332
-1.34783
-1.3523
-1.35674
-1.36114
-1.36551
-1.36984
-1.37413
-1.37837
-1.38258
-1.38674
-1.39085
-1.39492
-1.39894
-1.40291
-1.40684
-1.41071
-1.41454
-1.41832
-1.42205
-1.42573
-1.42935
-1.43293
-1.43646
-1.43994
-1.44337
-1.44675
-1.45008
-1.45336
-1.45659
-1.45978
-1.46291
-1.466
-1.46904
-1.47204
-1.47498
-1.47788
-1.48074
-1.48355
-1.48631
-1.48904
-1.49171
-1.49435
-1.49694
-1.49949
-1.502
-1.50447
-1.5069
-1.50929
-1.51164
-1.51396
-1.51623
-1.51847
-1.52067
-1.52284
-1.52497
-1.52707
-1.52913
-1.53116
-1.53316
-1.53513
-1.53706
-1.53896
-1.54084
-1.54268
-1.54449
-1.54628
-1.54804
-1.54977
-1.55147
-1.55314
-1.5548
-1.55642
-1.55802
-1.5596
-1.56115
-1.56268
-1.56415
-1.19331
-1.19319
-1.19352
-1.19418
-1.19515
-1.19642
-1.19799
-1.19982
-1.20191
-1.20423
-1.20678
-1.20955
-1.2125
-1.21564
-1.21895
-1.22241
-1.22602
-1.22977
-1.23363
-1.23761
-1.24169
-1.24587
-1.25012
-1.25445
-1.25885
-1.26331
-1.26781
-1.27236
-1.27695
-1.28157
-1.28621
-1.29087
-1.29554
-1.30022
-1.30491
-1.30959
-1.31427
-1.31894
-1.32359
-1.32823
-1.33285
-1.33744
-1.34201
-1.34655
-1.35106
-1.35554
-1.35998
-1.36439
-1.36875
-1.37308
-1.37737
-1.38161
-1.38581
-1.38996
-1.39406
-1.39812
-1.40214
-1.4061
-1.41002
-1.41388
-1.4177
-1.42147
-1.42518
-1.42885
-1.43247
-1.43603
-1.43955
-1.44302
-1.44643
-1.4498
-1.45312
-1.45639
-1.45961
-1.46278
-1.4659
-1.46898
-1.47201
-1.47499
-1.47792
-1.48081
-1.48366
-1.48646
-1.48921
-1.49192
-1.49459
-1.49722
-1.4998
-1.50234
-1.50484
-1.5073
-1.50972
-1.5121
-1.51445
-1.51675
-1.51902
-1.52125
-1.52345
-1.52561
-1.52773
-1.52982
-1.53188
-1.5339
-1.53589
-1.53785
-1.53978
-1.54168
-1.54355
-1.54539
-1.5472
-1.54898
-1.55073
-1.55246
-1.55416
-1.55583
-1.55748
-1.5591
-1.5607
-1.56228
-1.56383
-1.56531
-1.19145
-1.1913
-1.19161
-1.19225
-1.19319
-1.19445
-1.196
-1.19782
-1.19989
-1.20221
-1.20475
-1.20751
-1.21046
-1.2136
-1.21691
-1.22038
-1.22399
-1.22775
-1.23162
-1.23561
-1.23971
-1.24389
-1.24817
-1.25252
-1.25693
-1.26141
-1.26594
-1.27051
-1.27512
-1.27977
-1.28444
-1.28912
-1.29383
-1.29854
-1.30326
-1.30797
-1.31268
-1.31739
-1.32208
-1.32675
-1.33141
-1.33604
-1.34064
-1.34522
-1.34977
-1.35429
-1.35877
-1.36322
-1.36762
-1.37199
-1.37631
-1.3806
-1.38483
-1.38903
-1.39317
-1.39727
-1.40133
-1.40533
-1.40929
-1.41319
-1.41705
-1.42086
-1.42462
-1.42832
-1.43198
-1.43559
-1.43914
-1.44265
-1.4461
-1.44951
-1.45287
-1.45617
-1.45943
-1.46264
-1.4658
-1.46891
-1.47198
-1.475
-1.47797
-1.48089
-1.48377
-1.48661
-1.4894
-1.49214
-1.49484
-1.4975
-1.50012
-1.50269
-1.50522
-1.50772
-1.51017
-1.51258
-1.51496
-1.51729
-1.51959
-1.52185
-1.52408
-1.52626
-1.52842
-1.53054
-1.53262
-1.53468
-1.53669
-1.53868
-1.54064
-1.54256
-1.54446
-1.54632
-1.54816
-1.54996
-1.55174
-1.55349
-1.55522
-1.55691
-1.55859
-1.56023
-1.56185
-1.56345
-1.56502
-1.56653
-1.18953
-1.18935
-1.18962
-1.19024
-1.19116
-1.1924
-1.19393
-1.19573
-1.1978
-1.2001
-1.20264
-1.20539
-1.20834
-1.21148
-1.21479
-1.21826
-1.22188
-1.22564
-1.22953
-1.23353
-1.23764
-1.24184
-1.24613
-1.2505
-1.25494
-1.25944
-1.26399
-1.26859
-1.27322
-1.27789
-1.28259
-1.28731
-1.29205
-1.29679
-1.30154
-1.30629
-1.31104
-1.31577
-1.3205
-1.32521
-1.3299
-1.33458
-1.33922
-1.34384
-1.34843
-1.35299
-1.35751
-1.36199
-1.36644
-1.37085
-1.37522
-1.37954
-1.38382
-1.38806
-1.39225
-1.39639
-1.40048
-1.40453
-1.40853
-1.41248
-1.41638
-1.42023
-1.42402
-1.42777
-1.43147
-1.43512
-1.43872
-1.44226
-1.44576
-1.44921
-1.4526
-1.45595
-1.45925
-1.46249
-1.46569
-1.46885
-1.47195
-1.475
-1.47801
-1.48097
-1.48389
-1.48676
-1.48959
-1.49237
-1.4951
-1.4978
-1.50045
-1.50306
-1.50562
-1.50815
-1.51063
-1.51308
-1.51549
-1.51785
-1.52018
-1.52248
-1.52473
-1.52695
-1.52914
-1.53128
-1.5334
-1.53548
-1.53753
-1.53954
-1.54153
-1.54348
-1.5454
-1.54729
-1.54915
-1.55099
-1.55279
-1.55457
-1.55632
-1.55804
-1.55974
-1.56141
-1.56305
-1.56468
-1.56627
-1.5678
-1.18753
-1.18732
-1.18757
-1.18816
-1.18906
-1.19027
-1.19179
-1.19357
-1.19562
-1.19792
-1.20045
-1.20319
-1.20614
-1.20928
-1.21259
-1.21607
-1.21969
-1.22346
-1.22736
-1.23137
-1.23549
-1.23971
-1.24402
-1.24841
-1.25286
-1.25739
-1.26196
-1.26659
-1.27125
-1.27595
-1.28068
-1.28543
-1.29019
-1.29497
-1.29976
-1.30454
-1.30932
-1.3141
-1.31886
-1.32361
-1.32835
-1.33306
-1.33774
-1.3424
-1.34703
-1.35163
-1.35619
-1.36072
-1.36521
-1.36967
-1.37408
-1.37844
-1.38277
-1.38705
-1.39128
-1.39547
-1.39961
-1.4037
-1.40774
-1.41173
-1.41567
-1.41957
-1.42341
-1.4272
-1.43094
-1.43463
-1.43827
-1.44186
-1.4454
-1.44889
-1.45233
-1.45572
-1.45905
-1.46234
-1.46558
-1.46877
-1.47192
-1.47501
-1.47806
-1.48106
-1.48401
-1.48692
-1.48978
-1.4926
-1.49538
-1.49811
-1.50079
-1.50344
-1.50604
-1.5086
-1.51112
-1.5136
-1.51604
-1.51844
-1.5208
-1.52313
-1.52541
-1.52767
-1.52988
-1.53206
-1.53421
-1.53632
-1.5384
-1.54044
-1.54245
-1.54443
-1.54638
-1.5483
-1.55019
-1.55205
-1.55388
-1.55569
-1.55746
-1.55921
-1.56094
-1.56263
-1.5643
-1.56595
-1.56757
-1.56912
-1.18547
-1.18522
-1.18544
-1.186
-1.18688
-1.18807
-1.18957
-1.19134
-1.19337
-1.19566
-1.19818
-1.20092
-1.20386
-1.207
-1.21031
-1.21379
-1.21743
-1.2212
-1.22511
-1.22913
-1.23327
-1.2375
-1.24183
-1.24624
-1.25072
-1.25526
-1.25986
-1.26451
-1.26921
-1.27394
-1.27869
-1.28348
-1.28827
-1.29309
-1.29791
-1.30273
-1.30755
-1.31236
-1.31716
-1.32195
-1.32673
-1.33148
-1.33621
-1.34091
-1.34558
-1.35022
-1.35483
-1.3594
-1.36394
-1.36844
-1.37289
-1.3773
-1.38167
-1.386
-1.39028
-1.39451
-1.39869
-1.40283
-1.40692
-1.41096
-1.41494
-1.41888
-1.42277
-1.42661
-1.43039
-1.43413
-1.43781
-1.44145
-1.44503
-1.44856
-1.45204
-1.45547
-1.45885
-1.46218
-1.46546
-1.4687
-1.47188
-1.47502
-1.47811
-1.48115
-1.48414
-1.48709
-1.48999
-1.49285
-1.49566
-1.49842
-1.50115
-1.50383
-1.50647
-1.50906
-1.51162
-1.51414
-1.51661
-1.51905
-1.52144
-1.5238
-1.52612
-1.52841
-1.53065
-1.53287
-1.53504
-1.53719
-1.53929
-1.54137
-1.54341
-1.54542
-1.5474
-1.54935
-1.55127
-1.55316
-1.55502
-1.55685
-1.55865
-1.56043
-1.56218
-1.5639
-1.5656
-1.56727
-1.56892
-1.57049
-1.18334
-1.18305
-1.18324
-1.18377
-1.18463
-1.1858
-1.18727
-1.18903
-1.19105
-1.19332
-1.19583
-1.19857
-1.20151
-1.20464
-1.20796
-1.21144
-1.21508
-1.21886
-1.22278
-1.22682
-1.23097
-1.23522
-1.23957
-1.24399
-1.2485
-1.25306
-1.25769
-1.26237
-1.26709
-1.27185
-1.27664
-1.28145
-1.28629
-1.29113
-1.29599
-1.30085
-1.30571
-1.31056
-1.31541
-1.32024
-1.32505
-1.32985
-1.33462
-1.33936
-1.34408
-1.34877
-1.35342
-1.35804
-1.36262
-1.36716
-1.37166
-1.37612
-1.38054
-1.38491
-1.38924
-1.39352
-1.39775
-1.40193
-1.40607
-1.41015
-1.41419
-1.41817
-1.42211
-1.42599
-1.42982
-1.4336
-1.43733
-1.44101
-1.44464
-1.44822
-1.45174
-1.45522
-1.45864
-1.46202
-1.46534
-1.46862
-1.47184
-1.47502
-1.47815
-1.48124
-1.48427
-1.48726
-1.4902
-1.4931
-1.49595
-1.49875
-1.50152
-1.50424
-1.50691
-1.50955
-1.51214
-1.51469
-1.5172
-1.51967
-1.52211
-1.5245
-1.52686
-1.52917
-1.53145
-1.5337
-1.53591
-1.53809
-1.54023
-1.54233
-1.54441
-1.54645
-1.54846
-1.55044
-1.55239
-1.55431
-1.5562
-1.55806
-1.55989
-1.56169
-1.56347
-1.56522
-1.56694
-1.56865
-1.57031
-1.57191
-1.18113
-1.18082
-1.18097
-1.18148
-1.1823
-1.18345
-1.1849
-1.18664
-1.18865
-1.19091
-1.19341
-1.19614
-1.19908
-1.20221
-1.20553
-1.20901
-1.21266
-1.21645
-1.22038
-1.22443
-1.22859
-1.23286
-1.23723
-1.24167
-1.2462
-1.25079
-1.25545
-1.26015
-1.2649
-1.26969
-1.27452
-1.27936
-1.28423
-1.28912
-1.29401
-1.29891
-1.30381
-1.3087
-1.31359
-1.31846
-1.32332
-1.32816
-1.33297
-1.33776
-1.34253
-1.34726
-1.35196
-1.35662
-1.36125
-1.36584
-1.37039
-1.3749
-1.37937
-1.38379
-1.38816
-1.39249
-1.39677
-1.401
-1.40518
-1.40932
-1.4134
-1.41744
-1.42142
-1.42535
-1.42923
-1.43306
-1.43684
-1.44056
-1.44424
-1.44786
-1.45143
-1.45495
-1.45842
-1.46184
-1.46521
-1.46854
-1.47181
-1.47503
-1.4782
-1.48133
-1.4844
-1.48744
-1.49042
-1.49336
-1.49625
-1.4991
-1.5019
-1.50466
-1.50737
-1.51005
-1.51268
-1.51527
-1.51782
-1.52032
-1.52279
-1.52522
-1.52761
-1.52997
-1.53228
-1.53456
-1.53681
-1.53902
-1.54119
-1.54333
-1.54544
-1.54751
-1.54956
-1.55157
-1.55354
-1.55549
-1.55741
-1.5593
-1.56116
-1.563
-1.5648
-1.56658
-1.56834
-1.57007
-1.57176
-1.57338
-1.17887
-1.17851
-1.17864
-1.17911
-1.17991
-1.18103
-1.18246
-1.18418
-1.18618
-1.18843
-1.19092
-1.19364
-1.19657
-1.1997
-1.20302
-1.20651
-1.21016
-1.21396
-1.2179
-1.22196
-1.22614
-1.23043
-1.23481
-1.23928
-1.24383
-1.24845
-1.25313
-1.25786
-1.26265
-1.26747
-1.27232
-1.27721
-1.28211
-1.28703
-1.29197
-1.2969
-1.30184
-1.30678
-1.31171
-1.31662
-1.32153
-1.32641
-1.33127
-1.33611
-1.34092
-1.3457
-1.35045
-1.35516
-1.35984
-1.36448
-1.36908
-1.37364
-1.37815
-1.38262
-1.38705