/*--------------------------------*- C++ -*----------------------------------*\
  =========                 |
  \\      /  F ield         | OpenFOAM: The Open Source CFD Toolbox
   \\    /   O peration     | Website:  https://openfoam.org
    \\  /    A nd           | Version:  8
     \\/     M anipulation  |
\*---------------------------------------------------------------------------*/
FoamFile
{
    version     2.0;
    format      ascii;
    class       volScalarField;
    location    "15";
    object      nut;
}
// * * * * * * * * * * * * * * * * * * * * * * * * * * * * * * * * * * * * * //

dimensions      [0 2 -1 0 0 0 0];

internalField   nonuniform List<scalar> 
277560
(
0.139646
0.13895
0.138261
0.137573
0.136878
0.136176
0.135463
0.13474
0.134008
0.133267
0.132519
0.131768
0.131014
0.130261
0.129511
0.128767
0.12803
0.127305
0.126593
0.125897
0.125218
0.124559
0.123923
0.123311
0.122725
0.122168
0.12164
0.121143
0.12068
0.12025
0.119857
0.119499
0.119178
0.118895
0.118651
0.118444
0.118274
0.118143
0.118048
0.11799
0.117966
0.117977
0.11802
0.118094
0.118198
0.11833
0.118488
0.11867
0.118874
0.119099
0.119342
0.119602
0.119876
0.120164
0.120464
0.120773
0.12109
0.121414
0.121744
0.122078
0.122415
0.122753
0.123093
0.123433
0.123772
0.124109
0.124444
0.124777
0.125106
0.125431
0.125753
0.12607
0.126382
0.12669
0.126993
0.12729
0.127582
0.127869
0.128151
0.128427
0.128698
0.128964
0.129224
0.129479
0.129729
0.129974
0.130213
0.130448
0.130678
0.130904
0.131124
0.13134
0.131552
0.13176
0.131963
0.132162
0.132357
0.132548
0.132736
0.132919
0.133099
0.133276
0.133449
0.133619
0.133786
0.133949
0.134109
0.134267
0.134421
0.134573
0.134721
0.134867
0.13501
0.135151
0.135289
0.135425
0.135558
0.135689
0.135817
0.135943
0.139648
0.138956
0.13827
0.137584
0.136891
0.136189
0.135476
0.134753
0.13402
0.133279
0.132531
0.131778
0.131024
0.13027
0.129519
0.128773
0.128037
0.12731
0.126598
0.1259
0.125221
0.124562
0.123925
0.123313
0.122727
0.122168
0.12164
0.121143
0.12068
0.12025
0.119856
0.119498
0.119177
0.118894
0.118649
0.118442
0.118273
0.118142
0.118047
0.117989
0.117966
0.117977
0.11802
0.118095
0.1182
0.118332
0.118491
0.118673
0.118879
0.119104
0.119349
0.11961
0.119886
0.120175
0.120476
0.120786
0.121105
0.121431
0.121762
0.122097
0.122435
0.122775
0.123117
0.123458
0.123798
0.124136
0.124473
0.124807
0.125137
0.125464
0.125786
0.126104
0.126418
0.126726
0.12703
0.127328
0.127621
0.127909
0.128191
0.128467
0.128739
0.129005
0.129265
0.129521
0.129771
0.130016
0.130255
0.13049
0.13072
0.130946
0.131166
0.131382
0.131594
0.131801
0.132004
0.132202
0.132397
0.132588
0.132775
0.132958
0.133137
0.133313
0.133486
0.133655
0.133821
0.133984
0.134143
0.1343
0.134453
0.134604
0.134752
0.134897
0.135039
0.135179
0.135316
0.13545
0.135582
0.135712
0.135839
0.135964
0.139653
0.138968
0.138289
0.137606
0.136915
0.136215
0.135503
0.134779
0.134045
0.133303
0.132553
0.131799
0.131043
0.130287
0.129534
0.128787
0.128049
0.127321
0.126607
0.125908
0.125228
0.124567
0.12393
0.123316
0.122729
0.12217
0.121641
0.121144
0.120679
0.120249
0.119854
0.119496
0.119175
0.118892
0.118646
0.118439
0.11827
0.118139
0.118045
0.117987
0.117964
0.117976
0.118021
0.118097
0.118203
0.118336
0.118497
0.118681
0.118888
0.119116
0.119363
0.119626
0.119905
0.120197
0.1205
0.120814
0.121135
0.121464
0.121798
0.122136
0.122477
0.12282
0.123164
0.123508
0.123851
0.124192
0.124531
0.124868
0.1252
0.125529
0.125854
0.126174
0.126489
0.1268
0.127105
0.127405
0.127699
0.127988
0.128271
0.128549
0.128821
0.129088
0.129349
0.129605
0.129855
0.1301
0.13034
0.130575
0.130805
0.13103
0.13125
0.131466
0.131677
0.131884
0.132086
0.132284
0.132478
0.132668
0.132854
0.133036
0.133214
0.133389
0.13356
0.133728
0.133893
0.134054
0.134212
0.134367
0.134519
0.134667
0.134813
0.134957
0.135097
0.135235
0.13537
0.135502
0.135632
0.13576
0.135885
0.136007
0.13966
0.138988
0.138317
0.13764
0.136952
0.136253
0.135542
0.134818
0.134083
0.133339
0.132587
0.13183
0.131072
0.130313
0.129558
0.128808
0.128067
0.127337
0.126621
0.12592
0.125238
0.124576
0.123937
0.123322
0.122733
0.122173
0.121643
0.121144
0.120679
0.120248
0.119853
0.119494
0.119172
0.118888
0.118643
0.118436
0.118267
0.118136
0.118042
0.117985
0.117964
0.117977
0.118023
0.1181
0.118208
0.118344
0.118507
0.118694
0.118904
0.119135
0.119385
0.119653
0.119935
0.120231
0.120538
0.120856
0.121182
0.121514
0.121853
0.122195
0.122541
0.122888
0.123236
0.123584
0.123931
0.124277
0.12462
0.124959
0.125296
0.125628
0.125956
0.126279
0.126597
0.12691
0.127218
0.12752
0.127816
0.128107
0.128392
0.128671
0.128944
0.129212
0.129474
0.129731
0.129982
0.130228
0.130468
0.130703
0.130933
0.131157
0.131377
0.131593
0.131803
0.132009
0.13221
0.132407
0.1326
0.132789
0.132973
0.133154
0.133331
0.133504
0.133673
0.133839
0.134002
0.134161
0.134317
0.134469
0.134619
0.134765
0.134908
0.135049
0.135187
0.135321
0.135453
0.135583
0.135709
0.135833
0.135955
0.136074
0.139672
0.139015
0.138355
0.137684
0.137002
0.136305
0.135594
0.134869
0.134133
0.133386
0.132632
0.131872
0.131109
0.130347
0.129588
0.128835
0.128091
0.127358
0.126639
0.125936
0.125252
0.124588
0.123946
0.12333
0.12274
0.122178
0.121646
0.121147
0.12068
0.120248
0.119852
0.119492
0.11917
0.118886
0.11864
0.118433
0.118264
0.118133
0.11804
0.117984
0.117964
0.117979
0.118027
0.118107
0.118217
0.118356
0.118522
0.118713
0.118927
0.119162
0.119416
0.119688
0.119975
0.120276
0.120589
0.120912
0.121243
0.121582
0.121926
0.122274
0.122626
0.122979
0.123333
0.123686
0.124039
0.124389
0.124737
0.125082
0.125423
0.12576
0.126092
0.126419
0.126741
0.127058
0.127368
0.127673
0.127973
0.128266
0.128553
0.128834
0.12911
0.129379
0.129642
0.1299
0.130152
0.130398
0.130639
0.130874
0.131104
0.131328
0.131548
0.131762
0.131972
0.132177
0.132377
0.132573
0.132765
0.132952
0.133135
0.133314
0.133489
0.13366
0.133827
0.133991
0.134151
0.134307
0.134461
0.13461
0.134757
0.1349
0.13504
0.135178
0.135312
0.135443
0.135571
0.135696
0.135819
0.135939
0.136056
0.13617
0.139689
0.139052
0.138404
0.137741
0.137063
0.136369
0.135658
0.134933
0.134194
0.133445
0.132686
0.131923
0.131156
0.130389
0.129626
0.128869
0.128121
0.127385
0.126662
0.125956
0.125269
0.124602
0.123959
0.12334
0.122748
0.122185
0.121651
0.12115
0.120682
0.120249
0.119851
0.119491
0.119168
0.118883
0.118637
0.11843
0.118262
0.118132
0.118039
0.117985
0.117966
0.117982
0.118033
0.118115
0.118229
0.118371
0.118541
0.118736
0.118955
0.119195
0.119455
0.119733
0.120026
0.120333
0.120653
0.120982
0.121321
0.121667
0.122018
0.122374
0.122732
0.123092
0.123453
0.123814
0.124173
0.124531
0.124885
0.125236
0.125583
0.125925
0.126263
0.126595
0.126922
0.127243
0.127558
0.127867
0.12817
0.128466
0.128756
0.12904
0.129318
0.129589
0.129854
0.130113
0.130366
0.130612
0.130853
0.131089
0.131318
0.131542
0.131761
0.131975
0.132183
0.132387
0.132585
0.132779
0.132969
0.133154
0.133335
0.133511
0.133683
0.133852
0.134016
0.134177
0.134334
0.134487
0.134636
0.134783
0.134925
0.135065
0.135201
0.135334
0.135464
0.135591
0.135714
0.135835
0.135952
0.136067
0.136179
0.136287
0.139708
0.139096
0.138463
0.13781
0.137137
0.136445
0.135735
0.135009
0.134267
0.133514
0.132751
0.131983
0.131211
0.130439
0.129671
0.128909
0.128156
0.127416
0.12669
0.12598
0.12529
0.12462
0.123974
0.123353
0.122759
0.122193
0.121658
0.121155
0.120686
0.120251
0.119852
0.119491
0.119167
0.118882
0.118635
0.118428
0.11826
0.118131
0.118039
0.117986
0.117969
0.117988
0.118041
0.118127
0.118244
0.11839
0.118565
0.118765
0.11899
0.119236
0.119502
0.119787
0.120087
0.120402
0.120729
0.121067
0.121414
0.121769
0.122129
0.122493
0.12286
0.123229
0.123599
0.123968
0.124336
0.124701
0.125064
0.125422
0.125776
0.126126
0.12647
0.126808
0.12714
0.127465
0.127784
0.128096
0.128402
0.1287
0.128992
0.129277
0.129555
0.129827
0.130092
0.130351
0.130603
0.130849
0.131089
0.131323
0.131552
0.131774
0.131991
0.132203
0.132409
0.132611
0.132807
0.132998
0.133185
0.133367
0.133545
0.133718
0.133887
0.134052
0.134213
0.13437
0.134523
0.134672
0.134818
0.13496
0.135099
0.135234
0.135366
0.135494
0.13562
0.135742
0.135861
0.135977
0.136089
0.136199
0.136306
0.13641
0.139725
0.139139
0.138525
0.137886
0.137221
0.136534
0.135825
0.135096
0.134352
0.133594
0.132826
0.132052
0.131274
0.130496
0.129722
0.128954
0.128197
0.127451
0.126721
0.126008
0.125314
0.124641
0.123992
0.123368
0.122772
0.122204
0.121667
0.121162
0.120691
0.120255
0.119855
0.119492
0.119167
0.118881
0.118635
0.118427
0.118259
0.118131
0.118041
0.117989
0.117974
0.117995
0.118051
0.118141
0.118262
0.118414
0.118593
0.118799
0.11903
0.119283
0.119557
0.11985
0.120159
0.120483
0.120819
0.121167
0.121523
0.121888
0.122258
0.122633
0.123011
0.12339
0.12377
0.124149
0.124527
0.124901
0.125272
0.125638
0.125998
0.126353
0.126701
0.127043
0.127378
0.127706
0.128027
0.128341
0.128647
0.128946
0.129239
0.129524
0.129802
0.130073
0.130338
0.130595
0.130847
0.131091
0.13133
0.131562
0.131788
0.132009
0.132224
0.132433
0.132637
0.132835
0.133029
0.133217
0.133401
0.13358
0.133754
0.133924
0.134089
0.13425
0.134408
0.134561
0.13471
0.134855
0.134996
0.135134
0.135269
0.135399
0.135527
0.135651
0.135771
0.135889
0.136003
0.136114
0.136223
0.136328
0.13643
0.136529
0.139741
0.13918
0.138586
0.137961
0.137308
0.136628
0.135923
0.135195
0.134448
0.133685
0.132911
0.132129
0.131344
0.13056
0.129779
0.129005
0.128241
0.127491
0.126756
0.126038
0.125341
0.124665
0.124013
0.123386
0.122787
0.122217
0.121678
0.121171
0.120698
0.12026
0.119858
0.119494
0.119169
0.118882
0.118635
0.118428
0.11826
0.118132
0.118043
0.117993
0.117981
0.118005
0.118064
0.118158
0.118284
0.11844
0.118626
0.118839
0.119077
0.119338
0.11962
0.119922
0.12024
0.120574
0.120921
0.12128
0.121648
0.122024
0.122406
0.122793
0.123183
0.123574
0.123964
0.124353
0.124739
0.12512
0.125496
0.125867
0.126232
0.12659
0.126941
0.127286
0.127622
0.127952
0.128274
0.128589
0.128896
0.129195
0.129487
0.129772
0.130049
0.13032
0.130583
0.130839
0.131089
0.131332
0.131569
0.131799
0.132023
0.132241
0.132453
0.13266
0.132861
0.133056
0.133246
0.133432
0.133612
0.133787
0.133958
0.134124
0.134285
0.134443
0.134596
0.134745
0.13489
0.135031
0.135168
0.135301
0.135431
0.135557
0.13568
0.1358
0.135916
0.136029
0.136139
0.136245
0.136349
0.136449
0.136547
0.136642
0.139755
0.139218
0.138642
0.138033
0.137392
0.136722
0.136023
0.135298
0.134551
0.133785
0.133005
0.132215
0.131422
0.13063
0.129841
0.12906
0.12829
0.127534
0.126794
0.126072
0.125371
0.124691
0.124036
0.123406
0.122804
0.122232
0.12169
0.121181
0.120706
0.120267
0.119864
0.119498
0.119172
0.118884
0.118637
0.118429
0.118262
0.118135
0.118047
0.117999
0.117989
0.118016
0.118079
0.118177
0.118308
0.118471
0.118663
0.118883
0.119129
0.119399
0.119691
0.120002
0.120332
0.120677
0.121036
0.121407
0.121789
0.122178
0.122573
0.122972
0.123373
0.123773
0.124172
0.124568
0.124959
0.125346
0.125726
0.126101
0.126469
0.126829
0.127183
0.127529
0.127867
0.128197
0.12852
0.128835
0.129142
0.129441
0.129733
0.130017
0.130294
0.130563
0.130825
0.13108
0.131327
0.131568
0.131803
0.132031
0.132252
0.132468
0.132677
0.132881
0.133078
0.133271
0.133458
0.133639
0.133816
0.133988
0.134154
0.134317
0.134474
0.134627
0.134776
0.134921
0.135062
0.135198
0.135331
0.13546
0.135586
0.135707
0.135826
0.135941
0.136052
0.136161
0.136266
0.136368
0.136467
0.136563
0.136656
0.136747
0.139767
0.139252
0.138695
0.138101
0.137473
0.136812
0.136121
0.135402
0.134657
0.13389
0.133105
0.132309
0.131507
0.130705
0.129908
0.12912
0.128343
0.127581
0.126835
0.126109
0.125403
0.12472
0.124061
0.123429
0.122824
0.122249
0.121705
0.121194
0.120717
0.120275
0.119871
0.119504
0.119176
0.118888
0.11864
0.118432
0.118265
0.118139
0.118053
0.118006
0.117999
0.118029
0.118096
0.118199
0.118336
0.118504
0.118704
0.118932
0.119186
0.119466
0.119768
0.120091
0.120432
0.12079
0.121163
0.121548
0.121943
0.122346
0.122753
0.123162
0.123571
0.123979
0.124384
0.124785
0.125181
0.125572
0.125956
0.126333
0.126704
0.127067
0.127422
0.127769
0.128108
0.128439
0.128762
0.129077
0.129384
0.129683
0.129974
0.130257
0.130533
0.130801
0.131061
0.131314
0.13156
0.131799
0.132031
0.132256
0.132475
0.132688
0.132894
0.133095
0.133289
0.133478
0.133662
0.13384
0.134013
0.13418
0.134343
0.134501
0.134655
0.134804
0.134949
0.135089
0.135225
0.135358
0.135486
0.135611
0.135732
0.135849
0.135963
0.136073
0.13618
0.136284
0.136385
0.136482
0.136577
0.136669
0.136757
0.136843
0.139778
0.139284
0.138744
0.138165
0.137549
0.136898
0.136215
0.135502
0.13476
0.133995
0.133209
0.132407
0.131598
0.130786
0.12998
0.129183
0.128399
0.12763
0.126879
0.126148
0.125438
0.124751
0.124089
0.123454
0.122846
0.122268
0.121722
0.121209
0.120729
0.120286
0.119879
0.119511
0.119182
0.118893
0.118644
0.118437
0.11827
0.118145
0.11806
0.118015
0.118011
0.118044
0.118116
0.118223
0.118366
0.118541
0.118748
0.118985
0.119249
0.119539
0.119852
0.120187
0.120542
0.120914
0.121301
0.1217
0.122108
0.122521
0.122938
0.123355
0.123772
0.124185
0.124596
0.125001
0.125401
0.125795
0.126182
0.126562
0.126935
0.127299
0.127656
0.128004
0.128345
0.128676
0.129
0.129315
0.129621
0.12992
0.13021
0.130492
0.130766
0.131032
0.131291
0.131542
0.131786
0.132023
0.132252
0.132475
0.132691
0.132901
0.133104
0.133301
0.133493
0.133678
0.133858
0.134032
0.134201
0.134365
0.134524
0.134678
0.134828
0.134973
0.135113
0.135249
0.135381
0.135509
0.135633
0.135753
0.13587
0.135983
0.136092
0.136198
0.1363
0.1364
0.136496
0.136589
0.136679
0.136766
0.136851
0.136932
0.139788
0.139312
0.13879
0.138225
0.137621
0.13698
0.136305
0.135597
0.13486
0.134097
0.133311
0.132507
0.131691
0.130871
0.130055
0.129249
0.128457
0.127682
0.126925
0.126189
0.125475
0.124784
0.124119
0.12348
0.12287
0.12229
0.121741
0.121225
0.120744
0.120299
0.11989
0.11952
0.11919
0.1189
0.118651
0.118443
0.118276
0.118152
0.118068
0.118026
0.118024
0.118061
0.118137
0.11825
0.118398
0.118581
0.118796
0.119041
0.119316
0.119617
0.119942
0.120291
0.120659
0.121046
0.121447
0.121858
0.122277
0.122699
0.123123
0.123548
0.12397
0.124389
0.124804
0.125213
0.125617
0.126014
0.126404
0.126786
0.12716
0.127527
0.127885
0.128234
0.128575
0.128907
0.129231
0.129546
0.129852
0.13015
0.130439
0.13072
0.130993
0.131258
0.131515
0.131764
0.132005
0.13224
0.132467
0.132687
0.1329
0.133107
0.133307
0.133501
0.133689
0.133871
0.134047
0.134218
0.134383
0.134543
0.134698
0.134848
0.134993
0.135134
0.13527
0.135402
0.13553
0.135653
0.135773
0.135888
0.136
0.136109
0.136214
0.136315
0.136413
0.136508
0.1366
0.136688
0.136774
0.136857
0.136937
0.137014
0.139798
0.139339
0.138831
0.13828
0.137687
0.137056
0.136388
0.135687
0.134955
0.134195
0.13341
0.132605
0.131785
0.130958
0.130133
0.129317
0.128517
0.127735
0.126973
0.126232
0.125514
0.124819
0.124151
0.123509
0.122897
0.122314
0.121762
0.121244
0.120761
0.120313
0.119903
0.119532
0.1192
0.118909
0.118659
0.11845
0.118284
0.11816
0.118078
0.118038
0.118039
0.11808
0.11816
0.118278
0.118433
0.118623
0.118846
0.119101
0.119386
0.119699
0.120038
0.1204
0.120783
0.121183
0.121596
0.122018
0.122445
0.122875
0.123306
0.123736
0.124164
0.124587
0.125006
0.12542
0.125827
0.126227
0.126619
0.127004
0.12738
0.127748
0.128107
0.128458
0.128799
0.129132
0.129455
0.12977
0.130076
0.130373
0.130662
0.130942
0.131213
0.131476
0.131732
0.131979
0.132218
0.13245
0.132675
0.132892
0.133103
0.133306
0.133503
0.133694
0.133878
0.134057
0.134229
0.134396
0.134558
0.134714
0.134865
0.135011
0.135152
0.135288
0.13542
0.135548
0.135671
0.13579
0.135905
0.136017
0.136124
0.136228
0.136328
0.136425
0.136519
0.13661
0.136697
0.136781
0.136862
0.136941
0.137016
0.137089
0.139806
0.139363
0.13887
0.13833
0.137748
0.137126
0.136467
0.135772
0.135044
0.134287
0.133504
0.132698
0.131876
0.131044
0.130211
0.129387
0.128578
0.127789
0.127022
0.126276
0.125554
0.124856
0.124185
0.123541
0.122925
0.12234
0.121786
0.121266
0.12078
0.12033
0.119918
0.119545
0.119212
0.118919
0.118668
0.11846
0.118294
0.11817
0.11809
0.118051
0.118055
0.1181
0.118184
0.118308
0.118469
0.118667
0.118899
0.119164
0.11946
0.119785
0.120137
0.120513
0.12091
0.121322
0.121745
0.122176
0.122611
0.123048
0.123485
0.12392
0.124352
0.12478
0.125203
0.12562
0.12603
0.126433
0.126828
0.127215
0.127593
0.127963
0.128323
0.128675
0.129017
0.12935
0.129674
0.129988
0.130294
0.13059
0.130878
0.131157
0.131427
0.131689
0.131942
0.132187
0.132425
0.132654
0.132876
0.133091
0.133299
0.133499
0.133693
0.13388
0.134061
0.134236
0.134405
0.134568
0.134726
0.134878
0.135025
0.135167
0.135304
0.135436
0.135564
0.135687
0.135806
0.135921
0.136032
0.136139
0.136242
0.136341
0.136437
0.13653
0.136619
0.136705
0.136788
0.136868
0.136945
0.137019
0.13709
0.137159
0.139814
0.139385
0.138905
0.138377
0.137805
0.137192
0.136539
0.13585
0.135128
0.134374
0.133592
0.132787
0.131963
0.131127
0.130288
0.129456
0.12864
0.127844
0.127071
0.126321
0.125596
0.124895
0.124221
0.123574
0.122956
0.122368
0.121812
0.121289
0.120801
0.12035
0.119936
0.119561
0.119226
0.118932
0.11868
0.118471
0.118305
0.118182
0.118103
0.118066
0.118072
0.118121
0.11821
0.118339
0.118507
0.118712
0.118953
0.119229
0.119536
0.119874
0.120239
0.120629
0.121037
0.121459
0.121891
0.12233
0.122772
0.123215
0.123657
0.124098
0.124535
0.124967
0.125394
0.125814
0.126227
0.126633
0.127031
0.12742
0.1278
0.128171
0.128533
0.128885
0.129228
0.129562
0.129886
0.1302
0.130505
0.130801
0.131088
0.131366
0.131635
0.131895
0.132146
0.13239
0.132625
0.132852
0.133072
0.133284
0.133489
0.133686
0.133877
0.134061
0.134239
0.13441
0.134575
0.134735
0.134888
0.135037
0.13518
0.135318
0.13545
0.135578
0.135702
0.135821
0.135936
0.136046
0.136153
0.136255
0.136354
0.136449
0.136541
0.136629
0.136714
0.136796
0.136874
0.13695
0.137023
0.137092
0.13716
0.137224
0.139821
0.139405
0.138937
0.13842
0.137857
0.137252
0.136606
0.135923
0.135204
0.134454
0.133674
0.132869
0.132045
0.131206
0.130362
0.129523
0.1287
0.127899
0.127121
0.126368
0.125639
0.124935
0.124258
0.123609
0.122989
0.122399
0.12184
0.121315
0.120825
0.120371
0.119955
0.119578
0.119242
0.118947
0.118694
0.118484
0.118318
0.118195
0.118117
0.118082
0.118091
0.118143
0.118237
0.118371
0.118546
0.118759
0.119009
0.119294
0.119613
0.119964
0.120342
0.120744
0.121162
0.121594
0.122034
0.122479
0.122927
0.123376
0.123824
0.124269
0.12471
0.125147
0.125578
0.126001
0.126418
0.126826
0.127226
0.127618
0.128
0.128372
0.128736
0.129089
0.129433
0.129767
0.130091
0.130406
0.130711
0.131006
0.131292
0.131569
0.131836
0.132095
0.132345
0.132587
0.13282
0.133045
0.133262
0.133471
0.133673
0.133868
0.134055
0.134236
0.134411
0.134578
0.13474
0.134896
0.135046
0.13519
0.135329
0.135463
0.135592
0.135716
0.135835
0.13595
0.13606
0.136167
0.136269
0.136367
0.136462
0.136553
0.13664
0.136724
0.136804
0.136882
0.136956
0.137028
0.137096
0.137162
0.137224
0.137285
0.139827
0.139424
0.138966
0.138459
0.137905
0.137307
0.136667
0.135989
0.135275
0.134527
0.13375
0.132946
0.132121
0.13128
0.130432
0.129589
0.12876
0.127953
0.127171
0.126414
0.125683
0.124977
0.124298
0.123646
0.123024
0.122432
0.121871
0.121344
0.120852
0.120396
0.119978
0.119599
0.11926
0.118964
0.11871
0.118499
0.118332
0.11821
0.118133
0.1181
0.118111
0.118166
0.118264
0.118404
0.118585
0.118806
0.119065
0.119361
0.119691
0.120054
0.120444
0.120856
0.121284
0.121723
0.12217
0.122622
0.123076
0.123531
0.123984
0.124434
0.124879
0.12532
0.125754
0.126182
0.126601
0.127013
0.127415
0.127809
0.128193
0.128568
0.128932
0.129287
0.129632
0.129966
0.130291
0.130605
0.13091
0.131205
0.13149
0.131766
0.132033
0.13229
0.132538
0.132778
0.133009
0.133232
0.133447
0.133654
0.133853
0.134045
0.134229
0.134407
0.134578
0.134742
0.134901
0.135053
0.135199
0.13534
0.135475
0.135605
0.135729
0.135849
0.135964
0.136075
0.136181
0.136283
0.136381
0.136475
0.136565
0.136652
0.136735
0.136815
0.136891
0.136964
0.137034
0.137101
0.137166
0.137227
0.137286
0.137342
0.139833
0.13944
0.138993
0.138494
0.137948
0.137356
0.136723
0.136049
0.135339
0.134594
0.133819
0.133016
0.13219
0.131348
0.130498
0.12965
0.128817
0.128006
0.127221
0.126462
0.125728
0.12502
0.124339
0.123686
0.123062
0.122467
0.121905
0.121376
0.120881
0.120423
0.120003
0.119622
0.119282
0.118983
0.118728
0.118516
0.118349
0.118227
0.11815
0.118118
0.118132
0.11819
0.118292
0.118437
0.118625
0.118853
0.119121
0.119427
0.119768
0.120143
0.120544
0.120965
0.121401
0.121848
0.122301
0.122759
0.123219
0.123679
0.124137
0.124591
0.125041
0.125486
0.125924
0.126355
0.126778
0.127192
0.127598
0.127994
0.12838
0.128756
0.129122
0.129478
0.129824
0.130159
0.130485
0.130799
0.131104
0.131399
0.131683
0.131958
0.132224
0.13248
0.132727
0.132965
0.133194
0.133415
0.133627
0.133831
0.134028
0.134217
0.134399
0.134573
0.134741
0.134902
0.135057
0.135206
0.135348
0.135485
0.135616
0.135742
0.135863
0.135979
0.13609
0.136197
0.136299
0.136396
0.13649
0.13658
0.136666
0.136748
0.136827
0.136902
0.136974
0.137043
0.137109
0.137172
0.137232
0.137289
0.137344
0.137396
0.139838
0.139455
0.139017
0.138526
0.137987
0.137401
0.136773
0.136104
0.135397
0.134655
0.133881
0.133079
0.132253
0.131411
0.130558
0.129708
0.128871
0.128058
0.12727
0.126509
0.125774
0.125065
0.124382
0.123728
0.123102
0.122506
0.121942
0.12141
0.120914
0.120453
0.120031
0.119648
0.119305
0.119005
0.118748
0.118535
0.118367
0.118245
0.118168
0.118138
0.118153
0.118214
0.11832
0.11847
0.118664
0.118899
0.119176
0.119492
0.119844
0.120229
0.120639
0.121069
0.121512
0.121966
0.122426
0.122889
0.123355
0.12382
0.124283
0.124742
0.125196
0.125645
0.126087
0.126522
0.126948
0.127365
0.127773
0.128172
0.12856
0.128939
0.129307
0.129664
0.130011
0.130347
0.130673
0.130988
0.131293
0.131587
0.131871
0.132146
0.13241
0.132665
0.132911
0.133147
0.133374
0.133593
0.133803
0.134005
0.134199
0.134386
0.134565
0.134736
0.134901
0.135059
0.13521
0.135355
0.135494
0.135627
0.135755
0.135877
0.135994
0.136106
0.136213
0.136315
0.136413
0.136507
0.136596
0.136682
0.136764
0.136842
0.136916
0.136987
0.137055
0.13712
0.137182
0.13724
0.137296
0.137349
0.137399
0.137447
0.139843
0.139469
0.139038
0.138555
0.138021
0.137442
0.136818
0.136153
0.135449
0.134709
0.133937
0.133135
0.13231
0.131467
0.130613
0.129761
0.128922
0.128108
0.127319
0.126557
0.125821
0.125111
0.124428
0.123772
0.123145
0.122547
0.121981
0.121448
0.120949
0.120487
0.120062
0.119677
0.119332
0.11903
0.118771
0.118557
0.118388
0.118265
0.118188
0.118159
0.118176
0.118239
0.118349
0.118503
0.118702
0.118945
0.119229
0.119555
0.119917
0.120311
0.12073
0.121167
0.121618
0.122078
0.122543
0.123013
0.123484
0.123954
0.124421
0.124885
0.125344
0.125797
0.126243
0.126681
0.127111
0.127532
0.127943
0.128344
0.128735
0.129115
0.129485
0.129844
0.130192
0.130529
0.130856
0.131171
0.131476
0.131771
0.132055
0.132329
0.132592
0.132846
0.13309
0.133325
0.133551
0.133768
0.133976
0.134176
0.134368
0.134551
0.134727
0.134896
0.135058
0.135212
0.13536
0.135502
0.135638
0.135767
0.135891
0.136009
0.136122
0.13623
0.136333
0.136432
0.136526
0.136615
0.136701
0.136782
0.136859
0.136933
0.137004
0.13707
0.137134
0.137194
0.137252
0.137306
0.137358
0.137407
0.137453
0.137496
0.139847
0.139481
0.139057
0.13858
0.138052
0.137477
0.136857
0.136195
0.135494
0.134757
0.133986
0.133185
0.13236
0.131517
0.130663
0.12981
0.128971
0.128156
0.127368
0.126606
0.12587
0.125159
0.124476
0.123819
0.123191
0.122592
0.122024
0.121489
0.120988
0.120524
0.120097
0.119709
0.119362
0.119057
0.118797
0.118581
0.11841
0.118286
0.11821
0.118181
0.118199
0.118264
0.118377
0.118536
0.11874
0.118989
0.119281
0.119615
0.119986
0.120389
0.120816
0.12126
0.121717
0.122183
0.122655
0.12313
0.123606
0.124081
0.124553
0.125022
0.125485
0.125943
0.126393
0.126835
0.127268
0.127692
0.128106
0.12851
0.128903
0.129286
0.129658
0.130018
0.130368
0.130706
0.131034
0.13135
0.131655
0.13195
0.132234
0.132507
0.13277
0.133023
0.133267
0.1335
0.133724
0.13394
0.134146
0.134343
0.134533
0.134714
0.134888
0.135053
0.135212
0.135364
0.135509
0.135647
0.135779
0.135905
0.136025
0.13614
0.136249
0.136353
0.136452
0.136547
0.136636
0.136722
0.136803
0.13688
0.136954
0.137023
0.137089
0.137152
0.137211
0.137267
0.13732
0.137371
0.137418
0.137462
0.137504
0.137544
0.139851
0.139491
0.139074
0.138602
0.138079
0.137508
0.136892
0.136233
0.135534
0.134798
0.134028
0.133229
0.132404
0.13156
0.130707
0.129854
0.129016
0.128203
0.127416
0.126655
0.125919
0.12521
0.124526
0.123869
0.12324
0.12264
0.122071
0.121534
0.121031
0.120564
0.120135
0.119744
0.119395
0.119088
0.118825
0.118607
0.118435
0.11831
0.118233
0.118203
0.118222
0.11829
0.118405
0.118567
0.118776
0.119031
0.11933
0.119672
0.120052
0.120462
0.120896
0.121346
0.121809
0.122281
0.122759
0.123239
0.12372
0.124201
0.124678
0.125152
0.12562
0.126081
0.126535
0.126981
0.127418
0.127845
0.128263
0.12867
0.129066
0.129451
0.129825
0.130187
0.130539
0.130878
0.131207
0.131524
0.13183
0.132125
0.132409
0.132682
0.132945
0.133197
0.133439
0.133672
0.133895
0.134108
0.134313
0.134509
0.134696
0.134875
0.135046
0.135209
0.135365
0.135513
0.135655
0.13579
0.135919
0.136041
0.136158
0.136269
0.136374
0.136475
0.13657
0.13666
0.136746
0.136828
0.136905
0.136978
0.137047
0.137112
0.137174
0.137232
0.137287
0.137339
0.137388
0.137434
0.137477
0.137517
0.137555
0.13759
0.139854
0.1395
0.139088
0.138621
0.138102
0.137535
0.136921
0.136265
0.135568
0.134833
0.134065
0.133266
0.132442
0.131598
0.130745
0.129894
0.129059
0.128248
0.127464
0.126705
0.125971
0.125262
0.124579
0.123922
0.123292
0.122691
0.122121
0.121583
0.121078
0.120609
0.120177
0.119784
0.119432
0.119122
0.118856
0.118636
0.118462
0.118336
0.118257
0.118228
0.118247
0.118315
0.118432
0.118598
0.118811
0.119071
0.119377
0.119726
0.120113
0.12053
0.12097
0.121427
0.121896
0.122373
0.122856
0.123342
0.123828
0.124314
0.124796
0.125274
0.125747
0.126213
0.126671
0.127121
0.127562
0.127993
0.128414
0.128824
0.129223
0.12961
0.129987
0.130351
0.130705
0.131046
0.131376
0.131694
0.132001
0.132296
0.13258
0.132854
0.133116
0.133368
0.133609
0.133841
0.134063
0.134275
0.134478
0.134672
0.134857
0.135033
0.135202
0.135363
0.135516
0.135662
0.1358
0.135932
0.136058
0.136177
0.13629
0.136397
0.136499
0.136596
0.136687
0.136773
0.136855
0.136933
0.137006
0.137074
0.137139
0.1372
0.137258
0.137312
0.137363
0.13741
0.137455
0.137496
0.137535
0.137571
0.137604
0.137635
0.139857
0.139508
0.1391
0.138637
0.138121
0.137557
0.136946
0.136291
0.135596
0.134863
0.134095
0.133297
0.132473
0.131631
0.130779
0.129931
0.1291
0.128294
0.127513
0.126757
0.126025
0.125317
0.124635
0.123978
0.123349
0.122747
0.122175
0.121635
0.121129
0.120657
0.120222
0.119827
0.119472
0.119159
0.118891
0.118668
0.118492
0.118363
0.118283
0.118253
0.118272
0.118341
0.118459
0.118627
0.118844
0.119108
0.11942
0.119775
0.120169
0.120592
0.121038
0.121501
0.121975
0.122458
0.122946
0.123437
0.123929
0.12442
0.124907
0.12539
0.125867
0.126338
0.126801
0.127255
0.1277
0.128134
0.128559
0.128972
0.129374
0.129765
0.130144
0.130511
0.130866
0.131209
0.13154
0.13186
0.132168
0.132464
0.132748
0.133022
0.133284
0.133536
0.133777
0.134008
0.134228
0.134439
0.134641
0.134833
0.135016
0.135191
0.135357
0.135515
0.135666
0.135809
0.135945
0.136074
0.136196
0.136312
0.136422
0.136525
0.136624
0.136716
0.136804
0.136886
0.136964
0.137037
0.137106
0.137171
0.137232
0.137289
0.137342
0.137392
0.137438
0.137481
0.137521
0.137558
0.137592
0.137624
0.137653
0.137679
0.139859
0.139515
0.13911
0.13865
0.138137
0.137575
0.136966
0.136313
0.135619
0.134887
0.13412
0.133322
0.132499
0.131658
0.130809
0.129965
0.12914
0.128339
0.127563
0.12681
0.126081
0.125376
0.124695
0.124039
0.123409
0.122807
0.122234
0.121693
0.121184
0.12071
0.120273
0.119874
0.119516
0.119201
0.118929
0.118703
0.118524
0.118393
0.118311
0.118279
0.118298
0.118367
0.118486
0.118656
0.118875
0.119143
0.119459
0.11982
0.120219
0.120649
0.1211
0.121568
0.122048
0.122536
0.12303
0.123526
0.124023
0.124519
0.125011
0.125499
0.125981
0.126456
0.126924
0.127382
0.127831
0.12827
0.128698
0.129115
0.12952
0.129914
0.130295
0.130665
0.131023
0.131368
0.131701
0.132022
0.132331
0.132628
0.132913
0.133187
0.13345
0.133701
0.133942
0.134172
0.134392
0.134602
0.134802
0.134993
0.135174
0.135347
0.135511
0.135667
0.135816
0.135956
0.136089
0.136215
0.136334
0.136447
0.136553
0.136653
0.136748
0.136837
0.136921
0.137
0.137073
0.137143
0.137207
0.137268
0.137324
0.137377
0.137426
0.137471
0.137513
0.137552
0.137587
0.13762
0.13765
0.137677
0.137701
0.137723
0.139861
0.13952
0.139118
0.13866
0.13815
0.137589
0.136981
0.136329
0.135636
0.134905
0.134139
0.133342
0.13252
0.131681
0.130835
0.129998
0.12918
0.128385
0.127614
0.126866
0.12614
0.125437
0.124758
0.124103
0.123474
0.122872
0.122298
0.121755
0.121244
0.120768
0.120328
0.119926
0.119565
0.119246
0.118971
0.118741
0.118559
0.118425
0.118341
0.118307
0.118324
0.118393
0.118512
0.118683
0.118904
0.119175
0.119495
0.119861
0.120265
0.120699
0.121156
0.121629
0.122114
0.122608
0.123106
0.123608
0.12411
0.124611
0.125108
0.125601
0.126088
0.126568
0.12704
0.127503
0.127957
0.128399
0.128831
0.129252
0.129661
0.130058
0.130443
0.130815
0.131175
0.131522
0.131858
0.13218
0.132491
0.132789
0.133075
0.13335
0.133613
0.133864
0.134105
0.134335
0.134554
0.134763
0.134962
0.135152
0.135332
0.135503
0.135665
0.135819
0.135965
0.136103
0.136233
0.136356
0.136473
0.136582
0.136685
0.136782
0.136873
0.136959
0.137039
0.137113
0.137183
0.137249
0.137309
0.137366
0.137418
0.137466
0.137511
0.137552
0.137589
0.137623
0.137654
0.137682
0.137707
0.13773
0.137749
0.137766
0.139862
0.139524
0.139124
0.138668
0.138159
0.137599
0.136992
0.136341
0.135649
0.134918
0.134152
0.133356
0.132536
0.131699
0.130859
0.130029
0.12922
0.128433
0.127668
0.126925
0.126203
0.125503
0.124826
0.124172
0.123544
0.122941
0.122367
0.121822
0.12131
0.120831
0.120388
0.119983
0.119618
0.119295
0.119016
0.118783
0.118598
0.118461
0.118373
0.118337
0.118352
0.118419
0.118538
0.118709
0.118931
0.119204
0.119527
0.119897
0.120305
0.120744
0.121206
0.121684
0.122174
0.122672
0.123176
0.123683
0.12419
0.124696
0.125199