/*--------------------------------*- C++ -*----------------------------------*\
  =========                 |
  \\      /  F ield         | OpenFOAM: The Open Source CFD Toolbox
   \\    /   O peration     | Website:  https://openfoam.org
    \\  /    A nd           | Version:  8
     \\/     M anipulation  |
\*---------------------------------------------------------------------------*/
FoamFile
{
    version     2.0;
    format      ascii;
    class       volScalarField;
    location    "15";
    object      p;
}
// * * * * * * * * * * * * * * * * * * * * * * * * * * * * * * * * * * * * * //

dimensions      [0 2 -2 0 0 0 0];

internalField   nonuniform List<scalar> 
277560
(
-0.0118978
0.00234954
0.00273741
0.00556329
0.00806052
0.0105177
0.0129338
0.0153091
0.0176495
0.0199583
0.0222388
0.0244926
0.0267213
0.0289251
0.031104
0.0332573
0.0353839
0.0374822
0.0395507
0.0415868
0.0435887
0.0455533
0.0474785
0.0493613
0.051199
0.0529886
0.0547278
0.0564135
0.0580435
0.0596154
0.0611268
0.0625763
0.0639613
0.0652816
0.0665351
0.0677219
0.0688409
0.0698928
0.0708772
0.0717954
0.0726479
0.0734367
0.0741629
0.0748291
0.0754371
0.0759899
0.0764903
0.076942
0.0773481
0.0777123
0.0780378
0.0783285
0.0785878
0.0788198
0.0790279
0.0792159
0.0793876
0.0795465
0.0796961
0.0798398
0.0799811
0.0801229
0.0802686
0.0804207
0.0805823
0.0807558
0.0809439
0.0811486
0.0813723
0.0816168
0.0818842
0.0821759
0.0824938
0.082839
0.0832133
0.0836173
0.0840526
0.0845199
0.0850202
0.0855541
0.0861226
0.0867259
0.087365
0.0880399
0.0887515
0.0894995
0.090285
0.0911074
0.0919677
0.0928654
0.0938012
0.0947746
0.0957864
0.0968359
0.097924
0.0990499
0.100214
0.101417
0.102658
0.103937
0.105254
0.10661
0.108004
0.109436
0.110907
0.112417
0.113965
0.115551
0.117177
0.118841
0.120545
0.122287
0.124069
0.12589
0.12775
0.129654
0.131613
0.133579
0.135363
0.137186
-0.0109037
0.00150136
0.00286725
0.00552352
0.00804527
0.0105013
0.0129145
0.0152869
0.017624
0.0199296
0.0222068
0.0244574
0.0266828
0.0288834
0.0310591
0.0332092
0.0353326
0.0374279
0.0394931
0.0415263
0.043525
0.0454868
0.0474089
0.0492888
0.0511235
0.0529104
0.0546467
0.0563297
0.057957
0.0595262
0.0610352
0.0624817
0.0638645
0.0651818
0.066433
0.067617
0.0687337
0.0697827
0.0707648
0.0716802
0.0725304
0.0733162
0.07404
0.0747032
0.0753088
0.0758586
0.0763565
0.0768051
0.0772086
0.0775696
0.0778924
0.0781799
0.0784365
0.0786652
0.0788705
0.0790554
0.0792242
0.0793798
0.0795265
0.079667
0.0798054
0.0799439
0.0800867
0.0802356
0.0803943
0.0805646
0.0807498
0.0809513
0.0811722
0.0814135
0.081678
0.0819666
0.0822817
0.0826238
0.0829952
0.0833962
0.0838287
0.0842929
0.0847904
0.0853212
0.0858869
0.0864872
0.0871235
0.0877953
0.0885041
0.0892491
0.0900317
0.0908511
0.0917085
0.0926031
0.093536
0.0945063
0.0955151
0.0965615
0.0976465
0.0987691
0.0999305
0.101129
0.102367
0.103643
0.104957
0.106309
0.107699
0.109128
0.110595
0.1121
0.113644
0.115226
0.116847
0.118506
0.120205
0.121942
0.123718
0.125533
0.127387
0.129284
0.131236
0.133192
0.134964
0.136785
-0.0107913
0.00131486
0.00289522
0.00549347
0.00802265
0.0104741
0.0128817
0.0152485
0.0175797
0.0198795
0.0221507
0.0243955
0.0266151
0.02881
0.0309799
0.0331243
0.035242
0.0373317
0.0393913
0.0414188
0.043412
0.0453682
0.0472849
0.0491594
0.0509888
0.0527704
0.0545015
0.0561793
0.0578014
0.0593655
0.0608693
0.0623109
0.0636887
0.0650009
0.0662471
0.067426
0.0685377
0.0695816
0.0705586
0.0714689
0.0723139
0.0730945
0.073813
0.074471
0.0750712
0.0756157
0.076108
0.0765513
0.0769491
0.0773047
0.0776218
0.0779038
0.0781546
0.0783778
0.0785773
0.0787567
0.0789198
0.07907
0.0792111
0.0793463
0.0794791
0.0796126
0.0797499
0.079894
0.0800475
0.0802131
0.0803932
0.0805903
0.0808063
0.0810434
0.0813034
0.081588
0.0818986
0.082237
0.0826043
0.0830017
0.0834303
0.0838912
0.084385
0.0849128
0.0854749
0.0860724
0.0867053
0.0873746
0.0880803
0.088823
0.0896027
0.09042
0.0912747
0.0921674
0.0930978
0.0940664
0.0950729
0.0961179
0.0972007
0.0983221
0.0994814
0.100679
0.101915
0.10319
0.104502
0.105853
0.107242
0.10867
0.110136
0.11164
0.113183
0.114764
0.116384
0.118043
0.11974
0.121476
0.123251
0.125065
0.126917
0.128814
0.130763
0.132718
0.134487
0.136306
-0.0108289
0.00129995
0.00288671
0.00546288
0.00799052
0.0104335
0.0128326
0.0151906
0.017513
0.0198038
0.0220663
0.0243024
0.0265133
0.0286995
0.0308609
0.0329967
0.035106
0.0371871
0.0392383
0.0412575
0.0432423
0.0451903
0.0470988
0.0489651
0.0507865
0.0525601
0.0542832
0.0559532
0.0575675
0.0591238
0.0606199
0.0620539
0.0634238
0.0647286
0.0659669
0.0671384
0.0682421
0.0692786
0.0702476
0.0711502
0.0719871
0.0727601
0.0734704
0.0741206
0.0747123
0.0752489
0.0757327
0.0761678
0.0765569
0.0769042
0.0772125
0.0774862
0.0777282
0.077943
0.0781337
0.0783047
0.078459
0.0786009
0.0787333
0.0788604
0.0789848
0.0791103
0.0792394
0.0793757
0.0795212
0.0796794
0.0798518
0.0800416
0.0802502
0.0804803
0.0807331
0.081011
0.0813148
0.0816467
0.0820073
0.0823986
0.0828207
0.0832756
0.0837633
0.0842853
0.0848415
0.0854335
0.0860607
0.0867247
0.0874249
0.0881625
0.0889369
0.0897492
0.0905988
0.0914868
0.0924122
0.0933762
0.0943779
0.0954183
0.0964964
0.0976134
0.098768
0.0999615
0.101193
0.102463
0.10377
0.105117
0.106501
0.107924
0.109385
0.110885
0.112422
0.113999
0.115613
0.117266
0.118958
0.120688
0.122457
0.124265
0.126111
0.128001
0.129944
0.131891
0.133652
0.135462
-0.0108477
0.00131609
0.00286391
0.00543016
0.00794899
0.0103801
0.0127675
0.0151137
0.0174242
0.0197033
0.0219541
0.0241786
0.0263781
0.0285529
0.0307029
0.0328275
0.0349255
0.0369955
0.0390355
0.0410436
0.0430175
0.0449545
0.0468522
0.0487078
0.0505185
0.0522816
0.0539942
0.0556538
0.0572578
0.0588038
0.0602896
0.0617134
0.0630733
0.064368
0.0655961
0.0667574
0.0678509
0.0688772
0.0698359
0.0707282
0.0715547
0.0723172
0.0730169
0.0736563
0.0742374
0.074763
0.0752359
0.0756598
0.0760379
0.0763739
0.0766709
0.0769331
0.0771639
0.0773672
0.0775467
0.0777062
0.0778494
0.0779801
0.0781016
0.0782176
0.0783313
0.078446
0.0785648
0.0786906
0.0788262
0.0789742
0.0791371
0.0793172
0.0795167
0.0797374
0.0799815
0.0802504
0.080546
0.0808694
0.0812221
0.0816052
0.0820199
0.082467
0.0829476
0.0834623
0.0840119
0.0845967
0.0852178
0.085875
0.0865693
0.0873006
0.0880695
0.0888759
0.0897204
0.0906028
0.0915235
0.0924822
0.0934795
0.094515
0.0955891
0.0967014
0.0978524
0.0990415
0.100269
0.101535
0.10284
0.104183
0.105565
0.106984
0.108442
0.109939
0.111474
0.113047
0.11466
0.11631
0.118
0.119728
0.121495
0.1233
0.125144
0.127032
0.128974
0.130919
0.132678
0.134483
-0.0108628
0.00135208
0.00283381
0.00539503
0.00789882
0.0103146
0.0126871
0.0150185
0.0173142
0.0195787
0.021815
0.0240252
0.0262104
0.0283711
0.0305072
0.0326178
0.0347019
0.036758
0.0387843
0.0407787
0.0427389
0.0446625
0.0465468
0.0483891
0.0501867
0.0519367
0.0536363
0.0552831
0.0568742
0.0584075
0.0598807
0.0612918
0.0626392
0.0639211
0.065137
0.0662853
0.0673665
0.0683796
0.0693259
0.070205
0.0710189
0.0717679
0.0724548
0.0730806
0.0736486
0.0741603
0.0746199
0.0750296
0.0753941
0.0757156
0.075999
0.0762467
0.0764636
0.0766524
0.076818
0.0769632
0.0770927
0.0772091
0.0773171
0.0774192
0.0775198
0.077621
0.0777271
0.0778399
0.0779632
0.0780987
0.0782498
0.0784179
0.0786061
0.0788154
0.0790487
0.0793067
0.0795919
0.0799047
0.0802475
0.0806205
0.0810258
0.0814632
0.0819347
0.0824401
0.0829811
0.0835572
0.08417
0.0848189
0.0855054
0.0862287
0.0869902
0.0877891
0.0886267
0.0895019
0.090416
0.091368
0.0923591
0.0933882
0.0944565
0.0955627
0.0967082
0.0978916
0.0991142
0.100375
0.101674
0.103012
0.104388
0.105803
0.107256
0.108748
0.110278
0.111847
0.113454
0.1151
0.116784
0.118507
0.12027
0.12207
0.123909
0.125792
0.127728
0.129669
0.131421
0.133218
-0.0108818
0.00140366
0.00279887
0.00535672
0.00784025
0.0102375
0.012592
0.0149054
0.0171834
0.0194304
0.0216494
0.0238425
0.0260109
0.0281549
0.0302743
0.0323683
0.034436
0.0364756
0.0384855
0.0404637
0.0424077
0.0443153
0.0461836
0.0480102
0.0497921
0.0515265
0.0532108
0.0548422
0.0564182
0.0579363
0.0593944
0.0607905
0.0621228
0.0633899
0.0645905
0.065724
0.0667898
0.0677881
0.0687187
0.0695828
0.0703808
0.0711145
0.0717853
0.0723955
0.0729471
0.073443
0.0738858
0.0742793
0.0746267
0.0749318
0.0751979
0.075429
0.0756285
0.0758008
0.0759491
0.0760778
0.07619
0.0762903
0.0763815
0.0764678
0.076552
0.076638
0.0767282
0.0768263
0.0769344
0.0770559
0.0771924
0.0773469
0.077521
0.0777173
0.0779369
0.0781824
0.0784544
0.0787552
0.0790853
0.0794468
0.0798398
0.0802663
0.0807262
0.0812211
0.081751
0.0823173
0.0829195
0.0835593
0.0842358
0.0849506
0.0857028
0.0864938
0.0873226
0.0881906
0.0890967
0.090042
0.0910257
0.0920487
0.0931101
0.094211
0.0953501
0.0965287
0.0977456
0.0990018
0.100296
0.10163
0.103002
0.104413
0.105863
0.107351
0.108878
0.110444
0.112048
0.113692
0.115374
0.117095
0.118855
0.120654
0.122491
0.124373
0.126308
0.128247
0.129997
0.13179
-0.0109022
0.0014646
0.00275975
0.00531444
0.00777322
0.0101488
0.0124823
0.0147748
0.0170322
0.0192589
0.0214579
0.0236312
0.02578
0.0279046
0.0300048
0.0320797
0.0341282
0.0361489
0.0381399
0.0400992
0.0420246
0.0439136
0.0457636
0.0475719
0.0493357
0.0510522
0.0527186
0.0543323
0.0558907
0.0573913
0.0588319
0.0602106
0.0615255
0.0627752
0.0639584
0.0650746
0.0661227
0.0671033
0.0680162
0.0688624
0.0696424
0.0703579
0.0710104
0.071602
0.0721349
0.0726118
0.0730356
0.0734098
0.0737377
0.0740232
0.0742695
0.0744808
0.0746606
0.074813
0.0749416
0.0750505
0.0751434
0.0752242
0.0752965
0.0753639
0.0754297
0.0754974
0.0755699
0.0756503
0.0757412
0.0758454
0.0759653
0.0761031
0.0762611
0.0764411
0.0766452
0.0768748
0.0771318
0.0774174
0.0777331
0.07808
0.0784593
0.0788718
0.0793187
0.0798004
0.080318
0.0808718
0.0814626
0.0820906
0.0827565
0.0834603
0.0842028
0.0849836
0.0858034
0.0866619
0.0875598
0.0884965
0.0894727
0.0904878
0.0915425
0.0926361
0.0937692
0.0949411
0.0961525
0.0974027
0.0986923
0.100021
0.101388
0.102794
0.10424
0.105724
0.107247
0.108809
0.11041
0.112049
0.113728
0.115446
0.117202
0.118998
0.120832
0.12271
0.124643
0.126579
0.128324
0.13011
-0.0109213
0.00153027
0.00271639
0.00526729
0.00769731
0.0100485
0.0123581
0.0146268
0.0168608
0.0190644
0.0212406
0.0233915
0.0255181
0.0276207
0.0296991
0.0317523
0.0337792
0.0357783
0.0377479
0.0396859
0.0415902
0.0434582
0.0452874
0.047075
0.0488183
0.0505145
0.0521608
0.0537544
0.0552929
0.0567736
0.0581944
0.0595532
0.0608483
0.0620783
0.0632419
0.064338
0.0653664
0.0663267
0.0672195
0.0680451
0.0688047
0.0694993
0.070131
0.0707013
0.0712129
0.0716681
0.0720702
0.0724221
0.0727279
0.0729907
0.0732148
0.0734032
0.0735605
0.0736899
0.0737961
0.0738823
0.0739532
0.0740117
0.0740624
0.0741081
0.0741528
0.0741993
0.0742513
0.074311
0.074382
0.074466
0.0745664
0.0746846
0.0748236
0.0749845
0.0751702
0.0753814
0.0756207
0.0758887
0.0761875
0.0765176
0.0768809
0.0772775
0.0777093
0.0781761
0.0786795
0.0792194
0.0797971
0.0804121
0.0810659
0.0817577
0.082489
0.0832588
0.0840685
0.0849171
0.0858058
0.0867335
0.0877014
0.0887085
0.0897559
0.0908423
0.091969
0.0931346
0.0943405
0.0955853
0.0968701
0.0981937
0.0995574
0.10096
0.102402
0.103883
0.105403
0.106963
0.108562
0.1102
0.111877
0.113593
0.11535
0.117144
0.118978
0.120856
0.122789
0.124725
0.12647
0.128252
-0.0109378
0.00159783
0.0026688
0.00521475
0.00761226
0.00993619
0.012219
0.0144614
0.0166693
0.0188471
0.0209978
0.0231236
0.0252255
0.0273036
0.0293576
0.0313866
0.0333894
0.0353644
0.0373101
0.0392244
0.0411051
0.0429497
0.0447557
0.0465203
0.0482408
0.0499143
0.051538
0.0531093
0.0546255
0.056084
0.0574826
0.0588194
0.0600924
0.0613001
0.0624415
0.0635154
0.0645215
0.0654593
0.0663294
0.0671321
0.0678686
0.0685399
0.069148
0.0696944
0.070182
0.0706129
0.0709903
0.0713173
0.0715979
0.0718354
0.0720339
0.0721968
0.0723283
0.0724322
0.0725127
0.0725736
0.0726191
0.0726527
0.0726785
0.0726997
0.0727201
0.0727427
0.0727707
0.072807
0.0728544
0.0729156
0.072993
0.0730889
0.0732056
0.0733451
0.0735093
0.0737
0.0739187
0.0741671
0.0744463
0.0747578
0.0751026
0.0754817
0.075896
0.0763465
0.0768336
0.0773583
0.0779208
0.0785219
0.0791616
0.0798407
0.080559
0.0813173
0.0821152
0.0829533
0.0838313
0.0847498
0.0857082
0.0867071
0.0877459
0.0888252
0.0899444
0.0911039
0.0923032
0.0935428
0.0948219
0.0961412
0.0975
0.0988988
0.100337
0.101815
0.103332
0.104889
0.106486
0.108122
0.109797
0.111512
0.113267
0.115061
0.116893
0.118771
0.120703
0.122639
0.124381
0.126158
-0.0109505
0.0016655
0.00261689
0.00515647
0.00751789
0.00981184
0.0120651
0.0142783
0.0164575
0.0186069
0.0207296
0.0228277
0.0249023
0.0269534
0.0289805
0.0309829
0.032959
0.0349076
0.036827
0.0387151
0.0405697
0.0423886
0.044169
0.0459083
0.0476036
0.0492521
0.0508511
0.0523976
0.0538892
0.0553233
0.0566975
0.0580098
0.0592583
0.0604416
0.0615584
0.0626078
0.0635889
0.0645019
0.0653467
0.0661241
0.0668348
0.0674803
0.068062
0.0685821
0.0690426
0.0694466
0.0697964
0.0700958
0.0703481
0.0705575
0.0707272
0.0708616
0.0709642
0.0710395
0.0710912
0.0711237
0.0711405
0.0711462
0.0711437
0.0711374
0.07113
0.0711254
0.0711261
0.0711358
0.0711565
0.0711917
0.0712432
0.0713139
0.0714056
0.0715208
0.0716609
0.0718284
0.0720241
0.0722504
0.0725078
0.0727984
0.0731225
0.073482
0.0738769
0.074309
0.0747781
0.0752858
0.0758316
0.076417
0.0770414
0.0777062
0.0784105
0.0791559
0.0799412
0.0807677
0.0816345
0.0825426
0.0834911
0.084481
0.0855112
0.0865827
0.0876945
0.0888475
0.0900405
0.0912747
0.0925488
0.0938638
0.0952185
0.0966141
0.0980492
0.099525
0.10104
0.102596
0.104191
0.105827
0.107502
0.109217
0.110972
0.112767
0.114601
0.11648
0.118414
0.120353
0.122095
0.12387
-0.0109588
0.00173204
0.00256058
0.00509224
0.00741419
0.0096755
0.0118964
0.0140777
0.0162255
0.0183439
0.0204361
0.022504
0.0245487
0.0265702
0.0285682
0.0305414
0.0324885
0.0344082
0.0362988
0.0381583
0.0399847
0.0417754
0.0435279
0.0452395
0.0469074
0.0485286
0.0501005
0.0516201
0.0530848
0.054492
0.0558395
0.057125
0.0583468
0.0595033
0.0605932
0.0616155
0.0625694
0.063455
0.0642721
0.0650215
0.065704
0.0663209
0.0668737
0.0673646
0.0677955
0.0681694
0.0684889
0.0687576
0.0689787
0.0691566
0.0692947
0.0693972
0.0694679
0.0695111
0.0695308
0.0695314
0.0695165
0.0694905
0.0694567
0.0694191
0.0693809
0.0693455
0.069316
0.0692955
0.0692867
0.0692925
0.0693153
0.0693577
0.0694217
0.0695095
0.0696232
0.0697643
0.0699348
0.070136
0.0703695
0.0706364
0.070938
0.0712752
0.0716491
0.0720604
0.07251
0.0729983
0.0735261
0.0740936
0.0747017
0.0753501
0.0760397
0.0767702
0.0775423
0.0783556
0.0792106
0.080107
0.0810452
0.0820248
0.0830462
0.0841088
0.0852132
0.0863586
0.0875456
0.0887735
0.0900428
0.0913527
0.0927039
0.0940955
0.0955281
0.097001
0.0985148
0.100069
0.101663
0.103298
0.104973
0.106689
0.108444
0.11024
0.112076
0.113956
0.115893
0.117833
0.119575
0.121345
-0.0109623
0.0017966
0.00249977
0.00502186
0.0073011
0.00952719
0.011713
0.0138597
0.0159734
0.0180583
0.0201172
0.0221523
0.0241647
0.0261543
0.0281206
0.0300623
0.0319781
0.0338664
0.0357259
0.0375545
0.0393501
0.0411104
0.0428328
0.0445144
0.0461526
0.0477443
0.0492868
0.0507771
0.0522127
0.0535909
0.0549094
0.0561659
0.0573586
0.0584858
0.0595464
0.0605392
0.0614636
0.0623192
0.0631062
0.063825
0.0644767
0.0650623
0.0655835
0.0660422
0.0664408
0.0667816
0.067068
0.0673026
0.0674897
0.0676327
0.067736
0.0678031
0.0678386
0.0678461
0.0678306
0.0677955
0.0677457
0.0676843
0.067616
0.0675435
0.0674711
0.0674015
0.0673385
0.0672845
0.067243
0.0672162
0.0672073
0.0672181
0.0672515
0.0673089
0.0673932
0.0675053
0.0676477
0.0678212
0.0680281
0.0682688
0.0685454
0.068858
0.0692085
0.0695968
0.0700247
0.0704917
0.0709995
0.0715476
0.0721373
0.072768
0.0734411
0.0741556
0.0749129
0.0757119
0.0765539
0.0774377
0.0783646
0.0793333
0.080345
0.0813984
0.0824946
0.0836325
0.0848129
0.0860347
0.0872989
0.0886042
0.0899517
0.09134
0.0927703
0.0942412
0.0957539
0.0973071
0.0989018
0.100537
0.102213
0.10393
0.105689
0.107487
0.109325
0.111209
0.11315
0.115096
0.116839
0.118607
-0.0109603
0.00185854
0.00243436
0.00494521
0.00717863
0.009367
0.0115149
0.0136244
0.0157015
0.0177501
0.0197733
0.0217731
0.0237505
0.0257057
0.0276379
0.0295458
0.0314278
0.0332825
0.0351085
0.0369039
0.0386665
0.0403941
0.042084
0.0437335
0.0453397
0.0468996
0.0484105
0.0498694
0.0512736
0.0526205
0.0539076
0.0551327
0.056294
0.0573898
0.0584186
0.0593795
0.0602718
0.061095
0.0618493
0.0625349
0.0631531
0.0637047
0.0641915
0.0646153
0.0649784
0.0652834
0.0655333
0.065731
0.0658805
0.0659855
0.0660503
0.0660787
0.0660751
0.0660437
0.065989
0.0659152
0.0658265
0.0657267
0.0656198
0.0655093
0.065399
0.065292
0.0651917
0.0651011
0.0650233
0.0649609
0.0649166
0.0648929
0.0648921
0.0649164
0.0649677
0.0650481
0.0651591
0.0653025
0.0654796
0.0656918
0.0659403
0.0662261
0.0665503
0.0669137
0.0673171
0.0677611
0.0682463
0.0687733
0.0693423
0.069954
0.0706083
0.0713057
0.0720461
0.07283
0.073657
0.0745276
0.0754414
0.0763988
0.0773993
0.0784432
0.07953
0.0806601
0.0818328
0.0830486
0.0843067
0.0856076
0.0869505
0.088336
0.0897632
0.0912328
0.0927439
0.094297
0.0958914
0.0975277
0.0992052
0.100924
0.102685
0.104486
0.106328
0.108216
0.110161
0.112112
0.113857
0.115623
-0.0109528
0.0019174
0.00236428
0.00486218
0.00704672
0.00919495
0.0113024
0.013372
0.0154098
0.0174196
0.0194044
0.0213663
0.0233063
0.0252246
0.0271203
0.0289919
0.0308379
0.0326567
0.0344469
0.0362067
0.0379342
0.0396268
0.041282
0.0428971
0.044469
0.045995
0.047472
0.0488972
0.0502678
0.0515811
0.0528346
0.0540261
0.0551536
0.0562155
0.0572103
0.0581369
0.0589945
0.0597828
0.0605017
0.0611517
0.0617335
0.0622484
0.0626978
0.0630838
0.0634084
0.0636745
0.0638846
0.0640422
0.0641507
0.0642143
0.0642369
0.064223
0.0641766
0.0641027
0.0640052
0.0638891
0.0637578
0.063616
0.0634669
0.0633149
0.0631629
0.0630149
0.0628737
0.0627431
0.0626252
0.0625237
0.0624405
0.0623789
0.0623405
0.0623282
0.0623434
0.0623888
0.0624653
0.0625753
0.0627196
0.0629003
0.0631177
0.063374
0.0636692
0.064005
0.0643813
0.0647999
0.0652602
0.0657638
0.06631
0.0669004
0.0675341
0.0682124
0.0689344
0.0697013
0.0705121
0.0713678
0.0722675
0.0732121
0.0742006
0.0752337
0.0763105
0.0774319
0.0785966
0.0798055
0.0810575
0.0823535
0.083692
0.0850744
0.086499
0.0879671
0.0894772
0.0910305
0.0926255
0.0942634
0.0959429
0.0976652
0.0994289
0.101235
0.103081
0.104975
0.106927
0.108884
0.110633
0.112397
-0.0109394
0.00197281
0.0022895
0.00477267
0.00690541
0.00901113
0.0110755
0.0131027
0.0150987
0.0170671
0.019011
0.0209324
0.0228325
0.0247112
0.0265679
0.028401
0.0302086
0.0319891
0.0337413
0.0354634
0.0371533
0.0388088
0.0404272
0.0420056
0.0435412
0.0450309
0.0464719
0.0478611
0.0491958
0.0504733
0.0516909
0.0528465
0.0539379
0.0549635
0.0559217
0.0568115
0.057632
0.0583828
0.0590637
0.0596753
0.060218
0.0606934
0.0611026
0.0614478
0.0617309
0.0619547
0.0621218
0.0622358
0.0622998
0.0623182
0.062295
0.062235
0.0621423
0.062022
0.0618783
0.0617158
0.0615385
0.0613506
0.0611559
0.0609582
0.060761
0.0605681
0.0603825
0.0602075
0.0600462
0.0599016
0.0597761
0.0596725
0.0595932
0.0595404
0.0595163
0.0595227
0.0595616
0.0596345
0.059743
0.0598885
0.0600723
0.0602954
0.060559
0.0608638
0.0612108
0.0616006
0.0620338
0.0625109
0.0630326
0.0635988
0.0642102
0.0648666
0.0655687
0.0663162
0.0671094
0.0679481
0.0688325
0.0697623
0.0707378
0.0717585
0.0728247
0.0739357
0.0750919
0.0762926
0.0775383
0.078828
0.0801624
0.0815405
0.0829628
0.0844285
0.0859381
0.0874907
0.089087
0.090726
0.0924084
0.0941333
0.0959013
0.0977113
0.0995635
0.101463
0.103422
0.105387
0.107139
0.108901
-0.0109199
0.00202446
0.00220996
0.00467662
0.00675466
0.00881556
0.0108343
0.0128166
0.0147681
0.0166927
0.0185932
0.0204716
0.0223291
0.0241659
0.0259811
0.0277732
0.02954
0.0312801
0.032992
0.0346741
0.0363244
0.0379405
0.0395198
0.0410594
0.0425564
0.0440078
0.0454105
0.0467616
0.0480582
0.0492975
0.050477
0.0515942
0.0526472
0.0536341
0.0545534
0.0554039
0.0561847
0.0568953
0.0575357
0.058106
0.058607
0.0590398
0.0594059
0.059707
0.0599455
0.0601237
0.0602446
0.0603112
0.0603273
0.0602966
0.060224
0.0601138
0.0599713
0.0598007
0.0596071
0.0593944
0.0591672
0.0589293
0.0586849
0.0584375
0.0581913
0.0579491
0.0577152
0.057492
0.0572832
0.0570913
0.0569196
0.0567701
0.0566459
0.0565487
0.0564814
0.0564451
0.0564426
0.0564747
0.0565438
0.0566506
0.0567971
0.0569837
0.0572123
0.0574829
0.0577973
0.0581553
0.0585585
0.0590063
0.0595003
0.0600399
0.0606262
0.0612586
0.0619382
0.0626642
0.0634375
0.0642573
0.0651244
0.066038
0.0669987
0.0680055
0.0690594
0.070159
0.0713054
0.0724971
0.0737352
0.0750183
0.0763474
0.077721
0.0791403
0.0806036
0.0821123
0.0836646
0.0852619
0.0869025
0.0885878
0.0903162
0.0920889
0.0939041
0.0957626
0.097669
0.0996362
0.10161
0.103367
0.105128
-0.0108943
0.00207211
0.00212568
0.00457399
0.00659451
0.00860834
0.0105789
0.0125138
0.0144185
0.0162966
0.0181512
0.0199842
0.0217967
0.023589
0.0253602
0.0271088
0.0288326
0.0305299
0.0321993
0.0338392
0.0354477
0.0370223
0.0385604
0.040059
0.0415153
0.0429261
0.0442883
0.045599
0.0468552
0.0480542
0.0491932
0.0502698
0.051282
0.0522278
0.0531057
0.0539143
0.0546529
0.0553207
0.0559177
0.056444
0.0569004
0.0572877
0.0576076
0.0578615
0.0580521
0.0581813
0.0582524
0.0582681
0.0582324
0.0581489
0.0580229
0.057859
0.0576626
0.0574381
0.0571904
0.0569235
0.0566422
0.0563503
0.0560519
0.0557508
0.055451
0.0551558
0.0548689
0.0545934
0.0543326
0.0540895
0.053867
0.0536676
0.053494
0.0533485
0.0532334
0.0531507
0.0531023
0.05309
0.0531153
0.0531798
0.0532848
0.0534315
0.053621
0.0538543
0.0541321
0.0544553
0.0548245
0.0552403
0.0557031
0.0562133
0.0567712
0.0573771
0.0580311
0.0587334
0.0594839
0.0602828
0.0611299
0.0620253
0.0629687
0.0639603
0.0649995
0.0660867
0.067221
0.0684029
0.0696316
0.0709074
0.0722295
0.0735983
0.0750129
0.0764739
0.0779802
0.0795324
0.0811295
0.0827722
0.0844594
0.0861919
0.0879685
0.0897897
0.091654
0.0935681
0.0955433
0.0975264
0.0992885
0.101048
-0.0108623
0.00211555
0.00203665
0.00446472
0.00642493
0.00838949
0.0103094
0.0121945
0.0140499
0.0158792
0.0176853
0.0194704
0.0212355
0.0229807
0.0247055
0.0264082
0.0280865
0.0297388
0.0313635
0.0329591
0.0345237
0.0360546
0.0375493
0.0390049
0.0404182
0.0417862
0.0431058
0.0443739
0.0455875
0.0467438
0.04784
0.0488737
0.0498426
0.0507449
0.0515789
0.0523432
0.0530368
0.0536592
0.0542101
0.0546896
0.0550983
0.0554373
0.0557076
0.0559114
0.0560503
0.0561274
0.0561448
0.0561061
0.0560144
0.0558746
0.055691
0.0554698
0.0552153
0.054933
0.0546268
0.0543019
0.0539619
0.0536119
0.0532549
0.0528959
0.0525378
0.0521851
0.0518406
0.0515084
0.0511909
0.0508921
0.050614
0.0503603
0.0501327
0.0499344
0.049767
0.0496333
0.0495346
0.0494734
0.0494505
0.0494685
0.0495277
0.0496303
0.0497766
0.0499684
0.0502057
0.0504903
0.0508218
0.0512018
0.0516298
0.0521072
0.0526333
0.0532094
0.0538346
0.0545101
0.0552349
0.0560101
0.0568345
0.0577092
0.058633
0.0596069
0.0606295
0.0617018
0.0628224
0.0639924
0.0652102
0.0664769
0.067791
0.0691534
0.0705627
0.0720199
0.0735233
0.0750743
0.0766711
0.078315
0.0800042
0.0817401
0.0835211
0.0853479
0.0872186
0.0891404
0.0911246
0.0931176
0.094885
0.0966435
-0.0108238
0.00215459
0.00194291
0.0043488
0.006246
0.00815912
0.010026
0.0118589
0.0136625
0.0154405
0.0171959
0.0189306
0.0206457
0.0223416
0.0240175
0.0256718
0.0273023
0.0289073
0.0304852
0.0320343
0.0335528
0.035038
0.0364872
0.0378975
0.0392657
0.0405888
0.0418635
0.0430868
0.0442555
0.0453669
0.0464179
0.0474063
0.0483296
0.0491859
0.0499734
0.0506908
0.0513369
0.0519111
0.052413
0.0528428
0.053201
0.0534883
0.0537062
0.0538562
0.0539405
0.0539614
0.0539217
0.0538244
0.0536733
0.0534727
0.0532282
0.0529451
0.0526289
0.052284
0.0519155
0.0515276
0.0511251
0.0507117
0.0502922
0.04987
0.0494495
0.0490339
0.0486275
0.0482331
0.0478546
0.0474947
0.0471567
0.0468431
0.0465571
0.0463005
0.0460764
0.0458864
0.0457329
0.0456175
0.0455423
0.0455083
0.0455176
0.0455709
0.04567
0.0458152
0.0460082
0.0462491
0.0465394
0.0468787
0.0472686
0.0477085
0.0481996
0.0487414
0.0493349
0.0499794
0.0506757
0.0514231
0.0522224
0.0530727
0.0539746
0.0549272
0.0559312
0.0569854
0.0580906
0.0592456
0.0604512
0.0617059
0.0630107
0.0643641
0.0657671
0.0672181
0.0687182
0.0702658
0.0718619
0.073505
0.0751961
0.0769339
0.0787192
0.0805503
0.0824276
0.0843561
0.0863496
0.0883518
0.0901248
0.0918807
-0.0107788
0.00218906
0.00184448
0.00422621
0.0060577
0.00791726
0.00972864
0.011507
0.0132565
0.0149809
0.016683
0.018365
0.0200279
0.0216719
0.0232964
0.0249
0.0264804
0.0280358
0.0295647
0.0310653
0.0325355
0.0339728
0.0353745
0.0367373
0.0380584
0.0393343
0.040562
0.0417382
0.0428598
0.0439239
0.0449275
0.0458681
0.0467434
0.0475512
0.0482897
0.0489575
0.0495534
0.0500766
0.0505268
0.0509039
0.0512084
0.0514411
0.0516031
0.0516961
0.0517222
0.0516834
0.0515827
0.051423
0.0512083
0.0509432
0.0506335
0.0502845
0.049902
0.0494904
0.0490549
0.0485997
0.0481295
0.0476484
0.047161
0.046671
0.0461827
0.0456996
0.0452258
0.0447645
0.0443193
0.0438933
0.0434897
0.0431114
0.0427612
0.0424415
0.0421549
0.0419036
0.0416897
0.0415152
0.0413818
0.0412913
0.041245
0.0412444
0.0412907
0.0413849
0.0415281
0.0417211
0.0419646
0.0422593
0.0426057
0.0430043
0.0434553
0.0439593
0.0445161
0.0451262
0.0457894
0.046506
0.0472756
0.0480985
0.0489743
0.0499031
0.0508844
0.0519183
0.0530042
0.0541424
0.055332
0.0565733
0.0578653
0.0592087
0.0606021
0.0620462
0.0635398
0.0650835
0.0666761
0.0683183
0.0700088
0.0717484
0.073536
0.0753715
0.0772537
0.0791892
0.0811906
0.0832026
0.0849799
0.0867337
-0.0107273
0.00221882
0.00174142
0.00409695
0.00586013
0.00766405
0.00941759
0.0111391
0.0128321
0.0145005
0.0161471
0.017774
0.0193822
0.020972
0.0225429
0.0240933
0.0256213
0.027125
0.0286027
0.0300526
0.0314726
0.0328599
0.0342118
0.0355251
0.0367968
0.0380234
0.0392018
0.0403287
0.0414009
0.0424154
0.0433692
0.0442597
0.0450845
0.0458413
0.0465282
0.0471438
0.0476868
0.0481563
0.0485517
0.0488732
0.0491209
0.0492957
0.0493986
0.0494312
0.0493953
0.0492932
0.0491276
0.0489016
0.0486192
0.0482856
0.0479063
0.0474873
0.0470339
0.0465512
0.0460437
0.0455164
0.0449735
0.0444199
0.0438593
0.0432964
0.0427348
0.0421789
0.0416321
0.0410984
0.0405809
0.0400833
0.0396084
0.0391597
0.0387395
0.0383509
0.0379961
0.0376778
0.0373977
0.0371584
0.0369611
0.0368082
0.0367007
0.0366406
0.0366284
0.0366661
0.036754
0.0368937
0.0370851
0.0373299
0.0376277
0.0379798
0.0383858
0.0388469
0.0393624
0.0399333
0.0405589
0.04124
0.0419758
0.042767
0.0436126
0.0445135
0.0454684
0.0464781
0.0475414
0.048659
0.0498295
0.0510539
0.0523305
0.0536604
0.0550418
0.0564759
0.0579609
0.0594979
0.0610851
0.0627238
0.0644121
0.0661513
0.0679396
0.0697776
0.0716634
0.0736043
0.0756126
0.077633
0.0794138
0.0811636
-0.010669
0.00224371
0.00163379
0.00396102
0.00565331
0.00739954
0.0090929
0.0107552
0.0123895
0.0139996
0.0155884
0.0171578
0.018709
0.0202424
0.0217572
0.0232523
0.0247256
0.0261754
0.0275998
0.028997
0.0303645
0.0316997
0.0329998
0.0342615
0.0354816
0.0366567
0.0377837
0.038859
0.0398795
0.0408421
0.0417438
0.0425817
0.0433534
0.0440567
0.0446895
0.0452502
0.0457375
0.0461504
0.0464882
0.046751
0.0469388
0.0470524
0.0470928
0.0470614
0.04696
0.0467908
0.0465563
0.04626
0.0459057
0.0454993
0.0450463
0.0445527
0.0440238
0.043465
0.0428808
0.0422762
0.0416557
0.0410238
0.0403849
0.0397434
0.0391032
0.0384685
0.0378432
0.037231
0.0366354
0.03606
0.035508
0.0349824
0.0344863
0.0340224
0.0335934
0.0332015
0.0328492
0.0325385
0.0322714
0.0320497
0.031875
0.0317487
0.0316724
0.031647
0.0316739
0.0317538
0.0318877
0.0320761
0.0323199
0.0326194
0.0329753
0.0333875
0.0338566
0.0343825
0.0349657
0.0356058
0.0363031
0.0370573
0.0378685
0.0387363
0.0396608
0.0406413
0.0416782
0.0427705
0.0439186
0.0451216
0.0463796
0.0476918
0.0490585
0.0504785
0.0519524
0.053479
0.0550587
0.0566903
0.0583745
0.06011
0.0618975
0.0637351
0.0656231
0.0675667
0.0695808
0.0716072
0.0733906
0.0751339
-0.0106041
0.00226361
0.00152167
0.00381844
0.00543733
0.00712386
0.00875477
0.0103558
0.011929
0.0134785
0.0150072
0.0165169
0.0180089
0.0194834
0.02094
0.0223774
0.0237939
0.0251877
0.0265567
0.027899
0.0292121
0.0304931
0.0317392
0.0329471
0.0341135
0.035235
0.0363082
0.0373297
0.0382963
0.0392046
0.0400517
0.0408347
0.0415509
0.0421981
0.0427741
0.0432773
0.0437061
0.0440594
0.0443367
0.0445376
0.0446624
0.0447115
0.044686
0.044587
0.0444164
0.0441762
0.043869
0.043498
0.0430679
0.0425842
0.0420531
0.0414801
0.040871
0.0402309
0.039565
0.0388778
0.0381742
0.0374586
0.0367357
0.0360096
0.0352849
0.0345654
0.0338554
0.0331584
0.0324785
0.0318188
0.0311832
0.0305743
0.0299956
0.0294497
0.0289397
0.0284676
0.0280362
0.0276474
0.0273036
0.0270062
0.0267574
0.0265583
0.0264109
0.0263158
0.0262749
0.0262884
0.026358
0.0264837
0.026667
0.0269075
0.0272067
0.0275639
0.0279804
0.0284554
0.02899
0.0295833
0.0302363
0.0309479
0.031719
0.0325484
0.033437
0.0343835
0.0353887
0.0364511
0.0375717
0.0387489
0.0399835
0.041274
0.0426213
0.0440236
0.045482
0.0469946
0.0485627
0.0501841
0.0518603
0.0535893
0.0553721
0.0572067
0.0590934
0.0610374
0.0630539
0.0650843
0.0668675
0.0686024
-0.0105323
0.0022784
0.00140512
0.00366923
0.00521225
0.00683711
0.00840328
0.00994073
0.0114508
0.0129375
0.0144038
0.0158515
0.017282
0.0186955
0.0200916
0.0214693
0.0228269
0.0241626
0.0254742
0.0267596
0.028016
0.0292408
0.0304308
0.0315827
0.0326933
0.0337589
0.0347762
0.0357417
0.0366519
0.0375037
0.0382939
0.0390194
0.0396776
0.0402661
0.0407827
0.0412255
0.041593
0.041884
0.0420976
0.0422337
0.0422921
0.0422734
0.0421784
0.0420083
0.0417648
0.0414496
0.0410656
0.0406159
0.0401055
0.0395401
0.0389261
0.038269
0.0375747
0.0368483
0.0360951
0.0353198
0.0345274
0.0337223
0.0329093
0.0320928
0.0312772
0.0304666
0.0296653
0.0288771
0.0281059
0.0273553
0.0266289
0.0259298
0.0252614
0.0246265
0.024028
0.0234686
0.0229506
0.0224765
0.0220484
0.0216681
0.0213376
0.0210585
0.0208323
0.0206604
0.0205439
0.0204841
0.0204817
0.0205378
0.0206528
0.0208277
0.0210626
0.0213582
0.0217147
0.0221323
0.0226112
0.0231515
0.0237531
0.0244162
0.0251403
0.0259257
0.0267718
0.0276787