/*--------------------------------*- C++ -*----------------------------------*\
  =========                 |
  \\      /  F ield         | OpenFOAM: The Open Source CFD Toolbox
   \\    /   O peration     | Website:  https://openfoam.org
    \\  /    A nd           | Version:  8
     \\/     M anipulation  |
\*---------------------------------------------------------------------------*/
FoamFile
{
    version     2.0;
    format      ascii;
    class       volScalarField;
    location    "0.3";
    object      nut;
}
// * * * * * * * * * * * * * * * * * * * * * * * * * * * * * * * * * * * * * //

dimensions      [0 2 -1 0 0 0 0];

internalField   nonuniform List<scalar> 
277560
(
0.00982415
0.00982293
0.00982086
0.00981812
0.00981489
0.00981131
0.00980752
0.00980365
0.00979979
0.00979603
0.00979244
0.00978908
0.00978601
0.00978325
0.00978085
0.00977881
0.00977717
0.00977591
0.00977505
0.00977458
0.0097745
0.00977478
0.00977543
0.00977642
0.00977774
0.00977936
0.00978127
0.00978345
0.00978587
0.00978851
0.00979136
0.00979438
0.00979757
0.00980089
0.00980434
0.00980789
0.00981152
0.00981522
0.00981897
0.00982276
0.00982657
0.00983039
0.0098342
0.009838
0.00984177
0.00984551
0.00984921
0.00985286
0.00985645
0.00985998
0.00986344
0.00986684
0.00987016
0.0098734
0.00987656
0.00987964
0.00988264
0.00988556
0.0098884
0.00989116
0.00989384
0.00989643
0.00989895
0.00990139
0.00990376
0.00990605
0.00990827
0.00991042
0.00991251
0.00991452
0.00991647
0.00991836
0.00992018
0.00992195
0.00992366
0.00992531
0.0099269
0.00992844
0.00992992
0.00993135
0.00993272
0.00993404
0.00993531
0.00993652
0.00993768
0.00993879
0.00993984
0.00994083
0.00994177
0.00994265
0.00994347
0.00994423
0.00994493
0.00994556
0.00994613
0.00994663
0.00994707
0.00994743
0.00994772
0.00994793
0.00994807
0.00994813
0.00994811
0.00994801
0.00994782
0.00994756
0.00994721
0.00994677
0.00994626
0.00994565
0.00994497
0.0099442
0.00994336
0.00994243
0.00994142
0.00994034
0.00993917
0.00993793
0.00993662
0.00993524
0.00982401
0.00982277
0.00982066
0.00981788
0.0098146
0.00981097
0.00980714
0.00980321
0.0097993
0.00979548
0.00979183
0.00978841
0.00978527
0.00978246
0.00977999
0.0097779
0.0097762
0.00977489
0.00977399
0.00977347
0.00977334
0.00977359
0.00977421
0.00977517
0.00977646
0.00977806
0.00977995
0.00978212
0.00978452
0.00978716
0.00979
0.00979303
0.00979621
0.00979954
0.009803
0.00980655
0.0098102
0.00981391
0.00981768
0.00982148
0.00982531
0.00982915
0.00983299
0.00983681
0.00984061
0.00984437
0.0098481
0.00985177
0.00985539
0.00985895
0.00986244
0.00986586
0.0098692
0.00987247
0.00987566
0.00987877
0.0098818
0.00988475
0.00988761
0.0098904
0.0098931
0.00989572
0.00989827
0.00990073
0.00990312
0.00990544
0.00990769
0.00990986
0.00991197
0.00991401
0.00991599
0.0099179
0.00991976
0.00992155
0.00992329
0.00992496
0.00992659
0.00992816
0.00992967
0.00993113
0.00993254
0.0099339
0.00993521
0.00993646
0.00993766
0.00993881
0.0099399
0.00994093
0.00994192
0.00994284
0.0099437
0.00994451
0.00994525
0.00994593
0.00994654
0.00994709
0.00994756
0.00994797
0.0099483
0.00994855
0.00994873
0.00994883
0.00994885
0.00994878
0.00994864
0.0099484
0.00994809
0.00994768
0.00994719
0.00994661
0.00994595
0.00994519
0.00994435
0.00994342
0.0099424
0.0099413
0.00994013
0.00993887
0.00993755
0.00993616
0.00982116
0.00981987
0.0098177
0.00981483
0.00981147
0.00980775
0.00980382
0.0097998
0.00979577
0.00979184
0.00978808
0.00978454
0.00978128
0.00977835
0.00977577
0.00977356
0.00977175
0.00977034
0.00976934
0.00976873
0.00976853
0.0097687
0.00976925
0.00977016
0.0097714
0.00977296
0.00977482
0.00977696
0.00977935
0.00978198
0.00978481
0.00978784
0.00979104
0.00979438
0.00979785
0.00980143
0.0098051
0.00980885
0.00981265
0.0098165
0.00982037
0.00982425
0.00982814
0.00983201
0.00983586
0.00983968
0.00984345
0.00984718
0.00985086
0.00985447
0.00985801
0.00986149
0.00986489
0.00986821
0.00987146
0.00987462
0.0098777
0.00988069
0.00988361
0.00988644
0.00988919
0.00989185
0.00989444
0.00989695
0.00989938
0.00990174
0.00990403
0.00990624
0.00990839
0.00991047
0.00991248
0.00991443
0.00991632
0.00991815
0.00991992
0.00992164
0.0099233
0.0099249
0.00992645
0.00992795
0.00992939
0.00993078
0.00993212
0.00993341
0.00993464
0.00993583
0.00993696
0.00993803
0.00993905
0.00994001
0.00994091
0.00994176
0.00994253
0.00994324
0.00994388
0.00994445
0.00994495
0.00994537
0.00994571
0.00994597
0.00994615
0.00994624
0.00994624
0.00994616
0.00994598
0.00994572
0.00994537
0.00994494
0.00994445
0.00994388
0.00994325
0.00994253
0.00994173
0.00994084
0.00993986
0.00993879
0.00993763
0.00993638
0.00993505
0.00993362
0.00981641
0.00981505
0.00981277
0.0098098
0.00980632
0.00980248
0.00979842
0.00979425
0.00979007
0.00978598
0.00978204
0.00977833
0.00977489
0.00977178
0.00976902
0.00976665
0.00976467
0.0097631
0.00976195
0.00976121
0.00976088
0.00976094
0.00976139
0.00976221
0.00976339
0.00976489
0.0097667
0.0097688
0.00977117
0.00977379
0.00977662
0.00977965
0.00978287
0.00978623
0.00978974
0.00979336
0.00979707
0.00980087
0.00980473
0.00980863
0.00981257
0.00981653
0.00982048
0.00982444
0.00982837
0.00983227
0.00983613
0.00983995
0.00984371
0.0098474
0.00985104
0.0098546
0.00985808
0.00986149
0.00986481
0.00986805
0.00987121
0.00987429
0.00987728
0.00988018
0.009883
0.00988574
0.0098884
0.00989097
0.00989347
0.00989589
0.00989823
0.0099005
0.00990271
0.00990484
0.00990691
0.00990892
0.00991086
0.00991275
0.00991458
0.00991635
0.00991807
0.00991973
0.00992133
0.00992288
0.00992438
0.00992582
0.00992721
0.00992854
0.00992982
0.00993106
0.00993224
0.00993336
0.00993444
0.00993547
0.00993645
0.00993737
0.00993824
0.00993905
0.00993981
0.0099405
0.00994113
0.00994169
0.00994218
0.00994259
0.00994292
0.00994317
0.00994334
0.00994343
0.00994343
0.00994335
0.00994318
0.00994294
0.0099426
0.00994219
0.00994169
0.00994111
0.00994045
0.00993971
0.00993888
0.00993797
0.00993698
0.00993589
0.00993465
0.00993327
0.00981043
0.00980897
0.00980658
0.00980347
0.00979984
0.00979586
0.00979164
0.00978729
0.00978292
0.00977862
0.00977446
0.00977052
0.00976685
0.00976349
0.0097605
0.00975789
0.00975569
0.0097539
0.00975255
0.00975162
0.00975111
0.00975102
0.00975133
0.00975203
0.0097531
0.00975452
0.00975627
0.00975833
0.00976067
0.00976326
0.0097661
0.00976915
0.00977238
0.00977579
0.00977934
0.00978301
0.00978679
0.00979066
0.0097946
0.00979859
0.00980262
0.00980667
0.00981073
0.00981479
0.00981883
0.00982285
0.00982683
0.00983077
0.00983465
0.00983848
0.00984223
0.00984591
0.00984952
0.00985304
0.00985648
0.00985984
0.00986311
0.0098663
0.0098694
0.00987241
0.00987535
0.00987819
0.00988096
0.00988364
0.00988624
0.00988876
0.00989121
0.00989357
0.00989586
0.00989808
0.00990024
0.00990234
0.00990438
0.00990637
0.00990832
0.00991023
0.0099121
0.00991393
0.00991572
0.00991746
0.00991915
0.0099208
0.00992239
0.00992393
0.00992542
0.00992686
0.00992825
0.00992958
0.00993085
0.00993207
0.00993323
0.00993432
0.00993536
0.00993632
0.00993722
0.00993805
0.0099388
0.00993948
0.00994008
0.00994061
0.00994105
0.00994141
0.00994169
0.00994188
0.00994199
0.00994202
0.00994196
0.00994183
0.00994161
0.00994132
0.00994096
0.00994052
0.00994001
0.00993943
0.00993878
0.00993803
0.00993713
0.00993609
0.0099349
0.00993356
0.00980379
0.00980223
0.0097997
0.00979644
0.00979266
0.00978852
0.00978412
0.00977958
0.00977498
0.00977043
0.009766
0.00976178
0.00975781
0.00975416
0.00975086
0.00974795
0.00974546
0.00974339
0.00974177
0.00974059
0.00973985
0.00973955
0.00973968
0.00974021
0.00974115
0.00974245
0.00974411
0.00974611
0.00974841
0.00975099
0.00975382
0.00975689
0.00976016
0.00976362
0.00976723
0.00977099
0.00977486
0.00977882
0.00978287
0.00978697
0.00979112
0.0097953
0.0097995
0.00980369
0.00980788
0.00981205
0.00981619
0.00982029
0.00982434
0.00982833
0.00983227
0.00983613
0.00983991
0.00984361
0.00984722
0.00985074
0.00985418
0.00985752
0.00986078
0.00986396
0.00986707
0.00987011
0.00987308
0.00987599
0.00987884
0.00988163
0.00988434
0.00988699
0.00988956
0.00989207
0.00989451
0.00989689
0.00989921
0.00990146
0.00990366
0.0099058
0.00990788
0.0099099
0.00991187
0.00991378
0.00991564
0.00991743
0.00991918
0.00992087
0.0099225
0.00992407
0.00992559
0.00992704
0.00992844
0.00992978
0.00993105
0.00993226
0.0099334
0.00993447
0.00993547
0.00993639
0.00993724
0.00993802
0.00993871
0.00993932
0.00993985
0.0099403
0.00994066
0.00994094
0.00994113
0.00994124
0.00994127
0.00994123
0.0099411
0.00994091
0.00994064
0.00994031
0.00993991
0.00993945
0.0099389
0.00993821
0.00993737
0.00993638
0.00993524
0.00993394
0.009797
0.00979534
0.00979266
0.00978923
0.00978531
0.00978101
0.00977645
0.0097717
0.00976686
0.00976203
0.00975729
0.00975273
0.00974841
0.0097444
0.00974074
0.00973746
0.00973461
0.0097322
0.00973024
0.00972874
0.0097277
0.00972713
0.00972701
0.00972733
0.00972808
0.00972923
0.00973077
0.00973267
0.00973492
0.00973747
0.0097403
0.0097434
0.00974673
0.00975026
0.00975397
0.00975783
0.00976183
0.00976593
0.00977013
0.00977439
0.00977871
0.00978306
0.00978744
0.00979182
0.0097962
0.00980056
0.00980491
0.00980922
0.00981351
0.00981776
0.00982198
0.00982614
0.00983026
0.0098343
0.00983828
0.00984217
0.00984599
0.00984971
0.00985335
0.00985691
0.00986038
0.00986376
0.00986706
0.00987028
0.00987341
0.00987645
0.00987941
0.00988228
0.00988508
0.00988779
0.00989043
0.00989299
0.00989548
0.00989789
0.00990024
0.00990252
0.00990474
0.00990689
0.00990898
0.009911
0.00991297
0.00991488
0.00991673
0.00991852
0.00992025
0.00992192
0.00992354
0.0099251
0.00992659
0.00992802
0.00992939
0.0099307
0.00993193
0.0099331
0.0099342
0.00993522
0.00993616
0.00993703
0.00993781
0.00993852
0.00993913
0.00993966
0.00994011
0.00994047
0.00994074
0.00994093
0.00994103
0.00994105
0.009941
0.00994088
0.00994069
0.00994044
0.00994012
0.00993975
0.00993926
0.00993862
0.00993783
0.00993688
0.00993577
0.0099345
0.00979052
0.00978875
0.00978593
0.00978234
0.0097783
0.00977391
0.00976921
0.00976428
0.00975919
0.00975406
0.00974897
0.00974403
0.00973932
0.00973489
0.00973081
0.00972711
0.00972384
0.00972101
0.00971864
0.00971676
0.00971535
0.00971444
0.00971401
0.00971405
0.00971456
0.00971551
0.00971689
0.00971867
0.00972083
0.00972335
0.00972619
0.00972933
0.00973273
0.00973638
0.00974024
0.00974429
0.00974849
0.00975284
0.0097573
0.00976186
0.00976649
0.00977118
0.00977591
0.00978067
0.00978543
0.0097902
0.00979496
0.0097997
0.0098044
0.00980906
0.00981367
0.00981821
0.00982269
0.00982709
0.0098314
0.00983562
0.00983975
0.00984379
0.00984772
0.00985156
0.00985529
0.00985893
0.00986246
0.00986589
0.00986922
0.00987245
0.00987558
0.00987862
0.00988157
0.00988442
0.00988719
0.00988988
0.00989249
0.00989501
0.00989746
0.00989984
0.00990215
0.0099044
0.00990657
0.00990869
0.00991074
0.00991273
0.00991467
0.00991655
0.00991837
0.00992014
0.00992185
0.00992351
0.0099251
0.00992664
0.00992812
0.00992954
0.00993089
0.00993217
0.00993338
0.00993452
0.00993557
0.00993654
0.00993742
0.00993821
0.00993892
0.00993953
0.00994005
0.00994049
0.00994083
0.00994109
0.00994127
0.00994136
0.00994137
0.00994131
0.00994118
0.00994099
0.00994073
0.00994041
0.00993997
0.00993938
0.00993862
0.0099377
0.00993661
0.00993536
0.00978478
0.00978293
0.00978005
0.00977629
0.00977226
0.00976794
0.00976324
0.00975823
0.00975299
0.00974762
0.00974225
0.00973696
0.00973187
0.00972705
0.00972256
0.00971844
0.00971475
0.0097115
0.00970872
0.00970643
0.00970466
0.0097034
0.00970267
0.00970245
0.00970274
0.00970352
0.00970479
0.0097065
0.00970864
0.00971117
0.00971407
0.00971731
0.00972084
0.00972464
0.00972868
0.00973293
0.00973736
0.00974196
0.00974668
0.00975152
0.00975645
0.00976146
0.00976651
0.0097716
0.00977671
0.00978182
0.00978693
0.009792
0.00979704
0.00980203
0.00980695
0.00981181
0.00981658
0.00982126
0.00982585
0.00983034
0.00983472
0.009839
0.00984316
0.00984721
0.00985114
0.00985496
0.00985867
0.00986226
0.00986574
0.00986911
0.00987237
0.00987553
0.00987859
0.00988155
0.00988442
0.0098872
0.00988989
0.0098925
0.00989503
0.00989749
0.00989988
0.00990219
0.00990445
0.00990664
0.00990878
0.00991086
0.00991289
0.00991487
0.0099168
0.00991868
0.00992052
0.00992232
0.00992407
0.00992577
0.00992743
0.00992903
0.00993056
0.00993202
0.00993339
0.00993468
0.00993587
0.00993695
0.00993793
0.0099388
0.00993955
0.0099402
0.00994074
0.00994119
0.00994157
0.00994186
0.00994207
0.0099422
0.00994226
0.00994224
0.00994215
0.009942
0.00994179
0.00994151
0.0099411
0.00994054
0.0099398
0.00993889
0.00993781
0.00993655
0.00978029
0.00977848
0.00977617
0.00977319
0.00976964
0.00976557
0.009761
0.00975598
0.00975061
0.00974501
0.00973932
0.00973366
0.00972815
0.00972288
0.00971793
0.00971334
0.00970915
0.0097054
0.00970211
0.00969933
0.00969707
0.00969536
0.00969421
0.00969362
0.00969358
0.00969409
0.00969513
0.00969668
0.00969872
0.0097012
0.00970409
0.00970735
0.00971095
0.00971486
0.00971903
0.00972344
0.00972806
0.00973285
0.0097378
0.00974288
0.00974806
0.00975332
0.00975865
0.00976401
0.0097694
0.0097748
0.00978018
0.00978553
0.00979084
0.00979609
0.00980128
0.00980639
0.0098114
0.00981632
0.00982113
0.00982583
0.00983042
0.00983488
0.00983923
0.00984345
0.00984754
0.00985151
0.00985535
0.00985907
0.00986267
0.00986615
0.00986952
0.00987277
0.00987592
0.00987897
0.00988191
0.00988477
0.00988754
0.00989022
0.00989282
0.00989535
0.00989781
0.00990021
0.00990255
0.00990484
0.00990708
0.00990928
0.00991145
0.00991358
0.00991569
0.00991778
0.00991983
0.00992184
0.00992381
0.00992572
0.00992756
0.00992934
0.00993104
0.00993266
0.00993419
0.00993561
0.00993693
0.00993814
0.00993922
0.00994019
0.00994102
0.00994172
0.00994229
0.00994274
0.00994308
0.00994333
0.00994352
0.00994364
0.00994369
0.00994368
0.0099436
0.00994346
0.00994326
0.009943
0.00994262
0.00994206
0.00994133
0.00994042
0.00993932
0.00993805
0.00977814
0.0097772
0.00977577
0.00977366
0.00977069
0.00976694
0.00976254
0.00975755
0.00975206
0.00974622
0.00974017
0.00973409
0.0097281
0.00972233
0.00971686
0.00971174
0.00970699
0.00970265
0.00969876
0.00969536
0.0096925
0.00969021
0.00968852
0.00968741
0.00968691
0.00968702
0.00968772
0.00968899
0.00969081
0.00969314
0.00969594
0.00969916
0.00970276
0.0097067
0.00971094
0.00971545
0.00972019
0.00972512
0.00973023
0.00973549
0.00974086
0.00974633
0.00975186
0.00975745
0.00976306
0.00976868
0.00977429
0.00977987
0.0097854
0.00979087
0.00979627
0.00980159
0.0098068
0.00981192
0.00981692
0.0098218
0.00982655
0.00983118
0.00983567
0.00984003
0.00984426
0.00984835
0.00985231
0.00985614
0.00985985
0.00986342
0.00986688
0.00987022
0.00987345
0.00987658
0.0098796
0.00988253
0.00988537
0.00988813
0.00989081
0.00989343
0.00989599
0.0098985
0.00990097
0.00990341
0.00990582
0.00990822
0.00991059
0.00991293
0.00991524
0.00991752
0.00991974
0.00992192
0.00992404
0.0099261
0.00992809
0.00993001
0.00993184
0.00993359
0.00993524
0.00993679
0.00993822
0.00993955
0.00994074
0.00994181
0.00994274
0.00994353
0.00994417
0.00994466
0.00994502
0.00994525
0.0099454
0.00994548
0.0099455
0.00994547
0.00994538
0.00994523
0.00994503
0.00994477
0.00994439
0.00994383
0.0099431
0.00994217
0.00994105
0.00993974
0.0097792
0.00977914
0.00977869
0.0097776
0.00977521
0.00977169
0.00976729
0.00976216
0.00975646
0.00975037
0.00974404
0.00973763
0.00973127
0.00972507
0.0097191
0.00971341
0.00970805
0.00970305
0.00969844
0.00969428
0.00969065
0.00968764
0.00968525
0.00968349
0.00968236
0.0096819
0.00968212
0.00968299
0.00968449
0.00968658
0.00968921
0.00969232
0.00969586
0.00969979
0.00970404
0.0097086
0.0097134
0.00971843
0.00972364
0.00972901
0.00973452
0.00974013
0.00974582
0.00975157
0.00975736
0.00976316
0.00976895
0.00977472
0.00978044
0.0097861
0.00979168
0.00979717
0.00980256
0.00980784
0.00981301
0.00981804
0.00982295
0.00982772
0.00983235
0.00983684
0.00984118
0.00984539
0.00984946
0.0098534
0.0098572
0.00986087
0.00986441
0.00986784
0.00987115
0.00987436
0.00987746
0.00988048
0.00988341
0.00988627
0.00988907
0.00989182
0.00989453
0.00989722
0.00989988
0.00990252
0.00990512
0.00990769
0.00991023
0.00991272
0.00991517
0.00991757
0.00991992
0.00992222
0.00992446
0.00992663
0.00992873
0.00993076
0.0099327
0.00993456
0.00993632
0.00993797
0.00993952
0.00994094
0.00994224
0.0099434
0.00994442
0.00994529
0.00994601
0.00994658
0.00994698
0.00994724
0.00994737
0.00994742
0.00994742
0.00994736
0.00994725
0.00994709
0.00994688
0.00994662
0.00994623
0.00994567
0.00994492
0.00994398
0.00994284
0.0099415
0.00978307
0.00978395
0.00978438
0.00978351
0.00978125
0.00977776
0.00977327
0.00976796
0.00976202
0.00975565
0.00974901
0.00974225
0.00973552
0.0097289
0.00972248
0.00971634
0.0097105
0.00970502
0.00969993
0.00969528
0.00969109
0.0096874
0.00968424
0.00968163
0.00967967
0.00967845
0.00967801
0.00967833
0.00967939
0.00968114
0.00968352
0.00968645
0.00968988
0.00969373
0.00969796
0.00970251
0.00970734
0.00971241
0.00971769
0.00972314
0.00972874
0.00973445
0.00974026
0.00974614
0.00975207
0.00975802
0.00976397
0.00976989
0.00977577
0.00978159
0.00978734
0.00979299
0.00979854
0.00980397
0.00980928
0.00981446
0.00981951
0.00982441
0.00982917
0.00983379
0.00983826
0.00984258
0.00984676
0.0098508
0.00985469
0.00985846
0.0098621
0.00986562
0.00986903
0.00987233
0.00987554
0.00987868
0.00988175
0.00988476
0.00988774
0.00989068
0.00989358
0.00989644
0.00989926
0.00990203
0.00990477
0.00990746
0.0099101
0.0099127
0.00991525
0.00991775
0.00992019
0.00992258
0.00992491
0.00992717
0.00992936
0.00993148
0.00993352
0.00993546
0.00993731
0.00993906
0.00994069
0.0099422
0.00994358
0.00994483
0.00994593
0.00994688
0.00994766
0.00994829
0.00994875
0.00994905
0.00994919
0.00994922
0.0099492
0.00994913
0.00994901
0.00994884
0.00994863
0.00994836
0.00994797
0.00994741
0.00994665
0.0099457
0.00994454
0.00994317
0.00978913
0.00979074
0.00979131
0.00979049
0.00978823
0.00978468
0.00978004
0.00977451
0.00976831
0.00976162
0.00975463
0.00974749
0.00974034
0.00973329
0.00972642
0.0097198
0.0097135
0.00970756
0.009702
0.00969688
0.00969221
0.009688
0.00968429
0.00968109
0.00967844
0.00967643
0.00967515
0.00967474
0.00967522
0.00967653
0.00967858
0.00968127
0.00968453
0.00968826
0.00969242
0.00969693
0.00970174
0.00970683
0.00971214
0.00971764
0.0097233
0.00972909
0.009735
0.00974098
0.00974703
0.00975311
0.00975919
0.00976526
0.00977129
0.00977725
0.00978315
0.00978895
0.00979465
0.00980023
0.00980568
0.00981101
0.00981619
0.00982123
0.00982612
0.00983086
0.00983545
0.00983989
0.00984418
0.00984833
0.00985234
0.00985621
0.00985996
0.00986359
0.00986713
0.00987057
0.00987394
0.00987725
0.0098805
0.0098837
0.00988685
0.00988994
0.00989297
0.00989595
0.00989888
0.00990176
0.00990459
0.00990736
0.00991009
0.00991276
0.00991539
0.00991796
0.00992048
0.00992294
0.00992534
0.00992768
0.00992994
0.00993213
0.00993424
0.00993626
0.00993818
0.00994
0.0099417
0.00994328
0.00994473
0.00994604
0.00994721
0.00994821
0.00994906
0.00994973
0.00995024
0.00995058
0.00995075
0.00995079
0.00995075
0.00995066
0.00995053
0.00995036
0.00995015
0.00994989
0.00994951
0.00994895
0.00994819
0.00994723
0.00994606
0.00994468
0.00979692
0.00979852
0.00979906
0.00979819
0.00979587
0.0097922
0.00978737
0.00978159
0.00977508
0.00976804
0.00976067
0.00975311
0.00974551
0.009738
0.00973065
0.00972355
0.00971675
0.00971032
0.00970428
0.00969867
0.00969351
0.00968881
0.0096846
0.00968088
0.00967769
0.00967507
0.00967311
0.00967194
0.00967172
0.0096725
0.00967416
0.00967657
0.00967961
0.0096832
0.00968724
0.00969168
0.00969646
0.00970152
0.00970684
0.00971236
0.00971807
0.00972392
0.0097299
0.00973599
0.00974214
0.00974834
0.00975455
0.00976075
0.00976691
0.00977302
0.00977906
0.009785
0.00979085
0.00979657
0.00980217
0.00980764
0.00981296
0.00981814
0.00982316
0.00982803
0.00983275
0.00983732
0.00984173
0.009846
0.00985013
0.00985414
0.00985803
0.00986183
0.00986553
0.00986916
0.00987272
0.0098762
0.00987962
0.00988295
0.00988622
0.00988942
0.00989256
0.00989563
0.00989864
0.00990159
0.00990449
0.00990733
0.00991012
0.00991286
0.00991555
0.00991818
0.00992076
0.00992327
0.00992573
0.00992812
0.00993045
0.00993269
0.00993486
0.00993693
0.00993891
0.00994078
0.00994254
0.00994417
0.00994567
0.00994704
0.00994825
0.0099493
0.00995019
0.00995091
0.00995145
0.00995182
0.00995202
0.00995207
0.00995202
0.00995192
0.00995179
0.00995162
0.00995142
0.00995117
0.0099508
0.00995024
0.00994949
0.00994853
0.00994735
0.00994596
0.00980548
0.00980689
0.00980734
0.00980639
0.00980396
0.00980013
0.00979507
0.00978902
0.00978217
0.00977476
0.00976697
0.00975896
0.0097509
0.00974289
0.00973504
0.00972742
0.00972011
0.00971316
0.00970661
0.00970048
0.00969481
0.00968961
0.00968489
0.00968067
0.00967697
0.00967383
0.0096713
0.00966951
0.00966864
0.00966885
0.00967009
0.00967219
0.009675
0.00967841
0.00968232
0.00968666
0.00969137
0.00969639
0.00970169
0.00970723
0.00971296
0.00971887
0.00972492
0.00973109
0.00973734
0.00974365
0.00974998
0.0097563
0.0097626
0.00976885
0.00977503
0.00978112
0.00978711
0.00979298
0.00979873
0.00980434
0.00980981
0.00981513
0.00982029
0.0098253
0.00983016
0.00983486
0.00983941
0.00984383
0.00984812
0.0098523
0.00985638
0.00986037
0.00986426
0.00986807
0.00987178
0.0098754
0.00987894
0.00988238
0.00988575
0.00988904
0.00989225
0.00989539
0.00989847
0.00990148
0.00990443
0.00990733
0.00991017
0.00991296
0.00991569
0.00991837
0.00992099
0.00992356
0.00992606
0.00992849
0.00993086
0.00993315
0.00993536
0.00993747
0.00993949
0.00994141
0.00994321
0.00994488
0.00994642
0.00994782
0.00994907
0.00995016
0.00995108
0.00995183
0.0099524
0.0099528
0.00995302
0.00995307
0.00995302
0.00995292
0.00995279
0.00995262
0.00995243
0.00995219
0.00995183
0.00995128
0.00995054
0.00994958
0.00994841
0.00994701
0.0098143
0.0098156
0.00981596
0.00981493
0.00981237
0.00980835
0.00980305
0.00979668
0.00978948
0.00978167
0.00977344
0.00976497
0.00975641
0.00974789
0.00973951
0.00973136
0.00972351
0.00971601
0.00970892
0.00970225
0.00969605
0.00969032
0.00968509
0.00968035
0.00967615
0.0096725
0.00966946
0.00966713
0.00966571
0.0096654
0.00966623
0.00966802
0.00967058
0.0096738
0.00967756
0.00968179
0.00968642
0.00969139
0.00969666
0.00970219
0.00970794
0.00971389
0.00972
0.00972625
0.0097326
0.00973901
0.00974546
0.00975191
0.00975834
0.00976472
0.00977104
0.00977728
0.00978342
0.00978944
0.00979534
0.0098011
0.00980672
0.00981218
0.00981749
0.00982265
0.00982766
0.00983252
0.00983724
0.00984184
0.00984633
0.00985071
0.00985498
0.00985915
0.00986321
0.00986715
0.00987099
0.00987473
0.00987836
0.0098819
0.00988534
0.0098887
0.00989198
0.00989518
0.00989831
0.00990138
0.00990438
0.00990732
0.0099102
0.00991303
0.0099158
0.00991851
0.00992117
0.00992377
0.00992631
0.00992878
0.00993118
0.0099335
0.00993574
0.00993789
0.00993994
0.00994188
0.00994371
0.00994542
0.00994699
0.00994842
0.00994969
0.00995081
0.00995176
0.00995253
0.00995312
0.00995353
0.00995377
0.00995384
0.00995377
0.00995367
0.00995354
0.00995338
0.00995319
0.00995297
0.00995262
0.00995208
0.00995135
0.0099504
0.00994923
0.00994783
0.00982322
0.00982448
0.0098248
0.00982369
0.00982099
0.00981677
0.0098112
0.00980451
0.00979694
0.0097887
0.00978002
0.00977106
0.00976199
0.00975294
0.00974402
0.00973531
0.0097269
0.00971884
0.00971118
0.00970396
0.0096972
0.00969093
0.00968516
0.00967991
0.00967519
0.00967103
0.0096675
0.00966469
0.00966278
0.00966203
0.0096625
0.00966399
0.00966632
0.00966934
0.00967294
0.00967704
0.00968157
0.00968648
0.0096917
0.00969722
0.00970298
0.00970896
0.00971514
0.00972147
0.0097279
0.00973441
0.00974097
0.00974754
0.0097541
0.00976062
0.00976708
0.00977346
0.00977975
0.00978593
0.00979198
0.00979789
0.00980366
0.00980929
0.00981476
0.00982008
0.00982525
0.0098303
0.00983522
0.00984003
0.00984472
0.00984929
0.00985374
0.00985806
0.00986225
0.00986632
0.00987027
0.0098741
0.00987782
0.00988143
0.00988495
0.00988837
0.0098917
0.00989496
0.00989814
0.00990124
0.00990428
0.00990726
0.00991018
0.00991304
0.00991584
0.00991858
0.00992127
0.0099239
0.00992646
0.00992896
0.00993138
0.00993373
0.00993599
0.00993817
0.00994024
0.00994221
0.00994407
0.00994579
0.00994739
0.00994884
0.00995013
0.00995127
0.00995224
0.00995302
0.00995363
0.00995406
0.0099543
0.00995438
0.00995431
0.00995421
0.00995407
0.00995391
0.00995374
0.00995353
0.00995318
0.00995266
0.00995193
0.00995098
0.00994981
0.00994841
0.00983216
0.00983345
0.00983376
0.00983258
0.00982974
0.00982531
0.00981947
0.00981244
0.00980448
0.00979582
0.00978667
0.00977722
0.00976763
0.00975803
0.00974855
0.00973928
0.00973029
0.00972165
0.00971342
0.00970562
0.00969829
0.00969146
0.00968514
0.00967935
0.00967411
0.00966946
0.00966544
0.00966217
0.00965983
0.0096587
0.00965884
0.00966006
0.00966216
0.00966499
0.00966843
0.00967239
0.00967682
0.00968164
0.00968681
0.0096923
0.00969807
0.00970409
0.00971031
0.00971671
0.00972322
0.00972983
0.0097365
0.00974318
0.00974987
0.00975652
0.00976313
0.00976966
0.00977609
0.00978242
0.00978863
0.0097947
0.00980063
0.00980642
0.00981206
0.00981756
0.00982294
0.00982819
0.00983333
0.00983834
0.00984321
0.00984795
0.00985255
0.009857
0.00986132
0.00986549
0.00986954
0.00987346
0.00987725
0.00988094
0.00988451
0.00988799
0.00989138
0.00989468
0.0098979
0.00990104
0.00990412
0.00990713
0.00991007
0.00991296
0.00991579
0.00991856
0.00992127
0.00992392
0.0099265
0.00992902
0.00993146
0.00993383
0.00993612
0.00993831
0.00994041
0.0099424
0.00994427
0.00994602
0.00994763
0.00994909
0.00995041
0.00995156
0.00995254
0.00995334
0.00995396
0.00995439
0.00995464
0.00995472
0.00995465
0.00995454
0.0099544
0.00995425
0.00995407
0.00995388
0.00995354
0.00995302
0.0099523
0.00995136
0.00995019
0.00994878
0.00984105
0.00984243
0.00984278
0.00984155
0.00983858
0.00983394
0.00982781
0.00982045
0.00981209
0.009803
0.00979337
0.00978342
0.0097733
0.00976316
0.00975311
0.00974326
0.00973369
0.00972446
0.00971563
0.00970725
0.00969934
0.00969193
0.00968506
0.00967872
0.00967296
0.0096678
0.00966332
0.0096596
0.00965688
0.00965542
0.00965528
0.00965624
0.00965811
0.00966074
0.00966401
0.00966783
0.00967213
0.00967687
0.00968198
0.00968744
0.0096932
0.00969925
0.00970551
0.00971197
0.00971856
0.00972525
0.00973202
0.00973882
0.00974563
0.00975242
0.00975916
0.00976583
0.00977242
0.0097789
0.00978526
0.00979149
0.00979759
0.00980355
0.00980938
0.00981509
0.00982068
0.00982614
0.00983148
0.00983667
0.00984171
0.0098466
0.00985133
0.0098559
0.00986033
0.0098646
0.00986874
0.00987273
0.0098766
0.00988035
0.00988399
0.00988752
0.00989095
0.0098943
0.00989755
0.00990073
0.00990384
0.00990688
0.00990985
0.00991276
0.00991562
0.00991841
0.00992114
0.00992381
0.00992641
0.00992895
0.00993141
0.0099338
0.0099361
0.00993831
0.00994042
0.00994243
0.00994432
0.00994608
0.00994771
0.00994919
0.00995051
0.00995168
0.00995267
0.00995348
0.00995411
0.00995455
0.0099548
0.00995488
0.00995481
0.00995469
0.00995455
0.00995439
0.00995422
0.00995403
0.0099537
0.00995319
0.00995247
0.00995153
0.00995035
0.00994894
0.00984987
0.00985139
0.00985181
0.00985056
0.00984746
0.00984261
0.0098362
0.00982849
0.00981974
0.00981021
0.00980012
0.00978966
0.00977901
0.00976832
0.00975771
0.00974728
0.00973712
0.00972729
0.00971787
0.00970889
0.00970039
0.00969241
0.00968496
0.00967808
0.00967179
0.00966613
0.00966117
0.00965704
0.00965395
0.0096522
0.00965181
0.00965253
0.00965418
0.0096566
0.00965968
0.00966335
0.00966753
0.00967216
0.0096772
0.00968262
0.00968837
0.00969443
0.00970073
0.00970723
0.00971389
0.00972067
0.00972752
0.00973443
0.00974136
0.00974827
0.00975515
0.00976196
0.00976869
0.00977533
0.00978184
0.00978824
0.00979451
0.00980066
0.00980669
0.00981261
0.00981841
0.00982407
0.00982958
0.00983494
0.00984013
0.00984516
0.00985001
0.0098547
0.00985922
0.00986359
0.00986781
0.00987188
0.00987582
0.00987964
0.00988333
0.00988691
0.00989039
0.00989377
0.00989707
0.00990028
0.00990342
0.00990649
0.00990949
0.00991242
0.00991529
0.00991811
0.00992086
0.00992354
0.00992617
0.00992872
0.0099312
0.00993361
0.00993593
0.00993816
0.00994029
0.00994231
0.00994421
0.00994599
0.00994763
0.00994912
0.00995046
0.00995164
0.00995264
0.00995346
0.00995409
0.00995454
0.00995479
0.00995487
0.0099548
0.00995467
0.00995452
0.00995436
0.00995419
0.00995401
0.00995369
0.00995318
0.00995246
0.00995151
0.00995033
0.00994891
0.00985858
0.0098603
0.00986084
0.00985958
0.00985637
0.0098513
0.00984461
0.00983656
0.00982742
0.00981745
0.00980689
0.00979594
0.00978477
0.00977353
0.00976235
0.00975134
0.00974059
0.00973017
0.00972015
0.00971057
0.00970149
0.00969292
0.00968491
0.00967748
0.00967066
0.0096645
0.00965908
0.00965453
0.00965111
0.0096491
0.00964846
0.00964894
0.00965036
0.00965256
0.00965546
0.00965895
0.00966299
0.00966751
0.00967247
0.00967784
0.00968357
0.00968962
0.00969594
0.00970248
0.0097092
0.00971605
0.00972299
0.00973
0.00973703
0.00974406
0.00975107
0.00975802
0.00976489
0.00977167
0.00977835
0.00978491
0.00979136
0.0097977
0.00980394
0.00981006
0.00981605
0.0098219
0.00982758
0.00983309
0.00983842
0.00984357
0.00984854
0.00985333
0.00985796
0.00986241
0.00986671
0.00987086
0.00987487
0.00987874
0.00988249
0.00988612
0.00988965
0.00989307
0.00989641
0.00989965
0.00990282
0.00990592
0.00990894
0.0099119
0.0099148
0.00991763
0.0099204
0.00992311
0.00992575
0.00992833
0.00993083
0.00993325
0.00993559
0.00993784
0.00993998
0.00994202
0.00994394
0.00994574
0.00994739
0.0099489
0.00995025
0.00995144
0.00995245
0.00995328
0.00995392
0.00995437
0.00995463
0.00995471
0.00995463
0.00995448
0.00995433
0.00995417
0.009954
0.00995382
0.0099535
0.00995299
0.00995227
0.00995132
0.00995013
0.0099487
0.00986716
0.00986915
0.00986984
0.00986859
0.00986527
0.00986
0.00985302
0.00984463
0.00983511
0.00982471
0.00981369
0.00980225
0.00979057
0.0097788
0.00976706
0.00975548
0.00974415
0.00973313
0.00972252
0.00971234
0.00970267
0.00969352
0.00968494
0.00967695
0.00966961
0.00966295
0.00965707
0.00965213
0.0096484
0.00964615
0.00964525
0.00964549
0.00964666
0.00964864
0.00965133
0.00965465
0.00965853
0.00966292
0.00966779
0.00967309
0.00967878
0.00968482
0.00969115
0.00969771
0.00970447
0.00971138
0.0097184
0.00972549
0.00973263
0.00973977
0.00974689