/*--------------------------------*- C++ -*----------------------------------*\
  =========                 |
  \\      /  F ield         | OpenFOAM: The Open Source CFD Toolbox
   \\    /   O peration     | Website:  https://openfoam.org
    \\  /    A nd           | Version:  8
     \\/     M anipulation  |
\*---------------------------------------------------------------------------*/
FoamFile
{
    version     2.0;
    format      ascii;
    class       volVectorField;
    location    "0.2";
    object      U;
}
// * * * * * * * * * * * * * * * * * * * * * * * * * * * * * * * * * * * * * //

dimensions      [0 1 -1 0 0 0 0];

internalField   nonuniform List<vector> 
114690
(
(14.9999 3.55236e-06 -2.85535e-24)
(15 5.74659e-07 -6.61652e-23)
(14.9999 3.52085e-06 -3.51759e-22)
(14.9998 9.92314e-06 1.0573e-22)
(14.9998 1.71739e-05 1.87544e-21)
(14.9997 2.38614e-05 -1.9552e-21)
(14.9997 2.95584e-05 -7.59966e-23)
(14.9997 3.53436e-05 8.04162e-22)
(14.9997 4.15505e-05 2.60049e-21)
(14.9997 4.82908e-05 -4.38208e-21)
(14.9997 5.48004e-05 -1.18865e-22)
(14.9997 6.13304e-05 7.99899e-21)
(14.9997 6.81904e-05 5.39038e-21)
(14.9997 7.48883e-05 5.83361e-21)
(14.9997 8.17713e-05 5.36624e-21)
(14.9997 8.85858e-05 9.21551e-21)
(14.9996 9.53965e-05 -7.06412e-21)
(14.9996 0.000102546 1.28031e-20)
(14.9996 0.000109439 -9.71005e-21)
(14.9996 0.000116294 -1.47387e-20)
(14.9996 0.000123221 -2.70817e-20)
(14.9996 0.000130307 -1.178e-20)
(14.9996 0.000137131 -1.23993e-20)
(14.9996 0.000144196 -7.2535e-21)
(14.9996 0.000151045 6.31461e-21)
(14.9996 0.000158164 1.41633e-20)
(14.9996 0.000165126 -2.25669e-20)
(14.9996 0.000171954 3.0536e-20)
(14.9996 0.00017892 -2.13622e-22)
(14.9996 0.000185884 1.62604e-20)
(14.9996 0.000192881 1.62467e-20)
(14.9996 0.000199637 2.01424e-22)
(14.9996 0.000206433 1.69284e-20)
(14.9996 0.000213261 1.76081e-20)
(14.9996 0.000219746 -1.78541e-20)
(14.9996 0.000226466 2.01589e-22)
(14.9996 0.000233004 -2.81748e-20)
(14.9996 0.000239566 1.82391e-20)
(14.9996 0.000246332 -7.91646e-21)
(14.9996 0.000252635 3.7184e-20)
(14.9997 0.000259156 -3.73519e-20)
(14.9997 0.000265458 3.00281e-20)
(14.9997 0.000271555 7.20921e-21)
(14.9997 0.000277722 -1.80942e-22)
(14.9997 0.000283929 1.88212e-20)
(14.9997 0.000289853 6.30301e-21)
(14.9997 0.000296045 1.85546e-20)
(14.9997 0.000301995 -3.10471e-20)
(14.9997 0.000307602 -1.85609e-20)
(14.9997 0.00031346 4.43516e-20)
(14.9997 0.000319001 1.3302e-20)
(14.9997 0.000324677 3.59685e-20)
(14.9997 0.000330095 3.56541e-20)
(14.9997 0.000335694 -1.37021e-20)
(14.9997 0.000340963 -1.40202e-20)
(14.9997 0.000346131 -1.72327e-20)
(14.9997 0.000351265 -3.40309e-20)
(14.9997 0.000356428 1.43489e-20)
(14.9997 0.000361239 1.66661e-20)
(14.9997 0.000366225 -1.64013e-20)
(14.9997 0.000371048 1.61379e-20)
(14.9997 0.000375528 -1.19854e-22)
(14.9997 0.000380212 1.55469e-20)
(14.9998 0.000384635 -1.22088e-22)
(14.9998 0.000389097 1.49192e-20)
(14.9998 0.000393446 -3.00814e-20)
(14.9998 0.000397513 0)
(14.9998 0.000401853 -1.38268e-20)
(14.9998 0.000405862 1.34889e-20)
(14.9998 0.000409711 1.31298e-20)
(14.9998 0.000413482 2.88308e-20)
(14.9998 0.000417154 -1.60649e-20)
(14.9998 0.000420663 -2.42252e-20)
(14.9998 0.000424105 2.8178e-20)
(14.9998 0.000427643 -3.30364e-20)
(14.9998 0.000430957 1.64613e-20)
(14.9998 0.000433921 3.7751e-20)
(14.9998 0.000437208 -6.761e-21)
(14.9998 0.00044011 0)
(14.9999 0.000442958 0)
(14.9999 0.000445534 0)
(14.9999 0.000448275 -8.41229e-21)
(14.9999 0.000450824 0)
(14.9999 0.000453348 -9.68265e-21)
(14.9999 0.000455554 3.45337e-20)
(14.9999 0.000457633 1.35146e-20)
(14.9999 0.000459894 -5.8703e-20)
(14.9999 0.00046181 1.16988e-20)
(14.9999 0.00046367 1.22496e-20)
(14.9999 0.000465422 -1.76206e-20)
(14.9999 0.00046715 -4.47835e-21)
(14.9999 0.00046877 4.02453e-21)
(14.9999 0.000470155 3.51563e-21)
(15 0.000471442 3.2649e-20)
(15 0.000472553 3.84165e-20)
(15 0.000473657 -1.57888e-20)
(15 0.00047458 -3.59814e-20)
(15 0.000475506 0)
(15 0.000476175 7.13812e-22)
(15 0.000476784 1.8101e-20)
(15 0.000477299 -2.27796e-22)
(15 0.00047772 -1.74074e-20)
(15 0.000478079 0)
(15 0.000478181 3.62537e-20)
(15 0.000478284 -8.58898e-21)
(15 0.000478202 -1.5468e-20)
(15 0.000478114 -6.22506e-21)
(15.0001 0.000477844 -1.80937e-20)
(15.0001 0.000477474 -2.21606e-20)
(15.0001 0.00047686 9.09698e-21)
(15.0001 0.000476134 4.96376e-21)
(15.0001 0.000475381 1.80855e-20)
(15.0001 0.000474514 -6.0391e-21)
(15.0001 0.000473585 1.81101e-20)
(15.0001 0.000472297 -1.39228e-20)
(15.0001 0.000471194 -1.04174e-20)
(15.0001 0.000469954 -2.58702e-20)
(15.0001 0.00046838 8.46286e-21)
(15.0001 0.000466775 4.46051e-20)
(15.0001 0.000464965 -2.70126e-20)
(15.0002 0.000463321 -1.7692e-20)
(15.0002 0.000461387 2.02528e-20)
(15.0002 0.000459391 1.7685e-20)
(15.0002 0.000456981 6.51749e-21)
(15.0002 0.000454907 -5.80904e-20)
(15.0002 0.000452455 1.20781e-20)
(15.0002 0.000449758 4.92526e-21)
(15.0002 0.000447156 -3.46711e-20)
(15.0002 0.000444473 4.38523e-20)
(15.0002 0.000441608 3.4271e-21)
(15.0002 0.000438628 -1.70778e-20)
(15.0002 0.000435555 -1.1822e-20)
(15.0002 0.000432301 3.17915e-20)
(15.0002 0.00042868 -3.21986e-20)
(15.0003 0.000425342 1.46006e-20)
(15.0003 0.000421688 1.67568e-20)
(15.0003 0.0004179 1.65264e-20)
(15.0003 0.000414141 -3.33636e-20)
(15.0003 0.000410086 -4.99284e-20)
(15.0003 0.000406241 1.58892e-22)
(15.0003 0.000402006 1.61051e-20)
(15.0003 0.000397579 0)
(15.0003 0.000393329 1.85148e-20)
(15.0003 0.000388677 0)
(15.0003 0.000384039 -1.57355e-20)
(15.0003 0.000379349 1.95972e-20)
(15.0003 0.000374529 -4.40386e-21)
(15.0003 0.000369322 1.99552e-20)
(15.0003 0.0003643 1.51485e-20)
(15.0004 0.00035897 -4.09979e-20)
(15.0004 0.000353772 -8.81356e-21)
(15.0004 0.000348196 6.38489e-21)
(15.0004 0.000342884 3.54779e-20)
(15.0004 0.000337161 -7.06704e-21)
(15.0004 0.000331138 0)
(15.0004 0.000325399 7.51727e-21)
(15.0004 0.000319311 3.534e-20)
(15.0004 0.000313244 3.45229e-20)
(15.0004 0.000307231 -3.45843e-20)
(15.0004 0.000300956 8.6109e-21)
(15.0004 0.000294397 2.23026e-22)
(15.0004 0.000288064 1.22534e-20)
(15.0004 0.000281158 -1.21962e-20)
(15.0004 0.00027446 2.41043e-20)
(15.0004 0.000267758 1.42416e-21)
(15.0004 0.000260806 -4.34548e-20)
(15.0004 0.000254099 -1.0815e-20)
(15.0004 0.000246947 -9.78965e-21)
(15.0004 0.000239794 -2.42425e-22)
(15.0004 0.000232651 2.60493e-22)
(15.0004 0.000225174 9.49677e-21)
(15.0004 0.000217693 4.06839e-25)
(15.0005 0.000210164 -5.51808e-20)
(15.0005 0.000202757 2.80382e-20)
(15.0005 0.000195137 -2.70488e-20)
(15.0005 0.000187267 2.47665e-20)
(15.0005 0.000179681 -2.39885e-20)
(15.0005 0.000171767 2.00283e-21)
(15.0005 0.000164096 2.15329e-20)
(15.0005 0.000156029 -1.92414e-21)
(15.0005 0.0001481 -1.35467e-20)
(15.0005 0.000140192 1.2734e-20)
(15.0005 0.000132161 4.71202e-21)
(15.0005 0.000123719 -6.22626e-21)
(15.0005 0.000115633 -2.38888e-20)
(15.0004 0.000107453 1.08934e-20)
(15.0004 9.90904e-05 -7.98051e-21)
(15.0004 9.08722e-05 4.21203e-21)
(15.0004 8.23319e-05 8.75595e-21)
(15.0004 7.41273e-05 -3.50094e-21)
(15.0004 6.58245e-05 1.09247e-21)
(15.0004 5.70798e-05 3.77153e-21)
(15.0004 4.89595e-05 -4.16178e-21)
(15.0004 4.13301e-05 2.44384e-21)
(15.0004 3.36813e-05 1.09421e-21)
(15.0003 2.44131e-05 1.55567e-21)
(15.0003 1.40765e-05 -7.63733e-22)
(15.0001 5.02292e-06 -5.31011e-22)
(14.9999 5.47284e-07 2.97611e-22)
(15.0002 5.40903e-06 -3.94674e-23)
(14.9984 8.35834e-06 2.83045e-23)
(14.9994 2.42294e-05 -3.31602e-22)
(14.9997 7.99544e-06 -7.59595e-23)
(14.9996 1.33384e-05 -1.29185e-21)
(14.9994 3.20876e-05 1.81539e-21)
(14.9993 5.50854e-05 -1.37535e-21)
(14.9992 7.54753e-05 -3.04796e-21)
(14.9992 9.32891e-05 1.18683e-22)
(14.9991 0.000110785 1.10999e-21)
(14.9991 0.000129916 2.7157e-22)
(14.9991 0.000149553 -4.02234e-21)
(14.999 0.00016923 2.23121e-21)
(14.999 0.000189287 7.00395e-21)
(14.999 0.000209306 -4.89599e-21)
(14.999 0.000229819 2.08327e-20)
(14.999 0.000250422 1.91353e-21)
(14.9989 0.000270972 -1.46101e-20)
(14.9989 0.000291996 -2.12025e-21)
(14.9989 0.000312895 1.02042e-20)
(14.9989 0.000333843 -4.58243e-23)
(14.9989 0.00035484 -5.74788e-21)
(14.9989 0.000376114 -2.06279e-20)
(14.9989 0.000397075 -1.49944e-20)
(14.9989 0.000418352 -4.74491e-23)
(14.9989 0.000439342 -7.22812e-21)
(14.9989 0.000460634 1.50154e-20)
(14.9989 0.000481958 6.415e-22)
(14.9989 0.000502994 5.14389e-22)
(14.9989 0.000523995 -9.32369e-21)
(14.9989 0.000545091 -8.96132e-21)
(14.9989 0.000566077 9.1031e-21)
(14.9989 0.000586873 4.78532e-22)
(14.9989 0.000607694 -2.99265e-20)
(14.9989 0.000628447 8.02771e-20)
(14.9989 0.000648754 1.07397e-20)
(14.9989 0.000669184 2.02553e-20)
(14.9989 0.000689254 -2.22595e-20)
(14.9989 0.000709309 -3.99428e-22)
(14.9989 0.000729641 2.10487e-20)
(14.9989 0.000749205 5.28619e-20)
(14.9989 0.000768973 3.34839e-20)
(14.999 0.000788365 -4.3988e-21)
(14.999 0.000807387 2.07658e-20)
(14.999 0.000826337 0)
(14.999 0.000845237 7.61099e-21)
(14.999 0.000863668 -1.34522e-20)
(14.999 0.000882341 4.74469e-20)
(14.999 0.000900399 -2.66231e-20)
(14.999 0.000917965 -4.81657e-20)
(14.999 0.000935749 1.39093e-20)
(14.9991 0.000953169 2.02135e-20)
(14.9991 0.00097034 1.01646e-20)
(14.9991 0.000987063 6.81803e-20)
(14.9991 0.00100402 3.43787e-20)
(14.9991 0.00102029 -1.61307e-22)
(14.9991 0.00103636 1.16162e-20)
(14.9991 0.00105225 -1.51594e-20)
(14.9992 0.00106782 -3.11763e-20)
(14.9992 0.00108293 5.1475e-20)
(14.9992 0.0010981 3.54097e-20)
(14.9992 0.00111277 1.34293e-21)
(14.9992 0.00112698 0)
(14.9992 0.00114124 1.67056e-20)
(14.9992 0.00115499 -1.63514e-20)
(14.9993 0.00116855 3.24029e-20)
(14.9993 0.00118175 9.38059e-23)
(14.9993 0.00119467 -1.20271e-22)
(14.9993 0.00120754 -3.15448e-20)
(14.9993 0.00121984 -3.39565e-20)
(14.9994 0.00123176 7.1441e-24)
(14.9994 0.00124335 3.41864e-20)
(14.9994 0.0012548 3.46038e-20)
(14.9994 0.00126579 -1.73444e-20)
(14.9994 0.00127637 7.55432e-21)
(14.9995 0.001287 -1.74996e-20)
(14.9995 0.00129712 -2.9371e-20)
(14.9995 0.00130669 1.12793e-20)
(14.9995 0.00131643 1.77919e-20)
(14.9995 0.00132548 2.83362e-20)
(14.9996 0.00133422 -9.93761e-21)
(14.9996 0.00134244 2.75451e-20)
(14.9996 0.00135065 9.09752e-21)
(14.9996 0.00135848 -4.50385e-20)
(14.9996 0.00136606 -1.83324e-20)
(14.9997 0.001373 1.83514e-20)
(14.9997 0.00137962 3.2854e-20)
(14.9997 0.00138619 -4.21962e-24)
(14.9997 0.00139234 1.85617e-20)
(14.9997 0.00139799 4.59136e-23)
(14.9998 0.00140339 -2.39842e-20)
(14.9998 0.00140868 -2.35241e-20)
(14.9998 0.00141341 -4.19048e-20)
(14.9998 0.00141768 3.38453e-20)
(14.9999 0.0014216 3.78375e-20)
(14.9999 0.00142523 8.42565e-21)
(14.9999 0.00142877 6.95233e-21)
(14.9999 0.00143166 -2.08857e-20)
(14.9999 0.0014344 -1.9098e-20)
(15 0.00143644 -6.3191e-24)
(15 0.00143833 1.88826e-20)
(15 0.0014399 1.89758e-20)
(15 0.00144117 -5.72053e-24)
(15.0001 0.00144227 -1.92012e-20)
(15.0001 0.00144268 -3.84404e-20)
(15.0001 0.00144292 1.472e-20)
(15.0001 0.00144252 1.63755e-20)
(15.0001 0.00144201 -2.2424e-20)
(15.0002 0.0014412 -3.56011e-23)
(15.0002 0.00144003 1.48981e-20)
(15.0002 0.00143839 3.82737e-20)
(15.0002 0.00143616 -4.36148e-20)
(15.0003 0.00143381 -1.90296e-20)
(15.0003 0.0014312 -3.59275e-23)
(15.0003 0.00142807 6.88493e-21)
(15.0003 0.00142448 4.32215e-21)
(15.0004 0.00142084 1.56924e-20)
(15.0004 0.00141684 -1.90247e-20)
(15.0004 0.00141217 8.90611e-21)
(15.0004 0.00140723 1.98123e-22)
(15.0004 0.00140187 -9.84745e-21)
(15.0005 0.00139648 4.80852e-20)
(15.0005 0.00139053 -1.48355e-22)
(15.0005 0.00138424 -3.74133e-20)
(15.0005 0.00137719 -3.05507e-20)
(15.0006 0.00137031 6.65913e-23)
(15.0006 0.00136282 4.4035e-20)
(15.0006 0.00135477 -1.32374e-20)
(15.0006 0.00134674 1.85397e-20)
(15.0006 0.00133825 2.82552e-20)
(15.0007 0.00132925 -3.29007e-20)
(15.0007 0.00132006 -3.66446e-20)
(15.0007 0.00131049 5.22467e-20)
(15.0007 0.00130048 3.5837e-20)
(15.0008 0.00128983 -1.61882e-20)
(15.0008 0.00127908 -2.02051e-22)
(15.0008 0.001268 -3.49071e-22)
(15.0008 0.0012565 -1.78697e-20)
(15.0008 0.00124474 -5.35347e-20)
(15.0009 0.00123239 1.01322e-21)
(15.0009 0.00122005 5.54283e-20)
(15.0009 0.00120716 3.66158e-20)
(15.0009 0.00119368 -2.37143e-21)
(15.0009 0.00118022 -1.57322e-22)
(15.001 0.00116622 3.51249e-21)
(15.001 0.00115179 0)
(15.001 0.00113712 4.31112e-21)
(15.001 0.00112217 1.68964e-20)
(15.001 0.0011064 1.62159e-20)
(15.001 0.00109083 -3.26858e-20)
(15.0011 0.0010747 -5.93397e-21)
(15.0011 0.00105822 1.5735e-20)
(15.0011 0.00104127 7.15157e-21)
(15.0011 0.0010245 3.04214e-20)
(15.0011 0.0010071 -2.31121e-20)
(15.0012 0.000988929 3.06416e-20)
(15.0012 0.000970959 -2.3843e-20)
(15.0012 0.000952372 3.91619e-20)
(15.0012 0.000933648 -3.9239e-20)
(15.0012 0.000914757 1.01137e-20)
(15.0012 0.000895351 2.36476e-20)
(15.0012 0.000875417 3.46327e-20)
(15.0013 0.000855631 1.36476e-20)
(15.0013 0.000834843 1.04836e-20)
(15.0013 0.000814282 1.36654e-20)
(15.0013 0.000793596 1.25285e-20)
(15.0013 0.000772378 -3.64853e-20)
(15.0013 0.000751191 -3.62366e-20)
(15.0013 0.000729356 1.24381e-20)
(15.0013 0.000707313 -1.19034e-20)
(15.0013 0.000685175 2.89195e-22)
(15.0013 0.000662672 -1.16882e-20)
(15.0014 0.000639894 -6.62678e-20)
(15.0014 0.00061709 4.85349e-22)
(15.0014 0.000594089 3.20412e-20)
(15.0014 0.000570574 2.15223e-20)
(15.0014 0.000546931 1.77787e-20)
(15.0014 0.000523487 -4.77521e-20)
(15.0014 0.000499504 1.88866e-20)
(15.0014 0.00047573 1.01057e-20)
(15.0014 0.000451354 1.75214e-20)
(15.0014 0.000427122 1.38286e-20)
(15.0014 0.000402727 -9.09077e-21)
(15.0014 0.000378162 -6.13204e-21)
(15.0014 0.000353188 -1.88798e-20)
(15.0014 0.000328565 -1.47109e-20)
(15.0014 0.000303604 -5.10663e-21)
(15.0013 0.000278466 -1.36963e-20)
(15.0013 0.000253672 3.23035e-21)
(15.0013 0.000228517 -2.95989e-21)
(15.0013 0.000203519 2.73015e-21)
(15.0013 0.000178194 -1.74308e-22)
(15.0012 0.000153247 -3.61933e-21)
(15.0012 0.000130249 2.55633e-21)
(15.0011 0.000106369 7.28983e-21)
(15.0011 7.81508e-05 -6.18683e-22)
(15.0009 4.55117e-05 -1.05084e-22)
(15.0006 1.86255e-05 -1.85247e-21)
(15.0004 1.16193e-05 9.94448e-22)
(15.0009 3.58897e-05 -1.68299e-22)
(15.0023 1.28378e-05 -1.46917e-22)
(14.997 7.66183e-06 3.63548e-23)
(14.9985 4.64274e-05 4.83514e-23)
(14.9993 3.67098e-05 2.54435e-22)
(14.9993 2.77875e-05 -7.70041e-22)
(14.999 4.22062e-05 -7.70328e-22)
(14.9988 7.58533e-05 3.2684e-21)
(14.9987 0.000113346 -8.64595e-22)
(14.9986 0.000146565 0)
(14.9985 0.000176415 -7.06082e-21)
(14.9985 0.000207208 1.13581e-20)
(14.9984 0.000239539 -1.03794e-20)
(14.9984 0.000272444 2.36731e-21)
(14.9983 0.000305571 2.56204e-21)
(14.9983 0.000338916 -1.05563e-20)
(14.9983 0.00037294 8.27188e-21)
(14.9983 0.000407208 4.11394e-21)
(14.9982 0.000441484 -2.09541e-20)
(14.9982 0.000476258 -2.22655e-20)
(14.9982 0.000511029 6.93031e-21)
(14.9982 0.000546015 7.5272e-21)
(14.9982 0.000581192 2.70133e-20)
(14.9982 0.000616521 6.36027e-21)
(14.9982 0.000651836 8.50494e-21)
(14.9982 0.000687364 -1.58773e-20)
(14.9982 0.000722586 7.51164e-21)
(14.9981 0.000758079 -3.37583e-20)
(14.9981 0.000793701 3.48553e-20)
(14.9981 0.00082894 8.32558e-21)
(14.9981 0.000864074 8.90755e-21)
(14.9981 0.000899415 -9.08033e-21)
(14.9981 0.000934457 -1.94051e-20)
(14.9982 0.000969491 2.94026e-20)
(14.9982 0.00100446 -4.98689e-20)
(14.9982 0.00103928 -3.10252e-20)
(14.9982 0.00107359 4.19415e-20)
(14.9982 0.00110802 4.09079e-20)
(14.9982 0.00114188 2.06292e-20)
(14.9982 0.0011756 -1.14992e-20)
(14.9982 0.00120951 8.9958e-21)
(14.9982 0.00124265 -4.18243e-20)
(14.9982 0.00127566 5.42697e-20)
(14.9982 0.00130848 1.26736e-20)
(14.9983 0.00134071 2.09648e-20)
(14.9983 0.00137293 2.09543e-20)
(14.9983 0.00140479 0)
(14.9983 0.00143594 -1.34137e-20)
(14.9983 0.00146715 6.25539e-21)
(14.9983 0.00149773 3.4935e-20)
(14.9984 0.00152777 -2.83985e-20)
(14.9984 0.00155765 -2.03607e-20)
(14.9984 0.00158721 2.59503e-20)
(14.9984 0.00161639 -3.47195e-20)
(14.9985 0.00164467 -2.48029e-20)
(14.9985 0.00167308 5.42063e-20)
(14.9985 0.00170079 1.51096e-20)
(14.9985 0.00172819 1.92508e-20)
(14.9985 0.00175495 4.08752e-20)
(14.9986 0.00178133 2.94642e-21)
(14.9986 0.0018072 -3.16264e-20)
(14.9986 0.00183273 3.37693e-20)
(14.9987 0.00185768 5.00293e-20)
(14.9987 0.00188193 1.73222e-20)
(14.9987 0.00190599 1.63049e-20)
(14.9987 0.00192952 1.16681e-22)
(14.9988 0.00195244 -4.93439e-20)
(14.9988 0.00197482 3.19239e-20)
(14.9988 0.00199682 1.68184e-20)
(14.9989 0.00201833 1.5317e-20)
(14.9989 0.00203925 -3.2032e-20)
(14.9989 0.00205954 -2.04225e-23)
(14.9989 0.00207935 3.24914e-21)
(14.999 0.00209884 -1.7286e-20)
(14.999 0.0021177 -2.19792e-20)
(14.999 0.00213574 3.04232e-20)
(14.9991 0.00215343 3.01735e-20)
(14.9991 0.00217077 -1.19569e-20)
(14.9991 0.00218738 -1.15219e-20)
(14.9992 0.00220348 -4.01235e-20)
(14.9992 0.00221896 7.3953e-21)
(14.9992 0.00223391 -1.00011e-20)
(14.9993 0.00224804 -3.66264e-20)
(14.9993 0.00226192 4.59314e-20)
(14.9993 0.00227524 9.61149e-22)
(14.9994 0.00228805 -3.70637e-20)
(14.9994 0.00229989 -6.19593e-23)
(14.9995 0.00231131 4.55682e-23)
(14.9995 0.00232232 -2.56436e-20)
(14.9995 0.00233286 1.87787e-20)
(14.9996 0.00234258 3.18283e-20)
(14.9996 0.0023518 5.4585e-21)
(14.9996 0.00236052 4.88729e-21)
(14.9997 0.00236847 2.55067e-23)
(14.9997 0.00237589 -2.30393e-20)
(14.9998 0.00238267 -3.48898e-20)
(14.9998 0.00238897 -1.92433e-20)
(14.9998 0.00239487 5.77463e-20)
(14.9999 0.00239981 1.74296e-20)
(14.9999 0.00240423 -1.93316e-20)
(14.9999 0.00240788 1.85247e-20)
(15 0.00241124 3.33291e-22)
(15 0.00241391 -1.96282e-20)
(15.0001 0.00241589 7.21047e-22)
(15.0001 0.00241759 0)
(15.0001 0.0024185 1.7552e-21)
(15.0002 0.00241888 -1.71659e-20)
(15.0002 0.0024183 -2.78532e-21)
(15.0002 0.00241729 2.2757e-20)
(15.0003 0.00241579 -2.71242e-20)
(15.0003 0.00241363 -1.93869e-20)
(15.0004 0.00241091 1.26055e-24)
(15.0004 0.0024074 -1.64901e-23)
(15.0004 0.00240334 3.87502e-20)
(15.0005 0.00239877 1.92566e-20)
(15.0005 0.00239333 -1.92771e-20)
(15.0006 0.00238738 1.92999e-20)
(15.0006 0.002381 2.7201e-20)
(15.0006 0.00237415 -3.8513e-20)
(15.0007 0.00236627 -2.93132e-20)
(15.0007 0.00235783 9.66751e-21)
(15.0007 0.00234878 4.8211e-20)
(15.0008 0.00233945 1.04331e-20)
(15.0008 0.0023292 -3.00068e-20)
(15.0009 0.00231838 0)
(15.0009 0.00230687 1.89831e-20)
(15.0009 0.00229478 3.1347e-20)
(15.001 0.00228188 -1.88476e-20)
(15.001 0.00226857 -1.87068e-20)
(15.001 0.00225484 1.87476e-20)
(15.0011 0.00224019 -2.89613e-20)
(15.0011 0.00222482 -1.85098e-20)
(15.0012 0.00220905 1.85416e-20)
(15.0012 0.00219272 3.42213e-20)
(15.0012 0.00217567 -5.09503e-20)
(15.0013 0.00215791 -1.46149e-21)
(15.0013 0.00213956 -1.61279e-20)
(15.0013 0.00212074 1.74741e-20)
(15.0014 0.00210128 -3.59543e-20)
(15.0014 0.00208108 1.79572e-20)
(15.0014 0.00206023 3.66042e-20)
(15.0015 0.00203911 1.93033e-20)
(15.0015 0.00201714 -1.56301e-20)
(15.0015 0.00199446 -1.7217e-20)
(15.0016 0.00197131 5.50512e-20)
(15.0016 0.00194753 -1.66513e-22)
(15.0016 0.00192323 -1.69953e-20)
(15.0017 0.00189813 0)
(15.0017 0.00187259 4.35836e-20)
(15.0017 0.00184618 -4.4241e-20)
(15.0018 0.0018198 0)
(15.0018 0.00179232 2.27004e-20)
(15.0018 0.00176429 -2.29728e-20)
(15.0018 0.00173579 1.61345e-20)
(15.0019 0.00170699 7.29109e-21)
(15.0019 0.00167746 3.18986e-20)
(15.0019 0.00164709 -2.18943e-22)
(15.002 0.00161665 -4.77497e-20)
(15.002 0.00158527 1.49569e-20)
(15.002 0.00155333 -5.77817e-20)
(15.002 0.00152123 3.88602e-20)
(15.0021 0.00148831 -2.4367e-20)
(15.0021 0.00145501 -1.41987e-20)
(15.0021 0.00142139 -2.41721e-20)
(15.0021 0.00138671 1.03931e-20)
(15.0021 0.00135206 3.83803e-20)
(15.0022 0.00131708 -1.17971e-20)
(15.0022 0.00128123 -6.23586e-20)
(15.0022 0.00124533 -4.76528e-20)
(15.0022 0.00120862 3.58372e-20)
(15.0022 0.00117152 -4.70198e-20)
(15.0022 0.00113412 0)
(15.0023 0.00109648 -3.41799e-20)
(15.0023 0.00105824 -1.12142e-20)
(15.0023 0.00102001 4.26436e-20)
(15.0023 0.000981381 -2.14908e-20)
(15.0023 0.000942014 3.21919e-20)
(15.0023 0.000902519 -3.8877e-20)
(15.0023 0.000863065 1.99385e-20)
(15.0023 0.000822919 2.71756e-20)
(15.0023 0.000782712 2.62942e-20)
(15.0023 0.000742145 2.47929e-20)
(15.0023 0.000701406 2.21652e-21)
(15.0023 0.000660533 4.38296e-22)
(15.0023 0.000619541 -9.01909e-21)
(15.0023 0.000578123 8.17737e-21)
(15.0023 0.000536899 0)
(15.0023 0.000495227 -1.62764e-20)
(15.0022 0.000453374 2.10425e-20)
(15.0022 0.000411896 -9.52978e-21)
(15.0022 0.000370156 -4.6928e-21)
(15.0021 0.000328112 2.3894e-21)
(15.0021 0.000286245 -1.65616e-20)
(15.002 0.00024598 2.11179e-21)
(15.002 0.000206334 5.28906e-21)
(15.0019 0.00016092 8.48264e-22)
(15.0017 0.000108243 1.06984e-22)
(15.0014 6.03225e-05 -1.14503e-21)
(15.001 4.02412e-05 4.66805e-22)
(15.0011 5.48034e-05 -6.51096e-23)
(15.0022 6.92504e-05 -6.76904e-22)
(15.0045 1.18942e-05 3.70757e-23)
(14.9958 9.35014e-06 -2.95897e-23)
(14.9975 5.72469e-05 2.06597e-22)
(14.9986 7.2061e-05 0)
(14.9989 5.74743e-05 0)
(14.9987 5.57686e-05 -4.00347e-22)
(14.9984 8.7166e-05 -6.42857e-22)
(14.9982 0.000138067 -1.44024e-21)
(14.998 0.000189132 -7.31969e-22)
(14.998 0.000233982 -2.40756e-21)
(14.9979 0.000276957 3.9312e-21)
(14.9978 0.000321347 -2.83502e-21)
(14.9977 0.000367205 -2.53812e-21)
(14.9977 0.000413596 -4.08248e-21)
(14.9976 0.000460487 2.54996e-23)
(14.9976 0.000508008 -1.72691e-20)
(14.9976 0.000555882 1.32801e-20)
(14.9975 0.000604007 4.32248e-21)
(14.9975 0.000652615 6.68219e-21)
(14.9975 0.000701488 -1.72394e-20)
(14.9975 0.000750597 7.53183e-21)
(14.9975 0.000799814 -2.75066e-20)
(14.9974 0.000849375 2.37434e-22)
(14.9974 0.000899057 6.34786e-21)
(14.9974 0.00094905 -8.39521e-21)
(14.9974 0.00099869 1.61064e-20)
(14.9974 0.00104855 2.34293e-22)
(14.9974 0.00109854 -3.38014e-20)
(14.9974 0.00114827 -1.81823e-20)
(14.9974 0.00119775 9.02277e-21)
(14.9974 0.00124759 3.51248e-23)
(14.9974 0.00129713 0)
(14.9974 0.00134647 1.96237e-20)
(14.9974 0.00139569 2.99683e-20)
(14.9974 0.00144475 -2.00759e-20)
(14.9974 0.0014934 -2.15733e-20)
(14.9974 0.00154192 -2.08206e-20)
(14.9975 0.00158998 -2.05801e-20)
(14.9975 0.00163783 -2.11735e-20)
(14.9975 0.00168557 2.72083e-21)
(14.9975 0.00173248 -4.21465e-20)
(14.9975 0.00177921 -3.37815e-20)
(14.9975 0.00182552 8.68292e-21)
(14.9976 0.00187125 8.25705e-21)
(14.9976 0.00191692 1.30687e-20)
(14.9976 0.00196211 2.13823e-20)
(14.9976 0.00200634 -1.81492e-22)
(14.9976 0.00205049 1.38796e-20)
(14.9977 0.00209389 4.18988e-20)
(14.9977 0.00213676 2.07865e-20)
(14.9977 0.00217912 -1.43325e-20)
(14.9978 0.00222106 2.03034e-20)
(14.9978 0.0022623 -1.10276e-20)
(14.9978 0.00230291 -1.47722e-20)
(14.9978 0.00234312 -1.54065e-20)
(14.9979 0.0023825 1.54241e-20)
(14.9979 0.00242143 2.34108e-20)
(14.9979 0.00245939 -1.57135e-20)
(14.998 0.00249697 3.46206e-20)
(14.998 0.00253391 -2.55304e-21)
(14.9981 0.00257016 -5.26388e-20)
(14.9981 0.0026057 -1.63248e-20)
(14.9981 0.00264043 1.63744e-20)
(14.9982 0.00267463 1.66406e-20)
(14.9982 0.00270805 5.02257e-20)
(14.9983 0.00274074 -1.65439e-20)
(14.9983 0.00277281 -3.41654e-20)
(14.9983 0.00280403 1.23793e-21)
(14.9984 0.00283455 1.55391e-20)
(14.9984 0.00286448 -1.72635e-20)
(14.9985 0.00289359 1.46513e-20)
(14.9985 0.00292194 3.51184e-20)
(14.9986 0.00294949 2.79716e-20)
(14.9986 0.00297641 -4.90489e-20)
(14.9986 0.0030023 -3.10115e-20)
(14.9987 0.00302744 1.79408e-20)
(14.9987 0.00305216 5.90247e-21)
(14.9988 0.00307596 1.81181e-20)
(14.9988 0.0030988 6.9601e-21)
(14.9989 0.00312082 -2.17667e-20)
(14.9989 0.00314222 2.43601e-21)
(14.999 0.00316265 -3.84847e-20)
(14.999 0.0031824 2.76406e-20)
(14.9991 0.00320133 -9.49307e-21)
(14.9991 0.00321954 -5.63206e-20)
(14.9992 0.00323663 1.07658e-20)
(14.9992 0.00325304 3.78202e-20)
(14.9993 0.00326868 3.75146e-23)
(14.9993 0.00328361 1.23927e-20)
(14.9994 0.0032976 -1.90019e-20)
(14.9994 0.00331081 -5.19841e-20)
(14.9995 0.00332303 5.06484e-21)
(14.9995 0.00333454 4.01551e-24)
(14.9996 0.00334534 1.93406e-20)
(14.9996 0.00335511 1.94158e-20)
(14.9997 0.00336404 1.0436e-20)
(14.9998 0.00337224 1.45532e-20)
(14.9998 0.0033793 -1.75874e-20)
(14.9999 0.00338562 -1.96063e-20)
(14.9999 0.00339094 -1.96322e-20)
(15 0.00339582 -1.93075e-20)
(15 0.00339963 5.891e-20)
(15.0001 0.00340236 1.96874e-20)
(15.0001 0.00340465 -2.09186e-20)
(15.0002 0.00340593 -1.9707e-20)
(15.0002 0.00340645 -2.19603e-20)
(15.0003 0.00340581 2.25179e-20)
(15.0003 0.00340443 -4.613e-20)
(15.0004 0.00340218 -1.96433e-20)
(15.0005 0.00339885 6.34117e-20)
(15.0005 0.0033948 3.92473e-20)
(15.0006 0.00338999 -3.37734e-20)
(15.0006 0.00338414 -7.4746e-21)
(15.0007 0.00337748 -5.59236e-23)
(15.0007 0.00336981 4.5807e-23)
(15.0008 0.00336139 3.90721e-20)
(15.0008 0.00335212 -8.18665e-21)
(15.0009 0.00334213 -2.80865e-20)
(15.001 0.00333093 -1.02798e-20)
(15.001 0.00331895 2.92172e-20)
(15.0011 0.00330606 3.86677e-20)
(15.0011 0.00329243 0)
(15.0012 0.00327773 -1.92902e-20)
(15.0012 0.00326232 -7.43291e-21)
(15.0013 0.00324601 0)
(15.0013 0.00322862 -1.27516e-20)
(15.0014 0.0032102 -1.32504e-20)
(15.0014 0.00319127 -1.3729e-20)
(15.0015 0.00317148 -1.89763e-20)
(15.0015 0.00315053 -1.45982e-20)
(15.0016 0.00312884 1.87381e-20)
(15.0016 0.00310621 -1.87921e-20)
(15.0017 0.00308269 8.73714e-23)
(15.0017 0.00305821 2.05082e-20)
(15.0018 0.00303301 1.69174e-20)
(15.0018 0.00300696 1.43049e-22)
(15.0019 0.00297991 -3.59604e-20)
(15.0019 0.00295209 -1.81092e-20)
(15.002 0.00292337 0)
(15.002 0.0028937 -2.13507e-23)
(15.0021 0.00286335 -1.65824e-21)
(15.0021 0.002832 -4.01617e-20)
(15.0022 0.00279976 5.86745e-20)
(15.0022 0.00276663 2.04284e-20)
(15.0023 0.00273267 -7.6899e-20)
(15.0023 0.00269817 0)
(15.0024 0.00266245 1.72365e-20)
(15.0024 0.0026261 4.87833e-21)
(15.0024 0.00258867 5.86757e-21)
(15.0025 0.00255066 1.65666e-20)
(15.0025 0.00251178 -2.30258e-20)
(15.0026 0.00247196 0)
(15.0026 0.00243149 1.62882e-20)
(15.0026 0.00239028 -7.8672e-21)
(15.0027 0.00234829 8.09838e-21)
(15.0027 0.00230527 -5.53929e-20)
(15.0028 0.00226196 2.4539e-20)
(15.0028 0.00221737 -2.41389e-22)
(15.0028 0.002172 -2.4334e-20)
(15.0029 0.00212637 1.45955e-20)
(15.0029 0.00207984 -1.46863e-20)
(15.0029 0.00203261 -1.42117e-20)
(15.003 0.00198492 5.304e-20)
(15.003 0.00193604 1.33675e-20)
(15.003 0.00188676 1.13048e-20)
(15.003 0.00183697 -3.79314e-20)
(15.0031 0.00178637 -5.02139e-20)
(15.0031 0.00173533 3.71187e-20)
(15.0031 0.00168351 -1.21282e-20)
(15.0031 0.00163119 2.45092e-22)
(15.0031 0.00157841 1.1467e-20)
(15.0032 0.00152506 0)
(15.0032 0.001471 4.53034e-20)
(15.0032 0.00141703 -2.2193e-20)
(15.0032 0.00136237 -2.16877e-20)
(15.0032 0.00130701 -4.21892e-20)
(15.0032 0.00125139 -1.1007e-20)
(15.0032 0.00119562 2.86208e-20)
(15.0032 0.00113896 -1.90299e-20)
(15.0032 0.00108222 -8.06646e-21)
(15.0032 0.00102514 -1.72212e-20)
(15.0032 0.000967982 -2.63339e-20)
(15.0032 0.000910415 2.47051e-20)
(15.0032 0.000852574 2.42183e-22)
(15.0032 0.00079447 -2.45655e-22)
(15.0032 0.000736346 1.29003e-20)
(15.0032 0.000677891 1.60692e-20)
(15.0031 0.000619166 6.2651e-21)
(15.0031 0.00056052 2.04341e-21)
(15.0031 0.000501733 -7.98276e-21)
(15.003 0.000442816 -7.40569e-21)
(15.0029 0.000385117 1.78752e-22)
(15.0028 0.000328515 6.86862e-21)
(15.0027 0.00026801 -8.19854e-21)
(15.0026 0.000197082 3.22847e-21)
(15.0023 0.000125056 1.21222e-23)
(15.0019 8.0795e-05 0)
(15.0016 8.49506e-05 -4.92982e-22)
(15.0021 0.000108058 -5.98372e-22)
(15.0037 8.58212e-05 9.51716e-23)
(15.0063 1.45993e-05 5.14873e-23)
(14.9949 9.8799e-06 -5.62573e-23)
(14.9965 6.11947e-05 -2.8589e-22)
(14.9978 0.00010464 0)
(14.9983 0.00010072 8.0004e-22)
(14.9983 8.35081e-05 4.2018e-22)
(14.998 9.92859e-05 -1.0904e-21)
(14.9977 0.000152466 -2.31235e-21)
(14.9975 0.00021952 -1.02667e-21)
(14.9974 0.000282003 9.14758e-22)
(14.9973 0.000339063 -4.53898e-21)
(14.9972 0.000395611 7.27285e-21)
(14.9971 0.000453904 -3.82039e-21)
(14.997 0.000513363 9.65572e-21)
(14.997 0.000573682 -2.90914e-23)
(14.9969 0.000634594 5.29323e-21)
(14.9969 0.000696168 -3.96655e-21)
(14.9968 0.000758127 2.09253e-20)
(14.9968 0.000820447 1.5876e-20)
(14.9968 0.000883242 -4.76739e-21)
(14.9967 0.000946652 -4.21879e-22)
(14.9967 0.00101021 -7.54092e-21)
(14.9967 0.00107396 -6.41062e-21)
(14.9967 0.00113811 -1.52005e-20)
(14.9967 0.00120248 -6.91007e-21)
(14.9967 0.00126663 -1.66631e-20)
(14.9967 0.00133095 3.26956e-20)
(14.9966 0.00139555 -9.33382e-21)
(14.9966 0.00145995 -1.81729e-20)
(14.9966 0.00152403 -1.86071e-20)
(14.9966 0.00158863 -2.81775e-20)
(14.9966 0.00165273 -9.70844e-21)
(14.9966 0.00171667 0)
(14.9967 0.00178047 -3.02108e-20)
(14.9967 0.00184401 -2.05302e-20)
(14.9967 0.00190724 1.07683e-21)
(14.9967 0.00197026 -9.65811e-21)
(14.9967 0.00203271 -2.10724e-20)
(14.9967 0.00209488 -3.27919e-20)
(14.9967 0.00215668 -2.15115e-20)
(14.9968 0.00221775 4.29676e-20)
(14.9968 0.00227852 -3.5586e-21)
(14.9968 0.00233896 -3.43436e-20)
(14.9968 0.00239853 -8.61493e-21)
(14.9969 0.00245785 1.95694e-22)
(14.9969 0.0025167 -1.76231e-22)
(14.9969 0.00257433 -2.12221e-20)
(14.997 0.00263166 2.11233e-20)
(14.997 0.00268844 -2.10222e-20)
(14.997 0.00274426 2.0934e-20)
(14.9971 0.00279957 2.00675e-22)
(14.9971 0.0028543 1.44654e-20)
(14.9971 0.00290801 2.09756e-20)
(14.9972 0.00296114 5.05768e-21)
(14.9972 0.00301358 -4.84653e-21)
(14.9973 0.00306501 4.60365e-21)
(14.9973 0.0031158 1.95903e-20)
(14.9973 0.00316559 -1.9338e-20)
(14.9974 0.0032146 -1.93792e-20)
(14.9974 0.00326285 3.51259e-20)
(14.9975 0.00331019 0)
(14.9975 0.00335669 -1.83335e-20)
(14.9976 0.00340238 -3.60107e-20)
(14.9976 0.00344706 1.76629e-20)
(14.9977 0.00349067 -1.73214e-20)
(14.9977 0.00353357 3.39714e-20)
(14.9978 0.00357562 1.70666e-20)
(14.9978 0.00361649 1.6355e-20)
(14.9979 0.0036564 -1.61109e-21)
(14.9979 0.00369551 -1.74466e-20)
(14.998 0.00373381 -3.02213e-20)
(14.9981 0.00377102 1.47668e-20)
(14.9981 0.00380687 1.41444e-20)
(14.9982 0.00384203 4.21365e-21)
(14.9982 0.00387623 -1.33918e-20)
(14.9983 0.00390929 -7.76802e-21)
(14.9984 0.00394147 -1.24239e-20)
(14.9984 0.0039726 -1.21508e-20)
(14.9985 0.00400261 3.01003e-20)
(14.9985 0.00403156 -3.70607e-20)
(14.9986 0.00405964 -1.41759e-22)
(14.9987 0.00408663 1.88678e-20)
(14.9987 0.00411234 -1.88585e-20)
(14.9988 0.0041371 1.84662e-20)
(14.9989 0.00416106 -1.74956e-20)