/*--------------------------------*- C++ -*----------------------------------*\
  =========                 |
  \\      /  F ield         | OpenFOAM: The Open Source CFD Toolbox
   \\    /   O peration     | Website:  https://openfoam.org
    \\  /    A nd           | Version:  8
     \\/     M anipulation  |
\*---------------------------------------------------------------------------*/
FoamFile
{
    version     2.0;
    format      ascii;
    class       volScalarField;
    location    "2.3";
    object      p;
}
// * * * * * * * * * * * * * * * * * * * * * * * * * * * * * * * * * * * * * //

dimensions      [0 2 -2 0 0 0 0];

internalField   nonuniform List<scalar> 
248760
(
0.118962
0.118917
0.118708
0.118408
0.118005
0.117505
0.116912
0.116231
0.115467
0.114623
0.113703
0.112711
0.11165
0.110524
0.109335
0.108088
0.106784
0.105427
0.10402
0.102565
0.101066
0.0995234
0.0979415
0.0963223
0.094668
0.0929812
0.091264
0.0895187
0.0877474
0.0859523
0.0841354
0.0822986
0.080444
0.0785734
0.0766887
0.0747915
0.0728837
0.070967
0.0690428
0.0671129
0.0651786
0.0632415
0.061303
0.0593643
0.0574269
0.0554919
0.0535606
0.051634
0.0497132
0.0477994
0.0458934
0.0439964
0.0421091
0.0402325
0.0383673
0.0365144
0.0346743
0.032848
0.0310358
0.0292386
0.0274567
0.0256908
0.0239414
0.0222089
0.0204937
0.0187963
0.017117
0.0154562
0.0138141
0.0121911
0.0105874
0.00900335
0.00743899
0.00589468
0.00437044
0.00286657
0.00138305
-7.98382e-05
-0.00152216
-0.00294368
-0.00434449
-0.00572437
-0.00708345
-0.00842153
-0.00973877
-0.011035
-0.0123104
-0.0135648
-0.0147984
-0.016011
-0.017203
-0.0183741
-0.0195245
-0.0206543
-0.0217635
-0.0228521
-0.0239204
-0.0249683
-0.0259959
-0.0270032
-0.0279905
-0.0289577
-0.0299051
-0.0308324
-0.0317401
-0.032628
-0.0334963
-0.0343451
-0.0351744
-0.0359843
-0.0367748
-0.037546
-0.0382981
-0.0390308
-0.0397445
-0.0404387
-0.0411127
-0.0417687
-0.0424235
-0.043069
0.118976
0.11893
0.118723
0.118422
0.118021
0.11752
0.116928
0.116248
0.115484
0.114641
0.113722
0.11273
0.11167
0.110544
0.109356
0.108109
0.106806
0.105449
0.104043
0.102588
0.101089
0.0995478
0.0979664
0.0963477
0.094694
0.0930077
0.0912911
0.0895463
0.0877755
0.0859809
0.0841644
0.0823281
0.0804739
0.0786038
0.0767194
0.0748227
0.0729153
0.0709989
0.069075
0.0671454
0.0652115
0.0632746
0.0613364
0.059398
0.0574607
0.0555259
0.0535948
0.0516683
0.0497478
0.047834
0.0459282
0.0440311
0.042144
0.0402674
0.0384023
0.0365493
0.0347094
0.0328829
0.0310708
0.0292735
0.0274916
0.0257256
0.0239761
0.0222435
0.0205282
0.0188306
0.0171512
0.0154902
0.013848
0.0122248
0.010621
0.00903666
0.00747212
0.00592756
0.00440311
0.00289896
0.00141522
-4.79687e-05
-0.00149056
-0.00291239
-0.00431349
-0.0056937
-0.0070531
-0.00839154
-0.00970913
-0.0110057
-0.0122815
-0.0135363
-0.0147703
-0.0159835
-0.0171759
-0.0183475
-0.0194984
-0.0206287
-0.0217385
-0.0228278
-0.0238967
-0.0249453
-0.0259736
-0.0269818
-0.0279699
-0.028938
-0.0298863
-0.0308147
-0.0317235
-0.0326127
-0.0334823
-0.0343325
-0.0351634
-0.035975
-0.0367675
-0.0375408
-0.0382951
-0.0390304
-0.0397468
-0.040444
-0.0411212
-0.0417811
-0.0424405
-0.0430888
0.119
0.118954
0.118748
0.118448
0.118047
0.117547
0.116956
0.116277
0.115514
0.114671
0.113753
0.112762
0.111703
0.110578
0.109391
0.108145
0.106843
0.105488
0.104082
0.102629
0.10113
0.0995897
0.0980093
0.0963916
0.0947388
0.0930535
0.0913377
0.0895938
0.0878239
0.0860301
0.0842144
0.0823789
0.0805255
0.078656
0.0767723
0.0748763
0.0729695
0.0710536
0.0691304
0.0672012
0.0652678
0.0633314
0.0613935
0.0594554
0.0575185
0.055584
0.0536531
0.0517269
0.0498064
0.0478929
0.0459871
0.0440902
0.042203
0.0403265
0.0384613
0.0366084
0.0347682
0.0329418
0.0311294
0.029332
0.0275498
0.0257837
0.0240339
0.0223011
0.0205854
0.0188876
0.0172077
0.0155465
0.0139038
0.0122803
0.0106759
0.00909126
0.00752617
0.00598121
0.00445618
0.0029516
0.00146724
3.585e-06
-0.00143964
-0.00286199
-0.00426375
-0.00564451
-0.0070046
-0.00834364
-0.00966195
-0.0109592
-0.0122357
-0.0134912
-0.014726
-0.0159399
-0.0171331
-0.0183055
-0.0194573
-0.0205884
-0.0216992
-0.0227893
-0.0238592
-0.0249087
-0.0259382
-0.0269473
-0.0279366
-0.0289059
-0.0298554
-0.0307851
-0.0316952
-0.0325857
-0.0334569
-0.0343086
-0.0351412
-0.0359545
-0.0367488
-0.037524
-0.0382804
-0.0390179
-0.0397367
-0.0404364
-0.0411164
-0.0417792
-0.0424419
-0.0430938
0.119035
0.11899
0.118785
0.118486
0.118086
0.117588
0.116997
0.116319
0.115558
0.114717
0.113799
0.11281
0.111752
0.110629
0.109443
0.108198
0.106898
0.105544
0.10414
0.102688
0.101191
0.0996518
0.0980728
0.0964564
0.0948051
0.093121
0.0914066
0.089664
0.0878954
0.0861028
0.0842883
0.082454
0.0806017
0.0787333
0.0768506
0.0749555
0.0730496
0.0711347
0.0692122
0.0672839
0.0653511
0.0634154
0.0614781
0.0595406
0.0576042
0.0556701
0.0537396
0.0518138
0.0498937
0.0479803
0.0460747
0.0441779
0.0422909
0.0404143
0.0385492
0.0366962
0.034856
0.0330294
0.0312169
0.0294192
0.0276369
0.0258704
0.0241203
0.0223871
0.0206711
0.0189728
0.0172926
0.0156308
0.0139877
0.0123635
0.0107587
0.00917333
0.00760774
0.00606202
0.00453644
0.00303105
0.00154609
8.15801e-05
-0.00136229
-0.00278555
-0.004188
-0.00556973
-0.00693056
-0.0082706
-0.00958972
-0.010888
-0.0121654
-0.013422
-0.0146578
-0.0158728
-0.017067
-0.0182406
-0.0193936
-0.020526
-0.021638
-0.0227296
-0.0238008
-0.0248518
-0.0258827
-0.0268936
-0.0278845
-0.0288556
-0.0298069
-0.0307386
-0.0316507
-0.0325435
-0.0334169
-0.0342712
-0.0351063
-0.0359224
-0.0367196
-0.0374981
-0.0382577
-0.0389987
-0.0397212
-0.0404249
-0.0411091
-0.0417764
-0.0424438
-0.0431011
0.119081
0.119038
0.118834
0.118536
0.118138
0.117641
0.117052
0.116376
0.115616
0.114776
0.113861
0.112873
0.111817
0.110695
0.109512
0.108269
0.10697
0.105618
0.104216
0.102766
0.101271
0.0997336
0.0981564
0.0965419
0.0948924
0.0932101
0.0914974
0.0897565
0.0879896
0.0861986
0.0843857
0.0825529
0.080702
0.078835
0.0769537
0.0750598
0.0731552
0.0712414
0.06932
0.0673926
0.0654608
0.063526
0.0615895
0.0596527
0.057717
0.0557835
0.0538535
0.0519281
0.0500083
0.0480953
0.0461899
0.0442933
0.0424063
0.0405299
0.0386647
0.0368116
0.0349713
0.0331445
0.0313317
0.0295338
0.0277511
0.0259843
0.0242337
0.0225
0.0207835
0.0190846
0.0174038
0.0157413
0.0140975
0.0124727
0.010867
0.0092809
0.00771444
0.00616788
0.00464137
0.00313507
0.00164913
0.000183629
-0.00126129
-0.00268558
-0.00408914
-0.00547197
-0.00683397
-0.00817518
-0.00949551
-0.0107951
-0.0120737
-0.0133316
-0.0145687
-0.0157851
-0.0169808
-0.0181559
-0.0193104
-0.0204444
-0.0215579
-0.0226512
-0.0237241
-0.0247769
-0.0258096
-0.0268224
-0.0278152
-0.0287883
-0.0297417
-0.0306757
-0.0315901
-0.0324852
-0.0333611
-0.0342179
-0.0350556
-0.0358745
-0.0366746
-0.037456
-0.0382187
-0.0389629
-0.0396887
-0.040396
-0.0410837
-0.0417548
-0.0424262
-0.0430876
0.119139
0.119097
0.118894
0.118598
0.118202
0.117707
0.11712
0.116445
0.115687
0.11485
0.113937
0.112951
0.111897
0.110778
0.109596
0.108356
0.107059
0.10571
0.10431
0.102862
0.101369
0.0998345
0.0982597
0.0966474
0.0950001
0.0933201
0.0916095
0.0898707
0.0881058
0.0863169
0.0845059
0.0826749
0.0808259
0.0789606
0.0770809
0.0751887
0.0732855
0.0713731
0.069453
0.0675269
0.0655962
0.0636625
0.0617269
0.0597911
0.0578561
0.0559233
0.053994
0.0520691
0.0501499
0.0482372
0.0463322
0.0444357
0.0425489
0.0406724
0.0388073
0.036954
0.0351136
0.0332865
0.0314736
0.0296752
0.0278922
0.0261247
0.0243738
0.0226393
0.0209223
0.0192227
0.0175411
0.0158778
0.0142332
0.0126074
0.0110009
0.00941372
0.00784635
0.00629863
0.00477112
0.00326361
0.00177658
0.000309802
-0.00113627
-0.00256191
-0.00396671
-0.00535095
-0.00671425
-0.00805694
-0.00937865
-0.0106797
-0.0119599
-0.0132194
-0.014458
-0.0156761
-0.0168734
-0.0180503
-0.0192064
-0.0203423
-0.0214577
-0.0225529
-0.0236277
-0.0246826
-0.0257174
-0.0267323
-0.0277274
-0.0287028
-0.0296586
-0.030595
-0.031512
-0.0324098
-0.0332884
-0.034148
-0.0349887
-0.0358107
-0.0366139
-0.0373986
-0.0381647
-0.0389125
-0.0396419
-0.040353
-0.0410446
-0.0417197
-0.0423952
-0.0430609
0.119206
0.119166
0.118966
0.118672
0.118277
0.117784
0.1172
0.116528
0.115772
0.114937
0.114026
0.113044
0.111992
0.110875
0.109697
0.108459
0.107165
0.105818
0.104421
0.102976
0.101486
0.0999542
0.0983821
0.0967726
0.0951279
0.0934505
0.0917425
0.0900062
0.0882437
0.0864571
0.0846484
0.0828197
0.0809728
0.0791095
0.0772318
0.0753414
0.07344
0.0715293
0.0696108
0.0676862
0.0657569
0.0638243
0.06189
0.0599552
0.0580212
0.0560893
0.0541606
0.0522364
0.0503177
0.0484055
0.0465008
0.0446047
0.0427179
0.0408416
0.0389763
0.0371231
0.0352824
0.0334551
0.0316417
0.029843
0.0280594
0.0262915
0.0245398
0.0228048
0.0210869
0.0193865
0.017704
0.0160398
0.0143941
0.0127673
0.0111597
0.00957144
0.00800275
0.00645391
0.004925
0.00341627
0.00192776
0.00045968
-0.000987958
-0.00241498
-0.00382141
-0.0052071
-0.00657212
-0.00791633
-0.00923984
-0.0105425
-0.0118245
-0.0130857
-0.0143263
-0.0155461
-0.0167454
-0.0179241
-0.0190824
-0.0202202
-0.0213377
-0.0224349
-0.0235121
-0.0245691
-0.0256062
-0.0266234
-0.0276209
-0.0285987
-0.029557
-0.0304959
-0.0314155
-0.0323159
-0.0331973
-0.0340597
-0.0349033
-0.0357281
-0.0365343
-0.037322
-0.0380913
-0.0388422
-0.0395748
-0.040289
-0.040984
-0.0416623
-0.0423412
-0.0430103
0.119285
0.119247
0.119048
0.118757
0.118365
0.117874
0.117292
0.116623
0.11587
0.115038
0.11413
0.11315
0.112102
0.110988
0.109813
0.108578
0.107287
0.105944
0.10455
0.103108
0.101621
0.100092
0.0985233
0.0969169
0.0952753
0.0936008
0.0918958
0.0901624
0.0884027
0.0866189
0.0848129
0.0829867
0.0811422
0.0792814
0.0774059
0.0755177
0.0736183
0.0717095
0.0697928
0.0678699
0.0659422
0.0640111
0.0620781
0.0601445
0.0582117
0.0562807
0.054353
0.0524295
0.0505115
0.0485998
0.0466955
0.0447996
0.0429131
0.0410367
0.0391715
0.037318
0.0354772
0.0336496
0.0318359
0.0300366
0.0282525
0.0264839
0.0247315
0.0229956
0.0212769
0.0195755
0.017892
0.0162267
0.0145799
0.0129519
0.011343
0.00975345
0.00818343
0.00663314
0.00510278
0.00359252
0.00210246
0.000632761
-0.000816509
-0.00224523
-0.00365338
-0.00504085
-0.00640766
-0.00775373
-0.0090791
-0.0103837
-0.0116676
-0.0129308
-0.0141734
-0.0153953
-0.0165967
-0.0177776
-0.018938
-0.020078
-0.0211978
-0.0222973
-0.0233767
-0.0244361
-0.0254756
-0.0264953
-0.0274952
-0.0284756
-0.0294365
-0.030378
-0.0313003
-0.0322034
-0.0330875
-0.0339527
-0.0347991
-0.0356268
-0.036436
-0.0372266
-0.0379989
-0.0387528
-0.0394886
-0.0402058
-0.0409039
-0.0415853
-0.0422674
-0.0429398
0.119374
0.119338
0.119142
0.118853
0.118463
0.117976
0.117397
0.11673
0.115981
0.115152
0.114247
0.113271
0.112226
0.111116
0.109943
0.108712
0.107425
0.106085
0.104695
0.103257
0.101774
0.100248
0.0986829
0.09708
0.0954418
0.0937708
0.0920691
0.090339
0.0885825
0.0868017
0.0849987
0.0831754
0.0813338
0.0794756
0.0776027
0.0757169
0.0738198
0.0719132
0.0699986
0.0680776
0.0661517
0.0642223
0.0622908
0.0603587
0.058427
0.0564972
0.0545704
0.0526478
0.0507305
0.0488195
0.0469156
0.0450201
0.0431337
0.0412575
0.0393922
0.0375387
0.0356975
0.0338696
0.0320553
0.0302556
0.0284708
0.0267016
0.0249482
0.0232116
0.0214917
0.0197894
0.0181047
0.0164383
0.0147901
0.0131609
0.0115504
0.00995947
0.00838781
0.00683603
0.00530394
0.00379206
0.00230017
0.000828765
-0.000622424
-0.00205295
-0.0034631
-0.00485245
-0.00622134
-0.00756937
-0.00889689
-0.0102035
-0.0114897
-0.012755
-0.0139998
-0.0152239
-0.0164276
-0.0176107
-0.0187735
-0.0199159
-0.0210381
-0.0221399
-0.0232219
-0.0242837
-0.0253257
-0.0263478
-0.0273504
-0.0283332
-0.0292968
-0.0302408
-0.0311658
-0.0320715
-0.0329583
-0.0338261
-0.0346753
-0.0355057
-0.0363175
-0.0371108
-0.0378858
-0.0386424
-0.0393808
-0.0401007
-0.0408014
-0.0414854
-0.04217
-0.0428448
0.119472
0.119439
0.119246
0.11896
0.118573
0.118089
0.117513
0.11685
0.116104
0.115278
0.114377
0.113405
0.112363
0.111257
0.110089
0.108862
0.107579
0.106243
0.104856
0.103422
0.101943
0.100422
0.0988604
0.0972614
0.0956271
0.0939599
0.0922619
0.0905354
0.0887825
0.0870052
0.0852055
0.0833855
0.0815469
0.0796917
0.0778217
0.0759387
0.0740442
0.07214
0.0702277
0.0683089
0.066385
0.0644574
0.0625277
0.060597
0.0586668
0.0567383
0.0548126
0.0528909
0.0509744
0.049064
0.0471608
0.0452656
0.0433795
0.0415033
0.039638
0.0377843
0.035943
0.0341146
0.0322999
0.0304995
0.028714
0.0269439
0.0251898
0.0234521
0.0217312
0.0200276
0.0183417
0.0166739
0.0150244
0.0133935
0.0117816
0.0101889
0.00861568
0.00706202
0.00552822
0.00401436
0.00252067
0.00104717
-0.000405921
-0.00183862
-0.00325076
-0.00464238
-0.00601334
-0.0073637
-0.00869336
-0.0100024
-0.0112908
-0.0125585
-0.0138056
-0.0150322
-0.0162383
-0.0174239
-0.0185891
-0.019734
-0.0208586
-0.0219631
-0.0230475
-0.0241119
-0.0251564
-0.0261812
-0.0271863
-0.0281718
-0.0291379
-0.0300847
-0.0310121
-0.0319206
-0.0328099
-0.0336804
-0.0345321
-0.0353651
-0.0361795
-0.0369755
-0.0377529
-0.0385121
-0.0392529
-0.0399753
-0.0406783
-0.0413647
-0.0420516
-0.0427288
0.11958
0.119551
0.11936
0.119077
0.118694
0.118213
0.117641
0.116981
0.116239
0.115417
0.114521
0.113552
0.112515
0.111413
0.110249
0.109026
0.107748
0.106416
0.105034
0.103604
0.10213
0.100613
0.0990555
0.0974608
0.0958308
0.0941677
0.0924739
0.0907514
0.0890024
0.0872289
0.0854329
0.0836164
0.0817813
0.0799294
0.0780626
0.0761825
0.0742909
0.0723894
0.0704797
0.0685632
0.0666415
0.064716
0.0627882
0.0608593
0.0589306
0.0570034
0.055079
0.0531584
0.0512428
0.0493332
0.0474305
0.0455358
0.0436499
0.0417739
0.0399085
0.0380547
0.036213
0.0343842
0.032569
0.030768
0.0289817
0.0272108
0.0254556
0.0237168
0.0219947
0.0202899
0.0186025
0.0169332
0.0152821
0.0136497
0.0120361
0.0104416
0.00886645
0.00731091
0.0057751
0.00425922
0.00276341
0.00128779
-0.00016752
-0.00160245
-0.00301689
-0.00441082
-0.00578415
-0.0071369
-0.008469
-0.0097805
-0.0110713
-0.0123416
-0.0135913
-0.0148204
-0.016029
-0.0172172
-0.018385
-0.0195325
-0.0206597
-0.0217669
-0.0228539
-0.023921
-0.0249681
-0.0259955
-0.0270032
-0.0279914
-0.0289601
-0.0299094
-0.0308395
-0.0317505
-0.0326423
-0.0335154
-0.0343695
-0.035205
-0.0360218
-0.0368201
-0.0375999
-0.0383613
-0.0391043
-0.0398289
-0.0405339
-0.0412223
-0.0419111
-0.0425902
0.119698
0.119672
0.119484
0.119205
0.118825
0.118348
0.11778
0.117124
0.116386
0.115569
0.114676
0.113712
0.11268
0.111582
0.110423
0.109205
0.107931
0.106604
0.105227
0.103802
0.102332
0.10082
0.0992678
0.0976778
0.0960524
0.0943939
0.0927045
0.0909864
0.0892417
0.0874724
0.0856804
0.0838678
0.0820365
0.0801882
0.0783248
0.076448
0.0745595
0.072661
0.0707541
0.0688402
0.0669209
0.0649977
0.0630719
0.0611449
0.0592179
0.0572923
0.0553692
0.0534497
0.0515351
0.0496263
0.0477243
0.04583
0.0439445
0.0420686
0.0402033
0.0383492
0.0365073
0.034678
0.0328623
0.0310605
0.0292734
0.0275014
0.0257453
0.0240052
0.0222819
0.0205756
0.0188869
0.0172158
0.0155632
0.0139288
0.0123134
0.0107169
0.0091399
0.00758217
0.00604432
0.00452613
0.00302815
0.00155012
9.25255e-05
-0.0013449
-0.00276172
-0.00415823
-0.00553402
-0.00688942
-0.00822404
-0.00953823
-0.0108317
-0.0121047
-0.0133569
-0.0145889
-0.0158001
-0.0169911
-0.0181616
-0.0193119
-0.0204418
-0.0215517
-0.0226414
-0.0237112
-0.0247611
-0.0257912
-0.0268015
-0.0277924
-0.0287637
-0.0297157
-0.0306483
-0.0315619
-0.0324562
-0.0333318
-0.0341883
-0.0350262
-0.0358453
-0.0366459
-0.0374279
-0.0381915
-0.0389366
-0.0396632
-0.0403702
-0.0410604
-0.0417509
-0.0424317
0.119826
0.119802
0.119618
0.119343
0.118967
0.118494
0.11793
0.117278
0.116545
0.115732
0.114844
0.113885
0.112857
0.111765
0.110611
0.109398
0.108129
0.106807
0.105435
0.104016
0.102551
0.101044
0.0994969
0.097912
0.0962916
0.094638
0.0929535
0.0912402
0.0895
0.0877352
0.0859476
0.0841393
0.082312
0.0804676
0.0786079
0.0767347
0.0748497
0.0729543
0.0710504
0.0691394
0.0672227
0.0653019
0.0633784
0.0614534
0.0595283
0.0576043
0.0556827
0.0537646
0.051851
0.0499431
0.0480418
0.0461481
0.0442629
0.0423872
0.0405218
0.0386676
0.0368253
0.0349956
0.0331792
0.0313767
0.0295887
0.0278158
0.0260584
0.0243171
0.0225923
0.0208846
0.0191941
0.0175215
0.0158669
0.0142308
0.0126133
0.0110148
0.00943547
0.00787561
0.00633534
0.0048149
0.00331437
0.00183396
0.000373712
-0.00106619
-0.00248576
-0.00388483
-0.00526344
-0.00662146
-0.00795898
-0.00927585
-0.0105722
-0.0118479
-0.0131032
-0.0143378
-0.0155521
-0.0167458
-0.0179193
-0.0190723
-0.0202052
-0.0213179
-0.0224105
-0.0234831
-0.0245358
-0.0255686
-0.0265818
-0.0275753
-0.0285493
-0.0295039
-0.0304392
-0.0313552
-0.0322522
-0.0331301
-0.0339891
-0.0348293
-0.0356508
-0.0364535
-0.0372377
-0.0380032
-0.0387504
-0.0394787
-0.0401876
-0.0408794
-0.0415715
-0.0422537
0.119962
0.119942
0.119762
0.11949
0.119119
0.11865
0.11809
0.117444
0.116715
0.115907
0.115024
0.11407
0.113048
0.111961
0.110812
0.109604
0.108341
0.107025
0.105659
0.104245
0.102786
0.101284
0.0997424
0.0981629
0.096548
0.0948997
0.0932204
0.0915121
0.089777
0.088017
0.0862341
0.0844303
0.0826074
0.0807673
0.0789116
0.0770423
0.0751608
0.073269
0.0713683
0.0694603
0.0675465
0.0656284
0.0637073
0.0617845
0.0598614
0.0579392
0.0560192
0.0541024
0.0521901
0.0502831
0.0483826
0.0464895
0.0446047
0.0427291
0.0408638
0.0390094
0.0371668
0.0353366
0.0335196
0.0317162
0.0299273
0.0281532
0.0263947
0.024652
0.0229257
0.0212163
0.0195242
0.0178497
0.0161932
0.0145549
0.0129353
0.0113346
0.00975298
0.00819071
0.00664799
0.00512499
0.00362188
0.0021388
0.000675849
-0.000766835
-0.00218919
-0.00359112
-0.00497261
-0.00633357
-0.00767401
-0.00899386
-0.0102932
-0.0115719
-0.0128302
-0.0140679
-0.0152851
-0.0164819
-0.0176584
-0.0188144
-0.0199503
-0.021066
-0.0221616
-0.023237
-0.0242927
-0.0253284
-0.0263444
-0.0273407
-0.0283175
-0.0292748
-0.0302128
-0.0311314
-0.0320309
-0.0329113
-0.0337728
-0.0346153
-0.0354391
-0.036244
-0.0370303
-0.0377979
-0.038547
-0.0392773
-0.0399878
-0.0406813
-0.0413749
-0.0420585
0.120107
0.120091
0.119914
0.119648
0.11928
0.118816
0.118261
0.11762
0.116896
0.116093
0.115216
0.114267
0.11325
0.112169
0.111026
0.109824
0.108567
0.107257
0.105897
0.104489
0.103035
0.10154
0.100004
0.0984304
0.0968211
0.0951786
0.0935048
0.091802
0.0900722
0.0883174
0.0865396
0.0847406
0.0829224
0.0810867
0.0792354
0.0773702
0.0754927
0.0736046
0.0717074
0.0698027
0.0678919
0.0659766
0.0640581
0.0621377
0.0602168
0.0582966
0.0563782
0.054463
0.0525518
0.050646
0.0487463
0.0468539
0.0449695
0.0430942
0.0412288
0.0393743
0.0375313
0.0357006
0.0338828
0.0320787
0.0302887
0.0285136
0.0267536
0.0250095
0.0232816
0.0215706
0.0198765
0.0182001
0.0165414
0.0149011
0.0132791
0.0116761
0.010092
0.00852723
0.00698178
0.00545618
0.0039502
0.00246438
0.000998457
-0.000447078
-0.00187251
-0.00327739
-0.00466202
-0.00602599
-0.00736964
-0.00869257
-0.00999514
-0.011277
-0.0125385
-0.0137793
-0.0149998
-0.0161997
-0.0173794
-0.0185386
-0.0196777
-0.0207964
-0.0218952
-0.0229737
-0.0240324
-0.0250711
-0.0260902
-0.0270894
-0.0280691
-0.0290291
-0.0299699
-0.0308912
-0.0317934
-0.0326764
-0.0335404
-0.0343853
-0.0352115
-0.0360186
-0.0368072
-0.0375768
-0.0383279
-0.03906
-0.0397724
-0.0404675
-0.0411626
-0.0418477
0.120261
0.120249
0.120076
0.119814
0.119451
0.118992
0.118442
0.117806
0.117087
0.11629
0.115419
0.114476
0.113465
0.11239
0.111253
0.110058
0.108807
0.107503
0.106149
0.104747
0.1033
0.101811
0.100281
0.0987139
0.0971108
0.0954742
0.0938064
0.0921094
0.0903853
0.088636
0.0868635
0.0850697
0.0832565
0.0814257
0.079579
0.0777182
0.0758448
0.0739607
0.0720672
0.070166
0.0682585
0.0663463
0.0644305
0.0625127
0.0605941
0.0586759
0.0567595
0.0548458
0.0529361
0.0510313
0.0491326
0.0472408
0.0453569
0.0434819
0.0416166
0.0397619
0.0379185
0.0360873
0.0342688
0.0324637
0.0306727
0.0288963
0.027135
0.0253893
0.0236598
0.0219468
0.0202509
0.0185723
0.0169116
0.0152688
0.0136445
0.0120389
0.0104522
0.00888467
0.00733654
0.00580796
0.00429916
0.00281022
0.00134134
-0.00010743
-0.00153591
-0.00294412
-0.00433189
-0.00569927
-0.00704611
-0.00837249
-0.0096783
-0.0109636
-0.0122284
-0.0134727
-0.0146965
-0.0158999
-0.0170829
-0.0182455
-0.0193878
-0.02051
-0.0216119
-0.0226938
-0.0237556
-0.0247976
-0.0258197
-0.0268221
-0.0278047
-0.0287679
-0.0297115
-0.0306358
-0.0315407
-0.0324265
-0.033293
-0.0341406
-0.0349692
-0.0357789
-0.0365696
-0.0373416
-0.0380948
-0.038829
-0.0395433
-0.0402403
-0.0409371
-0.0416239
0.120423
0.120416
0.120247
0.11999
0.119632
0.119178
0.118633
0.118002
0.11729
0.116498
0.115633
0.114696
0.113692
0.112623
0.111492
0.110304
0.109059
0.107762
0.106415
0.10502
0.10358
0.102097
0.100574
0.0990131
0.0974165
0.0957863
0.0941248
0.092434
0.0907158
0.0889724
0.0872056
0.0854173
0.0836094
0.0817837
0.0799419
0.0780857
0.0762169
0.0743369
0.0724474
0.07055
0.068646
0.0667369
0.0648242
0.0629091
0.0609929
0.059077
0.0571625
0.0552506
0.0533422
0.0514388
0.049541
0.04765
0.0457666
0.0438919
0.0420266
0.0401718
0.038328
0.0364963
0.034677
0.0328711
0.0310789
0.0293012
0.0275384
0.0257911
0.0240598
0.022345
0.0206469
0.0189662
0.017303
0.0156579
0.014031
0.0124227
0.0108333
0.00926287
0.00771177
0.00618017
0.00466824
0.00317613
0.00170399
0.000251934
-0.00117992
-0.00259152
-0.00398275
-0.0053536
-0.00670396
-0.00803388
-0.00934325
-0.0106322
-0.0119005
-0.0131484
-0.0143758
-0.0155828
-0.0167693
-0.0179355
-0.0190814
-0.020207
-0.0213124
-0.0223978
-0.0234631
-0.0245084
-0.0255338
-0.0265395
-0.0275254
-0.0284917
-0.0294385
-0.0303658
-0.0312737
-0.0321624
-0.0330318
-0.0338822
-0.0347134
-0.0355257
-0.036319
-0.0370935
-0.037849
-0.0385854
-0.0393018
-0.0400008
-0.0406995
-0.0413881
0.120593
0.120591
0.120427
0.120174
0.119822
0.119373
0.118834
0.118209
0.117502
0.116717
0.115858
0.114927
0.11393
0.112867
0.111744
0.110562
0.109325
0.108034
0.106694
0.105306
0.103873
0.102398
0.100882
0.0993277
0.0977379
0.0961145
0.0944596
0.0927753
0.0910635
0.0893262
0.0875655
0.085783
0.0839807
0.0821604
0.0803238
0.0784726
0.0766084
0.0747329
0.0728477
0.0709541
0.0690539
0.0671482
0.0652386
0.0633265
0.0614129
0.0594994
0.057587
0.0556768
0.0537702
0.0518679
0.0499713
0.048081
0.0461983
0.0443239
0.0424588
0.0406037
0.0387597
0.0369272
0.0351073
0.0333002
0.031507
0.0297278
0.0279636
0.0262145
0.0244814
0.0227645
0.0210644
0.0193812
0.0177157
0.0160679
0.0144384
0.0128272
0.0112349
0.00966139
0.00810727
0.00657237
0.00505724
0.00356167
0.0020862
0.000630549
-0.000804775
-0.00222007
-0.00361486
-0.00498947
-0.00634348
-0.00767722
-0.00899029
-0.0102831
-0.0115551
-0.0128069
-0.014038
-0.0152489
-0.0164392
-0.0176092
-0.0187588
-0.0198883
-0.0209974
-0.0220865
-0.0231553
-0.0242044
-0.0252333
-0.0262426
-0.0272319
-0.0282017
-0.0291518
-0.0300825
-0.0309936
-0.0318855
-0.032758
-0.0336114
-0.0344456
-0.0352608
-0.0360568
-0.036834
-0.0375921
-0.038331
-0.0390498
-0.039751
-0.0404519
-0.0411426
0.120772
0.120774
0.120615
0.120368
0.12002
0.119577
0.119044
0.118425
0.117724
0.116946
0.116093
0.11517
0.114179
0.113124
0.112007
0.110833
0.109603
0.10832
0.106987
0.105606
0.104181
0.102713
0.101204
0.0996573
0.0980747
0.0964584
0.0948105
0.093133
0.0914279
0.0896972
0.0879427
0.0861664
0.0843701
0.0825555
0.0807243
0.0788783
0.0770192
0.0751484
0.0732676
0.0713782
0.0694818
0.0675798
0.0656736
0.0637645
0.0618538
0.0599427
0.0580325
0.0561244
0.0542193
0.0523186
0.050423
0.0485337
0.0466515
0.0447775
0.0429125
0.0410573
0.0392129
0.0373799
0.0355591
0.0337511
0.0319565
0.030176
0.0284101
0.0266594
0.0249242
0.0232052
0.0215028
0.0198173
0.0181491
0.0164987
0.0148662
0.0132522
0.0116567
0.0100801
0.00852258
0.0069844
0.00546569
0.00396669
0.00248747
0.00102824
-0.000410957
-0.00182994
-0.00322871
-0.00460711
-0.00596519
-0.00730278
-0.00861998
-0.00991664
-0.0111929
-0.0124486
-0.0136839
-0.0148987
-0.0160931
-0.0172671
-0.0184208
-0.0195542
-0.0206674
-0.0217603
-0.0228333
-0.0238861
-0.024919
-0.0259319
-0.0269252
-0.0278986
-0.0288524
-0.0297866
-0.0307014
-0.0315966
-0.0324726
-0.0333293
-0.0341668
-0.0349851
-0.0357843
-0.0365644
-0.0373254
-0.0380671
-0.0387886
-0.0394924
-0.0401957
-0.0408887
0.120958
0.120965
0.120811
0.120569
0.120228
0.11979
0.119263
0.118651
0.117957
0.117185
0.116339
0.115423
0.114439
0.113391
0.112282
0.111115
0.109893
0.108618
0.107292
0.10592
0.104502
0.103041
0.101541
0.100002
0.0984266
0.0968177
0.0951771
0.0935068
0.0918087
0.0900849
0.0883371
0.0865672
0.0847771
0.0829685
0.0811431
0.0793026
0.0774487
0.0755829
0.0737068
0.0718218
0.0699296
0.0680314
0.0661287
0.0642228
0.0623151
0.0604067
0.0584989
0.0565928
0.0546896
0.0527902
0.0508959
0.0490075
0.0471261
0.0452525
0.0433876
0.0415323
0.0396875
0.0378539
0.0360323
0.0342232
0.0324274
0.0306454
0.0288779
0.0271252
0.0253881
0.0236668
0.021962
0.0202739
0.0186031
0.0169498
0.0153144
0.0136972
0.0120985
0.0105185
0.00895757
0.00741581
0.00589346
0.00439069
0.00290767
0.00144452
1.37794e-06
-0.00142165
-0.00282449
-0.00420703
-0.00556927
-0.00691109
-0.00823252
-0.00953346
-0.010814
-0.012074
-0.0133136
-0.0145327
-0.0157315
-0.0169098
-0.0180678
-0.0192055
-0.020323
-0.0214202
-0.0224973
-0.0235543
-0.0245914
-0.0256085
-0.0266058
-0.0275832
-0.0285411
-0.0294792
-0.0303978
-0.0312969
-0.0321767
-0.033037
-0.0338781
-0.0346999
-0.0355026
-0.036286
-0.0370503
-0.0377951
-0.0385197
-0.0392263
-0.0399325
-0.0406282
0.121152
0.121164
0.121015
0.120779
0.120443
0.120012
0.119491
0.118886
0.118198
0.117433
0.116595
0.115686
0.11471
0.11367
0.112569
0.111409
0.110195
0.108928
0.107611
0.106246
0.104836
0.103384
0.101891
0.10036
0.0987931
0.0971921
0.0955592
0.0938964
0.0922056
0.0904889
0.0887481
0.0869851
0.0852015
0.0833992
0.0815798
0.0797451
0.0778967
0.0760361
0.0741649
0.0722846
0.0703967
0.0685026
0.0666037
0.0647012
0.0627966
0.060891
0.0589856
0.0570818
0.0551804
0.0532828
0.0513897
0.0495024
0.0476216
0.0457485
0.0438837
0.0420284
0.0401832
0.038349
0.0365265
0.0347164
0.0329192
0.0311358
0.0293664
0.0276119
0.0258726
0.0241491
0.0224417
0.0207511
0.0190773
0.0174211
0.0157825
0.0141621
0.0125599
0.0109765
0.00941182
0.00786641
0.00634012
0.00483351
0.00334636
0.0018792
0.000431781
-0.000995401
-0.00240264
-0.00378947
-0.00515621
-0.0065024
-0.00782841
-0.00913381
-0.010419
-0.0116835
-0.0129278
-0.0141514
-0.0153549
-0.0165377
-0.0177004
-0.0188426
-0.0199648
-0.0210665
-0.0221483
-0.0232098
-0.0242514
-0.0252729
-0.0262747
-0.0272565
-0.0282188
-0.0291611
-0.0300841
-0.0309873
-0.0318713
-0.0327356
-0.0335808
-0.0344065
-0.035213
-0.0360001
-0.0367681
-0.0375165
-0.0382445
-0.0389545
-0.0396639
-0.0403628
0.121353
0.121371
0.121227
0.120997
0.120667
0.120242
0.119728
0.119129
0.118449
0.117692
0.116861
0.115959
0.114991
0.113959
0.112866
0.111715
0.110509
0.10925
0.107941
0.106585
0.105184
0.10374
0.102256
0.100733
0.099174
0.0975811
0.0959562
0.0943013
0.0926183
0.0909091
0.0891756
0.0874196
0.0856428
0.0838471
0.0820341
0.0802055
0.0783628
0.0765077
0.0746417
0.0727663
0.070883
0.0689931
0.0670981
0.0651992
0.0632979
0.0613952
0.0594926
0.057591
0.0556917
0.0537957
0.0519041
0.0500178
0.0481379
0.0462652
0.0444007
0.0425453
0.0406997
0.0388649
0.0370415
0.0352303
0.0334318
0.0316467
0.0298757
0.0281191
0.0263776
0.0246516
0.0229417
0.0212482
0.0195716
0.0179122
0.0162704
0.0146465
0.0130408
0.0114536
0.00988523
0.00833578
0.00680556
0.00529469
0.00380342
0.00233182
0.000880114
-0.000551675
-0.00196334
-0.00335491
-0.00472619
-0.00607723
-0.00740788
-0.00871821
-0.0100081
-0.0112776
-0.0125267
-0.0137554
-0.0149636
-0.0161515
-0.017319
-0.0184663
-0.0195933
-0.0207001
-0.0217866
-0.0228532
-0.0238996
-0.0249261
-0.0259326
-0.0269193
-0.0278861
-0.0288334
-0.0297609
-0.0306689
-0.0315573
-0.0324263
-0.0332757
-0.0341059
-0.0349166
-0.0357081
-0.0364801
-0.0372326
-0.0379645
-0.0386784
-0.0393915
-0.0400941
0.121562
0.121585
0.121447
0.121223
0.120899
0.120481
0.119974
0.119382
0.118709
0.117959
0.117136
0.116242
0.115282
0.114258
0.113174
0.112031
0.110834
0.109584
0.108284
0.106937
0.105544
0.104109
0.102633
0.101119
0.099569
0.0979846
0.096368
0.0947213
0.0930463
0.0913449
0.0896191
0.0878704
0.0861009
0.084312
0.0825057
0.0806834
0.0788467
0.0769974
0.0751368
0.0732665
0.071388
0.0695026
0.0676117
0.0657166
0.0638187
0.0619192
0.0600193
0.0581203
0.056223
0.0543289
0.0524387
0.0505536
0.0486745
0.0468024
0.0449382
0.0430827
0.0412368
0.0394014
0.0375771
0.0357647
0.0339648
0.0321782
0.0304052
0.0286466
0.0269027
0.0251743
0.0234616
0.0217653
0.0200855
0.0184229
0.0167776
0.0151502
0.0135408
0.0119498
0.0103774
0.00882382
0.00728934
0.00577415
0.00427841
0.00280228
0.00134591
-9.05758e-05
-0.00150706
-0.00290348
-0.00427971
-0.00563573
-0.00697143
-0.00828685
-0.00958187
-0.0108566
-0.0121108
-0.0133448
-0.0145583
-0.0157515
-0.0169243
-0.0180769
-0.0192091
-0.0203212
-0.0214131
-0.0224849
-0.0235366
-0.0245683
-0.0255801
-0.026572
-0.0275441
-0.0284965
-0.0294291
-0.0303422
-0.0312356
-0.0321096
-0.032964
-0.033799
-0.0346145
-0.0354107
-0.0361874
-0.0369444
-0.0376807
-0.0383989
-0.0391163
-0.039823
0.121777
0.121806
0.121674
0.121456
0.121139
0.120727
0.120227
0.119643
0.118977
0.118235
0.11742
0.116535
0.115583
0.114568
0.113492
0.112358
0.11117
0.109929
0.108638
0.1073
0.105917
0.104491
0.103024
0.101519
0.0999777
0.0984021
0.0967942
0.095156
0.0934894
0.0917962
0.0900782
0.0883373
0.0865752
0.0847936
0.0829941
0.0811785
0.0793482
0.0775048
0.0756499
0.073785
0.0719114
0.0700307
0.0681441
0.0662531
0.0643588
0.0624626
0.0605657
0.0586691
0.0567742
0.0548819
0.0529934
0.0511094
0.0492313
0.0473598
0.0454959
0.0436403
0.0417942
0.0399581
0.0381329
0.0363193
0.0345181
0.0327297
0.0309549
0.029194
0.0274479
0.0257167
0.0240013
0.0223019
0.020619
0.0189529
0.0173042
0.015673
0.0140598
0.0124646
0.0108881
0.00933016
0.00779134
0.00627149
0.00477118
0.00329018
0.00182904
0.000387483
-0.00103396
-0.0024356
-0.00381694
-0.00517833
-0.00651928
-0.00784018
-0.00914055
-0.0104208
-0.0116805
-0.0129201
-0.0141391
-0.015338
-0.0165164
-0.0176748
-0.0188126
-0.0199305
-0.021028
-0.0221056
-0.0231629
-0.0242004
-0.0252178
-0.0262155
-0.0271932
-0.0281512
-0.0290894
-0.0300081
-0.030907
-0.0317865
-0.0326463
-0.0334867
-0.0343075
-0.0351089
-0.0358908
-0.0366529
-0.0373942
-0.0381172
-0.0388394