/*--------------------------------*- C++ -*----------------------------------*\
  =========                 |
  \\      /  F ield         | OpenFOAM: The Open Source CFD Toolbox
   \\    /   O peration     | Website:  https://openfoam.org
    \\  /    A nd           | Version:  8
     \\/     M anipulation  |
\*---------------------------------------------------------------------------*/
FoamFile
{
    version     2.0;
    format      ascii;
    class       volScalarField;
    location    "20";
    object      p;
}
// * * * * * * * * * * * * * * * * * * * * * * * * * * * * * * * * * * * * * //

dimensions      [0 2 -2 0 0 0 0];

internalField   nonuniform List<scalar> 
277560
(
-0.588671
-0.58944
-0.591346
-0.594157
-0.597767
-0.602161
-0.607312
-0.613168
-0.619684
-0.626818
-0.634531
-0.642785
-0.651542
-0.660767
-0.670426
-0.680485
-0.690914
-0.701683
-0.712761
-0.724123
-0.735741
-0.74759
-0.759647
-0.771888
-0.784293
-0.796839
-0.809507
-0.82228
-0.835138
-0.848066
-0.861047
-0.874067
-0.887112
-0.900167
-0.913221
-0.926262
-0.939279
-0.952261
-0.965198
-0.978082
-0.990903
-1.00366
-1.01633
-1.02892
-1.04142
-1.05382
-1.06613
-1.07832
-1.09041
-1.10237
-1.11423
-1.12595
-1.13756
-1.14903
-1.16037
-1.17159
-1.18266
-1.1936
-1.20441
-1.21507
-1.2256
-1.23598
-1.24622
-1.25633
-1.26629
-1.27611
-1.28579
-1.29532
-1.30472
-1.31398
-1.32309
-1.33207
-1.34091
-1.34961
-1.35818
-1.36661
-1.37491
-1.38307
-1.3911
-1.399
-1.40677
-1.41442
-1.42194
-1.42933
-1.4366
-1.44374
-1.45077
-1.45768
-1.46447
-1.47114
-1.4777
-1.48414
-1.49048
-1.4967
-1.50282
-1.50883
-1.51473
-1.52053
-1.52623
-1.53183
-1.53733
-1.54273
-1.54804
-1.55325
-1.55837
-1.5634
-1.56834
-1.57319
-1.57795
-1.58263
-1.58723
-1.59174
-1.59617
-1.60052
-1.60479
-1.60899
-1.61311
-1.61716
-1.62113
-1.62503
-0.588251
-0.588997
-0.590887
-0.593692
-0.597299
-0.60169
-0.606837
-0.612692
-0.619205
-0.626338
-0.63405
-0.642303
-0.65106
-0.660285
-0.669944
-0.680004
-0.690433
-0.701203
-0.712283
-0.723646
-0.735266
-0.747118
-0.759177
-0.771422
-0.783829
-0.796379
-0.809051
-0.821827
-0.83469
-0.847622
-0.860608
-0.873633
-0.886683
-0.899743
-0.912803
-0.92585
-0.938872
-0.95186
-0.964803
-0.977693
-0.990521
-1.00328
-1.01596
-1.02856
-1.04107
-1.05348
-1.06579
-1.07799
-1.09008
-1.10206
-1.11391
-1.12565
-1.13726
-1.14874
-1.16009
-1.17131
-1.1824
-1.19334
-1.20416
-1.21483
-1.22536
-1.23575
-1.246
-1.25611
-1.26608
-1.27591
-1.2856
-1.29514
-1.30455
-1.31381
-1.32294
-1.33192
-1.34077
-1.34948
-1.35805
-1.36649
-1.37479
-1.38296
-1.391
-1.39891
-1.40669
-1.41434
-1.42187
-1.42927
-1.43654
-1.4437
-1.45073
-1.45764
-1.46444
-1.47112
-1.47768
-1.48414
-1.49048
-1.49671
-1.50283
-1.50885
-1.51476
-1.52056
-1.52627
-1.53187
-1.53738
-1.54279
-1.5481
-1.55332
-1.55844
-1.56348
-1.56842
-1.57328
-1.57804
-1.58273
-1.58733
-1.59184
-1.59628
-1.60064
-1.60491
-1.60911
-1.61324
-1.61729
-1.62126
-1.62517
-0.587462
-0.58821
-0.590099
-0.592903
-0.596507
-0.600895
-0.606039
-0.611892
-0.618404
-0.625535
-0.633247
-0.6415
-0.650258
-0.659484
-0.669145
-0.679208
-0.689641
-0.700414
-0.711498
-0.722866
-0.734491
-0.746348
-0.758414
-0.770664
-0.783079
-0.795636
-0.808316
-0.8211
-0.833972
-0.846913
-0.859908
-0.872942
-0.886001
-0.899072
-0.912142
-0.9252
-0.938233
-0.951232
-0.964187
-0.977088
-0.989928
-1.0027
-1.01539
-1.028
-1.04052
-1.05294
-1.06527
-1.07748
-1.08958
-1.10157
-1.11344
-1.12519
-1.13682
-1.14831
-1.15968
-1.17091
-1.182
-1.19297
-1.20379
-1.21447
-1.22502
-1.23542
-1.24569
-1.25581
-1.26579
-1.27563
-1.28533
-1.29489
-1.3043
-1.31358
-1.32272
-1.33171
-1.34057
-1.34929
-1.35788
-1.36633
-1.37464
-1.38282
-1.39087
-1.39879
-1.40658
-1.41424
-1.42178
-1.42919
-1.43647
-1.44364
-1.45068
-1.4576
-1.46441
-1.4711
-1.47767
-1.48413
-1.49048
-1.49672
-1.50285
-1.50888
-1.5148
-1.52061
-1.52632
-1.53194
-1.53745
-1.54287
-1.54819
-1.55341
-1.55855
-1.56359
-1.56854
-1.5734
-1.57818
-1.58287
-1.58747
-1.592
-1.59644
-1.6008
-1.60509
-1.60929
-1.61342
-1.61748
-1.62146
-1.62537
-0.586296
-0.587034
-0.588913
-0.591707
-0.595303
-0.599684
-0.604823
-0.610671
-0.61718
-0.624308
-0.632018
-0.640271
-0.649028
-0.658256
-0.667918
-0.677983
-0.68842
-0.699197
-0.710286
-0.72166
-0.733291
-0.745156
-0.757229
-0.769488
-0.781912
-0.794479
-0.80717
-0.819965
-0.832848
-0.845802
-0.85881
-0.871857
-0.884931
-0.898016
-0.911101
-0.924173
-0.937222
-0.950237
-0.963209
-0.976127
-0.988984
-1.00177
-1.01448
-1.02711
-1.03965
-1.05209
-1.06443
-1.07666
-1.08879
-1.10079
-1.11268
-1.12445
-1.13609
-1.14761
-1.15899
-1.17024
-1.18136
-1.19234
-1.20318
-1.21389
-1.22445
-1.23488
-1.24516
-1.2553
-1.2653
-1.27516
-1.28488
-1.29445
-1.30389
-1.31318
-1.32234
-1.33136
-1.34023
-1.34897
-1.35758
-1.36604
-1.37438
-1.38258
-1.39064
-1.39858
-1.40639
-1.41407
-1.42162
-1.42904
-1.43635
-1.44353
-1.45058
-1.45752
-1.46435
-1.47105
-1.47764
-1.48412
-1.49048
-1.49674
-1.50288
-1.50892
-1.51486
-1.52068
-1.52641
-1.53204
-1.53757
-1.54299
-1.54833
-1.55357
-1.55871
-1.56377
-1.56873
-1.57361
-1.57839
-1.5831
-1.58771
-1.59225
-1.5967
-1.60108
-1.60537
-1.60959
-1.61373
-1.6178
-1.62179
-1.62571
-0.584755
-0.58548
-0.587347
-0.590131
-0.593718
-0.598092
-0.603224
-0.609066
-0.615571
-0.622697
-0.630405
-0.638657
-0.647415
-0.656644
-0.66631
-0.676379
-0.68682
-0.697603
-0.7087
-0.720081
-0.731722
-0.743597
-0.755681
-0.767952
-0.780389
-0.792969
-0.805675
-0.818486
-0.831385
-0.844355
-0.857381
-0.870447
-0.883539
-0.896644
-0.909749
-0.922842
-0.935912
-0.948949
-0.961942
-0.974883
-0.987763
-1.00057
-1.01331
-1.02596
-1.03852
-1.05099
-1.06335
-1.07561
-1.08776
-1.09979
-1.11171
-1.1235
-1.13517
-1.14671
-1.15812
-1.1694
-1.18054
-1.19154
-1.20241
-1.21314
-1.22373
-1.23418
-1.24449
-1.25466
-1.26469
-1.27457
-1.28431
-1.29391
-1.30337
-1.31269
-1.32187
-1.33091
-1.33981
-1.34858
-1.3572
-1.36569
-1.37405
-1.38227
-1.39036
-1.39832
-1.40615
-1.41385
-1.42142
-1.42887
-1.43619
-1.44339
-1.45047
-1.45743
-1.46427
-1.471
-1.47761
-1.4841
-1.49049
-1.49676
-1.50293
-1.50898
-1.51494
-1.52078
-1.52653
-1.53217
-1.53772
-1.54316
-1.54851
-1.55377
-1.55893
-1.564
-1.56898
-1.57387
-1.57867
-1.58339
-1.58802
-1.59257
-1.59704
-1.60143
-1.60573
-1.60997
-1.61412
-1.6182
-1.62221
-1.62614
-0.582849
-0.583557
-0.58541
-0.588181
-0.591756
-0.59612
-0.601244
-0.607079
-0.613578
-0.6207
-0.628406
-0.636657
-0.645416
-0.654647
-0.664315
-0.674389
-0.684836
-0.695627
-0.706731
-0.718123
-0.729775
-0.741661
-0.753759
-0.766045
-0.778497
-0.791094
-0.803817
-0.816647
-0.829566
-0.842556
-0.855603
-0.868691
-0.881807
-0.894935
-0.908065
-0.921183
-0.934279
-0.947342
-0.960363
-0.973331
-0.986239
-0.999079
-1.01184
-1.02452
-1.03711
-1.04961
-1.06201
-1.07429
-1.08647
-1.09854
-1.11049
-1.12231
-1.13401
-1.14558
-1.15702
-1.16833
-1.1795
-1.19054
-1.20144
-1.2122
-1.22283
-1.23331
-1.24365
-1.25385
-1.2639
-1.27382
-1.28359
-1.29322
-1.30271
-1.31206
-1.32127
-1.33034
-1.33927
-1.34807
-1.35672
-1.36524
-1.37363
-1.38188
-1.39
-1.39798
-1.40584
-1.41357
-1.42117
-1.42864
-1.43599
-1.44322
-1.45033
-1.45731
-1.46418
-1.47093
-1.47756
-1.48408
-1.49049
-1.49679
-1.50298
-1.50906
-1.51503
-1.5209
-1.52667
-1.53233
-1.5379
-1.54337
-1.54874
-1.55401
-1.5592
-1.56429
-1.56928
-1.5742
-1.57902
-1.58375
-1.58841
-1.59297
-1.59746
-1.60187
-1.60619
-1.61044
-1.61461
-1.61871
-1.62273
-1.62668
-0.580584
-0.581272
-0.583108
-0.585863
-0.589425
-0.593777
-0.598891
-0.604718
-0.611211
-0.618328
-0.626031
-0.634281
-0.64304
-0.652273
-0.661946
-0.672025
-0.68248
-0.693279
-0.704394
-0.715797
-0.727462
-0.739363
-0.751476
-0.763779
-0.77625
-0.788867
-0.801611
-0.814463
-0.827405
-0.84042
-0.853493
-0.866607
-0.87975
-0.892907
-0.906066
-0.919214
-0.932341
-0.945436
-0.958488
-0.97149
-0.984431
-0.997305
-1.0101
-1.02282
-1.03545
-1.04798
-1.06041
-1.07274
-1.08495
-1.09705
-1.10904
-1.1209
-1.13264
-1.14424
-1.15572
-1.16707
-1.17828
-1.18936
-1.2003
-1.2111
-1.22176
-1.23227
-1.24265
-1.25289
-1.26298
-1.27294
-1.28274
-1.29241
-1.30194
-1.31133
-1.32057
-1.32968
-1.33864
-1.34747
-1.35616
-1.36472
-1.37313
-1.38142
-1.38957
-1.39759
-1.40548
-1.41324
-1.42087
-1.42838
-1.43576
-1.44302
-1.45015
-1.45717
-1.46407
-1.47085
-1.47751
-1.48406
-1.4905
-1.49682
-1.50304
-1.50914
-1.51515
-1.52104
-1.52683
-1.53253
-1.53812
-1.54361
-1.54901
-1.55431
-1.55951
-1.56463
-1.56965
-1.57458
-1.57943
-1.58419
-1.58886
-1.59345
-1.59796
-1.60238
-1.60673
-1.611
-1.61519
-1.61931
-1.62335
-1.62732
-0.577968
-0.578633
-0.580449
-0.583186
-0.586732
-0.59107
-0.596172
-0.60199
-0.608476
-0.615588
-0.623287
-0.631536
-0.640296
-0.649531
-0.659208
-0.669293
-0.679756
-0.690565
-0.701691
-0.713108
-0.724788
-0.736705
-0.748837
-0.76116
-0.773652
-0.786292
-0.79906
-0.811937
-0.824906
-0.83795
-0.851052
-0.864197
-0.877371
-0.89056
-0.903753
-0.916936
-0.930098
-0.943229
-0.956319
-0.969358
-0.982339
-0.995251
-1.00809
-1.02085
-1.03351
-1.04609
-1.05856
-1.07093
-1.08319
-1.09533
-1.10736
-1.11926
-1.13104
-1.1427
-1.15422
-1.16561
-1.17686
-1.18798
-1.19897
-1.20981
-1.22051
-1.23107
-1.2415
-1.25177
-1.26191
-1.27191
-1.28176
-1.29147
-1.30104
-1.31047
-1.31975
-1.3289
-1.33791
-1.34677
-1.3555
-1.3641
-1.37256
-1.38088
-1.38907
-1.39713
-1.40506
-1.41286
-1.42053
-1.42807
-1.43549
-1.44278
-1.44995
-1.457
-1.46393
-1.47075
-1.47744
-1.48403
-1.4905
-1.49685
-1.5031
-1.50924
-1.51528
-1.5212
-1.52703
-1.53275
-1.53837
-1.54389
-1.54932
-1.55464
-1.55988
-1.56502
-1.57007
-1.57503
-1.5799
-1.58469
-1.58939
-1.594
-1.59853
-1.60298
-1.60735
-1.61165
-1.61586
-1.62
-1.62407
-1.62806
-0.575007
-0.575646
-0.577439
-0.580156
-0.583684
-0.588006
-0.593096
-0.598903
-0.60538
-0.612486
-0.620181
-0.628428
-0.637188
-0.646427
-0.656108
-0.666201
-0.676672
-0.687492
-0.698632
-0.710063
-0.72176
-0.733696
-0.745849
-0.758194
-0.770709
-0.783375
-0.79617
-0.809077
-0.822076
-0.835151
-0.848286
-0.861466
-0.874675
-0.887902
-0.901132
-0.914354
-0.927557
-0.940729
-0.953861
-0.966944
-0.979967
-0.992925
-1.00581
-1.01861
-1.03132
-1.04394
-1.05646
-1.06888
-1.08119
-1.09338
-1.10545
-1.11741
-1.12924
-1.14094
-1.15251
-1.16395
-1.17526
-1.18643
-1.19746
-1.20835
-1.2191
-1.22971
-1.24018
-1.25051
-1.2607
-1.27074
-1.28064
-1.2904
-1.30002
-1.30949
-1.31883
-1.32802
-1.33707
-1.34599
-1.35476
-1.3634
-1.3719
-1.38027
-1.38851
-1.39661
-1.40458
-1.41242
-1.42013
-1.42772
-1.43518
-1.44251
-1.44972
-1.45681
-1.46378
-1.47064
-1.47737
-1.48399
-1.4905
-1.49689
-1.50318
-1.50935
-1.51542
-1.52138
-1.52724
-1.533
-1.53865
-1.54421
-1.54967
-1.55503
-1.56029
-1.56546
-1.57055
-1.57554
-1.58044
-1.58525
-1.58998
-1.59462
-1.59918
-1.60366
-1.60806
-1.61238
-1.61662
-1.62079
-1.62488
-1.62889
-0.571708
-0.572317
-0.574086
-0.57678
-0.580287
-0.584592
-0.589667
-0.595462
-0.60193
-0.609029
-0.61672
-0.624965
-0.633725
-0.642967
-0.652654
-0.662754
-0.673235
-0.684067
-0.695221
-0.706669
-0.718384
-0.730341
-0.742517
-0.754886
-0.767428
-0.780122
-0.792948
-0.805886
-0.818919
-0.83203
-0.845202
-0.858419
-0.871669
-0.884936
-0.898209
-0.911474
-0.924722
-0.93794
-0.951118
-0.964248
-0.977321
-0.990327
-1.00326
-1.01611
-1.02888
-1.04155
-1.05412
-1.06659
-1.07895
-1.0912
-1.10333
-1.11534
-1.12722
-1.13898
-1.15061
-1.1621
-1.17346
-1.18469
-1.19577
-1.20672
-1.21753
-1.22819
-1.23872
-1.2491
-1.25934
-1.26944
-1.27939
-1.2892
-1.29887
-1.3084
-1.31779
-1.32703
-1.33614
-1.3451
-1.35393
-1.36262
-1.37117
-1.37959
-1.38787
-1.39602
-1.40404
-1.41193
-1.41969
-1.42732
-1.43483
-1.44221
-1.44946
-1.4566
-1.46361
-1.47051
-1.47729
-1.48395
-1.4905
-1.49693
-1.50326
-1.50948
-1.51558
-1.52158
-1.52748
-1.53328
-1.53897
-1.54456
-1.55005
-1.55545
-1.56075
-1.56596
-1.57107
-1.5761
-1.58103
-1.58588
-1.59064
-1.59532
-1.59991
-1.60442
-1.60885
-1.6132
-1.61747
-1.62166
-1.62578
-1.62982
-0.568078
-0.568655
-0.570396
-0.573065
-0.57655
-0.580836
-0.585894
-0.591676
-0.598133
-0.605224
-0.61291
-0.621152
-0.629913
-0.639158
-0.64885
-0.658958
-0.66945
-0.680296
-0.691465
-0.702931
-0.714667
-0.726647
-0.738847
-0.751243
-0.763815
-0.77654
-0.789398
-0.802372
-0.815442
-0.828591
-0.841803
-0.855063
-0.868356
-0.881668
-0.894987
-0.9083
-0.921597
-0.934865
-0.948095
-0.961277
-0.974403
-0.987464
-1.00045
-1.01336
-1.02618
-1.03891
-1.05154
-1.06407
-1.07649
-1.0888
-1.10099
-1.11305
-1.125
-1.13682
-1.1485
-1.16006
-1.17148
-1.18276
-1.19391
-1.20492
-1.21579
-1.22651
-1.2371
-1.24754
-1.25784
-1.268
-1.27801
-1.28788
-1.29761
-1.3072
-1.31664
-1.32594
-1.33511
-1.34413
-1.35301
-1.36176
-1.37036
-1.37884
-1.38717
-1.39538
-1.40345
-1.41139
-1.4192
-1.42688
-1.43444
-1.44187
-1.44918
-1.45636
-1.46342
-1.47037
-1.47719
-1.4839
-1.4905
-1.49698
-1.50335
-1.50961
-1.51576
-1.5218
-1.52774
-1.53358
-1.53931
-1.54495
-1.55048
-1.55592
-1.56126
-1.5665
-1.57166
-1.57672
-1.58169
-1.58657
-1.59137
-1.59608
-1.60071
-1.60525
-1.60971
-1.61409
-1.6184
-1.62263
-1.62678
-1.63085
-0.564122
-0.564665
-0.566375
-0.569016
-0.572477
-0.576742
-0.581782
-0.587549
-0.593994
-0.601077
-0.608757
-0.616997
-0.625759
-0.635006
-0.644704
-0.654821
-0.665325
-0.676184
-0.68737
-0.698856
-0.710613
-0.722618
-0.734845
-0.74727
-0.759873
-0.772632
-0.785527
-0.798538
-0.811648
-0.824839
-0.838095
-0.8514
-0.86474
-0.878101
-0.891471
-0.904836
-0.918186
-0.931508
-0.944794
-0.958034
-0.971218
-0.984338
-0.997386
-1.01036
-1.02324
-1.03603
-1.04873
-1.06132
-1.0738
-1.08617
-1.09842
-1.11056
-1.12257
-1.13445
-1.1462
-1.15783
-1.16931
-1.18066
-1.19188
-1.20295
-1.21389
-1.22468
-1.23533
-1.24584
-1.2562
-1.26642
-1.2765
-1.28644
-1.29623
-1.30588
-1.31539
-1.32475
-1.33398
-1.34306
-1.352
-1.36081
-1.36948
-1.37801
-1.38641
-1.39467
-1.4028
-1.4108
-1.41866
-1.4264
-1.43401
-1.4415
-1.44886
-1.4561
-1.46321
-1.47021
-1.47709
-1.48385
-1.49049
-1.49702
-1.50344
-1.50975
-1.51595
-1.52204
-1.52803
-1.53391
-1.53969
-1.54536
-1.55094
-1.55642
-1.5618
-1.56709
-1.57229
-1.57739
-1.5824
-1.58732
-1.59216
-1.59691
-1.60157
-1.60615
-1.61065
-1.61507
-1.61941
-1.62367
-1.62786
-1.63197
-0.559848
-0.560352
-0.56203
-0.564641
-0.568075
-0.572317
-0.577339
-0.583089
-0.589522
-0.596595
-0.604269
-0.612505
-0.621267
-0.630517
-0.640222
-0.650348
-0.660863
-0.671738
-0.682942
-0.694448
-0.706229
-0.71826
-0.730516
-0.742973
-0.755609
-0.768404
-0.781337
-0.79439
-0.807542
-0.820779
-0.834082
-0.847436
-0.860827
-0.874241
-0.887664
-0.901086
-0.914492
-0.927874
-0.94122
-0.954521
-0.967768
-0.980952
-0.994065
-1.0071
-1.02005
-1.03291
-1.04567
-1.05833
-1.07088
-1.08332
-1.09565
-1.10785
-1.11993
-1.13189
-1.14371
-1.15541
-1.16697
-1.17839
-1.18967
-1.20082
-1.21182
-1.22269
-1.23341
-1.24399
-1.25442
-1.26472
-1.27486
-1.28487
-1.29473
-1.30445
-1.31402
-1.32346
-1.33275
-1.3419
-1.35091
-1.35978
-1.36851
-1.37711
-1.38557
-1.3939
-1.40209
-1.41015
-1.41808
-1.42588
-1.43355
-1.44109
-1.44851
-1.45581
-1.46298
-1.47003
-1.47697
-1.48378
-1.49048
-1.49707
-1.50354
-1.5099
-1.51615
-1.52229
-1.52833
-1.53426
-1.54009
-1.54581
-1.55144
-1.55697
-1.56239
-1.56773
-1.57297
-1.57811
-1.58317
-1.58814
-1.59301
-1.5978
-1.60251
-1.60713
-1.61167
-1.61613
-1.62051
-1.62481
-1.62903
-1.63317
-0.55526
-0.555724
-0.557366
-0.559946
-0.563351
-0.567569
-0.572569
-0.578302
-0.584721
-0.591783
-0.59945
-0.607683
-0.616444
-0.625698
-0.635409
-0.645544
-0.656073
-0.666963
-0.678186
-0.689714
-0.70152
-0.713579
-0.725865
-0.738355
-0.751028
-0.763861
-0.776836
-0.789931
-0.80313
-0.816414
-0.829768
-0.843174
-0.85662
-0.87009
-0.883572
-0.897053
-0.910521
-0.923966
-0.937376
-0.950743
-0.964057
-0.977309
-0.990492
-1.0036
-1.01662
-1.02955
-1.04239
-1.05512
-1.06775
-1.08026
-1.09266
-1.10494
-1.1171
-1.12913
-1.14103
-1.1528
-1.16444
-1.17594
-1.1873
-1.19852
-1.2096
-1.22054
-1.23134
-1.242
-1.25251
-1.26288
-1.2731
-1.28318
-1.29311
-1.30291
-1.31255
-1.32206
-1.33142
-1.34065
-1.34973
-1.35867
-1.36747
-1.37614
-1.38467
-1.39306
-1.40132
-1.40945
-1.41744
-1.42531
-1.43304
-1.44065
-1.44813
-1.45549
-1.46273
-1.46984
-1.47683
-1.48371
-1.49047
-1.49711
-1.50364
-1.51006
-1.51636
-1.52256
-1.52865
-1.53464
-1.54052
-1.54629
-1.55197
-1.55755
-1.56303
-1.56841
-1.5737
-1.57889
-1.58399
-1.58901
-1.59393
-1.59877
-1.60352
-1.60818
-1.61276
-1.61726
-1.62168
-1.62602
-1.63029
-1.63447
-0.550366
-0.550786
-0.55239
-0.554936
-0.558311
-0.562501
-0.567479
-0.573193
-0.579597
-0.586648
-0.594307
-0.602536
-0.611297
-0.620553
-0.630271
-0.640416
-0.650958
-0.661865
-0.673108
-0.684659
-0.696491
-0.708579
-0.720897
-0.733423
-0.746134
-0.759008
-0.772026
-0.785167
-0.798415
-0.81175
-0.825157
-0.838619
-0.852122
-0.865652
-0.879196
-0.89274
-0.906274
-0.919786
-0.933265
-0.946702
-0.960087
-0.973412
-0.986669
-0.99985
-1.01295
-1.02596
-1.03887
-1.05168
-1.06439
-1.07698
-1.08946
-1.10182
-1.11406
-1.12617
-1.13816
-1.15001
-1.16173
-1.17331
-1.18475
-1.19606
-1.20722
-1.21824
-1.22912
-1.23986
-1.25045
-1.2609
-1.2712
-1.28136
-1.29138
-1.30125
-1.31098
-1.32056
-1.33
-1.3393
-1.34846
-1.35748
-1.36635
-1.37509
-1.3837
-1.39216
-1.4005
-1.40869
-1.41676
-1.42469
-1.4325
-1.44018
-1.44773
-1.45515
-1.46245
-1.46963
-1.47669
-1.48363
-1.49045
-1.49715
-1.50374
-1.51022
-1.51659
-1.52284
-1.52899
-1.53503
-1.54097
-1.5468
-1.55253
-1.55817
-1.5637
-1.56913
-1.57447
-1.57972
-1.58487
-1.58993
-1.59491
-1.59979
-1.60459
-1.6093
-1.61393
-1.61847
-1.62294
-1.62732
-1.63163
-1.63585
-0.54517
-0.545544
-0.547108
-0.549617
-0.552959
-0.557121
-0.562075
-0.567769
-0.574156
-0.581195
-0.588846
-0.59707
-0.605829
-0.615089
-0.624813
-0.634969
-0.645524
-0.656448
-0.667712
-0.679287
-0.691147
-0.703265
-0.715618
-0.72818
-0.740931
-0.753848
-0.766912
-0.780102
-0.793401
-0.80679
-0.820253
-0.833774
-0.847339
-0.860932
-0.874541
-0.888152
-0.901755
-0.915338
-0.92889
-0.942401
-0.955862
-0.969264
-0.982599
-0.995859
-1.00904
-1.02213
-1.03512
-1.04802
-1.06081
-1.07349
-1.08606
-1.0985
-1.11083
-1.12303
-1.1351
-1.14703
-1.15884
-1.17051
-1.18204
-1.19343
-1.20468
-1.21579
-1.22676
-1.23758
-1.24826
-1.25879
-1.26918
-1.27943
-1.28953
-1.29948
-1.30929
-1.31896
-1.32848
-1.33786
-1.3471
-1.3562
-1.36516
-1.37398
-1.38266
-1.3912
-1.39961
-1.40788
-1.41603
-1.42403
-1.43191
-1.43966
-1.44728
-1.45478
-1.46215
-1.4694
-1.47653
-1.48353
-1.49042
-1.49719
-1.50385
-1.51039
-1.51682
-1.52314
-1.52935
-1.53545
-1.54145
-1.54734
-1.55313
-1.55882
-1.56441
-1.5699
-1.5753
-1.58059
-1.5858
-1.59092
-1.59594
-1.60087
-1.60572
-1.61048
-1.61516
-1.61975
-1.62427
-1.6287
-1.63305
-1.63732
-0.539678
-0.540004
-0.541525
-0.543995
-0.547302
-0.551434
-0.556362
-0.562034
-0.568404
-0.575429
-0.583071
-0.59129
-0.600048
-0.60931
-0.619041
-0.629207
-0.639776
-0.650718
-0.662004
-0.673604
-0.685492
-0.697642
-0.71003
-0.722632
-0.735424
-0.748387
-0.761498
-0.77474
-0.788092
-0.801538
-0.81506
-0.828643
-0.842272
-0.855931
-0.869609
-0.883292
-0.896967
-0.910625
-0.924253
-0.937843
-0.951383
-0.964867
-0.978284
-0.991629
-1.00489
-1.01807
-1.03115
-1.04414
-1.05701
-1.06978
-1.08244
-1.09498
-1.10739
-1.11968
-1.13185
-1.14388
-1.15577
-1.16754
-1.17916
-1.19064
-1.20199
-1.21319
-1.22425
-1.23516
-1.24593
-1.25656
-1.26704
-1.27737
-1.28756
-1.2976
-1.3075
-1.31726
-1.32687
-1.33633
-1.34566
-1.35484
-1.36388
-1.37279
-1.38155
-1.39018
-1.39867
-1.40702
-1.41524
-1.42333
-1.43129
-1.43911
-1.44681
-1.45438
-1.46183
-1.46915
-1.47635
-1.48343
-1.49039
-1.49723
-1.50395
-1.51056
-1.51706
-1.52345
-1.52972
-1.53589
-1.54195
-1.54791
-1.55376
-1.55951
-1.56516
-1.57071
-1.57616
-1.58152
-1.58678
-1.59195
-1.59703
-1.60202
-1.60692
-1.61174
-1.61647
-1.62111
-1.62567
-1.63015
-1.63455
-1.63887
-0.533896
-0.53417
-0.535646
-0.538075
-0.541346
-0.545446
-0.550346
-0.555995
-0.562346
-0.569357
-0.576988
-0.585201
-0.593958
-0.603222
-0.612959
-0.623136
-0.63372
-0.64468
-0.655987
-0.667614
-0.679532
-0.691715
-0.70414
-0.716781
-0.729618
-0.742627
-0.755789
-0.769083
-0.782492
-0.795997
-0.809581
-0.823229
-0.836925
-0.850654
-0.864404
-0.878161
-0.891913
-0.905649
-0.919358
-0.933029
-0.946654
-0.960222
-0.973727
-0.98716
-1.00051
-1.01378
-1.02695
-1.04003
-1.053
-1.06587
-1.07862
-1.09125
-1.10376
-1.11615
-1.12841
-1.14054
-1.15253
-1.16439
-1.17611
-1.18769
-1.19913
-1.21043
-1.22159
-1.2326
-1.24346
-1.25418
-1.26476
-1.27519
-1.28547
-1.29561
-1.3056
-1.31545
-1.32515
-1.33471
-1.34413
-1.3534
-1.36253
-1.37152
-1.38037
-1.38909
-1.39766
-1.4061
-1.41441
-1.42258
-1.43062
-1.43853
-1.4463
-1.45396
-1.46148
-1.46888
-1.47616
-1.48331
-1.49034
-1.49726
-1.50406
-1.51074
-1.51731
-1.52376
-1.53011
-1.53635
-1.54247
-1.5485
-1.55441
-1.56023
-1.56594
-1.57155
-1.57707
-1.58249
-1.58781
-1.59304
-1.59818
-1.60323
-1.60818
-1.61305
-1.61784
-1.62254
-1.62715
-1.63169
-1.63614
-1.6405
-0.527829
-0.528049
-0.529477
-0.531863
-0.535095
-0.539161
-0.544032
-0.549657
-0.555988
-0.562983
-0.570604
-0.57881
-0.587564
-0.59683
-0.606574
-0.61676
-0.627359
-0.638338
-0.649668
-0.661321
-0.67327
-0.685488
-0.69795
-0.710634
-0.723515
-0.736573
-0.749787
-0.763137
-0.776604
-0.790171
-0.80382
-0.817535
-0.831301
-0.845103
-0.858928
-0.872763
-0.886595
-0.900412
-0.914205
-0.927963
-0.941675
-0.955333
-0.968929
-0.982454
-0.995901
-1.00926
-1.02253
-1.03571
-1.04878
-1.06174
-1.07459
-1.08732
-1.09994
-1.11243
-1.12479
-1.13702
-1.14911
-1.16107
-1.1729
-1.18458
-1.19612
-1.20752
-1.21878
-1.22989
-1.24086
-1.25168
-1.26236
-1.27289
-1.28327
-1.29351
-1.3036
-1.31354
-1.32334
-1.333
-1.34251
-1.35188
-1.3611
-1.37018
-1.37913
-1.38793
-1.3966
-1.40513
-1.41352
-1.42178
-1.42991
-1.4379
-1.44576
-1.4535
-1.46111
-1.46859
-1.47594
-1.48318
-1.49029
-1.49729
-1.50416
-1.51092
-1.51756
-1.52409
-1.53051
-1.53682
-1.54302
-1.54911
-1.5551
-1.56098
-1.56676
-1.57244
-1.57802
-1.5835
-1.58889
-1.59418
-1.59938
-1.60449
-1.60951
-1.61443
-1.61928
-1.62403
-1.6287
-1.63329
-1.6378
-1.64222
-0.521482
-0.521645
-0.523023
-0.525364
-0.528555
-0.532586
-0.537426
-0.543025
-0.549334
-0.556313
-0.563921
-0.57212
-0.580871
-0.590139
-0.599888
-0.610086
-0.620699
-0.631697
-0.64305
-0.654731
-0.66671
-0.678964
-0.691466
-0.704192
-0.717121
-0.730229
-0.743497
-0.756905
-0.770432
-0.784063
-0.797779
-0.811564
-0.825403
-0.839281
-0.853184
-0.8671
-0.881015
-0.894918
-0.908798
-0.922645
-0.936449
-0.950201
-0.963891
-0.977513
-0.991058
-1.00452
-1.01789
-1.03117
-1.04434
-1.05741
-1.07036
-1.0832
-1.09592
-1.10851
-1.12098
-1.13331
-1.14552
-1.15758
-1.16952
-1.18131
-1.19296
-1.20446
-1.21583
-1.22705
-1.23812
-1.24905
-1.25983
-1.27046
-1.28095
-1.29129
-1.30148
-1.31153
-1.32143
-1.33119
-1.3408
-1.35027
-1.35959
-1.36877
-1.37781
-1.38671
-1.39547
-1.4041
-1.41258
-1.42093
-1.42915
-1.43723
-1.44519
-1.45301
-1.46071
-1.46827
-1.47572
-1.48303
-1.49023
-1.4973
-1.50426
-1.5111
-1.51782
-1.52443
-1.53092
-1.53731
-1.54358
-1.54975
-1.55581
-1.56176
-1.56761
-1.57336
-1.57901
-1.58456
-1.59001
-1.59537
-1.60064
-1.60581
-1.61089
-1.61588
-1.62078
-1.6256
-1.63033
-1.63497
-1.63954
-1.64401
-0.514861
-0.514964
-0.51629
-0.518583
-0.521732
-0.525725
-0.530532
-0.536104
-0.54239
-0.549351
-0.556946
-0.565137
-0.573885
-0.583154
-0.592909
-0.603116
-0.613744
-0.624761
-0.636138
-0.647846
-0.659858
-0.672148
-0.68469
-0.697461
-0.710438
-0.723598
-0.736922
-0.750389
-0.763979
-0.777676
-0.791462
-0.805319
-0.819234
-0.83319
-0.847175
-0.861174
-0.875175
-0.889167
-0.903139
-0.917079
-0.930978
-0.944827
-0.958616
-0.972338
-0.985985
-0.99955
-1.01303
-1.02641
-1.03969
-1.05286
-1.06592
-1.07887
-1.0917
-1.1044
-1.11698
-1.12943
-1.14175
-1.15393
-1.16597
-1.17787
-1.18963
-1.20125
-1.21273
-1.22406
-1.23524
-1.24628
-1.25717
-1.26791
-1.27851
-1.28896
-1.29926
-1.30941
-1.31942
-1.32928
-1.339
-1.34857
-1.358
-1.36728
-1.37642
-1.38542
-1.39428
-1.40301
-1.41159
-1.42004
-1.42835
-1.43653
-1.44458
-1.45249
-1.46028
-1.46793
-1.47547
-1.48287
-1.49016
-1.49732
-1.50436
-1.51128
-1.51808
-1.52477
-1.53135
-1.53781
-1.54416
-1.55041
-1.55654
-1.56257
-1.5685
-1.57432
-1.58004
-1.58566
-1.59119
-1.59661
-1.60194
-1.60718
-1.61233
-1.61738
-1.62235
-1.62723
-1.63202
-1.63673
-1.64135
-1.64588
-0.507969
-0.508011
-0.509282
-0.511525
-0.514629
-0.518583
-0.523356
-0.528899
-0.535161
-0.542103
-0.549684
-0.557865
-0.566609
-0.575878
-0.585639
-0.595856
-0.606499
-0.617535
-0.628936
-0.640672
-0.652717
-0.665044
-0.677627
-0.690444
-0.70347
-0.716684
-0.730065
-0.743593
-0.757248
-0.771013
-0.78487
-0.798803
-0.812796
-0.826833
-0.840902
-0.854988
-0.869079
-0.883163
-0.897229
-0.911266
-0.925264
-0.939213
-0.953105
-0.966931
-0.980684
-0.994357
-1.00794
-1.02143
-1.03482
-1.04811
-1.06129
-1.07435
-1.08729
-1.10011
-1.1128
-1.12537
-1.1378
-1.15009
-1.16225
-1.17427
-1.18615
-1.19789
-1.20948
-1.22092
-1.23222
-1.24338
-1.25438
-1.26524
-1.27595
-1.28651
-1.29693
-1.30719
-1.31731
-1.32728
-1.33711
-1.34679
-1.35632
-1.36572
-1.37496
-1.38407
-1.39303
-1.40186
-1.41054
-1.41909
-1.4275
-1.43578
-1.44393
-1.45194
-1.45982
-1.46757
-1.4752
-1.48269
-1.49007
-1.49732
-1.50445
-1.51146
-1.51835
-1.52512
-1.53178
-1.53833
-1.54476
-1.55109
-1.5573
-1.56341
-1.56941
-1.57531
-1.58111
-1.5868
-1.5924
-1.5979
-1.6033
-1.60861
-1.61382
-1.61895
-1.62398
-1.62892
-1.63378
-1.63855
-1.64324
-1.64783
-0.500813
-0.500791
-0.502004
-0.504196
-0.507253
-0.511165
-0.515903
-0.521414
-0.527652
-0.534573
-0.542139
-0.55031
-0.559049
-0.568318
-0.578083
-0.58831
-0.598967
-0.610023
-0.621448
-0.633213
-0.645291
-0.657655
-0.670281
-0.683144
-0.696221
-0.70949
-0.722929
-0.73652
-0.750242
-0.764077
-0.778008
-0.792018
-0.806091
-0.820213
-0.834368
-0.848544
-0.862727
-0.876906
-0.891069
-0.905206
-0.919306
-0.93336
-0.947359
-0.961293
-0.975156
-0.988939
-1.00264
-1.01624
-1.02975
-1.04315
-1.05645
-1.06962
-1.08269
-1.09563
-1.10844
-1.12112
-1.13368
-1.14609
-1.15837
-1.17051
-1.18251
-1.19437
-1.20608
-1.21765
-1.22907
-1.24034
-1.25147
-1.26245
-1.27327
-1.28395
-1.29449
-1.30487
-1.3151
-1.32519
-1.33513
-1.34492
-1.35457
-1.36407
-1.37343
-1.38265
-1.39172
-1.40065
-1.40944
-1.4181
-1.42661
-1.43499
-1.44324
-1.45135
-1.45933
-1.46718
-1.4749
-1.4825
-1.48997
-1.49731
-1.50453
-1.51163
-1.51862
-1.52548
-1.53223
-1.53886
-1.54538
-1.55179
-1.55809
-1.56428
-1.57036
-1.57634
-1.58221
-1.58798
-1.59366
-1.59923
-1.60471
-1.61009
-1.61538
-1.62057
-1.62567
-1.63069
-1.63561
-1.64045
-1.6452
-1.64986
-0.493397
-0.493307
-0.494462
-0.496599
-0.499607
-0.503477
-0.508177
-0.513656
-0.519866
-0.526766
-0.534316
-0.542476
-0.551208
-0.560476
-0.570246
-0.580482
-0.591154
-0.602229
-0.613678
-0.625471
-0.637583
-0.649986
-0.662654
-0.675564
-0.688693
-0.702018
-0.715518
-0.729173
-0.742963
-0.75687
-0.770877
-0.784966
-0.799122
-0.81333
-0.827575
-0.841843
-0.856121
-0.870399
-0.884663
-0.898903
-0.913108
-0.92727
-0.941378
-0.955424
-0.969401
-0.9833
-0.997114
-1.01084
-1.02446
-1.03799
-1.0514
-1.0647
-1.07789
-1.09095
-1.10389
-1.1167
-1.12938
-1.14192
-1.15433
-1.16659
-1.17872
-1.1907
-1.20254
-1.21423
-1.22578
-1.23718
-1.24842
-1.25953
-1.27048
-1.28128
-1.29193
-1.30244
-1.31279
-1.323
-1.33306
-1.34297
-1.35273
-1.36235
-1.37182
-1.38115
-1.39034
-1.39938
-1.40828
-1.41705
-1.42567
-1.43416
-1.44251
-1.45073
-1.45881
-1.46677
-1.47459
-1.48228
-1.48985
-1.49729
-1.50461
-1.51181
-1.51888
-1.52584
-1.53268
-1.5394
-1.54601
-1.55251
-1.55889
-1.56517
-1.57133
-1.57739
-1.58335
-1.5892
-1.59496
-1.60061
-1.60616
-1.61162
-1.61698
-1.62225
-1.62742
-1.63251
-1.63751
-1.64241
-1.64723
-1.65196
-0.485725
-0.485567
-0.48666
-0.488741
-0.491698
-0.495522
-0.500183
-0.505628
-0.51181
-0.518687
-0.526219
-0.534367
-0.543092
-0.552359
-0.562132
-0.572377
-0.583062
-0.594156
-0.605629
-0.617452
-0.629597
-0.642039
-0.654751
-0.667709
-0.68089
-0.694272
-0.707834
-0.721554
-0.735414
-0.749395
-0.763479
-0.77765
-0.791891
-0.806187
-0.820524
-0.834887
-0.849264
-0.863642
-0.87801
-0.892356
-0.90667
-0.920943
-0.935164
-0.949326
-0.96342
-0.977438
-0.991372
-1.00522
-1.01897
-1.03262
-1.04616
-1.05959
-1.0729
-1.08609
-1.09916
-1.1121
-1.1249
-1.13758
-1.15011
-1.16251
-1.17477
-1.18688
-1.19885
-1.21067
-1.22234
-1.23387
-1.24525
-1.25648
-1.26756
-1.27849
-1.28927
-1.2999
-1.31038
-1.32071
-1.33089
-1.34092
-1.35081
-1.36055
-1.37014
-1.37959
-1.38889
-1.39805
-1.40707
-1.41594
-1.42468
-1.43328
-1.44174
-1.45007
-1.45826
-1.46632
-1.47425
-1.48205
-1.48972
-1.49726
-1.50468
-1.51198
-1.51915
-1.5262
-1.53313
-1.53995
-1.54665
-1.55324
-1.55972
-1.56608
-1.57233
-1.57848
-1.58452
-1.59046
-1.5963
-1.60203
-1.60766
-1.6132
-1.61864
-1.62398
-1.62924
-1.6344
-1.63946
-1.64444
-1.64934
-1.65413
-0.477803
-0.477573
-0.478602
-0.480624
-0.483529
-0.487306
-0.491926
-0.497335
-0.503487
-0.510339
-0.517853
-0.525987
-0.534705
-0.543969
-0.553744
-0.563998
-0.574697
-0.585809
-0.597306
-0.609158
-0.621337
-0.633818
-0.646574
-0.659581
-0.672815
-0.686255
-0.699879
-0.713667
-0.727598
-0.741654
-0.755818
-0.770072
-0.7844
-0.798787
-0.813217
-0.827678
-0.842155
-0.856637
-0.871111
-0.885567
-0.899993
-0.91438
-0.928718
-0.942999
-0.957213
-0.971354
-0.985413
-0.999384
-1.01326
-1.02704
-1.04071
-1.05427
-1.06771
-1.08104
-1.09424
-1.10731
-1.12025
-1.13306
-1.14573
-1.15826
-1.17065
-1.1829
-1.19501
-1.20696
-1.21877
-1.23043
-1.24195
-1.25331
-1.26452
-1.27558
-1.28649
-1.29725
-1.30786
-1.31832
-1.32863
-1.33879
-1.3488
-1.35866
-1.36838
-1.37795
-1.38737
-1.39665
-1.40579
-1.41479
-1.42364
-1.43236
-1.44093
-1.44937
-1.45768
-1.46585
-1.47388
-1.48179
-1.48957
-1.49722
-1.50474
-1.51214
-1.51941
-1.52656
-1.5336
-1.54051
-1.54731
-1.55399
-1.56056
-1.56702
-1.57336
-1.5796
-1.58573
-1.59176
-1.59768
-1.60349
-1.60921
-1.61483
-1.62035
-1.62578
-1.63111
-1.63634
-1.64149
-1.64654
-1.65151
-1.65637
-0.469635
-0.46933
-0.470293
-0.472255
-0.475104
-0.478833
-0.483409
-0.488782
-0.494902
-0.501729
-0.509222
-0.517341
-0.52605
-0.535311
-0.545088
-0.555349
-0.566061
-0.577192
-0.588712
-0.600593
-0.612807
-0.625326
-0.638126
-0.651183
-0.664471
-0.67797
-0.691658
-0.705513
-0.719517
-0.73365
-0.747894
-0.762233
-0.77665
-0.79113
-0.805657
-0.820217
-0.834798
-0.849386
-0.863969
-0.878537
-0.893078
-0.907583
-0.922041
-0.936443
-0.950782
-0.965048