/*--------------------------------*- C++ -*----------------------------------*\
  =========                 |
  \\      /  F ield         | OpenFOAM: The Open Source CFD Toolbox
   \\    /   O peration     | Website:  https://openfoam.org
    \\  /    A nd           | Version:  9
     \\/     M anipulation  |
\*---------------------------------------------------------------------------*/
FoamFile
{
    format      ascii;
    class       volScalarField;
    location    "0.0075";
    object      alphat;
}
// * * * * * * * * * * * * * * * * * * * * * * * * * * * * * * * * * * * * * //

dimensions      [1 -1 -1 0 0 0 0];

internalField   nonuniform List<scalar> 
6098
(
0.0144382
0.0145473
0.0146478
0.0147405
0.014826
0.0149047
0.0149772
0.0150442
0.0151062
0.0151637
0.0152172
0.0152669
0.0153132
0.0153565
0.0153969
0.0154347
0.0154702
0.0155035
0.0155347
0.0155641
0.0155918
0.0156179
0.0156426
0.0156659
0.0156881
0.0157091
0.0157293
0.0157487
0.0157672
0.014275
0.014387
0.0144907
0.0145867
0.0146757
0.0147582
0.0148348
0.0149058
0.0149719
0.0150334
0.0150908
0.0151444
0.0151945
0.0152415
0.0152855
0.0153269
0.0153658
0.0154025
0.0154371
0.0154697
0.0155005
0.0155297
0.0155573
0.0155835
0.0156084
0.015632
0.0156544
0.0156757
0.015696
0.0140963
0.0142097
0.0143164
0.0144163
0.0145094
0.0145962
0.014677
0.0147523
0.0148226
0.0148882
0.0149496
0.0150071
0.015061
0.0151117
0.0151593
0.0152041
0.0152464
0.0152863
0.015324
0.0153596
0.0153934
0.0154254
0.0154558
0.0154846
0.0155121
0.0155382
0.0155631
0.0155868
0.0156094
0.0139166
0.0140329
0.0141426
0.014246
0.014343
0.0144337
0.0145185
0.0145979
0.0146722
0.0147419
0.0148072
0.0148686
0.0149263
0.0149806
0.0150318
0.0150801
0.0151257
0.0151689
0.0152097
0.0152483
0.015285
0.0153198
0.0153529
0.0153843
0.0154142
0.0154427
0.0154699
0.0154958
0.0155206
0.0137299
0.0138484
0.0139603
0.0140665
0.0141668
0.0142612
0.0143498
0.0144331
0.0145113
0.0145849
0.0146541
0.0147193
0.0147807
0.0148387
0.0148935
0.0149453
0.0149944
0.0150408
0.0150849
0.0151267
0.0151664
0.0152041
0.01524
0.0152742
0.0153068
0.0153379
0.0153675
0.0153959
0.0154229
0.0135353
0.0136556
0.0137694
0.0138778
0.0139809
0.0140785
0.0141706
0.0142575
0.0143395
0.0144168
0.0144898
0.0145587
0.0146238
0.0146855
0.0147439
0.0147992
0.0148517
0.0149015
0.0149488
0.0149938
0.0150366
0.0150773
0.0151162
0.0151533
0.0151886
0.0152224
0.0152547
0.0152855
0.0153151
0.0133324
0.0134541
0.0135695
0.0136795
0.0137849
0.0138853
0.0139805
0.0140708
0.0141562
0.0142371
0.0143137
0.0143862
0.014455
0.0145202
0.0145822
0.014641
0.0146969
0.0147501
0.0148007
0.0148489
0.0148949
0.0149388
0.0149806
0.0150206
0.0150588
0.0150954
0.0151304
0.0151639
0.015196
0.0131213
0.0132438
0.0133605
0.0134718
0.0135789
0.0136815
0.0137795
0.0138727
0.0139613
0.0140455
0.0141255
0.0142015
0.0142737
0.0143425
0.0144079
0.0144701
0.0145295
0.014586
0.01464
0.0146915
0.0147406
0.0147876
0.0148325
0.0148755
0.0149167
0.0149561
0.0149938
0.0150301
0.0150648
0.0129018
0.0130248
0.0131422
0.0132546
0.0133627
0.013467
0.0135672
0.0136631
0.0137545
0.0138417
0.0139248
0.0140041
0.0140796
0.0141517
0.0142205
0.0142861
0.0143488
0.0144087
0.0144659
0.0145207
0.014573
0.0146232
0.0146712
0.0147172
0.0147613
0.0148036
0.0148443
0.0148833
0.0149208
0.0126742
0.0127971
0.0129147
0.0130277
0.0131366
0.013242
0.0133439
0.0134418
0.0135357
0.0136256
0.0137116
0.0137938
0.0138724
0.0139476
0.0140196
0.0140884
0.0141543
0.0142174
0.0142779
0.0143359
0.0143914
0.0144447
0.0144958
0.0145448
0.014592
0.0146372
0.0146807
0.0147226
0.0147629
0.0124386
0.0125608
0.0126782
0.0127914
0.0129007
0.0130066
0.0131096
0.0132091
0.013305
0.0133971
0.0134856
0.0135704
0.0136518
0.0137299
0.0138048
0.0138767
0.0139456
0.0140118
0.0140754
0.0141364
0.0141951
0.0142514
0.0143056
0.0143577
0.0144078
0.014456
0.0145024
0.0145471
0.0145902
0.0123162
0.012433
0.0125458
0.0126551
0.0127611
0.0128645
0.0129651
0.0130624
0.0131564
0.0132469
0.013334
0.0134178
0.0134985
0.013576
0.0136506
0.0137224
0.0137914
0.0138579
0.0139219
0.0139835
0.0140428
0.0140999
0.0141549
0.014208
0.0142591
0.0143084
0.014356
0.0144018
0.0120636
0.0121792
0.0122913
0.0124001
0.0125059
0.0126092
0.0127101
0.0128084
0.0129036
0.0129958
0.0130847
0.0131705
0.0132533
0.0133332
0.0134102
0.0134845
0.0135562
0.0136253
0.0136919
0.0137563
0.0138183
0.0138783
0.0139361
0.013992
0.0140459
0.014098
0.0141483
0.0141969
0.0118037
0.0119176
0.0120283
0.0121362
0.0122413
0.012344
0.0124447
0.0125433
0.0126393
0.0127325
0.0128228
0.0129102
0.0129948
0.0130765
0.0131556
0.0132321
0.013306
0.0133774
0.0134465
0.0135133
0.0135779
0.0136403
0.0137007
0.0137592
0.0138158
0.0138705
0.0139235
0.0139747
0.011537
0.0116487
0.0117576
0.0118639
0.0119679
0.0120697
0.0121696
0.0122678
0.0123639
0.0124577
0.0125488
0.0126373
0.0127231
0.0128064
0.0128871
0.0129653
0.013041
0.0131145
0.0131856
0.0132545
0.0133213
0.013386
0.0134488
0.0135096
0.0135685
0.0136257
0.0136811
0.0137348
0.0112645
0.0113733
0.0114799
0.0115842
0.0116865
0.0117869
0.0118856
0.0119828
0.0120784
0.0121721
0.0122635
0.0123525
0.0124391
0.0125233
0.0126051
0.0126846
0.0127618
0.0128367
0.0129095
0.0129802
0.0130488
0.0131154
0.0131802
0.013243
0.013304
0.0133633
0.0134208
0.0134767
0.0109871
0.0110926
0.0111963
0.0112981
0.0113982
0.0114966
0.0115936
0.0116893
0.0117838
0.0118767
0.0119678
0.0120568
0.0121436
0.0122282
0.0123106
0.0123909
0.012469
0.012545
0.0126189
0.0126909
0.0127609
0.012829
0.0128952
0.0129597
0.0130224
0.0130834
0.0131427
0.0132004
0.0108079
0.0109081
0.0110068
0.0111041
0.0112001
0.0112948
0.0113885
0.0114812
0.0115728
0.0116629
0.0117513
0.0118377
0.0119222
0.0120046
0.0120851
0.0121636
0.0122401
0.0123147
0.0123874
0.0124583
0.0125274
0.0125947
0.0126604
0.0127243
0.0127865
0.0128472
0.0129064
0.0105208
0.010617
0.010712
0.010806
0.0108989
0.0109908
0.011082
0.0111724
0.011262
0.0113505
0.0114375
0.011523
0.0116067
0.0116886
0.0117687
0.011847
0.0119234
0.0119981
0.0120711
0.0121423
0.0122119
0.0122798
0.012346
0.0124107
0.0124737
0.0125353
0.0125954
0.0102332
0.0103248
0.0104156
0.0105056
0.0105949
0.0106834
0.0107714
0.0108589
0.0109459
0.0110321
0.0111172
0.011201
0.0112834
0.0113641
0.0114432
0.0115207
0.0115965
0.0116707
0.0117433
0.0118143
0.0118837
0.0119516
0.012018
0.0120828
0.0121461
0.012208
0.0122686
0.00994711
0.0100336
0.0101197
0.0102052
0.0102903
0.0103748
0.010459
0.010543
0.0106266
0.0107099
0.0107925
0.010874
0.0109543
0.0110332
0.0111107
0.0111868
0.0112613
0.0113344
0.011406
0.0114761
0.0115449
0.0116121
0.0116779
0.0117423
0.0118053
0.011867
0.0119274
0.0097459
0.00982673
0.00990728
0.00998754
0.0100675
0.0101474
0.0102271
0.0103068
0.0103864
0.0104657
0.0105443
0.0106219
0.0106984
0.0107736
0.0108476
0.0109203
0.0109915
0.0110615
0.0111302
0.0111975
0.0112634
0.0113281
0.0113914
0.0114535
0.0115143
0.0115738
0.00946383
0.00953915
0.00961434
0.00968938
0.00976431
0.00983919
0.0099141
0.00998916
0.0100644
0.0101396
0.0102145
0.0102888
0.0103622
0.0104346
0.0105058
0.0105759
0.0106449
0.0107126
0.0107792
0.0108444
0.0109085
0.0109714
0.011033
0.0110934
0.0111527
0.0112108
0.0091895
0.0092592
0.00932883
0.0093984
0.00946792
0.00953744
0.00960704
0.00967684
0.00974695
0.00981736
0.00988783
0.00995804
0.0100277
0.0100965
0.0101645
0.0102314
0.0102974
0.0103622
0.010426
0.0104887
0.0105502
0.0106107
0.01067
0.0107282
0.0107854
0.0108414
0.0089887
0.0090528
0.00911684
0.00918084
0.00924482
0.00930885
0.00937303
0.00943747
0.0095023
0.00956751
0.00963287
0.00969806
0.00976278
0.00982683
0.00989008
0.00995246
0.0100139
0.0100744
0.0101339
0.0101923
0.0102498
0.0103061
0.0103615
0.0104158
0.0104691
0.00872894
0.0087877
0.00884638
0.00890497
0.00896349
0.00902197
0.00908047
0.00913909
0.00919795
0.00925718
0.00931683
0.00937673
0.00943659
0.00949612
0.00955509
0.0096134
0.00967095
0.00972764
0.00978343
0.00983828
0.00989219
0.00994513
0.0099971
0.0100481
0.0100981
0.0085343
0.00858797
0.00864148
0.00869482
0.00874802
0.0088011
0.00885411
0.00890715
0.0089603
0.00901371
0.00906747
0.00912157
0.00917577
0.00922985
0.00928355
0.0093367
0.00938915
0.00944083
0.00949167
0.00954164
0.00959071
0.00963887
0.0096861
0.00973243
0.00829255
0.00834174
0.00839065
0.00843929
0.00848766
0.00853577
0.00858365
0.00863135
0.00867891
0.00872642
0.00877398
0.00882171
0.0088697
0.008918
0.00896638
0.00901455
0.0090623
0.00910946
0.00915593
0.00920163
0.00924651
0.00929054
0.00933369
0.00937598
0.0080616
0.00810697
0.00815193
0.00819647
0.0082406
0.00828434
0.00832769
0.00837067
0.00841332
0.00845566
0.00849775
0.00853966
0.00858147
0.00862343
0.00866562
0.00870802
0.00875041
0.00879255
0.00883426
0.00887537
0.00891581
0.00895548
0.00899434
0.00903238
0.0078821
0.00792385
0.00796503
0.00800565
0.00804573
0.00808526
0.00812426
0.00816274
0.00820073
0.00823824
0.00827531
0.00831197
0.00834839
0.00838465
0.00842086
0.00845713
0.00849347
0.00852977
0.00856584
0.00860147
0.00863654
0.00867094
0.0087046
0.0076647
0.00770406
0.0077427
0.00778062
0.00781782
0.00785432
0.00789014
0.00792527
0.00795973
0.00799355
0.00802672
0.00805928
0.00809133
0.00812291
0.00815408
0.00818492
0.0082155
0.00824592
0.00827624
0.00830645
0.00833644
0.00836605
0.00839518
0.00748946
0.00752637
0.0075624
0.00759755
0.00763184
0.00766528
0.00769788
0.00772965
0.00776061
0.00779077
0.00782014
0.00784881
0.0078768
0.00790415
0.0079309
0.0079571
0.00798279
0.00800804
0.00803291
0.00805745
0.0080817
0.00810572
0.00727641
0.00731238
0.0073473
0.00738118
0.00741404
0.00744589
0.00747675
0.00750662
0.00753553
0.00756349
0.0075905
0.00761662
0.0076419
0.00766638
0.00769007
0.007713
0.00773521
0.00775673
0.00777762
0.0077979
0.00781759
0.0078368
0.0070967
0.0071312
0.0071645
0.00719663
0.00722758
0.00725739
0.00728607
0.00731363
0.00734012
0.00736557
0.00738998
0.00741338
0.00743581
0.00745726
0.00747777
0.00749738
0.00751612
0.00753406
0.00755119
0.00756752
0.0075833
0.00690993
0.00694321
0.00697515
0.00700578
0.00703509
0.00706315
0.00708995
0.00711554
0.00713995
0.00716321
0.00718532
0.00720633
0.00722625
0.00724507
0.00726298
0.0072801
0.00729638
0.00731175
0.00732618
0.00733975
0.0066795
0.00671316
0.00674533
0.00677602
0.00680527
0.00683312
0.00685957
0.00688465
0.00690841
0.00693088
0.00695203
0.00697212
0.00699125
0.00700931
0.00702628
0.00704218
0.00705702
0.00707079
0.00708346
0.00709513
0.00647046
0.00650309
0.00653411
0.00656355
0.00659144
0.00661778
0.0066426
0.00666594
0.00668822
0.0067093
0.0067291
0.00674758
0.00676475
0.00678063
0.00679526
0.00680865
0.0068208
0.00683172
0.00684151
0.00624496
0.00627627
0.00630589
0.00633377
0.00636006
0.00638517
0.00640888
0.00643111
0.00645183
0.00647101
0.00648867
0.00650484
0.00651955
0.0065328
0.00654466
0.00655518
0.00656427
0.00657206
0.00596861
0.00599994
0.00602942
0.00605765
0.00608439
0.00610947
0.00613285
0.00615452
0.00617444
0.00619263
0.00620915
0.00622397
0.00623716
0.00624877
0.00625883
0.0062674
0.00627435
0.00628017
0.00570506
0.00573493
0.00576303
0.00578927
0.00581361
0.00583599
0.00585645
0.005875
0.00589162
0.00590637
0.00591935
0.00593051
0.00593991
0.00594768
0.00595434
0.00596024
0.00596561
0.00542309
0.00545042
0.00547563
0.00549872
0.00551973
0.00553859
0.00555538
0.0055702
0.00558301
0.00559392
0.00560298
0.00561083
0.00561823
0.00562496
0.00563032
0.00563446
0.00509574
0.00512185
0.00514576
0.00516736
0.00518673
0.00520385
0.00521887
0.00523191
0.00524288
0.00525252
0.00526169
0.00526995
0.00527702
0.00528261
0.00528621
0.00528802
0.00478228
0.00480502
0.00482543
0.00484369
0.00485996
0.00487417
0.00488658
0.00489813
0.00490874
0.00491776
0.00492471
0.00492953
0.00493206
0.00493185
0.00492819
0.00446655
0.004487
0.00450511
0.00452079
0.00453468
0.00454748
0.00455832
0.00456683
0.00457271
0.00457591
0.00457644
0.00457323
0.00456572
0.00455497
0.00414034
0.00415875
0.00417439
0.00418849
0.00420093
0.00421106
0.00421846
0.004223
0.00422449
0.00422255
0.00421606
0.0042058
0.00419162
0.00417416
0.00383408
0.00384824
0.00386023
0.00386956
0.0038759
0.00387916
0.00387917
0.00387466
0.00386592
0.00385334
0.00383699
0.00381644
0.00379253
0.00352802
0.00353671
0.00354232
0.00354464
0.00354357
0.0035375
0.0035273
0.00351312
0.00349518
0.00347315
0.00344674
0.00341681
0.00322003
0.00322186
0.00322002
0.00321334
0.00320256
0.00318772
0.00316893
0.00314614
0.00311909
0.00308744
0.00305225
0.0029096
0.00290302
0.00289243
0.00287783
0.00285921
0.0028365
0.00280961
0.00277828
0.00274227
0.00270267
0.00259688
0.00258331
0.00256582
0.00254425
0.00251851
0.0024886
0.00245409
0.00241511
0.00237239
0.00228843
0.00226906
0.00224564
0.00221825
0.00218662
0.00215051
0.00211032
0.00206606
0.00200978
0.00198969
0.00196589
0.00193818
0.00190632
0.00187047
0.00183062
0.00178653
0.00170796
0.00168172
0.00165165
0.00161788
0.00158018
0.0015378
0.00145533
0.00143112
0.00140376
0.00137174
0.00132647
0.00124902
0.00122397
0.00119477
0.00115986
0.000986334
0.0157821
0.0157825
0.0157828
0.0157831
0.0157834
0.0157837
0.015784
0.0157843
0.0157846
0.0157849
0.0157852
0.0157855
0.0157858
0.015786
0.0157863
0.0157121
0.0157125
0.0157129
0.0157132
0.0157136
0.0157139
0.0157142
0.0157146
0.0157149
0.0157152
0.0157155
0.0157158
0.0157162
0.0157165
0.0157168
0.0156272
0.0156276
0.015628
0.0156284
0.0156288
0.0156292
0.0156295
0.0156299
0.0156303
0.0156306
0.015631
0.0156314
0.0156317
0.015632
0.0156324
0.0155399
0.0155403
0.0155408
0.0155412
0.0155416
0.0155421
0.0155425
0.0155429
0.0155433
0.0155437
0.0155441
0.0155445
0.0155449
0.0155453
0.0155457
0.0154437
0.0154442
0.0154447
0.0154452
0.0154457
0.0154462
0.0154466
0.0154471
0.0154476
0.015448
0.0154484
0.0154489
0.0154493
0.0154498
0.0154502
0.0153376
0.0153381
0.0153386
0.0153392
0.0153397
0.0153402
0.0153408
0.0153413
0.0153418
0.0153423
0.0153428
0.0153433
0.0153437
0.0153442
0.0153447
0.0152202
0.0152208
0.0152214
0.015222
0.0152226
0.0152231
0.0152237
0.0152243
0.0152248
0.0152254
0.0152259
0.0152265
0.015227
0.0152275
0.0152281
0.0150907
0.0150914
0.015092
0.0150927
0.0150933
0.015094
0.0150946
0.0150952
0.0150958
0.0150964
0.015097
0.0150976
0.0150982
0.0150988
0.0150994
0.0149484
0.0149491
0.0149498
0.0149505
0.0149512
0.0149519
0.0149526
0.0149533
0.014954
0.0149547
0.0149553
0.014956
0.0149567
0.0149573
0.014958
0.0147922
0.014793
0.0147938
0.0147946
0.0147954
0.0147961
0.0147969
0.0147976
0.0147984
0.0147991
0.0147999
0.0148006
0.0148013
0.014802
0.0148028
0.0146213
0.0146221
0.014623
0.0146238
0.0146247
0.0146255
0.0146264
0.0146272
0.014628
0.0146288
0.0146296
0.0146304
0.0146312
0.014632
0.0146328
0.0144346
0.0144355
0.0144364
0.0144374
0.0144383
0.0144392
0.0144401
0.014441
0.0144419
0.0144428
0.0144437
0.0144445
0.0144454
0.0144463
0.0144471
0.0142313
0.0142323
0.0142333
0.0142343
0.0142353
0.0142363
0.0142373
0.0142383
0.0142392
0.0142402
0.0142412
0.0142421
0.0142431
0.014244
0.014245
0.0140105
0.0140117
0.0140128
0.0140139
0.0140149
0.014016
0.0140171
0.0140182
0.0140192
0.0140203
0.0140213
0.0140224
0.0140234
0.0140244
0.0140254
0.0137719
0.0137731
0.0137743
0.0137755
0.0137767
0.0137778
0.013779
0.0137802
0.0137813
0.0137825
0.0137836
0.0137847
0.0137858
0.0137869
0.0137881
0.013515
0.0135163
0.0135176
0.0135189
0.0135202
0.0135214
0.0135227
0.0135239
0.0135252
0.0135264
0.0135276
0.0135288
0.0135301
0.0135313
0.0135325
0.0132397
0.0132411
0.0132425
0.0132439
0.0132452
0.0132466
0.0132479
0.0132493
0.0132506
0.0132519
0.0132533
0.0132546
0.0132559
0.0132572
0.0132585
0.0129463
0.0129478
0.0129493
0.0129507
0.0129522
0.0129536
0.0129551
0.0129565
0.012958
0.0129594
0.0129608
0.0129622
0.0129636
0.012965
0.0129664
0.0126356
0.0126372
0.0126388
0.0126404
0.0126419
0.0126435
0.012645
0.0126465
0.0126481
0.0126496
0.0126511
0.0126526
0.0126541
0.0126556
0.0126571
0.0123088
0.0123105
0.0123122
0.0123138
0.0123155
0.0123171
0.0123188
0.0123204
0.012322
0.0123236
0.0123252
0.0123268
0.0123284
0.01233
0.0123315
0.0119673
0.011969
0.0119708
0.0119726
0.0119743
0.011976
0.0119777
0.0119794
0.0119812
0.0119828
0.0119845
0.0119862
0.0119879
0.0119896
0.0119912
0.011613
0.0116148
0.0116167
0.0116185
0.0116203
0.0116221
0.0116239
0.0116257
0.0116275
0.0116293
0.0116311
0.0116328
0.0116346
0.0116363
0.0116381
0.0112488
0.0112507
0.0112526
0.0112545
0.0112564
0.0112583
0.0112601
0.011262
0.0112639
0.0112657
0.0112675
0.0112694
0.0112712
0.011273
0.0112748
0.0108778
0.0108798
0.0108817
0.0108837
0.0108856
0.0108876
0.0108895
0.0108915
0.0108934
0.0108953
0.0108972
0.0108991
0.010901
0.0109028
0.0109047
0.0105036
0.0105056
0.0105077
0.0105097
0.0105117
0.0105137
0.0105156
0.0105176
0.0105196
0.0105215
0.0105235
0.0105254
0.0105274
0.0105293
0.0105312
0.0101303
0.0101324
0.0101344
0.0101365
0.0101385
0.0101405
0.0101426
0.0101446
0.0101466
0.0101486
0.0101505
0.0101525
0.0101545
0.0101564
0.0101584
0.00976208
0.00976415
0.00976622
0.00976828
0.00977033
0.00977237
0.0097744
0.00977643
0.00977844
0.00978045
0.00978245
0.00978444
0.00978643
0.00978841
0.00979039
0.00940291
0.00940498
0.00940705
0.0094091
0.00941115
0.0094132
0.00941523
0.00941725
0.00941927
0.00942128
0.00942328
0.00942527
0.00942726
0.00942924
0.00943122
0.00905651
0.00905855
0.00906061
0.00906265
0.00906468
0.00906671
0.00906873
0.00907074
0.00907274
0.00907473
0.00907672
0.0090787
0.00908067
0.00908264
0.00908461
0.00872588
0.00872789
0.00872991
0.00873192
0.00873393
0.00873592
0.00873791
0.00873989
0.00874186
0.00874383
0.00874579
0.00874774
0.00874968
0.00875162
0.00875357
0.0084136
0.00841556
0.00841753
0.0084195
0.00842146
0.00842341
0.00842535
0.00842728
0.00842921
0.00843114
0.00843305
0.00843496
0.00843687
0.00843877
0.00844068
0.00812109
0.00812296
0.00812486
0.00812675
0.00812863
0.0081305
0.00813237
0.00813423
0.00813609
0.00813794
0.00813979
0.00814163
0.00814347
0.00814531
0.00814715
0.00784899
0.00785075
0.00785254
0.00785432
0.0078561
0.00785787
0.00785964
0.0078614
0.00786316
0.00786491
0.00786666
0.00786841
0.00787015
0.00787189
0.00787364
0.00759317
0.00759485
0.00759656
0.00759827
0.00759998
0.00760168
0.00760338
0.00760508
0.00760677
0.00760845
0.00761014
0.00761182
0.0076135
0.00761518
0.00761686
0.00734811
0.00734968
0.00735131
0.00735295
0.00735458
0.00735621
0.00735785
0.00735948
0.00736112
0.00736276
0.0073644
0.00736604
0.00736768
0.00736932
0.00737097
0.00710226
0.00710378
0.00710537
0.00710698
0.00710859
0.00711021
0.00711184
0.00711348
0.00711512
0.00711677
0.00711842
0.00712008
0.00712175
0.00712342
0.00712511
0.00684742
0.00684889
0.00685047
0.00685207
0.00685368
0.00685532
0.00685697
0.00685863
0.00686032
0.00686202
0.00686373
0.00686545
0.00686719
0.00686895
0.00687073
0.00657671
0.00657814
0.0065797
0.00658131
0.00658295
0.00658462
0.00658633
0.00658806
0.00658983
0.00659162
0.00659343
0.00659527
0.00659714
0.00659902
0.00660095
0.006284
0.00628529
0.00628682
0.00628848
0.00629024
0.00629205
0.0062939
0.0062958
0.00629774
0.00629972
0.00630173
0.00630378
0.00630585
0.00630797
0.00631013
0.00596919
0.00597049
0.00597209
0.00597388
0.00597579
0.00597783
0.00597994
0.00598211
0.00598432
0.00598659
0.0059889
0.00599126
0.00599365
0.00599609
0.00599858
0.00563713
0.00563821
0.0056397
0.00564146
0.00564342
0.00564556
0.00564787
0.0056503
0.00565279
0.00565535
0.00565798
0.00566066
0.00566339
0.00566618
0.00566904
0.00528873
0.00528921
0.00529027
0.00529174
0.00529352
0.00529561
0.00529795
0.00530052
0.00530328
0.00530613
0.00530907
0.00531209
0.00531519
0.00531836
0.00532162
0.00492345
0.00492328
0.00492383
0.00492498
0.00492659
0.00492864
0.00493105
0.00493379
0.00493682
0.00494003
0.00494335
0.00494679
0.00495032
0.00495395
0.00495769
0.00454483
0.00454442
0.00454455
0.00454548
0.00454706
0.00454921
0.00455186
0.00455493
0.00455836
0.004562
0.00456579
0.00456972
0.00457377
0.00457794
0.00458223
0.00415839
0.00415773
0.00415764
0.00415836
0.00415994
0.00416227
0.00416521
0.00416868
0.00417257
0.00417669
0.00418097
0.00418542
0.00419001
0.00419474
0.0041996
0.00377096
0.00377003
0.00376979
0.00377032
0.00377197
0.00377453
0.00377786
0.0037818
0.00378618
0.00379079
0.00379561
0.00380061
0.00380579
0.00381111
0.00381658
0.00338969
0.00338849
0.00338812
0.0033886
0.00339046
0.00339342
0.00339728
0.00340183
0.00340673
0.00341189
0.0034173
0.00342292
0.00342872
0.00343469
0.0034408
0.00301993
0.00301852
0.00301808
0.00301873
0.00302104
0.00302464
0.00302924
0.00303439
0.00303991
0.00304573
0.00305182
0.00305814
0.00306467
0.00307136
0.0030782
0.00266577
0.00266418
0.00266377
0.00266492
0.00266796
0.00267242
0.00267777
0.00268359
0.00268982
0.00269638
0.00270323
0.00271031
0.00271761
0.00272507
0.00273268
0.00233196
0.00233026
0.00232999
0.00233193
0.00233595
0.00234137
0.00234743
0.00235401
0.00236102
0.00236839
0.00237605
0.00238395
0.00239205
0.00240031
0.00240871
0.00202388
0.00202225
0.00202224
0.00202517
0.00203028
0.00203636
0.00204315
0.00205049
0.00205829
0.00206644
0.00207488
0.00208355
0.00209241
0.00210141
0.00211052
0.00174403
0.00174257
0.00174321
0.0017472
0.00175304
0.00175981
0.00176732
0.0017754
0.00178393
0.00179281
0.00180197
0.00181134
0.00182086
0.00183052
0.00184027
0.00149666
0.00149541
0.00149685
0.00150164
0.00150781
0.00151496
0.00152285
0.00153132
0.00154024
0.0015495
0.00155903
0.00156876
0.00157866
0.00158868
0.0015988
0.00128949
0.00128862
0.00129079
0.00129566
0.00130166
0.00130848
0.00131592
0.00132381
0.0013321
0.00134077
0.00134978
0.00135907
0.0013686
0.00137833
0.00138822
0.00112471
0.0011241
0.00112644
0.00113091
0.00113626
0.0011423
0.00114892
0.001156
0.00116344
0.00117111
0.00117897
0.00118697
0.00119509
0.00120335
0.00121176
0.000970397
0.000975766
0.000984982
0.000995305
0.00100567
0.0010156
0.00102481
0.00103322
0.00104092
0.00104798
0.0010545
0.00106058
0.00106634
0.00107191
0.00107748
0.000852907
0.000874144
0.000896192
0.000918197
0.000939633
0.000957978
0.000973262
0.00098578
0.00099587
0.00100388
0.000817353
0.000842353
0.000866858
0.000888379
0.0157867
0.0157872
0.0157877
0.0157882
0.0157886
0.0157171
0.0157177
0.0157182
0.0157188
0.0157193
0.0156328
0.0156334
0.0156341
0.0156347
0.0156353
0.0155461
0.0155468
0.0155476
0.0155483
0.015549
0.0154507
0.0154515
0.0154524
0.0154532
0.015454
0.0153453
0.0153462
0.0153472
0.0153481
0.015349
0.0152287
0.0152298
0.0152309
0.0152319
0.015233
0.0151001
0.0151014
0.0151026
0.0151038
0.0151049
0.0149587
0.0149601
0.0149615
0.0149628
0.0149642
0.0148036
0.0148052
0.0148067
0.0148082
0.0148097
0.0146338
0.0146355
0.0146372
0.0146389
0.0146406
0.0144482
0.0144502
0.0144521
0.014454
0.0144559
0.0142462
0.0142483
0.0142505
0.0142526
0.0142547
0.0140268
0.0140292
0.0140316
0.014034
0.0140363
0.0137895
0.0137922
0.0137949
0.0137975
0.0138002
0.0135341
0.0135371
0.01354
0.013543
0.0135458
0.0132603
0.0132636
0.0132668
0.01327
0.0132732
0.0129684
0.012972
0.0129755
0.0129791
0.0129826
0.0126592
0.0126631
0.012667
0.0126709
0.0126747
0.0123339
0.0123381
0.0123423
0.0123465
0.0123507
0.0119938
0.0119983
0.0120029
0.0120074
0.0120118
0.0116408
0.0116457
0.0116506
0.0116554
0.0116601
0.0112778
0.011283
0.0112881
0.0112932
0.0112983
0.0109079
0.0109133
0.0109187
0.0109241
0.0109294
0.0105345
0.0105402
0.0105459
0.0105515
0.010557
0.0101618
0.0101677
0.0101736
0.0101794
0.0101851
0.00979392
0.00979994
0.00980593
0.00981187
0.00981778
0.00943483
0.00944094
0.00944702
0.00945307
0.00945907
0.00908827
0.00909443
0.00910055
0.00910665
0.0091127
0.00875725
0.0087634
0.00876952
0.00877562
0.00878168
0.00844435
0.00845044
0.00845652
0.00846258
0.00846862
0.00815076
0.00815672
0.00816268
0.00816864
0.00817459
0.0078771
0.00788283
0.00788856
0.0078943
0.00790004
0.00762024
0.00762581
0.00763139
0.00763698
0.00764258
0.00737433
0.00737988
0.00738548
0.00739111
0.00739679
0.00712858
0.00713434
0.00714019
0.00714612
0.00715214
0.00687441
0.00688058
0.00688691
0.00689337
0.00689999
0.00660496
0.00661178
0.00661882
0.00662605
0.00663351
0.00631467
0.00632242
0.00633047
0.00633879
0.0063474
0.00600386
0.00601285
0.00602222
0.00603192
0.00604195
0.00567514
0.00568554
0.00569646
0.0057078
0.00571955
0.00532861
0.00534066
0.0053534
0.0053667
0.00538052
0.00496574
0.00497975
0.00499464
0.00501023
0.00502644
0.00459146
0.00460757
0.00462471
0.00464264
0.00466122
0.00421
0.00422823
0.00424763
0.00426792
0.0042889
0.0038282
0.00384862
0.00387037
0.00389308
0.00391651
0.00345365
0.00347631
0.00350045
0.00352558
0.00355145
0.00309236
0.00311742
0.00314405
0.00317172
0.00320011
0.00274816
0.00277565
0.00280483
0.00283502
0.0028659
0.00242544
0.00245533
0.00248702
0.00251968
0.00255295
0.00212829
0.00216033
0.00219431
0.00222928
0.00226477
0.00185888
0.00189284
0.00192889
0.0019659
0.00200336
0.00161775
0.00165304
0.00169071
0.00172944
0.00176861
0.00140652
0.00144177
0.00147991
0.00151943
0.0015596
0.00122721
0.00125974
0.0012962
0.00133485
0.00137481
0.00108848
0.00111329
0.00114259
0.00117572
0.0012121
0.00101565
0.00102674
0.00103774
0.00105496
0.00107957
0.000921741
0.000940218
0.00093895
0.000938994
0.000951141
0.000793097
0.000802227
0.000792467
0.000794868
0.000446509
0.000482941
0.00049584
0.0157899
0.0157922
0.0157946
0.0157972
0.0158
0.0158029
0.015806
0.0158093
0.0158128
0.0158164
0.0158203
0.0158245
0.0158288
0.0158334
0.0158382
0.0158433
0.0158487
0.0158543
0.0158602
0.0158664
0.0158729
0.0158798
0.0158869
0.0158944
0.0159022
0.0159103
0.0159188
0.0159276
0.0159368
0.0159464
0.0159563
0.0159666
0.0159772
0.0159883
0.0159998
0.0160116
0.016024
0.0160368
0.0160501
0.0160639
0.016078
0.0160926
0.0161076
0.016123
0.0161388
0.016155
0.016172
0.0161903
0.0162108
0.0162339
0.0162598
0.0162891
0.0163212
0.0163587
0.0164077
0.0164563
0.0164881
0.0164809
0.0164293
0.0163688
0.0157204
0.0157234
0.0157266
0.0157299
0.0157333
0.015737
0.0157409
0.015745
0.0157493
0.0157539
0.0157587
0.0157637
0.0157691
0.0157747
0.0157806
0.0157868
0.0157934
0.0158002
0.0158074
0.0158149
0.0158228
0.015831
0.0158396
0.0158485
0.0158578
0.0158675
0.0158775
0.0158879
0.0158987
0.0159098
0.0159213
0.0159331
0.0159453
0.0159578
0.0159707
0.0159838
0.0159974
0.0160115
0.0160262
0.0160414
0.0160569
0.0160729
0.0160893
0.0161061
0.016123
0.01614
0.0161571
0.0161748
0.0161938
0.0162154
0.0162401
0.0162695
0.0163014
0.0163355
0.0163825
0.0164353
0.0164786
0.0164856
0.0164406
0.0163744
0.0156368
0.0156403
0.0156441
0.0156482
0.0156525
0.015657
0.0156618
0.0156668
0.0156722
0.0156778
0.0156837
0.01569
0.0156966
0.0157035
0.0157108
0.0157184
0.0157264
0.0157348
0.0157436
0.0157528
0.0157624
0.0157723
0.0157827
0.0157936
0.0158048
0.0158164
0.0158285
0.0158409
0.0158538
0.015867
0.0158806
0.0158947
0.015909
0.0159238
0.0159388
0.0159543
0.01597
0.0159861
0.0160026
0.0160193
0.0160364
0.0160539
0.0160719
0.0160904
0.0161092
0.0161275
0.0161456
0.0161634
0.0161818
0.0162027
0.0162262
0.0162542
0.0162854
0.016319
0.0163598
0.0164133
0.0164642
0.016484
0.0164477
0.0163802
0.0155509
0.0155554
0.0155602
0.0155652
0.0155705
0.0155761
0.015582
0.0155883
0.0155948
0.0156018
0.015609
0.0156167
0.0156247
0.0156332
0.0156421
0.0156513
0.015661
0.0156712
0.0156818
0.0156928
0.0157043
0.0157162
0.0157286
0.0157415
0.0157548
0.0157685
0.0157826
0.0157972
0.0158122
0.0158275
0.0158433
0.0158594
0.0158758
0.0158925
0.0159096
0.0159269
0.0159445
0.0159623
0.0159804
0.0159987
0.0160173
0.016036
0.0160549
0.0160741
0.0160934
0.0161129
0.0161326
0.0161522
0.0161721
0.0161928
0.0162153
0.0162406
0.0162712
0.0163049
0.0163414
0.0163936
0.0164492
0.0164799
0.0164533
0.0163848
0.0154564
0.0154619
0.0154678
0.015474
0.0154806
0.0154874
0.0154947
0.0155023
0.0155104
0.0155189
0.0155278
0.0155371
0.0155469
0.0155572
0.0155679
0.0155791
0.0155909
0.0156031
0.0156158
0.015629
0.0156427
0.015657
0.0156717
0.0156869
0.0157026
0.0157187
0.0157353
0.0157523
0.0157697
0.0157875
0.0158056
0.0158241
0.0158428
0.0158618
0.015881
0.0159005
0.0159201
0.0159398
0.0159597
0.0159798
0.0159999
0.0160202
0.0160405
0.016061
0.0160815
0.0161022
0.0161228
0.0161436
0.0161643
0.0161854
0.0162075
0.0162316
0.0162596
0.0162933
0.0163275
0.0163764
0.0164343
0.0164738
0.0164568
0.0163886
0.015352
0.0153588
0.015366
0.0153736
0.0153816
0.0153901
0.015399
0.0154083
0.0154182
0.0154285
0.0154393
0.0154507
0.0154626
0.015475
0.015488
0.0155015
0.0155156
0.0155303
0.0155455
0.0155613
0.0155776
0.0155945
0.0156119
0.0156298
0.0156482
0.0156671
0.0156865
0.0157062
0.0157263
0.0157468
0.0157676
0.0157887
0.01581
0.0158315
0.0158531
0.0158748
0.0158966
0.0159184
0.0159403
0.0159621
0.0159839
0.0160057
0.0160275
0.0160493
0.016071
0.0160928
0.0161145
0.0161361
0.0161577
0.0161794
0.0162016
0.0162252
0.0162518
0.0162839
0.0163186
0.0163618
0.0164203
0.0164665
0.0164587
0.0163913
0.0152366
0.015245
0.0152537
0.015263
0.0152728
0.0152831
0.0152939
0.0153053
0.0153173
0.0153298
0.015343
0.0153567
0.0153711
0.0153861
0.0154017
0.015418
0.0154349
0.0154524
0.0154706
0.0154893
0.0155087
0.0155286
0.0155491
0.0155702
0.0155917
0.0156137
0.0156361
0.015659
0.0156821
0.0157056
0.0157294
0.0157533
0.0157774
0.0158016
0.0158258
0.01585
0.0158741
0.0158981
0.015922
0.0159457
0.0159692
0.0159926
0.0160158
0.0160389
0.0160618
0.0160846
0.0161072
0.0161298
0.0161522
0.0161745
0.016197
0.0162205
0.0162461
0.016276
0.0163111
0.0163496
0.0164077
0.0164586
0.0164594
0.0163931
0.0151095
0.0151195
0.0151301
0.0151414
0.0151532
0.0151657
0.0151789
0.0151927
0.0152072
0.0152223
0.0152382
0.0152548
0.0152721
0.0152901
0.0153088
0.0153282
0.0153484
0.0153692
0.0153908
0.015413
0.0154358
0.0154593
0.0154833
0.0155079
0.0155329
0.0155584
0.0155844
0.0156106
0.0156372
0.015664
0.0156909
0.015718
0.0157451
0.0157721
0.0157991
0.0158259
0.0158525
0.0158788
0.0159048
0.0159304
0.0159557
0.0159807
0.0160053
0.0160296
0.0160537
0.0160775
0.016101
0.0161244
0.0161475
0.0161704
0.0161934
0.0162169
0.016242
0.0162704
0.0163045
0.0163397
0.0163965
0.0164505
0.0164592
0.0163942
0.0149697
0.0149817
0.0149945
0.0150081
0.0150224
0.0150375
0.0150534
0.01507
0.0150874
0.0151056
0.0151246
0.0151445
0.0151651
0.0151866
0.0152089
0.015232
0.0152559
0.0152806
0.015306
0.0153321
0.015359
0.0153864
0.0154144
0.015443
0.015472
0.0155015
0.0155313
0.0155613
0.0155916
0.015622
0.0156524
0.0156828
0.0157131