/*--------------------------------*- C++ -*----------------------------------*\
  =========                 |
  \\      /  F ield         | OpenFOAM: The Open Source CFD Toolbox
   \\    /   O peration     | Website:  https://openfoam.org
    \\  /    A nd           | Version:  9
     \\/     M anipulation  |
\*---------------------------------------------------------------------------*/
FoamFile
{
    format      ascii;
    class       volScalarField;
    location    "0.0075";
    object      nut;
}
// * * * * * * * * * * * * * * * * * * * * * * * * * * * * * * * * * * * * * //

dimensions      [0 2 -1 0 0 0 0];

internalField   nonuniform List<scalar> 
9689
(
0.0122715
0.0123515
0.0124263
0.0124964
0.0125621
0.0126237
0.0126816
0.0127359
0.0127869
0.0128348
0.0128799
0.0129223
0.0129623
0.013
0.0130357
0.0130694
0.0131013
0.0131315
0.0131602
0.0131874
0.0132132
0.0132378
0.0132612
0.0132835
0.0133048
0.0133251
0.0133444
0.0133629
0.0133806
0.0133976
0.0134139
0.0134296
0.0134447
0.0134592
0.0134733
0.0134869
0.0135
0.0135126
0.0135249
0.0121629
0.0122444
0.0123209
0.0123929
0.0124606
0.0125243
0.0125842
0.0126405
0.0126936
0.0127435
0.0127906
0.012835
0.012877
0.0129167
0.0129543
0.0129899
0.0130238
0.0130559
0.0130864
0.0131154
0.013143
0.0131694
0.0131945
0.0132185
0.0132414
0.0132633
0.0132842
0.0133043
0.0133235
0.013342
0.0133596
0.0133766
0.0133929
0.0134086
0.0134237
0.0134382
0.0134522
0.0134656
0.0134785
0.0120467
0.0121289
0.0122071
0.0122811
0.012351
0.012417
0.0124792
0.0125378
0.0125931
0.0126453
0.0126946
0.0127413
0.0127854
0.0128272
0.0128668
0.0129043
0.01294
0.012974
0.0130062
0.013037
0.0130663
0.0130942
0.0131209
0.0131463
0.0131707
0.013194
0.0132164
0.0132378
0.0132583
0.0132781
0.013297
0.0133153
0.0133328
0.0133497
0.013366
0.0133817
0.0133968
0.0134114
0.0134256
0.0119294
0.0120131
0.0120928
0.0121686
0.0122405
0.0123085
0.0123728
0.0124337
0.0124912
0.0125456
0.0125972
0.012646
0.0126923
0.0127362
0.0127779
0.0128175
0.0128552
0.012891
0.0129252
0.0129577
0.0129888
0.0130184
0.0130468
0.0130739
0.0130998
0.0131246
0.0131484
0.0131713
0.0131931
0.0132142
0.0132344
0.0132538
0.0132725
0.0132905
0.0133079
0.0133246
0.0133408
0.0133564
0.0133714
0.0118089
0.0118939
0.0119747
0.012052
0.0121256
0.0121955
0.0122619
0.0123248
0.0123844
0.012441
0.0124947
0.0125456
0.012594
0.01264
0.0126838
0.0127254
0.0127651
0.0128029
0.012839
0.0128734
0.0129063
0.0129377
0.0129678
0.0129966
0.0130241
0.0130505
0.0130759
0.0131002
0.0131235
0.0131459
0.0131675
0.0131882
0.0132082
0.0132274
0.0132459
0.0132638
0.013281
0.0132977
0.0133137
0.0116849
0.011771
0.0118529
0.0119313
0.0120063
0.0120779
0.0121461
0.012211
0.0122727
0.0123313
0.012387
0.0124401
0.0124905
0.0125386
0.0125844
0.012628
0.0126697
0.0127094
0.0127474
0.0127837
0.0128184
0.0128517
0.0128835
0.012914
0.0129432
0.0129713
0.0129982
0.013024
0.0130488
0.0130727
0.0130957
0.0131178
0.0131391
0.0131596
0.0131794
0.0131984
0.0132168
0.0132346
0.0132518
0.0115571
0.0116441
0.011727
0.0118064
0.0118826
0.0119557
0.0120256
0.0120922
0.0121558
0.0122163
0.012274
0.0123291
0.0123815
0.0124316
0.0124794
0.012525
0.0125686
0.0126103
0.0126502
0.0126884
0.012725
0.01276
0.0127936
0.0128258
0.0128568
0.0128865
0.012915
0.0129424
0.0129688
0.0129942
0.0130187
0.0130422
0.0130649
0.0130868
0.0131079
0.0131282
0.0131479
0.0131669
0.0131852
0.0114254
0.0115133
0.0115971
0.0116773
0.0117544
0.0118287
0.0119001
0.0119684
0.0120337
0.012096
0.0121556
0.0122126
0.012267
0.012319
0.0123687
0.0124163
0.0124618
0.0125054
0.0125472
0.0125872
0.0126257
0.0126625
0.0126979
0.0127319
0.0127645
0.0127959
0.0128261
0.0128552
0.0128832
0.0129101
0.0129361
0.0129611
0.0129852
0.0130085
0.013031
0.0130527
0.0130737
0.0130939
0.0131135
0.0112897
0.0113782
0.0114628
0.0115439
0.0116218
0.0116971
0.0117696
0.0118393
0.0119062
0.0119703
0.0120317
0.0120904
0.0121467
0.0122005
0.0122521
0.0123016
0.012349
0.0123945
0.0124382
0.0124801
0.0125203
0.012559
0.0125961
0.0126319
0.0126662
0.0126993
0.0127312
0.0127619
0.0127915
0.01282
0.0128475
0.0128741
0.0128997
0.0129245
0.0129484
0.0129715
0.0129938
0.0130154
0.0130363
0.011239
0.0113243
0.011406
0.0114846
0.0115606
0.0116342
0.0117052
0.0117735
0.0118391
0.0119021
0.0119626
0.0120206
0.0120762
0.0121296
0.0121809
0.0122302
0.0122775
0.012323
0.0123667
0.0124087
0.0124492
0.0124881
0.0125256
0.0125617
0.0125965
0.01263
0.0126624
0.0126936
0.0127237
0.0127528
0.0127809
0.0128081
0.0128343
0.0128597
0.0128842
0.0129079
0.0129309
0.0129532
0.0110956
0.0111812
0.0112636
0.0113429
0.0114195
0.0114938
0.0115658
0.0116353
0.0117023
0.0117668
0.0118289
0.0118885
0.0119459
0.012001
0.0120541
0.0121051
0.0121542
0.0122014
0.0122469
0.0122907
0.0123329
0.0123736
0.0124128
0.0124507
0.0124872
0.0125224
0.0125564
0.0125892
0.0126209
0.0126516
0.0126813
0.01271
0.0127377
0.0127645
0.0127905
0.0128157
0.0128401
0.0128637
0.0109479
0.0110338
0.0111166
0.0111964
0.0112735
0.0113484
0.0114211
0.0114917
0.0115599
0.0116258
0.0116893
0.0117505
0.0118094
0.0118662
0.0119209
0.0119736
0.0120244
0.0120734
0.0121206
0.0121661
0.0122101
0.0122525
0.0122934
0.0123329
0.0123711
0.012408
0.0124436
0.0124781
0.0125114
0.0125437
0.0125749
0.0126051
0.0126344
0.0126627
0.0126902
0.0127168
0.0127426
0.0127677
0.0107958
0.0108819
0.0109649
0.0110451
0.0111227
0.011198
0.0112714
0.0113427
0.011412
0.011479
0.0115438
0.0116064
0.0116668
0.0117251
0.0117814
0.0118357
0.0118881
0.0119387
0.0119876
0.0120348
0.0120804
0.0121245
0.0121671
0.0122083
0.0122481
0.0122867
0.0123239
0.01236
0.0123949
0.0124288
0.0124615
0.0124933
0.0125241
0.0125539
0.0125829
0.0126109
0.0126382
0.0126646
0.0106396
0.0107255
0.0108087
0.0108891
0.0109671
0.0110427
0.0111164
0.0111883
0.0112584
0.0113264
0.0113924
0.0114562
0.0115179
0.0115776
0.0116354
0.0116912
0.0117451
0.0117973
0.0118478
0.0118966
0.0119438
0.0119895
0.0120337
0.0120766
0.012118
0.0121582
0.0121971
0.0122347
0.0122713
0.0123067
0.012341
0.0123743
0.0124065
0.0124379
0.0124683
0.0124978
0.0125265
0.0125544
0.0104791
0.0105648
0.0106478
0.0107284
0.0108065
0.0108824
0.0109564
0.0110287
0.0110993
0.0111681
0.011235
0.0112999
0.0113628
0.0114238
0.0114829
0.01154
0.0115954
0.0116491
0.011701
0.0117514
0.0118001
0.0118474
0.0118932
0.0119376
0.0119806
0.0120223
0.0120628
0.012102
0.0121401
0.0121771
0.0122129
0.0122477
0.0122815
0.0123143
0.0123462
0.0123772
0.0124073
0.0124366
0.0103144
0.0103997
0.0104825
0.0105629
0.0106411
0.0107171
0.0107913
0.0108638
0.0109347
0.0110041
0.0110717
0.0111376
0.0112015
0.0112636
0.0113238
0.0113823
0.011439
0.011494
0.0115473
0.0115991
0.0116493
0.011698
0.0117452
0.0117911
0.0118357
0.0118789
0.0119209
0.0119617
0.0120013
0.0120397
0.0120771
0.0121134
0.0121487
0.012183
0.0122164
0.0122488
0.0122804
0.0123111
0.0101456
0.0102303
0.0103127
0.0103928
0.0104709
0.0105469
0.0106211
0.0106937
0.0107648
0.0108345
0.0109027
0.0109692
0.011034
0.0110971
0.0111583
0.0112179
0.0112758
0.011332
0.0113866
0.0114396
0.0114912
0.0115413
0.0115899
0.0116372
0.0116832
0.0117278
0.0117713
0.0118135
0.0118545
0.0118945
0.0119333
0.0119711
0.0120078
0.0120436
0.0120784
0.0121122
0.0121452
0.0121773
0.0100567
0.0101385
0.0102182
0.010296
0.0103719
0.010446
0.0105185
0.0105896
0.0106594
0.0107279
0.010795
0.0108604
0.0109243
0.0109864
0.0110469
0.0111058
0.0111631
0.0112189
0.0112731
0.0113259
0.0113772
0.0114271
0.0114757
0.011523
0.011569
0.0116138
0.0116574
0.0116998
0.0117411
0.0117814
0.0118205
0.0118587
0.0118958
0.011932
0.0119673
0.0120017
0.0120352
0.00987914
0.00996016
0.0100393
0.0101166
0.0101921
0.010266
0.0103383
0.0104093
0.0104791
0.0105477
0.010615
0.0106809
0.0107453
0.0108082
0.0108695
0.0109293
0.0109875
0.0110442
0.0110995
0.0111533
0.0112058
0.0112569
0.0113066
0.0113551
0.0114024
0.0114484
0.0114933
0.011537
0.0115796
0.0116212
0.0116616
0.0117011
0.0117396
0.0117771
0.0118138
0.0118495
0.0118843
0.00969765
0.00977775
0.00985611
0.00993277
0.0100078
0.0100813
0.0101533
0.010224
0.0102936
0.0103621
0.0104295
0.0104956
0.0105604
0.0106238
0.0106857
0.0107462
0.0108052
0.0108627
0.0109189
0.0109736
0.0110271
0.0110792
0.01113
0.0111796
0.011228
0.0112751
0.0113212
0.0113661
0.0114099
0.0114526
0.0114943
0.011535
0.0115748
0.0116136
0.0116514
0.0116884
0.0117245
0.00951245
0.00959147
0.0096689
0.00974478
0.00981915
0.00989209
0.00996366
0.010034
0.0101032
0.0101713
0.0102386
0.0103047
0.0103697
0.0104334
0.0104958
0.0105567
0.0106163
0.0106745
0.0107314
0.010787
0.0108412
0.0108942
0.010946
0.0109965
0.0110458
0.011094
0.0111411
0.011187
0.0112319
0.0112757
0.0113186
0.0113604
0.0114013
0.0114412
0.0114803
0.0115184
0.0115557
0.00932376
0.00940155
0.0094779
0.00955282
0.00962638
0.0096986
0.00976955
0.00983932
0.00990801
0.00997574
0.0100426
0.0101086
0.0101735
0.0102373
0.0102999
0.0103612
0.0104212
0.0104799
0.0105373
0.0105935
0.0106484
0.0107021
0.0107546
0.0108059
0.0108561
0.0109051
0.0109531
0.0109999
0.0110458
0.0110906
0.0111344
0.0111772
0.0112191
0.0112601
0.0113002
0.0113394
0.0113777
0.00920824
0.00928335
0.00935717
0.00942974
0.00950109
0.00957127
0.00964034
0.00970839
0.00977552
0.00984184
0.00990738
0.00997206
0.0100357
0.0100983
0.0101598
0.01022
0.010279
0.0103368
0.0103934
0.0104488
0.010503
0.0105561
0.010608
0.0106589
0.0107086
0.0107573
0.0108049
0.0108516
0.0108972
0.0109418
0.0109856
0.0110284
0.0110702
0.0111112
0.0111514
0.0111906
0.00901182
0.00908555
0.00915812
0.00922955
0.00929987
0.00936912
0.00943734
0.00950461
0.009571
0.00963662
0.00970154
0.00976573
0.00982909
0.0098915
0.00995285
0.0100131
0.0100722
0.0101302
0.010187
0.0102427
0.0102973
0.0103508
0.0104032
0.0104545
0.0105048
0.010554
0.0106023
0.0106495
0.0106958
0.0107412
0.0107856
0.0108291
0.0108718
0.0109136
0.0109545
0.0109946
0.00881263
0.00888484
0.00895601
0.00902616
0.0090953
0.00916346
0.00923068
0.00929701
0.00936253
0.00942731
0.00949143
0.00955492
0.00961773
0.00967972
0.00974079
0.00980086
0.00985988
0.00991784
0.00997473
0.0100305
0.0100853
0.010139
0.0101917
0.0102433
0.0102939
0.0103436
0.0103922
0.0104399
0.0104867
0.0105326
0.0105776
0.0106217
0.0106649
0.0107073
0.0107488
0.0107896
0.00861103
0.00868159
0.00875122
0.00881994
0.00888775
0.00895468
0.00902074
0.00908599
0.00915048
0.00921428
0.00927745
0.00934007
0.0094021
0.00946346
0.00952403
0.00958372
0.00964245
0.00970019
0.00975693
0.00981267
0.00986739
0.00992111
0.00997384
0.0100256
0.0100764
0.0101262
0.0101751
0.0102231
0.0102702
0.0103164
0.0103617
0.0104062
0.0104499
0.0104927
0.0105347
0.010576
0.00847622
0.00854419
0.00861133
0.00867767
0.00874322
0.00880798
0.008872
0.00893532
0.00899799
0.00906007
0.00912164
0.0091827
0.00924322
0.00930307
0.00936216
0.00942039
0.00947773
0.00953413
0.00958958
0.00964408
0.00969764
0.00975025
0.00980192
0.00985267
0.00990251
0.00995144
0.00999949
0.0100467
0.010093
0.0101385
0.0101832
0.0102271
0.0102702
0.0103125
0.0103541
0.00826921
0.00833537
0.00840082
0.00846555
0.00852957
0.00859289
0.00865553
0.00871753
0.00877892
0.00883977
0.00890014
0.00896006
0.00901952
0.00907844
0.00913672
0.00919425
0.00925097
0.00930683
0.00936181
0.0094159
0.00946909
0.00952139
0.00957279
0.00962332
0.00967296
0.00972175
0.00976968
0.00981679
0.00986309
0.00990857
0.00995325
0.00999715
0.0100403
0.0100827
0.0101243
0.00806106
0.00812531
0.00818893
0.00825192
0.00831427
0.008376
0.00843712
0.00849766
0.00855764
0.00861712
0.00867614
0.00873475
0.00879296
0.00885075
0.008908
0.00896461
0.00902051
0.00907563
0.00912994
0.00918341
0.00923604
0.00928783
0.00933876
0.00938886
0.00943812
0.00948655
0.00953418
0.00958102
0.00962708
0.00967234
0.00971683
0.00976057
0.00980358
0.00984585
0.00988741
0.00785234
0.00791457
0.00797624
0.00803737
0.00809793
0.00815794
0.0082174
0.00827633
0.00833476
0.00839272
0.00845025
0.0085074
0.0085642
0.00862064
0.00867665
0.00873214
0.00878701
0.00884119
0.00889462
0.00894729
0.00899916
0.00905023
0.0091005
0.00914997
0.00919864
0.00924652
0.00929364
0.00933999
0.0093856
0.00943044
0.00947453
0.00951791
0.00956057
0.00960253
0.00964379
0.00770376
0.00776339
0.00782253
0.00788118
0.00793934
0.00799701
0.0080542
0.00811094
0.00816724
0.00822315
0.0082787
0.00833392
0.00838884
0.00844342
0.00849757
0.0085512
0.00860423
0.00865659
0.00870823
0.00875915
0.00880931
0.00885871
0.00890735
0.00895523
0.00900236
0.00904875
0.00909442
0.00913936
0.00918356
0.00922707
0.00926988
0.00931199
0.00935342
0.00939418
0.00749353
0.00755101
0.00760808
0.00766471
0.00772091
0.00777667
0.007832
0.00788691
0.00794143
0.00799558
0.00804939
0.0081029
0.00815613
0.00820907
0.00826168
0.00831387
0.00836554
0.00841662
0.00846706
0.00851681
0.00856586
0.0086142
0.00866182
0.00870871
0.00875488
0.00880035
0.00884513
0.00888919
0.00893256
0.00897525
0.00901727
0.00905862
0.00909931
0.00913935
0.00733981
0.00739471
0.00744923
0.00750336
0.0075571
0.00761046
0.00766343
0.00771604
0.0077683
0.00782025
0.00787191
0.00792331
0.00797447
0.00802534
0.00807588
0.008126
0.0081756
0.00822462
0.00827302
0.00832077
0.00836784
0.00841422
0.00845991
0.00850493
0.00854927
0.00859294
0.00863594
0.00867827
0.00871995
0.00876097
0.00880134
0.00884107
0.00888018
0.00713045
0.00718312
0.00723545
0.00728744
0.00733907
0.00739035
0.00744128
0.00749187
0.00754214
0.00759211
0.00764181
0.00769125
0.00774046
0.00778945
0.00783816
0.00788652
0.00793446
0.00798189
0.00802875
0.00807501
0.00812063
0.00816561
0.00820992
0.00825359
0.0082966
0.00833897
0.0083807
0.00842177
0.00846221
0.00850201
0.00854119
0.00857973
0.00861767
0.0069236
0.006974
0.00702409
0.00707386
0.00712331
0.00717244
0.00722124
0.00726973
0.00731791
0.00736579
0.00741341
0.00746079
0.00750794
0.00755488
0.0076016
0.00764803
0.00769412
0.00773978
0.00778493
0.00782953
0.00787354
0.00791693
0.0079597
0.00800184
0.00804336
0.00808425
0.00812452
0.00816416
0.00820318
0.00824158
0.00827936
0.00831654
0.00835312
0.006768
0.00681582
0.00686334
0.00691056
0.00695747
0.00700408
0.00705039
0.0070964
0.00714212
0.00718758
0.00723279
0.00727778
0.00732255
0.00736713
0.00741147
0.00745553
0.00749924
0.00754251
0.00758529
0.00762752
0.00766918
0.00771023
0.00775069
0.00779055
0.00782981
0.00786845
0.00790648
0.0079439
0.00798073
0.00801694
0.00805256
0.0080876
0.00656573
0.00661127
0.00665653
0.00670149
0.00674617
0.00679054
0.00683462
0.0068784
0.0069219
0.00696513
0.0070081
0.00705084
0.00709336
0.00713568
0.00717778
0.00721966
0.00726124
0.00730247
0.00734326
0.00738357
0.00742334
0.00746254
0.00750117
0.00753923
0.00757669
0.00761356
0.00764983
0.00768551
0.00772059
0.00775507
0.00778897
0.00782229
0.00641099
0.006454
0.00649672
0.00653915
0.00658128
0.00662311
0.00666464
0.00670588
0.00674684
0.00678753
0.00682797
0.00686817
0.00690814
0.00694791
0.00698746
0.00702677
0.00706578
0.00710443
0.00714264
0.00718038
0.00721761
0.0072543
0.00729043
0.00732599
0.00736096
0.00739534
0.00742913
0.00746233
0.00749494
0.00752698
0.00755843
0.0062154
0.00625621
0.00629673
0.00633695
0.00637686
0.00641645
0.00645575
0.00649473
0.00653342
0.00657181
0.00660992
0.00664777
0.00668537
0.00672274
0.00675988
0.00679678
0.00683343
0.00686978
0.00690576
0.00694132
0.00697642
0.00701103
0.00704511
0.00707864
0.0071116
0.00714398
0.00717577
0.00720698
0.0072376
0.00726765
0.00729713
0.0060635
0.00610189
0.00613996
0.0061777
0.00621512
0.00625222
0.00628898
0.00632542
0.00636154
0.00639735
0.00643287
0.00646809
0.00650305
0.00653774
0.00657218
0.00660637
0.00664028
0.00667387
0.00670711
0.00673996
0.00677237
0.00680429
0.00683569
0.00686654
0.00689682
0.00692653
0.00695565
0.0069842
0.00701217
0.00703956
0.005876
0.00591237
0.0059484
0.00598408
0.00601941
0.00605438
0.006089
0.00612327
0.00615718
0.00619074
0.00622397
0.00625687
0.00628945
0.00632173
0.00635371
0.0063854
0.0064168
0.0064479
0.00647868
0.00650915
0.00653924
0.0065689
0.00659808
0.00662675
0.00665485
0.0066824
0.00670937
0.00673576
0.00676159
0.00678683
0.00572819
0.00576231
0.00579606
0.00582942
0.00586239
0.00589497
0.00592716
0.00595897
0.00599039
0.00602142
0.00605208
0.00608238
0.00611231
0.0061419
0.00617114
0.00620005
0.00622864
0.00625688
0.00628485
0.00631251
0.00633981
0.00636668
0.00639308
0.00641896
0.00644428
0.00646905
0.00649325
0.00651688
0.00653993
0.00554912
0.0055815
0.00561347
0.00564502
0.00567614
0.00570684
0.00573711
0.00576694
0.00579635
0.00582532
0.00585388
0.00588201
0.00590973
0.00593704
0.00596396
0.00599048
0.00601661
0.00604236
0.00606781
0.00609297
0.00611781
0.00614228
0.00616634
0.00618991
0.00621298
0.0062355
0.00625748
0.00627889
0.00629972
0.00540558
0.00543595
0.00546587
0.00549532
0.0055243
0.00555281
0.00558085
0.00560841
0.0056355
0.00566212
0.00568827
0.00571394
0.00573915
0.0057639
0.00578819
0.00581203
0.00583542
0.00585847
0.00588117
0.00590353
0.00592555
0.0059472
0.00596841
0.00598915
0.0060094
0.00602912
0.0060483
0.0060669
0.00526292
0.00529138
0.00531933
0.00534679
0.00537373
0.00540016
0.00542607
0.00545147
0.00547634
0.0055007
0.00552453
0.00554785
0.00557065
0.00559293
0.00561469
0.00563595
0.00565677
0.00567719
0.00569722
0.00571687
0.00573614
0.00575496
0.00577335
0.00579128
0.00580873
0.00582567
0.00584205
0.00509368
0.00512084
0.00514747
0.00517355
0.00519909
0.00522408
0.00524851
0.00527239
0.00529571
0.00531847
0.00534067
0.0053623
0.00538338
0.00540389
0.00542384
0.00544322
0.00546208
0.00548047
0.00549842
0.00551592
0.00553299
0.00554957
0.00556569
0.00558133
0.00559664
0.00561156
0.00562602
0.00495357
0.00497899
0.00500383
0.00502809
0.00505176
0.00507484
0.00509732
0.00511921
0.00514049
0.00516118
0.00518126
0.00520073
0.00521963
0.00523793
0.00525568
0.00527288
0.00528955
0.00530565
0.00532135
0.00533666
0.00535155
0.00536597
0.00537992
0.0053934
0.00540642
0.00541893
0.00478897
0.00481332
0.00483704
0.00486014
0.00488261
0.00490444
0.00492563
0.00494618
0.00496609
0.00498535
0.00500398
0.00502201
0.0050394
0.0050562
0.00507241
0.00508824
0.00510359
0.00511843
0.00513277
0.00514659
0.00515988
0.00517264
0.00518489
0.00519663
0.00520785
0.00521854
0.00464983
0.00467258
0.00469466
0.00471606
0.00473679
0.00475683
0.00477618
0.00479486
0.00481289
0.00483026
0.00484696
0.00486321
0.00487898
0.00489421
0.00490887
0.00492296
0.00493646
0.00494938
0.00496173
0.00497352
0.00498473
0.00499539
0.00500549
0.00501507
0.00502413
0.00450962
0.00453081
0.00455129
0.00457104
0.00459008
0.00460843
0.00462606
0.004643
0.00465951
0.00467546
0.00469081
0.00470555
0.00471965
0.00473311
0.00474595
0.00475818
0.00476977
0.00478074
0.00479112
0.00480093
0.00481013
0.00481874
0.0048268
0.00483434
0.00434714
0.00436757
0.00438725
0.00440618
0.00442436
0.00444182
0.0044588
0.0044752
0.00449098
0.00450608
0.00452049
0.00453423
0.00454726
0.00455961
0.00457129
0.00458231
0.00459266
0.00460235
0.00461142
0.00461987
0.0046277
0.00463494
0.00464163
0.00464777
0.00420388
0.00422283
0.00424098
0.00425861
0.00427567
0.00429206
0.00430775
0.00432273
0.00433697
0.00435047
0.00436325
0.00437529
0.0043866
0.00439721
0.00440709
0.00441627
0.00442479
0.00443268
0.00443992
0.00444654
0.00445256
0.00445792
0.00446266
0.00405737
0.00407516
0.00409229
0.00410869
0.00412433
0.00413922
0.00415331
0.00416662
0.00417916
0.00419091
0.00420189
0.00421212
0.00422157
0.00423029
0.00423831
0.00424562
0.00425225
0.0042582
0.00426349
0.00426809
0.00427226
0.0042762
0.00390823
0.00392466
0.00394029
0.00395512
0.00396911
0.00398227
0.00399463
0.00400614
0.00401685
0.00402676
0.00403586
0.00404421
0.00405183
0.0040587
0.00406483
0.00407024
0.00407491
0.00407918
0.00408324
0.00408692
0.00409007
0.00374001
0.00375567
0.00377049
0.00378443
0.00379753
0.00380974
0.00382109
0.0038316
0.00384125
0.00385009
0.00385817
0.00386543
0.00387193
0.00387766
0.0038826
0.00388711
0.00389142
0.00389526
0.00389851
0.00390109
0.00390296
0.00358532
0.00359925
0.0036123
0.00362444
0.0036357
0.00364605
0.00365553
0.0036642
0.00367203
0.00367905
0.00368528
0.00369066
0.00369553
0.00370017
0.00370432
0.00370783
0.00371062
0.00371259
0.00371369
0.00371392
0.00342682
0.00343894
0.00345017
0.00346047
0.00346991
0.00347845
0.00348618
0.00349309
0.00349913
0.00350449
0.00350948
0.00351403
0.00351793
0.00352102
0.00352324
0.00352453
0.00352483
0.00352365
0.00352101
0.00326473
0.00327504
0.00328442
0.00329296
0.00330068
0.00330751
0.00331347
0.00331892
0.003324
0.00332843
0.00333201
0.00333466
0.00333626
0.0033368
0.0033359
0.00333334
0.0033294
0.00332419
0.00309943
0.00310803
0.00311575
0.00312258
0.0031286
0.00313426
0.00313928
0.00314346
0.00314665
0.00314874
0.00314969
0.00314929
0.00314704
0.00314329
0.00313812
0.00313161
0.00312377
0.00292413
0.00293191
0.00293872
0.00294488
0.00295057
0.00295545
0.0029593
0.00296202
0.00296352
0.00296377
0.00296215
0.00295881
0.00295395
0.00294762
0.00293985
0.00293065
0.00291998
0.00275618
0.00276241
0.00276801
0.00277264
0.00277613
0.00277837
0.00277931
0.00277865
0.00277602
0.0027717
0.00276583
0.00275844
0.00274949
0.00273901
0.00272694
0.00271328
0.00258692
0.00259128
0.00259439
0.00259617
0.00259656
0.00259499
0.00259155
0.00258644
0.00257969
0.00257134
0.00256133
0.00254967
0.00253632
0.00252127
0.00250451
0.00241474
0.00241611
0.00241596
0.00241366
0.00240955
0.00240377
0.00239629
0.00238713
0.00237622
0.00236358
0.00234914
0.00233291
0.00231483
0.00229488
0.00223798
0.00223523
0.00223064
0.00222436
0.00221632
0.00220654
0.00219495
0.00218155
0.00216626
0.0021491
0.00212999
0.00210894
0.00208584
0.00205532
0.00204871
0.00204035
0.00203017
0.00201812
0.00200421
0.00198836
0.00197056
0.00195073
0.00192889
0.00190494
0.00187884
0.001869
0.00185867
0.00184643
0.00183229
0.00181618
0.00179809
0.00177791
0.00175565
0.00173124
0.00170459
0.00167563
0.00168051
0.00166649
0.00165049
0.00163251
0.00161246
0.00159027
0.00156595
0.00153942
0.00151066
0.00147952
0.00147393
0.00145437
0.00143269
0.00140889
0.00138291
0.00135465
0.00132411
0.00129113
0.00128285
0.00126001
0.00123504
0.00120786
0.00117845
0.00114669
0.00111255
0.00109553
0.00106991
0.0010421
0.00101211
0.000979847
0.000945307
0.000886592
0.000856705
0.00082464
0.000790504
0.000649735
0.0135345
0.0135347
0.013535
0.0135353
0.0135356
0.0135358
0.0135361
0.0135363
0.0135366
0.0135368
0.0135371
0.0135373
0.0135376
0.0135378
0.013538
0.0134885
0.0134888
0.0134891
0.0134894
0.0134897
0.01349
0.0134902
0.0134905
0.0134908
0.0134911
0.0134913
0.0134916
0.0134918
0.0134921
0.0134923
0.0134364
0.0134368
0.0134371
0.0134374
0.0134377
0.013438
0.0134383
0.0134386
0.0134389
0.0134392
0.0134395
0.0134398
0.0134401
0.0134404
0.0134406
0.0133829
0.0133833
0.0133836
0.0133839
0.0133843
0.0133846
0.0133849
0.0133853
0.0133856
0.0133859
0.0133862
0.0133865
0.0133868
0.0133871
0.0133874
0.0133259
0.0133262
0.0133266
0.013327
0.0133273
0.0133277
0.0133281
0.0133284
0.0133288
0.0133291
0.0133294
0.0133298
0.0133301
0.0133304
0.0133308
0.0132646
0.013265
0.0132654
0.0132658
0.0132662
0.0132666
0.013267
0.0132674
0.0132677
0.0132681
0.0132685
0.0132688
0.0132692
0.0132695
0.0132699
0.0131988
0.0131992
0.0131997
0.0132001
0.0132005
0.0132009
0.0132013
0.0132017
0.0132021
0.0132025
0.0132029
0.0132033
0.0132037
0.0132041
0.0132045
0.0131279
0.0131284
0.0131288
0.0131293
0.0131297
0.0131302
0.0131306
0.0131311
0.0131315
0.0131319
0.0131323
0.0131328
0.0131332
0.0131336
0.013134
0.0130515
0.013052
0.0130525
0.013053
0.0130535
0.0130539
0.0130544
0.0130549
0.0130554
0.0130558
0.0130563
0.0130567
0.0130572
0.0130576
0.0130581
0.0129692
0.0129697
0.0129702
0.0129708
0.0129713
0.0129718
0.0129723
0.0129728
0.0129734
0.0129739
0.0129743
0.0129748
0.0129753
0.0129758
0.0129763
0.0128806
0.0128812
0.0128817
0.0128823
0.0128829
0.0128834
0.012884
0.0128845
0.0128851
0.0128856
0.0128862
0.0128867
0.0128872
0.0128877
0.0128883
0.0127854
0.012786
0.0127866
0.0127872
0.0127878
0.0127884
0.012789
0.0127896
0.0127902
0.0127908
0.0127914
0.0127919
0.0127925
0.0127931
0.0127936
0.0126832
0.0126838
0.0126845
0.0126852
0.0126858
0.0126864
0.0126871
0.0126877
0.0126883
0.012689
0.0126896
0.0126902
0.0126908
0.0126914
0.012692
0.0125738
0.0125745
0.0125752
0.0125759
0.0125766
0.0125773
0.0125779
0.0125786
0.0125793
0.01258
0.0125806
0.0125813
0.0125819
0.0125826
0.0125832
0.0124569
0.0124576
0.0124584
0.0124591
0.0124599
0.0124606
0.0124613
0.012462
0.0124628
0.0124635
0.0124642
0.0124649
0.0124656
0.0124663
0.012467
0.0123321
0.0123329
0.0123337
0.0123345
0.0123353
0.0123361
0.0123369
0.0123376
0.0123384
0.0123392
0.0123399
0.0123407
0.0123414
0.0123422
0.0123429
0.0121992
0.0122
0.0122009
0.0122017
0.0122026
0.0122034
0.0122042
0.0122051
0.0122059
0.0122067
0.0122075
0.0122083
0.0122091
0.0122099
0.0122107
0.0120578
0.0120587
0.0120596
0.0120605
0.0120614
0.0120623
0.0120632
0.012064
0.0120649
0.0120658
0.0120667
0.0120675
0.0120684
0.0120692
0.0120701
0.0119076
0.0119086
0.0119096
0.0119105
0.0119115
0.0119124
0.0119134
0.0119143
0.0119152
0.0119162
0.0119171
0.011918
0.0119189
0.0119198
0.0119207
0.0117485
0.0117495
0.0117506
0.0117516
0.0117526
0.0117536
0.0117546
0.0117556
0.0117566
0.0117576
0.0117586
0.0117595
0.0117605
0.0117615
0.0117624
0.0115803
0.0115814
0.0115825
0.0115836
0.0115846
0.0115857
0.0115868
0.0115878
0.0115889
0.0115899
0.011591
0.011592
0.011593
0.0115941
0.0115951
0.0114029
0.0114041
0.0114052
0.0114064
0.0114075
0.0114086
0.0114097
0.0114109
0.011412
0.0114131
0.0114142
0.0114153
0.0114164
0.0114175
0.0114186
0.0112163
0.0112175
0.0112187
0.0112199
0.0112211
0.0112223
0.0112235
0.0112247
0.0112259
0.0112271
0.0112282
0.0112294
0.0112306
0.0112317
0.0112329
0.0110206
0.0110219
0.0110232
0.0110244
0.0110257
0.011027
0.0110282
0.0110295
0.0110307
0.011032
0.0110332
0.0110344
0.0110356
0.0110369
0.0110381
0.0108159
0.0108173
0.0108186
0.01082
0.0108213
0.0108226
0.0108239
0.0108253
0.0108266
0.0108279
0.0108292
0.0108305
0.0108317
0.010833
0.0108343
0.0106025
0.0106039
0.0106053
0.0106067
0.0106081
0.0106095
0.0106109
0.0106123
0.0106137
0.010615
0.0106164
0.0106178
0.0106191
0.0106205
0.0106218
0.0103807
0.0103821
0.0103836
0.0103851
0.0103866
0.010388
0.0103895
0.0103909
0.0103924
0.0103938
0.0103952
0.0103967
0.0103981
0.0103995
0.0104009
0.0101509
0.0101524
0.010154
0.0101555
0.0101571
0.0101586
0.0101601
0.0101616
0.0101631
0.0101646
0.0101661
0.0101676
0.0101691
0.0101706
0.0101721
0.0099138
0.00991542
0.00991703
0.00991863
0.00992023
0.00992182
0.00992341
0.00992499
0.00992656
0.00992813
0.00992969
0.00993125
0.0099328
0.00993434
0.00993588
0.0096699
0.00967158
0.00967326
0.00967493
0.00967659
0.00967825
0.0096799
0.00968154
0.00968318
0.00968481
0.00968643
0.00968805
0.00968967
0.00969128
0.00969288
0.00941989
0.00942163
0.00942337
0.00942511
0.00942683
0.00942855
0.00943026
0.00943197
0.00943367
0.00943536
0.00943705
0.00943873
0.0094404
0.00944207
0.00944374
0.00916454
0.00916634
0.00916814
0.00916994
0.00917172
0.0091735
0.00917528
0.00917704
0.0091788
0.00918055
0.0091823
0.00918404
0.00918578
0.00918751
0.00918923
0.00890471
0.00890658
0.00890843
0.00891028
0.00891213
0.00891396
0.00891579
0.00891762
0.00891943
0.00892124
0.00892305
0.00892484
0.00892664
0.00892842
0.0089302
0.00864142
0.00864333
0.00864524
0.00864715
0.00864904
0.00865093
0.00865281
0.00865469
0.00865655
0.00865842
0.00866027
0.00866212
0.00866396
0.0086658
0.00866763
0.00837596
0.00837793
0.00837989
0.00838184
0.00838378
0.00838572
0.00838765
0.00838957
0.00839149
0.0083934
0.0083953
0.0083972
0.00839909
0.00840097
0.00840285
0.00810944
0.00811145
0.00811345
0.00811545
0.00811743
0.00811941
0.00812139
0.00812335
0.00812531
0.00812726
0.00812921
0.00813115
0.00813308
0.00813501
0.00813693
0.00784303
0.00784508
0.00784712
0.00784915
0.00785117
0.00785319
0.0078552
0.0078572
0.0078592
0.00786119
0.00786317
0.00786515
0.00786712
0.00786908
0.00787104
0.00757799
0.00758007
0.00758214
0.0075842
0.00758626
0.00758831
0.00759035
0.00759238
0.00759441
0.00759643
0.00759844
0.00760045
0.00760245
0.00760445
0.00760644
0.00731543
0.00731753
0.00731963
0.00732172
0.0073238
0.00732587
0.00732794
0.00733
0.00733206
0.0073341
0.00733614
0.00733818
0.00734021
0.00734223
0.00734425
0.00705656
0.00705868
0.00706079
0.0070629
0.007065
0.0070671
0.00706918
0.00707126
0.00707333
0.0070754
0.00707746
0.00707952
0.00708156
0.00708361
0.00708565
0.00680248
0.00680461
0.00680674
0.00680886
0.00681097
0.00681308
0.00681518
0.00681727
0.00681936
0.00682144
0.00682351
0.00682558
0.00682764
0.0068297
0.00683175
0.00655421
0.00655635
0.00655849
0.00656061
0.00656273
0.00656485
0.00656695
0.00656905
0.00657115
0.00657323
0.00657531
0.00657739
0.00657946
0.00658153
0.00658359
0.00631263
0.00631477
0.00631691
0.00631903
0.00632116
0.00632327
0.00632538
0.00632748
0.00632957
0.00633166
0.00633375
0.00633583
0.0063379
0.00633997
0.00634203
0.00607844
0.00608058
0.00608271
0.00608483
0.00608695
0.00608906
0.00609116
0.00609326
0.00609535
0.00609744
0.00609952
0.0061016
0.00610367
0.00610574
0.0061078
0.00585221
0.00585434
0.00585645
0.00585856
0.00586067
0.00586277
0.00586486
0.00586695
0.00586903
0.00587111
0.00587318
0.00587525
0.00587731
0.00587937
0.00588143
0.00563479
0.00563686
0.00563893
0.00564099
0.00564305
0.0056451
0.00564716
0.0056492
0.00565125
0.00565329
0.00565533
0.00565736
0.0056594
0.00566143
0.00566345
0.0054265
0.00542845
0.0054304
0.00543235
0.0054343
0.00543625
0.00543821
0.00544016
0.00544212
0.00544408
0.00544604
0.005448
0.00544996
0.00545193
0.00545389
0.00522499
0.00522681
0.00522864
0.00523049
0.00523234
0.00523419
0.00523606
0.00523793
0.00523981
0.00524169
0.00524358
0.00524548
0.00524738
0.00524928
0.00525119
0.00502953
0.00503124
0.00503296
0.0050347
0.00503645
0.00503822
0.00504
0.00504179
0.0050436
0.00504542
0.00504725
0.00504909
0.00505094
0.0050528
0.00505467
0.00483879
0.00484039
0.00484201
0.00484366
0.00484533
0.00484702
0.00484874
0.00485048
0.00485223
0.00485401
0.0048558
0.00485761
0.00485943
0.00486127
0.00486312
0.00465134
0.00465283
0.00465436
0.00465593
0.00465754
0.00465918
0.00466084
0.00466254
0.00466427
0.00466602
0.00466779
0.00466959
0.00467141
0.00467325
0.00467511
0.00446543
0.00446678
0.00446824
0.00446976
0.00447132
0.00447293
0.00447457
0.00447626
0.00447798
0.00447974
0.00448153