/*--------------------------------*- C++ -*----------------------------------*\
  =========                 |
  \\      /  F ield         | OpenFOAM: The Open Source CFD Toolbox
   \\    /   O peration     | Website:  https://openfoam.org
    \\  /    A nd           | Version:  9
     \\/     M anipulation  |
\*---------------------------------------------------------------------------*/
FoamFile
{
    format      ascii;
    class       volScalarField;
    location    "0.0075";
    object      nut;
}
// * * * * * * * * * * * * * * * * * * * * * * * * * * * * * * * * * * * * * //

dimensions      [0 2 -1 0 0 0 0];

internalField   nonuniform List<scalar> 
6098
(
0.0123786
0.0124721
0.0125583
0.0126378
0.0127111
0.0127786
0.0128408
0.0128982
0.0129514
0.0130007
0.0130465
0.0130892
0.0131289
0.013166
0.0132007
0.0132331
0.0132636
0.0132921
0.0133189
0.0133441
0.0133679
0.0133903
0.0134114
0.0134314
0.0134504
0.0134685
0.0134858
0.0135024
0.0135183
0.0122385
0.0123346
0.0124235
0.0125058
0.0125822
0.0126529
0.0127185
0.0127795
0.0128361
0.0128889
0.0129381
0.012984
0.013027
0.0130673
0.0131051
0.0131406
0.0131739
0.0132054
0.013235
0.013263
0.0132895
0.0133145
0.0133382
0.0133606
0.013382
0.0134022
0.0134214
0.0134397
0.0134571
0.0120855
0.0121827
0.0122742
0.0123598
0.0124397
0.0125142
0.0125834
0.012648
0.0127083
0.0127646
0.0128173
0.0128666
0.0129128
0.0129563
0.0129972
0.0130356
0.0130719
0.0131061
0.0131384
0.013169
0.013198
0.0132254
0.0132515
0.0132763
0.0132998
0.0133222
0.0133436
0.0133639
0.0133833
0.0119314
0.0120311
0.0121253
0.0122139
0.0122971
0.0123749
0.0124477
0.0125157
0.0125795
0.0126392
0.0126953
0.0127479
0.0127974
0.012844
0.012888
0.0129294
0.0129685
0.0130055
0.0130405
0.0130737
0.0131052
0.013135
0.0131634
0.0131904
0.0132161
0.0132405
0.0132638
0.0132861
0.0133073
0.0117714
0.011873
0.011969
0.0120601
0.0121461
0.0122271
0.0123031
0.0123745
0.0124416
0.0125047
0.0125641
0.01262
0.0126728
0.0127225
0.0127695
0.012814
0.0128561
0.0128959
0.0129337
0.0129696
0.0130037
0.0130361
0.0130669
0.0130962
0.0131242
0.0131509
0.0131763
0.0132006
0.0132239
0.0116046
0.0117078
0.0118054
0.0118984
0.0119868
0.0120705
0.0121496
0.0122241
0.0122944
0.0123607
0.0124233
0.0124825
0.0125384
0.0125913
0.0126414
0.0126888
0.0127338
0.0127766
0.0128172
0.0128558
0.0128925
0.0129275
0.0129609
0.0129927
0.013023
0.013052
0.0130797
0.0131062
0.0131316
0.0114307
0.0115351
0.0116341
0.0117285
0.0118188
0.011905
0.0119867
0.0120641
0.0121374
0.0122068
0.0122724
0.0123347
0.0123937
0.0124497
0.0125028
0.0125533
0.0126013
0.0126469
0.0126904
0.0127318
0.0127712
0.0128089
0.0128448
0.0128792
0.012912
0.0129434
0.0129734
0.0130022
0.0130297
0.0112497
0.0113549
0.0114549
0.0115505
0.0116422
0.0117303
0.0118143
0.0118943
0.0119704
0.0120426
0.0121112
0.0121764
0.0122384
0.0122974
0.0123535
0.012407
0.0124579
0.0125064
0.0125527
0.0125969
0.0126391
0.0126795
0.012718
0.0127549
0.0127903
0.0128241
0.0128565
0.0128876
0.0129175
0.0110617
0.0111671
0.0112678
0.0113642
0.011457
0.0115465
0.0116325
0.0117147
0.0117931
0.011868
0.0119393
0.0120073
0.0120721
0.012134
0.012193
0.0122493
0.0123031
0.0123546
0.0124037
0.0124507
0.0124956
0.0125387
0.0125799
0.0126194
0.0126573
0.0126936
0.0127285
0.012762
0.0127942
0.0108666
0.0109719
0.0110729
0.0111698
0.0112632
0.0113537
0.0114411
0.0115251
0.0116057
0.0116828
0.0117566
0.0118271
0.0118946
0.0119591
0.0120209
0.01208
0.0121365
0.0121907
0.0122426
0.0122924
0.0123401
0.0123858
0.0124297
0.0124718
0.0125123
0.0125511
0.0125885
0.0126244
0.012659
0.0106646
0.0107694
0.0108702
0.0109673
0.011061
0.0111519
0.0112402
0.0113257
0.0114079
0.011487
0.0115629
0.0116357
0.0117056
0.0117726
0.0118369
0.0118986
0.0119577
0.0120146
0.0120691
0.0121216
0.0121719
0.0122203
0.0122668
0.0123115
0.0123545
0.0123959
0.0124358
0.0124742
0.0125112
0.0105597
0.0106599
0.0107568
0.0108505
0.0109415
0.0110302
0.0111165
0.0112001
0.0112807
0.0113584
0.0114332
0.0115051
0.0115743
0.0116409
0.0117049
0.0117665
0.0118258
0.0118829
0.0119378
0.0119907
0.0120416
0.0120907
0.0121379
0.0121834
0.0122273
0.0122697
0.0123105
0.0123499
0.0103433
0.0104425
0.0105386
0.010632
0.0107228
0.0108114
0.010898
0.0109824
0.0110641
0.0111432
0.0112195
0.0112932
0.0113643
0.0114328
0.011499
0.0115627
0.0116242
0.0116836
0.0117408
0.0117961
0.0118494
0.0119008
0.0119505
0.0119984
0.0120448
0.0120895
0.0121327
0.0121745
0.0101205
0.0102182
0.0103133
0.0104058
0.010496
0.0105842
0.0106706
0.0107552
0.0108376
0.0109176
0.0109951
0.0110701
0.0111427
0.0112129
0.0112808
0.0113464
0.0114099
0.0114712
0.0115306
0.0115879
0.0116434
0.011697
0.0117489
0.0117991
0.0118477
0.0118947
0.0119402
0.0119842
0.00989197
0.00998775
0.0100812
0.0101725
0.0102617
0.0103491
0.0104348
0.0105191
0.0106017
0.0106821
0.0107603
0.0108363
0.01091
0.0109815
0.0110507
0.0111179
0.0111829
0.011246
0.0113071
0.0113663
0.0114236
0.0114792
0.0115331
0.0115853
0.011636
0.011685
0.0117326
0.0117787
0.00965838
0.00975178
0.00984325
0.00993282
0.0100206
0.0101067
0.0101914
0.0102749
0.010357
0.0104374
0.0105159
0.0105923
0.0106667
0.010739
0.0108092
0.0108774
0.0109437
0.0110081
0.0110706
0.0111313
0.0111902
0.0112474
0.011303
0.011357
0.0114094
0.0114603
0.0115098
0.0115578
0.00942069
0.00951124
0.00960021
0.00968763
0.00977353
0.00985802
0.00994125
0.0100234
0.0101045
0.0101843
0.0102625
0.0103389
0.0104135
0.0104861
0.0105569
0.0106258
0.0106929
0.0107582
0.0108217
0.0108835
0.0109436
0.0110021
0.011059
0.0111144
0.0111682
0.0112206
0.0112716
0.0113212
0.00926728
0.00935328
0.00943805
0.00952159
0.00960397
0.0096853
0.00976573
0.00984535
0.009924
0.0100014
0.0100772
0.0101514
0.010224
0.0102948
0.0103639
0.0104313
0.010497
0.0105611
0.0106235
0.0106844
0.0107438
0.0108017
0.010858
0.0109129
0.0109664
0.0110186
0.0110694
0.00902129
0.00910384
0.00918545
0.00926613
0.00934591
0.00942486
0.0095031
0.00958072
0.00965766
0.00973366
0.00980844
0.00988182
0.0099537
0.0100241
0.0100928
0.0101601
0.0102258
0.0102899
0.0103526
0.0104138
0.0104736
0.0105319
0.0105888
0.0106444
0.0106986
0.0107514
0.0108031
0.00877488
0.00885351
0.00893149
0.0090088
0.00908546
0.00916152
0.00923707
0.00931218
0.00938688
0.00946094
0.00953407
0.00960606
0.00967677
0.00974612
0.00981408
0.00988063
0.00994577
0.0100095
0.0100719
0.0101329
0.0101926
0.0102509
0.0103079
0.0103636
0.010418
0.0104712
0.0105232
0.00852983
0.00860413
0.00867803
0.00875149
0.00882453
0.00889717
0.0089695
0.00904158
0.00911346
0.00918501
0.00925593
0.00932597
0.00939495
0.00946276
0.00952934
0.00959467
0.00965873
0.0097215
0.00978303
0.00984332
0.00990236
0.00996015
0.0100167
0.0100721
0.0101262
0.0101792
0.0102311
0.00835769
0.00842713
0.00849631
0.00856526
0.00863398
0.00870256
0.00877105
0.00883954
0.00890796
0.00897607
0.00904358
0.00911026
0.00917599
0.00924066
0.00930422
0.00936665
0.00942792
0.00948807
0.00954708
0.00960492
0.00966161
0.00971718
0.00977162
0.00982497
0.00987723
0.00992843
0.00811615
0.00818087
0.00824546
0.00830994
0.00837432
0.00843866
0.00850303
0.00856753
0.00863218
0.00869684
0.00876121
0.00882504
0.00888811
0.00895032
0.00901157
0.00907182
0.00913108
0.00918932
0.00924652
0.00930265
0.00935772
0.00941175
0.00946475
0.00951671
0.00956767
0.00961762
0.00788129
0.00794118
0.00800102
0.00806081
0.00812056
0.00818031
0.00824014
0.00830013
0.0083604
0.00842092
0.0084815
0.00854185
0.00860171
0.00866091
0.00871933
0.00877689
0.00883358
0.00888936
0.0089442
0.00899809
0.00905102
0.009103
0.00915402
0.00920409
0.00925322
0.0093014
0.00770966
0.00776476
0.00781981
0.00787483
0.00792984
0.0079849
0.00804007
0.00809548
0.00815123
0.0082073
0.0082635
0.00831956
0.00837522
0.0084303
0.00848469
0.00853835
0.0085912
0.00864322
0.00869438
0.00874466
0.00879406
0.00884256
0.00889018
0.00893692
0.00898279
0.00748738
0.00753792
0.00758838
0.00763877
0.0076891
0.0077394
0.00778972
0.00784014
0.00789077
0.00794172
0.00799303
0.00804457
0.00809606
0.00814727
0.008198
0.00824817
0.00829768
0.00834646
0.00839447
0.00844167
0.00848805
0.00853361
0.00857833
0.00862223
0.0086653
0.00732116
0.00736733
0.00741337
0.00745927
0.00750504
0.00755072
0.00759635
0.00764199
0.00768773
0.0077337
0.00777998
0.00782653
0.00787319
0.00791973
0.00796596
0.0080117
0.00805685
0.00810134
0.0081451
0.00818812
0.00823037
0.00827183
0.00831251
0.0083524
0.00711445
0.00715679
0.00719889
0.00724076
0.00728241
0.00732383
0.00736506
0.00740613
0.00744709
0.00748801
0.00752897
0.00757008
0.00761141
0.00765301
0.00769467
0.00773616
0.00777728
0.00781791
0.00785793
0.0078973
0.00793596
0.00797389
0.00801107
0.00804751
0.00691705
0.00695613
0.00699485
0.00703322
0.00707124
0.00710892
0.00714628
0.00718332
0.00722007
0.00725656
0.00729284
0.00732896
0.00736501
0.00740117
0.00743754
0.00747408
0.00751062
0.00754695
0.0075829
0.00761834
0.0076532
0.0076874
0.00772091
0.00775372
0.00676402
0.0068
0.0068355
0.00687053
0.00690508
0.00693917
0.0069728
0.007006
0.00703876
0.00707112
0.00710311
0.00713474
0.00716617
0.00719746
0.00722871
0.00726001
0.00729137
0.00732269
0.00735381
0.00738456
0.00741483
0.00744452
0.00747358
0.00657838
0.00661233
0.00664566
0.00667838
0.00671048
0.00674199
0.0067729
0.00680324
0.006833
0.0068622
0.00689086
0.00691899
0.00694668
0.00697397
0.0070009
0.00702755
0.00705399
0.00708028
0.00710648
0.00713259
0.00715851
0.00718412
0.0072093
0.00642917
0.00646104
0.00649215
0.00652251
0.00655213
0.00658103
0.00660921
0.00663668
0.00666345
0.00668953
0.00671494
0.00673975
0.00676398
0.00678765
0.00681081
0.0068335
0.00685575
0.00687762
0.00689915
0.00692041
0.00694144
0.00696225
0.00624739
0.00627847
0.00630865
0.00633794
0.00636636
0.00639392
0.00642062
0.00644648
0.00647152
0.00649573
0.00651914
0.00654178
0.0065637
0.00658493
0.00660549
0.00662539
0.00664467
0.00666336
0.0066815
0.00669912
0.00671626
0.00673297
0.00609452
0.00612436
0.00615318
0.006181
0.00620781
0.00623364
0.0062585
0.0062824
0.00630538
0.00632747
0.00634867
0.006369
0.0063885
0.00640715
0.006425
0.00644208
0.0064584
0.00647403
0.00648898
0.00650326
0.00651706
0.0059357
0.00596453
0.00599221
0.00601876
0.0060442
0.00606855
0.00609183
0.00611407
0.0061353
0.00615554
0.0061748
0.0061931
0.00621047
0.0062269
0.00624255
0.00625751
0.00627174
0.0062852
0.00629789
0.00630984
0.00573922
0.00576841
0.00579632
0.00582296
0.00584838
0.00587259
0.0058956
0.00591743
0.00593813
0.00595772
0.00597619
0.00599374
0.00601047
0.00602628
0.00604115
0.0060551
0.00606814
0.00608025
0.00609147
0.00610184
0.00556148
0.00558982
0.00561679
0.0056424
0.00566668
0.00568963
0.00571128
0.00573166
0.00575113
0.00576957
0.00578691
0.00580312
0.0058182
0.00583218
0.00584508
0.00585689
0.00586766
0.00587742
0.00588624
0.00536972
0.00539698
0.00542277
0.00544709
0.00547005
0.00549199
0.00551272
0.00553219
0.00555037
0.00556722
0.00558277
0.00559703
0.00561005
0.0056218
0.00563236
0.00564176
0.00565001
0.00565716
0.00513399
0.00516131
0.00518704
0.0052117
0.00523509
0.00525705
0.00527755
0.00529658
0.00531411
0.00533016
0.00534477
0.00535792
0.00536968
0.00538009
0.00538914
0.00539689
0.00540338
0.00540891
0.00490972
0.00493583
0.00496043
0.00498343
0.0050048
0.0050245
0.00504253
0.00505894
0.00507369
0.00508684
0.00509846
0.00510852
0.00511709
0.00512421
0.00513036
0.00513601
0.00514123
0.00466971
0.0046937
0.00471586
0.00473621
0.00475477
0.00477149
0.00478643
0.00479969
0.00481122
0.00482111
0.00482942
0.0048367
0.00484357
0.00484982
0.0048551
0.00485934
0.00439023
0.00441321
0.00443431
0.00445342
0.00447064
0.00448591
0.00449939
0.00451116
0.00452116
0.00453002
0.00453848
0.00454618
0.00455281
0.00455815
0.004562
0.00456429
0.00412321
0.00414337
0.00416152
0.00417782
0.00419243
0.00420526
0.00421656
0.00422711
0.00423685
0.00424524
0.00425188
0.00425663
0.00425939
0.00426005
0.00425765
0.00385433
0.00387258
0.00388881
0.00390295
0.00391557
0.00392724
0.00393724
0.00394523
0.00395099
0.00395444
0.00395554
0.0039534
0.00394784
0.00393932
0.00357578
0.00359232
0.00360647
0.00361931
0.00363072
0.00364015
0.00364723
0.00365185
0.00365387
0.00365293
0.00364798
0.00363979
0.00362852
0.00361417
0.00331504
0.00332797
0.00333902
0.0033478
0.003354
0.00335755
0.00335828
0.00335514
0.00334835
0.00333813
0.00332469
0.00330795
0.00328792
0.0030544
0.00306265
0.00306825
0.00307101
0.00307084
0.00306632
0.00305827
0.00304675
0.00303185
0.0030135
0.00299169
0.00296627
0.00279196
0.00279432
0.00279347
0.00278843
0.00277983
0.00276773
0.00275217
0.00273302
0.00271029
0.00268387
0.00265365
0.00252712
0.00252215
0.00251369
0.00250174
0.00248631
0.00246725
0.00244443
0.00241794
0.00238757
0.00235321
0.00225976
0.00224864
0.0022341
0.00221598
0.00219413
0.0021686
0.00213923
0.00210595
0.0020685
0.00199533
0.00197903
0.00195914
0.0019357
0.00190856
0.00187755
0.00184266
0.00180372
0.00175554
0.00173844
0.00171802
0.00169413
0.00166659
0.00163536
0.0016003
0.00156134
0.00149524
0.00147239
0.00144604
0.00141626
0.00138274
0.0013451
0.00127614
0.00125462
0.00123025
0.00120147
0.00116095
0.00109592
0.00107348
0.00104712
0.00101556
0.00086401
0.0135311
0.0135314
0.0135317
0.013532
0.0135322
0.0135325
0.0135328
0.013533
0.0135333
0.0135335
0.0135338
0.013534
0.0135342
0.0135345
0.0135347
0.0134709
0.0134713
0.0134716
0.0134719
0.0134722
0.0134725
0.0134727
0.013473
0.0134733
0.0134736
0.0134739
0.0134741
0.0134744
0.0134746
0.0134749
0.0133986
0.0133989
0.0133993
0.0133996
0.0133999
0.0134003
0.0134006
0.0134009
0.0134012
0.0134015
0.0134018
0.0134022
0.0134025
0.0134027
0.013403
0.0133239
0.0133242
0.0133246
0.013325
0.0133254
0.0133257
0.0133261
0.0133265
0.0133268
0.0133272
0.0133275
0.0133278
0.0133282
0.0133285
0.0133288
0.0132417
0.0132422
0.0132426
0.013243
0.0132434
0.0132438
0.0132442
0.0132446
0.013245
0.0132454
0.0132458
0.0132461
0.0132465
0.0132469
0.0132472
0.0131509
0.0131514
0.0131518
0.0131523
0.0131527
0.0131532
0.0131536
0.0131541
0.0131545
0.0131549
0.0131554
0.0131558
0.0131562
0.0131566
0.013157
0.0130505
0.013051
0.0130515
0.013052
0.0130525
0.013053
0.0130535
0.013054
0.0130545
0.0130549
0.0130554
0.0130559
0.0130563
0.0130568
0.0130572
0.0129397
0.0129403
0.0129408
0.0129414
0.0129419
0.0129425
0.012943
0.0129435
0.0129441
0.0129446
0.0129451
0.0129456
0.0129462
0.0129467
0.0129472
0.0128179
0.0128185
0.0128191
0.0128197
0.0128203
0.0128209
0.0128215
0.0128221
0.0128227
0.0128233
0.0128238
0.0128244
0.012825
0.0128255
0.0128261
0.0126842
0.0126849
0.0126856
0.0126862
0.0126869
0.0126876
0.0126882
0.0126889
0.0126895
0.0126901
0.0126908
0.0126914
0.012692
0.0126926
0.0126932
0.0125379
0.0125386
0.0125393
0.0125401
0.0125408
0.0125415
0.0125422
0.0125429
0.0125436
0.0125443
0.012545
0.0125457
0.0125464
0.0125471
0.0125477
0.012378
0.0123788
0.0123796
0.0123804
0.0123812
0.012382
0.0123828
0.0123836
0.0123843
0.0123851
0.0123858
0.0123866
0.0123873
0.0123881
0.0123888
0.012204
0.0122048
0.0122057
0.0122066
0.0122074
0.0122083
0.0122091
0.01221
0.0122108
0.0122116
0.0122125
0.0122133
0.0122141
0.0122149
0.0122157
0.012015
0.0120159
0.0120169
0.0120178
0.0120187
0.0120197
0.0120206
0.0120215
0.0120224
0.0120233
0.0120242
0.0120251
0.012026
0.0120269
0.0120278
0.0118106
0.0118117
0.0118127
0.0118137
0.0118147
0.0118157
0.0118167
0.0118177
0.0118187
0.0118197
0.0118207
0.0118216
0.0118226
0.0118235
0.0118245
0.0115907
0.0115918
0.0115929
0.011594
0.0115951
0.0115962
0.0115972
0.0115983
0.0115994
0.0116004
0.0116015
0.0116025
0.0116036
0.0116046
0.0116056
0.0113549
0.0113561
0.0113573
0.0113585
0.0113597
0.0113608
0.011362
0.0113631
0.0113643
0.0113654
0.0113665
0.0113677
0.0113688
0.0113699
0.011371
0.0111037
0.0111049
0.0111062
0.0111075
0.0111087
0.01111
0.0111112
0.0111125
0.0111137
0.0111149
0.0111161
0.0111173
0.0111185
0.0111197
0.0111209
0.0108377
0.010839
0.0108404
0.0108417
0.0108431
0.0108444
0.0108457
0.010847
0.0108483
0.0108496
0.0108509
0.0108522
0.0108535
0.0108548
0.010856
0.0105578
0.0105593
0.0105607
0.0105621
0.0105635
0.0105649
0.0105664
0.0105677
0.0105691
0.0105705
0.0105719
0.0105733
0.0105746
0.010576
0.0105773
0.0102654
0.0102669
0.0102684
0.0102699
0.0102714
0.0102729
0.0102744
0.0102758
0.0102773
0.0102788
0.0102802
0.0102817
0.0102831
0.0102845
0.0102859
0.00996205
0.00996364
0.00996522
0.00996679
0.00996835
0.00996991
0.00997146
0.009973
0.00997453
0.00997606
0.00997758
0.00997909
0.00998059
0.00998209
0.00998359
0.00965023
0.00965188
0.00965352
0.00965516
0.00965678
0.0096584
0.00966001
0.00966161
0.00966321
0.0096648
0.00966638
0.00966795
0.00966952
0.00967108
0.00967264
0.00933267
0.00933437
0.00933607
0.00933775
0.00933943
0.0093411
0.00934277
0.00934442
0.00934607
0.00934771
0.00934935
0.00935097
0.0093526
0.00935421
0.00935582
0.00901241
0.00901415
0.00901589
0.00901762
0.00901934
0.00902105
0.00902276
0.00902445
0.00902614
0.00902783
0.0090295
0.00903117
0.00903284
0.00903449
0.00903614
0.00869296
0.00869474
0.0086965
0.00869826
0.00870001
0.00870175
0.00870348
0.0087052
0.00870692
0.00870863
0.00871034
0.00871204
0.00871373
0.00871541
0.00871709
0.00837789
0.00837967
0.00838145
0.00838322
0.00838498
0.00838674
0.00838849
0.00839023
0.00839196
0.00839368
0.0083954
0.00839711
0.00839882
0.00840052
0.00840221
0.00807066
0.00807245
0.00807423
0.008076
0.00807776
0.00807951
0.00808126
0.008083
0.00808474
0.00808646
0.00808818
0.00808989
0.0080916
0.0080933
0.008095
0.00777447
0.00777624
0.007778
0.00777976
0.00778151
0.00778325
0.00778498
0.00778671
0.00778843
0.00779015
0.00779185
0.00779356
0.00779525
0.00779694
0.00779863
0.00749189
0.00749363
0.00749537
0.0074971
0.00749882
0.00750054
0.00750225
0.00750395
0.00750565
0.00750734
0.00750902
0.0075107
0.00751237
0.00751404
0.0075157
0.00722515
0.00722685
0.00722855
0.00723024
0.00723192
0.0072336
0.00723527
0.00723694
0.0072386
0.00724025
0.0072419
0.00724354
0.00724518
0.00724682
0.00724845
0.00697549
0.00697712
0.00697875
0.00698037
0.00698199
0.0069836
0.00698521
0.00698682
0.00698841
0.00699001
0.0069916
0.00699318
0.00699477
0.00699635
0.00699792
0.00674346
0.00674501
0.00674654
0.00674808
0.00674961
0.00675113
0.00675265
0.00675417
0.00675568
0.00675719
0.0067587
0.0067602
0.0067617
0.0067632
0.00676469
0.00652555
0.00652703
0.0065285
0.00652998
0.00653145
0.00653291
0.00653437
0.00653583
0.00653729
0.00653874
0.00654019
0.00654164
0.00654308
0.00654453
0.00654597
0.00631701
0.00631841
0.00631981
0.00632122
0.00632263
0.00632403
0.00632544
0.00632685
0.00632826
0.00632967
0.00633108
0.00633249
0.0063339
0.00633532
0.00633673
0.00610793
0.0061093
0.00611067
0.00611206
0.00611344
0.00611484
0.00611624
0.00611765
0.00611906
0.00612048
0.00612191
0.00612334
0.00612477
0.00612621
0.00612766
0.00589127
0.0058926
0.00589396
0.00589534
0.00589673
0.00589813
0.00589955
0.00590099
0.00590244
0.0059039
0.00590538
0.00590686
0.00590836
0.00590987
0.00591139
0.00566108
0.0056624
0.00566375
0.00566513
0.00566654
0.00566798
0.00566945
0.00567094
0.00567246
0.005674
0.00567557
0.00567715
0.00567875
0.00568038
0.00568202
0.0054121
0.00541331
0.00541464
0.00541606
0.00541757
0.00541912
0.00542072
0.00542235
0.00542402
0.00542572
0.00542745
0.00542921
0.005431
0.00543282
0.00543466
0.00514418
0.00514542
0.0051468
0.00514832
0.00514997
0.00515172
0.00515354
0.0051554
0.0051573
0.00515925
0.00516124
0.00516326
0.00516532
0.00516741
0.00516954
0.00486147
0.00486252
0.00486381
0.0048653
0.00486698
0.00486882
0.00487081
0.00487289
0.00487503
0.00487723
0.00487949
0.00488179
0.00488414
0.00488653
0.00488897
0.0045647
0.00456524
0.00456614
0.00456738
0.00456891
0.00457069
0.0045727
0.0045749
0.00457727
0.00457972
0.00458224
0.00458483
0.00458749
0.00459021
0.00459299
0.00425331
0.00425328
0.00425375
0.0042547
0.00425608
0.00425782
0.00425988
0.00426223
0.00426482
0.00426757
0.00427042
0.00427337
0.00427641
0.00427952
0.00428272
0.00393026
0.00393003
0.00393011
0.00393087
0.0039322
0.00393403
0.00393629
0.00393892
0.00394186
0.00394498
0.00394823
0.00395161
0.00395508
0.00395866
0.00396233
0.00360019
0.00359974
0.00359962
0.00360019
0.00360151
0.00360349
0.003606
0.00360896
0.0036123
0.00361582
0.0036195
0.00362332
0.00362726
0.00363132
0.00363548
0.00326887
0.00326818
0.00326792
0.00326831
0.00326968
0.00327186
0.00327469
0.00327806
0.00328181
0.00328576
0.0032899
0.00329419
0.00329864
0.00330321
0.0033079
0.00294239
0.00294146
0.00294107
0.0029414
0.00294295
0.00294547
0.00294875
0.00295265
0.00295684
0.00296127
0.00296591
0.00297073
0.00297571
0.00298083
0.00298608
0.00262527
0.00262412
0.00262366
0.00262414
0.00262607
0.00262913
0.00263305
0.00263747
0.00264219
0.00264719
0.00265241
0.00265784
0.00266345
0.0026692
0.00267508
0.00232085
0.00231952
0.00231908
0.00231997
0.00232253
0.00232633
0.00233091
0.0023359
0.00234124
0.00234687
0.00235276
0.00235885
0.00236512
0.00237154
0.00237809
0.00203311
0.00203167
0.00203135
0.00203293
0.00203634
0.00204098
0.00204617
0.00205182
0.00205785
0.00206419
0.00207079
0.00207759
0.00208457
0.00209169
0.00209892
0.00176677
0.00176534
0.00176523
0.00176767
0.00177203
0.00177725
0.00178308
0.0017894
0.00179612
0.00180315
0.00181043
0.00181791
0.00182556
0.00183332
0.00184119
0.00152416
0.00152282
0.00152327
0.00152665
0.00153165
0.00153747
0.00154393
0.0015509
0.00155826
0.00156593
0.00157384
0.00158193
0.00159017
0.00159851
0.00160694
0.00130925
0.00130808
0.00130923
0.00131332
0.00131863
0.0013248
0.00133161
0.00133893
0.00134664
0.00135465
0.00136289
0.00137131
0.00137988
0.00138855
0.0013973
0.00112901
0.00112818
0.00112998
0.00113414
0.00113928
0.00114515
0.00115156
0.00115837
0.00116553
0.00117303
0.00118083
0.00118888
0.00119714
0.00120557
0.00121415
0.000985545
0.000984944
0.000986877
0.000990697
0.000995281
0.00100046
0.00100616
0.00101225
0.00101864
0.00102523
0.00103198
0.00103885
0.00104583
0.00105293
0.00106017
0.000850847
0.000855687
0.00086386
0.000872974
0.000882109
0.000890817
0.000898864
0.000906187
0.000912857
0.000918958
0.000924571
0.00092979
0.000934722
0.000939494
0.000944316
0.000744953
0.000763912
0.000783644
0.000803335
0.000822471
0.000838826
0.000852454
0.000863612
0.000872589
0.000879709
0.000713705
0.000736242
0.000758306
0.000777667
0.013535
0.0135355
0.0135359
0.0135363
0.0135367
0.0134752
0.0134757
0.0134762
0.0134766
0.0134771
0.0134034
0.0134039
0.0134045
0.013405
0.0134056
0.0133292
0.0133299
0.0133305
0.0133311
0.0133317
0.0132477
0.0132484
0.0132491
0.0132498
0.0132505
0.0131575
0.0131583
0.0131591
0.0131599
0.0131607
0.0130578
0.0130587
0.0130596
0.0130605
0.0130614
0.0129478
0.0129488
0.0129499
0.0129509
0.0129519
0.0128268
0.012828
0.0128291
0.0128303
0.0128314
0.012694
0.0126953
0.0126966
0.012698
0.0126992
0.0125486
0.0125501
0.0125516
0.012553
0.0125545
0.0123897
0.0123914
0.0123931
0.0123947
0.0123963
0.0122167
0.0122186
0.0122205
0.0122223
0.0122241
0.0120289
0.012031
0.0120331
0.0120351
0.0120371
0.0118258
0.0118281
0.0118304
0.0118326
0.0118349
0.011607
0.0116096
0.0116121
0.0116146
0.0116171
0.0113726
0.0113754
0.0113782
0.0113809
0.0113837
0.0111226
0.0111257
0.0111288
0.0111318
0.0111348
0.0108579
0.0108613
0.0108646
0.0108679
0.0108712
0.0105793
0.010583
0.0105866
0.0105902
0.0105937
0.0102881
0.0102921
0.010296
0.0102998
0.0103037
0.00998595
0.00999016
0.00999433
0.00999846
0.0100026
0.00967516
0.00967963
0.00968405
0.00968844
0.00969279
0.0093585
0.0093632
0.00936785
0.00937247
0.00937705
0.00903896
0.00904386
0.00904872
0.00905354
0.00905833
0.00872003
0.00872509
0.00873012
0.0087351
0.00874006
0.00840525
0.00841043
0.00841558
0.00842069
0.00842577
0.0080981
0.00810337
0.0081086
0.00811379
0.00811896
0.00780178
0.00780708
0.00781235
0.00781759
0.0078228
0.00751887
0.00752417
0.00752944
0.00753468
0.0075399
0.0072516
0.00725686
0.00726209
0.0072673
0.00727249
0.00700102
0.00700616
0.0070113
0.00701642
0.00702153
0.00676768
0.00677261
0.00677755
0.00678248
0.00678742
0.00654888
0.00655368
0.00655848
0.00656329
0.0065681
0.00633962
0.00634441
0.00634923
0.00635407
0.00635894
0.00613064
0.00613561
0.00614065
0.00614575
0.00615089
0.00591456
0.00591988
0.00592533
0.00593089
0.00593653
0.00568547
0.00569135
0.00569741
0.00570364
0.00571
0.00543857
0.00544524
0.00545218
0.00545934
0.00546667
0.00517408
0.00518182
0.00518989
0.00519823
0.00520679
0.0048942
0.00490317
0.00491257
0.00492231
0.00493234
0.00459899
0.00460936
0.00462032
0.00463175
0.00464357
0.00428962
0.00430167
0.00431449
0.00432789
0.00434175
0.00397024
0.0039841
0.00399885
0.00401425
0.00403014
0.0036444
0.00366007
0.00367676
0.00369419
0.00371214
0.00331786
0.00333541
0.00335412
0.00337362
0.00339367
0.0029971
0.00301658
0.00303733
0.00305892
0.00308105
0.00268722
0.00270876
0.00273168
0.00275545
0.00277974
0.00239138
0.00241503
0.00244016
0.00246612
0.00249256
0.0021133
0.00213906
0.00216638
0.0021945
0.00222303
0.0018565
0.00188415
0.0019135
0.00194367
0.00197417
0.00162298
0.00165233
0.00168351
0.0017155
0.00174777
0.00141365
0.00144415
0.00147674
0.00151024
0.00154405
0.00122995
0.00126047
0.00129348
0.00132768
0.00136239
0.00107345
0.00110158
0.00113319
0.00116673
0.0012014
0.000953714
0.000975084
0.00100044
0.00102921
0.00106082
0.000890015
0.000899323
0.000908501
0.000923113
0.000944268
0.000807799
0.00082413
0.000822414
0.000821444
0.000831335
0.000705266
0.000713183
0.000702775
0.000703825
0.000406718
0.000440248
0.000452145
0.0135378
0.0135397
0.0135418
0.013544
0.0135464
0.0135489
0.0135516
0.0135544
0.0135574
0.0135606
0.0135639
0.0135674
0.0135711
0.0135751
0.0135792
0.0135836
0.0135882
0.013593
0.0135981
0.0136034
0.013609
0.0136148
0.013621
0.0136274
0.0136341
0.013641
0.0136483
0.0136559
0.0136638
0.0136719
0.0136804
0.0136892
0.0136984
0.0137078
0.0137177
0.0137278
0.0137384
0.0137494
0.0137608
0.0137726
0.0137847
0.0137972
0.01381
0.0138232
0.0138367
0.0138506
0.0138651
0.0138809
0.0138984
0.0139182
0.0139404
0.0139654
0.0139929
0.0140251
0.0140672
0.0141088
0.0141362
0.0141301
0.0140859
0.0140339
0.013478
0.0134806
0.0134833
0.0134861
0.0134891
0.0134923
0.0134956
0.0134991
0.0135028
0.0135067
0.0135108
0.0135152
0.0135198
0.0135246
0.0135297
0.013535
0.0135406
0.0135465
0.0135526
0.0135591
0.0135658
0.0135729
0.0135802
0.0135879
0.0135959
0.0136042
0.0136128
0.0136217
0.0136309
0.0136405
0.0136503
0.0136605
0.013671
0.0136817
0.0136927
0.013704
0.0137156
0.0137277
0.0137403
0.0137533
0.0137667
0.0137803
0.0137944
0.0138088
0.0138233
0.0138379
0.0138525
0.0138677
0.013884
0.0139024
0.0139236
0.0139488
0.0139761
0.0140053
0.0140456
0.0140908
0.014128
0.0141341
0.0140956
0.0140388
0.0134068
0.0134099
0.0134131
0.0134166
0.0134203
0.0134241
0.0134282
0.0134326
0.0134372
0.013442
0.0134471
0.0134525
0.0134581
0.0134641
0.0134703
0.0134769
0.0134837
0.0134909
0.0134985
0.0135063
0.0135146
0.0135231
0.013532
0.0135413
0.0135509
0.0135609
0.0135713
0.0135819
0.013593
0.0136043
0.013616
0.013628
0.0136404
0.013653
0.0136659
0.0136792
0.0136927
0.0137065
0.0137205
0.0137349
0.0137496
0.0137645
0.0137799
0.0137958
0.0138119
0.0138276
0.013843
0.0138583
0.013874
0.0138919
0.013912
0.013936
0.0139627
0.0139914
0.0140264
0.0140722
0.0141158
0.0141329
0.0141017
0.0140437
0.0133333
0.0133372
0.0133413
0.0133456
0.0133502
0.013355
0.0133601
0.0133654
0.013371
0.013377
0.0133832
0.0133898
0.0133967
0.013404
0.0134116
0.0134195
0.0134278
0.0134366
0.0134456
0.0134551
0.013465
0.0134752
0.0134859
0.0134969
0.0135083
0.0135201
0.0135322
0.0135447
0.0135576
0.0135707
0.0135842
0.013598
0.0136121
0.0136265
0.0136411
0.013656
0.0136711
0.0136864
0.0137019
0.0137176
0.0137335
0.0137495
0.0137657
0.0137821
0.0137987
0.0138154
0.0138322
0.013849
0.013866
0.0138837
0.0139029
0.0139246
0.0139507
0.0139795
0.0140107
0.0140554
0.014103
0.0141294
0.0141066
0.0140477
0.0132526
0.0132573
0.0132624
0.0132677
0.0132733
0.0132792
0.0132855
0.013292
0.0132989
0.0133062
0.0133138
0.0133219
0.0133303
0.0133391
0.0133483
0.0133579
0.013368
0.0133785
0.0133894
0.0134007
0.0134125
0.0134247
0.0134374
0.0134504
0.0134639
0.0134777
0.013492
0.0135065
0.0135215
0.0135367
0.0135523
0.0135681
0.0135842
0.0136005
0.013617
0.0136337
0.0136505
0.0136675
0.0136845
0.0137017
0.013719
0.0137363
0.0137537
0.0137713
0.0137888
0.0138065
0.0138242
0.0138419
0.0138596
0.0138776
0.0138965
0.0139171
0.0139409
0.0139697
0.013999
0.0140408
0.0140904
0.0141242
0.0141096
0.014051
0.0131633
0.0131691
0.0131753
0.0131818
0.0131887
0.013196
0.0132036
0.0132116
0.0132201
0.0132289
0.0132382
0.013248
0.0132582
0.0132689
0.01328
0.0132917
0.0133038
0.0133164
0.0133294
0.013343
0.013357
0.0133715
0.0133864
0.0134018
0.0134176
0.0134338
0.0134504
0.0134674
0.0134846
0.0135022
0.0135201
0.0135382
0.0135565
0.0135749
0.0135934
0.0136121
0.0136308
0.0136495
0.0136682
0.0136869
0.0137056
0.0137243
0.0137429
0.0137616
0.0137802
0.0137988
0.0138173
0.0138358
0.0138542
0.0138727
0.0138917
0.0139118
0.0139345
0.0139619
0.0139915
0.0140284
0.0140784
0.014118
0.0141113
0.0140533
0.0130646
0.0130717
0.0130793
0.0130872
0.0130956
0.0131045
0.0131138
0.0131236
0.0131338
0.0131446
0.0131559
0.0131677
0.01318
0.0131929
0.0132063
0.0132203
0.0132348
0.0132499
0.0132655
0.0132816
0.0132982
0.0133153
0.0133329
0.013351
0.0133695
0.0133883
0.0134076
0.0134272
0.0134471
0.0134673
0.0134876
0.0135082
0.0135289
0.0135496
0.0135704
0.0135912
0.0136118
0.0136324
0.0136529
0.0136732
0.0136934
0.0137134
0.0137332
0.013753
0.0137726
0.0137921
0.0138114
0.0138307
0.0138498
0.0138688
0.013888
0.013908
0.0139298
0.0139553
0.0139852
0.014018
0.0140677
0.0141113
0.0141119
0.0140549
0.0129558
0.0129644
0.0129735
0.0129832
0.0129934
0.0130041
0.0130154
0.0130273
0.0130397
0.0130527
0.0130663
0.0130806
0.0130954
0.0131109
0.0131269
0.0131436
0.0131609
0.0131788
0.0131973
0.0132164
0.013236
0.0132562
0.0132768
0.0132979
0.0133194
0.0133413
0.0133636
0.0133861
0.0134089
0.0134319
0.0134551
0.0134783
0.0135015
0.0135248
0.0135479
0.0135709
0.0135937
0.0136163
0.0136386
0.0136605
0.0136822
0.0137035
0.0137246
0.0137454
0.013766
0.0137863
0.0138064
0.0138263
0.013846
0.0138655
0.0138851
0.0139051
0.0139264
0.0139506
0.0139797
0.0140096
0.0140582
0.0141044
0.0141118
0.0140559
0.0128361
0.0128465
0.0128575
0.0128692
0.0128815
0.0128944
0.012908
0.0129223
0.0129372
0.0129529
0.0129692