/*--------------------------------*- C++ -*----------------------------------*\
  =========                 |
  \\      /  F ield         | OpenFOAM: The Open Source CFD Toolbox
   \\    /   O peration     | Website:  https://openfoam.org
    \\  /    A nd           | Version:  9
     \\/     M anipulation  |
\*---------------------------------------------------------------------------*/
FoamFile
{
    format      ascii;
    class       surfaceScalarField;
    location    "0.0075";
    object      phi;
}
// * * * * * * * * * * * * * * * * * * * * * * * * * * * * * * * * * * * * * //

dimensions      [1 0 -1 0 0 0 0];

internalField   nonuniform List<scalar> 
12023
(
-0.0556284
-0.0338834
-0.0591217
-0.0338881
-0.0626106
-0.0338928
-0.0660949
-0.0338974
-0.0695751
-0.0339018
-0.0730515
-0.0339059
-0.0765245
-0.0339098
-0.0799944
-0.0339135
-0.0834618
-0.033917
-0.0869268
-0.0339203
-0.09039
-0.0339235
-0.0938517
-0.0339266
-0.0973122
-0.0339295
-0.100772
-0.0339323
-0.104231
-0.0339349
-0.10769
-0.0339374
-0.11115
-0.0339398
-0.114609
-0.0339421
-0.11807
-0.0339442
-0.121532
-0.0339464
-0.124995
-0.0339484
-0.12846
-0.0339503
-0.131927
-0.0339522
-0.135396
-0.033954
-0.138868
-0.0339557
-0.142342
-0.0339573
-0.145819
-0.0339587
-0.1493
-0.0339604
-0.0339618
-0.152787
-0.0510601
-0.0306994
-0.0542416
-0.0307066
-0.0574209
-0.0307135
-0.0605982
-0.0307201
-0.0637738
-0.0307262
-0.0669479
-0.0307318
-0.0701207
-0.030737
-0.0732924
-0.0307417
-0.0764633
-0.0307461
-0.0796336
-0.0307501
-0.0828034
-0.0307537
-0.085973
-0.030757
-0.0891426
-0.0307599
-0.0923123
-0.0307626
-0.0954822
-0.0307649
-0.0986527
-0.0307669
-0.101824
-0.0307687
-0.104996
-0.0307702
-0.108168
-0.0307714
-0.111342
-0.0307724
-0.114518
-0.0307732
-0.117694
-0.0307737
-0.120872
-0.0307741
-0.124052
-0.0307743
-0.127233
-0.0307743
-0.130416
-0.0307742
-0.133601
-0.030774
-0.136788
-0.0307737
-0.0307741
-0.139976
-0.0465571
-0.0278158
-0.0494385
-0.0278252
-0.0523184
-0.0278337
-0.055197
-0.0278414
-0.0580748
-0.0278484
-0.0609519
-0.0278547
-0.0638285
-0.0278604
-0.0667048
-0.0278654
-0.069581
-0.0278699
-0.0724574
-0.0278737
-0.075334
-0.027877
-0.0782112
-0.0278798
-0.081089
-0.0278821
-0.0839677
-0.0278839
-0.0868473
-0.0278852
-0.0897282
-0.0278861
-0.0926102
-0.0278866
-0.0954938
-0.0278867
-0.0983788
-0.0278864
-0.101266
-0.0278857
-0.104154
-0.0278847
-0.107044
-0.0278833
-0.109937
-0.0278817
-0.112831
-0.0278798
-0.115728
-0.0278776
-0.118627
-0.0278752
-0.121528
-0.0278726
-0.124432
-0.0278699
-0.0278669
-0.12734
-0.0428578
-0.0252024
-0.0454704
-0.0252125
-0.0480825
-0.0252217
-0.050694
-0.0252299
-0.0533052
-0.0252372
-0.0559162
-0.0252437
-0.0585273
-0.0252493
-0.0611386
-0.0252542
-0.0637502
-0.0252583
-0.0663623
-0.0252616
-0.0689751
-0.0252642
-0.0715887
-0.0252662
-0.0742033
-0.0252675
-0.076819
-0.0252682
-0.0794359
-0.0252683
-0.0820542
-0.0252679
-0.0846739
-0.0252669
-0.0872952
-0.0252654
-0.0899181
-0.0252635
-0.0925428
-0.0252611
-0.0951691
-0.0252583
-0.0977974
-0.0252551
-0.100427
-0.0252516
-0.103059
-0.0252478
-0.105693
-0.0252436
-0.108329
-0.0252392
-0.110967
-0.0252346
-0.113607
-0.0252298
-0.0252249
-0.116249
-0.0395303
-0.0228366
-0.0418957
-0.0228471
-0.0442609
-0.0228565
-0.046626
-0.0228648
-0.0489912
-0.022872
-0.0513567
-0.0228782
-0.0537226
-0.0228835
-0.056089
-0.0228878
-0.0584561
-0.0228912
-0.060824
-0.0228937
-0.0631929
-0.0228954
-0.0655628
-0.0228962
-0.067934
-0.0228963
-0.0703066
-0.0228957
-0.0726805
-0.0228943
-0.0750561
-0.0228923
-0.0774333
-0.0228897
-0.0798122
-0.0228864
-0.082193
-0.0228827
-0.0845758
-0.0228784
-0.0869604
-0.0228736
-0.0893471
-0.0228684
-0.0917359
-0.0228628
-0.0941267
-0.0228569
-0.0965197
-0.0228507
-0.0989147
-0.0228442
-0.101312
-0.0228375
-0.103711
-0.0228306
-0.0228235
-0.106113
-0.0366262
-0.020695
-0.0387677
-0.0207055
-0.0409095
-0.0207148
-0.0430514
-0.0207228
-0.0451937
-0.0207297
-0.0473366
-0.0207354
-0.04948
-0.02074
-0.0516243
-0.0207435
-0.0537693
-0.0207461
-0.0559154
-0.0207476
-0.0580625
-0.0207482
-0.0602108
-0.0207479
-0.0623605
-0.0207467
-0.0645115
-0.0207446
-0.066664
-0.0207418
-0.0688181
-0.0207382
-0.0709739
-0.0207339
-0.0731314
-0.0207289
-0.0752907
-0.0207234
-0.0774519
-0.0207172
-0.079615
-0.0207105
-0.0817801
-0.0207033
-0.0839472
-0.0206957
-0.0861164
-0.0206877
-0.0882876
-0.0206794
-0.0904609
-0.0206709
-0.0926363
-0.0206621
-0.0948138
-0.0206531
-0.020644
-0.0969933
-0.0340275
-0.0187571
-0.0359657
-0.0187674
-0.0379042
-0.0187763
-0.0398431
-0.0187839
-0.0417826
-0.0187901
-0.0437229
-0.0187952
-0.0456639
-0.018799
-0.0476058
-0.0188016
-0.0495487
-0.0188031
-0.0514928
-0.0188036
-0.053438
-0.018803
-0.0553846
-0.0188013
-0.0573325
-0.0187988
-0.0592819
-0.0187953
-0.0612328
-0.0187909
-0.0631854
-0.0187857
-0.0651396
-0.0187797
-0.0670956
-0.0187729
-0.0690534
-0.0187655
-0.0710131
-0.0187575
-0.0729747
-0.0187489
-0.0749382
-0.0187398
-0.0769037
-0.0187302
-0.0788712
-0.0187203
-0.0808407
-0.0187099
-0.0828122
-0.0186993
-0.0847858
-0.0186885
-0.0867614
-0.0186775
-0.0186663
-0.088739
-0.03171
-0.0170036
-0.0334639
-0.0170135
-0.0352183
-0.0170219
-0.0369732
-0.0170289
-0.038729
-0.0170344
-0.0404855
-0.0170386
-0.0422429
-0.0170416
-0.0440013
-0.0170432
-0.0457608
-0.0170436
-0.0475215
-0.0170429
-0.0492834
-0.017041
-0.0510467
-0.0170381
-0.0528114
-0.0170341
-0.0545776
-0.0170291
-0.0563453
-0.0170232
-0.0581146
-0.0170164
-0.0598856
-0.0170087
-0.0616582
-0.0170003
-0.0634326
-0.0169911
-0.0652089
-0.0169813
-0.0669869
-0.0169709
-0.0687669
-0.0169599
-0.0705487
-0.0169484
-0.0723325
-0.0169365
-0.0741182
-0.0169242
-0.0759059
-0.0169117
-0.0776955
-0.0168989
-0.0794871
-0.0168859
-0.0168728
-0.0812806
-0.0296238
-0.0154173
-0.0312107
-0.0154266
-0.0327982
-0.0154344
-0.0343864
-0.0154406
-0.0359755
-0.0154454
-0.0375654
-0.0154487
-0.0391563
-0.0154506
-0.0407483
-0.0154512
-0.0423414
-0.0154505
-0.0439357
-0.0154485
-0.0455314
-0.0154454
-0.0471284
-0.0154411
-0.0487268
-0.0154357
-0.0503267
-0.0154292
-0.0519281
-0.0154217
-0.0535311
-0.0154133
-0.0551358
-0.015404
-0.0567421
-0.0153939
-0.0583502
-0.015383
-0.05996
-0.0153715
-0.0615717
-0.0153592
-0.0631851
-0.0153464
-0.0648004
-0.0153331
-0.0664175
-0.0153194
-0.0680364
-0.0153053
-0.0696572
-0.0152909
-0.0712799
-0.0152762
-0.0729043
-0.0152614
-0.0152465
-0.0745306
-0.0277413
-0.0139823
-0.0291769
-0.013991
-0.0306133
-0.013998
-0.0320505
-0.0140035
-0.0334885
-0.0140074
-0.0349275
-0.0140097
-0.0363675
-0.0140106
-0.0378086
-0.0140101
-0.0392509
-0.0140082
-0.0406944
-0.014005
-0.0421393
-0.0140005
-0.0435855
-0.0139949
-0.0450331
-0.013988
-0.0464822
-0.0139801
-0.0479328
-0.0139711
-0.049385
-0.0139611
-0.0508389
-0.0139502
-0.0522943
-0.0139384
-0.0537515
-0.0139259
-0.0552104
-0.0139126
-0.056671
-0.0138986
-0.0581333
-0.0138841
-0.0595974
-0.013869
-0.0610633
-0.0138535
-0.0625309
-0.0138376
-0.0640003
-0.0138215
-0.0654715
-0.0138051
-0.0669444
-0.0137885
-0.0137719
-0.068419
-0.0260342
-0.027333
-0.0126922
-0.0286325
-0.0126985
-0.0299329
-0.0127031
-0.0312341
-0.0127061
-0.0325364
-0.0127075
-0.0338397
-0.0127073
-0.0351442
-0.0127057
-0.0364498
-0.0127026
-0.0377567
-0.0126981
-0.0390649
-0.0126923
-0.0403745
-0.0126853
-0.0416854
-0.0126771
-0.0429979
-0.0126677
-0.0443118
-0.0126572
-0.0456273
-0.0126456
-0.0469444
-0.0126331
-0.0482631
-0.0126198
-0.0495834
-0.0126056
-0.0509054
-0.0125906
-0.052229
-0.012575
-0.0535544
-0.0125587
-0.0548814
-0.012542
-0.0562101
-0.0125248
-0.0575405
-0.0125072
-0.0588726
-0.0124894
-0.0602064
-0.0124713
-0.0615418
-0.0124531
-0.0124348
-0.0628789
-0.025656
-0.0115174
-0.0268316
-0.0115229
-0.0280081
-0.0115266
-0.0291856
-0.0115286
-0.030364
-0.011529
-0.0315436
-0.0115278
-0.0327242
-0.011525
-0.0339061
-0.0115207
-0.0350892
-0.011515
-0.0362736
-0.0115079
-0.0374594
-0.0114995
-0.0386465
-0.0114899
-0.0398352
-0.011479
-0.0410253
-0.0114671
-0.0422169
-0.011454
-0.04341
-0.01144
-0.0446047
-0.0114251
-0.045801
-0.0114093
-0.0469988
-0.0113927
-0.0481983
-0.0113755
-0.0493994
-0.0113576
-0.0506022
-0.0113393
-0.0518066
-0.0113204
-0.0530125
-0.0113012
-0.0542201
-0.0112818
-0.0554293
-0.0112621
-0.0566401
-0.0112423
-0.0112224
-0.0578524
-0.024126
-0.0104549
-0.0251894
-0.0104595
-0.0262537
-0.0104623
-0.027319
-0.0104633
-0.0283854
-0.0104627
-0.0294528
-0.0104603
-0.0305214
-0.0104564
-0.0315911
-0.010451
-0.0326621
-0.010444
-0.0337344
-0.0104357
-0.034808
-0.0104259
-0.035883
-0.0104149
-0.0369595
-0.0104026
-0.0380374
-0.0103892
-0.0391167
-0.0103747
-0.0401975
-0.0103592
-0.0412799
-0.0103427
-0.0423638
-0.0103254
-0.0434492
-0.0103073
-0.0445362
-0.0102885
-0.0456247
-0.0102691
-0.0467148
-0.0102492
-0.0478065
-0.0102288
-0.0488997
-0.010208
-0.0499944
-0.010187
-0.0510907
-0.0101659
-0.0521885
-0.0101446
-0.0101232
-0.0532877
-0.0227258
-0.00949401
-0.0236876
-0.00949767
-0.0246504
-0.0094995
-0.0256142
-0.00949953
-0.026579
-0.00949782
-0.0275449
-0.00949441
-0.028512
-0.00948936
-0.0294803
-0.00948271
-0.0304498
-0.00947454
-0.0314205
-0.0094649
-0.0323926
-0.00945385
-0.033366
-0.00944147
-0.0343408
-0.00942783
-0.035317
-0.009413
-0.0362946
-0.00939705
-0.0372737
-0.00938006
-0.0382543
-0.00936213
-0.0392364
-0.00934333
-0.0402199
-0.00932375
-0.041205
-0.00930346
-0.0421915
-0.00928255
-0.0431796
-0.00926112
-0.0441691
-0.00923924
-0.0451601
-0.00921703
-0.0461526
-0.00919456
-0.0471465
-0.00917193
-0.0481418
-0.00914922
-0.00912645
-0.0491386
-0.0214408
-0.00862516
-0.0223106
-0.00862787
-0.0231814
-0.0086287
-0.0240532
-0.0086277
-0.0249261
-0.00862492
-0.0258002
-0.0086204
-0.0266753
-0.00861419
-0.0275517
-0.00860636
-0.0284292
-0.00859697
-0.0293081
-0.00858607
-0.0301882
-0.00857374
-0.0310696
-0.00856004
-0.0319524
-0.00854506
-0.0328365
-0.00852886
-0.0337221
-0.00851152
-0.034609
-0.00849313
-0.0354973
-0.00847377
-0.0363871
-0.00845353
-0.0372784
-0.00843249
-0.0381711
-0.00841074
-0.0390653
-0.00838838
-0.0399609
-0.00836552
-0.0408579
-0.00834222
-0.0417563
-0.00831859
-0.0426562
-0.00829472
-0.0435574
-0.00827072
-0.04446
-0.00824664
-0.00822256
-0.0453639
-0.0202581
-0.00783968
-0.0210446
-0.0078414
-0.0218321
-0.00784121
-0.0226206
-0.00783915
-0.0234103
-0.00783527
-0.0242011
-0.00782963
-0.024993
-0.00782226
-0.0257861
-0.00781324
-0.0265805
-0.00780262
-0.027376
-0.00779048
-0.0281729
-0.00777687
-0.0289711
-0.00776188
-0.0297705
-0.00774558
-0.0305714
-0.00772804
-0.0313735
-0.00770936
-0.0321771
-0.0076896
-0.032982
-0.00766887
-0.0337882
-0.00764725
-0.0345959
-0.00762482
-0.035405
-0.00760169
-0.0362154
-0.00757795
-0.0370272
-0.00755369
-0.0378404
-0.00752901
-0.038655
-0.00750401
-0.0394709
-0.0074788
-0.0402882
-0.00745346
-0.0411067
-0.0074281
-0.00740277
-0.0419265
-0.0191665
-0.0198775
-0.00713042
-0.0205895
-0.00712917
-0.0213026
-0.00712603
-0.0220169
-0.00712103
-0.0227323
-0.00711424
-0.0234488
-0.0071057
-0.0241666
-0.00709548
-0.0248855
-0.00708365
-0.0256058
-0.00707026
-0.0263273
-0.00705539
-0.02705
-0.00703911
-0.0277741
-0.00702151
-0.0284995
-0.00700266
-0.0292262
-0.00698265
-0.0299542
-0.00696157
-0.0306836
-0.00693949
-0.0314143
-0.00691653
-0.0321464
-0.00689277
-0.0328798
-0.0068683
-0.0336145
-0.00684323
-0.0343505
-0.00681765
-0.0350879
-0.00679167
-0.0358265
-0.00676538
-0.0365664
-0.00673888
-0.0373076
-0.00671229
-0.03805
-0.00668571
-0.00665919
-0.0387936
-0.0187984
-0.00648778
-0.0194421
-0.00648545
-0.020087
-0.0064812
-0.0207329
-0.00647506
-0.0213801
-0.00646711
-0.0220284
-0.00645739
-0.0226779
-0.00644596
-0.0233287
-0.0064329
-0.0239807
-0.00641826
-0.0246339
-0.00640213
-0.0252884
-0.00638458
-0.0259442
-0.0063657
-0.0266014
-0.00634555
-0.0272598
-0.00632424
-0.0279195
-0.00630185
-0.0285805
-0.00627848
-0.0292428
-0.00625421
-0.0299064
-0.00622914
-0.0305714
-0.00620338
-0.0312376
-0.00617703
-0.031905
-0.00615018
-0.0325738
-0.00612293
-0.0332437
-0.00609541
-0.0339149
-0.0060677
-0.0345873
-0.00603991
-0.0352609
-0.00601216
-0.0059845
-0.0359355
-0.017798
-0.00590701
-0.0183798
-0.00590357
-0.0189628
-0.00589818
-0.019547
-0.00589089
-0.0201324
-0.00588176
-0.0207189
-0.00587083
-0.0213067
-0.00585819
-0.0218957
-0.00584389
-0.0224859
-0.00582801
-0.0230775
-0.00581062
-0.0236702
-0.0057918
-0.0242643
-0.00577164
-0.0248596
-0.00575022
-0.0254563
-0.00572762
-0.0260542
-0.00570395
-0.0266533
-0.00567929
-0.0272538
-0.00565375
-0.0278555
-0.00562741
-0.0284585
-0.0056004
-0.0290628
-0.00557279
-0.0296682
-0.00554471
-0.0302749
-0.00551626
-0.0308828
-0.00548754
-0.0314918
-0.00545866
-0.032102
-0.00542974
-0.0327132
-0.00540087
-0.00537214
-0.0333256
-0.0168675
-0.00538218
-0.0173935
-0.00537762
-0.0179206
-0.00537108
-0.0184488
-0.00536262
-0.0189783
-0.00535229
-0.019509
-0.00534015
-0.0200409
-0.00532628
-0.020574
-0.00531074
-0.0211084
-0.00529361
-0.0216441
-0.00527496
-0.022181
-0.00525487
-0.0227192
-0.00523344
-0.0232587
-0.00521074
-0.0237995
-0.00518688
-0.0243415
-0.00516194
-0.0248847
-0.00513602
-0.0254293
-0.00510922
-0.025975
-0.00508165
-0.026522
-0.0050534
-0.0270702
-0.00502458
-0.0276197
-0.00499531
-0.0281702
-0.00496568
-0.028722
-0.00493581
-0.0292748
-0.00490581
-0.0298288
-0.00487579
-0.0303838
-0.00484586
-0.0048161
-0.0309398
-0.0159995
-0.0164749
-0.0049022
-0.0169515
-0.00489451
-0.0174292
-0.00488486
-0.0179082
-0.00487333
-0.0183884
-0.00485997
-0.0188698
-0.00484486
-0.0193524
-0.00482808
-0.0198364
-0.00480969
-0.0203215
-0.00478977
-0.020808
-0.00476842
-0.0212957
-0.00474572
-0.0217847
-0.00472176
-0.0222749
-0.00469664
-0.0227664
-0.00467044
-0.0232592
-0.00464327
-0.0237531
-0.00461524
-0.0242483
-0.00458645
-0.0247447
-0.00455699
-0.0252423
-0.00452699
-0.0257411
-0.00449655
-0.026241
-0.00446579
-0.026742
-0.0044348
-0.0272441
-0.00440371
-0.0277473
-0.00437264
-0.0282514
-0.00434168
-0.00431093
-0.0287566
-0.0156168
-0.00447237
-0.0160477
-0.00446352
-0.0164799
-0.00445269
-0.0169133
-0.00443995
-0.0173479
-0.00442537
-0.0177837
-0.00440903
-0.0182208
-0.004391
-0.0186591
-0.00437135
-0.0190987
-0.00435018
-0.0195396
-0.00432757
-0.0199817
-0.00430361
-0.0204251
-0.00427839
-0.0208697
-0.00425201
-0.0213156
-0.00422457
-0.0217627
-0.00419617
-0.022211
-0.00416691
-0.0226605
-0.00413692
-0.0231113
-0.00410628
-0.0235631
-0.00407511
-0.0240162
-0.00404353
-0.0244703
-0.00401165
-0.0249255
-0.00397958
-0.0253818
-0.00394744
-0.0258391
-0.00391534
-0.0262974
-0.0038834
-0.0038517
-0.0267566
-0.0148126
-0.00408359
-0.0152025
-0.00407358
-0.0155936
-0.00406158
-0.0159859
-0.00404765
-0.0163794
-0.00403186
-0.0167742
-0.00401429
-0.0171701
-0.00399502
-0.0175674
-0.00397413
-0.0179658
-0.00395171
-0.0183656
-0.00392784
-0.0187666
-0.00390262
-0.0191688
-0.00387615
-0.0195723
-0.00384853
-0.019977
-0.00381986
-0.0203829
-0.00379024
-0.02079
-0.00375978
-0.0211984
-0.00372859
-0.0216079
-0.00369679
-0.0220185
-0.00366448
-0.0224302
-0.00363178
-0.0228431
-0.0035988
-0.023257
-0.00356567
-0.0236719
-0.0035325
-0.0240879
-0.00349941
-0.0245047
-0.00346651
-0.00343391
-0.0249225
-0.0140564
-0.0144094
-0.00372054
-0.0147636
-0.00370738
-0.015119
-0.00369227
-0.0154755
-0.00367529
-0.0158333
-0.00365651
-0.0161923
-0.00363602
-0.0165526
-0.0036139
-0.016914
-0.00359024
-0.0172767
-0.00356514
-0.0176407
-0.00353869
-0.0180058
-0.00351098
-0.0183722
-0.00348213
-0.0187398
-0.00345224
-0.0191087
-0.00342141
-0.0194787
-0.00338976
-0.0198499
-0.0033574
-0.0202222
-0.00332445
-0.0205957
-0.00329101
-0.0209702
-0.00325721
-0.0213459
-0.00322317
-0.0217225
-0.003189
-0.0221002
-0.00315483
-0.0224789
-0.00312076
-0.0228584
-0.00308694
-0.00305344
-0.0232389
-0.0136629
-0.00340059
-0.013984
-0.0033863
-0.0143063
-0.00337003
-0.0146297
-0.00335187
-0.0149543
-0.00333191
-0.0152801
-0.00331022
-0.0156071
-0.00328689
-0.0159353
-0.00326202
-0.0162647
-0.00323571
-0.0165954
-0.00320804
-0.0169272
-0.00317912
-0.0172603
-0.00314907
-0.0175946
-0.00311798
-0.01793
-0.00308596
-0.0182666
-0.00305315
-0.0186044
-0.00301963
-0.0189433
-0.00298555
-0.0192833
-0.002951
-0.0196244
-0.00291612
-0.0199665
-0.00288103
-0.0203097
-0.00284584
-0.0206538
-0.00281068
-0.0209989
-0.00277568
-0.0213449
-0.00274094
-0.00270659
-0.0216918
-0.0129581
-0.0132496
-0.00309484
-0.0135421
-0.00307744
-0.0138359
-0.00305814
-0.0141308
-0.00303702
-0.0144268
-0.00301416
-0.0147241
-0.00298965
-0.0150225
-0.0029636
-0.0153221
-0.00293609
-0.0156229
-0.00290724
-0.0159249
-0.00287714
-0.0162281
-0.0028459
-0.0165324
-0.00281364
-0.0168379
-0.00278047
-0.0171445
-0.00274651
-0.0174523
-0.00271187
-0.0177612
-0.00267667
-0.0180711
-0.00264104
-0.0183822
-0.0026051
-0.0186942
-0.00256898
-0.0190073
-0.0025328
-0.0193213
-0.00249668
-0.0196362
-0.00246074
-0.019952
-0.00242513
-0.00238993
-0.0202687
-0.0125556
-0.00282987
-0.0128217
-0.00281136
-0.0130889
-0.00279094
-0.0133572
-0.00276868
-0.0136267
-0.00274467
-0.0138973
-0.00271902
-0.0141691
-0.00269181
-0.0144421
-0.00266314
-0.0147162
-0.00263313
-0.0149914
-0.00260187
-0.0152679
-0.00256949
-0.0155454
-0.00253609
-0.0158241
-0.00250179
-0.0161039
-0.0024667
-0.0163848
-0.00243096
-0.0166668
-0.00239468
-0.0169498
-0.002358
-0.0172339
-0.00232103
-0.017519
-0.0022839
-0.017805
-0.00224674
-0.018092
-0.00220968
-0.0183799
-0.00217285
-0.0186687
-0.00213637
-0.00210035
-0.0189583
-0.0118981
-0.00258855
-0.0121405
-0.00256895
-0.0123841
-0.00254742
-0.0126287
-0.00252404
-0.0128744
-0.00249892
-0.0131213
-0.00247214
-0.0133693
-0.00244379
-0.0136185
-0.002414
-0.0138688
-0.00238285
-0.0141202
-0.00235047
-0.0143727
-0.00231696
-0.0146263
-0.00228245
-0.0148811
-0.00224704
-0.0151369
-0.00221087
-0.0153938
-0.00217405
-0.0156518
-0.00213672
-0.0159108
-0.002099
-0.0161708
-0.00206102
-0.0164318
-0.00202291
-0.0166937
-0.0019848
-0.0169566
-0.00194683
-0.0172203
-0.00190911
-0.0174849
-0.00187179
-0.00183497
-0.0177503
-0.0112739
-0.0114951
-0.00234766
-0.0117175
-0.00232504
-0.011941
-0.00230057
-0.0121656
-0.00227434
-0.0123913
-0.00224645
-0.0126181
-0.002217
-0.012846
-0.00218609
-0.013075
-0.00215384
-0.0133051
-0.00212035
-0.0135363
-0.00208574
-0.0137686
-0.00205013
-0.014002
-0.00201364
-0.0142365
-0.0019764
-0.014472
-0.00193853
-0.0147086
-0.00190017
-0.0149461
-0.00186143
-0.0151847
-0.00182246
-0.0154242
-0.00178339
-0.0156647
-0.00174435
-0.015906
-0.00170548
-0.0161482
-0.0016669
-0.0163913
-0.00162875
-0.00159115
-0.0166351
-0.0108825
-0.00214528
-0.011086
-0.00212157
-0.0112906
-0.002096
-0.0114962
-0.00206867
-0.011703
-0.00203969
-0.0119108
-0.00200914
-0.0121198
-0.00197714
-0.0123299
-0.00194379
-0.012541
-0.00190921
-0.0127532
-0.00187351
-0.0129665
-0.00183683
-0.0131809
-0.00179927
-0.0133963
-0.00176098
-0.0136128
-0.00172207
-0.0138303
-0.00168268
-0.0140487
-0.00164295
-0.0142682
-0.00160301
-0.0144886
-0.00156298
-0.0147099
-0.00152302
-0.0149321
-0.00148326
-0.0151552
-0.00144384
-0.0153791
-0.00140486
-0.00136648
-0.0156038
-0.0103005
-0.010487
-0.00193504
-0.0106746
-0.00190838
-0.0108633
-0.00187995
-0.0110532
-0.00184987
-0.0112441
-0.00181823
-0.0114361
-0.00178513
-0.0116292
-0.00175069
-0.0118234
-0.00171503
-0.0120186
-0.00167826
-0.0122149
-0.0016405
-0.0124123
-0.00160189
-0.0126107
-0.00156255
-0.0128102
-0.00152261
-0.0130107
-0.00148221
-0.0132121
-0.00144148
-0.0134146
-0.00140057
-0.013618
-0.0013596
-0.0138223
-0.00131872
-0.0140275
-0.00127808
-0.0142335
-0.0012378
-0.0144403
-0.00119801
-0.00115884
-0.014648
-0.0099187
-0.00176377
-0.0100911
-0.00173599
-0.0102646
-0.00170646
-0.0104392
-0.00167528
-0.0106149
-0.00164253
-0.0107916
-0.00160834
-0.0109695
-0.00157282
-0.0111485
-0.00153607
-0.0113285
-0.00149822
-0.0115096
-0.00145939
-0.0116918
-0.00141972
-0.011875
-0.00137933
-0.0120593
-0.00133836
-0.0122445
-0.00129694
-0.0124308
-0.00125522
-0.012618
-0.00121332
-0.0128062
-0.0011714
-0.0129954
-0.0011296
-0.0131854
-0.00108807
-0.0133762
-0.00104694
-0.0135679
-0.0010063
-0.000966327
-0.0137604
-0.00937989
-0.00953851
-0.00157737
-0.00969825
-0.00154673
-0.00985909
-0.00151443
-0.0100211
-0.00148058
-0.0101841
-0.00144528
-0.0103483
-0.00140866
-0.0105135
-0.00137082
-0.0106799
-0.00133188
-0.0108473
-0.00129198
-0.0110158
-0.00125124
-0.0111853
-0.00120979
-0.0113559
-0.00116778
-0.0115275
-0.00112533
-0.0117001
-0.0010826
-0.0118737
-0.00103971
-0.0120483
-0.000996825
-0.0122238
-0.000954081
-0.0124002
-0.000911638
-0.0125776
-0.000869629
-0.0127557
-0.000828131
-0.000787316
-0.0129347
-0.00901596
-0.00916325
-0.00139944
-0.00931165
-0.00136602
-0.00946117
-0.00133106
-0.0096118
-0.00129466
-0.00976353
-0.00125692
-0.00991637
-0.00121798
-0.0100703
-0.00117795
-0.0102253
-0.00113696
-0.0103814
-0.00109514
-0.0105386
-0.00105263
-0.0106968
-0.00100955
-0.0108561
-0.000966059
-0.0110164
-0.000922293
-0.0111777
-0.000878397
-0.01134
-0.000834518
-0.0115033
-0.000790806
-0.0116675
-0.000747427
-0.0118326
-0.000704512
-0.0119986
-0.000662112
-0.000620406
-0.0121655
-0.00865877
-0.00126345
-0.00879589
-0.00122891
-0.00893411
-0.00119283
-0.00907346
-0.00115531
-0.00921391
-0.00111647
-0.00935547
-0.00107642
-0.00949813
-0.00103529
-0.00964188
-0.000993206
-0.00978673
-0.000950294
-0.00993266
-0.000906693
-0.0100797
-0.000862543
-0.0102277
-0.000817987
-0.0103769
-0.000773168
-0.010527
-0.000728234
-0.0106782
-0.000683332
-0.0108304
-0.000638619
-0.0109836
-0.000594268
-0.0111377
-0.000550407
-0.0112927
-0.000507053
-0.000464391
-0.0114487
-0.00818411
-0.00831097
-0.00110205
-0.00843895
-0.00106486
-0.00856803
-0.00102623
-0.00869823
-0.000986273
-0.00882954
-0.000945116
-0.00896196
-0.000902877
-0.00909548
-0.000859685
-0.0092301
-0.000815672
-0.00936582
-0.000770975
-0.00950263
-0.000725733
-0.00964053
-0.000680092
-0.0097795
-0.000634198
-0.00991953
-0.000588198
-0.0100606
-0.000542242
-0.0102027
-0.000496493
-0.0103459
-0.000451133
-0.01049
-0.000406287
-0.0106351
-0.000361913
-0.000318208
-0.0107813
-0.00785615
-0.00797479
-0.000946222
-0.00809453
-0.000906481
-0.00821539
-0.000865417
-0.00833735
-0.000823148
-0.00846043
-0.000779798
-0.00858462
-0.000735495
-0.00870993
-0.000690371
-0.00883634
-0.000644564
-0.00896385
-0.000598215
-0.00909248
-0.000551469
-0.0092222
-0.000504477
-0.00935301
-0.000457385
-0.00948491
-0.000410345
-0.00961788
-0.00036352
-0.00975191
-0.000317104
-0.00988699
-0.00027121
-0.0100232
-0.000225744
-0.000180914
-0.0101604
-0.0075407
-0.000836131
-0.00765189
-0.000795291
-0.00776418
-0.000753126
-0.00787758
-0.000709752
-0.00799208
-0.000665293
-0.0081077
-0.000619876
-0.00822444
-0.000573636
-0.00834229
-0.000526709
-0.00846127
-0.000479238
-0.00858137
-0.00043137
-0.00870259
-0.000383257
-0.00882492
-0.000335048
-0.0089484
-0.000286873
-0.00907304
-0.000238874
-0.00919883
-0.000191316
-0.00932566
-0.00014438
-0.00945365
-9.7759e-05
-5.17365e-05
-0.00958282
-0.00713596
-0.00723934
-0.000691906
-0.00734381
-0.00064866
-0.00744936
-0.000604197
-0.00755602
-0.000558641
-0.00766377
-0.000512118
-0.00777265
-0.000464763
-0.00788264
-0.000416717
-0.00799375
-0.000368125
-0.008106
-0.000319123
-0.00821942
-0.000269837
-0.00833402
-0.000220447
-0.0084498
-0.000171092
-0.00856678
-0.000121893
-0.00868496
-7.31402e-05
-0.00880425
-2.50908e-05
-0.00892486
2.28497e-05
7.00024e-05
-0.0090466
-0.00685557
-0.0069529
-0.000551335
-0.00705129
-0.000505808
-0.00715075
-0.000459175
-0.0072513
-0.000411568
-0.00735294
-0.000363126
-0.00745568
-0.000313976
-0.00755958
-0.000264227
-0.00766466
-0.000214043
-0.00777092
-0.000163581
-0.00787836
-0.000113001
-0.00798701
-6.24405e-05
-0.0080969
-1.20074e-05
-0.00820801
3.79703e-05
-0.0083203
8.72007e-05
-0.00843403
0.000136574
0.000184954
-0.00854898
-0.0065896
-0.000460581
-0.00668138
-0.00041403
-0.00677419
-0.000366372
-0.00686803
-0.000317721
-0.00696298
-0.000268178
-0.00705904
-0.00021791
-0.00715623
-0.000167042
-0.00725458
-0.000115695
-0.00735411
-6.40474e-05
-0.00745484
-1.22739e-05
-0.00755679
3.95068e-05
-0.00765998
9.11914e-05
-0.00776444
0.000142422
-0.00787015
0.000192913
-0.00797743
0.000243853
0.00029353
-0.008086
-0.00625215
-0.0063377
-0.000328477
-0.00642427
-0.000279806
-0.00651186
-0.00023013
-0.00660046
-0.000179576
-0.00669015
-0.000128228
-0.00678094
-7.62511e-05
-0.00687285
-2.37807e-05
-0.00696592
2.90205e-05
-0.00706016
8.19661e-05
-0.00715561
0.000134955
-0.00725234
0.000187927
-0.00735036
0.00024044
-0.00744977
0.000292327
-0.00755074
0.000344823
0.00039587
-0.00765308
-0.00601858
-0.00609914
-0.00019924
-0.00618064
-0.000148629
-0.00626314
-9.70813e-05
-0.00634664
-4.473e-05
-0.00643117
8.28278e-06
-0.00651677
6.18149e-05
-0.00660344
0.000115696
-0.00669126
0.000169783
-0.0067803
0.000223995
-0.00687061
0.000278238
-0.00696218
0.000332005
-0.00705517
0.000385325
-0.00714978
0.00043943
0.000491909
-0.00724582
-0.00579698
-0.000124518
-0.00587254
-7.30678e-05
-0.00594898
-2.06427e-05
-0.00602631
3.26036e-05
-0.00610456
8.65314e-05
-0.00618377
0.000141029
-0.00626403
0.000195951
-0.00634536
0.000251109
-0.00642782
0.000306462
-0.00651152
0.00036194
-0.00659646
0.00041694
-0.0066828
0.000471668
-0.00677076
0.000527388
0.000581321
-0.00686017
-0.00551561
-0.00558524
-3.43684e-06
-0.00565558
4.96982e-05
-0.00572665
0.000103671
-0.00579852
0.000158395
-0.00587124
0.000213754
-0.00594485
0.000269564
-0.00601942
0.000325671
-0.00609505
0.000382098
-0.00617183
0.000438715
-0.00624972
0.000494833
-0.00632894
0.000550885
-0.00640965
0.000608105
0.00066342
-0.00649175
-0.0053162
-0.00538032
0.000113813
-0.00544498
0.000168336
-0.00551024
0.000223655
-0.00557614
0.000279649
-0.00564273
0.000336156
-0.00571009
0.000393026
-0.00577831
0.000450325
-0.00584746
0.000507864
-0.00591747
0.000564837
-0.00598855
0.000621971
-0.00606085
0.000680402
0.000736859
-0.00613429
-0.00511841
-0.00517622
0.00022615
-0.00523431
0.000281739
-0.00529272
0.000338061
-0.00535147
0.000394912
-0.00541063
0.000452183
-0.00547029
0.000509983
-0.00553043
0.000568001
-0.00559097
0.000625386
-0.00565215
0.000683143
-0.00571458
0.000742833
0.00079925
-0.00577697
-0.00491452
-0.00496451
0.000331727
-0.00501431
0.000387864
-0.00506393
0.000444531
-0.00511342
0.000501678
-0.00516285
0.000559404
-0.00521208
0.000617234
-0.00526109
0.000674395
-0.0053103
0.000732358
-0.00535994
0.000792469
0.000847672
-0.00540836
-0.00469588
-0.00473573
0.000427719
-0.00477477
0.000483565
-0.00481301
0.00053992
-0.00485036
0.000596753
-0.00488665
0.000653524
-0.00492208
0.000709831
-0.00495713
0.000767409
-0.00499122
0.000826552
0.000879122
-0.00502267
-0.00445595
-0.00448307
0.00051068
-0.00450851
0.000565361
-0.00453201
0.000620259
-0.0045536
0.000675104
-0.00457393
0.000730162
-0.00459281
0.000786293
-0.00460798
0.000841725
0.00089145
-0.00462031
-0.00418761
0.000524268
-0.00419848
0.000576234
-0.00420652
0.000628298
-0.00421205
0.000680636
-0.00421555
0.000733663
-0.00421554
0.000786281
-0.00421045
0.000836634
0.000883182
-0.00420218
-0.0038864
-0.00388159
-0.00387327
0.00061998
-0.00386167
0.000669031
-0.00384613
0.00071812
-0.00382622
0.000766377
-0.00380027
0.00081068
0.0008551
-0.00377219
-0.00352996
-0.00349862
0.000637692
-0.0034646
0.000684103
-0.00342629
0.000728064
-0.00337736
0.000761757
0.000808438
-0.0033307
-0.00312694
-0.00307254
0.000629708
-0.00301303
0.000668551
-0.00294911
0.00069784
0.000748142
-0.00288882
-0.00267154
-0.00259115
-0.00251747
0.000660576
-0.0024299
-0.001853
-0.152822
-0.000392109
-0.152857
-0.00039211
-0.152891
-0.000392111
-0.152926
-0.000392112
-0.152961
-0.000392114
-0.152996
-0.000392115
-0.15303
-0.000392116
-0.153065
-0.000392117
-0.1531
-0.000392118
-0.153135
-0.000392119
-0.153169
-0.000392121
-0.153204
-0.000392121
-0.153239
-0.000392122
-0.153274
-0.000392123
-0.000392124
-0.153308
-0.140007
-0.00036083
-0.140038
-0.000360831
-0.140069
-0.000360832
-0.140101
-0.000360833
-0.140132
-0.000360834
-0.140163
-0.000360835
-0.140195
-0.000360836
-0.140226
-0.000360837
-0.140257
-0.000360838
-0.140288
-0.000360839
-0.14032
-0.00036084
-0.140351
-0.000360841
-0.140382
-0.000360842
-0.140414
-0.000360843
-0.000360844
-0.140445
-0.127368
-0.000332026
-0.127397
-0.000332027
-0.127426
-0.000332028
-0.127455
-0.000332029
-0.127484
-0.000332031
-0.127512
-0.000332032
-0.127541
-0.000332033
-0.12757
-0.000332034
-0.127599
-0.000332036
-0.127628
-0.000332037
-0.127656
-0.000332038
-0.127685
-0.00033204
-0.127714
-0.00033204
-0.127743
-0.000332042
-0.000332043
-0.127772
-0.116275
-0.000305979
-0.116301
-0.000305981
-0.116327
-0.000305982
-0.116354
-0.000305984
-0.11638
-0.000305985
-0.116406
-0.000305986
-0.116432
-0.000305988
-0.116458
-0.000305989
-0.116484
-0.00030599
-0.11651
-0.000305992
-0.116536
-0.000305993
-0.116562
-0.000305994
-0.116588
-0.000305996
-0.116614
-0.000305997
-0.000305999
-0.11664
-0.106136
-0.000282258
-0.10616
-0.00028226
-0.106184
-0.000282261
-0.106208
-0.000282263
-0.106231
-0.000282265
-0.106255
-0.000282266
-0.106279
-0.000282267
-0.106302
-0.00028227
-0.106326
-0.000282271
-0.10635
-0.000282273
-0.106374
-0.000282274
-0.106397
-0.000282276
-0.106421
-0.000282278
-0.106445
-0.000282279
-0.000282281
-0.106468
-0.0970148
-0.000260761
-0.0970363
-0.000260762
-0.0970578
-0.000260765
-0.0970793
-0.000260766
-0.0971008
-0.000260768
-0.0971223
-0.000260769
-0.0971438
-0.000260772
-0.0971653
-0.000260773
-0.0971868
-0.000260775
-0.0972083
-0.000260777
-0.0972298
-0.000260778
-0.0972513
-0.00026078
-0.0972728
-0.000260782
-0.0972943
-0.000260784
-0.000260785
-0.0973158
-0.0887585
-0.000241258
-0.088778
-0.000241261
-0.0887975
-0.000241263
-0.088817
-0.000241264
-0.0888365
-0.000241266
-0.088856
-0.000241268
-0.0888755
-0.00024127
-0.088895
-0.000241272
-0.0889145
-0.000241274
-0.088934
-0.000241276
-0.0889535
-0.000241278
-0.088973
-0.000241279
-0.0889925
-0.000241282
-0.089012
-0.000241284
-0.000241285
-0.0890315
-0.0812983
-0.00022359
-0.081316
-0.000223592
-0.0813336
-0.000223594
-0.0813513
-0.000223596
-0.081369
-0.000223598
-0.0813866
-0.0002236
-0.0814043
-0.000223602
-0.081422
-0.000223604
-0.0814396
-0.000223606
-0.0814573
-0.000223608
-0.081475
-0.00022361
-0.0814926
-0.000223612
-0.0815103
-0.000223614
-0.081528
-0.000223616
-0.000223618
-0.0815456
-0.0745466
-0.000207582
-0.0745627
-0.000207585