/*--------------------------------*- C++ -*----------------------------------*\
  =========                 |
  \\      /  F ield         | OpenFOAM: The Open Source CFD Toolbox
   \\    /   O peration     | Website:  https://openfoam.org
    \\  /    A nd           | Version:  9
     \\/     M anipulation  |
\*---------------------------------------------------------------------------*/
FoamFile
{
    format      ascii;
    class       volVectorField;
    location    "0.0075";
    object      U;
}
// * * * * * * * * * * * * * * * * * * * * * * * * * * * * * * * * * * * * * //

dimensions      [0 1 -1 0 0 0 0];

internalField   nonuniform List<vector> 
9689
(
(24.6881 -3.87505 -7.02432e-20)
(24.6889 -3.87294 -1.12614e-15)
(24.6896 -3.87056 1.10257e-15)
(24.6903 -3.86788 2.63785e-19)
(24.6909 -3.86493 -2.58558e-19)
(24.6916 -3.8617 -4.1542e-15)
(24.6924 -3.85819 4.07554e-15)
(24.6931 -3.85442 0)
(24.6939 -3.85038 0)
(24.6948 -3.84607 -4.70876e-19)
(24.6957 -3.84151 0)
(24.6966 -3.8367 -4.54715e-19)
(24.6976 -3.83163 0)
(24.6986 -3.82631 0)
(24.6997 -3.82075 8.64975e-19)
(24.7008 -3.81496 0)
(24.7019 -3.80893 0)
(24.703 -3.80259 0)
(24.7042 -3.79597 8.12014e-19)
(24.7054 -3.78914 0)
(24.7067 -3.78208 1.29078e-14)
(24.7079 -3.77482 -1.27189e-14)
(24.7092 -3.76735 0)
(24.7106 -3.75967 1.23548e-14)
(24.7119 -3.7518 -1.218e-14)
(24.7134 -3.74374 0)
(24.7148 -3.7355 0)
(24.7163 -3.72708 0)
(24.7179 -3.71849 1.15237e-14)
(24.7195 -3.70973 -1.13698e-14)
(24.7212 -3.70082 -6.84786e-19)
(24.7229 -3.69176 0)
(24.7247 -3.68257 -1.09295e-14)
(24.7266 -3.67326 1.07895e-14)
(24.7285 -3.66379 0)
(24.7305 -3.65409 0)
(24.7324 -3.64418 1.03877e-14)
(24.7343 -3.63459 -1.02608e-14)
(24.7369 -3.62658 -1.10315e-18)
(24.7102 -3.91367 7.34545e-20)
(24.7141 -3.91247 -1.43812e-19)
(24.7184 -3.91102 2.81716e-19)
(24.7226 -3.9093 -2.76068e-19)
(24.7268 -3.90734 8.11985e-19)
(24.731 -3.90512 0)
(24.7351 -3.90266 0)
(24.7392 -3.89996 0)
(24.7434 -3.897 -4.11557e-15)
(24.7475 -3.89381 4.04154e-15)
(24.7516 -3.89038 9.69742e-19)
(24.7558 -3.88671 7.8106e-15)
(24.7599 -3.8828 -4.77287e-21)
(24.7641 -3.87865 -7.55263e-15)
(24.7682 -3.87427 -9.07054e-19)
(24.7723 -3.86965 1.78523e-18)
(24.7765 -3.86481 -1.75726e-18)
(24.7806 -3.85974 0)
(24.7847 -3.85444 -6.97971e-15)
(24.7887 -3.84891 3.8361e-21)
(24.7928 -3.84317 3.72378e-21)
(24.7968 -3.83721 6.67424e-15)
(24.8008 -3.83103 1.60574e-18)
(24.8047 -3.8246 7.91423e-19)
(24.8086 -3.81792 -1.27837e-14)
(24.8124 -3.81105 1.26068e-14)
(24.8163 -3.80398 0)
(24.82 -3.79673 1.22646e-14)
(24.8237 -3.78928 1.47124e-18)
(24.8274 -3.78165 -1.19405e-14)
(24.831 -3.77384 1.17827e-14)
(24.8346 -3.76586 -1.16273e-14)
(24.8382 -3.75772 0)
(24.8417 -3.74942 -1.38334e-18)
(24.8452 -3.74094 -1.11894e-14)
(24.8487 -3.73228 1.10494e-14)
(24.8521 -3.72348 0)
(24.8556 -3.71484 1.31575e-18)
(24.8593 -3.7065 1.15327e-18)
(24.713 -3.93825 -3.15671e-16)
(24.7184 -3.93731 -6.18533e-16)
(24.7237 -3.93611 -1.21141e-15)
(24.7289 -3.93466 4.74974e-15)
(24.7341 -3.93298 -2.32951e-15)
(24.7392 -3.93107 2.28489e-15)
(24.7442 -3.92891 2.2426e-15)
(24.7493 -3.92653 -4.4039e-15)
(24.7543 -3.92392 -4.32458e-15)
(24.7594 -3.92108 8.50151e-15)
(24.7644 -3.91802 -8.35602e-15)
(24.7694 -3.91473 4.10628e-15)
(24.7744 -3.91122 4.03941e-15)
(24.7794 -3.90749 -1.19213e-14)
(24.7845 -3.90355 7.82233e-15)
(24.7895 -3.89939 7.69349e-15)
(24.7945 -3.89502 -7.576e-15)
(24.7994 -3.89044 1.82176e-18)
(24.8044 -3.88565 -7.34769e-15)
(24.8093 -3.88065 7.24019e-15)
(24.8142 -3.87546 0)
(24.8191 -3.87006 7.03231e-15)
(24.8239 -3.86447 -6.93172e-15)
(24.8287 -3.85869 -2.63396e-23)
(24.8335 -3.85272 0)
(24.8381 -3.84656 0)
(24.8428 -3.84022 -6.55625e-15)
(24.8474 -3.83371 6.46147e-15)
(24.8519 -3.82703 -1.55723e-18)
(24.8564 -3.8201 -1.5366e-18)
(24.8608 -3.81295 1.24266e-14)
(24.8651 -3.80565 -1.22643e-14)
(24.8694 -3.7982 -1.21057e-14)
(24.8737 -3.7906 1.19565e-14)
(24.8779 -3.78285 0)
(24.882 -3.77492 -1.1655e-14)
(24.8862 -3.76681 2.30252e-14)
(24.8904 -3.7587 -1.13677e-14)
(24.8948 -3.75101 0)
(24.7195 -3.98807 -3.29956e-16)
(24.7269 -3.98761 3.15938e-19)
(24.7342 -3.9869 -1.26885e-15)
(24.7414 -3.98595 1.24348e-15)
(24.7485 -3.98474 0)
(24.7556 -3.9833 -1.16893e-18)
(24.7626 -3.98161 0)
(24.7695 -3.97969 -1.12702e-18)
(24.7764 -3.97753 -2.21448e-18)
(24.7833 -3.97514 -4.45715e-15)
(24.7902 -3.97252 4.38179e-15)
(24.7971 -3.96968 -2.10398e-18)
(24.8039 -3.96661 -4.23651e-15)
(24.8107 -3.96331 8.34093e-15)
(24.8175 -3.9598 -4.1085e-15)
(24.8243 -3.95606 4.04251e-15)
(24.8311 -3.95211 3.97656e-15)
(24.8378 -3.94794 -1.92567e-18)
(24.8445 -3.94355 -1.54412e-14)
(24.8511 -3.93896 7.6097e-15)
(24.8577 -3.93416 -3.65985e-18)
(24.8643 -3.92915 -1.80369e-18)
(24.8708 -3.92394 -3.55619e-18)
(24.8773 -3.91852 -5.2596e-18)
(24.8837 -3.91291 -7.08517e-15)
(24.89 -3.90711 6.98481e-15)
(24.8962 -3.90111 3.36441e-18)
(24.9024 -3.89493 3.31937e-18)
(24.9085 -3.88856 0)
(24.9145 -3.88202 6.62004e-15)
(24.9204 -3.87529 -6.38947e-18)
(24.9262 -3.86839 -6.45019e-15)
(24.9319 -3.86132 0)
(24.9375 -3.85408 -3.07027e-18)
(24.9431 -3.8467 -1.24187e-14)
(24.9485 -3.83915 2.45332e-14)
(24.9537 -3.83141 -1.21177e-14)
(24.9589 -3.82354 -5.01844e-23)
(24.964 -3.81562 0)
(24.7191 -4.0446 -3.37109e-19)
(24.728 -4.04446 -1.353e-15)
(24.7367 -4.04406 1.32706e-15)
(24.7452 -4.04342 -1.30092e-15)
(24.7537 -4.04252 1.27647e-15)
(24.7621 -4.04138 -2.50475e-15)
(24.7704 -4.04 4.92046e-15)
(24.7786 -4.03838 -2.41856e-15)
(24.7868 -4.03653 4.63969e-18)
(24.7949 -4.03444 0)
(24.803 -4.03213 -4.59234e-15)
(24.8111 -4.02958 4.52144e-15)
(24.8191 -4.02681 -2.17001e-18)
(24.8271 -4.02382 0)
(24.8351 -4.02061 2.10219e-18)
(24.843 -4.01718 0)
(24.8509 -4.01353 2.03843e-18)
(24.8588 -4.00967 -4.01582e-18)
(24.8666 -4.0056 4.05549e-15)
(24.8744 -4.00132 -3.99643e-15)
(24.8821 -3.99683 3.84291e-18)
(24.8898 -3.99214 7.75844e-15)
(24.8974 -3.98725 -1.52917e-14)
(24.905 -3.98216 1.50907e-14)
(24.9125 -3.97688 -7.43645e-15)
(24.9199 -3.97141 0)
(24.9273 -3.96574 -7.24075e-15)
(24.9345 -3.9599 7.14118e-15)
(24.9417 -3.95387 -3.44276e-18)
(24.9489 -3.94766 3.39805e-18)
(24.9559 -3.94127 6.87289e-15)
(24.9628 -3.93472 -6.78527e-15)
(24.9697 -3.92799 0)
(24.9764 -3.9211 -6.61571e-15)
(24.9831 -3.91405 1.01861e-20)
(24.9896 -3.90685 1.28941e-14)
(24.9961 -3.89949 -3.12057e-18)
(25.0024 -3.89194 -6.29773e-15)
(25.0086 -3.88421 -2.64941e-18)
(24.7176 -4.11505 -7.20835e-16)
(24.7281 -4.11526 7.06228e-16)
(24.7384 -4.11522 1.38516e-15)
(24.7486 -4.11491 -1.35899e-15)
(24.7586 -4.11434 0)
(24.7685 -4.11353 0)
(24.7784 -4.11246 2.57413e-15)
(24.7881 -4.11115 -5.05374e-15)
(24.7978 -4.10959 2.48252e-15)
(24.8074 -4.10779 0)
(24.817 -4.10575 -4.80613e-15)
(24.8265 -4.10348 4.72605e-15)
(24.836 -4.10097 2.27201e-18)
(24.8454 -4.09822 4.57794e-15)
(24.8548 -4.09525 -4.51172e-15)
(24.8641 -4.09205 0)
(24.8734 -4.08863 0)
(24.8826 -4.08498 4.31394e-15)
(24.8918 -4.08112 -4.15745e-18)
(24.9009 -4.07703 -4.18574e-15)
(24.91 -4.07273 4.12219e-15)
(24.919 -4.06822 -9.35282e-21)
(24.928 -4.0635 -4.01571e-15)
(24.9368 -4.05858 0)
(24.9456 -4.05345 0)
(24.9544 -4.04812 0)
(24.963 -4.04259 0)
(24.9716 -4.03687 -7.49178e-15)
(24.98 -4.03096 7.24348e-18)
(24.9884 -4.02486 7.30613e-15)
(24.9966 -4.01858 0)
(25.0048 -4.01212 7.12861e-15)
(25.0128 -4.00549 -7.03244e-15)
(25.0207 -3.99868 6.78233e-18)
(25.0285 -3.99171 0)
(25.0362 -3.98458 5.27055e-23)
(25.0438 -3.9773 3.26855e-18)
(25.0512 -3.96986 -6.61684e-15)
(25.0585 -3.96222 5.66906e-15)
(24.7123 -4.19491 3.66743e-19)
(24.7242 -4.19545 7.36489e-16)
(24.736 -4.19572 7.22505e-16)
(24.7475 -4.19571 -4.25453e-21)
(24.759 -4.19544 -1.39103e-15)
(24.7703 -4.19491 -1.36756e-15)
(24.7815 -4.19412 1.34629e-15)
(24.7927 -4.19307 -2.57936e-18)
(24.8037 -4.19177 2.59684e-15)
(24.8147 -4.19022 -7.52229e-21)
(24.8256 -4.18842 -2.51249e-15)
(24.8364 -4.18638 0)
(24.8471 -4.18409 4.86473e-15)
(24.8578 -4.18157 -9.57907e-15)
(24.8684 -4.1788 9.44011e-15)
(24.879 -4.1758 -4.64355e-15)
(24.8895 -4.17257 0)
(24.9 -4.16911 0)
(24.9104 -4.16543 -4.34316e-18)
(24.9207 -4.16152 4.28136e-18)
(24.931 -4.15739 4.32674e-15)
(24.9412 -4.15304 -4.2625e-15)
(24.9513 -4.14847 -4.10542e-18)
(24.9614 -4.1437 0)
(24.9713 -4.13871 0)
(24.9812 -4.13352 -8.07368e-15)
(24.991 -4.12813 7.96752e-15)
(25.0008 -4.12253 -5.10093e-23)
(25.0104 -4.11674 -3.79024e-18)
(25.0199 -4.11076 0)
(25.0293 -4.10459 7.56625e-15)
(25.0386 -4.09824 -3.66556e-18)
(25.0478 -4.0917 -1.47534e-14)
(25.0569 -4.08498 7.28762e-15)
(25.0659 -4.07809 0)
(25.0747 -4.07103 3.47237e-18)
(25.0834 -4.06381 7.0259e-15)
(25.092 -4.05641 -6.94216e-15)
(25.1004 -4.04879 -5.91426e-15)
(24.7045 -4.28586 -1.95536e-16)
(24.718 -4.28674 -3.8286e-16)
(24.7312 -4.28732 1.47309e-18)
(24.7443 -4.28763 7.39185e-16)
(24.7573 -4.28766 -1.41792e-18)
(24.7701 -4.28742 -1.42788e-15)
(24.7828 -4.2869 1.39649e-15)
(24.7953 -4.28612 5.38398e-18)
(24.8078 -4.28507 -2.64738e-18)
(24.8202 -4.28375 0)
(24.8325 -4.28218 2.62412e-15)
(24.8447 -4.28035 -2.58283e-15)
(24.8568 -4.27827 -2.54531e-15)
(24.8689 -4.27593 2.5016e-15)
(24.8808 -4.27334 0)
(24.8927 -4.27051 4.85975e-15)
(24.9046 -4.26743 -9.57283e-15)
(24.9163 -4.26412 4.71971e-15)
(24.928 -4.26056 4.43597e-23)
(24.9396 -4.25677 -8.95921e-18)
(24.9512 -4.25275 4.52339e-15)
(24.9626 -4.2485 -8.92259e-15)
(24.974 -4.24402 8.60838e-18)
(24.9853 -4.23932 4.34164e-15)
(24.9965 -4.2344 -4.18351e-18)
(25.0076 -4.22927 -4.23172e-15)
(25.0186 -4.22392 1.19414e-20)
(25.0295 -4.21837 4.11071e-15)
(25.0403 -4.21261 -4.06613e-15)
(25.051 -4.20665 8.02935e-15)
(25.0616 -4.2005 -1.1893e-14)
(25.072 -4.19415 1.56563e-14)
(25.0824 -4.18761 -1.54709e-14)
(25.0926 -4.18089 1.96273e-20)
(25.1027 -4.17398 7.54639e-15)
(25.1127 -4.1669 -3.6404e-18)
(25.1225 -4.15966 -7.36662e-15)
(25.1322 -4.15222 7.2794e-15)
(25.1417 -4.14458 3.01252e-18)
(24.6936 -4.38674 4.06488e-16)
(24.7086 -4.38795 3.97704e-16)
(24.7234 -4.38886 -7.8698e-16)
(24.7379 -4.38948 0)
(24.7523 -4.38981 0)
(24.7666 -4.38985 2.90361e-18)
(24.7807 -4.3896 2.85451e-18)
(24.7947 -4.38907 1.43722e-15)
(24.8086 -4.38827 -1.41102e-15)
(24.8224 -4.38719 0)
(24.8361 -4.38584 0)
(24.8497 -4.38421 -2.69847e-15)
(24.8631 -4.38232 9.71432e-21)
(24.8765 -4.38017 2.61983e-15)
(24.8899 -4.37775 0)
(24.9031 -4.37507 -4.95759e-18)
(24.9162 -4.37214 -4.41939e-23)
(24.9293 -4.36896 4.81645e-18)
(24.9423 -4.36553 4.74877e-18)
(24.9552 -4.36185 4.6828e-18)
(24.968 -4.35792 -4.72469e-15)
(24.9807 -4.35376 4.66968e-15)
(24.9933 -4.34936 -4.49463e-18)
(25.0058 -4.34473 0)
(25.0182 -4.33987 4.3766e-18)
(25.0305 -4.33478 8.63919e-18)
(25.0427 -4.32947 -4.26387e-18)
(25.0548 -4.32394 4.20946e-18)
(25.0668 -4.3182 4.2559e-15)
(25.0787 -4.31225 -4.20253e-15)
(25.0905 -4.30609 4.05296e-18)
(25.1021 -4.29973 4.10308e-15)
(25.1136 -4.29318 -4.045e-15)
(25.125 -4.28642 -3.90611e-18)
(25.1362 -4.27948 3.85903e-18)
(25.1473 -4.27235 3.81299e-18)
(25.1583 -4.26505 0)
(25.1691 -4.25756 7.62928e-15)
(25.1798 -4.24983 -6.42998e-15)
(24.6964 -4.49957 -8.29631e-16)
(24.7127 -4.50082 8.17119e-16)
(24.7288 -4.50176 7.99613e-16)
(24.7448 -4.50239 -7.85828e-16)
(24.7605 -4.50272 -7.25483e-24)
(24.7761 -4.50275 2.97329e-18)
(24.7916 -4.50249 1.49452e-15)
(24.807 -4.50193 -1.47626e-15)
(24.8222 -4.50109 0)
(24.8373 -4.49996 2.85513e-15)
(24.8523 -4.49854 -2.80871e-15)
(24.8672 -4.49684 2.03474e-23)
(24.882 -4.49487 -1.06562e-17)
(24.8968 -4.49261 -5.2501e-18)
(24.9114 -4.49009 0)
(24.9259 -4.48729 2.60131e-15)
(24.9403 -4.48423 -5.15961e-15)
(24.9546 -4.4809 2.54396e-15)
(24.9688 -4.47731 0)
(24.9829 -4.47347 -4.82451e-18)
(24.9969 -4.46936 -9.51943e-18)
(25.0108 -4.46501 4.69646e-18)
(25.0246 -4.46042 0)
(25.0383 -4.45558 0)
(25.0519 -4.45051 -4.51547e-18)
(25.0653 -4.4452 4.4578e-18)
(25.0786 -4.43966 0)
(25.0919 -4.43389 0)
(25.1049 -4.42791 0)
(25.1179 -4.42171 -4.23919e-18)
(25.1307 -4.41529 -4.28778e-15)
(25.1434 -4.40867 8.47149e-15)
(25.1559 -4.40184 -4.18474e-15)
(25.1683 -4.39482 -4.03783e-18)
(25.1806 -4.3876 3.98985e-18)
(25.1927 -4.38021 -4.04144e-15)
(25.2046 -4.37261 1.20719e-20)
(25.2164 -4.36477 3.34753e-15)
(24.6812 -4.62138 4.31514e-16)
(24.6991 -4.62298 -4.23909e-16)
(24.7167 -4.62425 6.58601e-24)
(24.7342 -4.6252 -8.20664e-16)
(24.7515 -4.62583 8.03874e-16)
(24.7686 -4.62615 -3.09484e-18)
(24.7856 -4.62615 0)
(24.8024 -4.62585 5.9938e-18)
(24.8191 -4.62525 1.51348e-15)
(24.8357 -4.62434 -2.97478e-15)
(24.8522 -4.62313 4.39485e-15)
(24.8686 -4.62162 -2.88072e-15)
(24.8848 -4.61982 5.55484e-18)
(24.901 -4.61773 1.09491e-17)
(24.917 -4.61535 -2.76841e-15)
(24.9329 -4.61268 2.72946e-15)
(24.9487 -4.60973 5.24663e-18)
(24.9644 -4.60651 -5.17457e-18)
(24.98 -4.60301 0)
(24.9954 -4.59924 2.57326e-15)
(25.0108 -4.59521 -2.53908e-15)
(25.026 -4.59091 2.50569e-15)
(25.0411 -4.58636 -2.47792e-15)
(25.0561 -4.58155 -4.77726e-18)
(25.071 -4.57649 0)
(25.0857 -4.57118 0)
(25.1003 -4.56563 0)
(25.1147 -4.55984 -4.54093e-18)
(25.1291 -4.55382 -4.48491e-18)
(25.1433 -4.54757 0)
(25.1573 -4.54109 -4.37622e-18)
(25.1712 -4.5344 4.41861e-15)
(25.1849 -4.52749 -8.7486e-15)
(25.1985 -4.52036 4.32234e-15)
(25.212 -4.51304 4.26717e-15)
(25.2252 -4.50552 4.10793e-18)
(25.2384 -4.49779 -1.39881e-20)
(25.2513 -4.4898 -3.40739e-18)
(24.6629 -4.75367 -2.23213e-16)
(24.6824 -4.75563 8.80845e-16)
(24.7016 -4.75724 -8.64226e-16)
(24.7207 -4.75852 8.51511e-16)
(24.7396 -4.75946 -8.35967e-16)
(24.7583 -4.76007 -1.64828e-15)
(24.7768 -4.76036 1.62222e-15)
(24.7952 -4.76031 -3.11906e-18)
(24.8135 -4.75995 1.56939e-15)
(24.8316 -4.75927 -1.55175e-15)
(24.8496 -4.75827 -1.52269e-15)
(24.8675 -4.75696 1.50037e-15)
(24.8852 -4.75534 2.966e-15)
(24.9029 -4.75341 -1.14235e-17)
(24.9204 -4.75117 -2.87409e-15)
(24.9377 -4.74864 0)
(24.955 -4.74581 5.46994e-18)
(24.9721 -4.74269 0)
(24.9891 -4.73928 5.32316e-18)
(25.006 -4.73559 1.05049e-17)
(25.0227 -4.73161 0)
(25.0394 -4.72736 0)
(25.0558 -4.72284 -5.04988e-18)
(25.0722 -4.71804 -2.54753e-15)
(25.0884 -4.71298 1.0981e-20)
(25.1044 -4.70766 2.48859e-15)
(25.1204 -4.70209 0)
(25.1361 -4.69626 9.48153e-18)
(25.1517 -4.69019 4.68274e-18)
(25.1672 -4.68388 0)
(25.1825 -4.67733 4.57003e-18)
(25.1977 -4.67054 9.03052e-18)
(25.2126 -4.66353 0)
(25.2275 -4.6563 0)
(25.2421 -4.64885 0)
(25.2566 -4.64121 -4.41397e-15)
(25.2709 -4.63334 -4.24031e-18)
(25.285 -4.62519 7.22604e-15)
(24.6414 -4.89658 -9.08673e-19)
(24.6626 -4.89892 0)
(24.6835 -4.90089 -1.75677e-18)
(24.7042 -4.90251 0)
(24.7247 -4.90378 8.6887e-16)
(24.745 -4.90469 -8.56825e-16)
(24.7652 -4.90527 3.29489e-18)
(24.7852 -4.9055 -1.66437e-15)
(24.8051 -4.90539 1.63604e-15)
(24.8248 -4.90494 3.14781e-18)
(24.8444 -4.90416 -3.10161e-18)
(24.8638 -4.90305 1.56502e-15)
(24.8831 -4.90161 -1.5457e-15)
(24.9023 -4.89985 1.18823e-17)
(24.9213 -4.89777 2.99952e-15)
(24.9402 -4.89538 -2.9525e-15)
(24.959 -4.89267 -5.69937e-18)
(24.9776 -4.88966 -2.87883e-15)
(24.9961 -4.88634 2.83502e-15)
(25.0144 -4.88271 -5.475e-18)
(25.0326 -4.8788 2.76666e-15)
(25.0507 -4.87459 -2.73098e-15)
(25.0686 -4.87009 2.70132e-15)
(25.0864 -4.86531 -2.66191e-15)
(25.104 -4.86025 -5.1337e-18)
(25.1214 -4.85492 0)
(25.1387 -4.84931 0)
(25.1559 -4.84344 -4.94582e-18)
(25.1728 -4.83731 0)
(25.1896 -4.83093 0)
(25.2063 -4.82429 -2.43681e-15)
(25.2227 -4.81741 2.4078e-15)
(25.239 -4.81029 4.76791e-15)
(25.2551 -4.80294 -4.71188e-15)
(25.271 -4.79536 -4.65681e-15)
(25.2867 -4.78756 4.61174e-15)
(25.3022 -4.77954 4.55405e-15)
(25.3176 -4.77123 -3.7475e-15)
(24.6166 -5.05044 2.42316e-16)
(24.6395 -5.05317 0)
(24.6621 -5.05552 1.82405e-18)
(24.6846 -5.05749 -9.18926e-16)
(24.7068 -5.05909 9.02668e-16)
(24.7288 -5.06033 8.90386e-16)
(24.7507 -5.0612 -1.75695e-15)
(24.7724 -5.06171 8.66911e-16)
(24.7939 -5.06186 3.32296e-18)
(24.8153 -5.06166 1.6731e-15)
(24.8365 -5.0611 -3.3042e-15)
(24.8576 -5.0602 1.63167e-15)
(24.8785 -5.05896 -1.60551e-15)
(24.8993 -5.05737 -6.17531e-18)
(24.9199 -5.05545 8.70639e-21)
(24.9404 -5.0532 1.5341e-15)
(24.9608 -5.05061 0)
(24.981 -5.0477 -5.85612e-18)
(25.001 -5.04447 -5.77899e-18)
(25.0209 -5.04093 -5.70364e-18)
(25.0406 -5.03707 -2.88256e-15)
(25.0602 -5.0329 1.5056e-20)
(25.0796 -5.02843 2.80412e-15)
(25.0988 -5.02365 2.77969e-15)
(25.1179 -5.01859 -2.73969e-15)
(25.1368 -5.01323 2.70579e-15)
(25.1556 -5.0076 -2.67259e-15)
(25.1741 -5.00168 -2.63486e-15)
(25.1925 -4.99548 1.28235e-20)
(25.2107 -4.98902 5.14847e-15)
(25.2287 -4.9823 -5.092e-15)
(25.2465 -4.97531 4.92557e-18)
(25.2641 -4.96807 2.48618e-15)
(25.2816 -4.96059 -4.79889e-18)
(25.2988 -4.95286 0)
(25.3158 -4.94491 -4.6882e-18)
(25.3326 -4.93673 0)
(25.3492 -4.92823 -3.80083e-18)
(24.5885 -5.21556 2.49391e-16)
(24.6132 -5.2187 -9.62034e-19)
(24.6376 -5.22144 0)
(24.6618 -5.22379 -1.86338e-18)
(24.6858 -5.22574 3.66898e-18)
(24.7096 -5.2273 0)
(24.7333 -5.22848 0)
(24.7567 -5.22928 8.97461e-16)
(24.78 -5.2297 -8.8776e-16)
(24.8031 -5.22975 3.4043e-18)
(24.826 -5.22943 0)
(24.8488 -5.22875 -3.30826e-18)
(24.8714 -5.2277 0)
(24.8939 -5.2263 3.21716e-18)
(24.9162 -5.22453 -1.63111e-15)
(24.9384 -5.22242 1.60289e-15)
(24.9604 -5.21996 0)
(24.9822 -5.21716 6.09644e-18)
(25.0038 -5.21402 -1.53429e-15)
(25.0253 -5.21055 1.5204e-15)
(25.0467 -5.20675 -5.86291e-18)
(25.0678 -5.20262 5.78847e-18)
(25.0888 -5.19817 2.93211e-15)
(25.1096 -5.19341 -2.90115e-15)
(25.1302 -5.18834 5.57436e-18)
(25.1506 -5.18296 2.82445e-15)
(25.1709 -5.17728 -5.56909e-15)
(25.1909 -5.17131 2.7508e-15)
(25.2108 -5.16504 0)
(25.2304 -5.1585 1.04889e-17)
(25.2499 -5.15168 2.64806e-15)
(25.2691 -5.14458 -2.62702e-15)
(25.2881 -5.13722 0)
(25.3069 -5.12959 -2.56083e-15)
(25.3256 -5.12171 5.06219e-15)
(25.3439 -5.1136 -2.50185e-15)
(25.3621 -5.10524 0)
(25.38 -5.09656 0)
(24.5568 -5.39235 0)
(24.5834 -5.39592 9.97945e-19)
(24.6097 -5.39906 -5.02904e-16)
(24.6358 -5.40179 4.95121e-16)
(24.6617 -5.40411 -1.90459e-18)
(24.6874 -5.40601 -1.87597e-18)
(24.7129 -5.40751 9.42575e-16)
(24.7381 -5.40861 -9.32438e-16)
(24.7632 -5.40931 0)
(24.7882 -5.40962 0)
(24.8129 -5.40953 -3.48847e-18)
(24.8375 -5.40907 -1.76118e-15)
(24.8619 -5.40823 1.13684e-20)
(24.8861 -5.407 1.7099e-15)
(24.9102 -5.40541 3.30111e-18)
(24.9341 -5.40344 6.51402e-18)
(24.9578 -5.40111 6.42803e-18)
(24.9813 -5.39841 0)
(25.0047 -5.39537 0)
(25.0278 -5.39196 1.23631e-17)
(25.0508 -5.38822 6.103e-18)
(25.0736 -5.38413 -1.54867e-15)
(25.0963 -5.3797 1.52336e-15)
(25.1187 -5.37494 1.17534e-17)
(25.1409 -5.36986 2.96599e-15)
(25.1629 -5.36445 -2.94119e-15)
(25.1847 -5.35873 0)
(25.2063 -5.3527 2.85916e-15)
(25.2277 -5.34636 -2.83041e-15)
(25.2489 -5.33973 -5.46226e-18)
(25.2699 -5.3328 -2.76889e-15)
(25.2906 -5.32558 2.73627e-15)
(25.3111 -5.31809 0)
(25.3314 -5.31031 5.2099e-18)
(25.3514 -5.30227 5.14936e-18)
(25.3712 -5.29399 2.60096e-15)
(25.3908 -5.28545 -2.57612e-15)
(25.4101 -5.27657 2.0955e-15)
(24.5216 -5.58125 -2.69184e-16)
(24.5502 -5.58526 5.29915e-16)
(24.5785 -5.58882 -2.58827e-16)
(24.6066 -5.59195 5.17806e-16)
(24.6344 -5.59463 -1.98058e-18)
(24.662 -5.59689 -4.9862e-16)
(24.6895 -5.59872 7.67731e-18)
(24.7167 -5.60012 -9.68538e-16)
(24.7437 -5.60111 9.54752e-16)
(24.7705 -5.60168 9.41295e-16)
(24.7972 -5.60183 3.61913e-18)
(24.8236 -5.60159 -1.83077e-15)
(24.8499 -5.60095 9.06433e-16)
(24.876 -5.59991 -1.78492e-15)
(24.9018 -5.59848 1.7611e-15)
(24.9276 -5.59666 -1.01627e-17)
(24.9531 -5.59445 -1.71841e-15)
(24.9784 -5.59186 1.68954e-15)
(25.0035 -5.5889 -1.66781e-15)
(25.0285 -5.58557 1.64014e-15)
(25.0532 -5.58188 -1.62576e-15)
(25.0778 -5.57782 1.60538e-15)
(25.1021 -5.57342 -1.5854e-15)
(25.1262 -5.56866 -6.10638e-18)
(25.1501 -5.56356 1.20928e-17)
(25.1738 -5.55812 3.05553e-15)
(25.1973 -5.55235 -3.02443e-15)
(25.2205 -5.54625 1.49693e-15)
(25.2435 -5.53983 2.94651e-15)
(25.2663 -5.5331 -2.91148e-15)
(25.2888 -5.52606 2.87701e-15)
(25.3111 -5.51872 -2.84871e-15)
(25.3331 -5.51109 -2.81532e-15)
(25.3549 -5.50316 1.60313e-20)
(25.3765 -5.49495 2.73951e-15)
(25.3978 -5.48648 -2.70785e-15)
(25.4188 -5.47775 2.68195e-15)
(25.4396 -5.46866 -4.23195e-18)
(24.5135 -5.78722 0)
(24.5439 -5.79121 5.39074e-16)
(24.574 -5.79474 -5.35188e-16)
(24.604 -5.7978 2.05176e-18)
(24.6336 -5.80041 -5.15591e-16)
(24.6631 -5.80257 5.062e-16)
(24.6923 -5.80429 3.92923e-18)
(24.7214 -5.80556 9.91764e-16)
(24.7502 -5.8064 -7.46845e-21)
(24.7788 -5.8068 -1.92905e-15)
(24.8073 -5.80678 9.51383e-16)
(24.8355 -5.80633 -9.42206e-16)
(24.8635 -5.80547 9.26009e-16)
(24.8913 -5.8042 0)
(24.9189 -5.80252 -8.98253e-16)
(24.9464 -5.80044 8.90072e-16)
(24.9736 -5.79796 0)
(25.0006 -5.79508 -6.77647e-18)
(25.0273 -5.79182 -6.69066e-18)
(25.0539 -5.78817 -6.60658e-18)
(25.0803 -5.78415 0)
(25.1064 -5.77975 -6.44337e-18)
(25.1323 -5.77499 -1.62285e-15)
(25.158 -5.76986 1.60303e-15)
(25.1834 -5.76439 -1.58975e-15)
(25.2086 -5.75856 6.14562e-18)
(25.2335 -5.75239 -6.05101e-18)
(25.2582 -5.74588 5.99893e-18)
(25.2826 -5.73905 1.51494e-15)
(25.3068 -5.73189 -1.49117e-15)
(25.3308 -5.72442 1.4794e-15)
(25.3544 -5.71663 1.46777e-15)
(25.3778 -5.70854 1.44499e-15)
(25.4009 -5.70015 -2.862e-15)
(25.4238 -5.69149 0)
(25.4464 -5.68257 5.45071e-18)
(25.4686 -5.67326 -4.38285e-18)
(24.4733 -6.00231 5.69832e-16)
(24.5059 -6.00673 2.19043e-18)
(24.5383 -6.01066 -2.76556e-16)
(24.5704 -6.01411 0)
(24.6022 -6.01708 0)
(24.6338 -6.01958 -5.31771e-16)
(24.6652 -6.02161 5.18218e-16)
(24.6963 -6.02317 4.02393e-18)
(24.7273 -6.02427 3.96875e-18)
(24.758 -6.02492 -1.00219e-15)
(24.7885 -6.02512 9.88693e-16)
(24.8188 -6.02487 -9.75482e-16)
(24.8488 -6.02419 1.92891e-15)
(24.8787 -6.02306 -9.49955e-16)
(24.9083 -6.02151 0)
(24.9377 -6.01954 0)
(24.9669 -6.01716 -9.13673e-16)
(24.9959 -6.01436 -8.87977e-16)
(25.0246 -6.01116 1.78841e-15)
(25.0531 -6.00756 1.16466e-22)
(25.0813 -6.00355 -1.73731e-15)
(25.1093 -5.99916 6.71557e-18)
(25.1371 -5.99439 1.68822e-15)
(25.1646 -5.98923 -6.53966e-18)
(25.1918 -5.98371 0)
(25.2188 -5.97782 0)
(25.2456 -5.97157 -1.61432e-15)
(25.272 -5.96496 1.58259e-15)
(25.2982 -5.95802 0)
(25.3241 -5.95073 -1.55743e-15)
(25.3498 -5.94311 1.04568e-20)
(25.3751 -5.93516 1.51508e-15)
(25.4002 -5.9269 1.50322e-15)
(25.4249 -5.91832 -1.47991e-15)
(25.4494 -5.90946 -1.46272e-15)
(25.4736 -5.90033 2.89159e-15)
(25.4974 -5.89079 -2.31905e-15)
(24.4297 -6.23107 -1.15411e-18)
(24.4647 -6.23592 2.88862e-16)
(24.4993 -6.24026 -2.8694e-16)
(24.5337 -6.2441 0)
(24.5678 -6.24742 5.57736e-16)
(24.6017 -6.25026 -5.45677e-16)
(24.6353 -6.25259 0)
(24.6687 -6.25444 -8.35914e-18)
(24.7019 -6.25581 -5.31864e-16)
(24.7348 -6.2567 5.20658e-16)
(24.7675 -6.25712 -1.02743e-15)
(24.7999 -6.25707 1.0099e-15)
(24.8321 -6.25656 0)
(24.8641 -6.25559 0)
(24.8958 -6.25417 3.80775e-18)
(24.9273 -6.2523 9.62304e-16)
(24.9586 -6.25 -9.50079e-16)
(24.9896 -6.24726 -9.41745e-16)
(25.0203 -6.2441 3.62603e-18)
(25.0508 -6.24052 9.21938e-16)
(25.0811 -6.23652 9.03461e-16)
(25.1111 -6.23213 -8.85379e-16)
(25.1408 -6.22733 6.88608e-18)
(25.1702 -6.22214 6.8024e-18)
(25.1994 -6.21655 -6.71987e-18)
(25.2283 -6.21059 -1.7062e-15)
(25.2569 -6.20425 1.68574e-15)
(25.2852 -6.19754 1.66559e-15)
(25.3132 -6.19047 -1.64578e-15)
(25.3409 -6.18304 -6.32779e-18)
(25.3683 -6.17527 0)
(25.3954 -6.16715 6.17958e-18)
(25.4222 -6.1587 6.10692e-18)
(25.4487 -6.14992 0)
(25.4748 -6.14085 -5.96522e-18)
(25.5007 -6.1315 1.17915e-17)
(25.5261 -6.12173 1.20282e-15)
(24.3828 -6.47406 4.60815e-16)
(24.4202 -6.47934 -3.032e-16)
(24.4572 -6.48409 -2.32608e-18)
(24.494 -6.4883 -2.29349e-18)
(24.5306 -6.49198 0)
(24.5668 -6.49514 -2.23071e-18)
(24.6028 -6.49778 -5.63295e-16)
(24.6386 -6.49991 1.11576e-15)
(24.6741 -6.50154 -5.48285e-16)
(24.7093 -6.50266 -5.41004e-16)
(24.7443 -6.50329 5.33878e-16)
(24.779 -6.50343 1.05788e-15)
(24.8135 -6.50308 -2.07608e-15)
(24.8477 -6.50226 1.02665e-15)
(24.8817 -6.50096 -1.01744e-15)
(24.9153 -6.4992 1.00059e-15)
(24.9488 -6.49698 0)
(24.9819 -6.4943 -3.81067e-18)
(25.0148 -6.49118 -7.39696e-23)
(25.0474 -6.48761 9.55096e-16)
(25.0798 -6.48361 -9.32302e-16)
(25.1118 -6.47919 -9.35346e-16)
(25.1436 -6.47434 9.096e-16)
(25.1751 -6.46908 -7.07497e-18)
(25.2062 -6.46342 6.98946e-18)
(25.2371 -6.45736 1.7677e-15)
(25.2676 -6.45091 -1.7533e-15)
(25.2979 -6.44408 -1.7323e-15)
(25.3278 -6.43688 1.71165e-15)
(25.3574 -6.4293 -1.67813e-15)
(25.3867 -6.42136 -6.48995e-18)
(25.4156 -6.41307 -6.4134e-18)
(25.4442 -6.40442 1.61933e-15)
(25.4725 -6.39542 0)
(25.5004 -6.38613 1.58769e-15)
(25.528 -6.37655 -1.57525e-15)
(25.5551 -6.36654 -4.86417e-18)
(24.3327 -6.73185 1.24152e-18)
(24.3726 -6.73755 1.22406e-18)
(24.4123 -6.74269 2.41405e-18)
(24.4516 -6.74727 2.3808e-18)
(24.4907 -6.75129 0)
(24.5295 -6.75477 0)
(24.568 -6.75771 -5.85091e-16)
(24.6062 -6.76011 5.77318e-16)
(24.6441 -6.76198 4.4507e-18)
(24.6818 -6.76333 0)
(24.7192 -6.76415 -5.54889e-16)
(24.7563 -6.76447 1.09111e-15)
(24.7932 -6.76428 -5.44863e-16)
(24.8297 -6.76359 0)
(24.866 -6.76241 1.0497e-15)
(24.902 -6.76074 -1.04049e-15)
(24.9377 -6.75858 0)
(24.9732 -6.75596 0)
(25.0083 -6.75286 -8.48133e-23)
(25.0431 -6.74931 9.85635e-16)
(25.0776 -6.7453 -1.95844e-15)
(25.1119 -6.74085 9.61559e-16)
(25.1458 -6.73596 -9.53531e-16)
(25.1794 -6.73063 9.4194e-16)
(25.2126 -6.72488 -9.37786e-16)
(25.2456 -6.71871 9.19287e-16)
(25.2781 -6.71214 9.01117e-16)
(25.3104 -6.70516 -1.78762e-15)
(25.3423 -6.69779 8.86581e-16)
(25.3739 -6.69003 0)
(25.4051 -6.6819 1.35244e-17)
(25.436 -6.67341 6.68194e-18)
(25.4664 -6.66454 0)
(25.4966 -6.65532 6.52435e-18)
(25.5263 -6.64579 -1.65052e-15)
(25.5557 -6.63598 1.24716e-20)
(25.5847 -6.62571 1.29429e-15)
(24.3222 -7.01109 -1.63869e-16)
(24.3646 -7.01661 1.57871e-16)
(24.4066 -7.02155 -2.47192e-18)
(24.4483 -7.02591 -3.12157e-16)
(24.4898 -7.02969 -2.40294e-18)
(24.5309 -7.03291 9.11791e-16)
(24.5717 -7.03556 -5.97545e-16)
(24.6123 -7.03767 -6.0131e-16)
(24.6525 -7.03922 5.88954e-16)
(24.6924 -7.04023 5.81349e-16)
(24.7321 -7.04071 -1.13443e-15)
(24.7714 -7.04066 5.66553e-16)
(24.8105 -7.04009 5.5934e-16)
(24.8492 -7.03901 -5.39422e-16)
(24.8876 -7.03741 -4.22714e-18)
(24.9257 -7.03532 4.17418e-18)
(24.9635 -7.03273 1.05527e-15)
(25.001 -7.02965 -1.05033e-15)
(25.0382 -7.02609 -1.0293e-15)
(25.075 -7.02206 1.01267e-15)
(25.1115 -7.01757 3.92258e-18)
(25.1476 -7.01262 -3.87456e-18)
(25.1834 -7.00722 3.82758e-18)
(25.2189 -7.00137 -9.60361e-16)
(25.254 -6.99509 9.63686e-16)
(25.2887 -6.98839 7.38029e-18)
(25.3231 -6.98127 -7.29117e-18)
(25.3571 -6.97373 -9.22063e-16)
(25.3907 -6.9658 9.11008e-16)
(25.424 -6.95747 -7.03207e-18)
(25.4568 -6.94876 8.89325e-16)
(25.4893 -6.93966 -8.71846e-16)
(25.5214 -6.93018 -6.78311e-18)
(25.553 -6.92038 -1.71575e-15)
(25.5843 -6.91031 3.39067e-15)
(25.6152 -6.89977 -1.03063e-20)
(24.2692 -7.30052 2.63935e-18)
(24.3144 -7.3064 1.6913e-16)
(24.3593 -7.31168 2.56734e-18)
(24.4038 -7.31634 -3.21738e-16)
(24.448 -7.32042 2.50382e-18)
(24.4919 -7.3239 3.59206e-21)
(24.5355 -7.32679 3.06885e-16)
(24.5788 -7.32911 4.80845e-18)
(24.6217 -7.33086 -4.7468e-18)
(24.6643 -7.33204 5.99823e-16)
(24.7066 -7.33266 -1.18439e-15)
(24.7486 -7.33274 5.80122e-16)
(24.7902 -7.33227 -9.02031e-18)
(24.8315 -7.33127 -5.74487e-16)
(24.8725 -7.32973 5.71691e-16)
(24.9131 -7.32768 -1.10204e-22)
(24.9534 -7.32511 0)
(24.9934 -7.32203 4.23565e-18)
(25.033 -7.31845 0)
(25.0722 -7.31439 1.05775e-15)
(25.1111 -7.30984 -2.08549e-15)
(25.1496 -7.30481 1.03201e-15)
(25.1877 -7.29932 1.01942e-15)
(25.2254 -7.29337 -1.00309e-15)
(25.2628 -7.28696 0)
(25.2998 -7.28011 0)
(25.3364 -7.27283 -9.63243e-16)
(25.3725 -7.26513 9.59104e-16)
(25.4083 -7.257 0)
(25.4437 -7.24847 -3.65656e-18)
(25.4786 -7.23953 -9.24813e-16)
(25.5131 -7.2302 1.81309e-15)
(25.5472 -7.22047 -7.06012e-18)
(25.5809 -7.21041 -1.78365e-15)
(25.6142 -7.20007 7.59119e-21)
(25.6469 -7.18926 6.88661e-16)
(24.2139 -7.60634 -2.40249e-23)
(24.2621 -7.61256 0)
(24.3099 -7.61816 2.66731e-18)
(24.3574 -7.62312 -2.63266e-18)
(24.4046 -7.62746 3.32618e-16)
(24.4514 -7.63118 -2.56912e-18)
(24.4978 -7.6343 -3.21613e-16)
(24.544 -7.63681 3.17514e-16)
(24.5897 -7.63873 -3.1596e-16)
(24.6352 -7.64007 -9.74886e-18)
(24.6802 -7.64082 6.16059e-16)
(24.725 -7.641 -6.08319e-16)
(24.7693 -7.64062 4.6929e-18)
(24.8133 -7.63968 0)
(24.857 -7.63819 -4.57637e-18)
(24.9003 -7.63616 -1.28119e-22)
(24.9432 -7.6336 -4.46328e-18)
(24.9857 -7.63051 0)
(25.0278 -7.6269 0)
(25.0696 -7.62278 -4.30017e-18)
(25.111 -7.61816 -8.49491e-18)
(25.1519 -7.61305 4.19549e-18)
(25.1925 -7.60745 8.28825e-18)
(25.2327 -7.60138 -4.0936e-18)
(25.2724 -7.59484 0)
(25.3117 -7.58784 3.99429e-18)
(25.3506 -7.58038 0)
(25.3891 -7.57249 0)
(25.4271 -7.56416 -3.85032e-18)
(25.4646 -7.55541 3.80366e-18)
(25.5018 -7.54625 9.65641e-16)
(25.5384 -7.53667 7.4145e-18)
(25.5747 -7.52668 -9.31321e-16)
(25.6104 -7.51634 0)
(25.6457 -7.50574 9.15954e-16)
(25.6805 -7.49465 -1.42982e-15)
(24.1565 -7.92902 -9.38985e-17)
(24.2079 -7.93557 0)
(24.2589 -7.94146 1.7466e-16)
(24.3095 -7.94669 -1.75162e-16)
(24.3597 -7.95128 2.70199e-18)
(24.4096 -7.95522 6.48754e-23)
(24.4591 -7.95854 -2.63403e-18)
(24.5082 -7.96123 2.60095e-18)
(24.5569 -7.96331 3.2874e-16)
(24.6053 -7.96478 -6.41647e-16)
(24.6533 -7.96564 5.01288e-18)
(24.7009 -7.96592 3.16575e-16)
(24.7482 -7.9656 0)
(24.795 -7.96471 -6.17475e-16)
(24.8415 -7.96326 6.09812e-16)
(24.8875 -7.96124 -6.0695e-16)
(24.9332 -7.95866 4.65404e-18)
(24.9784 -7.95555 5.87454e-16)
(25.0232 -7.95189 0)
(25.0676 -7.94771 4.47716e-18)
(25.1116 -7.94301 4.42213e-18)
(25.1552 -7.9378 0)
(25.1983 -7.93209 -4.31427e-18)
(25.241 -7.92588 -5.45446e-16)
(25.2832 -7.91919 4.21499e-18)
(25.325 -7.91203 5.28014e-16)
(25.3663 -7.9044 0)
(25.4071 -7.89631 -4.05627e-18)
(25.4475 -7.88778 4.00673e-18)
(25.4874 -7.8788 -3.95745e-18)
(25.5268 -7.8694 -7.81797e-18)
(25.5657 -7.85957 0)
(25.6041 -7.84932 0)
(25.642 -7.8387 3.76655e-18)
(25.6795 -7.82782 -3.72016e-18)
(25.7164 -7.81647 -2.90022e-18)
(24.1522 -8.27585 -1.45992e-18)
(24.2064 -8.28201 0)
(24.2603 -8.28749 -1.79336e-16)
(24.3138 -8.29231 1.77088e-16)
(24.3668 -8.29646 -3.52517e-16)
(24.4195 -8.29996 7.07212e-16)
(24.4718 -8.30281 -3.46504e-16)
(24.5237 -8.30502 -2.6734e-18)
(24.5752 -8.3066 -5.28061e-18)
(24.6262 -8.30757 -3.38989e-16)
(24.6769 -8.30791 5.15495e-18)