/*--------------------------------*- C++ -*----------------------------------*\
  =========                 |
  \\      /  F ield         | OpenFOAM: The Open Source CFD Toolbox
   \\    /   O peration     | Website:  https://openfoam.org
    \\  /    A nd           | Version:  8
     \\/     M anipulation  |
\*---------------------------------------------------------------------------*/
FoamFile
{
    version     2.0;
    format      ascii;
    class       volScalarField;
    location    "37";
    object      nuTilda;
}
// * * * * * * * * * * * * * * * * * * * * * * * * * * * * * * * * * * * * * //

dimensions      [0 2 -1 0 0 0 0];

internalField   nonuniform List<scalar> 
277560
(
0.139981
0.139967
0.139968
0.139977
0.139992
0.14001
0.14003
0.140052
0.140075
0.140099
0.140122
0.140146
0.140169
0.140192
0.140214
0.140235
0.140255
0.140274
0.140292
0.140308
0.140323
0.140337
0.140349
0.140359
0.140367
0.140374
0.14038
0.140383
0.140384
0.140384
0.140382
0.140378
0.140371
0.140363
0.140353
0.140341
0.140326
0.14031
0.140291
0.14027
0.140247
0.140222
0.140195
0.140166
0.140134
0.1401
0.140064
0.140026
0.139986
0.139943
0.139897
0.139849
0.139799
0.139745
0.139689
0.13963
0.139568
0.139503
0.139434
0.139363
0.139287
0.139209
0.139127
0.139042
0.138953
0.138861
0.138765
0.138666
0.138564
0.138459
0.138351
0.138241
0.138128
0.138013
0.137897
0.137779
0.137661
0.137542
0.137424
0.137306
0.13719
0.137075
0.136963
0.136853
0.136747
0.136645
0.136548
0.136455
0.136369
0.136288
0.136214
0.136147
0.136087
0.136034
0.135989
0.135951
0.135921
0.135899
0.135884
0.135877
0.135877
0.135883
0.135896
0.135916
0.135941
0.135972
0.136008
0.136049
0.136095
0.136145
0.136199
0.136257
0.136318
0.136383
0.13645
0.13652
0.136592
0.136666
0.13674
0.136815
0.139995
0.139993
0.139999
0.140012
0.140029
0.140049
0.140071
0.140095
0.140119
0.140144
0.140169
0.140194
0.140218
0.140242
0.140265
0.140287
0.140308
0.140327
0.140346
0.140363
0.140378
0.140392
0.140404
0.140415
0.140424
0.140431
0.140437
0.14044
0.140442
0.140441
0.140439
0.140435
0.140429
0.14042
0.14041
0.140397
0.140383
0.140366
0.140347
0.140326
0.140303
0.140277
0.14025
0.14022
0.140188
0.140154
0.140117
0.140078
0.140037
0.139994
0.139948
0.139899
0.139848
0.139794
0.139737
0.139677
0.139614
0.139548
0.139479
0.139406
0.13933
0.139251
0.139168
0.139081
0.138991
0.138898
0.138801
0.138701
0.138598
0.138491
0.138382
0.13827
0.138156
0.13804
0.137923
0.137804
0.137684
0.137565
0.137445
0.137326
0.137209
0.137093
0.13698
0.13687
0.136764
0.136661
0.136564
0.136472
0.136386
0.136306
0.136233
0.136167
0.136109
0.136059
0.136016
0.135982
0.135957
0.135939
0.13593
0.135928
0.135933
0.135945
0.135964
0.135988
0.136018
0.136053
0.136094
0.136139
0.136188
0.136242
0.1363
0.136361
0.136425
0.136492
0.136561
0.136633
0.136706
0.13678
0.136855
0.13693
0.140005
0.140016
0.14003
0.140049
0.14007
0.140094
0.14012
0.140146
0.140173
0.1402
0.140227
0.140254
0.14028
0.140306
0.14033
0.140354
0.140376
0.140397
0.140416
0.140434
0.140451
0.140466
0.140479
0.140491
0.140501
0.140509
0.140516
0.14052
0.140523
0.140523
0.140522
0.140519
0.140513
0.140506
0.140497
0.140485
0.140471
0.140455
0.140437
0.140417
0.140395
0.14037
0.140343
0.140314
0.140282
0.140248
0.140212
0.140173
0.140132
0.140088
0.140042
0.139993
0.139941
0.139886
0.139828
0.139767
0.139703
0.139635
0.139564
0.13949
0.139412
0.139331
0.139246
0.139157
0.139065
0.13897
0.138871
0.138768
0.138662
0.138553
0.138442
0.138327
0.138211
0.138092
0.137972
0.137851
0.137728
0.137606
0.137485
0.137364
0.137244
0.137127
0.137013
0.136901
0.136794
0.136692
0.136594
0.136502
0.136417
0.136339
0.136268
0.136204
0.136149
0.136103
0.136065
0.136037
0.136017
0.136005
0.136001
0.136004
0.136014
0.136031
0.136054
0.136083
0.136117
0.136157
0.136202
0.136252
0.136307
0.136365
0.136428
0.136494
0.136563
0.136634
0.136708
0.136784
0.136862
0.13694
0.137019
0.137099
0.140013
0.140036
0.14006
0.140086
0.140113
0.140142
0.140172
0.140202
0.140232
0.140263
0.140292
0.140322
0.14035
0.140377
0.140404
0.140429
0.140453
0.140475
0.140497
0.140516
0.140534
0.14055
0.140565
0.140578
0.140589
0.140598
0.140606
0.140611
0.140615
0.140617
0.140616
0.140614
0.14061
0.140604
0.140595
0.140585
0.140572
0.140557
0.14054
0.140521
0.1405
0.140476
0.14045
0.140422
0.140392
0.140359
0.140323
0.140285
0.140245
0.140201
0.140155
0.140107
0.140055
0.14
0.139942
0.139881
0.139817
0.139749
0.139677
0.139602
0.139523
0.139441
0.139354
0.139264
0.13917
0.139072
0.13897
0.138864
0.138756
0.138643
0.138528
0.13841
0.13829
0.138167
0.138043
0.137918
0.137793
0.137667
0.137542
0.137418
0.137296
0.137176
0.137059
0.136946
0.136838
0.136734
0.136637
0.136545
0.136461
0.136384
0.136315
0.136255
0.136204
0.136162
0.13613
0.136106
0.136091
0.136084
0.136085
0.136092
0.136107
0.136128
0.136156
0.136189
0.136229
0.136274
0.136325
0.136381
0.136441
0.136506
0.136575
0.136647
0.136723
0.136801
0.136881
0.136964
0.137048
0.137132
0.137218
0.137303
0.140019
0.140054
0.140088
0.140122
0.140156
0.140191
0.140225
0.14026
0.140294
0.140328
0.140361
0.140393
0.140424
0.140454
0.140482
0.14051
0.140535
0.14056
0.140582
0.140603
0.140623
0.14064
0.140656
0.14067
0.140683
0.140693
0.140702
0.140708
0.140713
0.140716
0.140717
0.140715
0.140712
0.140707
0.140699
0.14069
0.140678
0.140665
0.140649
0.140631
0.14061
0.140588
0.140563
0.140536
0.140506
0.140474
0.140439
0.140402
0.140363
0.14032
0.140275
0.140227
0.140176
0.140122
0.140065
0.140004
0.13994
0.139872
0.139801
0.139725
0.139646
0.139563
0.139476
0.139385
0.13929
0.13919
0.139087
0.138979
0.138868
0.138753
0.138635
0.138513
0.138389
0.138262
0.138134
0.138005
0.137875
0.137744
0.137615
0.137487
0.137361
0.137238
0.137119
0.137003
0.136893
0.136788
0.13669
0.136598
0.136515
0.136439
0.136373
0.136316
0.136269
0.136231
0.136203
0.136184
0.136173
0.13617
0.136174
0.136186
0.136205
0.136231
0.136264
0.136303
0.136349
0.1364
0.136457
0.13652
0.136587
0.136659
0.136735
0.136815
0.136898
0.136984
0.137073
0.137163
0.137255
0.137348
0.137441
0.137534
0.140025
0.140071
0.140114
0.140157
0.140198
0.140239
0.140279
0.140318
0.140356
0.140394
0.14043
0.140466
0.1405
0.140532
0.140563
0.140592
0.14062
0.140646
0.140671
0.140694
0.140714
0.140734
0.140751
0.140766
0.140779
0.140791
0.140801
0.140808
0.140814
0.140817
0.140819
0.140819
0.140816
0.140812
0.140805
0.140797
0.140786
0.140773
0.140758
0.140741
0.140721
0.1407
0.140676
0.140649
0.140621
0.14059
0.140556
0.14052
0.140481
0.140439
0.140395
0.140348
0.140297
0.140244
0.140187
0.140127
0.140064
0.139996
0.139925
0.13985
0.139772
0.139689
0.139601
0.13951
0.139414
0.139314
0.139209
0.139101
0.138988
0.138871
0.13875
0.138626
0.138499
0.138369
0.138237
0.138103
0.137969
0.137834
0.1377
0.137568
0.137438
0.137311
0.137188
0.13707
0.136957
0.136851
0.136751
0.13666
0.136576
0.136502
0.136438
0.136384
0.13634
0.136305
0.13628
0.136264
0.136257
0.136257
0.136266
0.136282
0.136306
0.136337
0.136376
0.136421
0.136473
0.136531
0.136595
0.136665
0.13674
0.13682
0.136904
0.136992
0.137084
0.137179
0.137276
0.137376
0.137476
0.137578
0.13768
0.137782
0.14003
0.140086
0.140139
0.140189
0.140238
0.140285
0.140331
0.140375
0.140418
0.14046
0.1405
0.140538
0.140575
0.140611
0.140644
0.140676
0.140706
0.140734
0.14076
0.140784
0.140807
0.140827
0.140846
0.140862
0.140877
0.140889
0.1409
0.140908
0.140915
0.140919
0.140922
0.140922
0.14092
0.140917
0.140911
0.140903
0.140893
0.140881
0.140866
0.14085
0.140831
0.14081
0.140787
0.140761
0.140733
0.140703
0.14067
0.140634
0.140596
0.140555
0.140512
0.140465
0.140415
0.140363
0.140306
0.140247
0.140184
0.140117
0.140047
0.139972
0.139894
0.139811
0.139724
0.139632
0.139536
0.139436
0.139331
0.139222
0.139108
0.13899
0.138867
0.138741
0.138612
0.138479
0.138344
0.138208
0.138069
0.137931
0.137793
0.137656
0.137522
0.137391
0.137264
0.137143
0.137027
0.136919
0.136818
0.136726
0.136643
0.13657
0.136507
0.136454
0.136413
0.136381
0.136359
0.136345
0.136341
0.136345
0.136358
0.136378
0.136407
0.136444
0.136488
0.136539
0.136597
0.136663
0.136734
0.136812
0.136895
0.136984
0.137077
0.137174
0.137275
0.13738
0.137486
0.137595
0.137706
0.137817
0.137929
0.138041
0.140034
0.1401
0.140161
0.14022
0.140276
0.140329
0.140381
0.14043
0.140478
0.140524
0.140568
0.14061
0.14065
0.140688
0.140724
0.140758
0.14079
0.14082
0.140848
0.140874
0.140898
0.14092
0.14094
0.140957
0.140973
0.140986
0.140998
0.141007
0.141014
0.141019
0.141022
0.141023
0.141022
0.141019
0.141014
0.141006
0.140997
0.140985
0.140971
0.140955
0.140937
0.140917
0.140894
0.140869
0.140841
0.140811
0.140779
0.140744
0.140706
0.140666
0.140623
0.140577
0.140528
0.140476
0.14042
0.140361
0.140299
0.140232
0.140162
0.140088
0.14001
0.139928
0.139841
0.139749
0.139653
0.139553
0.139448
0.139338
0.139223
0.139104
0.138981
0.138854
0.138723
0.138588
0.138451
0.138311
0.13817
0.138029
0.137887
0.137746
0.137608
0.137474
0.137343
0.137219
0.1371
0.13699
0.136887
0.136794
0.136711
0.136638
0.136576
0.136525
0.136485
0.136455
0.136435
0.136424
0.136423
0.13643
0.136447
0.136472
0.136506
0.136547
0.136597
0.136655
0.136721
0.136793
0.136872
0.136958
0.13705
0.137148
0.13725
0.137357
0.137468
0.137582
0.137699
0.137819
0.137939
0.138061
0.138184
0.138306
0.140039
0.140113
0.140182
0.140249
0.140311
0.140371
0.140429
0.140483
0.140536
0.140586
0.140633
0.140679
0.140722
0.140763
0.140802
0.140838
0.140872
0.140904
0.140934
0.140962
0.140987
0.14101
0.141031
0.141049
0.141066
0.14108
0.141092
0.141102
0.14111
0.141116
0.14112
0.141121
0.14112
0.141118
0.141113
0.141106
0.141097
0.141085
0.141072
0.141056
0.141038
0.141018
0.140996
0.140971
0.140944
0.140914
0.140882
0.140848
0.14081
0.14077
0.140728
0.140682
0.140633
0.140582
0.140527
0.140468
0.140406
0.14034
0.14027
0.140197
0.140119
0.140037
0.13995
0.139859
0.139763
0.139662
0.139557
0.139447
0.139332
0.139212
0.139088
0.13896
0.138828
0.138692
0.138553
0.138411
0.138268
0.138123
0.137978
0.137835
0.137693
0.137555
0.137422
0.137294
0.137173
0.13706
0.136955
0.136861
0.136777
0.136704
0.136643
0.136592
0.136553
0.136525
0.136507
0.136499
0.1365
0.136511
0.136531
0.136561
0.136599
0.136647
0.136703
0.136767
0.136839
0.136919
0.137007
0.137101
0.137202
0.137309
0.137421
0.137537
0.137659
0.137783
0.137911
0.138041
0.138173
0.138305
0.138439
0.138572
0.140043
0.140125
0.140202
0.140275
0.140345
0.140411
0.140473
0.140533
0.14059
0.140644
0.140696
0.140745
0.140791
0.140835
0.140876
0.140915
0.140951
0.140985
0.141016
0.141045
0.141072
0.141096
0.141118
0.141138
0.141155
0.14117
0.141183
0.141193
0.141202
0.141208
0.141212
0.141214
0.141214
0.141211
0.141207
0.1412
0.141191
0.14118
0.141167
0.141151
0.141133
0.141113
0.141091
0.141067
0.14104
0.14101
0.140979
0.140944
0.140907
0.140868
0.140825
0.14078
0.140731
0.14068
0.140625
0.140567
0.140505
0.140439
0.14037
0.140297
0.140219
0.140137
0.140051
0.13996
0.139864
0.139763
0.139658
0.139547
0.139432
0.139312
0.139187
0.139058
0.138925
0.138788
0.138647
0.138504
0.138358
0.138211
0.138064
0.137918
0.137774
0.137632
0.137496
0.137365
0.137241
0.137125
0.137019
0.136923
0.136838
0.136765
0.136704
0.136654
0.136616
0.136589
0.136573
0.136567
0.136571
0.136585
0.136609
0.136643
0.136687
0.13674
0.136802
0.136873
0.136952
0.13704
0.137135
0.137238
0.137348
0.137464
0.137586
0.137713
0.137845
0.13798
0.138119
0.13826
0.138403
0.138547
0.138691
0.138836
0.140046
0.140136
0.14022
0.1403
0.140376
0.140447
0.140516
0.14058
0.140641
0.1407
0.140755
0.140807
0.140856
0.140903
0.140946
0.140987
0.141025
0.141061
0.141094
0.141124
0.141152
0.141177
0.1412
0.141221
0.141239
0.141254
0.141268
0.141279
0.141288
0.141294
0.141299
0.141301
0.141301
0.141299
0.141294
0.141287
0.141279
0.141268
0.141254
0.141239
0.141221
0.141201
0.141179
0.141155
0.141128
0.141099
0.141067
0.141033
0.140996
0.140956
0.140914
0.140869
0.14082
0.140769
0.140714
0.140656
0.140595
0.140529
0.14046
0.140387
0.14031
0.140228
0.140141
0.14005
0.139955
0.139854
0.139749
0.139638
0.139523
0.139402
0.139277
0.139147
0.139013
0.138874
0.138733
0.138588
0.13844
0.138292
0.138142
0.137994
0.137846
0.137702
0.137563
0.137429
0.137303
0.137185
0.137077
0.136979
0.136893
0.136819
0.136758
0.136708
0.136671
0.136645
0.136631
0.136627
0.136634
0.136651
0.136679
0.136718
0.136766
0.136824
0.136892
0.13697
0.137057
0.137152
0.137256
0.137367
0.137486
0.137612
0.137744
0.137881
0.138023
0.13817
0.13832
0.138472
0.138627
0.138783
0.138939
0.139095
0.14005
0.140146
0.140237
0.140323
0.140404
0.140481
0.140555
0.140624
0.140689
0.140751
0.14081
0.140865
0.140917
0.140966
0.141012
0.141055
0.141095
0.141132
0.141166
0.141198
0.141227
0.141253
0.141277
0.141298
0.141317
0.141333
0.141347
0.141358
0.141367
0.141374
0.141379
0.141381
0.141381
0.141379
0.141374
0.141368
0.141359
0.141348
0.141335
0.141319
0.141301
0.141282
0.141259
0.141235
0.141208
0.141179
0.141147
0.141112
0.141076
0.141036
0.140994
0.140948
0.1409
0.140849
0.140794
0.140736
0.140675
0.140609
0.14054
0.140467
0.14039
0.140308
0.140222
0.140131
0.140035
0.139935
0.139829
0.139718
0.139602
0.139482
0.139356
0.139225
0.13909
0.138951
0.138808
0.138662
0.138513
0.138362
0.138211
0.13806
0.13791
0.137763
0.137621
0.137485
0.137356
0.137235
0.137125
0.137026
0.136939
0.136864
0.136802
0.136753
0.136716
0.136692
0.136679
0.136677
0.136687
0.136708
0.13674
0.136782
0.136835
0.136899
0.136973
0.137058
0.137151
0.137255
0.137366
0.137487
0.137615
0.13775
0.137892
0.13804
0.138193
0.138351
0.138512
0.138677
0.138843
0.139011
0.139179
0.139347
0.140053
0.140156
0.140252
0.140344
0.140431
0.140513
0.14059
0.140664
0.140733
0.140798
0.14086
0.140918
0.140973
0.141024
0.141072
0.141117
0.141158
0.141197
0.141232
0.141265
0.141295
0.141322
0.141346
0.141368
0.141387
0.141404
0.141418
0.14143
0.141439
0.141446
0.141451
0.141453
0.141453
0.141451
0.141447
0.14144
0.141431
0.14142
0.141406
0.141391
0.141373
0.141353
0.14133
0.141306
0.141279
0.141249
0.141217
0.141183
0.141146
0.141106
0.141064
0.141018
0.14097
0.140919
0.140864
0.140806
0.140744
0.140679
0.14061
0.140537
0.140459
0.140378
0.140291
0.1402
0.140105
0.140004
0.139898
0.139787
0.139671
0.13955
0.139423
0.139292
0.139156
0.139016
0.138872
0.138724
0.138574
0.138422
0.138268
0.138115
0.137963
0.137814
0.137669
0.13753
0.137398
0.137276
0.137163
0.137062
0.136974
0.136898
0.136836
0.136787
0.136751
0.136727
0.136716
0.136717
0.136729
0.136753
0.136789
0.136836
0.136894
0.136963
0.137044
0.137134
0.137235
0.137346
0.137466
0.137595
0.137733
0.137878
0.13803
0.138188
0.138352
0.138521
0.138694
0.138871
0.139049
0.139229
0.13941
0.139591
0.140056
0.140164
0.140266
0.140363
0.140455
0.140541
0.140623
0.1407
0.140773
0.140841
0.140906
0.140967
0.141023
0.141077
0.141126
0.141173
0.141216
0.141255
0.141292
0.141326
0.141356
0.141384
0.141409
0.141431
0.141451
0.141468
0.141482
0.141494
0.141503
0.14151
0.141515
0.141517
0.141517
0.141515
0.14151
0.141503
0.141494
0.141483
0.141469
0.141453
0.141435
0.141415
0.141392
0.141367
0.14134
0.14131
0.141278
0.141243
0.141206
0.141166
0.141123
0.141078
0.141029
0.140978
0.140923
0.140865
0.140803
0.140738
0.140668
0.140595
0.140518
0.140436
0.14035
0.140258
0.140162
0.140061
0.139955
0.139844
0.139728
0.139606
0.139479
0.139347
0.139211
0.139069
0.138924
0.138775
0.138623
0.138469
0.138314
0.138158
0.138004
0.137853
0.137705
0.137563
0.137429
0.137304
0.13719
0.137087
0.136997
0.13692
0.136857
0.136808
0.136773
0.136751
0.136742
0.136745
0.13676
0.136787
0.136826
0.136878
0.136941
0.137016
0.137102
0.137199
0.137307
0.137425
0.137554
0.137691
0.137838
0.137993
0.138155
0.138324
0.138499
0.13868
0.138864
0.139053
0.139244
0.139437
0.13963
0.139824
0.140059
0.140172
0.140279
0.14038
0.140476
0.140567
0.140652
0.140733
0.140809
0.14088
0.140947
0.14101
0.141069
0.141124
0.141175
0.141223
0.141267
0.141308
0.141345
0.141379
0.141411
0.141439
0.141464
0.141487
0.141506
0.141523
0.141538
0.14155
0.141559
0.141566
0.14157
0.141572
0.141572
0.141569
0.141564
0.141557
0.141548
0.141536
0.141522
0.141506
0.141487
0.141466
0.141443
0.141418
0.14139
0.14136
0.141328
0.141293
0.141255
0.141215
0.141172
0.141126
0.141078
0.141026
0.140971
0.140912
0.14085
0.140785
0.140715
0.140642
0.140564
0.140482
0.140396
0.140304
0.140208
0.140107
0.14
0.139889
0.139772
0.13965
0.139522
0.13939
0.139252
0.13911
0.138963
0.138813
0.13866
0.138504
0.138347
0.138189
0.138033
0.137878
0.137728
0.137584
0.137448
0.13732
0.137204
0.137099
0.137007
0.13693
0.136866
0.136817
0.136783
0.136762
0.136754
0.136759
0.136777
0.136808
0.136851
0.136907
0.136975
0.137055
0.137147
0.13725
0.137365
0.137491
0.137628
0.137774
0.13793
0.138094
0.138267
0.138446
0.138633
0.138825
0.139021
0.139222
0.139426
0.139631
0.139838
0.140045
0.140061
0.140179
0.14029
0.140396
0.140496
0.14059
0.140678
0.140762
0.14084
0.140914
0.140983
0.141048
0.141108
0.141165
0.141217
0.141266
0.141311
0.141353
0.141391
0.141426
0.141457
0.141486
0.141511
0.141534
0.141553
0.14157
0.141585
0.141596
0.141605
0.141612
0.141616
0.141618
0.141617
0.141614
0.141609
0.141601
0.141591
0.141579
0.141565
0.141548
0.141529
0.141508
0.141484
0.141459
0.14143
0.1414
0.141367
0.141332
0.141294
0.141253
0.14121
0.141163
0.141114
0.141062
0.141007
0.140948
0.140886
0.14082
0.14075
0.140676
0.140599
0.140516
0.140429
0.140338
0.140241
0.14014
0.140033
0.139921
0.139803
0.13968
0.139552
0.139419
0.13928
0.139137
0.138989
0.138838
0.138683
0.138525
0.138366
0.138206
0.138047
0.137891
0.137738
0.137592
0.137453
0.137323
0.137204
0.137098
0.137004
0.136926
0.136862
0.136813
0.136779
0.136759
0.136753
0.136761
0.136782
0.136816
0.136863
0.136923
0.136995
0.13708
0.137178
0.137288
0.13741
0.137543
0.137688
0.137842
0.138007
0.138181
0.138364
0.138554
0.138752
0.138955
0.139164
0.139377
0.139593
0.139812
0.140032
0.140253
0.140063
0.140185
0.1403
0.140409
0.140512
0.140609
0.140701
0.140787
0.140868
0.140943
0.141014
0.14108
0.141142
0.1412
0.141253
0.141303
0.141348
0.14139
0.141429
0.141464
0.141496
0.141524
0.14155
0.141572
0.141592
0.141608
0.141622
0.141634
0.141642
0.141649
0.141652
0.141654
0.141652
0.141649
0.141643
0.141635
0.141624
0.141612
0.141597
0.14158
0.14156
0.141538
0.141514
0.141488
0.141459
0.141428
0.141395
0.141359
0.14132
0.141279
0.141235
0.141189
0.141139
0.141087
0.141031
0.140972
0.140909
0.140843
0.140773
0.140698
0.14062
0.140537
0.14045
0.140358
0.140261
0.140159
0.140052
0.139939
0.139821
0.139698
0.139569
0.139434
0.139295
0.13915
0.139001
0.138848
0.138691
0.138532
0.138371
0.138209
0.138048
0.137889
0.137734
0.137585
0.137444
0.137312
0.137191
0.137083
0.136988
0.136908
0.136844
0.136795
0.136761
0.136743
0.136739
0.136749
0.136772
0.13681
0.13686
0.136924
0.137002
0.137092
0.137195
0.137312
0.13744
0.137581
0.137733
0.137896
0.13807
0.138253
0.138446
0.138647
0.138856
0.139071
0.139292
0.139517
0.139746
0.139978
0.140212
0.140446
0.140065
0.140191
0.140309
0.140421
0.140527
0.140626
0.14072
0.140808
0.140891
0.140968
0.14104
0.141108
0.14117
0.141229
0.141283
0.141333
0.141379
0.141421
0.141459
0.141494
0.141526
0.141554
0.14158
0.141602
0.141621
0.141637
0.141651
0.141662
0.14167
0.141675
0.141679
0.141679
0.141677
0.141673
0.141667
0.141658
0.141647
0.141634
0.141618
0.1416
0.14158
0.141558
0.141533
0.141506
0.141477
0.141445
0.141411
0.141374
0.141335
0.141293
0.141249
0.141202
0.141152
0.141098
0.141042
0.140982
0.140919
0.140853
0.140782
0.140707
0.140629
0.140545
0.140458
0.140365
0.140267
0.140165
0.140057
0.139944
0.139825
0.1397
0.139571
0.139435
0.139295
0.139149
0.138998
0.138844
0.138685
0.138524
0.138361
0.138197
0.138033
0.137872
0.137715
0.137564
0.13742
0.137287
0.137164
0.137055
0.136959
0.136877
0.136812
0.136763
0.13673
0.136713
0.13671
0.136723
0.136749
0.13679
0.136844
0.136912
0.136994
0.137089
0.137198
0.13732
0.137456
0.137603
0.137763
0.137935
0.138117
0.13831
0.138513
0.138724
0.138944
0.13917
0.139403
0.139641
0.139884
0.140129
0.140377
0.140625
0.140067
0.140195
0.140317
0.140431
0.140539
0.140641
0.140736
0.140826
0.140909
0.140988
0.141061
0.141129
0.141192
0.141251
0.141305
0.141355
0.141401
0.141444
0.141482
0.141517
0.141548
0.141576
0.141601
0.141622
0.141641
0.141657
0.14167
0.14168
0.141687
0.141692
0.141695
0.141695
0.141692
0.141687
0.14168
0.14167
0.141659
0.141644
0.141628
0.141609
0.141588
0.141565
0.14154
0.141512
0.141482
0.14145
0.141415
0.141378
0.141338
0.141295
0.14125
0.141202
0.141151
0.141098
0.141041
0.14098
0.140917
0.140849
0.140778
0.140703
0.140623
0.140539
0.140451
0.140358
0.14026
0.140156
0.140048
0.139933
0.139814
0.139689
0.139558
0.139421
0.139279
0.139132
0.13898
0.138824
0.138664
0.1385
0.138335
0.138169
0.138003
0.13784
0.137681
0.137528
0.137383
0.137248
0.137124
0.137013
0.136916
0.136834
0.136767
0.136717
0.136685
0.136668
0.136668
0.136683
0.136712
0.136755
0.136813
0.136885
0.136972
0.137072
0.137186
0.137314
0.137456
0.137611
0.137778
0.137957
0.138148
0.138351
0.138563
0.138785
0.139015
0.139253
0.139498
0.139749
0.140005
0.140264
0.140525
0.140788
0.140068
0.140199
0.140323
0.140439
0.140549
0.140652
0.140748
0.140839
0.140924
0.141003
0.141076
0.141145
0.141208
0.141267
0.141321
0.141371
0.141417
0.141459
0.141496
0.141531
0.141561
0.141589
0.141613
0.141634
0.141651
0.141666
0.141679
0.141688
0.141695
0.141699
0.1417
0.141699
0.141696
0.14169
0.141682
0.141672
0.141659
0.141644
0.141627
0.141607
0.141585
0.141561
0.141535
0.141506
0.141475
0.141442
0.141407
0.141368
0.141328
0.141284
0.141239
0.14119
0.141138
0.141084
0.141026
0.140965
0.1409
0.140832
0.14076
0.140684
0.140604
0.140519
0.14043
0.140336
0.140237
0.140133
0.140023
0.139908
0.139788
0.139661
0.139529
0.139391
0.139248
0.1391
0.138946
0.138788
0.138626
0.138461
0.138293
0.138125
0.137958
0.137792
0.137632
0.137477
0.137332
0.137196
0.137071
0.136959
0.136861
0.136777
0.13671
0.136659
0.136626
0.136611
0.136612
0.136629
0.136661
0.136707
0.136769
0.136845
0.136935
0.137041
0.13716
0.137294
0.137441
0.137603
0.137777
0.137964
0.138164
0.138375
0.138597
0.138829
0.13907
0.13932
0.139577
0.13984
0.140109
0.140381
0.140657
0.140935
0.140069
0.140202
0.140327
0.140445
0.140556
0.14066
0.140758
0.140849
0.140934
0.141013
0.141087
0.141155
0.141218
0.141277
0.141331
0.14138
0.141425
0.141466
0.141503
0.141536
0.141566
0.141593
0.141616
0.141636
0.141653
0.141667
0.141678
0.141686
0.141692
0.141695
0.141695
0.141693
0.141689
0.141682
0.141673
0.141662
0.141648
0.141632
0.141614
0.141593
0.14157
0.141545
0.141518
0.141488
0.141456
0.141422
0.141386
0.141346
0.141305
0.141261
0.141214
0.141164
0.141112
0.141056
0.140997
0.140935
0.14087
0.140801
0.140728
0.140651
0.14057
0.140484
0.140394
0.140299
0.140199
0.140094
0.139983
0.139867
0.139745
0.139618
0.139484
0.139345
0.139201
0.13905
0.138895
0.138735
0.138571
0.138404
0.138235
0.138065
0.137896
0.137729
0.137568
0.137413
0.137266
0.13713
0.137005
0.136893
0.136794
0.13671
0.136641
0.13659
0.136556
0.136541
0.136543
0.136562
0.136596
0.136646
0.136711
0.13679
0.136885
0.136995
0.137119
0.137258
0.137412
0.13758
0.137761
0.137956
0.138163
0.138383
0.138615
0.138857
0.139109
0.139369
0.139638
0.139914
0.140196
0.140482
0.140772
0.141065
0.14007
0.140204
0.140331
0.14045
0.140561
0.140666
0.140763
0.140855
0.14094
0.141019
0.141092
0.14116
0.141222
0.14128
0.141333
0.141381
0.141425
0.141465
0.141501
0.141534
0.141562
0.141588
0.14161
0.141628
0.141644
0.141657
0.141667
0.141674
0.141679
0.141681
0.14168
0.141677
0.141671
0.141663
0.141653
0.14164
0.141626
0.141608
0.141589
0.141567
0.141543
0.141517
0.141489
0.141458
0.141425
0.14139
0.141352
0.141312
0.141269
0.141224
0.141176
0.141125
0.141071
0.141015
0.140955
0.140892
0.140825
0.140755
0.140681
0.140603
0.140521
0.140434
0.140343
0.140247
0.140146
0.140039
0.139927
0.13981
0.139687
0.139558
0.139423
0.139282
0.139136
0.138984
0.138827
0.138665
0.138499
0.13833
0.13816
0.137988
0.137818
0.137651
0.137489
0.137334
0.137188
0.137052
0.136927
0.136815
0.136715
0.136631
0.136561
0.136509
0.136475
0.136459
0.136462
0.136482
0.136519
0.136571
0.136639
0.136723
0.136821
0.136935
0.137064
0.137209
0.137368
0.137542
0.13773
0.137932
0.138147
0.138376
0.138616
0.138868
0.13913
0.139402
0.139683
0.139971
0.140266
0.140566
0.14087
0.141178
0.140071
0.140206
0.140333
0.140452
0.140564
0.140668
0.140766
0.140857
0.140941
0.141019
0.141092
0.141159
0.14122
0.141277
0.141328
0.141376
0.141418
0.141457
0.141492
0.141523
0.14155
0.141574
0.141595
0.141612
0.141626
0.141638
0.141647
0.141652
0.141656
0.141656
0.141654
0.14165
0.141643
0.141634
0.141622
0.141608
0.141592
0.141573
0.141553
0.14153
0.141504
0.141477
0.141447
0.141415
0.141381
0.141344
0.141305
0.141264
0.14122
0.141173
0.141124
0.141072
0.141017
0.140959
0.140898
0.140833
0.140766
0.140694
0.140619
0.14054
0.140456
0.140368
0.140276
0.140178
0.140076
0.139968
0.139855
0.139736
0.139611
0.13948
0.139344
0.139201
0.139053
0.1389
0.138741
0.138577
0.13841
0.138239
0.138067
0.137895
0.137724
0.137558
0.137396
0.137243
0.137098
0.136962
0.136838
0.136726
0.136626
0.136541
0.136472
0.136419
0.136383
0.136367
0.13637
0.136391
0.13643
0.136485
0.136556
0.136642
0.136745
0.136863
0.136996
0.137145
0.13731
0.13749
0.137684
0.137893
0.138116
0.138352
0.138602
0.138863
0.139135
0.139418
0.13971
0.140011
0.140319
0.140632
0.140951
0.141273
0.140071
0.140206
0.140334
0.140453
0.140564
0.140668
0.140765
0.140855
0.140938
0.141015
0.141086
0.141152
0.141212
0.141267
0.141317
0.141363
0.141404
0.141441
0.141474
0.141504
0.141529
0.141552
0.141571
0.141587
0.141599
0.141609
0.141616
0.141621
0.141622
0.141621
0.141618
0.141612
0.141604
0.141593
0.14158
0.141565
0.141547
0.141527
0.141505
0.14148
0.141454
0.141425
0.141393
0.14136
0.141324
0.141286
0.141246
0.141203
0.141157
0.141109
0.141058
0.141005
0.140948
0.140889
0.140826
0.14076
0.140691
0.140618
0.140541
0.140461
0.140376
0.140286
0.140192
0.140093
0.139989
0.139879
0.139764
0.139644
0.139517
0.139385
0.139247
0.139102
0.138952
0.138797
0.138636
0.138471
0.138303
0.138131
0.137958
0.137786
0.137616
0.137451
0.137291
0.137139
0.136996
0.136862
0.136738
0.136627
0.136528
0.136443
0.136373
0.136319
0.136283
0.136265
0.136267
0.136289
0.136329
0.136387
0.13646
0.13655
0.136656
0.136777
0.136915
0.137069
0.137238
0.137424
0.137624
0.13784
0.13807
0.138314
0.138572
0.138842
0.139124
0.139418
0.139721
0.140034
0.140354
0.140682
0.141015
0.141352
0.140071
0.140206
0.140333
0.140451
0.140562
0.140665
0.140761
0.140849
0.140931
0.141007
0.141076
0.14114
0.141198
0.141251
0.141299
0.141343
0.141382
0.141418
0.141449
0.141476
0.1415
0.141521
0.141538
0.141552
0.141563
0.141571
0.141577
0.141579
0.141579
0.141577
0.141572
0.141564
0.141554
0.141542
0.141527
0.14151
0.141491
0.141469
0.141445
0.141419
0.141391
0.14136
0.141327
0.141292
0.141255
0.141215
0.141173
0.141128
0.141081
0.141031
0.140979
0.140923
0.140865
0.140804
0.14074
0.140672
0.140601
0.140526
0.140448
0.140365
0.140279
0.140187
0.140091
0.13999
0.139884
0.139773
0.139656
0.139534
0.139405
0.139271
0.139131
0.138985
0.138833
0.138676
0.138514
0.138348
0.138178
0.138006
0.137834
0.137663
0.137495
0.137332
0.137175
0.137025
0.136884
0.136752
0.13663
0.136519
0.13642
0.136336
0.136266
0.136212
0.136175
0.136156
0.136157
0.136178
0.136219
0.136278
0.136354
0.136447
0.136556
0.136681
0.136822
0.13698
0.137154
0.137345
0.137551
0.137773
0.138009
0.138261
0.138527
0.138806
0.139098
0.139401
0.139716
0.14004
0.140373
0.140714
0.141061
0.141413
0.140071
0.140205
0.140331
0.140448
0.140558
0.140659
0.140753
0.14084
0.14092
0.140993
0.14106
0.141122
0.141178
0.141229
0.141275
0.141317
0.141354
0.141387
0.141416
0.141441
0.141463
0.141482
0.141497
0.141509
0.141518
0.141524
0.141528
0.141529
0.141527
0.141522
0.141515
0.141506
0.141494
0.14148
0.141463
0.141445
0.141423
0.1414
0.141374
0.141346
0.141316
0.141284
0.141249
0.141212
0.141173
0.141131
0.141087
0.14104
0.140991
0.140939
0.140885
0.140828
0.140768
0.140704
0.140638
0.140569
0.140496
0.140419
0.140338
0.140254
0.140165
0.140071
0.139973
0.13987
0.139762
0.139649
0.13953
0.139406
0.139275
0.139139
0.138997
0.138849
0.138696
0.138537
0.138374
0.138207
0.138038
0.137867
0.137696
0.137528
0.137363
0.137203
0.13705
0.136903
0.136764
0.136634
0.136513
0.136404
0.136306
0.136222
0.136152
0.136097
0.13606
0.13604
0.13604
0.13606
0.1361
0.136161
0.136239
0.136334
0.136445
0.136574
0.136719
0.13688
0.137059
0.137254
0.137465
0.137693
0.137936
0.138194
0.138468
0.138755
0.139056
0.139369
0.139695
0.14003
0.140376
0.14073
0.141091
0.141458
0.14007
0.140204
0.140328
0.140444
0.140551
0.14065
0.140742
0.140826
0.140904
0.140975
0.14104
0.141099
0.141152
0.141201
0.141244
0.141283
0.141318
0.141349
0.141375
0.141398
0.141418
0.141434
0.141447
0.141457
0.141464
0.141468
0.14147
0.141469
0.141465
0.141458
0.141449
0.141438
0.141424
0.141408
0.141389
0.141369
0.141345
0.14132
0.141292
0.141262
0.14123
0.141196
0.141159
0.14112
0.141078
0.141034
0.140988
0.140939
0.140888
0.140834
0.140777
0.140718
0.140655
0.14059
0.140521
0.140449
0.140374
0.140295
0.140212
0.140125
0.140034
0.139938
0.139838
0.139733
0.139622
0.139507
0.139386
0.139259
0.139127
0.138988
0.138845
0.138695
0.138541
0.138382
0.138218
0.138052
0.137884
0.137715
0.137548
0.137384
0.137223
0.137068
0.136917
0.136774
0.136637
0.136509
0.136391
0.136283
0.136186
0.136103
0.136033
0.135978
0.13594
0.135919
0.135917
0.135936
0.135975
0.136036
0.136115
0.136212
0.136326
0.136457
0.136605
0.136771
0.136953
0.137152
0.137368
0.137601
0.13785
0.138115
0.138395
0.138691
0.139
0.139323
0.139658
0.140005
0.140363
0.14073
0.141105
0.141486
0.140069
0.140201
0.140324
0.140437
0.140542
0.140639
0.140728
0.14081
0.140884
0.140952
0.141014
0.14107
0.141121
0.141166
0.141207
0.141243
0.141275
0.141303
0.141328
0.141348
0.141365
0.141379
0.14139
0.141397
0.141402
0.141404
0.141403
0.1414
0.141394
0.141385
0.141374
0.14136
0.141345
0.141326
0.141305
0.141282
0.141257
0.141229
0.1412
0.141167
0.141133
0.141096
0.141057
0.141015
0.140971
0.140925
0.140876
0.140825
0.140771
0.140715
0.140655
0.140593
0.140528
0.14046
0.140389
0.140315
0.140237
0.140155
0.14007
0.13998
0.139886