/*--------------------------------*- C++ -*----------------------------------*\
  =========                 |
  \\      /  F ield         | OpenFOAM: The Open Source CFD Toolbox
   \\    /   O peration     | Website:  https://openfoam.org
    \\  /    A nd           | Version:  9
     \\/     M anipulation  |
\*---------------------------------------------------------------------------*/
FoamFile
{
    format      ascii;
    class       volScalarField;
    location    "0.0025";
    object      alphat;
}
// * * * * * * * * * * * * * * * * * * * * * * * * * * * * * * * * * * * * * //

dimensions      [1 -1 -1 0 0 0 0];

internalField   nonuniform List<scalar> 
5071
(
0.0163649
0.0163655
0.0163661
0.0163664
0.0163667
0.016367
0.0163672
0.0163674
0.0163676
0.0163678
0.0163679
0.0163681
0.0163682
0.0163683
0.0163684
0.0163685
0.0163686
0.0163687
0.0163688
0.0163688
0.0163688
0.0163688
0.0163688
0.0163687
0.0163686
0.0163684
0.0163682
0.0163813
0.016381
0.0163807
0.0163803
0.0163799
0.0163795
0.016379
0.0163784
0.0163778
0.0163772
0.0163766
0.0163759
0.0163753
0.0163746
0.0163739
0.0163732
0.0163726
0.0163721
0.0163719
0.0163719
0.0163719
0.0163717
0.0163713
0.0163707
0.0163698
0.0163688
0.0163678
0.0163579
0.0163577
0.0163575
0.0163573
0.016357
0.0163568
0.0163565
0.0163563
0.016356
0.0163557
0.0163554
0.0163551
0.0163548
0.0163551
0.0163554
0.0163553
0.0163551
0.0163548
0.0163545
0.0163541
0.0163537
0.0163532
0.0163527
0.0163522
0.0163517
0.0163514
0.0163515
0.0163399
0.0163403
0.0163407
0.016341
0.0163415
0.0163416
0.0163415
0.0163414
0.0163412
0.0163409
0.0163406
0.0163402
0.0163398
0.0163393
0.0163388
0.0163382
0.0163376
0.0163369
0.0163363
0.0163355
0.0163348
0.0163341
0.0163335
0.016333
0.0163327
0.0163325
0.0163324
0.0162925
0.0162927
0.016293
0.0162932
0.0162934
0.0162936
0.0162938
0.016294
0.0162942
0.0162945
0.0162947
0.0162949
0.0162952
0.0162954
0.0162957
0.0162959
0.0162962
0.0162964
0.0162967
0.016297
0.0162973
0.0162976
0.0162979
0.0162982
0.0162985
0.0162988
0.0162992
0.016283
0.0162836
0.0162841
0.0162847
0.0162853
0.0162859
0.0162864
0.016287
0.0162876
0.0162882
0.0162888
0.0162893
0.0162899
0.0162905
0.016291
0.0162912
0.0162912
0.0162911
0.016291
0.0162908
0.0162906
0.0162904
0.0162901
0.0162898
0.0162896
0.0162893
0.0162891
0.016264
0.0162645
0.016265
0.0162656
0.0162661
0.0162666
0.0162671
0.0162677
0.0162682
0.0162687
0.0162693
0.0162698
0.0162703
0.0162709
0.0162714
0.0162719
0.0162725
0.016273
0.0162735
0.0162741
0.0162746
0.0162752
0.0162758
0.0162763
0.0162769
0.0162775
0.0162781
0.0162465
0.0162471
0.0162477
0.0162483
0.0162489
0.0162495
0.0162501
0.0162507
0.0162514
0.016252
0.0162526
0.0162532
0.0162538
0.0162545
0.0162551
0.0162557
0.0162564
0.016257
0.0162577
0.0162583
0.016259
0.0162596
0.0162603
0.0162609
0.0162616
0.0162623
0.0162629
0.016227
0.0162277
0.0162285
0.0162292
0.0162299
0.0162306
0.0162313
0.016232
0.0162328
0.0162335
0.0162342
0.016235
0.0162357
0.0162364
0.0162372
0.0162379
0.0162387
0.0162394
0.0162402
0.0162409
0.0162417
0.0162425
0.0162432
0.016244
0.0162448
0.0162456
0.0162463
0.0162068
0.0162076
0.0162085
0.0162093
0.0162101
0.016211
0.0162118
0.0162126
0.0162135
0.0162143
0.0162152
0.0162161
0.0162169
0.0162178
0.0162187
0.0162195
0.0162204
0.0162213
0.0162222
0.0162231
0.016224
0.0162249
0.0162258
0.0162267
0.0162276
0.0162285
0.0162294
0.0161859
0.0161869
0.0161878
0.0161888
0.0161898
0.0161908
0.0161918
0.0161928
0.0161937
0.0161947
0.0161958
0.0161968
0.0161978
0.0161988
0.0161998
0.0162009
0.0162019
0.0162029
0.016204
0.016205
0.0162061
0.0162071
0.0162082
0.0162092
0.0162103
0.0162114
0.0162124
0.0161646
0.0161657
0.0161668
0.0161679
0.0161691
0.0161702
0.0161714
0.0161725
0.0161737
0.0161748
0.016176
0.0161772
0.0161783
0.0161795
0.0161807
0.0161819
0.0161831
0.0161843
0.0161855
0.0161868
0.016188
0.0161892
0.0161904
0.0161917
0.0161929
0.0161942
0.0161954
0.0161425
0.0161438
0.0161451
0.0161464
0.0161477
0.016149
0.0161503
0.0161517
0.016153
0.0161544
0.0161557
0.0161571
0.0161584
0.0161598
0.0161612
0.0161626
0.016164
0.0161654
0.0161668
0.0161682
0.0161696
0.016171
0.0161724
0.0161739
0.0161753
0.0161768
0.0161782
0.0161195
0.016121
0.0161225
0.016124
0.0161255
0.016127
0.0161285
0.0161301
0.0161316
0.0161332
0.0161347
0.0161363
0.0161379
0.0161394
0.016141
0.0161426
0.0161442
0.0161458
0.0161475
0.0161491
0.0161507
0.0161524
0.016154
0.0161557
0.0161573
0.016159
0.0161606
0.0160953
0.016097
0.0160987
0.0161004
0.0161022
0.0161039
0.0161056
0.0161074
0.0161092
0.0161109
0.0161127
0.0161145
0.0161163
0.0161181
0.01612
0.0161218
0.0161236
0.0161255
0.0161273
0.0161292
0.0161311
0.016133
0.0161348
0.0161367
0.0161386
0.0161406
0.0161425
0.0160674
0.0160693
0.0160713
0.0160732
0.0160752
0.0160771
0.0160791
0.0160811
0.0160831
0.0160851
0.0160872
0.0160892
0.0160913
0.0160933
0.0160954
0.0160975
0.0160996
0.0161017
0.0161038
0.016106
0.0161081
0.0161103
0.0161124
0.0161146
0.0161168
0.016119
0.0161211
0.0161233
0.0160389
0.0160411
0.0160433
0.0160455
0.0160477
0.01605
0.0160523
0.0160545
0.0160568
0.0160592
0.0160615
0.0160638
0.0160662
0.0160686
0.0160709
0.0160733
0.0160757
0.0160782
0.0160806
0.0160831
0.0160855
0.016088
0.0160905
0.016093
0.0160955
0.016098
0.0161005
0.016103
0.0160077
0.0160102
0.0160127
0.0160153
0.0160178
0.0160204
0.016023
0.0160256
0.0160283
0.0160309
0.0160336
0.0160363
0.016039
0.0160417
0.0160444
0.0160472
0.01605
0.0160527
0.0160555
0.0160584
0.0160612
0.016064
0.0160669
0.0160698
0.0160726
0.0160755
0.0160785
0.0160814
0.0159738
0.0159766
0.0159795
0.0159824
0.0159853
0.0159883
0.0159913
0.0159943
0.0159973
0.0160003
0.0160034
0.0160065
0.0160096
0.0160127
0.0160158
0.016019
0.0160222
0.0160254
0.0160286
0.0160318
0.0160351
0.0160383
0.0160416
0.0160449
0.0160482
0.0160516
0.0160549
0.0160583
0.0159366
0.0159398
0.0159431
0.0159464
0.0159497
0.0159531
0.0159565
0.0159599
0.0159634
0.0159669
0.0159704
0.0159739
0.0159774
0.015981
0.0159846
0.0159883
0.0159919
0.0159956
0.0159993
0.016003
0.0160067
0.0160105
0.0160143
0.0160181
0.0160219
0.0160258
0.0160297
0.0160336
0.0158953
0.015899
0.0159027
0.0159065
0.0159103
0.0159142
0.015918
0.015922
0.0159259
0.0159299
0.0159339
0.0159379
0.015942
0.0159461
0.0159503
0.0159544
0.0159586
0.0159629
0.0159671
0.0159714
0.0159757
0.0159801
0.0159845
0.0159889
0.0159933
0.0159978
0.0160023
0.0160068
0.0158492
0.0158535
0.0158577
0.0158621
0.0158664
0.0158708
0.0158753
0.0158798
0.0158843
0.0158889
0.0158935
0.0158981
0.0159028
0.0159076
0.0159123
0.0159171
0.015922
0.0159268
0.0159318
0.0159367
0.0159418
0.0159468
0.0159519
0.015957
0.0159622
0.0159673
0.0159725
0.0159777
0.0157979
0.0158027
0.0158076
0.0158126
0.0158176
0.0158226
0.0158277
0.0158329
0.0158381
0.0158433
0.0158486
0.015854
0.0158594
0.0158648
0.0158703
0.0158759
0.0158815
0.0158872
0.0158929
0.0158987
0.0159045
0.0159103
0.0159162
0.0159221
0.0159281
0.0159341
0.0159401
0.0159461
0.0157407
0.0157462
0.0157518
0.0157575
0.0157632
0.015769
0.0157749
0.0157808
0.0157868
0.0157928
0.015799
0.0158051
0.0158113
0.0158176
0.015824
0.0158305
0.015837
0.0158436
0.0158502
0.0158569
0.0158636
0.0158704
0.0158772
0.0158841
0.015891
0.0158979
0.0159049
0.0159119
0.0156771
0.0156834
0.0156898
0.0156963
0.0157029
0.0157095
0.0157163
0.0157231
0.01573
0.0157369
0.0157439
0.0157511
0.0157583
0.0157656
0.015773
0.0157804
0.015788
0.0157956
0.0158033
0.015811
0.0158188
0.0158266
0.0158345
0.0158425
0.0158505
0.0158586
0.0158667
0.0158748
0.0156059
0.0156131
0.0156205
0.0156279
0.0156355
0.0156431
0.0156508
0.0156587
0.0156666
0.0156746
0.0156827
0.015691
0.0156993
0.0157078
0.0157163
0.015725
0.0157337
0.0157425
0.0157514
0.0157604
0.0157694
0.0157786
0.0157877
0.015797
0.0158063
0.0158156
0.015825
0.0158345
0.015526
0.0155343
0.0155427
0.0155513
0.0155599
0.0155687
0.0155776
0.0155866
0.0155957
0.0156049
0.0156143
0.0156239
0.0156336
0.0156434
0.0156533
0.0156633
0.0156734
0.0156836
0.015694
0.0157044
0.0157149
0.0157255
0.0157361
0.0157469
0.0157577
0.0157686
0.0157795
0.0157905
0.0154364
0.0154459
0.0154555
0.0154653
0.0154753
0.0154853
0.0154956
0.0155059
0.0155164
0.0155271
0.015538
0.0155491
0.0155602
0.0155716
0.015583
0.0155946
0.0156064
0.0156182
0.0156302
0.0156423
0.0156545
0.0156668
0.0156792
0.0156917
0.0157043
0.015717
0.0157297
0.0157425
0.0153355
0.0153464
0.0153574
0.0153687
0.0153801
0.0153917
0.0154035
0.0154154
0.0154275
0.0154399
0.0154525
0.0154653
0.0154782
0.0154914
0.0155046
0.0155181
0.0155317
0.0155455
0.0155594
0.0155735
0.0155877
0.015602
0.0156165
0.015631
0.0156457
0.0156605
0.0156753
0.0156902
0.0152216
0.015234
0.0152467
0.0152596
0.0152727
0.0152861
0.0152996
0.0153134
0.0153275
0.0153418
0.0153564
0.0153711
0.0153861
0.0154013
0.0154168
0.0154324
0.0154482
0.0154643
0.0154805
0.0154969
0.0155134
0.0155301
0.015547
0.015564
0.0155811
0.0155984
0.0156157
0.0156331
0.0150925
0.0151068
0.0151213
0.0151362
0.0151513
0.0151666
0.0151822
0.0151982
0.0152145
0.015231
0.0152479
0.015265
0.0152824
0.0153
0.0153179
0.0153361
0.0153545
0.0153732
0.0153921
0.0154112
0.0154305
0.01545
0.0154697
0.0154896
0.0155096
0.0155298
0.0155501
0.0155705
0.0149461
0.0149625
0.0149792
0.0149963
0.0150136
0.0150313
0.0150493
0.0150678
0.0150866
0.0151057
0.0151252
0.015145
0.0151652
0.0151857
0.0152065
0.0152276
0.0152491
0.0152708
0.0152928
0.0153151
0.0153377
0.0153605
0.0153836
0.0154069
0.0154303
0.015454
0.0154778
0.0155017
0.0147799
0.0147987
0.0148178
0.0148374
0.0148574
0.0148778
0.0148986
0.0149198
0.0149416
0.0149637
0.0149863
0.0150092
0.0150326
0.0150564
0.0150806
0.0151052
0.0151301
0.0151555
0.0151812
0.0152073
0.0152337
0.0152604
0.0152874
0.0153147
0.0153423
0.01537
0.015398
0.015426
0.0145909
0.0146124
0.0146344
0.0146569
0.0146798
0.0147032
0.0147273
0.0147518
0.0147769
0.0148024
0.0148285
0.0148551
0.0148822
0.0149098
0.0149379
0.0149665
0.0149956
0.0150252
0.0150553
0.0150858
0.0151167
0.015148
0.0151798
0.0152118
0.0152442
0.0152768
0.0153097
0.0153427
0.0143759
0.0144005
0.0144257
0.0144514
0.0144778
0.0145047
0.0145323
0.0145606
0.0145895
0.014619
0.0146491
0.0146799
0.0147113
0.0147433
0.014776
0.0148093
0.0148432
0.0148777
0.0149128
0.0149485
0.0149847
0.0150215
0.0150588
0.0150965
0.0151346
0.0151731
0.0152118
0.0152508
0.0141313
0.0141593
0.0141881
0.0142176
0.0142478
0.0142786
0.0143103
0.0143428
0.014376
0.01441
0.0144448
0.0144803
0.0145167
0.0145538
0.0145917
0.0146304
0.0146699
0.0147101
0.0147512
0.014793
0.0148355
0.0148787
0.0149225
0.014967
0.015012
0.0150574
0.0151031
0.0151491
0.0138532
0.0138851
0.0139178
0.0139514
0.0139858
0.0140211
0.0140574
0.0140945
0.0141327
0.0141717
0.0142117
0.0142527
0.0142946
0.0143376
0.0143815
0.0144264
0.0144723
0.0145193
0.0145672
0.0146161
0.014666
0.0147168
0.0147685
0.0148209
0.014874
0.0149278
0.014982
0.0150364
0.0135376
0.0135736
0.0136107
0.0136488
0.0136879
0.013728
0.0137693
0.0138117
0.0138552
0.0138999
0.0139457
0.0139928
0.014041
0.0140905
0.0141413
0.0141933
0.0142466
0.0143013
0.0143572
0.0144144
0.0144729
0.0145327
0.0145936
0.0146555
0.0147184
0.0147821
0.0148464
0.0149111
0.0131808
0.0132212
0.0132628
0.0133057
0.0133498
0.0133952
0.0134418
0.0134899
0.0135393
0.0135901
0.0136424
0.0136961
0.0137514
0.0138082
0.0138666
0.0139266
0.0139883
0.0140517
0.0141169
0.0141837
0.0142523
0.0143225
0.0143943
0.0144676
0.0145422
0.0146178
0.0146943
0.0147714
0.0127794
0.0128243
0.0128706
0.0129185
0.0129678
0.0130186
0.0130709
0.0131249
0.0131806
0.0132379
0.0132971
0.013358
0.0134209
0.0134857
0.0135525
0.0136214
0.0136925
0.0137658
0.0138413
0.0139192
0.0139994
0.0140818
0.0141665
0.0142532
0.0143417
0.0144317
0.0145229
0.0146149
0.0123311
0.0123803
0.0124314
0.0124841
0.0125387
0.012595
0.0126531
0.0127131
0.0127751
0.0128393
0.0129055
0.0129741
0.0130449
0.0131182
0.013194
0.0132725
0.0133538
0.013438
0.0135252
0.0136155
0.0137089
0.0138055
0.0139051
0.0140076
0.0141127
0.01422
0.0143291
0.0144392
0.0118348
0.0118881
0.0119435
0.0120009
0.0120604
0.0121221
0.0121857
0.0122516
0.0123199
0.0123907
0.0124641
0.0125402
0.0126192
0.0127012
0.0127864
0.012875
0.0129671
0.013063
0.0131628
0.0132668
0.0133751
0.0134876
0.0136044
0.0137254
0.0138501
0.0139781
0.0141088
0.014241
0.0112911
0.011348
0.0114071
0.0114686
0.0115326
0.011599
0.0116677
0.011739
0.0118131
0.0118902
0.0119703
0.0120537
0.0121405
0.012231
0.0123255
0.0124242
0.0125274
0.0126354
0.0127485
0.0128672
0.0129915
0.0131218
0.0132581
0.0134004
0.0135481
0.0137008
0.0138574
0.0140166
0.0107036
0.0107628
0.0108245
0.0108891
0.0109565
0.0110267
0.0110996
0.0111754
0.0112545
0.0113369
0.011423
0.0115129
0.0116068
0.0117052
0.0118084
0.0119166
0.0120305
0.0121505
0.0122771
0.0124108
0.0125521
0.0127016
0.0128594
0.0130256
0.0131999
0.0133816
0.0135694
0.0137614
0.0100796
0.0101391
0.0102016
0.0102674
0.0103365
0.010409
0.0104845
0.0105634
0.0106459
0.0107324
0.010823
0.010918
0.0110179
0.0111229
0.0112335
0.0113503
0.0114739
0.011605
0.0117443
0.0118928
0.0120512
0.0122204
0.0124011
0.0125937
0.012798
0.0130134
0.0132382
0.01347
0.00943856
0.00949388
0.00955315
0.0096164
0.00968367
0.00975504
0.0098306
0.00990975
0.0099932
0.0100812
0.0101741
0.0102721
0.0103756
0.0104852
0.0106014
0.0107248
0.0108563
0.0109968
0.0111474
0.0113094
0.011484
0.0116727
0.0118768
0.0120973
0.0123346
0.0125882
0.0128565
0.0131361
0.00882601
0.00886747
0.00891451
0.00896716
0.00902523
0.00908864
0.00915757
0.0092313
0.00931049
0.00939539
0.00948616
0.00958311
0.00968667
0.00979735
0.00991577
0.0100427
0.0101791
0.0103262
0.0104854
0.0106584
0.0108472
0.0110538
0.0112805
0.0115293
0.0118016
0.0120976
0.0124158
0.0127524
0.00835124
0.00835674
0.0083708
0.00839498
0.00842793
0.00846798
0.00851516
0.00857034
0.00863325
0.00870475
0.0087843
0.0088718
0.0089678
0.00907289
0.00918756
0.00931244
0.00944865
0.00959757
0.00976089
0.00994075
0.0101398
0.010361
0.0106077
0.0108835
0.0111913
0.0115326
0.0119068
0.0123101
0.00809807
0.00808226
0.00806843
0.00805647
0.00804616
0.00803785
0.00803312
0.00803551
0.00805069
0.00808439
0.00813251
0.00819128
0.00826191
0.00834639
0.00844491
0.0085565
0.00868243
0.00882434
0.00898375
0.00916308
0.00936561
0.00959526
0.00985678
0.0101556
0.0104969
0.0108846
0.01132
0.0118001
0.00796262
0.00793149
0.00789958
0.00786719
0.00783481
0.00780322
0.00777349
0.00774686
0.00772436
0.00770581
0.00769037
0.00767945
0.00767908
0.00770359
0.00775909
0.00783218
0.00792478
0.00804129
0.008181
0.00834547
0.00853903
0.00876592
0.00903225
0.00934577
0.00971453
0.0101461
0.0106448
0.0112106
0.00791023
0.00787465
0.0078359
0.00779407
0.0077494
0.00770229
0.00765325
0.00760291
0.00755201
0.00750148
0.00745245
0.0074063
0.00736543
0.00733185
0.0073055
0.00728651
0.00728459
0.00733306
0.00741973
0.00753787
0.00769739
0.00789984
0.00815164
0.00846389
0.00884702
0.00931376
0.00987344
0.0105312
0.00786638
0.00784008
0.00780914
0.0077732
0.00773201
0.00768536
0.00763308
0.00757511
0.00751164
0.00744308
0.00737024
0.0072944
0.00721706
0.00714003
0.00706552
0.00699682
0.00693839
0.00689469
0.00686495
0.00685726
0.00692819
0.00706223
0.00725872
0.00753886
0.00790965
0.00839209
0.0090008
0.00974831
0.00773053
0.00772425
0.00771344
0.00769744
0.00767568
0.00764749
0.00761207
0.00756857
0.00751627
0.00745459
0.00738294
0.00730101
0.00720893
0.0071076
0.00699872
0.00688511
0.00677054
0.00665987
0.00655906
0.00647692
0.00642448
0.0064054
0.00644937
0.00663864
0.00694218
0.0074021
0.00803493
0.00886213
0.00741008
0.00742824
0.00744321
0.00745437
0.00746102
0.00746241
0.00745727
0.00744468
0.00742336
0.00739219
0.0073495
0.00729338
0.00722186
0.00713364
0.00702742
0.00690254
0.00675988
0.00660277
0.00643699
0.00627137
0.00611795
0.00599189
0.0059145
0.00591161
0.00602697
0.00638649
0.00699026
0.00786351
0.00683983
0.00688057
0.00692004
0.00695776
0.00699318
0.00702562
0.0070542
0.00707789
0.00709554
0.00710572
0.0071067
0.00709588
0.00707081
0.0070288
0.00696678
0.00688061
0.00676528
0.00661804
0.00643752
0.00622601
0.00599289
0.0057558
0.00554146
0.00538466
0.00533016
0.00543671
0.00591549
0.00678202
0.0059805
0.00603778
0.00609563
0.00615386
0.00621213
0.00626999
0.00632686
0.00638206
0.00643485
0.00648402
0.00652818
0.00656545
0.00659361
0.00660968
0.00661026
0.00659026
0.00654382
0.00646406
0.00634413
0.00617369
0.00594428
0.00565776
0.0053369
0.00502418
0.00478475
0.00470105
0.00487637
0.00560949
0.00480888
0.00487381
0.00494081
0.00500992
0.00508101
0.00515389
0.00522836
0.00530419
0.0053809
0.00545784
0.00553424
0.00560893
0.00568045
0.00574676
0.00580508
0.00585175
0.00588225
0.00589003
0.00586637
0.00579918
0.00567181
0.00546725
0.00516465
0.00477378
0.00436804
0.00406627
0.00401383
0.00439946
0.00332674
0.00338436
0.0034451
0.00350926
0.00357696
0.00364829
0.0037234
0.0038024
0.00388516
0.00397159
0.00406148
0.00415444
0.00424987
0.00434687
0.00444416
0.00454032
0.00463358
0.00471899
0.00478639
0.00482657
0.00483146
0.00478189
0.00464884
0.0043824
0.00395301
0.00348443
0.00317553
0.00325196
0.00171404
0.0017395
0.0017671
0.00179708
0.00182958
0.00186478
0.00190291
0.00194427
0.00198909
0.00203781
0.00209097
0.00214942
0.00221448
0.00228831
0.00237439
0.00247842
0.00260714
0.00275573
0.00289996
0.00302972
0.003157
0.00326934
0.00334383
0.00332489
0.00314002
0.00274794
0.00233652
0.00221073
0.000394361
0.000397976
0.000402319
0.000407454
0.000413391
0.000420178
0.000427884
0.000436593
0.000446385
0.00045739
0.000469756
0.000483695
0.000499507
0.000517616
0.000538436
0.000561318
0.000579233
0.000587268
0.000596101
0.000601923
0.000618878
0.000634495
0.000641626
0.000611756
0.0005488
0.000488747
0.000559622
0.00120992
0.016367
0.0163571
0.0163551
0.016352
0.0163458
0.0163401
0.0163371
0.0163362
0.0163373
0.016338
0.0163381
0.0163376
0.0163368
0.0163358
0.0163349
0.0163342
0.0163336
0.0163331
0.0163327
0.0163324
0.0163321
0.0163318
0.0163315
0.0163313
0.0163311
0.0163308
0.0163307
0.0163305
0.0163304
0.0163304
0.0163303
0.0163303
0.0163303
0.0163302
0.0163301
0.01633
0.0163298
0.0163294
0.0163287
0.0163276
0.0163265
0.0163268
0.0163285
0.0163287
0.0163287
0.0163292
0.0163293
0.0163293
0.0163294
0.0163291
0.0163283
0.0163266
0.0163276
0.016331
0.0163317
0.0163311
0.0163295
0.0163264
0.0163262
0.0163265
0.0163675
0.0163598
0.0163519
0.0163453
0.0163445
0.0163423
0.0163419
0.0163412
0.01634
0.0163387
0.0163372
0.0163358
0.0163343
0.0163329
0.0163316
0.0163305
0.0163302
0.0163307
0.0163314
0.0163323
0.0163332
0.0163336
0.0163335
0.0163332
0.0163327
0.016332
0.0163313
0.0163304
0.0163296
0.0163287
0.0163281
0.0163291
0.0163307
0.0163311
0.0163309
0.0163303
0.0163297
0.0163289
0.0163279
0.016327
0.0163262
0.016326
0.0163258
0.0163249
0.0163246
0.0163247
0.0163247
0.0163247
0.0163246
0.0163244
0.016324
0.0163237
0.0163255
0.0163296
0.0163285
0.0163265
0.0163249
0.0163225
0.0163223
0.0163231
0.0163515
0.0163494
0.0163425
0.0163392
0.0163348
0.0163324
0.0163299
0.0163289
0.0163297
0.0163284
0.0163276
0.016327
0.0163277
0.0163277
0.0163273
0.0163272
0.0163275
0.0163281
0.0163287
0.0163291
0.0163289
0.016328
0.0163267
0.0163254
0.0163251
0.016325
0.0163249
0.016325
0.0163253
0.0163259
0.0163266
0.0163272
0.0163273
0.0163264
0.016325
0.0163241
0.0163234
0.0163227
0.016322
0.0163214
0.0163209
0.0163206
0.0163203
0.0163199
0.0163198
0.0163199
0.0163199
0.01632
0.0163201
0.0163202
0.0163204
0.0163207
0.0163233
0.0163266
0.0163236
0.0163225
0.0163201
0.016318
0.0163178
0.0163188
0.0163314
0.016327
0.0163232
0.01632
0.0163174
0.0163155
0.0163161
0.0163168
0.0163175
0.0163183
0.0163191
0.0163201
0.0163211
0.0163222
0.0163232
0.0163242
0.0163248
0.0163251
0.0163252
0.0163249
0.0163243
0.0163235
0.0163228
0.0163222
0.0163219
0.0163217
0.0163215
0.0163213
0.0163212
0.0163209
0.0163204
0.0163197
0.0163191
0.0163183
0.0163175
0.0163169
0.0163164
0.0163159
0.0163155
0.0163151
0.0163149
0.0163147
0.0163146
0.0163145
0.0163146
0.0163147
0.0163148
0.0163151
0.0163155
0.0163158
0.0163163
0.0163175
0.0163205
0.0163208
0.0163187
0.0163182
0.0163151
0.0163132
0.016313
0.0163143
0.0162996
0.0163009
0.0163021
0.0163033
0.0163045
0.0163058
0.0163073
0.0163088
0.0163102
0.0163116
0.016313
0.0163143
0.0163157
0.016317
0.0163182
0.016319
0.0163193
0.0163192
0.0163189
0.0163183
0.0163176
0.0163169
0.0163161
0.0163154
0.0163146
0.0163138
0.0163133
0.0163131
0.0163128
0.0163125
0.016312
0.0163114
0.0163109
0.0163104
0.01631
0.0163096
0.0163093
0.0163091
0.0163089
0.0163087
0.0163087
0.0163087
0.0163088
0.0163089
0.016309
0.0163093
0.0163097
0.0163102
0.0163106
0.0163111
0.0163118
0.0163134
0.0163152
0.0163148
0.0163134
0.0163124
0.0163098
0.0163081
0.0163081
0.0163095
0.0162896
0.0162915
0.0162934
0.0162953
0.0162971
0.0162989
0.0163005
0.0163022
0.0163037
0.0163052
0.0163064
0.0163075
0.0163082
0.0163087
0.016309
0.0163089
0.0163085
0.016308
0.0163074
0.0163068
0.0163063
0.0163058
0.0163054
0.0163051
0.0163047
0.0163045
0.0163043
0.0163041
0.0163039
0.0163037
0.0163034
0.0163031
0.0163028
0.0163026
0.0163024
0.0163023
0.0163022
0.0163021
0.0163022
0.0163023
0.0163024
0.0163026
0.0163027
0.016303
0.0163033
0.0163038
0.0163043
0.0163049
0.0163054
0.016306
0.016307
0.0163083
0.0163092
0.0163086
0.0163075
0.0163063
0.0163041
0.0163027
0.0163028
0.0163043
0.0162788
0.0162808
0.0162826
0.0162844
0.0162861
0.0162877
0.0162891
0.0162904
0.0162916
0.0162925
0.0162934
0.016294
0.0162944
0.0162948
0.016295
0.016295
0.0162951
0.016295
0.016295
0.0162949
0.0162949
0.0162948
0.0162948
0.0162948
0.0162948
0.0162948
0.0162948
0.0162948
0.0162947
0.0162947
0.0162946
0.0162946
0.0162946
0.0162946
0.0162946
0.0162947
0.0162949
0.0162951
0.0162953
0.0162955
0.0162958
0.0162961
0.0162964
0.0162968
0.0162974
0.016298
0.0162986
0.0162991
0.0162997
0.0163004
0.0163015
0.0163024
0.0163026
0.0163021
0.0163012
0.0162998
0.0162979
0.0162969
0.0162971
0.0162986
0.0162637
0.0162658
0.0162677
0.0162696
0.0162713
0.0162728
0.0162743
0.0162756
0.0162768
0.0162778
0.0162787
0.0162796
0.0162803
0.0162809
0.0162814
0.0162819
0.0162823
0.0162826
0.016283
0.0162833
0.0162836
0.0162838
0.0162841
0.0162844
0.0162846
0.0162848
0.016285
0.0162852
0.0162854
0.0162856
0.0162858
0.016286
0.0162862
0.0162865
0.0162867
0.016287
0.0162874
0.0162877
0.0162881
0.0162884
0.0162888
0.0162892
0.0162898
0.0162904
0.0162911
0.0162917
0.0162922
0.0162928
0.0162935
0.0162944
0.0162952
0.0162957
0.0162956
0.0162952
0.0162943
0.0162929
0.0162914
0.0162906
0.0162909
0.0162923
0.0162472
0.0162495
0.0162516
0.0162537
0.0162556
0.0162573
0.016259
0.0162605
0.0162619
0.0162632
0.0162643
0.0162654
0.0162664
0.0162673
0.0162682
0.016269
0.0162697
0.0162704
0.016271
0.0162716
0.0162722
0.0162728
0.0162733
0.0162738
0.0162742
0.0162747
0.0162751
0.0162755
0.016276
0.0162764
0.0162768
0.0162772
0.0162777
0.0162781
0.0162786
0.016279
0.0162795
0.01628
0.0162805
0.016281
0.0162815
0.0162822
0.0162829
0.0162835
0.0162842
0.0162848
0.0162854
0.016286
0.0162868
0.0162876
0.0162882
0.0162884
0.0162883
0.0162878
0.0162869
0.0162856
0.0162844
0.0162838
0.0162842
0.0162856
0.0162305
0.016233
0.0162354
0.0162376
0.0162398
0.0162418
0.0162436
0.0162454
0.0162471
0.0162486
0.0162501
0.0162515
0.0162527
0.016254
0.0162551
0.0162562
0.0162572
0.0162581
0.016259
0.0162599
0.0162607
0.0162615
0.0162623
0.016263
0.0162637
0.0162644
0.016265
0.0162657
0.0162663
0.016267
0.0162676
0.0162682
0.0162688
0.0162695
0.0162701
0.0162706
0.0162712
0.0162718
0.0162725
0.0162732
0.0162739
0.0162747
0.0162754
0.0162761
0.0162767
0.0162773
0.016278
0.0162787
0.0162795
0.0162801
0.0162804
0.0162805
0.0162804
0.0162799
0.016279
0.0162778
0.0162769
0.0162765
0.016277
0.0162783
0.0162137
0.0162164
0.0162191
0.0162216
0.016224
0.0162262
0.0162284
0.0162304
0.0162323
0.0162341
0.0162359
0.0162375
0.0162391
0.0162405
0.0162419
0.0162433
0.0162445
0.0162458
0.0162469
0.016248
0.0162491
0.0162501
0.0162511
0.0162521
0.016253
0.0162539
0.0162548
0.0162556
0.0162564
0.0162573
0.016258
0.0162588
0.0162596
0.0162603
0.0162611
0.0162618
0.0162625
0.0162633
0.0162641
0.016265
0.0162658
0.0162665
0.0162673
0.0162679
0.0162686
0.0162693
0.01627
0.0162708
0.0162714
0.0162718
0.016272
0.0162721
0.016272
0.0162714
0.0162705
0.0162696
0.0162688
0.0162687
0.0162692
0.0162705
0.0161968
0.0161998
0.0162027
0.0162055
0.0162081
0.0162106
0.016213
0.0162153
0.0162175
0.0162196
0.0162216
0.0162235
0.0162253
0.016227
0.0162286
0.0162302
0.0162317
0.0162332
0.0162346
0.0162359
0.0162372
0.0162385
0.0162397
0.0162408
0.016242
0.016243
0.0162441
0.0162451
0.0162461
0.0162471
0.016248
0.0162489
0.0162498
0.0162507
0.0162516
0.0162525
0.0162534
0.0162543
0.0162552
0.0162561
0.0162569
0.0162577
0.0162584
0.0162591
0.0162599
0.0162607
0.0162614
0.016262
0.0162625
0.0162628
0.0162631
0.0162631
0.0162629
0.0162623
0.0162615
0.0162607
0.0162602
0.0162602
0.0162608
0.016262
0.0161798
0.016183
0.0161861
0.0161892
0.0161921
0.0161948
0.0161975
0.0162
0.0162025
0.0162048
0.016207
0.0162092
0.0162112
0.0162132
0.0162151
0.0162169
0.0162186
0.0162203
0.0162219
0.0162235
0.016225
0.0162264
0.0162278
0.0162291
0.0162304
0.0162317
0.0162329
0.0162341
0.0162352
0.0162363
0.0162374
0.0162385
0.0162395
0.0162406
0.0162416
0.0162427
0.0162437
0.0162447
0.0162456
0.0162465
0.0162473
0.0162481
0.0162489
0.0162497
0.0162505
0.0162513
0.0162519
0.0162525
0.0162529
0.0162532
0.0162534
0.0162534
0.0162531
0.0162526
0.0162519
0.0162513
0.016251
0.0162511
0.0162518
0.0162529
0.0161624
0.0161659
0.0161693
0.0161726
0.0161757
0.0161788
0.0161817
0.0161844
0.0161871
0.0161897
0.0161922
0.0161945
0.0161968
0.016199
0.0162011
0.0162031
0.0162051
0.0162069
0.0162088
0.0162105
0.0162122
0.0162138
0.0162153
0.0162169
0.0162183
0.0162197
0.0162211
0.0162224
0.0162237
0.016225
0.0162262
0.0162275
0.0162287
0.0162299
0.016231
0.0162321
0.0162332
0.0162342
0.0162351
0.016236
0.0162369
0.0162378
0.0162387
0.0162395
0.0162403
0.016241
0.0162416
0.0162421
0.0162425
0.0162429
0.016243
0.0162429
0.0162426
0.0162422
0.0162416
0.0162412
0.0162411
0.0162413
0.016242
0.016243
0.0161445
0.0161482
0.0161519
0.0161554
0.0161588
0.0161621
0.0161653
0.0161683
0.0161712
0.016174
0.0161767
0.0161793
0.0161818
0.0161842
0.0161865
0.0161887
0.0161908
0.0161929
0.0161949
0.0161968
0.0161987
0.0162005
0.0162022
0.0162039
0.0162055
0.0162071
0.0162086
0.0162101
0.0162116
0.016213
0.0162144
0.0162158
0.0162171
0.0162183
0.0162195
0.0162207
0.0162218
0.0162228
0.0162238
0.0162248
0.0162258
0.0162267
0.0162276
0.0162285
0.0162292
0.0162299
0.0162305
0.016231
0.0162314
0.0162317
0.0162318
0.0162317
0.0162314
0.016231
0.0162306
0.0162304
0.0162304
0.0162307
0.0162314
0.0162324
0.0161257
0.0161297
0.0161336
0.0161374
0.0161411
0.0161446
0.016148
0.0161513
0.0161544
0.0161575
0.0161604
0.0161632
0.0161659
0.0161685
0.016171
0.0161735
0.0161758
0.0161781
0.0161802
0.0161823
0.0161844
0.0161864
0.0161883
0.0161901
0.0161919
0.0161937
0.0161954
0.0161971
0.0161987
0.0162002
0.0162017
0.0162031
0.0162045
0.0162058
0.0162071
0.0162083
0.0162094
0.0162106
0.0162117
0.0162127
0.0162138
0.0162148
0.0162157
0.0162165
0.0162172
0.0162179
0.0162185
0.016219
0.0162194
0.0162197
0.0162197
0.0162196
0.0162194
0.0162191
0.0162189
0.0162188
0.0162189
0.0162193
0.01622
0.016221
0.0161057
0.01611
0.0161142
0.0161183
0.0161223
0.0161261
0.0161297
0.0161333
0.0161367
0.0161399
0.0161431
0.0161462
0.0161491
0.0161519
0.0161547
0.0161573
0.0161599
0.0161623
0.0161647
0.016167
0.0161693
0.0161714
0.0161735
0.0161756
0.0161775
0.0161794
0.0161813
0.016183
0.0161847
0.0161864
0.016188
0.0161895
0.0161909
0.0161923
0.0161936
0.0161949
0.0161962
0.0161974
0.0161986
0.0161997
0.0162008
0.0162018
0.0162027
0.0162035
0.0162042
0.0162049
0.0162056
0.0162061
0.0162065
0.0162067
0.0162067
0.0162067
0.0162065
0.0162064
0.0162063
0.0162063
0.0162066
0.016207
0.0162078
0.0162087
0.0160844
0.016089
0.0160936
0.016098
0.0161023
0.0161064
0.0161103
0.0161141
0.0161178
0.0161214
0.0161248
0.0161281
0.0161313
0.0161344
0.0161373
0.0161402
0.016143
0.0161456
0.0161482
0.0161507
0.0161532
0.0161555
0.0161578
0.0161599
0.016162
0.0161641
0.016166
0.0161679
0.0161697
0.0161714
0.0161731
0.0161747
0.0161762
0.0161777
0.0161792
0.0161806
0.0161819
0.0161832
0.0161844
0.0161856
0.0161867
0.0161877
0.0161886
0.0161895
0.0161903
0.016191
0.0161916
0.0161921
0.0161925
0.0161927
0.0161928
0.0161928
0.0161928
0.0161927
0.0161928
0.0161929
0.0161933
0.0161938
0.0161945
0.0161953
0.0160618
0.0160668
0.0160718
0.0160765
0.0160811
0.0160855
0.0160897
0.0160939
0.0160978
0.0161016
0.0161053
0.0161089
0.0161123
0.0161156
0.0161188
0.0161219
0.0161249
0.0161278
0.0161305
0.0161332
0.0161358
0.0161383
0.0161407
0.016143
0.0161453
0.0161474
0.0161495
0.0161515
0.0161534
0.0161552
0.016157
0.0161587
0.0161604
0.016162
0.0161636
0.0161651
0.0161665
0.0161678
0.0161691
0.0161703
0.0161714
0.0161725
0.0161734
0.0161744
0.0161752
0.0161759
0.0161766
0.0161771
0.0161774
0.0161777
0.0161778
0.0161779
0.016178
0.0161781
0.0161782
0.0161785
0.0161789
0.0161795
0.0161802
0.016181
0.0160377
0.0160431
0.0160484
0.0160535
0.0160584
0.0160631
0.0160677
0.0160721
0.0160763
0.0160804
0.0160844
0.0160882
0.0160919
0.0160954
0.0160989
0.0161022
0.0161053
0.0161084
0.0161114
0.0161143
0.016117
0.0161197
0.0161222
0.0161247
0.0161271
0.0161294
0.0161316
0.0161338
0.0161358
0.0161378
0.0161397
0.0161416
0.0161434
0.0161451
0.0161468
0.0161483
0.0161498
0.0161512
0.0161525
0.0161538
0.016155
0.0161561
0.0161571
0.0161581
0.0161589
0.0161597
0.0161603
0.0161608
0.0161612
0.0161615
0.0161617
0.0161619
0.0161621
0.0161623
0.0161626
0.016163
0.0161634
0.016164
0.0161647
0.0160115
0.0160174
0.0160231
0.0160285
0.0160338
0.0160389
0.0160438
0.0160485
0.0160531
0.0160575
0.0160617
0.0160658
0.0160698
0.0160736
0.0160772
0.0160808
0.0160842
0.0160875
0.0160907
0.0160937
0.0160967
0.0160995
0.0161023
0.0161049
0.0161075
0.01611
0.0161124
0.0161147
0.0161169
0.0161191
0.0161211
0.0161231
0.016125
0.0161268
0.0161285
0.0161302
0.0161317
0.0161332
0.0161346
0.0161359
0.0161372
0.0161384
0.0161395
0.0161405
0.0161413
0.0161421
0.0161428
0.0161433
0.0161438
0.0161441
0.0161445
0.0161448
0.0161451
0.0161454
0.0161457
0.0161462
0.0161467
0.0161473
0.016148
0.0159831