/*--------------------------------*- C++ -*----------------------------------*\
  =========                 |
  \\      /  F ield         | OpenFOAM: The Open Source CFD Toolbox
   \\    /   O peration     | Website:  https://openfoam.org
    \\  /    A nd           | Version:  9
     \\/     M anipulation  |
\*---------------------------------------------------------------------------*/
FoamFile
{
    format      ascii;
    class       volScalarField;
    location    "0.0025";
    object      alphat;
}
// * * * * * * * * * * * * * * * * * * * * * * * * * * * * * * * * * * * * * //

dimensions      [1 -1 -1 0 0 0 0];

internalField   nonuniform List<scalar> 
6352
(
0.0153077
0.0152349
0.0152368
0.0152742
0.0153272
0.0153849
0.015442
0.015496
0.015546
0.0155916
0.0156332
0.0156711
0.0157058
0.0157376
0.0157672
0.0157948
0.0158207
0.0158451
0.0158679
0.015889
0.0159083
0.0159252
0.0159401
0.0159529
0.0159631
0.0152225
0.0151526
0.0151511
0.0151841
0.0152338
0.01529
0.015347
0.0154023
0.0154543
0.0155023
0.0155464
0.0155867
0.0156235
0.0156571
0.0156879
0.0157164
0.0157434
0.0157693
0.0157929
0.0158146
0.0158347
0.0158534
0.0158711
0.0158879
0.0159039
0.0150664
0.0150643
0.0150945
0.015141
0.0151945
0.0152503
0.0153055
0.0153587
0.0154089
0.0154559
0.0154994
0.0155396
0.0155765
0.0156105
0.0156417
0.0156706
0.0156972
0.0157219
0.0157449
0.0157663
0.0157864
0.0158053
0.0158232
0.0158401
0.0149756
0.0149743
0.0150017
0.0150444
0.0150945
0.0151476
0.0152013
0.0152541
0.0153049
0.0153533
0.0153988
0.0154414
0.0154811
0.0155178
0.0155518
0.0155832
0.0156123
0.0156393
0.0156643
0.0156877
0.0157097
0.0157303
0.0157497
0.015768
0.0148818
0.0148834
0.0149093
0.0149487
0.0149953
0.0150453
0.0150965
0.0151477
0.0151978
0.0152464
0.0152931
0.0153374
0.0153793
0.0154187
0.0154554
0.0154896
0.0155214
0.0155508
0.0155782
0.0156037
0.0156276
0.0156499
0.0156708
0.0156906
0.014784
0.0147904
0.0148163
0.0148536
0.0148971
0.014944
0.0149923
0.0150409
0.0150891
0.0151365
0.0151828
0.0152277
0.0152709
0.0153121
0.0153513
0.0153882
0.0154228
0.015455
0.0154851
0.0155131
0.0155392
0.0155635
0.0155864
0.0156078
0.0146813
0.0146938
0.0147214
0.0147577
0.0147992
0.0148435
0.0148891
0.0149352
0.014981
0.0150262
0.0150707
0.0151144
0.0151572
0.015199
0.0152397
0.0152787
0.0153159
0.0153511
0.0153841
0.0154149
0.0154437
0.0154705
0.0154956
0.0155191
0.0145727
0.0145923
0.0146227
0.0146595
0.0147001
0.0147428
0.0147866
0.0148307
0.0148744
0.0149176
0.01496
0.0150016
0.0150423
0.0150824
0.0151223
0.0151619
0.0152007
0.0152382
0.015274
0.0153078
0.0153397
0.0153695
0.0153974
0.0154236
0.0144574
0.0144843
0.0145183
0.0145566
0.0145974
0.0146397
0.0146826
0.0147256
0.0147683
0.0148104
0.0148517
0.014892
0.0149314
0.0149699
0.0150078
0.0150458
0.0150838
0.0151212
0.0151577
0.0151929
0.0152268
0.0152593
0.0152903
0.0153199
0.0143345
0.0143685
0.0144067
0.0144472
0.014489
0.0145314
0.0145741
0.0146168
0.014659
0.0147007
0.0147416
0.0147817
0.0148207
0.0148588
0.0148959
0.0149323
0.0149686
0.0150053
0.0150417
0.0150775
0.0151124
0.0151462
0.0151787
0.01521
0.0142036
0.0142443
0.0142866
0.0143296
0.0143729
0.0144161
0.0144592
0.0145018
0.014544
0.0145856
0.0146264
0.0146664
0.0147055
0.0147437
0.0147808
0.014817
0.0148523
0.014887
0.0149219
0.0149571
0.0149921
0.0150265
0.01506
0.0150925
0.0140642
0.0141109
0.0141572
0.014203
0.0142481
0.0142924
0.0143361
0.0143792
0.0144216
0.0144632
0.0145041
0.0145443
0.0145835
0.0146219
0.0146594
0.0146959
0.0147315
0.0147662
0.0148001
0.0148335
0.0148669
0.0149007
0.0149345
0.0149677
0.0139681
0.014018
0.0140665
0.0141135
0.0141593
0.014204
0.0142476
0.0142904
0.0143323
0.0143734
0.0144137
0.0144531
0.0144917
0.0145294
0.0145663
0.0146023
0.0146375
0.0146718
0.0147053
0.0147381
0.0147703
0.0148024
0.0148354
0.0138146
0.013868
0.0139192
0.0139684
0.0140158
0.0140617
0.0141063
0.0141497
0.014192
0.0142333
0.0142738
0.0143133
0.014352
0.0143898
0.0144268
0.014463
0.0144984
0.0145329
0.0145667
0.0145997
0.014632
0.0146637
0.014695
0.0136501
0.0137067
0.0137606
0.013812
0.0138613
0.0139087
0.0139544
0.0139986
0.0140415
0.0140833
0.014124
0.0141638
0.0142026
0.0142405
0.0142775
0.0143137
0.0143491
0.0143837
0.0144176
0.0144506
0.014483
0.0145146
0.0145456
0.0134737
0.0135333
0.0135898
0.0136435
0.0136948
0.0137438
0.0137909
0.0138362
0.01388
0.0139225
0.0139637
0.0140038
0.0140428
0.0140809
0.014118
0.0141543
0.0141897
0.0142243
0.0142582
0.0142912
0.0143236
0.0143552
0.0143862
0.0132847
0.0133469
0.013406
0.013462
0.0135153
0.0135661
0.0136148
0.0136615
0.0137064
0.0137498
0.0137917
0.0138323
0.0138718
0.0139101
0.0139475
0.0139838
0.0140193
0.0140539
0.0140877
0.0141207
0.014153
0.0141845
0.0142154
0.0131471
0.0132082
0.0132664
0.0133218
0.0133746
0.0134251
0.0134733
0.0135196
0.0135641
0.013607
0.0136484
0.0136884
0.0137272
0.0137648
0.0138014
0.013837
0.0138717
0.0139055
0.0139384
0.0139706
0.014002
0.0140327
0.0129311
0.0129948
0.0130554
0.0131131
0.0131681
0.0132206
0.0132706
0.0133185
0.0133643
0.0134083
0.0134507
0.0134915
0.0135309
0.013569
0.013606
0.0136418
0.0136766
0.0137104
0.0137434
0.0137754
0.0138066
0.0138371
0.0126985
0.0127648
0.012828
0.0128882
0.0129455
0.0130001
0.0130522
0.0131018
0.0131493
0.0131947
0.0132382
0.01328
0.0133202
0.013359
0.0133964
0.0134325
0.0134675
0.0135014
0.0135344
0.0135664
0.0135974
0.0136277
0.0125172
0.0125827
0.0126455
0.0127053
0.0127624
0.0128168
0.0128685
0.0129179
0.0129649
0.0130099
0.0130528
0.013094
0.0131335
0.0131715
0.0132081
0.0132433
0.0132774
0.0133103
0.0133422
0.0133731
0.0134031
0.012248
0.0123168
0.0123827
0.0124457
0.0125057
0.0125629
0.0126172
0.0126688
0.0127179
0.0127646
0.0128091
0.0128515
0.012892
0.0129307
0.0129678
0.0130033
0.0130375
0.0130705
0.0131022
0.0131327
0.0131623
0.0119557
0.012028
0.0120975
0.0121642
0.0122277
0.0122883
0.0123458
0.0124003
0.0124521
0.0125011
0.0125476
0.0125917
0.0126336
0.0126734
0.0127113
0.0127474
0.0127818
0.0128148
0.0128464
0.0128765
0.0129056
0.011714
0.0117868
0.0118572
0.0119249
0.0119895
0.012051
0.0121093
0.0121645
0.0122167
0.0122661
0.0123128
0.0123568
0.0123984
0.0124377
0.0124749
0.0125101
0.0125435
0.0125752
0.0126053
0.0126339
0.0113722
0.0114471
0.0115212
0.0115934
0.0116628
0.0117288
0.0117915
0.0118508
0.011907
0.0119602
0.0120105
0.0120579
0.0121025
0.0121445
0.0121839
0.012221
0.0122558
0.0122884
0.012319
0.0123478
0.0111281
0.0111964
0.0112635
0.0113289
0.0113925
0.0114541
0.0115137
0.0115712
0.0116265
0.0116797
0.0117307
0.0117795
0.0118258
0.0118694
0.0119104
0.0119487
0.0119845
0.0120179
0.0120491
0.0108415
0.0109077
0.0109727
0.011036
0.0110975
0.0111571
0.0112147
0.0112703
0.0113237
0.0113749
0.011424
0.0114708
0.0115156
0.0115583
0.0115991
0.0116381
0.0116752
0.0117104
0.011744
0.0106307
0.0106941
0.0107561
0.0108164
0.0108748
0.010931
0.0109851
0.011037
0.0110867
0.0111341
0.0111794
0.0112226
0.0112637
0.0113028
0.0113399
0.0113751
0.0114082
0.0114395
0.0104139
0.0104745
0.0105337
0.0105912
0.0106467
0.0107
0.0107511
0.0107998
0.0108463
0.0108904
0.0109323
0.0109719
0.0110093
0.0110444
0.0110774
0.0111081
0.0111368
0.0101329
0.0101905
0.0102474
0.0103032
0.0103574
0.0104099
0.0104603
0.0105085
0.0105545
0.0105981
0.0106393
0.0106782
0.0107146
0.0107488
0.0107806
0.0108099
0.010837
0.00991461
0.00996631
0.0100177
0.0100685
0.0101182
0.0101666
0.0102134
0.0102583
0.0103011
0.0103418
0.0103802
0.0104163
0.0104501
0.0104815
0.0105106
0.0105379
0.00970265
0.00974432
0.00978758
0.00983166
0.00987555
0.0099186
0.00996047
0.0100008
0.0100394
0.010076
0.0101108
0.010144
0.0101755
0.0102049
0.0102323
0.00944922
0.00948981
0.00952796
0.00956397
0.00959815
0.00963071
0.0096629
0.009695
0.00972723
0.00975924
0.00979067
0.00982102
0.00984991
0.00987705
0.00990228
0.00917915
0.00921977
0.00925818
0.0092946
0.00932887
0.00936094
0.00939066
0.00941804
0.00944309
0.0094658
0.00948606
0.00950398
0.00952037
0.00953555
0.00882689
0.00886744
0.00890479
0.00893883
0.00896955
0.00899697
0.00902101
0.00904174
0.00905927
0.00907436
0.00908762
0.00909906
0.00910858
0.00835639
0.00839677
0.00843311
0.00846537
0.00849346
0.00851743
0.00853734
0.00855357
0.00856743
0.00857888
0.0085876
0.00859378
0.00859741
0.00785488
0.00788848
0.00791722
0.00794104
0.00796002
0.00797536
0.00798799
0.00799752
0.00800371
0.00800627
0.00800547
0.00799841
0.00727662
0.00729948
0.00731665
0.00733039
0.00734071
0.0073471
0.00734925
0.00734591
0.00733448
0.00731667
0.0072933
0.00661887
0.00663025
0.00663744
0.00663964
0.00663508
0.00662102
0.00659928
0.00657046
0.0065348
0.00649392
0.00590062
0.00589725
0.00588364
0.00586097
0.0058303
0.00579243
0.00574733
0.00569658
0.00564165
0.0051363
0.00511152
0.00508006
0.00504193
0.00499929
0.00495229
0.00489853
0.00483734
0.00439244
0.00436755
0.00433727
0.00430118
0.00425722
0.00420392
0.00414002
0.00406615
0.00368257
0.00364996
0.00360772
0.0035548
0.00348976
0.00341192
0.00332181
0.00295359
0.00289017
0.0028132
0.00272181
0.00261505
0.00228045
0.00219356
0.00208968
0.00196707
0.00169882
0.00157573
0.00143264
0.0159699
0.01597
0.01597
0.01597
0.0159699
0.0159698
0.0159696
0.0159694
0.0159692
0.0159689
0.0159686
0.0159682
0.0159678
0.0159674
0.0159669
0.0159663
0.0159658
0.0159652
0.0159645
0.0159638
0.0159164
0.0159165
0.0159166
0.0159166
0.0159165
0.0159163
0.0159161
0.0159158
0.0159155
0.0159151
0.0159146
0.0159141
0.0159135
0.0159128
0.0159121
0.0159114
0.0159106
0.0159097
0.0159088
0.0159078
0.0158532
0.0158534
0.0158534
0.0158534
0.0158533
0.0158531
0.0158528
0.0158524
0.015852
0.0158514
0.0158508
0.0158502
0.0158494
0.0158486
0.0158477
0.0158468
0.0158458
0.0158447
0.0158436
0.0158424
0.0157821
0.0157822
0.0157823
0.0157822
0.015782
0.0157818
0.0157814
0.015781
0.0157804
0.0157798
0.0157791
0.0157782
0.0157773
0.0157764
0.0157753
0.0157742
0.015773
0.0157717
0.0157703
0.0157689
0.0157054
0.0157055
0.0157056
0.0157055
0.0157053
0.015705
0.0157045
0.015704
0.0157034
0.0157026
0.0157018
0.0157008
0.0156997
0.0156986
0.0156974
0.015696
0.0156946
0.0156931
0.0156915
0.0156898
0.0156235
0.0156236
0.0156237
0.0156236
0.0156233
0.015623
0.0156225
0.0156218
0.0156211
0.0156202
0.0156192
0.0156181
0.0156169
0.0156155
0.0156141
0.0156125
0.0156109
0.0156091
0.0156073
0.0156053
0.0155358
0.015536
0.015536
0.0155359
0.0155356
0.0155352
0.0155346
0.0155339
0.0155331
0.0155321
0.0155309
0.0155296
0.0155282
0.0155267
0.0155251
0.0155233
0.0155214
0.0155194
0.0155173
0.015515
0.0154418
0.015442
0.015442
0.0154419
0.0154416
0.0154411
0.0154405
0.0154396
0.0154387
0.0154375
0.0154363
0.0154348
0.0154332
0.0154315
0.0154297
0.0154276
0.0154255
0.0154232
0.0154208
0.0154183
0.0153405
0.0153408
0.0153408
0.0153406
0.0153403
0.0153398
0.015339
0.0153381
0.0153371
0.0153358
0.0153344
0.0153328
0.015331
0.0153291
0.015327
0.0153247
0.0153223
0.0153197
0.0153171
0.0153142
0.0152316
0.0152319
0.0152319
0.0152317
0.0152313
0.0152307
0.0152299
0.0152289
0.0152277
0.0152263
0.0152246
0.0152228
0.0152208
0.0152187
0.0152163
0.0152138
0.015211
0.0152082
0.0152051
0.0152019
0.0151148
0.015115
0.0151151
0.0151148
0.0151144
0.0151137
0.0151128
0.0151116
0.0151102
0.0151086
0.0151068
0.0151048
0.0151025
0.0151
0.0150974
0.0150945
0.0150914
0.0150882
0.0150847
0.0150811
0.0149904
0.0149906
0.0149907
0.0149904
0.0149899
0.0149891
0.0149881
0.0149868
0.0149852
0.0149834
0.0149814
0.0149791
0.0149766
0.0149738
0.0149709
0.0149676
0.0149642
0.0149606
0.0149567
0.0149527
0.0148581
0.0148584
0.0148584
0.0148581
0.0148576
0.0148567
0.0148556
0.0148542
0.0148525
0.0148505
0.0148483
0.0148458
0.014843
0.01484
0.0148367
0.0148332
0.0148295
0.0148255
0.0148213
0.0148169
0.0147172
0.0147175
0.0147175
0.0147172
0.0147165
0.0147156
0.0147144
0.0147128
0.014711
0.0147088
0.0147064
0.0147036
0.0147006
0.0146973
0.0146938
0.0146899
0.0146858
0.0146815
0.0146769
0.014672
0.0145668
0.0145671
0.0145671
0.0145667
0.014566
0.014565
0.0145636
0.0145619
0.0145599
0.0145575
0.0145548
0.0145519
0.0145486
0.014545
0.014541
0.0145368
0.0145323
0.0145276
0.0145225
0.0145172
0.0144064
0.0144067
0.0144067
0.0144063
0.0144055
0.0144044
0.0144029
0.014401
0.0143987
0.0143961
0.0143932
0.0143899
0.0143863
0.0143823
0.014378
0.0143734
0.0143684
0.0143632
0.0143576
0.0143517
0.0142351
0.0142354
0.0142354
0.014235
0.0142341
0.0142329
0.0142312
0.0142291
0.0142267
0.0142238
0.0142206
0.0142169
0.0142129
0.0142086
0.0142038
0.0141987
0.0141933
0.0141875
0.0141813
0.0141748
0.014052
0.0140523
0.0140523
0.0140519
0.0140509
0.0140495
0.0140477
0.0140454
0.0140427
0.0140396
0.014036
0.014032
0.0140276
0.0140227
0.0140175
0.0140118
0.0140058
0.0139994
0.0139926
0.0139853
0.013856
0.0138564
0.0138565
0.0138559
0.0138549
0.0138534
0.0138513
0.0138488
0.0138458
0.0138423
0.0138383
0.0138339
0.013829
0.0138236
0.0138178
0.0138115
0.0138048
0.0137977
0.0137901
0.0137821
0.0136462
0.0136467
0.0136468
0.0136462
0.013645
0.0136433
0.0136411
0.0136383
0.0136349
0.0136311
0.0136266
0.0136217
0.0136162
0.0136102
0.0136038
0.0135968
0.0135893
0.0135813
0.0135728
0.0135639
0.0134212
0.0134217
0.0134217
0.0134211
0.0134198
0.0134179
0.0134154
0.0134123
0.0134086
0.0134043
0.0133993
0.0133938
0.0133877
0.0133811
0.0133738
0.013366
0.0133577
0.0133488
0.0133393
0.0133293
0.0131799
0.0131805
0.0131805
0.0131798
0.0131784
0.0131763
0.0131735
0.01317
0.0131659
0.013161
0.0131555
0.0131494
0.0131426
0.0131351
0.0131271
0.0131184
0.013109
0.0130991
0.0130885
0.0130773
0.0129227
0.0129233
0.0129234
0.0129226
0.012921
0.0129187
0.0129155
0.0129117
0.012907
0.0129017
0.0128956
0.0128887
0.0128812
0.0128729
0.0128639
0.0128542
0.0128438
0.0128328
0.012821
0.0128085
0.0126506
0.0126513
0.0126514
0.0126505
0.0126487
0.0126461
0.0126427
0.0126384
0.0126332
0.0126273
0.0126205
0.012613
0.0126046
0.0125955
0.0125855
0.0125748
0.0125634
0.0125511
0.0125382
0.0125243
0.0123647
0.0123655
0.0123656
0.0123646
0.0123627
0.0123599
0.0123561
0.0123514
0.0123458
0.0123393
0.0123319
0.0123236
0.0123145
0.0123045
0.0122937
0.012282
0.0122695
0.0122562
0.012242
0.0122269
0.0120676
0.0120685
0.0120687
0.0120678
0.0120657
0.0120627
0.0120587
0.0120537
0.0120477
0.0120408
0.0120329
0.0120241
0.0120143
0.0120037
0.0119921
0.0119796
0.0119663
0.0119521
0.011937
0.0119209
0.011763
0.0117641
0.0117643
0.0117634
0.0117614
0.0117584
0.0117543
0.0117491
0.011743
0.0117359
0.0117278
0.0117187
0.0117086
0.0116976
0.0116857
0.0116729
0.0116591
0.0116445
0.011629
0.0116125
0.0114569
0.011458
0.0114583
0.0114574
0.0114555
0.0114524
0.0114484
0.0114433
0.0114372
0.0114301
0.0114221
0.0114131
0.0114031
0.0113923
0.0113805
0.0113678
0.0113543
0.0113399
0.0113246
0.0113084
0.0111526
0.0111537
0.011154
0.0111532
0.0111514
0.0111487
0.011145
0.0111403
0.0111347
0.0111281
0.0111207
0.0111125
0.0111033
0.0110934
0.0110826
0.0110711
0.0110588
0.0110458
0.011032
0.0110174
0.0108524
0.0108537
0.0108539
0.0108535
0.0108522
0.01085
0.010847
0.0108432
0.0108386
0.0108333
0.0108271
0.0108203
0.0108127
0.0108044
0.0107955
0.0107859
0.0107757
0.0107648
0.0107534
0.0107413
0.0105536
0.010555
0.0105557
0.0105555
0.0105548
0.0105534
0.0105514
0.0105488
0.0105455
0.0105417
0.0105372
0.0105322
0.0105266
0.0105205
0.0105139
0.0105067
0.0104992
0.0104911
0.0104826
0.0104737
0.0102477
0.0102491
0.0102501
0.0102505
0.0102503
0.0102497
0.0102488
0.0102475
0.0102457
0.0102436
0.010241
0.0102381
0.0102348
0.0102311
0.0102272
0.0102228
0.0102182
0.0102133
0.0102081
0.0102027
0.00991648
0.00991799
0.00991919
0.00992022
0.00992104
0.00992163
0.00992199
0.00992203
0.00992168
0.0099211
0.00992039
0.00991957
0.00991863
0.00991758
0.00991643
0.00991516
0.00991373
0.00991215
0.00991046
0.00990883
0.00954338
0.00954433
0.00954525
0.00954633
0.00954749
0.0095487
0.00954994
0.00955122
0.00955252
0.00955385
0.0095552
0.00955655
0.00955791
0.00955928
0.00956067
0.00956206
0.00956346
0.00956486
0.00956631
0.00956802
0.00911247
0.0091131
0.00911395
0.00911515
0.00911662
0.00911831
0.00912024
0.00912238
0.00912474
0.0091273
0.00913005
0.00913299
0.00913611
0.00913939
0.00914285
0.00914645
0.0091502
0.00915408
0.00915814
0.00916262
0.00859735
0.00859728
0.00859813
0.00859953
0.00860136
0.00860359
0.00860621
0.00860923
0.0086126
0.00861633
0.0086204
0.00862479
0.00862949
0.00863448
0.00863976
0.0086453
0.00865108
0.00865708
0.00866337
0.00867016
0.00798942
0.00798841
0.00798874
0.00799034
0.00799249
0.00799518
0.00799839
0.0080021
0.00800629
0.00801094
0.00801602
0.00802152
0.00802742
0.0080337
0.00804033
0.00804728
0.00805455
0.00806209
0.00806996
0.00807836
0.00727343
0.00727201
0.00727153
0.00727254
0.00727486
0.00727784
0.00728142
0.00728557
0.00729027
0.0072955
0.00730122
0.00730741
0.00731404
0.00732109
0.00732853
0.00733633
0.00734445
0.00735288
0.00736164
0.00737092
0.00646268
0.00646079
0.00645976
0.00645946
0.00646052
0.00646284
0.0064662
0.00647012
0.00647455
0.00647948
0.00648486
0.00649068
0.00649689
0.00650348
0.00651041
0.00651766
0.00652519
0.00653299
0.00654106
0.00654958
0.00559864
0.00559625
0.00559479
0.00559393
0.00559366
0.00559484
0.00559737
0.00560111
0.00560549
0.00561041
0.00561583
0.00562173
0.00562808
0.00563485
0.00564201
0.00564952
0.00565736
0.0056655
0.00567394
0.00568281
0.00478623
0.0047835
0.00478173
0.0047806
0.00477998
0.00478029
0.00478203
0.00478506
0.00478924
0.00479403
0.00479932
0.00480507
0.00481126
0.00481785
0.00482481
0.0048321
0.00483969
0.00484756
0.0048557
0.00486419
0.00400134
0.00399796
0.00399563
0.00399404
0.00399305
0.00399266
0.00399353
0.00399589
0.00399957
0.00400439
0.00400977
0.00401564
0.00402194
0.00402865
0.00403572
0.00404312
0.00405083
0.00405879
0.00406701
0.00407554
0.00323968
0.00323553
0.00323252
0.00323042
0.00322911
0.00322856
0.0032292
0.00323165
0.00323567
0.00324101
0.00324699
0.00325352
0.00326054
0.00326801
0.00327588
0.00328411
0.00329266
0.00330149
0.00331055
0.00331983
0.00251605
0.0025112
0.00250762
0.00250517
0.00250375
0.00250331
0.00250467
0.00250821
0.00251357
0.00251994
0.00252701
0.00253473
0.00254301
0.00255179
0.00256102
0.00257064
0.00258061
0.00259087
0.0026014
0.00261219
0.00185672
0.00185135
0.00184762
0.00184538
0.00184451
0.00184549
0.00184941
0.00185546
0.00186253
0.00187052
0.00187929
0.00188874
0.00189879
0.00190936
0.00192037
0.00193176
0.00194348
0.00195546
0.00196768
0.00198011
0.00129279
0.00128548
0.00128122
0.00127915
0.00127903
0.001283
0.00128942
0.00129725
0.00130621
0.0013161
0.00132673
0.00133799
0.00134972
0.00136184
0.00137427
0.00138695
0.00139985
0.00141292
0.00142614
0.0014395
0.000817267
0.000818053
0.000823608
0.000831342
0.000841051
0.000852245
0.000864456
0.000877354
0.000890692
0.000904281
0.00091732
0.000929736
0.000942366
0.000955131
0.00096798
0.000980864
0.000993745
0.0010066
0.000607723
0.000621536
0.00063509
0.000648148
0.000660452
0.00067151
0.000682038
0.000691757
0.0159626
0.0159609
0.0159592
0.0159575
0.0159559
0.0159061
0.0159037
0.0159014
0.0158992
0.015897
0.0158401
0.0158371
0.0158341
0.0158313
0.0158285
0.0157662
0.0157625
0.0157589
0.0157554
0.0157521
0.0156866
0.0156822
0.0156778
0.0156736
0.0156695
0.0156015
0.0155962
0.0155911
0.015586
0.0155811
0.0155106
0.0155044
0.0154983
0.0154924
0.0154865
0.0154132
0.015406
0.0153989
0.015392
0.0153852
0.0153083
0.0153
0.0152918
0.0152838
0.015276
0.0151952
0.0151855
0.0151761
0.0151668
0.0151577
0.0150734
0.0150622
0.0150512
0.0150404
0.0150298
0.0149438
0.0149309
0.0149183
0.0149058
0.0148936
0.014807
0.0147924
0.0147782
0.0147642
0.0147504
0.0146609
0.0146446
0.0146285
0.0146127
0.0145971
0.0145048
0.0144863
0.0144681
0.0144502
0.0144326
0.0143378
0.0143169
0.0142963
0.014276
0.014256
0.0141592
0.0141354
0.014112
0.0140889
0.0140662
0.0139676
0.0139405
0.0139139
0.0138876
0.0138617
0.0137619
0.013731
0.0137006
0.0136706
0.0136411
0.013541
0.0135056
0.0134709
0.0134367
0.013403
0.0133033
0.013263
0.0132233
0.0131844
0.0131461
0.0130479
0.0130019
0.0129569
0.0129127
0.0128693
0.0127754
0.0127234
0.0126726
0.0126227
0.012574
0.0124874
0.0124292
0.0123725
0.012317
0.0122629
0.0121863
0.0121223
0.01206
0.0119993
0.0119403
0.0118773
0.0118087
0.0117421
0.0116776
0.011615
0.0115674
0.0114965
0.0114281
0.0113621
0.0112984
0.011264
0.0111945
0.0111279
0.011064
0.0110028
0.0109774
0.0109151
0.0108557
0.0107992
0.0107453
0.0107082
0.0106568
0.0106079
0.0105616
0.0105177
0.0104494
0.0104117
0.0103761
0.0103424
0.0103106
0.0101882
0.010166
0.010145
0.0101251
0.0101064
0.00990475
0.0098987
0.00989279
0.00988709
0.00988172
0.00957331
0.0095818
0.00958951
0.00959657
0.00960318
0.00917569
0.00919638
0.00921561
0.00923357
0.00925052
0.00868961
0.00872034
0.00874914
0.00877624
0.00880193
0.00810216
0.00813994
0.00817566
0.00820962
0.00824208
0.00739695
0.00743883
0.00747908
0.00751789
0.00755551
0.00657334
0.00661387
0.00665486
0.00669612
0.00673759
0.00570722
0.00574937
0.00579245
0.0058362
0.00588053
0.00488725
0.00492858
0.00497202
0.00501709
0.00506341
0.00409842
0.00414092
0.00418669
0.00423499
0.00428512
0.0033441
0.00339018
0.00344048
0.00349378
0.00354923
0.00263976
0.0026922
0.00274907
0.0028087
0.00287006
0.00201074
0.00206873
0.00213092
0.00219548
0.00226142
0.00147105
0.00153111
0.00159548
0.00166218
0.00173013
0.00103562
0.00109116
0.00115064
0.00121293
0.00127755
0.00071242
0.000755462
0.000799595
0.000845534
0.000898455
0.000475276
0.000498511
0.000520274
0.000546608
0.000580768
0.000240582
0.000247019
0.000269666
0.0159544
0.0159531
0.0159517
0.01595
0.0159482
0.0159462
0.0159441
0.0159419
0.0159396
0.0159373
0.0159351
0.015933
0.0159312
0.0159298
0.0159287
0.0159281
0.0159281
0.0159287
0.0159299
0.0159316
0.015934
0.0159369
0.0159404
0.0159446
0.0159494
0.0159549
0.0159611
0.0159681
0.015976
0.015985
0.0159949
0.016006
0.0160184
0.016032
0.0160471
0.0160636
0.0160816
0.0161013
0.0161225
0.0161452
0.0161695
0.0161953
0.0162227
0.0162524
0.0162807
0.0163069
0.0163277
0.0163621
0.0163851
0.0163552
0.0158945
0.0158927
0.0158907
0.0158884
0.015886
0.0158835
0.0158808
0.015878
0.0158752
0.0158725
0.0158699
0.0158675
0.0158655
0.015864
0.0158629
0.0158625
0.0158626
0.0158636
0.0158652
0.0158676
0.0158707
0.0158745
0.015879
0.0158843
0.0158904
0.0158973
0.0159052
0.015914
0.0159238
0.0159348
0.015947
0.0159605
0.0159753
0.0159915
0.0160093
0.0160286
0.0160496
0.0160723
0.0160967
0.0161227
0.0161502
0.0161787
0.016208
0.0162383
0.0162694
0.0162995
0.016323
0.0163533
0.0163791
0.0163565
0.0158252
0.0158226
0.0158197
0.0158166
0.0158132
0.0158096
0.0158058
0.015802
0.0157982
0.0157945
0.0157911
0.015788
0.0157854
0.0157835
0.0157823
0.0157819
0.0157823
0.0157837
0.015786
0.0157893
0.0157934
0.0157985
0.0158045
0.0158114
0.0158192
0.0158282
0.0158382
0.0158494
0.0158619
0.0158757
0.0158909
0.0159075
0.0159255
0.0159451
0.0159661
0.0159887
0.016013
0.0160389
0.0160666
0.0160961
0.016127
0.016159
0.0161915
0.0162243
0.0162581
0.0162924
0.0163207
0.016346
0.0163717
0.0163586
0.015748
0.0157445
0.0157406
0.0157363
0.0157318
0.015727
0.015722
0.015717
0.015712
0.0157072
0.0157027
0.0156988
0.0156956
0.0156932
0.0156917
0.0156913
0.0156921
0.0156941
0.0156973
0.0157016
0.015707
0.0157136
0.0157214
0.0157303
0.0157404
0.0157518
0.0157646
0.0157789
0.0157946
0.0158119
0.0158309
0.0158514
0.0158735
0.0158971
0.0159222
0.0159487
0.0159766
0.016006
0.0160371
0.01607
0.0161045
0.0161402
0.016176
0.0162115
0.0162475
0.0162852
0.016318
0.0163409
0.0163649
0.0163589
0.0156645
0.0156597
0.0156545
0.0156488
0.0156428
0.0156365
0.01563
0.0156234
0.0156169
0.0156107
0.015605
0.0156
0.015596
0.0155931
0.0155914
0.0155911
0.0155923
0.0155951
0.0155993
0.0156049
0.0156119
0.0156204
0.0156302
0.0156416
0.0156544
0.0156688
0.015685
0.0157029
0.0157226
0.0157442
0.0157676
0.0157929
0.0158199
0.0158486
0.0158786
0.0159098
0.0159421
0.0159754
0.0160101
0.0160463
0.0160841
0.0161231
0.0161623
0.0162006
0.0162382
0.0162785
0.0163154
0.0163377
0.01636
0.0163582
0.0155749
0.0155686
0.0155618
0.0155544
0.0155465
0.0155383
0.0155299
0.0155214
0.0155132
0.0155053
0.0154982
0.015492
0.0154871
0.0154836
0.0154818
0.0154815
0.0154833
0.015487
0.0154924
0.0154996
0.0155084
0.015519
0.0155314
0.0155455
0.0155615
0.0155794
0.0155994
0.0156216
0.0156459
0.0156724
0.0157012
0.015732
0.0157647
0.0157991
0.0158349
0.0158717
0.0159093
0.0159475
0.0159864
0.0160261
0.0160667
0.0161082
0.0161504
0.0161916
0.0162306
0.0162725
0.0163132
0.0163369
0.016357
0.0163569
0.0154791
0.0154709
0.0154621
0.0154527
0.0154427
0.0154323
0.0154217
0.0154112
0.0154009
0.0153913
0.0153826
0.0153753
0.0153695
0.0153656
0.0153637
0.0153637
0.0153664
0.0153712
0.0153782
0.0153872
0.0153983
0.0154115
0.0154269
0.0154445
0.0154643
0.0154863
0.0155107
0.0155376
0.0155669
0.0155989
0.0156333
0.0156701
0.015709
0.0157498
0.015792
0.0158352
0.0158789
0.0159229
0.015967
0.0160108
0.0160541
0.0160974
0.0161411
0.0161848
0.0162257
0.0162674
0.0163112
0.0163388
0.0163553
0.016355
0.0153762
0.015366
0.0153549
0.0153431
0.0153307
0.0153179
0.0153049
0.015292
0.0152797
0.0152682
0.015258
0.0152495
0.015243
0.0152389
0.0152374
0.0152383
0.0152422
0.0152487
0.0152578
0.0152695
0.0152839
0.0153006
0.0153198
0.0153415
0.0153657
0.0153925
0.015422
0.0154543
0.0154894
0.0155273
0.0155679
0.0156111
0.0156564
0.0157036
0.0157523
0.0158019
0.0158518
0.0159015
0.0159504
0.0159981
0.0160445
0.01609
0.0161352
0.0161803
0.0162232
0.0162636
0.0163093
0.016341
0.016355
0.0163528
0.0152652
0.0152524
0.0152387
0.015224
0.0152088
0.0151931
0.0151773
0.0151618
0.015147
0.0151335
0.0151217
0.015112
0.015105
0.0151009
0.0150998
0.0151021
0.0151076
0.0151164
0.0151284
0.0151435
0.0151614
0.0151822
0.0152057
0.0152321
0.0152615
0.0152939
0.0153293
0.015368
0.0154098
0.0154546
0.0155024
0.0155527
0.0156053
0.0156596
0.0157151
0.0157712
0.0158271
0.0158822
0.0159358
0.0159873
0.0160367
0.0160842
0.0161311
0.0161776
0.0162221
0.0162618
0.0163075
0.0163412
0.0163576
0.0163505
0.0151447
0.0151289
0.0151119
0.0150939
0.0150753
0.0150562
0.0150372
0.0150187
0.0150012
0.0149854
0.0149719
0.0149612
0.0149538
0.0149499
0.0149494
0.0149534
0.0149614
0.0149733
0.0149888
0.0150078
0.01503
0.0150554
0.015084
0.015116
0.0151513
0.0151901
0.0152325
0.0152784
0.0153277
0.0153804
0.015436
0.0154943
0.0155547
0.0156166
0.0156794
0.0157422
0.0158043
0.0158648
0.0159231
0.0159784
0.0160305
0.0160799
0.0161281
0.0161759
0.0162218
0.0162613
0.0163059
0.0163406
0.0163584
0.0163481
0.0150143
0.0149947
0.0149739
0.0149519
0.0149292
0.0149062
0.0148834
0.0148614
0.014841
0.0148227
0.0148075
0.0147957
0.0147881
0.0147849
0.0147861
0.0147926
0.0148037
0.0148192
0.0148387
0.0148621
0.0148892
0.01492
0.0149546
0.0149929
0.0150351
0.0150813
0.0151316
0.0151857
0.0152436
0.015305
0.0153694
0.0154363
0.0155052
0.0155751
0.0156454
0.0157151
0.0157834
0.0158493
0.0159121
0.0159711
0.0160258
0.0160769
0.0161261
0.0161749
0.016222
0.0162613
0.0163046
0.0163399
0.0163584
0.0163459
0.0148751
0.0148511
0.0148257
0.014799
0.0147716
0.0147439
0.0147167
0.0146906
0.0146667
0.0146457
0.0146287
0.0146162
0.0146088
0.0146067
0.0146105
0.0146197
0.0146342
0.0146536
0.0146777
0.0147062
0.014739
0.014776
0.0148173
0.014863
0.0149131
0.0149678
0.0150269
0.0150903
0.0151578
0.0152288
0.0153028
0.0153792
0.015457
0.0155355
0.0156135
0.0156902
0.0157646
0.0158358
0.0159029
0.0159653
0.0160224
0.0160749
0.0161248
0.0161743
0.0162226
0.0162617
0.0163035
0.0163391
0.0163581
0.0163438
0.0147289
0.0147003
0.01467
0.0146384
0.0146059
0.0145734
0.0145416
0.0145113
0.0144836
0.0144596
0.0144402
0.0144261
0.0144182
0.0144165
0.0144222
0.0144343
0.0144525
0.0144765
0.0145057
0.01454
0.0145792
0.0146232
0.0146722
0.0147263
0.0147854
0.0148496
0.0149188
0.0149926
0.0150706
0.0151523
0.0152367
0.0153232
0.0154106
0.0154979
0.0155839
0.0156676
0.015748
0.0158242
0.0158953
0.0159608
0.0160202
0.0160738
0.0161243
0.0161741
0.0162233
0.0162624
0.0163028
0.0163383
0.0163576
0.0163419
0.014572
0.0145381
0.0145022
0.0144648
0.0144266
0.0143884
0.0143512
0.0143162
0.0142844
0.0142572
0.0142355
0.0142204
0.0142124
0.0142114
0.0142197
0.0142355
0.0142582
0.0142874
0.0143227
0.0143636
0.0144101
0.0144622
0.0145198
0.0145832
0.0146524
0.0147272
0.0148075
0.0148928
0.0149825
0.0150758
0.0151716
0.0152688
0.0153662
0.0154626
0.0155567
0.0156474
0.0157335
0.0158143
0.0158892
0.0159575
0.0160188
0.0160734
0.0161241
0.0161742
0.0162242
0.0162632
0.0163022
0.0163376
0.0163571
0.0163403
0.0144034
0.0143632
0.0143208
0.0142768
0.014232
0.0141874
0.0141443
0.0141039
0.0140678
0.0140372
0.0140136
0.0139977
0.0139904
0.0139911
0.0140029
0.0140231
0.0140511
0.0140864
0.0141285
0.0141769
0.0142317
0.0142927
0.0143602
0.0144341
0.0145144
0.0146011
0.0146936
0.0147915
0.0148939
0.0149998
0.0151077
0.0152163
0.0153242
0.0154299
0.0155321
0.0156295
0.0157211
0.0158063
0.0158844
0.0159552
0.0160182
0.0160735
0.0161244
0.0161745
0.0162252
0.0162642
0.0163018
0.0163369
0.0163566
0.0163389
0.014222
0.0141746
0.0141246
0.0140729
0.0140206
0.0139688
0.0139191
0.0138731
0.0138324
0.0137987
0.0137733
0.0137574
0.0137515
0.0137561
0.0137718
0.0137971
0.0138312
0.0138734
0.0139231
0.01398
0.0140439
0.014115
0.0141934
0.014279
0.0143718
0.0144715
0.0145776
0.0146893
0.0148054
0.0149247
0.0150456
0.0151661
0.0152848
0.0153999
0.01551
0.0156139
0.0157107
0.0157997
0.0158808
0.0159538
0.0160182
0.016074
0.016125
0.0161749
0.0162262
0.0162652
0.0163015
0.0163363
0.0163561
0.0163379
0.0140266
0.0139707
0.0139121
0.0138517
0.0137909
0.0137312
0.0136744
0.0136224
0.0135773
0.0135407
0.0135144
0.0134992
0.013495
0.0135043
0.0135254
0.013557
0.0135983
0.0136483
0.0137066
0.0137729
0.0138471
0.0139293
0.0140197
0.0141182
0.0142247
0.0143388
0.0144598
0.0145865
0.0147175
0.0148512
0.0149856
0.0151185
0.0152481
0.0153726
0.0154905
0.0156006
0.0157021
0.0157946
0.0158782
0.015953
0.0160186
0.0160749
0.0161257
0.0161754
0.0162272
0.0162661
0.0163014
0.0163358
0.0163556
0.0163374
0.0138157
0.01375
0.0136814
0.0136112
0.0135409
0.0134725
0.0134082
0.0133503
0.013301
0.0132623
0.0132358
0.0132224
0.013221
0.0132363
0.013264
0.0133031
0.0133524
0.0134112
0.0134789
0.0135555
0.0136411
0.0137356
0.0138394
0.0139522
0.0140737
0.0142036
0.0143407
0.0144837
0.0146306
0.0147795
0.014928
0.0150736
0.0152142
0.015348
0.0154734
0.0155893
0.0156951