/*--------------------------------*- C++ -*----------------------------------*\
  =========                 |
  \\      /  F ield         | OpenFOAM: The Open Source CFD Toolbox
   \\    /   O peration     | Website:  https://openfoam.org
    \\  /    A nd           | Version:  9
     \\/     M anipulation  |
\*---------------------------------------------------------------------------*/
FoamFile
{
    format      ascii;
    class       volScalarField;
    location    "0.0025";
    object      nut;
}
// * * * * * * * * * * * * * * * * * * * * * * * * * * * * * * * * * * * * * //

dimensions      [0 2 -1 0 0 0 0];

internalField   nonuniform List<scalar> 
6352
(
0.0131253
0.0130627
0.0130642
0.0130963
0.0131417
0.0131912
0.0132401
0.0132864
0.0133292
0.0133683
0.013404
0.0134364
0.0134661
0.0134935
0.0135188
0.0135424
0.0135646
0.0135855
0.013605
0.0136231
0.0136396
0.0136541
0.0136669
0.0136778
0.0136865
0.0130524
0.0129924
0.0129909
0.0130192
0.0130618
0.0131099
0.0131588
0.0132062
0.0132507
0.0132919
0.0133297
0.0133642
0.0133957
0.0134245
0.0134509
0.0134753
0.0134985
0.0135206
0.0135408
0.0135594
0.0135767
0.0135927
0.0136079
0.0136223
0.013636
0.0129185
0.0129166
0.0129425
0.0129823
0.0130282
0.013076
0.0131234
0.0131689
0.013212
0.0132523
0.0132896
0.013324
0.0133556
0.0133848
0.0134116
0.0134363
0.0134591
0.0134803
0.0135
0.0135183
0.0135356
0.0135518
0.0135671
0.0135816
0.0128408
0.0128396
0.0128631
0.0128996
0.0129425
0.0129881
0.0130342
0.0130794
0.013123
0.0131644
0.0132035
0.01324
0.013274
0.0133055
0.0133346
0.0133616
0.0133865
0.0134096
0.0134311
0.0134512
0.01347
0.0134876
0.0135043
0.0135201
0.0127605
0.0127618
0.012784
0.0128177
0.0128576
0.0129005
0.0129444
0.0129883
0.0130313
0.013073
0.013113
0.013151
0.0131869
0.0132207
0.0132522
0.0132815
0.0133087
0.013334
0.0133575
0.0133794
0.0133998
0.013419
0.013437
0.0134539
0.0126768
0.0126821
0.0127044
0.0127362
0.0127736
0.0128137
0.0128551
0.0128968
0.0129382
0.0129789
0.0130186
0.013057
0.0130941
0.0131295
0.0131631
0.0131947
0.0132244
0.0132521
0.0132779
0.0133019
0.0133243
0.0133452
0.0133647
0.0133831
0.0125888
0.0125995
0.012623
0.0126542
0.0126897
0.0127277
0.0127668
0.0128063
0.0128456
0.0128844
0.0129226
0.01296
0.0129968
0.0130327
0.0130675
0.013101
0.013133
0.0131631
0.0131914
0.0132179
0.0132426
0.0132656
0.0132872
0.0133073
0.0124959
0.0125126
0.0125385
0.01257
0.0126048
0.0126415
0.012679
0.0127168
0.0127544
0.0127914
0.0128278
0.0128634
0.0128983
0.0129328
0.012967
0.013001
0.0130343
0.0130665
0.0130972
0.0131263
0.0131536
0.0131792
0.0132032
0.0132256
0.0123971
0.0124201
0.0124492
0.012482
0.0125169
0.0125531
0.0125899
0.0126268
0.0126634
0.0126995
0.012735
0.0127696
0.0128034
0.0128364
0.0128689
0.0129016
0.0129342
0.0129664
0.0129977
0.0130279
0.013057
0.0130849
0.0131115
0.0131369
0.0122918
0.0123209
0.0123536
0.0123882
0.012424
0.0124604
0.012497
0.0125336
0.0125698
0.0126056
0.0126407
0.0126751
0.0127086
0.0127413
0.0127732
0.0128044
0.0128356
0.0128671
0.0128984
0.0129291
0.0129591
0.0129881
0.013016
0.0130429
0.0121797
0.0122145
0.0122507
0.0122875
0.0123246
0.0123616
0.0123985
0.0124351
0.0124713
0.012507
0.012542
0.0125764
0.0126099
0.0126427
0.0126746
0.0127057
0.012736
0.0127658
0.0127958
0.012826
0.012856
0.0128856
0.0129144
0.0129423
0.0120604
0.0121002
0.0121399
0.0121791
0.0122177
0.0122557
0.0122932
0.0123301
0.0123664
0.0124022
0.0124373
0.0124717
0.0125054
0.0125384
0.0125706
0.012602
0.0126325
0.0126624
0.0126915
0.0127201
0.0127488
0.0127779
0.0128069
0.0128355
0.011978
0.0120207
0.0120621
0.0121024
0.0121417
0.0121799
0.0122174
0.0122541
0.01229
0.0123253
0.0123599
0.0123937
0.0124269
0.0124593
0.0124909
0.0125219
0.0125521
0.0125816
0.0126104
0.0126386
0.0126663
0.0126939
0.0127222
0.0118465
0.0118922
0.011936
0.0119782
0.0120188
0.0120582
0.0120964
0.0121336
0.0121699
0.0122054
0.0122401
0.012274
0.0123073
0.0123398
0.0123715
0.0124026
0.012433
0.0124627
0.0124918
0.0125201
0.0125479
0.0125751
0.0126021
0.0117056
0.0117541
0.0118003
0.0118443
0.0118866
0.0119272
0.0119663
0.0120043
0.0120411
0.012077
0.012112
0.0121461
0.0121794
0.012212
0.0122438
0.0122749
0.0123053
0.0123351
0.0123642
0.0123926
0.0124204
0.0124476
0.0124743
0.0115547
0.0116057
0.0116541
0.0117002
0.0117441
0.0117861
0.0118265
0.0118654
0.011903
0.0119394
0.0119748
0.0120092
0.0120428
0.0120755
0.0121074
0.0121386
0.012169
0.0121988
0.0122279
0.0122563
0.0122841
0.0123114
0.0123381
0.0113929
0.0114463
0.0114969
0.0115449
0.0115906
0.0116342
0.011676
0.011716
0.0117546
0.0117918
0.0118278
0.0118627
0.0118966
0.0119295
0.0119616
0.0119929
0.0120234
0.0120532
0.0120822
0.0121106
0.0121384
0.0121655
0.0121921
0.0112754
0.0113278
0.0113777
0.0114253
0.0114706
0.0115139
0.0115553
0.011595
0.0116332
0.01167
0.0117056
0.01174
0.0117733
0.0118057
0.0118372
0.0118678
0.0118976
0.0119267
0.011955
0.0119827
0.0120098
0.0120362
0.0110909
0.0111455
0.0111975
0.011247
0.0112942
0.0113392
0.0113822
0.0114233
0.0114627
0.0115005
0.0115369
0.011572
0.0116059
0.0116387
0.0116704
0.0117013
0.0117312
0.0117603
0.0117887
0.0118163
0.0118432
0.0118695
0.0108922
0.0109491
0.0110033
0.011055
0.0111042
0.0111511
0.0111958
0.0112385
0.0112793
0.0113183
0.0113557
0.0113917
0.0114263
0.0114596
0.0114918
0.0115229
0.0115531
0.0115823
0.0116106
0.0116382
0.011665
0.0116912
0.0107378
0.0107941
0.0108479
0.0108994
0.0109484
0.0109951
0.0110396
0.011082
0.0111225
0.0111612
0.0111981
0.0112336
0.0112676
0.0113003
0.0113318
0.0113622
0.0113915
0.0114199
0.0114474
0.0114741
0.0115
0.0105082
0.0105672
0.0106238
0.010678
0.0107296
0.0107787
0.0108254
0.0108699
0.0109121
0.0109523
0.0109906
0.0110271
0.011062
0.0110953
0.0111273
0.011158
0.0111875
0.0112159
0.0112432
0.0112697
0.0112953
0.0102587
0.0103209
0.0103807
0.010438
0.0104927
0.0105447
0.0105942
0.0106412
0.0106857
0.010728
0.010768
0.010806
0.0108421
0.0108765
0.0109091
0.0109403
0.0109701
0.0109985
0.0110258
0.011052
0.0110772
0.0100531
0.0101157
0.0101763
0.0102345
0.0102902
0.0103431
0.0103933
0.0104409
0.0104859
0.0105285
0.0105687
0.0106067
0.0106427
0.0106766
0.0107087
0.0107392
0.010768
0.0107955
0.0108215
0.0108464
0.00976155
0.00982598
0.00988977
0.00995196
0.0100117
0.0100686
0.0101226
0.0101738
0.0102222
0.0102681
0.0103115
0.0103524
0.010391
0.0104273
0.0104614
0.0104934
0.0105235
0.0105518
0.0105784
0.0106035
0.00955407
0.00961295
0.00967074
0.00972716
0.009782
0.00983515
0.00988655
0.00993615
0.00998392
0.0100299
0.010074
0.0101162
0.0101562
0.0101939
0.0102294
0.0102626
0.0102937
0.0103227
0.01035
0.00930995
0.00936706
0.00942307
0.0094777
0.00953081
0.00958229
0.00963208
0.00968009
0.00972627
0.00977058
0.00981303
0.00985362
0.00989237
0.00992942
0.00996481
0.00999859
0.0100308
0.0100615
0.0100908
0.00913108
0.00918585
0.00923944
0.00929154
0.00934199
0.00939067
0.0094375
0.00948243
0.00952545
0.00956655
0.0096058
0.00964325
0.00967894
0.00971292
0.00974521
0.0097758
0.00980476
0.00983213
0.00894714
0.00899953
0.00905076
0.00910052
0.00914857
0.00919475
0.00923903
0.00928131
0.00932162
0.00935995
0.00939634
0.00943081
0.00946331
0.00949392
0.00952267
0.00954962
0.00957481
0.00870748
0.00875734
0.00880663
0.00885496
0.00890202
0.00894748
0.00899122
0.00903311
0.00907308
0.009111
0.00914687
0.0091807
0.0092125
0.00924228
0.00927003
0.0092958
0.00931967
0.00852193
0.0085668
0.00861142
0.00865553
0.00869873
0.00874077
0.00878141
0.00882049
0.00885776
0.00889318
0.00892667
0.00895819
0.00898771
0.00901514
0.0090407
0.00906474
0.00834178
0.00837807
0.00841574
0.00845411
0.00849233
0.00852982
0.0085663
0.00860144
0.00863509
0.00866711
0.00869745
0.00872649
0.008754
0.00877982
0.00880388
0.00812548
0.00816089
0.00819419
0.00822565
0.00825555
0.00828405
0.00831224
0.00834035
0.00836856
0.00839659
0.0084241
0.00845069
0.00847601
0.00849982
0.00852198
0.0078955
0.00793097
0.00796455
0.00799641
0.00802643
0.00805455
0.00808066
0.00810474
0.00812681
0.00814687
0.00816482
0.00818077
0.00819533
0.00820877
0.00759517
0.00763065
0.00766338
0.00769327
0.00772029
0.00774447
0.00776576
0.00778421
0.00779988
0.00781349
0.00782555
0.00783591
0.00784447
0.00719294
0.00722837
0.00726032
0.00728876
0.00731363
0.00733497
0.00735282
0.00736751
0.00738015
0.00739075
0.00739907
0.00740505
0.00740866
0.0067651
0.00679483
0.00682039
0.00684172
0.00685889
0.00687295
0.00688468
0.00689376
0.00689999
0.00690318
0.00690337
0.00689797
0.00627173
0.00629236
0.0063081
0.0063209
0.00633079
0.00633732
0.0063402
0.00633838
0.00632967
0.00631545
0.00629621
0.00571025
0.00572116
0.00572846
0.00573148
0.00572872
0.00571778
0.0057002
0.00567661
0.00564729
0.00561323
0.00509685
0.00509517
0.00508467
0.00506637
0.00504119
0.00500978
0.00497228
0.00493013
0.00488399
0.00444351
0.00442341
0.00439758
0.004366
0.00433053
0.00429146
0.0042467
0.0041949
0.0038059
0.00378573
0.00376094
0.00373109
0.00369438
0.0036498
0.00359603
0.00353256
0.00319782
0.00317091
0.00313553
0.00309083
0.00303587
0.00296941
0.00289096
0.00257242
0.00251827
0.00245237
0.00237313
0.00227968
0.00199032
0.00191495
0.00182428
0.00171692
0.0014842
0.00137707
0.00125202
0.0136923
0.0136923
0.0136923
0.0136923
0.0136922
0.0136921
0.0136919
0.0136917
0.0136915
0.0136912
0.0136909
0.0136906
0.0136902
0.0136898
0.0136894
0.0136889
0.0136884
0.0136879
0.0136873
0.0136867
0.0136467
0.0136468
0.0136468
0.0136468
0.0136467
0.0136466
0.0136464
0.0136461
0.0136458
0.0136454
0.013645
0.0136445
0.013644
0.0136434
0.0136428
0.0136421
0.0136414
0.0136406
0.0136398
0.013639
0.0135928
0.0135929
0.0135929
0.0135929
0.0135928
0.0135926
0.0135923
0.013592
0.0135916
0.0135911
0.0135906
0.01359
0.0135893
0.0135886
0.0135878
0.013587
0.0135861
0.0135851
0.0135841
0.0135831
0.0135321
0.0135322
0.0135322
0.0135321
0.0135319
0.0135317
0.0135314
0.0135309
0.0135305
0.0135299
0.0135292
0.0135285
0.0135277
0.0135269
0.0135259
0.0135249
0.0135239
0.0135227
0.0135216
0.0135203
0.0134666
0.0134667
0.0134667
0.0134666
0.0134664
0.0134661
0.0134657
0.0134652
0.0134646
0.013464
0.0134632
0.0134624
0.0134614
0.0134604
0.0134593
0.0134581
0.0134569
0.0134556
0.0134542
0.0134527
0.0133966
0.0133967
0.0133967
0.0133966
0.0133963
0.013396
0.0133955
0.013395
0.0133943
0.0133935
0.0133926
0.0133917
0.0133906
0.0133894
0.0133882
0.0133868
0.0133853
0.0133838
0.0133822
0.0133805
0.0133217
0.0133218
0.0133218
0.0133216
0.0133214
0.013321
0.0133205
0.0133198
0.0133191
0.0133182
0.0133172
0.013316
0.0133148
0.0133135
0.013312
0.0133105
0.0133088
0.0133071
0.0133052
0.0133033
0.0132413
0.0132414
0.0132414
0.0132413
0.013241
0.0132405
0.0132399
0.0132392
0.0132383
0.0132373
0.0132362
0.0132349
0.0132336
0.0132321
0.0132304
0.0132287
0.0132268
0.0132248
0.0132227
0.0132205
0.0131546
0.0131548
0.0131548
0.0131546
0.0131543
0.0131538
0.0131532
0.0131524
0.0131514
0.0131503
0.013149
0.0131476
0.0131461
0.0131444
0.0131425
0.0131406
0.0131385
0.0131363
0.0131339
0.0131314
0.0130614
0.0130616
0.0130616
0.0130614
0.0130611
0.0130605
0.0130598
0.0130589
0.0130578
0.0130565
0.0130551
0.0130535
0.0130518
0.0130499
0.0130478
0.0130456
0.0130433
0.0130407
0.0130381
0.0130353
0.0129614
0.0129616
0.0129616
0.0129614
0.0129609
0.0129603
0.0129595
0.0129585
0.0129572
0.0129558
0.0129542
0.0129524
0.0129505
0.0129483
0.012946
0.0129435
0.0129408
0.012938
0.012935
0.0129319
0.0128549
0.0128551
0.0128551
0.0128548
0.0128544
0.0128537
0.0128527
0.0128516
0.0128502
0.0128486
0.0128468
0.0128448
0.0128426
0.0128402
0.0128376
0.0128348
0.0128318
0.0128287
0.0128253
0.0128218
0.0127417
0.0127419
0.0127419
0.0127416
0.0127411
0.0127403
0.0127393
0.012738
0.0127365
0.0127348
0.0127328
0.0127306
0.0127282
0.0127256
0.0127227
0.0127197
0.0127164
0.0127129
0.0127092
0.0127054
0.0126211
0.0126213
0.0126213
0.0126209
0.0126203
0.0126195
0.0126183
0.0126169
0.0126153
0.0126134
0.0126112
0.0126088
0.0126062
0.0126033
0.0126002
0.0125968
0.0125933
0.0125895
0.0125854
0.0125812
0.0124924
0.0124926
0.0124926
0.0124922
0.0124915
0.0124905
0.0124893
0.0124877
0.0124859
0.0124838
0.0124815
0.0124788
0.0124759
0.0124727
0.0124693
0.0124656
0.0124617
0.0124575
0.0124531
0.0124484
0.0123553
0.0123555
0.0123554
0.012355
0.0123542
0.0123531
0.0123517
0.01235
0.012348
0.0123457
0.012343
0.0123401
0.0123369
0.0123334
0.0123296
0.0123255
0.0123212
0.0123166
0.0123117
0.0123065
0.012209
0.0122092
0.012209
0.0122085
0.0122077
0.0122065
0.0122049
0.012203
0.0122008
0.0121982
0.0121953
0.012192
0.0121885
0.0121846
0.0121804
0.0121759
0.0121711
0.012166
0.0121606
0.0121549
0.0120527
0.0120529
0.0120527
0.0120522
0.0120512
0.0120498
0.0120481
0.012046
0.0120435
0.0120406
0.0120374
0.0120338
0.0120298
0.0120255
0.0120208
0.0120158
0.0120105
0.0120048
0.0119988
0.0119924
0.0118856
0.0118858
0.0118856
0.011885
0.0118839
0.0118823
0.0118804
0.011878
0.0118752
0.011872
0.0118684
0.0118644
0.01186
0.0118552
0.01185
0.0118444
0.0118384
0.0118321
0.0118253
0.0118183
0.0117069
0.0117071
0.0117069
0.0117061
0.0117049
0.0117032
0.011701
0.0116983
0.0116952
0.0116916
0.0116876
0.0116831
0.0116781
0.0116728
0.0116669
0.0116607
0.011654
0.0116469
0.0116394
0.0116315
0.0115153
0.0115156
0.0115153
0.0115144
0.011513
0.0115111
0.0115086
0.0115057
0.0115022
0.0114981
0.0114936
0.0114886
0.011483
0.011477
0.0114705
0.0114635
0.011456
0.0114481
0.0114397
0.0114308
0.0113101
0.0113104
0.01131
0.0113091
0.0113075
0.0113053
0.0113026
0.0112992
0.0112953
0.0112908
0.0112857
0.0112801
0.0112739
0.0112672
0.0112599
0.011252
0.0112437
0.0112348
0.0112254
0.0112154
0.0110915
0.0110918
0.0110914
0.0110903
0.0110886
0.0110861
0.0110831
0.0110793
0.0110749
0.0110699
0.0110643
0.011058
0.0110511
0.0110436
0.0110355
0.0110267
0.0110174
0.0110075
0.010997
0.010986
0.0108604
0.0108607
0.0108603
0.0108591
0.0108571
0.0108544
0.010851
0.0108469
0.010842
0.0108365
0.0108302
0.0108233
0.0108156
0.0108073
0.0107984
0.0107887
0.0107784
0.0107675
0.0107559
0.0107437
0.0106177
0.010618
0.0106175
0.0106162
0.0106141
0.0106112
0.0106075
0.010603
0.0105977
0.0105916
0.0105848
0.0105772
0.0105689
0.0105598
0.01055
0.0105395
0.0105283
0.0105164
0.0105038
0.0104905
0.0103654
0.0103659
0.0103655
0.0103641
0.0103619
0.0103589
0.0103549
0.0103501
0.0103445
0.0103381
0.0103308
0.0103227
0.0103139
0.0103042
0.0102938
0.0102826
0.0102707
0.010258
0.0102445
0.0102304
0.0101067
0.0101073
0.010107
0.0101057
0.0101036
0.0101005
0.0100965
0.0100916
0.0100859
0.0100793
0.0100718
0.0100636
0.0100545
0.0100445
0.0100338
0.0100223
0.01001
0.00999702
0.00998323
0.00996871
0.00984674
0.00984743
0.00984714
0.00984596
0.00984385
0.00984084
0.00983694
0.00983216
0.00982651
0.00982002
0.00981268
0.00980452
0.00979556
0.0097858
0.00977526
0.00976395
0.0097519
0.00973911
0.0097256
0.0097114
0.00958804
0.00958883
0.00958864
0.00958766
0.00958582
0.00958313
0.00957961
0.00957527
0.00957012
0.00956419
0.0095575
0.00955006
0.00954189
0.00953301
0.00952344
0.0095132
0.0095023
0.00949078
0.00947864
0.0094659
0.00933264
0.00933361
0.00933361
0.00933307
0.00933178
0.00932976
0.00932702
0.00932358
0.00931946
0.00931466
0.00930921
0.00930313
0.00929643
0.00928913
0.00928125
0.00927281
0.00926383
0.00925433
0.00924433
0.00923385
0.00907807
0.0090793
0.00907993
0.00907979
0.00907923
0.00907809
0.00907639
0.00907413
0.00907134
0.00906802
0.00906419
0.00905987
0.00905508
0.00904982
0.00904413
0.00903801
0.00903148
0.00902457
0.00901728
0.00900965
0.00881713
0.00881863
0.0088197
0.00882037
0.00882037
0.00882011
0.00881959
0.00881869
0.00881743
0.00881582
0.00881385
0.00881155
0.00880894
0.00880601
0.00880279
0.0087993
0.00879554
0.00879153
0.00878728
0.00878281
0.00853443
0.00853615
0.00853768
0.00853903
0.00854019
0.00854116
0.00854194
0.00854244
0.00854259
0.00854253
0.00854237
0.00854211
0.00854174
0.00854128
0.00854072
0.00854006
0.00853927
0.00853836
0.00853733
0.0085362
0.00821599
0.0082174
0.00821888
0.00822043
0.00822205
0.0082237
0.00822539
0.0082271
0.00822884
0.0082306
0.00823238
0.00823416
0.00823597
0.00823778
0.0082396
0.00824143
0.00824326
0.00824509
0.00824694
0.00824878
0.00784853
0.00784982
0.00785135
0.00785311
0.00785507
0.00785725
0.00785962
0.00786218
0.00786492
0.00786784
0.00787092
0.00787417
0.00787756
0.00788111
0.00788479
0.00788861
0.00789256
0.00789663
0.00790081
0.00790511
0.00740944
0.00741019
0.00741172
0.00741365
0.00741594
0.00741859
0.00742158
0.0074249
0.00742854
0.00743248
0.00743672
0.00744123
0.00744602
0.00745106
0.00745634
0.00746185
0.00746758
0.00747352
0.00747965
0.00748596
0.00689103
0.00689102
0.00689205
0.0068941
0.00689663
0.00689964
0.0069031
0.00690699
0.0069113
0.00691601
0.00692109
0.00692654
0.00693234
0.00693846
0.00694489
0.00695161
0.0069586
0.00696584
0.00697332
0.00698102
0.00627976
0.0062794
0.00627964
0.0062811
0.0062837
0.00628688
0.00629058
0.00629479
0.00629947
0.0063046
0.00631017
0.00631615
0.00632251
0.00632924
0.0063363
0.00634369
0.00635136
0.00635931
0.0063675
0.00637592
0.00558666
0.00558585
0.00558548
0.00558568
0.00558708
0.00558958
0.005593
0.00559689
0.00560123
0.005606
0.00561117
0.00561672
0.00562262
0.00562885
0.00563538
0.00564218
0.00564925
0.00565655
0.00566406
0.00567177
0.00484696
0.00484561
0.00484472
0.0048443
0.00484443
0.00484582
0.00484838
0.00485199
0.00485617
0.00486081
0.0048659
0.0048714
0.0048773
0.00488356
0.00489016
0.00489708
0.0049043
0.00491177
0.00491949
0.00492743
0.00415072
0.00414894
0.00414767
0.00414689
0.0041466
0.00414712
0.00414888
0.00415177
0.00415566
0.00416008
0.00416495
0.00417022
0.00417587
0.00418187
0.00418819
0.00419481
0.00420171
0.00420884
0.0042162
0.00422375
0.00347663
0.00347418
0.00347232
0.00347103
0.0034703
0.0034701
0.003471
0.0034732
0.00347655
0.00348089
0.00348574
0.003491
0.00349665
0.00350265
0.00350897
0.00351559
0.00352247
0.00352959
0.00353693
0.00354445
0.00282017
0.00281687
0.00281433
0.00281254
0.00281145
0.00281103
0.00281165
0.00281385
0.00281742
0.00282215
0.00282744
0.00283321
0.00283941
0.002846
0.00285295
0.00286021
0.00286776
0.00287555
0.00288354
0.00289168
0.00219409
0.00218993
0.0021868
0.00218464
0.0021834
0.00218302
0.00218421
0.0021873
0.00219199
0.00219756
0.00220374
0.00221049
0.00221774
0.00222542
0.0022335
0.00224192
0.00225064
0.00225964
0.00226886
0.00227829
0.00162133
0.00161661
0.0016133
0.00161128
0.00161048
0.00161131
0.0016147
0.00161995
0.0016261
0.00163305
0.00164069
0.00164894
0.0016577
0.00166693
0.00167654
0.00168648
0.00169671
0.00170718
0.00171785
0.00172869
0.0011302
0.00112388
0.00112016
0.00111834
0.00111823
0.00112169
0.0011273
0.00113412
0.00114194
0.00115057
0.00115986
0.00116969
0.00117992
0.00119048
0.00120131
0.00121237
0.00122362
0.00123502
0.00124654
0.00125816
0.00071063
0.00071148
0.000716466
0.000723353
0.000731968
0.000741877
0.000752689
0.000764102
0.000775892
0.000787892
0.000799406
0.000810366
0.000821495
0.000832727
0.000844017
0.000855325
0.000866633
0.000877935
0.000525904
0.00053832
0.000550481
0.000562189
0.000573229
0.000583189
0.000592669
0.000601402
0.0136856
0.0136841
0.0136826
0.0136812
0.0136798
0.0136374
0.0136354
0.0136334
0.0136315
0.0136296
0.0135811
0.0135785
0.013576
0.0135735
0.0135711
0.0135179
0.0135148
0.0135117
0.0135087
0.0135058
0.0134499
0.0134461
0.0134424
0.0134387
0.0134352
0.0133772
0.0133727
0.0133682
0.0133639
0.0133596
0.0132994
0.0132941
0.0132889
0.0132837
0.0132787
0.0132161
0.0132099
0.0132039
0.0131979
0.0131921
0.0131264
0.0131192
0.0131122
0.0131053
0.0130985
0.0130295
0.0130212
0.0130131
0.0130051
0.0129973
0.0129252
0.0129156
0.0129061
0.0128969
0.0128878
0.0128142
0.0128031
0.0127922
0.0127815
0.012771
0.0126969
0.0126844
0.0126722
0.0126601
0.0126482
0.0125717
0.0125576
0.0125438
0.0125302
0.0125168
0.0124377
0.0124219
0.0124063
0.0123909
0.0123757
0.0122946
0.0122766
0.0122589
0.0122414
0.0122243
0.0121413
0.0121209
0.0121008
0.012081
0.0120615
0.0119771
0.0119539
0.011931
0.0119084
0.0118861
0.0118009
0.0117744
0.0117482
0.0117224
0.011697
0.0116117
0.0115814
0.0115515
0.011522
0.0114931
0.0114084
0.0113737
0.0113397
0.0113062
0.0112732
0.01119
0.0111506
0.0111119
0.0110738
0.0110365
0.0109574
0.0109127
0.010869
0.0108262
0.0107842
0.0107118
0.0106618
0.010613
0.0105654
0.0105188
0.0104554
0.0104004
0.0103468
0.0102946
0.0102439
0.0101927
0.0101337
0.0100765
0.010021
0.00996711
0.00992975
0.00986883
0.00980998
0.00975318
0.00969839
0.00967304
0.00961327
0.0095559
0.0095009
0.00944827
0.00943138
0.00937777
0.00932662
0.00927788
0.00923149
0.00920527
0.00916099
0.0091189
0.00907896
0.00904111
0.00898867
0.00895625
0.00892553
0.00889647
0.00886904
0.0087704
0.00875125
0.0087331
0.00871595
0.00869979
0.00853285
0.00852764
0.00852254
0.00851763
0.00851296
0.00825358
0.00826093
0.00826761
0.00827375
0.00827945
0.00791667
0.00793459
0.00795127
0.00796687
0.00798152
0.00750307
0.00752973
0.00755472
0.00757825
0.0076005
0.00700191
0.00703473
0.00706577
0.00709526
0.00712339
0.00639875
0.00643518
0.00647018
0.00650393
0.00653656
0.00569262
0.00572793
0.00576359
0.00579948
0.00583548
0.00494885
0.00498554
0.00502302
0.00506107
0.00509953
0.00424397
0.00427992
0.00431767
0.00435683
0.00439702
0.00356439
0.00360128
0.00364101
0.00368291
0.00372637
0.00291279
0.00295281
0.00299647
0.00304272
0.00309081
0.00230228
0.00234782
0.0023972
0.00244896
0.0025022
0.00175536
0.00180578
0.00185983
0.00191594
0.00197322
0.00128557
0.00133774
0.00139367
0.00145163
0.00151068
0.000903438
0.00095199
0.00100399
0.00105847
0.00111498
0.000619965
0.000657821
0.000696453
0.000736573
0.000782578
0.00041159
0.000431983
0.000450818
0.00047374
0.000503655
0.000215055
0.00022122
0.000241617
0.0136785
0.0136774
0.0136762
0.0136747
0.0136732
0.0136715
0.0136696
0.0136677
0.0136657
0.0136638
0.0136619
0.0136601
0.0136586
0.0136573
0.0136564
0.0136559
0.0136559
0.0136564
0.0136574
0.0136589
0.0136609
0.0136634
0.0136665
0.01367
0.0136741
0.0136788
0.0136842
0.0136902
0.013697
0.0137047
0.0137132
0.0137228
0.0137334
0.0137451
0.013758
0.0137721
0.0137876
0.0138045
0.0138227
0.0138422
0.013863
0.0138851
0.0139086
0.013934
0.0139583
0.0139807
0.0139985
0.014028
0.0140477
0.0140222
0.0136274
0.0136259
0.0136241
0.0136222
0.0136201
0.0136179
0.0136156
0.0136132
0.0136108
0.0136085
0.0136062
0.0136042
0.0136025
0.0136011
0.0136002
0.0135999
0.0136
0.0136008
0.0136022
0.0136042
0.0136069
0.0136101
0.013614
0.0136186
0.0136238
0.0136297
0.0136364
0.013644
0.0136524
0.0136619
0.0136723
0.0136839
0.0136966
0.0137105
0.0137257
0.0137423
0.0137603
0.0137797
0.0138007
0.013823
0.0138465
0.013871
0.0138961
0.013922
0.0139487
0.0139745
0.0139946
0.0140205
0.0140426
0.0140234
0.0135683
0.013566
0.0135635
0.0135608
0.0135579
0.0135548
0.0135516
0.0135483
0.013545
0.0135419
0.0135389
0.0135362
0.013534
0.0135324
0.0135313
0.0135309
0.0135313
0.0135325
0.0135345
0.0135373
0.0135409
0.0135452
0.0135503
0.0135562
0.013563
0.0135707
0.0135793
0.0135889
0.0135996
0.0136114
0.0136244
0.0136387
0.0136542
0.013671
0.013689
0.0137084
0.0137292
0.0137514
0.0137752
0.0138004
0.013827
0.0138544
0.0138823
0.0139104
0.0139393
0.0139686
0.0139928
0.0140144
0.0140363
0.0140252
0.0135023
0.0134992
0.0134959
0.0134922
0.0134883
0.0134842
0.0134799
0.0134756
0.0134713
0.0134672
0.0134633
0.01346
0.0134572
0.0134551
0.0134539
0.0134535
0.0134542
0.0134559
0.0134586
0.0134623
0.013467
0.0134726
0.0134793
0.0134869
0.0134956
0.0135054
0.0135164
0.0135286
0.0135421
0.013557
0.0135732
0.0135908
0.0136098
0.01363
0.0136516
0.0136743
0.0136982
0.0137235
0.0137501
0.0137784
0.013808
0.0138385
0.0138692
0.0138996
0.0139304
0.0139626
0.0139906
0.0140101
0.0140305
0.0140255
0.0134309
0.0134268
0.0134223
0.0134174
0.0134122
0.0134068
0.0134012
0.0133955
0.01339
0.0133846
0.0133797
0.0133755
0.013372
0.0133695
0.0133681
0.0133677
0.0133688
0.0133712
0.0133748
0.0133796
0.0133856
0.0133929
0.0134013
0.0134111
0.0134221
0.0134345
0.0134483
0.0134636
0.0134806
0.0134991
0.0135192
0.0135409
0.0135641
0.0135887
0.0136144
0.0136412
0.0136689
0.0136976
0.0137273
0.0137584
0.0137908
0.0138241
0.0138578
0.0138905
0.0139227
0.0139571
0.0139886
0.0140075
0.0140264
0.014025
0.0133543
0.0133489
0.013343
0.0133366
0.0133299
0.0133228
0.0133156
0.0133083
0.0133012
0.0132945
0.0132883
0.013283
0.0132788
0.0132758
0.0132742
0.013274
0.0132756
0.0132787
0.0132833
0.0132895
0.0132971
0.0133062
0.0133168
0.0133289
0.0133426
0.013358
0.0133752
0.0133942
0.0134151
0.0134378
0.0134625
0.0134889
0.013517
0.0135466
0.0135773
0.0136089
0.0136412
0.0136739
0.0137073
0.0137414
0.0137762
0.0138118
0.0138479
0.0138831
0.0139165
0.0139522
0.0139869
0.014007
0.0140239
0.0140238
0.0132723
0.0132653
0.0132577
0.0132496
0.013241
0.0132321
0.013223
0.013214
0.0132051
0.0131969
0.0131894
0.0131831
0.0131781
0.0131748
0.0131732
0.0131732
0.0131754
0.0131796
0.0131856
0.0131933
0.0132028
0.0132142
0.0132274
0.0132425
0.0132595
0.0132784
0.0132993
0.0133224
0.0133476
0.013375
0.0134045
0.0134361
0.0134696
0.0135046
0.0135409
0.0135779
0.0136155
0.0136532
0.013691
0.0137286
0.0137658
0.0138028
0.0138402
0.0138777
0.0139125
0.0139481
0.0139854
0.0140088
0.0140225
0.0140223
0.0131843
0.0131755
0.013166
0.0131559
0.0131452
0.0131342
0.013123
0.013112
0.0131013
0.0130915
0.0130827
0.0130754
0.0130699
0.0130663
0.013065
0.0130659
0.0130692
0.0130747
0.0130825
0.0130926
0.0131049
0.0131193
0.0131358
0.0131544
0.0131752
0.0131982
0.0132235
0.0132513
0.0132814
0.013314
0.0133488
0.0133859
0.0134248
0.0134654
0.0135072
0.0135498
0.0135926
0.0136353
0.0136772
0.0137181
0.0137579
0.0137968
0.0138355
0.0138741
0.0139106
0.0139451
0.0139839
0.0140108
0.0140222
0.0140204
0.0130893
0.0130783
0.0130665
0.0130539
0.0130408
0.0130273
0.0130138
0.0130004
0.0129878
0.0129761
0.012966
0.0129577
0.0129517
0.0129481
0.0129472
0.0129492
0.0129539
0.0129614
0.0129718
0.0129847
0.0130001
0.013018
0.0130382
0.0130609
0.013086
0.0131138
0.0131443
0.0131775
0.0132134
0.0132519
0.0132929
0.0133362
0.0133813
0.013428
0.0134757
0.0135238
0.0135719
0.0136192
0.0136651
0.0137093
0.0137516
0.0137923
0.0138324
0.0138721
0.01391
0.0139438
0.0139824
0.0140111
0.0140245
0.0140184
0.0129861
0.0129725
0.0129579
0.0129425
0.0129265
0.0129101
0.0128938
0.0128779
0.0128629
0.0128493
0.0128377
0.0128285
0.0128221
0.0128189
0.0128184
0.0128219
0.0128288
0.012839
0.0128523
0.0128686
0.0128876
0.0129094
0.012934
0.0129614
0.0129918
0.0130251
0.0130615
0.0131009
0.0131433
0.0131886
0.0132364
0.0132865
0.0133384
0.0133916
0.0134455
0.0134994
0.0135527
0.0136047
0.0136547
0.0137021
0.0137468
0.0137891
0.0138302
0.0138709
0.01391
0.0139435
0.0139812
0.0140107
0.0140252
0.0140164
0.0128744
0.0128576
0.0128397
0.0128208
0.0128013
0.0127816
0.012762
0.0127431
0.0127256
0.01271
0.0126968
0.0126868
0.0126802
0.0126775
0.0126785
0.0126841
0.0126937
0.012707
0.0127237
0.0127438
0.0127671
0.0127936
0.0128232
0.0128561
0.0128924
0.0129321
0.0129753
0.0130218
0.0130715
0.0131243
0.0131796
0.0132372
0.0132963
0.0133565
0.0134169
0.0134768
0.0135354
0.013592
0.0136458
0.0136963
0.0137432
0.0137868
0.0138288
0.0138703
0.0139104
0.0139437
0.0139802
0.0140101
0.0140252
0.0140144
0.0127551
0.0127346
0.0127127
0.0126898
0.0126662
0.0126425
0.0126191
0.0125968
0.0125762
0.0125583
0.0125436
0.0125329
0.0125266
0.0125248
0.0125281
0.012536
0.0125485
0.0125652
0.0125858
0.0126103
0.0126385
0.0126703
0.0127057
0.012745
0.0127881
0.012835
0.0128858
0.0129404
0.0129983
0.0130594
0.013123
0.0131886
0.0132555
0.013323
0.0133901
0.013456
0.0135198
0.0135809
0.0136385
0.0136919
0.0137408
0.0137855
0.0138281
0.0138701
0.013911
0.0139442
0.0139794
0.0140095
0.014025
0.0140127
0.0126297
0.0126052
0.0125792
0.0125521
0.0125243
0.0124963
0.012469
0.0124431
0.0124193
0.0123987
0.0123821
0.01237
0.0123633
0.0123618
0.0123667
0.0123771
0.0123928
0.0124134
0.0124385
0.012468
0.0125016
0.0125395
0.0125816
0.012628
0.0126788
0.012734
0.0127935
0.0128569
0.012924
0.0129942
0.0130668
0.0131412
0.0132163
0.0132913
0.0133653
0.0134372
0.0135062
0.0135715
0.0136325
0.0136886
0.0137393
0.013785
0.0138279
0.0138702
0.0139119
0.0139449
0.0139789
0.0140089
0.0140246
0.0140111
0.0124953
0.0124662
0.0124353
0.0124033
0.0123705
0.0123377
0.0123058
0.0122758
0.0122486
0.0122252
0.0122066
0.0121937
0.0121869
0.0121861
0.0121932
0.0122068
0.0122263
0.0122514
0.0122817
0.0123169
0.0123568
0.0124016
0.0124512
0.0125057
0.0125651
0.0126294
0.0126984
0.0127718
0.0128489
0.0129292
0.0130115
0.0130951
0.0131789
0.0132618
0.0133427
0.0134205
0.0134944
0.0135638
0.0136279
0.0136863
0.0137386
0.013785
0.0138281
0.0138705
0.0139128
0.0139458
0.0139784
0.0140084
0.0140242
0.0140096
0.0123507
0.0123162
0.0122798
0.012242
0.0122036
0.0121653
0.0121283
0.0120938
0.0120628
0.0120366
0.0120164
0.0120028
0.0119966
0.0119973
0.0120074
0.0120248
0.0120489
0.0120792
0.0121154
0.012157
0.0122041
0.0122565
0.0123145
0.0123781
0.0124472
0.0125217
0.0126012
0.0126854
0.0127735
0.0128646
0.0129575
0.0130509
0.0131436
0.0132345
0.0133223
0.0134059
0.0134845
0.0135575
0.0136244
0.0136848
0.0137385
0.0137854
0.0138286
0.0138709
0.0139138
0.0139467
0.0139782
0.0140078
0.0140237
0.0140084
0.0121951
0.0121543
0.0121115
0.0120672
0.0120223
0.0119779
0.0119353
0.0118958
0.011861
0.0118321
0.0118104
0.0117968
0.0117918
0.0117958
0.0118093
0.0118311
0.0118605
0.0118968
0.0119395
0.0119884
0.0120434
0.0121045
0.0121718
0.0122455
0.0123253
0.012411
0.0125023
0.0125984
0.0126983
0.0128009
0.012905
0.0130086
0.0131106
0.0132096
0.0133042
0.0133933
0.0134763
0.0135526
0.0136219
0.0136841
0.0137388
0.0137862
0.0138293
0.0138715
0.0139148
0.0139476
0.013978
0.0140074
0.0140233
0.0140076
0.0120275
0.0119795
0.0119292
0.0118775
0.0118253
0.0117741
0.0117254
0.0116809
0.0116423
0.011611
0.0115885
0.0115755
0.011572
0.0115801
0.0115982
0.0116255
0.0116609
0.011704
0.0117541
0.0118111
0.0118749
0.0119456
0.0120233
0.0121081
0.0121997
0.0122979
0.012402
0.012511
0.0126237
0.0127387
0.0128544
0.0129686
0.01308
0.013187
0.0132883
0.0133827
0.0134697
0.0135488
0.0136202
0.0136839
0.0137395
0.0137872
0.0138301
0.0138721
0.0139157
0.0139485
0.0139779
0.014007
0.0140228
0.0140071
0.0118466
0.0117903
0.0117314
0.0116712
0.011611
0.0115524
0.0114973
0.0114477
0.0114055
0.0113724
0.0113498
0.0113383
0.0113372
0.0113504
0.0113743
0.011408