/*--------------------------------*- C++ -*----------------------------------*\
  =========                 |
  \\      /  F ield         | OpenFOAM: The Open Source CFD Toolbox
   \\    /   O peration     | Website:  https://openfoam.org
    \\  /    A nd           | Version:  9
     \\/     M anipulation  |
\*---------------------------------------------------------------------------*/
FoamFile
{
    format      ascii;
    class       volScalarField;
    location    "0.0025";
    object      nuTilda;
}
// * * * * * * * * * * * * * * * * * * * * * * * * * * * * * * * * * * * * * //

dimensions      [0 2 -1 0 0 0 0];

internalField   nonuniform List<scalar> 
8420
(
0.0140258
0.0140259
0.0140261
0.0140262
0.0140263
0.0140264
0.0140264
0.0140265
0.0140266
0.0140267
0.0140267
0.0140268
0.0140269
0.0140269
0.0140269
0.014027
0.014027
0.0140271
0.0140271
0.0140271
0.0140272
0.0140272
0.0140272
0.0140272
0.0140272
0.0140272
0.0140272
0.0140271
0.0140271
0.014027
0.014027
0.0140269
0.0140268
0.0140267
0.0140433
0.0140427
0.014042
0.0140413
0.0140407
0.0140399
0.0140392
0.0140384
0.0140376
0.0140368
0.014036
0.0140352
0.0140343
0.0140335
0.0140326
0.0140317
0.014031
0.0140303
0.0140297
0.0140291
0.0140286
0.0140282
0.0140279
0.0140276
0.0140274
0.0140272
0.0140272
0.0140274
0.0140274
0.0140272
0.014027
0.0140267
0.0140263
0.014026
0.0140303
0.0140299
0.0140296
0.0140292
0.0140288
0.0140284
0.014028
0.0140276
0.0140273
0.0140269
0.0140265
0.0140262
0.0140258
0.0140255
0.0140252
0.0140251
0.014025
0.0140252
0.0140253
0.0140253
0.0140252
0.0140251
0.014025
0.0140249
0.0140247
0.0140246
0.0140244
0.0140242
0.0140239
0.0140237
0.0140235
0.0140232
0.0140229
0.0140227
0.0140311
0.0140309
0.0140306
0.0140304
0.0140302
0.0140299
0.0140296
0.0140293
0.014029
0.0140287
0.0140283
0.014028
0.0140276
0.0140273
0.0140269
0.0140265
0.0140261
0.0140257
0.0140252
0.0140248
0.0140244
0.0140239
0.0140234
0.014023
0.0140225
0.014022
0.0140215
0.014021
0.0140206
0.0140201
0.0140196
0.0140192
0.0140189
0.0140187
0.0139964
0.0139963
0.0139961
0.0139959
0.0139958
0.0139956
0.0139955
0.0139953
0.0139951
0.013995
0.0139948
0.0139947
0.0139945
0.0139943
0.0139942
0.013994
0.0139939
0.0139937
0.0139936
0.0139934
0.0139932
0.0139931
0.0139929
0.0139928
0.0139926
0.0139925
0.0139923
0.0139922
0.0139921
0.0139919
0.0139918
0.0139916
0.0139915
0.0139913
0.0139839
0.0139838
0.0139836
0.0139835
0.0139833
0.013983
0.0139828
0.0139825
0.0139821
0.0139818
0.0139815
0.0139811
0.0139807
0.0139803
0.0139799
0.0139794
0.013979
0.0139785
0.013978
0.0139776
0.0139771
0.0139766
0.013976
0.0139755
0.013975
0.0139745
0.0139739
0.0139734
0.0139728
0.0139723
0.0139717
0.0139712
0.0139706
0.0139701
0.0139465
0.0139468
0.0139471
0.0139474
0.0139477
0.013948
0.0139483
0.0139486
0.013949
0.0139493
0.0139496
0.01395
0.0139503
0.0139507
0.013951
0.0139514
0.0139518
0.0139522
0.0139525
0.0139529
0.0139533
0.0139537
0.013954
0.013954
0.0139539
0.0139538
0.0139537
0.0139535
0.0139532
0.013953
0.0139527
0.0139524
0.0139521
0.0139518
0.0139331
0.0139336
0.0139341
0.0139346
0.0139351
0.0139355
0.0139356
0.0139356
0.0139355
0.0139353
0.0139351
0.0139349
0.0139346
0.0139343
0.013934
0.0139337
0.0139333
0.013933
0.0139326
0.0139324
0.0139322
0.0139322
0.0139325
0.013933
0.0139334
0.0139339
0.0139344
0.0139348
0.0139353
0.0139358
0.0139363
0.0139367
0.0139372
0.0139377
0.0139114
0.0139119
0.0139124
0.0139129
0.0139134
0.013914
0.0139145
0.013915
0.0139155
0.0139161
0.0139166
0.0139172
0.0139174
0.0139175
0.0139174
0.0139173
0.0139171
0.0139169
0.0139166
0.0139164
0.0139164
0.0139168
0.0139174
0.0139179
0.0139185
0.013919
0.0139196
0.0139202
0.0139207
0.0139213
0.0139218
0.0139224
0.013923
0.0139235
0.0138867
0.0138872
0.0138878
0.0138884
0.013889
0.0138896
0.0138902
0.0138908
0.0138914
0.013892
0.0138926
0.0138932
0.0138938
0.0138944
0.013895
0.0138956
0.0138962
0.0138969
0.0138975
0.0138981
0.0138988
0.0138994
0.0139001
0.0139007
0.0139014
0.013902
0.0139027
0.0139034
0.013904
0.0139047
0.0139054
0.013906
0.0139067
0.0139074
0.0139081
0.0138662
0.0138669
0.0138677
0.0138684
0.0138691
0.0138699
0.0138706
0.0138713
0.0138721
0.0138728
0.0138736
0.0138743
0.0138751
0.0138758
0.0138766
0.0138774
0.0138781
0.0138789
0.0138796
0.0138804
0.0138812
0.0138819
0.0138827
0.0138835
0.0138843
0.013885
0.0138858
0.0138866
0.0138874
0.0138882
0.013889
0.0138897
0.0138905
0.0138913
0.0138921
0.013845
0.0138459
0.0138467
0.0138476
0.0138485
0.0138493
0.0138502
0.0138511
0.0138519
0.0138528
0.0138537
0.0138546
0.0138555
0.0138564
0.0138572
0.0138581
0.013859
0.0138599
0.0138608
0.0138617
0.0138626
0.0138635
0.0138645
0.0138654
0.0138663
0.0138672
0.0138681
0.013869
0.01387
0.0138709
0.0138718
0.0138727
0.0138737
0.0138746
0.0138755
0.0138226
0.0138236
0.0138246
0.0138256
0.0138266
0.0138277
0.0138287
0.0138297
0.0138307
0.0138318
0.0138328
0.0138338
0.0138349
0.0138359
0.0138369
0.013838
0.013839
0.0138401
0.0138412
0.0138422
0.0138433
0.0138443
0.0138454
0.0138465
0.0138475
0.0138486
0.0138497
0.0138508
0.0138519
0.0138529
0.013854
0.0138551
0.0138562
0.0138573
0.0138584
0.0137988
0.0138
0.0138011
0.0138023
0.0138035
0.0138047
0.0138059
0.0138071
0.0138083
0.0138095
0.0138107
0.0138119
0.0138131
0.0138143
0.0138155
0.0138167
0.013818
0.0138192
0.0138204
0.0138217
0.0138229
0.0138242
0.0138254
0.0138267
0.0138279
0.0138292
0.0138304
0.0138317
0.013833
0.0138342
0.0138355
0.0138368
0.0138381
0.0138394
0.0138406
0.0137734
0.0137748
0.0137762
0.0137775
0.0137789
0.0137803
0.0137817
0.013783
0.0137844
0.0137858
0.0137872
0.0137886
0.01379
0.0137915
0.0137929
0.0137943
0.0137957
0.0137972
0.0137986
0.0138001
0.0138015
0.013803
0.0138044
0.0138059
0.0138073
0.0138088
0.0138103
0.0138118
0.0138132
0.0138147
0.0138162
0.0138177
0.0138192
0.0138207
0.0138222
0.0137462
0.0137478
0.0137494
0.013751
0.0137525
0.0137541
0.0137557
0.0137573
0.013759
0.0137606
0.0137622
0.0137638
0.0137655
0.0137671
0.0137688
0.0137704
0.0137721
0.0137737
0.0137754
0.0137771
0.0137788
0.0137805
0.0137822
0.0137839
0.0137856
0.0137873
0.013789
0.0137907
0.0137924
0.0137941
0.0137959
0.0137976
0.0137994
0.0138011
0.0138028
0.0137166
0.0137185
0.0137203
0.0137221
0.0137239
0.0137258
0.0137276
0.0137295
0.0137314
0.0137332
0.0137351
0.013737
0.0137389
0.0137408
0.0137427
0.0137446
0.0137466
0.0137485
0.0137504
0.0137524
0.0137543
0.0137563
0.0137583
0.0137602
0.0137622
0.0137642
0.0137662
0.0137682
0.0137702
0.0137722
0.0137742
0.0137762
0.0137783
0.0137803
0.0137823
0.013684
0.0136861
0.0136882
0.0136903
0.0136925
0.0136946
0.0136967
0.0136989
0.013701
0.0137032
0.0137054
0.0137076
0.0137098
0.013712
0.0137142
0.0137164
0.0137186
0.0137209
0.0137231
0.0137254
0.0137277
0.0137299
0.0137322
0.0137345
0.0137368
0.0137391
0.0137414
0.0137438
0.0137461
0.0137485
0.0137508
0.0137532
0.0137556
0.013758
0.0137603
0.0136478
0.0136502
0.0136526
0.013655
0.0136575
0.0136599
0.0136624
0.0136649
0.0136674
0.0136699
0.0136724
0.013675
0.0136775
0.0136801
0.0136827
0.0136852
0.0136878
0.0136904
0.0136931
0.0136957
0.0136983
0.013701
0.0137036
0.0137063
0.013709
0.0137117
0.0137144
0.0137171
0.0137199
0.0137226
0.0137254
0.0137281
0.0137309
0.0137337
0.0137365
0.0136072
0.0136099
0.0136127
0.0136156
0.0136184
0.0136212
0.0136241
0.013627
0.0136299
0.0136328
0.0136357
0.0136387
0.0136416
0.0136446
0.0136476
0.0136506
0.0136536
0.0136567
0.0136597
0.0136628
0.0136658
0.013669
0.0136721
0.0136752
0.0136784
0.0136815
0.0136847
0.0136879
0.0136911
0.0136943
0.0136975
0.0137008
0.013704
0.0137073
0.0137105
0.0135617
0.0135649
0.0135681
0.0135714
0.0135747
0.013578
0.0135813
0.0135847
0.013588
0.0135914
0.0135948
0.0135982
0.0136017
0.0136051
0.0136086
0.0136121
0.0136156
0.0136192
0.0136227
0.0136263
0.01363
0.0136336
0.0136373
0.0136409
0.0136446
0.0136483
0.013652
0.0136558
0.0136595
0.0136633
0.013667
0.0136708
0.0136746
0.0136784
0.0136822
0.0135108
0.0135146
0.0135183
0.0135221
0.0135259
0.0135297
0.0135336
0.0135375
0.0135414
0.0135453
0.0135492
0.0135532
0.0135572
0.0135613
0.0135653
0.0135694
0.0135735
0.0135777
0.0135819
0.0135861
0.0135903
0.0135946
0.0135989
0.0136031
0.0136075
0.0136118
0.0136161
0.0136205
0.0136249
0.0136293
0.0136337
0.0136381
0.0136426
0.013647
0.0136515
0.0134541
0.0134584
0.0134628
0.0134671
0.0134715
0.013476
0.0134804
0.013485
0.0134895
0.0134941
0.0134987
0.0135033
0.013508
0.0135127
0.0135174
0.0135222
0.0135271
0.0135319
0.0135368
0.0135417
0.0135467
0.0135516
0.0135566
0.0135617
0.0135667
0.0135718
0.0135769
0.013582
0.0135871
0.0135922
0.0135974
0.0136026
0.0136078
0.013613
0.0136182
0.0133908
0.0133958
0.0134008
0.0134059
0.013411
0.0134161
0.0134213
0.0134266
0.0134318
0.0134371
0.0134425
0.0134479
0.0134534
0.0134589
0.0134644
0.01347
0.0134757
0.0134813
0.013487
0.0134928
0.0134986
0.0135044
0.0135102
0.0135161
0.013522
0.0135279
0.0135339
0.0135398
0.0135458
0.0135519
0.0135579
0.013564
0.0135701
0.0135762
0.0135823
0.0133202
0.0133259
0.0133317
0.0133376
0.0133435
0.0133495
0.0133555
0.0133615
0.0133677
0.0133738
0.0133801
0.0133864
0.0133928
0.0133992
0.0134057
0.0134122
0.0134188
0.0134254
0.013432
0.0134388
0.0134455
0.0134523
0.0134591
0.013466
0.0134729
0.0134798
0.0134868
0.0134937
0.0135008
0.0135078
0.0135149
0.013522
0.0135291
0.0135363
0.0135434
0.0132412
0.0132478
0.0132545
0.0132613
0.0132681
0.013275
0.013282
0.013289
0.0132961
0.0133034
0.0133106
0.013318
0.0133254
0.0133329
0.0133404
0.013348
0.0133557
0.0133634
0.0133712
0.013379
0.0133869
0.0133948
0.0134028
0.0134108
0.0134189
0.013427
0.0134351
0.0134433
0.0134515
0.0134597
0.013468
0.0134763
0.0134847
0.013493
0.0135014
0.0131527
0.0131603
0.0131681
0.0131759
0.0131838
0.0131918
0.0131999
0.0132081
0.0132164
0.0132248
0.0132332
0.0132418
0.0132504
0.0132591
0.0132679
0.0132767
0.0132856
0.0132946
0.0133037
0.0133128
0.013322
0.0133313
0.0133406
0.0133499
0.0133594
0.0133688
0.0133783
0.0133879
0.0133975
0.0134072
0.0134169
0.0134266
0.0134363
0.0134461
0.0134559
0.0130535
0.0130623
0.0130713
0.0130803
0.0130895
0.0130987
0.0131081
0.0131176
0.0131272
0.0131369
0.0131468
0.0131567
0.0131667
0.0131768
0.013187
0.0131973
0.0132077
0.0132182
0.0132288
0.0132394
0.0132501
0.0132609
0.0132718
0.0132827
0.0132937
0.0133048
0.0133159
0.0133271
0.0133383
0.0133496
0.0133609
0.0133723
0.0133837
0.0133952
0.0134066
0.0129422
0.0129524
0.0129627
0.0129732
0.0129837
0.0129944
0.0130053
0.0130163
0.0130275
0.0130387
0.0130501
0.0130616
0.0130733
0.013085
0.0130969
0.0131089
0.013121
0.0131331
0.0131454
0.0131578
0.0131703
0.0131829
0.0131956
0.0132084
0.0132212
0.0132341
0.0132471
0.0132602
0.0132734
0.0132866
0.0132998
0.0133131
0.0133265
0.0133399
0.0133533
0.0128172
0.012829
0.0128409
0.0128529
0.0128651
0.0128775
0.0128901
0.0129028
0.0129157
0.0129288
0.012942
0.0129553
0.0129688
0.0129824
0.0129962
0.0130101
0.0130242
0.0130384
0.0130527
0.0130671
0.0130816
0.0130963
0.0131111
0.013126
0.013141
0.0131561
0.0131713
0.0131866
0.0132019
0.0132174
0.0132329
0.0132484
0.0132641
0.0132797
0.0132954
0.012677
0.0126905
0.0127042
0.012718
0.0127321
0.0127464
0.0127609
0.0127756
0.0127905
0.0128056
0.0128209
0.0128363
0.0128519
0.0128677
0.0128837
0.0128998
0.0129162
0.0129326
0.0129493
0.012966
0.012983
0.0130001
0.0130173
0.0130347
0.0130522
0.0130698
0.0130875
0.0131054
0.0131233
0.0131414
0.0131595
0.0131777
0.013196
0.0132143
0.0132327
0.0125196
0.0125351
0.0125508
0.0125667
0.0125829
0.0125994
0.0126161
0.0126331
0.0126502
0.0126676
0.0126852
0.0127031
0.0127211
0.0127394
0.0127579
0.0127766
0.0127955
0.0128146
0.0128339
0.0128534
0.0128731
0.012893
0.012913
0.0129332
0.0129536
0.0129742
0.0129949
0.0130158
0.0130367
0.0130578
0.013079
0.0131003
0.0131217
0.0131432
0.0131646
0.0123433
0.012361
0.012379
0.0123972
0.0124158
0.0124347
0.0124539
0.0124734
0.0124931
0.0125131
0.0125334
0.012554
0.0125748
0.0125959
0.0126172
0.0126388
0.0126607
0.0126828
0.0127052
0.0127278
0.0127506
0.0127737
0.012797
0.0128206
0.0128443
0.0128682
0.0128924
0.0129167
0.0129412
0.0129658
0.0129906
0.0130155
0.0130405
0.0130656
0.0130907
0.0121461
0.0121663
0.0121868
0.0122077
0.012229
0.0122506
0.0122725
0.0122948
0.0123174
0.0123404
0.0123637
0.0123873
0.0124112
0.0124355
0.0124601
0.012485
0.0125102
0.0125357
0.0125616
0.0125877
0.0126142
0.0126409
0.012668
0.0126953
0.0127229
0.0127508
0.0127789
0.0128072
0.0128358
0.0128645
0.0128935
0.0129226
0.0129518
0.0129811
0.0130105
0.0119265
0.0119493
0.0119726
0.0119964
0.0120206
0.0120451
0.0120701
0.0120956
0.0121214
0.0121476
0.0121742
0.0122012
0.0122286
0.0122564
0.0122847
0.0123133
0.0123423
0.0123717
0.0124014
0.0124316
0.0124622
0.0124931
0.0125244
0.0125561
0.0125881
0.0126204
0.0126531
0.0126861
0.0127194
0.0127529
0.0127867
0.0128206
0.0128548
0.012889
0.0129234
0.0116826
0.0117084
0.0117347
0.0117615
0.0117889
0.0118167
0.0118451
0.0118739
0.0119032
0.011933
0.0119633
0.011994
0.0120253
0.0120571
0.0120893
0.012122
0.0121552
0.0121889
0.0122231
0.0122578
0.012293
0.0123286
0.0123647
0.0124013
0.0124384
0.0124759
0.0125138
0.0125521
0.0125908
0.0126298
0.0126692
0.0127088
0.0127486
0.0127887
0.0128288
0.0114132
0.0114421
0.0114717
0.0115018
0.0115326
0.0115639
0.0115958
0.0116283
0.0116614
0.011695
0.0117293
0.0117641
0.0117996
0.0118356
0.0118723
0.0119095
0.0119474
0.0119859
0.012025
0.0120647
0.012105
0.0121459
0.0121874
0.0122296
0.0122723
0.0123156
0.0123595
0.0124038
0.0124487
0.0124941
0.0125399
0.0125861
0.0126325
0.0126792
0.0127261
0.0111178
0.0111499
0.0111827
0.0112163
0.0112506
0.0112855
0.0113212
0.0113576
0.0113946
0.0114324
0.0114709
0.0115101
0.01155
0.0115907
0.0116321
0.0116743
0.0117172
0.0117609
0.0118053
0.0118505
0.0118965
0.0119433
0.0119908
0.0120392
0.0120882
0.0121381
0.0121887
0.01224
0.0122919
0.0123445
0.0123977
0.0124514
0.0125055
0.01256
0.0126146
0.010796
0.0108313
0.0108675
0.0109046
0.0109424
0.0109811
0.0110206
0.011061
0.0111022
0.0111442
0.0111871
0.0112309
0.0112756
0.0113211
0.0113676
0.011415
0.0114633
0.0115125
0.0115627
0.0116139
0.0116661
0.0117192
0.0117734
0.0118285
0.0118847
0.0119418
0.0119999
0.012059
0.0121189
0.0121797
0.0122413
0.0123037
0.0123666
0.01243
0.0124937
0.0104485
0.0104869
0.0105265
0.0105669
0.0106083
0.0106507
0.0106941
0.0107384
0.0107838
0.0108301
0.0108775
0.010926
0.0109755
0.0110261
0.0110778
0.0111306
0.0111846
0.0112397
0.011296
0.0113536
0.0114123
0.0114723
0.0115336
0.0115962
0.0116601
0.0117252
0.0117916
0.0118593
0.0119282
0.0119983
0.0120695
0.0121416
0.0122146
0.0122883
0.0123624
0.0100766
0.0101181
0.0101607
0.0102044
0.0102493
0.0102952
0.0103423
0.0103905
0.0104399
0.0104905
0.0105424
0.0105955
0.0106498
0.0107055
0.0107625
0.0108208
0.0108806
0.0109418
0.0110044
0.0110686
0.0111343
0.0112015
0.0112704
0.0113409
0.0114131
0.0114869
0.0115625
0.0116397
0.0117185
0.0117989
0.0118808
0.0119641
0.0120486
0.012134
0.0122202
0.00968269
0.00972687
0.00977231
0.009819
0.00986695
0.00991618
0.00996673
0.0100186
0.0100719
0.0101265
0.0101826
0.0102401
0.0102992
0.0103598
0.010422
0.0104858
0.0105514
0.0106186
0.0106877
0.0107586
0.0108314
0.0109061
0.0109829
0.0110618
0.0111427
0.0112258
0.0113111
0.0113986
0.0114883
0.0115801
0.011674
0.0117697
0.0118672
0.0119661
0.012066
0.00926976
0.00931622
0.00936407
0.00941331
0.00946398
0.00951611
0.00956972
0.00962487
0.00968158
0.0097399
0.00979989
0.00986158
0.00992503
0.00999029
0.0100574
0.0101265
0.0101976
0.0102708
0.0103462
0.0104237
0.0105037
0.010586
0.0106708
0.0107582
0.0108482
0.010941
0.0110367
0.0111351
0.0112365
0.0113407
0.0114477
0.0115573
0.0116694
0.0117834
0.0118991
0.00884164
0.00888983
0.00893955
0.00899082
0.00904367
0.00909816
0.00915432
0.0092122
0.00927187
0.00933336
0.00939675
0.0094621
0.00952947
0.00959895
0.00967062
0.00974455
0.00982085
0.00989961
0.00998094
0.0100649
0.0101517
0.0102415
0.0103342
0.0104302
0.0105295
0.0106322
0.0107385
0.0108484
0.0109622
0.0110796
0.0112009
0.0113257
0.0114539
0.0115851
0.0117185
0.00840289
0.00845211
0.00850305
0.00855569
0.00861006
0.00866623
0.00872427
0.00878424
0.00884619
0.00891021
0.00897636
0.00904473
0.0091154
0.00918848
0.00926405
0.00934225
0.00942318
0.00950697
0.00959377
0.00968373
0.009777
0.00987375
0.00997417
0.0100785
0.0101868
0.0102994
0.0104165
0.0105382
0.0106647
0.0107962
0.0109326
0.0110739
0.0112198
0.0113699
0.0115235
0.00795933
0.0080087
0.0080599
0.00811299
0.008168
0.00822501
0.00828409
0.0083453
0.00840872
0.00847444
0.00854255
0.00861314
0.00868632
0.00876221
0.00884093
0.00892263
0.00900745
0.00909555
0.00918711
0.00928233
0.00938142
0.00948459
0.00959211
0.00970422
0.00982122
0.0099434
0.0100711
0.0102045
0.010344
0.0104898
0.0106421
0.010801
0.0109661
0.0111371
0.0113131
0.00751813
0.00756639
0.00761667
0.00766902
0.00772352
0.00778023
0.00783923
0.0079006
0.00796443
0.00803081
0.00809985
0.00817167
0.00824638
0.00832412
0.00840504
0.0084893
0.00857708
0.00866857
0.008764
0.0088636
0.00896764
0.00907641
0.00919022
0.00930942
0.00943439
0.00956554
0.0097033
0.00984812
0.0100005
0.0101608
0.0103294
0.0105065
0.0106921
0.0108858
0.0110866
0.00708961
0.00713489
0.00718245
0.00723233
0.00728462
0.00733939
0.00739674
0.00745675
0.00751952
0.00758517
0.00765379
0.00772552
0.00780049
0.00787886
0.00796078
0.00804644
0.00813605
0.00822982
0.00832803
0.00843093
0.00853887
0.00865218
0.00877126
0.00889655
0.00902854
0.00916776
0.00931482
0.00947034
0.009635
0.00980947
0.00999438
0.0101902
0.0103973
0.0106153
0.0108433
0.00668928
0.00672871
0.00677073
0.00681543
0.0068629
0.00691324
0.00696653
0.00702289
0.00708243
0.00714526
0.00721151
0.0072813
0.00735477
0.0074321
0.00751344
0.007599
0.00768899
0.00778366
0.0078833
0.00798821
0.00809876
0.00821536
0.00833847
0.00846863
0.00860645
0.0087526
0.00890785
0.00907305
0.00924913
0.00943708
0.0096379
0.00985251
0.0100816
0.0103252
0.0105826
0.00634008
0.00636974
0.00640217
0.00643761
0.00647625
0.00651823
0.00656371
0.0066128
0.00666565
0.00672242
0.00678323
0.00684822
0.00691754
0.00699135
0.00706982
0.00715314
0.00724154
0.00733526
0.0074346
0.00753987
0.00765147
0.00776986
0.00789554
0.00802913
0.00817135
0.00832302
0.00848508
0.00865863
0.00884489
0.00904524
0.00926112
0.009494
0.00974516
0.0100153
0.010304
0.0060471
0.00606846
0.00609181
0.00611734
0.00614528
0.00617595
0.0062097
0.006247
0.00628832
0.00633412
0.00638472
0.00644039
0.00650129
0.00656763
0.0066396
0.00671739
0.0068012
0.00689125
0.00698782
0.00709122
0.00720183
0.0073201
0.00744656
0.00758188
0.00772684
0.00788239
0.00804964
0.00822993
0.00842482
0.00863608
0.00886573
0.00911592
0.00938874
0.00968574
0.0100074
0.00578569
0.00580119
0.0058182
0.00583688
0.00585741
0.00588002
0.00590496
0.00593256
0.00596315
0.00599711
0.00603493
0.00607716
0.00612453
0.00617781
0.0062377
0.00630468
0.00637907
0.00646111
0.00655106
0.0066492
0.00675583
0.00687135
0.00699624
0.00713115
0.00727687
0.0074344
0.00760499
0.00779017
0.00799183
0.0082122
0.0084539
0.00871991
0.0090134
0.00933712
0.00969279
0.00554309
0.00555394
0.00556598
0.00557934
0.00559419
0.0056107
0.00562907
0.00564953
0.00567235
0.00569782
0.0057263
0.00575822
0.00579411
0.00583457
0.00588033
0.00593228
0.00599153
0.00605929
0.00613656
0.00622395
0.00632183
0.00643051
0.00655038
0.00668193
0.00682584
0.00698305
0.00715482
0.00734282
0.00754916
0.00777653
0.00802821
0.0083081
0.00862066
0.00897028
0.0093604
0.00531375
0.00532072
0.00532857
0.00533745
0.00534751
0.0053589
0.00537179
0.00538639
0.0054029
0.0054216
0.00544276
0.00546673
0.00549392
0.0055248
0.00555992
0.00559998
0.00564584
0.00569855
0.00575942
0.00583008
0.00591237
0.00600777
0.00611705
0.00624065
0.00637902
0.00653284
0.00670315
0.00689154
0.00710025
0.00733229
0.00759155
0.00788296
0.00821246
0.00858647
0.00901083
0.00509476
0.00509851
0.00510281
0.00510787
0.00511379
0.00512073
0.00512884
0.00513831
0.00514932
0.00516211
0.00517694
0.00519411
0.00521396
0.0052369
0.0052634
0.00529402
0.00532943
0.00537048
0.00541818
0.00547385
0.00553919
0.00561636
0.005708
0.00581659
0.00594347
0.00608922
0.00625444
0.00644027
0.0066487
0.00688284
0.00714708
0.00744729
0.00779109
0.00818733
0.00864493
0.00488383
0.00488505
0.00488654
0.00488846
0.00489093
0.00489409
0.00489806
0.00490303
0.00490918
0.0049167
0.00492585
0.00493689
0.00495015
0.00496599
0.00498484
0.00500719
0.00503363
0.00506486
0.00510175
0.00514536
0.00519704
0.00525855
0.00533222
0.00542116
0.00552918
0.00565969
0.0058142
0.00599332
0.00619825
0.00643166
0.00669806
0.00700412
0.00735914
0.00777482
0.00826386
0.00467863
0.00467807
0.00467759
0.00467718
0.00467699
0.00467715
0.00467777
0.00467899
0.00468098
0.00468392
0.00468803
0.00469358
0.00470086
0.0047102
0.00472201
0.00473675
0.00475496
0.00477729
0.00480449
0.00483751
0.0048775
0.00492591
0.00498467
0.00505634
0.00514446
0.00525383
0.00538988
0.00555597
0.00575296
0.00598229
0.00624783
0.00655659
0.00691946
0.00735122
0.00786908
0.00447675
0.00447523
0.00447362
0.00447178
0.00446983
0.00446788
0.00446603
0.00446439
0.0044631
0.00446232
0.00446225
0.00446309
0.00446511
0.00446862
0.00447403
0.00448175
0.00449229
0.00450628
0.00452443
0.00454759
0.00457681
0.0046134
0.00465902
0.00471583
0.0047868
0.00487611
0.0049897
0.00513506
0.00531753
0.00553838
0.0057997
0.0061079
0.00647501
0.00691904
0.00746233
0.00427571
0.00427403
0.00427205
0.00426974
0.00426698
0.0042639
0.00426058
0.00425711
0.00425357
0.00425009
0.00424682
0.00424393
0.00424166
0.00424028
0.00424014
0.00424161
0.00424517
0.00425145
0.00426109
0.00427492
0.00429395
0.00431937
0.0043527
0.00439587
0.00445147
0.00452306
0.00461581
0.0047374
0.00489783
0.00510393
0.00535698
0.0056612
0.00602883
0.00648099
0.00704562
0.00407325
0.0040721
0.00407052
0.00406849
0.00406586
0.00406262
0.00405885
0.0040546
0.00404992
0.00404489
0.0040396
0.00403418
0.00402879
0.00402366
0.00401906
0.00401533
0.00401291
0.00401237
0.00401428
0.00401945
0.00402886
0.00404364
0.00406524
0.00409543
0.00413657
0.00419179
0.00426561
0.00436478
0.00449971
0.00468361
0.00492303
0.00521956
0.00558394
0.00603986
0.00662115
0.0038675
0.00386745
0.00386688
0.00386575
0.00386403
0.00386151
0.00385823
0.00385421
0.00384946
0.00384402
0.00383794
0.00383126
0.00382408
0.00381656
0.00380889
0.00380132
0.00379422
0.00378804
0.00378333
0.00378086
0.00378153
0.00378637
0.00379686
0.00381465
0.00384194
0.0038816
0.00393765
0.00401598
0.00412598
0.00428255
0.00450146
0.00478597
0.00514326
0.00559848
0.00619133
0.00365717
0.0036586
0.00365948
0.00365977
0.00365941
0.00365835
0.00365634
0.00365342
0.00364957
0.00364478
0.00363904
0.00363235
0.00362473
0.00361624
0.00360699
0.00359714
0.00358692
0.00357669
0.0035669
0.00355817
0.00355132
0.00354736
0.00354768
0.00355382
0.00356795
0.00359275
0.00363186
0.00369054
0.00377697
0.00390503
0.0040963
0.00436339
0.00470958
0.00515964
0.00575867
0.00344152
0.00344465
0.00344726
0.00344929
0.00345069
0.00345139
0.00345128
0.00345013
0.00344794
0.00344467
0.00344025
0.00343464
0.00342781
0.00341972
0.00341038
0.00339984
0.00338822
0.00337572
0.00336265
0.00334947
0.00333685
0.00332567
0.00331715
0.00331283
0.00331478
0.00332555
0.00334859
0.00338866
0.00345292
0.00355346
0.00371226
0.00395494
0.00428563
0.00472601
0.00532576
0.00322039
0.00322527
0.00322971
0.00323365
0.003237
0.0032397
0.00324167
0.00324276
0.00324278
0.00324165
0.00323931
0.00323567
0.00323062
0.00322408
0.00321597
0.00320625
0.00319489
0.00318194
0.00316755
0.00315198
0.00313567
0.00311932
0.00310391
0.00309084
0.00308201
0.00307995
0.00308794
0.00311047
0.00315394
0.00322874
0.00335418
0.00356414
0.0038741
0.00430014
0.00489518
0.00299409
0.00300066
0.00300688
0.0030127
0.00301804
0.00302282
0.00302697
0.00303037
0.00303289
0.00303429
0.00303452
0.00303344
0.00303092
0.00302682
0.003021
0.00301333
0.00300368
0.00299196
0.00297814
0.00296227
0.00294456
0.0029254
0.0029055
0.00288595
0.00286841
0.00285521
0.00284953
0.00285571
0.00287971
0.00293066
0.00302482
0.00319528
0.00347768
0.00388453
0.00446925
0.00276336
0.00277143
0.00277927
0.00278683
0.00279403
0.00280081
0.00280708
0.00281275
0.00281772
0.00282182
0.00282482
0.00282661
0.00282705
0.00282597
0.00282318
0.00281848
0.00281167
0.00280254
0.00279093
0.00277668
0.00275976
0.00274027
0.00271854
0.00269527
0.00267168
0.00264973
0.00263235
0.0026237
0.00262955
0.00265823
0.0027236
0.0028534
0.00309889
0.00348149
0.00404875
0.0025293
0.0025386
0.00254779
0.00255682
0.00256564
0.00257419
0.0025824
0.00259017
0.0025974
0.002604
0.00260979
0.00261452
0.00261807
0.00262026
0.00262089
0.00261972
0.0026165
0.00261094
0.00260277
0.00259171
0.00257749
0.00255993
0.00253901
0.00251495
0.00248844
0.00246083
0.0024345
0.00241323
0.00240255
0.00241042
0.00244905
0.00254127
0.00274033
0.00309316
0.00363582
0.00229338
0.00230353
0.0023137
0.00232386
0.00233395
0.00234393
0.00235374
0.00236329
0.00237252
0.0023813
0.00238954
0.00239708
0.00240364
0.00240907
0.00241319
0.00241575
0.00241648
0.00241506
0.00241114
0.00240434
0.00239426
0.00238049
0.0023627
0.00234067
0.00231448
0.00228474
0.00225302
0.00222228
0.0021975
0.00218627
0.00219996
0.00225762
0.00240539
0.00272182
0.00323433
0.00205735
0.00206793
0.00207865
0.00208949
0.00210041
0.00211138
0.00212235
0.00213326
0.00214404
0.00215462
0.00216488
0.00217472
0.002184
0.00219242
0.00219983
0.00220601
0.00221069
0.00221354
0.00221423
0.00221229
0.00220724
0.00219856
0.00218567
0.002168
0.00214512
0.00211688
0.0020838
0.0020477
0.00201241
0.00198478
0.00197562
0.00200169
0.00209894
0.0023697
0.00284632
0.00182333
0.00183385
0.00184463
0.00185565
0.00186689
0.00187832
0.00188992
0.00190164
0.00191344
0.00192525
0.001937
0.0019486
0.00195994
0.00197088
0.00198116
0.00199057
0.00199889
0.00200581
0.00201101
0.00201404
0.0020144
0.00201149
0.00200461
0.00199298
0.00197578
0.00195222
0.00192185
0.00188509
0.0018441
0.00180421
0.00177537
0.00177345
0.00182703
0.00203926
0.00247425
0.0015937
0.00160368
0.00161401
0.00162467
0.00163566
0.00164697
0.00165859
0.0016705
0.00168266
0.00169505
0.00170762
0.0017203
0.00173301
0.00174566
0.0017581
0.00177013
0.00178149
0.00179197
0.00180124
0.00180892
0.00181453
0.00181749
0.00181708
0.00181238
0.00180241
0.00178595
0.00176178
0.00172902
0.0016879
0.00164142
0.00159762
0.00157178
0.00159038
0.00173353
0.0021201
0.00137104
0.00138004
0.00138943
0.00139921
0.0014094
0.00142
0.00143101
0.00144243
0.00145426
0.00146648
0.00147908
0.00149203
0.00150528
0.00151877
0.00153242
0.00154611
0.00155967
0.00157285
0.0015854
0.00159702
0.00160729
0.00161568
0.00162151
0.00162393
0.00162184
0.00161389
0.00159841
0.00157357
0.00153786
0.00149148
0.0014392
0.00139406
0.00138119
0.00145695
0.00178618
0.00115793
0.0011656
0.00117365
0.00118213
0.00119103
0.00120038
0.00121019
0.00122049
0.00123129
0.00124259
0.00125441
0.00126675
0.0012796
0.00129294
0.00130674
0.00132096
0.00133549
0.00135023
0.00136492
0.00137936
0.00139322
0.00140608
0.00141736
0.00142632
0.00143193
0.00143286
0.00142733
0.00141306
0.00138733
0.0013478
0.00129507
0.00123747
0.0011971
0.00121735
0.00147583
0.000956735
0.000962842
0.000969315
0.000976176
0.000983447
0.000991154
0.000999323
0.00100798
0.00101716
0.00102689
0.00103719
0.00104809
0.00105962
0.0010718
0.00108465
0.00109816
0.00111233
0.00112711
0.00114246
0.00115818
0.00117408
0.00118989
0.00120519
0.00121939
0.00123165
0.00124082
0.00124524
0.00124263
0.00122979
0.00120274
0.0011581
0.00109779
0.0010389
0.00102647
0.00119153
0.000769323
0.000773816
0.000778618
0.000783749
0.000789233
0.000795094
0.000801363
0.00080808
0.000815269
0.000822968
0.000831215
0.000840053
0.000849528
0.000859686
0.000870575
0.000882241
0.000894733
0.000908084
0.000922329
0.000937467
0.000953429
0.000970078
0.000987228
0.00100454
0.00102144
0.00103709
0.00105015
0.00105866
0.0010596
0.00104849
0.00101933
0.000967325
0.000900136
0.000857862
0.00093384
0.000597011
0.000599983
0.000603191
0.000606651
0.000610379
0.000614392
0.000618724
0.000623438
0.000628531
0.000634037
0.000639994
0.00064645
0.000653455
0.000661063
0.000669333
0.000678335
0.000688141
0.000698831
0.000710495
0.000723219
0.00073709
0.000752172
0.000768438
0.00078586
0.000804257
0.000823227
0.000842001
0.000859225
0.000872563
0.000878055
0.000868979
0.000835628
0.000773463
0.000706767
0.000706253
0.000440617
0.000442286
0.000444114
0.00044611
0.000448277
0.000450605
0.000453131
0.000456026
0.00045918
0.000462617
0.000466362
0.000470468
0.000474973
0.000479927
0.000485381
0.000491399
0.000498052
0.000505427
0.00051362
0.000522745
0.000532935
0.000544339
0.000557138
0.000571467
0.000587475
0.000605266
0.000624797
0.000645695
0.000666917
0.000686091
0.000697648
0.000690186
0.000649323
0.000577222
0.000521694
0.000300854
0.000301525
0.000302283
0.000303131
0.000304047
0.000304945
0.000305859
0.000307326
0.000308925
0.000310668
0.000312546
0.000314635
0.000316962
0.000319555
0.000322451
0.000325691
0.000329327
0.000333419
0.000338039
0.000343277
0.000349242
0.000356069
0.000363926
0.000373024
0.000383623
0.000396019
0.000410598
0.000427791
0.000448061
0.000471878
0.000497901
0.000517385
0.000512371
0.000465553
0.000400263
0.000183054
0.00018307
0.000183123
0.000183208
0.000183283
0.000183086
0.000182464
0.000183109
0.000183754
0.0001844
0.000184979
0.000185649
0.000186421
0.00018731
0.000188331
0.000189503
0.000190851
0.000192404
0.000194198
0.000196278
0.000198699
0.000201529
0.000204867
0.000208834
0.000213593
0.000219376
0.00022649
0.000235362
0.000246584
0.000261417
0.000282265
0.00031101
0.000342863
0.000343354
0.000287697
3.9766e-05
3.95133e-05
3.92427e-05
3.89501e-05
3.85582e-05
3.69223e-05
3.4818e-05
3.50102e-05
3.52362e-05
3.55352e-05
3.55614e-05
3.56054e-05
3.56713e-05
3.57633e-05
3.58846e-05
3.60371e-05
3.6222e-05
3.64414e-05
3.66992e-05
3.70015e-05
3.73597e-05
3.7857e-05
3.84463e-05
3.91485e-05
3.9993e-05
4.10214e-05
4.22914e-05
4.38873e-05
4.5915e-05
4.86117e-05
5.24497e-05
5.78234e-05
6.35017e-05
6.76214e-05
0.000136927
0.0140268
0.0140239
0.0140211
0.0140203
0.0140198
0.0140179
0.0140146
0.0140112
0.0140087
0.0140071
0.0140061
0.0140057
0.0140058
0.0140073
0.0140077
0.0140079
0.0140078
0.0140076
0.0140072
0.0140067
0.0140061
0.0140057
0.0140052
0.0140049
0.0140046
0.0140043