/*--------------------------------*- C++ -*----------------------------------*\
  =========                 |
  \\      /  F ield         | OpenFOAM: The Open Source CFD Toolbox
   \\    /   O peration     | Website:  https://openfoam.org
    \\  /    A nd           | Version:  9
     \\/     M anipulation  |
\*---------------------------------------------------------------------------*/
FoamFile
{
    format      ascii;
    class       volScalarField;
    location    "0.0025";
    object      p;
}
// * * * * * * * * * * * * * * * * * * * * * * * * * * * * * * * * * * * * * //

dimensions      [1 -1 -2 0 0 0 0];

internalField   nonuniform List<scalar> 
5071
(
99999.8
100000
100000
100000
100001
100001
100001
100002
100002
100002
100002
100003
100003
100004
100004
100005
100005
100006
100006
100007
100007
100008
100009
100009
100010
100012
100012
99995
99995.1
99995.2
99995.3
99995.4
99995.5
99995.7
99995.8
99996
99996.1
99996.3
99996.5
99996.7
99997
99997.2
99997.5
99997.7
99998
99998.3
99998.7
99999
99999.4
99999.8
100000
100001
100001
100002
99987.3
99987.3
99987.3
99987.3
99987.3
99987.3
99987.3
99987.3
99987.3
99987.3
99987.3
99987.2
99987.2
99987.2
99987.1
99987.1
99987
99986.9
99986.8
99986.7
99986.6
99986.5
99986.3
99986.1
99985.9
99985.6
99985.3
99985.1
99985.1
99985.2
99985.3
99985.4
99985.5
99985.6
99985.7
99985.8
99985.9
99986
99986.1
99986.3
99986.4
99986.5
99986.6
99986.8
99986.9
99987
99987.2
99987.3
99987.5
99987.6
99987.8
99987.9
99988.1
99988.2
99977.4
99977.4
99977.4
99977.4
99977.4
99977.5
99977.5
99977.5
99977.6
99977.6
99977.6
99977.7
99977.7
99977.7
99977.8
99977.8
99977.8
99977.9
99977.9
99978
99978
99978.1
99978.1
99978.2
99978.2
99978.2
99978.3
99974.3
99974.4
99974.4
99974.5
99974.6
99974.6
99974.7
99974.8
99974.9
99975
99975
99975.1
99975.2
99975.3
99975.4
99975.5
99975.6
99975.7
99975.8
99975.9
99976
99976.1
99976.2
99976.3
99976.4
99976.5
99976.6
99967.8
99967.8
99967.9
99968
99968
99968.1
99968.2
99968.3
99968.3
99968.4
99968.5
99968.6
99968.7
99968.8
99968.9
99969
99969.2
99969.3
99969.4
99969.5
99969.7
99969.8
99970
99970.1
99970.2
99970.4
99970.5
99963.6
99963.7
99963.8
99963.9
99963.9
99964
99964.1
99964.2
99964.3
99964.5
99964.6
99964.7
99964.8
99964.9
99965.1
99965.2
99965.4
99965.5
99965.7
99965.8
99966
99966.1
99966.3
99966.4
99966.6
99966.8
99966.9
99957.7
99957.8
99957.9
99958
99958.1
99958.2
99958.3
99958.5
99958.6
99958.7
99958.9
99959.1
99959.2
99959.4
99959.6
99959.7
99959.9
99960.1
99960.3
99960.5
99960.7
99960.9
99961.1
99961.4
99961.6
99961.8
99962
99952.7
99952.9
99953
99953.1
99953.2
99953.4
99953.5
99953.7
99953.8
99954
99954.2
99954.3
99954.5
99954.7
99954.9
99955.2
99955.4
99955.6
99955.8
99956.1
99956.3
99956.6
99956.8
99957.1
99957.3
99957.6
99957.9
99946.9
99947
99947.2
99947.3
99947.5
99947.7
99947.8
99948
99948.2
99948.4
99948.7
99948.9
99949.1
99949.4
99949.6
99949.9
99950.1
99950.4
99950.7
99951
99951.3
99951.6
99951.9
99952.2
99952.6
99952.9
99953.2
99941.3
99941.5
99941.6
99941.8
99942
99942.2
99942.4
99942.7
99942.9
99943.1
99943.4
99943.7
99944
99944.2
99944.5
99944.9
99945.2
99945.5
99945.8
99946.2
99946.5
99946.9
99947.3
99947.6
99948
99948.4
99948.8
99935.3
99935.4
99935.6
99935.9
99936.1
99936.3
99936.6
99936.9
99937.1
99937.4
99937.8
99938.1
99938.4
99938.8
99939.1
99939.5
99939.9
99940.3
99940.7
99941.1
99941.5
99941.9
99942.4
99942.8
99943.3
99943.7
99944.2
99929.1
99929.4
99929.6
99929.9
99930.1
99930.4
99930.7
99931
99931.4
99931.7
99932.1
99932.5
99932.9
99933.3
99933.7
99934.1
99934.6
99935
99935.5
99936
99936.5
99937
99937.5
99938
99938.6
99939.1
99939.6
99922.7
99922.9
99923.2
99923.5
99923.8
99924.2
99924.5
99924.9
99925.3
99925.7
99926.1
99926.6
99927.1
99927.5
99928
99928.5
99929.1
99929.6
99930.2
99930.7
99931.3
99931.9
99932.5
99933.1
99933.7
99934.4
99935
99915.8
99916.1
99916.4
99916.7
99917
99917.4
99917.8
99918.2
99918.7
99919.1
99919.6
99920.1
99920.6
99921.1
99921.7
99922.3
99922.9
99923.5
99924.1
99924.7
99925.4
99926.1
99926.8
99927.5
99928.2
99928.9
99929.6
99930.4
99908.8
99909.2
99909.5
99909.9
99910.3
99910.7
99911.2
99911.7
99912.2
99912.7
99913.3
99913.8
99914.4
99915.1
99915.7
99916.4
99917
99917.7
99918.5
99919.2
99920
99920.7
99921.5
99922.3
99923.1
99924
99924.8
99925.7
99901.7
99902.1
99902.5
99902.9
99903.4
99903.9
99904.4
99904.9
99905.5
99906.1
99906.8
99907.4
99908.1
99908.8
99909.5
99910.3
99911.1
99911.9
99912.7
99913.6
99914.4
99915.3
99916.2
99917.1
99918.1
99919
99920
99921
99894.3
99894.7
99895.2
99895.7
99896.2
99896.8
99897.4
99898
99898.7
99899.4
99900.1
99900.8
99901.6
99902.4
99903.2
99904.1
99905
99905.9
99906.8
99907.8
99908.8
99909.8
99910.8
99911.9
99912.9
99914
99915.1
99916.2
99886.7
99887.2
99887.7
99888.3
99888.9
99889.5
99890.2
99890.9
99891.6
99892.4
99893.2
99894.1
99894.9
99895.9
99896.8
99897.8
99898.8
99899.8
99900.9
99901.9
99903.1
99904.2
99905.4
99906.5
99907.8
99909
99910.2
99911.5
99879
99879.5
99880.1
99880.7
99881.4
99882.1
99882.8
99883.6
99884.5
99885.3
99886.2
99887.2
99888.1
99889.2
99890.2
99891.3
99892.4
99893.6
99894.8
99896
99897.2
99898.5
99899.8
99901.2
99902.5
99903.9
99905.3
99906.7
99871.1
99871.7
99872.3
99873
99873.7
99874.5
99875.4
99876.2
99877.1
99878.1
99879.1
99880.1
99881.2
99882.3
99883.5
99884.7
99885.9
99887.2
99888.5
99889.9
99891.3
99892.7
99894.2
99895.7
99897.2
99898.8
99900.3
99901.9
99863
99863.7
99864.4
99865.2
99866
99866.8
99867.7
99868.7
99869.7
99870.7
99871.8
99873
99874.1
99875.4
99876.6
99878
99879.3
99880.8
99882.2
99883.7
99885.3
99886.8
99888.5
99890.1
99891.8
99893.6
99895.3
99897.1
99854.9
99855.7
99856.4
99857.3
99858.1
99859.1
99860
99861.1
99862.1
99863.3
99864.4
99865.7
99866.9
99868.3
99869.7
99871.1
99872.6
99874.2
99875.7
99877.4
99879.1
99880.8
99882.6
99884.5
99886.4
99888.3
99890.2
99892.2
99846.8
99847.6
99848.4
99849.3
99850.3
99851.2
99852.3
99853.4
99854.5
99855.7
99857
99858.3
99859.6
99861.1
99862.6
99864.1
99865.7
99867.4
99869.1
99870.9
99872.8
99874.7
99876.7
99878.7
99880.8
99882.9
99885.1
99887.3
99838.7
99839.6
99840.5
99841.4
99842.4
99843.4
99844.5
99845.6
99846.8
99848.1
99849.4
99850.8
99852.2
99853.8
99855.3
99857
99858.7
99860.5
99862.4
99864.3
99866.4
99868.4
99870.6
99872.8
99875.1
99877.5
99879.9
99882.3
99830.7
99831.6
99832.5
99833.5
99834.5
99835.6
99836.7
99837.9
99839.1
99840.4
99841.8
99843.2
99844.7
99846.3
99848
99849.7
99851.6
99853.5
99855.5
99857.6
99859.7
99862
99864.4
99866.8
99869.3
99871.9
99874.5
99877.2
99822.9
99823.8
99824.7
99825.7
99826.8
99827.9
99829
99830.2
99831.5
99832.8
99834.2
99835.6
99837.2
99838.8
99840.5
99842.3
99844.3
99846.3
99848.4
99850.6
99852.9
99855.4
99857.9
99860.5
99863.3
99866.1
99869
99872
99815.2
99816.1
99817.1
99818.1
99819.1
99820.2
99821.4
99822.6
99823.8
99825.1
99826.5
99828
99829.6
99831.2
99833
99834.8
99836.8
99838.9
99841.1
99843.4
99845.9
99848.5
99851.2
99854.1
99857.1
99860.2
99863.3
99866.6
99807.8
99808.7
99809.7
99810.7
99811.7
99812.8
99813.9
99815
99816.3
99817.5
99818.9
99820.3
99821.9
99823.5
99825.3
99827.1
99829.2
99831.3
99833.6
99836
99838.6
99841.4
99844.3
99847.4
99850.6
99854
99857.5
99861.1
99800.7
99801.6
99802.5
99803.5
99804.5
99805.5
99806.6
99807.7
99808.8
99810
99811.3
99812.7
99814.2
99815.8
99817.5
99819.3
99821.3
99823.5
99825.8
99828.4
99831.1
99834
99837.1
99840.4
99843.9
99847.5
99851.4
99855.4
99793.9
99794.8
99795.7
99796.6
99797.6
99798.5
99799.5
99800.5
99801.5
99802.7
99803.8
99805.1
99806.5
99808
99809.6
99811.4
99813.4
99815.5
99817.8
99820.4
99823.2
99826.2
99829.5
99833
99836.8
99840.8
99845
99849.4
99787.5
99788.3
99789.2
99790.1
99790.9
99791.8
99792.6
99793.5
99794.5
99795.4
99796.5
99797.6
99798.8
99800.2
99801.7
99803.4
99805.2
99807.3
99809.6
99812.2
99815
99818.1
99821.5
99825.3
99829.3
99833.6
99838.2
99843.1
99781.4
99782.3
99783.1
99783.9
99784.6
99785.4
99786.1
99786.9
99787.6
99788.4
99789.3
99790.2
99791.2
99792.4
99793.7
99795.2
99796.9
99798.9
99801.1
99803.6
99806.4
99809.6
99813.2
99817.1
99821.4
99826.1
99831.1
99836.5
99775.9
99776.7
99777.4
99778.1
99778.7
99779.3
99779.9
99780.5
99781
99781.6
99782.3
99783
99783.8
99784.7
99785.7
99787
99788.5
99790.2
99792.3
99794.7
99797.4
99800.7
99804.3
99808.4
99813
99818
99823.5
99829.5
99770.7
99771.4
99772.1
99772.7
99773.2
99773.6
99774
99774.4
99774.8
99775.1
99775.5
99775.9
99776.4
99777
99777.8
99778.7
99779.9
99781.4
99783.2
99785.4
99788.1
99791.2
99794.9
99799.2
99804
99809.5
99815.5
99822
99766
99766.6
99767.2
99767.7
99768.1
99768.3
99768.6
99768.7
99768.8
99768.9
99769
99769.1
99769.3
99769.5
99769.9
99770.5
99771.3
99772.4
99773.9
99775.8
99778.3
99781.3
99785
99789.3
99794.4
99800.3
99806.8
99814
99761.7
99762.3
99762.8
99763.1
99763.3
99763.5
99763.5
99763.4
99763.3
99763.1
99762.8
99762.6
99762.3
99762.2
99762.1
99762.3
99762.6
99763.3
99764.4
99765.9
99768
99770.9
99774.4
99778.8
99784.1
99790.3
99797.5
99805.5
99757.8
99758.3
99758.7
99759
99759
99759
99758.8
99758.5
99758.1
99757.6
99757
99756.3
99755.7
99755.1
99754.5
99754.1
99754
99754.1
99754.6
99755.7
99757.4
99759.9
99763.2
99767.6
99773.1
99779.7
99787.4
99796.3
99754.3
99754.8
99755.1
99755.2
99755.2
99754.9
99754.5
99754
99753.3
99752.5
99751.5
99750.5
99749.4
99748.3
99747.2
99746.2
99745.4
99744.9
99744.8
99745.2
99746.4
99748.4
99751.4
99755.6
99761.1
99768.1
99776.5
99786.4
99751.3
99751.7
99751.9
99751.9
99751.7
99751.3
99750.7
99749.9
99748.9
99747.8
99746.4
99745
99743.4
99741.8
99740.1
99738.5
99737
99735.7
99734.8
99734.5
99734.9
99736.3
99738.9
99742.8
99748.3
99755.5
99764.7
99775.7
99748.6
99748.9
99749
99748.9
99748.6
99748
99747.2
99746.2
99744.9
99743.5
99741.8
99739.9
99737.8
99735.6
99733.3
99731
99728.7
99726.6
99724.9
99723.7
99723.2
99723.8
99725.6
99729.1
99734.4
99741.9
99751.7
99763.9
99746.2
99746.5
99746.5
99746.3
99745.8
99745.1
99744.1
99742.9
99741.4
99739.6
99737.5
99735.2
99732.7
99729.9
99726.9
99723.8
99720.8
99717.8
99715
99712.8
99711.2
99710.8
99711.8
99714.6
99719.5
99727
99737.6
99751.2
99744.1
99744.3
99744.3
99744
99743.4
99742.6
99741.4
99740
99738.2
99736.1
99733.7
99731
99727.9
99724.6
99720.9
99717.1
99713.1
99709.1
99705.3
99701.8
99699.1
99697.4
99697.2
99699.1
99703.4
99710.8
99722
99737.1
99742.3
99742.5
99742.4
99742
99741.4
99740.4
99739
99737.4
99735.4
99733
99730.3
99727.1
99723.6
99719.7
99715.4
99710.8
99705.9
99700.8
99695.8
99691
99686.8
99683.7
99682.1
99682.8
99686.2
99693.2
99704.9
99721.7
99740.8
99741
99740.8
99740.3
99739.6
99738.5
99737
99735.2
99733
99730.3
99727.3
99723.8
99719.8
99715.3
99710.3
99704.9
99699.1
99692.9
99686.6
99680.4
99674.6
99669.7
99666.4
99665.6
99667.8
99674
99685.9
99704.5
99739.5
99739.6
99739.4
99738.9
99738
99736.8
99735.2
99733.3
99730.9
99728
99724.6
99720.8
99716.4
99711.3
99705.7
99699.5
99692.8
99685.5
99677.8
99670.1
99662.5
99655.6
99650.3
99647.6
99648.2
99653.2
99665.1
99685.6
99738.4
99738.5
99738.3
99737.7
99736.8
99735.5
99733.8
99731.6
99729.1
99726
99722.4
99718.2
99713.4
99707.9
99701.6
99694.7
99687
99678.6
99669.5
99660.1
99650.6
99641.6
99633.9
99628.9
99627.4
99630.7
99642
99664.1
99737.5
99737.6
99737.3
99736.7
99735.7
99734.3
99732.5
99730.3
99727.6
99724.3
99720.5
99716
99710.8
99704.8
99698
99690.4
99681.7
99672.2
99661.8
99650.7
99639.2
99627.7
99617.4
99609.6
99605.6
99606.6
99616.6
99640.6
99736.8
99736.8
99736.5
99735.9
99734.8
99733.4
99731.5
99729.2
99726.3
99722.9
99718.9
99714.1
99708.6
99702.2
99694.9
99686.5
99677.1
99666.4
99654.6
99641.8
99628.1
99614.1
99600.8
99589.9
99582.8
99580.8
99588.5
99613.2
99736.2
99736.2
99735.9
99735.2
99734.2
99732.7
99730.7
99728.3
99725.4
99721.8
99717.6
99712.6
99706.8
99700.1
99692.2
99683.3
99673
99661.3
99648.1
99633.5
99617.7
99600.9
99584.3
99569.8
99559.3
99553.7
99558.1
99583.6
99735.8
99735.8
99735.4
99734.7
99733.6
99732.1
99730.1
99727.6
99724.6
99720.9
99716.5
99711.4
99705.4
99698.3
99690
99680.5
99669.4
99656.7
99642.2
99626
99607.9
99588.3
99568.1
99549.6
99535.1
99525.3
99524.7
99547.8
99735.4
99735.4
99735.1
99734.4
99733.2
99731.7
99729.6
99727.1
99724
99720.2
99715.7
99710.4
99704.2
99696.9
99688.2
99678.2
99666.4
99652.8
99637.1
99619.1
99598.8
99576.2
99552.2
99529.3
99510.4
99496
99489.3
99509.9
99735.2
99735.2
99734.9
99734.1
99733
99731.4
99729.3
99726.7
99723.6
99719.7
99715.2
99709.7
99703.3
99695.8
99686.8
99676.3
99664
99649.5
99632.6
99613.1
99590.6
99564.9
99536.9
99509.1
99485.2
99465.8
99451.5
99462.2
99735.2
99735.1
99734.8
99734
99732.8
99731.2
99729.1
99726.5
99723.3
99719.4
99714.8
99709.2
99702.7
99695
99685.7
99674.9
99662.1
99646.9
99629
99608
99583.5
99554.7
99522.4
99489.3
99459.8
99435.5
99412.8
99414.2
99735.2
99735.1
99734.8
99734
99732.8
99731.2
99729.1
99726.5
99723.2
99719.3
99714.6
99709
99702.4
99694.5
99685.1
99673.9
99660.7
99645
99626.1
99604
99577.7
99546
99509.4
99470.7
99435.1
99404.6
99371.4
99349.4
99735.3
99735.2
99734.9
99734.1
99732.9
99731.3
99729.2
99726.5
99723.3
99719.4
99714.6
99709
99702.3
99694.3
99684.8
99673.4
99660
99643.8
99624.4
99601.2
99573.6
99539.4
99499
99454.8
99412.5
99375.6
99333.3
99294
99735.4
99735.4
99735.1
99734.3
99733.1
99731.5
99729.4
99726.8
99723.5
99719.6
99714.9
99709.2
99702.5
99694.5
99684.9
99673.5
99659.8
99643.4
99623.7
99600
99571.4
99535.6
99492.2
99443.5
99395
99351
99304.4
99222.6
99735.7
99735.7
99735.3
99734.5
99733.4
99731.8
99729.7
99727.1
99723.9
99720
99715.3
99709.7
99703
99695
99685.4
99674
99660.4
99644
99624.1
99600.3
99571.4
99534.9
99489.7
99437.9
99384
99331.5
99279.7
99165.2
99735.9
99735.9
99735.6
99734.9
99733.7
99732.2
99730.1
99727.5
99724.3
99720.5
99715.8
99710.3
99703.7
99695.8
99686.3
99674.8
99661.1
99644.7
99624.9
99601.1
99572.1
99535.5
99489.8
99437
99381.1
99324.4
99261.9
99047.4
100003
99991.6
99983.2
99977.2
99973
99970.4
99968.9
99968
99967.6
99967.6
99967.8
99968.2
99968.8
99969.5
99970.3
99971.2
99972.2
99973.1
99974.2
99975.2
99976.2
99977.2
99978.3
99979.3
99980.3
99981.4
99982.4
99983.4
99984.4
99985.4
99986.4
99987.3
99988.2
99989.1
99990
99990.8
99991.6
99992.4
99993.2
99993.9
99994.6
99995.3
99996
99996.6
99997.2
99997.8
99998.4
99998.9
99999.4
99999.9
100000
100001
100001
100002
100002
100002
100002
100003
100003
100003
100003
100005
100005
100004
100004
100003
100001
100000
99998.9
99997.9
99996.9
99996.1
99995.3
99994.6
99993.9
99993.3
99992.8
99992.4
99992
99991.7
99991.4
99991.2
99991.2
99991.1
99991.1
99991.2
99991.3
99991.4
99991.5
99991.7
99991.9
99992.1
99992.3
99992.6
99992.9
99993.2
99993.5
99993.9
99994.3
99994.8
99995.2
99995.6
99996.1
99996.5
99997
99997.5
99998
99998.6
99999.1
99999.7
100000
100001
100001
100002
100003
100003
100004
100005
100005
100006
99985.2
99985.1
99985
99985
99985.2
99985.4
99985.6
99985.9
99986.2
99986.5
99986.8
99987.2
99987.5
99987.8
99988.1
99988.4
99988.7
99989
99989.3
99989.6
99989.9
99990.3
99990.6
99990.9
99991.2
99991.5
99991.8
99992
99992.3
99992.5
99992.8
99993.1
99993.4
99993.7
99994.1
99994.4
99994.7
99995
99995.4
99995.7
99996
99996.4
99996.8
99997.1
99997.5
99997.9
99998.3
99998.7
99999.1
99999.6
100000
100000
100001
100001
100002
100002
100003
100004
100004
100005
99987.9
99987.5
99987.1
99986.7
99986.4
99986
99985.7
99985.4
99985.2
99985
99984.9
99984.9
99984.9
99984.9
99985
99985.2
99985.4
99985.6
99985.9
99986.2
99986.5
99986.8
99987.1
99987.4
99987.8
99988.2
99988.6
99989
99989.4
99989.9
99990.3
99990.7
99991.2
99991.7
99992.1
99992.6
99993.1
99993.6
99994.1
99994.5
99995
99995.5
99996
99996.5
99997
99997.4
99997.9
99998.4
99998.9
99999.3
99999.8
100000
100001
100001
100002
100002
100003
100003
100003
100004
99978.8
99979.5
99980
99980.5
99980.9
99981.3
99981.5
99981.8
99982
99982.2
99982.5
99982.7
99982.9
99983.1
99983.3
99983.6
99983.8
99984.1
99984.4
99984.7
99985
99985.3
99985.6
99986
99986.4
99986.7
99987.1
99987.6
99988
99988.5
99988.9
99989.4
99989.9
99990.4
99990.9
99991.4
99991.9
99992.4
99993
99993.5
99994
99994.6
99995.1
99995.7
99996.3
99996.8
99997.4
99997.9
99998.5
99999
99999.6
100000
100001
100001
100002
100002
100003
100003
100004
100004
99976.6
99976.7
99976.9
99977.1
99977.3
99977.6
99977.8
99978.1
99978.4
99978.7
99979.1
99979.4
99979.8
99980.2
99980.5
99980.9
99981.3
99981.7
99982.1
99982.6
99983
99983.4
99983.9
99984.4
99984.8
99985.3
99985.8
99986.3
99986.8
99987.3
99987.8
99988.3
99988.9
99989.4
99990
99990.5
99991.1
99991.7
99992.2
99992.8
99993.4
99994
99994.6
99995.2
99995.8
99996.4
99997
99997.6
99998.2
99998.8
99999.4
100000
100001
100001
100002
100002
100003
100004
100004
100005
99971
99971.6
99972.2
99972.8
99973.3
99973.7
99974.2
99974.6
99975.1
99975.5
99975.9
99976.4
99976.8
99977.3
99977.8
99978.2
99978.7
99979.2
99979.7
99980.2
99980.7
99981.3
99981.8
99982.4
99982.9
99983.5
99984
99984.6
99985.2
99985.8
99986.4
99987
99987.6
99988.2
99988.8
99989.5
99990.1
99990.7
99991.4
99992
99992.6
99993.3
99993.9
99994.6
99995.2
99995.9
99996.6
99997.2
99997.9
99998.5
99999.2
99999.8
100001
100001
100002
100003
100003
100004
100004
100005
99967.3
99967.8
99968.3
99968.8
99969.4
99969.9
99970.5
99971.1
99971.6
99972.2
99972.7
99973.3
99973.8
99974.4
99975
99975.6
99976.1
99976.7
99977.3
99977.9
99978.5
99979.1
99979.7
99980.4
99981
99981.6
99982.3
99982.9
99983.6
99984.2
99984.9
99985.6
99986.2
99986.9
99987.6
99988.3
99989
99989.7
99990.4
99991.1
99991.8
99992.5
99993.2
99993.9
99994.7
99995.4
99996.1
99996.8
99997.5
99998.2
99999
99999.7
100000
100001
100002
100003
100003
100004
100005
100005
99962.5
99963.3
99964
99964.7
99965.4
99966.1
99966.8
99967.4
99968.1
99968.8
99969.4
99970.1
99970.8
99971.4
99972.1
99972.8
99973.4
99974.1
99974.8
99975.5
99976.2
99976.9
99977.6
99978.3
99979
99979.7
99980.5
99981.2
99981.9
99982.6
99983.4
99984.1
99984.9
99985.6
99986.4
99987.1
99987.9
99988.7
99989.4
99990.2
99991
99991.7
99992.5
99993.3
99994.1
99994.8
99995.6
99996.4
99997.2
99997.9
99998.7
99999.5
100000
100001
100002
100003
100003
100004
100005
100006
99958.4
99959.1
99959.9
99960.7
99961.5
99962.3
99963
99963.8
99964.6
99965.3
99966.1
99966.9
99967.6
99968.4
99969.2
99969.9
99970.7
99971.5
99972.3
99973
99973.8
99974.6
99975.4
99976.2
99977
99977.8
99978.6
99979.4
99980.2
99981
99981.8
99982.6
99983.5
99984.3
99985.1
99985.9
99986.8
99987.6
99988.4
99989.3
99990.1
99990.9
99991.8
99992.6
99993.5
99994.3
99995.1
99996
99996.8
99997.6
99998.5
99999.3
100000
100001
100002
100003
100003
100004
100005
100006
99953.9
99954.8
99955.7
99956.6
99957.5
99958.4
99959.2
99960.1
99961
99961.9
99962.7
99963.6
99964.5
99965.3
99966.2
99967.1
99967.9
99968.8
99969.7
99970.5
99971.4
99972.3
99973.1
99974
99974.9
99975.8
99976.7
99977.5
99978.4
99979.3
99980.2
99981.1
99982
99982.9
99983.8
99984.7
99985.6
99986.5
99987.4
99988.3
99989.2
99990.1
99991
99991.9
99992.8
99993.7
99994.6
99995.5
99996.4
99997.3
99998.2
99999.1
100000
100001
100002
100003
100004
100004
100005
100006
99949.5
99950.5
99951.5
99952.5
99953.5
99954.5
99955.4
99956.4
99957.4
99958.4
99959.3
99960.3
99961.2
99962.2
99963.2
99964.1
99965.1
99966
99967
99968
99968.9
99969.9
99970.8
99971.8
99972.8
99973.7
99974.7
99975.7
99976.6
99977.6
99978.6
99979.5
99980.5
99981.5
99982.4
99983.4
99984.4
99985.4
99986.3
99987.3
99988.3
99989.3
99990.2
99991.2
99992.2
99993.1
99994.1
99995.1
99996
99997
99998
99998.9
99999.9
100001
100002
100003
100004
100005
100006
100007
99945
99946.1
99947.2
99948.3
99949.4
99950.5
99951.6
99952.7
99953.7
99954.8
99955.9
99956.9
99958
99959.1
99960.1
99961.2
99962.2
99963.3
99964.3
99965.4
99966.4
99967.5
99968.5
99969.6
99970.6
99971.6
99972.7
99973.7
99974.8
99975.8
99976.9
99977.9
99979
99980
99981.1
99982.1
99983.2
99984.2
99985.3
99986.3
99987.3
99988.4
99989.4
99990.5
99991.5
99992.5
99993.6
99994.6
99995.6
99996.7
99997.7
99998.7
99999.8
100001
100002
100003
100004
100005
100006
100007
99940.5
99941.7
99942.9
99944.1
99945.3
99946.5
99947.7
99948.9
99950.1
99951.2
99952.4
99953.5
99954.7
99955.9
99957
99958.2
99959.3
99960.4
99961.6
99962.7
99963.9
99965
99966.1
99967.3
99968.4
99969.5
99970.6
99971.8
99972.9
99974
99975.2
99976.3
99977.4
99978.5
99979.7
99980.8
99981.9
99983
99984.1
99985.3
99986.4
99987.5
99988.6
99989.7
99990.8
99991.9
99993
99994.1
99995.2
99996.3
99997.4
99998.5
99999.6
100001
100002
100003
100004
100005
100006
100007
99936
99937.3
99938.6
99939.9
99941.2
99942.5
99943.8
99945.1
99946.3
99947.6
99948.9
99950.1
99951.4
99952.6
99953.9
99955.1
99956.3
99957.6
99958.8
99960
99961.3
99962.5
99963.7
99964.9
99966.1
99967.4
99968.6
99969.8
99971
99972.2
99973.4
99974.6
99975.8
99977
99978.2
99979.4
99980.6
99981.8
99983
99984.2
99985.4
99986.6
99987.8
99989
99990.1
99991.3
99992.5
99993.7
99994.8
99996
99997.2
99998.3
99999.5
100001
100002
100003
100004
100005
100006
100007
99931.4
99932.9
99934.3
99935.7
99937.1
99938.5
99939.9
99941.2
99942.6
99944
99945.3
99946.7
99948
99949.4
99950.7
99952
99953.4
99954.7
99956
99957.3
99958.6
99959.9
99961.3
99962.6
99963.9
99965.2
99966.5
99967.8
99969
99970.3
99971.6
99972.9
99974.2
99975.5
99976.8
99978
99979.3
99980.6
99981.9
99983.1
99984.4
99985.7
99986.9
99988.2
99989.4
99990.7
99991.9
99993.2
99994.4
99995.6
99996.9
99998.1
99999.3
100001
100002
100003
100004
100005
100007
100008
99926.9
99928.4
99929.9
99931.4
99932.9
99934.4
99935.9
99937.4
99938.8
99940.3
99941.7
99943.2
99944.6
99946.1
99947.5
99948.9
99950.3
99951.8
99953.2
99954.6
99956
99957.4
99958.8
99960.2
99961.5
99962.9
99964.3
99965.7
99967.1
99968.4
99969.8
99971.2
99972.5
99973.9
99975.3
99976.6
99978
99979.3
99980.7
99982
99983.4
99984.7
99986
99987.4
99988.7
99990
99991.3
99992.7
99994
99995.3
99996.6
99997.9
99999.2
100000
100002
100003
100004
100006
100007
100008
99922.3
99923.9
99925.5
99927.1
99928.7
99930.3
99931.9
99933.5
99935
99936.6
99938.1
99939.7
99941.2
99942.7
99944.3
99945.8
99947.3
99948.8
99950.3
99951.8
99953.3
99954.8
99956.2
99957.7
99959.2
99960.7
99962.1
99963.6
99965.1
99966.5
99968
99969.4
99970.9
99972.3
99973.8
99975.2
99976.6
99978.1
99979.5
99980.9
99982.3
99983.7
99985.1
99986.6
99988
99989.4
99990.8
99992.2
99993.5
99994.9
99996.3
99997.7
99999
100000
100002
100003
100004
100006
100007
100008
99917.7
99919.4
99921.1
99922.8
99924.5
99926.2
99927.9
99929.5
99931.2
99932.8
99934.5
99936.1
99937.7
99939.4
99941
99942.6
99944.2
99945.8
99947.4
99949
99950.5
99952.1
99953.7
99955.2
99956.8
99958.4
99959.9
99961.5
99963
99964.6
99966.1
99967.6
99969.2
99970.7
99972.2
99973.7
99975.2
99976.7
99978.3
99979.8
99981.3
99982.8
99984.2
99985.7
99987.2
99988.7
99990.2
99991.6
99993.1
99994.5
99996
99997.4
99998.9
100000
100002
100003
100005
100006
100007
100009
99913
99914.9
99916.7
99918.5
99920.3
99922.1
99923.8
99925.6
99927.3
99929.1
99930.8
99932.5
99934.3
99936
99937.7
99939.4
99941.1
99942.7
99944.4
99946.1
99947.8
99949.4
99951.1
99952.7
99954.4
99956
99957.7
99959.3
99960.9
99962.6
99964.2
99965.8
99967.4
99969
99970.6
99972.2
99973.8
99975.4
99977
99978.6
99980.2
99981.7
99983.3
99984.9
99986.4
99988
99989.5
99991.1
99992.6
99994.2
99995.7
99997.2
99998.7
100000
100002
100003
100005
100006
100008
99908.4
99910.3
99912.2
99914.1
99916
99917.9
99919.7
99921.6
99923.4
99925.3
99927.1
99928.9
99930.7
99932.5
99934.3
99936.1
99937.9
99939.7
99941.4
99943.2
99944.9
99946.7
99948.4
99950.2
99951.9
99953.7
99955.4
99957.1
99958.8
99960.5
99962.2
99963.9
99965.6
99967.3
99969
99970.7
99972.4
99974.1
99975.7
99977.4
99979.1
99980.7
99982.4
99984
99985.6
99987.3
99988.9
99990.5
99992.2
99993.8
99995.4
99997
99998.6
100000
100002
100003
100005
100006
100008
99903.7
99905.7
99907.7
99909.7
99911.7
99913.7
99915.6
99917.6
99919.5
99921.4
99923.3
99925.2
99927.1
99929
99930.9
99932.8
99934.7
99936.5
99938.4
99940.2
99942.1
99943.9
99945.8
99947.6
99949.4
99951.2
99953
99954.9
99956.7
99958.5
99960.3
99962
99963.8
99965.6
99967.4
99969.1
99970.9
99972.7
99974.4
99976.2
99977.9
99979.7
99981.4
99983.1
99984.8
99986.6
99988.3
99990
99991.7
99993.4
99995
99996.7
99998.4
100000
100002
100003
100005
100007
100008
99899
99901.1
99903.2
99905.3
99907.4
99909.4
99911.4
99913.5
99915.5
99917.5
99919.5
99921.5
99923.5
99925.5
99927.5
99929.4
99931.4
99933.3
99935.3
99937.2
99939.2
99941.1
99943
99944.9
99946.8
99948.8
99950.7
99952.6
99954.5
99956.3
99958.2
99960.1
99962
99963.8
99965.7
99967.6
99969.4
99971.3
99973.1
99974.9
99976.8
99978.6
99980.4
99982.2
99984
99985.8
99987.6
99989.4
99991.2
99992.9
99994.7
99996.5
99998.2
99999.9
100002
100003
100005
100007
100009
99894.3
99896.5
99898.7
99900.8
99903
99905.1
99907.2
99909.3
99911.5
99913.6
99915.6
99917.7
99919.8
99921.9
99923.9
99926
99928
99930.1
99932.1
99934.2
99936.2
99938.2
99940.2
99942.2
99944.2
99946.2
99948.2
99950.2
99952.2
99954.2
99956.1
99958.1
99960.1
99962
99964
99965.9
99967.9
99969.8
99971.7
99973.6
99975.5
99977.5
99979.4
99981.3
99983.1
99985
99986.9
99988.8
99990.6
99992.5
99994.3
99996.2
99998
99999.8
100002
100003
100005
100007
100009
99889.5
99891.8
99894.1
99896.3
99898.5
99900.7
99903
99905.2
99907.3
99909.5
99911.7
99913.9
99916
99918.2
99920.4
99922.5
99924.6
99926.8
99928.9
99931
99933.1
99935.3
99937.4
99939.5
99941.6
99943.6
99945.7
99947.8
99949.9
99951.9
99954
99956.1
99958.1
99960.2
99962.2
99964.2
99966.3
99968.3
99970.3
99972.3
99974.3
99976.3
99978.3
99980.3
99982.3
99984.2
99986.2
99988.1
99990.1
99992
99994
99995.9
99997.8
99999.7
100002
100003
100005
100007
100009
99884.7
99887
99889.4
99891.7
99894
99896.3
99898.6
99900.9
99903.2
99905.4
99907.7
99910
99912.2
99914.5
99916.7
99918.9
99921.2
99923.4
99925.6
99927.8
99930
99932.2
99934.4
99936.6
99938.8
99941
99943.2
99945.3
99947.5
99949.7
99951.8
99954
99956.1
99958.2
99960.4
99962.5
99964.6
99966.7
99968.8
99970.9
99973
99975.1
99977.2
99979.3
99981.3
99983.4
99985.4
99987.5
99989.5
99991.5
99993.6
99995.6
99997.6
99999.6
100002
100004
100005
100007
100009
99879.8
99882.2
99884.6
99887
99889.4
99891.8
99894.1
99896.5
99898.9
99901.2
99903.6
99905.9
99908.3
99910.6
99912.9
99915.3
99917.6
99919.9
99922.2
99924.5
99926.8
99929.1
99931.4
99933.7
99936
99938.2
99940.5
99942.8
99945
99947.3
99949.5
99951.8
99954
99956.2
99958.5
99960.7
99962.9
99965.1
99967.3
99969.5
99971.7
99973.9
99976
99978.2
99980.4
99982.5
99984.6
99986.8
99988.9
99991
99993.1
99995.2
99997.3
99999.4
100001
100004
100006
100008
100010
99874.8
99877.2
99879.7
99882.2
99884.7
99887.1
99889.6
99892
99894.5
99896.9
99899.4
99901.8
99904.2
99906.6
99909.1
99911.5
99913.9
99916.3
99918.7
99921.1
99923.5
99925.9
99928.3
99930.7
99933
99935.4
99937.8
99940.1
99942.5
99944.8
99947.2
99949.5
99951.9
99954.2
99956.5
99958.8
99961.1
99963.4
99965.7
99968
99970.3
99972.6
99974.8
99977.1
99979.4
99981.6
99983.8
99986
99988.3
99990.5
99992.7
99994.9
99997
99999.2
100001
100004
100006
100008
100010
99869.6
99872.2
99874.7
99877.3
99879.8
99882.3
99884.9
99887.4
99889.9
99892.5
99895
99897.5
99900
99902.6
99905.1
99907.6
99910.1
99912.6
99915.1
99917.6
99920.1
99922.6
99925
99927.5
99930
99932.5
99934.9
99937.4
99939.8
99942.3
99944.7
99947.2
99949.6
99952
99954.5
99956.9
99959.3
99961.7
99964.1
99966.5
99968.8
99971.2
99973.6
99975.9
99978.3
99980.6
99983
99985.3
99987.6
99989.9
99992.2
99994.5
99996.7
99999
100001
100003
100006
100008
100010
99864.3
99866.9
99869.5
99872.2
99874.8
99877.4
99880
99882.6
99885.3
99887.9
99890.5
99893.1
99895.7
99898.3
99900.9
99903.5
99906.1
99908.7
99911.3
99913.9
99916.5
99919.1
99921.7
99924.3
99926.8
99929.4
99932
99934.5
99937.1
99939.6
99942.2
99944.7
99947.3
99949.8
99952.3
99954.8
99957.4
99959.9
99962.4
99964.8
99967.3
99969.8
99972.3
99974.7
99977.2
99979.6
99982
99984.5
99986.9
99989.3
99991.6
99994
99996.4
99998.7
100001
100003
100006
100008
100010
99858.8
99861.5
99864.2
99866.9
99869.6
99872.3
99875
99877.7
99880.4
99883.1
99885.8
99888.5
99891.2
99893.9
99896.6
99899.3
99902
99904.7
99907.4
99910.1
99912.8
99915.5
99918.2
99920.8
99923.5
99926.2
99928.9
99931.5
99934.2
99936.9
99939.5
99942.2
99944.8
99947.4
99950.1
99952.7
99955.3
99957.9
99960.5
99963.1
99965.7
99968.3
99970.9
99973.4
99976
99978.5
99981.1
99983.6
99986.1
99988.6
99991.1
99993.6
99996
99998.5
100001
100003
100006
100008
100011
99853
99855.8
99858.6
99861.4
99864.2
99866.9
99869.7
99872.5
99875.3
99878.1
99880.9
99883.7
99886.5
99889.3
99892.1
99894.9
99897.7
99900.5
99903.3
99906.1
99908.9
99911.7
99914.5
99917.3
99920.1
99922.8
99925.6
99928.4
99931.2
99933.9
99936.7
99939.5
99942.2
99945
99947.7
99950.4
99953.2
99955.9
99958.6
99961.3
99964
99966.7
99969.4
99972.1
99974.7
99977.4
99980
99982.6
99985.2
99987.9
99990.4
99993
99995.6
99998.2
100001
100003
100006
100008
100011
99847
99849.9
99852.7
99855.6
99858.5
99861.4
99864.2
99867.1
99870
99872.9
99875.8
99878.7
99881.6
99884.5
99887.4
99890.3
99893.2
99896.1
99899
99901.9
99904.8
99907.7
99910.6
99913.5
99916.4
99919.3
99922.2
99925.1
99928
99930.9
99933.7
99936.6
99939.5
99942.4
99945.2
99948.1
99950.9
99953.7
99956.6
99959.4
99962.2
99965
99967.8
99970.6
99973.4
99976.1
99978.9
99981.6
99984.3
99987.1
99989.8
99992.5
99995.1
99997.8
100000
100003
100006
100008
100011
99840.7
99843.7
99846.6
99849.6
99852.5
99855.5
99858.4
99861.4
99864.4
99867.4
99870.4
99873.4
99876.4
99879.4
99882.4
99885.4
99888.4
99891.4
99894.5
99897.5
99900.5
99903.5
99906.5
99909.5
99912.6
99915.6
99918.6
99921.6
99924.6
99927.6
99930.6
99933.6
99936.6
99939.6
99942.6
99945.5
99948.5
99951.4
99954.4
99957.3
99960.3
99963.2
99966.1
99969
99971.9
99974.8
99977.7
99980.5
99983.4
99986.2
99989
99991.8
99994.6
99997.4
100000
100003
100006
100008
100011
99834.1
99837.1
99840.1
99843.2
99846.2
99849.3
99852.3
99855.4
99858.5
99861.6
99864.7
99867.8
99870.9
99874
99877.1
99880.3
99883.4
99886.5
99889.6
99892.8
99895.9
99899
99902.2
99905.3
99908.5
99911.6
99914.7
99917.9
99921
99924.1
99927.3
99930.4
99933.5
99936.6
99939.7
99942.8
99945.9
99949
99952.1
99955.1
99958.2
99961.3
99964.3
99967.3
99970.3
99973.3
99976.3
99979.3
99982.3
99985.2
99988.2
99991.1
99994
99996.9
99999.8
100003
100005
100008
100011
99827
99830.1
99833.2
99836.4
99839.5
99842.7
99845.9
99849
99852.2
99855.4
99858.6
99861.8
99865.1
99868.3
99871.5
99874.8
99878
99881.3
99884.5
99887.8
99891
99894.3
99897.6
99900.8
99904.1
99907.4
99910.6
99913.9
99917.2
99920.4
99923.7
99926.9
99930.2