/*--------------------------------*- C++ -*----------------------------------*\
  =========                 |
  \\      /  F ield         | OpenFOAM: The Open Source CFD Toolbox
   \\    /   O peration     | Website:  https://openfoam.org
    \\  /    A nd           | Version:  9
     \\/     M anipulation  |
\*---------------------------------------------------------------------------*/
FoamFile
{
    format      ascii;
    class       volScalarField;
    location    "0.0025";
    object      p;
}
// * * * * * * * * * * * * * * * * * * * * * * * * * * * * * * * * * * * * * //

dimensions      [1 -1 -2 0 0 0 0];

internalField   nonuniform List<scalar> 
8420
(
99999.6
99999.8
100000
100000
100000
100001
100001
100001
100001
100002
100002
100002
100002
100003
100003
100003
100004
100004
100004
100005
100005
100005
100006
100006
100007
100007
100008
100008
100009
100009
100010
100010
100011
100011
99995.5
99995.6
99995.7
99995.8
99995.9
99996
99996.1
99996.2
99996.3
99996.4
99996.5
99996.7
99996.8
99996.9
99997.1
99997.2
99997.4
99997.6
99997.7
99997.9
99998.1
99998.3
99998.5
99998.7
99999
99999.2
99999.5
99999.7
100000
100000
100001
100001
100001
100002
99986.3
99986.3
99986.3
99986.3
99986.4
99986.4
99986.4
99986.4
99986.4
99986.4
99986.4
99986.4
99986.4
99986.4
99986.4
99986.3
99986.3
99986.3
99986.3
99986.2
99986.2
99986.2
99986.1
99986.1
99986
99985.9
99985.9
99985.8
99985.7
99985.6
99985.5
99985.3
99985.2
99985
99985.4
99985.5
99985.5
99985.6
99985.7
99985.8
99985.9
99986
99986.1
99986.1
99986.2
99986.3
99986.4
99986.5
99986.6
99986.7
99986.8
99986.9
99987.1
99987.2
99987.3
99987.4
99987.5
99987.6
99987.7
99987.9
99988
99988.1
99988.2
99988.4
99988.5
99988.6
99988.8
99988.9
99976.4
99976.4
99976.4
99976.4
99976.5
99976.5
99976.5
99976.5
99976.6
99976.6
99976.6
99976.7
99976.7
99976.7
99976.7
99976.8
99976.8
99976.8
99976.9
99976.9
99976.9
99977
99977
99977
99977.1
99977.1
99977.1
99977.2
99977.2
99977.2
99977.3
99977.3
99977.3
99977.3
99974.4
99974.5
99974.5
99974.6
99974.7
99974.7
99974.8
99974.9
99974.9
99975
99975.1
99975.2
99975.3
99975.3
99975.4
99975.5
99975.6
99975.7
99975.8
99975.9
99975.9
99976
99976.1
99976.2
99976.3
99976.4
99976.5
99976.6
99976.7
99976.8
99976.9
99977
99977.1
99977.2
99967
99967
99967.1
99967.2
99967.2
99967.3
99967.3
99967.4
99967.5
99967.5
99967.6
99967.7
99967.8
99967.9
99967.9
99968
99968.1
99968.2
99968.3
99968.4
99968.5
99968.6
99968.7
99968.8
99968.9
99969
99969.1
99969.3
99969.4
99969.5
99969.6
99969.7
99969.9
99970
99963.5
99963.5
99963.6
99963.7
99963.8
99963.9
99963.9
99964
99964.1
99964.2
99964.3
99964.4
99964.5
99964.6
99964.7
99964.8
99965
99965.1
99965.2
99965.3
99965.4
99965.6
99965.7
99965.8
99966
99966.1
99966.2
99966.4
99966.5
99966.7
99966.8
99967
99967.1
99967.2
99957
99957.1
99957.1
99957.2
99957.3
99957.4
99957.5
99957.6
99957.8
99957.9
99958
99958.1
99958.2
99958.4
99958.5
99958.7
99958.8
99959
99959.1
99959.3
99959.4
99959.6
99959.7
99959.9
99960.1
99960.3
99960.4
99960.6
99960.8
99961
99961.2
99961.4
99961.6
99961.7
99952.2
99952.3
99952.4
99952.5
99952.6
99952.7
99952.9
99953
99953.1
99953.2
99953.4
99953.5
99953.7
99953.8
99954
99954.2
99954.3
99954.5
99954.7
99954.9
99955
99955.2
99955.4
99955.6
99955.8
99956
99956.2
99956.4
99956.6
99956.9
99957.1
99957.3
99957.5
99957.7
99958
99946
99946.1
99946.2
99946.3
99946.5
99946.6
99946.8
99946.9
99947.1
99947.2
99947.4
99947.6
99947.8
99948
99948.2
99948.4
99948.6
99948.8
99949
99949.2
99949.4
99949.7
99949.9
99950.2
99950.4
99950.7
99950.9
99951.2
99951.4
99951.7
99952
99952.2
99952.5
99952.8
99953.1
99940.4
99940.6
99940.7
99940.9
99941
99941.2
99941.4
99941.6
99941.8
99942
99942.2
99942.4
99942.6
99942.8
99943
99943.3
99943.5
99943.8
99944
99944.3
99944.6
99944.8
99945.1
99945.4
99945.7
99946
99946.3
99946.6
99946.9
99947.2
99947.5
99947.9
99948.2
99948.5
99948.8
99934.1
99934.2
99934.4
99934.6
99934.8
99935
99935.2
99935.4
99935.7
99935.9
99936.1
99936.4
99936.7
99936.9
99937.2
99937.5
99937.8
99938.1
99938.4
99938.7
99939
99939.4
99939.7
99940
99940.4
99940.7
99941.1
99941.5
99941.8
99942.2
99942.6
99943
99943.4
99943.8
99944.2
99927.9
99928.1
99928.3
99928.5
99928.7
99929
99929.2
99929.5
99929.8
99930
99930.3
99930.6
99930.9
99931.2
99931.6
99931.9
99932.3
99932.6
99933
99933.3
99933.7
99934.1
99934.5
99934.9
99935.3
99935.7
99936.1
99936.6
99937
99937.5
99937.9
99938.4
99938.8
99939.3
99939.7
99921.2
99921.4
99921.7
99921.9
99922.2
99922.5
99922.8
99923.1
99923.4
99923.7
99924.1
99924.4
99924.8
99925.2
99925.6
99925.9
99926.4
99926.8
99927.2
99927.6
99928.1
99928.5
99929
99929.5
99929.9
99930.4
99930.9
99931.4
99931.9
99932.5
99933
99933.5
99934.1
99934.6
99935.1
99914.5
99914.8
99915
99915.3
99915.7
99916
99916.3
99916.7
99917
99917.4
99917.8
99918.2
99918.7
99919.1
99919.5
99920
99920.5
99920.9
99921.4
99921.9
99922.5
99923
99923.5
99924.1
99924.6
99925.2
99925.8
99926.3
99926.9
99927.5
99928.1
99928.8
99929.4
99930
99930.6
99907.4
99907.8
99908.1
99908.4
99908.8
99909.2
99909.6
99910
99910.4
99910.9
99911.3
99911.8
99912.3
99912.8
99913.3
99913.8
99914.4
99914.9
99915.5
99916.1
99916.7
99917.3
99917.9
99918.5
99919.1
99919.8
99920.5
99921.1
99921.8
99922.5
99923.2
99923.9
99924.6
99925.4
99926.1
99900.3
99900.7
99901
99901.4
99901.9
99902.3
99902.7
99903.2
99903.7
99904.2
99904.7
99905.3
99905.8
99906.4
99907
99907.6
99908.2
99908.8
99909.5
99910.1
99910.8
99911.5
99912.2
99912.9
99913.6
99914.4
99915.1
99915.9
99916.7
99917.5
99918.3
99919.1
99919.9
99920.7
99921.5
99893
99893.4
99893.8
99894.3
99894.7
99895.2
99895.7
99896.3
99896.8
99897.4
99898
99898.6
99899.2
99899.8
99900.5
99901.2
99901.9
99902.6
99903.3
99904.1
99904.8
99905.6
99906.4
99907.2
99908.1
99908.9
99909.8
99910.6
99911.5
99912.4
99913.3
99914.2
99915.2
99916.1
99917
99885.6
99886
99886.5
99887
99887.5
99888.1
99888.7
99889.2
99889.9
99890.5
99891.2
99891.8
99892.5
99893.2
99894
99894.7
99895.5
99896.3
99897.1
99898
99898.8
99899.7
99900.6
99901.5
99902.4
99903.4
99904.3
99905.3
99906.3
99907.3
99908.3
99909.4
99910.4
99911.5
99912.5
99878.1
99878.6
99879.1
99879.7
99880.3
99880.9
99881.5
99882.1
99882.8
99883.5
99884.2
99885
99885.8
99886.5
99887.4
99888.2
99889.1
99889.9
99890.8
99891.8
99892.7
99893.7
99894.7
99895.7
99896.7
99897.8
99898.8
99899.9
99901
99902.2
99903.3
99904.5
99905.6
99906.8
99908
99870.6
99871.1
99871.7
99872.3
99873
99873.6
99874.3
99875
99875.8
99876.5
99877.3
99878.1
99878.9
99879.8
99880.7
99881.6
99882.5
99883.5
99884.5
99885.5
99886.5
99887.6
99888.7
99889.8
99890.9
99892.1
99893.3
99894.5
99895.7
99897
99898.2
99899.5
99900.8
99902.2
99903.5
99863.1
99863.7
99864.3
99865
99865.7
99866.4
99867.1
99867.9
99868.7
99869.5
99870.3
99871.2
99872.1
99873
99874
99875
99876
99877
99878.1
99879.2
99880.3
99881.4
99882.6
99883.8
99885.1
99886.4
99887.7
99889
99890.3
99891.7
99893.1
99894.6
99896
99897.5
99899
99855.7
99856.4
99857.1
99857.8
99858.5
99859.2
99860
99860.8
99861.6
99862.5
99863.4
99864.3
99865.3
99866.2
99867.2
99868.3
99869.4
99870.5
99871.6
99872.8
99874
99875.2
99876.5
99877.8
99879.2
99880.5
99882
99883.4
99884.9
99886.4
99888
99889.5
99891.1
99892.8
99894.4
99848.5
99849.2
99849.9
99850.6
99851.4
99852.2
99853
99853.8
99854.7
99855.6
99856.5
99857.4
99858.4
99859.4
99860.5
99861.6
99862.7
99863.9
99865.1
99866.3
99867.6
99868.9
99870.3
99871.7
99873.1
99874.6
99876.2
99877.7
99879.4
99881
99882.7
99884.4
99886.2
99888
99889.8
99841.5
99842.2
99842.9
99843.7
99844.4
99845.2
99846.1
99846.9
99847.8
99848.7
99849.7
99850.6
99851.6
99852.7
99853.8
99854.9
99856.1
99857.3
99858.5
99859.8
99861.1
99862.5
99864
99865.5
99867
99868.6
99870.3
99872
99873.7
99875.5
99877.3
99879.2
99881.2
99883.1
99885.1
99834.7
99835.4
99836.1
99836.9
99837.7
99838.5
99839.3
99840.2
99841.1
99842
99842.9
99843.9
99844.9
99846
99847.1
99848.2
99849.4
99850.6
99851.9
99853.2
99854.6
99856.1
99857.6
99859.1
99860.8
99862.5
99864.2
99866
99867.9
99869.8
99871.8
99873.9
99876
99878.2
99880.4
99828.1
99828.9
99829.6
99830.4
99831.2
99832
99832.8
99833.7
99834.5
99835.4
99836.4
99837.3
99838.3
99839.4
99840.4
99841.6
99842.7
99844
99845.3
99846.6
99848
99849.5
99851.1
99852.7
99854.4
99856.2
99858
99859.9
99861.9
99864
99866.2
99868.4
99870.7
99873.1
99875.5
99822
99822.7
99823.4
99824.2
99825
99825.7
99826.5
99827.4
99828.2
99829.1
99830
99830.9
99831.8
99832.8
99833.9
99835
99836.1
99837.3
99838.6
99840
99841.4
99842.9
99844.4
99846.1
99847.9
99849.7
99851.6
99853.7
99855.8
99858
99860.3
99862.7
99865.3
99867.8
99870.5
99816.1
99816.8
99817.6
99818.3
99819
99819.8
99820.5
99821.3
99822.1
99822.9
99823.7
99824.6
99825.5
99826.5
99827.4
99828.5
99829.6
99830.7
99832
99833.3
99834.7
99836.1
99837.7
99839.4
99841.2
99843.1
99845.1
99847.2
99849.4
99851.8
99854.3
99856.9
99859.6
99862.4
99865.3
99810.6
99811.4
99812.1
99812.8
99813.5
99814.1
99814.9
99815.6
99816.3
99817
99817.8
99818.6
99819.4
99820.2
99821.1
99822.1
99823.1
99824.2
99825.3
99826.6
99827.9
99829.3
99830.9
99832.5
99834.3
99836.2
99838.3
99840.5
99842.8
99845.3
99848
99850.7
99853.7
99856.7
99859.9
99805.6
99806.2
99806.9
99807.6
99808.2
99808.8
99809.5
99810.1
99810.7
99811.4
99812.1
99812.7
99813.5
99814.2
99815
99815.8
99816.7
99817.7
99818.8
99819.9
99821.1
99822.5
99824
99825.6
99827.3
99829.2
99831.3
99833.6
99836
99838.6
99841.4
99844.3
99847.5
99850.8
99854.3
99800.9
99801.5
99802.1
99802.7
99803.3
99803.9
99804.4
99805
99805.5
99806.1
99806.6
99807.2
99807.8
99808.4
99809.1
99809.8
99810.5
99811.3
99812.3
99813.3
99814.4
99815.6
99817
99818.5
99820.2
99822
99824.1
99826.4
99828.9
99831.6
99834.5
99837.6
99841
99844.6
99848.4
99796.6
99797.2
99797.8
99798.3
99798.8
99799.3
99799.8
99800.2
99800.6
99801.1
99801.5
99801.9
99802.4
99802.8
99803.3
99803.9
99804.5
99805.1
99805.9
99806.7
99807.6
99808.7
99809.9
99811.3
99812.9
99814.7
99816.7
99818.9
99821.4
99824.2
99827.3
99830.6
99834.2
99838.1
99842.3
99792.7
99793.2
99793.7
99794.2
99794.7
99795.1
99795.4
99795.8
99796.1
99796.4
99796.7
99797
99797.2
99797.5
99797.9
99798.2
99798.6
99799.1
99799.6
99800.2
99801
99801.8
99802.9
99804.1
99805.5
99807.1
99809
99811.2
99813.7
99816.5
99819.7
99823.2
99827
99831.2
99835.8
99789.1
99789.6
99790.1
99790.5
99790.9
99791.2
99791.4
99791.7
99791.9
99792
99792.2
99792.3
99792.4
99792.5
99792.7
99792.8
99793
99793.2
99793.5
99793.9
99794.4
99795
99795.8
99796.8
99798
99799.4
99801.2
99803.3
99805.7
99808.5
99811.8
99815.4
99819.5
99824
99828.9
99785.9
99786.4
99786.8
99787.1
99787.4
99787.6
99787.8
99787.9
99788
99788
99788
99788
99787.9
99787.8
99787.8
99787.7
99787.6
99787.6
99787.6
99787.7
99787.9
99788.3
99788.8
99789.5
99790.4
99791.6
99793.2
99795.1
99797.4
99800.2
99803.4
99807.2
99811.5
99816.3
99821.7
99783
99783.5
99783.8
99784.1
99784.3
99784.4
99784.5
99784.5
99784.5
99784.4
99784.2
99784
99783.7
99783.5
99783.2
99782.8
99782.5
99782.2
99782
99781.8
99781.7
99781.7
99781.9
99782.2
99782.8
99783.8
99785
99786.7
99788.8
99791.4
99794.7
99798.5
99803
99808.2
99814
99780.5
99780.8
99781.1
99781.3
99781.5
99781.5
99781.5
99781.4
99781.2
99781
99780.7
99780.3
99779.9
99779.4
99778.9
99778.3
99777.7
99777.2
99776.6
99776.1
99775.7
99775.3
99775.1
99775.1
99775.3
99775.8
99776.7
99778.1
99779.9
99782.4
99785.5
99789.4
99794
99799.6
99805.9
99778.2
99778.5
99778.8
99778.9
99779
99778.9
99778.8
99778.6
99778.3
99778
99777.5
99777
99776.3
99775.7
99774.9
99774.1
99773.3
99772.4
99771.5
99770.7
99769.9
99769.1
99768.5
99768.1
99767.8
99767.9
99768.4
99769.3
99770.8
99773
99776
99779.8
99784.6
99790.4
99797.3
99776.2
99776.4
99776.6
99776.7
99776.7
99776.6
99776.4
99776.1
99775.7
99775.2
99774.6
99773.9
99773.1
99772.2
99771.3
99770.2
99769.1
99768
99766.8
99765.6
99764.4
99763.2
99762.1
99761.2
99760.5
99760.1
99760
99760.5
99761.5
99763.3
99766
99769.7
99774.5
99780.6
99788.1
99774.4
99774.6
99774.8
99774.8
99774.7
99774.6
99774.3
99773.9
99773.4
99772.7
99772
99771.2
99770.2
99769.1
99768
99766.7
99765.3
99763.9
99762.3
99760.8
99759.2
99757.6
99756.1
99754.6
99753.4
99752.4
99751.7
99751.6
99752.1
99753.4
99755.7
99759.1
99763.9
99770.3
99778.4
99772.8
99773
99773.1
99773.1
99773
99772.7
99772.4
99771.9
99771.3
99770.5
99769.7
99768.7
99767.6
99766.3
99764.9
99763.4
99761.8
99760.1
99758.2
99756.3
99754.3
99752.3
99750.3
99748.3
99746.4
99744.8
99743.5
99742.7
99742.5
99743.2
99745
99748.1
99752.7
99759.3
99768
99771.4
99771.6
99771.7
99771.6
99771.4
99771.1
99770.7
99770.1
99769.4
99768.6
99767.6
99766.5
99765.2
99763.8
99762.2
99760.5
99758.6
99756.6
99754.5
99752.2
99749.8
99747.3
99744.8
99742.3
99739.8
99737.5
99735.5
99733.9
99732.9
99732.9
99734
99736.6
99740.9
99747.6
99756.9
99770.2
99770.3
99770.4
99770.3
99770
99769.7
99769.2
99768.5
99767.7
99766.8
99765.7
99764.5
99763.1
99761.5
99759.7
99757.8
99755.7
99753.5
99751
99748.4
99745.6
99742.7
99739.7
99736.6
99733.5
99730.5
99727.7
99725.2
99723.4
99722.5
99722.8
99724.6
99728.5
99735.2
99745.1
99769.1
99769.3
99769.3
99769.1
99768.8
99768.4
99767.9
99767.2
99766.3
99765.3
99764.1
99762.7
99761.2
99759.5
99757.6
99755.4
99753.1
99750.6
99747.9
99744.9
99741.8
99738.4
99734.9
99731.2
99727.5
99723.8
99720.1
99716.8
99714
99712
99711.3
99712.3
99715.5
99722
99732.6
99768.2
99768.3
99768.3
99768.1
99767.8
99767.3
99766.7
99765.9
99765
99763.9
99762.6
99761.2
99759.5
99757.7
99755.6
99753.3
99750.8
99748
99745
99741.8
99738.3
99734.5
99730.5
99726.3
99721.9
99717.4
99712.9
99708.6
99704.7
99701.6
99699.8
99699.7
99702
99708.1
99719.2
99767.4
99767.5
99767.4
99767.2
99766.9
99766.4
99765.7
99764.9
99763.9
99762.7
99761.3
99759.8
99758
99756.1
99753.9
99751.4
99748.7
99745.7
99742.5
99739
99735.1
99731
99726.5
99721.7
99716.7
99711.5
99706.1
99700.8
99695.8
99691.4
99688.2
99686.8
99687.9
99693.3
99704.9
99766.7
99766.8
99766.7
99766.5
99766.1
99765.5
99764.8
99763.9
99762.9
99761.7
99760.2
99758.6
99756.7
99754.6
99752.3
99749.7
99746.9
99743.7
99740.2
99736.4
99732.2
99727.7
99722.8
99717.5
99711.9
99705.9
99699.7
99693.3
99687.1
99681.3
99676.7
99673.7
99673.3
99677.8
99689.8
99766.1
99766.1
99766
99765.8
99765.4
99764.8
99764.1
99763.1
99762
99760.7
99759.2
99757.5
99755.6
99753.4
99751
99748.2
99745.2
99741.9
99738.2
99734.1
99729.7
99724.8
99719.5
99713.7
99707.5
99700.8
99693.7
99686.3
99678.8
99671.6
99665.3
99660.6
99658.4
99661.4
99673.6
99765.6
99765.6
99765.5
99765.2
99764.8
99764.2
99763.4
99762.4
99761.3
99759.9
99758.4
99756.6
99754.6
99752.3
99749.8
99746.9
99743.8
99740.3
99736.4
99732.1
99727.4
99722.2
99716.5
99710.3
99703.5
99696.1
99688.1
99679.7
99671
99662.2
99654.1
99647.5
99643.1
99644.3
99656.3
99765.1
99765.1
99765
99764.7
99764.2
99763.6
99762.8
99761.8
99760.6
99759.2
99757.6
99755.8
99753.7
99751.4
99748.7
99745.8
99742.5
99738.9
99734.8
99730.3
99725.4
99719.9
99713.8
99707.2
99699.8
99691.8
99683
99673.6
99663.6
99653.2
99643.3
99634.5
99627.7
99626.4
99638
99764.7
99764.7
99764.6
99764.3
99763.8
99763.1
99762.3
99761.3
99760.1
99758.6
99757
99755.1
99753
99750.5
99747.8
99744.8
99741.4
99737.6
99733.4
99728.7
99723.6
99717.8
99711.4
99704.4
99696.6
99687.9
99678.4
99668
99656.7
99644.8
99632.8
99621.7
99612.2
99608
99618.5
99764.4
99764.4
99764.2
99763.9
99763.4
99762.7
99761.9
99760.8
99759.6
99758.1
99756.4
99754.5
99752.3
99749.8
99747
99743.9
99740.4
99736.5
99732.2
99727.4
99722
99716
99709.3
99701.9
99693.6
99684.4
99674.1
99662.8
99650.3
99636.8
99622.8
99609.3
99596.7
99588.9
99597.8
99764.1
99764.1
99763.9
99763.6
99763.1
99762.4
99761.5
99760.4
99759.2
99757.7
99755.9
99754
99751.7
99749.2
99746.3
99743.1
99739.6
99735.6
99731.1
99726.2
99720.6
99714.4
99707.5
99699.7
99691
99681.3
99670.3
99658.1
99644.5
99629.5
99613.4
99597.2
99581.4
99569.5
99575.9
99763.9
99763.8
99763.7
99763.3
99762.8
99762.1
99761.2
99760.1
99758.8
99757.3
99755.5
99753.5
99751.2
99748.7
99745.7
99742.5
99738.8
99734.8
99730.2
99725.1
99719.4
99713
99705.8
99697.8
99688.7
99678.5
99666.9
99653.9
99639.2
99622.7
99604.5
99585.6
99566.5
99549.8
99552.7
99763.7
99763.6
99763.4
99763.1
99762.5
99761.8
99760.9
99759.8
99758.5
99756.9
99755.2
99753.1
99750.8
99748.2
99745.2
99741.9
99738.2
99734
99729.4
99724.2
99718.3
99711.8
99704.4
99696.1
99686.7
99676
99663.9
99650.1
99634.3
99616.4
99596.2
99574.6
99551.9
99530
99528.2
99763.5
99763.4
99763.2
99762.9
99762.3
99761.6
99760.7
99759.6
99758.2
99756.7
99754.9
99752.8
99750.4
99747.8
99744.8
99741.4
99737.7
99733.4
99728.7
99723.4
99717.4
99710.7
99703.2
99694.6
99684.9
99673.9
99661.2
99646.7
99630
99610.8
99588.6
99564.2
99537.9
99510.4
99502.5
99763.3
99763.3
99763.1
99762.7
99762.1
99761.4
99760.5
99759.3
99758
99756.4
99754.6
99752.5
99750.1
99747.4
99744.4
99741
99737.2
99732.9
99728.1
99722.7
99716.6
99709.8
99702.1
99693.3
99683.4
99672
99658.9
99643.7
99626.1
99605.7
99581.7
99554.4
99524.5
99491.1
99475.7
99763.2
99763.2
99762.9
99762.6
99762
99761.2
99760.3
99759.2
99757.8
99756.2
99754.4
99752.3
99749.9
99747.1
99744.1
99740.6
99736.8
99732.4
99727.6
99722.1
99715.9
99709
99701.1
99692.2
99682
99670.3
99656.8
99641.1
99622.7
99601.1
99575.4
99545.3
99511.8
99472.4
99447.8
99763.1
99763
99762.8
99762.4
99761.9
99761.1
99760.2
99759
99757.6
99756
99754.2
99752
99749.6
99746.9
99743.8
99740.3
99736.4
99732
99727.1
99721.6
99715.3
99708.3
99700.3
99691.2
99680.8
99668.9
99655
99638.8
99619.7
99597.1
99569.7
99536.9
99499.9
99454.3
99418.9
99763
99763
99762.7
99762.3
99761.8
99761
99760
99758.9
99757.5
99755.9
99754
99751.9
99749.4
99746.7
99743.5
99740
99736.1
99731.7
99726.7
99721.1
99714.8
99707.7
99699.6
99690.4
99679.8
99667.6
99653.4
99636.8
99617
99593.5
99564.7
99529.2
99488.7
99437.2
99389.3
99762.9
99762.9
99762.7
99762.3
99761.7
99760.9
99759.9
99758.8
99757.4
99755.7
99753.9
99751.7
99749.2
99746.5
99743.3
99739.8
99735.8
99731.4
99726.4
99720.7
99714.4
99707.2
99699
99689.7
99678.9
99666.5
99652.1
99635
99614.7
99590.4
99560.2
99522.2
99478.3
99421.1
99359.2
99762.9
99762.8
99762.6
99762.2
99761.6
99760.8
99759.9
99758.7
99757.3
99755.6
99753.7
99751.6
99749.1
99746.3
99743.2
99739.6
99735.6
99731.1
99726.1
99720.4
99714
99706.7
99698.5
99689
99678.2
99665.6
99650.9
99633.5
99612.6
99587.6
99556.3
99515.9
99468.7
99406.1
99328.7
99762.8
99762.8
99762.5
99762.1
99761.5
99760.8
99759.8
99758.6
99757.2
99755.5
99753.6
99751.5
99749
99746.2
99743
99739.4
99735.4
99730.9
99725.8
99720.1
99713.7
99706.3
99698
99688.5
99677.5
99664.8
99649.9
99632.2
99610.9
99585.2
99552.9
99510.3
99459.8
99392.4
99298.1
99762.8
99762.7
99762.5
99762.1
99761.5
99760.7
99759.7
99758.5
99757.1
99755.5
99753.6
99751.4
99748.9
99746.1
99742.9
99739.3
99735.3
99730.7
99725.6
99719.9
99713.4
99706
99697.6
99688
99676.9
99664.1
99649
99631.1
99609.4
99583.1
99550
99505.3
99451.8
99380.1
99267.7
99762.8
99762.7
99762.5
99762.1
99761.5
99760.7
99759.7
99758.5
99757.1
99755.4
99753.5
99751.3
99748.8
99746
99742.8
99739.2
99735.1
99730.6
99725.5
99719.7
99713.1
99705.7
99697.3
99687.6
99676.5
99663.5
99648.3
99630.1
99608
99581.3
99547.4
99500.9
99444.4
99369.2
99238.1
99762.8
99762.7
99762.4
99762
99761.4
99760.6
99759.7
99758.5
99757
99755.4
99753.4
99751.2
99748.7
99745.9
99742.7
99739.1
99735
99730.4
99725.3
99719.5
99712.9
99705.5
99697
99687.3
99676
99663
99647.6
99629.3
99606.9
99579.8
99545.3
99497
99437.6
99359.7
99209.3
99762.7
99762.7
99762.4
99762
99761.4
99760.6
99759.6
99758.4
99757
99755.3
99753.4
99751.2
99748.7
99745.8
99742.6
99739
99734.9
99730.3
99725.2
99719.4
99712.8
99705.3
99696.8
99687
99675.7
99662.5
99647
99628.5
99605.9
99578.4
99543.4
99493.7
99431.6
99351.5
99181.5
99762.7
99762.7
99762.4
99762
99761.4
99760.6
99759.6
99758.4
99757
99755.3
99753.4
99751.2
99748.6
99745.8
99742.6
99738.9
99734.9
99730.3
99725.1
99719.2
99712.6
99705.1
99696.5
99686.7
99675.4
99662.1
99646.6
99627.9
99605.1
99577.3
99541.9
99490.8
99426.2
99344.6
99154.9
99762.7
99762.7
99762.4
99762
99761.4
99760.6
99759.6
99758.4
99757
99755.3
99753.3
99751.1
99748.6
99745.8
99742.5
99738.9
99734.8
99730.2
99725
99719.1
99712.5
99705
99696.4
99686.5
99675.1
99661.8
99646.1
99627.4
99604.4
99576.3
99540.5
99488.3
99421.4
99338.8
99129.7
99762.7
99762.7
99762.4
99762
99761.4
99760.6
99759.6
99758.4
99756.9
99755.3
99753.3
99751.1
99748.6
99745.7
99742.5
99738.9
99734.8
99730.1
99724.9
99719.1
99712.4
99704.9
99696.2
99686.4
99674.9
99661.5
99645.8
99626.9
99603.8
99575.5
99539.4
99486.2
99417.2
99334.1
99106.1
99762.7
99762.7
99762.4
99762
99761.4
99760.6
99759.6
99758.4
99756.9
99755.3
99753.3
99751.1
99748.6
99745.7
99742.5
99738.8
99734.7
99730.1
99724.9
99719
99712.3
99704.8
99696.1
99686.2
99674.7
99661.3
99645.5
99626.6
99603.3
99574.7
99538.4
99484.5
99413.5
99330.5
99084.4
99762.8
99762.7
99762.4
99762
99761.4
99760.6
99759.6
99758.4
99756.9
99755.3
99753.3
99751.1
99748.6
99745.7
99742.5
99738.8
99734.7
99730.1
99724.9
99719
99712.3
99704.7
99696.1
99686.1
99674.6
99661.2
99645.3
99626.2
99602.8
99574.1
99537.6
99482.9
99410.3
99327.8
99064.6
99762.8
99762.7
99762.4
99762
99761.4
99760.6
99759.6
99758.4
99756.9
99755.3
99753.3
99751.1
99748.6
99745.7
99742.5
99738.8
99734.7
99730.1
99724.8
99718.9
99712.3
99704.7
99696
99686
99674.5
99661
99645.1
99626
99602.5
99573.6
99536.9
99481.7
99407.6
99325.9
99046.8
99762.8
99762.7
99762.4
99762
99761.4
99760.6
99759.6
99758.4
99756.9
99755.3
99753.3
99751.1
99748.6
99745.7
99742.5
99738.8
99734.7
99730.1
99724.8
99718.9
99712.2
99704.7
99696
99686
99674.4
99660.9
99645
99625.8
99602.2
99573.2
99536.4
99480.6
99405.2
99324.5
99031.1
99762.8
99762.7
99762.4
99762
99761.4
99760.6
99759.6
99758.4
99757
99755.3
99753.3
99751.1
99748.6
99745.7
99742.5
99738.8
99734.7
99730.1
99724.8
99718.9
99712.2
99704.6
99696
99686
99674.4
99660.9
99644.9
99625.7
99602
99573
99535.9
99479.7
99403.2
99323.7
99018.5
99762.8
99762.7
99762.5
99762
99761.4
99760.6
99759.6
99758.4
99757
99755.3
99753.3
99751.1
99748.6
99745.7
99742.5
99738.8
99734.7
99730.1
99724.8
99718.9
99712.2
99704.6
99695.9
99686
99674.4
99660.9
99644.9
99625.7
99601.9
99572.8
99535.6
99479.1
99401.6
99323
99007.9
99762.8
99762.7
99762.5
99762
99761.4
99760.6
99759.6
99758.4
99757
99755.3
99753.3
99751.1
99748.6
99745.7
99742.5
99738.8
99734.7
99730.1
99724.8
99718.9
99712.2
99704.6
99695.9
99686
99674.4
99660.9
99644.9
99625.6
99601.9
99572.7
99535.5
99478.7
99400.4
99321.5
98998.5
99762.8
99762.7
99762.5
99762
99761.4
99760.6
99759.6
99758.4
99757
99755.3
99753.3
99751.1
99748.6
99745.7
99742.5
99738.8
99734.7
99730.1
99724.8
99718.9
99712.2
99704.6
99696
99686
99674.4
99660.9
99644.9
99625.6
99601.9
99572.7
99535.5
99478.5
99399.8
99320.1
98987.4
100005
99998.3
99991
99985.2
99980.1
99975.9
99972.3
99969.5
99967.4
99965.8
99964.6
99963.8
99963.2
99962.9
99962.8
99962.8
99963.1
99963.4
99963.8
99964.4
99965
99965.7
99966.4
99967.3
99968.1
99969
99969.9
99970.8
99971.8
99972.7
99973.7
99974.6
99975.6
99976.5
99977.5
99978.4
99979.3
99980.2
99981.1
99982
99982.9
99983.8
99984.7
99985.5
99986.4
99987.2
99988
99988.8
99989.5
99990.3
99991
99991.7
99992.4
99993.1
99993.8
99994.4
99995
99995.6
99996.2
99996.7
99997.3
99997.8
99998.3
99998.8
99999.3
99999.8
100000
100001
100001
100001
100002
100002
100002
100003
100003
100003
100003
100003
100004
100004
100003
100004
100005
100006
100007
100007
100007
100007
100007
100006
100006
100005
100004
100004
100003
100002
100002
100001
100001
100000
99999.4
99998.8
99998.3
99997.8
99997.3
99996.9
99996.4
99996.1
99995.7
99995.4
99995.1
99994.8
99994.6
99994.4
99994.2
99994
99993.9
99993.9
99993.9
99993.9
99993.9
99994
99994
99994.1
99994.2
99994.3
99994.5
99994.6
99994.8
99995
99995.2
99995.4
99995.6
99995.8
99996.1
99996.3
99996.6
99996.9
99997.2
99997.6
99997.9
99998.2
99998.5
99998.9
99999.3
99999.7
100000
100000
100001
100001
100002
100002
100003
100003
100003
100004
100004
100005
100005
100006
99984.8
99984.4
99984.1
99983.8
99983.5
99983.4
99983.4
99983.4
99983.5
99983.7
99983.9
99984.1
99984.4
99984.7
99985
99985.3
99985.6
99986
99986.3
99986.6
99987
99987.3
99987.7
99988.1
99988.4
99988.8
99989.1
99989.4
99989.7
99990
99990.3
99990.6
99990.9
99991.3
99991.6
99991.9
99992.2
99992.5
99992.8
99993
99993.3
99993.5
99993.8
99994
99994.3
99994.5
99994.7
99995
99995.2
99995.5
99995.7
99996
99996.2
99996.5
99996.7
99997
99997.2
99997.5
99997.7
99998
99998.3
99998.5
99998.8
99999.1
99999.3
99999.6
99999.9
100000
100001
100001
100001
100002
100002
100002
100003
100003
100003
100004
100004
100004
99989
99989
99988.9
99988.9
99988.7
99988.6
99988.4
99988.3
99988.1
99987.9
99987.7
99987.6
99987.4
99987.3
99987.1
99987
99987
99986.9
99986.9
99986.8
99986.9
99986.9
99986.9
99986.9
99987
99987.1
99987.3
99987.4
99987.6
99987.8
99988
99988.2
99988.4
99988.7
99988.9
99989.2
99989.5
99989.7
99990
99990.3
99990.6
99990.9
99991.2
99991.6
99991.9
99992.2
99992.6
99992.9
99993.3
99993.6
99994
99994.3
99994.7
99995
99995.4
99995.8
99996.1
99996.5
99996.9
99997.2
99997.6
99997.9
99998.3
99998.7
99999
99999.4
99999.7
100000
100000
100001
100001
100001
100002
100002
100002
100003
100003
100003
100004
100004
99977.7
99978.1
99978.6
99979
99979.5
99979.9
99980.3
99980.6
99981
99981.3
99981.6
99981.9
99982.3
99982.6
99982.9
99983.1
99983.4
99983.7
99983.9
99984.2
99984.4
99984.6
99984.9
99985.1
99985.3
99985.6
99985.8
99986.1
99986.3
99986.6
99986.8
99987.1
99987.3
99987.6
99987.9
99988.2
99988.5
99988.8
99989.1
99989.4
99989.7
99990
99990.3
99990.6
99991
99991.3
99991.7
99992
99992.4
99992.7
99993.1
99993.5
99993.9
99994.3
99994.6
99995
99995.4
99995.8
99996.2
99996.6
99997
99997.4
99997.8
99998.3
99998.7
99999.1
99999.5
99999.9
100000
100001
100001
100002
100002
100002
100003
100003
100003
100004
100004
100005
99977.3
99977.4
99977.5
99977.7
99977.8
99977.9
99978.1
99978.3
99978.4
99978.6
99978.8
99979
99979.3
99979.5
99979.8
99980
99980.3
99980.6
99980.8
99981.1
99981.4
99981.7
99982
99982.4
99982.7
99983
99983.3
99983.7
99984
99984.4
99984.7
99985.1
99985.4
99985.8
99986.1
99986.5
99986.9
99987.3
99987.6
99988
99988.4
99988.8
99989.2
99989.6
99990
99990.3
99990.7
99991.2
99991.6
99992
99992.4
99992.8
99993.2
99993.6
99994.1
99994.5
99994.9
99995.3
99995.8
99996.2
99996.6
99997.1
99997.5
99997.9
99998.4
99998.8
99999.3
99999.7
100000
100001
100001
100002
100002
100002
100003
100003
100004
100004
100005
100005
99970.3
99970.9
99971.4
99971.9
99972.4
99972.9
99973.3
99973.8
99974.2
99974.6
99975
99975.4
99975.8
99976.2
99976.5
99976.9
99977.3
99977.7
99978
99978.4
99978.8
99979.1
99979.5
99979.9
99980.3
99980.7
99981
99981.4
99981.8
99982.2
99982.6
99983
99983.4
99983.9
99984.3
99984.7
99985.1
99985.6
99986
99986.4
99986.9
99987.3
99987.7
99988.2
99988.6
99989.1
99989.6
99990
99990.5
99990.9
99991.4
99991.9
99992.3
99992.8
99993.3
99993.8
99994.2
99994.7
99995.2
99995.7
99996.1
99996.6
99997.1
99997.6
99998.1
99998.5
99999
99999.5
100000
100000
100001
100001
100002
100002
100003
100003
100004
100004
100005
100005
99967.5
99967.9
99968.3
99968.6
99969
99969.4
99969.9
99970.3
99970.7
99971.1
99971.5
99972
99972.4
99972.8
99973.3
99973.7
99974.2
99974.6
99975.1
99975.5
99975.9
99976.4
99976.9
99977.3
99977.8
99978.2
99978.7
99979.1
99979.6
99980.1
99980.5
99981
99981.5
99982
99982.4
99982.9
99983.4
99983.9
99984.4
99984.9
99985.3
99985.8
99986.3
99986.8
99987.3
99987.8
99988.3
99988.9
99989.4
99989.9
99990.4
99990.9
99991.4
99991.9
99992.5
99993
99993.5
99994
99994.6
99995.1
99995.6
99996.1
99996.7
99997.2
99997.7
99998.2
99998.8
99999.3
99999.8
100000
100001
100001
100002
100002
100003
100003
100004
100005
100005
100006
99962.2
99962.8
99963.4
99963.9
99964.5
99965.1
99965.7
99966.2
99966.8
99967.3
99967.8
99968.4
99968.9
99969.4
99969.9
99970.5
99971
99971.5
99972
99972.6
99973.1
99973.6
99974.1
99974.6
99975.2
99975.7
99976.2
99976.8
99977.3
99977.8
99978.4
99978.9
99979.4
99980
99980.5
99981
99981.6
99982.1
99982.7
99983.2
99983.8
99984.3
99984.9
99985.4
99986
99986.6
99987.1
99987.7
99988.2
99988.8
99989.4
99989.9
99990.5
99991.1
99991.6
99992.2
99992.8
99993.3
99993.9
99994.5
99995.1
99995.6
99996.2
99996.8
99997.4
99997.9
99998.5
99999.1
99999.6
100000
100001
100001
100002
100002
100003
100004
100004
100005
100005
100006
99958.4
99958.9
99959.5
99960.1
99960.7
99961.3
99961.9
99962.5
99963.1
99963.7
99964.3
99964.8
99965.4
99966
99966.6
99967.2
99967.8
99968.4
99969
99969.6
99970.2
99970.8
99971.4
99972
99972.5
99973.1
99973.7
99974.3
99974.9
99975.5
99976.1
99976.7
99977.3
99977.9
99978.5
99979.1
99979.7
99980.3
99980.9
99981.6
99982.2
99982.8
99983.4
99984
99984.6
99985.2
99985.8
99986.4
99987.1
99987.7
99988.3
99988.9
99989.5
99990.2
99990.8
99991.4
99992
99992.6
99993.3
99993.9
99994.5
99995.1
99995.7
99996.4
99997
99997.6
99998.2
99998.8
99999.5
100000
100001
100001
100002
100003
100003
100004
100004
100005
100006
100006
99953.6
99954.3
99955
99955.7
99956.4
99957.1
99957.8
99958.5
99959.2
99959.9
99960.6
99961.2
99961.9
99962.6
99963.2
99963.9
99964.6
99965.2
99965.9
99966.6
99967.2
99967.9
99968.6
99969.2
99969.9
99970.5
99971.2
99971.9
99972.5
99973.2
99973.9
99974.5
99975.2
99975.8
99976.5
99977.2
99977.8
99978.5
99979.2
99979.8
99980.5
99981.2
99981.8
99982.5
99983.2
99983.8
99984.5
99985.2
99985.9
99986.5
99987.2
99987.9
99988.5
99989.2
99989.9
99990.6
99991.2
99991.9
99992.6
99993.2
99993.9
99994.6
99995.3
99995.9
99996.6
99997.3
99997.9
99998.6
99999.3
99999.9
100001
100001
100002
100003
100003
100004
100005
100005
100006
100006
99949.4
99950.1
99950.9
99951.7
99952.4
99953.2
99953.9
99954.7
99955.4
99956.2
99956.9
99957.6
99958.4
99959.1
99959.9
99960.6
99961.3
99962.1
99962.8
99963.5
99964.3
99965
99965.7
99966.5
99967.2
99967.9
99968.6
99969.4
99970.1
99970.8
99971.5
99972.3
99973
99973.7
99974.5
99975.2
99975.9
99976.6
99977.4
99978.1
99978.8
99979.5
99980.3
99981
99981.7
99982.4
99983.2
99983.9
99984.6
99985.3
99986.1
99986.8
99987.5
99988.3
99989
99989.7
99990.4
99991.1
99991.9
99992.6
99993.3
99994
99994.8
99995.5
99996.2
99996.9
99997.6
99998.3
99999.1
99999.8
100000
100001
100002
100003
100003
100004
100005
100005
100006
100007
99944.8
99945.7
99946.5
99947.4
99948.2
99949
99949.9
99950.7
99951.5
99952.4
99953.2
99954
99954.8
99955.6
99956.4
99957.3
99958.1
99958.9
99959.7
99960.5
99961.3
99962.1
99962.9
99963.7
99964.5
99965.3