/*--------------------------------*- C++ -*----------------------------------*\
  =========                 |
  \\      /  F ield         | OpenFOAM: The Open Source CFD Toolbox
   \\    /   O peration     | Website:  https://openfoam.org
    \\  /    A nd           | Version:  9
     \\/     M anipulation  |
\*---------------------------------------------------------------------------*/
FoamFile
{
    format      ascii;
    class       surfaceScalarField;
    location    "0.0025";
    object      phi;
}
// * * * * * * * * * * * * * * * * * * * * * * * * * * * * * * * * * * * * * //

dimensions      [1 0 -1 0 0 0 0];

internalField   nonuniform List<scalar> 
16645
(
-0.322621
0.000885638
-0.322525
0.000879716
-0.322426
0.000873799
-0.322325
0.000867895
-0.322219
0.000862005
-0.322111
0.000856128
-0.321998
0.000850265
-0.321882
0.000844416
-0.321762
0.000838581
-0.321638
0.000832759
-0.321509
0.000826951
-0.321375
0.000821158
-0.321237
0.000815381
-0.321094
0.000809631
-0.320945
0.000803955
-0.320791
0.000798441
-0.320632
0.000792915
-0.320467
0.000787392
-0.320295
0.000781875
-0.320117
0.000776363
-0.319933
0.00077086
-0.319741
0.000765366
-0.319542
0.000759882
-0.319335
0.000754409
-0.31912
0.000748948
-0.318896
0.0007435
-0.318664
0.000738065
-0.318422
0.000732644
-0.31817
0.00072723
-0.317908
0.000721813
-0.317636
0.000716418
-0.317353
0.000711088
-0.317057
0.000705532
0.000698536
-0.316749
-0.31094
0.000889352
-0.310943
0.000882142
-0.310944
0.000874869
-0.310943
0.00086754
-0.310941
0.000860151
-0.310938
0.0008527
-0.310933
0.000845183
-0.310926
0.000837597
-0.310917
0.000829937
-0.310907
0.000822201
-0.310894
0.000814383
-0.31088
0.000806483
-0.310863
0.000798507
-0.310844
0.00079051
-0.310822
0.00078257
-0.310798
0.000774555
-0.310772
0.000766436
-0.310743
0.00075815
-0.31071
0.000749715
-0.310675
0.000741121
-0.310637
0.000732371
-0.310595
0.000723459
-0.310549
0.000714377
-0.3105
0.000705118
-0.310447
0.000695674
-0.310389
0.000686036
-0.310327
0.000676195
-0.310261
0.000666139
-0.31019
0.000655861
-0.310113
0.000645346
-0.310031
0.000634569
-0.309944
0.000623455
-0.30985
0.00061179
0.000599294
-0.309751
-0.288607
0.000881898
-0.2886
0.000875113
-0.288594
0.000868319
-0.288588
0.000861525
-0.288582
0.00085473
-0.288578
0.000847936
-0.288574
0.000841144
-0.28857
0.000834352
-0.288568
0.000827563
-0.288567
0.000820776
-0.288566
0.000813992
-0.288567
0.000807213
-0.288569
0.000800451
-0.288572
0.000793751
-0.288577
0.00078715
-0.288583
0.000780458
-0.28859
0.000773799
-0.288599
0.000767109
-0.28861
0.000760409
-0.288622
0.000753695
-0.288637
0.000746977
-0.288654
0.000740254
-0.288673
0.000733527
-0.288694
0.000726796
-0.288719
0.000720062
-0.288746
0.000713327
-0.288777
0.00070659
-0.28881
0.00069985
-0.288847
0.000693104
-0.288888
0.000686342
-0.288933
0.000679566
-0.288983
0.000672764
-0.289037
0.000665867
0.000658251
-0.289096
-0.26944
0.000861717
-0.26942
0.000854175
-0.269398
0.000846616
-0.269375
0.000839049
-0.269352
0.000831474
-0.269328
0.000823894
-0.269303
0.000816307
-0.269278
0.000808715
-0.269251
0.00080112
-0.269224
0.000793521
-0.269196
0.00078592
-0.269167
0.000778317
-0.269137
0.000770715
-0.269107
0.000763114
-0.269075
0.000755515
-0.269042
0.000747918
-0.269009
0.000740325
-0.268975
0.000732737
-0.268939
0.000725155
-0.268903
0.000717581
-0.268866
0.000710017
-0.268828
0.000702463
-0.26879
0.000694923
-0.26875
0.000687397
-0.26871
0.000679888
-0.268669
0.000672398
-0.268628
0.000664928
-0.268585
0.000657483
-0.268542
0.000650063
-0.268499
0.000642649
-0.268454
0.00063524
-0.268409
0.000627864
-0.268364
0.000620511
0.000613305
-0.268319
-0.251291
0.000857941
-0.251287
0.000850218
-0.251283
0.000842487
-0.251279
0.000834757
-0.251275
0.000827029
-0.25127
0.000819305
-0.251265
0.000811586
-0.25126
0.000803873
-0.251255
0.000796166
-0.25125
0.000788468
-0.251245
0.000780779
-0.25124
0.0007731
-0.251235
0.000765432
-0.251229
0.000757777
-0.251224
0.000750134
-0.251219
0.000742505
-0.251213
0.000734891
-0.251208
0.000727293
-0.251202
0.000719711
-0.251197
0.000712147
-0.251191
0.0007046
-0.251186
0.000697073
-0.251181
0.000689566
-0.251175
0.000682081
-0.25117
0.000674618
-0.251165
0.000667179
-0.25116
0.000659763
-0.251155
0.000652371
-0.25115
0.000645004
-0.251145
0.000637663
-0.25114
0.000630345
-0.251135
0.000623009
-0.25113
0.000615542
0.000607356
-0.251124
-0.234189
0.00084366
-0.234174
0.000835262
-0.234158
0.000826862
-0.234142
0.00081847
-0.234125
0.00081009
-0.234108
0.000801721
-0.234089
0.000793366
-0.234071
0.000785026
-0.234051
0.000776703
-0.234031
0.000768399
-0.23401
0.000760115
-0.233989
0.000751852
-0.233967
0.000743611
-0.233945
0.000735395
-0.233922
0.000727204
-0.233898
0.00071904
-0.233874
0.000710904
-0.23385
0.000702798
-0.233825
0.000694724
-0.2338
0.000686685
-0.233774
0.000678697
-0.233747
0.000670815
-0.233721
0.000662973
-0.233694
0.000655154
-0.233667
0.000647373
-0.233639
0.000639633
-0.233611
0.000631934
-0.233583
0.00062428
-0.233555
0.000616671
-0.233526
0.000609105
-0.233498
0.000601577
-0.233469
0.000594082
-0.23344
0.000586531
0.000578634
-0.233411
-0.218805
0.000835915
-0.218797
0.000826724
-0.218788
0.000817548
-0.218778
0.000808433
-0.218767
0.000799391
-0.218756
0.000790357
-0.218744
0.000781336
-0.218731
0.000772331
-0.218717
0.000763343
-0.218703
0.000754373
-0.218689
0.000745422
-0.218673
0.000736495
-0.218657
0.000727596
-0.218641
0.000718723
-0.218623
0.000709879
-0.218605
0.000701059
-0.218587
0.000692249
-0.218567
0.000683402
-0.218547
0.000674508
-0.218526
0.000665644
-0.218504
0.000656845
-0.218482
0.000648166
-0.218458
0.000639549
-0.218434
0.000631001
-0.218409
0.000622566
-0.218384
0.000614167
-0.218358
0.000605809
-0.218331
0.000597496
-0.218303
0.000589227
-0.218275
0.000581006
-0.218247
0.000572835
-0.218217
0.000564702
-0.218187
0.000556586
0.000548377
-0.218157
-0.20392
0.000821829
-0.203905
0.000811745
-0.203889
0.000801683
-0.203873
0.000791688
-0.203855
0.000781771
-0.203836
0.000771871
-0.203817
0.000761994
-0.203797
0.000752144
-0.203776
0.000742324
-0.203754
0.000732548
-0.203732
0.000722868
-0.203708
0.000713295
-0.203684
0.000703698
-0.20366
0.000694167
-0.203635
0.00068465
-0.203609
0.000675174
-0.203582
0.000665708
-0.203555
0.000656196
-0.203527
0.00064654
-0.203498
0.000636812
-0.203469
0.000627173
-0.203438
0.000617627
-0.203407
0.000608214
-0.203375
0.000599007
-0.203342
0.000589918
-0.203309
0.000580883
-0.203275
0.000571909
-0.20324
0.000562997
-0.203205
0.000554149
-0.20317
0.000545364
-0.203133
0.000536643
-0.203097
0.000527995
-0.20306
0.000519432
0.000511024
-0.203022
-0.190355
0.00080867
-0.190341
0.000797527
-0.190326
0.00078641
-0.190309
0.000775326
-0.190292
0.000764277
-0.190273
0.000753264
-0.190254
0.00074229
-0.190233
0.000731357
-0.190211
0.000720469
-0.190188
0.000709638
-0.190164
0.000698915
-0.190139
0.000688305
-0.190113
0.000677684
-0.190086
0.000667139
-0.190058
0.000656621
-0.190029
0.000646162
-0.189999
0.000635743
-0.189968
0.000625358
-0.189937
0.000614923
-0.189904
0.000604449
-0.189871
0.000594064
-0.189837
0.000583769
-0.189803
0.000573598
-0.189767
0.0005636
-0.189731
0.000553666
-0.189694
0.000543807
-0.189656
0.000534022
-0.189617
0.000524314
-0.189578
0.000514683
-0.189538
0.000505132
-0.189497
0.000495663
-0.189455
0.000486274
-0.189412
0.000476968
0.000467748
-0.189369
-0.177521
0.000804339
-0.177504
0.000791976
-0.177486
0.000779643
-0.177467
0.000767352
-0.177447
0.000755104
-0.177425
0.000742903
-0.177403
0.000730752
-0.177379
0.000718651
-0.177354
0.000706605
-0.177329
0.000694616
-0.177302
0.000682685
-0.177274
0.000670816
-0.177244
0.00065901
-0.177214
0.000647268
-0.177182
0.000635593
-0.17715
0.000623987
-0.177116
0.000612453
-0.177081
0.000600991
-0.177045
0.000589605
-0.177009
0.000578296
-0.176971
0.000567067
-0.176933
0.000555924
-0.176894
0.000544866
-0.176855
0.000533899
-0.176814
0.000523022
-0.176773
0.000512236
-0.17673
0.000501543
-0.176687
0.000490946
-0.176644
0.000480445
-0.176599
0.000470042
-0.176553
0.000459738
-0.176507
0.000449534
-0.176461
0.000439438
-0.176413
0.000429458
0.000419645
-0.176365
-0.165706
0.000787512
-0.165688
0.000773775
-0.165669
0.000760079
-0.165648
0.000746434
-0.165625
0.000732844
-0.165602
0.000719313
-0.165577
0.000705842
-0.165551
0.000692436
-0.165523
0.000679098
-0.165494
0.00066583
-0.165464
0.000652635
-0.165433
0.000639517
-0.1654
0.000626478
-0.165367
0.000613521
-0.165332
0.000600648
-0.165296
0.000587863
-0.165258
0.000575167
-0.16522
0.000562564
-0.16518
0.000550055
-0.16514
0.000537643
-0.165098
0.000525332
-0.165055
0.000513123
-0.165011
0.000501019
-0.164966
0.000489023
-0.164921
0.000477137
-0.164874
0.000465363
-0.164826
0.000453703
-0.164777
0.000442159
-0.164727
0.000430734
-0.164677
0.000419428
-0.164625
0.000408244
-0.164573
0.000397184
-0.16452
0.00038625
-0.164466
0.000375449
0.000364811
-0.164411
-0.154626
0.000767998
-0.154605
0.000752751
-0.154583
0.000737557
-0.154559
0.000722428
-0.154533
0.000707368
-0.154506
0.00069238
-0.154478
0.000677469
-0.154448
0.000662639
-0.154417
0.000647892
-0.154384
0.000633233
-0.15435
0.000618665
-0.154315
0.000604192
-0.154278
0.000589817
-0.15424
0.000575544
-0.154201
0.000561375
-0.15416
0.000547315
-0.154119
0.000533366
-0.154076
0.000519532
-0.154031
0.000505815
-0.153986
0.000492219
-0.153939
0.000478746
-0.153892
0.0004654
-0.153843
0.000452183
-0.153793
0.000439098
-0.153742
0.000426148
-0.15369
0.000413334
-0.153637
0.00040066
-0.153583
0.000388127
-0.153528
0.000375739
-0.153472
0.000363497
-0.153415
0.000351402
-0.153357
0.000339458
-0.153299
0.00032767
-0.153239
0.000316049
0.000304644
-0.153179
-0.144371
0.000746306
-0.144347
0.000729384
-0.144322
0.000712529
-0.144296
0.000695754
-0.144267
0.000679065
-0.144237
0.000662464
-0.144206
0.000645957
-0.144173
0.000629549
-0.144138
0.000613243
-0.144102
0.000597045
-0.144064
0.000580957
-0.144025
0.000564985
-0.143984
0.000549133
-0.143942
0.000533404
-0.143899
0.000517803
-0.143854
0.000502334
-0.143807
0.000486999
-0.143759
0.000471804
-0.14371
0.000456752
-0.14366
0.000441846
-0.143608
0.00042709
-0.143555
0.000412487
-0.143501
0.000398041
-0.143446
0.000383754
-0.143389
0.000369631
-0.143332
0.000355673
-0.143273
0.000341883
-0.143213
0.000328265
-0.143152
0.000314822
-0.14309
0.000301554
-0.143027
0.000288467
-0.142963
0.000275561
-0.142899
0.000262841
-0.142833
0.000250318
0.000238037
-0.142766
-0.134789
0.000721978
-0.134763
0.00070324
-0.134735
0.000684586
-0.134705
0.000666031
-0.134674
0.000647579
-0.13464
0.000629235
-0.134605
0.000611005
-0.134569
0.000592894
-0.13453
0.000574907
-0.13449
0.000557049
-0.134449
0.000539325
-0.134406
0.000521741
-0.134361
0.0005043
-0.134314
0.000487008
-0.134266
0.000469869
-0.134217
0.000452889
-0.134166
0.000436071
-0.134114
0.00041942
-0.13406
0.00040294
-0.134005
0.000386636
-0.133948
0.000370512
-0.13389
0.000354572
-0.133831
0.000338819
-0.13377
0.000323257
-0.133709
0.000307891
-0.133646
0.000292724
-0.133582
0.000277759
-0.133516
0.000262999
-0.13345
0.000248448
-0.133383
0.000234108
-0.133314
0.000219984
-0.133245
0.000206077
-0.133174
0.000192393
-0.133103
0.000178946
0.000165791
-0.133031
-0.125886
0.000695167
-0.125857
0.000674469
-0.125826
0.000653875
-0.125794
0.000633398
-0.125759
0.000613045
-0.125723
0.000592821
-0.125684
0.000572732
-0.125644
0.000552785
-0.125602
0.000532985
-0.125559
0.000513337
-0.125513
0.000493849
-0.125466
0.000474526
-0.125417
0.000455372
-0.125366
0.000436395
-0.125314
0.000417599
-0.12526
0.00039899
-0.125205
0.000380573
-0.125148
0.000362354
-0.125089
0.000344337
-0.125029
0.000326528
-0.124967
0.000308931
-0.124904
0.000291552
-0.12484
0.000274395
-0.124774
0.000257465
-0.124707
0.000240767
-0.124639
0.000224303
-0.124569
0.00020808
-0.124498
0.000192101
-0.124426
0.000176369
-0.124353
0.000160888
-0.124278
0.000145662
-0.124203
0.000130695
-0.124127
0.000115993
-0.124049
0.000101569
8.748e-05
-0.123971
-0.117574
0.000665763
-0.117543
0.000642985
-0.117509
0.000620333
-0.117474
0.000597818
-0.117436
0.000575448
-0.117397
0.00055323
-0.117355
0.00053117
-0.117312
0.000509275
-0.117266
0.000487552
-0.117219
0.000466007
-0.11717
0.000444647
-0.117119
0.000423479
-0.117066
0.000402509
-0.117011
0.000381743
-0.116955
0.000361188
-0.116896
0.000340851
-0.116837
0.000320738
-0.116775
0.000300854
-0.116712
0.000281206
-0.116647
0.000261801
-0.116581
0.000242643
-0.116513
0.00022374
-0.116444
0.000205096
-0.116373
0.000186718
-0.116301
0.00016861
-0.116227
0.000150778
-0.116153
0.000133228
-0.116076
0.000115964
-0.115999
9.89903e-05
-0.11592
8.23125e-05
-0.115841
6.59347e-05
-0.11576
4.98616e-05
-0.115678
3.41e-05
-0.115595
1.86663e-05
3.62315e-06
-0.115511
-0.10983
0.000633916
-0.109796
0.000608954
-0.10976
0.000584139
-0.109721
0.000559483
-0.109681
0.000534993
-0.109638
0.000510678
-0.109594
0.000486543
-0.109547
0.000462597
-0.109498
0.000438847
-0.109448
0.000415301
-0.109395
0.000391965
-0.10934
0.000368848
-0.109284
0.000345957
-0.109225
0.000323299
-0.109165
0.000300882
-0.109103
0.000278713
-0.109039
0.0002568
-0.108973
0.000235149
-0.108906
0.00021377
-0.108837
0.000192668
-0.108766
0.000171851
-0.108693
0.000151326
-0.108619
0.0001311
-0.108544
0.000111181
-0.108467
9.15746e-05
-0.108388
7.2288e-05
-0.108308
5.33275e-05
-0.108227
3.46995e-05
-0.108145
1.641e-05
-0.108061
-1.53508e-06
-0.107976
-1.91301e-05
-0.107889
-3.63691e-05
-0.107802
-5.32443e-05
-0.107714
-6.97379e-05
-8.57829e-05
-0.107624
-0.102597
0.000599745
-0.10256
0.000572526
-0.102522
0.000545475
-0.102481
0.000518602
-0.102438
0.000491917
-0.102392
0.000465427
-0.102345
0.000439139
-0.102295
0.000413062
-0.102244
0.000387204
-0.10219
0.000361572
-0.102134
0.000336176
-0.102077
0.000311023
-0.102017
0.000286121
-0.101955
0.00026148
-0.101891
0.000237108
-0.101825
0.000213014
-0.101758
0.000189206
-0.101688
0.000165693
-0.101617
0.000142485
-0.101544
0.00011959
-0.101469
9.70165e-05
-0.101393
7.47743e-05
-0.101314
5.28719e-05
-0.101234
3.13181e-05
-0.101153
1.01214e-05
-0.10107
-1.07095e-05
-0.100986
-3.11665e-05
-0.1009
-5.12412e-05
-0.100812
-7.0926e-05
-0.100724
-9.02131e-05
-0.100634
-0.000109095
-0.100542
-0.000127564
-0.10045
-0.000145611
-0.100357
-0.000163216
-0.000180306
-0.100262
-0.0958443
0.000563533
-0.0958057
0.000534013
-0.095765
0.000504679
-0.0957219
0.000475543
-0.0956766
0.000446611
-0.0956291
0.000417892
-0.0955793
0.000389394
-0.0955274
0.000361124
-0.0954733
0.000333092
-0.095417
0.000305305
-0.0953586
0.000277773
-0.0952981
0.000250505
-0.0952355
0.000223511
-0.0951708
0.0001968
-0.0951041
0.000170382
-0.0950353
0.000144268
-0.0949646
0.000118468
-0.0948919
9.29915e-05
-0.0948172
6.78508e-05
-0.0947407
4.30564e-05
-0.0946623
1.86193e-05
-0.0945821
-5.44919e-06
-0.0945001
-2.9138e-05
-0.0944163
-5.24358e-05
-0.0943309
-7.53315e-05
-0.0942438
-9.78141e-05
-0.094155
-0.000119873
-0.0940648
-0.000141496
-0.093973
-0.000162675
-0.0938799
-0.000183398
-0.0937853
-0.000203656
-0.0936894
-0.000223438
-0.0935923
-0.000242734
-0.093494
-0.000261519
-0.000279717
-0.0933946
-0.0895333
0.000525602
-0.0894931
0.000493778
-0.0894506
0.000462155
-0.0894058
0.000430742
-0.0893587
0.000399547
-0.0893094
0.000368576
-0.0892578
0.000337837
-0.089204
0.00030734
-0.089148
0.000277091
-0.0890898
0.000247101
-0.0890294
0.000217378
-0.0889669
0.000187932
-0.0889021
0.000158775
-0.0888352
0.000129917
-0.0887662
0.00010137
-0.0886951
7.31448e-05
-0.0886219
4.52549e-05
-0.0885466
1.77129e-05
-0.0884693
-9.46811e-06
-0.08839
-3.62744e-05
-0.0883087
-6.26921e-05
-0.0882254
-8.87071e-05
-0.0881402
-0.000114305
-0.0880532
-0.000139471
-0.0879643
-0.000164191
-0.0878737
-0.00018845
-0.0877813
-0.000212235
-0.0876873
-0.000235529
-0.0875917
-0.00025832
-0.0874945
-0.000280594
-0.0873958
-0.000302337
-0.0872957
-0.000323536
-0.0871942
-0.000344175
-0.0870915
-0.000364228
-0.000383614
-0.0869876
-0.0836344
0.000486387
-0.0835929
0.000452297
-0.0835491
0.000418414
-0.0835031
0.000384749
-0.0834549
0.000351306
-0.0834044
0.000318092
-0.0833517
0.000285114
-0.0832967
0.000252378
-0.0832395
0.000219894
-0.0831801
0.00018767
-0.0831184
0.000155716
-0.0830546
0.000124043
-0.0829884
9.26616e-05
-0.0829201
6.15852e-05
-0.0828496
3.08266e-05
-0.0827768
3.99638e-07
-0.0827019
-2.96808e-05
-0.0826248
-5.93993e-05
-0.0825455
-8.87395e-05
-0.0824641
-0.000117684
-0.0823806
-0.000146217
-0.082295
-0.000174318
-0.0822073
-0.00020197
-0.0821176
-0.000229153
-0.0820259
-0.000255848
-0.0819324
-0.000282037
-0.0818369
-0.000307699
-0.0817396
-0.000332816
-0.0816406
-0.000357368
-0.0815398
-0.000381337
-0.0814374
-0.000404704
-0.0813335
-0.000427451
-0.0812282
-0.000449559
-0.0811214
-0.000470995
-0.000491672
-0.0810133
-0.0781163
0.000446369
-0.0780741
0.000410093
-0.0780297
0.000374026
-0.0779832
0.000338174
-0.0779344
0.000302539
-0.0778834
0.000267125
-0.0778303
0.000231938
-0.0777749
0.000196985
-0.0777172
0.000162272
-0.0776574
0.000127808
-0.0775953
9.36031e-05
-0.0775309
5.96679e-05
-0.0774642
2.6015e-05
-0.0773953
-7.34218e-06
-0.0773241
-4.03887e-05
-0.0772506
-7.31082e-05
-0.0771748
-0.000105483
-0.0770967
-0.000137496
-0.0770163
-0.000169124
-0.0769336
-0.000200349
-0.0768487
-0.000231147
-0.0767615
-0.000261495
-0.0766721
-0.000291369
-0.0765805
-0.000320745
-0.0764868
-0.000349597
-0.0763909
-0.000377899
-0.076293
-0.000405625
-0.0761931
-0.00043275
-0.0760912
-0.000459247
-0.0759874
-0.000485091
-0.0758819
-0.000510257
-0.0757746
-0.000534719
-0.0756657
-0.000558452
-0.0755553
-0.000581418
-0.000603521
-0.0754434
-0.0729524
0.000406082
-0.0729101
0.000367749
-0.0728656
0.000329615
-0.0728191
0.000291681
-0.0727706
0.000253947
-0.0727198
0.000216414
-0.072667
0.000179085
-0.072612
0.000141964
-0.0725548
0.000105057
-0.0724953
6.83703e-05
-0.0724336
3.19145e-05
-0.0723697
-4.30016e-06
-0.0723034
-4.02609e-05
-0.0722348
-7.5953e-05
-0.0721638
-0.00011136
-0.0720904
-0.000146463
-0.0720147
-0.000181241
-0.0719365
-0.000215673
-0.0718559
-0.000249732
-0.0717729
-0.000283395
-0.0716874
-0.000316631
-0.0715995
-0.000349412
-0.0715091
-0.000381707
-0.0714164
-0.000413483
-0.0713213
-0.000444707
-0.0712238
-0.000475344
-0.0711241
-0.000505361
-0.0710221
-0.000534721
-0.070918
-0.000563389
-0.0708117
-0.000591331
-0.0707035
-0.000618512
-0.0705933
-0.000644899
-0.0704813
-0.000670455
-0.0703676
-0.000695135
-0.000718834
-0.0702523
-0.0681168
0.000366074
-0.0680749
0.000325857
-0.0680311
0.000285816
-0.0679854
0.000245948
-0.0679377
0.000206248
-0.067888
0.000166714
-0.0678362
0.000127343
-0.0677824
8.81372e-05
-0.0677264
4.90996e-05
-0.0676683
1.02355e-05
-0.0676079
-2.84476e-05
-0.0675453
-6.69395e-05
-0.0674803
-0.000105228
-0.067413
-0.000143297
-0.0673432
-0.000181129
-0.067271
-0.000218703
-0.0671962
-0.000255994
-0.0671189
-0.000292977
-0.067039
-0.000329622
-0.0669565
-0.000365896
-0.0668714
-0.000401765
-0.0667836
-0.000437191
-0.0666932
-0.000472134
-0.0666001
-0.000506553
-0.0665044
-0.000540403
-0.0664061
-0.00057364
-0.0663053
-0.000606217
-0.0662019
-0.000638086
-0.0660961
-0.000669201
-0.0659879
-0.000699514
-0.0658774
-0.000728977
-0.0657648
-0.000757544
-0.0656501
-0.000785169
-0.0655334
-0.000811792
-0.000837301
-0.065415
-0.0635866
0.000326892
-0.0635457
0.000285004
-0.0635031
0.000243258
-0.0634588
0.000201642
-0.0634127
0.000160148
-0.0633648
0.000118765
-0.0633149
7.74877e-05
-0.0632631
3.63132e-05
-0.0632093
-4.75977e-06
-0.0631533
-4.57294e-05
-0.0630951
-8.65908e-05
-0.0630347
-0.000127336
-0.062972
-0.000167952
-0.0629069
-0.000208426
-0.0628393
-0.000248737
-0.0627691
-0.000288862
-0.0626963
-0.000328776
-0.0626209
-0.000368446
-0.0625427
-0.000407838
-0.0624616
-0.000446913
-0.0623778
-0.000485628
-0.062291
-0.000523936
-0.0622014
-0.000561787
-0.0621088
-0.000599127
-0.0620133
-0.000635899
-0.0619149
-0.000672045
-0.0618136
-0.000707502
-0.0617095
-0.000742208
-0.0616026
-0.000776098
-0.061493
-0.000809109
-0.0613808
-0.000841177
-0.0612661
-0.000872238
-0.061149
-0.000902229
-0.0610298
-0.000931078
-0.000958653
-0.0609084
-0.0593407
0.000289045
-0.0593015
0.000245737
-0.0592607
0.000202522
-0.0592185
0.000159382
-0.0591746
0.000116299
-0.0591291
7.32566e-05
-0.0590819
3.02434e-05
-0.0590328
-1.27507e-05
-0.0589818
-5.57323e-05
-0.0589289
-9.87045e-05
-0.0588738
-0.000141666
-0.0588165
-0.000184613
-0.0587569
-0.000227536
-0.0586949
-0.00027042
-0.0586304
-0.000313247
-0.0585633
-0.000355994
-0.0584934
-0.00039863
-0.0584208
-0.000441121
-0.0583452
-0.000483427
-0.0582666
-0.000525501
-0.0581849
-0.000567292
-0.0581001
-0.000608742
-0.0580121
-0.000649789
-0.0579209
-0.000690364
-0.0578264
-0.000730396
-0.0577286
-0.000769806
-0.0576276
-0.000808516
-0.0575234
-0.00084644
-0.057416
-0.000883496
-0.0573055
-0.000919595
-0.057192
-0.000954652
-0.0570757
-0.000988582
-0.0569566
-0.0010213
-0.056835
-0.00105271
-0.00108267
-0.0567109
-0.0553605
0.00025299
-0.0553233
0.000208541
-0.055285
0.000164124
-0.0552453
0.000119712
-0.0552043
7.5278e-05
-0.0551618
3.07976e-05
-0.0551178
-1.37498e-05
-0.0550722
-5.8382e-05
-0.0550248
-0.000103113
-0.0549755
-0.000147952
-0.0549243
-0.000192906
-0.0548709
-0.000237973
-0.0548153
-0.000283151
-0.0547573
-0.000328427
-0.0546968
-0.000373785
-0.0546336
-0.000419202
-0.0545676
-0.000464647
-0.0544986
-0.000510083
-0.0544266
-0.000555464
-0.0543513
-0.000600739
-0.0542728
-0.000645845
-0.0541908
-0.000690713
-0.0541053
-0.000735268
-0.0540163
-0.000779425
-0.0539236
-0.000823091
-0.0538272
-0.00086617
-0.0537272
-0.000908557
-0.0536235
-0.000950143
-0.0535161
-0.000990816
-0.0534053
-0.00103046
-0.053291
-0.00106896
-0.0531733
-0.0011062
-0.0530526
-0.00114207
-0.0529288
-0.00117645
-0.00120916
-0.0528023
-0.051629
0.000219105
-0.0515943
0.000173815
-0.0515586
0.000128485
-0.051522
8.30787e-05
-0.0514843
3.75573e-05
-0.0514454
-8.11298e-06
-0.0514051
-5.39632e-05
-0.0513635
-0.000100021
-0.0513203
-0.000146309
-0.0512754
-0.000192847
-0.0512287
-0.000239649
-0.0511799
-0.000286722
-0.051129
-0.000334069
-0.0510757
-0.000381686
-0.05102
-0.000429558
-0.0509615
-0.000477667
-0.0509002
-0.000525984
-0.0508358
-0.000574469
-0.0507682
-0.000623074
-0.0506972
-0.000671742
-0.0506226
-0.000720402
-0.0505444
-0.000768973
-0.0504623
-0.000817365
-0.0503762
-0.000865474
-0.0502861
-0.000913187
-0.0501919
-0.000960381
-0.0500935
-0.00100692
-0.049991
-0.00105267
-0.0498843
-0.00109748
-0.0497736
-0.0011412
-0.0496589
-0.00118368
-0.0495403
-0.00122475
-0.0494181
-0.00126428
-0.0492925
-0.00130209
-0.00133799
-0.0491636
-0.0481307
0.00018768
-0.0480988
0.00014186
-0.0480662
9.59211e-05
-0.0480329
4.98132e-05
-0.0479989
3.48734e-06
-0.0479639
-4.31024e-05
-0.0479278
-8.99989e-05
-0.0478906
-0.000137241
-0.0478521
-0.000184865
-0.047812
-0.0002329
-0.0477703
-0.000281371
-0.0477267
-0.000330298
-0.0476811
-0.000379692
-0.0476332
-0.000429558
-0.0475829
-0.000479891
-0.0475299
-0.000530677
-0.047474
-0.000581892
-0.0474149
-0.0006335
-0.0473526
-0.000685452
-0.0472866
-0.000737686
-0.0472169
-0.000790125
-0.0471432
-0.00084268
-0.0470653
-0.000895243
-0.0469831
-0.000947692
-0.0468964
-0.00099989
-0.0468051
-0.00105168
-0.0467091
-0.00110291
-0.0466084
-0.00115338
-0.0465029
-0.00120292
-0.0463928
-0.00125132
-0.0462781
-0.00129838
-0.046159
-0.0013439
-0.0460356
-0.00138766
-0.0459082
-0.00142947
-0.00146908
-0.0457771
-0.0448518
0.000158908
-0.0448228
0.000112872
-0.0447935
6.66317e-05
-0.0447638
2.01245e-05
-0.0447336
-2.67111e-05
-0.0447028
-7.39342e-05
-0.0446712
-0.000121601
-0.0446386
-0.000169764
-0.044605
-0.000218473
-0.0445701
-0.000267772
-0.0445338
-0.000317699
-0.0444958
-0.000368289
-0.044456
-0.000419566
-0.044414
-0.000471547
-0.0443696
-0.000524241
-0.0443226
-0.000577644
-0.0442728
-0.000631741
-0.0442198
-0.000686502
-0.0441634
-0.000741883
-0.0441032
-0.000797823
-0.0440391
-0.000854242
-0.0439708
-0.000911041
-0.0438979
-0.000968102
-0.0438203
-0.00102528
-0.0437378
-0.00108242
-0.0436501
-0.00113933
-0.0435572
-0.00119581
-0.043459
-0.00125163
-0.0433554
-0.00130655
-0.0432464
-0.00136031
-0.0431321
-0.00141266
-0.0430127
-0.00146331
-0.0428884
-0.00151199
-0.0427594
-0.00155844
-0.00160235
-0.0426261
-0.0417793
0.000132889
-0.0417533
8.69434e-05
-0.0417274
4.0706e-05
-0.0417014
-5.89871e-06
-0.0416752
-5.29457e-05
-0.0416486
-0.000100508
-0.0416215
-0.000148656
-0.0415938
-0.000197458
-0.0415653
-0.00024698
-0.0415358
-0.000297281
-0.0415051
-0.000348418
-0.0414729
-0.000400442
-0.0414391
-0.000453395
-0.0414034
-0.000507312
-0.0413654
-0.000562217
-0.0413249
-0.000618124
-0.0412816
-0.000675031
-0.0412352
-0.000732923
-0.0411853
-0.000791764
-0.0411316
-0.000851501
-0.0410738
-0.000912057
-0.0410115
-0.000973328
-0.0409444
-0.00103519
-0.0408722
-0.00109748
-0.0407946
-0.00116001
-0.0407114
-0.00122257
-0.0406223
-0.0012849
-0.0405272
-0.00134674
-0.040426
-0.00140777
-0.0403186
-0.00146766
-0.0402052
-0.00152608
-0.0400859
-0.00158266
-0.0399608
-0.00163705
-0.0398304
-0.00168889
-0.00173779
-0.0396949
-0.0389015
0.000109637
-0.0388786
6.40719e-05
-0.038856
1.81293e-05
-0.0388336
-2.82798e-05
-0.0388113
-7.52439e-05
-0.038789
-0.00012285
-0.0387665
-0.000171186
-0.0387436
-0.000220335
-0.0387202
-0.00027038
-0.0386961
-0.0003214
-0.038671
-0.000373473
-0.0386448
-0.000426667
-0.0386171
-0.000481049
-0.0385878
-0.000536674
-0.0385564
-0.000593589
-0.0385227
-0.000651829
-0.0384863
-0.000711416
-0.0384469
-0.000772352
-0.038404
-0.000834621
-0.0383573
-0.000898184
-0.0383064
-0.000962973
-0.0382509
-0.00102889
-0.0381902
-0.00109581
-0.0381242
-0.00116355
-0.0380522
-0.00123192
-0.0379741
-0.00130066
-0.0378896
-0.00136948
-0.0377983
-0.00143803
-0.0377001
-0.00150595
-0.0375949
-0.00157282
-0.0374828
-0.0016382
-0.0373638
-0.00170161
-0.0372383
-0.00176261
-0.0371065
-0.00182069
-0.00187539
-0.0369689
-0.0362073
8.90888e-05
-0.0361874
4.41733e-05
-0.036168
-1.20215e-06
-0.0361492
-4.71384e-05
-0.0361307
-9.37374e-05
-0.0361124
-0.000141101
-0.0360943
-0.000189332
-0.0360761
-0.000238532
-0.0360577
-0.000288803
-0.0360388
-0.000340245
-0.0360193
-0.000392955
-0.035999
-0.000447028
-0.0359775
-0.000502554
-0.0359545
-0.000559615
-0.0359298
-0.000618287
-0.035903
-0.000678633
-0.0358737
-0.000740703
-0.0358416
-0.000804528
-0.0358061
-0.000870119
-0.0357668
-0.000937461
-0.0357233
-0.00100651
-0.035675
-0.00107718
-0.0356214
-0.00114935
-0.0355621
-0.00122284
-0.0354966
-0.00129745
-0.0354244
-0.00137288
-0.0353451
-0.00144881
-0.0352583
-0.00152482
-0.0351638
-0.00160047
-0.0350614
-0.00167524
-0.034951
-0.00174855
-0.0348328
-0.00181982
-0.034707
-0.00188843
-0.0345739
-0.00195376
-0.00201516
-0.0344341
-0.0336864
7.1124e-05
-0.0336693
2.70978e-05
-0.0336531
-1.74633e-05
-0.0336375
-6.26718e-05
-0.0336226
-0.000108642
-0.0336082
-0.000155491
-0.0335942
-0.000203337
-0.0335805
-0.000252298
-0.0335668
-0.000302497
-0.0335529
-0.000354054
-0.0335388
-0.000407092
-0.0335241
-0.000461729
-0.0335086
-0.000518085
-0.0334919
-0.000576274
-0.0334738
-0.000636403
-0.0334539
-0.00069857
-0.0334317
-0.000762862
-0.0334069
-0.000829348
-0.0333789
-0.000898075
-0.0333473
-0.000969066
-0.0333115
-0.00104231
-0.033271
-0.00111774
-0.033225
-0.00119528
-0.0331731
-0.00127475
-0.0331146
-0.00135593
-0.033049
-0.00143853
-0.0329756
-0.00152217
-0.0328941
-0.00160639
-0.0328039
-0.00169064
-0.0327048
-0.00177429
-0.0325968
-0.00185662
-0.0324797
-0.00193689
-0.0323539
-0.00201428
-0.0322197
-0.00208797
-0.00215713
-0.0320777
-0.031329
5.55765e-05
-0.0313145
1.26483e-05
-0.0313011
-3.08809e-05
-0.0312887
-7.51339e-05
-0.0312771
-0.000120237
-0.0312662
-0.00016632
-0.0312561
-0.000213516
-0.0312464
-0.000261962
-0.0312371
-0.000311797
-0.031228
-0.000363168
-0.0312189
-0.000416218
-0.0312095
-0.000471094
-0.0311996
-0.000527946
-0.031189
-0.000586923
-0.0311772
-0.000648169
-0.031164
-0.000711823
-0.0311488
-0.000778017
-0.0311313
-0.000846864
-0.0311109
-0.000918463
-0.0310871
-0.000992882
-0.0310592
-0.00107016
-0.0310267
-0.00115028
-0.0309888
-0.00123319
-0.0309448
-0.00131876
-0.0308939
-0.00140678
-0.0308355
-0.00149695
-0.0307688
-0.00158886
-0.0306932
-0.00168201
-0.0306081
-0.00177575
-0.030513
-0.00186933
-0.0304078
-0.00196186
-0.0302923
-0.00205237
-0.0301668
-0.00213985
-0.0300315
-0.0022232
-0.00230134
-0.0298873
-0.0291258
4.22523e-05
-0.0291137
5.9712e-07
-0.0291029
-4.17148e-05
-0.0290932
-8.48152e-05
-0.0290846
-0.000128841
-0.029077
-0.000173933
-0.0290703
-0.00022024
-0.0290643
-0.000267914
-0.029059
-0.00031711
-0.0290542
-0.000367994
-0.0290496
-0.000420757
-0.0290452
-0.00047554
-0.0290406
-0.000532544
-0.0290356
-0.000591951
-0.0290298
-0.000653946
-0.0290229
-0.000718715
-0.0290145
-0.000786437
-0.0290041
-0.000857283
-0.0289911
-0.000931409
-0.028975
-0.00100895
-0.0289552
-0.00109
-0.0289309
-0.00117462
-0.0289013
-0.0012628
-0.0288655
-0.00135448
-0.0288228
-0.00144948
-0.0287723
-0.00154752
-0.0287129
-0.0016482
-0.028644
-0.00175096
-0.0285646
-0.00185508
-0.0284743
-0.00195966
-0.0283725
-0.00206364
-0.0282591
-0.0021658
-0.0281341
-0.00226482
-0.027998
-0.0023593
-0.0024478
-0.0278516
-0.0270678
3.09422e-05
-0.0270579
-9.29864e-06
-0.0270494
-5.02408e-05
-0.0270422
-9.20242e-05
-0.0270362
-0.000134794
-0.0270315
-0.000178699
-0.0270278
-0.000223901
-0.0270251
-0.000270576
-0.0270234
-0.000318886
-0.0270223
-0.000369025
-0.0270219
-0.000421165
-0.0270219
-0.000475547
-0.0270221
-0.000532363
-0.0270222
-0.000591837
-0.027022
-0.000654198
-0.027021
-0.000719679
-0.0270189
-0.000788518
-0.0270153
-0.000860946
-0.0270095
-0.000937189
-0.027001
-0.00101745
-0.0269891
-0.00110192
-0.0269729
-0.00119073
-0.0269518
-0.00128397
-0.0269246
-0.00138163
-0.0268905
-0.00148363
-0.0268483
-0.00158973
-0.0267969
-0.00169955
-0.0267353
-0.00181252
-0.0266626
-0.00192786
-0.0265777
-0.00204454
-0.02648
-0.00216129
-0.0263692
-0.00227659
-0.0262452
-0.0023888
-0.0261085
-0.00249607
-0.00259652
-0.0259597
-0.0251466
2.14343e-05
-0.0251386
-1.72834e-05
-0.0251321
-5.67361e-05
-0.0251271
-9.707e-05
-0.0251234
-0.000138436
-0.0251211
-0.000180995
-0.0251201
-0.000224917
-0.0251203
-0.000270372
-0.0251216
-0.000317571
-0.025124
-0.000366701