/*--------------------------------*- C++ -*----------------------------------*\
  =========                 |
  \\      /  F ield         | OpenFOAM: The Open Source CFD Toolbox
   \\    /   O peration     | Website:  https://openfoam.org
    \\  /    A nd           | Version:  9
     \\/     M anipulation  |
\*---------------------------------------------------------------------------*/
FoamFile
{
    format      ascii;
    class       surfaceScalarField;
    location    "0.0025";
    object      phi;
}
// * * * * * * * * * * * * * * * * * * * * * * * * * * * * * * * * * * * * * //

dimensions      [1 0 -1 0 0 0 0];

internalField   nonuniform List<scalar> 
12503
(
-0.295603
-0.304856
-0.335898
-0.305199
-0.376149
-0.305399
-0.416378
-0.30552
-0.456599
-0.30561
-0.496819
-0.305692
-0.537043
-0.30577
-0.577278
-0.305849
-0.617529
-0.305928
-0.6578
-0.306008
-0.698096
-0.306087
-0.73842
-0.306166
-0.778776
-0.306243
-0.819168
-0.306319
-0.8596
-0.306392
-0.900077
-0.306465
-0.940603
-0.306536
-0.981182
-0.306607
-1.02183
-0.30668
-1.06256
-0.306758
-1.1034
-0.306845
-1.14438
-0.306932
-1.18554
-0.307033
-1.22689
-0.307163
-0.307318
-1.26844
-0.269262
-0.30478
-0.269681
-0.340275
-0.269904
-0.375757
-0.270037
-0.411244
-0.270124
-0.446748
-0.270187
-0.482279
-0.270239
-0.517842
-0.270286
-0.55344
-0.27033
-0.589074
-0.270373
-0.624746
-0.270415
-0.660456
-0.270456
-0.696204
-0.270495
-0.73199
-0.270532
-0.767815
-0.270567
-0.803681
-0.270599
-0.839588
-0.270628
-0.87554
-0.270655
-0.911542
-0.270678
-0.947603
-0.270698
-0.983737
-0.270711
-1.01995
-0.270716
-1.05627
-0.270715
-1.09271
-0.270721
-0.270729
-1.1293
-0.271236
-0.238159
-0.302731
-0.238409
-0.3342
-0.238568
-0.365656
-0.238667
-0.397114
-0.238729
-0.428585
-0.238769
-0.460077
-0.238793
-0.491598
-0.23881
-0.523151
-0.23882
-0.554739
-0.238827
-0.586365
-0.23883
-0.61803
-0.23883
-0.649735
-0.238827
-0.681481
-0.238821
-0.713268
-0.238811
-0.745098
-0.238798
-0.776972
-0.238782
-0.808888
-0.238762
-0.840846
-0.238739
-0.872845
-0.238713
-0.904878
-0.238683
-0.936943
-0.23865
-0.969044
-0.23862
-0.238588
-1.00118
-0.245642
-0.210375
-0.273409
-0.210642
-0.30116
-0.210816
-0.328902
-0.210925
-0.356642
-0.210989
-0.384389
-0.211022
-0.41215
-0.211033
-0.439931
-0.211029
-0.467738
-0.211013
-0.495575
-0.21099
-0.523445
-0.21096
-0.551351
-0.210925
-0.579294
-0.210884
-0.607276
-0.210839
-0.635298
-0.21079
-0.66336
-0.210736
-0.691463
-0.210679
-0.719607
-0.210618
-0.747793
-0.210553
-0.776021
-0.210485
-0.804291
-0.210413
-0.8326
-0.21034
-0.86095
-0.21027
-0.210198
-0.88934
-0.222692
-0.185823
-0.247232
-0.186103
-0.271757
-0.186292
-0.296269
-0.186413
-0.320775
-0.186483
-0.345281
-0.186516
-0.369793
-0.18652
-0.394319
-0.186503
-0.418863
-0.18647
-0.443429
-0.186424
-0.468021
-0.186368
-0.492643
-0.186303
-0.517295
-0.186232
-0.541981
-0.186154
-0.5667
-0.18607
-0.591455
-0.185982
-0.616244
-0.185889
-0.64107
-0.185792
-0.665931
-0.185692
-0.690828
-0.185588
-0.71576
-0.185481
-0.740727
-0.185373
-0.765728
-0.185269
-0.185159
-0.790767
-0.203118
-0.164145
-0.224789
-0.164432
-0.246448
-0.164633
-0.268095
-0.164766
-0.289734
-0.164845
-0.311369
-0.164881
-0.333004
-0.164885
-0.354646
-0.164861
-0.376299
-0.164817
-0.397968
-0.164755
-0.419656
-0.16468
-0.441366
-0.164592
-0.463103
-0.164495
-0.484867
-0.16439
-0.50666
-0.164277
-0.528484
-0.164158
-0.550339
-0.164034
-0.572227
-0.163905
-0.594147
-0.163772
-0.6161
-0.163635
-0.638086
-0.163495
-0.660104
-0.163355
-0.682155
-0.163218
-0.163073
-0.704241
-0.185883
-0.144998
-0.205029
-0.145286
-0.224168
-0.145494
-0.243297
-0.145637
-0.262417
-0.145725
-0.28153
-0.145768
-0.300641
-0.145774
-0.319753
-0.145749
-0.338871
-0.145699
-0.357998
-0.145628
-0.377139
-0.145539
-0.396296
-0.145435
-0.415473
-0.145319
-0.434671
-0.145192
-0.453893
-0.145055
-0.473141
-0.144911
-0.492415
-0.14476
-0.511716
-0.144603
-0.531046
-0.144442
-0.550405
-0.144276
-0.569792
-0.144108
-0.589209
-0.143938
-0.608656
-0.143771
-0.143596
-0.628133
-0.170729
-0.128084
-0.187647
-0.128368
-0.204563
-0.128579
-0.221472
-0.128728
-0.238374
-0.128823
-0.25527
-0.128872
-0.272161
-0.128883
-0.289051
-0.12886
-0.305941
-0.128808
-0.322837
-0.128733
-0.33974
-0.128636
-0.356654
-0.128521
-0.373581
-0.128391
-0.390524
-0.128248
-0.407486
-0.128094
-0.424468
-0.127929
-0.441471
-0.127757
-0.458496
-0.127577
-0.475546
-0.127392
-0.49262
-0.127202
-0.509719
-0.127009
-0.526843
-0.126814
-0.543993
-0.12662
-0.126419
-0.561169
-0.157322
-0.113141
-0.172277
-0.113412
-0.187234
-0.113622
-0.202188
-0.113774
-0.217137
-0.113875
-0.232079
-0.11393
-0.247017
-0.113945
-0.261951
-0.113925
-0.276885
-0.113875
-0.291819
-0.113798
-0.306757
-0.113698
-0.321701
-0.113577
-0.336653
-0.113439
-0.351616
-0.113285
-0.366592
-0.113118
-0.381583
-0.112939
-0.39659
-0.11275
-0.411615
-0.112553
-0.426658
-0.112349
-0.441722
-0.112139
-0.456806
-0.111925
-0.471911
-0.111709
-0.487038
-0.111493
-0.111271
-0.502187
-0.145468
-0.0999379
-0.158686
-0.100195
-0.171911
-0.100397
-0.185138
-0.100547
-0.198363
-0.10065
-0.211584
-0.100709
-0.224801
-0.100729
-0.238013
-0.100713
-0.251223
-0.100665
-0.264433
-0.100589
-0.277642
-0.100488
-0.290855
-0.100365
-0.304072
-0.100222
-0.317295
-0.100062
-0.330527
-0.0998861
-0.343768
-0.0996972
-0.357021
-0.0994968
-0.370287
-0.0992868
-0.383567
-0.0990687
-0.396862
-0.0988439
-0.410173
-0.0986139
-0.423501
-0.098381
-0.436847
-0.0981474
-0.0979077
-0.45021
-0.135036
-0.0882757
-0.146716
-0.088516
-0.158406
-0.0887068
-0.170102
-0.0888509
-0.1818
-0.0889518
-0.193497
-0.0890117
-0.205193
-0.0890338
-0.216885
-0.0890211
-0.228574
-0.0889758
-0.240262
-0.0889016
-0.251949
-0.0888014
-0.263636
-0.0886776
-0.275326
-0.0885328
-0.287018
-0.0883692
-0.298715
-0.0881889
-0.310419
-0.087994
-0.322129
-0.0877862
-0.333849
-0.0875675
-0.345578
-0.0873396
-0.357318
-0.0871041
-0.369069
-0.0868623
-0.380833
-0.0866169
-0.392611
-0.0863698
-0.0861167
-0.404402
-0.12592
-0.136236
-0.0782009
-0.146565
-0.0783781
-0.156902
-0.0785133
-0.167245
-0.0786092
-0.17759
-0.0786668
-0.187935
-0.0786884
-0.19828
-0.0786765
-0.208623
-0.0786324
-0.218966
-0.0785595
-0.229307
-0.0784602
-0.239648
-0.0783369
-0.249989
-0.0781916
-0.260331
-0.0780267
-0.270676
-0.077844
-0.281025
-0.0776457
-0.291377
-0.0774335
-0.301736
-0.0772094
-0.3121
-0.0769752
-0.322472
-0.0767324
-0.332851
-0.0764827
-0.34324
-0.0762285
-0.353638
-0.0759719
-0.0757085
-0.364046
-0.127133
-0.0690989
-0.136251
-0.0692602
-0.14538
-0.0693841
-0.154518
-0.0694719
-0.16366
-0.0695242
-0.172806
-0.0695427
-0.181955
-0.0695281
-0.191104
-0.0694834
-0.200253
-0.0694105
-0.209402
-0.0693115
-0.21855
-0.0691883
-0.227699
-0.0690429
-0.236848
-0.0688773
-0.245999
-0.0686934
-0.255152
-0.0684932
-0.264307
-0.0682785
-0.273465
-0.0680512
-0.282627
-0.067813
-0.291794
-0.0675656
-0.300966
-0.0673108
-0.310144
-0.0670508
-0.319328
-0.0667877
-0.0665173
-0.328519
-0.119293
-0.0610775
-0.127332
-0.0612211
-0.135385
-0.0613314
-0.143449
-0.061408
-0.151522
-0.061451
-0.159602
-0.0614625
-0.167687
-0.0614437
-0.175774
-0.0613961
-0.183863
-0.0613214
-0.191953
-0.061221
-0.200045
-0.0610969
-0.208137
-0.0609506
-0.21623
-0.0607842
-0.224324
-0.0605992
-0.23242
-0.0603976
-0.240517
-0.0601812
-0.248617
-0.0599517
-0.256719
-0.059711
-0.264824
-0.0594607
-0.272932
-0.0592024
-0.281044
-0.0589386
-0.289161
-0.0586712
-0.0583977
-0.297281
-0.11258
-0.0540192
-0.119658
-0.054143
-0.126754
-0.0542356
-0.133864
-0.0542976
-0.140986
-0.0543296
-0.148116
-0.0543322
-0.155253
-0.0543064
-0.162396
-0.0542533
-0.169543
-0.0541742
-0.176694
-0.0540706
-0.183847
-0.0539437
-0.191002
-0.0537952
-0.19816
-0.0536268
-0.205319
-0.05344
-0.21248
-0.0532367
-0.219643
-0.0530184
-0.226808
-0.0527869
-0.233974
-0.0525441
-0.241144
-0.0522915
-0.248315
-0.0520308
-0.25549
-0.0517641
-0.262667
-0.0514939
-0.0512187
-0.269846
-0.106852
-0.0478156
-0.113077
-0.0479177
-0.11932
-0.0479919
-0.12558
-0.0480381
-0.131853
-0.0480564
-0.138138
-0.0480475
-0.144432
-0.0480119
-0.150735
-0.0479507
-0.157045
-0.0478647
-0.16336
-0.0477552
-0.16968
-0.0476234
-0.176005
-0.0474707
-0.182333
-0.0472986
-0.188665
-0.0471086
-0.194999
-0.0469023
-0.201336
-0.0466814
-0.207676
-0.0464474
-0.214018
-0.0462021
-0.220362
-0.0459472
-0.226708
-0.0456842
-0.233058
-0.0454149
-0.23941
-0.0451417
-0.0448651
-0.245763
-0.101953
-0.107418
-0.042453
-0.112903
-0.0425067
-0.118406
-0.0425346
-0.123926
-0.0425367
-0.12946
-0.0425134
-0.135007
-0.0424653
-0.140564
-0.0423931
-0.146131
-0.0422975
-0.151707
-0.0421796
-0.15729
-0.0420404
-0.162879
-0.0418813
-0.168474
-0.0417035
-0.174074
-0.0415085
-0.179679
-0.0412977
-0.185288
-0.0410727
-0.1909
-0.040835
-0.196516
-0.0405863
-0.202135
-0.0403283
-0.207756
-0.0400625
-0.213381
-0.0397906
-0.219008
-0.0395149
-0.0392358
-0.224637
-0.102532
-0.0376625
-0.107345
-0.0376941
-0.112178
-0.0377017
-0.117029
-0.0376853
-0.121897
-0.0376452
-0.126781
-0.0375819
-0.131678
-0.037496
-0.136587
-0.0373881
-0.141508
-0.0372591
-0.146438
-0.0371101
-0.151377
-0.0369421
-0.156324
-0.0367564
-0.161279
-0.0365541
-0.16624
-0.0363369
-0.171206
-0.036106
-0.176178
-0.035863
-0.181155
-0.0356096
-0.186136
-0.0353472
-0.191121
-0.0350775
-0.19611
-0.0348021
-0.201101
-0.0345231
-0.0342409
-0.206096
-0.0982764
-0.0334696
-0.102493
-0.0334775
-0.106732
-0.033463
-0.110991
-0.033426
-0.115269
-0.0333668
-0.119565
-0.0332859
-0.123877
-0.0331836
-0.128205
-0.0330608
-0.132546
-0.0329182
-0.136899
-0.0327566
-0.141264
-0.0325772
-0.14564
-0.032381
-0.150024
-0.0321693
-0.154418
-0.0319433
-0.158819
-0.0317045
-0.163228
-0.0314544
-0.167643
-0.0311944
-0.172064
-0.0309261
-0.176491
-0.0306511
-0.180922
-0.0303709
-0.185358
-0.0300875
-0.0298011
-0.189797
-0.0945175
-0.0982067
-0.0297883
-0.10192
-0.0297501
-0.105655
-0.0296907
-0.109412
-0.0296102
-0.113188
-0.0295093
-0.116983
-0.0293883
-0.120796
-0.029248
-0.124625
-0.0290891
-0.12847
-0.0289124
-0.132328
-0.028719
-0.136199
-0.0285098
-0.140082
-0.0282861
-0.143976
-0.0280491
-0.147881
-0.0278002
-0.151794
-0.0275407
-0.155717
-0.0272722
-0.159646
-0.0269962
-0.163583
-0.0267141
-0.167527
-0.0264276
-0.171476
-0.0261383
-0.0258465
-0.175431
-0.0943577
-0.0265645
-0.0976066
-0.0265012
-0.10088
-0.0264177
-0.104176
-0.0263141
-0.107494
-0.0261911
-0.110833
-0.0260492
-0.114192
-0.025889
-0.11757
-0.0257114
-0.120965
-0.0255172
-0.124377
-0.0253072
-0.127804
-0.0250826
-0.131246
-0.0248444
-0.134701
-0.024594
-0.138168
-0.0243326
-0.141648
-0.0240616
-0.145137
-0.0237824
-0.148637
-0.0234965
-0.152146
-0.0232055
-0.155662
-0.0229109
-0.159187
-0.022614
-0.0223153
-0.162718
-0.0908284
-0.0237493
-0.0936698
-0.0236599
-0.0965364
-0.023551
-0.0994277
-0.0234228
-0.102343
-0.023276
-0.105281
-0.0231113
-0.10824
-0.0229293
-0.111221
-0.0227308
-0.114222
-0.0225167
-0.117241
-0.0222879
-0.120278
-0.0220454
-0.123332
-0.0217905
-0.126402
-0.0215243
-0.129486
-0.0212481
-0.132585
-0.0209632
-0.135696
-0.0206712
-0.138819
-0.0203734
-0.141953
-0.0200714
-0.145097
-0.0197668
-0.148251
-0.0194606
-0.0191532
-0.151413
-0.0875114
-0.089997
-0.0211743
-0.0925087
-0.0210392
-0.0950461
-0.0208855
-0.0976084
-0.0207137
-0.100195
-0.0205246
-0.102805
-0.0203191
-0.105438
-0.0200979
-0.108093
-0.019862
-0.110768
-0.0196124
-0.113464
-0.01935
-0.116178
-0.0190762
-0.11891
-0.018792
-0.121659
-0.0184989
-0.124425
-0.0181981
-0.127205
-0.0178911
-0.129999
-0.0175793
-0.132806
-0.0172644
-0.135625
-0.0169479
-0.138455
-0.0166305
-0.0163128
-0.141295
-0.0864853
-0.0189967
-0.0886894
-0.0188351
-0.0909196
-0.0186553
-0.0931756
-0.0184577
-0.0954568
-0.0182434
-0.0977627
-0.0180132
-0.100093
-0.0177681
-0.102446
-0.0175089
-0.104821
-0.0172369
-0.107218
-0.016953
-0.109636
-0.0166584
-0.112073
-0.0163545
-0.11453
-0.0160426
-0.117004
-0.0157239
-0.119495
-0.0154001
-0.122002
-0.0150725
-0.124523
-0.0147429
-0.127059
-0.0144127
-0.129607
-0.0140824
-0.0137529
-0.132167
-0.0830398
-0.0849803
-0.0168946
-0.0869469
-0.0166887
-0.0889392
-0.0164654
-0.0909571
-0.0162255
-0.0930002
-0.0159701
-0.095068
-0.0157003
-0.0971598
-0.0154171
-0.099275
-0.0151216
-0.101413
-0.014815
-0.103573
-0.0144986
-0.105754
-0.0141736
-0.107955
-0.0138414
-0.110175
-0.0135035
-0.112414
-0.0131613
-0.11467
-0.0128164
-0.116943
-0.0124705
-0.11923
-0.0121252
-0.121532
-0.0117808
-0.0114385
-0.123846
-0.0812893
-0.0151775
-0.0830318
-0.0149462
-0.0847996
-0.0146976
-0.0865926
-0.0144325
-0.0884106
-0.0141521
-0.0902533
-0.0138576
-0.0921204
-0.0135501
-0.0940112
-0.0132308
-0.0959252
-0.012901
-0.0978617
-0.0125621
-0.09982
-0.0122153
-0.101799
-0.0118621
-0.103799
-0.0115041
-0.105817
-0.0111428
-0.107854
-0.0107797
-0.109908
-0.0104167
-0.111978
-0.0100552
-0.114062
-0.00969585
-0.00934007
-0.116161
-0.0775333
-0.0790876
-0.0133919
-0.0806659
-0.0131193
-0.0822681
-0.0128302
-0.0838945
-0.0125258
-0.0855449
-0.0122073
-0.0872189
-0.011876
-0.0889164
-0.0115334
-0.0906368
-0.0111806
-0.0923796
-0.0108193
-0.0941442
-0.0104508
-0.0959297
-0.0100766
-0.0977355
-0.00969836
-0.0995606
-0.00931765
-0.101404
-0.00893617
-0.103265
-0.00855565
-0.105143
-0.00817736
-0.107037
-0.00780235
-0.00743406
-0.108943
-0.0750386
-0.0764584
-0.0116996
-0.0779001
-0.0113885
-0.079364
-0.0110618
-0.0808503
-0.010721
-0.0823588
-0.0103675
-0.0838894
-0.0100028
-0.0854418
-0.00962827
-0.0870155
-0.00924555
-0.0886104
-0.00885591
-0.0902257
-0.00846124
-0.0918608
-0.00806326
-0.0935148
-0.00766369
-0.0951866
-0.00726438
-0.0968751
-0.00686716
-0.0985791
-0.00647331
-0.100298
-0.00608394
-0.00570374
-0.102028
-0.0721144
-0.0104119
-0.0734213
-0.0100817
-0.0747476
-0.00973555
-0.0760936
-0.00937505
-0.0774593
-0.00900174
-0.078845
-0.00861713
-0.0802506
-0.00822269
-0.0816758
-0.00782035
-0.0831198
-0.00741182
-0.0845822
-0.00699888
-0.0860622
-0.00658329
-0.087559
-0.00616693
-0.0890716
-0.00575172
-0.0905991
-0.00533965
-0.0921403
-0.00493216
-0.0936938
-0.00453045
-0.00414004
-0.0952575
-0.0675912
-0.0687837
-0.00888918
-0.069992
-0.00852734
-0.0712162
-0.00815081
-0.0724569
-0.00776102
-0.0737143
-0.00735979
-0.0749879
-0.00694909
-0.0762775
-0.00653074
-0.0775828
-0.00610658
-0.0789032
-0.00567851
-0.080238
-0.00524847
-0.0815865
-0.00481844
-0.0829477
-0.00439047
-0.0843208
-0.00396665
-0.0857042
-0.00354875
-0.0870963
-0.00313834
-0.00273979
-0.0884965
-0.0639778
-0.0650824
-0.00742273
-0.0661986
-0.00703461
-0.0673268
-0.00663284
-0.0684669
-0.00621971
-0.0696188
-0.00579717
-0.0707824
-0.00536719
-0.0719572
-0.00493179
-0.0731427
-0.00449301
-0.0743382
-0.00405294
-0.075543
-0.00361368
-0.0767561
-0.00317734
-0.0779766
-0.00274613
-0.0792032
-0.00232223
-0.0804338
-0.00190774
-0.00150516
-0.0816684
-0.0600528
-0.00641232
-0.06107
-0.00601747
-0.0620937
-0.00560908
-0.0631242
-0.00518921
-0.0641614
-0.00476006
-0.0652049
-0.00432369
-0.0662544
-0.00388226
-0.0673095
-0.00343793
-0.0683695
-0.00299296
-0.0694336
-0.00254957
-0.070501
-0.00210998
-0.0715707
-0.00167645
-0.0726414
-0.00125154
-0.0737113
-0.00083782
-0.000435946
-0.0747805
-0.0549808
-0.0559048
-0.00509352
-0.0568304
-0.00468341
-0.0577578
-0.0042619
-0.0586867
-0.00383107
-0.0596171
-0.00339338
-0.0605483
-0.00295104
-0.0614799
-0.00250634
-0.0624112
-0.0020616
-0.0633416
-0.00161917
-0.0642704
-0.00118128
-0.0651968
-0.000749992
-0.0661202
-0.000328137
-0.067039
8.0934e-05
0.000478285
-0.0679532
-0.0508375
-0.0516728
-0.00384806
-0.0525056
-0.00342912
-0.0533354
-0.00300131
-0.054162
-0.00256675
-0.0549852
-0.00212781
-0.0558047
-0.00168689
-0.05662
-0.00124628
-0.0574308
-0.000808407
-0.0582366
-0.000375474
-0.0590374
5.07769e-05
-0.0598329
0.000467382
-0.0606223
0.000870381
0.00126185
-0.0614059
-0.0467755
-0.00309435
-0.0475235
-0.00268106
-0.0482658
-0.00225908
-0.0490019
-0.00183064
-0.0497319
-0.00139783
-0.050456
-0.000962792
-0.0511742
-0.000528077
-0.0518866
-9.60295e-05
-0.0525933
0.000331225
-0.0532947
0.00075218
-0.0539913
0.001164
-0.0546835
0.00156252
0.00194972
-0.0553713
-0.0422806
-0.0429569
-0.00200474
-0.0436262
-0.00158985
-0.0442886
-0.00116824
-0.0449442
-0.000742206
-0.0455936
-0.000313453
-0.0462372
0.000115545
-0.0468757
0.000542443
-0.0475097
0.000965237
-0.0481401
0.00138262
-0.0487683
0.00179213
-0.0493951
0.00218933
0.00257587
-0.0500212
-0.0388984
-0.0395102
-0.000978118
-0.0401148
-0.000563569
-0.0407131
-0.000143972
-0.0413055
0.000278979
-0.0418931
0.000703139
-0.0424769
0.00112626
-0.0430581
0.00154637
-0.0436377
0.00196226
-0.0442177
0.00237212
-0.0448001
0.00277174
0.00316022
-0.0453845
-0.0359161
-0.0364746
-5.1416e-06
-0.0370267
0.000408146
-0.0375736
0.000825902
-0.0381165
0.00124602
-0.0386567
0.00166648
-0.0391956
0.00208529
-0.0397345
0.0025011
-0.0402758
0.0029134
-0.0408231
0.00331912
0.00371185
-0.0413748
-0.0333296
-0.0338416
0.00092013
-0.0343483
0.00133258
-0.0348512
0.00174895
-0.0353519
0.00216721
-0.0358519
0.00258528
-0.036353
0.0030022
-0.0368589
0.00341927
-0.0373734
0.00383362
0.00423225
-0.0378938
-0.0310976
-0.0315647
0.00179967
-0.032027
0.00221126
-0.0324861
0.00262635
-0.0329442
0.00304334
-0.0334037
0.00346168
-0.0338681
0.00388365
-0.0343388
0.00430438
0.00470852
-0.0348151
-0.0291466
0.00221907
-0.029557
0.00262168
-0.0299621
0.00303141
-0.0303627
0.00344395
-0.0307613
0.00386031
-0.0311612
0.00428351
-0.0315581
0.00470133
0.00510151
-0.0319511
-0.0269584
-0.0273022
0.00296549
-0.0276331
0.00336229
-0.0279515
0.0037624
-0.02826
0.00416881
-0.0285598
0.00458326
-0.0288473
0.00498883
0.00536121
-0.029107
-0.0251868
-0.0254142
-0.0256199
0.00396812
-0.0258001
0.00434905
-0.0259583
0.00474141
-0.0260889
0.00511948
0.00543986
-0.0261676
-0.0231963
-0.0232231
0.00437586
-0.0232024
0.00472066
-0.0231225
0.00503957
0.00529119
-0.0229738
-0.0205838
-0.0203048
0.00444162
-0.0199866
0.00472134
0.00492678
-0.0196222
-0.0171776
-0.0167274
-0.0161594
-1.26866
-0.00187564
-1.26888
-0.00187564
-1.2691
-0.00187565
-1.26932
-0.00187565
-1.26954
-0.00187565
-1.26976
-0.00187564
-1.26998
-0.00187564
-1.2702
-0.00187563
-1.27042
-0.00187561
-1.27063
-0.00187559
-1.27085
-0.00187558
-1.27107
-0.00187555
-1.27129
-0.00187553
-1.27151
-0.00187551
-1.27173
-0.00187548
-1.27195
-0.00187545
-1.27217
-0.00187542
-1.27239
-0.00187539
-1.27261
-0.00187535
-0.00187532
-1.27282
-1.12949
-0.00168371
-1.12969
-0.00168372
-1.12988
-0.00168372
-1.13007
-0.00168372
-1.13026
-0.00168372
-1.13045
-0.00168372
-1.13065
-0.00168372
-1.13084
-0.00168372
-1.13103
-0.00168372
-1.13122
-0.00168371
-1.13141
-0.00168371
-1.1316
-0.00168371
-1.1318
-0.0016837
-1.13199
-0.0016837
-1.13218
-0.00168369
-1.13237
-0.00168369
-1.13256
-0.00168368
-1.13276
-0.00168368
-1.13295
-0.00168368
-0.00168367
-1.13314
-1.00135
-0.00151535
-1.00152
-0.00151535
-1.00169
-0.00151536
-1.00186
-0.00151536
-1.00203
-0.00151536
-1.00219
-0.00151537
-1.00236
-0.00151537
-1.00253
-0.00151538
-1.0027
-0.00151538
-1.00287
-0.00151538
-1.00304
-0.00151538
-1.0032
-0.00151538
-1.00337
-0.00151539
-1.00354
-0.00151539
-1.00371
-0.00151539
-1.00388
-0.00151539
-1.00405
-0.0015154
-1.00421
-0.0015154
-1.00438
-0.00151541
-0.00151541
-1.00455
-0.889489
-0.00136665
-0.889637
-0.00136665
-0.889786
-0.00136666
-0.889935
-0.00136667
-0.890083
-0.00136667
-0.890232
-0.00136668
-0.890381
-0.00136669
-0.890529
-0.00136669
-0.890678
-0.0013667
-0.890827
-0.00136671
-0.890975
-0.00136672
-0.891124
-0.00136673
-0.891273
-0.00136673
-0.891421
-0.00136674
-0.89157
-0.00136676
-0.891719
-0.00136677
-0.891867
-0.00136678
-0.892016
-0.0013668
-0.892164
-0.00136681
-0.00136682
-0.892313
-0.790898
-0.00123552
-0.79103
-0.00123553
-0.791161
-0.00123554
-0.791292
-0.00123555
-0.791423
-0.00123555
-0.791554
-0.00123556
-0.791685
-0.00123557
-0.791816
-0.00123558
-0.791947
-0.00123559
-0.792079
-0.00123561
-0.79221
-0.00123561
-0.792341
-0.00123563
-0.792472
-0.00123564
-0.792603
-0.00123566
-0.792734
-0.00123567
-0.792865
-0.00123569
-0.792996
-0.00123571
-0.793127
-0.00123572
-0.793258
-0.00123575
-0.00123577
-0.793389
-0.704357
-0.00111991
-0.704472
-0.00111991
-0.704588
-0.00111992
-0.704704
-0.00111992
-0.704819
-0.00111994
-0.704935
-0.00111995
-0.705051
-0.00111995
-0.705166
-0.00111997
-0.705282
-0.00111998
-0.705397
-0.00112
-0.705513
-0.00112001
-0.705629
-0.00112003
-0.705744
-0.00112004
-0.70586
-0.00112006
-0.705975
-0.00112008
-0.706091
-0.0011201
-0.706207
-0.00112012
-0.706322
-0.00112014
-0.706438
-0.00112017
-0.00112019
-0.706553
-0.628235
-0.00101799
-0.628337
-0.00101799
-0.628439
-0.001018
-0.628541
-0.00101801
-0.628643
-0.00101801
-0.628745
-0.00101803
-0.628847
-0.00101804
-0.628949
-0.00101805
-0.629051
-0.00101806
-0.629153
-0.00101808
-0.629255
-0.00101809
-0.629356
-0.00101811
-0.629458
-0.00101813
-0.62956
-0.00101815
-0.629662
-0.00101817
-0.629764
-0.00101819
-0.629866
-0.00101821
-0.629968
-0.00101823
-0.63007
-0.00101826
-0.00101829
-0.630172
-0.561259
-0.000928157
-0.561349
-0.000928162
-0.561439
-0.000928169
-0.561529
-0.000928178
-0.561619
-0.000928186
-0.561708
-0.000928197
-0.561798
-0.000928207
-0.561888
-0.000928219
-0.561978
-0.000928232
-0.562068
-0.000928246
-0.562158
-0.000928261
-0.562247
-0.000928277
-0.562337
-0.000928295
-0.562427
-0.000928313
-0.562517
-0.000928332
-0.562607
-0.000928353
-0.562697
-0.000928374
-0.562786
-0.000928398
-0.562876
-0.000928421
-0.000928447
-0.562966
-0.502266
-0.000848994
-0.502345
-0.000848999
-0.502424
-0.000849006
-0.502503
-0.000849013
-0.502582
-0.000849022
-0.502662
-0.000849031
-0.502741
-0.000849041
-0.50282
-0.000849052
-0.502899
-0.000849063
-0.502978
-0.000849075
-0.503057
-0.000849088
-0.503137
-0.000849102
-0.503216
-0.000849117
-0.503295
-0.000849133
-0.503374
-0.00084915
-0.503453
-0.000849167
-0.503533
-0.000849186
-0.503612
-0.000849205
-0.503691
-0.000849226
-0.000849248
-0.50377
-0.45028
-0.000779235
-0.45035
-0.00077924
-0.45042
-0.000779246
-0.450489
-0.000779253
-0.450559
-0.00077926
-0.450629
-0.000779268
-0.450699
-0.000779276
-0.450768
-0.000779284
-0.450838
-0.000779293
-0.450908
-0.000779303
-0.450978
-0.000779313
-0.451048
-0.000779323
-0.451117
-0.000779334
-0.451187
-0.000779346
-0.451257
-0.000779358
-0.451327
-0.00077937
-0.451396
-0.000779384
-0.451466
-0.000779398
-0.451536
-0.000779412
-0.000779428
-0.451606
-0.404464
-0.000717764
-0.404525
-0.000717769
-0.404586
-0.000717776
-0.404648
-0.000717782
-0.404709
-0.000717787
-0.404771
-0.000717793
-0.404832
-0.000717799
-0.404894
-0.000717804
-0.404955
-0.00071781
-0.405017
-0.000717816
-0.405078
-0.000717821
-0.40514
-0.000717827
-0.405201
-0.000717833
-0.405263
-0.000717838
-0.405324
-0.000717844
-0.405386
-0.00071785
-0.405447
-0.000717856
-0.405509
-0.000717862
-0.40557
-0.000717869
-0.000717875
-0.405632
-0.3641
-0.000663596
-0.364154
-0.000663602
-0.364208
-0.000663607
-0.364262
-0.000663613
-0.364317
-0.000663617
-0.364371
-0.00066362
-0.364425
-0.000663623
-0.364479
-0.000663625
-0.364533
-0.000663627
-0.364588
-0.000663628
-0.364642
-0.000663628
-0.364696
-0.000663628
-0.36475
-0.000663627
-0.364804
-0.000663626
-0.364859
-0.000663625
-0.364913
-0.000663622
-0.364967
-0.00066362
-0.365021
-0.000663616
-0.365075
-0.000663613
-0.000663609
-0.36513
-0.328567
-0.000615859
-0.328614
-0.000615865
-0.328662
-0.000615871
-0.32871
-0.000615876
-0.328758
-0.000615878
-0.328805
-0.000615879
-0.328853
-0.000615879
-0.328901
-0.000615877
-0.328949
-0.000615874
-0.328996
-0.00061587
-0.329044
-0.000615864
-0.329092
-0.000615858
-0.32914
-0.000615849
-0.329187
-0.00061584
-0.329235
-0.000615829
-0.329283
-0.000615817
-0.329331
-0.000615805
-0.329379
-0.00061579
-0.329426
-0.000615775
-0.00061576
-0.329474
-0.297323
-0.000573786
-0.297365
-0.000573793
-0.297407
-0.000573799
-0.297449
-0.000573803
-0.297491
-0.000573804
-0.297533
-0.000573803
-0.297575
-0.000573799
-0.297617
-0.000573794
-0.297659
-0.000573786
-0.297701
-0.000573775
-0.297743
-0.000573763
-0.297786
-0.000573749
-0.297828
-0.000573732
-0.29787
-0.000573714
-0.297912
-0.000573694
-0.297954
-0.000573671
-0.297996
-0.000573647
-0.298038
-0.000573621
-0.298081
-0.000573593
-0.000573563
-0.298123
-0.269883
-0.000536699
-0.26992
-0.000536708
-0.269957
-0.000536715
-0.269994
-0.000536718
-0.270032
-0.000536717
-0.270069
-0.000536714
-0.270106
-0.000536707
-0.270143
-0.000536697
-0.27018
-0.000536684
-0.270217
-0.000536668
-0.270254
-0.000536648
-0.270291
-0.000536626
-0.270328
-0.0005366
-0.270366
-0.000536572
-0.270403
-0.000536541
-0.27044
-0.000536508
-0.270477
-0.000536471
-0.270514
-0.000536432
-0.270551
-0.00053639
-0.000536345
-0.270589
-0.245796
-0.000504
-0.245829
-0.000504009
-0.245862
-0.000504017
-0.245894
-0.000504021
-0.245927
-0.000504018
-0.24596
-0.000504012
-0.245992
-0.000504002
-0.246025
-0.000503988
-0.246058
-0.000503969
-0.24609
-0.000503946
-0.246123
-0.00050392
-0.246156
-0.000503889
-0.246189
-0.000503854
-0.246221
-0.000503816
-0.246254
-0.000503774
-0.246287
-0.000503728
-0.24632
-0.000503679
-0.246353
-0.000503626
-0.246385
-0.00050357
-0.000503509
-0.246418
-0.224666
-0.000475156
-0.224695
-0.000475168
-0.224724
-0.000475177
-0.224752
-0.00047518
-0.224781
-0.000475177
-0.22481
-0.000475169
-0.224839
-0.000475155
-0.224868
-0.000475136
-0.224897
-0.000475112
-0.224925
-0.000475083
-0.224954
-0.000475049
-0.224983
-0.00047501
-0.225012
-0.000474966
-0.225041
-0.000474917
-0.22507
-0.000474863
-0.225099
-0.000474805
-0.225128
-0.000474742
-0.225157
-0.000474675
-0.225186
-0.000474604
-0.000474528
-0.225215
-0.206122
-0.000449698
-0.206147
-0.000449712
-0.206173
-0.000449723
-0.206198
-0.000449726
-0.206223
-0.000449723
-0.206249
-0.000449712
-0.206274
-0.000449696
-0.2063
-0.000449673
-0.206325
-0.000449643
-0.206351
-0.000449607
-0.206376
-0.000449566
-0.206402
-0.000449518
-0.206427
-0.000449465
-0.206453
-0.000449405
-0.206478
-0.00044934
-0.206504
-0.00044927
-0.206529
-0.000449194
-0.206555
-0.000449113
-0.206581
-0.000449026
-0.000448934
-0.206606
-0.18982
-0.000427207
-0.189842
-0.000427224
-0.189865
-0.000427237
-0.189887
-0.000427241
-0.18991
-0.000427237
-0.189932
-0.000427225
-0.189955
-0.000427205
-0.189977
-0.000427178
-0.19
-0.000427144
-0.190022
-0.000427102
-0.190045
-0.000427053
-0.190067
-0.000426997
-0.19009
-0.000426934
-0.190112
-0.000426865
-0.190135
-0.000426789
-0.190158
-0.000426707
-0.19018
-0.000426618
-0.190203
-0.000426523
-0.190225
-0.000426423
-0.000426316
-0.190248
-0.17545
-0.00040731
-0.17547
-0.00040733
-0.17549
-0.000407345
-0.17551
-0.00040735
-0.17553
-0.000407346
-0.17555
-0.000407333
-0.17557
-0.00040731
-0.17559
-0.00040728
-0.17561
-0.000407241
-0.17563
-0.000407194
-0.175649
-0.000407138
-0.175669
-0.000407075
-0.175689
-0.000407004
-0.175709
-0.000406925
-0.175729
-0.000406839
-0.175749
-0.000406745
-0.175769
-0.000406645
-0.175789
-0.000406539
-0.175809
-0.000406425
-0.000406304
-0.175829
-0.162736
-0.000389673
-0.162753
-0.000389696
-0.162771
-0.000389714
-0.162788
-0.00038972
-0.162806
-0.000389716
-0.162824
-0.000389703
-0.162841
-0.000389679
-0.162859
-0.000389646
-0.162877
-0.000389603
-0.162894
-0.000389551
-0.162912
-0.00038949
-0.16293
-0.000389421
-0.162947
-0.000389343
-0.162965
-0.000389256
-0.162983
-0.000389161
-0.163
-0.000389059
-0.163018
-0.00038895
-0.163036
-0.000388833
-0.163053
-0.000388708
-0.000388576
-0.163071
-0.151428
-0.000373998
-0.151444
-0.000374025
-0.15146
-0.000374047
-0.151475
-0.000374055
-0.151491
-0.000374052
-0.151507
-0.000374038
-0.151522
-0.000374014
-0.151538
-0.000373979
-0.151554
-0.000373935
-0.151569
-0.00037388
-0.151585
-0.000373816
-0.151601
-0.000373742
-0.151616
-0.000373659
-0.151632
-0.000373568
-0.151648
-0.000373468
-0.151663
-0.000373359
-0.151679
-0.000373243
-0.151695
-0.00037312
-0.151711
-0.000372989
-0.000372849
-0.151726
-0.141309
-0.000360023
-0.141323
-0.000360053
-0.141337
-0.000360078
-0.141351
-0.000360089
-0.141365
-0.000360088
-0.141379
-0.000360076
-0.141393
-0.000360052
-0.141407
-0.000360018
-0.141421
-0.000359974
-0.141435
-0.000359918
-0.141449
-0.000359854
-0.141463
-0.000359779
-0.141477
-0.000359695
-0.141491
-0.000359603
-0.141505
-0.000359501
-0.141519
-0.000359392
-0.141533
-0.000359274
-0.141547
-0.00035915
-0.14156
-0.000359019
-0.000358878
-0.141574
-0.132179
-0.000347511
-0.132192
-0.000347544
-0.132204
-0.000347574
-0.132217
-0.000347588
-0.132229
-0.000347589
-0.132242
-0.00034758
-0.132254
-0.00034756
-0.132267
-0.000347529
-0.132279
-0.000347488
-0.132291
-0.000347437
-0.132304
-0.000347376
-0.132316
-0.000347305
-0.132329
-0.000347225
-0.132341
-0.000347137
-0.132354
-0.000347041
-0.132366
-0.000346937
-0.132379
-0.000346826
-0.132391
-0.000346709
-0.132404
-0.000346585
-0.000346453
-0.132416
-0.123857
-0.000336255
-0.123869
-0.000336292
-0.12388
-0.000336325
-0.123891
-0.000336343
-0.123902
-0.000336349
-0.123914
-0.000336346
-0.123925
-0.000336332
-0.123936
-0.000336309
-0.123947
-0.000336275
-0.123959
-0.000336232
-0.12397
-0.000336181
-0.123981
-0.000336121
-0.123992
-0.000336053
-0.124003
-0.000335977
-0.124014
-0.000335895
-0.124026
-0.000335807
-0.124037
-0.000335713
-0.124048
-0.000335614
-0.124059
-0.00033551
-0.000335399
-0.12407
-0.116171
-0.000326068
-0.116181
-0.000326107
-0.116191
-0.000326145
-0.116202
-0.000326169
-0.116212
-0.000326183
-0.116222
-0.000326187
-0.116232
-0.000326184
-0.116242
-0.000326172
-0.116252
-0.000326153
-0.116262
-0.000326126
-0.116273
-0.000326092
-0.116283
-0.000326052
-0.116293
-0.000326005
-0.116303
-0.000325953
-0.116313
-0.000325897
-0.116323
-0.000325836
-0.116333
-0.000325772
-0.116343
-0.000325705
-0.116352
-0.000325636
-0.000325563
-0.116362
-0.108952
-0.000316781
-0.108961
-0.000316822
-0.10897
-0.000316864
-0.10898
-0.000316896
-0.108989
-0.00031692
-0.108998
-0.000316938
-0.109007
-0.00031695
-0.109017
-0.000316956
-0.109026
-0.000316957
-0.109035
-0.000316954
-0.109044
-0.000316947
-0.109053
-0.000316936
-0.109062
-0.000316922
-0.109071
-0.000316906
-0.10908
-0.000316888
-0.109089
-0.00031687
-0.109098
-0.00031685
-0.109107
-0.000316832
-0.109116
-0.000316814
-0.000316795
-0.109125
-0.102036
-0.000308243
-0.102045
-0.000308287
-0.102053
-0.000308333
-0.102062
-0.000308375
-0.102071
-0.000308413
-0.102079