/*--------------------------------*- C++ -*----------------------------------*\
  =========                 |
  \\      /  F ield         | OpenFOAM: The Open Source CFD Toolbox
   \\    /   O peration     | Website:  https://openfoam.org
    \\  /    A nd           | Version:  9
     \\/     M anipulation  |
\*---------------------------------------------------------------------------*/
FoamFile
{
    format      ascii;
    class       volVectorField;
    location    "0.0025";
    object      U;
}
// * * * * * * * * * * * * * * * * * * * * * * * * * * * * * * * * * * * * * //

dimensions      [0 1 -1 0 0 0 0];

internalField   nonuniform List<vector> 
5071
(
(24.5118 -1.58109 -8.22846e-17)
(24.5043 -1.57409 8.23088e-17)
(24.4964 -1.56747 -8.23338e-17)
(24.488 -1.56128 0)
(24.4791 -1.55554 8.23878e-17)
(24.4698 -1.55027 -8.24165e-17)
(24.4599 -1.54551 -8.24469e-17)
(24.4494 -1.5413 8.24783e-17)
(24.4383 -1.53766 8.25118e-17)
(24.4266 -1.53464 -8.25463e-17)
(24.4141 -1.53228 0)
(24.401 -1.53062 0)
(24.387 -1.5297 -8.26619e-17)
(24.3722 -1.52958 8.2704e-17)
(24.3565 -1.53032 -4.13746e-17)
(24.3399 -1.53197 -1.99815e-22)
(24.3222 -1.5346 -2.11927e-22)
(24.3035 -1.53826 8.28978e-17)
(24.2838 -1.54302 -4.14763e-17)
(24.2627 -1.54895 0)
(24.2403 -1.55614 -2.07682e-17)
(24.2165 -1.56467 2.07843e-17)
(24.1922 -1.57462 0)
(24.167 -1.58609 -1.04099e-17)
(24.1354 -1.59918 1.04195e-17)
(24.0928 -1.61412 -5.21495e-18)
(24.0589 -1.63116 5.58082e-18)
(25.2768 -1.38592 -8.5988e-17)
(25.278 -1.36745 8.5989e-17)
(25.2789 -1.34864 -8.59905e-17)
(25.2796 -1.32948 0)
(25.28 -1.30993 0)
(25.2802 -1.28998 -8.6e-17)
(25.28 -1.2696 8.60046e-17)
(25.2796 -1.24874 0)
(25.2788 -1.22739 8.6017e-17)
(25.2777 -1.2055 -1.72049e-16)
(25.2761 -1.18303 8.60333e-17)
(25.2742 -1.15995 0)
(25.2719 -1.1362 0)
(25.2691 -1.11176 0)
(25.2659 -1.0866 0)
(25.2621 -1.06081 4.30477e-17)
(25.2578 -1.03503 -4.30558e-17)
(25.2529 -1.00825 4.3065e-17)
(25.2474 -0.980428 -4.30747e-17)
(25.2411 -0.951502 0)
(25.2341 -0.921405 0)
(25.2263 -0.89006 0)
(25.2176 -0.857378 0)
(25.2083 -0.823218 -1.07852e-17)
(25.1979 -0.787153 1.07895e-17)
(25.1852 -0.747906 0)
(25.1708 -0.702321 0)
(25.3608 -1.59232 9.15886e-17)
(25.3606 -1.57959 0)
(25.3605 -1.56688 9.1599e-17)
(25.3605 -1.55419 -9.1604e-17)
(25.3605 -1.5415 0)
(25.3606 -1.52882 -9.16133e-17)
(25.3608 -1.51615 1.83235e-16)
(25.3612 -1.50347 -1.83243e-16)
(25.3617 -1.49078 9.16247e-17)
(25.3624 -1.47808 0)
(25.3633 -1.46539 0)
(25.3644 -1.45283 4.58159e-17)
(25.3657 -1.44099 -4.58164e-17)
(25.3673 -1.42847 0)
(25.3692 -1.41613 4.58158e-17)
(25.3715 -1.40348 -4.5815e-17)
(25.374 -1.39074 -4.58137e-17)
(25.377 -1.37782 4.5812e-17)
(25.3803 -1.36473 -2.29048e-17)
(25.3841 -1.35144 2.29034e-17)
(25.3884 -1.33794 2.29016e-17)
(25.3932 -1.32419 -3.33968e-23)
(25.3987 -1.31017 -2.28969e-17)
(25.4047 -1.29576 1.14469e-17)
(25.4117 -1.28092 -1.14451e-17)
(25.4205 -1.26574 2.86074e-18)
(25.43 -1.25043 -3.03856e-18)
(25.5322 -1.40965 -1.94572e-16)
(25.5305 -1.39278 1.94592e-16)
(25.5286 -1.3759 -9.73066e-17)
(25.5266 -1.35909 0)
(25.5245 -1.34259 0)
(25.5222 -1.32605 0)
(25.5198 -1.30951 0)
(25.5172 -1.29295 4.86836e-17)
(25.5145 -1.27641 -9.73809e-17)
(25.5116 -1.25989 4.86975e-17)
(25.5086 -1.2434 0)
(25.5055 -1.22696 4.87126e-17)
(25.5022 -1.21059 5.89735e-23)
(25.4987 -1.19427 -4.87286e-17)
(25.4951 -1.17803 0)
(25.4913 -1.16189 0)
(25.4874 -1.14587 0)
(25.4834 -1.12997 -2.43819e-17)
(25.4792 -1.11424 4.87732e-17)
(25.4749 -1.09867 3.46462e-23)
(25.4704 -1.08327 3.5535e-23)
(25.4659 -1.06802 -2.44012e-17)
(25.4613 -1.05297 0)
(25.4567 -1.03819 1.22056e-17)
(25.4516 -1.02364 -1.22081e-17)
(25.4461 -1.00897 -3.05267e-18)
(25.4418 -0.992637 3.23732e-18)
(25.7188 -1.5269 1.03317e-16)
(25.7192 -1.51066 0)
(25.7196 -1.49439 -1.03327e-16)
(25.7199 -1.47808 1.03332e-16)
(25.7201 -1.46174 0)
(25.7203 -1.44536 0)
(25.7205 -1.42894 0)
(25.7206 -1.41247 -5.16764e-17)
(25.7206 -1.39596 5.16792e-17)
(25.7206 -1.37941 -5.16821e-17)
(25.7206 -1.36281 -1.76755e-23)
(25.7205 -1.34616 5.1688e-17)
(25.7204 -1.32946 -5.1691e-17)
(25.7203 -1.3127 5.16941e-17)
(25.7201 -1.29589 0)
(25.72 -1.27901 2.58501e-17)
(25.7198 -1.26207 -2.58516e-17)
(25.7196 -1.24507 -2.58532e-17)
(25.7194 -1.22799 -1.0804e-23)
(25.7192 -1.21084 2.58562e-17)
(25.719 -1.19362 0)
(25.7187 -1.1763 0)
(25.7184 -1.1589 0)
(25.718 -1.14141 0)
(25.7178 -1.12383 -6.46602e-18)
(25.7181 -1.10616 3.23321e-18)
(25.7176 -1.08845 3.41948e-18)
(25.867 -1.44068 0)
(25.8659 -1.42325 0)
(25.8646 -1.40587 0)
(25.8632 -1.38855 0)
(25.8617 -1.3713 -5.49282e-17)
(25.8601 -1.35412 5.49342e-17)
(25.8583 -1.33702 0)
(25.8564 -1.31999 5.49469e-17)
(25.8544 -1.30306 4.45362e-23)
(25.8523 -1.28622 -5.49602e-17)
(25.8501 -1.26949 0)
(25.8478 -1.25286 0)
(25.8454 -1.23639 0)
(25.8429 -1.22018 0)
(25.8403 -1.20417 0)
(25.8376 -1.18827 0)
(25.8349 -1.17249 0)
(25.832 -1.15684 -2.75104e-17)
(25.8292 -1.14132 2.75146e-17)
(25.8262 -1.12596 0)
(25.8232 -1.11074 0)
(25.8201 -1.09569 0)
(25.8171 -1.08078 0)
(25.814 -1.066 0)
(25.8107 -1.05128 -6.88518e-18)
(25.8073 -1.03642 3.44313e-18)
(25.8046 -1.02092 3.63372e-18)
(26.0526 -1.48768 5.82945e-17)
(26.0521 -1.46876 -5.82994e-17)
(26.0514 -1.44985 0)
(26.0505 -1.43096 5.83102e-17)
(26.0495 -1.41208 -5.83159e-17)
(26.0483 -1.39323 0)
(26.047 -1.3744 0)
(26.0456 -1.3556 0)
(26.044 -1.33683 0)
(26.0422 -1.31809 5.83486e-17)
(26.0403 -1.2994 -5.83558e-17)
(26.0382 -1.28074 0)
(26.036 -1.26214 0)
(26.0337 -1.24358 0)
(26.0312 -1.22507 0)
(26.0285 -1.20661 0)
(26.0257 -1.18822 0)
(26.0228 -1.16988 0)
(26.0197 -1.15161 0)
(26.0164 -1.13341 0)
(26.013 -1.11528 0)
(26.0094 -1.09724 0)
(26.0057 -1.07928 0)
(26.0018 -1.06141 0)
(25.9978 -1.04364 7.31044e-18)
(25.994 -1.02599 -3.65589e-18)
(25.9898 -1.00849 -3.84887e-18)
(26.2004 -1.44438 -1.23929e-16)
(26.199 -1.42432 6.19722e-17)
(26.1974 -1.40432 0)
(26.1956 -1.38439 -6.19883e-17)
(26.1936 -1.36454 1.23994e-16)
(26.1914 -1.34477 -6.20057e-17)
(26.189 -1.32508 0)
(26.1864 -1.30549 6.20245e-17)
(26.1837 -1.28599 6.78089e-23)
(26.1808 -1.2666 -6.20444e-17)
(26.1777 -1.24732 0)
(26.1745 -1.22814 -3.10329e-17)
(26.1711 -1.20909 3.10383e-17)
(26.1675 -1.19016 0)
(26.1638 -1.17136 0)
(26.1599 -1.15269 0)
(26.1558 -1.13415 0)
(26.1517 -1.11575 3.1068e-17)
(26.1474 -1.0975 -3.10742e-17)
(26.1429 -1.07938 0)
(26.1383 -1.06142 0)
(26.1336 -1.04361 0)
(26.1288 -1.02595 0)
(26.1238 -1.00845 7.77685e-18)
(26.1187 -0.991109 -7.77856e-18)
(26.1135 -0.973944 0)
(26.1085 -0.956989 0)
(26.3769 -1.45528 6.58081e-17)
(26.3753 -1.43313 -6.5817e-17)
(26.3735 -1.41104 0)
(26.3714 -1.38901 0)
(26.3691 -1.36704 0)
(26.3665 -1.34514 0)
(26.3637 -1.32333 6.58688e-17)
(26.3607 -1.3016 -3.29402e-17)
(26.3574 -1.27996 -3.29463e-17)
(26.3539 -1.25841 3.29526e-17)
(26.3502 -1.23697 4.98838e-23)
(26.3463 -1.21564 -3.29658e-17)
(26.3421 -1.19442 0)
(26.3377 -1.17332 3.29799e-17)
(26.3331 -1.15235 -3.29872e-17)
(26.3283 -1.13151 -3.29948e-17)
(26.3232 -1.11081 3.30025e-17)
(26.318 -1.09025 -1.65052e-17)
(26.3125 -1.06984 3.30185e-17)
(26.3069 -1.04959 -1.65134e-17)
(26.3011 -1.0295 -1.65176e-17)
(26.295 -1.00957 3.30439e-17)
(26.2888 -0.989808 -1.65263e-17)
(26.2824 -0.970227 0)
(26.2757 -0.95083 0)
(26.2691 -0.93163 0)
(26.2624 -0.91268 0)
(26.5414 -1.42702 6.99159e-17)
(26.5391 -1.40311 -1.39855e-16)
(26.5366 -1.37929 6.99399e-17)
(26.5338 -1.35556 -6.9953e-17)
(26.5307 -1.33193 6.99664e-17)
(26.5273 -1.30841 3.49903e-17)
(26.5236 -1.285 -3.49976e-17)
(26.5197 -1.26172 0)
(26.5155 -1.23857 0)
(26.511 -1.21556 3.50213e-17)
(26.5062 -1.19269 -3.50296e-17)
(26.5012 -1.16997 0)
(26.4959 -1.14741 0)
(26.4904 -1.12502 0)
(26.4846 -1.10279 0)
(26.4786 -1.08074 0)
(26.4723 -1.05887 0)
(26.4658 -1.03718 0)
(26.4591 -1.01569 0)
(26.4521 -0.994402 0)
(26.445 -0.973313 -1.75635e-17)
(26.4376 -0.952431 1.75689e-17)
(26.4301 -0.931761 0)
(26.4222 -0.911307 -8.7901e-18)
(26.4142 -0.891077 8.79294e-18)
(26.4061 -0.871087 0)
(26.3981 -0.851387 0)
(26.7231 -1.41938 0)
(26.7204 -1.39298 0)
(26.7173 -1.36667 0)
(26.7138 -1.34047 -3.71433e-17)
(26.71 -1.31438 3.71518e-17)
(26.7058 -1.28842 0)
(26.7013 -1.26259 0)
(26.6964 -1.2369 0)
(26.6912 -1.21136 0)
(26.6857 -1.18598 0)
(26.6798 -1.16077 0)
(26.6736 -1.13574 -3.72216e-17)
(26.6671 -1.11089 3.72328e-17)
(26.6603 -1.08623 0)
(26.6532 -1.06177 0)
(26.6458 -1.03752 0)
(26.6381 -1.01349 0)
(26.6301 -0.989684 0)
(26.6218 -0.966105 0)
(26.6133 -0.942763 1.86603e-17)
(26.6045 -0.919665 -1.86671e-17)
(26.5954 -0.896817 0)
(26.5861 -0.874225 0)
(26.5765 -0.851896 0)
(26.5666 -0.829838 0)
(26.5566 -0.808069 0)
(26.5467 -0.786648 0)
(26.9038 -1.39353 3.94168e-17)
(26.9003 -1.36468 -3.94262e-17)
(26.8964 -1.33595 0)
(26.892 -1.30736 0)
(26.8873 -1.27892 3.94573e-17)
(26.8821 -1.25064 -3.94685e-17)
(26.8765 -1.22252 0)
(26.8706 -1.19459 -3.94925e-17)
(26.8642 -1.16684 3.9505e-17)
(26.8574 -1.13929 0)
(26.8503 -1.11196 0)
(26.8428 -1.08484 3.95454e-17)
(26.8349 -1.05796 -3.95596e-17)
(26.8266 -1.03131 0)
(26.818 -1.00491 0)
(26.8091 -0.978763 0)
(26.7998 -0.952883 0)
(26.7902 -0.927275 1.98184e-17)
(26.7802 -0.901947 -1.98265e-17)
(26.77 -0.876906 9.91749e-18)
(26.7594 -0.852161 -9.92173e-18)
(26.7485 -0.827718 0)
(26.7374 -0.803583 -9.93055e-18)
(26.7259 -0.779764 9.93502e-18)
(26.7142 -0.756269 0)
(26.7023 -0.733119 0)
(26.6904 -0.710375 0)
(27.0954 -1.3741 4.18413e-17)
(27.0911 -1.34228 0)
(27.0863 -1.3106 0)
(27.0811 -1.27909 0)
(27.0753 -1.24775 -4.18922e-17)
(27.069 -1.21661 8.38127e-17)
(27.0622 -1.18566 -4.1921e-17)
(27.055 -1.15493 -4.19364e-17)
(27.0473 -1.12443 8.39044e-17)
(27.0391 -1.09417 -4.19685e-17)
(27.0305 -1.06416 -2.09927e-17)
(27.0215 -1.03441 4.20028e-17)
(27.012 -1.00494 -2.10103e-17)
(27.002 -0.975757 0)
(26.9917 -0.94687 0)
(26.9809 -0.918291 0)
(26.9698 -0.89003 0)
(26.9583 -0.862096 2.10586e-17)
(26.9463 -0.834501 -3.16033e-17)
(26.934 -0.807252 1.05397e-17)
(26.9214 -0.780359 0)
(26.9084 -0.75383 0)
(26.8951 -0.727673 -5.27803e-18)
(26.8814 -0.701897 5.28082e-18)
(26.8674 -0.676511 0)
(26.8532 -0.651538 -1.32165e-18)
(26.839 -0.627048 1.37029e-18)
(27.2905 -1.34507 0)
(27.2852 -1.31014 0)
(27.2794 -1.27539 4.44403e-17)
(27.273 -1.24083 -4.44565e-17)
(27.266 -1.2065 0)
(27.2585 -1.17239 0)
(27.2504 -1.13853 0)
(27.2417 -1.10493 0)
(27.2325 -1.07161 0)
(27.2228 -1.03858 2.22845e-17)
(27.2125 -1.00585 8.30018e-23)
(27.2017 -0.973441 8.6272e-23)
(27.1904 -0.941362 -4.4634e-17)
(27.1786 -0.909629 2.23284e-17)
(27.1664 -0.878252 0)
(27.1536 -0.847246 0)
(27.1404 -0.816621 0)
(27.1268 -0.78639 0)
(27.1127 -0.756562 1.11949e-17)
(27.0982 -0.72715 -1.12013e-17)
(27.0833 -0.698162 0)
(27.068 -0.669609 0)
(27.0523 -0.6415 0)
(27.0362 -0.613844 5.61428e-18)
(27.0197 -0.586653 -5.61778e-18)
(27.0031 -0.55995 0)
(26.9863 -0.533812 0)
(27.4935 -1.31641 0)
(27.4873 -1.27796 0)
(27.4803 -1.23973 0)
(27.4726 -1.20174 -4.71823e-17)
(27.4643 -1.164 -1.55226e-22)
(27.4553 -1.12654 7.08381e-17)
(27.4457 -1.08937 -2.36241e-17)
(27.4354 -1.05251 -2.36361e-17)
(27.4245 -1.01598 4.72966e-17)
(27.413 -0.979789 -4.73219e-17)
(27.4009 -0.943964 -1.03561e-22)
(27.3881 -0.908517 2.36873e-17)
(27.3748 -0.873464 -2.37012e-17)
(27.3609 -0.838822 4.74307e-17)
(27.3465 -0.804605 -2.37298e-17)
(27.3315 -0.770828 -2.37447e-17)
(27.3159 -0.737504 2.37598e-17)
(27.2999 -0.704649 -1.18877e-17)
(27.2833 -0.672275 1.18955e-17)
(27.2663 -0.640395 0)
(27.2488 -0.60902 0)
(27.2309 -0.578163 0)
(27.2125 -0.547834 0)
(27.1937 -0.518045 0)
(27.1744 -0.488809 0)
(27.1549 -0.460151 -1.49432e-18)
(27.1353 -0.432155 1.54091e-18)
(27.7083 -1.32411 0)
(27.7017 -1.28168 0)
(27.6942 -1.23949 0)
(27.6859 -1.19756 2.50215e-17)
(27.6769 -1.15592 -5.0068e-17)
(27.6671 -1.11457 2.50471e-17)
(27.6565 -1.07356 2.50608e-17)
(27.6452 -1.03288 -2.50748e-17)
(27.6331 -0.992579 0)
(27.6203 -0.952662 0)
(27.6068 -0.913153 0)
(27.5926 -0.87407 2.51363e-17)
(27.5778 -0.835434 -5.03056e-17)
(27.5622 -0.797263 2.51697e-17)
(27.546 -0.759575 0)
(27.5291 -0.722389 0)
(27.5116 -0.685721 0)
(27.4935 -0.649589 0)
(27.4749 -0.614008 0)
(27.4556 -0.578994 1.26401e-17)
(27.4358 -0.544563 -1.26499e-17)
(27.4155 -0.510729 0)
(27.3946 -0.477504 0)
(27.3733 -0.444903 6.34023e-18)
(27.3514 -0.412938 -6.34542e-18)
(27.3291 -0.381624 -3.17539e-18)
(27.3065 -0.35099 1.58901e-18)
(27.2837 -0.321126 1.63405e-18)
(27.9241 -1.29139 2.65025e-17)
(27.9162 -1.24485 -5.30318e-17)
(27.9075 -1.19858 5.30602e-17)
(27.8978 -1.15263 -5.30898e-17)
(27.8872 -1.107 2.65603e-17)
(27.8758 -1.06173 0)
(27.8634 -1.01684 -2.65932e-17)
(27.8502 -0.972352 2.66104e-17)
(27.8362 -0.928292 2.66285e-17)
(27.8214 -0.884682 -2.66469e-17)
(27.8057 -0.841547 0)
(27.7892 -0.798909 2.66858e-17)
(27.7719 -0.756791 1.62743e-22)
(27.7539 -0.715214 -2.67266e-17)
(27.7351 -0.674202 1.3374e-17)
(27.7156 -0.633774 9.00631e-23)
(27.6954 -0.593951 -1.33959e-17)
(27.6744 -0.554754 0)
(27.6528 -0.516203 0)
(27.6306 -0.478315 -1.34307e-17)
(27.6077 -0.441108 1.34426e-17)
(27.5842 -0.404601 0)
(27.5602 -0.36881 0)
(27.5356 -0.33375 6.73996e-18)
(27.5104 -0.299437 -6.74628e-18)
(27.4846 -0.265888 -3.37639e-18)
(27.4586 -0.233135 3.37962e-18)
(27.4323 -0.201275 0)
(28.1449 -1.25436 2.8105e-17)
(28.1358 -1.20347 -2.81214e-17)
(28.1256 -1.1529 0)
(28.1143 -1.10268 0)
(28.1021 -1.05285 0)
(28.0888 -1.00342 0)
(28.0746 -0.954432 -2.8216e-17)
(28.0594 -0.905908 2.82369e-17)
(28.0432 -0.857875 -2.82589e-17)
(28.0261 -0.81036 2.82813e-17)
(28.0081 -0.76339 2.83047e-17)
(27.9891 -0.716991 -4.24927e-17)
(27.9693 -0.67119 1.41765e-17)
(27.9486 -0.626013 0)
(27.927 -0.581485 1.42021e-17)
(27.9046 -0.537631 -1.42152e-17)
(27.8814 -0.494475 1.42288e-17)
(27.8574 -0.452043 -1.42424e-17)
(27.8326 -0.410356 0)
(27.8071 -0.369439 7.13544e-18)
(27.7809 -0.329313 -7.14266e-18)
(27.754 -0.289998 0)
(27.7264 -0.251516 0)
(27.6982 -0.213885 3.58261e-18)
(27.6694 -0.177123 -7.1729e-18)
(27.6399 -0.141253 3.59033e-18)
(27.6101 -0.106309 0)
(27.58 -0.0723937 0)
(28.3707 -1.21467 -2.97991e-17)
(28.3601 -1.15917 5.96384e-17)
(28.3484 -1.10403 -5.96806e-17)
(28.3355 -1.0493 2.98623e-17)
(28.3214 -0.995003 2.98854e-17)
(28.3063 -0.941169 -2.9909e-17)
(28.29 -0.887828 0)
(28.2726 -0.835012 0)
(28.2542 -0.78275 0)
(28.2347 -0.731074 -1.50066e-17)
(28.2141 -0.680014 1.50205e-17)
(28.1925 -0.629599 0)
(28.1699 -0.579862 0)
(28.1463 -0.530831 0)
(28.1218 -0.482538 1.50806e-17)
(28.0963 -0.435012 -1.50964e-17)
(28.0699 -0.388283 0)
(28.0425 -0.34238 -1.51294e-17)
(28.0143 -0.297331 1.51462e-17)
(27.9853 -0.253164 0)
(27.9554 -0.209907 0)
(27.9248 -0.167585 0)
(27.8934 -0.126224 0)
(27.8613 -0.0858469 0)
(27.8285 -0.0464783 -3.81278e-18)
(27.795 -0.00814303 3.81635e-18)
(27.761 0.0291193 -9.55016e-19)
(27.7267 0.065199 9.73591e-19)
(28.6004 -1.17152 0)
(28.5883 -1.11122 0)
(28.5749 -1.05133 0)
(28.5602 -0.9919 -3.16671e-17)
(28.5442 -0.932949 3.16946e-17)
(28.5271 -0.874513 0)
(28.5086 -0.816624 0)
(28.489 -0.759316 1.5892e-17)
(28.4682 -0.702623 -3.18155e-17)
(28.4462 -0.646579 1.5924e-17)
(28.423 -0.591217 -1.5941e-17)
(28.3986 -0.536573 1.59582e-17)
(28.3731 -0.482682 0)
(28.3465 -0.42958 0)
(28.3188 -0.377303 0)
(28.29 -0.325885 1.6032e-17)
(28.2601 -0.275363 1.63289e-22)
(28.2293 -0.225773 -1.60713e-17)
(28.1974 -0.17715 0)
(28.1646 -0.129528 0)
(28.1308 -0.0829415 -8.0667e-18)
(28.0962 -0.0374229 -9.30254e-23)
(28.0607 0.00699578 8.08321e-18)
(28.0244 0.050284 0)
(27.9873 0.092412 4.04917e-18)
(27.9494 0.133348 -6.0783e-18)
(27.9109 0.173048 1.01383e-18)
(27.8721 0.211392 1.03031e-18)
(28.8334 -1.12571 0)
(28.8196 -1.06047 3.35144e-17)
(28.8045 -0.995678 2.03582e-22)
(28.788 -0.931383 -1.67882e-17)
(28.7701 -0.867614 -3.36098e-17)
(28.7509 -0.804403 3.36441e-17)
(28.7303 -0.741785 -1.68397e-17)
(28.7083 -0.679795 1.68581e-17)
(28.685 -0.61847 -3.37539e-17)
(28.6604 -0.557847 1.68964e-17)
(28.6345 -0.497965 -1.69166e-17)
(28.6072 -0.438863 1.6937e-17)
(28.5787 -0.380583 0)
(28.549 -0.323166 0)
(28.518 -0.266654 0)
(28.4858 -0.21109 0)
(28.4523 -0.156519 0)
(28.4178 -0.102985 -8.53596e-18)
(28.382 -0.0505302 8.5467e-18)
(28.3452 0.000800418 8.55544e-18)
(28.3073 0.0509641 -8.56424e-18)
(28.2684 0.0999185 0)
(28.2285 0.147623 0)
(28.1877 0.194037 4.29202e-18)
(28.1459 0.239124 -6.44314e-18)
(28.1032 0.282842 2.14951e-18)
(28.06 0.325139 1.07571e-18)
(28.0162 0.365889 -1.09e-18)
(29.0688 -1.07725 0)
(29.0534 -1.00699 0)
(29.0366 -0.937215 1.778e-17)
(29.0182 -0.867969 1.27603e-22)
(28.9984 -0.799279 1.35557e-22)
(28.977 -0.731178 -1.78387e-17)
(28.9542 -0.663702 0)
(28.9299 -0.596886 0)
(28.9042 -0.530769 0)
(28.877 -0.465392 -1.79269e-17)
(28.8483 -0.400797 3.5901e-17)
(28.8182 -0.337029 -3.59496e-17)
(28.7867 -0.274136 1.79997e-17)
(28.7537 -0.212165 0)
(28.7194 -0.151169 0)
(28.6836 -0.0911987 0)
(28.6465 -0.0323086 0)
(28.6081 0.0254465 0)
(28.5683 0.0820112 -9.06823e-18)
(28.5273 0.13733 -1.25019e-22)
(28.485 0.191347 9.08043e-18)
(28.4416 0.244008 0)
(28.397 0.295259 0)
(28.3514 0.345048 4.55109e-18)
(28.3046 0.393324 -4.55503e-18)
(28.2569 0.440038 0)
(28.2084 0.485122 1.14092e-18)
(28.1592 0.528442 -1.15274e-18)
(29.3058 -1.02676 -1.88038e-17)
(29.2888 -0.951478 1.88244e-17)
(29.2702 -0.876708 1.8846e-17)
(29.2501 -0.802481 -1.88682e-17)
(29.2283 -0.728825 0)
(29.205 -0.655769 -1.89152e-17)
(29.18 -0.583346 1.89397e-17)
(29.1535 -0.511593 -1.89653e-17)
(29.1254 -0.440549 1.89913e-17)
(29.0956 -0.370258 -1.90185e-17)
(29.0643 -0.300765 1.90461e-17)
(29.0314 -0.232122 -1.90748e-17)
(28.9968 -0.164382 1.91039e-17)
(28.9607 -0.0976033 0)
(28.923 -0.0318459 0)
(28.8837 0.0328258 9.58985e-18)
(28.8428 0.096345 -9.59716e-18)
(28.8005 0.158643 9.60292e-18)
(28.7566 0.219649 1.42448e-22)
(28.7112 0.279292 -1.92313e-17)
(28.6644 0.337499 9.62277e-18)
(28.6162 0.394199 4.81532e-18)
(28.5667 0.449321 7.92207e-23)
(28.5159 0.502795 8.11014e-23)
(28.4639 0.554555 -4.82832e-18)
(28.4107 0.604533 2.41663e-18)
(28.3565 0.652649 -3.62871e-18)
(28.3016 0.698753 1.21861e-18)
(29.5432 -0.974643 1.99245e-17)
(29.5247 -0.894428 -1.99486e-17)
(29.5045 -0.814734 0)
(29.4826 -0.735579 2e-17)
(29.4591 -0.656984 -4.00536e-17)
(29.4338 -0.578973 2.00545e-17)
(29.4069 -0.501575 0)
(29.3783 -0.424826 0)
(29.3479 -0.348762 0)
(29.3159 -0.273429 0)
(29.282 -0.198877 0)
(29.2464 -0.125162 0)
(29.209 -0.0523446 0)
(29.1698 0.0195065 0)
(29.1288 0.0903183 0)
(29.086 0.160013 0)
(29.0415 0.228508 0)
(28.9951 0.295716 0)
(28.9471 0.361547 0)
(28.8973 0.425908 0)
(28.8458 0.488704 0)
(28.7927 0.549842 0)
(28.738 0.609226 0)
(28.6818 0.666764 0)
(28.6241 0.722366 0)
(28.565 0.775943 0)
(28.5048 0.827394 0)
(28.4437 0.876552 0)
(29.7797 -0.921539 2.11101e-17)
(29.7597 -0.836579 -2.11382e-17)
(29.738 -0.752123 -2.11675e-17)
(29.7146 -0.668175 2.11975e-17)
(29.6894 -0.584745 0)
(29.6626 -0.501849 0)
(29.6339 -0.419509 0)
(29.6034 -0.337752 0)
(29.5711 -0.256617 0)
(29.5369 -0.176145 -1.06997e-17)
(29.5008 -0.0963905 2.14364e-17)
(29.4628 -0.0174139 -1.07332e-17)
(29.4228 0.0607147 0)
(29.3807 0.137917 0)
(29.3367 0.214105 1.07512e-17)
(29.2906 0.289184 -1.07558e-17)
(29.2424 0.36305 -1.07616e-17)
(29.1922 0.435595 1.07678e-17)
(29.14 0.506703 0)
(29.0857 0.576252 0)
(29.0294 0.644119 0)
(28.9712 0.710179 0)
(28.9111 0.774306 0)
(28.8492 0.836376 0)
(28.7856 0.896267 2.70854e-18)
(28.7203 0.95386 -1.35579e-18)
(28.6536 1.00903 -6.78727e-19)
(28.5858 1.06158 -6.79976e-19)
(30.0135 -0.868046 2.23648e-17)
(29.9922 -0.77863 -4.47945e-17)
(29.9692 -0.689672 2.24307e-17)
(29.9445 -0.601159 0)
(29.9181 -0.513085 0)
(29.8898 -0.425452 -1.12688e-17)
(29.8598 -0.33827 2.25754e-17)
(29.8278 -0.25156 -2.26143e-17)
(29.7939 -0.165351 1.13271e-17)
(29.758 -0.0796849 0)
(29.72 0.00538619 1.13624e-17)
(29.6799 0.0897965 -2.2738e-17)
(29.6376 0.173468 1.1371e-17)
(29.5931 0.256311 0)
(29.5463 0.338221 -1.13779e-17)
(29.4971 0.419082 1.13823e-17)
(29.4456 0.498768 -5.69397e-18)
(29.3917 0.57714 -1.04763e-22)
(29.3353 0.654051 5.70069e-18)
(29.2766 0.729343 5.70492e-18)
(29.2156 0.802855 -5.70941e-18)
(29.1522 0.874421 0)
(29.0865 0.943873 -2.8601e-18)
(29.0187 1.01104 5.72621e-18)
(28.9487 1.07577 -2.86636e-18)
(28.8767 1.13789 0)
(28.8031 1.19725 -7.18429e-19)
(28.728 1.25361 7.17746e-19)
(30.243 -0.814848 2.36927e-17)
(30.2206 -0.721367 -1.1865e-17)
(30.1966 -0.628266 1.1884e-17)
(30.1709 -0.535508 0)
(30.1435 -0.443069 0)
(30.1143 -0.350929 1.19447e-17)
(30.0832 -0.259083 -1.1966e-17)
(30.0502 -0.167537 0)
(30.0152 -0.0763108 0)
(29.9781 0.0145617 0)
(29.9388 0.10503 1.20296e-17)
(29.8971 0.195026 -1.20297e-17)
(29.853 0.284466 0)
(29.8065 0.373248 -1.2033e-17)
(29.7573 0.461249 6.01778e-18)
(29.7055 0.548332 6.01984e-18)
(29.6509 0.63434 6.02242e-18)
(29.5936 0.7191 -1.20508e-17)
(29.5334 0.802424 6.02888e-18)
(29.4704 0.884111 0)
(29.4045 0.963949 -6.03789e-18)
(29.3359 1.04172 6.0431e-18)
(29.2645 1.1172 -3.0246e-18)
(29.1904 1.19017 3.02781e-18)
(29.1138 1.2604 0)
(29.0348 1.32768 -1.5177e-18)
(28.9536 1.3918 1.51977e-18)
(28.8707 1.45248 0)
(30.4665 -0.762603 0)
(30.4433 -0.665547 0)
(30.4185 -0.568758 0)
(30.3922 -0.472173 1.26141e-17)
(30.3642 -0.375736 1.34466e-22)
(30.3346 -0.279406 -1.266e-17)
(30.3031 -0.183152 1.26841e-17)
(30.2696 -0.0869624 -1.27086e-17)
(30.2341 0.00916076 0)
(30.1963 0.105194 0)
(30.1563 0.201096 -1.27261e-17)
(30.1137 0.296799 2.54493e-17)
(30.0684 0.392216 -1.27241e-17)
(30.0204 0.487234 -6.36242e-18)
(29.9695 0.581714 6.3631e-18)
(29.9155 0.675491 0)
(29.8584 0.768377 0)
(29.798 0.860157 0)
(29.7343 0.950594 0)
(29.6672 1.03943 6.37633e-18)
(29.5967 1.1264 -6.38086e-18)
(29.5228 1.2112 0)
(29.4456 1.29355 0)
(29.3651 1.37315 0)
(29.2815 1.44969 0)
(29.1949 1.5229 1.60398e-18)
(29.1057 1.59248 -8.0311e-19)
(29.0142 1.65811 -7.98157e-19)
(30.6825 -0.711965 0)
(30.6587 -0.611915 1.33174e-17)
(30.6336 -0.511986 1.31203e-22)
(30.6071 -0.412078 -1.33659e-17)
(30.5791 -0.312102 -1.33913e-17)
(30.5495 -0.211983 1.3417e-17)
(30.5182 -0.111663 0)
(30.4849 -0.0110992 1.34669e-17)
(30.4495 0.0897268 -1.34687e-17)
(30.4119 0.190812 0)
(30.3718 0.292128 0)
(30.329 0.393617 0)
(30.2834 0.495191 0)
(30.2347 0.59673 0)
(30.1828 0.69808 0)
(30.1273 0.799051 0)
(30.0683 0.899418 -6.72661e-18)
(30.0054 0.99892 -1.45093e-22)
(29.9386 1.09726 6.7309e-18)
(29.8678 1.19412 0)
(29.7928 1.28915 0)
(29.7138 1.38196 0)
(29.6307 1.47217 -3.37517e-18)
(29.5436 1.55939 3.37868e-18)
(29.4526 1.64322 0)
(29.3579 1.72327 0)
(29.2599 1.79916 0)
(29.159 1.87049 0)
(30.8898 -0.663532 0)
(30.8658 -0.561148 1.41081e-17)
(30.8407 -0.458705 -2.82693e-17)
(30.8145 -0.356061 1.41617e-17)
(30.787 -0.253087 1.41895e-17)
(30.758 -0.149668 -2.84357e-17)
(30.7275 -0.045705 1.4247e-17)
(30.6951 0.0588771 0)
(30.6607 0.164131 -7.12288e-18)
(30.624 0.270082 7.11851e-18)
(30.5847 0.376724 -7.11472e-18)
(30.5427 0.484017 7.11117e-18)
(30.4976 0.591882 0)
(30.4491 0.700199 0)
(30.397 0.808801 7.10424e-18)
(30.3409 0.917477 1.38016e-22)
(30.2807 1.02596 -1.42058e-17)
(30.216 1.13395 1.4207e-17)
(30.1468 1.24108 -7.10496e-18)
(30.0727 1.34694 -3.55384e-18)
(29.9936 1.45109 3.55556e-18)
(29.9096 1.55305 3.55803e-18)
(29.8206 1.6523 1.06798e-22)
(29.7266 1.74832 -5.34678e-18)
(29.6279 1.84058 1.78435e-18)
(29.5246 1.92858 -8.93421e-19)
(29.4172 2.01179 8.94766e-19)
(29.3061 2.08972 0)
(31.0871 -0.617828 1.38983e-22)
(31.0632 -0.513831 1.4086e-22)
(31.0386 -0.409568 -2.9948e-17)
(31.0132 -0.304849 1.50035e-17)
(30.9868 -0.199494 0)
(30.9591 -0.0933419 0)
(30.9301 0.013752 0)
(30.8994 0.12191 0)
(30.8667 0.231227 0)
(30.8318 0.34177 0)
(30.7944 0.453566 0)
(30.7541 0.566605 0)
(30.7105 0.680828 0)
(30.6633 0.796124 0)
(30.612 0.912328 7.50108e-18)
(30.5564 1.02921 -7.49793e-18)
(30.4959 1.14647 -3.74796e-18)
(30.4304 1.26375 3.74729e-18)
(30.3594 1.38062 0)
(30.2827 1.49658 0)
(30.2 1.61107 0)
(30.1113 1.72347 0)
(30.0165 1.83312 0)
(29.9156 1.93933 0)
(29.8088 2.0414 1.88059e-18)
(29.6963 2.13865 -1.88303e-18)
(29.5785 2.2304 0)
(29.4562 2.31599 0)
(31.2736 -0.575279 0)
(31.2502 -0.470433 1.58304e-17)
(31.2265 -0.365093 -7.9308e-18)
(31.2024 -0.259013 -7.94682e-18)
(31.1775 -0.15196 0)
(31.1518 -0.0437181 0)
(31.125 0.0659149 0)
(31.0968 0.177117 7.97212e-18)
(31.0668 0.290039 -7.96304e-18)
(31.0347 0.404799 -7.95433e-18)
(31.0001 0.521478 7.94571e-18)
(30.9626 0.640107 0)
(30.9217 0.760665 0)
(30.8769 0.883067 0)
(30.8277 1.00716 7.91624e-18)
(30.7736 1.13271 -7.91039e-18)
(30.7141 1.25939 0)
(30.6488 1.3868 3.95105e-18)
(30.577 1.51444 -7.89955e-18)
(30.4985 1.64168 3.94919e-18)
(30.4129 1.76786 0)
(30.32 1.89218 0)
(30.2195 2.0138 1.9763e-18)
(30.1116 2.13182 -1.9777e-18)
(29.9963 2.24531 0)
(29.874 2.35337 0)
(29.745 2.45508 0)
(29.6102 2.54962 0)
(31.4484 -0.536196 -8.36667e-18)
(31.4259 -0.431289 0)
(31.4035 -0.325643 0)
(31.3811 -0.21896 0)
(31.3584 -0.110944 0)
(31.3353 -0.00131757 0)
(31.3114 0.110187 8.44109e-18)
(31.2865 0.223813 -1.68583e-17)
(31.26 0.339782 8.41719e-18)
(31.2317 0.458281 -8.40541e-18)
(31.201 0.579455 -9.12736e-23)
(31.1674 0.703402 8.3821e-18)
(31.1304 0.830157 -8.37106e-18)
(31.0894 0.959682 8.36028e-18)
(31.0436 1.09186 0)
(30.9925 1.22646 0)
(30.9353 1.36317 0)
(30.8714 1.50154 0)
(30.8001 1.64098 -4.16006e-18)
(30.7209 1.7808 4.15789e-18)
(30.6332 1.92014 0)
(30.5366 2.05804 0)
(30.4309 2.19342 2.07884e-18)
(30.3159 2.32512 -2.07984e-18)
(30.1919 2.45192 0)
(30.059 2.57261 1.042e-18)
(29.9178 2.68599 -5.21716e-19)
(29.7693 2.79095 -5.12539e-19)
(31.611 -0.500771 -8.86089e-18)
(31.5896 -0.396587 8.87863e-18)
(31.5689 -0.291421 8.89652e-18)
(31.5486 -0.184911 -8.91437e-18)
(31.5287 -0.0767025 0)
(31.5087 0.033554 8.94137e-18)
(31.4884 0.146196 -8.92638e-18)
(31.4675 0.261548 0)
(31.4455 0.37991 8.89585e-18)
(31.4219 0.501556 -1.77605e-17)
(31.3962 0.626717 8.86461e-18)
(31.3678 0.755576 0)
(31.336 0.888252 4.41689e-18)
(31.3 1.02478 -4.40934e-18)
(31.2592 1.16511 0)
(31.2125 1.30905 0)
(31.1592 1.45631 0)
(31.0983 1.60641 0)
(31.0289 1.75872 -4.37807e-18)
(30.9503 1.91243 4.37382e-18)
(30.8616 2.06653 0)
(30.7622 2.21985 0)
(30.6518 2.37102 0)
(30.53 2.51855 0)
(30.3969 2.66086 0)
(30.2528 2.79634 0)
(30.0982 2.92339 2.73867e-19)
(29.9343 3.04055 -2.68495e-19)
(31.7609 -0.469079 0)
(31.7409 -0.366383 0)
(31.7221 -0.262467 0)
(31.7044 -0.156912 0)
(31.6876 -0.0492958 0)
(31.6713 0.0608022 9.45738e-18)
(31.6552 0.173799 -9.43883e-18)
(31.639 0.290105 9.41987e-18)
(31.6223 0.410117 -9.40032e-18)
(31.6044 0.534207 0)
(31.5847 0.662716 -4.68012e-18)
(31.5627 0.795937 4.66987e-18)
(31.5374 0.934101 0)
(31.508 1.07735 -4.64949e-18)
(31.4736 1.22573 9.27893e-18)
(31.433 1.37914 6.33622e-23)
(31.3853 1.53733 7.46376e-23)
(31.3291 1.69985 -9.22361e-18)
(31.2634 1.86603 2.30188e-18)
(31.187 2.03497 2.29847e-18)
(31.0987 2.20552 0)
(30.9978 2.37624 2.29349e-18)
(30.8833 2.54545 -4.58416e-18)
(30.755 2.71126 3.43738e-18)
(30.6126 2.87162 -1.14603e-18)
(30.4566 3.0244 5.73434e-19)
(30.2874 3.16748 -5.74071e-19)
(30.1065 3.2989 0)
(31.8978 -0.441085 0)
(31.8794 -0.340599 0)
(31.8628 -0.238675 0)
(31.848 -0.134836 0)
(31.8346 -0.0285955 1.00131e-17)
(31.8224 0.0805421 4.32231e-23)
(31.8111 0.193078 -9.98016e-18)
(31.8002 0.309513 0)
(31.7894 0.430352 0)
(31.778 0.556083 0)
(31.7655 0.687175 0)
(31.7509 0.824058 0)
(31.7335 0.967106 4.91459e-18)
(31.7122 1.11661 -4.90116e-18)
(31.6859 1.27275 0)
(31.6532 1.43556 -4.87463e-18)
(31.613 1.60489 -6.47551e-23)
(31.5636 1.78037 4.84938e-18)
(31.5034 1.96133 0)
(31.4311 2.14682 2.41371e-18)
(31.3451 2.33553 -2.40903e-18)
(31.2439 2.52579 -2.40529e-18)
(31.1265 2.71554 2.40232e-18)
(30.9922 2.9024 0)
(30.8407 3.08375 -1.20003e-18)
(30.672 3.25679 1.80054e-18)
(30.4868 3.41871 -6.00704e-19)
(30.2868 3.56687 0)
(32.0215 -0.416661 -1.05211e-17)
(32.0048 -0.319052 1.0541e-17)
(31.9906 -0.219813 -1.05604e-17)
(31.9788 -0.118415 0)
(31.9692 -0.0143093 -5.29941e-18)
(31.9614 0.0930735 -1.3562e-23)
(31.9553 0.204319 -9.96567e-24)
(31.9503 0.320023 -7.11992e-24)
(31.9461 0.440805 5.24722e-18)
(31.942 0.567286 0)
(31.9374 0.700077 0)
(31.9314 0.839774 5.19942e-18)
(31.9231 0.986924 1.05624e-23)
(31.9113 1.14201 1.64211e-23)
(31.8948 1.3054 -5.1479e-18)
(31.872 1.47731 0)
(31.8412 1.65777 -2.55663e-18)
(31.8007 1.84653 2.54818e-18)
(31.7485 2.04301 0)
(31.6825 2.24625 0)
(31.6008 2.45484 2.52572e-18)
(31.5013 2.66684 -2.51965e-18)
(31.3825 2.87982 0)
(31.2431 3.09082 0)
(31.0825 3.29649 0)
(30.9007 3.49321 6.27164e-19)
(30.698 3.67721 -6.27449e-19)
(30.4766 3.84497 0)
(32.1319 -0.395605 5.57011e-18)
(32.1171 -0.301468 5.58012e-18)
(32.1054 -0.205543 -5.58979e-18)
(32.0968 -0.107256 0)
(32.0911 -0.00600168 5.60868e-18)
(32.088 0.0988563 -5.59514e-18)
(32.0873 0.207985 -5.57901e-18)
(32.0885 0.322087 6.09059e-24)
(32.0914 0.441894 5.54419e-18)
(32.0952 0.568164 0)
(32.0993 0.701674 0)
(32.1029 0.8432 0)
(32.1049 0.993503 0)
(32.1041 1.15329 2.72146e-18)
(32.099 1.32318 -5.42077e-18)
(32.0879 1.50364 2.69914e-18)
(32.0688 1.69494 0)
(32.0396 1.89705 -2.6767e-18)
(31.9978 2.10957 2.66575e-18)
(31.9408 2.3316 0)
(31.8658 2.56169 1.3228e-18)
(31.7704 2.79771 -1.31837e-18)
(31.652 3.0368 0)
(31.5088 3.27537 0)
(31.3396 3.50921 0)
(31.144 3.73364 0)
(30.9223 3.94368 0)
(30.6769 4.13456 0)
(32.229 -0.377663 5.89813e-18)
(32.216 -0.287514 5.90802e-18)
(32.207 -0.195461 1.82691e-23)
(32.2016 -0.100883 -5.92662e-18)
(32.1999 -0.00314073 5.93558e-18)
(32.2016 0.0984694 -5.91889e-18)
(32.2065 0.20469 0)
(32.2142 0.316328 -5.87982e-18)
(32.2245 0.434224 2.73995e-23)
(32.2367 0.559282 5.83622e-18)
(32.2502 0.69245 0)
(32.2641 0.834708 0)
(32.2775 0.987053 0)
(32.2889 1.15046 0)
(32.2968 1.32585 2.8538e-18)
(32.2993 1.51403 -2.83961e-18)
(32.2942 1.71557 0)
(32.2788 1.93079 2.81067e-18)
(32.2501 2.15954 -2.79627e-18)
(32.205 2.40114 0)
(32.1399 2.6542 0)
(32.0513 2.91644 0)
(31.9357 3.18462 1.37279e-18)
(31.7905 3.45445 -1.36809e-18)
(31.6137 3.7207 0)
(31.4042 3.9774 0)
(31.1618 4.21795 -1.70168e-19)
(30.8895 4.43586 1.65494e-19)
(32.3127 -0.362553 6.2463e-18)
(32.3016 -0.276822 -6.25579e-18)
(32.2951 -0.189109 0)
(32.293 -0.0987554 6.27337e-18)
(32.2953 -0.00512662 -6.28162e-18)
(32.3018 0.0925762 0)
(32.3123 0.195154 0)
(32.3267 0.303495 0)
(32.3446 0.418559 -6.19218e-18)
(32.3655 0.541389 9.24856e-18)