/*--------------------------------*- C++ -*----------------------------------*\
  =========                 |
  \\      /  F ield         | OpenFOAM: The Open Source CFD Toolbox
   \\    /   O peration     | Website:  https://openfoam.org
    \\  /    A nd           | Version:  8
     \\/     M anipulation  |
\*---------------------------------------------------------------------------*/
FoamFile
{
    version     2.0;
    format      ascii;
    class       volScalarField;
    location    "0.12";
    object      p;
}
// * * * * * * * * * * * * * * * * * * * * * * * * * * * * * * * * * * * * * //

dimensions      [0 2 -2 0 0 0 0];

internalField   nonuniform List<scalar> 
112642
(
3.03482
3.01038
2.98634
2.96323
2.94182
2.92128
2.90099
2.88053
2.85975
2.83857
2.81696
2.79491
2.77246
2.7496
2.72635
2.70272
2.67871
2.65437
2.62969
2.6047
2.57939
2.5538
2.52794
2.50181
2.47542
2.44881
2.42196
2.39488
2.3676
2.34011
2.31244
2.28457
2.25652
2.2283
2.19991
2.17136
2.14265
2.11379
2.08479
2.05567
2.02642
1.99705
1.96757
1.93798
1.90828
1.87849
1.84861
1.81864
1.78857
1.75841
1.72818
1.69787
1.66748
1.63702
1.60647
1.57584
1.54513
1.51434
1.48346
1.45249
1.42144
1.3903
1.35906
1.32775
1.29635
1.26488
1.23332
1.2017
1.17
1.13823
1.1064
1.0745
1.04253
1.0105
0.978413
0.946261
0.914039
0.881765
0.849422
0.817018
0.784544
0.75201
0.719412
0.686753
0.65402
0.621217
0.588362
0.555429
0.52243
0.489364
0.456226
0.423028
0.389754
0.356409
0.322992
0.289511
0.255953
0.22232
0.188614
0.154838
0.120983
0.0870605
0.0530616
0.0189885
-0.0151581
-0.0493744
-0.0836753
-0.118053
-0.152509
-0.187037
-0.221654
-0.256347
-0.29112
-0.325973
-0.360892
-0.395903
-0.430987
-0.466137
-0.501371
-0.536685
-0.572088
-0.60757
-0.643146
-0.678812
-0.714592
-0.750468
-0.786455
-0.822555
-0.858768
-0.895096
-0.931537
-0.9681
-1.00478
-1.04157
-1.0785
-1.11553
-1.15269
-1.18997
-1.22738
-1.26491
-1.30255
-1.34033
-1.37824
-1.41628
-1.45445
-1.49275
-1.53119
-1.56976
-1.60847
-1.64732
-1.68631
-1.72545
-1.76474
-1.80417
-1.84374
-1.88347
-1.92335
-1.96337
-2.00354
-2.04383
-2.08426
-2.12483
-2.16553
-2.20638
-2.24734
-2.28844
-2.32968
-2.37103
-2.41253
-2.45414
-2.49589
-2.53778
-2.5798
-2.62195
-2.66424
-2.70665
-2.74921
-2.79189
-2.83472
-2.87766
-2.92076
-2.96396
-3.00728
-3.05071
-3.09426
-3.1379
-3.18162
-3.22544
-3.26937
-3.31341
-3.35756
-3.40184
-3.44632
-3.49106
-3.53621
-3.58217
-3.62968
-3.67979
-3.73193
-3.78591
3.04936
3.02567
3.00197
2.97854
2.95674
2.93587
2.91552
2.89519
2.87463
2.85369
2.83234
2.81056
2.78835
2.76571
2.74268
2.71926
2.69545
2.67129
2.64677
2.62192
2.59676
2.57128
2.54553
2.51949
2.49318
2.46663
2.43983
2.41278
2.38552
2.35805
2.33036
2.30247
2.2744
2.24614
2.2177
2.18909
2.16031
2.13138
2.1023
2.07307
2.04371
2.01423
1.98463
1.9549
1.92506
1.89512
1.86508
1.83494
1.8047
1.77436
1.74394
1.71342
1.68282
1.65214
1.62136
1.5905
1.55955
1.52851
1.49738
1.46616
1.43484
1.40344
1.37194
1.34036
1.30869
1.27693
1.24509
1.21318
1.18119
1.14912
1.11699
1.08478
1.0525
1.02016
0.987745
0.955263
0.922716
0.890103
0.857425
0.824674
0.791859
0.758973
0.726024
0.693003
0.659914
0.626751
0.593527
0.560227
0.526857
0.493417
0.459906
0.426324
0.392671
0.35894
0.325141
0.291267
0.257319
0.223299
0.189195
0.155028
0.120771
0.0864554
0.0520528
0.0175826
-0.0169655
-0.0515906
-0.0862915
-0.121076
-0.155935
-0.190874
-0.225893
-0.260993
-0.296173
-0.331432
-0.366764
-0.402183
-0.437674
-0.473246
-0.508893
-0.544629
-0.580446
-0.616356
-0.652351
-0.688445
-0.72464
-0.760941
-0.797344
-0.833861
-0.870487
-0.907228
-0.944078
-0.981052
-1.01813
-1.05534
-1.09265
-1.13009
-1.16765
-1.20533
-1.24312
-1.28104
-1.31908
-1.35725
-1.39554
-1.43396
-1.47251
-1.51119
-1.55
-1.58894
-1.62802
-1.66723
-1.70658
-1.74608
-1.78572
-1.82549
-1.86541
-1.90548
-1.94569
-1.98605
-2.02653
-2.06713
-2.10788
-2.14876
-2.18977
-2.23091
-2.27216
-2.31355
-2.35506
-2.39668
-2.43844
-2.48031
-2.52232
-2.56443
-2.60667
-2.64906
-2.69154
-2.73416
-2.7769
-2.81976
-2.86274
-2.90586
-2.94908
-2.99243
-3.03587
-3.07941
-3.12306
-3.16677
-3.21059
-3.25451
-3.29851
-3.34262
-3.38685
-3.43125
-3.47585
-3.52078
-3.56631
-3.61295
-3.66122
-3.71216
-3.76451
-3.81823
3.06173
3.03929
3.01639
2.99265
2.9704
2.94907
2.92859
2.90828
2.88788
2.86717
2.84607
2.82455
2.80259
2.78021
2.75741
2.73421
2.71061
2.68665
2.66232
2.63764
2.61263
2.5873
2.56167
2.53575
2.50954
2.48308
2.45635
2.42937
2.40215
2.37471
2.34705
2.31918
2.29111
2.26284
2.23438
2.20574
2.17692
2.14794
2.1188
2.0895
2.06007
2.03049
2.00079
1.97096
1.941
1.91093
1.88075
1.85047
1.82008
1.78958
1.75898
1.72829
1.6975
1.66661
1.63564
1.60456
1.57339
1.54213
1.51076
1.47931
1.44775
1.4161
1.38436
1.35252
1.32059
1.28857
1.25647
1.22429
1.19202
1.15967
1.12725
1.09476
1.06218
1.02953
0.996812
0.964025
0.93116
0.898226
0.865223
0.832145
0.798996
0.765771
0.732485
0.699118
0.665684
0.632168
0.59859
0.564937
0.531204
0.497406
0.463523
0.429578
0.39555
0.361449
0.327273
0.293024
0.258694
0.22429
0.189805
0.155251
0.120609
0.085903
0.0511125
0.0162505
-0.0186918
-0.053708
-0.0888045
-0.12398
-0.159238
-0.194567
-0.229989
-0.265479
-0.30106
-0.336712
-0.372442
-0.408264
-0.444155
-0.480132
-0.516182
-0.552328
-0.588557
-0.624875
-0.661281
-0.697788
-0.734395
-0.771098
-0.807912
-0.844835
-0.881864
-0.918995
-0.956248
-0.993614
-1.03109
-1.06868
-1.10639
-1.14421
-1.18215
-1.22021
-1.25838
-1.29668
-1.33509
-1.37363
-1.41229
-1.45108
-1.48999
-1.52902
-1.56818
-1.60748
-1.6469
-1.68646
-1.72615
-1.76599
-1.80595
-1.84606
-1.8863
-1.92668
-1.9672
-2.00786
-2.04863
-2.08953
-2.13056
-2.17172
-2.21301
-2.25441
-2.29593
-2.33756
-2.37932
-2.42119
-2.46318
-2.50528
-2.54749
-2.58982
-2.63227
-2.67484
-2.71751
-2.76029
-2.8032
-2.84621
-2.88936
-2.93259
-2.97595
-3.01939
-3.06293
-3.10655
-3.15028
-3.19407
-3.23795
-3.28192
-3.326
-3.37017
-3.41449
-3.45898
-3.50374
-3.54897
-3.59493
-3.64241
-3.69162
-3.74342
-3.79564
-3.84883
3.07219
3.05151
3.02982
3.00602
2.98336
2.96155
2.94078
2.9204
2.9001
2.87958
2.85872
2.83745
2.81575
2.79362
2.77107
2.74811
2.72474
2.70099
2.67686
2.65237
2.62754
2.60237
2.57688
2.5511
2.52502
2.49866
2.47203
2.44513
2.41799
2.3906
2.36299
2.33516
2.30711
2.27884
2.25039
2.22175
2.19291
2.1639
2.13473
2.10538
2.07588
2.04624
2.01645
1.98653
1.95648
1.92629
1.89599
1.86558
1.83505
1.8044
1.77365
1.74279
1.71183
1.68076
1.6496
1.61833
1.58695
1.55548
1.5239
1.49222
1.46045
1.42856
1.39658
1.36451
1.33233
1.30007
1.2677
1.23526
1.20273
1.17011
1.13741
1.10463
1.07177
1.03883
1.00581
0.972716
0.939542
0.906292
0.872973
0.839569
0.806097
0.772543
0.738921
0.705215
0.671438
0.637581
0.603653
0.569645
0.535563
0.501401
0.467161
0.43285
0.398457
0.363988
0.329439
0.294814
0.26011
0.225327
0.190464
0.155524
0.120502
0.0854062
0.0502325
0.0149815
-0.0203483
-0.0557554
-0.0912438
-0.126811
-0.162459
-0.198183
-0.233993
-0.269884
-0.305851
-0.341902
-0.378029
-0.414242
-0.450532
-0.48691
-0.523362
-0.559909
-0.596536
-0.633262
-0.670071
-0.706984
-0.743994
-0.781098
-0.818314
-0.855636
-0.893056
-0.93059
-0.968234
-1.00598
-1.04385
-1.08182
-1.11992
-1.15812
-1.19644
-1.23487
-1.27342
-1.31209
-1.35087
-1.38977
-1.42879
-1.46793
-1.5072
-1.54658
-1.58608
-1.62572
-1.66549
-1.70538
-1.7454
-1.78556
-1.82584
-1.86625
-1.9068
-1.94748
-1.9883
-2.02922
-2.07028
-2.11145
-2.15275
-2.19417
-2.2357
-2.27734
-2.31911
-2.36097
-2.40294
-2.44504
-2.48724
-2.52954
-2.57196
-2.61448
-2.65711
-2.69985
-2.7427
-2.78564
-2.82869
-2.87185
-2.91511
-2.95848
-3.00193
-3.04547
-3.08909
-3.1328
-3.17658
-3.22043
-3.26437
-3.30838
-3.35251
-3.39675
-3.44112
-3.48575
-3.53072
-3.57634
-3.62295
-3.6713
-3.72147
-3.77402
-3.8257
-3.87807
3.08163
3.06311
3.04279
3.01951
2.99668
2.97441
2.9533
2.93274
2.91247
2.89209
2.87145
2.85042
2.82899
2.80712
2.78483
2.7621
2.73898
2.71545
2.69153
2.66724
2.64259
2.6176
2.59228
2.56664
2.54069
2.51444
2.48792
2.46112
2.43406
2.40674
2.37918
2.3514
2.32338
2.29514
2.2667
2.23806
2.20921
2.18018
2.15096
2.12158
2.09203
2.06231
2.03244
2.00244
1.97229
1.942
1.91158
1.88103
1.85036
1.81957
1.78866
1.75764
1.7265
1.69525
1.6639
1.63243
1.60085
1.56916
1.53737
1.50547
1.47346
1.44135
1.40913
1.37681
1.34439
1.31187
1.27925
1.24654
1.21373
1.18084
1.14786
1.11479
1.08163
1.04839
1.01507
0.981661
0.948177
0.914607
0.880957
0.84723
0.813424
0.77953
0.745563
0.711514
0.677389
0.643177
0.608892
0.574522
0.540077
0.505548
0.47094
0.436253
0.401487
0.366636
0.331709
0.296698
0.261609
0.226436
0.191182
0.15585
0.120434
0.0849443
0.0493726
0.0137217
-0.0220059
-0.0578153
-0.0937019
-0.129674
-0.165723
-0.201853
-0.238065
-0.27436
-0.310731
-0.347188
-0.383721
-0.420343
-0.45704
-0.493823
-0.530689
-0.56765
-0.60469
-0.641822
-0.679051
-0.716376
-0.753794
-0.791316
-0.828938
-0.866667
-0.904495
-0.942435
-0.980481
-1.01863
-1.05689
-1.09527
-1.13375
-1.17234
-1.21104
-1.24986
-1.2888
-1.32784
-1.36699
-1.40627
-1.44566
-1.48516
-1.52479
-1.56454
-1.60439
-1.64438
-1.6845
-1.72472
-1.76509
-1.80556
-1.84617
-1.8869
-1.92776
-1.96874
-2.00984
-2.05105
-2.09239
-2.13385
-2.1754
-2.21707
-2.25885
-2.30074
-2.34273
-2.38482
-2.42702
-2.46932
-2.51173
-2.55423
-2.59684
-2.63955
-2.68235
-2.72526
-2.76827
-2.81138
-2.85458
-2.89787
-2.94125
-2.98473
-3.02828
-3.07192
-3.11563
-3.15941
-3.20324
-3.24716
-3.29114
-3.33521
-3.37938
-3.42369
-3.46817
-3.51296
-3.55822
-3.60433
-3.65163
-3.70096
-3.75186
-3.80465
-3.85574
-3.90662
3.09044
3.07403
3.05522
3.03297
3.01031
2.98776
2.96628
2.94548
2.92514
2.90486
2.88439
2.86361
2.84242
2.82083
2.79879
2.77632
2.75344
2.73014
2.70645
2.68238
2.65792
2.63311
2.60795
2.58247
2.55666
2.53054
2.50413
2.47744
2.45047
2.42324
2.39575
2.36801
2.34003
2.31182
2.2834
2.25476
2.22591
2.19685
2.16761
2.13818
2.10858
2.0788
2.04885
2.01876
1.98851
1.95811
1.92757
1.89689
1.86608
1.83515
1.80409
1.7729
1.74158
1.71015
1.6786
1.64693
1.61514
1.58324
1.55123
1.5191
1.48687
1.45452
1.42205
1.38949
1.35681
1.32403
1.29115
1.25817
1.22508
1.19191
1.15864
1.12527
1.09181
1.05827
1.02463
0.990909
0.957093
0.923201
0.889216
0.85515
0.820999
0.786763
0.752442
0.71804
0.683552
0.648976
0.614326
0.579584
0.544765
0.509857
0.474871
0.439796
0.404644
0.369403
0.334083
0.298678
0.263189
0.22762
0.19196
0.156224
0.120402
0.0845052
0.0485214
0.0124644
-0.0236767
-0.0598986
-0.0961983
-0.132586
-0.169047
-0.205597
-0.242222
-0.278935
-0.315722
-0.352599
-0.389547
-0.426589
-0.46371
-0.500913
-0.538204
-0.575582
-0.61305
-0.650608
-0.688265
-0.726008
-0.763859
-0.801797
-0.839848
-0.877988
-0.916237
-0.954594
-0.993053
-1.03161
-1.07028
-1.10906
-1.14795
-1.18694
-1.22604
-1.26525
-1.30458
-1.34401
-1.38355
-1.42321
-1.46297
-1.50286
-1.54285
-1.58296
-1.62319
-1.66353
-1.704
-1.74458
-1.78527
-1.82608
-1.86702
-1.90808
-1.94925
-1.99054
-2.03194
-2.07344
-2.11507
-2.15679
-2.19861
-2.24054
-2.28257
-2.3247
-2.36693
-2.40925
-2.45166
-2.49418
-2.53678
-2.57948
-2.62228
-2.66516
-2.70814
-2.75121
-2.79437
-2.83764
-2.88097
-2.92439
-2.9679
-3.01149
-3.05516
-3.09886
-3.14264
-3.1865
-3.2304
-3.27436
-3.31841
-3.36253
-3.40678
-3.45117
-3.4958
-3.54079
-3.58643
-3.63313
-3.68124
-3.73136
-3.78274
-3.83527
-3.88569
-3.93514
3.09839
3.08396
3.0669
3.046
3.02385
3.00127
2.97948
2.95839
2.93793
2.91765
2.89733
2.87676
2.85583
2.83449
2.81272
2.79052
2.76789
2.74484
2.72138
2.69753
2.67328
2.64866
2.62368
2.59837
2.57272
2.54674
2.52046
2.49388
2.46702
2.43987
2.41245
2.38478
2.35685
2.32868
2.30028
2.27165
2.2428
2.21374
2.18447
2.15501
2.12535
2.09552
2.0655
2.03532
2.00498
1.97447
1.94382
1.91302
1.88208
1.85099
1.81977
1.78841
1.75693
1.72531
1.69357
1.66171
1.62972
1.59761
1.56537
1.53302
1.50055
1.46796
1.43525
1.40244
1.36951
1.33647
1.30332
1.27006
1.2367
1.20324
1.16967
1.13601
1.10224
1.06839
1.03443
1.00039
0.966245
0.932018
0.897695
0.863283
0.828785
0.794196
0.759513
0.724747
0.689894
0.65495
0.619921
0.584801
0.5496
0.514307
0.478932
0.443464
0.407914
0.37228
0.33655
0.300749
0.264847
0.228869
0.192798
0.156648
0.120409
0.0840951
0.0476932
0.0112171
-0.025351
-0.0619862
-0.0987191
-0.135523
-0.172413
-0.209387
-0.246438
-0.283576
-0.320791
-0.358094
-0.395475
-0.432943
-0.470492
-0.508128
-0.545856
-0.583667
-0.621566
-0.659562
-0.697651
-0.73583
-0.774112
-0.812486
-0.850962
-0.889532
-0.928211
-0.966984
-1.00587
-1.04485
-1.08393
-1.12312
-1.16242
-1.20181
-1.24133
-1.28093
-1.32066
-1.36048
-1.40042
-1.44046
-1.48061
-1.52087
-1.56125
-1.60172
-1.64232
-1.68303
-1.72384
-1.76477
-1.80582
-1.84698
-1.88825
-1.92962
-1.97112
-2.01271
-2.05441
-2.09621
-2.13812
-2.18011
-2.22221
-2.26439
-2.30667
-2.34905
-2.3915
-2.43404
-2.47667
-2.51939
-2.56219
-2.60507
-2.64805
-2.69111
-2.73425
-2.77747
-2.82078
-2.86418
-2.90765
-2.95118
-2.99481
-3.0385
-3.08224
-3.12604
-3.1699
-3.2138
-3.25776
-3.30179
-3.34588
-3.39008
-3.43439
-3.4789
-3.5237
-3.56901
-3.61511
-3.66248
-3.71136
-3.76213
-3.81374
-3.86572
-3.91511
-3.96337
3.10516
3.0928
3.07759
3.05831
3.03707
3.01472
2.99275
2.97139
2.95074
2.93041
2.91018
2.88978
2.86909
2.84801
2.8265
2.80457
2.78221
2.75941
2.73619
2.71257
2.68855
2.66414
2.63936
2.61422
2.58874
2.56292
2.53678
2.51033
2.48357
2.45653
2.4292
2.4016
2.37374
2.34561
2.31724
2.28863
2.2598
2.23073
2.20145
2.17195
2.14226
2.11237
2.0823
2.05204
2.02161
1.99101
1.96024
1.92932
1.89825
1.86703
1.83565
1.80414
1.77249
1.7407
1.70877
1.67671
1.64452
1.6122
1.57974
1.54717
1.51447
1.48164
1.4487
1.41563
1.38244
1.34914
1.31572
1.28219
1.24854
1.21479
1.18093
1.14696
1.1129
1.07872
1.04445
1.01008
0.975606
0.941038
0.906373
0.871612
0.836754
0.801809
0.766762
0.731628
0.696404
0.661081
0.62567
0.590166
0.554577
0.518887
0.483117
0.44725
0.411297
0.375253
0.339118
0.302897
0.266585
0.230186
0.193696
0.157122
0.120459
0.0837177
0.0468901
0.00998157
-0.0270114
-0.0640847
-0.101245
-0.138485
-0.175808
-0.213217
-0.2507
-0.288278
-0.325926
-0.363665
-0.401484
-0.439393
-0.477379
-0.515454
-0.553623
-0.591873
-0.630221
-0.668658
-0.707187
-0.745811
-0.784529
-0.823344
-0.862256
-0.901264
-0.940371
-0.979579
-1.01888
-1.05829
-1.0978
-1.13741
-1.17712
-1.21693
-1.25685
-1.29687
-1.33699
-1.37721
-1.41754
-1.45797
-1.49852
-1.53916
-1.57991
-1.62076
-1.66172
-1.70279
-1.74396
-1.78525
-1.82665
-1.86815
-1.90975
-1.95145
-1.99326
-2.03517
-2.07716
-2.11927
-2.16145
-2.20372
-2.24608
-2.28852
-2.33105
-2.37366
-2.41634
-2.4591
-2.50194
-2.54486
-2.58784
-2.63091
-2.67406
-2.71728
-2.76057
-2.80394
-2.84738
-2.89091
-2.93449
-2.97815
-3.02185
-3.06563
-3.10944
-3.15332
-3.19723
-3.2412
-3.28521
-3.32928
-3.37344
-3.4177
-3.46211
-3.50676
-3.55179
-3.59748
-3.64412
-3.6922
-3.74182
-3.79305
-3.84454
-3.89567
-3.94396
-3.99072
3.11075
3.10049
3.08726
3.06979
3.04978
3.02801
3.00608
2.98452
2.96364
2.94321
2.92301
2.90275
2.88226
2.86143
2.8402
2.81854
2.79644
2.77391
2.75094
2.72757
2.70378
2.6796
2.65502
2.63008
2.60478
2.57912
2.55314
2.52682
2.5002
2.47326
2.44603
2.41851
2.39071
2.36265
2.33433
2.30574
2.27693
2.24787
2.21858
2.18907
2.15933
2.12941
2.09927
2.06895
2.03844
2.00775
1.97688
1.94586
1.91466
1.8833
1.85178
1.82012
1.7883
1.75634
1.72422
1.69197
1.65958
1.62706
1.59439
1.56159
1.52866
1.4956
1.46241
1.42909
1.39565
1.36209
1.3284
1.29459
1.26066
1.22661
1.19246
1.15818
1.1238
1.08931
1.05471
1.02001
0.9852
0.950288
0.915269
0.880159
0.844937
0.809629
0.774215
0.738701
0.703098
0.667389
0.63159
0.595695
0.559703
0.523619
0.48744
0.451163
0.414799
0.378337
0.341788
0.305141
0.268405
0.23158
0.194659
0.15765
0.120554
0.0833762
0.04611
0.00876477
-0.0286679
-0.0661869
-0.103785
-0.141472
-0.179236
-0.217091
-0.255023
-0.293039
-0.331139
-0.369322
-0.407589
-0.445946
-0.484381
-0.522911
-0.561527
-0.600226
-0.639029
-0.677912
-0.716897
-0.755971
-0.795136
-0.834399
-0.873752
-0.913207
-0.952754
-0.992401
-1.03214
-1.07198
-1.11192
-1.15195
-1.19208
-1.23231
-1.27264
-1.31307
-1.3536
-1.39423
-1.43496
-1.47579
-1.51672
-1.55775
-1.59888
-1.6401
-1.68145
-1.72288
-1.76442
-1.80605
-1.84779
-1.88963
-1.93157
-1.9736
-2.01573
-2.05794
-2.10024
-2.14263
-2.1851
-2.22764
-2.27027
-2.31297
-2.35574
-2.39858
-2.44148
-2.48447
-2.52751
-2.57062
-2.6138
-2.65705
-2.70036
-2.74374
-2.78717
-2.83068
-2.87425
-2.9179
-2.96158
-3.00532
-3.04913
-3.09296
-3.13685
-3.18077
-3.22475
-3.26876
-3.31282
-3.35695
-3.40114
-3.44548
-3.49001
-3.53484
-3.58017
-3.6263
-3.67355
-3.72234
-3.77253
-3.82392
-3.875
-3.92506
-3.97211
-4.01735
3.11507
3.10694
3.09583
3.08031
3.06186
3.04097
3.01936
2.99772
2.97666
2.95609
2.93587
2.91569
2.89538
2.87478
2.85381
2.83242
2.81061
2.78835
2.76565
2.74253
2.71898
2.69504
2.67068
2.64595
2.62084
2.59536
2.56954
2.54338
2.51688
2.49007
2.46294
2.43552
2.4078
2.37981
2.35154
2.323
2.2942
2.26516
2.23587
2.20635
2.1766
2.14663
2.11645
2.08607
2.05549
2.02471
1.99376
1.96262
1.93131
1.89982
1.86817
1.83635
1.80438
1.77225
1.73996
1.70752
1.67493
1.6422
1.60932
1.57631
1.54315
1.50985
1.47642
1.44285
1.40915
1.37532
1.34136
1.30727
1.27305
1.23871
1.20425
1.16967
1.13497
1.10016
1.06523
1.03019
0.995041
0.959776
0.924409
0.888931
0.853351
0.817663
0.781875
0.745979
0.709986
0.673888
0.637691
0.601391
0.564995
0.5285
0.491907
0.455215
0.418425
0.381542
0.34456
0.307483
0.270314
0.233045
0.195689
0.158234
0.120696
0.0830672
0.0453593
0.00755745
-0.0303232
-0.0682932
-0.106348
-0.144484
-0.182708
-0.221015
-0.259404
-0.297877
-0.336433
-0.375076
-0.413802
-0.452615
-0.491512
-0.530502
-0.569576
-0.608744
-0.647999
-0.687349
-0.726787
-0.766323
-0.805949
-0.845663
-0.885474
-0.925375
-0.965376
-1.00547
-1.04565
-1.08593
-1.1263
-1.16677
-1.20733
-1.24799
-1.28873
-1.32958
-1.37052
-1.41157
-1.45269
-1.49392
-1.53525
-1.57666
-1.61817
-1.65979
-1.7015
-1.7433
-1.7852
-1.82719
-1.86928
-1.91146
-1.95373
-1.99609
-2.03853
-2.08106
-2.12365
-2.16633
-2.20908
-2.2519
-2.29479
-2.33774
-2.38076
-2.42383
-2.46696
-2.51016
-2.55341
-2.59671
-2.64008
-2.68349
-2.72697
-2.7705
-2.81408
-2.85772
-2.90141
-2.94515
-2.98894
-3.03277
-3.07664
-3.12054
-3.16448
-3.20846
-3.25247
-3.29653
-3.34061
-3.38479
-3.42906
-3.47347
-3.51814
-3.56322
-3.60889
-3.65553
-3.70341
-3.75284
-3.80339
-3.85471
-3.905
-3.95386
-3.99938
-4.043
3.11816
3.11213
3.10318
3.08978
3.0731
3.05346
3.03244
3.01094
2.98978
2.96907
2.94877
2.92864
2.90848
2.88808
2.86737
2.84625
2.82471
2.80274
2.78032
2.75745
2.73417
2.71046
2.68635
2.66183
2.63692
2.61164
2.58599
2.55999
2.53364
2.50696
2.47996
2.45264
2.42501
2.39709
2.36889
2.3404
2.31164
2.28261
2.25334
2.22382
2.19407
2.16406
2.13385
2.10342
2.07278
2.04193
2.01088
1.97965
1.94823
1.91662
1.88483
1.85288
1.82075
1.78845
1.756
1.72337
1.69059
1.65766
1.62457
1.59133
1.55795
1.52441
1.49074
1.45692
1.42296
1.38886
1.35462
1.32025
1.28575
1.25111
1.21634
1.18145
1.14643
1.11129
1.07603
1.04065
1.00515
0.969531
0.9338
0.897957
0.862001
0.825934
0.789757
0.753476
0.717084
0.680585
0.643985
0.607271
0.570464
0.533546
0.496528
0.459409
0.42219
0.384867
0.34745
0.309931
0.272312
0.234599
0.196786
0.158878
0.120885
0.0827996
0.0446274
0.00637014
-0.0319777
-0.0704111
-0.108926
-0.147533
-0.186221
-0.224994
-0.263851
-0.302796
-0.341816
-0.380933
-0.420126
-0.459411
-0.498782
-0.538238
-0.577787
-0.617426
-0.657155
-0.696974
-0.736885
-0.776885
-0.816977
-0.857162
-0.897432
-0.937794
-0.978249
-1.01879
-1.05943
-1.10016
-1.14097
-1.18188
-1.22287
-1.26396
-1.30515
-1.34641
-1.38777
-1.42923
-1.47076
-1.5124
-1.55412
-1.59593
-1.63783
-1.67983
-1.7219
-1.76407
-1.80633
-1.84869
-1.89112
-1.93364
-1.97624
-2.01892
-2.06168
-2.10452
-2.14741
-2.19038
-2.2334
-2.27651
-2.31964
-2.36285
-2.4061
-2.4494
-2.49277
-2.53618
-2.57962
-2.62312
-2.66666
-2.71025
-2.75388
-2.79756
-2.84128
-2.88505
-2.92885
-2.9727
-3.01657
-3.06048
-3.10441
-3.14838
-3.19236
-3.23639
-3.28043
-3.32451
-3.36865
-3.41287
-3.4572
-3.50174
-3.54658
-3.59192
-3.63803
-3.68521
-3.73371
-3.78362
-3.83433
-3.88515
-3.93448
-3.9819
-4.02572
-4.06773
3.12001
3.11605
3.10925
3.09805
3.08336
3.06524
3.04515
3.02403
3.00291
2.98209
2.96172
2.9416
2.92153
2.90132
2.88084
2.85999
2.83873
2.81704
2.7949
2.77232
2.74929
2.72585
2.70197
2.67768
2.65299
2.62791
2.60245
2.57661
2.55043
2.52389
2.49702
2.46982
2.4423
2.41447
2.38634
2.35791
2.3292
2.30022
2.27097
2.24146
2.2117
2.18169
2.15144
2.12097
2.09028
2.05936
2.02824
1.99692
1.96539
1.93367
1.90177
1.86967
1.83739
1.80494
1.77232
1.73951
1.70654
1.67341
1.64012
1.60666
1.57305
1.53929
1.50537
1.4713
1.43708
1.40271
1.36819
1.33354
1.29875
1.26381
1.22873
1.19352
1.15818
1.12271
1.0871
1.05138
1.01552
0.979543
0.943444
0.907228
0.870892
0.834434
0.79787
0.761184
0.724394
0.687483
0.650466
0.61334
0.576101
0.538757
0.501308
0.463748
0.42609
0.388318
0.350454
0.312478
0.274407
0.23623
0.197956
0.159583
0.121121
0.0825673
0.043925
0.00519062
-0.0336262
-0.0725384
-0.111527
-0.150614
-0.189777
-0.229032
-0.268367
-0.307788
-0.347297
-0.386888
-0.426565
-0.466334
-0.506182
-0.546128
-0.586155
-0.626281
-0.666492
-0.70679
-0.747181
-0.78766
-0.828232
-0.868883
-0.909631
-0.950462
-0.991379
-1.03239
-1.07348
-1.11466
-1.15593
-1.19728
-1.23872
-1.28025
-1.32187
-1.36356
-1.40535
-1.44721
-1.48917
-1.53121
-1.57333
-1.61554
-1.65783
-1.70021
-1.74266
-1.7852
-1.82783
-1.87053
-1.91331
-1.95617
-1.9991
-2.0421
-2.08517
-2.12831
-2.17151
-2.21475
-2.25806
-2.30141
-2.34482
-2.38827
-2.43175
-2.47529
-2.51886
-2.56247
-2.60612
-2.64981
-2.69352
-2.73727
-2.78106
-2.82488
-2.86873
-2.91262
-2.95653
-3.00047
-3.04442
-3.08841
-3.13241
-3.17642
-3.22045
-3.2645
-3.30859
-3.3527
-3.39688
-3.44115
-3.48558
-3.53025
-3.57532
-3.621
-3.66756
-3.7153
-3.76432
-3.81454
-3.8651
-3.91519
-3.96323
-4.00907
-4.05115
-4.09129
3.12073
3.11874
3.11401
3.10506
3.09251
3.07617
3.05731
3.03686
3.01597
2.99515
2.97472
2.95457
2.93458
2.91451
2.89425
2.87365
2.85267
2.83126
2.80941
2.78711
2.76437
2.74118
2.71756
2.69351
2.66905
2.64418
2.61892
2.59328
2.56726
2.54088
2.51415
2.48708
2.45968
2.43195
2.4039
2.37556
2.34691
2.31798
2.28877
2.25928
2.22952
2.19951
2.16925
2.13875
2.10801
2.07704
2.04586
2.01445
1.98283
1.951
1.91898
1.88675
1.85434
1.82173
1.78894
1.75596
1.72281
1.68948
1.65599
1.62231
1.58848
1.55448
1.52032
1.486
1.45152
1.41688
1.38209
1.34714
1.31206
1.27682
1.24143
1.2059
1.17023
1.13442
1.09847
1.06239
1.02617
0.989831
0.953356
0.916757
0.880035
0.843185
0.806221
0.769126
0.731921
0.694597
0.657153
0.6196
0.581929
0.544142
0.506254
0.46824
0.430131
0.391905
0.353576
0.315137
0.276599
0.237948
0.199202
0.16035
0.12141
0.0823735
0.0432507
0.00402959
-0.0352726
-0.0746705
-0.114153
-0.153727
-0.193378
-0.233131
-0.272952
-0.312871
-0.35287
-0.392953
-0.433128
-0.473387
-0.513732
-0.554175
-0.594696
-0.635314
-0.676016
-0.716809
-0.757692
-0.798657
-0.839714
-0.880854
-0.922079
-0.963389
-1.00478
-1.04626
-1.08783
-1.12946
-1.17119
-1.213
-1.25489
-1.29686
-1.33891
-1.38104
-1.42326
-1.46555
-1.50792
-1.55038
-1.5929
-1.6355
-1.67819
-1.72095
-1.76378
-1.8067
-1.84967
-1.89274
-1.93586
-1.97906
-2.02231
-2.06564
-2.10901
-2.15245
-2.19594
-2.23947
-2.28305
-2.32666
-2.37031
-2.41401
-2.45773
-2.50148
-2.54526
-2.58906
-2.63291
-2.67677
-2.72066
-2.76457
-2.8085
-2.85246
-2.89644
-2.94043
-2.98444
-3.02847
-3.07251
-3.11655
-3.16061
-3.20467
-3.24874
-3.29282
-3.33693
-3.38109
-3.42532
-3.46966
-3.51419
-3.55904
-3.60436
-3.65044
-3.69749
-3.74576
-3.79517
-3.84547
-3.89556
-3.94466
-3.99116
-4.03528
-4.07559
-4.11393
3.12039
3.12021
3.11748
3.11076
3.10043
3.08609
3.06875
3.04926
3.02884
3.00816
2.98771
2.96756
2.9476
2.92766
2.90757
2.88722
2.86651
2.84538
2.82382
2.80181
2.77935
2.75644
2.73308
2.70929
2.68507
2.66043
2.63538
2.60993
2.5841
2.5579
2.53133
2.5044
2.47713
2.44951
2.42157
2.39332
2.36475
2.33588
2.30671
2.27726
2.24753
2.21753
2.18727
2.15675
2.12598
2.09496
2.06371
2.03224
2.00054
1.96861
1.93648
1.90413
1.87158
1.83882
1.80587
1.77272
1.73939
1.70587
1.67217
1.63829
1.60423
1.57
1.53559
1.50102
1.46628
1.43138
1.39631
1.36108
1.32568
1.29014
1.25444
1.21858
1.18257
1.14642
1.11013
1.07369
1.03711
1.00039
0.963536
0.926555
0.889436
0.852183
0.81481
0.777303
0.739677
0.701924
0.664047
0.626057
0.587938
0.549709
0.51136
0.472893
0.434316
0.395625
0.356821
0.317911
0.278887
0.239758
0.200523
0.161181
0.121751
0.0822194
0.0425999
0.00288668
-0.0369205
-0.0768137
-0.1168
-0.156873
-0.197033
-0.237283
-0.277617
-0.318032
-0.358544
-0.39913
-0.439813
-0.48058
-0.521432
-0.56238
-0.603408
-0.644533
-0.685741
-0.727031
-0.768418
-0.809881
-0.851432
-0.893066
-0.934783
-0.97658
-1.01846
-1.06042
-1.10245
-1.14457
-1.18676
-1.22903
-1.27138
-1.3138
-1.3563
-1.39887
-1.44152
-1.48424
-1.52703
-1.5699
-1.61283
-1.65584
-1.69891
-1.74206
-1.78527
-1.82855
-1.87189
-1.91531
-1.95878
-2.00231
-2.04589
-2.08953
-2.13321
-2.17694
-2.22072
-2.26452
-2.30836
-2.35223
-2.39613
-2.44005
-2.484
-2.52796
-2.57194
-2.61594
-2.65996
-2.704
-2.74804
-2.79211
-2.83618
-2.88026
-2.92435
-2.96846
-3.01256
-3.05667
-3.10077
-3.14488
-3.18898
-3.23308
-3.27719
-3.3213
-3.36545
-3.40964
-3.45392
-3.49835
-3.54304
-3.58809
-3.63374
-3.68022
-3.72776
-3.77647
-3.82609
-3.87618
-3.92558
-3.97334
-4.01817
-4.06044
-4.09896
-4.13558
3.11917
3.1206
3.11971
3.11514
3.10706
3.09487
3.07932
3.06109
3.0414
3.02104
3.00069
2.98054
2.96062
2.94077
2.92085
2.90071
2.88025
2.85941
2.83815
2.81644
2.79426
2.77163
2.74856
2.72503
2.70106
2.67666
2.65184
2.62661
2.60098
2.57497
2.54857
2.5218
2.49467
2.46719
2.43937
2.41122
2.38274
2.35394
2.32484
2.29544
2.26574
2.23577
2.20551
2.17498
2.14419
2.11314
2.08184
2.0503
2.01853
1.98651
1.95427
1.92181
1.88912
1.85623
1.82313
1.78981
1.75631
1.7226
1.6887
1.65461
1.62033
1.58587
1.55122
1.5164
1.48139
1.44622
1.41086
1.37534
1.33965
1.30379
1.26777
1.23159
1.19525
1.15875
1.1221
1.0853
1.04834
1.01125
0.97401
0.936631
0.899107
0.861451
0.823654
0.785734
0.747668
0.709485
0.671164
0.632723
0.594152
0.555461
0.516648
0.477712
0.43866
0.399486
0.360203
0.320803
0.281286
0.241656
0.201927
0.16208
0.122149
0.0821066
0.0419838
0.00175704
-0.0385629
-0.0789716
-0.119468
-0.16006
-0.200736
-0.241502
-0.282353
-0.323291
-0.364319
-0.405428
-0.446632
-0.487914
-0.529297
-0.570752
-0.612307
-0.653942
-0.69567
-0.737477
-0.779375
-0.821344
-0.863411
-0.905542
-0.947761
-0.990054
-1.03243
-1.07488
-1.11739
-1.15998
-1.20266
-1.24539
-1.28821
-1.33108
-1.37404
-1.41706
-1.46014
-1.5033
-1.54652
-1.5898
-1.63314
-1.67655
-1.72002
-1.76356
-1.80715
-1.8508
-1.89451
-1.93828
-1.98208
-2.02595
-2.06985
-2.1138
-2.15779
-2.20181
-2.24586
-2.28994
-2.33404
-2.37815
-2.42229
-2.46644
-2.51059
-2.55476
-2.59894
-2.64312
-2.68731
-2.7315
-2.77571
-2.81991
-2.86411
-2.90831
-2.9525
-2.9967
-3.04089
-3.08507
-3.12923
-3.17339
-3.21753
-3.26167
-3.30581
-3.34996
-3.39412
-3.43836
-3.48272
-3.52727
-3.57211
-3.61743
-3.66343
-3.71034
-3.75831
-3.80734
-3.85696
-3.90657
-3.95488
-4.00115
-4.04419
-4.0846
-4.12135
-4.15629
3.11718
3.11997
3.12074
3.11822
3.11235
3.1024
3.08883
3.07215
3.05346
3.03366
3.01355
2.99347
2.9736
2.95383
2.93405
2.91411
2.8939
2.87334
2.85236
2.83095
2.80908
2.78675
2.76396
2.74071
2.717
2.69287
2.66829
2.64329
2.61788
2.59206
2.56585
2.53926
2.5123
2.48496
2.45727
2.42924
2.40087
2.37216
2.34314
2.3138
2.28414
2.2542
2.22396
2.19344
2.16264
2.13156
2.10023
2.06864
2.0368
2.0047
1.97237
1.93979
1.90699
1.87396
1.8407
1.80723
1.77355
1.73966
1.70556
1.67126
1.63677
1.60207
1.56719
1.53211
1.49685
1.4614
1.42576
1.38995
1.35396
1.31779
1.28144
1.24493
1.20825
1.1714
1.13439
1.09722
1.05989
1.02241
0.984778
0.946992
0.909059
0.870991
0.832764
0.794409
0.75591
0.717275
0.678507
0.639602
0.600573
0.561404
0.522119
0.4827
0.443161
0.403497
0.363716
0.323811
0.283793
0.243658
0.20341
0.163049
0.122601
0.0820417
0.0413907
0.000643165
-0.0401985
-0.0811375
-0.122164
-0.163283
-0.204491
-0.245789
-0.287168
-0.328646
-0.3702
-0.411849
-0.453582
-0.495403
-0.537313
-0.579303
-0.621395
-0.663555
-0.70581
-0.748148
-0.790561
-0.83306
-0.875639
-0.918288
-0.961014
-1.00382
-1.04669
-1.08963
-1.13265
-1.17573
-1.21888
-1.26209
-1.30537
-1.34873
-1.39213
-1.4356
-1.47913
-1.52273
-1.56637
-1.61008
-1.65384
-1.69766
-1.74153
-1.78545
-1.82943
-1.87345
-1.91752
-1.96163
-2.00578
-2.04998
-2.0942
-2.13846
-2.18273
-2.22705
-2.27137
-2.31571
-2.36006
-2.40442
-2.44879
-2.49315
-2.53752
-2.58189
-2.62624
-2.6706
-2.71495
-2.7593
-2.80363
-2.84796
-2.89227
-2.93658
-2.98087
-3.02515
-3.06941
-3.11364
-3.15786
-3.20206
-3.24624
-3.2904
-3.33457
-3.37874
-3.42295
-3.46725
-3.51169
-3.55636
-3.60142
-3.64703
-3.69338
-3.74073
-3.78905
-3.8382
-3.88756
-3.93638
-3.98341
-4.02795
-4.06914
-4.10767
-4.14279
-4.1762
3.11465
3.11852
3.12071
3.12007
3.11631
3.10862
3.09718
3.08228
3.06489
3.0459
3.0262
3.00633
2.98653
2.96685
2.9472
2.92745
2.90747
2.88717
2.86649
2.84538
2.82382
2.80179
2.7793
2.75634
2.73292
2.70905
2.68474
2.65998
2.6348
2.60921
2.58321
2.5568
2.53001
2.50285
2.47531
2.4474
2.41915
2.39056
2.36162
2.33235
2.30276
2.27286
2.24265
2.21215
2.18135
2.15026
2.1189
2.08726
2.05536
2.02319
1.99077
1.95809
1.92517
1.89201
1.85862
1.825
1.79115
1.75707
1.72278
1.68828
1.65356
1.61865
1.58352
1.5482
1.51267
1.47695
1.44103
1.40492
1.36863
1.33214
1.29547
1.25862
1.2216
1.18439
1.14701
1.10947
1.07176
1.03389
0.995851
0.957661
0.91931
0.88081
0.842155
0.803353
0.764409
0.725316
0.686084
0.646714
0.607203
0.567559
0.527781
0.48787
0.44783
0.407661
0.367373
0.326951
0.286418
0.245757
0.204982
0.164095
0.123115
0.0820228
0.0408353
-0.000453791
-0.0418313
-0.0833154
-0.124881
-0.166546
-0.2083
-0.250144
-0.292073
-0.334092
-0.3762
-0.418392
-0.460674
-0.503045
-0.545499
-0.588042
-0.630673
-0.673382
-0.716178
-0.759049
-0.802002
-0.845036
-0.888138
-0.931313
-0.974563
-1.01788
-1.06127
-1.10472
-1.14823
-1.19181
-1.23545
-1.27915
-1.32291
-1.36673
-1.4106
-1.45453
-1.49851
-1.54254
-1.58663
-1.63076
-1.67495
-1.71917
-1.76344
-1.80776
-1.85211
-1.8965
-1.94094
-1.98539
-2.0299
-2.07441
-2.11895
-2.16352
-2.20809
-2.25268
-2.29728
-2.34188
-2.38648
-2.43107
-2.47566
-2.52024
-2.56481
-2.60936
-2.65389
-2.69841
-2.74291
-2.78739
-2.83186
-2.8763
-2.92072
-2.96512
-3.00949
-3.05384
-3.09815
-3.14243
-3.18669
-3.23092
-3.27512
-3.3193