/*--------------------------------*- C++ -*----------------------------------*\
  =========                 |
  \\      /  F ield         | OpenFOAM: The Open Source CFD Toolbox
   \\    /   O peration     | Website:  https://openfoam.org
    \\  /    A nd           | Version:  8
     \\/     M anipulation  |
\*---------------------------------------------------------------------------*/
FoamFile
{
    version     2.0;
    format      ascii;
    class       volScalarField;
    location    "2.10712";
    object      nut;
}
// * * * * * * * * * * * * * * * * * * * * * * * * * * * * * * * * * * * * * //

dimensions      [0 2 -1 0 0 0 0];

internalField   nonuniform List<scalar> 
115200
(
0.000213364
0.000219956
0.000226104
0.000231868
0.000237306
0.000242473
0.000247424
0.0002522
0.000256817
0.000261249
0.000265437
0.000269337
0.000272955
0.000276303
0.000279395
0.000282243
0.000284857
0.000287249
0.000289428
0.000291401
0.000293175
0.000294755
0.000296143
0.000297338
0.000298338
0.000299131
0.000299704
0.000300041
0.000300163
0.000300189
0.000300113
0.000299942
0.00029968
0.00029933
0.000298896
0.000298378
0.00029778
0.000297102
0.000296347
0.000295515
0.000294607
0.000293625
0.000292569
0.000291441
0.000290241
0.000288971
0.00028763
0.000286219
0.00028474
0.000283192
0.000281577
0.000279893
0.000278143
0.000276327
0.000274444
0.000272494
0.000270479
0.000268397
0.00026625
0.000264036
0.000261756
0.00025941
0.000256996
0.000254516
0.000251967
0.00024935
0.000246663
0.000243906
0.000241078
0.000238177
0.000235202
0.000232151
0.000229023
0.000225816
0.000222527
0.000219154
0.000215694
0.000212143
0.000208498
0.000204753
0.000200903
0.000196944
0.000192868
0.00018867
0.000184339
0.000179869
0.000175246
0.00017046
0.000165495
0.000160334
0.000154957
0.000149342
0.000143465
0.000137305
0.000130864
0.000124212
0.000117603
0.000111662
0.000107365
0.000105192
0.000344384
0.000342694
0.000340471
0.000337801
0.000334822
0.000331748
0.00032893
0.000326923
0.000326523
0.000328435
0.000332106
0.000336089
0.00034004
0.000343951
0.00034783
0.000351685
0.000355525
0.000359359
0.000363194
0.000367039
0.000370905
0.000374802
0.000378742
0.000382737
0.000386799
0.000390914
0.000395075
0.000399293
0.000403541
0.000407712
0.000411815
0.000415855
0.000419833
0.000423753
0.000427615
0.00043142
0.000435171
0.000438867
0.00044251
0.0004461
0.000449638
0.000453123
0.000456556
0.000459938
0.000463268
0.000466547
0.000469774
0.00047295
0.000476075
0.000479149
0.000482171
0.000485142
0.000488062
0.000490931
0.000493747
0.000496513
0.000499227
0.000501889
0.000504499
0.000507058
0.000509564
0.000512019
0.000514421
0.00051677
0.000519068
0.000521312
0.000523504
0.000525643
0.000527729
0.000529763
0.000531744
0.000533673
0.00053555
0.000537376
0.00053915
0.000540875
0.000542553
0.000544186
0.000545773
0.000547309
0.000548791
0.000550222
0.000551601
0.000552929
0.000554208
0.000555439
0.000556622
0.000557759
0.000558853
0.000559903
0.000560911
0.000561875
0.000562793
0.000563663
0.000564475
0.000565212
0.000565846
0.000566343
0.000566673
0.000566843
0.000530563
0.000543275
0.000555954
0.000568616
0.000581262
0.00059389
0.00060649
0.000619044
0.000631515
0.000643847
0.000655982
0.000667883
0.000679554
0.000691003
0.000702241
0.000713275
0.000724113
0.000734764
0.000745233
0.000755527
0.000765648
0.000775601
0.000785385
0.000794999
0.000804443
0.000813739
0.00082291
0.000831957
0.000840878
0.00084967
0.000858331
0.000866863
0.000875265
0.00088354
0.00089169
0.000899715
0.000907616
0.000915396
0.000923054
0.000930592
0.00093801
0.000945309
0.00095249
0.000959552
0.000966495
0.000973321
0.000980029
0.000986619
0.000993091
0.000999445
0.00100568
0.0010118
0.0010178
0.00102368
0.00102945
0.0010351
0.00104062
0.00104603
0.00105132
0.0010565
0.00106155
0.00106648
0.0010713
0.00107599
0.00108056
0.00108501
0.00108934
0.00109355
0.00109764
0.00110161
0.00110545
0.00110917
0.00111277
0.00111624
0.0011196
0.00112283
0.00112593
0.00112892
0.00113178
0.00113451
0.00113712
0.00113961
0.00114198
0.00114422
0.00114634
0.00114833
0.0011502
0.00115195
0.00115359
0.0011551
0.00115649
0.00115776
0.0011589
0.00115992
0.0011608
0.00116155
0.00116216
0.00116263
0.00116296
0.00116315
0.000868391
0.000890256
0.00091167
0.00093266
0.000953235
0.000973404
0.000993176
0.00101256
0.00103157
0.00105023
0.00106855
0.00108655
0.00110425
0.00112165
0.00113877
0.00115561
0.00117219
0.00118851
0.00120457
0.00122039
0.00123598
0.00125134
0.00126647
0.00128139
0.0012961
0.0013106
0.00132489
0.00133898
0.00135288
0.00136657
0.00138006
0.00139336
0.00140646
0.00141937
0.00143209
0.00144461
0.00145695
0.0014691
0.00148106
0.00149283
0.00150442
0.00151582
0.00152704
0.00153807
0.00154892
0.00155958
0.00157006
0.00158035
0.00159046
0.00160039
0.00161013
0.00161969
0.00162906
0.00163825
0.00164725
0.00165606
0.00166469
0.00167313
0.00168139
0.00168946
0.00169735
0.00170505
0.00171256
0.00171988
0.00172702
0.00173396
0.00174072
0.00174729
0.00175366
0.00175984
0.00176584
0.00177164
0.00177724
0.00178266
0.00178788
0.00179291
0.00179775
0.00180239
0.00180684
0.0018111
0.00181516
0.00181903
0.0018227
0.00182618
0.00182946
0.00183254
0.00183543
0.00183813
0.00184063
0.00184293
0.00184504
0.00184694
0.00184865
0.00185016
0.00185147
0.00185257
0.00185347
0.00185417
0.00185466
0.00185495
0.00126966
0.00129852
0.00132685
0.00135471
0.0013821
0.00140905
0.00143556
0.00146165
0.00148733
0.00151261
0.00153751
0.00156204
0.0015862
0.00161001
0.00163347
0.0016566
0.00167938
0.00170184
0.00172396
0.00174577
0.00176727
0.00178846
0.00180936
0.00182996
0.00185028
0.00187031
0.00189006
0.00190954
0.00192875
0.00194768
0.00196635
0.00198475
0.00200289
0.00202076
0.00203837
0.00205572
0.00207281
0.00208965
0.00210622
0.00212254
0.0021386
0.0021544
0.00216995
0.00218524
0.00220028
0.00221506
0.00222959
0.00224386
0.00225787
0.00227163
0.00228513
0.00229837
0.00231136
0.00232409
0.00233657
0.00234878
0.00236074
0.00237243
0.00238387
0.00239505
0.00240596
0.00241662
0.00242701
0.00243714
0.00244701
0.00245662
0.00246596
0.00247503
0.00248384
0.00249239
0.00250067
0.00250868
0.00251643
0.00252391
0.00253112
0.00253806
0.00254473
0.00255114
0.00255727
0.00256314
0.00256873
0.00257405
0.00257911
0.00258389
0.0025884
0.00259264
0.0025966
0.00260029
0.00260371
0.00260686
0.00260973
0.00261232
0.00261464
0.00261669
0.00261846
0.00261995
0.00262116
0.00262209
0.00262275
0.00262312
0.00171965
0.00175574
0.00179131
0.00182636
0.0018609
0.00189494
0.0019285
0.00196158
0.0019942
0.00202635
0.00205806
0.00208932
0.00212016
0.00215056
0.00218055
0.00221013
0.00223931
0.00226809
0.00229647
0.00232448
0.0023521
0.00237936
0.00240624
0.00243276
0.00245892
0.00248473
0.00251019
0.0025353
0.00256006
0.00258448
0.00260857
0.00263231
0.00265572
0.00267879
0.00270152
0.00272392
0.00274599
0.00276773
0.00278914
0.00281021
0.00283096
0.00285137
0.00287146
0.00289122
0.00291064
0.00292974
0.0029485
0.00296694
0.00298504
0.00300281
0.00302025
0.00303736
0.00305414
0.00307058
0.00308669
0.00310246
0.0031179
0.003133
0.00314777
0.0031622
0.00317629
0.00319005
0.00320346
0.00321654
0.00322927
0.00324166
0.00325371
0.00326542
0.00327679
0.00328781
0.00329849
0.00330882
0.00331881
0.00332845
0.00333774
0.00334669
0.00335528
0.00336353
0.00337143
0.00337899
0.00338619
0.00339304
0.00339954
0.00340568
0.00341148
0.00341692
0.00342202
0.00342675
0.00343114
0.00343517
0.00343885
0.00344217
0.00344513
0.00344774
0.00344999
0.00345189
0.00345343
0.00345461
0.00345544
0.0034559
0.00221628
0.00225967
0.00230247
0.00234471
0.00238641
0.00242757
0.00246821
0.00250833
0.00254794
0.00258704
0.00262565
0.00266375
0.00270138
0.00273852
0.00277518
0.00281138
0.00284711
0.00288238
0.0029172
0.00295157
0.00298549
0.00301898
0.00305203
0.00308464
0.00311683
0.0031486
0.00317994
0.00321086
0.00324137
0.00327146
0.00330113
0.0033304
0.00335925
0.00338769
0.00341573
0.00344335
0.00347057
0.00349738
0.00352379
0.00354978
0.00357538
0.00360056
0.00362534
0.00364971
0.00367368
0.00369724
0.00372039
0.00374313
0.00376547
0.0037874
0.00380891
0.00383002
0.00385071
0.003871
0.00389087
0.00391032
0.00392937
0.00394799
0.00396621
0.003984
0.00400138
0.00401834
0.00403488
0.004051
0.0040667
0.00408198
0.00409684
0.00411127
0.00412528
0.00413886
0.00415202
0.00416475
0.00417706
0.00418893
0.00420038
0.0042114
0.00422199
0.00423214
0.00424187
0.00425117
0.00426003
0.00426846
0.00427645
0.00428401
0.00429114
0.00429783
0.00430409
0.00430991
0.0043153
0.00432024
0.00432475
0.00432883
0.00433246
0.00433566
0.00433841
0.00434073
0.00434261
0.00434405
0.00434505
0.00434561
0.00275649
0.00280723
0.00285734
0.00290685
0.00295579
0.00300416
0.00305197
0.00309922
0.00314592
0.00319206
0.00323766
0.00328271
0.00332723
0.00337121
0.00341466
0.00345759
0.00349999
0.00354187
0.00358324
0.00362409
0.00366444
0.00370428
0.00374362
0.00378245
0.00382079
0.00385863
0.00389598
0.00393284
0.00396921
0.0040051
0.00404049
0.0040754
0.00410982
0.00414376
0.00417721
0.00421019
0.00424267
0.00427468
0.0043062
0.00433724
0.00436779
0.00439786
0.00442745
0.00445655
0.00448517
0.0045133
0.00454095
0.0045681
0.00459477
0.00462096
0.00464665
0.00467185
0.00469656
0.00472078
0.0047445
0.00476773
0.00479047
0.00481271
0.00483445
0.0048557
0.00487644
0.00489669
0.00491643
0.00493567
0.00495441
0.00497265
0.00499038
0.0050076
0.00502432
0.00504052
0.00505622
0.00507141
0.00508609
0.00510026
0.00511391
0.00512705
0.00513968
0.0051518
0.00516339
0.00517447
0.00518504
0.00519509
0.00520462
0.00521363
0.00522212
0.00523009
0.00523754
0.00524447
0.00525088
0.00525677
0.00526214
0.00526698
0.0052713
0.0052751
0.00527837
0.00528113
0.00528335
0.00528506
0.00528624
0.00528689
0.00333846
0.00339664
0.00345414
0.00351102
0.00356728
0.00362293
0.00367799
0.00373244
0.0037863
0.00383956
0.00389224
0.00394431
0.0039958
0.00404671
0.00409702
0.00414676
0.00419591
0.00424449
0.00429248
0.00433991
0.00438676
0.00443304
0.00447874
0.00452389
0.00456846
0.00461247
0.00465592
0.00469881
0.00474113
0.00478289
0.0048241
0.00486474
0.00490482
0.00494434
0.00498331
0.00502171
0.00505955
0.00509684
0.00513356
0.00516972
0.00520532
0.00524036
0.00527484
0.00530875
0.0053421
0.00537488
0.00540709
0.00543874
0.00546982
0.00550033
0.00553027
0.00555964
0.00558844
0.00561666
0.00564431
0.00567138
0.00569787
0.00572378
0.00574912
0.00577387
0.00579804
0.00582163
0.00584463
0.00586705
0.00588888
0.00591012
0.00593077
0.00595084
0.00597031
0.00598918
0.00600747
0.00602516
0.00604225
0.00605875
0.00607465
0.00608995
0.00610465
0.00611876
0.00613226
0.00614516
0.00615745
0.00616915
0.00618024
0.00619072
0.0062006
0.00620988
0.00621855
0.00622661
0.00623406
0.00624091
0.00624715
0.00625278
0.0062578
0.00626221
0.00626601
0.00626921
0.00627179
0.00627376
0.00627513
0.00627588
0.00396105
0.00402674
0.00409172
0.00415603
0.00421968
0.00428268
0.00434505
0.00440677
0.00446785
0.00452829
0.00458809
0.00464725
0.00470577
0.00476365
0.00482088
0.00487748
0.00493344
0.00498877
0.00504345
0.0050975
0.00515091
0.00520369
0.00525583
0.00530733
0.00535821
0.00540844
0.00545805
0.00550702
0.00555536
0.00560306
0.00565013
0.00569657
0.00574237
0.00578753
0.00583207
0.00587596
0.00591922
0.00596184
0.00600383
0.00604517
0.00608587
0.00612594
0.00616536
0.00620413
0.00624227
0.00627975
0.00631659
0.00635278
0.00638832
0.00642321
0.00645745
0.00649104
0.00652397
0.00655624
0.00658785
0.00661881
0.0066491
0.00667873
0.0067077
0.00673601
0.00676364
0.00679061
0.00681691
0.00684254
0.0068675
0.00689178
0.00691539
0.00693833
0.00696058
0.00698216
0.00700306
0.00702328
0.00704282
0.00706168
0.00707985
0.00709733
0.00711414
0.00713025
0.00714568
0.00716042
0.00717447
0.00718783
0.0072005
0.00721247
0.00722376
0.00723435
0.00724425
0.00725346
0.00726197
0.00726979
0.00727691
0.00728334
0.00728907
0.0072941
0.00729844
0.00730208
0.00730503
0.00730727
0.00730883
0.00730968
0.00462341
0.00469668
0.0047692
0.004841
0.0049121
0.00498251
0.00505223
0.00512127
0.00518962
0.00525728
0.00532425
0.00539053
0.00545612
0.00552101
0.00558521
0.00564871
0.00571152
0.00577363
0.00583504
0.00589575
0.00595576
0.00601507
0.00607368
0.00613159
0.0061888
0.0062453
0.0063011
0.0063562
0.00641058
0.00646427
0.00651725
0.00656951
0.00662107
0.00667192
0.00672206
0.00677149
0.0068202
0.0068682
0.00691548
0.00696204
0.00700788
0.00705301
0.00709741
0.00714109
0.00718404
0.00722626
0.00726776
0.00730853
0.00734856
0.00738787
0.00742643
0.00746427
0.00750136
0.00753771
0.00757332
0.00760819
0.00764231
0.00767569
0.00770832
0.0077402
0.00777133
0.0078017
0.00783133
0.00786019
0.0078883
0.00791565
0.00794224
0.00796807
0.00799313
0.00801743
0.00804097
0.00806373
0.00808573
0.00810696
0.00812742
0.00814711
0.00816603
0.00818417
0.00820154
0.00821813
0.00823395
0.00824899
0.00826325
0.00827673
0.00828943
0.00830135
0.00831249
0.00832285
0.00833243
0.00834123
0.00834924
0.00835647
0.00836291
0.00836858
0.00837345
0.00837755
0.00838086
0.00838339
0.00838513
0.00838609
0.0053249
0.00540582
0.00548594
0.00556528
0.00564388
0.00572174
0.00579886
0.00587525
0.00595091
0.00602582
0.0061
0.00617343
0.00624612
0.00631806
0.00638924
0.00645968
0.00652935
0.00659827
0.00666643
0.00673383
0.00680047
0.00686634
0.00693144
0.00699577
0.00705933
0.00712212
0.00718414
0.00724538
0.00730585
0.00736553
0.00742444
0.00748256
0.0075399
0.00759645
0.00765222
0.0077072
0.00776138
0.00781478
0.00786737
0.00791918
0.00797018
0.00802038
0.00806979
0.00811838
0.00816618
0.00821316
0.00825933
0.00830469
0.00834924
0.00839298
0.00843589
0.00847798
0.00851926
0.00855971
0.00859933
0.00863813
0.0086761
0.00871324
0.00874954
0.00878501
0.00881964
0.00885344
0.00888639
0.00891851
0.00894978
0.00898021
0.00900979
0.00903852
0.0090664
0.00909343
0.00911961
0.00914494
0.00916941
0.00919302
0.00921578
0.00923768
0.00925872
0.0092789
0.00929821
0.00931666
0.00933425
0.00935098
0.00936683
0.00938182
0.00939595
0.0094092
0.00942159
0.00943311
0.00944376
0.00945354
0.00946244
0.00947048
0.00947764
0.00948394
0.00948936
0.00949391
0.00949759
0.00950039
0.00950233
0.00950339
0.00606506
0.00615368
0.00624143
0.00632837
0.00641451
0.00649986
0.00658442
0.0066682
0.00675119
0.00683339
0.00691479
0.0069954
0.00707521
0.00715421
0.0072324
0.00730979
0.00738635
0.0074621
0.00753702
0.00761112
0.00768439
0.00775683
0.00782843
0.0078992
0.00796913
0.00803822
0.00810646
0.00817386
0.00824041
0.0083061
0.00837094
0.00843493
0.00849806
0.00856032
0.00862173
0.00868226
0.00874193
0.00880073
0.00885865
0.0089157
0.00897187
0.00902717
0.00908157
0.0091351
0.00918774
0.00923948
0.00929034
0.0093403
0.00938937
0.00943754
0.0094848
0.00953117
0.00957662
0.00962118
0.00966482
0.00970755
0.00974937
0.00979027
0.00983025
0.00986931
0.00990746
0.00994467
0.00998097
0.0100163
0.0100508
0.0100843
0.0101168
0.0101485
0.0101792
0.010209
0.0102378
0.0102657
0.0102926
0.0103186
0.0103437
0.0103678
0.0103909
0.0104132
0.0104344
0.0104547
0.0104741
0.0104925
0.01051
0.0105265
0.010542
0.0105566
0.0105702
0.0105829
0.0105946
0.0106054
0.0106152
0.010624
0.0106319
0.0106389
0.0106448
0.0106498
0.0106539
0.010657
0.0106591
0.0106602
0.00684351
0.00693988
0.00703532
0.00712989
0.00722361
0.00731648
0.00740852
0.00749971
0.00759006
0.00767957
0.00776823
0.00785603
0.00794297
0.00802905
0.00811426
0.0081986
0.00828206
0.00836464
0.00844633
0.00852714
0.00860705
0.00868606
0.00876417
0.00884138
0.00891767
0.00899306
0.00906753
0.00914108
0.00921371
0.00928542
0.0093562
0.00942604
0.00949496
0.00956293
0.00962997
0.00969606
0.00976121
0.00982541
0.00988865
0.00995094
0.0100123
0.0100727
0.0101321
0.0101905
0.010248
0.0103045
0.01036
0.0104146
0.0104682
0.0105208
0.0105724
0.010623
0.0106727
0.0107213
0.010769
0.0108156
0.0108613
0.0109059
0.0109496
0.0109922
0.0110339
0.0110745
0.0111142
0.0111528
0.0111904
0.0112269
0.0112625
0.011297
0.0113306
0.0113631
0.0113945
0.011425
0.0114544
0.0114828
0.0115101
0.0115364
0.0115617
0.011586
0.0116092
0.0116313
0.0116525
0.0116726
0.0116916
0.0117096
0.0117266
0.0117425
0.0117574
0.0117712
0.011784
0.0117958
0.0118065
0.0118161
0.0118247
0.0118323
0.0118388
0.0118442
0.0118486
0.011852
0.0118543
0.0118556
0.00766
0.00776415
0.00786733
0.00796957
0.0080709
0.00817133
0.00827086
0.0083695
0.00846723
0.00856406
0.00865998
0.00875499
0.00884908
0.00894225
0.00903448
0.00912579
0.00921615
0.00930556
0.00939402
0.00948153
0.00956808
0.00965366
0.00973827
0.00982191
0.00990457
0.00998625
0.0100669
0.0101466
0.0102253
0.010303
0.0103797
0.0104554
0.0105301
0.0106038
0.0106765
0.0107481
0.0108187
0.0108883
0.0109569
0.0110244
0.0110909
0.0111563
0.0112207
0.0112841
0.0113464
0.0114076
0.0114678
0.011527
0.0115851
0.0116421
0.011698
0.0117529
0.0118067
0.0118594
0.0119111
0.0119617
0.0120112
0.0120596
0.0121069
0.0121531
0.0121982
0.0122423
0.0122852
0.0123271
0.0123678
0.0124075
0.012446
0.0124834
0.0125198
0.012555
0.0125891
0.0126221
0.0126539
0.0126847
0.0127143
0.0127428
0.0127702
0.0127965
0.0128217
0.0128457
0.0128686
0.0128903
0.012911
0.0129305
0.0129489
0.0129661
0.0129822
0.0129972
0.0130111
0.0130238
0.0130354
0.0130458
0.0130552
0.0130633
0.0130704
0.0130763
0.0130811
0.0130847
0.0130872
0.0130886
0.00851433
0.00862631
0.00873726
0.00884721
0.00895618
0.00906419
0.00917124
0.00927734
0.00938247
0.00948664
0.00958984
0.00969206
0.00979331
0.00989356
0.00999283
0.0100911
0.0101883
0.0102846
0.0103798
0.010474
0.0105672
0.0106593
0.0107505
0.0108405
0.0109295
0.0110175
0.0111044
0.0111902
0.011275
0.0113587
0.0114413
0.0115228
0.0116032
0.0116826
0.0117609
0.011838
0.0119141
0.011989
0.0120629
0.0121356
0.0122072
0.0122777
0.0123471
0.0124154
0.0124825
0.0125485
0.0126133
0.012677
0.0127396
0.012801
0.0128612
0.0129203
0.0129783
0.0130351
0.0130907
0.0131452
0.0131985
0.0132506
0.0133016
0.0133514
0.0134
0.0134474
0.0134937
0.0135387
0.0135826
0.0136253
0.0136668
0.0137071
0.0137462
0.0137841
0.0138208
0.0138564
0.0138907
0.0139238
0.0139557
0.0139864
0.0140159
0.0140442
0.0140712
0.0140971
0.0141217
0.0141452
0.0141674
0.0141884
0.0142082
0.0142268
0.0142441
0.0142602
0.0142751
0.0142888
0.0143013
0.0143125
0.0143226
0.0143314
0.014339
0.0143453
0.0143505
0.0143544
0.0143571
0.0143586
0.00940636
0.00952621
0.00964496
0.00976264
0.00987928
0.0099949
0.0101095
0.0102231
0.0103356
0.0104471
0.0105576
0.0106671
0.0107755
0.0108828
0.0109891
0.0110943
0.0111985
0.0113015
0.0114035
0.0115044
0.0116042
0.0117029
0.0118005
0.011897
0.0119923
0.0120865
0.0121796
0.0122715
0.0123623
0.012452
0.0125405
0.0126278
0.012714
0.012799
0.0128829
0.0129655
0.013047
0.0131273
0.0132064
0.0132843
0.0133611
0.0134366
0.0135109
0.013584
0.0136559
0.0137266
0.013796
0.0138643
0.0139313
0.0139971
0.0140616
0.0141249
0.014187
0.0142478
0.0143074
0.0143658
0.0144229
0.0144787
0.0145333
0.0145866
0.0146387
0.0146894
0.014739
0.0147872
0.0148342
0.0148799
0.0149244
0.0149675
0.0150094
0.01505
0.0150893
0.0151273
0.0151641
0.0151995
0.0152337
0.0152666
0.0152981
0.0153284
0.0153574
0.0153851
0.0154115
0.0154365
0.0154603
0.0154828
0.015504
0.0155239
0.0155424
0.0155597
0.0155756
0.0155903
0.0156036
0.0156157
0.0156264
0.0156358
0.0156439
0.0156507
0.0156562
0.0156604
0.0156633
0.0156649
0.010336
0.0104637
0.0105903
0.0107158
0.0108401
0.0109633
0.0110855
0.0112066
0.0113265
0.0114454
0.0115632
0.0116799
0.0117954
0.0119098
0.0120232
0.0121353
0.0122464
0.0123563
0.012465
0.0125725
0.0126789
0.0127842
0.0128882
0.012991
0.0130927
0.0131932
0.0132924
0.0133904
0.0134872
0.0135828
0.0136772
0.0137703
0.0138622
0.0139528
0.0140422
0.0141304
0.0142172
0.0143029
0.0143872
0.0144703
0.0145521
0.0146326
0.0147118
0.0147897
0.0148664
0.0149417
0.0150158
0.0150885
0.01516
0.0152301
0.0152989
0.0153664
0.0154325
0.0154974
0.0155609
0.0156231
0.0156839
0.0157434
0.0158016
0.0158584
0.0159139
0.015968
0.0160208
0.0160722
0.0161223
0.016171
0.0162183
0.0162643
0.0163089
0.0163522
0.0163941
0.0164346
0.0164737
0.0165115
0.0165479
0.0165829
0.0166165
0.0166488
0.0166797
0.0167091
0.0167373
0.016764
0.0167893
0.0168132
0.0168358
0.016857
0.0168767
0.0168951
0.0169121
0.0169277
0.0169419
0.0169547
0.0169662
0.0169762
0.0169848
0.0169921
0.0169979
0.0170024
0.0170055
0.0170071
0.0113032
0.0114388
0.0115733
0.0117065
0.0118386
0.0119694
0.0120992
0.0122277
0.0123551
0.0124814
0.0126064
0.0127303
0.012853
0.0129746
0.0130949
0.013214
0.0133319
0.0134486
0.0135641
0.0136783
0.0137912
0.013903
0.0140134
0.0141227
0.0142306
0.0143373
0.0144426
0.0145467
0.0146495
0.014751
0.0148512
0.0149501
0.0150476
0.0151439
0.0152388
0.0153323
0.0154246
0.0155155
0.015605
0.0156932
0.01578
0.0158655
0.0159496
0.0160323
0.0161137
0.0161937
0.0162723
0.0163495
0.0164253
0.0164997
0.0165727
0.0166444
0.0167146
0.0167834
0.0168508
0.0169168
0.0169813
0.0170445
0.0171062
0.0171665
0.0172253
0.0172828
0.0173388
0.0173933
0.0174464
0.0174981
0.0175483
0.0175971
0.0176445
0.0176903
0.0177348
0.0177777
0.0178193
0.0178593
0.0178979
0.0179351
0.0179707
0.0180049
0.0180377
0.0180689
0.0180987
0.0181271
0.0181539
0.0181793
0.0182032
0.0182257
0.0182467
0.0182661
0.0182842
0.0183007
0.0183158
0.0183293
0.0183415
0.0183521
0.0183612
0.0183689
0.0183751
0.0183798
0.0183831
0.0183848
0.0123078
0.0124515
0.0125938
0.0127348
0.0128746
0.0130131
0.0131504
0.0132865
0.0134214
0.013555
0.0136873
0.0138184
0.0139483
0.0140769
0.0142042
0.0143302
0.014455
0.0145785
0.0147006
0.0148215
0.014941
0.0150592
0.0151761
0.0152916
0.0154058
0.0155187
0.0156302
0.0157403
0.015849
0.0159564
0.0160624
0.0161669
0.0162701
0.0163719
0.0164723
0.0165713
0.0166688
0.016765
0.0168597
0.0169529
0.0170447
0.0171351
0.0172241
0.0173115
0.0173976
0.0174821
0.0175652
0.0176469
0.017727
0.0178057
0.0178829
0.0179586
0.0180329
0.0181056
0.0181768
0.0182466
0.0183148
0.0183816
0.0184468
0.0185105
0.0185728
0.0186334
0.0186926
0.0187503
0.0188064
0.018861
0.0189141
0.0189656
0.0190157
0.0190641
0.0191111
0.0191565
0.0192003
0.0192427
0.0192834
0.0193227
0.0193603
0.0193965
0.0194311
0.0194641
0.0194956
0.0195255
0.0195539
0.0195807
0.0196059
0.0196296
0.0196518
0.0196724
0.0196914
0.0197088
0.0197247
0.0197391
0.0197519
0.0197631
0.0197727
0.0197808
0.0197874
0.0197923
0.0197958
0.0197976
0.01335
0.0135016
0.0136518
0.0138007
0.0139482
0.0140944
0.0142393
0.0143828
0.0145251
0.0146661
0.0148057
0.014944
0.015081
0.0152167
0.015351
0.015484
0.0156155
0.0157458
0.0158746
0.0160021
0.0161281
0.0162528
0.0163761
0.0164979
0.0166183
0.0167373
0.0168548
0.016971
0.0170856
0.0171988
0.0173105
0.0174208
0.0175296
0.0176369
0.0177427
0.017847
0.0179498
0.0180512
0.018151
0.0182493
0.018346
0.0184413
0.018535
0.0186272
0.0187178
0.018807
0.0188945
0.0189805
0.019065
0.0191479
0.0192292
0.019309
0.0193872
0.0194638
0.0195388
0.0196123
0.0196842
0.0197545
0.0198232
0.0198903
0.0199558
0.0200197
0.0200821
0.0201428
0.0202019
0.0202594
0.0203153
0.0203695
0.0204222
0.0204732
0.0205227
0.0205705
0.0206166
0.0206612
0.0207041
0.0207454
0.0207851
0.0208231
0.0208595
0.0208943
0.0209274
0.0209589
0.0209887
0.021017
0.0210435
0.0210685
0.0210918
0.0211134
0.0211334
0.0211518
0.0211685
0.0211836
0.0211971
0.0212089
0.021219
0.0212275
0.0212344
0.0212396
0.0212432
0.0212451
0.0144295
0.0145892
0.0147473
0.014904
0.0150592
0.0152131
0.0153656
0.0155167
0.0156664
0.0158147
0.0159616
0.0161071
0.0162512
0.0163939
0.0165352
0.016675
0.0168135
0.0169504
0.0170859
0.0172199
0.0173525
0.0174836
0.0176132
0.0177413
0.0178679
0.017993
0.0181166
0.0182386
0.0183591
0.0184781
0.0185955
0.0187114
0.0188258
0.0189385
0.0190497
0.0191594
0.0192674
0.0193739
0.0194787
0.019582
0.0196837
0.0197838
0.0198822
0.0199791
0.0200743
0.0201679
0.0202599
0.0203502
0.0204389
0.020526
0.0206114
0.0206951
0.0207773
0.0208577
0.0209365
0.0210137
0.0210891
0.0211629
0.0212351
0.0213055
0.0213743
0.0214414
0.0215068
0.0215705
0.0216326
0.0216929
0.0217516
0.0218086
0.0218638
0.0219174
0.0219692
0.0220194
0.0220679
0.0221146
0.0221596
0.022203
0.0222446
0.0222845
0.0223227
0.0223591
0.0223939
0.0224269
0.0224582
0.0224878
0.0225157
0.0225418
0.0225663
0.022589
0.02261
0.0226292
0.0226468
0.0226626
0.0226767
0.022689
0.0226997
0.0227086
0.0227158
0.0227212
0.0227249
0.022727
0.0155465
0.0157142
0.0158802
0.0160447
0.0162077
0.0163693
0.0165293
0.0166879
0.0168451
0.0170007
0.0171549
0.0173076
0.0174588
0.0176085
0.0177567
0.0179034
0.0180486
0.0181923
0.0183344
0.018475
0.018614
0.0187515
0.0188874
0.0190217
0.0191544
0.0192856
0.0194151
0.0195431
0.0196694
0.0197942
0.0199173
0.0200387
0.0201585
0.0202767
0.0203933
0.0205081
0.0206214
0.0207329
0.0208428
0.020951
0.0210575
0.0211623
0.0212655
0.0213669
0.0214667
0.0215647
0.021661
0.0217556
0.0218485
0.0219397
0.0220292
0.0221169
0.0222029
0.0222871
0.0223696
0.0224504
0.0225294
0.0226066
0.0226821
0.0227559
0.0228279
0.0228981
0.0229666
0.0230333
0.0230982
0.0231614
0.0232227
0.0232823
0.0233402
0.0233962
0.0234505
0.0235029
0.0235536
0.0236025
0.0236497
0.023695
0.0237385
0.0237802
0.0238202
0.0238583
0.0238947
0.0239292
0.023962
0.0239929
0.0240221
0.0240494
0.0240749
0.0240987
0.0241206
0.0241407
0.0241591
0.0241756
0.0241903
0.0242032
0.0242143
0.0242236
0.0242311
0.0242368
0.0242407
0.0242428
0.0167009
0.0168766
0.0170505
0.0172229
0.0173937
0.0175628
0.0177305
0.0178966
0.0180611
0.0182241
0.0183855
0.0185453
0.0187036
0.0188603
0.0190155
0.019169
0.0193209
0.0194713
0.01962
0.019767
0.0199125
0.0200563
0.0201985
0.020339
0.0204778
0.020615
0.0207504
0.0208842
0.0210164
0.0211468
0.0212755
0.0214024
0.0215277
0.0216513
0.0217731
0.0218931
0.0220115
0.0221281
0.0222429
0.022356
0.0224673
0.0225768
0.0226846
0.0227905
0.0228947
0.0229972
0.0230978
0.0231966
0.0232936
0.0233889
0.0234823
0.0235739
0.0236637
0.0237516
0.0238378
0.0239221
0.0240046
0.0240853
0.0241641
0.0242411
0.0243162
0.0243895
0.024461
0.0245306
0.0245984
0.0246643
0.0247284
0.0247906
0.0248509
0.0249094
0.024966
0.0250208
0.0250736
0.0251247
0.0251738
0.0252211
0.0252665
0.02531
0.0253517
0.0253915
0.0254294
0.0254654
0.0254996
0.0255318
0.0255622
0.0255907
0.0256174
0.0256421
0.025665
0.025686
0.0257051
0.0257223
0.0257376
0.025751
0.0257626
0.0257723
0.0257801
0.025786
0.02579
0.0257922
0.0178927
0.0180763
0.0182582
0.0184384
0.0186169
0.0187937
0.0189689
0.0191425
0.0193144
0.0194847
0.0196533
0.0198203
0.0199856
0.0201493
0.0203113
0.0204716
0.0206302
0.0207872
0.0209424
0.021096
0.0212478
0.0213979
0.0215463
0.0216929
0.0218378
0.0219809
0.0221223
0.0222619
0.0223997
0.0225357
0.02267
0.0228024
0.0229331
0.0230619
0.0231889
0.0233141
0.0234375
0.0235591
0.0236788
0.0237966
0.0239127
0.0240269
0.0241392
0.0242496
0.0243582
0.024465
0.0245698
0.0246728
0.0247739
0.0248731
0.0249704
0.0250659
0.0251594
0.025251
0.0253408
0.0254286
0.0255145
0.0255985
0.0256806
0.0257608
0.025839
0.0259154
0.0259898
0.0260622
0.0261328
0.0262014
0.0262681
0.0263328
0.0263957
0.0264565
0.0265155
0.0265724
0.0266275
0.0266806
0.0267317
0.0267809
0.0268282
0.0268735
0.0269168
0.0269582
0.0269976
0.0270351
0.0270706
0.0271042
0.0271358
0.0271654
0.0271931
0.0272189
0.0272426
0.0272644
0.0272843
0.0273022
0.0273181
0.0273321
0.0273441
0.0273541
0.0273622
0.0273683
0.0273725
0.0273747
0.0191217
0.0193133
0.0195031
0.0196911
0.0198773
0.0200618
0.0202445
0.0204255
0.0206048
0.0207824
0.0209582
0.0211322
0.0213046
0.0214752
0.021644
0.0218111
0.0219764
0.0221399
0.0223017
0.0224616
0.0226197
0.0227761
0.0229306
0.0230833
0.0232342
0.0233832
0.0235304
0.0236757
0.0238192
0.0239608
0.0241005
0.0242383
0.0243743
0.0245084
0.0246405
0.0247708
0.0248992
0.0250256
0.0251502
0.0252728
0.0253934
0.0255122
0.025629
0.0257439
0.0258568
0.0259678
0.0260768
0.0261838
0.0262889
0.0263921
0.0264932
0.0265924
0.0266896
0.0267849
0.0268781
0.0269694
0.0270587
0.027146
0.0272313
0.0273145
0.0273958
0.0274751
0.0275524
0.0276277
0.027701
0.0277723
0.0278415
0.0279088
0.027974
0.0280372
0.0280984
0.0281575
0.0282147
0.0282698
0.0283229
0.028374
0.028423
0.02847
0.028515
0.028558
0.0285989
0.0286378
0.0286747
0.0287095
0.0287423
0.028773
0.0288018
0.0288284
0.0288531
0.0288757
0.0288963
0.0289148
0.0289313
0.0289458
0.0289582
0.0289686
0.028977
0.0289833
0.0289876
0.0289899
0.0203879
0.0205875
0.0207852
0.020981
0.0211749
0.021367
0.0215572
0.0217456
0.0219322
0.022117
0.0223
0.0224811
0.0226604
0.0228379
0.0230135
0.0231872
0.0233592
0.0235292
0.0236974
0.0238637
0.0240281
0.0241906
0.0243512
0.0245099
0.0246667
0.0248215
0.0249745
0.0251255
0.0252745
0.0254216
0.0255667
0.0257099
0.0258511
0.0259903
0.0261276
0.0262629
0.0263961
0.0265274
0.0266567
0.0267839
0.0269092
0.0270325
0.0271537
0.0272729
0.0273901
0.0275052
0.0276183
0.0277294
0.0278384
0.0279454
0.0280503
0.0281532
0.028254
0.0283528
0.0284495
0.0285441
0.0286367
0.0287272
0.0288156
0.028902
0.0289862
0.0290684
0.0291485
0.0292266
0.0293025
0.0293764
0.0294481
0.0295178
0.0295854
0.0296509
0.0297143
0.0297756
0.0298348
0.0298919
0.0299469
0.0299998
0.0300506
0.0300993
0.0301459
0.0301903
0.0302327
0.030273
0.0303111
0.0303472
0.0303811
0.030413
0.0304427
0.0304703
0.0304958
0.0305192
0.0305405
0.0305597
0.0305768
0.0305917
0.0306046
0.0306153
0.0306239
0.0306305
0.0306349
0.0306372
0.0216912
0.0218988
0.0221043
0.0223079
0.0225095
0.0227091
0.0229068
0.0231026
0.0232965
0.0234884
0.0236785
0.0238666
0.0240528
0.0242371
0.0244194
0.0245998
0.0247783
0.0249548
0.0251294
0.0253019
0.0254725
0.0256412
0.0258078
0.0259724
0.026135
0.0262957
0.0264543
0.0266108
0.0267654
0.0269179
0.0270684
0.0272168
0.0273632
0.0275075
0.0276497
0.0277899
0.027928
0.028064
0.0281979
0.0283298
0.0284595
0.0285872
0.0287128
0.0288362
0.0289576
0.0290768
0.0291939
0.0293089
0.0294218
0.0295325
0.0296412
0.0297477
0.029852
0.0299542
0.0300543
0.0301522
0.030248
0.0303417
0.0304332
0.0305225
0.0306097
0.0306947
0.0307776
0.0308583
0.0309368
0.0310132
0.0310874
0.0311595
0.0312294
0.0312971
0.0313626
0.031426
0.0314872
0.0315462
0.0316031
0.0316578
0.0317103
0.0317606
0.0318087
0.0318547
0.0318985
0.0319401
0.0319795
0.0320167
0.0320518
0.0320847
0.0321154
0.0321439
0.0321702
0.0321944
0.0322164
0.0322362
0.0322538
0.0322692
0.0322824
0.0322935
0.0323024
0.0323091
0.0323136