/*--------------------------------*- C++ -*----------------------------------*\
  =========                 |
  \\      /  F ield         | OpenFOAM: The Open Source CFD Toolbox
   \\    /   O peration     | Website:  https://openfoam.org
    \\  /    A nd           | Version:  8
     \\/     M anipulation  |
\*---------------------------------------------------------------------------*/
FoamFile
{
    version     2.0;
    format      ascii;
    class       volScalarField;
    location    "0.1384";
    object      nut;
}
// * * * * * * * * * * * * * * * * * * * * * * * * * * * * * * * * * * * * * //

dimensions      [0 2 -1 0 0 0 0];

internalField   nonuniform List<scalar> 
119000
(
0.000763732
0.000104348
2.23908e-05
5.91687e-06
2.13425e-06
9.73611e-07
5.23769e-07
3.23942e-07
4.23694e-07
6.85977e-07
8.8416e-07
1.00403e-06
1.07974e-06
1.16636e-06
1.19451e-06
1.04653e-06
8.84953e-07
7.83553e-07
6.48407e-07
4.17619e-07
3.16128e-07
2.99001e-07
3.27449e-07
3.12851e-07
3.22169e-07
3.3825e-07
3.48624e-07
3.436e-07
3.04845e-07
2.76882e-07
2.66242e-07
2.65725e-07
2.68176e-07
2.71626e-07
2.75541e-07
2.79736e-07
2.84081e-07
2.88449e-07
2.9273e-07
2.96873e-07
3.00849e-07
3.04623e-07
3.08188e-07
3.1136e-07
3.13568e-07
3.14373e-07
3.1379e-07
3.12218e-07
3.09981e-07
3.07293e-07
3.04299e-07
3.01039e-07
2.97507e-07
2.93705e-07
2.89684e-07
2.8551e-07
2.81271e-07
2.77043e-07
2.729e-07
2.68876e-07
2.64969e-07
2.61097e-07
2.57176e-07
2.53216e-07
2.49271e-07
2.45384e-07
2.4157e-07
2.37815e-07
2.34103e-07
2.30413e-07
2.26734e-07
2.23066e-07
2.19423e-07
2.15836e-07
2.12297e-07
2.0865e-07
2.05369e-07
2.05839e-07
1.98713e-07
2.00367e-07
2.05397e-07
2.45461e-07
2.06961e-07
2.16689e-07
2.21869e-07
2.25114e-07
2.26335e-07
2.15243e-07
1.99562e-07
1.81029e-07
1.59572e-07
1.39299e-07
1.3198e-07
1.25877e-07
1.19706e-07
1.13073e-07
1.03496e-07
9.08248e-08
7.86995e-08
7.36787e-08
0.00213386
0.000552303
0.000284996
0.000186182
0.000134398
0.000101722
7.89386e-05
6.22386e-05
4.96823e-05
4.029e-05
3.32947e-05
2.81449e-05
2.74346e-05
3.3541e-05
3.91424e-05
4.26464e-05
4.4568e-05
4.5277e-05
4.58497e-05
4.64995e-05
4.74894e-05
4.86991e-05
4.98674e-05
5.09313e-05
5.19077e-05
5.27562e-05
5.34671e-05
5.40832e-05
5.46444e-05
5.52037e-05
5.57985e-05
5.64498e-05
5.71286e-05
5.78004e-05
5.84769e-05
5.91653e-05
5.98587e-05
6.05431e-05
6.12046e-05
6.18369e-05
6.24374e-05
6.30025e-05
6.35329e-05
6.40044e-05
6.4353e-05
6.45206e-05
6.45089e-05
6.43674e-05
6.41361e-05
6.38406e-05
6.34998e-05
6.31187e-05
6.26965e-05
6.22317e-05
6.17304e-05
6.12e-05
6.06519e-05
6.00962e-05
5.95435e-05
5.89993e-05
5.84648e-05
5.79285e-05
5.73781e-05
5.68141e-05
5.62443e-05
5.56748e-05
5.51083e-05
5.45431e-05
5.39764e-05
5.34044e-05
5.28239e-05
5.2232e-05
5.16264e-05
5.10027e-05
5.03446e-05
4.95725e-05
4.87136e-05
4.78126e-05
4.68872e-05
4.59928e-05
4.51676e-05
4.438e-05
4.35861e-05
4.30049e-05
4.24589e-05
4.1933e-05
4.14357e-05
4.08861e-05
4.03156e-05
3.98034e-05
3.93482e-05
3.892e-05
3.85788e-05
3.82952e-05
3.81001e-05
3.77256e-05
3.63351e-05
3.36104e-05
2.78121e-05
1.93168e-05
0.00333604
0.00105486
0.000580229
0.000392116
0.000295851
0.000237672
0.000198476
0.000170018
0.000148162
0.000130764
0.000116587
0.000104867
9.55346e-05
9.02408e-05
8.9777e-05
8.95675e-05
8.88422e-05
8.86802e-05
8.87689e-05
8.90862e-05
8.97229e-05
9.03727e-05
9.08798e-05
9.12661e-05
9.1502e-05
9.15351e-05
9.13961e-05
9.11946e-05
9.10183e-05
9.09149e-05
9.0924e-05
9.10657e-05
9.12793e-05
9.15117e-05
9.17903e-05
9.21226e-05
9.24922e-05
9.28761e-05
9.32539e-05
9.36157e-05
9.39563e-05
9.42731e-05
9.45675e-05
9.4834e-05
9.50423e-05
9.50209e-05
9.47735e-05
9.43825e-05
9.3892e-05
9.33316e-05
9.2723e-05
9.20742e-05
9.13819e-05
9.06446e-05
8.9869e-05
8.90649e-05
8.82458e-05
8.74245e-05
8.66131e-05
8.58191e-05
8.50434e-05
8.42695e-05
8.34793e-05
8.26756e-05
8.18684e-05
8.10657e-05
8.02695e-05
7.94773e-05
7.86847e-05
7.7887e-05
7.70798e-05
7.62593e-05
7.54229e-05
7.45655e-05
7.36706e-05
7.26736e-05
7.15798e-05
7.04284e-05
6.92617e-05
6.81176e-05
6.70331e-05
6.59831e-05
6.50374e-05
6.42203e-05
6.34995e-05
6.28789e-05
6.23708e-05
6.1961e-05
6.16483e-05
6.14616e-05
6.14133e-05
6.14803e-05
6.16809e-05
6.19968e-05
6.23558e-05
6.24669e-05
6.17114e-05
5.95995e-05
5.40135e-05
3.88918e-05
0.00439803
0.00161298
0.000910948
0.000622558
0.000473447
0.000383246
0.000322775
0.000279254
0.00024626
0.000220267
0.000199202
0.000181779
0.000167254
0.000155384
0.000145961
0.000138036
0.000131802
0.000128858
0.000126891
0.000125562
0.000124928
0.000124261
0.000123495
0.000122652
0.0001217
0.000120524
0.000119203
0.000117919
0.000116768
0.000115797
0.000115045
0.000114532
0.000114124
0.000113745
0.000113477
0.000113319
0.000113238
0.000113198
0.000113173
0.000113153
0.000113131
0.000113105
0.000113078
0.000113048
0.000113003
0.000112867
0.000112611
0.00011225
0.00011181
0.000111315
0.000110786
0.000110231
0.000109641
0.000109015
0.000108364
0.000107704
0.000107053
0.000106428
0.000105845
0.000105316
0.000104842
0.000104399
0.000103963
0.000103549
0.000103175
0.000102854
0.00010259
0.00010238
0.000102221
0.00010211
0.000102041
0.00010201
0.000102013
0.000102039
0.000102062
0.000101962
0.000101739
0.000101426
0.000101055
0.000100651
0.000100236
9.98038e-05
9.93843e-05
9.89753e-05
9.85667e-05
9.8145e-05
9.77033e-05
9.72186e-05
9.66755e-05
9.60754e-05
9.54254e-05
9.47289e-05
9.40153e-05
9.3353e-05
9.2844e-05
9.24605e-05
9.19134e-05
9.10376e-05
8.89564e-05
7.97849e-05
0.00533688
0.00218395
0.00126314
0.000872101
0.000666472
0.000541115
0.000456705
0.00039584
0.000349702
0.000313375
0.000283953
0.000259617
0.000239202
0.000221957
0.000207261
0.000194431
0.000183193
0.000173802
0.000165853
0.000160589
0.000157436
0.000154421
0.000151624
0.000148995
0.000146416
0.000143632
0.000140824
0.000138272
0.00013603
0.000134113
0.000132549
0.000131344
0.000130444
0.000129786
0.00012935
0.000129094
0.000128956
0.000128891
0.000128876
0.000128904
0.000128971
0.000129081
0.00012924
0.000129451
0.000129702
0.000129947
0.000130152
0.000130313
0.000130439
0.000130545
0.000130642
0.00013073
0.000130776
0.000130774
0.000130736
0.000130672
0.000130597
0.000130522
0.000130459
0.000130413
0.000130381
0.00013031
0.000130153
0.000129948
0.000129729
0.000129513
0.000129306
0.000129111
0.000128933
0.000128777
0.000128646
0.000128544
0.000128474
0.000128436
0.000128407
0.000128168
0.00012777
0.000127278
0.000126729
0.000126147
0.000125554
0.000124957
0.000124365
0.000123776
0.000123184
0.000122575
0.000121924
0.000121202
0.000120397
0.000119506
0.000118529
0.000117463
0.000116317
0.000115139
0.000114047
0.000113128
0.000112335
0.000111691
0.000110832
0.000106656
0.006166
0.0027454
0.00162721
0.00113562
0.000871614
0.000709267
0.000599278
0.000519646
0.000459093
0.000411279
0.000372467
0.000340288
0.000313182
0.000290081
0.000270116
0.000252523
0.000236878
0.000223026
0.000210593
0.000200004
0.000191306
0.000183622
0.000177535
0.000172368
0.000167631
0.000163161
0.00015914
0.000155708
0.000152771
0.000150297
0.000148319
0.000146818
0.000145762
0.000145092
0.000144751
0.000144656
0.000144701
0.00014484
0.000145057
0.000145354
0.000145724
0.000146173
0.000146711
0.000147335
0.000148025
0.000148724
0.000149395
0.000150024
0.000150612
0.000151161
0.000151676
0.000152144
0.000152494
0.000152732
0.00015288
0.000152957
0.000152981
0.000152969
0.000152936
0.000152891
0.000152832
0.000152671
0.000152333
0.000151918
0.000151473
0.00015102
0.000150564
0.000150108
0.000149663
0.00014924
0.000148847
0.000148494
0.000148187
0.00014793
0.000147715
0.00014743
0.000147058
0.000146628
0.000146166
0.000145697
0.000145237
0.000144796
0.000144376
0.000143969
0.000143567
0.000143155
0.000142679
0.000142091
0.00014139
0.000140565
0.000139602
0.000138483
0.000137186
0.00013572
0.000134174
0.000132683
0.000131339
0.000130324
0.000129673
0.000127918
0.00689649
0.00328472
0.00199656
0.0014091
0.00108608
0.000885649
0.00074903
0.000649608
0.000573696
0.000513536
0.000464571
0.000423848
0.000389412
0.000359925
0.000334304
0.000311633
0.00029141
0.0002733
0.000256746
0.000242063
0.000229235
0.000217864
0.000207972
0.000199293
0.000191549
0.000184692
0.000179036
0.000174544
0.000170799
0.000167717
0.000165339
0.000163585
0.000162409
0.000161737
0.000161479
0.000161496
0.000161632
0.000161851
0.000162158
0.000162565
0.000163056
0.00016365
0.000164359
0.000165175
0.00016607
0.000166953
0.000167788
0.000168574
0.000169309
0.00016999
0.000170618
0.000171179
0.000171527
0.000171706
0.000171766
0.00017173
0.000171622
0.000171464
0.000171275
0.00017106
0.000170823
0.000170543
0.000170185
0.000169777
0.000169351
0.000168924
0.000168492
0.000168054
0.000167627
0.000167226
0.000166861
0.000166545
0.000166284
0.000166086
0.000165939
0.000165744
0.000165487
0.000165185
0.000164859
0.000164526
0.000164198
0.000163882
0.000163574
0.000163258
0.000162927
0.000162571
0.000162109
0.000161458
0.000160664
0.000159725
0.000158625
0.000157339
0.000155827
0.000154068
0.000152111
0.000150074
0.000148095
0.000146421
0.000145349
0.000144419
0.00753776
0.00380016
0.00236675
0.00168899
0.00130755
0.00106847
0.000904479
0.000784566
0.000692621
0.000619485
0.000559739
0.000509879
0.000467556
0.000431213
0.000399531
0.000371415
0.000346319
0.000324031
0.000304091
0.00028634
0.000270607
0.000256591
0.000244138
0.000233044
0.000223095
0.000214158
0.000206267
0.000199408
0.000193506
0.000188792
0.000185336
0.000182823
0.000181142
0.00018014
0.000179659
0.000179476
0.000179357
0.000179315
0.000179385
0.0001796
0.00017991
0.000180367
0.000180985
0.000181749
0.000182619
0.000183438
0.000184191
0.000184903
0.000185574
0.000186196
0.000186763
0.000187269
0.000187655
0.000187915
0.000188057
0.0001881
0.000188064
0.000187973
0.000187843
0.000187671
0.000187459
0.000187212
0.000186924
0.000186604
0.000186268
0.00018593
0.000185557
0.00018515
0.000184735
0.00018433
0.00018395
0.000183608
0.000183318
0.000183086
0.000182907
0.000182634
0.000182293
0.000181916
0.000181526
0.000181137
0.000180759
0.000180397
0.000180044
0.000179674
0.000179284
0.000178873
0.000178404
0.000177824
0.000177122
0.000176278
0.000175268
0.000174055
0.000172582
0.000170787
0.000168688
0.000166362
0.000163928
0.000161639
0.000159928
0.000159003
0.00809788
0.00429093
0.00273453
0.00197256
0.00153422
0.00125624
0.00106437
0.000923403
0.000814882
0.000728256
0.000657264
0.000597817
0.00054716
0.000503528
0.0004654
0.000432005
0.000402584
0.000376611
0.000353564
0.000333075
0.000314841
0.000298552
0.000283976
0.000270896
0.000259108
0.000248451
0.000238845
0.000230222
0.000222509
0.000215748
0.000210009
0.00020548
0.000202365
0.000200347
0.000199107
0.000198251
0.000197392
0.000196671
0.000196151
0.000195882
0.000195722
0.0001958
0.000196123
0.000196652
0.000197336
0.000198079
0.000198832
0.000199586
0.000200327
0.000201031
0.000201684
0.000202279
0.000202792
0.0002032
0.000203482
0.000203653
0.000203733
0.000203741
0.000203692
0.000203563
0.000203354
0.000203092
0.000202789
0.000202453
0.000202098
0.000201735
0.000201293
0.000200778
0.000200241
0.000199703
0.000199184
0.0001987
0.000198268
0.000197899
0.000197595
0.00019728
0.000196941
0.000196591
0.000196247
0.000195918
0.000195613
0.00019533
0.000195058
0.000194747
0.000194406
0.000194037
0.000193624
0.000193127
0.00019252
0.000191774
0.000190854
0.000189721
0.000188297
0.000186482
0.000184292
0.000181766
0.000178983
0.000176149
0.000173732
0.000172392
0.00858333
0.00475643
0.00309743
0.00225762
0.00176471
0.00144779
0.00122771
0.00106525
0.000939691
0.00083911
0.000756441
0.000687014
0.000627674
0.000576726
0.000532678
0.00049436
0.000460819
0.000431314
0.000405233
0.000382071
0.000361425
0.000342944
0.000326341
0.000311376
0.000297835
0.000285532
0.000274342
0.000264153
0.000254877
0.000246477
0.00023893
0.000232328
0.000226815
0.000222658
0.00021982
0.000217634
0.000215413
0.000213569
0.00021213
0.000211126
0.000210506
0.000210291
0.000210425
0.000210825
0.000211421
0.000212129
0.000212903
0.00021372
0.000214554
0.000215357
0.000216106
0.000216792
0.000217401
0.000217909
0.000218256
0.000218472
0.00021858
0.000218598
0.000218542
0.000218355
0.000218038
0.000217651
0.000217221
0.000216756
0.00021627
0.000215781
0.000215268
0.000214725
0.000214165
0.000213599
0.000213046
0.000212525
0.000212055
0.000211647
0.000211304
0.000210968
0.000210628
0.000210294
0.000209976
0.000209685
0.00020942
0.000209179
0.000208951
0.000208639
0.000208284
0.000207896
0.00020747
0.000206976
0.00020638
0.000205656
0.00020477
0.000203681
0.000202328
0.000200626
0.00019853
0.00019603
0.000193146
0.000190014
0.000187051
0.000185221
0.00900679
0.0051968
0.00345363
0.00254233
0.00199782
0.00164212
0.00139366
0.00120938
0.00106639
0.000951446
0.000856708
0.000776919
0.000709198
0.000651408
0.00060171
0.000558631
0.000521013
0.000487983
0.000458837
0.000432959
0.000409862
0.000389144
0.000370477
0.000353592
0.000338255
0.000324261
0.000311461
0.000299707
0.000288902
0.00027897
0.000269822
0.000261521
0.000254051
0.000247536
0.000242113
0.00023762
0.000233818
0.000230757
0.000228349
0.000226588
0.000225448
0.000224895
0.000224809
0.000225047
0.000225511
0.000226111
0.000226815
0.000227606
0.000228446
0.000229252
0.000229998
0.000230679
0.000231284
0.000231793
0.000232073
0.000232217
0.000232242
0.000232168
0.000232013
0.000231761
0.00023141
0.000230991
0.000230526
0.000230017
0.00022948
0.000228935
0.000228383
0.000227823
0.000227249
0.000226654
0.000226061
0.000225492
0.000224967
0.000224501
0.000224097
0.000223675
0.00022325
0.000222842
0.000222464
0.000222122
0.000221816
0.000221535
0.000221277
0.000220997
0.000220692
0.000220363
0.000220003
0.000219586
0.000219064
0.000218419
0.000217622
0.000216632
0.00021539
0.000213825
0.000211872
0.000209484
0.00020662
0.00020335
0.000199999
0.000197678
0.00938027
0.00561269
0.00380173
0.00282544
0.00223217
0.00183838
0.00156151
0.00135517
0.00119443
0.00106474
0.000957568
0.000867824
0.000792069
0.000727645
0.000672394
0.000624597
0.00058291
0.000546308
0.000514009
0.000485324
0.000459687
0.000436641
0.000415817
0.000396923
0.000379701
0.000363923
0.00034943
0.000336038
0.00032365
0.000312169
0.000301438
0.000291557
0.000282524
0.000274375
0.000267173
0.000260861
0.000255316
0.000250533
0.000246567
0.000243565
0.00024153
0.000240361
0.00023981
0.000239672
0.000239807
0.000240099
0.000240541
0.000241137
0.000241839
0.000242496
0.000243102
0.000243654
0.000244146
0.000244561
0.000244833
0.000244972
0.000244988
0.0002449
0.000244718
0.000244439
0.00024407
0.000243633
0.000243144
0.00024259
0.000241991
0.000241372
0.000240746
0.000240121
0.000239476
0.000238784
0.000238085
0.000237405
0.000236766
0.000236184
0.000235668
0.000235178
0.00023471
0.000234272
0.000233877
0.000233528
0.000233222
0.000232934
0.000232669
0.00023241
0.000232144
0.000231863
0.000231556
0.000231203
0.000230728
0.000230129
0.000229391
0.000228473
0.000227319
0.000225869
0.000224053
0.00022181
0.000219081
0.000215875
0.000212387
0.000209675
0.00971223
0.00600502
0.00414074
0.00310587
0.00246663
0.00203581
0.00173062
0.00150205
0.00132328
0.00117851
0.00105926
0.000959886
0.000876262
0.00080528
0.000744488
0.000691945
0.00064614
0.000605912
0.000570364
0.000538768
0.000510484
0.000484999
0.000461909
0.000440898
0.000421685
0.000404014
0.00038773
0.000372598
0.000358539
0.000345522
0.000333434
0.000322257
0.000311963
0.000302542
0.000294003
0.000286313
0.000279396
0.000273214
0.000267785
0.000263192
0.000259622
0.000257245
0.000255741
0.000254811
0.00025428
0.000253953
0.000253878
0.000254079
0.000254487
0.000254978
0.000255484
0.000255964
0.000256398
0.000256771
0.000257035
0.000257171
0.00025718
0.000257078
0.000256862
0.00025653
0.000256103
0.000255604
0.000255049
0.000254394
0.000253675
0.000252926
0.000252169
0.000251416
0.00025067
0.000249913
0.000249152
0.000248408
0.000247701
0.00024705
0.000246462
0.000245908
0.000245387
0.000244906
0.000244476
0.000244099
0.000243771
0.000243442
0.00024313
0.000242838
0.000242554
0.000242265
0.000241958
0.00024162
0.000241205
0.000240688
0.00024005
0.000239251
0.000238226
0.000236928
0.000235291
0.000233244
0.000230719
0.000227686
0.00022424
0.000221271
0.010009
0.00637484
0.0044699
0.00338267
0.00270016
0.00223376
0.0019004
0.00164951
0.00145247
0.0012928
0.00116184
0.00105301
0.00096159
0.000884062
0.000817698
0.000760351
0.000710355
0.00066642
0.000627543
0.000592926
0.000561883
0.000533847
0.000508377
0.000485138
0.000463826
0.000444147
0.000425966
0.000409158
0.000393603
0.000379217
0.000365888
0.000353544
0.000342129
0.000331601
0.000321931
0.000313085
0.000305002
0.000297633
0.000290976
0.000285029
0.000279933
0.00027591
0.000272782
0.000270463
0.000268801
0.000267658
0.000267002
0.000266801
0.000266921
0.000267219
0.000267593
0.000267966
0.000268314
0.000268616
0.000268823
0.000268895
0.000268839
0.000268671
0.000268367
0.000267916
0.000267367
0.000266745
0.000266066
0.000265323
0.000264528
0.0002637
0.000262856
0.000262014
0.000261185
0.000260364
0.000259536
0.00025872
0.000257938
0.000257207
0.000256538
0.000255886
0.000255267
0.000254696
0.000254182
0.00025373
0.000253331
0.000252966
0.000252634
0.000252332
0.000252052
0.000251772
0.000251478
0.000251163
0.000250796
0.000250347
0.000249794
0.000249104
0.000248186
0.000247023
0.000245551
0.0002437
0.000241395
0.000238586
0.000235305
0.000232288
0.0102756
0.00672325
0.00478868
0.00365502
0.00293183
0.00243168
0.00207033
0.00179707
0.00158156
0.0014076
0.00126517
0.00114699
0.00104779
0.000963702
0.000891717
0.000829497
0.000775227
0.000727498
0.000685204
0.000647468
0.000613559
0.000582861
0.000554898
0.000529324
0.000505802
0.000484169
0.000464252
0.000445889
0.000428929
0.000413249
0.000398732
0.000385269
0.00037278
0.000361204
0.000350483
0.000340574
0.000331419
0.000322955
0.00031519
0.000308038
0.00030162
0.000296093
0.000291421
0.000287559
0.000284486
0.000282206
0.000280704
0.000279901
0.000279574
0.000279534
0.000279643
0.000279777
0.000279926
0.000280067
0.000280122
0.000280029
0.000279823
0.000279519
0.000279103
0.000278572
0.000277947
0.000277243
0.000276477
0.000275656
0.00027479
0.000273885
0.00027295
0.000272011
0.000271084
0.000270174
0.000269238
0.000268311
0.000267415
0.00026657
0.000265788
0.000265048
0.000264354
0.000263715
0.00026314
0.00026263
0.00026217
0.000261759
0.000261392
0.000261066
0.000260771
0.000260477
0.000260167
0.000259843
0.000259485
0.000259062
0.000258554
0.000257934
0.000257141
0.000256133
0.000254848
0.000253215
0.000251164
0.000248629
0.000245606
0.000242686
0.010516
0.00705136
0.00509674
0.00392225
0.00316089
0.00262895
0.00223991
0.00194427
0.00171074
0.00152278
0.00136904
0.00124155
0.00113459
0.0010439
0.000966245
0.000899082
0.000840458
0.000788846
0.000743045
0.000702099
0.000665223
0.000631755
0.000601188
0.000573262
0.000547681
0.000524214
0.000502648
0.000482792
0.000464467
0.000447521
0.000431825
0.000417243
0.00040368
0.000391058
0.000379296
0.000368345
0.00035814
0.000348605
0.000339775
0.000331608
0.000324143
0.000317463
0.000311572
0.000306438
0.000302051
0.000298433
0.000295685
0.000293879
0.000292757
0.000292075
0.000291677
0.000291348
0.000291123
0.000290972
0.000290817
0.000290579
0.000290255
0.000289847
0.000289337
0.000288723
0.000288022
0.000287234
0.000286369
0.000285449
0.000284488
0.000283475
0.000282417
0.000281347
0.000280288
0.000279253
0.000278227
0.000277212
0.000276228
0.000275294
0.000274422
0.000273595
0.000272818
0.000272102
0.000271455
0.000270875
0.000270331
0.00026984
0.000269404
0.000269018
0.00026867
0.000268345
0.000268027
0.000267707
0.000267366
0.000266971
0.000266506
0.000265949
0.000265256
0.000264384
0.000263265
0.000261832
0.000260021
0.000257763
0.000255032
0.0002523
0.0107336
0.00736027
0.00539385
0.00418375
0.00338682
0.00282478
0.00240865
0.00209067
0.00183985
0.00163811
0.00147316
0.00133643
0.00122169
0.00112438
0.001041
0.000968824
0.000905769
0.000850192
0.000800799
0.000756554
0.000716612
0.000680268
0.000647202
0.000617062
0.000589514
0.000564279
0.000541108
0.000519785
0.000500101
0.000481883
0.000464994
0.000449266
0.000434597
0.000420902
0.000408071
0.000396058
0.000384845
0.000374372
0.000364627
0.000355573
0.000347214
0.000339579
0.00033268
0.000326481
0.00032098
0.000316171
0.000312137
0.000309022
0.000306639
0.00030488
0.000303624
0.000302717
0.00030208
0.000301621
0.000301234
0.000300811
0.000300336
0.000299802
0.000299161
0.000298426
0.000297612
0.000296702
0.000295698
0.000294639
0.000293542
0.000292413
0.000291257
0.000290087
0.000288924
0.000287786
0.00028667
0.000285563
0.000284487
0.000283459
0.00028249
0.000281556
0.000280671
0.000279851
0.000279102
0.000278425
0.000277806
0.000277248
0.000276753
0.000276314
0.000275914
0.000275549
0.000275207
0.000274874
0.000274535
0.00027414
0.000273692
0.000273167
0.000272535
0.000271759
0.000270784
0.000269547
0.000267977
0.000266004
0.000263589
0.000261108
0.0109312
0.00765105
0.00567987
0.00443902
0.00360911
0.00301846
0.0025761
0.00223639
0.00196864
0.00175331
0.00157727
0.00143132
0.00130881
0.00120485
0.0011157
0.00103846
0.000970903
0.000911286
0.000858218
0.000810589
0.000767482
0.00072844
0.000692988
0.000660717
0.000631257
0.000604287
0.000579528
0.000556739
0.000535682
0.000516166
0.000498053
0.000481135
0.000465316
0.000450501
0.000436637
0.000423665
0.000411542
0.000400208
0.000389631
0.000379762
0.00037059
0.000362101
0.000354312
0.000347166
0.000340682
0.000334814
0.000329621
0.000325216
0.000321538
0.000318542
0.000316206
0.000314477
0.000313239
0.00031233
0.000311592
0.000310864
0.000310138
0.0003094
0.00030855
0.000307624
0.00030664
0.000305586
0.000304466
0.0003033
0.00030209
0.000300856
0.000299606
0.000298336
0.000297067
0.00029582
0.000294601
0.000293378
0.000292184
0.000291039
0.000289955
0.000288921
0.000287944
0.000287034
0.000286198
0.00028543
0.000284729
0.000284096
0.000283531
0.000283028
0.000282553
0.000282124
0.000281728
0.00028135
0.000280982
0.00028059
0.00028016
0.000279667
0.000279087
0.00027839
0.000277534
0.000276463
0.000275106
0.000273392
0.000271277
0.000269064
0.011111
0.00792471
0.00595477
0.00468764
0.00382727
0.00320933
0.00274185
0.00238119
0.00209684
0.00186811
0.00168107
0.00152594
0.00139567
0.00128505
0.00119009
0.00110773
0.00103562
0.000971895
0.000915076
0.000863972
0.000817915
0.000776275
0.000738511
0.000704161
0.000672818
0.000644124
0.000617773
0.000593503
0.000571045
0.000550193
0.000530819
0.000512655
0.000495702
0.000479852
0.000465027
0.000451155
0.000438176
0.000426023
0.000414653
0.000403999
0.000394051
0.00038475
0.000376131
0.000368094
0.000360696
0.000353914
0.00034777
0.000342321
0.00033755
0.000333427
0.00032994
0.000327131
0.000324977
0.000323337
0.000322022
0.000320773
0.000319634
0.000318576
0.000317501
0.000316394
0.000315255
0.000314058
0.000312816
0.000311538
0.000310205
0.000308852
0.000307491
0.000306096
0.000304698
0.000303321
0.000301978
0.000300655
0.000299364
0.00029812
0.000296937
0.000295805
0.000294732
0.000293729
0.000292801
0.000291932
0.000291129
0.000290399
0.000289741
0.000289151
0.000288612
0.000288123
0.000287676
0.000287252
0.000286846
0.000286438
0.000286008
0.000285526
0.000284972
0.000284324
0.000283549
0.000282602
0.000281424
0.000279948
0.000278119
0.000276178
0.0112752
0.00818222
0.00621855
0.00492921
0.00404084
0.00339673
0.00290586
0.00252477
0.00222415
0.0019822
0.00178426
0.00162001
0.00148201
0.00136471
0.00126393
0.00117642
0.00109969
0.0010318
0.000971151
0.000916795
0.000867884
0.000823716
0.000783688
0.000747289
0.000714075
0.000683655
0.000655695
0.000629921
0.000606026
0.00058379
0.000563112
0.000543803
0.000525788
0.000508956
0.00049321
0.000478466
0.000464656
0.000451697
0.000439547
0.000428111
0.000417396
0.000407286
0.000397858
0.000389052
0.000380872
0.000373299
0.000366338
0.000360009
0.000354307
0.000349211
0.000344686
0.000340791
0.000337505
0.000334794
0.000332571
0.000330673
0.000329047
0.00032762
0.000326258
0.000324921
0.000323587
0.000322202
0.000320798
0.000319376
0.000317879
0.000316372
0.000314869
0.000313361
0.000311855
0.000310369
0.000308919
0.000307496
0.000306105
0.000304761
0.000303477
0.000302235
0.00030105
0.000299937
0.000298901
0.000297934
0.000297041
0.000296223
0.000295477
0.000294801
0.000294187
0.000293629
0.000293121
0.00029263
0.000292167
0.000291715
0.000291258
0.000290773
0.000290238
0.000289628
0.000288916
0.000288069
0.000287037
0.000285761
0.00028418
0.000282484
0.0114255
0.00842449
0.00647127
0.00516341
0.0042494
0.00358029
0.00306757
0.00266681
0.00235024
0.00209527
0.00188656
0.00171327
0.00156756
0.0014436
0.00133699
0.00124428
0.0011629
0.00109077
0.00102652
0.000969006
0.000917315
0.00087067
0.000828409
0.000789978
0.000754893
0.000722735
0.000693143
0.000665836
0.000640457
0.000616892
0.000594992
0.000574582
0.000555547
0.00053776
0.000521112
0.000505506
0.00049087
0.000477098
0.000464164
0.000451926
0.000440435
0.000429616
0.000419473
0.000409969
0.000401087
0.000392802
0.000385107
0.000377998
0.000371471
0.000365517
0.000360057
0.000355174
0.000350864
0.000347101
0.000343861
0.000341092
0.000338774
0.000336818
0.000335016
0.000333323
0.000331703
0.000330033
0.000328395
0.000326773
0.000325134
0.000323491
0.000321858
0.000320237
0.00031862
0.000317022
0.000315459
0.000313925
0.000312416
0.000310955
0.000309556
0.000308212
0.00030693
0.00030572
0.000304588
0.000303523
0.000302535
0.000301627
0.000300785
0.000300011
0.000299303
0.000298658
0.000298069
0.000297518
0.000297001
0.000296501
0.000296008
0.000295504
0.00029497
0.000294376
0.000293701
0.000292918
0.000291991
0.000290869
0.000289498
0.000288022
0.0115633
0.00865237
0.00671301
0.00538995
0.00445254
0.00375964
0.00322644
0.002807
0.00247482
0.00220704
0.00198768
0.00180544
0.00165207
0.00152148
0.00140902
0.0013111
0.00122503
0.00114887
0.0010811
0.00102052
0.000966107
0.000917024
0.000872551
0.000832091
0.000795129
0.000761216
0.000729963
0.00070109
0.000674327
0.000649496
0.000626428
0.000604947
0.000584915
0.000566187
0.000548638
0.000532164
0.000516693
0.000502087
0.000488353
0.000475393
0.000463196
0.000451711
0.000440907
0.000430749
0.000421212
0.00041226
0.000403881
0.000396049
0.000388759
0.000382018
0.000375782
0.000370074
0.000364898
0.00036023
0.000356056
0.00035235
0.000349141
0.00034642
0.000343923
0.000341666
0.000339605
0.000337644
0.000335756
0.000333919
0.000332108
0.000330306
0.000328523
0.000326766
0.000325012
0.000323277
0.000321583
0.000319932
0.000318318
0.000316755
0.000315254
0.00031381
0.000312429
0.000311122
0.000309892
0.000308717
0.000307624
0.000306611
0.000305673
0.000304807
0.000304013
0.000303282
0.000302611
0.00030199
0.000301409
0.000300849
0.000300303
0.000299758
0.000299199
0.000298605
0.000297953
0.000297217
0.000296369
0.000295367
0.000294166
0.000292868
0.0116899
0.00886664
0.00694386
0.00560856
0.00464989
0.00393436
0.00338193
0.00294501
0.00259757
0.0023172
0.00208736
0.00189626
0.0017353
0.00159811
0.00147983
0.00137668
0.00128607
0.00120599
0.00113482
0.00107123
0.00101414
0.000962651
0.000915978
0.000873491
0.000834641
0.000798947
0.000766058
0.000735705
0.000707611
0.000681561
0.00065736
0.000634825
0.000613808
0.000594138
0.000575679
0.00055832
0.000541995
0.000526614
0.000512141
0.000498494
0.000485632
0.000473509
0.000462072
0.000451284
0.000441116
0.000431515
0.000422476
0.000413988
0.000406039
0.000398619
0.000391702
0.00038528
0.000379357
0.000373901
0.000368908
0.00036434
0.000360223
0.000356572
0.000353272
0.00035032
0.000347693
0.000345311
0.000343081
0.000340947
0.000338892
0.000336864
0.000334876
0.00033294
0.000331042
0.000329179
0.000327363
0.0003256
0.000323877
0.000322208
0.000320604
0.000319048
0.000317556
0.00031614
0.000314801
0.000313533
0.000312345
0.000311238
0.000310203
0.000309245
0.000308361
0.000307537
0.000306773
0.000306066
0.000305407
0.000304783
0.000304184
0.000303594
0.000303002
0.000302392
0.000301745
0.000301031
0.00030023
0.00029931
0.000298233
0.000297074
0.0118064
0.00906801
0.00716393
0.00581902
0.00484108
0.00410438
0.00353353
0.00308052
0.00271816
0.00242546
0.00218531
0.00198548
0.00181702
0.00167328
0.00154919
0.0014409
0.00134591
0.00126204
0.00118754
0.00112101
0.00106129
0.00100742
0.000958552
0.000914035
0.00087328
0.000835853
0.000801407
0.000769637
0.000740255
0.000713016
0.000687704
0.000664125
0.000642125
0.000621504
0.000602115
0.000583902
0.000566781
0.000550664
0.000535492
0.000521181
0.000507674
0.000494929
0.000482869
0.000471456
0.000460663
0.000450461
0.000440832
0.000431756
0.000423217
0.000415191
0.000407661
0.000400597
0.000394009
0.000387844
0.000382117
0.00037681
0.000371925
0.000367471
0.000363385
0.000359664
0.000356309
0.000353312
0.000350555
0.000347962
0.000345533
0.000343229
0.000341019
0.000338888
0.000336828
0.000334814
0.00033286
0.000330969
0.000329113
0.000327317
0.000325592
0.000323931
0.000322338
0.000320823
0.000319383
0.000318019
0.000316736
0.000315534
0.000314393
0.000313332
0.000312348
0.000311433
0.000310584
0.000309794
0.000309056
0.000308362
0.000307702
0.000307056
0.000306416
0.00030577
0.000305104
0.000304397
0.000303628
0.000302765
0.00030178
0.000300726
0.0119138
0.00925712
0.00737332
0.0060211
0.00502576
0.00426936
0.00368096
0.00321294
0.00283628
0.00253153
0.00228127
0.00207285
0.00189698
0.00174675
0.00161687
0.00150369
0.00140445
0.00131688
0.00123914
0.00116973
0.00110742
0.00105118
0.00100013
0.000953578
0.000910978
0.000871899
0.000835958
0.000802821
0.000772182
0.000743775
0.000717365
0.00069274
0.000669756
0.000648164
0.000627911
0.000608893
0.000591018
0.00057419
0.000558344
0.000543382
0.000529238
0.000515876
0.000503186
0.000491181
0.000479818
0.000469064
0.000458894
0.000449275
0.000440192
0.000431605
0.000423509
0.000415845
0.000408644
0.000401874
0.000395524
0.000389581
0.00038404
0.000378902
0.000374116
0.000369688
0.000365587
0.00036184
0.000358401
0.000355235
0.00035233
0.000349653
0.000347137
0.000344742
0.000342459
0.000340236
0.000338094
0.000336038
0.000334048
0.000332129
0.000330289
0.000328517
0.000326819
0.000325202
0.000323654
0.000322181
0.000320792
0.000319486
0.000318254
0.0003171
0.000316021
0.000315016
0.00031408
0.000313202
0.000312378