# Forces      
# CofR        : (0.000000e+00 0.000000e+00 0.000000e+00)
# Time        forces(pressure viscous porous)	moments(pressure viscous porous)
0.1           	((2.427485e+00 2.977379e+00 -1.471485e-22) (-3.840125e+00 -1.379371e+00 -1.331522e-16) (0.000000e+00 0.000000e+00 0.000000e+00)) ((3.983464e-24 9.653949e-23 1.219773e+00) (-1.681690e-19 5.324413e-17 -5.524415e-01) (0.000000e+00 0.000000e+00 0.000000e+00))
0.2           	((2.799319e+02 -3.809499e+00 -2.172921e-20) (1.173097e+01 -1.452326e-01 -3.277992e-15) (0.000000e+00 0.000000e+00 0.000000e+00)) ((2.136543e-22 1.015938e-20 -1.888088e-02) (-1.460784e-17 1.310023e-15 -5.750342e-02) (0.000000e+00 0.000000e+00 0.000000e+00))
