/*--------------------------------*- C++ -*----------------------------------*\
  =========                 |
  \\      /  F ield         | OpenFOAM: The Open Source CFD Toolbox
   \\    /   O peration     | Website:  https://openfoam.org
    \\  /    A nd           | Version:  8
     \\/     M anipulation  |
\*---------------------------------------------------------------------------*/
FoamFile
{
    version     2.0;
    format      ascii;
    class       volVectorField;
    location    "0.01206";
    object      U;
}
// * * * * * * * * * * * * * * * * * * * * * * * * * * * * * * * * * * * * * //

dimensions      [0 1 -1 0 0 0 0];

internalField   nonuniform List<vector> 
111680
(
(15 5.9984e-08 -3.28905e-24)
(15 8.04651e-07 -8.54134e-23)
(14.9999 2.08174e-06 -5.09588e-22)
(14.9999 4.90913e-06 1.60735e-22)
(14.9999 7.75772e-06 2.89966e-21)
(14.9999 1.04938e-05 -3.01507e-21)
(14.9999 1.34022e-05 -1.15761e-22)
(14.9998 1.69499e-05 1.20925e-21)
(14.9998 2.08911e-05 3.86097e-21)
(14.9998 2.54103e-05 -6.4157e-21)
(14.9998 3.00013e-05 -1.71448e-22)
(14.9998 3.49499e-05 1.13579e-20)
(14.9998 4.03792e-05 7.53019e-21)
(14.9998 4.57814e-05 8.01856e-21)
(14.9998 5.15571e-05 7.25638e-21)
(14.9998 5.728e-05 1.22561e-20)
(14.9998 6.31535e-05 -9.24514e-21)
(14.9998 6.94044e-05 1.6487e-20)
(14.9997 7.53863e-05 -1.23132e-20)
(14.9997 8.14327e-05 -1.84122e-20)
(14.9997 8.7526e-05 -3.33371e-20)
(14.9997 9.3822e-05 -1.42977e-20)
(14.9997 9.98292e-05 -1.4847e-20)
(14.9997 0.000106105 -8.57039e-21)
(14.9997 0.000112124 7.37132e-21)
(14.9997 0.000118453 1.6333e-20)
(14.9997 0.000124554 -2.5721e-20)
(14.9997 0.000130561 3.44303e-20)
(14.9997 0.000136709 -2.38421e-22)
(14.9997 0.000142799 1.79588e-20)
(14.9997 0.000148938 1.77738e-20)
(14.9997 0.000154819 2.18338e-22)
(14.9997 0.000160749 1.81931e-20)
(14.9997 0.000166705 1.87673e-20)
(14.9997 0.000172307 -1.88823e-20)
(14.9997 0.000178159 2.11602e-22)
(14.9997 0.000183804 -2.93657e-20)
(14.9997 0.000189462 1.88779e-20)
(14.9997 0.000195306 -8.13869e-21)
(14.9997 0.000200705 3.80033e-20)
(14.9997 0.000206331 -3.79478e-20)
(14.9997 0.000211717 3.0337e-20)
(14.9997 0.000216927 7.24283e-21)
(14.9997 0.000222206 -1.80958e-22)
(14.9997 0.000227502 1.87248e-20)
(14.9997 0.000232535 6.23945e-21)
(14.9997 0.000237812 1.82913e-20)
(14.9997 0.00024286 -3.04809e-20)
(14.9997 0.000247602 -1.81482e-20)
(14.9997 0.000252572 4.31993e-20)
(14.9997 0.00025725 1.29099e-20)
(14.9998 0.000262046 3.47765e-20)
(14.9998 0.000266601 3.43575e-20)
(14.9998 0.000271328 -1.31636e-20)
(14.9998 0.000275754 -1.34274e-20)
(14.9998 0.000280088 -1.64516e-20)
(14.9998 0.000284393 -3.23965e-20)
(14.9998 0.000288724 1.36253e-20)
(14.9998 0.000292734 1.57812e-20)
(14.9998 0.000296909 -1.54917e-20)
(14.9998 0.000300934 1.52068e-20)
(14.9998 0.000304653 -1.12673e-22)
(14.9998 0.000308559 1.45842e-20)
(14.9998 0.000312233 -1.14334e-22)
(14.9998 0.000315934 1.39378e-20)
(14.9998 0.000319541 -2.8052e-20)
(14.9998 0.000322901 0)
(14.9998 0.000326498 -1.28458e-20)
(14.9998 0.0003298 1.25106e-20)
(14.9998 0.000332977 1.21579e-20)
(14.9998 0.000336078 2.66585e-20)
(14.9998 0.000339094 -1.48341e-20)
(14.9998 0.000341975 -2.23317e-20)
(14.9998 0.000344789 2.5944e-20)
(14.9999 0.00034769 -3.03813e-20)
(14.9999 0.000350396 1.51195e-20)
(14.9999 0.000352804 3.46273e-20)
(14.9999 0.000355491 -6.19811e-21)
(14.9999 0.00035784 0)
(14.9999 0.00036015 0)
(14.9999 0.000362223 0)
(14.9999 0.000364442 -7.67541e-21)
(14.9999 0.000366492 0)
(14.9999 0.000368523 -8.82425e-21)
(14.9999 0.000370273 3.14391e-20)
(14.9999 0.000371936 1.229e-20)
(14.9999 0.000373741 -5.33632e-20)
(14.9999 0.000375246 1.063e-20)
(14.9999 0.000376718 1.11234e-20)
(14.9999 0.000378084 -1.59884e-20)
(14.9999 0.000379441 -4.05944e-21)
(14.9999 0.000380703 3.64617e-21)
(15 0.000381759 3.18349e-21)
(15 0.000382739 2.95692e-20)
(15 0.000383572 3.47756e-20)
(15 0.0003844 -1.42895e-20)
(15 0.000385064 -3.25506e-20)
(15 0.000385738 0)
(15 0.000386197 6.44179e-22)
(15 0.000386602 1.63634e-20)
(15 0.000386927 -2.06984e-22)
(15 0.000387175 -1.57273e-20)
(15 0.000387366 0)
(15 0.000387342 3.27425e-20)
(15 0.000387327 -7.75932e-21)
(15 0.000387146 -1.39654e-20)
(15 0.000386958 -5.62144e-21)
(15 0.000386621 -1.63344e-20)
(15.0001 0.000386206 -2.00062e-20)
(15.0001 0.000385578 8.2133e-21)
(15.0001 0.000384854 4.48167e-21)
(15.0001 0.000384116 1.63297e-20)
(15.0001 0.000383269 -5.45362e-21)
(15.0001 0.000382386 1.63569e-20)
(15.0001 0.000381192 -1.25775e-20)
(15.0001 0.000380141 -9.41329e-21)
(15.0001 0.000378997 -2.33833e-20)
(15.0001 0.00037756 7.65161e-21)
(15.0001 0.0003761 4.03465e-20)
(15.0001 0.000374461 -2.44433e-20)
(15.0001 0.000372969 -1.6017e-20)
(15.0001 0.000371227 1.83434e-20)
(15.0001 0.00036944 1.60276e-20)
(15.0001 0.000367296 5.91125e-21)
(15.0001 0.000365438 -5.27113e-20)
(15.0002 0.000363263 1.09668e-20)
(15.0002 0.000360878 4.47704e-21)
(15.0002 0.000358579 -3.15333e-20)
(15.0002 0.000356202 3.99158e-20)
(15.0002 0.000353677 3.12395e-21)
(15.0002 0.000351056 -1.55757e-20)
(15.0002 0.000348348 -1.07901e-20)
(15.0002 0.0003455 2.90559e-20)
(15.0002 0.000342331 -2.94628e-20)
(15.0002 0.000339406 1.3374e-20)
(15.0002 0.00033621 1.53735e-20)
(15.0002 0.000332905 1.51834e-20)
(15.0002 0.00032962 -3.06955e-20)
(15.0002 0.000326077 -4.60083e-20)
(15.0002 0.000322725 1.46683e-22)
(15.0002 0.000319035 1.48919e-20)
(15.0002 0.000315172 0)
(15.0002 0.000311478 1.71819e-20)
(15.0003 0.000307425 0)
(15.0003 0.000303388 -1.46661e-20)
(15.0003 0.000299309 1.83041e-20)
(15.0003 0.000295117 -4.12073e-21)
(15.0003 0.000290585 1.87298e-20)
(15.0003 0.000286227 1.42574e-20)
(15.0003 0.000281591 -3.86891e-20)
(15.0003 0.000277072 -8.34597e-21)
(15.0003 0.000272217 6.05947e-21)
(15.0003 0.000267597 3.37929e-20)
(15.0003 0.000262625 -6.75116e-21)
(15.0003 0.000257384 0)
(15.0003 0.000252395 7.23497e-21)
(15.0003 0.000247099 3.41621e-20)
(15.0003 0.000241803 3.35149e-20)
(15.0003 0.000236565 -3.3719e-20)
(15.0003 0.000231112 8.43209e-21)
(15.0003 0.000225371 2.19539e-22)
(15.0003 0.000219863 1.2126e-20)
(15.0003 0.000213834 -1.21354e-20)
(15.0003 0.000207992 2.41245e-20)
(15.0003 0.000202142 1.43791e-21)
(15.0003 0.000196034 -4.40302e-20)
(15.0003 0.000190186 -1.10316e-20)
(15.0003 0.000183909 -1.00528e-20)
(15.0003 0.000177635 -2.5082e-22)
(15.0003 0.000171392 2.71653e-22)
(15.0003 0.000164822 9.98659e-21)
(15.0003 0.00015828 3.35951e-25)
(15.0003 0.000151639 -5.90651e-20)
(15.0003 0.00014513 3.02902e-20)
(15.0003 0.00013848 -2.95184e-20)
(15.0003 0.000131528 2.73144e-20)
(15.0003 0.000124902 -2.67402e-20)
(15.0003 0.000117938 2.25576e-21)
(15.0003 0.000111252 2.45657e-20)
(15.0003 0.000104182 -2.21985e-21)
(15.0003 9.73116e-05 -1.58435e-20)
(15.0003 9.04528e-05 1.50866e-20)
(15.0003 8.36255e-05 5.6573e-21)
(15.0003 7.64242e-05 -7.57741e-21)
(15.0003 6.96286e-05 -2.94808e-20)
(15.0003 6.29637e-05 1.363e-20)
(15.0003 5.61797e-05 -1.01244e-20)
(15.0003 4.97977e-05 5.41484e-21)
(15.0002 4.3323e-05 1.14072e-20)
(15.0002 3.73869e-05 -4.61824e-21)
(15.0002 3.18382e-05 1.45735e-21)
(15.0002 2.63201e-05 5.0845e-21)
(15.0002 2.14727e-05 -5.65986e-21)
(15.0002 1.70735e-05 3.35266e-21)
(15.0002 1.34478e-05 1.51295e-21)
(15.0002 1.00013e-05 2.14612e-21)
(15.0001 6.32689e-06 -1.03063e-21)
(15.0001 2.68554e-06 -6.79027e-22)
(15 1.0016e-06 3.38974e-22)
(15.0001 1.13214e-07 -3.99096e-23)
(14.9986 8.38847e-06 6.18472e-23)
(14.9994 2.04091e-05 -6.97603e-22)
(14.9997 1.17348e-05 -1.73226e-22)
(14.9995 1.95189e-05 -2.89243e-21)
(14.9994 3.58017e-05 4.11177e-21)
(14.9994 5.16526e-05 -3.07234e-21)
(14.9993 6.46542e-05 -6.61697e-21)
(14.9993 7.72259e-05 2.48583e-22)
(14.9993 9.02734e-05 2.26201e-21)
(14.9993 0.00010434 5.30296e-22)
(14.9993 0.000118593 -7.62351e-21)
(14.9992 0.000133213 4.07912e-21)
(14.9992 0.000148509 1.23065e-20)
(14.9992 0.000164038 -8.29207e-21)
(14.9992 0.000180276 3.4238e-20)
(14.9992 0.000196732 2.99409e-21)
(14.9992 0.0002134 -2.25624e-20)
(14.9992 0.000230681 -3.12718e-21)
(14.9991 0.000247877 1.49227e-20)
(14.9991 0.000265287 -6.4968e-23)
(14.9991 0.000282794 -7.98073e-21)
(14.9991 0.000300673 -2.79143e-20)
(14.9991 0.000318248 -1.98338e-20)
(14.9991 0.000336188 -6.14901e-23)
(14.9991 0.000353844 -9.20566e-21)
(14.9991 0.000371881 1.87698e-20)
(14.9991 0.000389834 7.8608e-22)
(14.9991 0.000407604 5.77807e-22)
(14.9991 0.000425389 -1.10528e-20)
(14.9991 0.000443171 -1.05124e-20)
(14.9991 0.000460919 1.05384e-20)
(14.9991 0.000478432 5.45748e-22)
(14.9991 0.000496005 -3.37488e-20)
(14.9991 0.000513518 8.94983e-20)
(14.9991 0.000530566 1.18598e-20)
(14.9991 0.000547807 2.21074e-20)
(14.9991 0.000564652 -2.41035e-20)
(14.9991 0.000581492 -4.27908e-22)
(14.9991 0.000598583 2.23648e-20)
(14.9991 0.000614945 5.57386e-20)
(14.9991 0.000631564 3.50445e-20)
(14.9991 0.000647754 -4.6031e-21)
(14.9991 0.000663651 2.14245e-20)
(14.9992 0.0006795 0)
(14.9992 0.000695275 7.73676e-21)
(14.9992 0.000710624 -1.36423e-20)
(14.9992 0.000726208 4.78236e-20)
(14.9992 0.000741226 -2.66639e-20)
(14.9992 0.000755811 -4.8061e-20)
(14.9992 0.000770613 1.38212e-20)
(14.9992 0.000785055 1.99697e-20)
(14.9992 0.000799306 9.9675e-21)
(14.9992 0.000813136 6.68358e-20)
(14.9993 0.000827207 3.3568e-20)
(14.9993 0.000840647 -1.5682e-22)
(14.9993 0.000853915 1.12882e-20)
(14.9993 0.000867039 -1.46558e-20)
(14.9993 0.000879889 -3.00433e-20)
(14.9993 0.000892307 4.94133e-20)
(14.9993 0.000904822 3.38802e-20)
(14.9993 0.000916888 1.26477e-21)
(14.9994 0.000928532 0)
(14.9994 0.000940264 1.58565e-20)
(14.9994 0.000951526 -1.54827e-20)
(14.9994 0.000962628 3.06266e-20)
(14.9994 0.000973435 8.83878e-23)
(14.9994 0.00098398 -1.13095e-22)
(14.9994 0.000994508 -2.96263e-20)
(14.9995 0.00100453 -3.18455e-20)
(14.9995 0.00101425 6.67753e-24)
(14.9995 0.00102367 3.19454e-20)
(14.9995 0.00103297 3.22806e-20)
(14.9995 0.00104189 -1.61541e-20)
(14.9995 0.00105046 6.99714e-21)
(14.9995 0.00105907 -1.62492e-20)
(14.9996 0.00106725 -2.72209e-20)
(14.9996 0.00107495 1.04315e-20)
(14.9996 0.00108283 1.64544e-20)
(14.9996 0.00109009 2.61617e-20)
(14.9996 0.00109711 -9.15685e-21)
(14.9996 0.00110367 2.53747e-20)
(14.9997 0.00111025 8.36414e-21)
(14.9997 0.00111649 -4.14132e-20)
(14.9997 0.00112253 -1.68458e-20)
(14.9997 0.00112801 1.68485e-20)
(14.9997 0.00113326 3.01168e-20)
(14.9998 0.00113845 -3.86135e-24)
(14.9998 0.00114326 1.70017e-20)
(14.9998 0.00114769 4.19475e-23)
(14.9998 0.00115188 -2.19296e-20)
(14.9998 0.00115601 -2.14964e-20)
(14.9998 0.00115965 -3.82793e-20)
(14.9999 0.0011629 3.09178e-20)
(14.9999 0.00116587 3.45386e-20)
(14.9999 0.0011686 7.66213e-21)
(14.9999 0.00117125 6.3165e-21)
(14.9999 0.00117334 -1.90358e-20)
(15 0.00117532 -1.74087e-20)
(15 0.00117672 -5.69795e-24)
(15 0.00117799 1.72119e-20)
(15 0.00117899 1.72785e-20)
(15 0.00117975 -5.26497e-24)
(15 0.00118036 -1.74818e-20)
(15.0001 0.00118039 -3.49916e-20)
(15.0001 0.0011803 1.33852e-20)
(15.0001 0.00117965 1.48964e-20)
(15.0001 0.00117891 -2.04105e-20)
(15.0001 0.00117793 -3.24413e-23)
(15.0002 0.00117666 1.35516e-20)
(15.0002 0.00117499 3.48294e-20)
(15.0002 0.00117281 -3.96982e-20)
(15.0002 0.00117057 -1.73214e-20)
(15.0002 0.00116806 -3.27449e-23)
(15.0003 0.00116518 6.27339e-21)
(15.0003 0.00116188 3.93073e-21)
(15.0003 0.00115852 1.43047e-20)
(15.0003 0.00115491 -1.73412e-20)
(15.0003 0.00115071 8.12374e-21)
(15.0003 0.0011463 1.76216e-22)
(15.0004 0.00114152 -8.99065e-21)
(15.0004 0.00113675 4.39195e-20)
(15.0004 0.00113149 -1.35601e-22)
(15.0004 0.00112596 -3.42152e-20)
(15.0004 0.00111978 -2.79607e-20)
(15.0005 0.00111376 6.0996e-23)
(15.0005 0.00110724 4.03676e-20)
(15.0005 0.00110023 -1.21458e-20)
(15.0005 0.00109326 1.70287e-20)
(15.0005 0.00108589 2.59768e-20)
(15.0005 0.00107811 -3.02833e-20)
(15.0006 0.00107017 -3.37721e-20)
(15.0006 0.0010619 4.82091e-20)
(15.0006 0.0010533 3.31144e-20)
(15.0006 0.00104413 -1.49766e-20)
(15.0006 0.00103491 -1.872e-22)
(15.0006 0.00102539 -3.28099e-22)
(15.0007 0.00101553 -1.66119e-20)
(15.0007 0.00100547 -4.98655e-20)
(15.0007 0.000994882 9.39996e-22)
(15.0007 0.000984357 5.18263e-20)
(15.0007 0.000973348 3.43104e-20)
(15.0007 0.000961824 -2.22021e-21)
(15.0008 0.000950371 -1.48068e-22)
(15.0008 0.000938418 3.30713e-21)
(15.0008 0.000926132 0)
(15.0008 0.000913654 4.08232e-21)
(15.0008 0.000900953 1.6085e-20)
(15.0008 0.000887524 1.54873e-20)
(15.0008 0.000874318 -3.13198e-20)
(15.0009 0.000860609 -5.69273e-21)
(15.0009 0.000846649 1.51873e-20)
(15.0009 0.000832248 6.91449e-21)
(15.0009 0.00081804 2.95703e-20)
(15.0009 0.000803308 -2.25678e-20)
(15.0009 0.000787901 3.00842e-20)
(15.0009 0.000772702 -2.35056e-20)
(15.0009 0.000756979 3.88207e-20)
(15.001 0.00074112 -3.91166e-20)
(15.001 0.000725149 1.01241e-20)
(15.001 0.000708795 2.38472e-20)
(15.001 0.000691901 3.51416e-20)
(15.001 0.000675233 1.3965e-20)
(15.001 0.000657679 1.07796e-20)
(15.001 0.000640342 1.41988e-20)
(15.001 0.000622932 1.31279e-20)
(15.001 0.000605002 -3.85423e-20)
(15.001 0.00058722 -3.86449e-20)
(15.001 0.000568831 1.34115e-20)
(15.001 0.000550294 -1.29347e-20)
(15.001 0.000531746 3.18359e-22)
(15.001 0.000512843 -1.30003e-20)
(15.001 0.000493815 -7.48278e-20)
(15.001 0.000474693 5.55305e-22)
(15.001 0.000455494 3.71779e-20)
(15.001 0.000435987 2.53853e-20)
(15.001 0.000416279 2.13782e-20)
(15.001 0.000396914 -5.83263e-20)
(15.001 0.000377106 2.35059e-20)
(15.001 0.000357621 1.28048e-20)
(15.001 0.000337654 2.27334e-20)
(15.001 0.000318013 1.84153e-20)
(15.001 0.00029836 -1.23385e-20)
(15.001 0.000278833 -8.58435e-21)
(15.001 0.00025907 -2.70886e-20)
(15.001 0.000239905 -2.16147e-20)
(15.001 0.000220857 -7.7817e-21)
(15.001 0.000201925 -2.14711e-20)
(15.001 0.0001837 5.24422e-21)
(15.0009 0.000165615 -4.95875e-21)
(15.0009 0.000148208 4.7256e-21)
(15.0009 0.000131082 -3.09729e-22)
(15.0009 0.000114022 -6.67972e-21)
(15.0009 9.80821e-05 4.81572e-21)
(15.0008 8.25984e-05 1.42175e-20)
(15.0008 6.63377e-05 -1.22486e-21)
(15.0008 4.61031e-05 -2.11462e-22)
(15.0006 2.50079e-05 -3.67437e-21)
(15.0004 1.5266e-05 1.90977e-21)
(15.0008 2.69548e-05 -3.11079e-22)
(15.0019 1.1401e-05 -2.78608e-22)
(14.9974 4.73945e-06 1.17844e-22)
(14.9987 3.9156e-05 1.10375e-22)
(14.9993 3.44709e-05 5.49481e-22)
(14.9992 3.34921e-05 -1.67938e-21)
(14.999 5.17349e-05 -1.70698e-21)
(14.9989 7.99606e-05 7.25415e-21)
(14.9988 0.000106426 -1.87782e-21)
(14.9988 0.000130151 0)
(14.9988 0.000153425 -1.43051e-20)
(14.9987 0.000177914 2.21898e-20)
(14.9987 0.000202964 -1.95777e-20)
(14.9987 0.000228403 4.31951e-21)
(14.9986 0.000254322 4.51645e-21)
(14.9986 0.000280712 -1.79303e-20)
(14.9986 0.000307996 1.35843e-20)
(14.9986 0.000335631 6.55661e-21)
(14.9986 0.000363512 -3.23199e-20)
(14.9985 0.000392079 -3.33507e-20)
(14.9985 0.000420685 1.00857e-20)
(14.9985 0.000449638 1.06722e-20)
(14.9985 0.000478847 3.74043e-20)
(14.9985 0.000508314 8.61536e-21)
(14.9985 0.000537773 1.12376e-20)
(14.9985 0.000567494 -2.05671e-20)
(14.9985 0.000596928 9.55769e-21)
(14.9985 0.000626708 -4.21043e-20)
(14.9985 0.000656516 4.27359e-20)
(14.9985 0.000686036 1.00593e-20)
(14.9985 0.000715523 1.05994e-20)
(14.9985 0.000745111 -1.06482e-20)
(14.9985 0.000774484 -2.24216e-20)
(14.9985 0.000803793 3.35527e-20)
(14.9985 0.000833069 -5.6247e-20)
(14.9985 0.000862212 -3.45892e-20)
(14.9985 0.000890841 4.62753e-20)
(14.9985 0.000919652 4.46577e-20)
(14.9985 0.000947888 2.2311e-20)
(14.9985 0.000976013 -1.23374e-20)
(14.9985 0.0010043 9.54612e-21)
(14.9985 0.00103187 -4.40936e-20)
(14.9985 0.00105939 5.6798e-20)
(14.9985 0.00108664 1.31811e-20)
(14.9986 0.00111341 2.16308e-20)
(14.9986 0.00114019 2.14809e-20)
(14.9986 0.00116662 0)
(14.9986 0.00119242 -1.36034e-20)
(14.9986 0.0012183 6.33249e-21)
(14.9986 0.00124359 3.50292e-20)
(14.9986 0.00126841 -2.83508e-20)
(14.9987 0.00129314 -2.02087e-20)
(14.9987 0.00131751 2.5623e-20)
(14.9987 0.00134161 -3.41768e-20)
(14.9987 0.00136488 -2.42845e-20)
(14.9987 0.00138832 5.2921e-20)
(14.9988 0.0014111 1.47098e-20)
(14.9988 0.00143364 1.86536e-20)
(14.9988 0.00145562 3.94563e-20)
(14.9988 0.00147728 2.81818e-21)
(14.9988 0.00149847 -3.03863e-20)
(14.9989 0.00151943 3.23295e-20)
(14.9989 0.00153984 4.77726e-20)
(14.9989 0.00155965 1.64832e-20)
(14.9989 0.00157934 1.54946e-20)
(14.999 0.00159854 1.10445e-22)
(14.999 0.00161724 -4.66299e-20)
(14.999 0.00163547 3.0086e-20)
(14.999 0.00165337 1.58376e-20)
(14.9991 0.00167089 1.43747e-20)
(14.9991 0.00168786 -3.0025e-20)
(14.9991 0.00170434 -1.90913e-23)
(14.9991 0.00172039 3.05565e-21)
(14.9992 0.00173618 -1.61272e-20)
(14.9992 0.00175143 -2.04912e-20)
(14.9992 0.00176598 2.82756e-20)
(14.9992 0.00178026 2.80019e-20)
(14.9993 0.00179423 -1.10696e-20)
(14.9993 0.00180757 -1.06521e-20)
(14.9993 0.00182053 -3.70753e-20)
(14.9993 0.0018329 6.84977e-21)
(14.9994 0.00184489 -9.21108e-21)
(14.9994 0.00185614 -3.37585e-20)
(14.9994 0.00186722 4.22744e-20)
(14.9995 0.00187781 9.18157e-22)
(14.9995 0.00188799 -3.40612e-20)
(14.9995 0.00189732 -5.67425e-23)
(14.9996 0.00190634 4.1658e-23)
(14.9996 0.00191501 -2.34911e-20)
(14.9996 0.00192326 1.72016e-20)
(14.9996 0.00193086 2.91517e-20)
(14.9997 0.00193801 4.97768e-21)
(14.9997 0.00194478 4.45282e-21)
(14.9997 0.00195088 2.3193e-23)
(14.9998 0.00195654 -2.10266e-20)
(14.9998 0.00196167 -3.18656e-20)
(14.9998 0.0019664 -1.75593e-20)
(14.9999 0.00197081 5.26734e-20)
(14.9999 0.00197439 1.59073e-20)
(14.9999 0.00197757 -1.76223e-20)
(15 0.0019801 1.68968e-20)
(15 0.00198238 2.89813e-22)
(15 0.0019841 -1.78941e-20)
(15 0.00198524 6.69912e-22)
(15.0001 0.00198615 0)
(15.0001 0.00198639 1.61062e-21)
(15.0001 0.00198622 -1.56111e-20)
(15.0002 0.00198522 -2.54706e-21)
(15.0002 0.00198388 2.07212e-20)
(15.0002 0.00198213 -2.47061e-20)
(15.0003 0.00197984 -1.76417e-20)
(15.0003 0.00197709 1.13952e-24)
(15.0003 0.00197365 -1.50135e-23)
(15.0004 0.00196981 3.52727e-20)
(15.0004 0.0019655 1.75313e-20)
(15.0004 0.00196051 -1.75542e-20)
(15.0005 0.00195508 1.75799e-20)
(15.0005 0.00194926 2.47945e-20)
(15.0005 0.00194311 -3.51051e-20)
(15.0006 0.00193608 -2.67207e-20)
(15.0006 0.00192859 8.8106e-21)
(15.0006 0.00192057 4.40147e-20)
(15.0006 0.00191237 9.53731e-21)
(15.0007 0.00190337 -2.74306e-20)
(15.0007 0.00189394 0)
(15.0007 0.00188388 1.73728e-20)
(15.0008 0.00187339 2.87178e-20)
(15.0008 0.00186222 -1.72773e-20)
(15.0008 0.00185069 -1.71641e-20)
(15.0009 0.00183885 1.72183e-20)
(15.0009 0.00182623 -2.66393e-20)
(15.0009 0.00181302 -1.70368e-20)
(15.0009 0.00179949 1.70865e-20)
(15.001 0.00178548 3.15816e-20)
(15.001 0.0017709 -4.70852e-20)
(15.001 0.0017557 -1.34746e-21)
(15.0011 0.00174006 -1.49538e-20)
(15.0011 0.00172401 1.62231e-20)
(15.0011 0.00170743 -3.34314e-20)
(15.0011 0.00169025 1.67254e-20)
(15.0012 0.00167251 3.41621e-20)
(15.0012 0.00165459 1.8053e-20)
(15.0012 0.00163596 -1.46443e-20)
(15.0013 0.0016167 -1.61699e-20)
(15.0013 0.00159713 5.1827e-20)
(15.0013 0.00157699 -1.57163e-22)
(15.0013 0.00155644 -1.60825e-20)
(15.0014 0.00153523 0)
(15.0014 0.00151369 4.14782e-20)
(15.0014 0.00149136 -4.22339e-20)
(15.0014 0.00146915 0)
(15.0014 0.00144596 2.18172e-20)
(15.0015 0.00142239 -2.21618e-20)
(15.0015 0.00139837 1.56272e-20)
(15.0015 0.00137416 7.08789e-21)
(15.0015 0.00134935 3.11528e-20)
(15.0016 0.00132381 -2.14804e-22)
(15.0016 0.00129826 -4.70798e-20)
(15.0016 0.00127193 1.48265e-20)
(15.0016 0.00124513 -5.75729e-20)
(15.0016 0.00121823 3.89567e-20)
(15.0016 0.00119069 -2.45737e-20)
(15.0017 0.00116275 -1.4418e-20)
(15.0017 0.00113467 -2.47061e-20)
(15.0017 0.00110565 1.06943e-20)
(15.0017 0.00107671 3.98398e-20)
(15.0017 0.00104753 -1.23373e-20)
(15.0017 0.00101758 -6.58503e-20)
(15.0017 0.000987711 -5.07776e-20)
(15.0018 0.00095713 3.85789e-20)
(15.0018 0.000926264 -5.11494e-20)
(15.0018 0.000895225 0)
(15.0018 0.000863972 -3.80792e-20)
(15.0018 0.000832324 -1.26458e-20)
(15.0018 0.000800646 4.88083e-20)
(15.0018 0.000768774 -2.4944e-20)
(15.0018 0.000736405 3.79349e-20)
(15.0018 0.0007039 -4.66288e-20)
(15.0018 0.000671628 2.43248e-20)
(15.0018 0.000638841 3.38087e-20)
(15.0018 0.000606176 3.33789e-20)
(15.0018 0.000573309 3.21579e-20)
(15.0018 0.000540545 2.91214e-21)
(15.0018 0.00050788 5.95339e-22)
(15.0018 0.000475417 -1.25506e-20)
(15.0018 0.000442778 1.16875e-20)
(15.0017 0.000410728 0)
(15.0017 0.000378742 -2.46829e-20)
(15.0017 0.000346931 3.28678e-20)
(15.0017 0.000315952 -1.5374e-20)
(15.0017 0.000285287 -7.79869e-21)
(15.0016 0.000254943 4.11842e-21)
(15.0016 0.000224755 -2.94047e-20)
(15.0016 0.000194994 3.87779e-21)
(15.0015 0.000166459 1.00017e-20)
(15.0015 0.000136986 1.64341e-21)
(15.0014 0.0001035 2.11814e-22)
(15.0013 6.72202e-05 -2.2516e-21)
(15.001 4.37701e-05 9.05083e-22)
(15.001 4.59155e-05 -1.24501e-22)
(15.0017 5.23146e-05 -1.3377e-21)
(15.0035 6.56025e-06 1.00619e-22)
(14.9965 7.60242e-06 -1.03689e-22)
(14.9979 4.45302e-05 5.35943e-22)
(14.9987 6.07861e-05 0)
(14.9988 5.5938e-05 0)
(14.9986 6.62242e-05 -8.70128e-22)
(14.9984 9.96129e-05 -1.40341e-21)
(14.9983 0.00013939 -3.09661e-21)
(14.9983 0.000175718 -1.52298e-21)
(14.9982 0.000209757 -4.88138e-21)
(14.9982 0.000244634 7.66336e-21)
(14.9981 0.000280355 -5.32391e-21)
(14.9981 0.000316686 -4.62193e-21)
(14.998 0.000353511 -7.15165e-21)
(14.998 0.000391058 4.32355e-23)
(14.998 0.000429475 -2.832e-20)
(14.998 0.000468356 2.11079e-20)
(14.9979 0.000507647 6.67142e-21)
(14.9979 0.000547657 9.99126e-21)
(14.9979 0.000587953 -2.51076e-20)
(14.9979 0.00062861 1.06691e-20)
(14.9979 0.000669438 -3.80522e-20)
(14.9979 0.000710713 3.20951e-22)
(14.9978 0.000752095 8.40394e-21)
(14.9978 0.000793842 -1.08629e-20)
(14.9978 0.000835225 2.04593e-20)
(14.9978 0.000876936 2.92239e-22)
(14.9978 0.000918665 -4.14567e-20)
(14.9978 0.000960209 -2.19333e-20)
(14.9978 0.00100158 1.07304e-20)
(14.9978 0.0010432 4.1114e-23)
(14.9978 0.00108458 0)
(14.9978 0.00112576 2.23832e-20)
(14.9978 0.00116682 3.37917e-20)
(14.9978 0.00120775 -2.23738e-20)
(14.9978 0.00124824 -2.38151e-20)
(14.9979 0.00128869 -2.27291e-20)
(14.9979 0.00132867 -2.22534e-20)
(14.9979 0.00136845 -2.26869e-20)
(14.9979 0.00140815 2.91967e-21)
(14.9979 0.00144707 -4.44348e-20)
(14.9979 0.0014859 -3.53604e-20)
(14.9979 0.00152427 9.00472e-21)
(14.998 0.00156215 8.50387e-21)
(14.998 0.00159999 1.34113e-20)
(14.998 0.00163738 2.17867e-20)
(14.998 0.00167393 -1.83828e-22)
(14.998 0.00171043 1.39994e-20)
(14.9981 0.00174623 4.19909e-20)
(14.9981 0.00178159 2.07297e-20)
(14.9981 0.00181653 -1.42421e-20)
(14.9981 0.00185105 2.00609e-20)
(14.9982 0.00188501 -1.08125e-20)
(14.9982 0.00191836 -1.44919e-20)
(14.9982 0.00195146 -1.50559e-20)
(14.9982 0.00198376 1.50171e-20)
(14.9983 0.00201571 2.26637e-20)
(14.9983 0.00204681 -1.51942e-20)
(14.9983 0.00207762 3.33435e-20)
(14.9984 0.00210782 -2.42859e-21)
(14.9984 0.00213749 -5.03829e-20)
(14.9984 0.00216652 -1.55966e-20)
(14.9984 0.00219485 1.56025e-20)
(14.9985 0.00222277 1.58156e-20)
(14.9985 0.00224999 4.75954e-20)
(14.9985 0.00227661 -1.56492e-20)
(14.9986 0.00230269 -3.22444e-20)
(14.9986 0.00232806 1.18981e-21)
(14.9987 0.00235285 1.45807e-20)
(14.9987 0.0023771 -1.6194e-20)
(14.9987 0.0024007 1.36945e-20)
(14.9988 0.00242363 3.28232e-20)
(14.9988 0.0024459 2.6052e-20)
(14.9988 0.00246764 -4.56676e-20)
(14.9989 0.0024885 -2.88208e-20)
(14.9989 0.00250875 1.66623e-20)
(14.999 0.00252863 5.49709e-21)
(14.999 0.00254774 1.67807e-20)
(14.999 0.00256606 6.46103e-21)
(14.9991 0.00258366 -2.0064e-20)
(14.9991 0.00260079 2.20236e-21)
(14.9992 0.00261704 -3.543e-20)
(14.9992 0.00263279 2.54754e-20)
(14.9992 0.00264781 -8.75557e-21)
(14.9993 0.00266226 -5.17617e-20)
(14.9993 0.00267572 9.90781e-21)
(14.9994 0.00268869 3.46997e-20)
(14.9994 0.00270097 3.42394e-23)
(14.9994 0.00271265 1.13747e-20)
(14.9995 0.00272357 -1.73959e-20)
(14.9995 0.00273381 -4.75796e-20)
(14.9996 0.00274328 4.60963e-21)
(14.9996 0.00275211 3.62989e-24)
(14.9997 0.00276036 1.7665e-20)
(14.9997 0.00276776 1.77254e-20)
(14.9998 0.00277446 9.58577e-21)
(14.9998 0.00278057 1.33162e-20)
(14.9998 0.00278569 -1.60586e-20)
(14.9999 0.00279024 -1.78739e-20)
(14.9999 0.00279393 -1.78931e-20)
(15 0.00279728 -1.76133e-20)
(15 0.00279972 5.36485e-20)
(15.0001 0.00280128 1.79301e-20)
(15.0001 0.00280247 -1.90663e-20)
(15.0002 0.00280281 -1.79407e-20)
(15.0002 0.00280256 -2.00072e-20)
(15.0002 0.00280131 2.05119e-20)
(15.0003 0.00279946 -4.2017e-20)
(15.0003 0.00279689 -1.78752e-20)
(15.0004 0.00279344 5.7723e-20)
(15.0004 0.00278939 3.5717e-20)
(15.0005 0.00278468 -3.07207e-20)
(15.0005 0.00277916 -6.76913e-21)
(15.0006 0.00277292 -5.1084e-23)
(15.0006 0.0027659 4.18466e-23)
(15.0006 0.00275823 3.55903e-20)
(15.0007 0.00274984 -7.47596e-21)
(15.0007 0.00274091 -2.56168e-20)
(15.0008 0.00273094 -9.35791e-21)
(15.0008 0.00272035 2.66711e-20)
(15.0009 0.00270897 3.52947e-20)
(15.0009 0.00269704 0)
(15.001 0.00268417 -1.76283e-20)
(15.001 0.00267077 -6.78246e-21)
(15.001 0.00265657 0)
(15.0011 0.00264153 -1.16929e-20)
(15.0011 0.00262563 -1.21597e-20)
(15.0012 0.00260929 -1.26097e-20)
(15.0012 0.00259227 -1.74273e-20)
(15.0013 0.00257428 -1.34337e-20)
(15.0013 0.00255569 1.72457e-20)
(15.0013 0.00253633 -1.73161e-20)
(15.0014 0.00251622 8.06886e-23)
(15.0014 0.00249536 1.89343e-20)
(15.0015 0.00247387 1.56631e-20)
(15.0015 0.00245171 1.32649e-22)
(15.0015 0.00242872 -3.33944e-20)
(15.0016 0.00240509 -1.68347e-20)
(15.0016 0.00238075 0)
(15.0017 0.00235559 -1.99341e-23)
(15.0017 0.00232991 -1.55983e-21)
(15.0017 0.00230341 -3.76463e-20)
(15.0018 0.00227614 5.51131e-20)
(15.0018 0.00224821 1.92357e-20)
(15.0018 0.00221955 -7.25777e-20)
(15.0019 0.00219047 0)
(15.0019 0.00216039 1.63524e-20)
(15.0019 0.00212983 4.64872e-21)
(15.002 0.00209831 5.60662e-21)
(15.002 0.0020664 1.58643e-20)
(15.002 0.00203373 -2.21323e-20)
(15.0021 0.00200034 0)
(15.0021 0.00196638 1.57717e-20)
(15.0021 0.00193185 -7.65246e-21)
(15.0022 0.00189671 7.91098e-21)
(15.0022 0.00186067 -5.43392e-20)
(15.0022 0.00182446 2.41915e-20)
(15.0023 0.00178718 -2.39165e-22)
(15.0023 0.00174927 -2.42433e-20)
(15.0023 0.00171119 1.46255e-20)
(15.0023 0.00167241 -1.48078e-20)
(15.0024 0.00163296 -1.44235e-20)
(15.0024 0.00159329 5.41966e-20)
(15.0024 0.00155256 1.37577e-20)
(15.0024 0.00151158 1.1724e-20)
(15.0024 0.00147023 -3.96773e-20)
(15.0025 0.00142816 -5.29912e-20)
(15.0025 0.00138587 3.95389e-20)
(15.0025 0.0013429 -1.30436e-20)
(15.0025 0.00129959 2.6645e-22)
(15.0025 0.00125596 1.26121e-20)
(15.0025 0.0012119 0)
(15.0025 0.00116733 5.10672e-20)
(15.0025 0.00112286 -2.53654e-20)
(15.0025 0.00107797 -2.5146e-20)
(15.0025 0.00103263 -4.96956e-20)
(15.0026 0.000987071 -1.31716e-20)
(15.0026 0.000941653 3.48938e-20)
(15.0026 0.000895553 -2.36249e-20)
(15.0026 0.000849618 -1.02304e-20)
(15.0025 0.000803535 -2.22819e-20)
(15.0025 0.000757702 -3.48413e-20)
(15.0025 0.000711779 3.34727e-20)
(15.0025 0.000665978 3.36741e-22)
(15.0025 0.000620202 -3.50597e-22)
(15.0025 0.000574957 1.89346e-20)
(15.0025 0.000529876 2.42928e-20)
(15.0024 0.000484986 9.73976e-21)
(15.0024 0.00044079 3.25663e-21)
(15.0024 0.000397093 -1.32362e-20)
(15.0024 0.000353583 -1.26664e-20)
(15.0023 0.000310393 3.15593e-22)
(15.0023 0.000267834 1.25358e-20)
(15.0022 0.00022584 -1.54151e-20)
(15.0022 0.000180286 6.21132e-21)
(15.002 0.000129557 2.34936e-23)
(15.0018 8.66668e-05 0)
(15.0015 7.39619e-05 -9.39457e-22)
(15.0017 8.13618e-05 -1.17553e-21)
(15.0028 5.97097e-05 2.07745e-22)
(15.0047 1.04625e-05 1.48578e-22)
(14.9958 7.63694e-06 -1.68837e-22)
(14.9971 4.6764e-05 -8.01514e-22)
(14.998 8.34771e-05 0)
(14.9984 8.62558e-05 1.74631e-21)
(14.9982 8.67917e-05 8.97257e-22)
(14.998 0.000116067 -2.31289e-21)
(14.9978 0.000164667 -4.90611e-21)
(14.9977 0.000214194 -2.14345e-21)
(14.9977 0.000259949 1.82724e-21)
(14.9976 0.000305422 -8.82226e-21)
(14.9976 0.000351735 1.3648e-20)
(14.9975 0.000398799 -6.90256e-21)
(14.9975 0.000446474 1.69021e-20)
(14.9974 0.000495051 -4.91351e-23)
(14.9974 0.000544477 8.64351e-21)
(14.9974 0.000594677 -6.29994e-21)
(14.9973 0.000645378 3.21636e-20)
(14.9973 0.000696689 2.37292e-20)
(14.9973 0.00074852 -6.94427e-21)
(14.9973 0.000801027 -5.9738e-22)
(14.9972 0.000853743 -1.04024e-20)
(14.9972 0.000906763 -8.66685e-21)
(14.9972 0.000960162 -2.00678e-20)
(14.9972 0.00101385 -8.95596e-21)
(14.9972 0.00106727 -2.11434e-20)
(14.9972 0.00112097 4.07714e-20)
(14.9972 0.00117484 -1.1413e-20)
(14.9972 0.00122855 -2.19058e-20)
(14.9972 0.00128202 -2.20869e-20)
(14.9972 0.0013359 -3.29895e-20)
(14.9972 0.00138933 -1.12278e-20)
(14.9972 0.00144261 0)
(14.9972 0.00149573 -3.40427e-20)
(14.9972 0.00154865 -2.28676e-20)
(14.9972 0.00160121 1.22106e-21)
(14.9972 0.00165364 -1.05208e-20)
(14.9972 0.00170549 -2.27754e-20)
(14.9973 0.00175712 -3.51508e-20)
(14.9973 0.00180842 -2.28527e-20)
(14.9973 0.00185901 4.52856e-20)
(14.9973 0.0019094 -3.75946e-21)
(14.9973 0.00195942 -3.56848e-20)
(14.9974 0.00200869 -8.86668e-21)
(14.9974 0.00205775 2.00516e-22)
(14.9974 0.00210638 -1.79475e-22)
(14.9974 0.00215393 -2.14953e-20)
(14.9975 0.00220126 2.12774e-20)
(14.9975 0.00224804 -2.10629e-20)
(14.9975 0.00229402 2.08708e-20)
(14.9975 0.00233955 1.991e-22)
(14.9976 0.00238457 1.43127e-20)
(14.9976 0.00242872 2.06329e-20)
(14.9976 0.00247233 4.93106e-21)
(14.9977 0.0025154 -4.70538e-21)
(14.9977 0.00255755 4.45105e-21)
(14.9977 0.00259919 1.89772e-20)
(14.9978 0.00263994 -1.86696e-20)
(14.9978 0.00268005 -1.86491e-20)
(14.9979 0.00271947 3.37235e-20)
(14.9979 0.00275816 0)
(14.9979 0.00279611 -1.74864e-20)
(14.998 0.00283335 -3.42542e-20)
(14.998 0.00286978 1.67583e-20)
(14.9981 0.00290526 -1.63935e-20)
(14.9981 0.00294015 3.20753e-20)
(14.9982 0.00297433 1.61093e-20)
(14.9982 0.0030075 1.53738e-20)
(14.9982 0.00303988 -1.54471e-21)
(14.9983 0.00307155 -1.63675e-20)
(14.9983 0.00310256 -2.82378e-20)
(14.9984 0.00313264 1.37727e-20)
(14.9984 0.00316159 1.31692e-20)
(14.9985 0.00318996 3.95529e-21)
(14.9985 0.00321749 -1.24271e-20)
(14.9986 0.0032441 -7.15574e-21)
(14.9986 0.00326996 -1.14939e-20)
(14.9987 0.00329493 -1.12254e-20)
(14.9987 0.00331899 2.78159e-20)
(14.9988 0.00334212 -3.42433e-20)
(14.9988 0.00336456 -1.30353e-22)
(14.9989 0.00338604 1.73935e-20)
(14.999 0.00340651 -1.73671e-20)
(14.999 0.00342614 1.69316e-20)