/*--------------------------------*- C++ -*----------------------------------*\
  =========                 |
  \\      /  F ield         | OpenFOAM: The Open Source CFD Toolbox
   \\    /   O peration     | Website:  https://openfoam.org
    \\  /    A nd           | Version:  9
     \\/     M anipulation  |
\*---------------------------------------------------------------------------*/
FoamFile
{
    format      ascii;
    class       volScalarField;
    location    "0.0325";
    object      alphat;
}
// * * * * * * * * * * * * * * * * * * * * * * * * * * * * * * * * * * * * * //

dimensions      [1 -1 -1 0 0 0 0];

internalField   nonuniform List<scalar> 
8420
(
0.0163604
0.0163605
0.0163607
0.0163609
0.016361
0.0163611
0.0163613
0.0163614
0.0163615
0.0163616
0.0163617
0.0163618
0.0163619
0.016362
0.0163621
0.0163622
0.0163623
0.0163624
0.0163625
0.0163625
0.0163626
0.0163627
0.0163627
0.0163628
0.0163629
0.0163629
0.0163629
0.016363
0.016363
0.016363
0.016363
0.016363
0.0163629
0.0163628
0.0163853
0.0163844
0.0163836
0.0163827
0.0163817
0.0163808
0.0163798
0.0163788
0.0163778
0.0163767
0.0163756
0.0163745
0.0163734
0.0163723
0.0163712
0.01637
0.0163688
0.0163677
0.0163667
0.0163658
0.016365
0.0163643
0.0163637
0.0163632
0.0163628
0.0163625
0.0163623
0.0163622
0.0163624
0.0163624
0.0163623
0.0163621
0.0163618
0.0163616
0.0163658
0.0163652
0.0163646
0.016364
0.0163635
0.0163629
0.0163623
0.0163617
0.0163611
0.0163605
0.01636
0.0163595
0.0163591
0.0163587
0.0163585
0.0163583
0.0163582
0.0163583
0.0163585
0.0163585
0.0163584
0.0163582
0.016358
0.0163578
0.0163576
0.0163573
0.0163571
0.0163568
0.0163565
0.0163562
0.0163558
0.0163555
0.0163551
0.0163548
0.016364
0.0163639
0.0163638
0.0163637
0.0163635
0.0163633
0.0163631
0.0163628
0.0163625
0.0163622
0.0163619
0.0163616
0.0163612
0.0163608
0.0163604
0.01636
0.0163596
0.0163591
0.0163587
0.0163582
0.0163577
0.0163572
0.0163567
0.0163561
0.0163556
0.016355
0.0163545
0.0163539
0.0163534
0.0163528
0.0163522
0.0163517
0.0163513
0.0163511
0.0163234
0.0163232
0.016323
0.0163228
0.0163226
0.0163224
0.0163222
0.0163219
0.0163217
0.0163215
0.0163213
0.0163211
0.0163209
0.0163207
0.0163205
0.0163203
0.0163201
0.0163199
0.0163197
0.0163195
0.0163193
0.0163191
0.0163189
0.0163187
0.0163185
0.0163183
0.0163181
0.0163179
0.0163177
0.0163175
0.0163173
0.0163172
0.016317
0.0163168
0.0163062
0.0163067
0.016307
0.0163072
0.0163072
0.0163071
0.016307
0.0163068
0.0163065
0.0163062
0.0163059
0.0163056
0.0163052
0.0163048
0.0163044
0.0163039
0.0163035
0.016303
0.0163025
0.016302
0.0163014
0.0163009
0.0163003
0.0162997
0.0162991
0.0162985
0.0162979
0.0162973
0.0162967
0.0162961
0.0162954
0.0162948
0.0162942
0.0162936
0.0162624
0.0162627
0.016263
0.0162634
0.0162637
0.0162641
0.0162644
0.0162648
0.0162652
0.0162655
0.0162659
0.0162663
0.0162667
0.0162671
0.0162675
0.0162679
0.0162683
0.0162688
0.0162692
0.0162697
0.0162701
0.0162706
0.016271
0.0162715
0.016272
0.0162721
0.0162721
0.016272
0.0162719
0.0162717
0.0162715
0.0162712
0.0162709
0.0162706
0.0162464
0.0162469
0.0162475
0.016248
0.0162486
0.0162492
0.0162498
0.0162504
0.0162505
0.0162505
0.0162504
0.0162502
0.01625
0.0162498
0.0162495
0.0162492
0.0162488
0.0162484
0.0162481
0.0162478
0.0162476
0.0162475
0.0162479
0.0162485
0.016249
0.0162496
0.0162501
0.0162507
0.0162512
0.0162518
0.0162523
0.0162529
0.0162535
0.0162541
0.0162217
0.0162223
0.0162229
0.0162235
0.0162241
0.0162247
0.0162253
0.0162259
0.0162266
0.0162272
0.0162278
0.0162284
0.0162291
0.0162296
0.0162298
0.0162298
0.0162297
0.0162295
0.0162292
0.016229
0.0162289
0.0162291
0.0162297
0.0162303
0.016231
0.0162316
0.0162323
0.016233
0.0162336
0.0162343
0.016235
0.0162356
0.0162363
0.016237
0.0161934
0.016194
0.0161947
0.0161954
0.0161961
0.0161968
0.0161975
0.0161982
0.0161989
0.0161996
0.0162003
0.016201
0.0162017
0.0162024
0.0162031
0.0162039
0.0162046
0.0162053
0.0162061
0.0162068
0.0162076
0.0162083
0.0162091
0.0162099
0.0162106
0.0162114
0.0162122
0.016213
0.0162138
0.0162146
0.0162154
0.0162162
0.016217
0.0162178
0.0162186
0.0161689
0.0161698
0.0161706
0.0161715
0.0161723
0.0161732
0.016174
0.0161749
0.0161758
0.0161767
0.0161775
0.0161784
0.0161793
0.0161802
0.0161811
0.016182
0.0161829
0.0161838
0.0161847
0.0161856
0.0161865
0.0161874
0.0161883
0.0161892
0.0161901
0.0161911
0.016192
0.0161929
0.0161938
0.0161948
0.0161957
0.0161966
0.0161976
0.0161985
0.0161995
0.0161437
0.0161447
0.0161457
0.0161467
0.0161477
0.0161487
0.0161498
0.0161508
0.0161518
0.0161528
0.0161539
0.0161549
0.0161559
0.016157
0.016158
0.0161591
0.0161601
0.0161612
0.0161622
0.0161633
0.0161644
0.0161655
0.0161665
0.0161676
0.0161687
0.0161698
0.0161709
0.016172
0.0161731
0.0161742
0.0161753
0.0161764
0.0161775
0.0161786
0.0161797
0.0161169
0.016118
0.0161192
0.0161204
0.0161216
0.0161228
0.0161239
0.0161251
0.0161263
0.0161276
0.0161288
0.01613
0.0161312
0.0161324
0.0161337
0.0161349
0.0161361
0.0161374
0.0161386
0.0161399
0.0161411
0.0161424
0.0161437
0.0161449
0.0161462
0.0161475
0.0161488
0.0161501
0.0161513
0.0161526
0.0161539
0.0161552
0.0161565
0.0161578
0.0161592
0.0160882
0.0160895
0.0160909
0.0160923
0.0160937
0.016095
0.0160964
0.0160978
0.0160992
0.0161007
0.0161021
0.0161035
0.0161049
0.0161064
0.0161078
0.0161092
0.0161107
0.0161121
0.0161136
0.0161151
0.0161165
0.016118
0.0161195
0.016121
0.0161225
0.016124
0.0161255
0.016127
0.0161285
0.01613
0.0161316
0.0161331
0.0161346
0.0161361
0.0161377
0.0160574
0.016059
0.0160606
0.0160622
0.0160638
0.0160654
0.016067
0.0160686
0.0160703
0.0160719
0.0160736
0.0160752
0.0160769
0.0160786
0.0160803
0.016082
0.0160837
0.0160854
0.0160871
0.0160888
0.0160905
0.0160922
0.016094
0.0160957
0.0160975
0.0160992
0.016101
0.0161027
0.0161045
0.0161063
0.0161081
0.0161098
0.0161116
0.0161134
0.0161152
0.0160243
0.0160262
0.016028
0.0160299
0.0160317
0.0160336
0.0160355
0.0160374
0.0160393
0.0160412
0.0160431
0.0160451
0.016047
0.016049
0.0160509
0.0160529
0.0160549
0.0160568
0.0160588
0.0160608
0.0160628
0.0160649
0.0160669
0.0160689
0.0160709
0.016073
0.016075
0.0160771
0.0160792
0.0160812
0.0160833
0.0160854
0.0160875
0.0160896
0.0160917
0.0159885
0.0159906
0.0159928
0.0159949
0.0159971
0.0159993
0.0160015
0.0160037
0.0160059
0.0160081
0.0160103
0.0160126
0.0160148
0.0160171
0.0160194
0.0160217
0.016024
0.0160263
0.0160286
0.0160309
0.0160332
0.0160356
0.0160379
0.0160403
0.0160427
0.0160451
0.0160474
0.0160498
0.0160523
0.0160547
0.0160571
0.0160595
0.016062
0.0160644
0.0160669
0.0159494
0.0159519
0.0159544
0.0159569
0.0159594
0.0159619
0.0159644
0.015967
0.0159695
0.0159721
0.0159747
0.0159773
0.0159799
0.0159825
0.0159852
0.0159878
0.0159905
0.0159931
0.0159958
0.0159985
0.0160012
0.016004
0.0160067
0.0160095
0.0160122
0.016015
0.0160178
0.0160205
0.0160234
0.0160262
0.016029
0.0160319
0.0160347
0.0160376
0.0160405
0.0159064
0.0159093
0.0159121
0.015915
0.0159179
0.0159208
0.0159237
0.0159266
0.0159296
0.0159326
0.0159356
0.0159386
0.0159416
0.0159447
0.0159477
0.0159508
0.0159539
0.015957
0.0159601
0.0159633
0.0159664
0.0159696
0.0159727
0.0159759
0.0159791
0.0159824
0.0159856
0.0159889
0.0159922
0.0159955
0.0159988
0.0160021
0.0160055
0.0160088
0.0160122
0.0158587
0.015862
0.0158653
0.0158686
0.0158719
0.0158753
0.0158786
0.0158821
0.0158855
0.0158889
0.0158924
0.0158959
0.0158994
0.0159029
0.0159065
0.01591
0.0159136
0.0159172
0.0159209
0.0159245
0.0159282
0.0159319
0.0159356
0.0159393
0.0159431
0.0159469
0.0159507
0.0159545
0.0159583
0.0159622
0.015966
0.0159699
0.0159738
0.0159777
0.0159816
0.0158054
0.0158092
0.015813
0.0158168
0.0158207
0.0158246
0.0158285
0.0158324
0.0158364
0.0158404
0.0158444
0.0158484
0.0158525
0.0158566
0.0158607
0.0158649
0.015869
0.0158732
0.0158775
0.0158817
0.015886
0.0158904
0.0158947
0.0158991
0.0159035
0.0159079
0.0159123
0.0159168
0.0159212
0.0159257
0.0159302
0.0159348
0.0159393
0.0159439
0.0159484
0.0157458
0.0157502
0.0157546
0.015759
0.0157635
0.015768
0.0157725
0.0157771
0.0157817
0.0157863
0.0157909
0.0157956
0.0158004
0.0158051
0.0158099
0.0158147
0.0158196
0.0158245
0.0158295
0.0158345
0.0158395
0.0158445
0.0158496
0.0158547
0.0158598
0.015865
0.0158702
0.0158754
0.0158806
0.0158858
0.0158911
0.0158964
0.0159017
0.015907
0.0159123
0.0156792
0.0156843
0.0156893
0.0156945
0.0156996
0.0157048
0.0157101
0.0157154
0.0157207
0.0157261
0.0157315
0.0157369
0.0157424
0.015748
0.0157536
0.0157592
0.0157649
0.0157707
0.0157764
0.0157823
0.0157881
0.015794
0.0157999
0.0158059
0.0158119
0.0158179
0.0158239
0.01583
0.0158361
0.0158422
0.0158484
0.0158546
0.0158608
0.015867
0.0158732
0.0156049
0.0156107
0.0156166
0.0156225
0.0156285
0.0156345
0.0156406
0.0156467
0.0156529
0.0156591
0.0156654
0.0156717
0.0156781
0.0156846
0.0156912
0.0156978
0.0157044
0.0157111
0.0157178
0.0157246
0.0157314
0.0157383
0.0157452
0.0157522
0.0157592
0.0157662
0.0157732
0.0157803
0.0157875
0.0157946
0.0158018
0.015809
0.0158163
0.0158236
0.0158309
0.0155219
0.0155287
0.0155354
0.0155423
0.0155492
0.0155562
0.0155632
0.0155703
0.0155775
0.0155847
0.015592
0.0155994
0.0156069
0.0156144
0.015622
0.0156297
0.0156375
0.0156452
0.0156531
0.015661
0.015669
0.015677
0.015685
0.0156931
0.0157013
0.0157095
0.0157178
0.0157261
0.0157344
0.0157428
0.0157512
0.0157596
0.0157681
0.0157766
0.0157851
0.0154293
0.0154371
0.0154449
0.0154528
0.0154608
0.0154689
0.015477
0.0154853
0.0154936
0.015502
0.0155105
0.0155191
0.0155278
0.0155366
0.0155455
0.0155544
0.0155634
0.0155725
0.0155816
0.0155908
0.0156001
0.0156094
0.0156188
0.0156283
0.0156378
0.0156474
0.015657
0.0156667
0.0156764
0.0156862
0.015696
0.0157059
0.0157158
0.0157257
0.0157357
0.0153257
0.0153346
0.0153436
0.0153528
0.015362
0.0153713
0.0153808
0.0153903
0.0153999
0.0154097
0.0154197
0.0154297
0.0154398
0.01545
0.0154602
0.0154706
0.0154811
0.0154917
0.0155023
0.015513
0.0155238
0.0155347
0.0155457
0.0155567
0.0155678
0.015579
0.0155903
0.0156016
0.0156129
0.0156244
0.0156358
0.0156474
0.0156589
0.0156705
0.0156822
0.0152095
0.0152198
0.0152302
0.0152407
0.0152514
0.0152622
0.0152731
0.0152841
0.0152954
0.0153067
0.0153182
0.0153298
0.0153415
0.0153533
0.0153653
0.0153773
0.0153895
0.0154018
0.0154142
0.0154267
0.0154393
0.015452
0.0154647
0.0154776
0.0154906
0.0155036
0.0155168
0.01553
0.0155432
0.0155566
0.01557
0.0155835
0.015597
0.0156106
0.0156242
0.0150793
0.0150911
0.0151031
0.0151153
0.0151276
0.01514
0.0151527
0.0151655
0.0151785
0.0151916
0.0152049
0.0152183
0.0152319
0.0152456
0.0152595
0.0152735
0.0152876
0.0153019
0.0153163
0.0153308
0.0153455
0.0153603
0.0153751
0.0153901
0.0154053
0.0154205
0.0154358
0.0154512
0.0154667
0.0154823
0.015498
0.0155137
0.0155296
0.0155454
0.0155613
0.0149333
0.014947
0.0149608
0.0149748
0.014989
0.0150033
0.0150179
0.0150328
0.0150478
0.0150629
0.0150783
0.0150939
0.0151096
0.0151255
0.0151415
0.0151578
0.0151742
0.0151907
0.0152075
0.0152244
0.0152414
0.0152586
0.0152759
0.0152934
0.015311
0.0153288
0.0153466
0.0153646
0.0153827
0.0154009
0.0154192
0.0154376
0.0154561
0.0154746
0.0154932
0.0147697
0.0147853
0.0148012
0.0148173
0.0148336
0.0148502
0.0148671
0.0148842
0.0149015
0.014919
0.0149367
0.0149547
0.0149729
0.0149913
0.0150099
0.0150287
0.0150477
0.0150669
0.0150863
0.0151059
0.0151257
0.0151457
0.0151659
0.0151863
0.0152068
0.0152275
0.0152483
0.0152693
0.0152904
0.0153117
0.015333
0.0153545
0.0153761
0.0153978
0.0154195
0.0145862
0.0146042
0.0146224
0.0146408
0.0146596
0.0146787
0.0146981
0.0147178
0.0147377
0.0147579
0.0147784
0.0147991
0.0148201
0.0148413
0.0148628
0.0148846
0.0149066
0.0149289
0.0149514
0.0149741
0.0149971
0.0150203
0.0150437
0.0150674
0.0150913
0.0151154
0.0151397
0.0151641
0.0151888
0.0152136
0.0152386
0.0152636
0.0152889
0.0153142
0.0153396
0.0143808
0.0144013
0.0144222
0.0144433
0.0144649
0.0144868
0.014509
0.0145316
0.0145545
0.0145777
0.0146012
0.0146251
0.0146493
0.0146737
0.0146986
0.0147237
0.0147491
0.0147748
0.0148009
0.0148272
0.0148538
0.0148808
0.014908
0.0149355
0.0149632
0.0149912
0.0150195
0.015048
0.0150768
0.0151057
0.0151348
0.0151641
0.0151936
0.0152232
0.0152528
0.0141513
0.0141747
0.0141984
0.0142225
0.0142472
0.0142722
0.0142976
0.0143234
0.0143497
0.0143763
0.0144033
0.0144306
0.0144584
0.0144866
0.0145151
0.014544
0.0145733
0.014603
0.0146331
0.0146635
0.0146943
0.0147255
0.014757
0.0147889
0.0148211
0.0148537
0.0148866
0.0149198
0.0149532
0.014987
0.015021
0.0150552
0.0150895
0.0151241
0.0151587
0.0138955
0.013922
0.0139489
0.0139764
0.0140044
0.0140329
0.0140619
0.0140913
0.0141212
0.0141516
0.0141824
0.0142137
0.0142455
0.0142778
0.0143105
0.0143437
0.0143774
0.0144115
0.0144461
0.0144812
0.0145167
0.0145527
0.0145892
0.0146261
0.0146634
0.0147012
0.0147393
0.0147779
0.0148169
0.0148562
0.0148958
0.0149356
0.0149758
0.0150161
0.0150566
0.0136117
0.0136416
0.013672
0.0137031
0.0137347
0.013767
0.0137998
0.0138331
0.0138671
0.0139016
0.0139367
0.0139723
0.0140085
0.0140453
0.0140827
0.0141207
0.0141592
0.0141983
0.014238
0.0142783
0.0143192
0.0143606
0.0144026
0.0144452
0.0144884
0.0145321
0.0145763
0.0146211
0.0146663
0.014712
0.0147581
0.0148046
0.0148514
0.0148984
0.0149457
0.0132984
0.0133318
0.0133659
0.0134008
0.0134364
0.0134726
0.0135096
0.0135472
0.0135855
0.0136245
0.0136641
0.0137045
0.0137456
0.0137873
0.0138298
0.013873
0.0139169
0.0139615
0.0140069
0.0140529
0.0140997
0.0141473
0.0141956
0.0142446
0.0142943
0.0143447
0.0143959
0.0144477
0.0145001
0.0145532
0.0146068
0.0146608
0.0147154
0.0147702
0.0148253
0.0129546
0.0129917
0.0130297
0.0130685
0.0131082
0.0131486
0.0131899
0.013232
0.0132749
0.0133186
0.0133632
0.0134086
0.0134549
0.013502
0.01355
0.0135988
0.0136486
0.0136992
0.0137507
0.0138032
0.0138565
0.0139108
0.0139661
0.0140222
0.0140793
0.0141373
0.0141962
0.014256
0.0143167
0.0143781
0.0144403
0.0145032
0.0145666
0.0146305
0.0146947
0.01258
0.0126209
0.0126628
0.0127057
0.0127495
0.0127943
0.01284
0.0128867
0.0129344
0.0129831
0.0130328
0.0130835
0.0131352
0.013188
0.0132418
0.0132967
0.0133526
0.0134097
0.0134679
0.0135273
0.0135878
0.0136495
0.0137123
0.0137764
0.0138416
0.013908
0.0139757
0.0140444
0.0141144
0.0141853
0.0142573
0.0143302
0.0144039
0.0144782
0.0145531
0.0121755
0.0122201
0.0122658
0.0123127
0.0123606
0.0124097
0.0124599
0.0125113
0.0125638
0.0126175
0.0126723
0.0127284
0.0127858
0.0128444
0.0129042
0.0129654
0.013028
0.0130918
0.0131571
0.0132238
0.0132919
0.0133616
0.0134327
0.0135053
0.0135795
0.0136552
0.0137324
0.0138112
0.0138915
0.0139732
0.0140563
0.0141406
0.014226
0.0143124
0.0143994
0.0117427
0.0117907
0.01184
0.0118907
0.0119426
0.0119958
0.0120503
0.0121062
0.0121634
0.0122221
0.0122821
0.0123436
0.0124065
0.012471
0.012537
0.0126046
0.0126738
0.0127447
0.0128173
0.0128917
0.0129679
0.0130459
0.0131257
0.0132076
0.0132913
0.0133771
0.0134649
0.0135546
0.0136464
0.0137401
0.0138357
0.0139329
0.0140317
0.0141318
0.0142328
0.011284
0.0113351
0.0113878
0.0114419
0.0114974
0.0115545
0.011613
0.0116731
0.0117348
0.0117982
0.0118631
0.0119298
0.0119982
0.0120684
0.0121405
0.0122145
0.0122904
0.0123683
0.0124483
0.0125305
0.0126149
0.0127016
0.0127906
0.012882
0.012976
0.0130725
0.0131716
0.0132732
0.0133776
0.0134845
0.0135939
0.0137056
0.0138195
0.0139352
0.0140524
0.0108029
0.0108567
0.0109122
0.0109693
0.011028
0.0110885
0.0111506
0.0112146
0.0112803
0.0113479
0.0114174
0.0114889
0.0115625
0.0116381
0.0117159
0.011796
0.0118784
0.0119632
0.0120505
0.0121404
0.012233
0.0123285
0.0124268
0.0125282
0.0126326
0.0127403
0.0128514
0.0129658
0.0130836
0.0132049
0.0133295
0.0134573
0.0135881
0.0137216
0.0138571
0.0103037
0.0103596
0.0104174
0.0104768
0.0105382
0.0106014
0.0106666
0.0107338
0.010803
0.0108743
0.0109478
0.0110236
0.0111017
0.0111823
0.0112654
0.0113511
0.0114395
0.0115308
0.0116251
0.0117225
0.0118231
0.0119271
0.0120346
0.0121459
0.012261
0.0123802
0.0125036
0.0126313
0.0127634
0.0129001
0.0130412
0.0131867
0.0133363
0.0134896
0.0136459
0.00979143
0.00984873
0.00990798
0.00996919
0.0100324
0.0100977
0.0101652
0.0102349
0.0103068
0.0103812
0.010458
0.0105373
0.0106193
0.0107041
0.0107918
0.0108825
0.0109763
0.0110735
0.0111741
0.0112784
0.0113865
0.0114987
0.0116151
0.011736
0.0118617
0.0119923
0.0121281
0.0122694
0.0124164
0.0125692
0.0127279
0.0128925
0.0130627
0.013238
0.0134178
0.00927213
0.0093299
0.00938977
0.00945178
0.00951601
0.00958251
0.00965137
0.00972267
0.0097965
0.00987296
0.00995215
0.0100342
0.0101192
0.0102073
0.0102987
0.0103936
0.010492
0.0105942
0.0107004
0.0108108
0.0109257
0.0110454
0.01117
0.0113
0.0114357
0.0115774
0.0117255
0.0118804
0.0120424
0.0122118
0.0123889
0.0125738
0.0127662
0.0129659
0.0131718
0.0087531
0.00881014
0.00886946
0.00893111
0.00899518
0.00906174
0.00913089
0.00920272
0.00927733
0.00935484
0.00943537
0.00951906
0.00960604
0.00969649
0.00979058
0.00988849
0.00999045
0.0100967
0.0102074
0.010323
0.0104437
0.0105699
0.0107018
0.0108401
0.010985
0.0111371
0.0112969
0.011465
0.0116418
0.011828
0.0120239
0.01223
0.0124462
0.0126722
0.012907
0.00824395
0.00829857
0.00835568
0.00841537
0.00847772
0.00854282
0.00861078
0.00868169
0.00875568
0.00883288
0.00891341
0.00899743
0.0090851
0.0091766
0.00927213
0.00937192
0.00947619
0.00958524
0.00969935
0.00981886
0.00994416
0.0100756
0.0102138
0.0103591
0.0105122
0.0106737
0.0108443
0.0110247
0.0112158
0.0114184
0.0116332
0.0118609
0.012102
0.0123562
0.0126227
0.00775853
0.00780817
0.0078606
0.00791592
0.00797422
0.00803563
0.00810025
0.00816819
0.00823959
0.00831458
0.0083933
0.00847592
0.00856261
0.00865356
0.00874898
0.00884913
0.00895425
0.00906467
0.00918071
0.00930276
0.00943126
0.00956669
0.00970961
0.00986066
0.0100206
0.0101901
0.0103702
0.0105618
0.0107661
0.0109843
0.0112175
0.011467
0.0117334
0.0120173
0.0123181
0.0073181
0.00735882
0.00740271
0.00744988
0.0075005
0.00755472
0.00761266
0.00767447
0.00774027
0.0078102
0.00788443
0.00796312
0.00804645
0.00813461
0.00822783
0.00832634
0.00843044
0.00854043
0.00865667
0.00877958
0.00890964
0.00904739
0.00919348
0.00934864
0.00951373
0.00968971
0.00987772
0.0100791
0.0102952
0.0105276
0.0107783
0.0110489
0.0113409
0.0116555
0.0119927
0.00694968
0.00697794
0.00700893
0.00704307
0.00708082
0.00712258
0.0071687
0.00721938
0.00727481
0.00733516
0.00740063
0.00747141
0.00754769
0.00762965
0.00771752
0.00781151
0.00791191
0.00801902
0.00813318
0.00825483
0.00838444
0.00852259
0.00866998
0.00882742
0.00899587
0.00917647
0.00937056
0.00957974
0.00980583
0.010051
0.0103175
0.0106081
0.0109252
0.0112709
0.0116464
0.00663772
0.00665757
0.00667938
0.00670341
0.00672993
0.00675925
0.00679171
0.00682773
0.00686787
0.00691281
0.00696331
0.00702003
0.00708339
0.00715368
0.00723113
0.007316
0.00740856
0.00750905
0.00761781
0.00773519
0.00786165
0.00799774
0.00814414
0.00830169
0.00847141
0.00865456
0.00885267
0.00906759
0.00930155
0.00955723
0.00983772
0.0101466
0.0104875
0.0108642
0.0112791
0.00635632
0.00637009
0.00638529
0.00640214
0.00642086
0.00644166
0.00646482
0.00649064
0.00651952
0.00655192
0.00658835
0.00662941
0.00667583
0.00672854
0.00678869
0.0068574
0.00693547
0.00702332
0.00712129
0.00722972
0.00734895
0.00747944
0.00762177
0.00777667
0.00794515
0.00812846
0.00832826
0.0085466
0.00878607
0.00904987
0.0093419
0.00966679
0.0100298
0.0104363
0.0108912
0.00609443
0.0061033
0.0061132
0.00612436
0.00613694
0.00615114
0.00616718
0.00618531
0.00620583
0.00622906
0.00625541
0.00628531
0.00631933
0.00635814
0.00640257
0.00645362
0.00651249
0.00658073
0.00666013
0.00675213
0.00685752
0.00697675
0.00711025
0.00725855
0.00742243
0.00760299
0.0078018
0.00802097
0.00826335
0.00853261
0.00883342
0.0091716
0.00955412
0.00998875
0.0104834
0.00584677
0.00585163
0.00585716
0.00586358
0.00587104
0.00587972
0.0058898
0.00590152
0.00591512
0.00593087
0.0059491
0.00597019
0.00599459
0.00602281
0.0060555
0.00609339
0.00613743
0.0061888
0.00624898
0.00631983
0.00640374
0.00650328
0.00662033
0.00675569
0.00690988
0.0070836
0.00727804
0.00749507
0.00773752
0.00800935
0.00831593
0.00866427
0.00906328
0.00952351
0.0100566
0.00560979
0.00561152
0.00561361
0.00561619
0.00561943
0.00562348
0.00562852
0.00563474
0.00564237
0.00565165
0.00566287
0.00567638
0.00569255
0.00571184
0.00573478
0.00576199
0.00579424
0.00583245
0.00587778
0.00593167
0.00599604
0.00607337
0.00616688
0.00628036
0.00641676
0.00657724
0.00676244
0.00697352
0.00721278
0.0074841
0.00779325
0.00814833
0.00856027
0.00904284
0.00961223
0.00538025
0.00537978
0.00537946
0.0053792
0.0053792
0.0053796
0.00538056
0.00538224
0.00538483
0.00538856
0.00539368
0.00540051
0.0054094
0.00542075
0.00543506
0.00545287
0.00547485
0.00550181
0.00553471
0.00557475
0.00562344
0.00568277
0.00575535
0.00584476
0.00595576
0.00609373
0.00626201
0.00646156
0.00669352
0.00696086
0.00726922
0.00762742
0.00804839
0.00854941
0.00915199
0.00515497
0.00515331
0.00515155
0.00514955
0.00514739
0.00514524
0.0051432
0.00514143
0.00514006
0.0051393
0.00513938
0.00514054
0.0051431
0.00514743
0.00515402
0.00516334
0.00517603
0.00519281
0.00521455
0.00524232
0.00527741
0.00532148
0.00537669
0.00544593
0.00553323
0.00564426
0.0057864
0.00596589
0.00618457
0.00644372
0.00674767
0.00710527
0.00753108
0.00804614
0.00867793
0.00493068
0.00492879
0.00492654
0.00492393
0.00492079
0.00491726
0.00491345
0.00490944
0.00490537
0.00490136
0.0048976
0.00489429
0.0048917
0.00489017
0.00489012
0.00489195
0.00489627
0.00490379
0.00491529
0.00493177
0.00495442
0.0049847
0.0050245
0.00507626
0.00514332
0.00523042
0.0053445
0.00549529
0.00569188
0.00593697
0.00623237
0.00658551
0.00701188
0.00753618
0.00819236
0.00470446
0.00470318
0.00470137
0.00469904
0.00469605
0.00469232
0.00468795
0.004683
0.00467754
0.00467167
0.00466549
0.00465915
0.00465285
0.00464684
0.00464147
0.0046371
0.00463429
0.00463368
0.00463596
0.00464208
0.00465321
0.00467068
0.00469623
0.00473202
0.00478096
0.00484703
0.00493608
0.00505705
0.00522297
0.00544554
0.00572711
0.0060717
0.00649428
0.0070228
0.00769788
0.00447388
0.00447389
0.00447328
0.00447201
0.00447004
0.00446718
0.00446339
0.00445871
0.00445317
0.00444681
0.00443968
0.00443184
0.00442341
0.00441457
0.00440553
0.00439661
0.00438824
0.00438094
0.00437536
0.0043724
0.00437313
0.00437877
0.00439105
0.00441193
0.00444407
0.00449094
0.00455754
0.00465141
0.00478474
0.00497551
0.0052359
0.0055673
0.00598167
0.00650926
0.00719728
0.00423724
0.00423901
0.00424012
0.00424054
0.00424019
0.00423901
0.00423675
0.00423339
0.00422892
0.00422334
0.00421663
0.00420879
0.00419985
0.00418988
0.00417899
0.00416737
0.00415532
0.00414322
0.00413162
0.00412126
0.00411309
0.00410829
0.0041085
0.00411554
0.00413197
0.00416096
0.0042069
0.00427621
0.00437924
0.00453367
0.00476333
0.00507571
0.0054773
0.00599881
0.0066935
0.00399358
0.00399735
0.00400051
0.004003
0.00400473
0.00400562
0.00400561
0.00400437
0.0040019
0.00399814
0.00399303
0.0039865
0.00397851
0.00396904
0.00395807
0.00394568
0.003932
0.00391725
0.00390179
0.00388619
0.00387119
0.00385786
0.00384762
0.00384228
0.00384427
0.00385659
0.0038833
0.00393007
0.00400557
0.00412487
0.00431512
0.00460053
0.0049843
0.00549453
0.00618955
0.00374261
0.00374846
0.00375379
0.00375852
0.00376257
0.00376585
0.00376826
0.0037697
0.00376987
0.00376868
0.00376605
0.00376188
0.00375605
0.00374846
0.003739
0.00372762
0.00371429
0.00369907
0.0036821
0.00366371
0.0036444
0.00362497
0.0036066
0.00359092
0.00358017
0.00357729
0.00358616
0.00361203
0.00366244
0.00374986
0.00389801
0.00414583
0.00450579
0.00499936
0.00568843
0.00348467
0.00349252
0.00349996
0.00350692
0.00351332
0.00351907
0.00352407
0.0035282
0.00353135
0.00353318
0.00353362
0.00353251
0.00352971
0.00352505
0.00351835
0.00350946
0.00349821
0.00348451
0.00346829
0.00344961
0.00342871
0.00340603
0.00338239
0.00335908
0.00333803
0.00332198
0.00331468
0.00332118
0.00334846
0.00340716
0.00351659
0.00371669
0.0040449
0.00451619
0.00519285
0.00322063
0.00323025
0.0032396
0.00324862
0.00325722
0.00326533
0.00327285
0.00327967
0.00328566
0.0032907
0.00329445
0.00329677
0.0032975
0.00329644
0.00329337
0.00328804
0.00328021
0.00326964
0.00325611
0.00323944
0.00321956
0.00319657
0.00317085
0.0031432
0.00311504
0.00308866
0.00306751
0.00305647
0.00306228
0.00309461
0.00316948
0.00331959
0.00360468
0.00404771
0.00470397
0.0029518
0.00296285
0.00297379
0.00298455
0.00299507
0.00300527
0.00301507
0.00302437
0.00303305
0.00304098
0.00304802
0.00305385
0.00305827
0.0030611
0.0030621
0.00306099
0.00305745
0.00305116
0.00304178
0.00302895
0.00301236
0.00299177
0.00296711
0.00293863
0.0029071
0.00287408
0.00284237
0.00281639
0.00280264
0.00281041
0.00285377
0.00295884
0.00318824
0.00359634
0.00422377
0.00267986
0.00269193
0.00270403
0.00271611
0.00272813
0.00274001
0.0027517
0.00276311
0.00277413
0.00278466
0.00279455
0.00280365
0.00281166
0.00281834
0.00282348
0.00282679
0.00282795
0.00282659
0.00282228
0.00281456
0.00280295
0.00278694
0.0027661
0.00274014
0.00270911
0.00267369
0.00263567
0.00259851
0.00256807
0.00255329
0.00256737
0.00263198
0.00279988
0.00316475
0.00375695
0.00240692
0.00241949
0.00243224
0.00244512
0.00245812
0.00247118
0.00248424
0.00249724
0.0025101
0.00252273
0.00253501
0.00254681
0.00255796
0.0025682
0.00257723
0.00258482
0.00259065
0.00259437
0.00259552
0.00259359
0.00258799
0.00257807
0.00256313
0.00254246
0.00251548
0.00248197
0.00244249
0.00239908
0.00235624
0.00232206
0.00230924
0.00233705
0.00244572
0.00275559
0.0033059
0.00213544
0.00214795
0.00216077
0.00217387
0.00218724
0.00220084
0.00221465
0.00222861
0.00224267
0.00225676
0.00227079
0.00228466
0.00229824
0.00231136
0.00232378
0.00233519
0.00234533
0.00235384
0.00236034
0.0023643
0.00236511
0.00236206
0.00235431
0.00234087
0.00232075
0.00229294
0.00225684
0.00221281
0.00216335
0.00211471
0.00207865
0.00207375
0.00213266
0.00237182
0.00287345
0.00186823
0.00188011
0.0018924
0.00190509
0.00191817
0.00193163
0.00194547
0.00195965
0.00197415
0.00198892
0.00200392
0.00201905
0.00203425
0.00204937
0.00206428
0.00207878
0.0020925
0.00210519
0.00211649
0.00212594
0.00213296
0.00213687
0.00213679
0.00213163
0.00212015
0.00210088
0.00207229
0.00203322
0.00198382
0.00192752
0.0018738
0.00184066
0.00185907
0.00201716
0.00246189
0.00160836
0.00161908
0.00163026
0.00164192
0.00165406
0.00166668
0.0016798
0.00169342
0.00170752
0.0017221
0.00173714
0.00175259
0.00176841
0.00178454
0.00180086
0.00181725
0.00183356
0.00184944
0.0018646
0.00187869
0.0018912
0.00190151
0.00190882
0.00191208
0.00191
0.00190089
0.00188274
0.00185327
0.00181052
0.00175459
0.00169097
0.00163495
0.00161612
0.00169718
0.00207393
0.0013589
0.00136804
0.00137765
0.00138776
0.00139838
0.00140953
0.00142124
0.00143353
0.00144641
0.00145991
0.00147402
0.00148876
0.00150411
0.00152006
0.00153656
0.00155356
0.00157097
0.00158865
0.00160635
0.00162374
0.00164048
0.00165606
0.00166981
0.0016808
0.00168784
0.0016893
0.00168302
0.00166623
0.00163555
0.00158805
0.00152418
0.0014536
0.00140257
0.00142183
0.00171357
0.00112267
0.00112996
0.0011377
0.00114589
0.00115458
0.00116379
0.00117355
0.00118389
0.00119486
0.00120649
0.0012188
0.00123184
0.00124563
0.0012602
0.00127557
0.00129174
0.00130871
0.00132643
0.00134483
0.00136375
0.00138288
0.00140194
0.00142041
0.0014376
0.00145251
0.00146374
0.00146929
0.00146642
0.00145121
0.0014188
0.00136492
0.00129153
0.00121901
0.00120152
0.0013834
0.000901836
0.000907215
0.000912963
0.000919105
0.00092567
0.00093269
0.0009402
0.000948239
0.000956845
0.000966062
0.000975938
0.000986525
0.000997876
0.00101005
0.0010231
0.00103708
0.00105206
0.00106808
0.00108517
0.00110333
0.00112253
0.00114257
0.00116323
0.00118409
0.0012045
0.00122341
0.00123924
0.00124961
0.00125087
0.00123759
0.00120246
0.00113941
0.00105735
0.00100394
0.00108412
0.000697675
0.00070125
0.000705107
0.000709266
0.000713751
0.000718591
0.000723819
0.000729479
0.000735594
0.000742209
0.000749371
0.000757134
0.000765557
0.000774706
0.000784652
0.000795479
0.000807276
0.000820138
0.000834171
0.000849476
0.000866163
0.000884317
0.000903947
0.000924949
0.000947134
0.000970014
0.000992661
0.00101343
0.0010295
0.0010361
0.00102512
0.000984732
0.000909186
0.000827165
0.00082023
0.000510195
0.00051223
0.000514458
0.000516888
0.000519529
0.000522414
0.00052557
0.000529069
0.000532876
0.000537041
0.000541599
0.000546594
0.000552075
0.000558099
0.00056473
0.000572046
0.000580133
0.000589092
0.000599043
0.000610119
0.000622484
0.000636315
0.000651813
0.000669197
0.000688605
0.000710157
0.000733796
0.000759062
0.000784667
0.000807731
0.000821556
0.000812397
0.000762899
0.000675549
0.000607673
0.000337076
0.000337934
0.000338904
0.000339985
0.000341155
0.000342461
0.000343922
0.000345702
0.000347635
0.000349784
0.000352172
0.000354827
0.000357781
0.000361071
0.000364742
0.000368846
0.000373446
0.000378616
0.000384445
0.000391042
0.000398541
0.000407105
0.000416935
0.000428284
0.000441469
0.000456868
0.000474913
0.000496119
0.000521007
0.000550103
0.000581749
0.000605324
0.000599203
0.000542306
0.000460311
0.000175922
0.000175981
0.000176099
0.000176274
0.000176477
0.000176735
0.00017703
0.000177599
0.000178208
0.000178926
0.000179762
0.000180732
0.000181851
0.000183139
0.00018462
0.000186321
0.000188275
0.000190525
0.00019312
0.000196121
0.000199605
0.000203668
0.00020844
0.000214084
0.000220815
0.000228919
0.000238821
0.000251042
0.000266309
0.000286186
0.000313586
0.000350538
0.000391078
0.000392386
0.000320155
1.39189e-06
1.38083e-06
1.36988e-06
1.35802e-06
1.34073e-06
1.32954e-06
1.37304e-06
1.34216e-06
1.34319e-06
1.34615e-06
1.35146e-06
1.35965e-06
1.37122e-06
1.38661e-06
1.40616e-06
1.43021e-06
1.4592e-06
1.49385e-06
1.53522e-06
1.58509e-06
1.65316e-06
1.74047e-06
1.84803e-06
1.98251e-06
2.1536e-06
2.37567e-06
2.67249e-06
3.08048e-06
3.66035e-06
4.5475e-06
6.05398e-06
8.65901e-06
1.21223e-05
1.51279e-05
0.000106583
0.016362
0.016358
0.0163533
0.0163513
0.0163503
0.0163477
0.0163435
0.0163389
0.0163355
0.0163332
0.0163318
0.016331
0.016331
0.0163326
0.0163333
0.0163335
0.0163336
0.0163335
0.0163331
0.0163326
0.0163321
0.0163316
0.0163312
0.0163309
0.0163306
0.0163304
0.0163302
0.01633
0.0163299
0.0163298
0.0163298
0.0163297
0.0163297
0.0163297
0.0163297
0.0163297
0.0163297
0.0163297
0.0163297
0.0163296