/*--------------------------------*- C++ -*----------------------------------*\
  =========                 |
  \\      /  F ield         | OpenFOAM: The Open Source CFD Toolbox
   \\    /   O peration     | Website:  https://openfoam.org
    \\  /    A nd           | Version:  8
     \\/     M anipulation  |
\*---------------------------------------------------------------------------*/
FoamFile
{
    version     2.0;
    format      ascii;
    class       volScalarField;
    location    "1.3";
    object      nut;
}
// * * * * * * * * * * * * * * * * * * * * * * * * * * * * * * * * * * * * * //

dimensions      [0 2 -1 0 0 0 0];

internalField   nonuniform List<scalar> 
277560
(
0.0104637
0.0104582
0.0104523
0.0104464
0.0104407
0.0104352
0.0104299
0.0104249
0.01042
0.0104153
0.0104107
0.0104062
0.0104018
0.0103975
0.0103933
0.0103892
0.010385
0.0103809
0.0103769
0.0103728
0.0103687
0.0103647
0.0103606
0.0103565
0.0103524
0.0103483
0.0103441
0.01034
0.0103358
0.0103315
0.0103273
0.010323
0.0103187
0.0103143
0.01031
0.0103056
0.0103012
0.0102968
0.0102924
0.010288
0.0102836
0.0102792
0.0102748
0.0102703
0.0102659
0.0102616
0.0102572
0.0102528
0.0102485
0.0102442
0.0102399
0.0102357
0.0102314
0.0102273
0.0102231
0.010219
0.0102149
0.0102109
0.0102069
0.010203
0.0101991
0.0101952
0.0101914
0.0101877
0.010184
0.0101804
0.0101768
0.0101733
0.0101699
0.0101665
0.0101632
0.01016
0.0101568
0.0101537
0.0101506
0.0101477
0.0101448
0.010142
0.0101392
0.0101365
0.010134
0.0101314
0.010129
0.0101267
0.0101244
0.0101222
0.0101201
0.0101181
0.0101161
0.0101143
0.0101125
0.0101108
0.0101092
0.0101076
0.0101062
0.0101048
0.0101035
0.0101022
0.0101011
0.0101
0.010099
0.010098
0.0100971
0.0100963
0.0100955
0.0100948
0.0100942
0.0100935
0.010093
0.0100924
0.010092
0.0100915
0.0100911
0.0100906
0.0100903
0.0100899
0.0100895
0.0100891
0.0100887
0.0100883
0.010464
0.0104584
0.0104523
0.0104464
0.0104406
0.0104351
0.0104298
0.0104247
0.0104197
0.010415
0.0104104
0.0104059
0.0104016
0.0103973
0.0103931
0.010389
0.0103849
0.0103809
0.0103769
0.0103729
0.010369
0.010365
0.010361
0.010357
0.010353
0.010349
0.0103449
0.0103409
0.0103368
0.0103326
0.0103285
0.0103243
0.0103201
0.0103159
0.0103116
0.0103073
0.010303
0.0102987
0.0102944
0.01029
0.0102857
0.0102813
0.010277
0.0102726
0.0102683
0.010264
0.0102597
0.0102554
0.0102511
0.0102468
0.0102426
0.0102384
0.0102342
0.01023
0.0102259
0.0102218
0.0102177
0.0102137
0.0102098
0.0102058
0.0102019
0.0101981
0.0101943
0.0101906
0.0101869
0.0101833
0.0101797
0.0101762
0.0101727
0.0101693
0.010166
0.0101627
0.0101595
0.0101564
0.0101533
0.0101503
0.0101474
0.0101445
0.0101417
0.010139
0.0101364
0.0101338
0.0101314
0.010129
0.0101267
0.0101244
0.0101223
0.0101202
0.0101182
0.0101163
0.0101144
0.0101127
0.010111
0.0101094
0.0101079
0.0101065
0.0101051
0.0101038
0.0101026
0.0101015
0.0101004
0.0100994
0.0100985
0.0100976
0.0100968
0.0100961
0.0100954
0.0100947
0.0100942
0.0100936
0.0100931
0.0100926
0.0100922
0.0100918
0.0100914
0.010091
0.0100906
0.0100902
0.0100898
0.0100895
0.0104566
0.0104507
0.0104445
0.0104383
0.0104323
0.0104266
0.0104212
0.010416
0.010411
0.0104062
0.0104015
0.010397
0.0103926
0.0103884
0.0103842
0.0103801
0.0103761
0.0103722
0.0103682
0.0103644
0.0103605
0.0103566
0.0103528
0.0103489
0.0103451
0.0103412
0.0103373
0.0103334
0.0103295
0.0103255
0.0103215
0.0103175
0.0103134
0.0103093
0.0103052
0.0103011
0.0102969
0.0102928
0.0102886
0.0102844
0.0102802
0.0102759
0.0102717
0.0102675
0.0102632
0.010259
0.0102548
0.0102506
0.0102464
0.0102422
0.010238
0.0102339
0.0102298
0.0102257
0.0102216
0.0102176
0.0102136
0.0102096
0.0102057
0.0102018
0.0101979
0.0101941
0.0101904
0.0101866
0.010183
0.0101793
0.0101758
0.0101722
0.0101688
0.0101653
0.010162
0.0101587
0.0101555
0.0101523
0.0101492
0.0101462
0.0101432
0.0101403
0.0101374
0.0101347
0.010132
0.0101294
0.0101268
0.0101244
0.010122
0.0101197
0.0101174
0.0101153
0.0101132
0.0101112
0.0101093
0.0101075
0.0101057
0.010104
0.0101024
0.0101009
0.0100995
0.0100981
0.0100968
0.0100956
0.0100944
0.0100933
0.0100923
0.0100914
0.0100905
0.0100897
0.0100889
0.0100882
0.0100875
0.0100869
0.0100863
0.0100858
0.0100853
0.0100848
0.0100843
0.0100839
0.0100834
0.010083
0.0100826
0.0100821
0.0104443
0.0104381
0.0104315
0.010425
0.0104188
0.0104128
0.0104071
0.0104017
0.0103965
0.0103915
0.0103868
0.0103822
0.0103777
0.0103735
0.0103693
0.0103652
0.0103613
0.0103574
0.0103536
0.0103498
0.0103461
0.0103424
0.0103387
0.010335
0.0103313
0.0103277
0.010324
0.0103203
0.0103166
0.0103128
0.0103091
0.0103053
0.0103015
0.0102976
0.0102937
0.0102898
0.0102859
0.0102819
0.0102779
0.0102739
0.0102699
0.0102659
0.0102618
0.0102578
0.0102537
0.0102496
0.0102456
0.0102415
0.0102374
0.0102334
0.0102294
0.0102253
0.0102213
0.0102174
0.0102134
0.0102095
0.0102055
0.0102017
0.0101978
0.010194
0.0101902
0.0101864
0.0101827
0.010179
0.0101754
0.0101718
0.0101682
0.0101647
0.0101612
0.0101578
0.0101545
0.0101512
0.0101479
0.0101447
0.0101416
0.0101385
0.0101355
0.0101326
0.0101297
0.0101269
0.0101241
0.0101214
0.0101188
0.0101163
0.0101138
0.0101114
0.0101091
0.0101068
0.0101047
0.0101026
0.0101005
0.0100986
0.0100967
0.0100949
0.0100932
0.0100916
0.01009
0.0100885
0.0100871
0.0100858
0.0100845
0.0100833
0.0100821
0.010081
0.01008
0.0100791
0.0100782
0.0100773
0.0100765
0.0100758
0.010075
0.0100744
0.0100737
0.0100731
0.0100725
0.0100719
0.0100714
0.0100708
0.0100703
0.0100697
0.0104298
0.010423
0.0104159
0.010409
0.0104023
0.0103959
0.0103899
0.0103841
0.0103787
0.0103735
0.0103685
0.0103637
0.0103592
0.0103548
0.0103506
0.0103466
0.0103426
0.0103388
0.0103351
0.0103314
0.0103278
0.0103243
0.0103208
0.0103174
0.0103139
0.0103105
0.0103071
0.0103037
0.0103002
0.0102968
0.0102933
0.0102898
0.0102863
0.0102827
0.0102792
0.0102755
0.0102719
0.0102682
0.0102645
0.0102608
0.010257
0.0102533
0.0102495
0.0102456
0.0102418
0.010238
0.0102341
0.0102303
0.0102264
0.0102226
0.0102187
0.0102149
0.010211
0.0102072
0.0102034
0.0101996
0.0101958
0.0101921
0.0101883
0.0101846
0.0101809
0.0101772
0.0101736
0.01017
0.0101664
0.0101628
0.0101593
0.0101558
0.0101524
0.010149
0.0101457
0.0101424
0.0101391
0.0101359
0.0101328
0.0101297
0.0101266
0.0101236
0.0101207
0.0101178
0.010115
0.0101123
0.0101096
0.010107
0.0101044
0.010102
0.0100996
0.0100972
0.0100949
0.0100927
0.0100906
0.0100886
0.0100866
0.0100846
0.0100828
0.010081
0.0100793
0.0100776
0.0100761
0.0100746
0.0100731
0.0100717
0.0100704
0.0100692
0.010068
0.0100668
0.0100657
0.0100647
0.0100637
0.0100627
0.0100618
0.0100609
0.0100601
0.0100593
0.0100585
0.0100577
0.0100569
0.0100562
0.0100554
0.0100547
0.0104151
0.0104077
0.0103999
0.0103923
0.0103851
0.0103782
0.0103717
0.0103654
0.0103596
0.010354
0.0103487
0.0103437
0.010339
0.0103345
0.0103302
0.010326
0.0103221
0.0103183
0.0103146
0.010311
0.0103076
0.0103042
0.0103009
0.0102977
0.0102945
0.0102914
0.0102883
0.0102852
0.0102821
0.0102789
0.0102758
0.0102727
0.0102695
0.0102664
0.0102631
0.0102599
0.0102566
0.0102533
0.01025
0.0102466
0.0102432
0.0102397
0.0102362
0.0102327
0.0102292
0.0102257
0.0102221
0.0102185
0.0102149
0.0102113
0.0102077
0.0102041
0.0102005
0.0101968
0.0101932
0.0101896
0.010186
0.0101824
0.0101788
0.0101752
0.0101716
0.0101681
0.0101645
0.010161
0.0101575
0.010154
0.0101506
0.0101472
0.0101438
0.0101404
0.0101371
0.0101338
0.0101306
0.0101274
0.0101242
0.0101211
0.0101181
0.0101151
0.0101121
0.0101092
0.0101064
0.0101036
0.0101009
0.0100982
0.0100956
0.010093
0.0100906
0.0100881
0.0100858
0.0100835
0.0100813
0.0100791
0.010077
0.010075
0.010073
0.0100711
0.0100692
0.0100674
0.0100657
0.010064
0.0100624
0.0100608
0.0100592
0.0100578
0.0100563
0.0100549
0.0100536
0.0100523
0.010051
0.0100498
0.0100486
0.0100475
0.0100463
0.0100452
0.0100441
0.0100431
0.010042
0.010041
0.0100399
0.0100389
0.0104023
0.0103941
0.0103855
0.0103771
0.0103691
0.0103616
0.0103543
0.0103475
0.010341
0.010335
0.0103293
0.0103239
0.0103188
0.0103141
0.0103096
0.0103053
0.0103012
0.0102974
0.0102937
0.0102902
0.0102868
0.0102836
0.0102805
0.0102775
0.0102745
0.0102717
0.0102689
0.0102661
0.0102633
0.0102606
0.0102579
0.0102552
0.0102524
0.0102497
0.0102469
0.010244
0.0102412
0.0102383
0.0102354
0.0102324
0.0102294
0.0102264
0.0102233
0.0102201
0.010217
0.0102138
0.0102106
0.0102073
0.010204
0.0102007
0.0101974
0.0101941
0.0101907
0.0101873
0.0101839
0.0101805
0.0101771
0.0101737
0.0101703
0.0101669
0.0101634
0.01016
0.0101566
0.0101532
0.0101498
0.0101464
0.010143
0.0101397
0.0101364
0.010133
0.0101298
0.0101265
0.0101233
0.0101201
0.010117
0.0101139
0.0101108
0.0101078
0.0101049
0.010102
0.0100991
0.0100963
0.0100936
0.0100909
0.0100883
0.0100857
0.0100832
0.0100808
0.0100784
0.0100761
0.0100739
0.0100717
0.0100695
0.0100675
0.0100654
0.0100634
0.0100615
0.0100596
0.0100577
0.0100559
0.0100541
0.0100523
0.0100505
0.0100488
0.0100471
0.0100454
0.0100438
0.0100422
0.0100405
0.010039
0.0100374
0.0100359
0.0100343
0.0100328
0.0100313
0.0100298
0.0100284
0.0100269
0.0100254
0.010024
0.0103935
0.0103841
0.0103744
0.010365
0.0103562
0.0103478
0.0103397
0.010332
0.0103248
0.010318
0.0103117
0.0103058
0.0103003
0.0102951
0.0102903
0.0102858
0.0102815
0.0102775
0.0102737
0.0102701
0.0102668
0.0102636
0.0102606
0.0102578
0.0102551
0.0102525
0.01025
0.0102475
0.0102451
0.0102428
0.0102404
0.0102381
0.0102358
0.0102335
0.0102312
0.0102288
0.0102264
0.010224
0.0102216
0.0102191
0.0102165
0.0102139
0.0102113
0.0102086
0.0102058
0.0102031
0.0102002
0.0101973
0.0101944
0.0101915
0.0101885
0.0101854
0.0101824
0.0101793
0.0101761
0.010173
0.0101698
0.0101666
0.0101634
0.0101601
0.0101569
0.0101536
0.0101503
0.010147
0.0101437
0.0101404
0.0101371
0.0101339
0.0101306
0.0101274
0.0101241
0.0101209
0.0101177
0.0101146
0.0101114
0.0101084
0.0101054
0.0101024
0.0100995
0.0100967
0.0100939
0.0100912
0.0100885
0.0100859
0.0100833
0.0100807
0.0100782
0.0100758
0.0100735
0.0100714
0.0100693
0.0100673
0.0100653
0.0100634
0.0100615
0.0100596
0.0100578
0.010056
0.0100541
0.0100523
0.0100505
0.0100486
0.0100467
0.0100448
0.0100429
0.010041
0.010039
0.010037
0.0100349
0.0100328
0.0100307
0.0100285
0.0100264
0.0100242
0.010022
0.0100199
0.0100177
0.0100156
0.0100135
0.0100114
0.010391
0.0103795
0.0103684
0.0103577
0.0103478
0.0103385
0.0103293
0.0103205
0.0103123
0.0103047
0.0102975
0.0102909
0.0102847
0.010279
0.0102738
0.0102689
0.0102643
0.01026
0.0102559
0.0102521
0.0102486
0.0102454
0.0102424
0.0102396
0.0102371
0.0102347
0.0102324
0.0102302
0.0102282
0.0102262
0.0102242
0.0102223
0.0102204
0.0102185
0.0102167
0.0102148
0.0102129
0.010211
0.010209
0.010207
0.010205
0.0102029
0.0102007
0.0101985
0.0101962
0.0101938
0.0101914
0.010189
0.0101864
0.0101838
0.0101812
0.0101785
0.0101757
0.0101729
0.0101701
0.0101672
0.0101643
0.0101613
0.0101583
0.0101552
0.0101521
0.010149
0.0101458
0.0101426
0.0101394
0.0101362
0.010133
0.0101298
0.0101266
0.0101235
0.0101203
0.0101171
0.010114
0.0101108
0.0101077
0.0101047
0.0101019
0.0100991
0.0100965
0.0100941
0.0100917
0.0100894
0.0100872
0.0100851
0.0100831
0.0100811
0.0100793
0.0100775
0.0100758
0.0100742
0.0100726
0.010071
0.0100694
0.0100677
0.0100659
0.0100642
0.0100624
0.0100605
0.0100586
0.0100567
0.0100547
0.0100527
0.0100505
0.0100484
0.0100461
0.0100438
0.0100413
0.0100388
0.0100363
0.0100336
0.0100309
0.0100281
0.0100252
0.0100222
0.0100192
0.0100161
0.010013
0.0100098
0.0100066
0.0100034
0.010396
0.0103839
0.0103713
0.0103592
0.0103476
0.0103363
0.0103253
0.0103148
0.0103054
0.0102966
0.0102883
0.0102807
0.0102736
0.0102671
0.0102613
0.010256
0.0102509
0.0102461
0.0102416
0.0102374
0.0102335
0.01023
0.0102269
0.010224
0.0102215
0.0102191
0.010217
0.010215
0.0102132
0.0102115
0.0102098
0.0102083
0.0102067
0.0102053
0.0102038
0.0102024
0.010201
0.0101995
0.0101981
0.0101965
0.010195
0.0101934
0.0101917
0.0101899
0.0101881
0.0101862
0.0101842
0.0101822
0.01018
0.0101778
0.0101755
0.0101732
0.0101707
0.0101682
0.0101657
0.0101631
0.0101604
0.0101577
0.0101549
0.010152
0.010149
0.010146
0.0101429
0.0101397
0.0101366
0.0101335
0.0101305
0.0101276
0.0101247
0.0101218
0.0101191
0.0101164
0.0101137
0.0101112
0.0101087
0.0101064
0.0101042
0.010102
0.0101001
0.0100982
0.0100965
0.0100949
0.0100933
0.0100917
0.0100901
0.0100885
0.0100869
0.0100853
0.0100837
0.010082
0.0100804
0.0100787
0.010077
0.0100753
0.0100735
0.0100716
0.0100697
0.0100677
0.0100657
0.0100635
0.0100613
0.010059
0.0100567
0.0100542
0.0100516
0.0100489
0.0100462
0.0100433
0.0100403
0.0100372
0.010034
0.0100307
0.0100273
0.0100238
0.0100202
0.0100164
0.0100126
0.0100087
0.0100047
0.0100006
0.0104069
0.0103939
0.0103801
0.0103666
0.0103537
0.0103412
0.0103293
0.010318
0.0103074
0.0102975
0.0102882
0.0102794
0.0102711
0.0102632
0.0102558
0.0102492
0.0102432
0.0102375
0.0102323
0.0102274
0.010223
0.0102189
0.0102153
0.0102121
0.0102093
0.0102068
0.0102047
0.0102028
0.0102011
0.0101996
0.0101981
0.0101968
0.0101955
0.0101943
0.0101932
0.0101922
0.0101911
0.0101901
0.010189
0.0101879
0.0101868
0.0101857
0.0101844
0.0101831
0.0101817
0.0101802
0.0101786
0.0101769
0.0101751
0.0101732
0.0101713
0.0101693
0.0101673
0.0101651
0.010163
0.0101608
0.0101585
0.0101561
0.0101537
0.0101512
0.0101487
0.0101462
0.0101436
0.010141
0.0101384
0.0101358
0.0101333
0.0101309
0.0101285
0.0101261
0.0101239
0.0101218
0.0101198
0.0101179
0.0101162
0.0101144
0.0101127
0.0101111
0.0101094
0.0101078
0.0101063
0.0101047
0.0101032
0.0101016
0.0101
0.0100985
0.0100969
0.0100953
0.0100936
0.010092
0.0100902
0.0100885
0.0100867
0.0100848
0.0100828
0.0100808
0.0100788
0.0100766
0.0100744
0.010072
0.0100696
0.0100671
0.0100645
0.0100618
0.010059
0.010056
0.010053
0.0100498
0.0100465
0.0100431
0.0100396
0.010036
0.0100322
0.0100283
0.0100244
0.0100203
0.0100161
0.0100118
0.0100074
0.0100029
0.0104227
0.0104088
0.0103938
0.0103792
0.0103651
0.0103516
0.0103387
0.0103265
0.010315
0.0103041
0.0102939
0.0102842
0.010275
0.0102665
0.0102585
0.0102511
0.0102443
0.0102379
0.0102319
0.0102263
0.0102211
0.0102162
0.0102118
0.010208
0.0102048
0.0102019
0.0101993
0.0101971
0.010195
0.0101931
0.0101915
0.01019
0.0101887
0.0101876
0.0101866
0.0101857
0.0101849
0.0101842
0.0101834
0.0101827
0.010182
0.0101813
0.0101805
0.0101797
0.0101788
0.0101779
0.0101768
0.0101757
0.0101745
0.0101732
0.0101718
0.0101704
0.0101688
0.0101672
0.0101655
0.0101637
0.0101619
0.01016
0.0101581
0.0101561
0.010154
0.0101519
0.0101498
0.0101477
0.0101457
0.0101437
0.0101418
0.0101399
0.0101381
0.0101363
0.0101346
0.0101329
0.0101312
0.0101295
0.0101279
0.0101263
0.0101247
0.0101231
0.0101215
0.01012
0.0101184
0.0101168
0.0101153
0.0101137
0.0101121
0.0101104
0.0101087
0.010107
0.0101053
0.0101035
0.0101016
0.0100997
0.0100978
0.0100957
0.0100936
0.0100914
0.0100892
0.0100868
0.0100844
0.0100819
0.0100792
0.0100765
0.0100736
0.0100707
0.0100676
0.0100644
0.0100611
0.0100577
0.0100542
0.0100505
0.0100467
0.0100428
0.0100387
0.0100346
0.0100303
0.0100259
0.0100214
0.0100168
0.0100121
0.0100074
0.0104424
0.0104277
0.0104118
0.010396
0.0103809
0.0103664
0.0103526
0.0103395
0.0103271
0.0103154
0.0103043
0.0102938
0.010284
0.0102747
0.0102661
0.0102581
0.0102506
0.0102436
0.0102371
0.0102311
0.0102256
0.0102205
0.0102159
0.0102119
0.0102083
0.010205
0.0102021
0.0101994
0.010197
0.0101948
0.0101928
0.0101911
0.0101896
0.0101883
0.0101873
0.0101865
0.0101859
0.0101853
0.0101848
0.0101843
0.0101839
0.0101835
0.010183
0.0101826
0.0101821
0.0101816
0.010181
0.0101804
0.0101796
0.0101788
0.0101779
0.0101769
0.0101759
0.0101747
0.0101735
0.0101721
0.0101708
0.0101694
0.0101679
0.0101664
0.0101649
0.0101634
0.0101618
0.0101601
0.0101585
0.0101568
0.0101552
0.0101535
0.0101519
0.0101503
0.0101486
0.010147
0.0101454
0.0101438
0.0101422
0.0101406
0.010139
0.0101374
0.0101358
0.0101342
0.0101325
0.0101309
0.0101292
0.0101275
0.0101257
0.0101239
0.0101221
0.0101203
0.0101184
0.0101164
0.0101144
0.0101123
0.0101101
0.0101079
0.0101056
0.0101032
0.0101007
0.0100981
0.0100955
0.0100927
0.0100898
0.0100868
0.0100837
0.0100805
0.0100772
0.0100738
0.0100702
0.0100665
0.0100627
0.0100587
0.0100546
0.0100504
0.0100461
0.0100417
0.0100371
0.0100324
0.0100277
0.0100228
0.0100178
0.0100127
0.0104656
0.0104501
0.0104332
0.0104165
0.0104004
0.010385
0.0103703
0.0103564
0.0103431
0.0103306
0.0103187
0.0103076
0.010297
0.0102872
0.0102779
0.0102693
0.0102613
0.0102538
0.0102469
0.0102405
0.0102347
0.0102294
0.0102245
0.0102202
0.0102163
0.0102128
0.0102097
0.0102069
0.0102044
0.0102022
0.0102003
0.0101987
0.0101974
0.0101963
0.0101954
0.0101947
0.0101941
0.0101936
0.0101932
0.0101929
0.0101927
0.0101925
0.0101923
0.0101921
0.0101919
0.0101917
0.0101915
0.0101912
0.0101908
0.0101904
0.0101899
0.0101893
0.0101886
0.0101879
0.010187
0.0101861
0.0101851
0.010184
0.0101828
0.0101816
0.0101803
0.010179
0.0101776
0.0101761
0.0101746
0.0101731
0.0101716
0.01017
0.0101684
0.0101669
0.0101652
0.0101636
0.010162
0.0101603
0.0101587
0.010157
0.0101553
0.0101536
0.0101519
0.0101501
0.0101483
0.0101465
0.0101447
0.0101428
0.0101409
0.0101389
0.0101369
0.0101348
0.0101327
0.0101305
0.0101283
0.010126
0.0101236
0.0101211
0.0101186
0.0101159
0.0101132
0.0101104
0.0101074
0.0101044
0.0101012
0.010098
0.0100946
0.0100911
0.0100875
0.0100837
0.0100799
0.0100759
0.0100718
0.0100675
0.0100631
0.0100586
0.010054
0.0100492
0.0100443
0.0100394
0.0100343
0.0100291
0.0100238
0.0100184
0.0104915
0.0104754
0.0104576
0.01044
0.010423
0.0104068
0.0103912
0.0103765
0.0103625
0.0103492
0.0103366
0.0103248
0.0103136
0.0103031
0.0102933
0.0102842
0.0102757
0.0102678
0.0102605
0.0102538
0.0102476
0.010242
0.0102369
0.0102323
0.0102282
0.0102246
0.0102213
0.0102184
0.0102159
0.0102138
0.010212
0.0102105
0.0102092
0.0102082
0.0102074
0.0102069
0.0102064
0.0102062
0.010206
0.0102059
0.0102059
0.010206
0.0102061
0.0102062
0.0102063
0.0102064
0.0102064
0.0102064
0.0102063
0.0102062
0.010206
0.0102057
0.0102053
0.0102048
0.0102042
0.0102035
0.0102028
0.0102019
0.0102009
0.0101999
0.0101987
0.0101975
0.0101962
0.0101949
0.0101935
0.010192
0.0101905
0.0101889
0.0101873
0.0101857
0.010184
0.0101823
0.0101806
0.0101788
0.0101771
0.0101752
0.0101734
0.0101715
0.0101696
0.0101677
0.0101657
0.0101637
0.0101617
0.0101596
0.0101574
0.0101552
0.010153
0.0101507
0.0101483
0.0101459
0.0101434
0.0101408
0.0101381
0.0101354
0.0101325
0.0101296
0.0101266
0.0101234
0.0101202
0.0101169
0.0101134
0.0101098
0.0101061
0.0101023
0.0100984
0.0100943
0.0100901
0.0100857
0.0100813
0.0100767
0.0100719
0.0100671
0.0100621
0.010057
0.0100518
0.0100464
0.010041
0.0100355
0.0100298
0.0100241
0.0105196
0.010503
0.0104844
0.0104659
0.0104481
0.0104311
0.0104148
0.0103993
0.0103845
0.0103705
0.0103573
0.0103448
0.0103331
0.0103221
0.0103118
0.0103021
0.0102932
0.0102849
0.0102772
0.0102702
0.0102637
0.0102578
0.0102525
0.0102478
0.0102435
0.0102397
0.0102364
0.0102334
0.0102309
0.0102288
0.010227
0.0102256
0.0102244
0.0102236
0.0102229
0.0102225
0.0102222
0.0102222
0.0102222
0.0102223
0.0102226
0.0102229
0.0102232
0.0102236
0.010224
0.0102243
0.0102246
0.0102249
0.0102251
0.0102252
0.0102252
0.0102252
0.010225
0.0102247
0.0102244
0.0102239
0.0102233
0.0102226
0.0102217
0.0102208
0.0102198
0.0102186
0.0102174
0.0102161
0.0102147
0.0102132
0.0102117
0.01021
0.0102084
0.0102066
0.0102049
0.010203
0.0102011
0.0101992
0.0101973
0.0101953
0.0101932
0.0101911
0.010189
0.0101868
0.0101846
0.0101823
0.01018
0.0101777
0.0101753
0.0101728
0.0101703
0.0101677
0.010165
0.0101623
0.0101595
0.0101566
0.0101536
0.0101506
0.0101474
0.0101441
0.0101408
0.0101373
0.0101338
0.0101301
0.0101263
0.0101223
0.0101183
0.0101141
0.0101098
0.0101053
0.0101008
0.010096
0.0100912
0.0100862
0.0100811
0.0100758
0.0100705
0.010065
0.0100594
0.0100536
0.0100478
0.0100419
0.0100359
0.0100298
0.0105496
0.0105324
0.0105131
0.0104939
0.0104753
0.0104575
0.0104405
0.0104243
0.0104088
0.0103942
0.0103804
0.0103673
0.0103551
0.0103435
0.0103327
0.0103227
0.0103133
0.0103046
0.0102966
0.0102893
0.0102826
0.0102765
0.010271
0.010266
0.0102616
0.0102577
0.0102543
0.0102514
0.0102489
0.0102468
0.010245
0.0102437
0.0102426
0.0102419
0.0102414
0.0102411
0.010241
0.0102411
0.0102414
0.0102417
0.0102422
0.0102427
0.0102433
0.0102439
0.0102445
0.0102451
0.0102457
0.0102462
0.0102466
0.010247
0.0102472
0.0102474
0.0102474
0.0102473
0.0102471
0.0102468
0.0102463
0.0102457
0.010245
0.0102441
0.0102431
0.010242
0.0102408
0.0102395
0.0102381
0.0102365
0.0102349
0.0102332
0.0102314
0.0102295
0.0102276
0.0102256
0.0102235
0.0102214
0.0102192
0.0102169
0.0102146
0.0102123
0.0102099
0.0102074
0.0102049
0.0102024
0.0101998
0.0101971
0.0101944
0.0101916
0.0101887
0.0101858
0.0101828
0.0101798
0.0101766
0.0101734
0.0101701
0.0101667
0.0101632
0.0101595
0.0101558
0.010152
0.0101481
0.010144
0.0101398
0.0101355
0.010131
0.0101265
0.0101217
0.0101169
0.0101119
0.0101068
0.0101015
0.0100961
0.0100905
0.0100849
0.0100791
0.0100731
0.0100671
0.0100609
0.0100547
0.0100483
0.0100419
0.0100354
0.0105809
0.0105632
0.0105433
0.0105234
0.0105041
0.0104856
0.0104679
0.0104511
0.010435
0.0104198
0.0104054
0.0103918
0.0103791
0.0103671
0.0103558
0.0103453
0.0103356
0.0103266
0.0103183
0.0103107
0.0103037
0.0102974
0.0102918
0.0102867
0.0102822
0.0102782
0.0102747
0.0102718
0.0102693
0.0102672
0.0102656
0.0102643
0.0102634
0.0102627
0.0102624
0.0102623
0.0102624
0.0102627
0.0102632
0.0102637
0.0102644
0.0102652
0.010266
0.0102668
0.0102677
0.0102685
0.0102693
0.01027
0.0102706
0.0102712
0.0102716
0.010272
0.0102722
0.0102723
0.0102722
0.010272
0.0102716
0.0102711
0.0102705
0.0102697
0.0102687
0.0102676
0.0102664
0.010265
0.0102635
0.0102619
0.0102602
0.0102583
0.0102563
0.0102543
0.0102521
0.0102499
0.0102476
0.0102452
0.0102427
0.0102402
0.0102376
0.0102349
0.0102322
0.0102294
0.0102266
0.0102237
0.0102208
0.0102177
0.0102147
0.0102115
0.0102083
0.010205
0.0102017
0.0101983
0.0101947
0.0101911
0.0101874
0.0101836
0.0101798
0.0101757
0.0101716
0.0101674
0.0101631
0.0101586
0.010154
0.0101492
0.0101444
0.0101394
0.0101342
0.0101289
0.0101235
0.0101179
0.0101122
0.0101063
0.0101003
0.0100942
0.0100879
0.0100815
0.010075
0.0100684
0.0100616
0.0100548
0.0100479
0.010041
0.0106132
0.0105952
0.0105746
0.0105541
0.0105342
0.0105151
0.0104968
0.0104793
0.0104627
0.010447
0.0104321
0.010418
0.0104047
0.0103923
0.0103807
0.0103698
0.0103598
0.0103505
0.0103419
0.010334
0.0103269
0.0103204
0.0103146
0.0103094
0.0103048
0.0103008
0.0102973
0.0102944
0.0102919
0.0102899
0.0102884
0.0102872
0.0102864
0.0102859
0.0102857
0.0102858
0.0102861
0.0102866
0.0102873
0.0102881
0.010289
0.01029
0.010291
0.0102921
0.0102932
0.0102942
0.0102952
0.0102961
0.010297
0.0102977
0.0102983
0.0102988
0.0102992
0.0102994
0.0102995
0.0102994
0.0102991
0.0102987
0.0102981
0.0102973
0.0102964
0.0102953
0.010294
0.0102926
0.010291
0.0102892
0.0102873
0.0102853
0.0102832
0.0102809
0.0102785
0.010276
0.0102734
0.0102707
0.0102679
0.010265
0.0102621
0.010259
0.010256
0.0102528
0.0102496
0.0102463
0.010243
0.0102396
0.0102361
0.0102326
0.010229
0.0102253
0.0102215
0.0102177
0.0102138
0.0102098
0.0102057
0.0102015
0.0101971
0.0101927
0.0101882
0.0101835
0.0101787
0.0101738
0.0101688
0.0101636
0.0101583
0.0101528
0.0101472
0.0101414
0.0101355
0.0101295
0.0101233
0.0101169
0.0101104
0.0101038
0.010097
0.0100901
0.0100831
0.010076
0.0100687
0.0100614
0.010054
0.0100466
0.0106462
0.0106279
0.0106068
0.0105857
0.0105652
0.0105455
0.0105267
0.0105087
0.0104916
0.0104754
0.01046
0.0104455
0.0104318
0.010419
0.010407
0.0103958
0.0103855
0.0103759
0.0103671
0.010359
0.0103517
0.0103451
0.0103392
0.0103339
0.0103293
0.0103252
0.0103218
0.0103189
0.0103165
0.0103146
0.0103131
0.0103121
0.0103114
0.0103111
0.0103111
0.0103114
0.0103119
0.0103126
0.0103135
0.0103145
0.0103157
0.0103169
0.0103182
0.0103195
0.0103208
0.010322
0.0103232
0.0103244
0.0103254
0.0103264
0.0103272
0.0103279
0.0103284
0.0103287
0.0103289
0.010329
0.0103288
0.0103284
0.0103279
0.0103272
0.0103262
0.0103251
0.0103238
0.0103223
0.0103206
0.0103187
0.0103166
0.0103144
0.010312
0.0103094
0.0103067
0.0103038
0.0103009
0.0102978
0.0102947
0.0102914
0.010288
0.0102846
0.0102811
0.0102775
0.0102739
0.0102702
0.0102664
0.0102626
0.0102587
0.0102547
0.0102507
0.0102465
0.0102423
0.0102381
0.0102337
0.0102292
0.0102247
0.01022
0.0102153
0.0102104
0.0102054
0.0102003
0.010195
0.0101897
0.0101842
0.0101785
0.0101727
0.0101668
0.0101607
0.0101544
0.010148
0.0101415
0.0101347
0.0101279
0.0101209
0.0101137
0.0101064
0.010099
0.0100914
0.0100838
0.010076
0.0100681
0.0100602
0.0100522
0.0106798
0.0106612
0.0106396
0.010618
0.010597
0.0105768
0.0105575
0.010539
0.0105214
0.0105047
0.0104889
0.010474
0.0104599
0.0104468
0.0104345
0.010423
0.0104124
0.0104026
0.0103936
0.0103854
0.0103779
0.0103712
0.0103652
0.0103599
0.0103553
0.0103512
0.0103478
0.010345
0.0103427
0.0103409
0.0103396
0.0103387
0.0103382
0.0103381
0.0103383
0.0103388
0.0103395
0.0103405
0.0103416
0.0103429
0.0103443
0.0103458
0.0103473
0.0103488
0.0103504
0.0103519
0.0103533
0.0103547
0.0103559
0.0103571
0.0103581
0.010359
0.0103597
0.0103602
0.0103606
0.0103608
0.0103609
0.0103607
0.0103604
0.0103598
0.0103589
0.0103578
0.0103565
0.0103549
0.0103531
0.010351
0.0103488
0.0103463
0.0103436
0.0103407
0.0103376
0.0103343
0.0103308
0.0103272
0.0103235
0.0103197
0.0103157
0.0103118
0.0103077
0.0103037
0.0102995
0.0102953
0.010291
0.0102867
0.0102823
0.0102779
0.0102733
0.0102687
0.010264
0.0102593
0.0102544
0.0102495
0.0102445
0.0102393
0.0102341
0.0102287
0.0102233
0.0102177
0.010212
0.0102061
0.0102001
0.0101939
0.0101876
0.0101812
0.0101746
0.0101678
0.0101609
0.0101538
0.0101466
0.0101392
0.0101317
0.010124
0.0101161
0.0101081
0.0101
0.0100918
0.0100835
0.0100751
0.0100666
0.010058
0.0107135
0.0106947
0.0106728
0.0106507
0.0106293
0.0106086
0.0105888
0.0105699
0.0105519
0.0105348
0.0105186
0.0105033
0.010489
0.0104755
0.0104629
0.0104512
0.0104404
0.0104304
0.0104212
0.0104129
0.0104053
0.0103986
0.0103925
0.0103872
0.0103826
0.0103786
0.0103753
0.0103725
0.0103704
0.0103687
0.0103676
0.0103669
0.0103666
0.0103667
0.0103671
0.0103679
0.0103689
0.0103701
0.0103715
0.0103731
0.0103747
0.0103765
0.0103783
0.0103801
0.0103819
0.0103836
0.0103853
0.0103869
0.0103884
0.0103899
0.0103912
0.0103924
0.0103935
0.0103944
0.0103952
0.0103956
0.0103958
0.0103958
0.0103955
0.0103949
0.010394
0.0103928
0.0103914
0.0103897
0.0103877
0.0103855
0.010383
0.0103803
0.0103773
0.0103741
0.0103707
0.010367
0.0103632
0.0103591
0.0103549
0.0103505
0.010346
0.0103413
0.0103366
0.0103317
0.0103268
0.0103219
0.010317
0.010312
0.0103071
0.010302
0.010297
0.0102918
0.0102866
0.0102813
0.010276
0.0102705
0.010265
0.0102593
0.0102536
0.0102477
0.0102418
0.0102356
0.0102294
0.010223
0.0102165
0.0102099
0.0102031
0.0101961
0.010189
0.0101817
0.0101742
0.0101666
0.0101588
0.0101509
0.0101428
0.0101345
0.0101261
0.0101176
0.0101089
0.0101001
0.0100912
0.0100822
0.0100731
0.010064
0.0107473
0.0107284
0.0107061
0.0106837
0.0106618
0.0106408
0.0106206
0.0106013
0.0105829
0.0105655
0.0105489
0.0105333
0.0105187
0.0105049
0.0104921
0.0104802
0.0104692
0.0104591
0.0104498
0.0104413
0.0104337
0.0104269
0.0104209
0.0104156
0.010411
0.0104071
0.0104039
0.0104013
0.0103993
0.0103978
0.0103969
0.0103964
0.0103964
0.0103968
0.0103975
0.0103985
0.0103998
0.0104013
0.010403
0.0104049
0.0104068
0.0104089
0.010411
0.0104131
0.0104151
0.0104172
0.0104192
0.0104212
0.0104232
0.0104252
0.010427
0.0104287
0.0104301
0.0104312
0.0104321
0.0104327
0.0104329
0.0104329
0.0104326
0.0104319
0.010431
0.0104297
0.0104282
0.0104263
0.0104242
0.0104218
0.0104191
0.0104161
0.0104128
0.0104093
0.0104055
0.0104015
0.0103972
0.0103928
0.0103881
0.0103832
0.0103781
0.0103729
0.0103675
0.010362
0.0103564
0.0103507
0.0103449
0.0103391
0.0103332
0.0103274
0.0103216
0.0103159
0.0103101
0.0103042
0.0102983
0.0102923
0.0102862
0.01028
0.0102737
0.0102673
0.0102608
0.0102542
0.0102474
0.0102405
0.0102335
0.0102263
0.0102189
0.0102114
0.0102037
0.0101959
0.0101879
0.0101797
0.0101714
0.0101629
0.0101542
0.0101454
0.0101364
0.0101273
0.010118
0.0101086
0.0100991
0.0100895
0.0100798
0.0100701
0.010781
0.010762
0.0107395
0.0107167
0.0106945
0.0106731
0.0106526
0.0106329
0.0106142
0.0105965
0.0105797
0.0105638
0.0105489
0.0105349
0.0105219
0.0105098
0.0104987
0.0104884
0.010479
0.0104706
0.0104629
0.0104561
0.0104501
0.0104449
0.0104404
0.0104367
0.0104336
0.0104312
0.0104293
0.0104281
0.0104274
0.0104272
0.0104274
0.0104281
0.0104291
0.0104305
0.0104321
0.0104339
0.010436
0.0104382
0.0104405
0.0104429
0.0104453
0.0104478
0.0104503
0.0104528
0.0104555
0.0104582
0.0104608
0.0104632
0.0104653
0.0104672
0.0104688
0.0104701
0.010471
0.0104716
0.0104719
0.0104718
0.0104714
0.0104707
0.0104696
0.0104682
0.0104665
0.0104645
0.0104621
0.0104595
0.0104565
0.0104532
0.0104497
0.0104458
0.0104417
0.0104373
0.0104327
0.0104278
0.0104226
0.0104173
0.0104117
0.0104059
0.0104
0.0103938
0.0103875
0.0103811
0.0103746
0.010368
0.0103614
0.0103547
0.010348
0.0103413
0.0103346
0.010328
0.0103214
0.0103148
0.0103081
0.0103013
0.0102944
0.0102875
0.0102804
0.0102732
0.0102659
0.0102584
0.0102508
0.0102431
0.0102352
0.0102271
0.0102189
0.0102105
0.0102019
0.0101932
0.0101843
0.0101752
0.0101659
0.0101565
0.0101469
0.0101372
0.0101273
0.0101173
0.0101072
0.010097
0.0100867
0.0100764
0.0108145
0.0107954
0.0107727
0.0107497
0.0107272
0.0107055
0.0106847
0.0106647
0.0106458
0.0106277
0.0106107
0.0105946
0.0105794
0.0105653
0.0105521
0.0105399
0.0105286
0.0105183
0.0105089
0.0105004
0.0104928
0.010486
0.0104801
0.0104749
0.0104706
0.010467
0.0104641
0.0104619
0.0104603
0.0104594
0.010459
0.0104591
0.0104596
0.0104606
0.010462
0.0104637
0.0104657
0.0104679
0.0104704
0.0104729
0.0104757
0.0104785
0.0104814
0.0104844
0.0104877
0.0104911
0.0104944
0.0104976
0.0105005
0.0105032
0.0105056
0.0105076
0.0105093
0.0105107
0.0105116
0.0105122
0.0105124
0.0105123
0.0105117
0.0105109
0.0105097
0.0105081
0.0105062
0.0105039
0.0105013
0.0104984
0.0104951
0.0104915
0.0104876
0.0104835
0.010479
0.0104743
0.0104692
0.0104639
0.0104583
0.0104525
0.0104464
0.0104401
0.0104336
0.0104269
0.01042
0.0104129
0.0104057
0.0103984
0.010391