/*--------------------------------*- C++ -*----------------------------------*\
  =========                 |
  \\      /  F ield         | OpenFOAM: The Open Source CFD Toolbox
   \\    /   O peration     | Website:  https://openfoam.org
    \\  /    A nd           | Version:  8
     \\/     M anipulation  |
\*---------------------------------------------------------------------------*/
FoamFile
{
    version     2.0;
    format      ascii;
    class       volScalarField;
    location    "1.3";
    object      p;
}
// * * * * * * * * * * * * * * * * * * * * * * * * * * * * * * * * * * * * * //

dimensions      [0 2 -2 0 0 0 0];

internalField   nonuniform List<scalar> 
277560
(
-0.0450458
-0.0450548
-0.0450535
-0.0450503
-0.0450453
-0.0450391
-0.0450319
-0.0450238
-0.0450151
-0.0450058
-0.044996
-0.0449857
-0.0449749
-0.0449637
-0.0449522
-0.0449402
-0.044928
-0.0449154
-0.0449026
-0.0448894
-0.0448759
-0.0448622
-0.0448482
-0.0448338
-0.0448193
-0.0448044
-0.0447894
-0.0447739
-0.0447584
-0.0447424
-0.0447262
-0.0447097
-0.044693
-0.0446758
-0.0446586
-0.0446408
-0.044623
-0.0446046
-0.0445861
-0.0445672
-0.044548
-0.0445284
-0.0445086
-0.0444883
-0.0444678
-0.0444467
-0.0444255
-0.0444037
-0.0443818
-0.0443592
-0.0443364
-0.044313
-0.0442895
-0.0442652
-0.0442408
-0.0442157
-0.0441904
-0.0441643
-0.0441381
-0.0441111
-0.0440839
-0.044056
-0.0440278
-0.0439988
-0.0439696
-0.0439395
-0.0439092
-0.043878
-0.0438466
-0.0438143
-0.0437818
-0.0437483
-0.0437145
-0.0436798
-0.0436448
-0.0436088
-0.0435725
-0.0435352
-0.0434976
-0.0434589
-0.0434199
-0.0433798
-0.0433394
-0.0432978
-0.0432559
-0.0432129
-0.0431694
-0.0431248
-0.0430798
-0.0430336
-0.0429869
-0.0429391
-0.0428908
-0.0428413
-0.0427913
-0.0427401
-0.0426883
-0.0426353
-0.0425817
-0.0425269
-0.0424714
-0.0424147
-0.0423573
-0.0422986
-0.0422393
-0.0421786
-0.0421173
-0.0420545
-0.0419911
-0.0419262
-0.0418606
-0.0417935
-0.0417257
-0.0416564
-0.0415863
-0.0415147
-0.0414423
-0.0413673
-0.0412905
-0.0412236
-0.0450534
-0.0450581
-0.0450557
-0.0450517
-0.0450464
-0.0450399
-0.0450326
-0.0450244
-0.0450156
-0.0450063
-0.0449964
-0.0449861
-0.0449753
-0.0449641
-0.0449525
-0.0449405
-0.0449283
-0.0449157
-0.0449028
-0.0448896
-0.0448762
-0.0448624
-0.0448484
-0.0448341
-0.0448196
-0.0448047
-0.0447896
-0.0447742
-0.0447586
-0.0447427
-0.0447265
-0.04471
-0.0446932
-0.0446762
-0.0446589
-0.0446412
-0.0446233
-0.044605
-0.0445865
-0.0445676
-0.0445484
-0.0445289
-0.044509
-0.0444888
-0.0444683
-0.0444474
-0.044426
-0.0444044
-0.0443823
-0.0443599
-0.0443371
-0.0443139
-0.0442902
-0.0442662
-0.0442416
-0.0442167
-0.0441913
-0.0441655
-0.0441391
-0.0441123
-0.044085
-0.0440573
-0.0440289
-0.0440002
-0.0439708
-0.043941
-0.0439106
-0.0438797
-0.0438481
-0.0438161
-0.0437834
-0.0437502
-0.0437163
-0.0436819
-0.0436467
-0.0436111
-0.0435746
-0.0435377
-0.0434999
-0.0434616
-0.0434224
-0.0433827
-0.0433421
-0.0433009
-0.0432587
-0.043216
-0.0431723
-0.0431281
-0.0430828
-0.043037
-0.0429901
-0.0429426
-0.042894
-0.0428448
-0.0427945
-0.0427436
-0.0426916
-0.0426389
-0.042585
-0.0425305
-0.0424747
-0.0424183
-0.0423606
-0.0423022
-0.0422425
-0.0421821
-0.0421203
-0.0420578
-0.0419939
-0.0419292
-0.0418632
-0.0417963
-0.0417279
-0.0416587
-0.0415881
-0.0415166
-0.0414436
-0.0413686
-0.0412912
-0.0412245
-0.0450624
-0.0450629
-0.0450588
-0.0450539
-0.0450481
-0.0450414
-0.0450338
-0.0450255
-0.0450166
-0.0450072
-0.0449973
-0.0449869
-0.044976
-0.0449648
-0.0449532
-0.0449412
-0.044929
-0.0449164
-0.0449035
-0.0448903
-0.0448768
-0.0448631
-0.044849
-0.0448348
-0.0448202
-0.0448054
-0.0447902
-0.0447749
-0.0447592
-0.0447434
-0.0447271
-0.0447107
-0.0446939
-0.044677
-0.0446596
-0.044642
-0.0446241
-0.0446059
-0.0445873
-0.0445685
-0.0445493
-0.0445299
-0.04451
-0.0444899
-0.0444693
-0.0444485
-0.0444271
-0.0444056
-0.0443835
-0.0443612
-0.0443383
-0.0443152
-0.0442915
-0.0442676
-0.044243
-0.0442183
-0.0441928
-0.0441671
-0.0441407
-0.0441141
-0.0440867
-0.0440591
-0.0440308
-0.0440022
-0.0439728
-0.0439431
-0.0439127
-0.0438819
-0.0438503
-0.0438185
-0.0437857
-0.0437527
-0.0437188
-0.0436845
-0.0436493
-0.0436138
-0.0435774
-0.0435406
-0.0435028
-0.0434646
-0.0434255
-0.0433859
-0.0433453
-0.0433042
-0.0432621
-0.0432195
-0.0431758
-0.0431317
-0.0430865
-0.0430407
-0.0429938
-0.0429465
-0.0428979
-0.0428489
-0.0427986
-0.0427478
-0.0426958
-0.0426432
-0.0425893
-0.0425349
-0.0424792
-0.0424228
-0.0423651
-0.0423068
-0.0422471
-0.0421867
-0.042125
-0.0420625
-0.0419986
-0.0419339
-0.0418678
-0.0418009
-0.0417325
-0.0416633
-0.0415925
-0.041521
-0.0414478
-0.0413727
-0.0412951
-0.0412282
-0.0450703
-0.045068
-0.0450625
-0.0450569
-0.0450505
-0.0450434
-0.0450356
-0.0450272
-0.0450182
-0.0450086
-0.0449986
-0.0449882
-0.0449773
-0.044966
-0.0449544
-0.0449424
-0.0449301
-0.0449175
-0.0449046
-0.0448914
-0.0448779
-0.0448641
-0.0448501
-0.0448358
-0.0448213
-0.0448064
-0.0447913
-0.044776
-0.0447604
-0.0447445
-0.0447283
-0.0447119
-0.0446952
-0.0446782
-0.0446609
-0.0446433
-0.0446254
-0.0446073
-0.0445888
-0.04457
-0.0445509
-0.0445314
-0.0445116
-0.0444915
-0.044471
-0.0444502
-0.044429
-0.0444074
-0.0443855
-0.0443632
-0.0443405
-0.0443173
-0.0442938
-0.0442698
-0.0442455
-0.0442206
-0.0441954
-0.0441696
-0.0441435
-0.0441168
-0.0440897
-0.044062
-0.044034
-0.0440053
-0.0439762
-0.0439464
-0.0439163
-0.0438854
-0.0438542
-0.0438222
-0.0437898
-0.0437566
-0.0437231
-0.0436887
-0.0436539
-0.0436182
-0.0435821
-0.0435452
-0.0435078
-0.0434695
-0.0434307
-0.043391
-0.0433508
-0.0433096
-0.0432679
-0.0432252
-0.0431819
-0.0431376
-0.0430927
-0.0430469
-0.0430004
-0.0429528
-0.0429047
-0.0428554
-0.0428056
-0.0427546
-0.0427029
-0.0426501
-0.0425967
-0.042542
-0.0424866
-0.0424301
-0.0423727
-0.0423142
-0.0422548
-0.0421942
-0.0421328
-0.04207
-0.0420065
-0.0419415
-0.0418757
-0.0418085
-0.0417404
-0.0416708
-0.0416003
-0.0415283
-0.0414554
-0.0413799
-0.0413024
-0.0412351
-0.0450771
-0.0450731
-0.0450666
-0.0450603
-0.0450535
-0.045046
-0.045038
-0.0450293
-0.0450202
-0.0450105
-0.0450004
-0.0449899
-0.044979
-0.0449677
-0.044956
-0.044944
-0.0449316
-0.044919
-0.0449061
-0.0448928
-0.0448794
-0.0448656
-0.0448516
-0.0448373
-0.0448227
-0.0448079
-0.0447929
-0.0447775
-0.0447619
-0.044746
-0.0447299
-0.0447135
-0.0446969
-0.0446798
-0.0446626
-0.044645
-0.0446273
-0.0446091
-0.0445907
-0.0445719
-0.0445529
-0.0445334
-0.0445138
-0.0444937
-0.0444733
-0.0444525
-0.0444315
-0.0444099
-0.0443881
-0.0443658
-0.0443432
-0.0443201
-0.0442968
-0.0442728
-0.0442486
-0.0442238
-0.0441987
-0.044173
-0.044147
-0.0441203
-0.0440934
-0.0440658
-0.0440379
-0.0440092
-0.0439803
-0.0439506
-0.0439207
-0.0438899
-0.0438588
-0.0438269
-0.0437947
-0.0437616
-0.0437282
-0.0436939
-0.0436593
-0.0436237
-0.0435878
-0.0435509
-0.0435137
-0.0434755
-0.0434369
-0.0433973
-0.0433573
-0.0433162
-0.0432747
-0.0432321
-0.043189
-0.0431448
-0.0431001
-0.0430544
-0.0430081
-0.0429606
-0.0429126
-0.0428635
-0.0428138
-0.0427629
-0.0427114
-0.0426587
-0.0426054
-0.0425509
-0.0424956
-0.0424391
-0.042382
-0.0423234
-0.0422642
-0.0422037
-0.0421424
-0.0420796
-0.0420162
-0.0419512
-0.0418855
-0.0418183
-0.0417503
-0.0416807
-0.0416102
-0.0415382
-0.0414653
-0.0413897
-0.0413122
-0.0412449
-0.0450832
-0.0450781
-0.0450709
-0.0450641
-0.0450568
-0.0450491
-0.0450408
-0.045032
-0.0450227
-0.0450129
-0.0450027
-0.0449921
-0.0449811
-0.0449697
-0.044958
-0.0449459
-0.0449335
-0.0449209
-0.0449079
-0.0448947
-0.0448812
-0.0448674
-0.0448534
-0.0448391
-0.0448246
-0.0448098
-0.0447947
-0.0447794
-0.0447638
-0.044748
-0.0447319
-0.0447155
-0.0446989
-0.044682
-0.0446648
-0.0446473
-0.0446295
-0.0446114
-0.0445931
-0.0445744
-0.0445554
-0.0445361
-0.0445164
-0.0444964
-0.0444761
-0.0444555
-0.0444344
-0.044413
-0.0443912
-0.0443691
-0.0443465
-0.0443236
-0.0443003
-0.0442765
-0.0442523
-0.0442277
-0.0442026
-0.0441772
-0.0441512
-0.0441248
-0.0440978
-0.0440705
-0.0440426
-0.0440143
-0.0439853
-0.0439559
-0.0439259
-0.0438955
-0.0438643
-0.0438328
-0.0438005
-0.0437678
-0.0437343
-0.0437004
-0.0436657
-0.0436305
-0.0435945
-0.0435581
-0.0435208
-0.0434831
-0.0434444
-0.0434052
-0.0433651
-0.0433245
-0.0432828
-0.0432407
-0.0431975
-0.0431538
-0.043109
-0.0430637
-0.0430173
-0.0429703
-0.0429222
-0.0428736
-0.0428238
-0.0427733
-0.0427217
-0.0426695
-0.0426161
-0.0425619
-0.0425066
-0.0424505
-0.0423932
-0.0423352
-0.0422758
-0.0422156
-0.0421542
-0.0420919
-0.0420282
-0.0419637
-0.0418978
-0.0418309
-0.0417626
-0.0416934
-0.0416227
-0.0415512
-0.0414779
-0.0414028
-0.041325
-0.0412581
-0.0450887
-0.045083
-0.0450753
-0.0450681
-0.0450605
-0.0450525
-0.045044
-0.045035
-0.0450255
-0.0450156
-0.0450053
-0.0449946
-0.0449835
-0.0449721
-0.0449603
-0.0449482
-0.0449358
-0.0449231
-0.0449101
-0.0448969
-0.0448834
-0.0448696
-0.0448556
-0.0448413
-0.0448268
-0.044812
-0.044797
-0.0447817
-0.0447661
-0.0447504
-0.0447343
-0.044718
-0.0447013
-0.0446845
-0.0446673
-0.04465
-0.0446322
-0.0446142
-0.0445959
-0.0445773
-0.0445583
-0.0445392
-0.0445195
-0.0444997
-0.0444794
-0.0444589
-0.0444379
-0.0444167
-0.0443949
-0.044373
-0.0443504
-0.0443277
-0.0443044
-0.0442809
-0.0442567
-0.0442323
-0.0442073
-0.044182
-0.0441561
-0.0441299
-0.044103
-0.0440759
-0.044048
-0.04402
-0.0439911
-0.0439619
-0.043932
-0.0439018
-0.0438707
-0.0438394
-0.0438072
-0.0437747
-0.0437413
-0.0437077
-0.0436731
-0.0436382
-0.0436023
-0.0435661
-0.0435289
-0.0434914
-0.0434529
-0.0434139
-0.043374
-0.0433336
-0.0432921
-0.0432501
-0.0432071
-0.0431636
-0.043119
-0.0430739
-0.0430277
-0.042981
-0.0429331
-0.0428846
-0.042835
-0.0427848
-0.0427333
-0.0426813
-0.0426281
-0.0425742
-0.042519
-0.0424631
-0.042406
-0.0423481
-0.0422889
-0.042229
-0.0421677
-0.0421056
-0.0420421
-0.0419779
-0.0419121
-0.0418455
-0.0417774
-0.0417084
-0.0416378
-0.0415665
-0.0414934
-0.0414185
-0.0413409
-0.0412742
-0.0450938
-0.0450877
-0.0450797
-0.0450723
-0.0450645
-0.0450562
-0.0450475
-0.0450384
-0.0450288
-0.0450188
-0.0450083
-0.0449975
-0.0449864
-0.0449749
-0.044963
-0.0449509
-0.0449384
-0.0449257
-0.0449127
-0.0448995
-0.0448859
-0.0448722
-0.0448581
-0.0448439
-0.0448293
-0.0448146
-0.0447996
-0.0447843
-0.0447688
-0.0447531
-0.044737
-0.0447208
-0.0447042
-0.0446874
-0.0446703
-0.044653
-0.0446353
-0.0446174
-0.0445992
-0.0445806
-0.0445618
-0.0445427
-0.0445232
-0.0445034
-0.0444833
-0.0444628
-0.044442
-0.0444208
-0.0443992
-0.0443773
-0.044355
-0.0443323
-0.0443092
-0.0442857
-0.0442618
-0.0442374
-0.0442126
-0.0441874
-0.0441618
-0.0441356
-0.044109
-0.0440819
-0.0440544
-0.0440262
-0.0439977
-0.0439685
-0.043939
-0.0439087
-0.0438781
-0.0438467
-0.0438149
-0.0437824
-0.0437494
-0.0437157
-0.0436815
-0.0436465
-0.0436111
-0.0435749
-0.0435382
-0.0435005
-0.0434625
-0.0434235
-0.043384
-0.0433435
-0.0433025
-0.0432606
-0.043218
-0.0431745
-0.0431304
-0.0430852
-0.0430395
-0.0429927
-0.0429453
-0.0428968
-0.0428476
-0.0427974
-0.0427465
-0.0426944
-0.0426416
-0.0425877
-0.042533
-0.0424772
-0.0424205
-0.0423627
-0.042304
-0.0422441
-0.0421833
-0.0421212
-0.0420583
-0.041994
-0.0419288
-0.0418622
-0.0417947
-0.0417257
-0.0416558
-0.0415844
-0.041512
-0.041437
-0.04136
-0.0412933
-0.0450986
-0.0450924
-0.0450843
-0.0450767
-0.0450687
-0.0450603
-0.0450514
-0.0450421
-0.0450324
-0.0450222
-0.0450117
-0.0450008
-0.0449896
-0.044978
-0.0449661
-0.0449539
-0.0449414
-0.0449286
-0.0449156
-0.0449023
-0.0448888
-0.044875
-0.044861
-0.0448467
-0.0448322
-0.0448175
-0.0448025
-0.0447873
-0.0447718
-0.0447561
-0.0447402
-0.0447239
-0.0447074
-0.0446907
-0.0446737
-0.0446564
-0.0446388
-0.0446209
-0.0446029
-0.0445844
-0.0445657
-0.0445466
-0.0445273
-0.0445075
-0.0444876
-0.0444671
-0.0444465
-0.0444253
-0.044404
-0.0443821
-0.04436
-0.0443374
-0.0443145
-0.044291
-0.0442674
-0.0442431
-0.0442186
-0.0441934
-0.044168
-0.0441419
-0.0441156
-0.0440886
-0.0440613
-0.0440333
-0.044005
-0.0439759
-0.0439466
-0.0439165
-0.0438861
-0.0438548
-0.0438233
-0.0437909
-0.0437582
-0.0437246
-0.0436907
-0.0436559
-0.0436207
-0.0435846
-0.0435482
-0.0435107
-0.0434729
-0.0434341
-0.0433949
-0.0433546
-0.0433139
-0.0432721
-0.0432299
-0.0431865
-0.0431427
-0.0430978
-0.0430523
-0.0430058
-0.0429586
-0.0429104
-0.0428615
-0.0428115
-0.0427609
-0.0427091
-0.0426566
-0.0426029
-0.0425486
-0.042493
-0.0424367
-0.0423791
-0.0423208
-0.0422611
-0.0422008
-0.0421389
-0.0420764
-0.0420124
-0.0419476
-0.0418813
-0.0418142
-0.0417455
-0.041676
-0.041605
-0.041533
-0.0414583
-0.0413818
-0.0413155
-0.0451034
-0.0450971
-0.045089
-0.0450813
-0.0450732
-0.0450646
-0.0450556
-0.0450462
-0.0450363
-0.0450261
-0.0450154
-0.0450044
-0.0449931
-0.0449814
-0.0449695
-0.0449572
-0.0449447
-0.0449319
-0.0449188
-0.0449055
-0.044892
-0.0448782
-0.0448642
-0.0448499
-0.0448354
-0.0448207
-0.0448058
-0.0447906
-0.0447752
-0.0447595
-0.0447436
-0.0447274
-0.044711
-0.0446943
-0.0446774
-0.0446602
-0.0446427
-0.0446249
-0.0446069
-0.0445885
-0.0445699
-0.044551
-0.0445317
-0.0445121
-0.0444922
-0.044472
-0.0444514
-0.0444305
-0.0444092
-0.0443875
-0.0443655
-0.0443431
-0.0443203
-0.0442971
-0.0442734
-0.0442494
-0.0442249
-0.0442001
-0.0441747
-0.044149
-0.0441227
-0.044096
-0.0440687
-0.0440411
-0.0440128
-0.0439841
-0.0439548
-0.0439251
-0.0438946
-0.0438638
-0.0438323
-0.0438003
-0.0437676
-0.0437344
-0.0437005
-0.0436661
-0.0436309
-0.0435953
-0.0435588
-0.0435218
-0.043484
-0.0434457
-0.0434065
-0.0433667
-0.043326
-0.0432848
-0.0432426
-0.0431998
-0.043156
-0.0431117
-0.0430663
-0.0430202
-0.0429732
-0.0429255
-0.0428767
-0.0428273
-0.0427767
-0.0427255
-0.0426731
-0.04262
-0.0425658
-0.0425108
-0.0424546
-0.0423976
-0.0423394
-0.0422804
-0.0422201
-0.042159
-0.0420965
-0.0420332
-0.0419684
-0.0419029
-0.0418358
-0.0417679
-0.0416985
-0.0416282
-0.0415563
-0.0414825
-0.0414062
-0.0413407
-0.0451082
-0.0451019
-0.0450939
-0.0450861
-0.045078
-0.0450693
-0.0450601
-0.0450506
-0.0450406
-0.0450302
-0.0450194
-0.0450083
-0.0449969
-0.0449851
-0.0449731
-0.0449608
-0.0449482
-0.0449354
-0.0449223
-0.044909
-0.0448954
-0.0448816
-0.0448676
-0.0448534
-0.0448389
-0.0448242
-0.0448093
-0.0447942
-0.0447788
-0.0447632
-0.0447473
-0.0447312
-0.0447149
-0.0446983
-0.0446814
-0.0446643
-0.0446469
-0.0446293
-0.0446113
-0.0445931
-0.0445745
-0.0445558
-0.0445365
-0.0445172
-0.0444973
-0.0444773
-0.0444568
-0.0444361
-0.0444148
-0.0443934
-0.0443714
-0.0443493
-0.0443265
-0.0443036
-0.04428
-0.0442563
-0.0442319
-0.0442073
-0.044182
-0.0441565
-0.0441303
-0.0441039
-0.0440768
-0.0440494
-0.0440212
-0.0439929
-0.0439637
-0.0439342
-0.043904
-0.0438734
-0.043842
-0.0438104
-0.0437778
-0.043745
-0.0437112
-0.0436771
-0.0436421
-0.0436068
-0.0435705
-0.0435338
-0.0434962
-0.0434582
-0.0434192
-0.0433798
-0.0433393
-0.0432985
-0.0432565
-0.0432141
-0.0431705
-0.0431265
-0.0430814
-0.0430357
-0.0429889
-0.0429416
-0.0428931
-0.0428441
-0.0427938
-0.042743
-0.0426909
-0.0426383
-0.0425844
-0.0425298
-0.042474
-0.0424174
-0.0423596
-0.0423011
-0.0422411
-0.0421805
-0.0421184
-0.0420556
-0.0419914
-0.0419263
-0.0418597
-0.0417923
-0.0417234
-0.0416537
-0.0415823
-0.0415091
-0.0414334
-0.0413685
-0.0451132
-0.0451069
-0.045099
-0.0450912
-0.045083
-0.0450742
-0.0450649
-0.0450552
-0.0450451
-0.0450346
-0.0450237
-0.0450125
-0.045001
-0.0449892
-0.0449771
-0.0449647
-0.0449521
-0.0449392
-0.0449261
-0.0449127
-0.0448991
-0.0448854
-0.0448713
-0.0448571
-0.0448427
-0.044828
-0.0448131
-0.0447981
-0.0447827
-0.0447672
-0.0447514
-0.0447354
-0.0447191
-0.0447026
-0.0446858
-0.0446688
-0.0446515
-0.0446339
-0.0446161
-0.044598
-0.0445796
-0.0445609
-0.0445418
-0.0445225
-0.0445029
-0.0444829
-0.0444626
-0.044442
-0.044421
-0.0443996
-0.0443779
-0.0443558
-0.0443334
-0.0443105
-0.0442872
-0.0442635
-0.0442395
-0.0442149
-0.04419
-0.0441645
-0.0441387
-0.0441123
-0.0440856
-0.0440582
-0.0440305
-0.0440021
-0.0439733
-0.0439439
-0.0439141
-0.0438835
-0.0438526
-0.0438209
-0.0437888
-0.043756
-0.0437227
-0.0436886
-0.0436541
-0.0436188
-0.043583
-0.0435463
-0.0435092
-0.0434712
-0.0434328
-0.0433934
-0.0433536
-0.0433127
-0.0432714
-0.043229
-0.0431861
-0.0431422
-0.0430977
-0.0430521
-0.043006
-0.0429587
-0.0429109
-0.0428619
-0.0428124
-0.0427617
-0.0427103
-0.0426578
-0.0426046
-0.0425501
-0.042495
-0.0424387
-0.0423816
-0.0423232
-0.0422641
-0.0422036
-0.0421424
-0.0420798
-0.0420164
-0.0419516
-0.0418859
-0.0418188
-0.0417508
-0.0416813
-0.0416109
-0.041538
-0.0414632
-0.0413986
-0.0451185
-0.0451121
-0.0451043
-0.0450966
-0.0450883
-0.0450794
-0.04507
-0.0450602
-0.04505
-0.0450393
-0.0450283
-0.045017
-0.0450054
-0.0449935
-0.0449813
-0.0449689
-0.0449562
-0.0449433
-0.0449301
-0.0449167
-0.0449032
-0.0448893
-0.0448754
-0.0448611
-0.0448467
-0.0448321
-0.0448173
-0.0448022
-0.044787
-0.0447714
-0.0447558
-0.0447398
-0.0447236
-0.0447071
-0.0446905
-0.0446735
-0.0446564
-0.0446389
-0.0446212
-0.0446032
-0.044585
-0.0445663
-0.0445475
-0.0445283
-0.0445088
-0.0444889
-0.0444689
-0.0444483
-0.0444276
-0.0444063
-0.0443849
-0.0443628
-0.0443406
-0.0443179
-0.0442949
-0.0442713
-0.0442475
-0.0442231
-0.0441984
-0.0441731
-0.0441476
-0.0441213
-0.0440949
-0.0440676
-0.0440402
-0.044012
-0.0439835
-0.0439543
-0.0439248
-0.0438944
-0.0438638
-0.0438323
-0.0438005
-0.0437679
-0.043735
-0.0437011
-0.0436669
-0.0436318
-0.0435964
-0.04356
-0.0435233
-0.0434856
-0.0434475
-0.0434084
-0.043369
-0.0433284
-0.0432875
-0.0432454
-0.0432029
-0.0431593
-0.0431152
-0.04307
-0.0430243
-0.0429774
-0.04293
-0.0428815
-0.0428324
-0.042782
-0.0427312
-0.042679
-0.0426263
-0.0425724
-0.0425178
-0.0424619
-0.0424053
-0.0423474
-0.0422889
-0.042229
-0.0421683
-0.0421063
-0.0420435
-0.0419792
-0.0419142
-0.0418476
-0.0417803
-0.0417114
-0.0416417
-0.0415694
-0.0414954
-0.0414314
-0.0451242
-0.0451177
-0.04511
-0.0451023
-0.0450939
-0.0450849
-0.0450754
-0.0450655
-0.0450551
-0.0450443
-0.0450332
-0.0450217
-0.04501
-0.044998
-0.0449857
-0.0449733
-0.0449605
-0.0449476
-0.0449344
-0.044921
-0.0449074
-0.0448936
-0.0448796
-0.0448654
-0.044851
-0.0448364
-0.0448217
-0.0448066
-0.0447914
-0.044776
-0.0447604
-0.0447445
-0.0447284
-0.0447121
-0.0446955
-0.0446787
-0.0446616
-0.0446443
-0.0446267
-0.0446088
-0.0445906
-0.0445722
-0.0445535
-0.0445344
-0.0445151
-0.0444954
-0.0444754
-0.0444551
-0.0444345
-0.0444135
-0.0443921
-0.0443704
-0.0443483
-0.0443258
-0.0443029
-0.0442797
-0.0442559
-0.0442319
-0.0442073
-0.0441823
-0.0441568
-0.044131
-0.0441046
-0.0440778
-0.0440504
-0.0440226
-0.0439942
-0.0439654
-0.0439359
-0.0439061
-0.0438755
-0.0438445
-0.0438128
-0.0437806
-0.0437478
-0.0437144
-0.0436803
-0.0436458
-0.0436104
-0.0435746
-0.043538
-0.0435009
-0.0434629
-0.0434245
-0.0433851
-0.0433452
-0.0433044
-0.043263
-0.0432206
-0.0431777
-0.0431338
-0.0430892
-0.0430437
-0.0429975
-0.0429503
-0.0429025
-0.0428536
-0.042804
-0.0427534
-0.042702
-0.0426496
-0.0425964
-0.042542
-0.042487
-0.0424307
-0.0423737
-0.0423154
-0.0422563
-0.0421959
-0.0421348
-0.0420723
-0.0420089
-0.0419442
-0.0418786
-0.0418115
-0.0417437
-0.0416743
-0.0416031
-0.0415295
-0.0414666
-0.0451304
-0.0451237
-0.0451161
-0.0451083
-0.0450999
-0.0450908
-0.0450811
-0.045071
-0.0450605
-0.0450496
-0.0450383
-0.0450267
-0.0450149
-0.0450028
-0.0449904
-0.0449779
-0.0449651
-0.0449521
-0.0449389
-0.0449255
-0.0449119
-0.0448981
-0.0448841
-0.0448699
-0.0448556
-0.044841
-0.0448263
-0.0448113
-0.0447962
-0.0447808
-0.0447652
-0.0447495
-0.0447335
-0.0447173
-0.0447007
-0.0446841
-0.0446671
-0.0446499
-0.0446324
-0.0446147
-0.0445966
-0.0445784
-0.0445598
-0.044541
-0.0445217
-0.0445023
-0.0444824
-0.0444624
-0.0444418
-0.0444211
-0.0443998
-0.0443784
-0.0443564
-0.0443342
-0.0443114
-0.0442885
-0.0442649
-0.0442411
-0.0442167
-0.044192
-0.0441667
-0.0441412
-0.0441149
-0.0440885
-0.0440613
-0.0440338
-0.0440056
-0.0439771
-0.0439479
-0.0439183
-0.043888
-0.0438574
-0.0438259
-0.0437941
-0.0437615
-0.0437285
-0.0436947
-0.0436606
-0.0436255
-0.0435901
-0.0435538
-0.0435171
-0.0434795
-0.0434415
-0.0434024
-0.043363
-0.0433225
-0.0432816
-0.0432396
-0.0431971
-0.0431536
-0.0431095
-0.0430644
-0.0430187
-0.042972
-0.0429247
-0.0428762
-0.0428272
-0.042777
-0.0427262
-0.0426742
-0.0426217
-0.0425678
-0.0425134
-0.0424576
-0.0424012
-0.0423435
-0.0422851
-0.0422253
-0.0421649
-0.042103
-0.0420403
-0.0419762
-0.0419114
-0.041845
-0.041778
-0.0417093
-0.0416388
-0.0415661
-0.0415039
-0.0451371
-0.04513
-0.0451225
-0.0451147
-0.0451061
-0.0450969
-0.0450871
-0.0450768
-0.0450661
-0.0450551
-0.0450437
-0.045032
-0.04502
-0.0450078
-0.0449954
-0.0449827
-0.0449699
-0.0449568
-0.0449436
-0.0449302
-0.0449165
-0.0449028
-0.0448888
-0.0448747
-0.0448603
-0.0448458
-0.0448311
-0.0448163
-0.0448012
-0.0447859
-0.0447704
-0.0447547
-0.0447388
-0.0447227
-0.0447063
-0.0446898
-0.0446729
-0.0446558
-0.0446385
-0.0446209
-0.044603
-0.0445849
-0.0445665
-0.0445478
-0.0445288
-0.0445095
-0.0444898
-0.0444699
-0.0444496
-0.044429
-0.044408
-0.0443867
-0.044365
-0.0443429
-0.0443205
-0.0442976
-0.0442744
-0.0442507
-0.0442267
-0.0442021
-0.0441772
-0.0441518
-0.0441259
-0.0440996
-0.0440728
-0.0440454
-0.0440177
-0.0439893
-0.0439605
-0.0439311
-0.0439013
-0.0438707
-0.0438398
-0.0438081
-0.043776
-0.0437432
-0.04371
-0.0436759
-0.0436415
-0.0436062
-0.0435705
-0.043534
-0.043497
-0.0434591
-0.0434207
-0.0433815
-0.0433417
-0.0433009
-0.0432597
-0.0432174
-0.0431746
-0.0431308
-0.0430864
-0.0430409
-0.0429949
-0.0429479
-0.0429002
-0.0428514
-0.0428021
-0.0427516
-0.0427004
-0.0426481
-0.0425952
-0.042541
-0.0424862
-0.0424301
-0.0423734
-0.0423153
-0.0422565
-0.0421964
-0.0421356
-0.0420733
-0.0420103
-0.0419459
-0.0418806
-0.041814
-0.0417464
-0.0416764
-0.0416048
-0.0415431
-0.0451443
-0.0451369
-0.0451293
-0.0451215
-0.0451127
-0.0451033
-0.0450934
-0.0450829
-0.0450721
-0.0450608
-0.0450493
-0.0450374
-0.0450253
-0.045013
-0.0450005
-0.0449878
-0.0449748
-0.0449618
-0.0449485
-0.0449351
-0.0449215
-0.0449077
-0.0448937
-0.0448796
-0.0448653
-0.0448508
-0.0448362
-0.0448214
-0.0448064
-0.0447912
-0.0447758
-0.0447602
-0.0447444
-0.0447284
-0.0447122
-0.0446957
-0.044679
-0.044662
-0.0446449
-0.0446274
-0.0446098
-0.0445917
-0.0445736
-0.0445549
-0.0445362
-0.044517
-0.0444976
-0.0444778
-0.0444578
-0.0444373
-0.0444166
-0.0443954
-0.044374
-0.0443521
-0.04433
-0.0443073
-0.0442844
-0.0442608
-0.0442371
-0.0442128
-0.0441882
-0.0441629
-0.0441375
-0.0441113
-0.0440849
-0.0440577
-0.0440303
-0.0440022
-0.0439738
-0.0439446
-0.0439152
-0.0438849
-0.0438544
-0.043823
-0.0437914
-0.0437588
-0.043726
-0.0436923
-0.0436583
-0.0436234
-0.0435881
-0.0435519
-0.0435154
-0.0434779
-0.04344
-0.0434012
-0.0433619
-0.0433215
-0.0432808
-0.043239
-0.0431967
-0.0431533
-0.0431095
-0.0430646
-0.0430191
-0.0429726
-0.0429255
-0.0428773
-0.0428285
-0.0427786
-0.0427281
-0.0426763
-0.0426241
-0.0425705
-0.0425164
-0.0424609
-0.0424048
-0.0423474
-0.0422894
-0.04223
-0.0421699
-0.0421084
-0.0420461
-0.0419824
-0.041918
-0.0418521
-0.0417854
-0.0417162
-0.0416455
-0.0415846
-0.0451522
-0.0451441
-0.0451366
-0.0451286
-0.0451197
-0.0451101
-0.0450999
-0.0450893
-0.0450782
-0.0450668
-0.045055
-0.0450431
-0.0450308
-0.0450184
-0.0450058
-0.044993
-0.04498
-0.0449669
-0.0449536
-0.0449401
-0.0449265
-0.0449127
-0.0448988
-0.0448847
-0.0448705
-0.0448561
-0.0448415
-0.0448268
-0.0448119
-0.0447967
-0.0447815
-0.044766
-0.0447503
-0.0447344
-0.0447183
-0.0447019
-0.0446854
-0.0446686
-0.0446516
-0.0446343
-0.0446167
-0.0445989
-0.0445809
-0.0445625
-0.0445439
-0.0445249
-0.0445057
-0.0444861
-0.0444663
-0.0444461
-0.0444255
-0.0444046
-0.0443834
-0.0443618
-0.0443398
-0.0443175
-0.0442947
-0.0442715
-0.044248
-0.044224
-0.0441996
-0.0441747
-0.0441494
-0.0441237
-0.0440974
-0.0440707
-0.0440435
-0.0440158
-0.0439876
-0.0439589
-0.0439296
-0.0438999
-0.0438695
-0.0438387
-0.0438072
-0.0437753
-0.0437427
-0.0437096
-0.0436758
-0.0436415
-0.0436064
-0.0435708
-0.0435345
-0.0434977
-0.04346
-0.0434218
-0.0433828
-0.0433432
-0.0433027
-0.0432617
-0.0432197
-0.0431772
-0.0431337
-0.0430896
-0.0430444
-0.0429987
-0.042952
-0.0429046
-0.0428562
-0.0428072
-0.042757
-0.0427062
-0.0426543
-0.0426017
-0.0425479
-0.0424935
-0.0424378
-0.0423814
-0.0423238
-0.0422654
-0.0422057
-0.0421453
-0.0420834
-0.0420209
-0.0419569
-0.0418922
-0.0418259
-0.0417579
-0.0416879
-0.0416282
-0.0451606
-0.0451519
-0.0451442
-0.0451361
-0.045127
-0.0451171
-0.0451067
-0.0450959
-0.0450846
-0.0450729
-0.045061
-0.0450489
-0.0450365
-0.045024
-0.0450113
-0.0449984
-0.0449853
-0.0449722
-0.0449588
-0.0449454
-0.0449318
-0.044918
-0.0449041
-0.0448901
-0.0448759
-0.0448615
-0.044847
-0.0448324
-0.0448175
-0.0448025
-0.0447873
-0.044772
-0.0447563
-0.0447406
-0.0447246
-0.0447085
-0.044692
-0.0446754
-0.0446585
-0.0446414
-0.044624
-0.0446064
-0.0445885
-0.0445704
-0.0445519
-0.0445332
-0.0445141
-0.0444948
-0.0444751
-0.0444552
-0.0444348
-0.0444143
-0.0443932
-0.0443719
-0.0443501
-0.0443281
-0.0443055
-0.0442827
-0.0442593
-0.0442357
-0.0442115
-0.044187
-0.0441619
-0.0441366
-0.0441105
-0.0440843
-0.0440573
-0.04403
-0.0440021
-0.0439738
-0.0439448
-0.0439156
-0.0438855
-0.0438552
-0.043824
-0.0437926
-0.0437603
-0.0437277
-0.0436942
-0.0436604
-0.0436257
-0.0435906
-0.0435547
-0.0435184
-0.0434811
-0.0434435
-0.0434049
-0.0433659
-0.0433259
-0.0432855
-0.043244
-0.0432021
-0.0431591
-0.0431156
-0.043071
-0.043026
-0.0429798
-0.0429331
-0.0428852
-0.0428369
-0.0427873
-0.0427373
-0.042686
-0.0426341
-0.042581
-0.0425273
-0.0424723
-0.0424167
-0.0423598
-0.0423022
-0.0422433
-0.0421837
-0.0421226
-0.0420609
-0.0419977
-0.0419339
-0.0418685
-0.0418015
-0.0417323
-0.0416736
-0.0451697
-0.0451602
-0.0451524
-0.045144
-0.0451346
-0.0451245
-0.0451138
-0.0451027
-0.0450912
-0.0450793
-0.0450672
-0.0450549
-0.0450424
-0.0450297
-0.0450169
-0.0450039
-0.0449908
-0.0449776
-0.0449643
-0.0449508
-0.0449372
-0.0449235
-0.0449096
-0.0448956
-0.0448814
-0.0448671
-0.0448527
-0.0448381
-0.0448234
-0.0448085
-0.0447934
-0.0447781
-0.0447627
-0.0447471
-0.0447312
-0.0447152
-0.0446989
-0.0446825
-0.0446657
-0.0446488
-0.0446316
-0.0446142
-0.0445965
-0.0445785
-0.0445603
-0.0445418
-0.0445229
-0.0445038
-0.0444844
-0.0444647
-0.0444446
-0.0444242
-0.0444034
-0.0443823
-0.0443609
-0.044339
-0.0443168
-0.0442942
-0.0442712
-0.0442478
-0.044224
-0.0441997
-0.0441751
-0.0441499
-0.0441243
-0.0440982
-0.0440718
-0.0440447
-0.0440173
-0.0439892
-0.0439608
-0.0439317
-0.0439023
-0.0438721
-0.0438416
-0.0438103
-0.0437787
-0.0437463
-0.0437134
-0.0436799
-0.0436458
-0.043611
-0.0435758
-0.0435397
-0.0435032
-0.0434658
-0.043428
-0.0433892
-0.0433501
-0.0433099
-0.0432693
-0.0432277
-0.0431856
-0.0431424
-0.0430988
-0.043054
-0.0430088
-0.0429624
-0.0429156
-0.0428676
-0.042819
-0.0427693
-0.042719
-0.0426676
-0.0426155
-0.0425622
-0.0425083
-0.0424532
-0.0423974
-0.0423403
-0.0422825
-0.0422234
-0.0421636
-0.0421024
-0.0420405
-0.0419772
-0.0419131
-0.0418466
-0.0417787
-0.0417206
-0.0451795
-0.0451689
-0.0451609
-0.0451522
-0.0451425
-0.0451321
-0.0451211
-0.0451097
-0.0450979
-0.0450858
-0.0450736
-0.045061
-0.0450484
-0.0450356
-0.0450226
-0.0450096
-0.0449964
-0.0449832
-0.0449698
-0.0449563
-0.0449428
-0.044929
-0.0449152
-0.0449012
-0.0448871
-0.0448729
-0.0448586
-0.0448441
-0.0448294
-0.0448146
-0.0447997
-0.0447845
-0.0447693
-0.0447537
-0.0447381
-0.0447221
-0.0447061
-0.0446897
-0.0446733
-0.0446565
-0.0446395
-0.0446222
-0.0446048
-0.044587
-0.044569
-0.0445506
-0.0445321
-0.0445132
-0.0444941
-0.0444745
-0.0444547
-0.0444345
-0.0444141
-0.0443932
-0.0443721
-0.0443505
-0.0443286
-0.0443062
-0.0442836
-0.0442604
-0.044237
-0.044213
-0.0441887
-0.0441638
-0.0441387
-0.0441129
-0.0440868
-0.0440601
-0.0440331
-0.0440054
-0.0439774
-0.0439487
-0.0439197
-0.0438899
-0.0438598
-0.043829
-0.0437978
-0.0437658
-0.0437335
-0.0437003
-0.0436668
-0.0436325
-0.0435978
-0.0435621
-0.0435262
-0.0434893
-0.0434521
-0.0434139
-0.0433753
-0.0433357
-0.0432958
-0.0432547
-0.0432133
-0.0431707
-0.0431277
-0.0430836
-0.043039
-0.0429933
-0.0429472
-0.0428998
-0.042852
-0.042803
-0.0427535
-0.0427027
-0.0426515
-0.0425989
-0.0425458
-0.0424914
-0.0424365
-0.0423802
-0.0423233
-0.042265
-0.0422061
-0.0421458
-0.0420848
-0.0420224
-0.0419592
-0.0418937
-0.0418268
-0.0417696
-0.0451898
-0.0451782
-0.0451699
-0.0451608
-0.0451507
-0.04514
-0.0451287
-0.0451169
-0.0451049
-0.0450925
-0.04508
-0.0450673
-0.0450545
-0.0450416
-0.0450285
-0.0450154
-0.0450022
-0.0449889
-0.0449755
-0.044962
-0.0449484
-0.0449347
-0.044921
-0.044907
-0.044893
-0.0448789
-0.0448646
-0.0448502
-0.0448357
-0.044821
-0.0448062
-0.0447911
-0.044776
-0.0447606
-0.0447451
-0.0447294
-0.0447135
-0.0446973
-0.044681
-0.0446644
-0.0446476
-0.0446306
-0.0446133
-0.0445958
-0.044578
-0.0445599
-0.0445416
-0.0445229
-0.044504
-0.0444847
-0.0444652
-0.0444453
-0.0444251
-0.0444046
-0.0443836
-0.0443624
-0.0443408
-0.0443188
-0.0442964
-0.0442736
-0.0442504
-0.0442268
-0.0442028
-0.0441784
-0.0441534
-0.0441281
-0.0441023
-0.0440761
-0.0440494
-0.0440222
-0.0439945
-0.0439664
-0.0439376
-0.0439085
-0.0438786
-0.0438484
-0.0438175
-0.0437862
-0.0437541
-0.0437217
-0.0436884
-0.0436548
-0.0436204
-0.0435855
-0.0435499
-0.0435138
-0.0434769
-0.0434395
-0.0434012
-0.0433626
-0.0433229
-0.0432828
-0.0432418
-0.0432002
-0.0431576
-0.0431145
-0.0430703
-0.0430256
-0.0429799
-0.0429335
-0.0428861
-0.0428382
-0.0427891
-0.0427394
-0.0426886
-0.0426372
-0.0425845
-0.0425313
-0.0424768
-0.0424217
-0.0423653
-0.0423082
-0.0422498
-0.0421907
-0.0421302
-0.0420691
-0.0420066
-0.0419424
-0.0418763
-0.0418203
-0.0452008
-0.0451879
-0.0451793
-0.0451698
-0.0451593
-0.0451481
-0.0451364
-0.0451243
-0.045112
-0.0450994
-0.0450866
-0.0450737
-0.0450607
-0.0450477
-0.0450345
-0.0450213
-0.045008
-0.0449947
-0.0449813
-0.0449678
-0.0449542
-0.0449406
-0.0449268
-0.044913
-0.044899
-0.044885
-0.0448708
-0.0448565
-0.0448421
-0.0448275
-0.0448128
-0.044798
-0.0447829
-0.0447678
-0.0447524
-0.0447369
-0.0447211
-0.0447052
-0.044689
-0.0446727
-0.044656
-0.0446393
-0.0446222
-0.0446049
-0.0445873
-0.0445695
-0.0445513
-0.044533
-0.0445143
-0.0444954
-0.044476