/*--------------------------------*- C++ -*----------------------------------*\
  =========                 |
  \\      /  F ield         | OpenFOAM: The Open Source CFD Toolbox
   \\    /   O peration     | Website:  https://openfoam.org
    \\  /    A nd           | Version:  8
     \\/     M anipulation  |
\*---------------------------------------------------------------------------*/
FoamFile
{
    version     2.0;
    format      ascii;
    class       surfaceScalarField;
    location    "0.015368";
    object      phi;
}
// * * * * * * * * * * * * * * * * * * * * * * * * * * * * * * * * * * * * * //

dimensions      [1 0 -1 0 0 0 0];

internalField   nonuniform List<scalar> 
210510
(
0.00226063
7.97553e-05
0.0021389
0.000121729
0.00197288
0.000166017
0.00183933
0.00013355
0.00170155
0.000137787
0.00158031
0.000121234
0.0014688
0.000111512
0.00137631
9.24958e-05
0.00131368
6.26257e-05
0.0012859
2.77732e-05
0.001275
1.09005e-05
0.00126968
5.32409e-06
0.0012668
2.87658e-06
0.00126531
1.49249e-06
0.0012635
1.81012e-06
0.00125988
3.62079e-06
0.00125369
6.18614e-06
0.00124509
8.60271e-06
0.00123477
1.03214e-05
0.00122352
1.12479e-05
0.00121198
1.15388e-05
0.00120057
1.1416e-05
0.00118943
1.11343e-05
0.00117871
1.07189e-05
0.00116839
1.03211e-05
0.00115836
1.00317e-05
0.00114835
1.00047e-05
0.00113815
1.02051e-05
0.00112759
1.05629e-05
0.00111642
1.11698e-05
0.00110443
1.19876e-05
0.00109144
1.2988e-05
0.00107717
1.42727e-05
0.00106116
1.60097e-05
0.00104268
1.84733e-05
0.00102086
2.18265e-05
0.000993303
2.75556e-05
0.000958468
3.48347e-05
0.000916123
4.23454e-05
0.000861559
5.45641e-05
0.000789978
7.1581e-05
0.000695018
9.49597e-05
0.000569093
0.000125926
0.000407776
0.000161317
0.000212075
0.000195701
-5.89521e-06
0.000217971
-0.000207478
0.000201583
-0.000375258
0.000167781
-0.0005208
0.000145543
0.000120391
-0.000641191
0.00233435
0.000122481
0.00228818
0.000167897
0.00222531
0.000228886
0.00217319
0.000185665
0.00211896
0.000192021
0.00207039
0.000169808
0.00202452
0.000157382
0.0019823
0.000134714
0.00193852
0.0001064
0.00189375
7.25491e-05
0.00185452
5.01286e-05
0.00182293
3.69175e-05
0.00179713
2.86729e-05
0.001775
2.36201e-05
0.00175512
2.16963e-05
0.00173654
2.21936e-05
0.00171858
2.41466e-05
0.00170081
2.63784e-05
0.00168314
2.79909e-05
0.00166567
2.8713e-05
0.00164857
2.86384e-05
0.00163199
2.7994e-05
0.0016161
2.70281e-05
0.00160097
2.58443e-05
0.00158664
2.46545e-05
0.00157307
2.36069e-05
0.0015602
2.28665e-05
0.00154795
2.24578e-05
0.00153614
2.2376e-05
0.00152458
2.27251e-05
0.00151306
2.35107e-05
0.00150131
2.47381e-05
0.00148904
2.65382e-05
0.0014759
2.91566e-05
0.00146142
3.29546e-05
0.00144511
3.81277e-05
0.00142561
4.70561e-05
0.00140284
5.76088e-05
0.0013738
7.13834e-05
0.00133723
9.1136e-05
0.00128999
0.000118825
0.0012279
0.000157043
0.00114468
0.000209148
0.00102992
0.000276079
0.000872083
0.000353538
0.000670159
0.000419895
0.000423186
0.000448555
0.000141224
0.000449743
-0.000164785
0.000451552
0.000311182
-0.000355576
0.00235839
0.000153929
0.00232985
0.000196441
0.00229484
0.000263894
0.00226371
0.000216796
0.00223207
0.00022366
0.00220374
0.000198138
0.00217663
0.000184487
0.00215109
0.000160257
0.00212304
0.000134447
0.0020909
0.000104688
0.00205799
8.30464e-05
0.00202719
6.77174e-05
0.00199919
5.66675e-05
0.00197373
4.90789e-05
0.00195038
4.5053e-05
0.0019287
4.38706e-05
0.00190829
4.456e-05
0.00188877
4.58957e-05
0.00186993
4.68305e-05
0.00185166
4.69847e-05
0.00183395
4.63458e-05
0.00181687
4.50763e-05
0.0018005
4.33955e-05
0.0017849
4.14479e-05
0.00177008
3.94665e-05
0.00175607
3.76239e-05
0.00174286
3.60739e-05
0.00173043
3.48918e-05
0.00171869
3.41153e-05
0.00170755
3.38599e-05
0.00169684
3.42196e-05
0.00168632
3.52619e-05
0.00167572
3.71391e-05
0.00166474
4.01335e-05
0.001653
4.46926e-05
0.00164007
5.10633e-05
0.0016255
6.16204e-05
0.00160833
7.47782e-05
0.00158746
9.2259e-05
0.00156177
0.000116819
0.00152957
0.000151025
0.00148859
0.000198027
0.00143554
0.0002622
0.0013645
0.00034712
0.00126406
0.000453979
0.0011174
0.00056655
0.000908809
0.000657149
0.000638336
0.000720217
0.000318867
0.000771021
0.000671776
-4.17262e-05
0.00237122
0.00017905
0.00235006
0.000217606
0.00232736
0.00028659
0.00230585
0.000238307
0.00228437
0.000245141
0.00226518
0.00021733
0.00224664
0.000203021
0.00222913
0.000177771
0.00221038
0.000153193
0.00218915
0.00012592
0.00216596
0.000106241
0.00214197
9.16998e-05
0.00211812
8.05161e-05
0.00209514
7.20648e-05
0.00207336
6.68323e-05
0.00205286
6.43667e-05
0.00203355
6.38743e-05
0.00201521
6.42303e-05
0.00199766
6.43818e-05
0.00198073
6.39122e-05
0.00196439
6.26924e-05
0.00194865
6.08148e-05
0.00193354
5.84998e-05
0.00191908
5.59111e-05
0.00190528
5.32711e-05
0.00189215
5.07516e-05
0.00187973
4.84949e-05
0.00186803
4.65945e-05
0.00185703
4.5108e-05
0.00184672
4.41729e-05
0.00183697
4.39681e-05
0.0018276
4.46364e-05
0.00181837
4.63666e-05
0.00180904
4.94636e-05
0.00179929
5.44449e-05
0.00178877
6.15777e-05
0.00177773
7.26659e-05
0.00176406
8.84461e-05
0.00174822
0.000108094
0.00172897
0.000136069
0.00170522
0.000174782
0.00167554
0.000227708
0.00163803
0.000299705
0.00158935
0.000395803
0.00152209
0.00052124
0.00142017
0.000668469
0.00126366
0.000813655
0.00103905
0.000944824
0.000740665
0.00106941
0.00104272
0.000369718
0.00237897
0.000200528
0.00236196
0.000234611
0.00234599
0.000302566
0.00232997
0.000254326
0.00231449
0.000260619
0.00230078
0.00023104
0.00228753
0.00021627
0.00227503
0.000190278
0.00226184
0.000166377
0.00224728
0.000140481
0.0022314
0.000122126
0.00221428
0.00010882
0.00219608
9.8711e-05
0.00217749
9.06574e-05
0.00215922
8.51024e-05
0.00214169
8.18901e-05
0.00212506
8.05065e-05
0.00210925
8.00383e-05
0.00209412
7.95155e-05
0.00207951
7.85246e-05
0.00206537
7.68339e-05
0.00205171
7.44731e-05
0.00203853
7.16797e-05
0.00202581
6.863e-05
0.00201356
6.55178e-05
0.00200182
6.24972e-05
0.00199061
5.97004e-05
0.00197998
5.72291e-05
0.00196992
5.51648e-05
0.00196043
5.36654e-05
0.00195144
5.29586e-05
0.00194282
5.32501e-05
0.00193442
5.47732e-05
0.00192602
5.78562e-05
0.00191741
6.30556e-05
0.00190831
7.0676e-05
0.00189867
8.23067e-05
0.00188782
9.93025e-05
0.00187534
0.000120572
0.00186061
0.000150801
0.00184291
0.000192477
0.00182135
0.000249267
0.00179471
0.000326349
0.00176096
0.000429548
0.00171585
0.000566356
0.00164819
0.000736132
0.00154018
0.000921657
0.00137341
0.0011116
0.00112661
0.00131621
0.00139376
0.000775576
0.00238399
0.000219687
0.00236963
0.000248967
0.00235779
0.000314402
0.00234531
0.000266806
0.00233376
0.000272178
0.00232365
0.00024115
0.00231399
0.000225922
0.00230494
0.000199333
0.00229545
0.000175864
0.00228519
0.000150743
0.00227421
0.000133105
0.00226244
0.000120593
0.00224959
0.000111555
0.00223588
0.000104369
0.00222188
9.9106e-05
0.00220807
9.56955e-05
0.00219475
9.38245e-05
0.00218199
9.27984e-05
0.00216968
9.18291e-05
0.00215769
9.0511e-05
0.00214598
8.85527e-05
0.00213452
8.59335e-05
0.0021233
8.28927e-05
0.00211232
7.96149e-05
0.00210158
7.6258e-05
0.00209112
7.29509e-05
0.00208101
6.98165e-05
0.00207128
6.69593e-05
0.00206196
6.44867e-05
0.00205304
6.25772e-05
0.00204452
6.14819e-05
0.00203632
6.14498e-05
0.00202834
6.2754e-05
0.00202045
6.57422e-05
0.00201251
7.09947e-05
0.00200433
7.88636e-05
0.00199587
9.07662e-05
0.00198682
0.000108347
0.00197686
0.000130536
0.00196574
0.000161916
0.00195302
0.000205203
0.00193827
0.000264016
0.00192088
0.000343734
0.00189991
0.000450525
0.00187325
0.000593013
0.00183355
0.000775828
0.00176629
0.000988926
0.00165542
0.00122246
0.00147261
0.00149903
0.00167829
0.00118808
0.00238744
0.000237185
0.00237486
0.000261547
0.00236574
0.000323519
0.00235575
0.000276801
0.00234688
0.000281048
0.00233927
0.000248764
0.00233219
0.000233002
0.00232564
0.000205874
0.00231882
0.000182692
0.00231154
0.00015802
0.00230395
0.000140695
0.00229603
0.000128514
0.00228745
0.000120137
0.00227811
0.000113706
0.00226827
0.000108947
0.00225827
0.000105691
0.00224838
0.000103718
0.0022387
0.000102478
0.00222916
0.000101365
0.0022197
9.99779e-05
0.00221025
9.79992e-05
0.00220081
9.53754e-05
0.00219137
9.23365e-05
0.00218192
8.90613e-05
0.00217251
8.56654e-05
0.00216321
8.22544e-05
0.00215408
7.89449e-05
0.00214519
7.58442e-05
0.0021366
7.3086e-05
0.0021283
7.08679e-05
0.00212033
6.94549e-05
0.00211265
6.91267e-05
0.00210522
7.01873e-05
0.00209797
7.29899e-05
0.00209083
7.81359e-05
0.00208366
8.60384e-05
0.00207653
9.78909e-05
0.00206933
0.000115555
0.0020613
0.000138561
0.00205326
0.000169956
0.00204465
0.000213812
0.00203542
0.000273253
0.00202547
0.000353678
0.0020146
0.000461392
0.00200226
0.000605362
0.00198428
0.000793801
0.00194975
0.00102346
0.00188709
0.00128512
0.00176942
0.00161669
0.00188574
0.00156197
0.00238992
0.000253401
0.00237858
0.00027289
0.00237132
0.000330777
0.00236317
0.000284954
0.00235621
0.000288005
0.00235039
0.000254582
0.00234521
0.00023818
0.00234056
0.000210524
0.00233574
0.000187519
0.00233065
0.000163103
0.00232551
0.000145838
0.00232035
0.000133673
0.0023149
0.00012559
0.00230895
0.000119651
0.00230255
0.000115353
0.00229586
0.00011238
0.00228906
0.000110516
0.00228222
0.000109314
0.00227529
0.000108296
0.00226818
0.000107087
0.00226084
0.000105345
0.00225325
0.00010296
0.00224545
0.000100136
0.00223748
9.70366e-05
0.0022294
9.37447e-05
0.0022213
9.03513e-05
0.00221327
8.69734e-05
0.00220539
8.37292e-05
0.0021977
8.07723e-05
0.00219026
7.83135e-05
0.00218308
7.6635e-05
0.00217616
7.60412e-05
0.00216949
7.68556e-05
0.00216306
7.94275e-05
0.00215682
8.43678e-05
0.00215071
9.21533e-05
0.00214477
0.000103831
0.0021393
0.00012102
0.00213302
0.000144847
0.00212747
0.000175508
0.00212222
0.000219057
0.00211732
0.000278158
0.00211313
0.00035786
0.00210997
0.000464555
0.00210827
0.00060706
0.00210653
0.000795547
0.00209715
0.00103283
0.00207319
0.00130908
0.00201294
0.00167695
0.00201541
0.00188327
0.00239175
0.00026858
0.00238129
0.000283343
0.00237533
0.000336741
0.00236858
0.000291707
0.00236303
0.000293548
0.00235855
0.000259067
0.00235482
0.000241914
0.00235162
0.000213717
0.00234834
0.000190797
0.00234494
0.000166513
0.00234161
0.000149167
0.00233844
0.000136835
0.00233523
0.000128801
0.00233176
0.000123122
0.00232795
0.000119165
0.00232385
0.000116476
0.00231957
0.0001148
0.00231514
0.000113749
0.0023105
0.00011293
0.00230556
0.000112025
0.00230022
0.000110693
0.00229443
0.000108743
0.00228827
0.000106296
0.00228182
0.000103493
0.00227516
0.000100406
0.00226839
9.71157e-05
0.00226162
9.37469e-05
0.0022549
9.04462e-05
0.00224829
8.7379e-05
0.00224185
8.47586e-05
0.0022356
8.28786e-05
0.00222958
8.20625e-05
0.00222379
8.26517e-05
0.00221822
8.49919e-05
0.00221291
8.96851e-05
0.00220781
9.72526e-05
0.00220299
0.000108651
0.00219868
0.000125328
0.00219427
0.000149259
0.00219069
0.00017908
0.00218818
0.000221568
0.00218676
0.000279578
0.00218709
0.000357529
0.0021899
0.000461746
0.00219624
0.00060072
0.00220651
0.000785275
0.00221591
0.00102344
0.00222105
0.00130394
0.00221046
0.00168754
0.00208191
0.00214396
0.00239312
0.000282877
0.00238334
0.000293125
0.00237826
0.000341821
0.00237258
0.000297386
0.00236812
0.000298008
0.00236466
0.000262529
0.00236205
0.000244526
0.00235999
0.00021577
0.00235794
0.000192853
0.00235583
0.000168626
0.00235386
0.000151129
0.00235217
0.00013853
0.00235058
0.00013039
0.0023489
0.000124801
0.00234701
0.00012106
0.00234488
0.000118605
0.00234255
0.00011713
0.00234003
0.000116264
0.00233729
0.000115668
0.00233424
0.000115076
0.00233074
0.000114193
0.00232671
0.000112771
0.00232221
0.000110802
0.00231733
0.000108371
0.00231217
0.000105569
0.00230681
0.000102472
0.00230135
9.92018e-05
0.00229586
9.59362e-05
0.00229039
9.28544e-05
0.00228498
9.01649e-05
0.0022797
8.81577e-05
0.0022746
8.71689e-05
0.00226969
8.75587e-05
0.00226501
8.96745e-05
0.00226059
9.40994e-05
0.00225647
0.000101377
0.0022527
0.000112416
0.00224964
0.000128394
0.00224711
0.000151792
0.00224484
0.000181347
0.0022445
0.00022191
0.00224598
0.000278092
0.00224989
0.000353619
0.00225734
0.000454299
0.00226973
0.000588329
0.00228875
0.000766251
0.00231186
0.00100034
0.00233778
0.00127801
0.002364
0.00166132
0.00208922
0.00235668
0.00239415
0.000296418
0.0023849
0.000302374
0.00238041
0.000346307
0.00237556
0.000302243
0.00237196
0.000301604
0.0023693
0.000265184
0.00236758
0.000246247
0.00236643
0.000216924
0.00236534
0.000193938
0.00236425
0.00016972
0.00236334
0.000152041
0.00236274
0.000139124
0.00236235
0.000130786
0.00236198
0.000125165
0.00236151
0.000121533
0.00236087
0.000119248
0.00236004
0.000117953
0.00235904
0.000117268
0.00235782
0.000116885
0.00235633
0.000116567
0.00235445
0.000116073
0.00235207
0.000115155
0.00234918
0.00011369
0.00234586
0.000111689
0.00234218
0.00010925
0.00233821
0.000106442
0.00233404
0.000103374
0.00232974
0.000100238
0.00232536
9.7228e-05
0.00232098
9.45492e-05
0.00231666
9.248e-05
0.00231246
9.13618e-05
0.00230845
9.1573e-05
0.00230466
9.34686e-05
0.00230115
9.76084e-05
0.00229798
0.00010454
0.00229525
0.000115152
0.00229331
0.000130332
0.00229237
0.000152731
0.00229135
0.000182371
0.00229274
0.000220522
0.00229658
0.000274249
0.00230336
0.000346841
0.00231435
0.000443312
0.0023312
0.000571471
0.00235643
0.000741023
0.00238932
0.00096745
0.00242938
0.00123795
0.00248005
0.00161065
0.00204893
0.00252034
0.00239488
0.000309322
0.00238607
0.000311192
0.00238199
0.000350387
0.00237775
0.000306476
0.00237487
0.00030449
0.00237287
0.000267184
0.00237186
0.000247251
0.00237142
0.000217363
0.00237111
0.000194247
0.00237083
0.000170003
0.00237074
0.000152128
0.00237099
0.000138873
0.0023715
0.000130283
0.00237211
0.00012455
0.00237271
0.000120942
0.00237319
0.00011876
0.00237354
0.000117605
0.00237374
0.000117075
0.00237374
0.00011688
0.00237352
0.00011679
0.00237298
0.000116607
0.00237203
0.000116108
0.0023706
0.000115117
0.00236872
0.000113572
0.00236643
0.000111545
0.00236377
0.000109101
0.00236081
0.00010633
0.00235764
0.000103411
0.00235432
0.000100545
0.00235093
9.79368e-05
0.00234756
9.58548e-05
0.00234428
9.46404e-05
0.00234116
9.46893e-05
0.00233826
9.637e-05
0.00233565
0.000100218
0.00233342
0.000106771
0.00233167
0.000116903
0.00233069
0.000131307
0.00233087
0.00015256
0.00233159
0.000181646
0.00233411
0.000218008
0.00233969
0.000268662
0.00234878
0.000337749
0.00236248
0.00042962
0.00238259
0.000551357
0.00241209
0.00071152
0.00245179
0.000927751
0.00250152
0.00118822
0.00256775
0.00154442
0.00197666
0.00264003
0.0023954
0.00032168
0.00238693
0.000319661
0.00238312
0.000354199
0.00237935
0.000310242
0.00237706
0.000306781
0.00237562
0.000268627
0.00237519
0.000247676
0.00237532
0.00021723
0.00237564
0.00019393
0.00237601
0.000169632
0.00237658
0.000151557
0.0023775
0.00013796
0.00237869
0.000129087
0.00238006
0.000123188
0.00238146
0.000119539
0.00238282
0.0001174
0.00238408
0.000116342
0.00238523
0.00011593
0.00238622
0.000115888
0.00238702
0.000115989
0.00238757
0.000116057
0.00238778
0.000115895
0.00238758
0.000115321
0.00238694
0.000114213
0.00238588
0.000112605
0.00238442
0.000110556
0.00238261
0.000108141
0.00238051
0.00010551
0.00237821
0.000102844
0.0023758
0.000100348
0.00237336
9.82928e-05
0.00237099
9.70171e-05
0.00236875
9.69267e-05
0.00236671
9.84047e-05
0.00236497
0.000101966
0.00236361
0.000108125
0.00236278
0.00011774
0.00236263
0.00013145
0.00236387
0.000151322
0.0023662
0.000179317
0.00236952
0.00021469
0.00237641
0.000261772
0.00238724
0.000326916
0.00240304
0.000413818
0.00242549
0.000528912
0.0024578
0.000679207
0.00250201
0.000883541
0.00255824
0.00113199
0.00263416
0.0014685
0.00188508
0.00272573
0.00239575
0.000333554
0.00238756
0.000327845
0.0023839
0.000357856
0.00238048
0.000313672
0.00237869
0.000308562
0.00237774
0.000269586
0.00237778
0.000247629
0.00237838
0.000216634
0.00237921
0.000193104
0.00238011
0.000168724
0.00238122
0.00015045
0.00238266
0.000136517
0.0023844
0.000127346
0.00238635
0.000121246
0.00238838
0.000117507
0.00239042
0.000115361
0.0023924
0.000114355
0.00239431
0.000114027
0.00239609
0.000114108
0.00239771
0.000114368
0.00239912
0.000114643
0.00240026
0.000114757
0.00240105
0.000114533
0.00240144
0.000113822
0.00240143
0.000112613
0.00240104
0.000110952
0.00240027
0.000108904
0.00239919
0.000106589
0.00239788
0.000104162
0.00239641
0.000101818
0.00239487
9.98311e-05
0.00239335
9.8534e-05
0.00239194
9.83348e-05
0.00239072
9.96257e-05
0.00238978
0.000102905
0.00238924
0.000108666
0.00238925
0.000117731
0.00238996
0.000130737
0.00239206
0.000149222
0.0023957
0.000175683
0.0024
0.000210385
0.00240765
0.000254123
0.00241968
0.000314886
0.00243705
0.000396447
0.00246116
0.000504801
0.00249517
0.000645198
0.00254207
0.000836641
0.00260235
0.00107172
0.00268383
0.00138701
0.00178242
0.00278649
0.00239595
0.000344999
0.00238801
0.000335786
0.00238442
0.000361443
0.00238124
0.000316858
0.0023799
0.000309899
0.00237936
0.000270124
0.0023798
0.000247197
0.00238077
0.00021566
0.00238202
0.000191857
0.00238337
0.000167373
0.00238491
0.000148902
0.00238679
0.000134643
0.00238897
0.000125169
0.00239137
0.000118845
0.00239389
0.00011498
0.00239647
0.000112785
0.00239903
0.000111794
0.00240154
0.000111518
0.00240395
0.000111695
0.00240623
0.000112089
0.00240834
0.000112539
0.00241021
0.000112882
0.00241179
0.000112953
0.00241302
0.000112591
0.00241389
0.000111746
0.00241439
0.000110444
0.00241456
0.000108744
0.0024144
0.000106742
0.00241399
0.000104572
0.0024134
0.000102412
0.0024127
0.000100529
0.00241199
9.9248e-05
0.00241135
9.89697e-05
0.00241089
0.000100089
0.0024107
0.000103091
0.00241092
0.00010845
0.0024117
0.000116946
0.0024132
0.000129237
0.00241601
0.000146419
0.00242046
0.000171227
0.00242625
0.000204592
0.0024342
0.00024618
0.00244698
0.000302108
0.00246532
0.000378105
0.00249058
0.000479535
0.00252553
0.00061025
0.00257373
0.000788439
0.00263615
0.0010093
0.00272025
0.00130291
0.00167416
0.00282852
0.00239604
0.000356059
0.00238831
0.000343516
0.00238474
0.000365009
0.00238173
0.000319868
0.00238077
0.000310857
0.0023806
0.000270299
0.00238134
0.00024645
0.00238263
0.000214373
0.00238423
0.000190262
0.00238595
0.000165651
0.00238787
0.000146985
0.0023901
0.000132414
0.00239263
0.000122638
0.0023954
0.000116075
0.00239832
0.000112057
0.00240132
0.000109782
0.00240434
0.000108774
0.00240734
0.000108526
0.00241025
0.000108777
0.00241306
0.000109281
0.00241572
0.000109879
0.00241819
0.000110416
0.0024204
0.000110738
0.00242231
0.00011068
0.0024239
0.000110162
0.00242515
0.000109188
0.00242609
0.000107805
0.00242674
0.000106098
0.00242713
0.00010418
0.00242733
0.000102215
0.0024274
0.000100457
0.00242743
9.92186e-05
0.00242751
9.88838e-05
0.00242776
9.98446e-05
0.00242827
0.000102577
0.00242918
0.00010754
0.00243067
0.000115463
0.00243287
0.000127029
0.00243622
0.000143077
0.00244141
0.000166034
0.00244839
0.000197607
0.00245684
0.000237729
0.00246984
0.000289113
0.00248869
0.000359252
0.00251453
0.000453697
0.0025499
0.000574886
0.00259842
0.000739916
0.00266156
0.000946156
0.00274618
0.00121829
0.00156408
0.00285626
0.00239602
0.00036677
0.00238848
0.000351057
0.00238491
0.000368581
0.00238202
0.000322752
0.00238137
0.000311508
0.0023815
0.000270168
0.00238252
0.000245436
0.00238407
0.000212822
0.00238596
0.000188372
0.002388
0.000163614
0.00239023
0.000144755
0.00239275
0.000129886
0.00239558
0.000119813
0.00239865
0.000113004
0.00240189
0.000108816
0.00240523
0.000106438
0.00240862
0.000105389
0.002412
0.000105148
0.00241532
0.000105452
0.00241855
0.000106047
0.00242166
0.000106769
0.00242461
0.000107472
0.00242734
0.000108008
0.00242981
0.000108213
0.00243198
0.000107989
0.00243385
0.000107316
0.00243543
0.000106226
0.00243674
0.000104791
0.00243781
0.000103111
0.00243869
0.000101335
0.00243944
9.9702e-05
0.00244015
9.85116e-05
0.0024409
9.81323e-05
0.0024418
9.89476e-05
0.00244295
0.000101422
0.00244449
0.000106002
0.00244659
0.00011336
0.00244943
0.000124192
0.00245328
0.000139224
0.00245903
0.000160283
0.00246684
0.000189799
0.00247629
0.000228283
0.00248899
0.000276406
0.00250787
0.000340371
0.00253386
0.000427713
0.00256906
0.000539687
0.00261717
0.000691807
0.00268001
0.000883316
0.00276369
0.0011346
0.00145476
0.00287301
0.00239592
0.000377164
0.00238855
0.00035843
0.00238495
0.000372174
0.00238217
0.000325535
0.00238176
0.00031192
0.00238214
0.000269784
0.00238339
0.000244192
0.00238516
0.000211043
0.0023873
0.000186231
0.00238961
0.00016131
0.00239211
0.000142259
0.00239489
0.000127106
0.00239796
0.000116744
0.00240127
0.000109687
0.00240477
0.000105318
0.00240839
0.000102821
0.00241206
0.000101713
0.00241575
0.000101462
0.0024194
0.0001018
0.00242298
0.000102468
0.00242646
0.000103295
0.00242979
0.000104137
0.00243294
0.000104856
0.00243586
0.000105293
0.00243852
0.000105334
0.00244089
0.000104939
0.002443
0.000104121
0.00244485
0.000102937
0.00244648
0.000101478
0.00244794
9.98781e-05
0.00244928
9.83611e-05
0.00245058
9.72149e-05
0.00245192
9.67931e-05
0.0024534
9.74677e-05
0.00245513
9.96931e-05
0.00245723
0.000103902
0.00245988
0.000110709
0.00246327
0.000120803
0.00246764
0.000134856
0.00247373
0.000154192
0.002482
0.000181526
0.0024924
0.000217879
0.00250521
0.000263599
0.0025236
0.000321987
0.00254923
0.000402073
0.00258381
0.000505109
0.00263092
0.0006447
0.00269258
0.000821653
0.00277431
0.00105288
0.00134796
0.00288111
0.00239573
0.000387269
0.00238851
0.000365656
0.0023849
0.000375785
0.00238221
0.000328224
0.00238196
0.000312165
0.00238255
0.0002692
0.002384
0.000242735
0.00238598
0.000209069
0.00238833
0.000183874
0.00239087
0.000158775
0.0023936
0.000139532
0.00239659
0.000124109
0.00239987
0.000113468
0.00240339
0.000106166
0.0024071
0.000101611
0.00241093
9.89844e-05
0.00241484
9.78037e-05
0.00241878
9.75286e-05
0.00242269
9.7886e-05
0.00242655
9.86084e-05
0.00243032
9.9522e-05
0.00243398
0.000100484
0.00243747
0.000101362
0.00244076
0.000102004
0.00244381
0.000102285
0.0024466
0.000102146
0.00244914
0.000101581
0.00245145
0.000100633
0.00245354
9.93791e-05
0.00245548
9.79425e-05
0.00245731
9.6531e-05
0.0024591
9.54209e-05
0.00246094
9.49531e-05
0.00246292
9.54881e-05
0.00246515
9.74653e-05
0.00246775
0.000101307
0.00247088
0.000107577
0.00247474
0.000116937
0.00247956
0.000130042
0.00248586
0.000147891
0.00249448
0.000172902
0.0025056
0.000206762
0.00251892
0.000250282
0.00253644
0.000304461
0.00256137
0.000377152
0.00259493
0.00047154
0.00264053
0.000599105
0.00270033
0.000761852
0.00277936
0.000973855
0.00124486
0.00288245
0.00239548
0.000397111
0.00238838
0.000372758
0.00238475
0.000379411
0.00238216
0.00033082
0.00238202
0.000312298
0.00238276
0.000268462
0.00238441
0.00024108
0.00238656
0.000206925
0.00238911
0.000181327
0.00239184
0.00015604
0.00239477
0.000136604
0.00239795
0.000120925
0.0024014
0.000110016
0.00240509
0.000102476
0.00240897
9.7734e-05
0.00241298
9.49718e-05
0.00241708
9.37072e-05
0.00242121
9.3397e-05
0.00242534
9.37595e-05
0.00242943
9.45221e-05
0.00243344
9.55065e-05
0.00243735
9.65705e-05
0.00244113
9.75873e-05
0.00244472
9.84112e-05
0.00244809
9.89114e-05
0.00245123
9.90097e-05
0.00245413
9.86829e-05
0.00245681
9.79566e-05
0.00245929
9.6897e-05
0.00246162
9.56141e-05
0.00246385
9.42998e-05
0.00246605
9.32178e-05
0.00246831
9.26979e-05
0.0024707
9.30898e-05
0.00247335
9.48173e-05
0.00247637
9.82926e-05
0.00247991
0.000104034
0.00248417
0.000112672
0.00248937
0.000124848
0.00249587
0.000141388
0.00250466
0.000164116
0.002516
0.00019542
0.00252994
0.000236344
0.00254717
0.000287225
0.00257086
0.00035347
0.00260312
0.000439271
0.00264683
0.000555396
0.00270427
0.00070442
0.00278003
0.000898096
0.00114617
0.00287872
0.00239516
0.000406714
0.00238816
0.000379755
0.00238452
0.00038305
0.00238202
0.000333323
0.00238197
0.00031234
0.00238284
0.000267599
0.00238467
0.000239252
0.00238696
0.00020463
0.00238967
0.000178616
0.00239257
0.000153137
0.00239568
0.000133499
0.00239903
0.000117578
0.00240263
0.000106415
0.00240646
9.86445e-05
0.00241048
9.37179e-05
0.00241463
9.08172e-05
0.00241888
8.94607e-05
0.00242317
8.91066e-05
0.00242746
8.94624e-05
0.00243173
9.02524e-05
0.00243595
9.12942e-05
0.00244007
9.24459e-05
0.00244407
9.35845e-05
0.00244791
9.45703e-05
0.00245156
9.52691e-05
0.00245498
9.55882e-05
0.00245817
9.54865e-05
0.00246116
9.49728e-05
0.00246396
9.40998e-05
0.00246661
9.29645e-05
0.00246916
9.17424e-05
0.0024717
9.06831e-05
0.00247429
9.01055e-05
0.00247703
9.03504e-05
0.00248002
9.18263e-05
0.00248338
9.49355e-05
0.00248725
0.000100157
0.00249184
0.000108085
0.00249734
0.000119345
0.00250407
0.000134657
0.00251281
0.000155379
0.00252423
0.000183999
0.00253862
0.000221951
0.00255591
0.000269943
0.00257829
0.000331085
0.00260894
0.000408627
0.00265051
0.00051382
0.00270523
0.000649705
0.00277728
0.000826043
0.00105235
0.0028711
0.00239477
0.000416103
0.00238786
0.000386667
0.00238421
0.000386704
0.0023818
0.000335728
0.00238184
0.000312304
0.00238281
0.000266628
0.00238479
0.00023727
0.00238723
0.000202197
0.00239008
0.000175766
0.00239312
0.000150095
0.00239637
0.000130246
0.00239986
0.000114088
0.00240359
0.000102683
0.00240754
9.46944e-05
0.00241167
8.95883e-05
0.00241594
8.65482e-05
0.00242031
8.5094e-05
0.00242473
8.46894e-05
0.00242916
8.50291e-05
0.00243358
8.58357e-05
0.00243795
8.69232e-05
0.00244224
8.81497e-05
0.00244643
8.93949e-05
0.00245048
9.0525e-05
0.00245434
9.14044e-05
0.002458
9.19292e-05
0.00246145
9.20418e-05
0.00246469
9.17338e-05
0.00246774
9.1043e-05
0.00247065
9.00522e-05
0.00247348
8.89204e-05
0.00247628
8.7882e-05
0.00247914
8.72445e-05
0.00248215
8.73409e-05
0.00248541
8.85649e-05
0.00248903
9.13099e-05
0.00249317
9.60217e-05
0.002498
0.000103254
0.00250374
0.000113611
0.00251064
0.000127752
0.00251927
0.000146747
0.00253063
0.000172643
0.00254498
0.000207599
0.00256249
0.000252432
0.00258439
0.000309184
0.00261285
0.00038017
0.0026521
0.000474573
0.00270386
0.000597944
0.00277194
0.000757956
0.000963818
0.00286048
0.00239433
0.000425299
0.00238748
0.000393514
0.00238382
0.00039037
0.00238152
0.000338025
0.00238163
0.000312199
0.00238269
0.000265559
0.00238481
0.000235153
0.00238738
0.000199628
0.00239036
0.000172785
0.00239353
0.000146929
0.0023969
0.000126875
0.0024005
0.000110486
0.00240434
9.88399e-05
0.00240839
9.06437e-05
0.00241262
8.53656e-05
0.00241698
8.21874e-05
0.00242144
8.06316e-05
0.00242596
8.01718e-05
0.0024305
8.04882e-05
0.00243503
8.13023e-05
0.00243953
8.24252e-05
0.00244396
8.37149e-05
0.00244831
8.50533e-05
0.00245252
8.63116e-05
0.00245657
8.73554e-05
0.00246042
8.80724e-05
0.00246408
8.83899e-05
0.00246753
8.82823e-05
0.0024708
8.77711e-05
0.00247393
8.69245e-05
0.00247696
8.58844e-05
0.00247998
8.4869e-05
0.00248305
8.41734e-05
0.00248627
8.41227e-05
0.00248973
8.50971e-05
0.00249356
8.74816e-05
0.00249789
9.16943e-05
0.0025029
9.82482e-05
0.00250878
0.000107722
0.0025158
0.000120732
0.00252438
0.00013817
0.00253545
0.000161572
0.00254959
0.000193459
0.00256723
0.000234793
0.00258866
0.000287755
0.00261564
0.000353188
0.00265206
0.000438158
0.00270074
0.000549262
0.00276477
0.000693924
0.000880705
0.00284788
0.00239384
0.000434325
0.00238703
0.000400319
0.00238336
0.000394039
0.00238118
0.000340205
0.00238135
0.000312035
0.0023825
0.000264407
0.00238474
0.000232913
0.00238744
0.000196929
0.00239054
0.00016968
0.00239383
0.000143641
0.0023973
0.0001234
0.00240099
0.000106803
0.00240491
9.4913e-05
0.00240905
8.65098e-05
0.00241335
8.10663e-05
0.00241778
7.77522e-05
0.00242232
7.6094e-05
0.00242692
7.55759e-05
0.00243154
7.58634e-05
0.00243617
7.66776e-05
0.00244076
7.78268e-05
0.00244531
7.91691e-05
0.00244977
8.05883e-05
0.00245413
8.19608e-05
0.00245833
8.31542e-05
0.00246235
8.40506e-05
0.00246617
8.45644e-05
0.0024698
8.46526e-05
0.00247325
8.43201e-05
0.00247656
8.36197e-05
0.00247977
8.26757e-05
0.00248295
8.16889e-05
0.00248618
8.09407e-05
0.00248956
8.07476e-05
0.00249318
8.14777e-05
0.00249715
8.35078e-05
0.00250161
8.72344e-05
0.00250673
9.31314e-05
0.0025127
0.000101747
0.00251977
0.000113661
0.00252829
0.00012965
0.00253897
0.000150895
0.00255276
0.000179666
0.00257002
0.000217539
0.0025913
0.000266473
0.00261734
0.000327147
0.00265109
0.000404407
0.00269626
0.000504094
0.00275612
0.000634063
0.000803006
0.00283382
0.00239328
0.000443205
0.00238651
0.000407097
0.00238285
0.000397698
0.00238079
0.000342261
0.002381
0.000311822
0.00238223
0.000263183
0.00238458
0.000230563
0.0023874
0.000194105
0.00239063
0.00016645
0.00239404
0.000140231
0.00239762
0.000119824
0.00240137
0.000103047
0.00240536
9.09316e-05
0.00240954
8.23223e-05
0.0024139
7.67087e-05
0.0024184
7.32568e-05
0.00242299
7.14989e-05
0.00242765
7.09202e-05
0.00243234
7.11746e-05
0.00243703
7.19827e-05
0.00244171
7.315e-05
0.00244634
7.45353e-05
0.0024509
7.60247e-05
0.00245537
7.74983e-05
0.00245969
7.88274e-05
0.00246385
7.98911e-05
0.00246782
8.05928e-05
0.0024716
8.0873e-05
0.00247521
8.07196e-05
0.00247866
8.01691e-05
0.002482
7.93279e-05
0.00248531
7.83783e-05
0.00248867
7.7586e-05
0.00249216
7.72587e-05
0.00249588
7.77527e-05
0.00249995
7.94376e-05
0.00250449
8.26925e-05
0.00250967
8.79563e-05
0.00251567
9.5743e-05
0.00252273
0.0001066
0.00253116
0.000121223
0.00254148
0.000140577
0.00255473
0.000166414
0.00257144
0.000200827
0.00259232
0.000245593
0.00261759
0.000301882
0.00264959
0.000372401
0.00269122
0.000462465
0.00274648
0.000578805
0.000730694
0.00281879
0.00239268
0.000451965
0.00238593
0.000413843
0.0023823
0.000401328
0.00238036
0.000344204
0.00238061
0.000311567
0.0023819
0.000261896
0.00238435
0.000228116
0.00238729
0.000191164
0.00239064
0.000163097
0.00239417
0.000136703
0.00239785
0.000116143
0.00240168
9.92146e-05
0.00240572
8.68992e-05
0.00240994
7.80972e-05
0.00241433
7.23181e-05
0.00241886
6.87297e-05
0.00242349
6.68682e-05
0.00242819
6.62216e-05
0.00243292
6.64389e-05
0.00243767
6.72355e-05
0.00244241
6.84133e-05
0.00244711
6.98332e-05
0.00245175
7.13833e-05
0.0024563
7.29461e-05
0.00246073
7.43978e-05
0.00246501
7.56168e-05
0.0024691
7.64984e-05
0.00247301
7.69671e-05
0.00247673
7.69936e-05
0.0024803
7.65981e-05
0.00248376
7.5868e-05
0.00248718
7.49664e-05
0.00249062
7.41418e-05
0.00249419
7.36915e-05
0.00249798
7.3961e-05
0.0025021
7.53124e-05
0.00250668
7.81115e-05
0.00251187