/*--------------------------------*- C++ -*----------------------------------*\
  =========                 |
  \\      /  F ield         | OpenFOAM: The Open Source CFD Toolbox
   \\    /   O peration     | Website:  https://openfoam.org
    \\  /    A nd           | Version:  8
     \\/     M anipulation  |
\*---------------------------------------------------------------------------*/
FoamFile
{
    version     2.0;
    format      ascii;
    class       volVectorField;
    location    "0.015368";
    object      U;
}
// * * * * * * * * * * * * * * * * * * * * * * * * * * * * * * * * * * * * * //

dimensions      [0 1 -1 0 0 0 0];

internalField   nonuniform List<vector> 
106000
(
(12.5796 -0.152731 0)
(11.8335 0.0218791 0)
(11.073 0.0756765 0)
(10.2411 0.0680473 3.12528e-18)
(9.49407 0.068373 -7.21725e-18)
(8.79753 0.0619013 8.09998e-18)
(8.16551 0.0582802 4.45123e-18)
(7.60617 0.051423 -4.27308e-23)
(7.16243 0.0375974 -2.04206e-17)
(6.95231 0.0185184 3.67775e-23)
(6.87926 0.0080086 1.01417e-17)
(6.8411 0.00728999 1.0073e-17)
(6.81826 0.00944844 -9.96457e-18)
(6.80726 0.0110917 0)
(6.79779 0.013394 0)
(6.78034 0.0167614 -1.92654e-17)
(6.74935 0.0201615 1.91714e-17)
(6.70393 0.023194 0)
(6.64735 0.025608 0)
(6.58422 0.0273502 0)
(6.51892 0.0285314 0)
(6.45324 0.0293509 0)
(6.38865 0.0300157 0)
(6.32618 0.0306863 0)
(6.26587 0.0314692 -1.9599e-17)
(6.20715 0.0323885 1.96838e-17)
(6.14929 0.0335052 0)
(6.09006 0.0346838 -3.97916e-17)
(6.02974 0.0356713 1.50727e-22)
(5.96698 0.0364348 8.07277e-17)
(5.90084 0.036729 -1.41308e-22)
(5.83129 0.0361836 -4.11174e-17)
(5.75814 0.0344765 -4.15448e-17)
(5.68044 0.0312555 9.97379e-23)
(5.59622 0.0261798 4.25302e-17)
(5.50252 0.0181214 0)
(5.39577 0.0121175 0)
(5.27232 -0.00505132 0)
(5.12837 -0.0283327 0)
(4.95294 -0.0584612 0)
(4.73228 -0.0989712 -4.84157e-17)
(4.44713 -0.152246 5.05778e-17)
(4.06901 -0.220142 0)
(3.56628 -0.304994 0)
(2.93284 -0.404902 0)
(2.16903 -0.525088 0)
(1.28525 -0.593801 7.80893e-17)
(0.216675 -0.553867 -7.07267e-17)
(-0.849978 -0.524267 0)
(-1.54635 -0.702091 -6.24893e-17)
(12.7793 0.0726057 4.3995e-20)
(12.4006 0.0924907 1.57968e-19)
(12.1494 0.117862 -5.71002e-24)
(11.8138 0.0962612 -7.23605e-19)
(11.5206 0.097654 -1.75716e-18)
(11.2409 0.0868228 2.02776e-18)
(10.9853 0.0798763 0)
(10.7495 0.0681854 0)
(10.5279 0.0533668 0)
(10.2849 0.0347277 -5.32749e-18)
(10.0601 0.0211656 5.32201e-18)
(9.8764 0.0134623 0)
(9.72743 0.0097245 0)
(9.60099 0.00820769 0)
(9.4884 0.00839691 1.02138e-17)
(9.38376 0.00962872 -2.02513e-17)
(9.28277 0.0115058 1.00894e-17)
(9.18285 0.0133501 1.00971e-17)
(9.08347 0.014712 -1.01296e-17)
(8.98521 0.0154983 0)
(8.88919 0.015785 0)
(8.7961 0.0157546 0)
(8.70661 0.0155979 1.02852e-17)
(8.62128 0.0153639 -2.06388e-17)
(8.54023 0.0151641 2.07084e-17)
(8.46328 0.015062 -1.03925e-17)
(8.38997 0.0151514 0)
(8.32005 0.0153822 0)
(8.25279 0.0156978 0)
(8.18727 0.0161581 0)
(8.12254 0.0166651 2.14682e-17)
(8.05764 0.0171222 -2.16752e-17)
(7.99149 0.0175311 0)
(7.92268 0.0179269 0)
(7.84928 0.0183882 0)
(7.76854 0.0189392 2.26166e-17)
(7.67656 0.0217557 -2.28847e-17)
(7.57007 0.0212411 0)
(7.4438 0.0221862 0)
(7.28885 0.0236939 0)
(7.09318 0.0259386 2.41345e-17)
(6.84017 0.0291977 -2.45381e-17)
(6.50621 0.0336105 0)
(6.055 0.0372309 0)
(5.42725 0.034494 2.66486e-17)
(4.58711 0.0167147 -2.81593e-17)
(3.5195 -0.00655141 -3.07686e-17)
(2.12797 -0.0145333 3.51473e-17)
(0.407935 0.0225207 3.89821e-17)
(-0.892679 -0.0518394 8.84266e-22)
(12.8533 0.0906537 0)
(12.5709 0.10667 0)
(12.4476 0.141612 0)
(12.2383 0.116399 0)
(12.0663 0.120075 -1.01896e-18)
(11.8994 0.10653 1.18733e-18)
(11.7488 0.0988553 0)
(11.608 0.0853428 0)
(11.4739 0.0691531 3.16476e-18)
(11.315 0.0504502 -6.65727e-18)
(11.1396 0.0383931 6.86148e-18)
(10.9695 0.0306682 -6.9774e-18)
(10.8136 0.0250891 3.49136e-18)
(10.6717 0.0215331 0)
(10.5407 0.0203169 6.90438e-18)
(10.4184 0.0207302 -6.90595e-18)
(10.3028 0.0219893 0)
(10.1922 0.023438 -7.00697e-18)
(10.0856 0.0244891 1.41633e-17)
(9.98277 0.0249831 -7.15462e-18)
(9.88352 0.0249728 0)
(9.78797 0.0246065 0)
(9.69648 0.0239884 0)
(9.60931 0.0232381 7.37823e-18)
(9.52647 0.0225045 -7.42409e-18)
(9.44786 0.0218813 1.4941e-17)
(9.37321 0.0214661 -5.85798e-23)
(9.30271 0.0212503 -5.81285e-23)
(9.23582 0.0212223 -1.52566e-17)
(9.17217 0.0214467 -1.53871e-17)
(9.11103 0.0218914 5.4634e-23)
(9.05129 0.0225329 1.56898e-17)
(8.99166 0.0234068 0)
(8.93063 0.0246056 0)
(8.86631 0.0262995 -1.61731e-17)
(8.7963 0.0283435 1.63447e-17)
(8.71707 0.0322115 0)
(8.62555 0.0369123 0)
(8.51674 0.043094 0)
(8.38294 0.0517236 0)
(8.21384 0.0644043 -1.71312e-17)
(7.99545 0.0828235 1.72623e-17)
(7.70828 0.109696 1.73868e-17)
(7.3243 0.147293 -1.75201e-17)
(6.79511 0.19599 0)
(6.06662 0.241908 0)
(5.09539 0.258018 0)
(3.78698 0.254996 0)
(2.01181 0.276279 0)
(0.307085 0.179711 0)
(12.8927 0.0966644 0)
(12.6566 0.119526 -1.20421e-19)
(12.588 0.158734 2.0377e-19)
(12.4348 0.13177 0)
(12.318 0.135901 -6.9926e-19)
(12.2014 0.120245 1.57535e-24)
(12.0981 0.112227 9.26193e-19)
(12.0004 0.0978037 0)
(11.9087 0.0834547 0)
(11.8062 0.0671856 -2.39617e-18)
(11.6884 0.0559331 2.54057e-18)
(11.5625 0.0476909 0)
(11.4343 0.0413819 0)
(11.3087 0.0369265 0)
(11.1879 0.0346217 0)
(11.0725 0.0339945 5.60854e-18)
(10.9628 0.0344694 -1.14122e-17)
(10.8582 0.0353227 1.1641e-17)
(10.7583 0.0359154 -5.93533e-18)
(10.6626 0.0360478 0)
(10.5704 0.0356963 0)
(10.4822 0.0349282 0)
(10.3979 0.0338816 0)
(10.3173 0.0326916 0)
(10.2404 0.0315004 0)
(10.1672 0.030405 -1.29016e-17)
(10.0974 0.029481 1.30111e-17)
(10.0313 0.0287647 0)
(9.96871 0.0282754 0)
(9.90954 0.0280632 -1.33312e-17)
(9.85334 0.0281735 1.34424e-17)
(9.79914 0.0286281 0)
(9.74575 0.0294768 0)
(9.69169 0.0308389 0)
(9.63514 0.0329592 0)
(9.57389 0.0358354 0)
(9.50479 0.0407552 0)
(9.42475 0.0473829 -1.41113e-17)
(9.32949 0.0556986 1.41763e-17)
(9.21202 0.0674003 0)
(9.06316 0.0838905 -1.4259e-17)
(8.871 0.106959 1.42734e-17)
(8.6192 0.139329 0)
(8.28524 0.183694 1.42395e-17)
(7.83297 0.242881 -1.42015e-17)
(7.21253 0.310613 -1.4203e-17)
(6.37053 0.369254 1.436e-17)
(5.21898 0.417579 0)
(3.57919 0.476928 1.52487e-17)
(1.69243 0.451902 -1.5164e-17)
(12.9172 0.109479 -1.78776e-20)
(12.7075 0.131138 -4.50863e-20)
(12.6687 0.171012 1.51575e-19)
(12.5461 0.143361 4.20239e-19)
(12.4618 0.147303 -1.05058e-18)
(12.3748 0.130429 6.19849e-19)
(12.3003 0.122221 1.41147e-18)
(12.2294 0.107101 -6.17095e-24)
(12.1637 0.0934711 -1.72299e-18)
(12.0928 0.0781932 -1.86919e-18)
(12.0128 0.0678158 2.00994e-18)
(11.9252 0.0601149 0)
(11.8306 0.0542042 0)
(11.731 0.0496202 4.62272e-18)
(11.6306 0.0467585 -4.74601e-18)
(11.5322 0.0453995 4.87405e-18)
(11.4374 0.0451713 -5.01441e-18)
(11.3467 0.0454144 -5.1612e-18)
(11.26 0.0455173 5.30004e-18)
(11.1769 0.0452668 0)
(11.0967 0.0445458 -5.52438e-18)
(11.02 0.0433935 1.12135e-17)
(10.9464 0.0419681 -5.67245e-18)
(10.8758 0.0404003 0)
(10.8079 0.0388192 -5.77912e-18)
(10.7427 0.0373178 5.82637e-18)
(10.6802 0.035972 0)
(10.6205 0.0348254 1.18224e-17)
(10.5637 0.0339022 -1.1892e-17)
(10.5095 0.0332741 -1.1955e-17)
(10.4578 0.0330427 1.20122e-17)
(10.4077 0.0332781 0)
(10.3583 0.0340683 0)
(10.3082 0.0355589 1.21259e-17)
(10.2558 0.0380331 -2.84532e-23)
(10.1992 0.0415434 -2.4345e-17)
(10.1358 0.0470574 1.14643e-23)
(10.0626 0.0549077 1.21915e-17)
(9.97608 0.0651793 -1.21893e-17)
(9.87036 0.0794417 1.21794e-17)
(9.73742 0.0992875 0)
(9.56706 0.126643 -1.21496e-17)
(9.3455 0.164345 1.21161e-17)
(9.05398 0.215441 0)
(8.66448 0.284333 0)
(8.13628 0.36972 0)
(7.41776 0.459415 1.19449e-17)
(6.43051 0.547988 -1.20489e-17)
(4.99815 0.653615 0)
(3.12661 0.677357 0)
(12.933 0.122445 -1.5451e-20)
(12.7405 0.141325 3.60354e-20)
(12.7197 0.180187 0)
(12.6163 0.152485 3.32046e-19)
(12.553 0.155984 -8.33337e-19)
(12.4852 0.138138 4.94329e-19)
(12.4301 0.129603 1.13286e-18)
(12.3777 0.114024 -4.88303e-24)
(12.3301 0.100562 -1.4024e-18)
(12.2795 0.0857317 -1.5329e-18)
(12.2238 0.0757554 3.32532e-18)
(12.1632 0.0686554 -1.79083e-18)
(12.0971 0.0634665 0)
(12.0244 0.0592873 4.02043e-18)
(11.9479 0.0564055 -4.20085e-18)
(11.8706 0.0547332 -4.37325e-18)
(11.7945 0.0540383 4.54415e-18)
(11.7208 0.0538112 -4.70863e-18)
(11.6498 0.0535324 4.85634e-18)
(11.5811 0.0529863 0)
(11.5145 0.0519958 -5.0799e-18)
(11.45 0.0505746 5.1499e-18)
(11.3876 0.0488948 0)
(11.3269 0.047086 0)
(11.2676 0.0452563 0)
(11.21 0.043485 0)
(11.154 0.0418445 0)
(11.0999 0.0403815 1.07048e-17)
(11.0478 0.0391405 -1.07361e-17)
(10.9975 0.0382126 -1.07611e-17)
(10.9488 0.0377202 1.07813e-17)
(10.9011 0.0377713 0)
(10.8538 0.0384915 0)
(10.8056 0.0400497 0)
(10.7554 0.0427575 1.08018e-17)
(10.7015 0.0467022 -1.08033e-17)
(10.6417 0.0527469 -1.08004e-17)
(10.5733 0.0615911 1.07912e-17)
(10.4936 0.0731088 0)
(10.3977 0.0892324 0)
(10.2789 0.111461 1.07481e-17)
(10.1284 0.141938 -2.14596e-17)
(9.93467 0.183723 -1.00351e-22)
(9.6818 0.240283 1.06619e-17)
(9.34722 0.316895 0)
(8.89837 0.41543 0)
(8.29047 0.527127 1.0484e-17)
(7.45615 0.64562 2.90185e-22)
(6.24732 0.795315 -1.04239e-17)
(4.53144 0.878679 -9.9836e-18)
(12.9435 0.134206 0)
(12.7634 0.150157 0)
(12.7535 0.187483 9.86319e-20)
(12.6636 0.160072 1.36492e-19)
(12.6148 0.162954 -3.43274e-19)
(12.5601 0.144222 -4.08887e-19)
(12.5188 0.135307 4.71002e-19)
(12.4797 0.119326 0)
(12.4454 0.105931 0)
(12.4092 0.0913388 -1.29952e-18)
(12.3701 0.0814996 2.84017e-18)
(12.3284 0.0746333 -3.08256e-18)
(12.2835 0.0699259 1.66109e-18)
(12.2338 0.0662447 0)
(12.18 0.0635879 3.75017e-18)
(12.1237 0.06188 -3.9451e-18)
(12.0669 0.0609771 0)
(12.0105 0.0604925 0)
(11.955 0.0600222 0)
(11.9003 0.0593298 0)
(11.8464 0.0582188 0)
(11.7932 0.0566913 4.72496e-18)
(11.7408 0.0549185 -1.95956e-23)
(11.6887 0.0530268 -4.78598e-18)
(11.637 0.0510957 0)
(11.586 0.0491918 0)
(11.5357 0.0473844 0)
(11.4866 0.0457219 9.74185e-18)
(11.4388 0.0442743 -9.76347e-18)
(11.3923 0.043147 0)
(11.3468 0.0424703 9.8014e-18)
(11.302 0.0423791 -9.81523e-18)
(11.2573 0.0430263 0)
(11.2119 0.0445915 9.82769e-18)
(11.1649 0.047407 -9.83657e-18)
(11.1147 0.0516195 0)
(11.0594 0.0579747 9.84922e-18)
(10.9967 0.0675695 -9.84674e-18)
(10.9242 0.079327 0)
(10.838 0.0968429 0)
(10.7324 0.120378 0)
(10.5999 0.152569 0)
(10.4309 0.196508 0)
(10.2119 0.255805 0)
(9.92446 0.335942 0)
(9.54241 0.441416 0)
(9.02919 0.568025 0)
(8.32804 0.708595 0)
(7.32629 0.895028 0)
(5.83065 1.03276 0)
(12.9505 0.145137 -1.25813e-20)
(12.7801 0.158237 -2.60437e-20)
(12.7766 0.193629 8.37732e-20)
(12.6968 0.166532 -2.31099e-19)
(12.6586 0.168716 9.10396e-25)
(12.613 0.149164 3.47508e-19)
(12.582 0.139823 8.04124e-19)
(12.5527 0.123439 -3.35834e-24)
(12.5286 0.110065 -1.01914e-18)
(12.5031 0.0955668 -1.1288e-18)
(12.4763 0.0856925 2.4817e-18)
(12.4482 0.0788038 -1.35324e-18)
(12.4188 0.0742905 0)
(12.3863 0.0709245 3.14206e-18)
(12.3506 0.0685195 -3.34419e-18)
(12.3122 0.0669179 -3.53588e-18)
(12.2723 0.0660016 3.71773e-18)
(12.2317 0.0654588 0)
(12.1906 0.064981 0)
(12.149 0.0643287 0)
(12.1067 0.063283 -4.26289e-18)
(12.0638 0.06182 4.31764e-18)
(12.0203 0.0601114 0)
(11.9763 0.0582771 4.37947e-18)
(11.9318 0.0563637 -4.40947e-18)
(11.8873 0.0544308 0)
(11.8431 0.0525461 0)
(11.7996 0.0507611 8.97733e-18)
(11.7569 0.0491649 -9.0104e-18)
(11.7151 0.0478739 -9.04158e-18)
(11.674 0.0470324 9.07137e-18)
(11.6333 0.0467966 0)
(11.5926 0.0473381 0)
(11.5512 0.0488386 9.12682e-18)
(11.5082 0.0516453 -2.45953e-23)
(11.4626 0.0559655 -1.82964e-17)
(11.4126 0.0624452 1.50662e-23)
(11.3559 0.0721275 9.14946e-18)
(11.2906 0.0840794 0)
(11.2136 0.102322 0)
(11.1199 0.1266 9.10648e-18)
(11.0034 0.159597 -9.07737e-18)
(10.8557 0.204439 -9.03878e-18)
(10.6659 0.264805 8.9922e-18)
(10.4186 0.346097 0)
(10.0925 0.454419 0)
(9.65868 0.590039 8.76469e-18)
(9.06992 0.744423 -8.6763e-18)
(8.24586 0.959255 0)
(6.98316 1.13768 -8.06227e-18)
(12.9552 0.155535 0)
(12.7927 0.165816 0)
(12.7929 0.198961 0)
(12.7207 0.172141 2.00097e-19)
(12.6904 0.173616 -5.0374e-19)
(12.6515 0.153282 3.01615e-19)
(12.6283 0.143432 7.0056e-19)
(12.6066 0.126636 -2.8783e-24)
(12.5904 0.113218 -8.96832e-19)
(12.5732 0.0987166 -9.98348e-19)
(12.5557 0.0887037 2.20218e-18)
(12.5377 0.081656 -1.20323e-18)
(12.5194 0.0771552 0)
(12.4994 0.0739473 2.80056e-18)
(12.4771 0.0717361 -2.98547e-18)
(12.4525 0.0702723 3.16157e-18)
(12.4261 0.0694276 -3.32915e-18)
(12.3985 0.0689427 -3.48752e-18)
(12.3698 0.0685642 3.6353e-18)
(12.3399 0.0680753 0)
(12.3085 0.0672501 -3.87446e-18)
(12.2752 0.06601 3.94344e-18)
(12.2405 0.0644928 0)
(12.2044 0.0628067 0)
(12.1674 0.06098 -4.07978e-18)
(12.13 0.059068 4.12099e-18)
(12.0925 0.0571448 0)
(12.0553 0.0552813 8.38299e-18)
(12.0186 0.0535775 -8.42951e-18)
(11.9823 0.0521539 -8.46964e-18)
(11.9464 0.0511689 8.50516e-18)
(11.9106 0.0507963 8.53388e-18)
(11.8746 0.0512214 -8.55555e-18)
(11.8377 0.0526251 0)
(11.7993 0.0553626 8.57956e-18)
(11.7583 0.0596927 -8.58632e-18)
(11.7135 0.0661846 -8.58777e-18)
(11.6627 0.0756498 8.58236e-18)
(11.6043 0.0882988 0)
(11.5359 0.10597 0)
(11.4531 0.130868 0)
(11.3507 0.164026 -8.5105e-18)
(11.2218 0.20895 -5.06996e-23)
(11.0573 0.269317 8.42866e-18)
(10.8445 0.350331 0)
(10.5657 0.458709 0)
(10.1985 0.598607 8.20993e-18)
(9.70375 0.759983 1.87186e-22)
(9.02576 0.990546 -7.96562e-18)
(7.98104 1.20887 0)
(12.9582 0.165524 -1.09887e-20)
(12.8024 0.173113 -2.07889e-20)
(12.8046 0.203714 6.4529e-20)
(12.7381 0.177106 1.76372e-19)
(12.714 0.177869 -4.43807e-19)
(12.68 0.156775 2.66215e-19)
(12.663 0.146341 6.20389e-19)
(12.6472 0.129114 -2.50705e-24)
(12.6373 0.115593 -8.01069e-19)
(12.6268 0.10103 -8.94196e-19)
(12.6164 0.0908275 1.97468e-18)
(12.606 0.0835527 -1.07927e-18)
(12.5959 0.0789616 0)
(12.585 0.0758027 2.51156e-18)
(12.5725 0.0737171 -2.67799e-18)
(12.5582 0.0723789 2.83724e-18)
(12.5422 0.0716288 -2.98968e-18)
(12.5247 0.0712326 -3.13537e-18)
(12.506 0.0709841 3.27437e-18)
(12.486 0.0706927 0)
(12.4642 0.0701539 -3.52182e-18)
(12.4402 0.0692389 3.61217e-18)
(12.414 0.0679964 0)
(12.386 0.0665068 0)
(12.3569 0.0648131 0)
(12.3269 0.062969 0)
(12.2965 0.0610505 7.82405e-18)
(12.2659 0.0591563 -2.94426e-23)
(12.2354 0.0573945 -7.94692e-18)
(12.2048 0.0558856 -7.99029e-18)
(12.1742 0.0547959 8.02711e-18)
(12.1435 0.0543116 0)
(12.1122 0.054632 0)
(12.08 0.0559411 8.09478e-18)
(12.0462 0.0585905 -2.33187e-23)
(12.0101 0.0628685 -1.62272e-17)
(11.9705 0.0693144 8.11726e-18)
(11.9255 0.0785996 0)
(11.8737 0.0918742 0)
(11.8135 0.10845 0)
(11.7409 0.133323 8.08405e-18)
(11.6513 0.166344 -1.61194e-17)
(11.5392 0.210733 -4.00936e-23)
(11.397 0.27023 7.9837e-18)
(11.2141 0.349832 0)
(10.9757 0.456162 0)
(10.6644 0.59669 7.7728e-18)
(10.2481 0.759996 -7.67675e-18)
(9.68714 0.99451 0)
(8.83314 1.24314 -7.08139e-18)
(12.9599 0.175174 0)
(12.81 0.180204 0)
(12.813 0.208116 0)
(12.7506 0.181564 1.57725e-19)
(12.7315 0.181622 -3.96555e-19)
(12.7015 0.159774 2.15446e-25)
(12.6894 0.148696 2.78413e-19)
(12.6784 0.131022 6.39237e-19)
(12.6735 0.117349 -7.23426e-19)
(12.6682 0.102692 -8.08279e-19)
(12.6635 0.0922795 1.78507e-18)
(12.659 0.0847406 -1.95057e-18)
(12.655 0.0799919 1.05589e-18)
(12.6508 0.0768007 0)
(12.6456 0.0747756 2.41797e-18)
(12.639 0.0735319 -5.12535e-18)
(12.6309 0.0728764 2.70231e-18)
(12.6214 0.0725781 0)
(12.6107 0.0724453 0)
(12.5986 0.0723306 0)
(12.585 0.0720656 0)
(12.5693 0.0714894 0)
(12.5513 0.0705577 3.4128e-18)
(12.5314 0.0693077 -6.99429e-18)
(12.51 0.0677983 3.57408e-18)
(12.4873 0.0660794 -7.27988e-18)
(12.4637 0.0642249 2.77102e-23)
(12.4396 0.062358 1.49168e-17)
(12.415 0.0605978 -7.51404e-18)
(12.39 0.0590637 -7.56207e-18)
(12.3646 0.0579162 1.52074e-17)
(12.3388 0.0573496 -7.63755e-18)
(12.3124 0.0575786 -7.66609e-18)
(12.2849 0.0587934 7.68773e-18)
(12.256 0.0613352 0)
(12.2247 0.0655074 -7.71789e-18)
(12.1904 0.0718473 7.72716e-18)
(12.1513 0.0808602 0)
(12.106 0.0942608 0)
(12.0533 0.110294 0)
(11.9903 0.13408 0)
(11.9127 0.166948 0)
(11.8156 0.210295 0)
(11.6929 0.268249 -7.61622e-18)
(11.5359 0.345618 1.51302e-17)
(11.3323 0.448467 -7.50001e-18)
(11.0679 0.586887 0)
(10.7173 0.748806 0)
(10.2504 0.979551 7.18608e-18)
(9.55289 1.2434 -6.75733e-18)
(12.9606 0.184552 0)
(12.8156 0.187043 0)
(12.8191 0.212282 0)
(12.7594 0.185673 0)
(12.7445 0.18494 0)
(12.7177 0.162379 0)
(12.7097 0.150606 0)
(12.7025 0.132473 0)
(12.7017 0.118609 0)
(12.7007 0.103836 0)
(12.7005 0.0932043 8.12544e-19)
(12.7005 0.0853826 -8.87421e-19)
(12.7014 0.0804346 0)
(12.7022 0.0771536 -2.06206e-18)
(12.7025 0.075134 9.14924e-24)
(12.7018 0.0739476 9.76072e-24)
(12.6998 0.0733718 2.46161e-18)
(12.6966 0.0731638 2.58824e-18)
(12.6922 0.0731453 -5.42575e-18)
(12.6866 0.0731744 2.83593e-18)
(12.6797 0.0731179 0)
(12.6711 0.0728254 0)
(12.6605 0.0721954 -3.1677e-18)
(12.6479 0.0712119 1.28055e-23)
(12.6336 0.0699335 3.34722e-18)
(12.6178 0.0684062 0)
(12.6006 0.0666929 -6.96335e-18)
(12.5824 0.0649184 7.04891e-18)
(12.5635 0.0632142 7.11457e-18)
(12.5438 0.0617006 -7.1751e-18)
(12.5235 0.0605302 0)
(12.5026 0.0599007 0)
(12.481 0.060042 0)
(12.4584 0.061157 7.34034e-18)
(12.4342 0.0635738 -2.23116e-23)
(12.408 0.0675988 -2.02401e-23)
(12.3789 0.0737726 -7.39519e-18)
(12.3457 0.0824668 7.40167e-18)
(12.3066 0.0954304 -7.40231e-18)
(12.2609 0.111677 0)
(12.2068 0.133855 0)
(12.1399 0.165756 0)
(12.0563 0.208033 -7.3424e-18)
(11.9509 0.264025 7.3053e-18)
(11.8166 0.338612 0)
(11.6429 0.437079 -7.19906e-18)
(11.4185 0.571382 7.12032e-18)
(11.1231 0.729923 -7.03166e-18)
(10.7331 0.953049 6.90577e-18)
(10.1608 1.21925 6.50108e-18)
(12.9606 0.193716 0)
(12.8197 0.193751 0)
(12.8233 0.216306 0)
(12.7654 0.189523 0)
(12.754 0.18789 -1.63675e-19)
(12.73 0.16466 1.28635e-25)
(12.7254 0.152154 2.31448e-19)
(12.7213 0.133556 5.33239e-19)
(12.7239 0.119467 -6.04168e-19)
(12.7263 0.104557 -6.74857e-19)
(12.7298 0.0937034 1.4891e-18)
(12.7335 0.0855926 -1.62557e-18)
(12.7382 0.0804211 -8.79317e-19)
(12.743 0.0770113 1.88827e-18)
(12.7475 0.074954 2.01467e-18)
(12.7513 0.0737891 -4.27679e-18)
(12.7541 0.0732701 2.26019e-18)
(12.7559 0.0731333 0)
(12.7566 0.0732095 0)
(12.7563 0.0733576 0)
(12.7548 0.0734608 0)
(12.7519 0.0733936 0)
(12.7474 0.0730354 0)
(12.741 0.0723194 0)
(12.733 0.0712934 0)
(12.7233 0.0699972 0)
(12.7121 0.0684832 0)
(12.6995 0.0668611 0)
(12.6858 0.0652561 0)
(12.6712 0.0637907 -6.82803e-18)
(12.6559 0.0626202 1.37963e-17)
(12.6399 0.0619438 -6.95393e-18)
(12.6231 0.0620029 -6.99842e-18)
(12.6052 0.0630155 1.40694e-17)
(12.5858 0.0652975 -7.06294e-18)
(12.5644 0.06915 -7.08546e-18)
(12.5404 0.075112 1.42032e-17)
(12.5127 0.0835146 -7.11143e-18)
(12.4797 0.0957767 -7.11617e-18)
(12.4406 0.112375 7.11442e-18)
(12.3944 0.133052 0)
(12.3375 0.163087 0)
(12.2661 0.20418 0)
(12.176 0.258041 0)
(12.0615 0.329491 0)
(11.9138 0.423036 6.94453e-18)
(11.7236 0.551759 -6.87149e-18)
(11.475 0.705434 -6.78748e-18)
(11.1486 0.918614 1.33433e-17)
(10.6771 1.17934 -6.29013e-18)
(12.96 0.202696 0)
(12.8226 0.200402 0)
(12.8262 0.220266 4.51268e-20)
(12.7693 0.193179 6.01653e-20)
(12.7607 0.19056 -3.0145e-19)
(12.7393 0.166659 3.63366e-19)
(12.7376 0.153405 -2.13579e-19)
(12.736 0.134339 4.92184e-19)
(12.7414 0.119994 -5.5751e-19)
(12.7466 0.104928 -6.22444e-19)
(12.7532 0.0938524 1.37281e-18)
(12.76 0.0854527 -1.49818e-18)
(12.7677 0.0800441 8.10397e-19)
(12.7757 0.076479 0)
(12.7836 0.0743512 0)
(12.7909 0.0731757 0)
(12.7976 0.0726876 0)
(12.8033 0.0725999 0)
(12.8081 0.0727471 0)
(12.812 0.072996 0)
(12.8149 0.0732325 0)
(12.8167 0.0733448 0)
(12.817 0.0732124 2.73898e-18)
(12.8158 0.0727542 -5.66614e-18)
(12.8129 0.0719766 2.92268e-18)
(12.8085 0.0709194 0)
(12.8026 0.0696287 -6.1672e-18)
(12.7952 0.0681929 1.25956e-17)
(12.7865 0.066719 -6.40954e-18)
(12.7769 0.0653271 -6.50974e-18)
(12.7664 0.0641787 1.31906e-17)
(12.755 0.0634743 -6.6616e-18)
(12.7428 0.063464 0)
(12.7294 0.0643794 0)
(12.7145 0.0665259 6.78862e-18)
(12.6977 0.0701948 -6.81696e-18)
(12.6784 0.0759145 0)
(12.656 0.0840346 0)
(12.6288 0.0955724 0)
(12.5959 0.11206 0)
(12.5568 0.132006 0)
(12.5091 0.159778 6.85629e-18)
(12.4488 0.198827 -6.83904e-18)
(12.3723 0.250638 -6.81163e-18)
(12.2752 0.31879 1.35464e-17)
(12.1502 0.407122 -6.72407e-18)
(11.9893 0.529259 0)
(11.7804 0.676858 0)
(11.5073 0.878679 0)
(11.1179 1.1296 0)
(12.9589 0.211526 0)
(12.8247 0.206991 0)
(12.8278 0.224219 0)
(12.7715 0.196721 0)
(12.7652 0.192992 0)
(12.7463 0.168395 0)
(12.747 0.154413 0)
(12.7474 0.134876 0)
(12.7552 0.120245 0)
(12.7629 0.105006 0)
(12.772 0.093708 6.36415e-19)
(12.7814 0.0850232 -6.94463e-19)
(12.7916 0.0793704 0)
(12.8022 0.0756317 0)
(12.8128 0.0734078 0)
(12.823 0.0721941 -1.83688e-18)
(12.8327 0.0717122 1.94658e-18)
(12.8417 0.0716557 2.05481e-18)
(12.8498 0.0718662 -8.82786e-24)
(12.8572 0.0721953 -2.26505e-18)
(12.8636 0.0725406 0)
(12.869 0.0728012 0)
(12.8732 0.0728672 -2.55917e-18)
(12.8761 0.072633 2.65051e-18)
(12.8775 0.0720869 2.73883e-18)
(12.8776 0.0712551 -8.47253e-18)
(12.8762 0.070182 2.12321e-23)
(12.8734 0.068938 5.95379e-18)
(12.8694 0.0676105 0)
(12.8643 0.0663146 0)
(12.8583 0.0652153 0)
(12.8512 0.0645108 0)
(12.8432 0.064452 0)
(12.834 0.0652786 6.49298e-18)
(12.8234 0.0672879 -6.53687e-18)
(12.8109 0.0707626 6.57354e-18)
(12.7963 0.0762103 -6.60227e-18)
(12.7787 0.0840114 6.62347e-18)
(12.7571 0.0948813 -6.63884e-18)
(12.7301 0.110687 0)
(12.6975 0.130517 0)
(12.6578 0.156135 0)
(12.6076 0.192531 -6.63041e-18)
(12.5434 0.241772 6.60795e-18)
(12.4615 0.306813 -6.57445e-18)
(12.3563 0.389966 -3.96363e-23)
(12.2207 0.504928 6.47087e-18)
(12.0456 0.645529 -6.39825e-18)
(11.8174 0.835357 6.3009e-18)
(11.4955 1.07394 0)
(12.9573 0.220242 0)
(12.8259 0.213536 0)
(12.8286 0.228217 0)
(12.7724 0.200189 1.04539e-19)
(12.7681 0.1952 -2.61141e-19)
(12.7515 0.169921 4.38653e-26)
(12.7542 0.155229 1.85178e-19)
(12.7564 0.135207 4.26433e-19)
(12.7661 0.120262 -4.82557e-19)
(12.7758 0.104833 -5.38263e-19)
(12.7872 0.0933136 5.93226e-19)
(12.7987 0.0843492 -6.47378e-19)
(12.8111 0.0784492 -7.00811e-19)
(12.8238 0.0745246 1.50762e-18)
(12.8366 0.0721847 0)
(12.8493 0.0709102 0)
(12.8614 0.0704132 0)
(12.873 0.0703716 0)
(12.8839 0.0706281 0)
(12.894 0.0710278 0)
(12.9033 0.0714716 -2.21719e-18)
(12.9117 0.071862 4.62074e-18)
(12.9191 0.0720892 -2.40128e-18)
(12.9252 0.0720556 0)
(12.9302 0.0717185 0)
(12.9338 0.0710927 0)
(12.9362 0.0702173 0)
(12.9374 0.0691521 5.63055e-18)
(12.9375 0.0679746 -5.7691e-18)
(12.9365 0.0667904 -5.89668e-18)
(12.9344 0.0657609 6.01011e-18)
(12.9314 0.0650803 0)
(12.9273 0.0649911 -6.17995e-18)
(12.922 0.0657346 1.24962e-17)
(12.9154 0.0676046 -6.30475e-18)
(12.9071 0.0708777 -6.35023e-18)
(12.8967 0.0760339 1.27711e-17)
(12.8837 0.083484 -6.4126e-18)
(12.8672 0.0937473 0)
(12.8459 0.108526 0)
(12.8191 0.128216 0)
(12.7865 0.152404 0)
(12.7454 0.185858 0)
(12.6921 0.231854 -6.42628e-18)
(12.6237 0.293506 1.27967e-17)
(12.5357 0.371963 -6.36039e-18)
(12.4221 0.479584 0)
(12.2759 0.612568 -6.24014e-18)
(12.0857 0.790233 6.15112e-18)
(11.8198 1.01506 0)
(12.9554 0.228864 0)
(12.8265 0.220067 0)
(12.8287 0.232267 0)
(12.7725 0.203603 0)
(12.7698 0.197235 0)
(12.7551 0.171245 0)
(12.7595 0.155876 0)
(12.7633 0.135363 0)
(12.7747 0.120081 0)
(12.7862 0.104444 0)
(12.7994 0.0927024 5.5572e-19)
(12.8129 0.0834648 -6.06603e-19)
(12.8271 0.0773177 0)
(12.8417 0.0731989 -1.41486e-18)
(12.8564 0.0707282 1.51526e-18)
(12.8709 0.0693756 -1.61477e-18)
(12.8851 0.0688471 1.71289e-18)
(12.8988 0.0688071 0)
(12.9119 0.0690973 1.90352e-18)
(12.9243 0.0695567 -1.9959e-18)
(12.936 0.0700832 0)
(12.9468 0.0705809 0)
(12.9567 0.0709544 -2.26301e-18)
(12.9656 0.0710966 8.93068e-24)
(12.9734 0.070949 4.86435e-18)
(12.98 0.0705122 -2.51343e-18)
(12.9856 0.0698174 -5.18329e-18)
(12.99 0.0689174 1.90159e-23)
(12.9934 0.067883 5.47268e-18)
(12.9959 0.0668116 0)
(12.9974 0.0658571 0)
(12.998 0.0652082 0)
(12.9975 0.065098 0)
(12.9959 0.0657639 0)
(12.993 0.0674964 0)
(12.9885 0.0705675 6.13742e-18)
(12.9821 0.0754259 -6.18003e-18)
(12.9733 0.0825071 0)
(12.9615 0.0922538 0)
(12.9453 0.105968 0)
(12.9241 0.125091 0)
(12.8977 0.148521 0)
(12.8645 0.179173 -6.27327e-18)
(12.8212 0.221607 6.26207e-18)
(12.7648 0.279283 -6.23963e-18)
(12.6918 0.353093 -2.39551e-23)
(12.5972 0.453406 -3.35196e-23)
(12.4756 0.57878 -4.46878e-23)
(12.3177 0.744471 6.01856e-18)
(12.0984 0.954883 0)
(12.9531 0.237409 0)
(12.8265 0.226593 0)
(12.8282 0.236387 0)
(12.7719 0.207029 0)
(12.7706 0.199102 -1.15764e-19)
(12.7574 0.17244 -5.74881e-27)
(12.7633 0.156337 1.63745e-19)
(12.7685 0.135357 3.76591e-19)
(12.7814 0.119731 -4.25717e-19)
(12.7945 0.103868 -4.7457e-19)
(12.8094 0.0919008 1.04601e-18)
(12.8245 0.0823963 -1.14224e-18)
(12.8404 0.076004 6.19117e-19)
(12.8565 0.0716861 0)
(12.8727 0.0690746 0)
(12.8889 0.0676315 -1.52397e-18)
(12.9048 0.0670584 1.61683e-18)
(12.9203 0.0670093 0)
(12.9352 0.0673225 0)
(12.9494 0.067831 0)
(12.963 0.0684287 0)
(12.9759 0.0690221 2.05734e-18)
(12.9879 0.06952 -8.2151e-24)
(12.999 0.0698162 -2.22362e-18)
(13.0091 0.0698415 0)
(13.0182 0.0695809 0)
(13.0263 0.0690548 -4.91515e-18)
(13.0335 0.068309 1.01218e-17)
(13.0397 0.0674077 -5.20079e-18)
(13.045 0.066441 -5.33501e-18)
(13.0496 0.0655552 1.09236e-17)
(13.0533 0.064934 -5.57931e-18)
(13.056 0.0648018 0)
(13.0577 0.0653909 5.77964e-18)
(13.0582 0.0669895 -5.86169e-18)
(13.0573 0.0698649 -5.92819e-18)
(13.0545 0.0744286 5.98179e-18)
(13.0495 0.0811259 0)
(13.0419 0.0903742 0)
(13.0306 0.103091 0)
(13.0146 0.121157 0)
(12.9937 0.144065 0)
(12.9673 0.172656 0)
(12.9328 0.211418 0)
(12.8871 0.264889 6.09436e-18)
(12.8273 0.333582 -6.06759e-18)
(12.7493 0.426705 -6.0272e-18)
(12.6488 0.544287 -3.54071e-23)
(12.5184 0.698239 1.18008e-17)
(12.338 0.894319 -5.60226e-18)
(12.9506 0.245895 0)
(12.8259 0.233107 0)
(12.827 0.240597 3.42884e-20)
(12.7709 0.210452 4.41877e-20)
(12.7707 0.200866 -2.1954e-19)
(12.7586 0.173534 1.32094e-19)
(12.7659 0.156718 0)
(12.7724 0.135201 3.56111e-19)
(12.7866 0.119218 -4.02386e-19)
(12.8011 0.103125 -4.48487e-19)
(12.8175 0.0909313 9.88685e-19)
(12.834 0.0811645 -1.08023e-18)
(12.8513 0.0745297 -5.85942e-19)
(12.8688 0.0700112 1.2634e-18)
(12.8864 0.0672525 1.35413e-18)
(12.904 0.0657103 -1.44366e-18)
(12.9213 0.0650823 0)
(12.9382 0.0650148 0)
(12.9546 0.0653414 0)
(12.9704 0.0658892 0)
(12.9856 0.0665478 0)
(13.0001 0.0672242 0)
(13.0139 0.0678303 0)
(13.0268 0.0682644 -2.11224e-18)
(13.0389 0.0684487 2.1891e-18)
(13.05 0.0683533 0)
(13.0602 0.0679867 0)
(13.0695 0.0673857 4.81682e-18)
(13.078 0.0666081 -4.95482e-18)
(13.0858 0.065737 -5.08805e-18)
(13.0929 0.064911 1.04307e-17)
(13.0992 0.064309 -5.33541e-18)
(13.1048 0.0641499 -5.44667e-18)
(13.1094 0.0646602 5.54928e-18)
(13.1129 0.0661237 0)
(13.1151 0.0688035 0)
(13.1156 0.0730752 5.7885e-18)
(13.1142 0.0793768 -5.84502e-18)
(13.1104 0.0881153 0)
(13.1035 0.0999647 0)
(13.0923 0.116677 0)
(13.0765 0.138909 0)
(13.056 0.166237 -5.97049e-18)
(13.029 0.201563 9.95939e-25)
(12.9928 0.250661 5.96061e-18)
(12.9446 0.314193 0)
(12.881 0.400141 0)
(12.7987 0.509469 0)
(12.6918 0.652041 0)
(12.5442 0.834047 0)
(12.9478 0.254338 0)
(12.8249 0.239627 0)
(12.8253 0.244884 0)
(12.7694 0.213847 0)
(12.7702 0.202575 0)
(12.7589 0.174437 0)
(12.7675 0.156972 0)
(12.7751 0.135004 -3.38012e-19)
(12.7906 0.118546 3.81786e-19)
(12.8063 0.102221 0)
(12.8241 0.0898092 4.69131e-19)
(12.8419 0.0797873 -5.12891e-19)
(12.8605 0.0729128 0)
(12.8791 0.0681939 0)
(12.8979 0.0652849 -1.28712e-18)
(12.9167 0.0636375 5.50252e-24)
(12.9351 0.0629466 1.45631e-18)
(12.9532 0.0628532 1.53905e-18)
(12.9709 0.0631845 -3.24156e-18)
(12.988 0.0637623 1.70171e-18)
(13.0045 0.064472 0)
(13.0205 0.0652205 0)
(13.0357 0.0659231 -1.93728e-18)
(13.0501 0.0664818 2.01267e-18)
(13.0638 0.0668129 0)
(13.0765 0.0668732 -4.31767e-18)
(13.0885 0.0666583 1.57878e-23)
(13.0996 0.0661948 4.59801e-18)
(13.1101 0.0655335 4.73272e-18)
(13.1198 0.0647513 -4.86318e-18)
(13.129 0.0639785 0)
(13.1376 0.0633885 -5.10838e-18)
(13.1455 0.0631959 5.2219e-18)
(13.1525 0.0636224 5.32864e-18)
(13.1587 0.0649442 -1.80978e-23)
(13.1636 0.0674218 -5.51733e-18)
(13.1671 0.0713996 0)
(13.1689 0.0772994 5.66452e-18)
(13.1686 0.0855297 -1.14398e-17)
(13.1655 0.0966457 5.76344e-18)
(13.1588 0.112001 0)
(13.1477 0.133085 0)
(13.1323 0.159465 -5.83352e-18)
(13.1118 0.192179 5.83933e-18)
(13.0839 0.236883 0)
(13.0459 0.295289 -5.82131e-18)
(12.9949 0.374307 -1.36086e-23)
(12.9282 0.475398 -2.05273e-23)
(12.8415 0.606941 5.69574e-18)
(12.7217 0.775235 5.4215e-18)
(12.9448 0.262754 0)
(12.8235 0.246177 0)
(12.823 0.249251 0)
(12.7676 0.217242 8.08235e-20)
(12.7692 0.204254 -1.99671e-19)
(12.7585 0.175328 -6.84497e-26)
(12.7683 0.157095 -1.4027e-19)
(12.777 0.134624 9.81346e-25)
(12.7936 0.11778 3.63533e-19)
(12.8104 0.101179 -4.0516e-19)
(12.8294 0.088537 8.93763e-19)
(12.8484 0.078276 -9.77667e-19)
(12.8681 0.0711686 5.30779e-19)
(12.8878 0.0662508 0)
(12.9077 0.06319 1.2274e-18)
(12.9274 0.0614333 -1.30878e-18)
(12.9469 0.0606733 0)
(12.966 0.0605479 0)
(12.9847 0.060876 0)
(13.0029 0.0614755 0)
(13.0205 0.062228 0)
(13.0376 0.0630399 0)
(13.054 0.063829 1.85109e-18)
(13.0698 0.0645009 -1.92354e-18)
(13.0847 0.0649678 0)
(13.0989 0.0651752 0)
(13.1123 0.0651054 -4.26695e-18)
(13.1249 0.0647745 8.80226e-18)
(13.1369 0.0642256 -4.53181e-18)
(13.1483 0.0635285 -4.65872e-18)
(13.1592 0.0628049 9.56314e-18)
(13.1696 0.0622218 -4.89998e-18)
(13.1795 0.061989 0)
(13.1886 0.0623249 5.12214e-18)
(13.197 0.0634973 -5.22459e-18)
(13.2044 0.0657643 0)
(13.2105 0.0694448 0)
(13.2151 0.0749408 0)
(13.2178 0.0826624 0)
(13.2182 0.093092 0)
(13.2155 0.107203 0)
(13.2088 0.126763 0)
(13.198 0.152131 0)
(13.183 0.183129 0)
(13.1621 0.223767 0)
(13.1331 0.277053 0)
(13.093 0.349386 -5.68945e-18)
(13.0399 0.442505 1.13122e-17)
(12.9705 0.563419 -5.60567e-18)
(12.8744 0.718364 0)
(12.9415 0.271157 0)
(12.8215 0.252768 0)
(12.8203 0.253697 3.07012e-20)
(12.7654 0.220632 3.88674e-20)
(12.7678 0.205922 -1.91395e-19)
(12.7575 0.176155 -8.18146e-26)
(12.7686 0.157111 1.34129e-19)
(12.7783 0.134156 0)
(12.7958 0.116878 0)
(12.8136 0.100035 -3.87116e-19)
(12.8337 0.0871376 8.54339e-19)
(12.8538 0.076632 -9.34881e-19)