/*--------------------------------*- C++ -*----------------------------------*\
  =========                 |
  \\      /  F ield         | OpenFOAM: The Open Source CFD Toolbox
   \\    /   O peration     | Website:  https://openfoam.org
    \\  /    A nd           | Version:  8
     \\/     M anipulation  |
\*---------------------------------------------------------------------------*/
FoamFile
{
    version     2.0;
    format      ascii;
    class       volScalarField;
    location    "0.4";
    object      nut;
}
// * * * * * * * * * * * * * * * * * * * * * * * * * * * * * * * * * * * * * //

dimensions      [0 2 -1 0 0 0 0];

internalField   nonuniform List<scalar> 
277560
(
0.00999842
0.00999298
0.00998511
0.0099752
0.00996376
0.00995123
0.00993806
0.00992461
0.00991118
0.00989802
0.00988534
0.00987328
0.00986195
0.00985141
0.00984171
0.00983286
0.00982487
0.00981773
0.0098114
0.00980586
0.00980108
0.00979703
0.00979365
0.00979093
0.00978882
0.00978729
0.00978631
0.00978583
0.00978582
0.00978626
0.0097871
0.00978832
0.00978989
0.00979176
0.00979393
0.00979635
0.00979899
0.00980183
0.00980485
0.00980802
0.00981131
0.0098147
0.00981817
0.00982171
0.0098253
0.00982891
0.00983253
0.00983616
0.00983978
0.00984337
0.00984693
0.00985045
0.00985393
0.00985735
0.00986071
0.00986401
0.00986724
0.0098704
0.00987349
0.0098765
0.00987944
0.0098823
0.00988508
0.00988778
0.00989041
0.00989296
0.00989543
0.00989782
0.00990013
0.00990237
0.00990453
0.00990662
0.00990863
0.00991056
0.00991243
0.00991422
0.00991593
0.00991757
0.00991914
0.00992064
0.00992206
0.00992341
0.00992469
0.0099259
0.00992703
0.00992809
0.00992908
0.00992999
0.00993083
0.00993159
0.00993228
0.0099329
0.00993343
0.00993389
0.00993427
0.00993458
0.00993481
0.00993495
0.00993502
0.00993501
0.00993492
0.00993476
0.00993451
0.00993419
0.00993378
0.0099333
0.00993274
0.00993211
0.00993141
0.00993063
0.00992979
0.00992888
0.00992792
0.00992689
0.00992582
0.0099247
0.00992353
0.00992231
0.00992105
0.00991975
0.00999902
0.00999368
0.00998563
0.0099755
0.00996383
0.00995112
0.00993779
0.0099242
0.00991066
0.00989743
0.00988468
0.00987256
0.00986118
0.00985061
0.00984088
0.00983201
0.009824
0.00981683
0.00981048
0.00980492
0.00980012
0.00979604
0.00979265
0.00978991
0.00978779
0.00978624
0.00978524
0.00978476
0.00978475
0.00978519
0.00978604
0.00978727
0.00978885
0.00979075
0.00979293
0.00979538
0.00979806
0.00980094
0.00980399
0.0098072
0.00981053
0.00981397
0.00981749
0.00982107
0.00982471
0.00982836
0.00983204
0.00983571
0.00983937
0.00984301
0.00984662
0.00985018
0.0098537
0.00985716
0.00986056
0.0098639
0.00986717
0.00987036
0.00987348
0.00987653
0.0098795
0.00988239
0.0098852
0.00988793
0.00989058
0.00989315
0.00989564
0.00989805
0.00990039
0.00990265
0.00990483
0.00990693
0.00990895
0.00991091
0.00991278
0.00991458
0.00991631
0.00991796
0.00991954
0.00992105
0.00992248
0.00992384
0.00992513
0.00992634
0.00992748
0.00992855
0.00992954
0.00993045
0.0099313
0.00993206
0.00993275
0.00993337
0.00993391
0.00993437
0.00993476
0.00993507
0.0099353
0.00993545
0.00993553
0.00993553
0.00993545
0.0099353
0.00993507
0.00993477
0.00993439
0.00993394
0.00993342
0.00993283
0.00993217
0.00993144
0.00993065
0.00992979
0.00992887
0.00992789
0.00992686
0.00992577
0.00992463
0.00992343
0.00992219
0.00992089
0.00999885
0.00999312
0.00998462
0.00997407
0.00996202
0.00994898
0.00993537
0.00992156
0.00990784
0.00989444
0.00988156
0.00986933
0.00985785
0.00984718
0.00983736
0.0098284
0.00982031
0.00981306
0.00980662
0.00980098
0.0097961
0.00979194
0.00978847
0.00978566
0.00978347
0.00978187
0.00978082
0.00978029
0.00978026
0.00978067
0.00978152
0.00978275
0.00978434
0.00978627
0.00978849
0.00979098
0.00979371
0.00979664
0.00979977
0.00980305
0.00980646
0.00980998
0.00981359
0.00981726
0.00982098
0.00982473
0.0098285
0.00983226
0.00983602
0.00983974
0.00984344
0.00984709
0.00985069
0.00985423
0.00985771
0.00986112
0.00986446
0.00986772
0.00987091
0.00987402
0.00987704
0.00987999
0.00988285
0.00988564
0.00988834
0.00989095
0.00989349
0.00989594
0.00989832
0.00990061
0.00990283
0.00990496
0.00990702
0.009909
0.0099109
0.00991273
0.00991448
0.00991615
0.00991775
0.00991927
0.00992072
0.00992209
0.00992339
0.00992461
0.00992576
0.00992683
0.00992782
0.00992874
0.00992958
0.00993034
0.00993102
0.00993163
0.00993215
0.0099326
0.00993297
0.00993325
0.00993346
0.00993359
0.00993364
0.00993361
0.00993351
0.00993332
0.00993306
0.00993271
0.0099323
0.00993181
0.00993124
0.0099306
0.00992989
0.0099291
0.00992825
0.00992732
0.00992633
0.00992526
0.00992413
0.00992295
0.00992175
0.00992051
0.00991924
0.00991792
0.00999832
0.00999175
0.00998252
0.00997134
0.00995875
0.00994527
0.00993129
0.00991718
0.00990321
0.0098896
0.00987654
0.00986414
0.0098525
0.00984168
0.00983172
0.00982262
0.00981438
0.00980699
0.00980041
0.00979462
0.00978959
0.00978528
0.00978167
0.00977873
0.00977642
0.0097747
0.00977356
0.00977296
0.00977286
0.00977323
0.00977404
0.00977526
0.00977686
0.00977881
0.00978107
0.00978362
0.00978641
0.00978944
0.00979265
0.00979604
0.00979956
0.00980321
0.00980694
0.00981075
0.0098146
0.00981849
0.00982239
0.00982629
0.00983018
0.00983404
0.00983787
0.00984165
0.00984537
0.00984904
0.00985264
0.00985616
0.00985961
0.00986299
0.00986628
0.00986948
0.00987261
0.00987565
0.0098786
0.00988147
0.00988425
0.00988694
0.00988955
0.00989208
0.00989452
0.00989688
0.00989915
0.00990135
0.00990346
0.0099055
0.00990745
0.00990933
0.00991113
0.00991284
0.00991448
0.00991605
0.00991753
0.00991894
0.00992026
0.00992151
0.00992268
0.00992377
0.00992478
0.00992571
0.00992656
0.00992733
0.00992801
0.00992861
0.00992913
0.00992957
0.00992992
0.00993019
0.00993037
0.00993047
0.00993049
0.00993043
0.00993028
0.00993006
0.00992975
0.00992937
0.00992891
0.00992839
0.00992779
0.00992713
0.00992643
0.00992572
0.00992499
0.00992425
0.00992348
0.00992267
0.00992182
0.00992092
0.00991996
0.00991894
0.00991783
0.00991664
0.0099976
0.00998984
0.00997965
0.00996766
0.00995441
0.00994039
0.00992598
0.00991152
0.00989727
0.00988342
0.00987013
0.00985752
0.00984568
0.00983467
0.00982451
0.00981521
0.00980677
0.00979917
0.00979238
0.00978638
0.00978113
0.00977661
0.00977279
0.00976964
0.00976714
0.00976525
0.00976396
0.00976323
0.00976302
0.00976331
0.00976407
0.00976526
0.00976686
0.00976882
0.00977112
0.00977373
0.00977662
0.00977975
0.00978309
0.00978661
0.00979029
0.00979409
0.009798
0.00980198
0.00980602
0.00981009
0.00981418
0.00981827
0.00982234
0.00982639
0.0098304
0.00983436
0.00983826
0.0098421
0.00984586
0.00984955
0.00985316
0.00985668
0.00986012
0.00986347
0.00986674
0.00986991
0.00987299
0.00987598
0.00987889
0.0098817
0.00988442
0.00988706
0.00988961
0.00989207
0.00989444
0.00989674
0.00989895
0.00990107
0.00990311
0.00990508
0.00990696
0.00990875
0.00991047
0.00991211
0.00991366
0.00991514
0.00991653
0.00991784
0.00991907
0.00992021
0.00992127
0.00992225
0.00992314
0.00992394
0.00992465
0.00992528
0.00992582
0.00992627
0.00992664
0.00992691
0.0099271
0.0099272
0.00992721
0.00992714
0.00992699
0.00992676
0.00992647
0.00992611
0.00992571
0.0099253
0.00992492
0.00992455
0.00992418
0.00992382
0.00992346
0.00992309
0.0099227
0.00992228
0.00992183
0.00992133
0.00992073
0.00992001
0.00991916
0.00991818
0.00999675
0.00998758
0.00997623
0.00996331
0.00994932
0.00993471
0.00991985
0.00990503
0.00989048
0.00987637
0.00986284
0.00985
0.00983792
0.00982666
0.00981626
0.00980671
0.00979802
0.00979016
0.0097831
0.00977681
0.00977127
0.00976645
0.00976233
0.00975889
0.00975612
0.00975399
0.00975248
0.00975156
0.0097512
0.00975137
0.00975203
0.00975317
0.00975474
0.00975671
0.00975906
0.00976174
0.00976473
0.00976798
0.00977148
0.00977517
0.00977904
0.00978305
0.00978718
0.00979139
0.00979566
0.00979997
0.00980431
0.00980864
0.00981296
0.00981725
0.0098215
0.00982569
0.00982982
0.00983389
0.00983787
0.00984178
0.00984559
0.00984932
0.00985296
0.00985651
0.00985996
0.00986331
0.00986657
0.00986973
0.0098728
0.00987578
0.00987866
0.00988145
0.00988415
0.00988676
0.00988929
0.00989172
0.00989407
0.00989633
0.0098985
0.00990059
0.0099026
0.00990452
0.00990636
0.00990811
0.00990978
0.00991137
0.00991287
0.00991428
0.00991561
0.00991685
0.009918
0.00991907
0.00992004
0.00992092
0.00992171
0.0099224
0.00992301
0.00992352
0.00992393
0.00992426
0.00992449
0.00992463
0.00992469
0.00992466
0.00992456
0.00992439
0.00992418
0.00992397
0.00992379
0.00992364
0.00992353
0.00992344
0.00992337
0.00992332
0.00992327
0.00992322
0.00992316
0.00992304
0.00992282
0.00992248
0.00992202
0.00992142
0.0099207
0.00991983
0.00999582
0.00998507
0.00997245
0.00995854
0.00994378
0.00992857
0.00991328
0.00989815
0.00988334
0.009869
0.00985522
0.00984212
0.00982977
0.00981823
0.00980754
0.00979771
0.00978871
0.00978053
0.00977313
0.00976648
0.00976056
0.00975535
0.00975083
0.00974701
0.00974387
0.0097414
0.00973959
0.00973842
0.00973784
0.00973782
0.00973835
0.00973939
0.0097409
0.00974287
0.00974526
0.00974802
0.00975112
0.00975453
0.00975821
0.00976212
0.00976622
0.00977049
0.00977489
0.00977938
0.00978395
0.00978856
0.0097932
0.00979784
0.00980246
0.00980706
0.0098116
0.00981609
0.00982052
0.00982486
0.00982913
0.0098333
0.00983739
0.00984138
0.00984527
0.00984906
0.00985275
0.00985633
0.00985982
0.00986321
0.00986649
0.00986968
0.00987277
0.00987576
0.00987866
0.00988147
0.00988418
0.0098868
0.00988933
0.00989176
0.00989412
0.00989638
0.00989855
0.00990064
0.00990264
0.00990456
0.00990638
0.00990812
0.00990977
0.00991133
0.0099128
0.00991417
0.00991546
0.00991665
0.00991774
0.00991874
0.00991964
0.00992045
0.00992115
0.00992176
0.00992227
0.00992269
0.00992301
0.00992323
0.00992337
0.00992342
0.00992341
0.00992333
0.00992324
0.00992319
0.00992318
0.00992321
0.00992329
0.0099234
0.00992354
0.0099237
0.00992387
0.00992404
0.00992415
0.00992415
0.00992404
0.00992379
0.00992342
0.00992291
0.00992227
0.00992149
0.00999482
0.00998238
0.00996846
0.00995358
0.00993809
0.00992233
0.00990671
0.00989138
0.00987642
0.0098619
0.00984791
0.00983454
0.0098219
0.00981005
0.00979905
0.00978889
0.00977954
0.00977099
0.00976318
0.00975609
0.00974969
0.00974396
0.00973892
0.00973456
0.00973091
0.00972798
0.00972577
0.00972425
0.00972338
0.00972311
0.00972342
0.00972431
0.00972573
0.00972767
0.00973008
0.00973292
0.00973616
0.00973974
0.00974364
0.0097478
0.00975219
0.00975677
0.0097615
0.00976634
0.00977127
0.00977625
0.00978126
0.00978627
0.00979126
0.00979622
0.00980114
0.00980598
0.00981076
0.00981545
0.00982005
0.00982455
0.00982896
0.00983326
0.00983745
0.00984154
0.00984552
0.00984939
0.00985315
0.0098568
0.00986035
0.00986379
0.00986713
0.00987037
0.00987351
0.00987654
0.00987948
0.00988233
0.00988508
0.00988773
0.00989029
0.00989276
0.00989514
0.00989743
0.00989962
0.00990173
0.00990374
0.00990566
0.00990748
0.00990922
0.00991085
0.00991239
0.00991384
0.00991518
0.00991643
0.00991757
0.00991861
0.00991955
0.00992038
0.00992112
0.00992175
0.00992227
0.0099227
0.00992303
0.00992326
0.00992341
0.00992348
0.00992349
0.00992348
0.00992351
0.00992359
0.00992372
0.00992389
0.00992411
0.00992437
0.00992465
0.00992496
0.00992523
0.00992541
0.00992548
0.00992543
0.00992524
0.00992493
0.00992448
0.00992389
0.00992317
0.00999374
0.00997958
0.00996438
0.00994871
0.00993265
0.00991644
0.00990077
0.00988558
0.0098708
0.00985645
0.00984259
0.00982929
0.00981663
0.00980466
0.0097934
0.00978285
0.00977301
0.00976383
0.00975531
0.00974743
0.00974019
0.00973362
0.00972773
0.00972255
0.0097181
0.00971445
0.00971166
0.0097097
0.0097084
0.00970774
0.00970772
0.00970835
0.00970962
0.00971149
0.00971389
0.0097168
0.00972017
0.00972396
0.0097281
0.00973257
0.00973729
0.00974224
0.00974737
0.00975263
0.00975798
0.0097634
0.00976884
0.00977429
0.00977973
0.00978512
0.00979046
0.00979572
0.00980091
0.009806
0.00981099
0.00981587
0.00982065
0.00982531
0.00982986
0.00983428
0.00983859
0.00984279
0.00984686
0.00985082
0.00985467
0.0098584
0.00986203
0.00986554
0.00986895
0.00987225
0.00987544
0.00987854
0.00988153
0.00988442
0.00988722
0.00988991
0.00989251
0.00989502
0.00989742
0.00989973
0.00990194
0.00990406
0.00990607
0.00990799
0.00990981
0.00991152
0.00991313
0.00991464
0.00991604
0.00991733
0.00991852
0.00991959
0.00992056
0.00992142
0.00992217
0.00992281
0.00992334
0.00992377
0.00992409
0.00992433
0.00992447
0.00992455
0.00992458
0.00992462
0.00992472
0.00992488
0.00992509
0.00992535
0.00992566
0.009926
0.00992637
0.00992668
0.00992689
0.009927
0.00992698
0.00992683
0.00992655
0.00992613
0.00992558
0.0099249
0.00999256
0.00997675
0.00996049
0.0099446
0.00992883
0.00991319
0.00989797
0.00988323
0.00986885
0.0098548
0.00984115
0.00982796
0.0098153
0.00980321
0.0097917
0.00978078
0.00977043
0.00976063
0.00975135
0.00974261
0.00973443
0.0097269
0.00972004
0.00971386
0.00970841
0.00970372
0.00969982
0.0096967
0.00969436
0.00969278
0.00969201
0.00969212
0.0096931
0.0096948
0.00969712
0.00970004
0.00970353
0.00970751
0.00971194
0.00971674
0.00972185
0.00972723
0.00973282
0.00973856
0.00974441
0.00975033
0.00975629
0.00976225
0.00976818
0.00977407
0.00977989
0.00978563
0.00979127
0.00979681
0.00980224
0.00980755
0.00981274
0.0098178
0.00982273
0.00982753
0.00983221
0.00983676
0.00984118
0.00984547
0.00984964
0.00985368
0.00985761
0.00986142
0.00986511
0.00986869
0.00987215
0.00987551
0.00987876
0.0098819
0.00988493
0.00988786
0.00989068
0.00989341
0.00989602
0.00989854
0.00990095
0.00990325
0.00990545
0.00990755
0.00990954
0.00991141
0.00991318
0.00991484
0.00991639
0.00991782
0.00991914
0.00992034
0.00992143
0.0099224
0.00992325
0.00992399
0.00992462
0.00992513
0.00992554
0.00992584
0.00992605
0.00992617
0.00992623
0.00992625
0.00992633
0.00992648
0.00992668
0.00992693
0.00992725
0.0099276
0.00992799
0.00992831
0.00992854
0.00992866
0.00992866
0.00992852
0.00992826
0.00992786
0.00992733
0.00992666
0.00999125
0.00997464
0.0099586
0.0099431
0.00992801
0.00991311
0.00989853
0.00988451
0.00987066
0.00985698
0.00984357
0.0098305
0.00981785
0.00980566
0.00979393
0.00978267
0.00977186
0.00976146
0.00975144
0.00974179
0.00973259
0.00972404
0.00971616
0.00970889
0.00970224
0.00969631
0.00969116
0.0096868
0.00968328
0.00968061
0.00967882
0.00967793
0.00967795
0.00967884
0.00968059
0.00968324
0.00968671
0.00969084
0.00969551
0.00970066
0.0097062
0.00971207
0.00971817
0.00972447
0.00973088
0.00973737
0.0097439
0.00975042
0.00975691
0.00976334
0.00976969
0.00977595
0.0097821
0.00978812
0.00979402
0.00979979
0.00980542
0.0098109
0.00981625
0.00982145
0.00982651
0.00983142
0.0098362
0.00984084
0.00984534
0.00984971
0.00985394
0.00985805
0.00986203
0.00986589
0.00986962
0.00987324
0.00987673
0.00988012
0.00988338
0.00988653
0.00988957
0.0098925
0.00989532
0.00989802
0.00990061
0.0099031
0.00990546
0.00990772
0.00990986
0.00991189
0.00991379
0.00991558
0.00991726
0.00991881
0.00992024
0.00992155
0.00992273
0.0099238
0.00992474
0.00992556
0.00992626
0.00992684
0.0099273
0.00992766
0.00992791
0.00992807
0.00992815
0.00992817
0.0099282
0.0099283
0.00992847
0.0099287
0.009929
0.00992934
0.00992973
0.00993006
0.00993029
0.00993041
0.00993041
0.00993028
0.00993002
0.00992962
0.0099291
0.00992843
0.00999082
0.00997426
0.00995889
0.00994418
0.00993015
0.00991606
0.00990199
0.00988811
0.00987438
0.00986083
0.00984751
0.00983448
0.00982181
0.00980952
0.00979762
0.00978611
0.00977498
0.00976422
0.0097538
0.00974374
0.00973407
0.00972484
0.00971602
0.0097076
0.0096996
0.00969234
0.00968587
0.00968016
0.00967531
0.00967136
0.00966836
0.00966635
0.00966533
0.0096653
0.00966625
0.00966817
0.00967102
0.00967477
0.00967941
0.0096848
0.00969074
0.00969709
0.00970376
0.00971065
0.00971768
0.0097248
0.00973194
0.00973908
0.00974616
0.00975318
0.00976009
0.00976689
0.00977357
0.0097801
0.00978649
0.00979273
0.00979881
0.00980473
0.0098105
0.0098161
0.00982155
0.00982684
0.00983197
0.00983695
0.00984179
0.00984647
0.00985101
0.00985541
0.00985967
0.00986379
0.00986778
0.00987164
0.00987537
0.00987898
0.00988246
0.00988581
0.00988905
0.00989216
0.00989515
0.00989803
0.00990078
0.00990341
0.00990593
0.00990832
0.00991059
0.00991274
0.00991476
0.00991666
0.00991844
0.00992008
0.0099216
0.00992299
0.00992426
0.00992539
0.0099264
0.00992728
0.00992803
0.00992866
0.00992917
0.00992957
0.00992985
0.00993003
0.00993013
0.00993015
0.00993013
0.00993019
0.00993031
0.00993051
0.00993078
0.00993111
0.00993148
0.00993181
0.00993203
0.00993215
0.00993215
0.00993202
0.00993176
0.00993136
0.00993083
0.00993016
0.00999106
0.00997539
0.00996126
0.00994747
0.00993379
0.00992005
0.00990628
0.00989258
0.00987899
0.00986555
0.0098523
0.00983931
0.00982661
0.00981423
0.00980217
0.00979045
0.00977905
0.00976797
0.00975722
0.00974678
0.00973668
0.00972694
0.00971755
0.0097085
0.00969984
0.00969161
0.00968384
0.00967662
0.00967034
0.009665
0.00966068
0.00965741
0.00965523
0.00965416
0.00965421
0.00965534
0.00965752
0.00966071
0.00966489
0.00967
0.00967602
0.00968275
0.00968994
0.00969743
0.00970511
0.00971287
0.00972066
0.00972843
0.00973613
0.00974374
0.00975123
0.00975859
0.0097658
0.00977285
0.00977973
0.00978643
0.00979297
0.00979932
0.0098055
0.0098115
0.00981733
0.00982298
0.00982846
0.00983377
0.00983892
0.0098439
0.00984873
0.0098534
0.00985792
0.00986229
0.00986651
0.0098706
0.00987454
0.00987835
0.00988202
0.00988555
0.00988896
0.00989223
0.00989538
0.00989839
0.00990128
0.00990404
0.00990668
0.00990918
0.00991156
0.0099138
0.00991592
0.0099179
0.00991976
0.00992148
0.00992307
0.00992452
0.00992584
0.00992703
0.00992809
0.00992901
0.0099298
0.00993047
0.00993101
0.00993143
0.00993174
0.00993193
0.00993204
0.00993206
0.00993202
0.00993202
0.0099321
0.00993226
0.0099325
0.00993281
0.00993317
0.00993348
0.0099337
0.00993382
0.00993381
0.00993368
0.00993341
0.00993301
0.00993247
0.00993179
0.00999182
0.00997781
0.00996446
0.00995121
0.00993791
0.0099245
0.00991103
0.00989755
0.00988413
0.00987082
0.00985765
0.00984469
0.00983196
0.00981949
0.00980729
0.00979537
0.00978373
0.00977237
0.00976128
0.00975049
0.00973998
0.00972979
0.0097199
0.00971033
0.0097011
0.00969222
0.00968374
0.00967569
0.00966817
0.00966131
0.00965554
0.00965092
0.0096475
0.00964531
0.00964435
0.00964461
0.00964607
0.00964868
0.00965239
0.00965714
0.00966289
0.0096696
0.00967712
0.00968514
0.00969341
0.00970182
0.00971025
0.00971864
0.00972695
0.00973515
0.00974321
0.00975112
0.00975884
0.00976639
0.00977375
0.00978091
0.00978788
0.00979465
0.00980123
0.0098076
0.00981379
0.00981978
0.00982558
0.0098312
0.00983664
0.0098419
0.00984699
0.00985191
0.00985667
0.00986126
0.00986569
0.00986998
0.0098741
0.00987809
0.00988192
0.00988561
0.00988916
0.00989257
0.00989585
0.00989898
0.00990198
0.00990484
0.00990757
0.00991017
0.00991263
0.00991495
0.00991714
0.00991919
0.0099211
0.00992288
0.00992452
0.00992602
0.00992738
0.00992861
0.0099297
0.00993065
0.00993147
0.00993215
0.00993271
0.00993315
0.00993347
0.00993367
0.00993378
0.0099338
0.00993375
0.0099337
0.00993374
0.00993386
0.00993407
0.00993436
0.00993471
0.00993502
0.00993524
0.00993535
0.00993534
0.0099352
0.00993493
0.00993452
0.00993398
0.00993329
0.0099931
0.0099803
0.0099677
0.00995502
0.00994218
0.00992916
0.00991602
0.0099028
0.00988958
0.00987641
0.00986334
0.00985041
0.00983766
0.00982512
0.00981278
0.00980068
0.0097888
0.00977716
0.00976576
0.00975461
0.00974372
0.0097331
0.00972275
0.00971269
0.00970294
0.00969352
0.00968444
0.00967575
0.00966751
0.00965977
0.0096527
0.0096466
0.00964185
0.00963847
0.00963647
0.00963581
0.00963649
0.00963848
0.0096417
0.00964608
0.00965157
0.00965812
0.00966566
0.00967402
0.00968282
0.0096918
0.00970083
0.00970982
0.00971871
0.00972747
0.00973607
0.00974448
0.00975271
0.00976072
0.00976853
0.00977612
0.0097835
0.00979065
0.00979759
0.00980432
0.00981084
0.00981714
0.00982324
0.00982914
0.00983485
0.00984036
0.00984568
0.00985082
0.00985579
0.00986057
0.00986519
0.00986964
0.00987393
0.00987807
0.00988204
0.00988586
0.00988953
0.00989306
0.00989644
0.00989967
0.00990276
0.0099057
0.00990851
0.00991117
0.0099137
0.00991608
0.00991832
0.00992042
0.00992238
0.0099242
0.00992587
0.00992741
0.0099288
0.00993005
0.00993116
0.00993213
0.00993296
0.00993366
0.00993423
0.00993468
0.009935
0.0099352
0.00993531
0.00993532
0.00993526
0.00993517
0.00993517
0.00993527
0.00993546
0.00993573
0.00993607
0.00993638
0.00993659
0.0099367
0.00993669
0.00993655
0.00993628
0.00993587
0.00993532
0.00993462
0.00999416
0.00998256
0.00997079
0.00995876
0.00994645
0.00993387
0.00992109
0.00990817
0.00989518
0.00988217
0.00986921
0.00985633
0.00984357
0.00983095
0.00981849
0.0098062
0.0097941
0.00978219
0.00977048
0.00975899
0.00974772
0.00973668
0.00972589
0.00971537
0.00970513
0.00969519
0.00968558
0.00967633
0.00966748
0.0096591
0.00965125
0.0096441
0.00963796
0.00963333
0.00963024
0.00962866
0.00962855
0.00962988
0.00963259
0.00963661
0.00964185
0.00964824
0.00965573
0.00966423
0.00967342
0.0096829
0.00969246
0.00970199
0.0097114
0.00972067
0.00972976
0.00973865
0.00974733
0.00975578
0.00976399
0.00977198
0.00977972
0.00978723
0.00979451
0.00980155
0.00980836
0.00981495
0.00982132
0.00982747
0.00983341
0.00983914
0.00984467
0.00985001
0.00985515
0.00986011
0.00986489
0.00986949
0.00987391
0.00987817
0.00988227
0.0098862
0.00988997
0.00989359
0.00989705
0.00990036
0.00990353
0.00990654
0.00990941
0.00991212
0.0099147
0.00991713
0.00991941
0.00992155
0.00992354
0.00992538
0.00992709
0.00992864
0.00993005
0.00993132
0.00993244
0.00993342
0.00993427
0.00993497
0.00993555
0.00993599
0.00993631
0.00993652
0.00993662
0.00993662
0.00993655
0.00993644
0.0099364
0.00993647
0.00993663
0.00993689
0.00993723
0.00993753
0.00993774
0.00993785
0.00993784
0.0099377
0.00993743
0.00993702
0.00993646
0.00993576
0.00999499
0.00998457
0.00997369
0.00996236
0.00995062
0.00993853
0.00992614
0.00991355
0.00990081
0.00988799
0.00987515
0.00986233
0.00984956
0.00983687
0.00982429
0.00981183
0.0097995
0.00978733
0.00977532
0.00976348
0.00975183
0.0097404
0.00972918
0.00971821
0.0097075
0.00969707
0.00968696
0.00967719
0.0096678
0.00965884
0.00965038
0.00964252
0.00963544
0.00962955
0.00962535
0.00962284
0.00962195
0.00962263
0.00962483
0.00962848
0.00963347
0.00963972
0.00964717
0.00965573
0.00966521
0.0096751
0.00968511
0.0096951
0.00970498
0.0097147
0.00972423
0.00973354
0.00974262
0.00975145
0.00976004
0.00976837
0.00977645
0.00978427
0.00979184
0.00979917
0.00980625
0.00981308
0.00981969
0.00982606
0.0098322
0.00983813
0.00984385
0.00984935
0.00985465
0.00985976
0.00986467
0.0098694
0.00987394
0.00987831
0.00988251
0.00988653
0.00989039
0.00989408
0.00989762
0.009901
0.00990422
0.00990728
0.0099102
0.00991296
0.00991558
0.00991804
0.00992036
0.00992252
0.00992454
0.0099264
0.00992812
0.00992969
0.00993112
0.00993239
0.00993353
0.00993451
0.00993536
0.00993607
0.00993664
0.00993708
0.0099374
0.0099376
0.00993769
0.00993769
0.00993761
0.00993748
0.00993741
0.00993744
0.00993759
0.00993783
0.00993817
0.00993846
0.00993868
0.00993879
0.00993878
0.00993864
0.00993837
0.00993796
0.0099374
0.0099367
0.00999568
0.00998637
0.00997638
0.00996578
0.00995465
0.00994307
0.00993111
0.00991886
0.0099064
0.00989378
0.00988107
0.00986831
0.00985554
0.0098428
0.0098301
0.00981746
0.00980492
0.00979248
0.00978016
0.00976799
0.00975598
0.00974414
0.00973251
0.00972109
0.00970993
0.00969903
0.00968843
0.00967817
0.00966827
0.00965879
0.00964979
0.00964135
0.0096336
0.00962677
0.00962148
0.00961804
0.00961639
0.00961644
0.00961815
0.00962144
0.0096262
0.00963233
0.00963974
0.00964836
0.00965805
0.00966827
0.00967866
0.00968905
0.00969933
0.00970944
0.00971935
0.00972903
0.00973846
0.00974763
0.00975654
0.00976518
0.00977355
0.00978165
0.00978948
0.00979706
0.00980437
0.00981143
0.00981824
0.0098248
0.00983113
0.00983723
0.0098431
0.00984875
0.00985419
0.00985943
0.00986446
0.0098693
0.00987394
0.0098784
0.00988268
0.00988679
0.00989072
0.00989448
0.00989808
0.00990151
0.00990478
0.0099079
0.00991085
0.00991365
0.0099163
0.00991879
0.00992113
0.00992332
0.00992536
0.00992724
0.00992897
0.00993055
0.00993198
0.00993327
0.0099344
0.00993539
0.00993623
0.00993694
0.0099375
0.00993794
0.00993825
0.00993844
0.00993853
0.00993852
0.00993843
0.00993829
0.00993818
0.00993819
0.00993831
0.00993855
0.00993888
0.00993918
0.0099394
0.00993951
0.00993951
0.00993937
0.00993911
0.00993869
0.00993814
0.00993743
0.00999628
0.009988
0.00997888
0.00996902
0.00995851
0.00994746
0.00993595
0.00992406
0.00991189
0.00989948
0.00988691
0.00987422
0.00986146
0.00984866
0.00983584
0.00982304
0.00981028
0.00979758
0.00978496
0.00977245
0.00976007
0.00974784
0.00973579
0.00972395
0.00971234
0.00970098
0.00968991
0.00967917
0.00966879
0.00965882
0.00964932
0.00964036
0.00963204
0.00962456
0.0096183
0.00961399
0.0096116
0.00961107
0.00961231
0.00961526
0.00961981
0.00962583
0.00963322
0.0096419
0.00965176
0.00966226
0.00967297
0.00968369
0.00969431
0.00970475
0.00971499
0.00972498
0.00973472
0.00974418
0.00975337
0.00976228
0.00977091
0.00977925
0.00978731
0.0097951
0.00980262
0.00980987
0.00981686
0.0098236
0.00983009
0.00983633
0.00984234
0.00984813
0.00985369
0.00985903
0.00986417
0.00986911
0.00987384
0.00987839
0.00988274
0.00988692
0.00989091
0.00989473
0.00989838
0.00990187
0.00990518
0.00990834
0.00991133
0.00991416
0.00991684
0.00991936
0.00992172
0.00992393
0.00992598
0.00992787
0.00992962
0.00993121
0.00993264
0.00993393
0.00993506
0.00993605
0.00993689
0.00993759
0.00993815
0.00993858
0.00993888
0.00993906
0.00993913
0.00993911
0.00993901
0.00993885
0.00993871
0.0099387
0.00993881
0.00993904
0.00993937
0.00993967
0.0099399
0.00994002
0.00994002
0.00993989
0.00993963
0.00993922
0.00993866
0.00993795
0.00999681
0.00998949
0.0099812
0.00997207
0.0099622
0.00995168
0.00994062
0.00992912
0.00991723
0.00990505
0.00989263
0.00988002
0.00986726
0.00985441
0.00984148
0.00982851
0.00981553
0.00980256
0.00978965
0.0097768
0.00976406
0.00975145
0.00973899
0.00972672
0.00971466
0.00970286
0.00969133
0.00968013
0.00966928
0.00965883
0.00964885
0.00963941
0.0096306
0.00962257
0.00961561
0.00961045
0.00960738
0.0096063
0.00960711
0.00960974
0.00961408
0.00962
0.00962739
0.00963614
0.00964616
0.00965689
0.00966787
0.00967887
0.00968976
0.00970049
0.009711
0.00972127
0.00973126
0.00974098
0.00975042
0.00975956
0.00976841
0.00977696
0.00978523
0.0097932
0.0098009
0.00980832
0.00981547
0.00982236
0.00982899
0.00983536
0.0098415
0.0098474
0.00985307
0.00985852
0.00986375
0.00986877
0.00987359
0.00987821
0.00988263
0.00988687
0.00989093
0.0098948
0.0098985
0.00990203
0.00990539
0.00990858
0.00991161
0.00991447
0.00991718
0.00991972
0.0099221
0.00992432
0.00992639
0.0099283
0.00993005
0.00993165
0.00993309
0.00993437
0.00993551
0.00993649
0.00993733
0.00993802
0.00993858
0.00993899
0.00993928
0.00993946
0.00993952
0.00993948
0.00993936
0.00993919
0.00993902
0.00993899
0.00993908
0.00993931
0.00993964
0.00993995
0.00994018
0.00994031
0.00994032
0.0099402
0.00993994
0.00993953
0.00993897
0.00993826
0.00999729
0.00999086
0.00998337
0.00997495
0.0099657
0.00995572
0.00994513
0.009934
0.00992242
0.00991047
0.0098982
0.00988567
0.00987292
0.00986001
0.00984697
0.00983383
0.00982064
0.00980741
0.0097942
0.00978102
0.00976792
0.00975492
0.00974206
0.00972937
0.00971688
0.00970463
0.00969265
0.00968099
0.00966969
0.00965878
0.00964835
0.00963844
0.00962917
0.00962065
0.00961313
0.00960722
0.00960352
0.00960193
0.00960234
0.00960468
0.00960883
0.00961467
0.00962206
0.00963089
0.00964105
0.00965199
0.00966319
0.00967442
0.00968555
0.00969651
0.00970726
0.00971775
0.00972798
0.00973791
0.00974756
0.0097569
0.00976594
0.00977468
0.00978312
0.00979127
0.00979912
0.00980669
0.00981398
0.00982101
0.00982776
0.00983426
0.00984051
0.00984651
0.00985228
0.00985782
0.00986314
0.00986824
0.00987314
0.00987783
0.00988232
0.00988662
0.00989073
0.00989466
0.00989841
0.00990198
0.00990538
0.00990861
0.00991167
0.00991456
0.00991729
0.00991986
0.00992226
0.00992451
0.00992659
0.00992851
0.00993027
0.00993187
0.00993332
0.00993461
0.00993574
0.00993672
0.00993756
0.00993824
0.00993879
0.0099392
0.00993948
0.00993963
0.00993968
0.00993963
0.0099395
0.00993931
0.00993912
0.00993906
0.00993915
0.00993937
0.00993971
0.00994003
0.00994027
0.0099404
0.00994042
0.0099403
0.00994005
0.00993964
0.00993909
0.00993837
0.00999773
0.00999212
0.0099854
0.00997766
0.00996902
0.00995959
0.00994946
0.00993871
0.00992744
0.00991571
0.0099036
0.00989115
0.00987842
0.00986545
0.0098523
0.009839
0.00982558
0.0098121
0.00979859
0.00978508
0.00977162
0.00975824
0.00974498
0.00973187
0.00971896
0.00970627
0.00969385
0.00968174
0.00966999
0.00965864
0.00964776
0.00963741
0.00962769
0.00961872
0.00961071
0.00960416
0.00959988
0.00959782
0.00959787
0.00959993
0.00960392
0.00960968
0.00961706
0.00962597
0.00963627
0.00964738
0.00965877
0.00967019
0.00968152
0.00969269
0.00970363
0.00971433
0.00972474
0.00973487
0.00974469
0.00975421
0.00976342
0.00977232
0.00978092
0.00978921
0.00979721
0.00980492
0.00981234
0.00981948
0.00982635
0.00983296
0.00983931
0.00984542
0.00985128
0.00985691
0.00986231
0.00986749
0.00987245
0.00987721
0.00988177
0.00988613
0.0098903
0.00989428
0.00989807
0.00990169
0.00990513
0.0099084
0.00991149
0.00991442
0.00991718
0.00991977
0.0099222
0.00992446
0.00992656
0.00992849
0.00993027
0.00993188
0.00993333
0.00993462
0.00993576
0.00993674
0.00993757
0.00993825
0.00993879
0.00993919
0.00993946
0.0099396
0.00993964
0.00993957
0.00993942
0.00993921
0.009939
0.00993893
0.00993901
0.00993923
0.00993958
0.0099399
0.00994015
0.00994029
0.00994031
0.0099402
0.00993995
0.00993955
0.00993899
0.00993828
0.00999813
0.00999329
0.00998729
0.00998022
0.00997219
0.00996328
0.00995361
0.00994325
0.00993228
0.00992079
0.00990882
0.00989646
0.00988374
0.00987072
0.00985746
0.00984399
0.00983036
0.00981662
0.00980282
0.00978898
0.00977517
0.00976141
0.00974775
0.00973423
0.00972089
0.00970777
0.00969492
0.00968237
0.00967018
0.00965839
0.00964707
0.00963629
0.00962613
0.00961673
0.00960827
0.00960117
0.00959636
0.00959386
0.00959357
0.00959538
0.00959921
0.00960489
0.00961228
0.00962125
0.00963168
0.00964293
0.00965448
0.00966607
0.00967757
0.0096889