/*--------------------------------*- C++ -*----------------------------------*\
  =========                 |
  \\      /  F ield         | OpenFOAM: The Open Source CFD Toolbox
   \\    /   O peration     | Website:  https://openfoam.org
    \\  /    A nd           | Version:  8
     \\/     M anipulation  |
\*---------------------------------------------------------------------------*/
FoamFile
{
    version     2.0;
    format      ascii;
    class       volScalarField;
    location    "0.4";
    object      p;
}
// * * * * * * * * * * * * * * * * * * * * * * * * * * * * * * * * * * * * * //

dimensions      [0 2 -2 0 0 0 0];

internalField   nonuniform List<scalar> 
277560
(
-2.4012e-05
-6.52909e-05
-0.00010622
-0.000146768
-0.000186659
-0.000225934
-0.000264609
-0.000302732
-0.000340221
-0.000377271
-0.000413524
-0.000449556
-0.00048489
-0.000519914
-0.000554321
-0.000588402
-0.000621944
-0.0006552
-0.000687978
-0.000720505
-0.000752605
-0.000784501
-0.000816004
-0.000847362
-0.000878349
-0.000909255
-0.000939811
-0.000970348
-0.00100056
-0.0010308
-0.00106074
-0.00109076
-0.0011205
-0.00115037
-0.00117999
-0.00120978
-0.00123933
-0.0012691
-0.00129866
-0.00132845
-0.00135808
-0.00138797
-0.00141771
-0.00144775
-0.00147766
-0.0015079
-0.00153804
-0.00156853
-0.00159895
-0.00162974
-0.00166049
-0.00169163
-0.00172275
-0.00175429
-0.00178584
-0.00181783
-0.00184986
-0.00188235
-0.00191489
-0.00194793
-0.00198103
-0.00201467
-0.00204839
-0.00208267
-0.00211706
-0.00215203
-0.00218713
-0.00222284
-0.0022587
-0.0022952
-0.00233187
-0.00236921
-0.00240675
-0.00244497
-0.00248342
-0.00252259
-0.002562
-0.00260215
-0.00264258
-0.00268377
-0.00272528
-0.00276754
-0.00281018
-0.00285359
-0.0028974
-0.00294201
-0.00298706
-0.00303291
-0.00307925
-0.00312641
-0.0031741
-0.00322263
-0.00327171
-0.00332167
-0.00337222
-0.00342366
-0.00347572
-0.00352872
-0.00358236
-0.00363696
-0.00369224
-0.00374852
-0.00380551
-0.00386352
-0.00392228
-0.00398209
-0.00404269
-0.00410438
-0.00416687
-0.0042305
-0.00429497
-0.00436062
-0.00442713
-0.00449487
-0.0045635
-0.00463335
-0.00470417
-0.00477718
-0.00485209
-0.00491726
-2.37283e-05
-6.53298e-05
-0.000106124
-0.000146639
-0.000186551
-0.000225845
-0.000264553
-0.000302689
-0.000340247
-0.000377212
-0.000413628
-0.000449562
-0.000484947
-0.000519981
-0.000554424
-0.000588508
-0.000622074
-0.000655323
-0.000688124
-0.000720639
-0.000752763
-0.000784639
-0.000816174
-0.0008475
-0.000878528
-0.000909393
-0.000940002
-0.000970485
-0.00100075
-0.00103094
-0.00106095
-0.0010909
-0.00112072
-0.00115052
-0.00118022
-0.00120992
-0.00123958
-0.00126925
-0.00129892
-0.00132862
-0.00135835
-0.00138814
-0.001418
-0.00144794
-0.00147797
-0.00150811
-0.00153838
-0.00156876
-0.0015993
-0.00162999
-0.00166087
-0.0016919
-0.00172316
-0.00175458
-0.00178628
-0.00181815
-0.00185032
-0.00188268
-0.00191538
-0.00194828
-0.00198155
-0.00201505
-0.00204894
-0.00208307
-0.00211764
-0.00215246
-0.00218774
-0.00222329
-0.00225934
-0.00229567
-0.00233254
-0.00236971
-0.00240744
-0.00244549
-0.00248415
-0.00252313
-0.00256275
-0.00260272
-0.00264336
-0.00268438
-0.00272607
-0.00276819
-0.002811
-0.00285428
-0.00289826
-0.00294275
-0.00298796
-0.0030337
-0.0030802
-0.00312726
-0.00317509
-0.00322352
-0.00327276
-0.00332262
-0.00337332
-0.00342467
-0.00347688
-0.00352978
-0.00358358
-0.00363809
-0.00369353
-0.00374971
-0.00380686
-0.00386478
-0.0039237
-0.00398343
-0.00404419
-0.00410579
-0.00416845
-0.00423199
-0.00429663
-0.00436218
-0.00442888
-0.00449651
-0.00456534
-0.00463506
-0.00470609
-0.00477903
-0.00485419
-0.00491929
-2.36848e-05
-6.54078e-05
-0.000106167
-0.000146702
-0.000186657
-0.000225999
-0.000264754
-0.000302939
-0.000340541
-0.000377586
-0.00041403
-0.000449959
-0.000485465
-0.000520443
-0.000555001
-0.000589059
-0.000622724
-0.000655945
-0.000688831
-0.000721321
-0.000753525
-0.000785373
-0.000816988
-0.000848279
-0.000879393
-0.000910214
-0.000940914
-0.000971347
-0.00100171
-0.00103184
-0.00106195
-0.00109184
-0.00112177
-0.0011515
-0.00118131
-0.00121095
-0.0012407
-0.00127032
-0.00130008
-0.00132973
-0.00135956
-0.00138929
-0.00141925
-0.00144913
-0.00147926
-0.00150934
-0.00153971
-0.00157004
-0.00160068
-0.00163131
-0.00166228
-0.00169327
-0.00172461
-0.001756
-0.00178777
-0.0018196
-0.00185186
-0.00188418
-0.00191696
-0.00194982
-0.00198317
-0.00201663
-0.0020506
-0.00208469
-0.00211933
-0.00215411
-0.00218947
-0.00222498
-0.00226111
-0.00229741
-0.00233434
-0.00237147
-0.00240928
-0.00244729
-0.00248601
-0.00252496
-0.00256464
-0.00260459
-0.00264528
-0.00268628
-0.00272802
-0.00277012
-0.00281297
-0.00285624
-0.00290026
-0.00294473
-0.00298997
-0.00303571
-0.00308224
-0.00312929
-0.00317716
-0.00322559
-0.00327486
-0.00332472
-0.00337545
-0.0034268
-0.00347906
-0.00353196
-0.0035858
-0.00364032
-0.0036958
-0.003752
-0.00380919
-0.00386713
-0.0039261
-0.00398585
-0.00404666
-0.00410829
-0.00417101
-0.00423459
-0.00429929
-0.00436489
-0.00443165
-0.00449932
-0.00456822
-0.00463799
-0.00470909
-0.00478208
-0.00485733
-0.00492247
-2.3675e-05
-6.55184e-05
-0.000106304
-0.000146893
-0.000186917
-0.00022633
-0.000265159
-0.000303413
-0.000341101
-0.000378185
-0.000414746
-0.000450738
-0.000486272
-0.000521298
-0.000555938
-0.000590047
-0.000623783
-0.00065705
-0.000689994
-0.00072253
-0.000754783
-0.000786678
-0.000818332
-0.000849673
-0.000880817
-0.000911692
-0.000942411
-0.000972903
-0.00100328
-0.00103347
-0.00106358
-0.00109354
-0.00112346
-0.00115327
-0.00118305
-0.00121278
-0.00124251
-0.00127221
-0.00130194
-0.00133168
-0.00136147
-0.00139131
-0.00142121
-0.0014512
-0.00148128
-0.00151147
-0.00154177
-0.00157222
-0.0016028
-0.00163355
-0.00166445
-0.00169556
-0.00172683
-0.00175835
-0.00179004
-0.00182201
-0.00185416
-0.00188663
-0.00191931
-0.00195233
-0.00198557
-0.00201918
-0.00205303
-0.00208729
-0.0021218
-0.00215676
-0.00219198
-0.00222767
-0.00226365
-0.00230014
-0.00233692
-0.00237425
-0.00241189
-0.00245012
-0.00248867
-0.00252783
-0.00256734
-0.0026075
-0.00264802
-0.00268922
-0.00273082
-0.0027731
-0.00281583
-0.00285926
-0.00290317
-0.0029478
-0.00299295
-0.00303883
-0.00308528
-0.00313248
-0.00318026
-0.00322884
-0.00327803
-0.00332805
-0.0033787
-0.00343021
-0.00348239
-0.00353546
-0.00358923
-0.00364392
-0.00369934
-0.00375571
-0.00381285
-0.00387097
-0.00392989
-0.00398983
-0.00405059
-0.00411243
-0.0041751
-0.00423889
-0.00430356
-0.00436938
-0.00443611
-0.00450404
-0.00457291
-0.00464295
-0.00471402
-0.0047873
-0.00486254
-0.00492794
-2.3668e-05
-6.56664e-05
-0.000106531
-0.000147208
-0.000187328
-0.000226839
-0.000265763
-0.000304115
-0.000341884
-0.000379112
-0.000415718
-0.000451834
-0.000487404
-0.000522568
-0.000557225
-0.000591472
-0.000625241
-0.000658636
-0.000691604
-0.000724257
-0.000756529
-0.000788537
-0.000820201
-0.000851657
-0.000882801
-0.000913792
-0.0009445
-0.000975111
-0.00100547
-0.00103578
-0.00106586
-0.00109594
-0.00112582
-0.00115575
-0.00118551
-0.00121535
-0.00124504
-0.00127486
-0.00130455
-0.00133441
-0.00136416
-0.00139411
-0.00142398
-0.00145408
-0.00148412
-0.00151442
-0.00154469
-0.00157524
-0.00160578
-0.00163664
-0.00166751
-0.00169872
-0.00172996
-0.00176157
-0.00179323
-0.0018253
-0.00185742
-0.00188999
-0.00192263
-0.00195574
-0.00198895
-0.00202266
-0.00205648
-0.00209083
-0.00212531
-0.00216035
-0.00219554
-0.00223132
-0.00226727
-0.00230384
-0.0023406
-0.00237801
-0.00241563
-0.00245392
-0.00249245
-0.00253169
-0.00257118
-0.0026114
-0.00265191
-0.00269317
-0.00273476
-0.0027771
-0.00281983
-0.00286331
-0.00290723
-0.0029519
-0.00299706
-0.003043
-0.00308945
-0.0031367
-0.0031845
-0.00323314
-0.00328235
-0.00333242
-0.0033831
-0.00343467
-0.00348688
-0.00354001
-0.00359382
-0.00364858
-0.00370404
-0.00376049
-0.00381767
-0.00387588
-0.00393486
-0.00399489
-0.00405572
-0.00411765
-0.00418042
-0.00424432
-0.00430909
-0.00437503
-0.00444189
-0.00450995
-0.00457896
-0.00464917
-0.00472039
-0.00479386
-0.00486928
-0.00493487
-2.36708e-05
-6.58454e-05
-0.000106831
-0.00014763
-0.000187874
-0.000227509
-0.000266558
-0.000305027
-0.00034293
-0.000380239
-0.000417018
-0.000453221
-0.000488912
-0.000524155
-0.000558905
-0.000593274
-0.000627137
-0.000660637
-0.000693692
-0.000726437
-0.000758793
-0.000790883
-0.000822631
-0.000854155
-0.000885383
-0.000916431
-0.000947224
-0.00097788
-0.00100832
-0.00103867
-0.00106884
-0.00109894
-0.00112892
-0.00115886
-0.00118871
-0.00121856
-0.00124835
-0.00127816
-0.00130796
-0.0013378
-0.00136767
-0.0013976
-0.00142758
-0.00145765
-0.00148782
-0.00151808
-0.00154847
-0.00157898
-0.00160966
-0.00164046
-0.00167147
-0.00170262
-0.001734
-0.00176555
-0.00179735
-0.00182935
-0.00186163
-0.00189411
-0.00192692
-0.00195993
-0.00199331
-0.00202692
-0.00206091
-0.00209515
-0.00212981
-0.00216474
-0.00220012
-0.00223577
-0.00227191
-0.00230835
-0.00234531
-0.00238258
-0.0024204
-0.00245855
-0.0024973
-0.00253638
-0.00257609
-0.00261616
-0.00265689
-0.00269801
-0.0027398
-0.00278202
-0.00282494
-0.00286832
-0.00291241
-0.002957
-0.00300232
-0.00304819
-0.0030948
-0.00314199
-0.00318995
-0.00323852
-0.0032879
-0.00333791
-0.00338877
-0.00344028
-0.00349268
-0.00354576
-0.00359975
-0.00365446
-0.00371012
-0.00376652
-0.00382391
-0.00388208
-0.00394127
-0.00400127
-0.00406233
-0.00412424
-0.00418725
-0.00425114
-0.00431616
-0.00438211
-0.00444923
-0.00451732
-0.00458662
-0.00465685
-0.00472839
-0.00480191
-0.00487766
-0.0049433
-2.36761e-05
-6.60478e-05
-0.000107197
-0.00014815
-0.000188547
-0.000228333
-0.00026753
-0.000306146
-0.000344182
-0.000381664
-0.000418547
-0.000454903
-0.00049074
-0.000526068
-0.00056099
-0.000595424
-0.000629456
-0.000663031
-0.000696245
-0.000729051
-0.000761558
-0.000793699
-0.000825594
-0.000857158
-0.000888532
-0.000919606
-0.000950546
-0.000981215
-0.0010118
-0.00104215
-0.00107247
-0.00110256
-0.00113268
-0.00116261
-0.00119261
-0.00122243
-0.00125236
-0.00128216
-0.00131209
-0.00134191
-0.00137191
-0.00140181
-0.00143193
-0.00146198
-0.00149227
-0.00152251
-0.00155303
-0.00158352
-0.00161431
-0.0016451
-0.00167622
-0.00170736
-0.00173885
-0.00177038
-0.00180231
-0.00183428
-0.00186667
-0.00189913
-0.00193205
-0.00196505
-0.00199854
-0.00203212
-0.00206623
-0.00210045
-0.00213521
-0.00217012
-0.0022056
-0.00224124
-0.00227748
-0.00231391
-0.00235096
-0.00238822
-0.00242614
-0.00246428
-0.00250311
-0.00254219
-0.00258199
-0.00262206
-0.00266287
-0.00270399
-0.00274587
-0.0027881
-0.00283109
-0.00287449
-0.00291865
-0.00296327
-0.00300867
-0.00305456
-0.00310125
-0.00314847
-0.00319651
-0.00324512
-0.00329458
-0.00334464
-0.00339558
-0.00344714
-0.00349962
-0.00355276
-0.00360685
-0.00366162
-0.00371738
-0.00377385
-0.00383134
-0.0038896
-0.0039489
-0.00400899
-0.00407017
-0.00413219
-0.00419532
-0.00425933
-0.00432448
-0.00439057
-0.00445784
-0.00452606
-0.00459553
-0.00466591
-0.00473763
-0.00481131
-0.00488727
-0.00495305
-2.36888e-05
-6.62714e-05
-0.000107619
-0.000148757
-0.000189334
-0.000229298
-0.000268669
-0.000307455
-0.000345665
-0.000383278
-0.000420368
-0.000456868
-0.000492856
-0.000528342
-0.000563387
-0.000597951
-0.000632138
-0.000665845
-0.000699197
-0.000732126
-0.000764756
-0.000797017
-0.000829022
-0.000860701
-0.000892172
-0.000923358
-0.000954381
-0.000985161
-0.00101582
-0.00104627
-0.00107665
-0.00110686
-0.00113702
-0.00116706
-0.00119708
-0.00122703
-0.00125698
-0.00128689
-0.00131684
-0.00134678
-0.00137678
-0.00140682
-0.00143693
-0.00146711
-0.00149739
-0.00152777
-0.00155826
-0.0015889
-0.00161966
-0.0016506
-0.00168169
-0.00171298
-0.00174443
-0.00177612
-0.00180799
-0.00184013
-0.00187246
-0.0019051
-0.00193794
-0.00197112
-0.00200453
-0.0020383
-0.00207232
-0.00210673
-0.0021414
-0.00217651
-0.00221189
-0.00224774
-0.00228387
-0.00232051
-0.00235745
-0.00239493
-0.00243272
-0.00247109
-0.0025098
-0.00254912
-0.00258878
-0.00262909
-0.00266978
-0.00271113
-0.0027529
-0.00279534
-0.00283824
-0.00288184
-0.00292593
-0.00297074
-0.00301607
-0.00306215
-0.00310879
-0.00315619
-0.00320419
-0.00325299
-0.00330241
-0.00335265
-0.00340355
-0.00345532
-0.00350776
-0.0035611
-0.00361515
-0.00367014
-0.00372587
-0.00378256
-0.00384003
-0.00389851
-0.00395779
-0.00401811
-0.00407928
-0.00414154
-0.00420466
-0.00426892
-0.00433409
-0.00440042
-0.00446771
-0.0045362
-0.00460568
-0.00467635
-0.00474808
-0.00482206
-0.00489805
-0.0049641
-2.37038e-05
-6.65123e-05
-0.000108094
-0.000149445
-0.000190229
-0.000230396
-0.000269964
-0.000308945
-0.000347333
-0.000385166
-0.000422392
-0.000459098
-0.000495258
-0.000530923
-0.000566093
-0.00060086
-0.000635156
-0.000669059
-0.000702525
-0.000735642
-0.000768369
-0.000800808
-0.000832896
-0.000864753
-0.000896289
-0.000927651
-0.000958723
-0.000989677
-0.00102037
-0.001051
-0.00108139
-0.00111177
-0.00114194
-0.00117215
-0.00120218
-0.00123228
-0.00126223
-0.0012923
-0.00132224
-0.00135234
-0.00138234
-0.00141252
-0.00144263
-0.00147296
-0.00150323
-0.00153376
-0.00156425
-0.00159503
-0.00162578
-0.00165686
-0.00168794
-0.00171937
-0.00175082
-0.00178265
-0.00181451
-0.00184678
-0.00187911
-0.00191188
-0.00194472
-0.00197803
-0.00201144
-0.00204534
-0.00207935
-0.00211389
-0.00214857
-0.00218379
-0.00221918
-0.00225514
-0.00229128
-0.00232803
-0.00236498
-0.00240257
-0.00244038
-0.00247886
-0.00251758
-0.002557
-0.00259669
-0.0026371
-0.00267781
-0.00271927
-0.00276106
-0.00280361
-0.00284654
-0.00289024
-0.00293438
-0.00297928
-0.00302467
-0.00307084
-0.00311754
-0.00316504
-0.0032131
-0.003262
-0.00331148
-0.00336183
-0.0034128
-0.00346467
-0.00351718
-0.00357063
-0.00362476
-0.00367986
-0.00373567
-0.00379248
-0.00385004
-0.00390863
-0.00396801
-0.00402846
-0.00408973
-0.00415211
-0.00421534
-0.00427973
-0.00434501
-0.00441148
-0.00447888
-0.00454753
-0.00461712
-0.00468795
-0.0047598
-0.00483394
-0.00491006
-0.00497628
-2.3725e-05
-6.67693e-05
-0.000108614
-0.000150204
-0.00019122
-0.000231614
-0.000271404
-0.000310599
-0.000349208
-0.000387216
-0.000424684
-0.000461574
-0.000497926
-0.000533778
-0.00056914
-0.000604067
-0.000638528
-0.000672618
-0.000706246
-0.000739532
-0.000772412
-0.000805003
-0.00083724
-0.000869234
-0.000900915
-0.000932399
-0.000963612
-0.000994673
-0.0010255
-0.00105622
-0.00108675
-0.0011172
-0.00114751
-0.00117778
-0.00120794
-0.00123809
-0.00126818
-0.00129829
-0.00132837
-0.00135849
-0.00138863
-0.00141884
-0.00144909
-0.00147943
-0.00150985
-0.00154038
-0.00157103
-0.00160181
-0.00163273
-0.00166379
-0.00169504
-0.00172645
-0.00175808
-0.00178987
-0.00182192
-0.00185416
-0.00188668
-0.0019194
-0.00195244
-0.00198569
-0.0020193
-0.00205314
-0.00208736
-0.00212184
-0.00215673
-0.00219188
-0.00222748
-0.00226337
-0.00229974
-0.00233641
-0.00237359
-0.00241109
-0.00244914
-0.00248753
-0.00252649
-0.00256582
-0.00260575
-0.00264607
-0.00268703
-0.0027284
-0.00277043
-0.0028129
-0.00285607
-0.0028997
-0.00294405
-0.00298891
-0.0030345
-0.00308063
-0.00312753
-0.003175
-0.00322326
-0.00327213
-0.00332182
-0.00337214
-0.00342332
-0.00347516
-0.00352789
-0.00358132
-0.00363567
-0.00369074
-0.00374678
-0.00380357
-0.00386135
-0.00391993
-0.00397954
-0.00403997
-0.00410147
-0.00416384
-0.00422731
-0.00429168
-0.0043572
-0.00442367
-0.00449132
-0.00455994
-0.00462981
-0.00470061
-0.00477275
-0.00484687
-0.00492326
-0.00498946
-2.3748e-05
-6.70396e-05
-0.000109175
-0.00015103
-0.000192302
-0.000232946
-0.00027298
-0.000312414
-0.000351247
-0.000389506
-0.000427162
-0.000464279
-0.000500853
-0.000536908
-0.000572482
-0.000607572
-0.000642259
-0.000676492
-0.000710342
-0.000743771
-0.000776864
-0.000809582
-0.000842024
-0.000874128
-0.000906014
-0.00093759
-0.000969005
-0.00100014
-0.00103117
-0.00106195
-0.00109267
-0.00112317
-0.00115366
-0.00118397
-0.00121431
-0.00124449
-0.00127476
-0.00130488
-0.00133514
-0.00136528
-0.00139559
-0.0014258
-0.00145623
-0.00148658
-0.00151717
-0.00154771
-0.00157853
-0.00160931
-0.0016404
-0.00167148
-0.00170289
-0.00173431
-0.00176609
-0.0017979
-0.00183011
-0.00186236
-0.00189503
-0.00192777
-0.00196096
-0.00199424
-0.00202799
-0.00206186
-0.00209622
-0.00213072
-0.00216575
-0.00220093
-0.00223667
-0.00227259
-0.00230908
-0.00234579
-0.00238309
-0.00242064
-0.0024588
-0.00249723
-0.00253631
-0.00257569
-0.00261574
-0.00265611
-0.00269719
-0.0027386
-0.00278076
-0.00282328
-0.00286657
-0.00291026
-0.00295473
-0.00299965
-0.00304536
-0.00309156
-0.00313858
-0.00318612
-0.0032345
-0.00328344
-0.00333325
-0.00338365
-0.00343495
-0.00348687
-0.00353973
-0.00359324
-0.00364771
-0.00370287
-0.00375903
-0.0038159
-0.00387381
-0.00393248
-0.00399221
-0.00405273
-0.00411436
-0.00417682
-0.00424042
-0.00430489
-0.00437054
-0.0044371
-0.00450489
-0.00457361
-0.0046436
-0.0047145
-0.00478678
-0.004861
-0.00493754
-0.00500382
-2.37753e-05
-6.73229e-05
-0.000109775
-0.000151918
-0.00019347
-0.000234387
-0.000274688
-0.00031438
-0.000353471
-0.000391951
-0.000429883
-0.000467216
-0.000504024
-0.000540305
-0.000576095
-0.000611402
-0.000646281
-0.000680705
-0.000714766
-0.000748385
-0.000781671
-0.000814568
-0.000847188
-0.000879467
-0.000911514
-0.000943261
-0.000974823
-0.00100612
-0.00103728
-0.00106822
-0.00109906
-0.00112971
-0.00116031
-0.00119076
-0.00122119
-0.00125152
-0.00128186
-0.00131214
-0.00134245
-0.00137275
-0.00140311
-0.00143349
-0.00146395
-0.00149447
-0.00152509
-0.0015558
-0.00158664
-0.0016176
-0.00164871
-0.00167997
-0.00171139
-0.001743
-0.00177478
-0.00180679
-0.00183898
-0.00187144
-0.0019041
-0.00193705
-0.00197021
-0.0020037
-0.00203743
-0.00207151
-0.00210585
-0.00214057
-0.00217556
-0.00221097
-0.00224667
-0.00228281
-0.00231927
-0.00235621
-0.00239348
-0.00243125
-0.00246938
-0.00250804
-0.00254709
-0.00258669
-0.0026267
-0.00266731
-0.00270834
-0.00275001
-0.00279211
-0.00283488
-0.00287811
-0.00292205
-0.00296647
-0.00301162
-0.0030573
-0.00310373
-0.00315071
-0.00319847
-0.00324683
-0.00329599
-0.00334578
-0.0033964
-0.00344767
-0.00349982
-0.00355265
-0.00360639
-0.00366083
-0.00371622
-0.00377235
-0.00382946
-0.00388734
-0.00394625
-0.00400595
-0.00406671
-0.00412831
-0.00419101
-0.00425458
-0.00431929
-0.00438491
-0.00445171
-0.00451946
-0.00458844
-0.00465839
-0.00472956
-0.00480177
-0.00487627
-0.00495276
-0.00501928
-2.38038e-05
-6.76203e-05
-0.000110414
-0.00015287
-0.000194722
-0.000235935
-0.000276523
-0.000316495
-0.000355849
-0.00039462
-0.000432772
-0.00047038
-0.000507429
-0.000543957
-0.000579979
-0.000615524
-0.000650594
-0.000685266
-0.0007195
-0.000753361
-0.000786817
-0.000819949
-0.000852719
-0.000885227
-0.000917408
-0.000949383
-0.000981059
-0.00101259
-0.00104384
-0.001075
-0.00110592
-0.00113679
-0.00116745
-0.00119812
-0.0012286
-0.00125914
-0.00128952
-0.00132
-0.00135035
-0.00138084
-0.00141123
-0.0014418
-0.00147229
-0.00150301
-0.00153366
-0.00156456
-0.00159543
-0.00162658
-0.00165772
-0.00168917
-0.00172061
-0.00175241
-0.00178422
-0.00181642
-0.00184864
-0.00188128
-0.00191397
-0.0019471
-0.0019803
-0.00201396
-0.00204773
-0.00208198
-0.00211636
-0.00215124
-0.00218628
-0.00222184
-0.0022576
-0.00229389
-0.00233041
-0.00236748
-0.00240481
-0.00244272
-0.00248092
-0.00251972
-0.00255883
-0.00259857
-0.00263865
-0.0026794
-0.00272049
-0.0027623
-0.00280446
-0.00284738
-0.00289067
-0.00293475
-0.00297924
-0.00302453
-0.00307028
-0.00311684
-0.0031639
-0.0032118
-0.00326023
-0.00330953
-0.00335939
-0.00341014
-0.0034615
-0.00351378
-0.00356669
-0.00362056
-0.00367508
-0.00373061
-0.00378682
-0.00384406
-0.00390202
-0.00396106
-0.00402084
-0.00408173
-0.00414341
-0.00420624
-0.0042699
-0.00433474
-0.00440044
-0.00446736
-0.0045352
-0.0046043
-0.00467434
-0.00474563
-0.00481794
-0.00489255
-0.00496912
-0.00503577
-2.38363e-05
-6.79334e-05
-0.000111092
-0.000153881
-0.000196056
-0.000237584
-0.00027848
-0.000318749
-0.0003584
-0.000397429
-0.00043589
-0.000473753
-0.000511061
-0.00054785
-0.000584123
-0.00061991
-0.000655221
-0.000690112
-0.000724562
-0.000758657
-0.000792325
-0.000825672
-0.000858644
-0.000891349
-0.000923728
-0.000955885
-0.000987755
-0.00101945
-0.00105089
-0.0010822
-0.0011133
-0.00114431
-0.00117515
-0.00120593
-0.00123659
-0.00126723
-0.00129779
-0.00132836
-0.00135888
-0.00138945
-0.00142002
-0.00145066
-0.00148133
-0.0015121
-0.00154294
-0.0015739
-0.00160496
-0.00163616
-0.00166749
-0.00169897
-0.00173063
-0.00176245
-0.00179448
-0.00182669
-0.00185914
-0.00189178
-0.0019247
-0.00195783
-0.00199126
-0.00202493
-0.00205893
-0.00209317
-0.00212778
-0.00216266
-0.00219794
-0.0022335
-0.00226948
-0.00230577
-0.00234252
-0.0023796
-0.00241715
-0.00245507
-0.00249349
-0.00253229
-0.00257163
-0.00261136
-0.00265168
-0.0026924
-0.00273375
-0.00277551
-0.00281794
-0.0028608
-0.00290437
-0.0029484
-0.00299315
-0.0030384
-0.0030844
-0.00313093
-0.00317823
-0.00322611
-0.00327478
-0.00332405
-0.00337415
-0.00342488
-0.00347647
-0.00352872
-0.00358187
-0.00363571
-0.00369048
-0.00374596
-0.00380242
-0.00385962
-0.00391784
-0.00397683
-0.00403687
-0.00409771
-0.00415964
-0.00422242
-0.00428633
-0.00435112
-0.00441707
-0.00448395
-0.00455204
-0.00462108
-0.00469138
-0.0047626
-0.00483518
-0.00490973
-0.00498656
-0.00505316
-2.38708e-05
-6.82648e-05
-0.00011181
-0.000154952
-0.000197468
-0.00023933
-0.000280551
-0.000321137
-0.000361091
-0.000400437
-0.000439164
-0.000477322
-0.000514914
-0.00055197
-0.000588514
-0.000624558
-0.000660131
-0.000695239
-0.000729956
-0.000764249
-0.00079818
-0.00083172
-0.000864946
-0.000897825
-0.000930451
-0.000962764
-0.00099488
-0.00102671
-0.0010584
-0.00108983
-0.00112117
-0.00115228
-0.00118335
-0.00121422
-0.00124511
-0.00127583
-0.00130661
-0.00133724
-0.00136799
-0.00139862
-0.0014294
-0.00146009
-0.00149098
-0.0015218
-0.00155286
-0.00158386
-0.00161514
-0.00164638
-0.00167793
-0.00170946
-0.00174133
-0.0017732
-0.00180543
-0.0018377
-0.00187035
-0.00190305
-0.00193616
-0.00196935
-0.00200297
-0.0020367
-0.00207088
-0.0021052
-0.00213998
-0.00217493
-0.00221038
-0.00224601
-0.00228216
-0.00231854
-0.00235544
-0.0023926
-0.00243031
-0.00246831
-0.00250688
-0.00254576
-0.00258526
-0.00262507
-0.00266554
-0.00270634
-0.00274785
-0.00278968
-0.00283227
-0.00287521
-0.00291893
-0.00296303
-0.00300794
-0.00305327
-0.00309941
-0.00314603
-0.00319347
-0.00324143
-0.00329024
-0.0033396
-0.00338983
-0.00344065
-0.00349238
-0.00354471
-0.00359799
-0.00365192
-0.00370682
-0.00376239
-0.00381898
-0.00387626
-0.00393461
-0.00399368
-0.00405384
-0.00411477
-0.00417683
-0.00423969
-0.00430372
-0.00436859
-0.00443467
-0.00450163
-0.00456984
-0.00463897
-0.00470939
-0.0047807
-0.0048534
-0.00492803
-0.00500498
-0.00507164
-2.39096e-05
-6.86147e-05
-0.000112566
-0.000156078
-0.000198954
-0.000241169
-0.000282733
-0.000323652
-0.000363933
-0.000403576
-0.000442639
-0.000481083
-0.000518971
-0.000556311
-0.000593139
-0.000629456
-0.000665295
-0.000700665
-0.000735624
-0.000770154
-0.000804338
-0.000838112
-0.000871574
-0.000904675
-0.000937519
-0.00097005
-0.00100237
-0.00103441
-0.00106629
-0.00109792
-0.00112944
-0.00116075
-0.00119198
-0.00122305
-0.00125407
-0.00128498
-0.00131589
-0.00134672
-0.00137757
-0.0014084
-0.00143928
-0.00147017
-0.00150114
-0.00153217
-0.0015633
-0.00159452
-0.00162586
-0.00165732
-0.00168893
-0.00172069
-0.0017526
-0.00178471
-0.00181699
-0.00184948
-0.00188217
-0.00191511
-0.00194826
-0.00198169
-0.00201534
-0.00204931
-0.00208352
-0.00211807
-0.00215289
-0.00218807
-0.00222355
-0.00225942
-0.00229559
-0.0023322
-0.00236913
-0.00240652
-0.00244426
-0.00248249
-0.00252108
-0.0025602
-0.0025997
-0.00263977
-0.00268023
-0.00272129
-0.00276277
-0.00280489
-0.00284743
-0.00289066
-0.00293433
-0.00297871
-0.00302358
-0.00306917
-0.00311529
-0.00316216
-0.00320959
-0.00325779
-0.00330658
-0.00335618
-0.0034064
-0.00345746
-0.00350916
-0.00356174
-0.003615
-0.00366917
-0.00372403
-0.00377986
-0.00383641
-0.00389395
-0.00395224
-0.00401158
-0.00407169
-0.00413288
-0.00419488
-0.00425801
-0.00432198
-0.00438711
-0.00445313
-0.00452035
-0.0045885
-0.00465789
-0.00472824
-0.00479982
-0.00487244
-0.00494735
-0.00502423
-0.00509112
-2.39508e-05
-6.89851e-05
-0.00011336
-0.00015726
-0.000200512
-0.000243096
-0.000285019
-0.000326288
-0.000366902
-0.000406896
-0.000446252
-0.00048503
-0.000523222
-0.000560865
-0.000597983
-0.000634593
-0.000670708
-0.000706361
-0.000741558
-0.000776374
-0.00081078
-0.000844833
-0.00087851
-0.000911884
-0.000944922
-0.000977718
-0.00101021
-0.00104252
-0.00107455
-0.00110645
-0.0011381
-0.00116968
-0.00120103
-0.00123235
-0.00126348
-0.00129464
-0.00132564
-0.00135671
-0.00138765
-0.00141872
-0.00144968
-0.00148081
-0.00151186
-0.00154312
-0.00157432
-0.00160577
-0.00163719
-0.00166888
-0.00170056
-0.00173255
-0.00176453
-0.00179686
-0.00182921
-0.00186193
-0.0018947
-0.00192785
-0.00196108
-0.00199471
-0.00202845
-0.00206262
-0.00209691
-0.00213166
-0.00216657
-0.00220194
-0.0022375
-0.00227356
-0.00230983
-0.00234661
-0.00238364
-0.0024212
-0.00245903
-0.00249743
-0.00253612
-0.00257541
-0.002615
-0.00265523
-0.00269578
-0.00273701
-0.00277857
-0.00282086
-0.00286348
-0.00290688
-0.00295063
-0.00299518
-0.00304013
-0.00308588
-0.00313208
-0.00317911
-0.00322662
-0.00327497
-0.00332385
-0.0033736
-0.00342391
-0.00347511
-0.0035269
-0.00357962
-0.00363296
-0.00368727
-0.00374222
-0.00379818
-0.00385482
-0.00391249
-0.00397087
-0.00403033
-0.00409053
-0.00415185
-0.00421394
-0.00427719
-0.00434125
-0.0044065
-0.00447261
-0.00453995
-0.00460818
-0.0046777
-0.00474813
-0.00481984
-0.00489254
-0.00496756
-0.00504452
-0.00511154
-2.39963e-05
-6.93754e-05
-0.000114191
-0.000158493
-0.000202138
-0.000245107
-0.000287405
-0.000329038
-0.000370012
-0.000410332
-0.000450052
-0.000489148
-0.000527658
-0.000565619
-0.000603039
-0.000639952
-0.000676362
-0.000712299
-0.000747777
-0.000782856
-0.000817517
-0.000851844
-0.000885774
-0.000919401
-0.00095268
-0.000985713
-0.00101844
-0.00105097
-0.00108323
-0.00111534
-0.00114722
-0.00117898
-0.00121055
-0.00124205
-0.0012734
-0.00130471
-0.00133592
-0.00136714
-0.0013983
-0.00142949
-0.00146067
-0.00149191
-0.00152318
-0.00155455
-0.00158598
-0.00161753
-0.00164917
-0.00168095
-0.00171287
-0.00174494
-0.00177717
-0.00180957
-0.00184216
-0.00187495
-0.00190796
-0.00194117
-0.00197465
-0.00200834
-0.00204233
-0.00207655
-0.00211109
-0.00214589
-0.00218104
-0.00221647
-0.00225227
-0.00228838
-0.00232489
-0.00236172
-0.00239898
-0.00243659
-0.00247467
-0.0025131
-0.00255203
-0.00259134
-0.00263119
-0.00267143
-0.00271225
-0.00275347
-0.00279531
-0.00283758
-0.00288049
-0.00292385
-0.0029679
-0.00301241
-0.00305765
-0.00310337
-0.00314985
-0.00319684
-0.00324462
-0.00329294
-0.00334208
-0.00339181
-0.00344237
-0.00349355
-0.00354559
-0.00359829
-0.00365188
-0.00370616
-0.00376137
-0.00381729
-0.00387419
-0.00393181
-0.00399046
-0.00404987
-0.00411034
-0.0041716
-0.00423396
-0.00429715
-0.00436147
-0.00442667
-0.00449304
-0.00456032
-0.00462882
-0.00469827
-0.00476898
-0.00484061
-0.0049136
-0.00498855
-0.00506577
-0.00513274
-2.40445e-05
-6.97876e-05
-0.000115059
-0.000159779
-0.000203831
-0.000247198
-0.000289885
-0.000331898
-0.000373236
-0.000413929
-0.000453977
-0.000493425
-0.000532274
-0.000570558
-0.000608301
-0.000645523
-0.000682242
-0.000718474
-0.000754254
-0.000789591
-0.000824555
-0.000859122
-0.000893348
-0.000927209
-0.000960777
-0.000994023
-0.00102704
-0.00105976
-0.0010923
-0.00112458
-0.00115674
-0.00118866
-0.00122051
-0.00125215
-0.00128377
-0.00131521
-0.00134669
-0.00137802
-0.00140944
-0.00144073
-0.00147217
-0.00150351
-0.00153504
-0.0015665
-0.00159818
-0.00162982
-0.00166172
-0.0016936
-0.00172576
-0.00175792
-0.00179039
-0.00182289
-0.00185572
-0.0018886
-0.00192184
-0.00195515
-0.00198885
-0.00202265
-0.00205685
-0.00209117
-0.00212592
-0.00216083
-0.00219618
-0.00223172
-0.00226771
-0.00230393
-0.00234063
-0.00237756
-0.00241502
-0.00245273
-0.00249099
-0.00252952
-0.00256864
-0.00260805
-0.00264808
-0.00268842
-0.00272941
-0.00277073
-0.00281274
-0.0028551
-0.00289818
-0.00294163
-0.00298586
-0.00303045
-0.00307586
-0.00312166
-0.00316831
-0.00321539
-0.00326333
-0.00331175
-0.00336105
-0.00341086
-0.00346157
-0.00351284
-0.00356504
-0.00361782
-0.00367156
-0.00372593
-0.00378128
-0.00383729
-0.00389433
-0.00395204
-0.00401083
-0.00407032
-0.00413093
-0.00419227
-0.00425476
-0.00431804
-0.00438249
-0.00444778
-0.00451427
-0.00458165
-0.00465028
-0.00471981
-0.00479065
-0.00486237
-0.00493548
-0.00501053
-0.00508787
-0.00515491
-2.40969e-05
-7.02203e-05
-0.000115962
-0.000161113
-0.000205586
-0.000249366
-0.000292456
-0.00033486
-0.000376583
-0.000417632
-0.000458068
-0.000497857
-0.000537056
-0.000575676
-0.000613753
-0.000651295
-0.000688334
-0.000724878
-0.000760961
-0.000796594
-0.000831839
-0.000866678
-0.000901193
-0.000935324
-0.000969164
-0.00100267
-0.00103593
-0.00106891
-0.00110169
-0.00113422
-0.0011666
-0.00119876
-0.00123082
-0.0012627
-0.00129451
-0.00132618
-0.00135784
-0.0013894
-0.00142098
-0.00145251
-0.00148409
-0.00151567
-0.00154733
-0.00157903
-0.00161084
-0.00164272
-0.00167474
-0.00170686
-0.00173913
-0.00177154
-0.00180411
-0.00183686
-0.00186979
-0.00190292
-0.00193625
-0.00196982
-0.0020036
-0.00203765
-0.00207193
-0.00210651
-0.00214134
-0.00217649
-0.00221192
-0.0022477
-0.00228377
-0.00232023
-0.00235699
-0.00239418
-0.00243169
-0.00246965
-0.00250796
-0.00254675
-0.0025859
-0.00262557
-0.00266563
-0.00270623
-0.00274724
-0.00278883
-0.00283085
-0.00287349
-0.00291657
-0.00296031
-0.0030045
-0.0030494
-0.00309477
-0.00314088
-0.00318748
-0.00323486
-0.00328276
-0.00333146
-0.00338072
-0.00343081
-0.0034815
-0.00353303
-0.0035852
-0.00363825
-0.00369196
-0.0037466
-0.00380191
-0.00385819
-0.00391518
-0.00397318
-0.00403191
-0.00409168
-0.00415223
-0.00421386
-0.00427628
-0.00433984
-0.00440424
-0.0044698
-0.00453624
-0.00460388
-0.00467245
-0.00474227
-0.00481303
-0.00488504
-0.00495808
-0.0050334
-0.00511069
-0.00517797
-2.41523e-05
-7.06758e-05
-0.0001169
-0.000162495
-0.000207402
-0.000251607
-0.000295112
-0.000337922
-0.000380033
-0.000421482
-0.000462268
-0.000502439
-0.000541994
-0.000580967
-0.000619384
-0.000657263
-0.000694627
-0.000731498