/*--------------------------------*- C++ -*----------------------------------*\
  =========                 |
  \\      /  F ield         | OpenFOAM: The Open Source CFD Toolbox
   \\    /   O peration     | Website:  https://openfoam.org
    \\  /    A nd           | Version:  8
     \\/     M anipulation  |
\*---------------------------------------------------------------------------*/
FoamFile
{
    version     2.0;
    format      ascii;
    class       volScalarField;
    location    "0.4";
    object      p;
}
// * * * * * * * * * * * * * * * * * * * * * * * * * * * * * * * * * * * * * //

dimensions      [0 2 -2 0 0 0 0];

internalField   nonuniform List<scalar> 
277560
(
-0.0217973
-0.0217919
-0.0218007
-0.0218112
-0.0218229
-0.021835
-0.0218469
-0.0218584
-0.0218694
-0.0218799
-0.0218901
-0.0218995
-0.0219086
-0.0219171
-0.0219254
-0.0219332
-0.0219408
-0.021948
-0.021955
-0.0219615
-0.0219679
-0.0219738
-0.0219795
-0.0219849
-0.0219901
-0.0219949
-0.0219997
-0.0220041
-0.0220084
-0.0220124
-0.0220164
-0.0220201
-0.0220238
-0.0220272
-0.0220307
-0.0220339
-0.0220373
-0.0220404
-0.0220436
-0.0220466
-0.0220497
-0.0220526
-0.0220558
-0.0220586
-0.0220617
-0.0220646
-0.0220677
-0.0220705
-0.0220736
-0.0220765
-0.0220796
-0.0220824
-0.0220855
-0.0220884
-0.0220915
-0.0220944
-0.0220974
-0.0221003
-0.0221034
-0.0221062
-0.0221092
-0.022112
-0.0221149
-0.0221177
-0.0221205
-0.0221232
-0.0221259
-0.0221285
-0.0221311
-0.0221337
-0.0221361
-0.0221386
-0.022141
-0.0221434
-0.0221458
-0.0221482
-0.0221506
-0.0221531
-0.0221556
-0.0221582
-0.0221611
-0.022164
-0.0221673
-0.0221706
-0.0221744
-0.0221781
-0.0221826
-0.0221868
-0.0221919
-0.0221967
-0.0222024
-0.0222077
-0.022214
-0.0222199
-0.0222269
-0.0222333
-0.0222409
-0.022248
-0.0222562
-0.0222639
-0.0222729
-0.0222811
-0.0222908
-0.0222998
-0.0223102
-0.0223198
-0.0223309
-0.0223412
-0.0223531
-0.022364
-0.0223765
-0.022388
-0.0224012
-0.0224133
-0.0224269
-0.0224392
-0.0224527
-0.0224642
-0.0224761
-0.0224874
-0.0217843
-0.0217862
-0.0217972
-0.0218091
-0.0218216
-0.0218342
-0.0218465
-0.0218582
-0.0218694
-0.02188
-0.0218901
-0.0218996
-0.0219087
-0.0219172
-0.0219254
-0.0219333
-0.0219409
-0.0219481
-0.0219551
-0.0219617
-0.021968
-0.021974
-0.0219797
-0.0219851
-0.0219903
-0.0219952
-0.0219999
-0.0220044
-0.0220086
-0.0220127
-0.0220166
-0.0220203
-0.022024
-0.0220274
-0.0220309
-0.0220342
-0.0220374
-0.0220406
-0.0220437
-0.0220468
-0.0220498
-0.0220528
-0.0220558
-0.0220588
-0.0220617
-0.0220647
-0.0220677
-0.0220707
-0.0220736
-0.0220766
-0.0220795
-0.0220826
-0.0220855
-0.0220886
-0.0220915
-0.0220945
-0.0220975
-0.0221005
-0.0221035
-0.0221065
-0.0221094
-0.0221124
-0.0221152
-0.0221181
-0.022121
-0.0221238
-0.0221266
-0.0221293
-0.022132
-0.0221347
-0.0221373
-0.0221399
-0.0221424
-0.0221449
-0.0221474
-0.0221499
-0.0221524
-0.022155
-0.0221576
-0.0221604
-0.0221632
-0.0221664
-0.0221696
-0.0221733
-0.0221769
-0.0221812
-0.0221853
-0.0221902
-0.0221949
-0.0222004
-0.0222056
-0.0222116
-0.0222174
-0.022224
-0.0222302
-0.0222374
-0.0222441
-0.0222519
-0.0222591
-0.0222674
-0.0222751
-0.0222839
-0.0222921
-0.0223016
-0.0223103
-0.0223203
-0.0223295
-0.0223401
-0.0223498
-0.0223611
-0.0223714
-0.0223831
-0.0223938
-0.022406
-0.0224171
-0.0224293
-0.0224399
-0.0224506
-0.0224596
-0.02247
-0.0217682
-0.0217788
-0.0217934
-0.0218071
-0.0218208
-0.0218341
-0.0218469
-0.021859
-0.0218703
-0.0218811
-0.0218912
-0.0219008
-0.0219099
-0.0219184
-0.0219266
-0.0219345
-0.0219421
-0.0219494
-0.0219563
-0.0219629
-0.0219692
-0.0219753
-0.0219809
-0.0219864
-0.0219915
-0.0219965
-0.0220011
-0.0220056
-0.0220098
-0.0220139
-0.0220177
-0.0220215
-0.022025
-0.0220286
-0.0220319
-0.0220352
-0.0220384
-0.0220416
-0.0220446
-0.0220477
-0.0220506
-0.0220537
-0.0220565
-0.0220595
-0.0220624
-0.0220653
-0.0220682
-0.0220711
-0.0220739
-0.0220769
-0.0220797
-0.0220827
-0.0220855
-0.0220885
-0.0220914
-0.0220943
-0.0220972
-0.0221001
-0.022103
-0.0221059
-0.0221087
-0.0221116
-0.0221143
-0.0221172
-0.0221199
-0.0221226
-0.0221254
-0.022128
-0.0221307
-0.0221333
-0.0221359
-0.0221385
-0.022141
-0.0221435
-0.022146
-0.0221484
-0.022151
-0.0221535
-0.022156
-0.0221588
-0.0221616
-0.0221647
-0.0221678
-0.0221714
-0.022175
-0.0221793
-0.0221834
-0.0221883
-0.0221929
-0.0221985
-0.0222036
-0.0222097
-0.0222154
-0.022222
-0.0222281
-0.0222352
-0.0222418
-0.0222494
-0.0222563
-0.0222643
-0.0222716
-0.0222802
-0.0222879
-0.0222969
-0.0223051
-0.0223147
-0.0223233
-0.0223334
-0.0223425
-0.0223532
-0.0223628
-0.0223739
-0.022384
-0.0223955
-0.0224058
-0.0224171
-0.0224268
-0.0224362
-0.0224436
-0.0224526
-0.0217544
-0.0217719
-0.0217898
-0.0218055
-0.0218205
-0.0218347
-0.0218481
-0.0218606
-0.0218723
-0.0218832
-0.0218934
-0.0219031
-0.0219121
-0.0219207
-0.0219289
-0.0219368
-0.0219443
-0.0219516
-0.0219585
-0.0219652
-0.0219714
-0.0219775
-0.0219831
-0.0219886
-0.0219937
-0.0219986
-0.0220032
-0.0220077
-0.0220119
-0.0220159
-0.0220198
-0.0220235
-0.022027
-0.0220305
-0.0220338
-0.022037
-0.0220402
-0.0220433
-0.0220463
-0.0220493
-0.0220522
-0.0220551
-0.022058
-0.0220608
-0.0220636
-0.0220664
-0.0220692
-0.022072
-0.0220748
-0.0220776
-0.0220804
-0.0220831
-0.0220859
-0.0220887
-0.0220915
-0.0220942
-0.022097
-0.0220997
-0.0221025
-0.0221052
-0.0221079
-0.0221106
-0.0221133
-0.0221159
-0.0221185
-0.0221211
-0.0221237
-0.0221263
-0.0221289
-0.0221314
-0.0221339
-0.0221365
-0.0221389
-0.0221414
-0.0221439
-0.0221464
-0.0221488
-0.0221513
-0.0221539
-0.0221566
-0.0221595
-0.0221624
-0.0221657
-0.022169
-0.0221729
-0.0221767
-0.0221812
-0.0221855
-0.0221906
-0.0221955
-0.0222011
-0.0222064
-0.0222126
-0.0222183
-0.0222249
-0.022231
-0.022238
-0.0222445
-0.0222519
-0.0222587
-0.0222665
-0.0222737
-0.0222819
-0.0222894
-0.022298
-0.0223059
-0.0223149
-0.022323
-0.0223324
-0.0223409
-0.0223508
-0.0223597
-0.0223699
-0.0223791
-0.0223896
-0.0223987
-0.0224086
-0.0224162
-0.0224236
-0.0224315
-0.021743
-0.0217661
-0.0217869
-0.0218046
-0.021821
-0.0218361
-0.0218502
-0.0218632
-0.0218751
-0.0218862
-0.0218966
-0.0219063
-0.0219154
-0.021924
-0.0219322
-0.02194
-0.0219475
-0.0219547
-0.0219617
-0.0219682
-0.0219746
-0.0219805
-0.0219862
-0.0219916
-0.0219967
-0.0220015
-0.0220062
-0.0220105
-0.0220148
-0.0220187
-0.0220226
-0.0220262
-0.0220298
-0.0220331
-0.0220364
-0.0220396
-0.0220427
-0.0220457
-0.0220487
-0.0220515
-0.0220544
-0.0220571
-0.02206
-0.0220626
-0.0220654
-0.022068
-0.0220708
-0.0220734
-0.0220761
-0.0220787
-0.0220814
-0.0220839
-0.0220866
-0.0220891
-0.0220918
-0.0220943
-0.022097
-0.0220995
-0.0221021
-0.0221046
-0.0221072
-0.0221097
-0.0221122
-0.0221147
-0.0221171
-0.0221196
-0.022122
-0.0221245
-0.0221269
-0.0221294
-0.0221318
-0.0221343
-0.0221367
-0.0221392
-0.0221415
-0.022144
-0.0221464
-0.0221489
-0.0221514
-0.0221541
-0.0221569
-0.0221597
-0.022163
-0.0221661
-0.0221699
-0.0221736
-0.022178
-0.0221821
-0.0221871
-0.0221917
-0.0221972
-0.0222022
-0.0222082
-0.0222136
-0.02222
-0.0222257
-0.0222324
-0.0222385
-0.0222455
-0.0222519
-0.0222593
-0.0222659
-0.0222736
-0.0222804
-0.0222885
-0.0222956
-0.022304
-0.0223115
-0.0223202
-0.022328
-0.0223372
-0.0223454
-0.022355
-0.0223634
-0.0223733
-0.0223818
-0.0223912
-0.0223982
-0.0224052
-0.0224127
-0.0217345
-0.021762
-0.0217854
-0.0218048
-0.0218225
-0.0218386
-0.0218533
-0.0218667
-0.021879
-0.0218903
-0.0219008
-0.0219105
-0.0219197
-0.0219283
-0.0219364
-0.0219441
-0.0219516
-0.0219587
-0.0219657
-0.0219722
-0.0219785
-0.0219844
-0.0219901
-0.0219954
-0.0220005
-0.0220053
-0.0220099
-0.0220143
-0.0220184
-0.0220224
-0.0220262
-0.0220297
-0.0220332
-0.0220365
-0.0220398
-0.0220429
-0.0220459
-0.0220488
-0.0220517
-0.0220545
-0.0220572
-0.0220599
-0.0220625
-0.0220652
-0.0220677
-0.0220703
-0.0220728
-0.0220754
-0.0220778
-0.0220803
-0.0220828
-0.0220853
-0.0220877
-0.0220901
-0.0220925
-0.022095
-0.0220973
-0.0220997
-0.0221021
-0.0221045
-0.0221068
-0.0221091
-0.0221114
-0.0221137
-0.022116
-0.0221183
-0.0221206
-0.0221229
-0.0221252
-0.0221275
-0.0221299
-0.0221322
-0.0221346
-0.0221369
-0.0221393
-0.0221416
-0.022144
-0.0221465
-0.0221489
-0.0221515
-0.0221542
-0.0221571
-0.0221601
-0.0221635
-0.0221669
-0.0221709
-0.0221748
-0.0221793
-0.0221837
-0.0221887
-0.0221935
-0.022199
-0.0222041
-0.02221
-0.0222154
-0.0222216
-0.0222273
-0.0222338
-0.0222397
-0.0222465
-0.0222527
-0.0222597
-0.022266
-0.0222734
-0.0222799
-0.0222875
-0.0222943
-0.0223022
-0.0223092
-0.0223175
-0.0223249
-0.0223335
-0.0223412
-0.0223503
-0.0223583
-0.0223674
-0.022375
-0.0223827
-0.0223887
-0.022397
-0.021729
-0.0217601
-0.0217856
-0.0218065
-0.0218252
-0.0218421
-0.0218574
-0.0218713
-0.0218839
-0.0218954
-0.021906
-0.0219158
-0.0219249
-0.0219335
-0.0219415
-0.0219492
-0.0219566
-0.0219637
-0.0219705
-0.0219771
-0.0219832
-0.0219892
-0.0219948
-0.0220001
-0.0220051
-0.02201
-0.0220144
-0.0220188
-0.0220229
-0.0220268
-0.0220305
-0.0220341
-0.0220374
-0.0220408
-0.0220438
-0.0220469
-0.0220498
-0.0220527
-0.0220554
-0.0220582
-0.0220607
-0.0220634
-0.0220658
-0.0220684
-0.0220707
-0.0220732
-0.0220755
-0.022078
-0.0220802
-0.0220826
-0.0220848
-0.0220872
-0.0220894
-0.0220917
-0.0220938
-0.0220961
-0.0220983
-0.0221005
-0.0221026
-0.0221048
-0.0221069
-0.0221091
-0.0221112
-0.0221133
-0.0221154
-0.0221176
-0.0221197
-0.0221219
-0.0221241
-0.0221263
-0.0221285
-0.0221307
-0.022133
-0.0221352
-0.0221375
-0.0221398
-0.0221421
-0.0221444
-0.0221468
-0.0221493
-0.0221519
-0.0221548
-0.0221577
-0.022161
-0.0221643
-0.0221682
-0.022172
-0.0221764
-0.0221806
-0.0221856
-0.0221902
-0.0221955
-0.0222005
-0.0222062
-0.0222114
-0.0222174
-0.0222228
-0.0222291
-0.0222347
-0.0222412
-0.022247
-0.0222537
-0.0222597
-0.0222667
-0.0222728
-0.0222801
-0.0222865
-0.0222942
-0.0223008
-0.0223089
-0.0223159
-0.0223244
-0.0223318
-0.0223407
-0.0223485
-0.0223575
-0.0223651
-0.0223728
-0.0223788
-0.0223872
-0.021727
-0.0217606
-0.0217877
-0.0218098
-0.0218294
-0.021847
-0.0218628
-0.021877
-0.0218898
-0.0219015
-0.0219122
-0.021922
-0.0219311
-0.0219396
-0.0219476
-0.0219552
-0.0219625
-0.0219695
-0.0219762
-0.0219827
-0.0219888
-0.0219947
-0.0220003
-0.0220056
-0.0220106
-0.0220153
-0.0220198
-0.0220241
-0.0220281
-0.022032
-0.0220356
-0.0220391
-0.0220425
-0.0220457
-0.0220487
-0.0220517
-0.0220545
-0.0220573
-0.0220599
-0.0220625
-0.022065
-0.0220675
-0.0220699
-0.0220722
-0.0220746
-0.0220768
-0.022079
-0.0220812
-0.0220834
-0.0220855
-0.0220877
-0.0220898
-0.0220919
-0.0220939
-0.022096
-0.022098
-0.0221
-0.022102
-0.022104
-0.0221059
-0.0221079
-0.0221099
-0.0221118
-0.0221138
-0.0221158
-0.0221178
-0.0221198
-0.0221219
-0.022124
-0.0221261
-0.0221283
-0.0221305
-0.0221327
-0.0221349
-0.0221371
-0.0221394
-0.0221417
-0.022144
-0.0221464
-0.0221489
-0.0221516
-0.0221543
-0.0221574
-0.0221604
-0.022164
-0.0221674
-0.0221715
-0.0221754
-0.0221799
-0.0221843
-0.0221893
-0.0221939
-0.0221993
-0.0222043
-0.02221
-0.0222152
-0.0222212
-0.0222266
-0.0222328
-0.0222383
-0.0222448
-0.0222505
-0.0222571
-0.022263
-0.0222699
-0.0222759
-0.0222831
-0.0222893
-0.0222968
-0.0223034
-0.0223112
-0.0223183
-0.0223266
-0.0223341
-0.0223429
-0.0223507
-0.0223595
-0.0223663
-0.0223733
-0.0223813
-0.0217284
-0.0217637
-0.0217919
-0.0218148
-0.0218351
-0.0218532
-0.0218694
-0.0218838
-0.0218969
-0.0219086
-0.0219194
-0.0219292
-0.0219383
-0.0219467
-0.0219546
-0.0219621
-0.0219693
-0.0219761
-0.0219828
-0.0219891
-0.0219953
-0.022001
-0.0220066
-0.0220118
-0.0220168
-0.0220215
-0.022026
-0.0220301
-0.0220342
-0.0220379
-0.0220416
-0.022045
-0.0220483
-0.0220514
-0.0220544
-0.0220572
-0.0220601
-0.0220627
-0.0220653
-0.0220677
-0.0220702
-0.0220725
-0.0220748
-0.022077
-0.0220792
-0.0220813
-0.0220834
-0.0220854
-0.0220875
-0.0220894
-0.0220914
-0.0220933
-0.0220953
-0.0220971
-0.0220991
-0.0221009
-0.0221028
-0.0221046
-0.0221064
-0.0221083
-0.0221101
-0.022112
-0.0221138
-0.0221157
-0.0221176
-0.0221196
-0.0221216
-0.0221236
-0.0221257
-0.0221278
-0.0221299
-0.0221321
-0.0221343
-0.0221366
-0.0221388
-0.0221412
-0.0221435
-0.022146
-0.0221485
-0.022151
-0.0221538
-0.0221566
-0.0221597
-0.0221627
-0.0221663
-0.0221697
-0.0221737
-0.0221776
-0.0221821
-0.0221863
-0.0221913
-0.0221959
-0.0222013
-0.0222062
-0.0222119
-0.022217
-0.022223
-0.0222283
-0.0222344
-0.0222399
-0.0222463
-0.0222519
-0.0222585
-0.0222642
-0.022271
-0.022277
-0.0222841
-0.0222903
-0.0222978
-0.0223043
-0.0223123
-0.0223193
-0.0223277
-0.0223352
-0.0223441
-0.0223519
-0.0223607
-0.0223675
-0.0223746
-0.0223826
-0.0217333
-0.0217694
-0.0217982
-0.0218217
-0.0218424
-0.0218608
-0.0218772
-0.0218919
-0.021905
-0.0219168
-0.0219276
-0.0219374
-0.0219463
-0.0219547
-0.0219625
-0.0219698
-0.0219769
-0.0219836
-0.0219901
-0.0219964
-0.0220024
-0.0220082
-0.0220137
-0.0220188
-0.0220238
-0.0220284
-0.0220328
-0.022037
-0.022041
-0.0220447
-0.0220483
-0.0220516
-0.0220549
-0.0220579
-0.0220609
-0.0220637
-0.0220664
-0.0220689
-0.0220714
-0.0220738
-0.0220761
-0.0220784
-0.0220805
-0.0220827
-0.0220847
-0.0220867
-0.0220887
-0.0220906
-0.0220925
-0.0220944
-0.0220962
-0.0220981
-0.0220998
-0.0221016
-0.0221034
-0.0221052
-0.0221069
-0.0221087
-0.0221104
-0.0221122
-0.0221139
-0.0221158
-0.0221176
-0.0221195
-0.0221214
-0.0221234
-0.0221254
-0.0221275
-0.0221296
-0.0221318
-0.022134
-0.0221364
-0.0221387
-0.0221412
-0.0221436
-0.0221462
-0.0221488
-0.0221514
-0.0221541
-0.0221569
-0.0221597
-0.0221627
-0.0221657
-0.022169
-0.0221723
-0.0221761
-0.0221797
-0.0221839
-0.0221879
-0.0221926
-0.022197
-0.0222021
-0.0222069
-0.0222123
-0.0222174
-0.0222231
-0.0222284
-0.0222344
-0.0222398
-0.022246
-0.0222516
-0.022258
-0.0222637
-0.0222703
-0.0222763
-0.0222832
-0.0222893
-0.0222966
-0.022303
-0.0223108
-0.0223177
-0.0223258
-0.0223332
-0.022342
-0.0223498
-0.0223587
-0.0223664
-0.0223741
-0.0223804
-0.022389
-0.0217415
-0.0217775
-0.0218066
-0.0218303
-0.0218513
-0.0218698
-0.0218863
-0.0219011
-0.0219142
-0.0219261
-0.0219368
-0.0219465
-0.0219554
-0.0219636
-0.0219712
-0.0219785
-0.0219853
-0.021992
-0.0219983
-0.0220045
-0.0220103
-0.0220161
-0.0220214
-0.0220266
-0.0220315
-0.0220361
-0.0220404
-0.0220446
-0.0220485
-0.0220523
-0.0220557
-0.0220591
-0.0220623
-0.0220653
-0.0220682
-0.022071
-0.0220735
-0.0220761
-0.0220785
-0.0220809
-0.022083
-0.0220853
-0.0220873
-0.0220894
-0.0220913
-0.0220933
-0.0220951
-0.022097
-0.0220988
-0.0221006
-0.0221023
-0.0221041
-0.0221058
-0.0221075
-0.0221092
-0.0221109
-0.0221126
-0.0221144
-0.0221161
-0.0221179
-0.0221197
-0.0221215
-0.0221234
-0.0221253
-0.0221273
-0.0221294
-0.0221315
-0.0221337
-0.0221359
-0.0221382
-0.0221406
-0.0221431
-0.0221456
-0.0221482
-0.0221509
-0.0221536
-0.0221564
-0.0221592
-0.0221621
-0.022165
-0.022168
-0.0221711
-0.0221742
-0.0221776
-0.0221809
-0.0221846
-0.0221883
-0.0221925
-0.0221965
-0.0222011
-0.0222055
-0.0222107
-0.0222154
-0.022221
-0.022226
-0.0222319
-0.0222371
-0.0222432
-0.0222486
-0.0222549
-0.0222605
-0.022267
-0.0222728
-0.0222795
-0.0222854
-0.0222925
-0.0222987
-0.022306
-0.0223126
-0.0223204
-0.0223274
-0.0223357
-0.0223432
-0.022352
-0.0223599
-0.0223689
-0.0223766
-0.0223844
-0.0223908
-0.0223995
-0.0217528
-0.0217882
-0.0218171
-0.0218408
-0.0218617
-0.0218802
-0.0218967
-0.0219114
-0.0219245
-0.0219363
-0.0219469
-0.0219566
-0.0219653
-0.0219733
-0.0219808
-0.0219879
-0.0219946
-0.0220011
-0.0220072
-0.0220133
-0.022019
-0.0220247
-0.02203
-0.0220351
-0.0220399
-0.0220445
-0.0220488
-0.022053
-0.0220568
-0.0220606
-0.022064
-0.0220674
-0.0220705
-0.0220735
-0.0220764
-0.0220791
-0.0220817
-0.0220842
-0.0220865
-0.0220888
-0.022091
-0.0220932
-0.0220952
-0.0220972
-0.0220991
-0.022101
-0.0221029
-0.0221047
-0.0221064
-0.0221082
-0.0221099
-0.0221116
-0.0221133
-0.022115
-0.0221167
-0.0221184
-0.0221202
-0.0221219
-0.0221238
-0.0221256
-0.0221275
-0.0221294
-0.0221315
-0.0221335
-0.0221357
-0.0221379
-0.0221402
-0.0221425
-0.022145
-0.0221475
-0.0221501
-0.0221528
-0.0221556
-0.0221584
-0.0221614
-0.0221644
-0.0221675
-0.0221705
-0.0221737
-0.0221768
-0.02218
-0.0221831
-0.0221864
-0.0221897
-0.0221933
-0.0221968
-0.0222007
-0.0222044
-0.0222088
-0.0222129
-0.0222177
-0.0222223
-0.0222275
-0.0222325
-0.0222381
-0.0222433
-0.0222492
-0.0222546
-0.0222608
-0.0222664
-0.0222728
-0.0222786
-0.0222852
-0.0222911
-0.022298
-0.0223042
-0.0223114
-0.0223179
-0.0223254
-0.0223323
-0.0223404
-0.0223478
-0.0223563
-0.0223642
-0.0223733
-0.0223814
-0.0223903
-0.0223974
-0.0224048
-0.022413
-0.021767
-0.021801
-0.0218294
-0.0218529
-0.0218736
-0.021892
-0.0219083
-0.0219228
-0.0219358
-0.0219475
-0.021958
-0.0219675
-0.0219761
-0.021984
-0.0219913
-0.0219981
-0.0220047
-0.022011
-0.022017
-0.0220228
-0.0220285
-0.022034
-0.0220393
-0.0220443
-0.0220492
-0.0220537
-0.022058
-0.0220621
-0.022066
-0.0220696
-0.0220732
-0.0220764
-0.0220796
-0.0220826
-0.0220855
-0.0220881
-0.0220908
-0.0220932
-0.0220956
-0.0220978
-0.0221001
-0.0221021
-0.0221043
-0.0221062
-0.0221082
-0.02211
-0.0221119
-0.0221136
-0.0221155
-0.0221172
-0.022119
-0.0221207
-0.0221225
-0.0221242
-0.022126
-0.0221278
-0.0221297
-0.0221315
-0.0221335
-0.0221354
-0.0221375
-0.0221396
-0.0221418
-0.022144
-0.0221464
-0.0221487
-0.0221512
-0.0221538
-0.0221565
-0.0221591
-0.0221621
-0.0221649
-0.022168
-0.022171
-0.0221742
-0.0221774
-0.0221806
-0.0221838
-0.0221871
-0.0221903
-0.0221936
-0.0221968
-0.0222002
-0.0222035
-0.0222072
-0.0222107
-0.0222147
-0.0222185
-0.0222229
-0.0222272
-0.0222321
-0.0222367
-0.022242
-0.022247
-0.0222527
-0.022258
-0.022264
-0.0222695
-0.0222758
-0.0222815
-0.022288
-0.0222938
-0.0223005
-0.0223066
-0.0223135
-0.0223198
-0.0223271
-0.0223337
-0.0223413
-0.0223483
-0.0223565
-0.0223639
-0.0223726
-0.0223805
-0.0223897
-0.0223979
-0.022407
-0.0224142
-0.0224217
-0.0224301
-0.0217837
-0.0218159
-0.0218436
-0.0218666
-0.0218869
-0.0219049
-0.021921
-0.0219354
-0.0219482
-0.0219597
-0.02197
-0.0219793
-0.0219878
-0.0219954
-0.0220025
-0.0220092
-0.0220155
-0.0220216
-0.0220275
-0.0220332
-0.0220387
-0.0220441
-0.0220493
-0.0220542
-0.0220591
-0.0220635
-0.0220679
-0.0220719
-0.0220759
-0.0220795
-0.022083
-0.0220863
-0.0220895
-0.0220925
-0.0220954
-0.0220981
-0.0221008
-0.0221033
-0.0221057
-0.022108
-0.0221102
-0.0221123
-0.0221144
-0.0221164
-0.0221184
-0.0221204
-0.0221223
-0.0221241
-0.022126
-0.0221278
-0.0221297
-0.0221315
-0.0221334
-0.0221353
-0.0221372
-0.0221391
-0.0221411
-0.0221432
-0.0221453
-0.0221475
-0.0221497
-0.0221521
-0.0221545
-0.022157
-0.0221595
-0.0221622
-0.0221649
-0.0221678
-0.0221707
-0.0221737
-0.0221768
-0.02218
-0.0221832
-0.0221866
-0.02219
-0.0221934
-0.0221968
-0.0222003
-0.0222036
-0.0222071
-0.0222104
-0.0222139
-0.0222173
-0.0222208
-0.0222244
-0.0222282
-0.022232
-0.0222362
-0.0222403
-0.022245
-0.0222495
-0.0222546
-0.0222595
-0.0222651
-0.0222703
-0.0222762
-0.0222817
-0.0222878
-0.0222935
-0.0222999
-0.0223058
-0.0223124
-0.0223184
-0.0223253
-0.0223316
-0.0223387
-0.0223453
-0.0223529
-0.0223598
-0.0223679
-0.0223753
-0.0223839
-0.0223918
-0.0224009
-0.0224093
-0.0224186
-0.0224268
-0.0224349
-0.0224419
-0.0224511
-0.0218025
-0.0218327
-0.0218594
-0.0218817
-0.0219015
-0.0219191
-0.0219348
-0.0219489
-0.0219615
-0.0219727
-0.0219828
-0.021992
-0.0220002
-0.0220077
-0.0220145
-0.022021
-0.0220271
-0.0220331
-0.0220387
-0.0220443
-0.0220496
-0.0220549
-0.0220599
-0.0220649
-0.0220696
-0.0220742
-0.0220784
-0.0220826
-0.0220864
-0.0220902
-0.0220937
-0.0220971
-0.0221003
-0.0221034
-0.0221062
-0.0221091
-0.0221117
-0.0221144
-0.0221167
-0.0221192
-0.0221214
-0.0221237
-0.0221258
-0.022128
-0.02213
-0.0221321
-0.022134
-0.0221361
-0.022138
-0.02214
-0.022142
-0.022144
-0.022146
-0.0221481
-0.0221502
-0.0221524
-0.0221546
-0.0221569
-0.0221592
-0.0221617
-0.0221641
-0.0221668
-0.0221694
-0.0221722
-0.0221749
-0.0221779
-0.0221808
-0.022184
-0.0221871
-0.0221904
-0.0221937
-0.0221972
-0.0222005
-0.0222042
-0.0222076
-0.0222112
-0.0222147
-0.0222183
-0.0222218
-0.0222254
-0.0222289
-0.0222324
-0.0222359
-0.0222396
-0.0222433
-0.0222473
-0.0222512
-0.0222556
-0.0222598
-0.0222647
-0.0222693
-0.0222746
-0.0222796
-0.0222853
-0.0222906
-0.0222966
-0.0223022
-0.0223085
-0.0223142
-0.0223207
-0.0223267
-0.0223334
-0.0223395
-0.0223465
-0.0223528
-0.0223601
-0.0223668
-0.0223745
-0.0223814
-0.0223896
-0.0223971
-0.0224058
-0.0224137
-0.022423
-0.0224314
-0.0224409
-0.0224491
-0.0224574
-0.0224646
-0.0224742
-0.0218233
-0.021851
-0.0218767
-0.0218981
-0.0219173
-0.0219344
-0.0219497
-0.0219634
-0.0219756
-0.0219866
-0.0219966
-0.0220054
-0.0220135
-0.0220207
-0.0220273
-0.0220335
-0.0220395
-0.0220452
-0.0220507
-0.022056
-0.0220612
-0.0220664
-0.0220713
-0.0220762
-0.0220809
-0.0220854
-0.0220897
-0.0220939
-0.0220978
-0.0221016
-0.0221052
-0.0221086
-0.0221119
-0.0221151
-0.0221181
-0.022121
-0.0221237
-0.0221264
-0.022129
-0.0221315
-0.0221339
-0.0221362
-0.0221385
-0.0221408
-0.022143
-0.0221452
-0.0221473
-0.0221495
-0.0221517
-0.0221538
-0.022156
-0.0221582
-0.0221605
-0.0221628
-0.0221652
-0.0221676
-0.0221701
-0.0221726
-0.0221753
-0.0221779
-0.0221808
-0.0221836
-0.0221866
-0.0221896
-0.0221928
-0.0221959
-0.0221993
-0.0222026
-0.0222061
-0.0222095
-0.0222132
-0.0222168
-0.0222205
-0.0222242
-0.022228
-0.0222317
-0.0222355
-0.0222392
-0.0222429
-0.0222466
-0.0222503
-0.022254
-0.0222578
-0.0222615
-0.0222655
-0.0222694
-0.0222737
-0.0222778
-0.0222825
-0.022287
-0.0222921
-0.022297
-0.0223025
-0.0223078
-0.0223136
-0.0223192
-0.0223253
-0.0223311
-0.0223376
-0.0223436
-0.0223502
-0.0223564
-0.0223634
-0.0223698
-0.022377
-0.0223837
-0.0223912
-0.0223982
-0.0224061
-0.0224135
-0.022422
-0.02243
-0.022439
-0.0224474
-0.022457
-0.0224657
-0.0224751
-0.0224829
-0.0224909
-0.0225002
-0.0218456
-0.0218708
-0.0218952
-0.0219157
-0.0219341
-0.0219507
-0.0219655
-0.0219787
-0.0219907
-0.0220014
-0.022011
-0.0220197
-0.0220274
-0.0220344
-0.0220408
-0.0220468
-0.0220525
-0.022058
-0.0220633
-0.0220685
-0.0220736
-0.0220785
-0.0220834
-0.0220882
-0.0220929
-0.0220973
-0.0221018
-0.0221059
-0.0221099
-0.0221137
-0.0221175
-0.0221209
-0.0221244
-0.0221276
-0.0221308
-0.0221337
-0.0221367
-0.0221395
-0.0221423
-0.0221448
-0.0221475
-0.0221499
-0.0221525
-0.0221548
-0.0221573
-0.0221596
-0.0221621
-0.0221644
-0.0221668
-0.0221692
-0.0221717
-0.0221741
-0.0221767
-0.0221792
-0.0221819
-0.0221846
-0.0221874
-0.0221902
-0.0221932
-0.0221962
-0.0221993
-0.0222024
-0.0222058
-0.022209
-0.0222126
-0.0222159
-0.0222196
-0.0222232
-0.022227
-0.0222306
-0.0222345
-0.0222383
-0.0222423
-0.0222461
-0.0222501
-0.0222539
-0.0222579
-0.0222618
-0.0222658
-0.0222697
-0.0222736
-0.0222775
-0.0222815
-0.0222855
-0.0222897
-0.0222938
-0.0222982
-0.0223025
-0.0223073
-0.0223119
-0.0223171
-0.0223221
-0.0223277
-0.022333
-0.022339
-0.0223447
-0.022351
-0.0223569
-0.0223635
-0.0223696
-0.0223765
-0.0223828
-0.0223899
-0.0223965
-0.0224038
-0.0224106
-0.0224184
-0.0224254
-0.0224336
-0.022441
-0.0224497
-0.0224577
-0.0224669
-0.0224754
-0.0224851
-0.0224939
-0.0225034
-0.0225113
-0.0225195
-0.022529
-0.0218692
-0.0218917
-0.0219148
-0.0219344
-0.021952
-0.0219679
-0.0219821
-0.0219949
-0.0220065
-0.0220168
-0.0220262
-0.0220346
-0.0220421
-0.0220489
-0.022055
-0.0220608
-0.0220662
-0.0220715
-0.0220766
-0.0220816
-0.0220865
-0.0220913
-0.0220961
-0.0221008
-0.0221055
-0.02211
-0.0221144
-0.0221186
-0.0221228
-0.0221266
-0.0221305
-0.0221341
-0.0221377
-0.022141
-0.0221444
-0.0221475
-0.0221506
-0.0221536
-0.0221565
-0.0221594
-0.0221621
-0.0221649
-0.0221676
-0.0221702
-0.0221729
-0.0221755
-0.0221781
-0.0221808
-0.0221834
-0.0221862
-0.0221889
-0.0221917
-0.0221945
-0.0221974
-0.0222004
-0.0222035
-0.0222066
-0.0222098
-0.022213
-0.0222164
-0.0222198
-0.0222233
-0.0222269
-0.0222306
-0.0222343
-0.0222382
-0.022242
-0.022246
-0.0222499
-0.022254
-0.022258
-0.0222621
-0.0222662
-0.0222704
-0.0222745
-0.0222788
-0.0222829
-0.0222872
-0.0222914
-0.0222957
-0.0222999
-0.0223042
-0.0223084
-0.0223127
-0.022317
-0.0223214
-0.0223258
-0.0223305
-0.0223351
-0.0223401
-0.0223449
-0.0223503
-0.0223555
-0.0223613
-0.0223669
-0.022373
-0.0223789
-0.0223854
-0.0223916
-0.0223984
-0.0224048
-0.0224118
-0.0224185
-0.0224258
-0.0224327
-0.0224404
-0.0224476
-0.0224556
-0.0224632
-0.0224718
-0.0224799
-0.022489
-0.0224975
-0.0225072
-0.0225163
-0.0225262
-0.022535
-0.0225438
-0.0225516
-0.0225618
-0.0218936
-0.0219135
-0.0219354
-0.021954
-0.0219707
-0.0219859
-0.0219996
-0.0220119
-0.022023
-0.022033
-0.022042
-0.0220501
-0.0220574
-0.0220639
-0.0220699
-0.0220754
-0.0220806
-0.0220856
-0.0220905
-0.0220954
-0.0221001
-0.0221048
-0.0221095
-0.0221142
-0.0221187
-0.0221233
-0.0221277
-0.0221321
-0.0221362
-0.0221403
-0.0221442
-0.0221481
-0.0221517
-0.0221554
-0.0221588
-0.0221622
-0.0221654
-0.0221687
-0.0221718
-0.022175
-0.0221779
-0.022181
-0.0221838
-0.0221868
-0.0221897
-0.0221927
-0.0221956
-0.0221986
-0.0222015
-0.0222046
-0.0222076
-0.0222108
-0.0222139
-0.0222173
-0.0222205
-0.022224
-0.0222274
-0.022231
-0.0222345
-0.0222383
-0.022242
-0.0222459
-0.0222497
-0.0222538
-0.0222578
-0.022262
-0.022266
-0.0222703
-0.0222745
-0.0222789
-0.0222831
-0.0222875
-0.0222918
-0.0222962
-0.0223006
-0.0223051
-0.0223094
-0.022314
-0.0223184
-0.022323
-0.0223274
-0.022332
-0.0223364
-0.022341
-0.0223455
-0.0223501
-0.0223547
-0.0223595
-0.0223642
-0.0223693
-0.0223743
-0.0223798
-0.0223851
-0.022391
-0.0223966
-0.022403
-0.022409
-0.0224156
-0.0224219
-0.0224289
-0.0224355
-0.0224428
-0.0224495
-0.0224571
-0.0224641
-0.022472
-0.0224793
-0.0224876
-0.0224953
-0.0225041
-0.0225123
-0.0225216
-0.0225302
-0.0225401
-0.0225493
-0.0225594
-0.0225684
-0.0225773
-0.0225855
-0.0225962
-0.0219189
-0.0219363
-0.0219568
-0.0219743
-0.0219902
-0.0220047
-0.0220177
-0.0220296
-0.0220402
-0.0220498
-0.0220586
-0.0220663
-0.0220733
-0.0220796
-0.0220853
-0.0220906
-0.0220956
-0.0221004
-0.0221051
-0.0221097
-0.0221143
-0.022119
-0.0221235
-0.0221281
-0.0221326
-0.0221372
-0.0221417
-0.0221461
-0.0221504
-0.0221547
-0.0221587
-0.0221627
-0.0221666
-0.0221704
-0.0221741
-0.0221778
-0.0221813
-0.0221848
-0.0221881
-0.0221915
-0.0221948
-0.0221981
-0.0222013
-0.0222046
-0.0222078
-0.0222111
-0.0222144
-0.0222177
-0.022221
-0.0222244
-0.0222278
-0.0222313
-0.0222349
-0.0222385
-0.0222422
-0.0222459
-0.0222498
-0.0222537
-0.0222577
-0.0222617
-0.0222659
-0.02227
-0.0222744
-0.0222786
-0.0222831
-0.0222874
-0.022292
-0.0222964
-0.022301
-0.0223055
-0.0223101
-0.0223147
-0.0223194
-0.022324
-0.0223288
-0.0223334
-0.0223383
-0.022343
-0.0223478
-0.0223526
-0.0223575
-0.0223623
-0.0223671
-0.0223719
-0.0223767
-0.0223815
-0.0223864
-0.0223911
-0.0223962
-0.0224011
-0.0224064
-0.0224116
-0.0224173
-0.0224228
-0.022429
-0.0224349
-0.0224414
-0.0224477
-0.0224546
-0.0224612
-0.0224684
-0.0224753
-0.0224829
-0.0224901
-0.022498
-0.0225055
-0.0225138
-0.0225216
-0.0225303
-0.0225385
-0.0225478
-0.0225566
-0.0225664
-0.0225757
-0.022586
-0.0225955
-0.0226057
-0.0226143
-0.0226232
-0.0226336
-0.0219447
-0.0219596
-0.0219789
-0.0219954
-0.0220104
-0.0220241
-0.0220365
-0.0220478
-0.022058
-0.0220673
-0.0220756
-0.0220831
-0.0220898
-0.0220959
-0.0221014
-0.0221064
-0.0221112
-0.0221157
-0.0221202
-0.0221247
-0.0221292
-0.0221336
-0.0221381
-0.0221426
-0.0221472
-0.0221517
-0.0221563
-0.0221608
-0.0221653
-0.0221696
-0.0221739
-0.0221781
-0.0221823
-0.0221862
-0.0221903
-0.022194
-0.022198
-0.0222016
-0.0222054
-0.022209
-0.0222127
-0.0222163
-0.0222199
-0.0222234
-0.0222271
-0.0222307
-0.0222344
-0.022238
-0.0222418
-0.0222455
-0.0222494
-0.0222532
-0.0222572
-0.0222611
-0.0222653
-0.0222693
-0.0222736
-0.0222778
-0.0222823
-0.0222866
-0.0222912
-0.0222956
-0.0223003
-0.0223049
-0.0223097
-0.0223143
-0.0223192
-0.0223239
-0.0223288
-0.0223335
-0.0223385
-0.0223433
-0.0223483
-0.0223531
-0.0223582
-0.0223631
-0.0223683
-0.0223732
-0.0223784
-0.0223834
-0.0223886
-0.0223936
-0.0223987
-0.0224037
-0.0224088
-0.0224138
-0.0224189
-0.0224239
-0.0224291
-0.0224343
-0.0224397
-0.022445
-0.0224509
-0.0224565
-0.0224628
-0.0224689
-0.0224756
-0.0224821
-0.0224892
-0.022496
-0.0225036
-0.0225108
-0.0225187
-0.0225261
-0.0225344
-0.0225421
-0.0225508
-0.0225588
-0.0225678
-0.0225762
-0.0225857
-0.0225946
-0.0226046
-0.022614
-0.0226245
-0.0226341
-0.0226444
-0.0226531
-0.0226623
-0.022673
-0.021971
-0.0219835
-0.0220015
-0.022017
-0.0220312
-0.0220441
-0.0220559
-0.0220667
-0.0220764
-0.0220852
-0.0220933
-0.0221004
-0.0221069
-0.0221127
-0.0221179
-0.0221228
-0.0221273
-0.0221317
-0.022136
-0.0221402
-0.0221446
-0.0221489
-0.0221534
-0.0221577
-0.0221623
-0.0221668
-0.0221715
-0.0221761
-0.0221808
-0.0221852
-0.0221898
-0.0221941
-0.0221986
-0.0222028
-0.0222071
-0.0222112
-0.0222154
-0.0222195
-0.0222236
-0.0222275
-0.0222316
-0.0222355
-0.0222395
-0.0222435
-0.0222475
-0.0222515
-0.0222555
-0.0222596
-0.0222637
-0.0222679
-0.0222721
-0.0222764
-0.0222807
-0.0222851
-0.0222895
-0.0222941
-0.0222987
-0.0223034
-0.0223081
-0.0223129
-0.0223177
-0.0223227
-0.0223276
-0.0223326
-0.0223376
-0.0223427
-0.0223477
-0.0223529
-0.022358
-0.0223632
-0.0223683
-0.0223736
-0.0223788
-0.0223841
-0.0223893
-0.0223947
-0.0224
-0.0224055
-0.0224108
-0.0224163
-0.0224216
-0.0224271
-0.0224324
-0.0224378
-0.0224432
-0.0224485
-0.0224538
-0.0224591
-0.0224644
-0.0224699
-0.0224753
-0.0224811
-0.0224868
-0.0224929
-0.0224989
-0.0225055
-0.0225119
-0.022519
-0.0225258
-0.0225334
-0.0225406
-0.0225485
-0.0225561
-0.0225644
-0.0225723
-0.0225811
-0.0225893
-0.0225984
-0.022607
-0.0226167
-0.0226258
-0.0226359
-0.0226454
-0.0226561
-0.022666
-0.0226768
-0.0226865
-0.0226961
-0.0227049
-0.0227162
-0.0219974
-0.0220077
-0.0220246
-0.0220392
-0.0220525
-0.0220647
-0.0220759
-0.0220861
-0.0220954
-0.0221038
-0.0221113
-0.0221183
-0.0221244
-0.02213
-0.022135
-0.0221396
-0.022144
-0.0221482
-0.0221523
-0.0221564
-0.0221605
-0.0221648
-0.0221691
-0.0221735
-0.022178
-0.0221826
-0.0221872
-0.0221921
-0.0221967
-0.0222015
-0.0222062
-0.0222109
-0.0222155
-0.0222202
-0.0222246
-0.0222292
-0.0222336
-0.0222382
-0.0222425
-0.022247
-0.0222513
-0.0222558
-0.02226
-0.0222645
-0.0222688
-0.0222733
-0.0222777
-0.0222823
-0.0222867
-0.0222914
-0.0222959