/*--------------------------------*- C++ -*----------------------------------*\
  =========                 |
  \\      /  F ield         | OpenFOAM: The Open Source CFD Toolbox
   \\    /   O peration     | Website:  https://openfoam.org
    \\  /    A nd           | Version:  9
     \\/     M anipulation  |
\*---------------------------------------------------------------------------*/
FoamFile
{
    format      ascii;
    class       volScalarField;
    location    "0.01";
    object      nut;
}
// * * * * * * * * * * * * * * * * * * * * * * * * * * * * * * * * * * * * * //

dimensions      [0 2 -1 0 0 0 0];

internalField   nonuniform List<scalar> 
12628
(
0.014067
0.0140269
0.0139768
0.0140079
0.0140346
0.0140416
0.014067
0.0140269
0.0138643
0.0138937
0.0139243
0.0139527
0.0139767
0.0140079
0.0140346
0.0140416
0.0140669
0.0140269
0.0136791
0.0137156
0.0137493
0.0137802
0.013809
0.013836
0.0138642
0.0138937
0.0139242
0.0139527
0.0139767
0.0140078
0.0140346
0.0140415
0.0140669
0.0140269
0.0131203
0.0132119
0.0132944
0.0133684
0.0134347
0.0134942
0.0135476
0.0135957
0.0136393
0.0136791
0.0137156
0.0137493
0.0137802
0.013809
0.013836
0.0138642
0.0138937
0.0139242
0.0139527
0.0139766
0.0140078
0.0140345
0.0140415
0.0140668
0.0140269
0.000204137
0.000354452
0.000490329
0.000639737
0.000802521
0.000978301
0.00116578
0.00136358
0.00157054
0.00178549
0.00200733
0.00223485
0.00246671
0.00270132
0.00293731
0.00317303
0.00340668
0.00363645
0.00386062
0.00407779
0.00428713
0.00448894
0.00468495
0.00487844
0.00507388
0.00527625
0.00549047
0.00572084
0.00597062
0.00624172
0.00653445
0.00684754
0.00717832
0.00752322
0.00787825
0.00823937
0.00860268
0.00896452
0.00932157
0.0096708
0.0100095
0.0103353
0.0106462
0.0109405
0.011217
0.0114751
0.0117143
0.0119348
0.0121371
0.0123218
0.0124899
0.0126424
0.0127806
0.0129055
0.0130183
0.0131201
0.0132118
0.0132942
0.0133683
0.0134347
0.0134941
0.0135475
0.0135957
0.0136393
0.0136791
0.0137156
0.0137493
0.0137802
0.013809
0.013836
0.0138642
0.0138937
0.0139241
0.0139526
0.0139766
0.0140078
0.0140345
0.0140415
0.0140668
0.0140269
0.000102748
0.000294605
0.000429499
0.00057841
0.000740745
0.000916913
0.00110547
0.00130491
0.00151395
0.00173135
0.00195594
0.00218646
0.00242157
0.00265953
0.00289897
0.00313819
0.00337535
0.00360855
0.00383599
0.00405615
0.0042681
0.00447199
0.00466951
0.00486396
0.00505986
0.00526236
0.0054765
0.00570672
0.00595639
0.00622751
0.00652046
0.00683399
0.0071654
0.00751109
0.00786704
0.00822912
0.00859342
0.00895625
0.00931425
0.0096644
0.010004
0.0103305
0.0106421
0.0109371
0.0112142
0.0114727
0.0117124
0.0119333
0.0121358
0.0123208
0.0124891
0.0126418
0.0127801
0.0129051
0.013018
0.0131198
0.0132116
0.0132941
0.0133682
0.0134346
0.0134941
0.0135475
0.0135956
0.0136393
0.0136791
0.0137156
0.0137493
0.0137802
0.013809
0.013836
0.0138642
0.0138937
0.0139241
0.0139526
0.0139765
0.0140077
0.0140345
0.0140414
0.0140668
0.0140269
0.0140269
0.0140269
0.0140269
0.0140269
0.0140269
0.0140269
0.0140269
0.014027
0.014027
0.014027
0.014027
0.014027
0.014027
0.014027
0.014027
0.014027
0.014027
0.014027
0.014027
0.014027
0.014027
0.014027
0.014027
0.0140271
0.0140271
0.0140271
0.0140271
0.0140271
0.0140271
0.0140271
0.0140271
0.0140271
0.0140271
0.0140271
0.0140271
0.0140271
0.0140271
0.0140272
0.0140272
0.0140272
0.0140272
0.0140272
0.0140272
0.0140272
0.0140272
0.0140272
0.0140272
0.0140272
0.0140272
0.0140272
0.0140272
0.0140273
0.0140273
0.0140273
0.0140273
0.0140273
0.0140273
0.0140273
0.0140273
0.0140273
0.0140273
0.0140273
0.0140273
0.0140273
0.0140274
0.0140274
0.0140274
0.0140274
0.0140274
0.0140274
0.0140274
0.0140274
0.0140274
0.0140274
0.0140274
0.0140274
0.0140274
0.0140275
0.0140275
0.0140275
0.0140275
0.0140275
0.0140275
0.0140275
0.0140275
0.0140275
0.0140275
0.0140275
0.0140275
0.0140275
0.0140276
0.0140276
0.0140276
0.0140276
0.0140276
0.0140276
0.0140276
0.0140276
0.0140276
0.0140276
0.0140276
0.0140276
0.0140276
0.0140277
0.0140277
0.0140277
0.0140277
0.0140277
0.0140277
0.0140277
0.0140667
0.0140667
0.0140667
0.0140667
0.0140666
0.0140666
0.0140666
0.0140665
0.0140665
0.0140665
0.0140665
0.0140664
0.0140664
0.0140664
0.0140664
0.0140663
0.0140663
0.0140663
0.0140662
0.0140662
0.0140662
0.0140662
0.0140661
0.0140661
0.0140661
0.014066
0.014066
0.014066
0.014066
0.0140659
0.0140659
0.0140659
0.0140658
0.0140658
0.0140658
0.0140658
0.0140657
0.0140657
0.0140657
0.0140657
0.0140656
0.0140656
0.0140656
0.0140655
0.0140655
0.0140655
0.0140655
0.0140654
0.0140654
0.0140654
0.0140653
0.0140653
0.0140653
0.0140653
0.0140652
0.0140652
0.0140652
0.0140652
0.0140651
0.0140651
0.0140651
0.014065
0.014065
0.014065
0.014065
0.0140649
0.0140649
0.0140649
0.0140649
0.0140648
0.0140648
0.0140648
0.0140647
0.0140647
0.0140647
0.0140647
0.0140646
0.0140646
0.0140646
0.0140646
0.0140645
0.0140645
0.0140645
0.0140644
0.0140644
0.0140644
0.0140644
0.0140643
0.0140643
0.0140643
0.0140643
0.0140642
0.0140642
0.0140642
0.0140641
0.0140641
0.0140641
0.0140641
0.014064
0.014064
0.014064
0.014064
0.0140639
0.0140639
0.0140639
0.0140639
0.0140638
0.0140638
0.0140638
0.0140637
0.0140414
0.0140414
0.0140413
0.0140413
0.0140413
0.0140413
0.0140412
0.0140412
0.0140412
0.0140412
0.0140412
0.0140411
0.0140411
0.0140411
0.0140411
0.014041
0.014041
0.014041
0.014041
0.0140409
0.0140409
0.0140409
0.0140409
0.0140409
0.0140408
0.0140408
0.0140408
0.0140408
0.0140407
0.0140407
0.0140407
0.0140407
0.0140406
0.0140406
0.0140406
0.0140406
0.0140406
0.0140405
0.0140405
0.0140405
0.0140405
0.0140404
0.0140404
0.0140404
0.0140404
0.0140403
0.0140403
0.0140403
0.0140403
0.0140402
0.0140402
0.0140402
0.0140402
0.0140402
0.0140401
0.0140401
0.0140401
0.0140401
0.01404
0.01404
0.01404
0.01404
0.0140399
0.0140399
0.0140399
0.0140399
0.0140399
0.0140398
0.0140398
0.0140398
0.0140398
0.0140397
0.0140397
0.0140397
0.0140397
0.0140396
0.0140396
0.0140396
0.0140396
0.0140395
0.0140395
0.0140395
0.0140395
0.0140395
0.0140394
0.0140394
0.0140394
0.0140394
0.0140393
0.0140393
0.0140393
0.0140393
0.0140392
0.0140392
0.0140392
0.0140392
0.0140391
0.0140391
0.0140391
0.0140391
0.0140391
0.014039
0.014039
0.014039
0.014039
0.0140389
0.0140389
0.0140389
0.0140389
0.0140388
0.0140344
0.0140344
0.0140344
0.0140344
0.0140344
0.0140343
0.0140343
0.0140343
0.0140343
0.0140343
0.0140343
0.0140342
0.0140342
0.0140342
0.0140342
0.0140342
0.0140341
0.0140341
0.0140341
0.0140341
0.0140341
0.014034
0.014034
0.014034
0.014034
0.014034
0.0140339
0.0140339
0.0140339
0.0140339
0.0140339
0.0140338
0.0140338
0.0140338
0.0140338
0.0140338
0.0140337
0.0140337
0.0140337
0.0140337
0.0140337
0.0140336
0.0140336
0.0140336
0.0140336
0.0140336
0.0140335
0.0140335
0.0140335
0.0140335
0.0140335
0.0140334
0.0140334
0.0140334
0.0140334
0.0140334
0.0140333
0.0140333
0.0140333
0.0140333
0.0140333
0.0140332
0.0140332
0.0140332
0.0140332
0.0140332
0.0140331
0.0140331
0.0140331
0.0140331
0.0140331
0.014033
0.014033
0.014033
0.014033
0.014033
0.0140329
0.0140329
0.0140329
0.0140329
0.0140328
0.0140328
0.0140328
0.0140328
0.0140328
0.0140327
0.0140327
0.0140327
0.0140327
0.0140327
0.0140326
0.0140326
0.0140326
0.0140326
0.0140326
0.0140325
0.0140325
0.0140325
0.0140325
0.0140325
0.0140324
0.0140324
0.0140324
0.0140324
0.0140324
0.0140323
0.0140323
0.0140323
0.0140323
0.0140323
0.0140077
0.0140077
0.0140076
0.0140076
0.0140076
0.0140076
0.0140076
0.0140075
0.0140075
0.0140075
0.0140075
0.0140075
0.0140074
0.0140074
0.0140074
0.0140074
0.0140073
0.0140073
0.0140073
0.0140073
0.0140073
0.0140072
0.0140072
0.0140072
0.0140072
0.0140072
0.0140071
0.0140071
0.0140071
0.0140071
0.014007
0.014007
0.014007
0.014007
0.014007
0.0140069
0.0140069
0.0140069
0.0140069
0.0140068
0.0140068
0.0140068
0.0140068
0.0140068
0.0140067
0.0140067
0.0140067
0.0140067
0.0140066
0.0140066
0.0140066
0.0140066
0.0140065
0.0140065
0.0140065
0.0140065
0.0140065
0.0140064
0.0140064
0.0140064
0.0140064
0.0140063
0.0140063
0.0140063
0.0140063
0.0140063
0.0140062
0.0140062
0.0140062
0.0140062
0.0140061
0.0140061
0.0140061
0.0140061
0.014006
0.014006
0.014006
0.014006
0.0140059
0.0140059
0.0140059
0.0140059
0.0140059
0.0140058
0.0140058
0.0140058
0.0140058
0.0140057
0.0140057
0.0140057
0.0140057
0.0140056
0.0140056
0.0140056
0.0140056
0.0140055
0.0140055
0.0140055
0.0140055
0.0140055
0.0140054
0.0140054
0.0140054
0.0140054
0.0140053
0.0140053
0.0140053
0.0140053
0.0140052
0.0140052
0.0139765
0.0139764
0.0139764
0.0139764
0.0139763
0.0139763
0.0139763
0.0139763
0.0139762
0.0139762
0.0139762
0.0139762
0.0139761
0.0139761
0.0139761
0.013976
0.013976
0.013976
0.013976
0.0139759
0.0139759
0.0139759
0.0139758
0.0139758
0.0139758
0.0139758
0.0139757
0.0139757
0.0139757
0.0139756
0.0139756
0.0139756
0.0139755
0.0139755
0.0139755
0.0139755
0.0139754
0.0139754
0.0139754
0.0139753
0.0139753
0.0139753
0.0139753
0.0139752
0.0139752
0.0139752
0.0139751
0.0139751
0.0139751
0.013975
0.013975
0.013975
0.013975
0.0139749
0.0139749
0.0139749
0.0139748
0.0139748
0.0139748
0.0139747
0.0139747
0.0139747
0.0139746
0.0139746
0.0139746
0.0139746
0.0139745
0.0139745
0.0139745
0.0139744
0.0139744
0.0139744
0.0139743
0.0139743
0.0139743
0.0139742
0.0139742
0.0139742
0.0139742
0.0139741
0.0139741
0.0139741
0.013974
0.013974
0.013974
0.0139739
0.0139739
0.0139739
0.0139738
0.0139738
0.0139738
0.0139737
0.0139737
0.0139737
0.0139736
0.0139736
0.0139736
0.0139735
0.0139735
0.0139735
0.0139735
0.0139734
0.0139734
0.0139734
0.0139733
0.0139733
0.0139733
0.0139732
0.0139732
0.0139732
0.0139525
0.0139525
0.0139525
0.0139525
0.0139524
0.0139524
0.0139524
0.0139524
0.0139524
0.0139523
0.0139523
0.0139523
0.0139523
0.0139523
0.0139522
0.0139522
0.0139522
0.0139522
0.0139521
0.0139521
0.0139521
0.0139521
0.0139521
0.013952
0.013952
0.013952
0.013952
0.0139519
0.0139519
0.0139519
0.0139519
0.0139518
0.0139518
0.0139518
0.0139518
0.0139517
0.0139517
0.0139517
0.0139517
0.0139517
0.0139516
0.0139516
0.0139516
0.0139516
0.0139515
0.0139515
0.0139515
0.0139515
0.0139514
0.0139514
0.0139514
0.0139514
0.0139513
0.0139513
0.0139513
0.0139512
0.0139512
0.0139512
0.0139512
0.0139511
0.0139511
0.0139511
0.0139511
0.013951
0.013951
0.013951
0.013951
0.0139509
0.0139509
0.0139509
0.0139509
0.0139508
0.0139508
0.0139508
0.0139507
0.0139507
0.0139507
0.0139507
0.0139506
0.0139506
0.0139506
0.0139505
0.0139505
0.0139505
0.0139505
0.0139504
0.0139504
0.0139504
0.0139503
0.0139503
0.0139503
0.0139503
0.0139502
0.0139502
0.0139502
0.0139501
0.0139501
0.0139501
0.0139501
0.01395
0.01395
0.01395
0.0139499
0.0139499
0.0139499
0.0139498
0.0139498
0.0139498
0.0139497
0.0139497
0.013924
0.013924
0.013924
0.013924
0.0139239
0.0139239
0.0139239
0.0139239
0.0139239
0.0139238
0.0139238
0.0139238
0.0139238
0.0139237
0.0139237
0.0139237
0.0139237
0.0139237
0.0139236
0.0139236
0.0139236
0.0139236
0.0139235
0.0139235
0.0139235
0.0139235
0.0139234
0.0139234
0.0139234
0.0139234
0.0139233
0.0139233
0.0139233
0.0139233
0.0139232
0.0139232
0.0139232
0.0139232
0.0139231
0.0139231
0.0139231
0.0139231
0.013923
0.013923
0.013923
0.013923
0.0139229
0.0139229
0.0139229
0.0139228
0.0139228
0.0139228
0.0139228
0.0139227
0.0139227
0.0139227
0.0139227
0.0139226
0.0139226
0.0139226
0.0139225
0.0139225
0.0139225
0.0139225
0.0139224
0.0139224
0.0139224
0.0139223
0.0139223
0.0139223
0.0139223
0.0139222
0.0139222
0.0139222
0.0139221
0.0139221
0.0139221
0.013922
0.013922
0.013922
0.013922
0.0139219
0.0139219
0.0139219
0.0139218
0.0139218
0.0139218
0.0139217
0.0139217
0.0139217
0.0139216
0.0139216
0.0139216
0.0139215
0.0139215
0.0139215
0.0139214
0.0139214
0.0139214
0.0139213
0.0139213
0.0139213
0.0139212
0.0139212
0.0139212
0.0139211
0.0139211
0.0139211
0.013921
0.013921
0.0138937
0.0138937
0.0138937
0.0138937
0.0138937
0.0138937
0.0138938
0.0138938
0.0138938
0.0138938
0.0138938
0.0138938
0.0138939
0.0138939
0.0138939
0.0138939
0.0138939
0.0138939
0.013894
0.013894
0.013894
0.013894
0.013894
0.0138941
0.0138941
0.0138941
0.0138941
0.0138941
0.0138941
0.0138942
0.0138942
0.0138942
0.0138942
0.0138942
0.0138943
0.0138943
0.0138943
0.0138943
0.0138943
0.0138943
0.0138944
0.0138944
0.0138944
0.0138944
0.0138944
0.0138945
0.0138945
0.0138945
0.0138945
0.0138945
0.0138945
0.0138946
0.0138946
0.0138946
0.0138946
0.0138946
0.0138946
0.0138947
0.0138947
0.0138947
0.0138947
0.0138947
0.0138947
0.0138948
0.0138948
0.0138948
0.0138948
0.0138948
0.0138948
0.0138949
0.0138949
0.0138949
0.0138949
0.0138949
0.013895
0.013895
0.013895
0.013895
0.013895
0.013895
0.013895
0.0138951
0.0138951
0.0138951
0.0138951
0.0138951
0.0138951
0.0138952
0.0138952
0.0138952
0.0138952
0.0138952
0.0138952
0.0138953
0.0138953
0.0138953
0.0138953
0.0138953
0.0138953
0.0138954
0.0138954
0.0138954
0.0138954
0.0138954
0.0138954
0.0138954
0.0138955
0.0138955
0.0138955
0.0138955
0.0138642
0.0138642
0.0138642
0.0138642
0.0138642
0.0138642
0.0138643
0.0138643
0.0138643
0.0138643
0.0138643
0.0138644
0.0138644
0.0138644
0.0138644
0.0138644
0.0138645
0.0138645
0.0138645
0.0138645
0.0138646
0.0138646
0.0138646
0.0138646
0.0138646
0.0138647
0.0138647
0.0138647
0.0138647
0.0138648
0.0138648
0.0138648
0.0138648
0.0138648
0.0138649
0.0138649
0.0138649
0.0138649
0.013865
0.013865
0.013865
0.013865
0.013865
0.0138651
0.0138651
0.0138651
0.0138651
0.0138652
0.0138652
0.0138652
0.0138652
0.0138652
0.0138653
0.0138653
0.0138653
0.0138653
0.0138653
0.0138654
0.0138654
0.0138654
0.0138654
0.0138654
0.0138655
0.0138655
0.0138655
0.0138655
0.0138655
0.0138656
0.0138656
0.0138656
0.0138656
0.0138656
0.0138657
0.0138657
0.0138657
0.0138657
0.0138657
0.0138658
0.0138658
0.0138658
0.0138658
0.0138658
0.0138659
0.0138659
0.0138659
0.0138659
0.0138659
0.0138659
0.013866
0.013866
0.013866
0.013866
0.013866
0.0138661
0.0138661
0.0138661
0.0138661
0.0138661
0.0138661
0.0138662
0.0138662
0.0138662
0.0138662
0.0138662
0.0138662
0.0138663
0.0138663
0.0138663
0.0138663
0.0138663
0.013836
0.013836
0.013836
0.013836
0.013836
0.013836
0.0138361
0.0138361
0.0138361
0.0138361
0.0138361
0.0138362
0.0138362
0.0138362
0.0138363
0.0138363
0.0138363
0.0138363
0.0138364
0.0138364
0.0138364
0.0138364
0.0138365
0.0138365
0.0138365
0.0138365
0.0138366
0.0138366
0.0138366
0.0138367
0.0138367
0.0138367
0.0138367
0.0138368
0.0138368
0.0138368
0.0138368
0.0138369
0.0138369
0.0138369
0.0138369
0.013837
0.013837
0.013837
0.013837
0.0138371
0.0138371
0.0138371
0.0138372
0.0138372
0.0138372
0.0138372
0.0138373
0.0138373
0.0138373
0.0138373
0.0138374
0.0138374
0.0138374
0.0138374
0.0138375
0.0138375
0.0138375
0.0138375
0.0138376
0.0138376
0.0138376
0.0138376
0.0138376
0.0138377
0.0138377
0.0138377
0.0138377
0.0138378
0.0138378
0.0138378
0.0138378
0.0138379
0.0138379
0.0138379
0.0138379
0.013838
0.013838
0.013838
0.013838
0.013838
0.0138381
0.0138381
0.0138381
0.0138381
0.0138382
0.0138382
0.0138382
0.0138382
0.0138383
0.0138383
0.0138383
0.0138383
0.0138383
0.0138384
0.0138384
0.0138384
0.0138384
0.0138384
0.0138385
0.0138385
0.0138385
0.0138385
0.0138386
0.0138386
0.013809
0.013809
0.013809
0.013809
0.013809
0.0138091
0.0138091
0.0138091
0.0138092
0.0138092
0.0138092
0.0138092
0.0138093
0.0138093
0.0138093
0.0138094
0.0138094
0.0138094
0.0138095
0.0138095
0.0138095
0.0138096
0.0138096
0.0138096
0.0138097
0.0138097
0.0138097
0.0138098
0.0138098
0.0138098
0.0138099
0.0138099
0.0138099
0.01381
0.01381
0.01381
0.0138101
0.0138101
0.0138101
0.0138102
0.0138102
0.0138102
0.0138102
0.0138103
0.0138103
0.0138103
0.0138104
0.0138104
0.0138104
0.0138105
0.0138105
0.0138105
0.0138106
0.0138106
0.0138106
0.0138107
0.0138107
0.0138107
0.0138107
0.0138108
0.0138108
0.0138108
0.0138109
0.0138109
0.0138109
0.013811
0.013811
0.013811
0.013811
0.0138111
0.0138111
0.0138111
0.0138112
0.0138112
0.0138112
0.0138113
0.0138113
0.0138113
0.0138113
0.0138114
0.0138114
0.0138114
0.0138115
0.0138115
0.0138115
0.0138115
0.0138116
0.0138116
0.0138116
0.0138117
0.0138117
0.0138117
0.0138117
0.0138118
0.0138118
0.0138118
0.0138118
0.0138119
0.0138119
0.0138119
0.013812
0.013812
0.013812
0.013812
0.0138121
0.0138121
0.0138121
0.0138121
0.0138122
0.0138122
0.0137802
0.0137802
0.0137802
0.0137802
0.0137803
0.0137803
0.0137803
0.0137803
0.0137804
0.0137804
0.0137804
0.0137805
0.0137805
0.0137806
0.0137806
0.0137806
0.0137807
0.0137807
0.0137807
0.0137808
0.0137808
0.0137809
0.0137809
0.0137809
0.013781
0.013781
0.0137811
0.0137811
0.0137811
0.0137812
0.0137812
0.0137813
0.0137813
0.0137813
0.0137814
0.0137814
0.0137814
0.0137815
0.0137815
0.0137816
0.0137816
0.0137816
0.0137817
0.0137817
0.0137817
0.0137818
0.0137818
0.0137819
0.0137819
0.0137819
0.013782
0.013782
0.013782
0.0137821
0.0137821
0.0137822
0.0137822
0.0137822
0.0137823
0.0137823
0.0137823
0.0137824
0.0137824
0.0137824
0.0137825
0.0137825
0.0137825
0.0137826
0.0137826
0.0137827
0.0137827
0.0137827
0.0137828
0.0137828
0.0137828
0.0137829
0.0137829
0.0137829
0.013783
0.013783
0.013783
0.0137831
0.0137831
0.0137831
0.0137832
0.0137832
0.0137832
0.0137833
0.0137833
0.0137833
0.0137834
0.0137834
0.0137834
0.0137835
0.0137835
0.0137835
0.0137836
0.0137836
0.0137836
0.0137837
0.0137837
0.0137837
0.0137838
0.0137838
0.0137838
0.0137838
0.0137839
0.0137839
0.0137839
0.013784
0.0137493
0.0137493
0.0137493
0.0137493
0.0137493
0.0137494
0.0137494
0.0137495
0.0137495
0.0137495
0.0137496
0.0137496
0.0137497
0.0137497
0.0137498
0.0137498
0.0137498
0.0137499
0.0137499
0.01375
0.01375
0.0137501
0.0137501
0.0137502
0.0137502
0.0137503
0.0137503
0.0137503
0.0137504
0.0137504
0.0137505
0.0137505
0.0137506
0.0137506
0.0137507
0.0137507
0.0137508
0.0137508
0.0137509
0.0137509
0.0137509
0.013751
0.013751
0.0137511
0.0137511
0.0137512
0.0137512
0.0137513
0.0137513
0.0137513
0.0137514
0.0137514
0.0137515
0.0137515
0.0137516
0.0137516
0.0137516
0.0137517
0.0137517
0.0137518
0.0137518
0.0137519
0.0137519
0.0137519
0.013752
0.013752
0.0137521
0.0137521
0.0137521
0.0137522
0.0137522
0.0137523
0.0137523
0.0137524
0.0137524
0.0137524
0.0137525
0.0137525
0.0137526
0.0137526
0.0137526
0.0137527
0.0137527
0.0137528
0.0137528
0.0137528
0.0137529
0.0137529
0.0137529
0.013753
0.013753
0.0137531
0.0137531
0.0137531
0.0137532
0.0137532
0.0137533
0.0137533
0.0137533
0.0137534
0.0137534
0.0137534
0.0137535
0.0137535
0.0137536
0.0137536
0.0137536
0.0137537
0.0137537
0.0137537
0.0137156
0.0137156
0.0137156
0.0137156
0.0137157
0.0137157
0.0137158
0.0137158
0.0137158
0.0137159
0.0137159
0.013716
0.013716
0.0137161
0.0137162
0.0137162
0.0137163
0.0137163
0.0137164
0.0137164
0.0137165
0.0137165
0.0137166
0.0137166
0.0137167
0.0137167
0.0137168
0.0137169
0.0137169
0.013717
0.013717
0.0137171
0.0137171
0.0137172
0.0137172
0.0137173
0.0137173
0.0137174
0.0137174
0.0137175
0.0137175
0.0137176
0.0137176
0.0137177
0.0137177
0.0137178
0.0137179
0.0137179
0.013718
0.013718
0.0137181
0.0137181
0.0137182
0.0137182
0.0137183
0.0137183
0.0137184
0.0137184
0.0137185
0.0137185
0.0137186
0.0137186
0.0137187
0.0137187
0.0137188
0.0137188
0.0137188
0.0137189
0.0137189
0.013719
0.013719
0.0137191
0.0137191
0.0137192
0.0137192
0.0137193
0.0137193
0.0137194
0.0137194
0.0137195
0.0137195
0.0137196
0.0137196
0.0137196
0.0137197
0.0137197
0.0137198
0.0137198
0.0137199
0.0137199
0.01372
0.01372
0.0137201
0.0137201
0.0137201
0.0137202
0.0137202
0.0137203
0.0137203
0.0137204
0.0137204
0.0137204
0.0137205
0.0137205
0.0137206
0.0137206
0.0137207
0.0137207
0.0137207
0.0137208
0.0136791
0.0136791
0.0136791
0.0136791
0.0136792
0.0136792
0.0136793
0.0136793
0.0136794
0.0136795
0.0136795
0.0136796
0.0136796
0.0136797
0.0136798
0.0136798
0.0136799
0.0136799
0.01368
0.0136801
0.0136801
0.0136802
0.0136803
0.0136803
0.0136804
0.0136804
0.0136805
0.0136806
0.0136806
0.0136807
0.0136808
0.0136808
0.0136809
0.0136809
0.013681
0.0136811
0.0136811
0.0136812
0.0136813
0.0136813
0.0136814
0.0136814
0.0136815
0.0136816
0.0136816
0.0136817
0.0136817
0.0136818
0.0136819
0.0136819
0.013682
0.013682
0.0136821
0.0136822
0.0136822
0.0136823
0.0136823
0.0136824
0.0136824
0.0136825
0.0136826
0.0136826
0.0136827
0.0136827
0.0136828
0.0136828
0.0136829
0.013683
0.013683
0.0136831
0.0136831
0.0136832
0.0136832
0.0136833
0.0136833
0.0136834
0.0136835
0.0136835
0.0136836
0.0136836
0.0136837
0.0136837
0.0136838
0.0136838
0.0136839
0.0136839
0.013684
0.013684
0.0136841
0.0136841
0.0136842
0.0136842
0.0136843
0.0136843
0.0136844
0.0136844
0.0136845
0.0136846
0.0136846
0.0136847
0.0136847
0.0136848
0.0136848
0.0136848
0.0136849
0.0136849
0.013685
0.013685
0.0136851
0.0136851
0.0136393
0.0136393
0.0136393
0.0136393
0.0136394
0.0136394
0.0136395
0.0136395
0.0136396
0.0136397
0.0136397
0.0136398
0.0136399
0.01364
0.01364
0.0136401
0.0136402
0.0136402
0.0136403
0.0136404
0.0136405
0.0136405
0.0136406
0.0136407
0.0136408
0.0136408
0.0136409
0.013641
0.013641
0.0136411
0.0136412
0.0136413
0.0136413
0.0136414
0.0136415
0.0136416
0.0136416
0.0136417
0.0136418
0.0136418
0.0136419
0.013642
0.013642
0.0136421
0.0136422
0.0136423
0.0136423
0.0136424
0.0136425
0.0136425
0.0136426
0.0136427
0.0136427
0.0136428
0.0136429
0.0136429
0.013643
0.0136431
0.0136431
0.0136432
0.0136433
0.0136433
0.0136434
0.0136435
0.0136435
0.0136436
0.0136437
0.0136437
0.0136438
0.0136439
0.0136439
0.013644
0.013644
0.0136441
0.0136442
0.0136442
0.0136443
0.0136444
0.0136444
0.0136445
0.0136445
0.0136446
0.0136447
0.0136447
0.0136448
0.0136448
0.0136449
0.013645
0.013645
0.0136451
0.0136451
0.0136452
0.0136453
0.0136453
0.0136454
0.0136454
0.0136455
0.0136456
0.0136456
0.0136457
0.0136457
0.0136458
0.0136458
0.0136459
0.013646
0.013646
0.0136461
0.0136461
0.0136462
0.0136462
0.0135956
0.0135956
0.0135956
0.0135957
0.0135957
0.0135958
0.0135959
0.013596
0.013596
0.0135961
0.0135962
0.0135963
0.0135964
0.0135964
0.0135965
0.0135966
0.0135967
0.0135968
0.0135969
0.0135969
0.013597
0.0135971
0.0135972
0.0135973
0.0135974
0.0135975
0.0135975
0.0135976
0.0135977
0.0135978
0.0135979
0.013598
0.013598
0.0135981
0.0135982
0.0135983
0.0135984
0.0135985
0.0135985
0.0135986
0.0135987
0.0135988
0.0135989
0.0135989
0.013599
0.0135991
0.0135992
0.0135993
0.0135993
0.0135994
0.0135995
0.0135996
0.0135996
0.0135997
0.0135998
0.0135999
0.0136
0.0136
0.0136001
0.0136002
0.0136003
0.0136003
0.0136004
0.0136005
0.0136006
0.0136006
0.0136007
0.0136008
0.0136009
0.0136009
0.013601
0.0136011
0.0136012
0.0136012
0.0136013
0.0136014
0.0136014
0.0136015
0.0136016
0.0136017
0.0136017
0.0136018
0.0136019
0.0136019
0.013602
0.0136021
0.0136021
0.0136022
0.0136023
0.0136023
0.0136024
0.0136025
0.0136025
0.0136026
0.0136027
0.0136027
0.0136028
0.0136029
0.0136029
0.013603
0.0136031
0.0136031
0.0136032
0.0136033
0.0136033
0.0136034
0.0136035
0.0136035
0.0136036
0.0136036
0.0135475
0.0135475
0.0135475
0.0135475
0.0135476
0.0135477
0.0135478
0.0135479
0.0135479
0.013548
0.0135481
0.0135482
0.0135483
0.0135484
0.0135485
0.0135486
0.0135487
0.0135488
0.0135489
0.013549
0.0135491
0.0135492
0.0135493
0.0135494
0.0135495
0.0135496
0.0135497
0.0135498
0.0135499
0.01355
0.0135501
0.0135502
0.0135503
0.0135504
0.0135504
0.0135505
0.0135506
0.0135507
0.0135508
0.0135509
0.013551
0.0135511
0.0135512
0.0135513
0.0135514
0.0135515
0.0135516
0.0135517
0.0135517
0.0135518
0.0135519
0.013552
0.0135521
0.0135522
0.0135523
0.0135524
0.0135525
0.0135525
0.0135526
0.0135527
0.0135528
0.0135529
0.013553
0.0135531
0.0135531
0.0135532
0.0135533
0.0135534
0.0135535
0.0135536
0.0135536
0.0135537
0.0135538
0.0135539
0.013554
0.0135541
0.0135541
0.0135542
0.0135543
0.0135544
0.0135545
0.0135545
0.0135546
0.0135547
0.0135548
0.0135548
0.0135549
0.013555
0.0135551
0.0135552
0.0135552
0.0135553
0.0135554
0.0135555
0.0135555
0.0135556
0.0135557
0.0135558
0.0135558
0.0135559
0.013556
0.0135561
0.0135561
0.0135562
0.0135563
0.0135563
0.0135564
0.0135565
0.0135566
0.0135566
0.013494
0.013494
0.0134941
0.0134941
0.0134942
0.0134943
0.0134944
0.0134945
0.0134946
0.0134947
0.0134948
0.0134949
0.013495
0.0134951
0.0134953
0.0134954
0.0134955
0.0134956
0.0134957
0.0134958
0.0134959
0.013496
0.0134962
0.0134963
0.0134964
0.0134965
0.0134966
0.0134967
0.0134968
0.0134969
0.013497
0.0134971
0.0134973
0.0134974
0.0134975
0.0134976
0.0134977
0.0134978
0.0134979
0.013498
0.0134981
0.0134982
0.0134983
0.0134984
0.0134985
0.0134986
0.0134987
0.0134988
0.0134989
0.0134991
0.0134992
0.0134993
0.0134994
0.0134995
0.0134996
0.0134997
0.0134998
0.0134999
0.0135
0.0135001
0.0135001
0.0135002
0.0135003
0.0135004
0.0135005
0.0135006
0.0135007
0.0135008
0.0135009
0.013501
0.0135011
0.0135012
0.0135013
0.0135014
0.0135015
0.0135016
0.0135017
0.0135017
0.0135018
0.0135019
0.013502
0.0135021
0.0135022
0.0135023
0.0135024
0.0135025
0.0135026
0.0135026
0.0135027
0.0135028
0.0135029
0.013503
0.0135031
0.0135032
0.0135032
0.0135033
0.0135034
0.0135035
0.0135036
0.0135036
0.0135037
0.0135038
0.0135039
0.013504
0.0135041
0.0135041
0.0135042
0.0135043
0.0135044
0.0135044
0.0134345
0.0134345
0.0134345
0.0134346
0.0134347
0.0134348
0.0134349
0.013435
0.0134351
0.0134353
0.0134354
0.0134355
0.0134356
0.0134358
0.0134359
0.013436
0.0134362
0.0134363
0.0134364
0.0134365
0.0134367
0.0134368
0.0134369
0.0134371
0.0134372
0.0134373
0.0134374
0.0134376
0.0134377
0.0134378
0.0134379
0.0134381
0.0134382
0.0134383
0.0134384
0.0134386
0.0134387
0.0134388
0.0134389
0.013439
0.0134392
0.0134393
0.0134394
0.0134395
0.0134396
0.0134398
0.0134399
0.01344
0.0134401
0.0134402
0.0134403
0.0134404
0.0134406
0.0134407
0.0134408
0.0134409
0.013441
0.0134411
0.0134412
0.0134413
0.0134415
0.0134416
0.0134417
0.0134418
0.0134419
0.013442
0.0134421
0.0134422
0.0134423
0.0134424
0.0134425
0.0134426
0.0134427
0.0134428
0.0134429
0.013443
0.0134432
0.0134433
0.0134434
0.0134435
0.0134436
0.0134437
0.0134438
0.0134439
0.013444
0.013444
0.0134441
0.0134442
0.0134443
0.0134444
0.0134445
0.0134446
0.0134447
0.0134448
0.0134449
0.013445
0.0134451
0.0134452
0.0134453
0.0134454
0.0134455
0.0134455
0.0134456
0.0134457
0.0134458
0.0134459
0.013446
0.0134461
0.0134462
0.0134462
0.0133681
0.0133681
0.0133681
0.0133681
0.0133682
0.0133683
0.0133685
0.0133686
0.0133687
0.0133689
0.013369
0.0133692
0.0133693
0.0133695
0.0133696
0.0133698
0.0133699
0.0133701
0.0133702
0.0133704
0.0133705
0.0133707
0.0133708
0.013371
0.0133711
0.0133712
0.0133714
0.0133715
0.0133717
0.0133718
0.013372
0.0133721
0.0133722
0.0133724
0.0133725
0.0133727
0.0133728
0.0133729
0.0133731
0.0133732
0.0133733
0.0133735
0.0133736
0.0133737
0.0133739
0.013374
0.0133741
0.0133743
0.0133744
0.0133745
0.0133747
0.0133748
0.0133749
0.013375
0.0133752
0.0133753
0.0133754
0.0133756
0.0133757
0.0133758
0.0133759
0.013376
0.0133762
0.0133763
0.0133764
0.0133765
0.0133767
0.0133768
0.0133769
0.013377
0.0133771
0.0133772
0.0133774
0.0133775
0.0133776
0.0133777
0.0133778
0.0133779
0.013378
0.0133782
0.0133783
0.0133784
0.0133785
0.0133786
0.0133787
0.0133788
0.0133789
0.013379
0.0133791
0.0133792
0.0133793
0.0133794
0.0133796
0.0133797
0.0133798
0.0133799
0.01338
0.0133801
0.0133802
0.0133803
0.0133804
0.0133805
0.0133806
0.0133807
0.0133808
0.0133808
0.0133809
0.013381
0.0133811
0.0133812
0.013294
0.0132939
0.0132939
0.013294
0.0132941
0.0132942
0.0132944
0.0132945
0.0132947
0.0132948
0.013295
0.0132952
0.0132953
0.0132955
0.0132957
0.0132958
0.013296
0.0132962
0.0132964
0.0132965
0.0132967
0.0132969
0.013297
0.0132972
0.0132974
0.0132975
0.0132977
0.0132978
0.013298
0.0132982
0.0132983
0.0132985
0.0132986
0.0132988
0.013299
0.0132991
0.0132993
0.0132994
0.0132996
0.0132997
0.0132999
0.0133
0.0133002
0.0133003
0.0133005
0.0133006
0.0133008
0.0133009
0.0133011
0.0133012
0.0133014
0.0133015
0.0133016
0.0133018
0.0133019
0.0133021
0.0133022
0.0133024
0.0133025
0.0133026
0.0133028
0.0133029
0.013303
0.0133032
0.0133033
0.0133034
0.0133036
0.0133037
0.0133038
0.013304
0.0133041
0.0133042
0.0133044
0.0133045
0.0133046
0.0133047
0.0133049
0.013305
0.0133051
0.0133052
0.0133054
0.0133055
0.0133056
0.0133057
0.0133058
0.013306
0.0133061
0.0133062
0.0133063
0.0133064
0.0133065
0.0133067
0.0133068
0.0133069
0.013307
0.0133071
0.0133072
0.0133073
0.0133074
0.0133075
0.0133077
0.0133078
0.0133079
0.013308
0.0133081
0.0133082
0.0133083
0.0133084
0.0133085
0.0133086
0.0132114
0.0132114
0.0132114
0.0132114
0.0132115
0.0132116
0.0132118
0.013212
0.0132121
0.0132123
0.0132125
0.0132127
0.0132129
0.0132131
0.0132133
0.0132135
0.0132137
0.0132139
0.013214
0.0132142
0.0132144
0.0132146
0.0132148
0.013215
0.0132152
0.0132154
0.0132156
0.0132157
0.0132159
0.0132161
0.0132163
0.0132165
0.0132166
0.0132168
0.013217
0.0132172
0.0132173
0.0132175
0.0132177
0.0132179
0.013218
0.0132182
0.0132184
0.0132185
0.0132187
0.0132189
0.013219
0.0132192
0.0132194
0.0132195
0.0132197
0.0132198
0.01322
0.0132202
0.0132203
0.0132205
0.0132206
0.0132208
0.0132209
0.0132211
0.0132212
0.0132214
0.0132215
0.0132217
0.0132218
0.013222
0.0132221
0.0132223
0.0132224
0.0132226
0.0132227
0.0132228
0.013223
0.0132231
0.0132233
0.0132234
0.0132235
0.0132237
0.0132238
0.0132239
0.0132241
0.0132242
0.0132243
0.0132245
0.0132246
0.0132247
0.0132249
0.013225
0.0132251
0.0132252
0.0132254
0.0132255
0.0132256
0.0132257
0.0132259
0.013226
0.0132261
0.0132262
0.0132263
0.0132264
0.0132266
0.0132267
0.0132268
0.0132269
0.013227
0.0132271
0.0132272
0.0132273
0.0132275
0.0132276
0.0131196
0.0131195
0.0131195
0.0131196
0.0131197
0.0131198
0.01312
0.0131202
0.0131204
0.0131206
0.0131208
0.013121
0.0131212
0.0131214
0.0131216
0.0131219
0.0131221
0.0131223
0.0131225
0.0131227
0.0131229
0.0131231
0.0131234
0.0131236
0.0131238
0.013124
0.0131242
0.0131244
0.0131246
0.0131248
0.013125
0.0131252
0.0131254
0.0131256
0.0131258
0.013126
0.0131262
0.0131264
0.0131266
0.0131268
0.013127
0.0131272
0.0131273
0.0131275
0.0131277
0.0131279
0.0131281
0.0131283
0.0131284
0.0131286
0.0131288
0.013129
0.0131292
0.0131293
0.0131295
0.0131297
0.0131298
0.01313
0.0131302
0.0131303
0.0131305
0.0131307
0.0131308
0.013131
0.0131312
0.0131313
0.0131315
0.0131316
0.0131318
0.013132
0.0131321
0.0131323
0.0131324
0.0131326
0.0131327
0.0131329
0.013133
0.0131332
0.0131333
0.0131335
0.0131336
0.0131337
0.0131339
0.013134
0.0131342
0.0131343
0.0131344
0.0131346
0.0131347
0.0131349
0.013135
0.0131351
0.0131353
0.0131354
0.0131355
0.0131356
0.0131358
0.0131359
0.013136