/*--------------------------------*- C++ -*----------------------------------*\
  =========                 |
  \\      /  F ield         | OpenFOAM: The Open Source CFD Toolbox
   \\    /   O peration     | Website:  https://openfoam.org
    \\  /    A nd           | Version:  8
     \\/     M anipulation  |
\*---------------------------------------------------------------------------*/
FoamFile
{
    version     2.0;
    format      ascii;
    class       volScalarField;
    location    "0.6";
    object      nut;
}
// * * * * * * * * * * * * * * * * * * * * * * * * * * * * * * * * * * * * * //

dimensions      [0 2 -1 0 0 0 0];

internalField   nonuniform List<scalar> 
277560
(
0.0100045
0.0100136
0.0100222
0.0100301
0.0100373
0.0100437
0.0100494
0.0100544
0.0100588
0.0100625
0.0100655
0.0100679
0.0100696
0.0100707
0.0100712
0.0100709
0.01007
0.0100684
0.0100661
0.0100632
0.0100597
0.0100555
0.0100507
0.0100453
0.0100394
0.0100329
0.010026
0.0100187
0.010011
0.010003
0.00999471
0.00998623
0.00997761
0.00996892
0.00996024
0.00995162
0.00994313
0.00993484
0.0099268
0.00991908
0.00991173
0.0099048
0.00989832
0.00989233
0.00988685
0.00988192
0.00987753
0.0098737
0.00987042
0.0098677
0.00986551
0.00986383
0.00986265
0.00986194
0.00986167
0.00986181
0.00986232
0.00986318
0.00986433
0.00986576
0.00986742
0.00986929
0.00987132
0.0098735
0.00987578
0.00987814
0.00988057
0.00988303
0.0098855
0.00988796
0.00989041
0.00989282
0.00989518
0.00989747
0.0098997
0.00990185
0.00990391
0.00990588
0.00990776
0.00990954
0.00991121
0.00991278
0.00991425
0.00991561
0.00991687
0.00991803
0.00991908
0.00992003
0.00992089
0.00992164
0.0099223
0.00992287
0.00992335
0.00992374
0.00992404
0.00992426
0.00992441
0.00992447
0.00992447
0.00992439
0.00992425
0.00992405
0.00992378
0.00992346
0.00992309
0.00992267
0.00992221
0.0099217
0.00992117
0.0099206
0.00992001
0.00991939
0.00991876
0.00991813
0.00991748
0.00991685
0.00991622
0.0099156
0.00991501
0.00991444
0.0100055
0.0100151
0.0100237
0.0100315
0.0100385
0.0100447
0.0100502
0.0100551
0.0100593
0.0100629
0.0100658
0.0100681
0.0100698
0.0100708
0.0100712
0.0100709
0.0100699
0.0100683
0.010066
0.010063
0.0100594
0.0100552
0.0100504
0.010045
0.010039
0.0100325
0.0100256
0.0100183
0.0100105
0.0100025
0.00999416
0.00998565
0.00997701
0.00996829
0.00995958
0.00995093
0.00994241
0.00993409
0.00992604
0.0099183
0.00991094
0.009904
0.00989752
0.00989154
0.00988608
0.00988116
0.00987681
0.00987302
0.00986979
0.00986711
0.00986498
0.00986338
0.00986227
0.00986164
0.00986145
0.00986168
0.00986228
0.00986323
0.00986448
0.009866
0.00986776
0.00986972
0.00987185
0.00987412
0.00987649
0.00987894
0.00988145
0.00988399
0.00988654
0.00988908
0.00989159
0.00989406
0.00989648
0.00989884
0.00990111
0.00990331
0.00990541
0.00990742
0.00990933
0.00991113
0.00991283
0.00991442
0.0099159
0.00991727
0.00991854
0.0099197
0.00992075
0.00992169
0.00992254
0.00992328
0.00992392
0.00992446
0.00992492
0.00992528
0.00992555
0.00992574
0.00992584
0.00992587
0.00992582
0.00992569
0.0099255
0.00992524
0.00992492
0.00992454
0.00992411
0.00992363
0.0099231
0.00992253
0.00992192
0.00992128
0.00992062
0.00991993
0.00991923
0.00991852
0.0099178
0.00991709
0.0099164
0.00991572
0.00991506
0.00991444
0.0100053
0.0100146
0.0100228
0.0100302
0.0100367
0.0100426
0.0100479
0.0100524
0.0100564
0.0100598
0.0100626
0.0100647
0.0100663
0.0100672
0.0100675
0.0100671
0.0100661
0.0100644
0.010062
0.010059
0.0100554
0.0100511
0.0100462
0.0100408
0.0100348
0.0100283
0.0100214
0.010014
0.0100062
0.00999813
0.00998978
0.00998122
0.00997252
0.00996374
0.00995496
0.00994624
0.00993765
0.00992927
0.00992115
0.00991335
0.00990594
0.00989895
0.00989243
0.00988643
0.00988096
0.00987605
0.00987172
0.00986796
0.00986479
0.00986218
0.00986013
0.00985862
0.00985763
0.00985712
0.00985707
0.00985745
0.00985821
0.00985931
0.00986074
0.00986243
0.00986437
0.00986651
0.00986881
0.00987125
0.0098738
0.00987643
0.0098791
0.00988181
0.00988451
0.00988721
0.00988987
0.00989248
0.00989503
0.0098975
0.0098999
0.0099022
0.0099044
0.0099065
0.00990849
0.00991037
0.00991213
0.00991378
0.00991531
0.00991673
0.00991803
0.00991921
0.00992028
0.00992124
0.00992209
0.00992283
0.00992347
0.009924
0.00992443
0.00992477
0.00992501
0.00992515
0.00992522
0.00992519
0.00992508
0.0099249
0.00992464
0.00992431
0.00992391
0.00992345
0.00992293
0.00992235
0.00992172
0.00992104
0.00992032
0.00991956
0.00991878
0.00991796
0.00991713
0.00991628
0.00991543
0.00991458
0.00991374
0.00991293
0.00991214
0.0099114
0.0100046
0.010013
0.0100205
0.0100272
0.0100332
0.0100385
0.0100433
0.0100475
0.0100512
0.0100543
0.0100568
0.0100588
0.0100602
0.010061
0.0100612
0.0100608
0.0100597
0.0100579
0.0100555
0.0100525
0.0100488
0.0100445
0.0100396
0.0100341
0.0100281
0.0100216
0.0100146
0.0100072
0.00999941
0.00999128
0.00998286
0.00997423
0.00996544
0.00995657
0.00994769
0.00993885
0.00993015
0.00992164
0.0099134
0.00990549
0.00989797
0.00989089
0.00988429
0.00987822
0.00987271
0.00986778
0.00986344
0.00985971
0.00985658
0.00985404
0.00985209
0.00985069
0.00984984
0.00984949
0.00984962
0.00985019
0.00985116
0.00985249
0.00985414
0.00985608
0.00985826
0.00986065
0.00986321
0.00986591
0.00986871
0.00987158
0.0098745
0.00987744
0.00988038
0.0098833
0.00988617
0.00988899
0.00989174
0.0098944
0.00989697
0.00989944
0.0099018
0.00990404
0.00990617
0.00990817
0.00991005
0.0099118
0.00991342
0.00991492
0.00991629
0.00991754
0.00991866
0.00991966
0.00992054
0.00992131
0.00992196
0.0099225
0.00992293
0.00992326
0.00992348
0.00992361
0.00992364
0.00992358
0.00992343
0.0099232
0.00992288
0.00992248
0.00992201
0.00992147
0.00992086
0.00992019
0.00991946
0.00991867
0.00991783
0.00991694
0.00991601
0.00991504
0.00991404
0.00991302
0.00991197
0.00991092
0.00990986
0.0099088
0.00990777
0.0099068
0.0100039
0.010011
0.0100174
0.0100232
0.0100284
0.0100331
0.0100374
0.0100411
0.0100444
0.0100472
0.0100495
0.0100513
0.0100526
0.0100533
0.0100535
0.010053
0.0100518
0.01005
0.0100476
0.0100445
0.0100407
0.0100364
0.0100315
0.010026
0.01002
0.0100135
0.0100065
0.00999911
0.00999127
0.00998308
0.00997459
0.00996586
0.00995696
0.00994795
0.00993891
0.00992991
0.00992103
0.00991234
0.00990391
0.00989581
0.00988812
0.00988087
0.00987414
0.00986795
0.00986234
0.00985734
0.00985296
0.00984922
0.00984611
0.00984363
0.00984176
0.00984049
0.00983979
0.00983962
0.00983996
0.00984076
0.00984198
0.00984358
0.00984552
0.00984775
0.00985024
0.00985294
0.00985582
0.00985883
0.00986195
0.00986514
0.00986837
0.00987162
0.00987485
0.00987806
0.00988121
0.0098843
0.0098873
0.00989021
0.00989302
0.0098957
0.00989827
0.00990071
0.00990302
0.00990519
0.00990723
0.00990912
0.00991088
0.0099125
0.00991398
0.00991532
0.00991653
0.00991761
0.00991856
0.00991938
0.00992008
0.00992065
0.00992111
0.00992146
0.0099217
0.00992183
0.00992186
0.00992179
0.00992163
0.00992137
0.00992103
0.0099206
0.00992009
0.00991951
0.00991886
0.00991814
0.00991736
0.00991651
0.00991562
0.00991467
0.00991368
0.00991265
0.00991159
0.0099105
0.00990939
0.00990827
0.00990718
0.00990618
0.00990525
0.00990439
0.0100031
0.0100087
0.0100139
0.0100187
0.010023
0.0100271
0.0100307
0.010034
0.0100369
0.0100394
0.0100415
0.0100431
0.0100443
0.010045
0.0100451
0.0100446
0.0100434
0.0100416
0.0100391
0.010036
0.0100322
0.0100279
0.010023
0.0100176
0.0100116
0.0100052
0.00999818
0.00999075
0.00998288
0.00997463
0.00996606
0.00995721
0.00994815
0.00993896
0.0099297
0.00992046
0.00991132
0.00990236
0.00989366
0.00988529
0.00987733
0.00986984
0.00986288
0.00985649
0.00985072
0.00984559
0.00984111
0.00983731
0.00983417
0.00983172
0.00982992
0.00982875
0.0098282
0.00982822
0.00982878
0.00982983
0.00983134
0.00983325
0.00983551
0.00983809
0.00984093
0.00984399
0.00984724
0.00985062
0.00985411
0.00985767
0.00986127
0.00986487
0.00986846
0.00987201
0.00987549
0.0098789
0.00988221
0.00988542
0.0098885
0.00989146
0.00989428
0.00989696
0.0098995
0.00990188
0.00990411
0.00990619
0.00990812
0.0099099
0.00991152
0.009913
0.00991433
0.00991551
0.00991656
0.00991747
0.00991824
0.00991889
0.00991941
0.00991981
0.00992009
0.00992026
0.00992032
0.00992027
0.00992013
0.00991989
0.00991957
0.00991915
0.00991866
0.00991809
0.00991746
0.00991675
0.00991599
0.00991518
0.00991432
0.00991342
0.00991249
0.00991154
0.00991057
0.0099096
0.00990865
0.00990781
0.00990707
0.00990645
0.00990594
0.00990545
0.0100022
0.0100064
0.0100103
0.010014
0.0100175
0.0100208
0.0100239
0.0100267
0.0100292
0.0100315
0.0100334
0.010035
0.0100362
0.0100369
0.0100371
0.0100366
0.0100355
0.0100336
0.0100311
0.0100279
0.0100242
0.0100199
0.0100151
0.0100098
0.0100039
0.00999754
0.00999062
0.00998321
0.00997534
0.00996703
0.00995835
0.00994936
0.0099401
0.00993067
0.00992113
0.00991156
0.00990206
0.00989272
0.00988363
0.00987486
0.00986651
0.00985866
0.00985137
0.0098447
0.00983868
0.00983332
0.00982865
0.00982469
0.00982146
0.00981896
0.00981718
0.0098161
0.00981568
0.00981588
0.00981666
0.00981798
0.00981978
0.00982202
0.00982464
0.00982758
0.00983082
0.00983428
0.00983793
0.00984173
0.00984563
0.0098496
0.00985361
0.00985762
0.0098616
0.00986553
0.00986939
0.00987317
0.00987683
0.00988037
0.00988378
0.00988704
0.00989016
0.00989311
0.00989591
0.00989854
0.009901
0.0099033
0.00990543
0.00990739
0.00990919
0.00991083
0.00991231
0.00991363
0.0099148
0.00991582
0.0099167
0.00991745
0.00991805
0.00991853
0.00991888
0.00991912
0.00991924
0.00991926
0.00991917
0.00991898
0.0099187
0.00991834
0.0099179
0.00991739
0.00991681
0.00991617
0.00991548
0.00991474
0.00991397
0.00991316
0.00991234
0.00991151
0.00991069
0.00990989
0.00990921
0.00990866
0.00990823
0.00990793
0.00990765
0.00990737
0.0100014
0.010004
0.0100066
0.0100093
0.010012
0.0100148
0.0100174
0.0100198
0.010022
0.0100241
0.010026
0.0100277
0.010029
0.0100299
0.0100302
0.0100299
0.0100289
0.0100271
0.0100245
0.0100213
0.0100177
0.0100136
0.0100089
0.0100038
0.00999815
0.00999194
0.00998517
0.00997785
0.00997
0.00996167
0.0099529
0.00994373
0.00993425
0.0099245
0.00991457
0.00990456
0.00989455
0.00988467
0.00987502
0.00986567
0.00985673
0.00984831
0.00984053
0.00983349
0.00982712
0.00982139
0.00981635
0.00981207
0.0098086
0.00980596
0.00980413
0.00980307
0.00980274
0.0098031
0.00980409
0.00980567
0.00980777
0.00981035
0.00981333
0.00981667
0.00982031
0.0098242
0.00982828
0.00983252
0.00983687
0.00984128
0.00984572
0.00985017
0.00985458
0.00985893
0.00986319
0.00986736
0.0098714
0.00987531
0.00987907
0.00988267
0.00988611
0.00988937
0.00989245
0.00989536
0.00989808
0.00990062
0.00990298
0.00990515
0.00990715
0.00990897
0.00991062
0.00991211
0.00991343
0.00991459
0.00991559
0.00991645
0.00991717
0.00991775
0.00991819
0.00991852
0.00991872
0.00991881
0.0099188
0.00991869
0.00991848
0.00991819
0.00991783
0.00991739
0.00991688
0.00991633
0.00991572
0.00991508
0.0099144
0.00991371
0.00991301
0.00991232
0.00991165
0.00991105
0.00991058
0.00991027
0.00991009
0.00990996
0.00990985
0.00990974
0.0100005
0.0100016
0.010003
0.0100048
0.010007
0.0100094
0.0100118
0.0100139
0.0100159
0.010018
0.0100201
0.0100221
0.0100239
0.0100252
0.010026
0.0100261
0.0100256
0.0100244
0.0100224
0.0100198
0.0100166
0.0100128
0.0100086
0.0100038
0.00999847
0.00999258
0.00998606
0.0099789
0.00997114
0.00996281
0.00995396
0.00994463
0.00993489
0.00992478
0.00991439
0.0099038
0.00989313
0.00988257
0.00987222
0.00986215
0.00985241
0.00984307
0.00983422
0.00982594
0.00981831
0.00981145
0.00980542
0.00980032
0.00979625
0.00979334
0.00979136
0.00979021
0.00978989
0.00979035
0.00979152
0.00979333
0.00979572
0.00979862
0.00980197
0.0098057
0.00980975
0.00981407
0.0098186
0.00982329
0.00982809
0.00983296
0.00983786
0.00984275
0.00984761
0.0098524
0.00985709
0.00986167
0.00986611
0.00987041
0.00987454
0.0098785
0.00988228
0.00988587
0.00988926
0.00989246
0.00989546
0.00989826
0.00990086
0.00990327
0.00990548
0.00990751
0.00990935
0.00991101
0.00991249
0.00991381
0.00991495
0.00991595
0.00991678
0.00991748
0.00991803
0.00991846
0.00991876
0.00991894
0.00991902
0.00991899
0.00991886
0.00991865
0.00991837
0.00991801
0.00991759
0.00991711
0.00991659
0.00991604
0.00991546
0.00991487
0.00991428
0.00991371
0.00991316
0.00991271
0.00991241
0.00991227
0.00991226
0.00991229
0.00991231
0.00991233
0.00999957
0.00999916
0.00999959
0.010001
0.0100031
0.0100057
0.0100084
0.0100111
0.0100137
0.0100163
0.0100189
0.0100216
0.0100241
0.0100261
0.0100274
0.0100281
0.0100282
0.0100275
0.0100261
0.010024
0.0100212
0.0100178
0.0100138
0.0100091
0.0100039
0.009998
0.00999147
0.00998428
0.00997647
0.00996807
0.00995911
0.00994965
0.00993974
0.00992945
0.00991885
0.00990803
0.00989709
0.00988612
0.00987522
0.00986447
0.00985391
0.00984362
0.00983362
0.00982398
0.00981485
0.00980659
0.00979922
0.00979279
0.00978742
0.00978319
0.00978014
0.00977828
0.0097777
0.00977814
0.00977939
0.00978138
0.009784
0.0097872
0.00979088
0.00979498
0.00979943
0.00980416
0.00980913
0.00981426
0.00981952
0.00982485
0.00983021
0.00983556
0.00984087
0.0098461
0.00985123
0.00985623
0.00986109
0.00986578
0.0098703
0.00987463
0.00987876
0.00988269
0.0098864
0.00988991
0.00989319
0.00989627
0.00989913
0.00990178
0.00990422
0.00990646
0.0099085
0.00991035
0.00991201
0.00991348
0.00991478
0.00991591
0.00991689
0.0099177
0.00991837
0.0099189
0.0099193
0.00991958
0.00991974
0.0099198
0.00991976
0.00991963
0.00991942
0.00991913
0.00991879
0.00991839
0.00991795
0.00991748
0.00991698
0.00991647
0.00991597
0.00991549
0.00991505
0.00991472
0.00991455
0.00991455
0.00991465
0.00991478
0.00991491
0.00991503
0.00999871
0.009998
0.00999867
0.0100003
0.0100027
0.010006
0.0100094
0.0100127
0.0100159
0.010019
0.0100221
0.010025
0.0100277
0.01003
0.0100317
0.0100328
0.0100332
0.0100329
0.0100319
0.0100302
0.0100278
0.0100248
0.010021
0.0100165
0.0100113
0.0100055
0.00999895
0.00999174
0.00998387
0.00997538
0.00996631
0.0099567
0.00994661
0.00993611
0.00992527
0.00991416
0.00990288
0.00989151
0.00988012
0.0098688
0.00985762
0.00984664
0.00983594
0.0098256
0.00981572
0.00980641
0.00979771
0.0097897
0.00978273
0.00977699
0.00977253
0.00976942
0.00976768
0.00976728
0.00976826
0.00977025
0.00977301
0.00977642
0.00978037
0.00978479
0.00978959
0.00979472
0.00980009
0.00980565
0.00981134
0.00981711
0.00982292
0.00982872
0.00983447
0.00984015
0.00984571
0.00985114
0.00985641
0.00986151
0.00986641
0.00987111
0.0098756
0.00987987
0.00988392
0.00988773
0.00989132
0.00989467
0.0098978
0.00990069
0.00990337
0.00990583
0.00990807
0.00991011
0.00991195
0.00991359
0.00991504
0.00991632
0.00991742
0.00991836
0.00991915
0.00991978
0.00992028
0.00992065
0.0099209
0.00992104
0.00992107
0.00992101
0.00992087
0.00992065
0.00992037
0.00992003
0.00991965
0.00991924
0.00991881
0.00991837
0.00991793
0.00991752
0.00991715
0.0099169
0.00991682
0.00991692
0.0099171
0.00991731
0.00991753
0.00991773
0.00999889
0.00999903
0.0100004
0.0100026
0.0100054
0.0100087
0.0100124
0.010016
0.0100197
0.0100233
0.0100267
0.01003
0.010033
0.0100355
0.0100376
0.010039
0.0100398
0.0100399
0.0100393
0.010038
0.0100359
0.0100331
0.0100295
0.0100252
0.0100201
0.0100143
0.0100078
0.0100006
0.00999265
0.00998406
0.00997486
0.00996509
0.0099548
0.00994407
0.00993295
0.00992153
0.00990989
0.00989809
0.00988623
0.00987438
0.00986263
0.00985104
0.00983969
0.00982868
0.00981809
0.00980799
0.00979848
0.00978963
0.00978156
0.00977435
0.00976828
0.00976369
0.00976061
0.00975906
0.00975902
0.00976043
0.0097631
0.00976659
0.00977071
0.00977537
0.00978046
0.00978591
0.00979164
0.00979759
0.00980368
0.00980987
0.00981611
0.00982233
0.00982852
0.00983462
0.0098406
0.00984645
0.00985213
0.00985762
0.00986291
0.00986798
0.00987283
0.00987744
0.00988181
0.00988594
0.00988982
0.00989345
0.00989684
0.00989999
0.0099029
0.00990558
0.00990803
0.00991026
0.00991227
0.00991408
0.00991568
0.0099171
0.00991833
0.00991939
0.00992029
0.00992102
0.00992162
0.00992207
0.0099224
0.0099226
0.0099227
0.0099227
0.00992262
0.00992245
0.00992222
0.00992193
0.00992159
0.00992123
0.00992084
0.00992044
0.00992005
0.00991969
0.00991937
0.00991916
0.00991914
0.0099193
0.00991955
0.00991983
0.00992011
0.00992038
0.0099999
0.0100008
0.0100027
0.0100054
0.0100086
0.0100123
0.0100162
0.0100203
0.0100244
0.0100284
0.0100323
0.0100359
0.0100393
0.0100422
0.0100446
0.0100464
0.0100476
0.010048
0.0100478
0.0100468
0.010045
0.0100424
0.010039
0.0100348
0.0100299
0.0100241
0.0100176
0.0100104
0.0100024
0.00999366
0.00998432
0.00997436
0.00996386
0.00995287
0.00994146
0.00992971
0.00991768
0.00990547
0.00989314
0.00988078
0.00986847
0.00985629
0.00984433
0.00983267
0.0098214
0.0098106
0.00980035
0.00979074
0.00978186
0.0097738
0.00976665
0.00976057
0.00975607
0.00975323
0.00975207
0.00975255
0.00975459
0.00975793
0.00976209
0.00976688
0.00977217
0.00977788
0.00978391
0.00979019
0.00979664
0.00980321
0.00980983
0.00981646
0.00982305
0.00982956
0.00983596
0.0098422
0.00984827
0.00985415
0.00985982
0.00986525
0.00987045
0.00987539
0.00988008
0.00988452
0.00988869
0.0098926
0.00989625
0.00989964
0.00990278
0.00990567
0.00990832
0.00991073
0.00991292
0.00991488
0.00991664
0.00991819
0.00991954
0.00992071
0.00992171
0.00992254
0.00992321
0.00992374
0.00992413
0.0099244
0.00992455
0.0099246
0.00992456
0.00992443
0.00992423
0.00992397
0.00992367
0.00992333
0.00992296
0.0099226
0.00992223
0.0099219
0.00992162
0.00992143
0.00992144
0.00992165
0.00992194
0.00992226
0.00992259
0.00992292
0.0100006
0.0100025
0.0100051
0.0100083
0.0100121
0.0100162
0.0100206
0.0100251
0.0100297
0.0100341
0.0100385
0.0100425
0.0100462
0.0100495
0.0100523
0.0100545
0.010056
0.0100569
0.0100569
0.0100562
0.0100547
0.0100523
0.0100491
0.0100451
0.0100402
0.0100345
0.010028
0.0100207
0.0100127
0.0100038
0.00999434
0.00998419
0.00997346
0.0099622
0.00995048
0.00993838
0.00992597
0.00991332
0.00990053
0.00988766
0.00987482
0.00986207
0.00984951
0.00983723
0.00982531
0.00981384
0.0098029
0.00979258
0.00978297
0.00977415
0.00976622
0.00975927
0.00975346
0.00974933
0.00974701
0.00974648
0.0097477
0.00975055
0.00975458
0.00975939
0.00976479
0.00977068
0.00977694
0.0097835
0.00979026
0.00979716
0.00980414
0.00981114
0.00981811
0.009825
0.00983177
0.0098384
0.00984485
0.0098511
0.00985712
0.0098629
0.00986844
0.00987371
0.00987871
0.00988344
0.00988789
0.00989207
0.00989597
0.00989959
0.00990295
0.00990605
0.00990889
0.00991148
0.00991383
0.00991595
0.00991784
0.00991951
0.00992098
0.00992225
0.00992334
0.00992425
0.00992499
0.00992559
0.00992603
0.00992635
0.00992654
0.00992662
0.00992661
0.0099265
0.00992632
0.00992608
0.00992579
0.00992546
0.00992511
0.00992475
0.00992441
0.00992408
0.00992381
0.00992363
0.00992366
0.00992389
0.00992421
0.00992457
0.00992495
0.00992531
0.0100012
0.010004
0.0100074
0.0100112
0.0100156
0.0100203
0.0100252
0.0100302
0.0100352
0.0100402
0.010045
0.0100495
0.0100537
0.0100574
0.0100605
0.0100631
0.010065
0.0100662
0.0100665
0.0100661
0.0100648
0.0100627
0.0100596
0.0100557
0.010051
0.0100453
0.0100388
0.0100314
0.0100233
0.0100143
0.0100047
0.00999431
0.00998333
0.00997179
0.00995976
0.0099473
0.00993449
0.00992142
0.00990816
0.0098948
0.00988143
0.00986813
0.00985499
0.0098421
0.00982956
0.00981744
0.00980584
0.00979485
0.00978456
0.00977505
0.00976641
0.00975874
0.00975215
0.00974683
0.00974339
0.00974186
0.00974223
0.00974437
0.00974814
0.00975288
0.00975831
0.00976431
0.00977075
0.00977752
0.00978455
0.00979174
0.00979904
0.00980637
0.00981368
0.00982092
0.00982806
0.00983504
0.00984184
0.00984844
0.0098548
0.00986092
0.00986677
0.00987235
0.00987765
0.00988266
0.00988738
0.00989181
0.00989595
0.0098998
0.00990337
0.00990667
0.00990969
0.00991244
0.00991494
0.0099172
0.00991921
0.009921
0.00992257
0.00992393
0.0099251
0.00992608
0.00992688
0.00992752
0.00992801
0.00992836
0.00992858
0.00992868
0.00992868
0.00992859
0.00992842
0.00992818
0.00992789
0.00992756
0.00992721
0.00992685
0.0099265
0.00992618
0.00992591
0.00992572
0.00992575
0.009926
0.00992634
0.00992672
0.00992713
0.00992753
0.0100016
0.0100053
0.0100095
0.0100141
0.010019
0.0100243
0.0100298
0.0100354
0.010041
0.0100464
0.0100517
0.0100567
0.0100613
0.0100655
0.010069
0.010072
0.0100742
0.0100757
0.0100764
0.0100762
0.0100752
0.0100732
0.0100704
0.0100666
0.0100619
0.0100562
0.0100497
0.0100423
0.010034
0.0100249
0.0100151
0.0100045
0.0099933
0.00998147
0.00996911
0.00995629
0.00994309
0.00992958
0.00991587
0.00990202
0.00988812
0.00987428
0.00986058
0.00984711
0.00983396
0.00982122
0.009809
0.00979737
0.00978643
0.00977627
0.00976698
0.00975865
0.00975139
0.00974533
0.00974081
0.00973834
0.00973789
0.00973938
0.00974271
0.00974727
0.00975267
0.00975872
0.00976527
0.00977222
0.00977946
0.00978691
0.00979448
0.00980211
0.00980974
0.00981731
0.00982477
0.00983209
0.00983922
0.00984614
0.00985283
0.00985926
0.00986542
0.00987129
0.00987687
0.00988215
0.00988712
0.00989179
0.00989615
0.00990022
0.00990398
0.00990745
0.00991064
0.00991355
0.00991619
0.00991857
0.0099207
0.00992259
0.00992424
0.00992568
0.00992691
0.00992795
0.0099288
0.00992948
0.00993
0.00993037
0.00993061
0.00993072
0.00993072
0.00993063
0.00993045
0.00993021
0.00992991
0.00992957
0.0099292
0.00992883
0.00992847
0.00992813
0.00992785
0.00992765
0.00992768
0.00992792
0.00992828
0.00992868
0.00992911
0.00992954
0.010002
0.0100065
0.0100115
0.0100168
0.0100224
0.0100283
0.0100344
0.0100406
0.0100467
0.0100527
0.0100585
0.010064
0.0100691
0.0100736
0.0100776
0.010081
0.0100836
0.0100854
0.0100863
0.0100864
0.0100856
0.0100838
0.0100811
0.0100774
0.0100728
0.0100672
0.0100606
0.0100531
0.0100447
0.0100355
0.0100255
0.0100147
0.0100032
0.00999107
0.00997838
0.0099652
0.0099516
0.00993767
0.00992349
0.00990916
0.00989476
0.00988039
0.00986614
0.0098521
0.00983837
0.00982504
0.00981221
0.00979997
0.00978842
0.00977765
0.00976775
0.00975881
0.00975094
0.00974424
0.00973888
0.00973557
0.00973436
0.00973523
0.00973804
0.00974242
0.00974775
0.00975381
0.00976044
0.00976753
0.00977495
0.00978261
0.00979043
0.00979833
0.00980624
0.00981411
0.00982188
0.0098295
0.00983694
0.00984417
0.00985116
0.00985788
0.00986432
0.00987047
0.00987631
0.00988184
0.00988705
0.00989194
0.00989652
0.00990077
0.00990472
0.00990836
0.0099117
0.00991475
0.00991751
0.00992
0.00992223
0.00992421
0.00992594
0.00992744
0.00992873
0.00992981
0.00993069
0.0099314
0.00993194
0.00993232
0.00993256
0.00993267
0.00993267
0.00993257
0.00993237
0.00993211
0.00993179
0.00993143
0.00993104
0.00993065
0.00993027
0.00992991
0.00992961
0.00992939
0.0099294
0.00992965
0.00993001
0.00993043
0.00993088
0.00993133
0.0100024
0.0100077
0.0100133
0.0100193
0.0100256
0.0100322
0.0100389
0.0100457
0.0100524
0.0100589
0.0100653
0.0100713
0.0100768
0.0100818
0.0100862
0.0100899
0.0100929
0.010095
0.0100963
0.0100966
0.010096
0.0100944
0.0100918
0.0100882
0.0100836
0.010078
0.0100714
0.0100638
0.0100553
0.0100459
0.0100357
0.0100247
0.0100129
0.0100005
0.00998746
0.00997391
0.00995992
0.00994557
0.00993094
0.00991613
0.00990124
0.00988635
0.00987156
0.00985697
0.00984268
0.00982878
0.00981537
0.00980256
0.00979043
0.00977907
0.0097686
0.00975909
0.00975065
0.00974339
0.00973746
0.00973334
0.00973142
0.0097317
0.00973402
0.00973818
0.00974342
0.00974947
0.00975616
0.00976336
0.00977093
0.00977879
0.00978683
0.00979497
0.00980314
0.00981128
0.00981932
0.00982723
0.00983496
0.00984247
0.00984974
0.00985673
0.00986344
0.00986984
0.00987593
0.00988169
0.00988712
0.00989221
0.00989698
0.00990142
0.00990553
0.00990932
0.0099128
0.00991597
0.00991885
0.00992144
0.00992375
0.0099258
0.0099276
0.00992915
0.00993048
0.0099316
0.00993251
0.00993323
0.00993377
0.00993416
0.00993439
0.0099345
0.00993448
0.00993435
0.00993414
0.00993385
0.00993351
0.00993312
0.0099327
0.00993228
0.00993187
0.00993148
0.00993116
0.00993091
0.00993091
0.00993115
0.00993152
0.00993195
0.00993241
0.00993288
0.0100027
0.0100087
0.0100151
0.0100218
0.0100287
0.010036
0.0100433
0.0100507
0.010058
0.0100651
0.010072
0.0100784
0.0100845
0.0100899
0.0100948
0.0100989
0.0101022
0.0101046
0.0101061
0.0101067
0.0101063
0.0101048
0.0101023
0.0100988
0.0100942
0.0100886
0.0100819
0.0100743
0.0100657
0.0100561
0.0100457
0.0100344
0.0100224
0.0100096
0.00999627
0.00998235
0.00996796
0.00995319
0.00993812
0.00992285
0.00990746
0.00989207
0.00987676
0.00986164
0.00984681
0.00983236
0.0098184
0.00980503
0.00979235
0.00978044
0.00976943
0.00975939
0.00975043
0.00974266
0.00973623
0.00973142
0.00972888
0.00972862
0.00973053
0.00973444
0.00973958
0.00974561
0.00975234
0.00975962
0.00976733
0.00977535
0.00978359
0.00979195
0.00980036
0.00980875
0.00981705
0.00982522
0.00983321
0.00984099
0.00984851
0.00985576
0.00986271
0.00986935
0.00987566
0.00988163
0.00988726
0.00989255
0.00989749
0.00990209
0.00990635
0.00991028
0.00991388
0.00991717
0.00992014
0.00992282
0.00992521
0.00992732
0.00992917
0.00993077
0.00993213
0.00993327
0.00993419
0.00993492
0.00993547
0.00993584
0.00993607
0.00993615
0.00993611
0.00993596
0.00993572
0.0099354
0.00993502
0.0099346
0.00993415
0.00993369
0.00993325
0.00993283
0.00993248
0.00993221
0.00993218
0.00993241
0.00993278
0.00993321
0.00993369
0.00993418
0.0100031
0.0100097
0.0100167
0.0100241
0.0100317
0.0100396
0.0100475
0.0100555
0.0100634
0.0100711
0.0100785
0.0100855
0.010092
0.0100979
0.0101032
0.0101076
0.0101113
0.010114
0.0101158
0.0101166
0.0101164
0.010115
0.0101127
0.0101092
0.0101046
0.0100989
0.0100922
0.0100845
0.0100757
0.010066
0.0100553
0.0100438
0.0100315
0.0100184
0.0100047
0.00999045
0.00997567
0.00996048
0.00994497
0.00992924
0.00991338
0.00989749
0.00988168
0.00986605
0.00985069
0.00983572
0.00982123
0.00980733
0.00979412
0.0097817
0.00977016
0.00975963
0.00975018
0.00974194
0.00973502
0.00972965
0.00972658
0.00972586
0.0097274
0.00973108
0.00973611
0.00974211
0.00974887
0.00975623
0.00976406
0.00977223
0.00978065
0.00978921
0.00979784
0.00980645
0.00981499
0.00982341
0.00983164
0.00983966
0.00984742
0.0098549
0.00986208
0.00986893
0.00987545
0.00988162
0.00988743
0.0098929
0.009898
0.00990275
0.00990714
0.0099112
0.00991491
0.00991829
0.00992135
0.0099241
0.00992655
0.00992872
0.00993061
0.00993224
0.00993363
0.00993478
0.00993571
0.00993644
0.00993698
0.00993734
0.00993755
0.00993761
0.00993754
0.00993736
0.00993708
0.00993673
0.00993631
0.00993585
0.00993536
0.00993487
0.00993439
0.00993394
0.00993356
0.00993326
0.00993321
0.00993342
0.00993379
0.00993423
0.00993472
0.00993522
0.0100034
0.0100106
0.0100183
0.0100263
0.0100346
0.0100431
0.0100517
0.0100603
0.0100687
0.010077
0.0100849
0.0100924
0.0100994
0.0101058
0.0101114
0.0101163
0.0101202
0.0101233
0.0101253
0.0101263
0.0101262
0.010125
0.0101227
0.0101193
0.0101147
0.010109
0.0101022
0.0100943
0.0100854
0.0100755
0.0100646
0.0100528
0.0100402
0.0100269
0.0100128
0.00999817
0.009983
0.00996739
0.00995145
0.00993527
0.00991894
0.00990258
0.00988628
0.00987015
0.00985429
0.00983881
0.00982381
0.0098094
0.00979569
0.00978277
0.00977076
0.00975974
0.00974984
0.00974115
0.0097338
0.00972795
0.0097244
0.00972327
0.00972451
0.00972797
0.0097329
0.00973887
0.00974566
0.00975309
0.00976103
0.00976934
0.00977792
0.00978667
0.0097955
0.00980433
0.00981309
0.00982172
0.00983018
0.00983842
0.0098464
0.0098541
0.00986148
0.00986854
0.00987524
0.00988159
0.00988758
0.0098932
0.00989845
0.00990333
0.00990785
0.00991201
0.00991582
0.00991929
0.00992242
0.00992524
0.00992775
0.00992996
0.00993188
0.00993354
0.00993494
0.0099361
0.00993703
0.00993775
0.00993828
0.00993862
0.0099388
0.00993884
0.00993874
0.00993852
0.00993821
0.00993782
0.00993736
0.00993686
0.00993633
0.0099358
0.00993528
0.0099348
0.00993439
0.00993407
0.00993398
0.00993418
0.00993454
0.00993499
0.00993548
0.009936
0.0100037
0.0100115
0.0100198
0.0100284
0.0100374
0.0100465
0.0100557
0.0100649
0.0100739
0.0100827
0.0100912
0.0100992
0.0101067
0.0101135
0.0101195
0.0101247
0.010129
0.0101323
0.0101345
0.0101357
0.0101358
0.0101347
0.0101325
0.010129
0.0101244
0.0101187
0.0101118
0.0101038
0.0100947
0.0100846
0.0100735
0.0100614
0.0100485
0.0100349
0.0100205
0.0100055
0.0099899
0.00997389
0.00995752
0.0099409
0.00992412
0.00990729
0.00989052
0.0098739
0.00985756
0.00984159
0.0098261
0.00981121
0.00979702
0.00978363
0.00977115
0.0097597
0.00974936
0.00974026
0.0097325
0.00972627
0.00972228
0.00972078
0.00972174
0.00972502
0.00972986
0.00973581
0.00974263
0.00975013
0.00975817
0.00976661
0.00977535
0.00978427
0.00979328
0.0098023
0.00981127
0.00982011
0.00982877
0.00983722
0.0098454
0.0098533
0.00986087
0.00986811
0.00987499
0.00988151
0.00988765
0.00989341
0.00989879
0.00990379
0.00990842
0.00991268
0.00991658
0.00992012
0.00992333
0.0099262
0.00992875
0.00993099
0.00993295
0.00993462
0.00993603
0.00993719
0.00993812
0.00993883
0.00993934
0.00993966
0.00993982
0.00993982
0.00993969
0.00993944
0.00993909
0.00993865
0.00993816
0.00993761
0.00993704
0.00993647
0.00993592
0.0099354
0.00993496
0.00993462
0.0099345
0.00993467
0.00993503
0.00993548
0.00993598
0.00993651
0.0100039
0.0100123
0.0100212
0.0100305
0.01004
0.0100498
0.0100596
0.0100694
0.010079
0.0100884
0.0100973
0.0101058
0.0101137
0.0101209
0.0101274
0.0101329
0.0101375
0.010141
0.0101435
0.0101449
0.0101451
0.0101441
0.0101419
0.0101385
0.0101338
0.010128
0.010121
0.0101129
0.0101036
0.0100933
0.0100819
0.0100696
0.0100564
0.0100424
0.0100277
0.0100123
0.00999636
0.00997995
0.00996317
0.00994611
0.00992889
0.00991161
0.00989437
0.00987729
0.00986047
0.00984403
0.00982808
0.00981272
0.00979807
0.00978424
0.00977133
0.00975945
0.0097487
0.00973921
0.00973109
0.00972452
0.00972013
0.0097183
0.00971902
0.00972213
0.00972691
0.00973285
0.00973969
0.00974726
0.0097554
0.00976397
0.00977285
0.00978193
0.00979111
0.00980032
0.00980947
0.0098185
0.00982736
0.00983599
0.00984437
0.00985244
0.00986019
0.0098676
0.00987464
0.00988131
0.00988759
0.00989348
0.00989898
0.00990409
0.00990882
0.00991317
0.00991715
0.00992076
0.00992402
0.00992694
0.00992953
0.0099318
0.00993377
0.00993546
0.00993688
0.00993804
0.00993896
0.00993966
0.00994015
0.00994045
0.00994057
0.00994054
0.00994038
0.00994009
0.0099397
0.00993922
0.00993868
0.0099381
0.00993749
0.00993688
0.00993628
0.00993574
0.00993526
0.0099349
0.00993474