/*--------------------------------*- C++ -*----------------------------------*\
  =========                 |
  \\      /  F ield         | OpenFOAM: The Open Source CFD Toolbox
   \\    /   O peration     | Website:  https://openfoam.org
    \\  /    A nd           | Version:  8
     \\/     M anipulation  |
\*---------------------------------------------------------------------------*/
FoamFile
{
    version     2.0;
    format      ascii;
    class       volScalarField;
    location    "0.6";
    object      p;
}
// * * * * * * * * * * * * * * * * * * * * * * * * * * * * * * * * * * * * * //

dimensions      [0 2 -2 0 0 0 0];

internalField   nonuniform List<scalar> 
277560
(
-0.0294615
-0.0294605
-0.0294636
-0.0294671
-0.0294706
-0.0294738
-0.0294765
-0.0294787
-0.0294803
-0.0294813
-0.0294816
-0.0294813
-0.0294805
-0.0294791
-0.0294772
-0.0294748
-0.0294719
-0.0294685
-0.0294646
-0.0294602
-0.0294554
-0.0294502
-0.0294445
-0.0294385
-0.029432
-0.0294251
-0.0294178
-0.0294102
-0.0294022
-0.0293938
-0.0293851
-0.0293761
-0.0293666
-0.0293569
-0.0293468
-0.0293365
-0.0293258
-0.0293147
-0.0293034
-0.0292918
-0.0292798
-0.0292675
-0.0292549
-0.029242
-0.0292288
-0.0292153
-0.0292014
-0.0291873
-0.0291728
-0.0291581
-0.029143
-0.0291276
-0.0291119
-0.0290959
-0.0290796
-0.0290629
-0.029046
-0.0290287
-0.0290111
-0.0289932
-0.028975
-0.0289564
-0.0289376
-0.0289183
-0.0288989
-0.028879
-0.0288589
-0.0288383
-0.0288175
-0.0287963
-0.0287748
-0.0287529
-0.0287308
-0.028708
-0.0286852
-0.0286618
-0.0286382
-0.028614
-0.0285896
-0.0285646
-0.0285394
-0.0285135
-0.0284875
-0.0284607
-0.0284338
-0.0284062
-0.0283783
-0.0283497
-0.0283209
-0.0282913
-0.0282615
-0.0282308
-0.0282
-0.0281684
-0.0281365
-0.0281037
-0.0280708
-0.028037
-0.028003
-0.027968
-0.0279329
-0.0278968
-0.0278605
-0.0278233
-0.0277859
-0.0277476
-0.0277091
-0.0276695
-0.0276299
-0.0275892
-0.0275484
-0.0275065
-0.0274646
-0.0274215
-0.0273785
-0.0273343
-0.0272902
-0.0272443
-0.0271978
-0.027157
-0.0294573
-0.0294586
-0.0294625
-0.0294665
-0.0294702
-0.0294736
-0.0294765
-0.0294788
-0.0294804
-0.0294814
-0.0294818
-0.0294816
-0.0294808
-0.0294794
-0.0294775
-0.0294751
-0.0294722
-0.0294688
-0.0294649
-0.0294606
-0.0294558
-0.0294506
-0.029445
-0.0294389
-0.0294325
-0.0294256
-0.0294184
-0.0294108
-0.0294028
-0.0293945
-0.0293858
-0.0293768
-0.0293674
-0.0293577
-0.0293477
-0.0293374
-0.0293267
-0.0293157
-0.0293044
-0.0292928
-0.0292809
-0.0292687
-0.0292561
-0.0292433
-0.0292301
-0.0292167
-0.0292029
-0.0291888
-0.0291744
-0.0291597
-0.0291447
-0.0291294
-0.0291138
-0.0290978
-0.0290816
-0.029065
-0.0290481
-0.029031
-0.0290134
-0.0289956
-0.0289775
-0.0289591
-0.0289403
-0.0289212
-0.0289018
-0.0288821
-0.0288619
-0.0288416
-0.0288208
-0.0287998
-0.0287783
-0.0287567
-0.0287345
-0.0287121
-0.0286892
-0.0286661
-0.0286424
-0.0286185
-0.028594
-0.0285694
-0.0285441
-0.0285185
-0.0284924
-0.0284659
-0.0284389
-0.0284115
-0.0283835
-0.0283552
-0.0283262
-0.028297
-0.028267
-0.0282367
-0.0282056
-0.0281743
-0.0281421
-0.0281097
-0.0280765
-0.028043
-0.0280086
-0.0279739
-0.0279384
-0.0279026
-0.0278659
-0.027829
-0.0277911
-0.027753
-0.0277139
-0.0276746
-0.0276343
-0.0275937
-0.0275522
-0.0275104
-0.0274676
-0.0274246
-0.0273806
-0.0273364
-0.0272911
-0.027245
-0.0271972
-0.0271561
-0.0294519
-0.0294563
-0.0294615
-0.0294661
-0.0294703
-0.029474
-0.0294771
-0.0294795
-0.0294813
-0.0294824
-0.0294828
-0.0294826
-0.0294819
-0.0294805
-0.0294786
-0.0294762
-0.0294734
-0.02947
-0.0294662
-0.0294618
-0.0294571
-0.0294519
-0.0294463
-0.0294403
-0.0294339
-0.0294271
-0.0294199
-0.0294123
-0.0294044
-0.0293962
-0.0293875
-0.0293786
-0.0293693
-0.0293597
-0.0293497
-0.0293394
-0.0293289
-0.029318
-0.0293068
-0.0292952
-0.0292834
-0.0292713
-0.0292588
-0.0292461
-0.029233
-0.0292197
-0.029206
-0.029192
-0.0291778
-0.0291632
-0.0291483
-0.0291331
-0.0291176
-0.0291018
-0.0290856
-0.0290692
-0.0290524
-0.0290354
-0.029018
-0.0290003
-0.0289823
-0.028964
-0.0289453
-0.0289264
-0.028907
-0.0288875
-0.0288675
-0.0288473
-0.0288266
-0.0288057
-0.0287843
-0.0287628
-0.0287407
-0.0287184
-0.0286956
-0.0286726
-0.028649
-0.0286252
-0.0286008
-0.0285762
-0.028551
-0.0285256
-0.0284995
-0.0284733
-0.0284463
-0.0284191
-0.0283912
-0.0283631
-0.0283342
-0.0283051
-0.0282751
-0.028245
-0.0282141
-0.0281829
-0.0281509
-0.0281186
-0.0280854
-0.028052
-0.0280177
-0.0279832
-0.0279477
-0.027912
-0.0278753
-0.0278384
-0.0278004
-0.0277622
-0.027723
-0.0276836
-0.027643
-0.0276023
-0.0275604
-0.0275183
-0.0274751
-0.0274317
-0.027387
-0.0273423
-0.0272963
-0.0272494
-0.0272007
-0.0271589
-0.029447
-0.0294541
-0.0294607
-0.0294661
-0.029471
-0.0294751
-0.0294784
-0.029481
-0.0294829
-0.0294841
-0.0294846
-0.0294845
-0.0294837
-0.0294824
-0.0294805
-0.0294782
-0.0294753
-0.029472
-0.0294682
-0.0294639
-0.0294592
-0.0294541
-0.0294485
-0.0294425
-0.0294362
-0.0294294
-0.0294223
-0.0294148
-0.029407
-0.0293988
-0.0293903
-0.0293814
-0.0293722
-0.0293627
-0.0293528
-0.0293427
-0.0293322
-0.0293214
-0.0293103
-0.0292989
-0.0292872
-0.0292752
-0.0292628
-0.0292502
-0.0292373
-0.0292241
-0.0292106
-0.0291968
-0.0291827
-0.0291682
-0.0291535
-0.0291385
-0.0291231
-0.0291075
-0.0290916
-0.0290753
-0.0290587
-0.0290418
-0.0290247
-0.0290072
-0.0289894
-0.0289712
-0.0289528
-0.028934
-0.028915
-0.0288955
-0.0288759
-0.0288557
-0.0288354
-0.0288146
-0.0287936
-0.0287721
-0.0287503
-0.0287281
-0.0287057
-0.0286827
-0.0286595
-0.0286357
-0.0286118
-0.0285872
-0.0285623
-0.0285369
-0.0285112
-0.0284848
-0.0284582
-0.0284309
-0.0284033
-0.0283751
-0.0283465
-0.0283172
-0.0282876
-0.0282573
-0.0282267
-0.0281953
-0.0281635
-0.028131
-0.0280981
-0.0280644
-0.0280304
-0.0279955
-0.0279603
-0.0279242
-0.0278878
-0.0278504
-0.0278128
-0.0277741
-0.0277352
-0.0276952
-0.0276549
-0.0276135
-0.0275719
-0.0275291
-0.027486
-0.0274418
-0.0273973
-0.0273517
-0.0273057
-0.0272579
-0.0272089
-0.0271663
-0.0294428
-0.0294525
-0.0294604
-0.0294667
-0.0294722
-0.0294767
-0.0294804
-0.0294832
-0.0294852
-0.0294865
-0.0294871
-0.029487
-0.0294863
-0.029485
-0.0294832
-0.0294809
-0.029478
-0.0294747
-0.029471
-0.0294667
-0.0294621
-0.029457
-0.0294515
-0.0294456
-0.0294393
-0.0294327
-0.0294256
-0.0294182
-0.0294105
-0.0294024
-0.029394
-0.0293852
-0.0293761
-0.0293667
-0.0293569
-0.0293469
-0.0293365
-0.0293259
-0.0293149
-0.0293037
-0.0292921
-0.0292803
-0.0292681
-0.0292557
-0.0292429
-0.0292299
-0.0292165
-0.0292029
-0.029189
-0.0291747
-0.0291602
-0.0291454
-0.0291302
-0.0291148
-0.0290991
-0.029083
-0.0290667
-0.02905
-0.0290331
-0.0290157
-0.0289982
-0.0289803
-0.0289621
-0.0289435
-0.0289247
-0.0289054
-0.028886
-0.0288661
-0.028846
-0.0288253
-0.0288045
-0.0287831
-0.0287617
-0.0287395
-0.0287173
-0.0286944
-0.0286714
-0.0286477
-0.0286239
-0.0285994
-0.0285748
-0.0285494
-0.0285239
-0.0284976
-0.0284712
-0.028444
-0.0284166
-0.0283884
-0.02836
-0.0283308
-0.0283014
-0.0282712
-0.0282407
-0.0282093
-0.0281777
-0.0281452
-0.0281125
-0.0280788
-0.0280449
-0.02801
-0.0279749
-0.0279388
-0.0279024
-0.027865
-0.0278273
-0.0277885
-0.0277495
-0.0277094
-0.027669
-0.0276275
-0.0275857
-0.0275428
-0.0274995
-0.0274551
-0.0274103
-0.0273644
-0.0273182
-0.02727
-0.0272208
-0.0271779
-0.0294396
-0.0294516
-0.0294608
-0.029468
-0.0294741
-0.0294791
-0.0294831
-0.0294861
-0.0294883
-0.0294897
-0.0294904
-0.0294904
-0.0294897
-0.0294884
-0.0294866
-0.0294843
-0.0294815
-0.0294783
-0.0294745
-0.0294704
-0.0294658
-0.0294607
-0.0294553
-0.0294495
-0.0294433
-0.0294367
-0.0294298
-0.0294225
-0.0294149
-0.0294069
-0.0293986
-0.0293899
-0.0293809
-0.0293717
-0.0293621
-0.0293522
-0.029342
-0.0293315
-0.0293207
-0.0293096
-0.0292982
-0.0292865
-0.0292746
-0.0292623
-0.0292498
-0.0292369
-0.0292238
-0.0292104
-0.0291966
-0.0291826
-0.0291683
-0.0291537
-0.0291388
-0.0291237
-0.0291082
-0.0290924
-0.0290763
-0.0290599
-0.0290432
-0.0290262
-0.0290089
-0.0289913
-0.0289733
-0.028955
-0.0289364
-0.0289175
-0.0288982
-0.0288787
-0.0288587
-0.0288385
-0.0288178
-0.0287968
-0.0287754
-0.0287537
-0.0287315
-0.0287091
-0.028686
-0.0286628
-0.0286389
-0.0286148
-0.0285901
-0.0285651
-0.0285395
-0.0285136
-0.028487
-0.0284601
-0.0284326
-0.0284047
-0.0283761
-0.0283472
-0.0283176
-0.0282877
-0.0282569
-0.0282259
-0.0281941
-0.0281619
-0.0281289
-0.0280956
-0.0280614
-0.0280269
-0.0279914
-0.0279557
-0.027919
-0.0278821
-0.0278441
-0.0278058
-0.0277666
-0.027727
-0.0276863
-0.0276454
-0.0276033
-0.0275609
-0.0275173
-0.0274735
-0.0274284
-0.0273831
-0.0273365
-0.0272888
-0.0272392
-0.0271967
-0.0294377
-0.0294518
-0.0294621
-0.0294702
-0.0294769
-0.0294823
-0.0294866
-0.0294898
-0.0294922
-0.0294937
-0.0294944
-0.0294945
-0.0294938
-0.0294926
-0.0294908
-0.0294885
-0.0294858
-0.0294825
-0.0294788
-0.0294747
-0.0294702
-0.0294652
-0.0294599
-0.0294542
-0.0294481
-0.0294416
-0.0294347
-0.0294276
-0.02942
-0.0294122
-0.029404
-0.0293955
-0.0293867
-0.0293775
-0.0293681
-0.0293584
-0.0293483
-0.029338
-0.0293274
-0.0293165
-0.0293053
-0.0292938
-0.0292821
-0.02927
-0.0292577
-0.0292451
-0.0292322
-0.029219
-0.0292055
-0.0291918
-0.0291777
-0.0291634
-0.0291487
-0.0291338
-0.0291185
-0.029103
-0.0290872
-0.0290711
-0.0290546
-0.0290379
-0.0290208
-0.0290035
-0.0289857
-0.0289678
-0.0289494
-0.0289308
-0.0289117
-0.0288924
-0.0288726
-0.0288526
-0.0288321
-0.0288114
-0.0287901
-0.0287687
-0.0287466
-0.0287244
-0.0287015
-0.0286784
-0.0286547
-0.0286308
-0.0286062
-0.0285815
-0.0285559
-0.0285302
-0.0285038
-0.0284771
-0.0284497
-0.028422
-0.0283935
-0.0283648
-0.0283353
-0.0283055
-0.0282749
-0.0282441
-0.0282123
-0.0281803
-0.0281474
-0.0281143
-0.0280802
-0.0280458
-0.0280105
-0.0279749
-0.0279383
-0.0279015
-0.0278636
-0.0278255
-0.0277862
-0.0277467
-0.0277061
-0.0276653
-0.0276232
-0.0275809
-0.0275374
-0.0274937
-0.0274487
-0.0274035
-0.027357
-0.0273094
-0.02726
-0.0272179
-0.0294374
-0.0294532
-0.0294646
-0.0294734
-0.0294806
-0.0294864
-0.0294909
-0.0294944
-0.0294969
-0.0294984
-0.0294993
-0.0294993
-0.0294987
-0.0294975
-0.0294957
-0.0294934
-0.0294907
-0.0294875
-0.0294838
-0.0294798
-0.0294753
-0.0294704
-0.0294652
-0.0294595
-0.0294535
-0.0294472
-0.0294404
-0.0294334
-0.029426
-0.0294183
-0.0294102
-0.0294019
-0.0293932
-0.0293842
-0.029375
-0.0293654
-0.0293556
-0.0293454
-0.029335
-0.0293243
-0.0293133
-0.0293021
-0.0292905
-0.0292787
-0.0292666
-0.0292542
-0.0292416
-0.0292286
-0.0292154
-0.0292019
-0.0291881
-0.029174
-0.0291597
-0.029145
-0.0291301
-0.0291148
-0.0290993
-0.0290834
-0.0290673
-0.0290508
-0.0290341
-0.029017
-0.0289996
-0.0289818
-0.0289638
-0.0289454
-0.0289267
-0.0289075
-0.0288882
-0.0288683
-0.0288482
-0.0288276
-0.0288067
-0.0287853
-0.0287637
-0.0287414
-0.028719
-0.0286959
-0.0286726
-0.0286486
-0.0286244
-0.0285995
-0.0285744
-0.0285486
-0.0285224
-0.0284956
-0.0284685
-0.0284407
-0.0284126
-0.0283837
-0.0283546
-0.0283246
-0.0282944
-0.0282634
-0.028232
-0.0281998
-0.0281674
-0.028134
-0.0281004
-0.0280658
-0.028031
-0.0279953
-0.0279592
-0.0279222
-0.0278849
-0.0278467
-0.0278081
-0.0277685
-0.0277286
-0.0276877
-0.0276464
-0.0276041
-0.0275614
-0.0275176
-0.0274734
-0.0274282
-0.0273825
-0.0273349
-0.0272863
-0.027244
-0.0294389
-0.0294561
-0.0294683
-0.0294776
-0.0294853
-0.0294914
-0.0294962
-0.0294998
-0.0295023
-0.029504
-0.0295048
-0.0295049
-0.0295043
-0.0295031
-0.0295013
-0.0294991
-0.0294963
-0.0294931
-0.0294895
-0.0294855
-0.0294811
-0.0294763
-0.0294711
-0.0294656
-0.0294597
-0.0294534
-0.0294469
-0.0294399
-0.0294327
-0.0294251
-0.0294172
-0.029409
-0.0294005
-0.0293917
-0.0293826
-0.0293732
-0.0293636
-0.0293536
-0.0293434
-0.0293329
-0.0293222
-0.0293111
-0.0292998
-0.0292882
-0.0292764
-0.0292642
-0.0292519
-0.0292391
-0.0292262
-0.0292129
-0.0291995
-0.0291856
-0.0291716
-0.0291571
-0.0291425
-0.0291275
-0.0291123
-0.0290966
-0.0290809
-0.0290646
-0.0290482
-0.0290313
-0.0290142
-0.0289967
-0.028979
-0.0289607
-0.0289423
-0.0289233
-0.0289042
-0.0288845
-0.0288647
-0.0288442
-0.0288236
-0.0288023
-0.0287809
-0.0287588
-0.0287366
-0.0287136
-0.0286905
-0.0286667
-0.0286427
-0.0286179
-0.028593
-0.0285673
-0.0285415
-0.0285148
-0.028488
-0.0284603
-0.0284324
-0.0284037
-0.0283748
-0.0283451
-0.0283151
-0.0282842
-0.0282531
-0.0282211
-0.0281889
-0.0281558
-0.0281224
-0.0280881
-0.0280535
-0.0280179
-0.0279821
-0.0279453
-0.0279083
-0.0278702
-0.0278318
-0.0277924
-0.0277527
-0.0277119
-0.0276708
-0.0276286
-0.0275862
-0.0275425
-0.0274987
-0.0274536
-0.0274082
-0.027361
-0.0273128
-0.027271
-0.0294424
-0.0294604
-0.0294732
-0.029483
-0.029491
-0.0294974
-0.0295023
-0.029506
-0.0295086
-0.0295103
-0.0295111
-0.0295112
-0.0295106
-0.0295094
-0.0295076
-0.0295054
-0.0295026
-0.0294995
-0.0294959
-0.0294919
-0.0294876
-0.0294828
-0.0294778
-0.0294723
-0.0294665
-0.0294604
-0.0294539
-0.0294471
-0.02944
-0.0294326
-0.0294249
-0.0294168
-0.0294085
-0.0293999
-0.029391
-0.0293818
-0.0293723
-0.0293626
-0.0293526
-0.0293423
-0.0293318
-0.029321
-0.0293099
-0.0292986
-0.0292869
-0.0292751
-0.0292629
-0.0292505
-0.0292378
-0.0292248
-0.0292116
-0.0291981
-0.0291842
-0.0291702
-0.0291558
-0.0291411
-0.0291261
-0.0291108
-0.0290952
-0.0290794
-0.0290631
-0.0290466
-0.0290297
-0.0290126
-0.028995
-0.0289772
-0.0289589
-0.0289404
-0.0289214
-0.0289021
-0.0288823
-0.0288623
-0.0288417
-0.0288209
-0.0287995
-0.0287778
-0.0287556
-0.0287331
-0.0287099
-0.0286865
-0.0286625
-0.0286382
-0.0286132
-0.0285879
-0.0285619
-0.0285357
-0.0285087
-0.0284814
-0.0284535
-0.0284252
-0.0283961
-0.0283668
-0.0283367
-0.0283063
-0.0282751
-0.0282436
-0.0282112
-0.0281786
-0.0281451
-0.0281113
-0.0280767
-0.0280417
-0.0280058
-0.0279697
-0.0279326
-0.0278952
-0.0278569
-0.0278182
-0.0277786
-0.0277386
-0.0276976
-0.0276563
-0.0276139
-0.0275712
-0.0275274
-0.0274833
-0.0274379
-0.0273916
-0.0273435
-0.0273024
-0.0294477
-0.0294663
-0.0294795
-0.0294896
-0.0294978
-0.0295043
-0.0295093
-0.029513
-0.0295157
-0.0295174
-0.0295182
-0.0295182
-0.0295176
-0.0295164
-0.0295146
-0.0295123
-0.0295096
-0.0295065
-0.0295029
-0.0294989
-0.0294946
-0.02949
-0.029485
-0.0294796
-0.0294739
-0.0294679
-0.0294616
-0.0294549
-0.029448
-0.0294407
-0.0294331
-0.0294253
-0.0294171
-0.0294087
-0.0294
-0.029391
-0.0293817
-0.0293722
-0.0293624
-0.0293524
-0.0293421
-0.0293315
-0.0293206
-0.0293096
-0.0292982
-0.0292866
-0.0292747
-0.0292626
-0.0292501
-0.0292374
-0.0292244
-0.0292112
-0.0291976
-0.0291839
-0.0291697
-0.0291554
-0.0291406
-0.0291257
-0.0291103
-0.0290947
-0.0290787
-0.0290625
-0.0290458
-0.029029
-0.0290116
-0.0289941
-0.028976
-0.0289577
-0.0289389
-0.0289199
-0.0289003
-0.0288805
-0.02886
-0.0288395
-0.0288182
-0.0287967
-0.0287746
-0.0287523
-0.0287293
-0.0287061
-0.0286822
-0.0286581
-0.0286332
-0.0286083
-0.0285825
-0.0285565
-0.0285298
-0.0285028
-0.0284751
-0.0284471
-0.0284183
-0.0283894
-0.0283595
-0.0283295
-0.0282985
-0.0282674
-0.0282353
-0.0282031
-0.0281699
-0.0281364
-0.028102
-0.0280674
-0.0280318
-0.027996
-0.0279591
-0.027922
-0.0278839
-0.0278455
-0.0278061
-0.0277664
-0.0277256
-0.0276845
-0.0276423
-0.0275999
-0.0275563
-0.0275125
-0.0274675
-0.0274215
-0.0273739
-0.0273334
-0.0294552
-0.0294737
-0.0294871
-0.0294974
-0.0295057
-0.0295122
-0.0295172
-0.029521
-0.0295236
-0.0295252
-0.029526
-0.029526
-0.0295253
-0.029524
-0.0295222
-0.0295199
-0.0295172
-0.029514
-0.0295105
-0.0295066
-0.0295023
-0.0294977
-0.0294928
-0.0294875
-0.0294819
-0.0294761
-0.0294698
-0.0294633
-0.0294565
-0.0294494
-0.029442
-0.0294343
-0.0294264
-0.0294181
-0.0294096
-0.0294008
-0.0293918
-0.0293825
-0.0293729
-0.0293631
-0.029353
-0.0293427
-0.0293321
-0.0293212
-0.0293101
-0.0292987
-0.0292871
-0.0292752
-0.0292631
-0.0292506
-0.0292379
-0.0292249
-0.0292117
-0.0291981
-0.0291843
-0.0291702
-0.0291558
-0.029141
-0.0291261
-0.0291107
-0.0290951
-0.029079
-0.0290627
-0.029046
-0.0290291
-0.0290116
-0.028994
-0.0289758
-0.0289574
-0.0289385
-0.0289193
-0.0288996
-0.0288796
-0.0288591
-0.0288383
-0.0288169
-0.0287953
-0.028773
-0.0287505
-0.0287274
-0.028704
-0.0286799
-0.0286556
-0.0286306
-0.0286053
-0.0285793
-0.0285531
-0.0285261
-0.0284988
-0.0284708
-0.0284425
-0.0284135
-0.0283842
-0.028354
-0.0283236
-0.0282924
-0.0282609
-0.0282286
-0.028196
-0.0281625
-0.0281288
-0.0280941
-0.0280592
-0.0280233
-0.0279872
-0.0279501
-0.0279128
-0.0278744
-0.0278358
-0.0277962
-0.0277563
-0.0277153
-0.0276741
-0.0276317
-0.027589
-0.0275453
-0.0275012
-0.0274553
-0.0274085
-0.027368
-0.0294645
-0.0294827
-0.0294961
-0.0295064
-0.0295146
-0.0295211
-0.029526
-0.0295297
-0.0295322
-0.0295338
-0.0295344
-0.0295344
-0.0295337
-0.0295323
-0.0295305
-0.0295281
-0.0295254
-0.0295222
-0.0295187
-0.0295148
-0.0295105
-0.029506
-0.0295012
-0.029496
-0.0294905
-0.0294847
-0.0294787
-0.0294723
-0.0294656
-0.0294587
-0.0294515
-0.0294439
-0.0294362
-0.0294281
-0.0294198
-0.0294112
-0.0294024
-0.0293933
-0.029384
-0.0293743
-0.0293645
-0.0293543
-0.0293441
-0.0293334
-0.0293226
-0.0293114
-0.0293001
-0.0292884
-0.0292766
-0.0292643
-0.029252
-0.0292392
-0.0292263
-0.0292129
-0.0291995
-0.0291855
-0.0291715
-0.0291569
-0.0291423
-0.0291271
-0.0291118
-0.0290959
-0.02908
-0.0290635
-0.0290468
-0.0290296
-0.0290122
-0.0289942
-0.0289761
-0.0289574
-0.0289385
-0.0289189
-0.0288992
-0.0288788
-0.0288583
-0.0288371
-0.0288157
-0.0287936
-0.0287714
-0.0287484
-0.0287253
-0.0287014
-0.0286774
-0.0286526
-0.0286277
-0.028602
-0.0285761
-0.0285494
-0.0285225
-0.0284948
-0.028467
-0.0284382
-0.0284093
-0.0283796
-0.0283496
-0.0283187
-0.0282876
-0.0282556
-0.0282234
-0.0281903
-0.0281569
-0.0281226
-0.0280881
-0.0280525
-0.0280168
-0.02798
-0.027943
-0.0279049
-0.0278666
-0.0278272
-0.0277877
-0.0277469
-0.027706
-0.0276639
-0.0276216
-0.0275781
-0.0275344
-0.0274889
-0.0274426
-0.0274027
-0.0294758
-0.0294932
-0.0295064
-0.0295165
-0.0295246
-0.0295309
-0.0295357
-0.0295392
-0.0295416
-0.029543
-0.0295437
-0.0295435
-0.0295427
-0.0295413
-0.0295393
-0.0295369
-0.0295342
-0.029531
-0.0295274
-0.0295235
-0.0295193
-0.0295148
-0.02951
-0.0295049
-0.0294996
-0.0294939
-0.029488
-0.0294817
-0.0294752
-0.0294684
-0.0294614
-0.029454
-0.0294465
-0.0294386
-0.0294305
-0.0294221
-0.0294135
-0.0294046
-0.0293955
-0.0293861
-0.0293765
-0.0293666
-0.0293565
-0.0293461
-0.0293355
-0.0293247
-0.0293136
-0.0293022
-0.0292906
-0.0292787
-0.0292665
-0.0292541
-0.0292413
-0.0292284
-0.0292151
-0.0292015
-0.0291876
-0.0291735
-0.0291589
-0.0291442
-0.029129
-0.0291136
-0.0290977
-0.0290816
-0.0290651
-0.0290483
-0.029031
-0.0290135
-0.0289954
-0.0289772
-0.0289583
-0.0289393
-0.0289197
-0.0288998
-0.0288794
-0.0288587
-0.0288374
-0.0288158
-0.0287937
-0.0287713
-0.0287482
-0.0287249
-0.028701
-0.0286768
-0.0286519
-0.0286267
-0.0286008
-0.0285747
-0.0285478
-0.0285207
-0.0284928
-0.0284647
-0.0284357
-0.0284065
-0.0283766
-0.0283463
-0.0283152
-0.0282838
-0.0282516
-0.0282192
-0.0281858
-0.0281522
-0.0281177
-0.0280829
-0.0280472
-0.0280112
-0.0279742
-0.027937
-0.0278988
-0.0278604
-0.0278209
-0.0277811
-0.0277402
-0.0276991
-0.0276569
-0.0276144
-0.0275707
-0.0275261
-0.02748
-0.0274408
-0.0294888
-0.0295051
-0.0295179
-0.0295277
-0.0295355
-0.0295416
-0.0295462
-0.0295495
-0.0295518
-0.0295531
-0.0295535
-0.0295532
-0.0295523
-0.0295508
-0.0295488
-0.0295463
-0.0295435
-0.0295403
-0.0295367
-0.0295328
-0.0295286
-0.0295242
-0.0295194
-0.0295144
-0.0295091
-0.0295036
-0.0294977
-0.0294917
-0.0294853
-0.0294787
-0.0294718
-0.0294646
-0.0294572
-0.0294496
-0.0294416
-0.0294335
-0.029425
-0.0294164
-0.0294075
-0.0293984
-0.0293889
-0.0293794
-0.0293694
-0.0293594
-0.029349
-0.0293384
-0.0293275
-0.0293165
-0.029305
-0.0292934
-0.0292814
-0.0292694
-0.0292568
-0.0292442
-0.0292311
-0.0292178
-0.0292041
-0.0291903
-0.029176
-0.0291615
-0.0291465
-0.0291315
-0.0291158
-0.0291
-0.0290837
-0.0290672
-0.0290501
-0.0290329
-0.029015
-0.0289971
-0.0289784
-0.0289597
-0.0289403
-0.0289207
-0.0289005
-0.0288802
-0.0288591
-0.0288379
-0.028816
-0.0287939
-0.0287711
-0.0287482
-0.0287246
-0.0287008
-0.0286762
-0.0286514
-0.0286259
-0.0286002
-0.0285737
-0.028547
-0.0285194
-0.0284917
-0.0284632
-0.0284344
-0.0284048
-0.0283749
-0.0283442
-0.0283133
-0.0282814
-0.0282494
-0.0282164
-0.0281832
-0.0281491
-0.0281147
-0.0280793
-0.0280437
-0.0280071
-0.0279703
-0.0279324
-0.0278943
-0.0278551
-0.0278157
-0.0277752
-0.0277344
-0.0276925
-0.0276504
-0.0276071
-0.027563
-0.0275173
-0.0274788
-0.0295035
-0.0295183
-0.0295306
-0.02954
-0.0295474
-0.0295532
-0.0295575
-0.0295606
-0.0295626
-0.0295636
-0.029564
-0.0295635
-0.0295625
-0.0295608
-0.0295588
-0.0295562
-0.0295533
-0.0295501
-0.0295465
-0.0295426
-0.0295384
-0.029534
-0.0295293
-0.0295243
-0.0295191
-0.0295137
-0.029508
-0.029502
-0.0294958
-0.0294894
-0.0294826
-0.0294757
-0.0294684
-0.029461
-0.0294532
-0.0294453
-0.0294371
-0.0294287
-0.02942
-0.0294111
-0.0294019
-0.0293925
-0.0293829
-0.029373
-0.0293629
-0.0293525
-0.0293419
-0.029331
-0.0293199
-0.0293085
-0.0292969
-0.029285
-0.0292728
-0.0292603
-0.0292476
-0.0292345
-0.0292212
-0.0292075
-0.0291936
-0.0291792
-0.0291647
-0.0291497
-0.0291345
-0.0291188
-0.0291029
-0.0290865
-0.0290699
-0.0290528
-0.0290354
-0.0290176
-0.0289995
-0.0289808
-0.0289619
-0.0289425
-0.0289228
-0.0289026
-0.0288821
-0.028861
-0.0288397
-0.0288178
-0.0287956
-0.0287728
-0.0287498
-0.028726
-0.028702
-0.0286774
-0.0286524
-0.0286267
-0.0286008
-0.0285742
-0.0285472
-0.0285196
-0.0284916
-0.0284629
-0.0284339
-0.0284041
-0.0283741
-0.0283432
-0.0283121
-0.0282801
-0.0282479
-0.0282147
-0.0281813
-0.0281471
-0.0281125
-0.028077
-0.0280413
-0.0280046
-0.0279676
-0.0279296
-0.0278914
-0.0278521
-0.0278126
-0.027772
-0.0277311
-0.0276891
-0.0276468
-0.0276028
-0.027558
-0.0275196
-0.0295196
-0.0295327
-0.0295443
-0.0295532
-0.0295601
-0.0295655
-0.0295695
-0.0295723
-0.029574
-0.0295749
-0.0295749
-0.0295744
-0.0295732
-0.0295715
-0.0295693
-0.0295666
-0.0295637
-0.0295604
-0.0295568
-0.0295529
-0.0295487
-0.0295442
-0.0295396
-0.0295347
-0.0295296
-0.0295242
-0.0295187
-0.0295128
-0.0295068
-0.0295004
-0.0294939
-0.0294871
-0.0294801
-0.0294728
-0.0294653
-0.0294575
-0.0294496
-0.0294413
-0.0294329
-0.0294241
-0.0294153
-0.029406
-0.0293967
-0.029387
-0.0293772
-0.029367
-0.0293567
-0.029346
-0.0293353
-0.029324
-0.0293127
-0.029301
-0.0292891
-0.0292768
-0.0292644
-0.0292515
-0.0292385
-0.029225
-0.0292114
-0.0291973
-0.0291831
-0.0291683
-0.0291534
-0.0291379
-0.0291223
-0.0291061
-0.0290899
-0.029073
-0.0290559
-0.0290383
-0.0290206
-0.0290022
-0.0289836
-0.0289644
-0.0289451
-0.0289252
-0.028905
-0.0288842
-0.0288633
-0.0288416
-0.0288198
-0.0287973
-0.0287747
-0.0287512
-0.0287277
-0.0287033
-0.0286789
-0.0286535
-0.0286281
-0.0286018
-0.0285754
-0.0285481
-0.0285206
-0.0284923
-0.0284638
-0.0284344
-0.0284049
-0.0283744
-0.0283438
-0.0283122
-0.0282804
-0.0282477
-0.0282148
-0.0281809
-0.0281468
-0.0281117
-0.0280764
-0.0280401
-0.0280036
-0.027966
-0.0279282
-0.0278893
-0.0278501
-0.0278099
-0.0277695
-0.0277279
-0.0276861
-0.0276426
-0.0275985
-0.0275607
-0.029537
-0.0295482
-0.029559
-0.0295673
-0.0295737
-0.0295786
-0.0295822
-0.0295846
-0.0295861
-0.0295867
-0.0295866
-0.0295858
-0.0295844
-0.0295826
-0.0295803
-0.0295776
-0.0295745
-0.0295711
-0.0295675
-0.0295636
-0.0295594
-0.029555
-0.0295503
-0.0295455
-0.0295405
-0.0295352
-0.0295297
-0.029524
-0.0295181
-0.0295119
-0.0295056
-0.0294989
-0.0294921
-0.029485
-0.0294777
-0.0294701
-0.0294624
-0.0294543
-0.0294461
-0.0294376
-0.0294289
-0.02942
-0.0294109
-0.0294014
-0.0293918
-0.0293819
-0.0293718
-0.0293615
-0.0293508
-0.02934
-0.0293288
-0.0293174
-0.0293057
-0.0292938
-0.0292815
-0.029269
-0.0292562
-0.0292431
-0.0292296
-0.0292159
-0.0292017
-0.0291874
-0.0291726
-0.0291576
-0.0291421
-0.0291264
-0.0291103
-0.0290938
-0.029077
-0.0290598
-0.0290422
-0.0290244
-0.029006
-0.0289873
-0.0289682
-0.0289488
-0.0289288
-0.0289086
-0.0288878
-0.0288668
-0.0288451
-0.0288233
-0.0288007
-0.028778
-0.0287545
-0.0287308
-0.0287064
-0.0286817
-0.0286564
-0.0286307
-0.0286044
-0.0285777
-0.0285503
-0.0285227
-0.0284943
-0.0284656
-0.0284361
-0.0284064
-0.0283758
-0.028345
-0.0283133
-0.0282814
-0.0282487
-0.0282156
-0.0281817
-0.0281475
-0.0281123
-0.0280769
-0.0280406
-0.028004
-0.0279664
-0.0279285
-0.0278895
-0.0278504
-0.0278101
-0.0277696
-0.027728
-0.0276854
-0.0276415
-0.0276046
-0.0295554
-0.0295646
-0.0295745
-0.0295821
-0.0295879
-0.0295923
-0.0295954
-0.0295975
-0.0295987
-0.0295991
-0.0295986
-0.0295977
-0.0295962
-0.0295942
-0.0295917
-0.0295889
-0.0295858
-0.0295823
-0.0295786
-0.0295747
-0.0295705
-0.0295661
-0.0295615
-0.0295567
-0.0295517
-0.0295466
-0.0295412
-0.0295356
-0.0295298
-0.0295238
-0.0295176
-0.0295112
-0.0295044
-0.0294976
-0.0294904
-0.0294831
-0.0294755
-0.0294678
-0.0294597
-0.0294515
-0.029443
-0.0294343
-0.0294253
-0.0294163
-0.0294068
-0.0293972
-0.0293872
-0.0293772
-0.0293667
-0.0293562
-0.0293452
-0.0293342
-0.0293226
-0.029311
-0.0292989
-0.0292868
-0.0292741
-0.0292613
-0.029248
-0.0292347
-0.0292207
-0.0292067
-0.0291921
-0.0291775
-0.0291622
-0.0291469
-0.0291309
-0.0291149
-0.0290983
-0.0290815
-0.0290641
-0.0290467
-0.0290285
-0.0290103
-0.0289914
-0.0289724
-0.0289527
-0.0289329
-0.0289124
-0.0288917
-0.0288703
-0.0288489
-0.0288266
-0.0288042
-0.0287811
-0.0287578
-0.0287338
-0.0287096
-0.0286846
-0.0286595
-0.0286335
-0.0286074
-0.0285805
-0.0285534
-0.0285254
-0.0284973
-0.0284683
-0.0284391
-0.0284091
-0.0283788
-0.0283476
-0.0283162
-0.0282839
-0.0282514
-0.0282179
-0.0281842
-0.0281496
-0.0281147
-0.0280788
-0.0280426
-0.0280055
-0.0279681
-0.0279296
-0.0278909
-0.0278511
-0.0278111
-0.02777
-0.027728
-0.0276847
-0.0276485
-0.0295749
-0.0295818
-0.0295908
-0.0295976
-0.0296028
-0.0296066
-0.0296093
-0.029611
-0.0296118
-0.0296118
-0.0296113
-0.02961
-0.0296084
-0.0296062
-0.0296036
-0.0296007
-0.0295975
-0.0295939
-0.0295902
-0.0295862
-0.029582
-0.0295776
-0.029573
-0.0295682
-0.0295633
-0.0295582
-0.0295529
-0.0295475
-0.0295418
-0.029536
-0.0295299
-0.0295237
-0.0295172
-0.0295105
-0.0295035
-0.0294964
-0.029489
-0.0294815
-0.0294736
-0.0294656
-0.0294574
-0.0294489
-0.0294402
-0.0294313
-0.0294221
-0.0294127
-0.0294031
-0.0293932
-0.0293831
-0.0293727
-0.029362
-0.0293511
-0.02934
-0.0293285
-0.0293168
-0.0293047
-0.0292925
-0.0292798
-0.029267
-0.0292537
-0.0292402
-0.0292263
-0.0292122
-0.0291977
-0.0291829
-0.0291677
-0.0291523
-0.0291364
-0.0291203
-0.0291037
-0.0290868
-0.0290695
-0.029052
-0.0290339
-0.0290156
-0.0289967
-0.0289777
-0.028958
-0.0289381
-0.0289177
-0.028897
-0.0288756
-0.0288541
-0.0288319
-0.0288095
-0.0287864
-0.028763
-0.028739
-0.0287147
-0.0286897
-0.0286645
-0.0286385
-0.0286123
-0.0285853
-0.0285581
-0.0285301
-0.0285018
-0.0284727
-0.0284434
-0.0284133
-0.0283829
-0.0283517
-0.0283203
-0.0282879
-0.0282553
-0.0282218
-0.0281881
-0.0281534
-0.0281184
-0.0280825
-0.0280463
-0.0280092
-0.0279717
-0.0279333
-0.0278945
-0.0278548
-0.0278147
-0.0277729
-0.0277307
-0.0276948
-0.0295949
-0.0295997
-0.0296078
-0.0296138
-0.0296183
-0.0296215
-0.0296237
-0.0296249
-0.0296254
-0.0296251
-0.0296242
-0.0296228
-0.0296209
-0.0296186
-0.0296159
-0.0296129
-0.0296095
-0.0296059
-0.0296021
-0.0295981
-0.0295939
-0.0295895
-0.0295849
-0.0295801
-0.0295753
-0.0295702
-0.0295651
-0.0295597
-0.0295542
-0.0295485
-0.0295426
-0.0295365
-0.0295302
-0.0295236
-0.029517
-0.02951
-0.0295029
-0.0294954
-0.0294879
-0.02948
-0.0294721
-0.0294638
-0.0294554
-0.0294466
-0.0294378
-0.0294285
-0.0294192
-0.0294094
-0.0293997
-0.0293894
-0.0293791
-0.0293684
-0.0293575
-0.0293462
-0.0293349
-0.029323
-0.0293111
-0.0292986
-0.0292861
-0.0292731
-0.02926
-0.0292463
-0.0292325
-0.0292182
-0.0292038
-0.0291889
-0.0291738
-0.0291582
-0.0291425
-0.0291261
-0.0291097
-0.0290927
-0.0290755
-0.0290577
-0.0290398
-0.0290213
-0.0290026
-0.0289833
-0.0289638
-0.0289437
-0.0289234
-0.0289024
-0.0288813
-0.0288594
-0.0288374
-0.0288147
-0.0287918
-0.0287682
-0.0287444
-0.0287199
-0.0286952
-0.0286697
-0.028644
-0.0286176
-0.0285909
-0.0285634
-0.0285358
-0.0285072
-0.0284785
-0.0284489
-0.0284191
-0.0283884
-0.0283575
-0.0283256
-0.0282936
-0.0282606
-0.0282274
-0.0281932
-0.0281587
-0.0281233
-0.0280877
-0.028051
-0.0280141
-0.0279762
-0.027938
-0.0278988
-0.0278593
-0.0278182
-0.0277766
-0.0277414
-0.0296157
-0.0296181
-0.0296253
-0.0296305
-0.0296342
-0.0296369
-0.0296385
-0.0296393
-0.0296394
-0.0296388
-0.0296377
-0.029636
-0.0296339
-0.0296314
-0.0296285
-0.0296254
-0.029622
-0.0296183
-0.0296144
-0.0296103
-0.0296061
-0.0296017
-0.0295972
-0.0295924
-0.0295876
-0.0295826
-0.0295775
-0.0295723
-0.0295669
-0.0295613
-0.0295556
-0.0295496
-0.0295435
-0.0295371
-0.0295307
-0.0295239
-0.029517
-0.0295098
-0.0295024
-0.0294948
-0.029487
-0.029479
-0.0294708
-0.0294623
-0.0294536
-0.0294446
-0.0294355
-0.0294261
-0.0294164
-0.0294065
-0.0293964
-0.029386
-0.0293753
-0.0293644
-0.0293532
-0.0293417
-0.0293299
-0.0293179
-0.0293055
-0.0292929
-0.0292799
-0.0292667
-0.0292531
-0.0292393
-0.0292251
-0.0292106
-0.0291957
-0.0291806
-0.0291651
-0.0291493
-0.0291331
-0.0291166
-0.0290996
-0.0290825
-0.0290647
-0.0290468
-0.0290283
-0.0290097
-0.0289904
-0.0289709
-0.0289508
-0.0289305
-0.0289096
-0.0288885
-0.0288667
-0.0288447
-0.0288221
-0.0287992
-0.0287757
-0.0287519
-0.0287274
-0.0287027
-0.0286772
-0.0286515
-0.028625
-0.0285982
-0.0285707
-0.028543
-0.0285144
-0.0284856
-0.028456
-0.0284261
-0.0283954
-0.0283644
-0.0283326
-0.0283005
-0.0282676
-0.0282343
-0.0282002
-0.0281657
-0.0281304
-0.0280947
-0.0280581
-0.0280212
-0.0279833
-0.0279452
-0.027906
-0.0278659
-0.0278247
-0.0277904
-0.0296368
-0.029637
-0.0296432
-0.0296476
-0.0296506
-0.0296526
-0.0296537
-0.0296541
-0.0296537
-0.0296528
-0.0296513
-0.0296495
-0.0296472
-0.0296445
-0.0296415
-0.0296383
-0.0296347
-0.029631
-0.029627
-0.0296229
-0.0296186
-0.0296142
-0.0296097
-0.029605
-0.0296001
-0.0295953
-0.0295902
-0.0295851
-0.0295798
-0.0295744
-0.0295688
-0.0295631
-0.029557
-0.029551
-0.0295445
-0.0295381
-0.0295313
-0.0295244
-0.0295171
-0.0295099
-0.0295022
-0.0294945
-0.0294864
-0.0294782
-0.0294696
-0.0294611
-0.029452
-0.029443
-0.0294335
-0.0294239