/*--------------------------------*- C++ -*----------------------------------*\
  =========                 |
  \\      /  F ield         | OpenFOAM: The Open Source CFD Toolbox
   \\    /   O peration     | Website:  https://openfoam.org
    \\  /    A nd           | Version:  8
     \\/     M anipulation  |
\*---------------------------------------------------------------------------*/
FoamFile
{
    version     2.0;
    format      ascii;
    class       volVectorField;
    location    "2.2";
    object      U;
}
// * * * * * * * * * * * * * * * * * * * * * * * * * * * * * * * * * * * * * //

dimensions      [0 1 -1 0 0 0 0];

internalField   nonuniform List<vector> 
10000
(
(0.0518516 0.916756 0)
(0.412399 0.615422 0)
(0.534999 0.15664 2.23295e-32)
(0.511647 -0.321643 -1.07161e-34)
(0.370311 -0.74422 -1.35567e-32)
(0.147045 -1.05772 0)
(-0.120657 -1.22986 0)
(-0.395943 -1.24818 0)
(-0.645578 -1.11845 0)
(-0.842607 -0.861919 0)
(-0.968316 -0.51143 0)
(-1.01323 -0.106709 0)
(-0.977058 0.310551 0)
(-0.867739 0.701301 0)
(-0.699653 1.03293 0)
(-0.491408 1.2819 0)
(-0.263435 1.43513 0)
(-0.0356998 1.48994 0)
(0.174224 1.45303 0)
(0.352552 1.33849 0)
(0.490094 1.1654 -8.10486e-32)
(0.582454 0.955183 -5.95646e-34)
(0.629712 0.729264 8.23673e-32)
(0.635714 0.507013 0)
(0.607099 0.304301 0)
(0.552234 0.132642 -1.70372e-32)
(0.480167 -0.00107893 6.51973e-35)
(0.39971 -0.0943877 7.34607e-33)
(0.318721 -0.148625 0)
(0.243599 -0.168115 0)
(0.179023 -0.159226 0)
(0.127881 -0.129431 6.63011e-33)
(0.0913767 -0.0864673 1.06398e-34)
(0.0692548 -0.0376382 -8.86393e-33)
(0.0601071 0.0107077 0)
(0.0617103 0.0535098 0)
(0.0713641 0.0871565 0)
(0.0861996 0.109497 0)
(0.103441 0.119735 -9.82858e-33)
(0.120606 0.118235 2.05347e-35)
(0.135649 0.106278 4.4e-33)
(0.147038 0.0857941 -1.97844e-33)
(0.153781 0.0590984 6.07766e-35)
(0.155406 0.0286459 -1.83537e-33)
(0.151904 -0.00317557 3.16445e-33)
(0.143655 -0.0342091 6.2464e-35)
(0.131328 -0.0626453 -4.71813e-33)
(0.115794 -0.0870928 0)
(0.0980233 -0.106604 0)
(0.0790111 -0.120669 0)
(0.0597023 -0.129174 0)
(0.0409404 -0.132346 0)
(0.0234303 -0.130681 3.60853e-33)
(0.00771728 -0.124871 3.06136e-33)
(-0.0058198 -0.115726 4.21206e-36)
(-0.016963 -0.10411 -1.91249e-33)
(-0.0256411 -0.0908801 -1.36704e-33)
(-0.0319091 -0.0768399 0)
(-0.0359236 -0.062706 0)
(-0.0379173 -0.0490847 0)
(-0.0381742 -0.0364605 -3.85403e-34)
(-0.0370065 -0.0251935 -8.05422e-36)
(-0.0347347 -0.0155252 9.16027e-34)
(-0.0316714 -0.00758826 5.40761e-34)
(-0.0281091 -0.00142132 5.84376e-37)
(-0.0243109 0.00301534 -6.01605e-34)
(-0.0205055 0.00582325 5.79242e-34)
(-0.0168844 0.00714998 -5.49372e-36)
(-0.0136012 0.00717476 -4.32039e-34)
(-0.0107736 0.00609592 3.10169e-34)
(-0.008485 0.0041206 -1.29886e-35)
(-0.0067886 0.00145638 1.81271e-35)
(-0.00571039 -0.00169497 0)
(-0.00525296 -0.00514207 0)
(-0.00539895 -0.00870705 0)
(-0.00611415 -0.0122276 0)
(-0.00735036 -0.015558 0)
(-0.00904787 -0.0185699 2.82448e-33)
(-0.0111376 -0.0211527 5.65605e-35)
(-0.0135429 -0.0232131 -3.77199e-33)
(-0.0161814 -0.0246761 0)
(-0.0189665 -0.0254843 0)
(-0.021809 -0.0255985 0)
(-0.0246182 -0.0249978 0)
(-0.0273041 -0.0236799 0)
(-0.0297786 -0.0216614 0)
(-0.0319568 -0.0189778 0)
(-0.0337592 -0.015684 0)
(-0.0351122 -0.011855 0)
(-0.03595 -0.00758837 0)
(-0.0362163 -0.00300926 0)
(-0.0358665 0.00171694 0)
(-0.0348749 0.00635946 0)
(-0.0332488 0.0105707 0)
(-0.0310583 0.0137808 0)
(-0.0284892 0.0149802 -9.04392e-34)
(-0.0258964 0.0126692 6.65391e-36)
(-0.0238287 0.00827657 -3.21888e-35)
(-0.0216792 0.0113629 0)
(-0.0146666 0.0246044 0)
(0.39718 0.713755 0)
(0.550336 0.469754 0)
(0.660203 0.181592 9.56436e-33)
(0.683375 -0.140263 -2.23848e-34)
(0.606256 -0.456949 -1.04608e-32)
(0.438254 -0.728517 0)
(0.201658 -0.922759 0)
(-0.0741269 -1.01899 0)
(-0.357291 -1.00932 0)
(-0.617605 -0.898204 0)
(-0.82965 -0.700693 0)
(-0.975113 -0.439739 0)
(-1.04405 -0.142898 0)
(-1.03504 0.1611 0)
(-0.954453 0.445508 0)
(-0.814874 0.688137 0)
(-0.633088 0.873097 0)
(-0.427862 0.991641 0)
(-0.217813 1.04211 0)
(-0.0195962 1.02913 0)
(0.153436 0.962275 -4.14467e-32)
(0.292023 0.854396 -1.7069e-33)
(0.391236 0.719907 5.3069e-32)
(0.45025 0.573175 0)
(0.471737 0.427205 0)
(0.461027 0.29269 -1.47606e-32)
(0.425167 0.177454 9.00966e-35)
(0.371989 0.0862812 9.36883e-33)
(0.309281 0.0210575 0)
(0.244128 -0.0188466 0)
(0.182434 -0.0360399 0)
(0.128659 -0.0345055 1.10282e-33)
(0.0857176 -0.0189981 2.63047e-34)
(0.0550429 0.00550436 -3.92388e-33)
(0.0367556 0.0342556 0)
(0.0299098 0.063085 0)
(0.0327758 0.0886243 0)
(0.0431291 0.108425 0)
(0.0585224 0.120976 -7.64239e-33)
(0.0765195 0.125651 2.0712e-35)
(0.0948842 0.122589 4.731e-33)
(0.111717 0.112545 -3.22165e-33)
(0.125538 0.0967196 1.35621e-34)
(0.135328 0.0765933 5.3082e-34)
(0.140519 0.0537631 5.5007e-34)
(0.140963 0.029807 1.53927e-34)
(0.136871 0.00617345 -2.08315e-33)
(0.128735 -0.0158998 0)
(0.117249 -0.0354366 0)
(0.103233 -0.0517451 0)
(0.0875494 -0.0644178 0)
(0.0710494 -0.0733105 0)
(0.0545149 -0.0785088 2.58739e-33)
(0.0386248 -0.0802845 2.34888e-33)
(0.02393 -0.0790485 1.72944e-35)
(0.0108436 -0.0753035 -1.66314e-33)
(-0.000360421 -0.0695994 -1.31862e-33)
(-0.00953791 -0.062495 0)
(-0.0166604 -0.0545261 0)
(-0.0217964 -0.0461815 0)
(-0.0250906 -0.0378861 -5.35884e-36)
(-0.0267435 -0.0299915 -2.43965e-35)
(-0.0269917 -0.0227727 5.26931e-34)
(-0.0260902 -0.016429 3.67469e-34)
(-0.0242978 -0.0110895 5.755e-36)
(-0.0218653 -0.00682052 -5.13754e-34)
(-0.0190267 -0.00363494 5.5322e-34)
(-0.0159928 -0.00150158 -8.12111e-36)
(-0.0129479 -0.000354875 -5.60368e-34)
(-0.010048 -0.000103651 5.27633e-34)
(-0.00742043 -0.000638996 -2.67236e-35)
(-0.00516523 -0.00184091 -3.9162e-34)
(-0.00335659 -0.00358377 0)
(-0.00204517 -0.00574067 0)
(-0.00126038 -0.00818669 0)
(-0.00101276 -0.0108014 0)
(-0.0012961 -0.0134705 0)
(-0.0020895 -0.0160872 9.39091e-34)
(-0.0033591 -0.0185533 1.41569e-34)
(-0.00505969 -0.0207797 -1.67775e-33)
(-0.00713608 -0.0226871 0)
(-0.00952443 -0.0242067 0)
(-0.0121535 -0.0252809 0)
(-0.0149459 -0.0258639 0)
(-0.0178193 -0.0259227 0)
(-0.0206881 -0.0254373 0)
(-0.0234642 -0.0244022 0)
(-0.0260585 -0.0228263 0)
(-0.028382 -0.0207347 0)
(-0.0303454 -0.0181705 0)
(-0.0318588 -0.0151983 0)
(-0.0328299 -0.0119127 0)
(-0.0331614 -0.00845333 0)
(-0.0327498 -0.00503104 0)
(-0.0314941 -0.00196266 0)
(-0.029344 0.000325471 -1.34468e-33)
(-0.0265437 0.0015375 1.24393e-35)
(-0.0240958 0.00256899 4.40229e-34)
(-0.0229152 0.00568279 0)
(-0.0223316 0.0111314 0)
(0.622796 0.70806 -3.70502e-33)
(0.71012 0.485178 -6.27456e-33)
(0.78967 0.22234 2.41683e-33)
(0.823184 -0.075869 3.53562e-33)
(0.783558 -0.38525 3.82745e-33)
(0.662908 -0.673096 2.41216e-32)
(0.468458 -0.907304 3.31129e-32)
(0.218483 -1.06232 3.92351e-32)
(-0.0619435 -1.1225 4.16174e-32)
(-0.345075 -1.08346 0)
(-0.60421 -0.951692 3.4444e-32)
(-0.816758 -0.742931 2.5655e-32)
(-0.966421 -0.479571 1.45035e-32)
(-1.04438 -0.187604 2.06403e-33)
(-1.04951 0.106511 -1.05092e-32)
(-0.987623 0.378664 0)
(-0.870142 0.609305 -3.19937e-32)
(-0.712229 0.784873 -3.93505e-32)
(-0.53081 0.89838 -4.3837e-32)
(-0.342675 0.949208 -4.53828e-32)
(-0.162877 0.942269 -6.53187e-32)
(-0.00355073 0.886707 6.07277e-32)
(0.126776 0.794381 6.13168e-33)
(0.22339 0.678326 -2.81528e-32)
(0.285191 0.551357 -2.07116e-32)
(0.314167 0.42495 -2.82748e-32)
(0.31467 0.308452 -5.97307e-33)
(0.292602 0.208648 1.16508e-32)
(0.254615 0.129642 5.13323e-33)
(0.207393 0.0730158 0)
(0.157075 0.0381787 1.15599e-32)
(0.108846 0.0228403 1.09663e-32)
(0.0666796 0.0235366 -6.61451e-33)
(0.0332533 0.0361495 1.11007e-32)
(0.00997604 0.0563751 1.1388e-32)
(-0.00287837 0.0801127 0)
(-0.00597368 0.103758 7.67949e-33)
(-0.000678226 0.124398 5.60102e-33)
(0.0111777 0.139911 -7.48276e-33)
(0.0275328 0.148986 1.70567e-33)
(0.046298 0.151075 5.63421e-33)
(0.0655232 0.146295 -4.35014e-33)
(0.083521 0.135301 -2.34225e-33)
(0.0989473 0.119142 -1.10647e-33)
(0.110842 0.0991139 -2.72708e-33)
(0.118632 0.0766204 -3.85882e-33)
(0.12211 0.053057 -8.10246e-34)
(0.121385 0.029712 3.66317e-33)
(0.116825 0.00769594 -1.65327e-33)
(0.108987 -0.0121049 1.59311e-33)
(0.0985524 -0.0290499 1.38801e-33)
(0.0862608 -0.0427453 -1.09031e-33)
(0.0728547 -0.0530287 5.11862e-33)
(0.0590335 -0.0599406 8.34947e-34)
(0.0454192 -0.0636883 -9.70892e-34)
(0.0325327 -0.0646063 -2.36786e-33)
(0.0207821 -0.063115 -1.71641e-33)
(0.0104589 -0.0596836 -4.59411e-36)
(0.00174323 -0.0547956 -1.35761e-35)
(-0.00528659 -0.0489218 6.53677e-34)
(-0.0106394 -0.0424982 2.57749e-34)
(-0.0143954 -0.035911 9.42654e-34)
(-0.016689 -0.0294874 1.30657e-33)
(-0.0176929 -0.0234912 1.28336e-33)
(-0.0176033 -0.0181232 9.05859e-34)
(-0.0166268 -0.0135243 3.08727e-34)
(-0.0149701 -0.00978099 1.23503e-33)
(-0.0128318 -0.00693248 -2.07985e-34)
(-0.0103966 -0.004978 -5.57803e-34)
(-0.00783084 -0.00388445 5.45023e-34)
(-0.00528087 -0.00359341 2.6373e-34)
(-0.00287154 -0.00402754 -1.59897e-33)
(-0.000706488 -0.00509609 -1.3139e-33)
(0.0011312 -0.00669952 0)
(0.00257787 -0.00873316 -2.15351e-33)
(0.00358791 -0.0110903 -2.57104e-33)
(0.00413238 -0.0136643 -2.97232e-33)
(0.00419763 -0.0163506 -3.46313e-33)
(0.00378405 -0.019048 -3.68768e-33)
(0.00290498 -0.0216602 -4.56497e-33)
(0.00158565 -0.0240961 -4.21236e-33)
(-0.000137655 -0.026272 -4.37762e-33)
(-0.0022185 -0.0281115 -4.46477e-33)
(-0.00460117 -0.0295474 -4.46969e-33)
(-0.00722151 -0.0305225 0)
(-0.0100079 -0.0309909 -4.2176e-33)
(-0.0128824 -0.0309191 -3.96453e-33)
(-0.0157611 -0.0302872 -3.63686e-33)
(-0.018555 -0.0290903 -3.24539e-33)
(-0.0211698 -0.0273405 -2.80639e-33)
(-0.0235043 -0.02507 0)
(-0.0254481 -0.0223367 -1.85849e-33)
(-0.0268781 -0.0192334 -1.38975e-33)
(-0.027659 -0.0158988 -9.50751e-34)
(-0.027656 -0.0125182 -5.60201e-34)
(-0.0267824 -0.00926425 -1.98253e-33)
(-0.0251357 -0.00608643 -9.12674e-36)
(-0.0233811 -0.00259946 8.63555e-34)
(-0.0227728 0.000954929 6.55767e-35)
(-0.0238797 0.00386714 2.13612e-35)
(0.810312 0.679781 1.11668e-34)
(0.869163 0.482455 1.30112e-35)
(0.931103 0.24916 4.21511e-33)
(0.968408 -0.0194188 7.98397e-47)
(0.953743 -0.309122 -8.86224e-33)
(0.871258 -0.595835 -2.40664e-46)
(0.717603 -0.851565 6.67994e-46)
(0.50091 -1.05012 -2.87294e-46)
(0.238261 -1.17139 -2.08051e-32)
(-0.0475668 -1.20397 -1.76148e-45)
(-0.33159 -1.1462 4.261e-32)
(-0.589903 -1.00576 1.40227e-45)
(-0.802408 -0.798111 -6.37727e-46)
(-0.954762 -0.544127 -3.24888e-46)
(-1.03941 -0.267408 -5.70102e-32)
(-1.05572 0.00849039 8.73799e-46)
(-1.00928 0.262458 4.44289e-32)
(-0.910641 0.477675 9.12023e-46)
(-0.773623 0.64274 -1.01481e-45)
(-0.613564 0.752064 7.18882e-46)
(-0.445621 0.805593 -1.39137e-33)
(-0.283365 0.80799 1.70163e-45)
(-0.137762 0.767473 -1.60811e-32)
(-0.0165838 0.694486 -5.12682e-46)
(0.0757595 0.600372 -6.0576e-46)
(0.138035 0.4962 -1.25949e-32)
(0.171725 0.391833 -8.91578e-47)
(0.180402 0.295287 1.14557e-32)
(0.169025 0.212377 2.13071e-32)
(0.143245 0.146644 3.15807e-47)
(0.108795 0.0994896 -1.31079e-32)
(0.0709855 0.0704809 8.82559e-33)
(0.0343416 0.0577459 -2.42649e-47)
(0.00238305 0.0584147 -1.30587e-33)
(-0.0224698 0.0690526 -1.58878e-33)
(-0.0388794 0.0860523 4.84909e-49)
(-0.0464896 0.105961 5.31913e-33)
(-0.045766 0.125727 -6.39496e-33)
(-0.0378032 0.142869 -6.51059e-33)
(-0.0241204 0.155566 6.56012e-33)
(-0.00646497 0.162673 -1.86737e-34)
(0.0133642 0.163693 -5.07821e-33)
(0.0336631 0.158695 4.29012e-33)
(0.0529342 0.148212 1.58367e-33)
(0.069962 0.13312 -2.17818e-33)
(0.083854 0.114514 -6.22277e-34)
(0.0940499 0.0935976 -3.91173e-34)
(0.100306 0.0715745 -1.48852e-34)
(0.102662 0.0495692 -4.26086e-34)
(0.101388 0.0285632 1.32551e-33)
(0.0969322 0.00935347 -1.64571e-33)
(0.0898631 -0.00746819 1.85023e-33)
(0.0808131 -0.0215189 9.43636e-34)
(0.0704303 -0.0326137 -2.97687e-33)
(0.0593371 -0.0407434 5.973e-47)
(0.0480989 -0.0460459 -1.82852e-33)
(0.0372018 -0.0487734 5.2517e-35)
(0.0270397 -0.0492588 1.46263e-33)
(0.0179095 -0.0478843 -1.19683e-33)
(0.0100126 -0.0450521 1.68225e-48)
(0.00346227 -0.0411613 5.85751e-34)
(-0.00170601 -0.0365887 -2.93832e-34)
(-0.00552193 -0.0316748 1.65495e-35)
(-0.00806676 -0.0267153 1.45725e-34)
(-0.00946007 -0.0219562 4.0491e-47)
(-0.00984727 -0.0175928 -4.01452e-34)
(-0.00938875 -0.0137715 -1.0978e-33)
(-0.00825068 -0.010593 -3.15762e-48)
(-0.00659769 -0.00811761 1.48556e-33)
(-0.00458729 -0.00637045 -1.62446e-33)
(-0.00236594 -0.00534724 -7.16394e-48)
(-6.65089e-05 -0.00501967 1.77527e-33)
(0.00219323 -0.00534031 -1.78237e-33)
(0.00431113 -0.00624703 -9.78888e-48)
(0.00620075 -0.00766666 1.65369e-33)
(0.0077909 -0.00951808 1.64672e-47)
(0.00902507 -0.0117148 2.04548e-47)
(0.00986076 -0.0141668 -1.10659e-33)
(0.0102688 -0.0167827 3.99761e-47)
(0.0102327 -0.0194706 5.27745e-34)
(0.00974823 -0.02214 7.57793e-47)
(0.00882291 -0.0247026 -6.90396e-50)
(0.00747556 -0.0270739 8.70502e-47)
(0.00573599 -0.0291743 9.52206e-34)
(0.00364453 -0.0309304 1.67574e-46)
(0.00125158 -0.032277 -1.69522e-33)
(-0.00138292 -0.033158 -1.12219e-47)
(-0.00418994 -0.0335279 -1.89053e-46)
(-0.00709161 -0.0333539 -2.79074e-47)
(-0.010001 -0.0326172 2.65673e-33)
(-0.0128211 -0.0313156 5.79039e-47)
(-0.0154436 -0.0294664 -2.70561e-33)
(-0.0177478 -0.027109 7.95353e-49)
(-0.0196039 -0.0243026 -1.70221e-47)
(-0.020887 -0.0211003 1.65984e-47)
(-0.0215009 -0.0174555 1.94804e-33)
(-0.0214063 -0.0130771 3.9872e-47)
(-0.0208562 -0.00802361 -9.55877e-34)
(-0.0208579 -0.004309 -7.94899e-48)
(-0.0224988 -0.00321648 9.68731e-49)
(0.970367 0.653372 1.16582e-33)
(1.01613 0.478727 2.65396e-33)
(1.0687 0.270357 5.02424e-33)
(1.10871 0.0273047 -1.7095e-33)
(1.11233 -0.242426 -1.66178e-32)
(1.06123 -0.521787 -1.76692e-32)
(0.945753 -0.787916 -2.7464e-32)
(0.76612 -1.01647 -3.66586e-32)
(0.53177 -1.18575 -4.40147e-32)
(0.259402 -1.27995 0)
(-0.029742 -1.2911 -4.98293e-32)
(-0.312884 -1.21977 -4.75274e-32)
(-0.568563 -1.07454 -4.18947e-32)
(-0.779003 -0.870468 -3.34543e-32)
(-0.93178 -0.627013 -2.29849e-32)
(-1.02065 -0.365555 0)
(-1.04557 -0.107036 3.70636e-34)
(-1.01205 0.13009 1.14162e-32)
(-0.92989 0.33137 2.0982e-32)
(-0.811738 0.487229 2.85271e-32)
(-0.671463 0.593214 6.04116e-32)
(-0.522691 0.649657 -5.46492e-32)
(-0.377583 0.660914 4.03155e-32)
(-0.245967 0.634321 3.50825e-32)
(-0.134846 0.579034 3.16806e-32)
(-0.0482682 0.504902 1.696e-32)
(0.0124947 0.421476 2.10104e-32)
(0.0485475 0.337234 2.72729e-32)
(0.0628246 0.259056 1.05802e-32)
(0.0594871 0.191939 0)
(0.0433289 0.138947 1.19516e-33)
(0.019248 0.10133 -8.3078e-33)
(-0.00818484 0.0787806 2.46785e-33)
(-0.0350419 0.0697688 -4.25645e-33)
(-0.0582361 0.0719102 -7.60774e-33)
(-0.0756092 0.0823293 0)
(-0.085927 0.0979897 -7.50716e-33)
(-0.0888014 0.11597 -6.7482e-33)
(-0.084561 0.133676 -5.09829e-33)
(-0.0740913 0.148985 -4.49093e-33)
(-0.0586628 0.160326 2.44143e-33)
(-0.0397631 0.166702 -5.2561e-33)
(-0.0189447 0.167665 -8.54461e-34)
(0.00230402 0.163255 4.12445e-33)
(0.0226582 0.153909 -2.66409e-33)
(0.0410257 0.14037 1.62551e-33)
(0.0565869 0.123577 1.47483e-33)
(0.0688073 0.104567 -2.33557e-33)
(0.0774278 0.0843912 1.20443e-33)
(0.0824375 0.0640396 -1.30204e-33)
(0.0840342 0.0443865 -1.26253e-33)
(0.082578 0.0261538 1.1034e-33)
(0.0785425 0.00989053 -1.55626e-33)
(0.0724674 -0.004032 3.53303e-33)
(0.064916 -0.0154126 1.5065e-33)
(0.0564386 -0.0242035 -5.85192e-34)
(0.0475441 -0.0304866 -8.62013e-34)
(0.0386798 -0.0344472 -1.41112e-35)
(0.0302179 -0.0363456 -2.905e-36)
(0.0224504 -0.0364909 -2.43899e-34)
(0.0155884 -0.0352163 8.92114e-34)
(0.00976714 -0.0328585 -8.37572e-34)
(0.0050536 -0.0297417 -1.39847e-33)
(0.00145625 -0.0261645 -1.29879e-33)
(-0.00106403 -0.0223918 -1.40453e-33)
(-0.0025832 -0.0186501 -1.85206e-33)
(-0.00320376 -0.0151254 -1.18863e-33)
(-0.00304563 -0.0119639 8.13162e-34)
(-0.00223826 -0.00927374 -2.26881e-33)
(-0.000914271 -0.00712896 -6.63684e-34)
(0.000795558 -0.00557292 6.53459e-34)
(0.00276596 -0.00462262 -2.06997e-33)
(0.00487978 -0.00427281 -8.27332e-34)
(0.00702959 -0.00449971 0)
(0.0091187 -0.00526442 -1.64717e-34)
(0.0110616 -0.00651581 2.21974e-34)
(0.012784 -0.00819305 6.35286e-34)
(0.0142231 -0.0102276 -8.83851e-34)
(0.015327 -0.0125452 1.50766e-33)
(0.0160549 -0.015067 3.50212e-33)
(0.016377 -0.0177114 2.36698e-33)
(0.0162745 -0.0203948 2.76057e-33)
(0.0157395 -0.0230335 3.1112e-33)
(0.0147753 -0.0255448 3.407e-33)
(0.0133961 -0.0278482 0)
(0.0116277 -0.0298675 3.78508e-33)
(0.00950647 -0.0315318 3.85029e-33)
(0.0070802 -0.0327776 3.82777e-33)
(0.0044074 -0.0335506 3.71755e-33)
(0.00155748 -0.0338068 3.52573e-33)
(-0.00138932 -0.0335149 0)
(-0.0043425 -0.0326569 2.93947e-33)
(-0.00720374 -0.0312259 2.57575e-33)
(-0.00987345 -0.0292143 2.18942e-33)
(-0.0122616 -0.026571 1.79997e-33)
(-0.0142873 -0.0230943 -3.40401e-34)
(-0.0158184 -0.0183418 -9.95982e-34)
(-0.0167007 -0.0126338 1.5014e-33)
(-0.0173677 -0.00898987 1.86242e-34)
(-0.0190581 -0.00907041 5.51743e-35)
(1.11043 0.628829 0)
(1.14929 0.473947 0)
(1.19711 0.287813 1.97215e-33)
(1.24002 0.0681226 4.22259e-47)
(1.25811 -0.181216 -7.25253e-33)
(1.23326 -0.448709 0)
(1.15256 -0.716568 0)
(1.01069 -0.963577 0)
(0.81064 -1.16851 0)
(0.563015 -1.31337 0)
(0.284307 -1.38581 0)
(-0.0055077 -1.38065 0)
(-0.285588 -1.30019 0)
(-0.5367 -1.15358 0)
(-0.743239 -0.955384 0)
(-0.894597 -0.723601 0)
(-0.985796 -0.477549 0)
(-1.01741 -0.235798 0)
(-0.994861 -0.0144457 0)
(-0.927326 0.174104 0)
(-0.826345 0.321814 5.11596e-32)
(-0.704436 0.425133 -1.31623e-45)
(-0.573798 0.484641 -1.93493e-32)
(-0.445276 0.504335 0)
(-0.327618 0.490709 0)
(-0.227082 0.451753 -5.22853e-33)
(-0.147336 0.395986 -1.78272e-46)
(-0.0896297 0.331631 8.55846e-33)
(-0.0531423 0.265966 0)
(-0.0354592 0.204892 0)
(-0.0330882 0.152704 0)
(-0.0419678 0.112052 -6.52765e-33)
(-0.0579208 0.0840462 5.61688e-48)
(-0.0770251 0.0684735 3.55407e-33)
(-0.0958882 0.0640777 0)
(-0.111821 0.068869 0)
(-0.122921 0.0804304 0)
(-0.128076 0.0961959 0)
(-0.1269 0.113686 -3.93131e-33)
(-0.119632 0.130689 -7.35288e-47)
(-0.107002 0.145389 5.18306e-33)
(-0.0900843 0.156432 -5.2221e-33)
(-0.0701544 0.162956 -2.10433e-48)
(-0.0485577 0.164567 4.48082e-33)
(-0.0265968 0.161291 -3.84676e-33)
(-0.00544306 0.153501 -1.11976e-47)
(0.0139263 0.141837 2.37257e-33)
(0.0307652 0.127113 0)
(0.0445731 0.110239 0)
(0.0550885 0.0921369 0)
(0.0622687 0.073687 0)
(0.0662567 0.0556728 0)
(0.0673423 0.0387502 1.02687e-33)
(0.0659214 0.0234287 1.28858e-33)
(0.0624544 0.0100653 -1.28311e-48)
(0.0574298 -0.00113012 -1.56007e-33)
(0.051332 -0.0100818 -1.58444e-33)
(0.044616 -0.0168289 0)
(0.0376885 -0.0215036 0)
(0.030896 -0.0243073 0)
(0.0245184 -0.0254886 1.11854e-33)
(0.0187676 -0.025322 5.92139e-49)
(0.0137909 -0.0240908 -6.45473e-34)
(0.00967623 -0.0220718 -1.85567e-34)
(0.00645982 -0.0195251 2.19966e-47)
(0.00413489 -0.0166855 -1.11593e-34)
(0.00266031 -0.0137583 2.65501e-34)
(0.001969 -0.0109168 5.85484e-48)
(0.0019755 -0.00830195 -5.6842e-34)
(0.00258255 -0.00602369 7.11356e-34)
(0.00368658 -0.00416295 3.47078e-47)
(0.00518199 -0.00277454 -9.65874e-34)
(0.00696446 -0.0018901 0)
(0.00893339 -0.00152116 0)
(0.0109936 -0.00166196 0)
(0.0130562 -0.00229202 0)
(0.0150398 -0.00337835 0)
(0.0168705 -0.00487744 -2.59927e-33)
(0.0184825 -0.00673686 -2.74966e-47)
(0.0198182 -0.00889669 2.43195e-33)
(0.0208288 -0.0112908 0)
(0.0214742 -0.0138481 0)
(0.0217239 -0.0164937 0)
(0.0215574 -0.0191499 0)
(0.0209642 -0.0217381 0)
(0.019945 -0.0241798 0)
(0.0185115 -0.0263983 0)
(0.0166869 -0.0283205 0)
(0.0145057 -0.0298784 0)
(0.0120139 -0.0310111 0)
(0.00926703 -0.0316661 0)
(0.00632841 -0.031799 0)
(0.00326295 -0.0313685 0)
(0.000127935 -0.0303189 0)
(-0.00303575 -0.0285305 0)
(-0.00618749 -0.0257098 -1.40454e-33)
(-0.00916936 -0.0213326 9.46735e-48)
(-0.0114956 -0.0158087 8.2369e-34)
(-0.0128703 -0.0125158 0)
(-0.0144003 -0.0133098 0)
(1.23442 0.60664 0)
(1.26905 0.468997 0)
(1.31431 0.302793 1.27044e-33)
(1.36008 0.104672 -9.30868e-47)
(1.38995 -0.124318 -6.63355e-33)
(1.38712 -0.376967 0)
(1.33745 -0.640047 0)
(1.23207 -0.895943 0)
(1.06897 -1.1252 0)
(0.853276 -1.30936 0)
(0.596493 -1.43353 0)
(0.314837 -1.48827 0)
(0.027084 -1.47064 0)
(-0.247737 -1.38427 0)
(-0.492476 -1.23865 0)
(-0.693549 -1.04771 0)
(-0.842044 -0.828054 0)
(-0.934155 -0.597091 0)
(-0.971004 -0.371248 0)
(-0.957954 -0.164546 0)
(-0.903558 0.0123848 7.40783e-32)
(-0.818342 0.152803 -1.18044e-45)
(-0.713564 0.253885 -4.30197e-32)
(-0.600106 0.31636 0)
(-0.487589 0.343862 0)
(-0.38376 0.342111 8.00595e-34)
(-0.294167 0.318053 1.62527e-47)
(-0.222096 0.279044 4.51629e-33)
(-0.16873 0.232146 0)
(-0.133458 0.183596 0)
(-0.114283 0.138445 0)
(-0.108267 0.100373 -5.94173e-33)
(-0.111968 0.0716573 8.81483e-48)
(-0.121826 0.0532659 3.89754e-33)
(-0.134482 0.0450402 0)
(-0.147019 0.0459317 0)
(-0.157111 0.0542629 0)
(-0.163101 0.067987 0)
(-0.164009 0.0849249 -2.76152e-33)
(-0.159481 0.102965 -4.91871e-47)
(-0.149707 0.120223 4.61095e-33)
(-0.135305 0.135146 -4.96441e-33)
(-0.117199 0.146581 1.1169e-47)
(-0.096495 0.153791 4.7671e-33)
(-0.0743683 0.156448 -4.3381e-33)
(-0.0519633 0.154583 -1.11556e-47)
(-0.0303164 0.148531 3.12026e-33)
(-0.0103001 0.13886 0)
(0.00741173 0.126291 0)
(0.0223575 0.11163 0)
(0.0342846 0.0957001 0)
(0.0431322 0.0792861 0)
(0.0490046 0.063094 4.41792e-34)
(0.052138 0.0477203 8.00077e-34)
(0.0528654 0.0336354 -1.09671e-47)
(0.0515813 0.0211776 -1.2757e-33)
(0.04871 0.010557 -1.40101e-33)
(0.0446771 0.00186628 0)
(0.0398874 -0.0049039 0)
(0.0347081 -0.0098458 0)
(0.0294574 -0.0131151 1.28256e-33)
(0.0243985 -0.0149114 2.61499e-48)
(0.0197379 -0.015461 -9.30269e-34)
(0.0156266 -0.0150008 -3.49688e-34)
(0.012165 -0.0137666 4.83991e-48)
(0.00940829 -0.0119823 7.71764e-35)
(0.00737323 -0.00985374 7.44313e-35)
(0.00604545 -0.00756383 1.99438e-47)
(0.00538609 -0.00527017 -3.94207e-34)
(0.00533803 -0.00310442 5.56431e-34)
(0.00583135 -0.00117281 3.29953e-47)
(0.00678786 0.000442404 -8.70207e-34)
(0.00812473 0.00168102 0)
(0.00975738 0.0025027 0)
(0.0116016 0.00288472 0)
(0.013575 0.00281994 0)
(0.0155984 0.00231482 0)
(0.0175964 0.00138782 -3.02661e-33)
(0.019498 6.79437e-05 -1.95381e-47)
(0.0212374 -0.00160648 3.10612e-33)
(0.0227545 -0.00358888 0)
(0.0239954 -0.00582542 0)
(0.0249131 -0.00825592 0)
(0.0254684 -0.0108149 0)
(0.0256305 -0.0134327 0)
(0.0253779 -0.0160367 0)
(0.0246994 -0.0185526 0)
(0.023594 -0.0209061 0)
(0.0220718 -0.0230247 0)
(0.0201528 -0.0248392 0)
(0.0178656 -0.0262854 0)
(0.0152427 -0.0273029 0)
(0.0123126 -0.0278304 0)
(0.00908766 -0.027786 0)
(0.00555423 -0.0270191 0)
(0.00169193 -0.0252086 -8.60601e-34)
(-0.00238572 -0.021822 4.46544e-47)
(-0.00598521 -0.0172294 5.79268e-34)
(-0.00806646 -0.0145754 0)
(-0.00936544 -0.0156934 0)
(1.3448 0.586719 0)
(1.37639 0.46421 0)
(1.41998 0.315936 7.02875e-34)
(1.46814 0.137797 3.94019e-47)
(1.50745 -0.0711788 -6.11484e-33)
(1.52291 -0.307063 0)
(1.50033 -0.560529 0)
(1.42885 -0.817566 0)
(1.30284 -1.0612 0)
(1.12288 -1.27376 0)
(0.895752 -1.4393 0)
(0.633553 -1.5456 0)
(0.352083 -1.58567 0)
(0.0688989 -1.5584 0)
(-0.198718 -1.46843 0)
(-0.435577 -1.32538 0)
(-0.629979 -1.14249 0)
(-0.77456 -0.935009 0)
(-0.866571 -0.718585 0)
(-0.907608 -0.507719 0)
(-0.902937 -0.314599 9.41065e-32)
(-0.860518 -0.148322 -1.9118e-45)
(-0.789918 -0.014526 -6.59207e-32)
(-0.701233 0.084559 0)
(-0.604129 0.149755 0)
(-0.507101 0.184341 7.56378e-33)
(-0.416966 0.193344 -8.60989e-47)
(-0.338604 0.182789 -6.51537e-34)
(-0.274925 0.15901 0)
(-0.227008 0.128062 0)
(-0.194384 0.0952728 0)
(-0.175385 0.0649446 -4.20689e-33)
(-0.167528 0.0402062 -8.5422e-47)
(-0.167887 0.0229899 3.33107e-33)
(-0.173426 0.014112 0)
(-0.181279 0.0134294 0)
(-0.188947 0.0200415 0)
(-0.194437 0.0325127 0)
(-0.196331 0.0490935 -2.09371e-33)
(-0.19379 0.0679232 -3.26263e-47)
(-0.186517 0.0872019 4.21231e-33)
(-0.174687 0.105326 -4.7698e-33)
(-0.158847 0.12098 -3.7679e-47)
(-0.139812 0.133195 4.99181e-33)
(-0.118556 0.141363 -4.74364e-33)
(-0.0961171 0.145228 -4.9636e-48)
(-0.0735068 0.144847 3.78409e-33)
(-0.0516447 0.140543 0)
(-0.0313075 0.132833 0)
(-0.0130994 0.122374 0)
(0.00256122 0.109891 0)
(0.0154393 0.0961249 0)
(0.0254686 0.0817821 -2.04645e-34)
(0.0327291 0.0674994 2.28995e-34)
(0.0374185 0.053818 6.0619e-48)
(0.0398213 0.0411681 -8.77963e-34)
(0.0402791 0.0298647 -1.09486e-33)
(0.0391621 0.0201099 0)
(0.0368452 0.0120027 0)
(0.0336879 0.00555255 0)
(0.0300197 0.000694861 1.3241e-33)
(0.0261302 -0.00269151 2.82293e-48)
(0.0222629 -0.00476793 -1.11436e-33)
(0.0186136 -0.00572074 -4.71398e-34)
(0.0153314 -0.00574801 1.40559e-48)
(0.0125216 -0.00504862 2.43391e-34)
(0.0102506 -0.00381383 -1.05529e-34)
(0.00855118 -0.00222115 1.26395e-47)
(0.00742822 -0.000430324 -2.05693e-34)
(0.00686429 0.00141891 3.73725e-34)
(0.00682463 0.00320763 3.85117e-48)
(0.0072616 0.00483745 -7.2053e-34)
(0.00811841 0.00622958 0)
(0.00933212 0.00732341 0)
(0.010836 0.00807489 0)
(0.0125613 0.00845489 0)
(0.0144386 0.0084477 0)
(0.016399 0.00804964 -3.23744e-33)
(0.0183746 0.00726787 -6.38006e-47)
(0.0202995 0.00611943 3.55822e-33)
(0.0221105 0.0046304 0)
(0.0237474 0.00283521 0)
(0.0251543 0.000775931 0)
(0.0262803 -0.00149835 0)
(0.0270803 -0.00393232 0)
(0.0275165 -0.00646532 0)
(0.0275587 -0.00903246 0)
(0.0271857 -0.0115659 0)
(0.0263853 -0.0139965 0)
(0.0251539 -0.0162555 0)
(0.0234942 -0.0182758 0)
(0.0214103 -0.0199923 0)
(0.0188975 -0.0213371 0)
(0.0159288 -0.0222233 0)
(0.012441 -0.0225044 0)
(0.00834493 -0.0218935 -1.87997e-34)
(0.00365807 -0.0199356 -8.56284e-48)
(-0.000884727 -0.016885 2.51293e-34)
(-0.00364364 -0.0151458 0)
(-0.00480483 -0.0162583 0)
(1.44337 0.568838 0)
(1.47245 0.459686 0)
(1.51456 0.327552 2.15126e-34)
(1.56436 0.167891 -1.05438e-33)
(1.61095 -0.0216709 -5.63389e-33)
(1.64124 -0.23969 0)
(1.64175 -0.480073 0)
(1.60073 -0.732162 0)
(1.51013 -0.98175 0)
(1.36701 -1.21278 0)
(1.17401 -1.40937 0)
(0.939165 -1.55785 0)
(0.67486 -1.64838 0)
(0.396326 -1.67603 0)
(0.119855 -1.64118 0)
(-0.13897 -1.54924 0)
(-0.366811 -1.4098 0)
(-0.553703 -1.23536 0)
(-0.69369 -1.03987 0)
(-0.784949 -0.837359 0)
(-0.829468 -0.640585 1.10342e-31)
(-0.832377 -0.460119 -1.88431e-32)
(-0.801061 -0.303715 -8.679e-32)
(-0.744186 -0.17607 0)
(-0.670769 -0.078917 0)
(-0.589356 -0.011376 1.46213e-32)
(-0.507409 0.0295093 -1.66073e-32)
(-0.430881 0.0481465 -6.59592e-33)
(-0.364024 0.0497547 0)
(-0.309369 0.0397758 2.37788e-32)
(-0.267866 0.0233807 0)
(-0.239126 0.00509534 -1.40547e-33)
(-0.221731 -0.0114432 4.25203e-33)
(-0.213563 -0.0236085 1.82575e-33)
(-0.212128 -0.0297982 0)
(-0.214838 -0.0293604 1.37375e-33)
(-0.219251 -0.0224585 0)
(-0.223248 -0.00989628 0)
(-0.225144 0.00707365 -2.31079e-33)
(-0.223752 0.0269398 3.68256e-33)
(-0.218387 0.0481058 4.25398e-33)
(-0.208832 0.0690379 -5.0068e-33)
(-0.195278 0.0883802 3.41067e-33)
(-0.178237 0.105034 5.35275e-33)
(-0.15845 0.118206 -5.23339e-33)
(-0.136795 0.127416 1.70346e-33)
(-0.114199 0.132493 4.48402e-33)
(-0.0915639 0.133537 -4.48284e-34)
(-0.0697079 0.130873 4.44691e-35)
(-0.0493207 0.124995 2.85917e-34)
(-0.0309384 0.116512 4.88022e-34)
(-0.0149325 0.10609 6.4896e-34)
(-0.00151253 0.0943997 1.30874e-33)
(0.00926128 0.0820824 -2.15183e-33)
(0.0174576 0.0697123 -1.78119e-33)
(0.0232491 0.0577775 -2.13533e-33)
(0.0268855 0.0466674 -6.37027e-34)
(0.0286672 0.0366687 5.24083e-35)
(0.0289208 0.0279691 4.73457e-35)
(0.0279781 0.0206653 0)
(0.0261586 0.0147753 1.23295e-33)
(0.0237571 0.0102527 -7.53899e-34)
(0.0210346 0.00700123 -1.14443e-33)
(0.0182132 0.00488906 -5.21382e-34)
(0.0154746 0.00376222 2.21763e-34)
(0.0129607 0.00345578 3.53138e-34)
(0.0107758 0.00380309 -2.38937e-34)
(0.00899098 0.00464307 -6.4816e-34)
(0.00764817 0.00582532 -4.05529e-35)
(0.00676492 0.00721347 2.01614e-34)
(0.00633892 0.00868711 -1.13103e-33)
(0.00635209 0.0101425 -5.53969e-34)
(0.00677419 0.0114921 0)
(0.00756579 0.0126645 -4.32126e-33)
(0.00868071 0.0136023 0)
(0.0100679 0.014262 0)
(0.0116728 0.0146118 0)
(0.0134386 0.0146311 -3.2665e-33)
(0.0153069 0.0143094 3.03233e-33)
(0.0172186 0.0136454 3.80097e-33)
(0.0191143 0.0126465 0)
(0.0209354 0.0113285 0)
(0.0226244 0.00971476 0)
(0.0241262 0.0078365 0)
(0.0253886 0.00573192 0)
(0.0263641 0.00344589 0)
(0.0270101 0.00102922 0)
(0.0272907 -0.00146233 0)
(0.0271768 -0.00396935 0)
(0.0266458 -0.00643046 0)
(0.0256797 -0.00878399 0)
(0.0242596 -0.0109688 0)
(0.0223564 -0.0129222 0)
(0.0199152 -0.0145688 0)
(0.0168388 -0.0157941 0)
(0.0129858 -0.016394 5.49342e-34)
(0.00827701 -0.0160658 9.00203e-34)
(0.0033435 -0.0149265 -1.45844e-34)
(8.29999e-05 -0.0142755 0)
(-0.00125588 -0.0151001 0)
(1.53151 0.552711 0)
(1.55832 0.455395 0)
(1.59886 0.337783 0)
(1.64943 0.195141 -2.57899e-47)
(1.70127 0.0241651 0)
(1.74321 -0.175547 0)
(1.76285 -0.400511 0)
(1.74836 -0.643041 0)
(1.69029 -0.891711 0)
(1.58307 -1.13251 0)
(1.42599 -1.35049 0)
(1.22334 -1.53155 0)
(0.984035 -1.6641 0)
(0.720491 -1.74041 0)
(0.447217 -1.75733 0)
(0.1792 -1.71647 0)
(-0.069629 -1.62378 0)
(-0.287674 -1.48867 0)
(-0.466564 -1.32289 0)
(-0.601601 -1.13917 0)
(-0.691766 -0.949992 0)
(-0.739354 -0.766577 -1.31381e-45)
(-0.749326 -0.598039 0)
(-0.728502 -0.450955 0)
(-0.684703 -0.329201 0)
(-0.62594 -0.234083 6.32035e-32)
(-0.559731 -0.16468 -4.20821e-46)
(-0.492578 -0.118325 -3.7964e-32)
(-0.429634 -0.0911521 -2.74053e-32)
(-0.374551 -0.0786492 4.72762e-46)
(-0.329484 -0.076157 1.17938e-32)
(-0.295221 -0.0792847 0)
(-0.271405 -0.0842197 1.19523e-46)
(-0.256798 -0.0879282 0)
(-0.249576 -0.0882498 -1.13591e-33)
(-0.247603 -0.0839023 8.11712e-47)
(-0.248675 -0.0744125 2.33108e-33)
(-0.250728 -0.0599955 -7.77343e-35)
(-0.251985 -0.0414009 1.14174e-48)
(-0.251054 -0.0197463 1.35495e-34)
(-0.246977 0.00364704 -1.59621e-34)
(-0.239235 0.027404 -2.20383e-48)
(-0.227713 0.0502217 1.8931e-34)
(-0.212644 0.0709663 0)
(-0.194537 0.0887397 0)
(-0.174091 0.102915 2.97346e-47)
(-0.152113 0.113146 -5.19922e-33)
(-0.129447 0.119353 -2.4354e-33)
(-0.106903 0.121689 2.0107e-33)
(-0.0852088 0.120501 -2.57626e-48)
(-0.0649752 0.116274 -9.2388e-48)
(-0.0466715 0.109588 -2.35538e-33)
(-0.030619 0.101059 9.23017e-34)
(-0.0169942 0.0913063 1.91302e-33)
(-0.00584154 0.0809108 -4.19284e-47)
(0.0029079 0.0703908 -4.37415e-47)
(0.00941393 0.0601836 -3.91226e-37)