/*--------------------------------*- C++ -*----------------------------------*\
  =========                 |
  \\      /  F ield         | OpenFOAM: The Open Source CFD Toolbox
   \\    /   O peration     | Website:  https://openfoam.org
    \\  /    A nd           | Version:  9
     \\/     M anipulation  |
\*---------------------------------------------------------------------------*/
FoamFile
{
    format      ascii;
    class       volScalarField;
    location    "0.04";
    object      nut;
}
// * * * * * * * * * * * * * * * * * * * * * * * * * * * * * * * * * * * * * //

dimensions      [0 2 -1 0 0 0 0];

internalField   nonuniform List<scalar> 
10802
(
0.0141031
0.0141162
0.0140979
0.0140838
0.0140373
0.0140017
0.0139643
0.0139354
0.0139039
0.0138662
0.0138334
0.0137968
0.0137581
0.013717
0.0136736
0.0136278
0.0135796
0.013529
0.0134761
0.0134218
0.0133662
0.0133087
0.013249
0.0131866
0.0131212
0.0130528
0.0129813
0.0129068
0.0128297
0.0127503
0.0126693
0.0125874
0.0125054
0.0124244
0.0123451
0.0122688
0.0121961
0.0121279
0.0120649
0.0120074
0.0119559
0.0119105
0.0118712
0.0118378
0.0118101
0.0117876
0.0117701
0.011757
0.0117479
0.0117424
0.0117401
0.0117405
0.0117433
0.011748
0.0117545
0.0117623
0.0117714
0.0117814
0.0117921
0.0118034
0.0118152
0.0118271
0.0118393
0.0118514
0.0118635
0.0118755
0.0118872
0.0118988
0.01191
0.0119209
0.0119315
0.0119417
0.0119515
0.0119608
0.0119698
0.0119784
0.0119866
0.0119944
0.0120017
0.0120087
0.0141001
0.014115
0.0141007
0.0140842
0.0140401
0.0140015
0.0139639
0.0139374
0.0139023
0.0138626
0.0138298
0.0137916
0.0137513
0.0137084
0.0136629
0.0136146
0.0135636
0.0135099
0.0134533
0.0133955
0.013336
0.0132742
0.0132092
0.0131407
0.0130682
0.0129916
0.0129109
0.0128262
0.0127378
0.0126464
0.0125527
0.0124577
0.0123626
0.0122688
0.0121776
0.0120905
0.0120087
0.0119336
0.011866
0.0118065
0.0117557
0.0117137
0.0116804
0.0116553
0.0116379
0.0116275
0.0116234
0.0116253
0.0116318
0.0116426
0.011657
0.0116741
0.0116935
0.0117148
0.0117375
0.0117611
0.0117854
0.01181
0.0118349
0.0118597
0.0118844
0.0119087
0.0119326
0.011956
0.0119787
0.0120006
0.0120219
0.0120424
0.012062
0.0120808
0.0120989
0.012116
0.0121324
0.012148
0.0121627
0.0121767
0.0121899
0.0122024
0.0122142
0.0122253
0.0140976
0.0141154
0.0141009
0.0140847
0.0140429
0.0140007
0.0139639
0.013937
0.013903
0.0138612
0.0138275
0.0137873
0.0137454
0.0137007
0.0136532
0.0136028
0.0135494
0.0134933
0.0134348
0.0133741
0.0133112
0.013245
0.0131746
0.0130996
0.0130196
0.0129343
0.0128437
0.0127478
0.0126472
0.0125425
0.0124347
0.0123252
0.0122157
0.0121081
0.0120044
0.0119066
0.0118168
0.0117367
0.0116677
0.0116109
0.0115665
0.0115341
0.0115135
0.0115039
0.0115054
0.0115153
0.0115332
0.0115577
0.0115876
0.0116219
0.0116596
0.0116998
0.0117417
0.0117847
0.0118282
0.0118719
0.0119151
0.0119578
0.0119996
0.0120404
0.01208
0.0121182
0.0121551
0.0121905
0.0122245
0.0122569
0.0122879
0.0123173
0.0123453
0.0123719
0.0123971
0.0124209
0.0124434
0.0124646
0.0124846
0.0125035
0.0125212
0.0125379
0.0125535
0.0125682
0.0140955
0.014116
0.0141005
0.0140852
0.0140439
0.0139999
0.0139661
0.013937
0.0139029
0.0138598
0.0138254
0.0137831
0.0137398
0.0136934
0.013644
0.0135915
0.0135358
0.0134773
0.0134168
0.0133541
0.0132879
0.0132171
0.0131412
0.0130595
0.0129715
0.0128771
0.0127759
0.0126682
0.0125543
0.0124352
0.0123123
0.0121872
0.0120623
0.0119404
0.0118242
0.0117169
0.0116212
0.0115398
0.0114745
0.0114264
0.0113954
0.0113812
0.0113838
0.0114004
0.0114298
0.0114701
0.0115193
0.0115757
0.0116376
0.0117032
0.0117714
0.0118408
0.0119105
0.0119797
0.0120478
0.0121143
0.0121787
0.012241
0.0123007
0.012358
0.0124126
0.0124646
0.012514
0.0125608
0.0126051
0.012647
0.0126865
0.0127238
0.0127589
0.0127919
0.0128229
0.0128521
0.0128794
0.0129051
0.0129291
0.0129516
0.0129727
0.0129924
0.0130108
0.013028
0.0140941
0.0141185
0.0141
0.0140856
0.014044
0.013999
0.0139684
0.0139371
0.013903
0.0138595
0.0138236
0.0137793
0.0137348
0.0136868
0.0136356
0.0135812
0.0135236
0.0134636
0.0134018
0.0133364
0.0132663
0.0131908
0.0131091
0.0130205
0.0129243
0.0128203
0.012708
0.0125876
0.0124596
0.0123251
0.0121858
0.012044
0.0119029
0.0117662
0.0116381
0.011523
0.0114249
0.0113477
0.0112931
0.0112622
0.011255
0.0112705
0.0113065
0.0113605
0.0114295
0.0115106
0.0116009
0.0116977
0.0117984
0.0119011
0.0120039
0.0121055
0.0122047
0.0123009
0.0123934
0.0124819
0.0125661
0.0126459
0.0127213
0.0127923
0.0128592
0.0129219
0.0129807
0.0130358
0.0130874
0.0131356
0.0131806
0.0132226
0.0132619
0.0132985
0.0133326
0.0133644
0.0133941
0.0134217
0.0134474
0.0134714
0.0134937
0.0135145
0.0135338
0.0135518
0.014094
0.0141201
0.0140994
0.0140861
0.014044
0.0139981
0.0139693
0.0139373
0.0139032
0.0138598
0.0138222
0.0137758
0.0137303
0.0136807
0.013628
0.0135719
0.013513
0.0134524
0.0133886
0.0133202
0.0132463
0.0131659
0.0130784
0.0129827
0.0128782
0.0127642
0.0126403
0.0125067
0.0123638
0.0122129
0.0120561
0.0118966
0.0117386
0.0115872
0.0114483
0.0113281
0.0112324
0.0111657
0.0111298
0.0111283
0.0111567
0.0112138
0.011296
0.011399
0.0115183
0.0116491
0.0117874
0.0119295
0.0120722
0.0122131
0.0123503
0.0124825
0.0126087
0.0127282
0.012841
0.0129467
0.0130454
0.0131375
0.0132231
0.0133025
0.0133761
0.0134442
0.0135072
0.0135655
0.0136194
0.0136692
0.0137152
0.0137578
0.0137971
0.0138335
0.0138671
0.0138982
0.0139269
0.0139535
0.0139781
0.0140009
0.014022
0.0140415
0.0140596
0.0140763
0.0140924
0.014121
0.0140987
0.0140866
0.014044
0.0139973
0.0139697
0.0139377
0.0139034
0.0138605
0.0138209
0.0137728
0.0137263
0.0136753
0.0136213
0.013564
0.0135047
0.013443
0.0133769
0.0133054
0.0132276
0.0131425
0.0130491
0.0129463
0.0128333
0.0127091
0.0125734
0.0124259
0.0122673
0.0120991
0.011924
0.0117459
0.0115705
0.0114047
0.0112567
0.0111354
0.0110485
0.0110003
0.0109963
0.0110336
0.0111106
0.0112224
0.0113629
0.0115251
0.0117021
0.0118876
0.0120761
0.0122632
0.0124456
0.0126207
0.0127869
0.0129432
0.013089
0.0132242
0.0133491
0.0134639
0.0135692
0.0136655
0.0137535
0.0138338
0.013907
0.0139738
0.0140346
0.01409
0.0141405
0.0141865
0.0142286
0.0142669
0.0143019
0.014334
0.0143633
0.0143901
0.0144146
0.0144371
0.0144578
0.0144767
0.0144941
0.0145101
0.0145248
0.0145383
0.0140904
0.0141213
0.0140978
0.0140871
0.0140439
0.0139965
0.0139699
0.0139386
0.0139038
0.0138614
0.0138199
0.0137702
0.0137228
0.0136705
0.0136155
0.0135577
0.0134982
0.0134349
0.0133664
0.0132919
0.0132103
0.0131205
0.0130213
0.0129115
0.0127899
0.0126554
0.0125074
0.0123457
0.0121709
0.0119847
0.0117903
0.0115929
0.0113997
0.0112201
0.0110654
0.010948
0.0108766
0.010858
0.0108955
0.0109866
0.0111255
0.0113041
0.0115121
0.0117395
0.0119769
0.0122163
0.0124514
0.0126777
0.012892
0.0130922
0.0132774
0.0134472
0.013602
0.0137423
0.0138689
0.0139828
0.0140851
0.0141766
0.0142585
0.0143317
0.014397
0.0144554
0.0145075
0.0145541
0.0145957
0.0146329
0.0146662
0.0146961
0.0147228
0.0147469
0.0147685
0.0147879
0.0148054
0.0148212
0.0148355
0.0148484
0.01486
0.0148706
0.0148802
0.014889
0.0140881
0.0141213
0.0140969
0.0140876
0.0140437
0.0139958
0.0139703
0.01394
0.0139043
0.0138626
0.0138192
0.0137681
0.01372
0.0136665
0.0136109
0.0135532
0.0134929
0.0134278
0.0133571
0.0132797
0.0131944
0.0131
0.0129951
0.0128783
0.0127482
0.0126034
0.012443
0.0122667
0.0120751
0.0118702
0.0116559
0.0114385
0.0112273
0.0110346
0.0108759
0.0107674
0.01072
0.0107425
0.0108355
0.0109935
0.0112064
0.0114603
0.0117407
0.0120339
0.0123283
0.0126151
0.0128879
0.0131425
0.0133767
0.0135894
0.0137808
0.0139517
0.0141033
0.014237
0.0143544
0.0144572
0.0145468
0.0146248
0.0146925
0.0147512
0.0148019
0.0148457
0.0148836
0.0149162
0.0149443
0.0149685
0.0149893
0.0150072
0.0150225
0.0150357
0.0150471
0.0150568
0.0150652
0.0150723
0.0150785
0.0150838
0.0150883
0.0150922
0.0150955
0.0150984
0.0140857
0.014121
0.0140957
0.0140879
0.0140434
0.0139959
0.0139712
0.0139419
0.013905
0.013864
0.0138188
0.0137668
0.0137177
0.0136633
0.0136076
0.01355
0.0134885
0.0134218
0.0133488
0.0132686
0.0131798
0.013081
0.0129706
0.012847
0.0127083
0.0125532
0.0123803
0.0121892
0.0119806
0.0117566
0.0115217
0.0112837
0.0110544
0.0108498
0.0106904
0.0105967
0.0105834
0.0106584
0.0108199
0.011057
0.0113525
0.0116861
0.0120383
0.0123922
0.0127351
0.013058
0.0133554
0.0136243
0.0138641
0.0140753
0.0142594
0.0144185
0.0145549
0.014671
0.0147691
0.0148515
0.0149203
0.0149772
0.015024
0.0150622
0.015093
0.0151176
0.015137
0.0151519
0.0151633
0.0151716
0.0151773
0.0151809
0.0151827
0.0151831
0.0151825
0.015181
0.0151789
0.0151763
0.0151734
0.0151702
0.0151669
0.0151634
0.01516
0.0151565
0.0140831
0.0141205
0.0140944
0.0140877
0.0140431
0.0139978
0.0139732
0.013944
0.0139058
0.0138656
0.0138186
0.0137661
0.0137159
0.0136612
0.0136057
0.0135475
0.0134849
0.0134166
0.0133416
0.0132587
0.0131665
0.0130635
0.0129478
0.0128174
0.0126705
0.0125051
0.0123198
0.0121139
0.0118879
0.0116444
0.0113885
0.0111296
0.010882
0.0106665
0.0105107
0.0104379
0.0104682
0.010608
0.0108501
0.0111757
0.0115584
0.011971
0.0123891
0.0127941
0.0131728
0.0135175
0.0138244
0.0140926
0.0143235
0.0145193
0.0146834
0.0148191
0.0149297
0.0150188
0.0150893
0.0151439
0.0151853
0.0152155
0.0152366
0.01525
0.0152572
0.0152591
0.0152569
0.0152517
0.0152442
0.015235
0.0152245
0.015213
0.0152009
0.0151885
0.0151761
0.0151636
0.0151513
0.0151391
0.0151273
0.0151159
0.0151048
0.0150942
0.0150841
0.0150744
0.0140805
0.0141198
0.0140929
0.0140873
0.0140427
0.013998
0.0139753
0.0139461
0.0139067
0.0138672
0.0138187
0.0137661
0.0137147
0.01366
0.0136045
0.0135456
0.0134819
0.0134122
0.0133353
0.0132499
0.0131545
0.0130475
0.0129266
0.0127898
0.0126347
0.0124593
0.0122616
0.012041
0.0117977
0.0115344
0.0112572
0.0109769
0.010711
0.0104854
0.0103357
0.0102916
0.0103756
0.0105917
0.0109247
0.0113446
0.0118148
0.012301
0.0127752
0.0132181
0.0136179
0.013969
0.0142702
0.0145233
0.0147317
0.0149001
0.0150332
0.0151357
0.0152123
0.0152671
0.0153037
0.0153255
0.0153351
0.0153345
0.0153264
0.0153127
0.0152947
0.0152733
0.0152498
0.0152248
0.0151988
0.0151724
0.0151459
0.0151197
0.0150941
0.0150691
0.015045
0.0150219
0.0149997
0.0149786
0.0149585
0.0149394
0.0149214
0.0149044
0.0148884
0.0148733
0.0140779
0.0141189
0.0140913
0.0140866
0.0140422
0.0139975
0.0139775
0.0139481
0.0139078
0.013869
0.0138192
0.0137665
0.0137141
0.0136596
0.0136038
0.0135443
0.0134796
0.0134085
0.0133298
0.0132421
0.0131438
0.0130329
0.0129072
0.0127641
0.0126012
0.0124159
0.0122062
0.0119709
0.0117103
0.0114273
0.0111285
0.0108266
0.0105423
0.0103075
0.0101664
0.0101596
0.0103061
0.0106084
0.0110397
0.011556
0.01211
0.0126607
0.0131785
0.0136449
0.0140506
0.0143932
0.0146747
0.0148997
0.0150744
0.0152052
0.0152986
0.0153607
0.015397
0.0154125
0.0154108
0.0153961
0.0153718
0.0153401
0.015303
0.0152622
0.0152192
0.0151749
0.0151303
0.015086
0.0150425
0.0150001
0.0149592
0.0149199
0.0148824
0.0148467
0.0148128
0.0147808
0.0147507
0.0147223
0.0146956
0.0146707
0.0146473
0.0146254
0.014605
0.0145859
0.0140754
0.0141179
0.0140896
0.0140856
0.0140414
0.0139967
0.0139796
0.0139501
0.013909
0.0138708
0.0138198
0.0137671
0.0137141
0.0136596
0.0136035
0.0135434
0.0134779
0.0134055
0.0133252
0.0132354
0.0131343
0.0130197
0.0128894
0.0127403
0.0125698
0.012375
0.0121535
0.0119039
0.0116262
0.0113235
0.0110031
0.0106795
0.0103767
0.0101337
0.0100055
0.010038
0.0102574
0.010655
0.0111893
0.0118007
0.0124313
0.0130354
0.0135832
0.0140586
0.014456
0.0147767
0.0150264
0.0152129
0.0153446
0.0154302
0.0154777
0.0154944
0.0154863
0.0154593
0.0154185
0.0153674
0.0153091
0.0152462
0.0151807
0.0151141
0.0150477
0.0149825
0.014919
0.0148578
0.0147993
0.0147436
0.0146908
0.014641
0.0145942
0.0145504
0.0145094
0.014471
0.014435
0.0144013
0.0143697
0.0143402
0.0143126
0.0142868
0.0142627
0.0142401
0.0140728
0.0141168
0.0140879
0.0140846
0.0140404
0.0139957
0.0139808
0.013952
0.0139103
0.0138726
0.0138207
0.0137678
0.0137144
0.0136599
0.0136035
0.0135429
0.0134766
0.0134032
0.0133214
0.0132296
0.0131259
0.0130079
0.0128732
0.0127185
0.0125408
0.0123368
0.0121038
0.0118401
0.0115457
0.0112235
0.0108816
0.0105363
0.0102148
0.00996385
0.00985031
0.00992945
0.0102286
0.0107276
0.0113663
0.0120687
0.0127669
0.0134125
0.0139769
0.0144479
0.0148244
0.015112
0.0153201
0.0154597
0.0155418
0.015577
0.0155738
0.015542
0.0154888
0.0154197
0.0153399
0.0152532
0.0151628
0.0150711
0.01498
0.0148908
0.0148047
0.0147223
0.014644
0.0145703
0.0145007
0.014435
0.0143729
0.0143142
0.0142589
0.0142068
0.0141576
0.0141113
0.0140678
0.0140268
0.0139884
0.0139522
0.0139184
0.0138867
0.0138572
0.0138296
0.0140704
0.0141157
0.0140862
0.0140834
0.0140393
0.0139948
0.0139811
0.0139539
0.0139117
0.0138744
0.0138216
0.0137687
0.0137149
0.0136603
0.0136038
0.0135428
0.0134758
0.0134014
0.0133182
0.0132246
0.0131185
0.0129974
0.0128585
0.0126985
0.0125139
0.0123012
0.0120572
0.0117798
0.011469
0.0111277
0.0107646
0.0103975
0.0100573
0.00979819
0.00970111
0.00983145
0.0102163
0.0108208
0.0115632
0.0123506
0.0131066
0.0137818
0.0143506
0.0148056
0.0151507
0.0153961
0.015555
0.0156414
0.015669
0.0156496
0.0155953
0.0155151
0.0154169
0.0153069
0.0151904
0.0150711
0.0149523
0.0148361
0.0147242
0.014618
0.0145171
0.014421
0.0143297
0.0142427
0.0141601
0.0140816
0.0140072
0.0139366
0.0138698
0.0138067
0.0137472
0.013691
0.0136381
0.0135884
0.0135416
0.0134976
0.0134564
0.0134177
0.0133815
0.0133476
0.0140682
0.0141145
0.0140845
0.0140821
0.0140381
0.0139942
0.0139828
0.0139557
0.013913
0.0138762
0.0138226
0.0137696
0.0137156
0.013661
0.0136043
0.0135429
0.0134753
0.0134
0.0133157
0.0132204
0.0131121
0.0129881
0.0128454
0.0126804
0.0124892
0.0122681
0.0120135
0.0117231
0.0113964
0.0110364
0.0106524
0.0102638
0.00990455
0.00963685
0.00955737
0.00974203
0.0102168
0.0109289
0.0117726
0.012638
0.0134422
0.0141362
0.0146989
0.0151284
0.0154338
0.01563
0.0157342
0.0157636
0.0157333
0.0156592
0.0155531
0.0154252
0.0152839
0.015136
0.0149866
0.0148395
0.0146978
0.0145623
0.0144324
0.0143079
0.0141884
0.014074
0.0139644
0.0138597
0.0137598
0.0136647
0.0135742
0.0134883
0.0134069
0.0133299
0.0132571
0.0131884
0.0131238
0.0130629
0.0130057
0.0129519
0.0129016
0.0128543
0.0128101
0.0127687
0.0140662
0.0141134
0.0140828
0.0140808
0.0140368
0.0139937
0.0139846
0.0139574
0.0139142
0.0138779
0.0138235
0.0137705
0.0137164
0.0136618
0.0136049
0.0135433
0.0134752
0.0133991
0.0133137
0.0132169
0.0131066
0.01298
0.0128337
0.0126639
0.0124667
0.0122376
0.0119729
0.0116699
0.0113279
0.0109498
0.0105453
0.0101354
0.00975709
0.00947974
0.00941834
0.00965901
0.0102265
0.0110465
0.0119878
0.0129241
0.0137676
0.0144713
0.0150193
0.0154157
0.015675
0.015817
0.0158629
0.0158314
0.0157433
0.015614
0.0154572
0.0152839
0.0151031
0.0149218
0.0147451
0.014575
0.0144108
0.0142519
0.0140984
0.0139501
0.0138071
0.0136695
0.0135374
0.013411
0.0132902
0.013175
0.0130655
0.0129616
0.0128632
0.0127701
0.0126823
0.0125995
0.0125216
0.0124484
0.0123796
0.0123152
0.0122547
0.0121982
0.0121453
0.0120959
0.0140644
0.0141122
0.0140812
0.0140795
0.0140355
0.0139933
0.0139853
0.0139583
0.0139154
0.0138796
0.0138245
0.0137715
0.0137172
0.0136626
0.0136058
0.0135439
0.0134754
0.0133986
0.0133122
0.0132141
0.013102
0.0129729
0.0128233
0.0126491
0.0124461
0.0122096
0.0119353
0.0116203
0.0112635
0.010868
0.0104436
0.0100127
0.00961525
0.00932667
0.0092826
0.00958
0.0102414
0.0111684
0.012203
0.0132037
0.0140788
0.0147847
0.0153114
0.0156688
0.0158774
0.0159618
0.0159454
0.0158538
0.0157076
0.0155244
0.0153192
0.0151039
0.0148879
0.0146792
0.0144763
0.0142786
0.0140856
0.0138977
0.0137151
0.013538
0.0133669
0.0132021
0.0130439
0.0128924
0.0127478
0.0126102
0.0124796
0.0123559
0.0122389
0.0121285
0.0120246
0.0119269
0.0118351
0.011749
0.0116684
0.0115929
0.0115223
0.0114564
0.0113948
0.0113374
0.0140628
0.014111
0.0140797
0.0140781
0.0140342
0.0139931
0.0139855
0.0139585
0.0139166
0.0138813
0.0138254
0.0137725
0.0137181
0.0136636
0.0136067
0.0135447
0.0134757
0.0133984
0.0133112
0.0132119
0.0130981
0.0129667
0.0128141
0.0126359
0.0124275
0.0121839
0.0119006
0.0115741
0.0112033
0.010791
0.0103474
0.00989594
0.00947934
0.00917753
0.00915041
0.00950312
0.0102578
0.01129
0.0124137
0.0134729
0.0143736
0.015076
0.0155763
0.0158909
0.0160457
0.0160699
0.0159918
0.0158396
0.0156361
0.0154011
0.0151509
0.0148985
0.0146538
0.0144138
0.0141779
0.0139459
0.0137184
0.0134959
0.0132791
0.0130689
0.0128657
0.0126703
0.012483
0.0123042
0.012134
0.0119724
0.0118195
0.0116752
0.0115393
0.0114114
0.0112914
0.011179
0.0110737
0.0109753
0.0108834
0.0107977
0.0107177
0.0106433
0.0105739
0.0105094
0.0140613
0.0141098
0.0140782
0.0140768
0.0140331
0.0139931
0.0139854
0.0139585
0.0139177
0.0138829
0.0138262
0.0137735
0.0137191
0.0136646
0.0136077
0.0135455
0.0134763
0.0133985
0.0133105
0.0132101
0.0130949
0.0129614
0.012806
0.012624
0.0124106
0.0121605
0.0118686
0.0115313
0.0111471
0.0107188
0.0102567
0.00978525
0.00934973
0.00903333
0.00902072
0.00942624
0.0102727
0.0114075
0.0126163
0.0137293
0.0146508
0.0153456
0.0158164
0.0160858
0.0161857
0.0161477
0.0160079
0.0157958
0.0155367
0.0152523
0.0149602
0.0146775
0.0143979
0.0141204
0.0138453
0.0135735
0.0133061
0.0130443
0.0127894
0.0125424
0.0123044
0.0120762
0.0118582
0.0116508
0.0114543
0.0112687
0.0110938
0.0109295
0.0107755
0.0106313
0.0104967
0.0103711
0.0102541
0.0101452
0.010044
0.0099499
0.00986256
0.0097815
0.00970632
0.0096366
0.01406
0.0141087
0.0140767
0.0140754
0.014032
0.0139938
0.0139852
0.0139583
0.0139188
0.0138844
0.0138271
0.0137745
0.01372
0.0136657
0.0136088
0.0135465
0.013477
0.0133988
0.0133101
0.0132088
0.0130922
0.0129569
0.0127989
0.0126135
0.0123955
0.0121392
0.0118393
0.0114918
0.0110949
0.0106513
0.0101715
0.00968069
0.00922662
0.00889495
0.0088925
0.00934771
0.0102833
0.0115178
0.0128081
0.0139711
0.0149102
0.0155949
0.0160341
0.0162566
0.0162996
0.016201
0.0160002
0.0157298
0.0154187
0.0150908
0.0147659
0.014443
0.0141205
0.0137987
0.0134785
0.0131615
0.0128496
0.0125447
0.0122485
0.0119625
0.011688
0.011426
0.011177
0.0109416
0.0107197
0.0105114
0.0103165
0.0101345
0.00996497
0.00980741
0.0096612
0.0095257
0.00940027
0.00928427
0.00917707
0.00907807
0.00898666
0.00890231
0.00882447
0.00875266
0.0140589
0.0141076
0.0140754
0.0140741
0.0140309
0.0139947
0.0139849
0.013958
0.0139199
0.0138858
0.0138279
0.0137755
0.0137209
0.0136668
0.01361
0.0135476
0.0134779
0.0133993
0.0133101
0.0132079
0.0130901
0.0129531
0.0127928
0.0126042
0.0123819
0.0121198
0.0118125
0.0114553
0.0110464
0.0105883
0.0100916
0.0095822
0.00911018
0.00876263
0.00876546
0.00926658
0.0102876
0.0116186
0.0129873
0.0141977
0.0151525
0.015826
0.0162331
0.016409
0.0163936
0.016235
0.0159738
0.0156465
0.0152855
0.0149181
0.0145523
0.0141849
0.0138155
0.0134452
0.0130759
0.0127102
0.0123509
0.0120006
0.0116616
0.0113358
0.0110249
0.0107298
0.0104515
0.0101901
0.00994575
0.00971824
0.0095071
0.00931172
0.00913136
0.00896521
0.0088124
0.00867206
0.00854331
0.00842527
0.00831712
0.00821806
0.00812736
0.0080443
0.00796823
0.00789856
0.0140578
0.0141066
0.0140741
0.0140729
0.01403
0.0139956
0.0139845
0.0139576
0.0139209
0.0138872
0.0138286
0.0137765
0.0137219
0.0136679
0.0136111
0.0135487
0.0134788
0.0133999
0.0133102
0.0132074
0.0130885
0.01295
0.0127876
0.0125961
0.0123697
0.0121024
0.011788
0.0114218
0.0110015
0.0105296
0.0100169
0.00948965
0.00900025
0.00863602
0.00864027
0.00918237
0.0102844
0.0117085
0.0131528
0.0144088
0.0153786
0.0160408
0.0164163
0.0165466
0.0164756
0.0162566
0.0159352
0.015551
0.0151383
0.0147339
0.0143244
0.0139088
0.0134883
0.0130654
0.0126434
0.0122262
0.0118173
0.0114203
0.0110381
0.0106732
0.0103274
0.0100019
0.00969762
0.00941465
0.00915287
0.00891177
0.00869058
0.0084883
0.00830384
0.008136
0.00798355
0.00784527
0.00771997
0.00760651
0.00750379
0.00741081
0.00732664
0.00725042
0.00718137
0.00711876
0.0140569
0.0141055
0.0140728
0.0140716
0.0140291
0.0139964
0.0139841
0.0139571
0.0139219
0.0138885
0.0138293
0.0137774
0.0137228
0.0136689
0.0136123
0.0135499
0.0134799
0.0134007
0.0133106
0.0132071
0.0130872
0.0129474
0.012783
0.0125889
0.0123589
0.0120866
0.0117657
0.011391
0.01096
0.0104751
0.00994707
0.00940287
0.00889678
0.00851538
0.00851744
0.00909478
0.0102729
0.0117862
0.0133039
0.0146047
0.0155896
0.0162412
0.0165859
0.0166707
0.0165459
0.0162695
0.0158921
0.0154583
0.0150076
0.0145534
0.0140913
0.0136207
0.0131438
0.0126642
0.0121865
0.0117156
0.0112562
0.0108126
0.0103886
0.00998701
0.00961
0.00925895
0.0089345
0.00863668
0.00836495
0.00811835
0.0078956
0.00769517
0.00751541
0.0073546
0.00721104
0.00708305
0.00696906
0.00686758
0.00677724
0.00669681
0.00662516
0.00656128
0.00650428
0.00645336
0.0140561
0.0141046
0.0140717
0.0140705
0.0140283
0.0139968
0.0139837
0.0139566
0.0139229
0.0138898
0.01383
0.0137783
0.0137237
0.01367
0.0136134
0.0135511
0.0134809
0.0134015
0.013311
0.013207
0.0130863
0.0129453
0.0127792
0.0125826
0.0123493
0.0120724
0.0117454
0.0113628
0.0109217
0.0104245
0.00988199
0.00932165
0.00879961
0.00840119
0.00839701
0.00900389
0.0102527
0.0118513
0.0134403
0.0147857
0.015787
0.0164299
0.0167456
0.0167847
0.0166083
0.0162755
0.0158412
0.0153549
0.0148614
0.0143584
0.0138429
0.0133159
0.0127809
0.0122433
0.011709
0.0111845
0.0106756
0.0101876
0.00972517
0.00929164
0.00888948
0.00852009
0.00818389
0.00788047
0.00760871
0.00736694
0.00715308
0.00696484
0.0067998
0.00665556
0.00652978
0.00642028
0.00632503
0.00624222
0.0061702
0.00610753
0.00605295
0.00600536
0.0059638
0.00592745
0.0140554
0.0141036
0.0140706
0.0140693
0.0140276
0.0139967
0.0139832
0.0139561
0.0139238
0.013891
0.0138306
0.0137792
0.0137245
0.013671
0.0136146
0.0135522
0.013482
0.0134024
0.0133116
0.0132071
0.0130857
0.0129436
0.0127759
0.0125771
0.0123407
0.0120596
0.011727
0.0113369
0.0108864
0.0103776
0.00982135
0.0092457
0.00870841
0.00829347
0.00827949
0.00891062
0.0102241
0.0119036
0.0135622
0.0149526
0.015972
0.0166092
0.0169008
0.0168935
0.0166683
0.0162808
0.0157921
0.0152567
0.014716
0.0141604
0.0135882
0.0130021
0.0124073
0.0118106
0.0112198
0.0106427
0.0100866
0.00955819
0.00906265
0.00860403
0.008185
0.00780682
0.00746945
0.00717171
0.00691151
0.00668608
0.00649221
0.00632653
0.00618564
0.00606632
0.00596555
0.00588061
0.00580912
0.00574898
0.00569838
0.00565581
0.00561995
0.00558973
0.00556422
0.00554265
0.0140548
0.0141028
0.0140695
0.0140682
0.0140269
0.0139965
0.0139827
0.0139555
0.0139247
0.0138921
0.0138311
0.0137801
0.0137253
0.013672
0.0136157
0.0135534
0.0134831
0.0134034
0.0133123
0.0132074
0.0130854
0.0129422
0.0127732
0.0125723
0.0123331
0.0120482
0.0117102
0.0113132
0.0108539
0.0103341
0.00976488
0.00917475
0.00862294
0.00819179
0.00816568
0.00881573
0.0101875
0.0119435
0.0136699
0.0151059
0.0161453
0.0167784
0.017045
0.0170055
0.0167299
0.016288
0.015746
0.0151648
0.0145719
0.0139601
0.0133289
0.0126822
0.0120271
0.0113719
0.010726
0.0100993
0.00950074
0.00893779
0.00841666
0.00794191
0.00751629
0.00714064
0.00681406
0.00653409
0.00629713
0.00609882
0.00593447
0.00579938
0.00568909
0.00559954
0.00552718
0.00546893
0.00542219
0.00538482
0.00535503
0.00533137
0.00531266
0.00529793
0.00528644
0.00527752
0.0140542
0.0141019
0.0140686
0.0140672
0.0140264
0.0139962
0.0139821
0.0139549
0.0139256
0.0138932
0.0138317
0.0137809
0.0137261
0.013673
0.0136168
0.0135545
0.0134842
0.0134044
0.0133131
0.0132078
0.0130852
0.0129412
0.0127709
0.0125682
0.0123264
0.0120379
0.0116951
0.0112916
0.0108239
0.0102938
0.00971232
0.00910849
0.00854302
0.00809582
0.00805618
0.00871995
0.0101436
0.0119716
0.0137643
0.0152468
0.0163089
0.0169422
0.0171902
0.0171145
0.0167913
0.0162957
0.0156994
0.0150708
0.0144255
0.0137569
0.0130656
0.0123583
0.0116452
0.0109354
0.0102395
0.00956859
0.00893305
0.00834216
0.00780342
0.00732204
0.00690061
0.00653909
0.00623494
0.00598368
0.00577954
0.00561611
0.00548696
0.00538608
0.0053081
0.00524845
0.00520331
0.00516957
0.00514472
0.00512683
0.0051143
0.00510589
0.00510065
0.00509884
0.0050993
0.00510055
0.0140537
0.0141012
0.0140677
0.0140662
0.0140258
0.0139958
0.0139816
0.0139542
0.0139265
0.0138942
0.0138322
0.0137816
0.0137269
0.013674
0.0136178
0.0135556
0.0134853
0.0134054
0.0133139
0.0132083
0.0130852
0.0129404
0.0127689
0.0125647
0.0123205
0.0120287
0.0116813
0.0112718
0.0107963
0.0102564
0.0096634
0.00904661
0.00846836
0.00800534
0.00795135
0.00862413
0.0100937
0.0119888
0.0138462
0.015376
0.0164633
0.0170999
0.0173319
0.0172237
0.0168555
0.0163069
0.0156552
0.0149791
0.0142813
0.0135556
0.0128098
0.0120486
0.0112809
0.0105183
0.00977385
0.00906094
0.00839238
0.00777942
0.00723086
0.00675227
0.00634551
0.00600869
0.00573671
0.00552218
0.0053566
0.00523132
0.00513833
0.00507065
0.00502249
0.00498918
0.00496709
0.00495337
0.00494583
0.00494505
0.00494676
0.00494989
0.00495431
0.0049599
0.00496622
0.00497296
0.0140533
0.0141005
0.0140668
0.0140653
0.0140254
0.0139955
0.0139811
0.0139536
0.0139273
0.0138952
0.0138326
0.0137823
0.0137276
0.0136749
0.0136189
0.0135567
0.0134863
0.0134064
0.0133148
0.0132089
0.0130854
0.0129399
0.0127674
0.0125616
0.0123153
0.0120204
0.0116689
0.0112538
0.010771
0.0102219
0.00961788
0.00898883
0.00839865
0.00792072
0.00785081
0.00852925
0.0100388
0.0119962
0.0139166
0.0154945
0.0166094
0.0172528
0.0174726
0.0173363
0.0169261
0.0163247
0.0156142
0.0148934
0.014145
0.0133721
0.012575
0.0117599
0.0109382
0.0101238
0.00933264
0.00858093
0.00788414
0.00725567
0.00670553
0.00623914
0.00585663
0.00555313
0.0053199
0.005146
0.00502007
0.00493157
0.00487146
0.00483245
0.00480894
0.00479656
0.00479443
0.00479706
0.00480206
0.00480963
0.00481887
0.0048291
0.00483983
0.00485075
0.00486163
0.0048723
0.0140529
0.0140999
0.014066
0.0140644
0.014025
0.0139951
0.0139806
0.013953
0.013928
0.013896
0.0138331
0.013783
0.0137282
0.0136757
0.0136198
0.0135577
0.0134873
0.0134073
0.0133156
0.0132095
0.0130856
0.0129395
0.0127661
0.012559
0.0123107
0.012013
0.0116576
0.0112373
0.0107476
0.01019
0.00957554
0.00893485
0.00833357
0.00784188
0.00775471
0.00843641
0.00998035
0.011995
0.0139766
0.015603
0.016748
0.0174019
0.0176137
0.017454
0.0170059
0.0163542
0.0155826
0.0148213
0.014032
0.0132123
0.0123639
0.0114955
0.0106205
0.00975593
0.00892044
0.00813345
0.00741339
0.00677593
0.00623199
0.00578596
0.00543505
0.00517017
0.00497811
0.0048443
0.00475497
0.0046984
0.0046653
0.00464891
0.004647
0.00465113
0.004659
0.00467025
0.00468349
0.00469781
0.0047126
0.00472745
0.00474209
0.00475632
0.00477002
0.00478311
0.0140525
0.0140994
0.0140653
0.0140636
0.0140246
0.0139947
0.01398
0.0139523
0.0139285
0.0138968
0.0138334
0.0137837
0.0137289
0.0136765
0.0136208
0.0135587
0.0134883
0.0134083
0.0133165
0.0132102
0.0130859
0.0129393
0.0127651
0.0125567
0.0123066
0.0120064
0.0116474
0.0112222
0.0107262
0.0101604
0.00953615
0.00888442
0.0082727
0.00776857
0.00766429
0.00834644
0.00991936
0.0119871
0.0140271
0.0157021
0.0168795
0.0175472
0.0177557
0.0175777
0.0170974
0.0164031
0.0155832
0.0147787
0.0139457
0.0130782
0.0121789
0.011258
0.0103314
0.00941844
0.00854121
0.00772246
0.0069838
0.00634317
0.00581184
0.00539214
0.00507703
0.00485219
0.0046998
0.00460213
0.00454392
0.00451318
0.00450134
0.0045045
0.0045128
0.00452616
0.00454248
0.00456034
0.00457888
0.00459752
0.00461586
0.00463365
0.00465075
0.00466705
0.00468251
0.00469711
0.0140522
0.0140989
0.0140646
0.0140628
0.0140243
0.0139943
0.0139795
0.0139517
0.0139288
0.0138975
0.0138338
0.0137843
0.0137295
0.0136773
0.0136216
0.0135597
0.0134893
0.0134093
0.0133174
0.0132109
0.0130863
0.0129393
0.0127643
0.0125548
0.012303
0.0120005
0.0116382
0.0112085
0.0107065
0.010133
0.00949952
0.00883729
0.00821567
0.00770047
0.0075792
0.00825986
0.00985682
0.0119732
0.0140691
0.0157925
0.017004
0.017689
0.0178984
0.0177069
0.0171993
0.0164665
0.0156004
0.0147577
0.0138825
0.0129689
0.0120207
0.0110496
0.0100735
0.00911459
0.00819828
0.00735093
0.00659757
0.00595821
0.00544386
0.00505361
0.00477503
0.00458817
0.00447095
0.0044034
0.00436968
0.00435971
0.00436499
0.00437687
0.00439415
0.00441434
0.00443594
0.00445799
0.00447987
0.00450121
0.00452175
0.00454137
0.00455998
0.00457755
0.00459409
0.00460961
0.014052
0.0140985
0.0140639
0.0140621
0.014024
0.0139938
0.013979
0.0139511
0.0139288
0.0138979
0.0138341
0.0137849
0.01373
0.0136781
0.0136225
0.0135606
0.0134902
0.0134102
0.0133182
0.0132116
0.0130868
0.0129393
0.0127636
0.0125531
0.0122999
0.0119952
0.0116299
0.0111959
0.0106883
0.0101077
0.00946548
0.00879328
0.00816219
0.00763679
0.00749934
0.00817714
0.00979365
0.0119543
0.0141033
0.0158747
0.0171217
0.017827
0.0180414
0.017841
0.0173109
0.0165438
0.0156348
0.0147583
0.0138429
0.0128859
0.0118916
0.0108729
0.00984986
0.00884745
0.00789439
0.00702089
0.00625543
0.00561996
0.00512449
0.00476389
0.00451969
0.00436644
0.00427864
0.00423509
0.0042207
0.00422633
0.00423986
0.00425971
0.00428286
0.00430752
0.00433258
0.00435734
0.00438138
0.00440445
0.00442641
0.00444718
0.00446676
0.00448515
0.00450238
0.0045185
0.0140517
0.0140982
0.0140633
0.0140614
0.0140237
0.0139934
0.0139785
0.0139505
0.0139288
0.013898
0.0138345
0.0137854
0.0137306
0.0136788
0.0136233
0.0135614
0.0134911
0.0134111
0.013319
0.0132123
0.0130872
0.0129394
0.0127631
0.0125517
0.0122972
0.0119905
0.0116223
0.0111845
0.0106717
0.0100844
0.00943384
0.00875218
0.00811204
0.00757688
0.00742505
0.00809861
0.00973055
0.0119312
0.0141307
0.0159493
0.0172327
0.0179611
0.0181841
0.0179793
0.0174312
0.0166341
0.0156856
0.0147781
0.0138277
0.0128306
0.0117934
0.0107303
0.00966306
0.00861943
0.0076315
0.00673331
0.00595687
0.00532583
0.00484864
0.00451531
0.00430118
0.00417583
0.00411125
0.004086
0.00408891
0.00410118
0.00412182
0.00414684
0.00417387
0.00420147
0.0042288
0.00425533
0.00428078
0.00430498
0.00432786
0.00434941
0.00436963
0.00438857
0.00440627
0.0044228
0.0140515
0.0140979
0.0140627
0.0140608
0.0140235
0.013993
0.0139781
0.0139499
0.0139287
0.013898
0.0138348
0.0137859
0.0137311
0.0136794
0.013624
0.0135622
0.0134919
0.0134119
0.0133198
0.013213
0.0130877
0.0129396
0.0127628
0.0125505
0.0122947
0.0119862
0.0116155
0.011174
0.0106564
0.0100628
0.00940446
0.00871383
0.00806504
0.0075207
0.00735917
0.00802438
0.00966817