/*--------------------------------*- C++ -*----------------------------------*\
  =========                 |
  \\      /  F ield         | OpenFOAM: The Open Source CFD Toolbox
   \\    /   O peration     | Website:  https://openfoam.org
    \\  /    A nd           | Version:  8
     \\/     M anipulation  |
\*---------------------------------------------------------------------------*/
FoamFile
{
    version     2.0;
    format      ascii;
    class       volScalarField;
    location    "0.1";
    object      p;
}
// * * * * * * * * * * * * * * * * * * * * * * * * * * * * * * * * * * * * * //

dimensions      [0 2 -2 0 0 0 0];

internalField   nonuniform List<scalar> 
112642
(
-1.6531
-1.6387
-1.62431
-1.60928
-1.59266
-1.57473
-1.55581
-1.53629
-1.51639
-1.49624
-1.47595
-1.45556
-1.4351
-1.41459
-1.39405
-1.37348
-1.35292
-1.33237
-1.31185
-1.29136
-1.27094
-1.25059
-1.23032
-1.21013
-1.19004
-1.17005
-1.15016
-1.13037
-1.11068
-1.09109
-1.0716
-1.05221
-1.03292
-1.01373
-0.994626
-0.975624
-0.956719
-0.9379
-0.919178
-0.900546
-0.882005
-0.863544
-0.845168
-0.826872
-0.808661
-0.790529
-0.77248
-0.754508
-0.736612
-0.718791
-0.701046
-0.683376
-0.665779
-0.64826
-0.630817
-0.613451
-0.596164
-0.578963
-0.561843
-0.54481
-0.527871
-0.511015
-0.494249
-0.477574
-0.460988
-0.44449
-0.428076
-0.41175
-0.395508
-0.379346
-0.363266
-0.347263
-0.33134
-0.315493
-0.299723
-0.284031
-0.268411
-0.252871
-0.237404
-0.222012
-0.20669
-0.191444
-0.176271
-0.161172
-0.146143
-0.131182
-0.116299
-0.101482
-0.0867362
-0.0720587
-0.0574507
-0.0429146
-0.0284443
-0.0140406
0.000295425
0.0145623
0.0287641
0.0429025
0.0569732
0.0709806
0.0849227
0.0988037
0.112622
0.126381
0.140078
0.153714
0.167292
0.180812
0.194272
0.207671
0.221016
0.234305
0.247537
0.260716
0.273836
0.286911
0.299931
0.312897
0.325813
0.338677
0.351488
0.364242
0.376939
0.389575
0.402153
0.414666
0.427115
0.4395
0.451818
0.464071
0.476256
0.488376
0.500428
0.512415
0.524337
0.536191
0.547978
0.559697
0.571348
0.582931
0.594439
0.60588
0.617249
0.628544
0.639768
0.650918
0.661993
0.672994
0.683922
0.694773
0.705548
0.716246
0.726864
0.737402
0.747861
0.758241
0.768542
0.778766
0.78891
0.798979
0.808967
0.818879
0.828712
0.83847
0.848142
0.857733
0.86724
0.876662
0.885997
0.895243
0.904394
0.913452
0.922407
0.93126
0.939996
0.948609
0.957093
0.965437
0.973626
0.981656
0.989514
0.997193
1.00468
1.01198
1.01908
1.02598
1.03268
1.03919
1.04549
1.05159
1.05749
1.06313
1.06845
1.0733
1.07748
1.08066
1.08259
1.08314
1.08328
1.08363
-1.66153
-1.64652
-1.6317
-1.6169
-1.60083
-1.58357
-1.56516
-1.54603
-1.52637
-1.50638
-1.48619
-1.46587
-1.44546
-1.42497
-1.40445
-1.3839
-1.36334
-1.34278
-1.32225
-1.30175
-1.28131
-1.26092
-1.24062
-1.22039
-1.20025
-1.1802
-1.16025
-1.14039
-1.12063
-1.10097
-1.08139
-1.06192
-1.04254
-1.02325
-1.00405
-0.984941
-0.965926
-0.946998
-0.928159
-0.909407
-0.890739
-0.872157
-0.853654
-0.835229
-0.816884
-0.798621
-0.780436
-0.762327
-0.744292
-0.726332
-0.708447
-0.69064
-0.672905
-0.655246
-0.637659
-0.620154
-0.602727
-0.585381
-0.568116
-0.550938
-0.533845
-0.516841
-0.499921
-0.483091
-0.466348
-0.449689
-0.43312
-0.416634
-0.40023
-0.383907
-0.367668
-0.351505
-0.335424
-0.319419
-0.303492
-0.28764
-0.271866
-0.256168
-0.240545
-0.224996
-0.209521
-0.194121
-0.178795
-0.163542
-0.14836
-0.13325
-0.118215
-0.103249
-0.0883537
-0.0735294
-0.0587757
-0.0440917
-0.0294772
-0.0149297
-0.000451912
0.0139573
0.0282997
0.0425741
0.0567856
0.0709259
0.0850067
0.099018
0.112972
0.126859
0.140686
0.154451
0.168155
0.1818
0.195384
0.208908
0.222373
0.23578
0.24913
0.262424
0.27566
0.288843
0.301972
0.315044
0.328061
0.341023
0.353929
0.366776
0.379563
0.392287
0.404949
0.417547
0.430079
0.442544
0.454941
0.467273
0.479534
0.49173
0.503857
0.515914
0.527902
0.539824
0.551674
0.563454
0.575164
0.5868
0.598364
0.609853
0.621269
0.632609
0.643873
0.65506
0.666173
0.677206
0.688162
0.699036
0.709833
0.720549
0.731183
0.741733
0.752201
0.762585
0.77289
0.783112
0.793253
0.803311
0.813289
0.823184
0.832997
0.842727
0.85237
0.861928
0.871399
0.880777
0.890068
0.899263
0.908364
0.917362
0.926256
0.935042
0.943709
0.95225
0.960655
0.968915
0.97702
0.984965
0.992731
1.00032
1.00771
1.01491
1.02192
1.02872
1.03531
1.04171
1.04789
1.05386
1.05958
1.065
1.07
1.07442
1.07803
1.08054
1.08195
1.08231
1.0829
1.08389
-1.67178
-1.65578
-1.64012
-1.62552
-1.60991
-1.59331
-1.5755
-1.55681
-1.53746
-1.5177
-1.49763
-1.4774
-1.45705
-1.43661
-1.41612
-1.3956
-1.37504
-1.35449
-1.33395
-1.31344
-1.29296
-1.27254
-1.25218
-1.2319
-1.21169
-1.19157
-1.17154
-1.15159
-1.13174
-1.11197
-1.0923
-1.07272
-1.05323
-1.03382
-1.0145
-0.995272
-0.976128
-0.95707
-0.938095
-0.919204
-0.900397
-0.881673
-0.863027
-0.844454
-0.825964
-0.807547
-0.78921
-0.770946
-0.75276
-0.734645
-0.716606
-0.698638
-0.68075
-0.662932
-0.645191
-0.62753
-0.609944
-0.592437
-0.575014
-0.557671
-0.540415
-0.523241
-0.506154
-0.489151
-0.472235
-0.455404
-0.438658
-0.421994
-0.405416
-0.388916
-0.372499
-0.356165
-0.339906
-0.323725
-0.307623
-0.291599
-0.275651
-0.259779
-0.243984
-0.228263
-0.212617
-0.197045
-0.18155
-0.166127
-0.150779
-0.135499
-0.120298
-0.105167
-0.0901062
-0.0751208
-0.0602019
-0.0453577
-0.0305814
-0.0158762
-0.00124107
0.0133249
0.0278235
0.0422529
0.0566162
0.0709086
0.0851381
0.0992986
0.113398
0.127433
0.141405
0.155312
0.169157
0.182941
0.196664
0.210324
0.223927
0.237465
0.250948
0.264371
0.277733
0.291043
0.304291
0.317482
0.330613
0.343689
0.356703
0.369655
0.382545
0.395371
0.408132
0.420826
0.433453
0.446012
0.458504
0.470923
0.483274
0.495558
0.507768
0.51991
0.531979
0.543977
0.555902
0.567755
0.579533
0.591236
0.602862
0.614414
0.625885
0.637282
0.648598
0.659833
0.67099
0.682067
0.69306
0.703973
0.714801
0.725547
0.736205
0.74678
0.757267
0.767673
0.777989
0.788225
0.798374
0.808435
0.818413
0.828305
0.838111
0.847829
0.857456
0.866993
0.87644
0.885791
0.895046
0.904202
0.913259
0.92221
0.931048
0.939772
0.948373
0.956838
0.965165
0.973341
0.981359
0.989206
0.996878
1.00436
1.01166
1.01875
1.02565
1.03234
1.03882
1.0451
1.05115
1.05697
1.06251
1.06766
1.07231
1.07624
1.07927
1.08113
1.08213
1.08238
1.08374
1.08566
-1.68351
-1.66613
-1.64951
-1.6348
-1.61952
-1.60356
-1.58635
-1.56819
-1.54922
-1.52973
-1.50986
-1.48976
-1.4695
-1.44914
-1.4287
-1.4082
-1.38768
-1.36714
-1.34659
-1.32606
-1.30556
-1.2851
-1.26468
-1.24433
-1.22405
-1.20384
-1.18371
-1.16366
-1.1437
-1.12382
-1.10402
-1.08432
-1.0647
-1.04515
-1.0257
-1.00633
-0.987046
-0.967844
-0.948722
-0.92968
-0.910721
-0.891843
-0.873039
-0.854313
-0.83566
-0.817084
-0.798583
-0.78016
-0.761806
-0.743524
-0.725318
-0.707185
-0.689123
-0.671139
-0.653232
-0.635396
-0.617636
-0.59996
-0.582359
-0.564842
-0.547406
-0.530052
-0.512785
-0.495601
-0.478498
-0.461483
-0.444549
-0.427701
-0.410933
-0.394249
-0.377645
-0.361121
-0.344676
-0.328308
-0.312018
-0.29581
-0.279675
-0.263617
-0.247639
-0.231732
-0.215904
-0.200149
-0.184473
-0.168866
-0.153337
-0.137881
-0.122499
-0.10719
-0.091954
-0.0767901
-0.0616977
-0.04668
-0.0317317
-0.0168558
-0.00204928
0.0126852
0.0273511
0.0419459
0.0564719
0.0709286
0.0853187
0.0996404
0.113897
0.128088
0.142215
0.156276
0.170275
0.184209
0.19808
0.211887
0.225634
0.239318
0.252941
0.266503
0.280004
0.293445
0.306825
0.320147
0.333404
0.346601
0.359734
0.372806
0.385808
0.398747
0.411619
0.424418
0.437151
0.449814
0.462405
0.474925
0.487372
0.499747
0.512051
0.524279
0.536436
0.548516
0.560524
0.572453
0.584305
0.59608
0.607776
0.619392
0.630928
0.642382
0.653756
0.665048
0.676253
0.687376
0.698417
0.709371
0.720238
0.731019
0.741712
0.752315
0.762832
0.773261
0.783603
0.793857
0.804022
0.814097
0.824085
0.833984
0.843792
0.853508
0.86313
0.872656
0.882086
0.891419
0.900648
0.909773
0.918792
0.927697
0.936483
0.945148
0.95368
0.962069
0.97031
0.978393
0.986312
0.994057
1.00162
1.00899
1.01617
1.02314
1.02992
1.03648
1.04284
1.04899
1.0549
1.06054
1.06585
1.0707
1.07494
1.07835
1.08078
1.08209
1.08284
1.08326
1.08555
1.08868
-1.69565
-1.67703
-1.65939
-1.64412
-1.62893
-1.61343
-1.59683
-1.57925
-1.56075
-1.5416
-1.52198
-1.50205
-1.48192
-1.46165
-1.44129
-1.42084
-1.40035
-1.37983
-1.35928
-1.33874
-1.31821
-1.2977
-1.27723
-1.25681
-1.23645
-1.21615
-1.19592
-1.17577
-1.15569
-1.1357
-1.11578
-1.09595
-1.0762
-1.05653
-1.03694
-1.01744
-0.998009
-0.978661
-0.959393
-0.940204
-0.921096
-0.902062
-0.883104
-0.864226
-0.845415
-0.826679
-0.808019
-0.78943
-0.770912
-0.75247
-0.734094
-0.715795
-0.697566
-0.67941
-0.66133
-0.643323
-0.625391
-0.607538
-0.589763
-0.572067
-0.554453
-0.53692
-0.519468
-0.502099
-0.484814
-0.467612
-0.450491
-0.433453
-0.4165
-0.399625
-0.382831
-0.366117
-0.349483
-0.332925
-0.31645
-0.300049
-0.283729
-0.267482
-0.251314
-0.235224
-0.219209
-0.203267
-0.187404
-0.171616
-0.155904
-0.140263
-0.1247
-0.10921
-0.0937944
-0.0784514
-0.0631822
-0.0479873
-0.0328641
-0.0178127
-0.00283467
0.0120722
0.0269066
0.0416713
0.056364
0.0709859
0.0855391
0.100023
0.11444
0.128791
0.143074
0.157292
0.171444
0.185531
0.199553
0.213509
0.227402
0.241231
0.254996
0.268699
0.282338
0.295916
0.309427
0.322877
0.336262
0.349585
0.362839
0.376026
0.389146
0.402198
0.415177
0.428087
0.440923
0.45369
0.46638
0.478997
0.491541
0.504008
0.516399
0.528716
0.540956
0.553117
0.565199
0.577204
0.589128
0.60097
0.61273
0.624409
0.636004
0.647514
0.65894
0.670281
0.681534
0.692702
0.703782
0.714771
0.725675
0.736486
0.747209
0.75784
0.76838
0.778831
0.789193
0.799461
0.809639
0.819727
0.829722
0.839625
0.849434
0.859147
0.868762
0.878278
0.887692
0.897002
0.906208
0.915301
0.92428
0.933139
0.941872
0.950473
0.958933
0.967244
0.975397
0.983383
0.991197
0.998829
1.00627
1.01352
1.02057
1.02742
1.03406
1.04049
1.0467
1.05269
1.05843
1.06386
1.06888
1.07337
1.07715
1.07999
1.08188
1.0828
1.08355
1.08456
1.0878
1.09208
-1.70801
-1.68838
-1.66973
-1.6536
-1.63821
-1.62297
-1.60689
-1.5899
-1.57191
-1.55318
-1.53387
-1.51416
-1.49419
-1.47404
-1.45374
-1.43336
-1.41291
-1.3924
-1.37186
-1.35131
-1.33075
-1.3102
-1.28967
-1.26919
-1.24875
-1.22836
-1.20804
-1.18779
-1.16761
-1.1475
-1.12747
-1.10752
-1.08764
-1.06785
-1.04813
-1.02849
-1.00893
-0.98944
-0.970033
-0.950701
-0.931448
-0.912265
-0.893157
-0.874125
-0.855163
-0.83627
-0.817452
-0.798702
-0.780025
-0.76142
-0.742883
-0.724417
-0.706019
-0.687695
-0.669444
-0.651268
-0.633164
-0.615135
-0.597188
-0.579313
-0.561522
-0.543806
-0.526172
-0.508621
-0.491151
-0.473761
-0.456453
-0.439227
-0.422082
-0.405019
-0.388034
-0.371127
-0.354304
-0.337559
-0.320888
-0.304301
-0.287787
-0.271354
-0.254995
-0.238716
-0.222511
-0.206384
-0.190334
-0.17436
-0.15846
-0.142635
-0.126889
-0.111215
-0.0956173
-0.0800934
-0.0646451
-0.0492699
-0.0339707
-0.0187421
-0.00359103
0.0114903
0.0264962
0.0414292
0.0562919
0.0710803
0.0857985
0.100446
0.115026
0.129535
0.143977
0.158353
0.172659
0.186901
0.201073
0.21518
0.22922
0.243195
0.257103
0.270948
0.284723
0.298437
0.312084
0.325663
0.339174
0.352619
0.365995
0.379299
0.392534
0.405696
0.418786
0.4318
0.444743
0.457607
0.470395
0.48311
0.495746
0.508302
0.52078
0.533179
0.5455
0.557739
0.569895
0.581969
0.59396
0.605868
0.617687
0.629424
0.64107
0.652633
0.664106
0.675491
0.686786
0.697991
0.709107
0.720129
0.73106
0.741897
0.752641
0.763294
0.773852
0.78432
0.794693
0.804972
0.815158
0.825252
0.835248
0.84515
0.854954
0.86466
0.874265
0.883766
0.893162
0.90245
0.911625
0.920686
0.929625
0.938436
0.947113
0.95565
0.964038
0.972269
0.980333
0.988223
0.99593
1.00345
1.01077
1.01789
1.02481
1.03152
1.03802
1.0443
1.05036
1.05617
1.0617
1.06687
1.07156
1.07562
1.07888
1.08118
1.08262
1.08336
1.0844
1.08627
1.09041
1.09558
-1.72058
-1.70018
-1.68069
-1.66356
-1.64769
-1.63244
-1.61675
-1.60029
-1.58284
-1.56457
-1.54561
-1.52617
-1.50638
-1.48635
-1.46616
-1.44584
-1.42543
-1.40495
-1.38441
-1.36385
-1.34327
-1.32268
-1.30211
-1.28157
-1.26106
-1.24059
-1.22018
-1.19984
-1.17956
-1.15935
-1.1392
-1.11914
-1.09915
-1.07923
-1.05939
-1.03962
-1.01993
-1.00031
-0.980766
-0.961296
-0.941895
-0.92257
-0.903313
-0.884132
-0.865018
-0.845972
-0.826994
-0.808088
-0.789251
-0.770481
-0.751778
-0.733146
-0.714583
-0.696089
-0.677668
-0.659321
-0.641042
-0.622842
-0.604714
-0.586662
-0.568685
-0.550791
-0.532972
-0.515236
-0.497574
-0.479997
-0.4625
-0.445082
-0.427744
-0.410487
-0.393308
-0.376211
-0.35919
-0.342251
-0.325388
-0.308605
-0.291897
-0.27527
-0.258719
-0.242245
-0.225851
-0.209531
-0.193288
-0.177122
-0.161034
-0.145021
-0.129086
-0.113225
-0.0974413
-0.0817332
-0.0661011
-0.0505433
-0.0350617
-0.0196566
-0.00432282
0.010931
0.0261153
0.0412216
0.0562562
0.0712148
0.0861015
0.100915
0.11566
0.130333
0.14494
0.159472
0.173939
0.188334
0.202662
0.216921
0.231112
0.245234
0.259288
0.273276
0.287193
0.301043
0.314824
0.328535
0.342177
0.355747
0.369242
0.382667
0.396017
0.409291
0.422491
0.435613
0.448659
0.461623
0.474512
0.487319
0.500047
0.512693
0.525258
0.53774
0.550138
0.562451
0.574682
0.586823
0.59888
0.610846
0.622726
0.634517
0.646217
0.657824
0.669343
0.680767
0.692099
0.703339
0.714484
0.725534
0.736489
0.747349
0.758111
0.768778
0.779352
0.789829
0.80021
0.810493
0.820683
0.830774
0.84077
0.850664
0.860459
0.870152
0.879742
0.889224
0.898597
0.907857
0.917001
0.926022
0.934919
0.94368
0.9523
0.960773
0.969088
0.977238
0.985216
0.993008
1.00061
1.00802
1.01523
1.02223
1.02901
1.03559
1.04194
1.04807
1.05396
1.05957
1.06485
1.06971
1.07401
1.0776
1.08034
1.08214
1.08328
1.08411
1.08567
1.0885
1.0934
1.09914
-1.73332
-1.71247
-1.69223
-1.67413
-1.65757
-1.64205
-1.62653
-1.6105
-1.59357
-1.57577
-1.55722
-1.53808
-1.51851
-1.49864
-1.47856
-1.45832
-1.43796
-1.41751
-1.39699
-1.37642
-1.35583
-1.33521
-1.31461
-1.29402
-1.27345
-1.25292
-1.23243
-1.212
-1.19163
-1.17132
-1.15108
-1.13091
-1.11081
-1.09077
-1.07081
-1.05092
-1.0311
-1.01135
-0.991674
-0.972063
-0.952525
-0.933056
-0.913655
-0.894319
-0.875056
-0.855855
-0.836721
-0.817654
-0.798656
-0.779721
-0.76085
-0.74205
-0.72332
-0.704655
-0.686061
-0.667539
-0.649084
-0.630704
-0.612393
-0.594161
-0.576002
-0.55792
-0.539914
-0.521984
-0.504134
-0.486363
-0.468669
-0.451056
-0.433521
-0.416066
-0.39869
-0.381393
-0.364174
-0.347035
-0.329972
-0.31299
-0.296085
-0.279258
-0.262509
-0.245836
-0.229243
-0.212727
-0.196287
-0.179926
-0.163643
-0.147436
-0.131307
-0.115253
-0.0992804
-0.0833791
-0.0675597
-0.0518147
-0.0361466
-0.0205554
-0.00503967
0.0103975
0.0257604
0.0410471
0.0562578
0.0713914
0.086451
0.101436
0.11635
0.131192
0.145963
0.160661
0.175289
0.189846
0.204331
0.218747
0.23309
0.247366
0.261568
0.275702
0.289764
0.303755
0.317673
0.331517
0.345291
0.358987
0.372609
0.386155
0.399623
0.413012
0.426323
0.439553
0.452703
0.465772
0.478758
0.491662
0.504482
0.517218
0.529868
0.542432
0.554909
0.567298
0.579598
0.591809
0.603928
0.615956
0.627892
0.639733
0.651483
0.663137
0.674697
0.68616
0.697526
0.708797
0.719967
0.731042
0.742019
0.752896
0.763674
0.774353
0.784935
0.795419
0.805801
0.816087
0.826273
0.836359
0.846343
0.856228
0.866007
0.875682
0.88525
0.894706
0.904049
0.913276
0.922381
0.93136
0.940205
0.94891
0.957469
0.965873
0.974112
0.98218
0.990066
0.997765
1.00526
1.01256
1.01965
1.02653
1.03319
1.03963
1.04584
1.0518
1.05751
1.0629
1.06791
1.07242
1.07629
1.07939
1.08163
1.08305
1.0841
1.08525
1.08749
1.09125
1.09675
1.10281
-1.74623
-1.72511
-1.70422
-1.68524
-1.66785
-1.65185
-1.63627
-1.62052
-1.60403
-1.58671
-1.56858
-1.54979
-1.53048
-1.5108
-1.49086
-1.47072
-1.45042
-1.43002
-1.40954
-1.38899
-1.36839
-1.34778
-1.32714
-1.30652
-1.28591
-1.26532
-1.24477
-1.22427
-1.20382
-1.18342
-1.16308
-1.14281
-1.1226
-1.10246
-1.08239
-1.06237
-1.04243
-1.02256
-1.00274
-0.983
-0.963318
-0.94371
-0.924161
-0.90468
-0.885263
-0.865908
-0.846616
-0.827392
-0.808227
-0.789127
-0.770091
-0.751125
-0.732219
-0.713384
-0.69461
-0.67591
-0.657276
-0.638712
-0.620221
-0.601804
-0.583455
-0.565182
-0.546984
-0.528863
-0.510816
-0.492847
-0.474955
-0.457142
-0.439405
-0.421749
-0.40417
-0.386669
-0.369248
-0.351902
-0.334638
-0.31745
-0.300343
-0.283312
-0.266356
-0.249484
-0.232684
-0.215969
-0.199327
-0.182764
-0.166282
-0.149874
-0.133546
-0.117297
-0.101125
-0.0850318
-0.0690168
-0.0530781
-0.0372201
-0.0214372
-0.00573558
0.00988992
0.0254376
0.0409057
0.0562992
0.0716123
0.0868489
0.102009
0.117099
0.132111
0.147052
0.161919
0.176711
0.191433
0.20608
0.220656
0.235157
0.249586
0.263942
0.278224
0.292432
0.306568
0.320625
0.334608
0.348514
0.362339
0.376089
0.389756
0.403346
0.416852
0.430274
0.443615
0.45687
0.470044
0.483129
0.49613
0.509043
0.521866
0.534603
0.547248
0.559804
0.572267
0.584638
0.596913
0.609096
0.621182
0.633174
0.645065
0.65686
0.668558
0.680157
0.691655
0.703055
0.714351
0.725549
0.736642
0.747636
0.758527
0.769318
0.780003
0.79059
0.801074
0.811455
0.821734
0.831913
0.841985
0.851957
0.861821
0.87158
0.881228
0.890765
0.900188
0.909493
0.918678
0.927736
0.936661
0.945447
0.954089
0.962576
0.970902
0.979058
0.987037
0.994828
1.00242
1.00982
1.017
1.02398
1.03073
1.03726
1.04356
1.04962
1.05542
1.06092
1.06606
1.07076
1.07489
1.07832
1.08094
1.08277
1.08398
1.08513
1.08681
1.08983
1.09439
1.10035
1.1065
-1.7592
-1.73795
-1.7166
-1.69684
-1.6786
-1.66191
-1.64608
-1.63041
-1.61425
-1.59738
-1.57969
-1.56127
-1.54228
-1.52284
-1.50306
-1.48305
-1.46286
-1.44252
-1.42209
-1.40158
-1.38101
-1.36039
-1.33975
-1.31911
-1.29846
-1.27783
-1.25723
-1.23666
-1.21614
-1.19567
-1.17524
-1.15488
-1.13457
-1.11432
-1.09413
-1.074
-1.05394
-1.03394
-1.01399
-0.994116
-0.974298
-0.954549
-0.934854
-0.915224
-0.895658
-0.876145
-0.856699
-0.837308
-0.817983
-0.798714
-0.779513
-0.760371
-0.741294
-0.722279
-0.703328
-0.684446
-0.66563
-0.646884
-0.628203
-0.609594
-0.591056
-0.572588
-0.554195
-0.535873
-0.51763
-0.499458
-0.481363
-0.463347
-0.445404
-0.427539
-0.409755
-0.392045
-0.374413
-0.356862
-0.339387
-0.321993
-0.304673
-0.287431
-0.270271
-0.253187
-0.236183
-0.219256
-0.202409
-0.185639
-0.168951
-0.15234
-0.135807
-0.119355
-0.102981
-0.086688
-0.070474
-0.0543375
-0.0382815
-0.0223067
-0.00640899
0.00940806
0.0251435
0.0408028
0.0563792
0.0718778
0.087296
0.102638
0.117902
0.133094
0.148207
0.163246
0.17821
0.193097
0.207911
0.22265
0.237312
0.251898
0.26641
0.280844
0.295203
0.309483
0.323683
0.337806
0.351847
0.365807
0.379683
0.393477
0.407185
0.420811
0.43435
0.4478
0.461163
0.474438
0.487626
0.500723
0.513727
0.526642
0.539464
0.55219
0.564823
0.577361
0.589798
0.602141
0.614384
0.626529
0.638572
0.650514
0.662356
0.674093
0.685728
0.697259
0.708689
0.720013
0.731231
0.742344
0.75335
0.764253
0.775049
0.785742
0.796326
0.806809
0.817183
0.827452
0.837618
0.847672
0.857622
0.867462
0.877192
0.886809
0.896307
0.90569
0.914948
0.92408
0.93308
0.941942
0.950661
0.959226
0.967631
0.97587
0.983933
0.991811
0.999497
1.00698
1.01426
1.02133
1.02818
1.0348
1.04119
1.04735
1.05324
1.05886
1.06413
1.069
1.07336
1.07709
1.08007
1.08227
1.08381
1.08499
1.08646
1.08881
1.09262
1.09783
1.10407
1.11015
-1.77211
-1.75086
-1.72927
-1.70889
-1.68978
-1.67235
-1.65605
-1.64027
-1.62431
-1.60782
-1.59055
-1.57255
-1.5539
-1.53474
-1.51518
-1.49533
-1.47527
-1.45503
-1.43467
-1.41421
-1.39367
-1.37308
-1.35245
-1.33179
-1.31113
-1.29047
-1.26982
-1.2492
-1.22861
-1.20806
-1.18756
-1.1671
-1.1467
-1.12635
-1.10605
-1.08581
-1.06562
-1.0455
-1.02543
-1.00542
-0.985469
-0.96557
-0.945734
-0.925957
-0.906235
-0.886569
-0.866961
-0.847411
-0.827919
-0.808484
-0.78911
-0.769794
-0.75054
-0.731347
-0.712219
-0.693149
-0.674148
-0.655213
-0.636341
-0.617538
-0.598806
-0.580138
-0.561546
-0.543024
-0.524573
-0.506196
-0.487896
-0.469667
-0.451517
-0.433442
-0.415443
-0.397523
-0.379678
-0.361912
-0.344225
-0.326612
-0.309079
-0.291625
-0.274249
-0.256952
-0.239733
-0.222594
-0.205533
-0.188554
-0.171652
-0.154831
-0.138091
-0.121427
-0.10485
-0.0883488
-0.071929
-0.0555907
-0.0393335
-0.0231573
-0.00706267
0.0089509
0.0248841
0.0407333
0.0565019
0.072189
0.0877936
0.10332
0.118767
0.134137
0.149431
0.164646
0.179783
0.194843
0.209825
0.224729
0.239557
0.254306
0.268973
0.283565
0.298075
0.312504
0.326851
0.341113
0.355294
0.369388
0.383395
0.397316
0.411148
0.424891
0.438545
0.45211
0.46558
0.47896
0.492248
0.505441
0.51854
0.531543
0.544449
0.557259
0.569967
0.582577
0.595086
0.607493
0.619795
0.631997
0.644091
0.656081
0.667967
0.679744
0.691414
0.702979
0.714433
0.725781
0.737017
0.748147
0.759166
0.770077
0.780878
0.791571
0.802154
0.812629
0.822995
0.833249
0.843395
0.853432
0.863353
0.873163
0.882857
0.892433
0.901889
0.911223
0.920427
0.929497
0.938431
0.947219
0.955858
0.964338
0.972652
0.980792
0.98875
0.996519
1.00409
1.01145
1.01861
1.02555
1.03226
1.03874
1.04499
1.05098
1.0567
1.0621
1.06712
1.07168
1.07568
1.07899
1.08156
1.08342
1.08483
1.08616
1.08813
1.09122
1.09577
1.10146
1.10777
1.11358
-1.78482
-1.7638
-1.74217
-1.72132
-1.70147
-1.68325
-1.66635
-1.65029
-1.63437
-1.61814
-1.60127
-1.58369
-1.56541
-1.54657
-1.52727
-1.50762
-1.48771
-1.4676
-1.44733
-1.42694
-1.40645
-1.3859
-1.36528
-1.34463
-1.32395
-1.30327
-1.28259
-1.26192
-1.24127
-1.22065
-1.20007
-1.17953
-1.15903
-1.13858
-1.11818
-1.09782
-1.07752
-1.05728
-1.03708
-1.01694
-0.996848
-0.976812
-0.95683
-0.936902
-0.917027
-0.897201
-0.877433
-0.857722
-0.838061
-0.818457
-0.798909
-0.77942
-0.759983
-0.740612
-0.721297
-0.70204
-0.68285
-0.663719
-0.644656
-0.625656
-0.606721
-0.587856
-0.569057
-0.550328
-0.531668
-0.513082
-0.494568
-0.476129
-0.457762
-0.439469
-0.421255
-0.403115
-0.385054
-0.367068
-0.349158
-0.331328
-0.313574
-0.2959
-0.278304
-0.260787
-0.243348
-0.225988
-0.20871
-0.191512
-0.174395
-0.157355
-0.1404
-0.123525
-0.10673
-0.0900196
-0.0733892
-0.0568423
-0.0403778
-0.0239944
-0.00769778
0.00851945
0.0246519
0.0407005
0.0566651
0.072546
0.088342
0.104057
0.119692
0.135248
0.150724
0.166121
0.181434
0.196671
0.211827
0.226901
0.241897
0.256809
0.271641
0.28639
0.301055
0.315637
0.330131
0.344539
0.358858
0.37309
0.387232
0.401281
0.415238
0.429103
0.442874
0.45655
0.470133
0.483618
0.497006
0.510298
0.523489
0.536583
0.549575
0.562463
0.57525
0.587932
0.60051
0.612981
0.625345
0.637599
0.649747
0.661783
0.67371
0.685527
0.697232
0.708827
0.720309
0.731676
0.742934
0.754075
0.765106
0.776023
0.786828
0.797518
0.808096
0.818564
0.828917
0.839156
0.84928
0.85929
0.869185
0.87896
0.888614
0.898145
0.90755
0.916829
0.925972
0.934974
0.943833
0.952541
0.961091
0.969476
0.977688
0.98572
0.993564
1.00121
1.00866
1.01589
1.02291
1.0297
1.03627
1.0426
1.04868
1.05449
1.06
1.06517
1.06991
1.07413
1.07774
1.08065
1.08286
1.0845
1.08593
1.08761
1.09018
1.09402
1.09919
1.10515
1.11132
1.11672
-1.79728
-1.77665
-1.75516
-1.73405
-1.71361
-1.69463
-1.67706
-1.66055
-1.64452
-1.62844
-1.61189
-1.59469
-1.57682
-1.55832
-1.53932
-1.5199
-1.50017
-1.4802
-1.46005
-1.43974
-1.41933
-1.39881
-1.37822
-1.35759
-1.33691
-1.31621
-1.2955
-1.27479
-1.25409
-1.23341
-1.21275
-1.19213
-1.17155
-1.151
-1.13049
-1.11003
-1.08962
-1.06925
-1.04893
-1.02865
-1.00843
-0.98825
-0.968124
-0.948047
-0.928015
-0.908034
-0.888106
-0.868226
-0.848401
-0.828623
-0.808902
-0.789231
-0.769618
-0.750058
-0.730557
-0.711112
-0.691726
-0.672402
-0.653141
-0.633938
-0.6148
-0.595729
-0.576721
-0.55778
-0.538911
-0.520109
-0.501378
-0.482719
-0.464134
-0.445624
-0.427184
-0.408822
-0.390534
-0.372324
-0.35419
-0.336133
-0.318153
-0.300253
-0.282431
-0.264686
-0.247024
-0.22944
-0.211937
-0.194514
-0.177173
-0.159914
-0.142735
-0.12564
-0.108629
-0.091697
-0.0748538
-0.0580889
-0.0414129
-0.024818
-0.0083101
0.00811476
0.0244513
0.0407053
0.0568706
0.0729505
0.088943
0.104852
0.120679
0.136426
0.152087
0.16767
0.183167
0.198584
0.213916
0.229168
0.244331
0.259415
0.274411
0.289321
0.304145
0.31888
0.333526
0.348081
0.362544
0.376914
0.391189
0.405371
0.419455
0.433441
0.447332
0.461124
0.474817
0.488408
0.5019
0.515289
0.528577
0.541758
0.554834
0.567805
0.580669
0.593424
0.606068
0.618603
0.631027
0.643336
0.655534
0.667618
0.679585
0.691439
0.703178
0.714801
0.726308
0.737697
0.74897
0.760126
0.771165
0.782087
0.792891
0.803581
0.814152
0.824608
0.834947
0.845166
0.855266
0.865249
0.875108
0.884847
0.894458
0.90394
0.913291
0.922507
0.931582
0.940511
0.94929
0.957909
0.966363
0.974647
0.982748
0.990665
0.998385
1.0059
1.01321
1.02031
1.02718
1.03382
1.04023
1.04639
1.05229
1.0579
1.06318
1.06807
1.07249
1.07635
1.07958
1.08212
1.08406
1.08562
1.08723
1.08939
1.09262
1.09715
1.10276
1.10879
1.11462
1.11945
-1.8095
-1.78934
-1.76818
-1.74701
-1.72618
-1.70655
-1.68826
-1.67121
-1.6549
-1.63882
-1.62249
-1.60565
-1.58815
-1.57002
-1.55133
-1.53218
-1.51266
-1.49286
-1.47283
-1.45263
-1.43229
-1.41184
-1.39129
-1.37067
-1.35
-1.32929
-1.30856
-1.28782
-1.26707
-1.24634
-1.22562
-1.20492
-1.18425
-1.16361
-1.143
-1.12244
-1.10191
-1.08143
-1.06098
-1.04058
-1.02021
-0.999898
-0.979627
-0.959398
-0.939215
-0.919075
-0.898985
-0.878939
-0.858945
-0.838994
-0.819094
-0.799243
-0.779447
-0.759701
-0.74001
-0.720372
-0.700792
-0.68127
-0.661804
-0.642397
-0.623053
-0.60377
-0.584549
-0.565397
-0.546309
-0.527287
-0.508335
-0.489453
-0.470644
-0.451904
-0.433239
-0.414647
-0.39613
-0.377688
-0.359323
-0.341034
-0.322824
-0.304691
-0.286635
-0.268662
-0.250768
-0.23295
-0.215218
-0.197563
-0.179995
-0.162505
-0.1451
-0.127779
-0.11054
-0.0933874
-0.0763186
-0.0593345
-0.0424377
-0.0256273
-0.00890191
0.00773473
0.0242838
0.0407449
0.0571193
0.0734038
0.0895978
0.105707
0.121732
0.137672
0.153527
0.169297
0.184984
0.200584
0.216098
0.231527
0.246869
0.262122
0.277289
0.292363
0.307348
0.322242
0.337039
0.351746
0.366352
0.380866
0.395277
0.40959
0.423804
0.437916
0.451925
0.465833
0.479638
0.493338
0.506933
0.520421
0.533802
0.547076
0.560237
0.57329
0.586229
0.599058
0.61177
0.624366
0.636849
0.649214
0.66146
0.67359
0.6856
0.69749
0.70926
0.720911
0.73244
0.74385
0.755137
0.766305
0.777352
0.788278
0.799081
0.809766
0.820328
0.830772
0.841092
0.851291
0.861365
0.871316
0.881141
0.890835
0.900402
0.909831
0.919123
0.928273
0.937275
0.946127
0.954816
0.963343
0.971697
0.979869
0.987857
0.995649
1.00324
1.01062
1.01779
1.02474
1.03145
1.03794
1.04417
1.05015
1.05585
1.06123
1.06626
1.07085
1.07493
1.07842
1.08127
1.08351
1.08528
1.08689
1.08884
1.09156
1.09546
1.10053
1.10639
1.11227
1.11759
1.12175
-1.82132
-1.80181
-1.78112
-1.76009
-1.73904
-1.71889
-1.69994
-1.68227
-1.66556
-1.64934
-1.63311
-1.61653
-1.59938
-1.58161
-1.56325
-1.54439
-1.52511
-1.5055
-1.48563
-1.46555
-1.44529
-1.42491
-1.40442
-1.38383
-1.36318
-1.34247
-1.32173
-1.30096
-1.28018
-1.2594
-1.23862
-1.21785
-1.1971
-1.17638
-1.15568
-1.13501
-1.11437
-1.09377
-1.07321
-1.05268
-1.03218
-1.01173
-0.991311
-0.970936
-0.950597
-0.930302
-0.910049
-0.889839
-0.869673
-0.849547
-0.829471
-0.809441
-0.789455
-0.769523
-0.74964
-0.729807
-0.710029
-0.690302
-0.670634
-0.65102
-0.631464
-0.611967
-0.592531
-0.573158
-0.553846
-0.534605
-0.515426
-0.496316
-0.477275
-0.458306
-0.439409
-0.420581
-0.40183
-0.383154
-0.364551
-0.346028
-0.327577
-0.309209
-0.290914
-0.272703
-0.254568
-0.236516
-0.218546
-0.200658
-0.182849
-0.165128
-0.147488
-0.129935
-0.112464
-0.0950817
-0.0777842
-0.0605734
-0.0434512
-0.0264162
-0.0094719
0.00738417
0.0241521
0.0408299
0.0574134
0.0739091
0.0903101
0.106625
0.122849
0.138991
0.155044
0.171009
0.186885
0.202675
0.218375
0.233986
0.249507
0.264935
0.280274
0.295516
0.310666
0.325718
0.340675
0.35553
0.370284
0.384939
0.399492
0.413938
0.428284
0.44252
0.456653
0.470676
0.484594
0.498402
0.5121
0.52569
0.539165
0.552527
0.565776
0.578909
0.591927
0.604823
0.617605
0.630265
0.642804
0.655222
0.667518
0.679691
0.691739
0.703666
0.715466
0.727143
0.738695
0.75012
0.761424
0.772599
0.783651
0.794579
0.80538
0.816056
0.826608
0.837034
0.847335
0.857508
0.867554
0.87747
0.887255
0.896905
0.906418
0.915791
0.92502
0.9341
0.943025
0.951791
0.960391
0.968816
0.977065
0.985124
0.992988
1.00065
1.00811
1.01535
1.02237
1.02916
1.03572
1.04203
1.04808
1.05386
1.05934
1.06448
1.06922
1.07349
1.07722
1.08034
1.08287
1.08488
1.0866
1.08842
1.0908
1.09413
1.09861
1.10407
1.10997
1.1155
1.12016
1.12355
-1.83282
-1.81404
-1.79389
-1.77317
-1.7521
-1.73161
-1.71208
-1.69378
-1.67656
-1.66007
-1.64381
-1.62739
-1.61053
-1.5931
-1.57508
-1.55652
-1.5375
-1.51811
-1.49841
-1.47847
-1.45833
-1.43803
-1.4176
-1.39706
-1.37644
-1.35575
-1.335
-1.31422
-1.29341
-1.27259
-1.25176
-1.23093
-1.21011
-1.18931
-1.16852
-1.14776
-1.12702
-1.1063
-1.08562
-1.06496
-1.04433
-1.02374
-1.00319
-0.982662
-0.962173
-0.941719
-0.921307
-0.900929
-0.880592
-0.860292
-0.84004
-0.819824
-0.799656
-0.779532
-0.759453
-0.739425
-0.719443
-0.699514
-0.679639
-0.659811
-0.640043
-0.620326
-0.60067
-0.581076
-0.561541
-0.542067
-0.522659
-0.503317
-0.484042
-0.464838
-0.4457
-0.426637
-0.407643
-0.388725
-0.369881
-0.351113
-0.332419
-0.313806
-0.29527
-0.276812
-0.258435
-0.240141
-0.221925
-0.203794
-0.185745
-0.167781
-0.149902
-0.132107
-0.114402
-0.0967794
-0.0792493
-0.0618059
-0.0444518
-0.0271875
-0.010014
0.00706789
0.0240587
0.0409552
0.0577583
0.0744694
0.0910831
0.107608
0.124041
0.140385
0.156641
0.172805
0.188879
0.204862
0.220752
0.236549
0.252251
0.267862
0.283373
0.298789
0.314105
0.32932
0.344434
0.359443
0.37435
0.389147
0.40384
0.418424
0.432899
0.447263
0.461519
0.475662
0.489692
0.503609
0.517414
0.5311
0.544672
0.558124
0.571458
0.584671
0.597764
0.610734
0.62358
0.636301
0.648896
0.661369
0.67371
0.685927
0.698013
0.709971
0.721802
0.733501
0.745074
0.756517
0.767829
0.779013
0.790065
0.800991
0.811787
0.822453
0.832989
0.843397
0.853674
0.863819
0.873832
0.883708
0.89345
0.903052
0.912508
0.92182
0.93098
0.939985
0.948828
0.957503
0.966007
0.974329
0.982463
0.990403
0.998141
1.00567
1.01299
1.02008
1.02695
1.03358
1.03996
1.04609
1.05196
1.05753
1.06277
1.06764
1.07207
1.07601
1.07939
1.08218
1.08444
1.08633
1.08814
1.09027
1.09316
1.09707
1.10202
1.10766
1.11338
1.11841
1.12231
1.12487
-1.84391
-1.82586
-1.80637
-1.78609
-1.76523
-1.74455
-1.72457
-1.70568
-1.68792
-1.67103
-1.65461
-1.63825
-1.6216
-1.60446