/*--------------------------------*- C++ -*----------------------------------*\
  =========                 |
  \\      /  F ield         | OpenFOAM: The Open Source CFD Toolbox
   \\    /   O peration     | Website:  https://openfoam.org
    \\  /    A nd           | Version:  9
     \\/     M anipulation  |
\*---------------------------------------------------------------------------*/
FoamFile
{
    format      ascii;
    class       volScalarField;
    location    "0.015";
    object      p;
}
// * * * * * * * * * * * * * * * * * * * * * * * * * * * * * * * * * * * * * //

dimensions      [1 -1 -2 0 0 0 0];

internalField   nonuniform List<scalar> 
9689
(
99999.5
99999.4
99999.4
99999.3
99999.2
99999.2
99999.1
99999
99999
99998.9
99998.8
99998.8
99998.7
99998.6
99998.6
99998.5
99998.4
99998.4
99998.3
99998.3
99998.2
99998.2
99998.1
99998
99998
99997.9
99997.9
99997.8
99997.8
99997.8
99997.7
99997.7
99997.6
99997.6
99997.6
99997.5
99997.5
99997.5
99997.4
99999.5
99999.4
99999.3
99999.3
99999.2
99999.1
99999.1
99999
99998.9
99998.9
99998.8
99998.7
99998.7
99998.6
99998.5
99998.5
99998.4
99998.4
99998.3
99998.3
99998.2
99998.1
99998.1
99998
99998
99997.9
99997.9
99997.8
99997.8
99997.7
99997.7
99997.7
99997.6
99997.6
99997.5
99997.5
99997.5
99997.4
99997.4
99998.9
99998.8
99998.6
99998.5
99998.4
99998.2
99998.1
99997.9
99997.8
99997.7
99997.5
99997.4
99997.2
99997.1
99997
99996.8
99996.7
99996.6
99996.5
99996.3
99996.2
99996.1
99996
99995.8
99995.7
99995.6
99995.5
99995.4
99995.3
99995.2
99995.1
99995
99994.9
99994.8
99994.7
99994.6
99994.5
99994.4
99994.3
99998.6
99998.4
99998.3
99998.1
99997.9
99997.7
99997.6
99997.4
99997.2
99997.1
99996.9
99996.7
99996.6
99996.4
99996.2
99996.1
99995.9
99995.7
99995.6
99995.4
99995.3
99995.1
99995
99994.8
99994.7
99994.5
99994.4
99994.3
99994.1
99994
99993.9
99993.7
99993.6
99993.5
99993.4
99993.2
99993.1
99993
99992.9
99998.2
99998
99997.8
99997.6
99997.3
99997.1
99996.9
99996.7
99996.5
99996.2
99996
99995.8
99995.6
99995.4
99995.2
99995
99994.8
99994.5
99994.3
99994.1
99993.9
99993.7
99993.6
99993.4
99993.2
99993
99992.8
99992.6
99992.4
99992.3
99992.1
99991.9
99991.8
99991.6
99991.4
99991.3
99991.1
99991
99990.9
99997.9
99997.7
99997.4
99997.1
99996.9
99996.6
99996.4
99996.1
99995.9
99995.6
99995.4
99995.1
99994.8
99994.6
99994.4
99994.1
99993.9
99993.6
99993.4
99993.1
99992.9
99992.7
99992.5
99992.2
99992
99991.8
99991.6
99991.4
99991.1
99990.9
99990.7
99990.5
99990.3
99990.1
99990
99989.8
99989.6
99989.4
99989.2
99997.6
99997.3
99997
99996.7
99996.4
99996.1
99995.8
99995.5
99995.2
99994.9
99994.6
99994.3
99994
99993.8
99993.5
99993.2
99992.9
99992.6
99992.3
99992.1
99991.8
99991.5
99991.3
99991
99990.7
99990.5
99990.2
99990
99989.7
99989.5
99989.2
99989
99988.8
99988.6
99988.3
99988.1
99987.9
99987.7
99987.5
99997.3
99997
99996.6
99996.3
99996
99995.6
99995.3
99995
99994.6
99994.3
99994
99993.6
99993.3
99993
99992.6
99992.3
99992
99991.7
99991.4
99991.1
99990.8
99990.5
99990.2
99989.9
99989.6
99989.3
99989
99988.7
99988.4
99988.1
99987.9
99987.6
99987.3
99987.1
99986.8
99986.6
99986.3
99986.1
99985.8
99997
99996.6
99996.3
99995.9
99995.5
99995.1
99994.8
99994.4
99994
99993.6
99993.3
99992.9
99992.5
99992.2
99991.8
99991.5
99991.1
99990.7
99990.4
99990
99989.7
99989.4
99989
99988.7
99988.3
99988
99987.7
99987.4
99987.1
99986.8
99986.4
99986.1
99985.8
99985.6
99985.3
99985
99984.7
99984.4
99984.2
99996.3
99995.9
99995.5
99995.1
99994.7
99994.2
99993.8
99993.4
99993
99992.6
99992.2
99991.8
99991.4
99991
99990.6
99990.2
99989.8
99989.4
99989
99988.7
99988.3
99987.9
99987.5
99987.2
99986.8
99986.4
99986.1
99985.7
99985.4
99985
99984.7
99984.4
99984
99983.7
99983.4
99983.1
99982.8
99982.5
99996
99995.5
99995.1
99994.6
99994.2
99993.7
99993.3
99992.8
99992.4
99991.9
99991.5
99991
99990.6
99990.2
99989.7
99989.3
99988.9
99988.4
99988
99987.6
99987.2
99986.8
99986.3
99985.9
99985.5
99985.1
99984.8
99984.4
99984
99983.6
99983.2
99982.9
99982.5
99982.2
99981.8
99981.5
99981.1
99980.8
99995.7
99995.2
99994.7
99994.2
99993.7
99993.2
99992.7
99992.2
99991.7
99991.2
99990.8
99990.3
99989.8
99989.3
99988.8
99988.4
99987.9
99987.4
99987
99986.5
99986
99985.6
99985.1
99984.7
99984.3
99983.8
99983.4
99983
99982.6
99982.2
99981.7
99981.3
99980.9
99980.6
99980.2
99979.8
99979.4
99979
99995.3
99994.8
99994.3
99993.7
99993.2
99992.7
99992.1
99991.6
99991.1
99990.5
99990
99989.5
99989
99988.4
99987.9
99987.4
99986.9
99986.4
99985.9
99985.4
99984.9
99984.4
99983.9
99983.4
99983
99982.5
99982
99981.6
99981.1
99980.6
99980.2
99979.8
99979.3
99978.9
99978.5
99978.1
99977.7
99977.3
99995
99994.4
99993.8
99993.2
99992.7
99992.1
99991.5
99990.9
99990.4
99989.8
99989.2
99988.7
99988.1
99987.5
99987
99986.4
99985.9
99985.3
99984.8
99984.2
99983.7
99983.2
99982.6
99982.1
99981.6
99981.1
99980.6
99980.1
99979.6
99979.1
99978.6
99978.1
99977.7
99977.2
99976.7
99976.3
99975.8
99975.4
99994.6
99994
99993.4
99992.7
99992.1
99991.5
99990.9
99990.3
99989.6
99989
99988.4
99987.8
99987.2
99986.6
99986
99985.4
99984.8
99984.2
99983.6
99983
99982.4
99981.9
99981.3
99980.7
99980.2
99979.6
99979.1
99978.5
99978
99977.5
99976.9
99976.4
99975.9
99975.4
99974.9
99974.4
99974
99973.5
99994.2
99993.6
99992.9
99992.2
99991.5
99990.9
99990.2
99989.5
99988.9
99988.2
99987.5
99986.9
99986.2
99985.6
99984.9
99984.3
99983.6
99983
99982.4
99981.7
99981.1
99980.5
99979.9
99979.3
99978.7
99978.1
99977.5
99976.9
99976.3
99975.8
99975.2
99974.6
99974.1
99973.6
99973
99972.5
99972
99971.5
99993.8
99993.1
99992.3
99991.6
99990.9
99990.2
99989.5
99988.7
99988
99987.3
99986.6
99985.9
99985.2
99984.5
99983.8
99983.1
99982.4
99981.7
99981
99980.4
99979.7
99979
99978.4
99977.7
99977.1
99976.4
99975.8
99975.2
99974.6
99974
99973.4
99972.8
99972.2
99971.6
99971
99970.4
99969.9
99969.3
99992.5
99991.8
99991
99990.2
99989.4
99988.7
99987.9
99987.1
99986.3
99985.6
99984.8
99984.1
99983.3
99982.6
99981.8
99981.1
99980.4
99979.6
99978.9
99978.2
99977.5
99976.8
99976.1
99975.4
99974.7
99974
99973.4
99972.7
99972
99971.4
99970.8
99970.1
99969.5
99968.9
99968.3
99967.7
99967.1
99991.9
99991.1
99990.3
99989.4
99988.6
99987.8
99986.9
99986.1
99985.3
99984.5
99983.7
99982.9
99982.1
99981.3
99980.5
99979.7
99978.9
99978.1
99977.3
99976.6
99975.8
99975.1
99974.3
99973.6
99972.8
99972.1
99971.4
99970.7
99970
99969.3
99968.6
99967.9
99967.3
99966.6
99966
99965.3
99964.7
99991.2
99990.3
99989.4
99988.5
99987.7
99986.8
99985.9
99985
99984.1
99983.3
99982.4
99981.5
99980.7
99979.8
99979
99978.1
99977.3
99976.5
99975.6
99974.8
99974
99973.2
99972.4
99971.6
99970.8
99970.1
99969.3
99968.5
99967.8
99967
99966.3
99965.6
99964.9
99964.2
99963.5
99962.8
99962.1
99990.4
99989.4
99988.5
99987.5
99986.6
99985.7
99984.7
99983.8
99982.8
99981.9
99981
99980.1
99979.1
99978.2
99977.3
99976.4
99975.5
99974.6
99973.8
99972.9
99972
99971.2
99970.3
99969.5
99968.6
99967.8
99967
99966.2
99965.4
99964.6
99963.8
99963.1
99962.3
99961.6
99960.8
99960.1
99959.4
99989.4
99988.4
99987.4
99986.4
99985.4
99984.4
99983.4
99982.4
99981.4
99980.4
99979.4
99978.4
99977.4
99976.5
99975.5
99974.5
99973.6
99972.6
99971.7
99970.8
99969.9
99968.9
99968
99967.1
99966.3
99965.4
99964.5
99963.7
99962.8
99962
99961.1
99960.3
99959.5
99958.7
99957.9
99957.2
99956.4
99987.2
99986.2
99985.1
99984
99982.9
99981.9
99980.8
99979.7
99978.7
99977.6
99976.6
99975.5
99974.5
99973.5
99972.5
99971.4
99970.4
99969.4
99968.5
99967.5
99966.5
99965.5
99964.6
99963.6
99962.7
99961.8
99960.9
99960
99959.1
99958.2
99957.3
99956.5
99955.6
99954.8
99954
99953.2
99985.9
99984.7
99983.6
99982.4
99981.3
99980.1
99979
99977.9
99976.7
99975.6
99974.5
99973.4
99972.3
99971.2
99970.1
99969.1
99968
99966.9
99965.9
99964.8
99963.8
99962.8
99961.8
99960.8
99959.8
99958.8
99957.8
99956.9
99955.9
99955
99954.1
99953.2
99952.3
99951.4
99950.5
99949.7
99984.3
99983
99981.8
99980.6
99979.4
99978.2
99976.9
99975.7
99974.6
99973.4
99972.2
99971
99969.8
99968.7
99967.5
99966.4
99965.2
99964.1
99963
99961.9
99960.8
99959.7
99958.7
99957.6
99956.5
99955.5
99954.5
99953.5
99952.5
99951.5
99950.5
99949.5
99948.6
99947.7
99946.7
99945.8
99982.4
99981.1
99979.8
99978.5
99977.2
99975.9
99974.6
99973.3
99972.1
99970.8
99969.6
99968.3
99967.1
99965.8
99964.6
99963.4
99962.2
99961
99959.8
99958.6
99957.5
99956.3
99955.2
99954.1
99953
99951.9
99950.8
99949.7
99948.7
99947.6
99946.6
99945.6
99944.6
99943.6
99942.6
99941.6
99978.8
99977.4
99976
99974.7
99973.3
99971.9
99970.6
99969.3
99967.9
99966.6
99965.3
99963.9
99962.6
99961.3
99960.1
99958.8
99957.5
99956.3
99955
99953.8
99952.6
99951.4
99950.2
99949
99947.8
99946.7
99945.6
99944.4
99943.3
99942.2
99941.2
99940.1
99939.1
99938
99937
99976.2
99974.7
99973.3
99971.8
99970.4
99968.9
99967.5
99966.1
99964.6
99963.2
99961.8
99960.4
99959.1
99957.7
99956.3
99955
99953.6
99952.3
99951
99949.7
99948.4
99947.1
99945.9
99944.6
99943.4
99942.2
99941
99939.8
99938.6
99937.5
99936.3
99935.2
99934.1
99933
99932
99973.2
99971.6
99970.1
99968.5
99967
99965.5
99964
99962.5
99961
99959.5
99958
99956.5
99955
99953.6
99952.1
99950.7
99949.3
99947.9
99946.5
99945.1
99943.8
99942.4
99941.1
99939.8
99938.5
99937.2
99935.9
99934.7
99933.4
99932.2
99931
99929.8
99928.7
99927.5
99926.4
99969.7
99968.1
99966.4
99964.8
99963.2
99961.6
99960
99958.4
99956.8
99955.2
99953.7
99952.1
99950.5
99949
99947.5
99946
99944.5
99943
99941.5
99940.1
99938.6
99937.2
99935.8
99934.4
99933
99931.7
99930.3
99929
99927.7
99926.4
99925.2
99923.9
99922.7
99921.4
99920.3
99964.1
99962.3
99960.6
99958.9
99957.2
99955.5
99953.8
99952.1
99950.5
99948.8
99947.2
99945.5
99943.9
99942.3
99940.7
99939.1
99937.5
99936
99934.5
99932.9
99931.4
99929.9
99928.5
99927
99925.6
99924.2
99922.8
99921.4
99920
99918.7
99917.4
99916.1
99914.8
99913.5
99959.5
99957.7
99955.9
99954.1
99952.3
99950.5
99948.7
99946.9
99945.2
99943.4
99941.7
99939.9
99938.2
99936.5
99934.8
99933.2
99931.5
99929.9
99928.2
99926.6
99925
99923.5
99921.9
99920.4
99918.8
99917.3
99915.9
99914.4
99913
99911.6
99910.2
99908.8
99907.4
99906.1
99952.5
99950.6
99948.7
99946.8
99944.9
99943
99941.1
99939.2
99937.4
99935.6
99933.7
99931.9
99930.1
99928.3
99926.6
99924.8
99923.1
99921.3
99919.6
99918
99916.3
99914.6
99913
99911.4
99909.8
99908.3
99906.7
99905.2
99903.7
99902.2
99900.8
99899.3
99897.9
99946.7
99944.7
99942.6
99940.6
99938.6
99936.6
99934.7
99932.7
99930.7
99928.8
99926.8
99924.9
99923
99921.1
99919.3
99917.4
99915.6
99913.7
99911.9
99910.2
99908.4
99906.7
99904.9
99903.2
99901.6
99899.9
99898.3
99896.7
99895.1
99893.5
99892
99890.4
99888.9
99940.2
99938.1
99936
99933.8
99931.7
99929.6
99927.5
99925.4
99923.4
99921.3
99919.3
99917.2
99915.2
99913.2
99911.2
99909.3
99907.3
99905.4
99903.5
99901.6
99899.7
99897.9
99896
99894.2
99892.5
99890.7
99889
99887.3
99885.6
99883.9
99882.3
99880.7
99879.1
99930.8
99928.6
99926.3
99924.1
99921.9
99919.6
99917.4
99915.2
99913.1
99910.9
99908.7
99906.6
99904.5
99902.4
99900.3
99898.2
99896.2
99894.2
99892.2
99890.2
99888.2
99886.3
99884.4
99882.5
99880.6
99878.8
99877
99875.2
99873.4
99871.7
99869.9
99868.2
99922.8
99920.4
99918
99915.7
99913.3
99911
99908.6
99906.3
99904
99901.7
99899.4
99897.2
99894.9
99892.7
99890.5
99888.3
99886.1
99883.9
99881.8
99879.7
99877.6
99875.6
99873.5
99871.5
99869.5
99867.6
99865.7
99863.8
99861.9
99860.1
99858.2
99856.3
99911.5
99909
99906.5
99904
99901.5
99899
99896.5
99894.1
99891.6
99889.2
99886.8
99884.4
99882.1
99879.7
99877.4
99875.1
99872.8
99870.5
99868.2
99866
99863.8
99861.7
99859.5
99857.4
99855.3
99853.3
99851.2
99849.3
99847.3
99845.3
99843.3
99901.7
99899.1
99896.4
99893.7
99891.1
99888.5
99885.8
99883.2
99880.6
99878.1
99875.5
99873
99870.4
99867.9
99865.4
99863
99860.5
99858.1
99855.7
99853.3
99851
99848.7
99846.4
99844.1
99841.9
99839.7
99837.5
99835.4
99833.3
99831.1
99829
99888.2
99885.4
99882.6
99879.8
99877
99874.2
99871.4
99868.6
99865.9
99863.2
99860.4
99857.8
99855.1
99852.4
99849.8
99847.2
99844.6
99842
99839.5
99837
99834.5
99832
99829.6
99827.2
99824.8
99822.5
99820.2
99818
99815.6
99813.3
99876.5
99873.5
99870.5
99867.5
99864.5
99861.5
99858.5
99855.6
99852.6
99849.7
99846.8
99843.9
99841.1
99838.2
99835.4
99832.6
99829.8
99827
99824.3
99821.6
99819
99816.3
99813.7
99811.1
99808.6
99806.1
99803.6
99801.2
99798.6
99796.1
99860.5
99857.3
99854.1
99850.9
99847.7
99844.5
99841.4
99838.2
99835.1
99832
99828.9
99825.8
99822.7
99819.7
99816.7
99813.7
99810.7
99807.8
99804.9
99802
99799.1
99796.3
99793.5
99790.8
99788.1
99785.4
99782.8
99780
99777.3
99846.4
99843
99839.6
99836.1
99832.7
99829.3
99825.9
99822.5
99819.2
99815.8
99812.5
99809.2
99805.9
99802.6
99799.3
99796.1
99792.9
99789.7
99786.6
99783.5
99780.4
99777.3
99774.3
99771.3
99768.4
99765.5
99762.7
99759.6
99756.6
99827.5
99823.8
99820.1
99816.5
99812.8
99809.1
99805.5
99801.9
99798.3
99794.7
99791.1
99787.5
99784
99780.4
99776.9
99773.5
99770
99766.6
99763.2
99759.9
99756.6
99753.3
99750
99746.8
99743.7
99740.6
99737.2
99733.8
99806.8
99802.8
99798.8
99794.9
99790.9
99787
99783.1
99779.2
99775.3
99771.4
99767.5
99763.7
99759.8
99756
99752.3
99748.5
99744.8
99741.1
99737.5
99733.8
99730.2
99726.7
99723.2
99719.7
99716.3
99712.6
99708.8
99788.3
99784
99779.7
99775.4
99771.2
99766.9
99762.6
99758.4
99754.2
99749.9
99745.7
99741.5
99737.4
99733.2
99729.1
99725
99720.9
99716.9
99712.9
99708.9
99705
99701.1
99697.2
99693.5
99689.7
99685.6
99681.3
99763.6
99759
99754.3
99749.7
99745
99740.4
99735.8
99731.2
99726.6
99722
99717.4
99712.8
99708.3
99703.8
99699.3
99694.8
99690.4
99686
99681.6
99677.3
99673
99668.7
99664.6
99660.4
99655.8
99651
99741.5
99736.5
99731.4
99726.4
99721.3
99716.2
99711.2
99706.1
99701.1
99696.1
99691
99686
99681.1
99676.1
99671.2
99666.3
99661.4
99656.5
99651.7
99646.9
99642.1
99637.4
99632.8
99628.2
99623
99617.5
99712
99706.5
99701
99695.4
99689.9
99684.3
99678.8
99673.3
99667.8
99662.2
99656.7
99651.2
99645.8
99640.3
99634.9
99629.5
99624.1
99618.8
99613.4
99608.1
99602.9
99597.8
99592.7
99586.8
99580.6
99679.4
99673.3
99667.2
99661.2
99655.1
99649
99642.9
99636.8
99630.7
99624.6
99618.6
99612.5
99606.5
99600.5
99594.5
99588.5
99582.5
99576.6
99570.7
99564.8
99559.1
99553.4
99546.7
99539.7
99649.9
99643.2
99636.5
99629.8
99623.1
99616.4
99609.6
99602.9
99596.2
99589.5
99582.7
99576
99569.3
99562.6
99555.9
99549.3
99542.6
99536
99529.4
99522.8
99516.3
99510
99502.4
99494.3
99610.3
99602.9
99595.5
99588.1
99580.6
99573.2
99565.7
99558.3
99550.8
99543.4
99535.9
99528.4
99521
99513.5
99506.1
99498.6
99491.2
99483.7
99476.1
99468.8
99461.9
99453.2
99443.9
99566.1
99557.9
99549.7
99541.5
99533.2
99524.9
99516.6
99508.3
99500
99491.7
99483.4
99475.1
99466.7
99458.2
99449.8
99441.4
99433
99424.4
99416.2
99408.6
99398.7
99387.9
99516.8
99507.6
99498.5
99489.3
99480.1
99470.9
99461.6
99452.3
99443
99433.7
99424.2
99414.8
99405.3
99395.8
99386.4
99376.9
99367.2
99358
99349.3
99338
99325.7
99471.6
99461.4
99451.2
99441
99430.7
99420.5
99410.1
99399.7
99389.2
99378.6
99368.1
99357.5
99346.8
99336.1
99325.5
99314.8
99303.8
99293.3
99283.3
99270.2
99256.5
99410.6
99399.3
99387.9
99376.4
99364.9
99353.2
99341.5
99329.7
99317.9
99306
99294.1
99282.1
99270.1
99258.2
99246
99233.4
99221.4
99210
99195
99179.6
99342.1
99329.3
99316.4
99303.4
99290.3
99277.2
99264
99250.7
99237.4
99224
99210.6
99197.1
99183.5
99169.6
99155.3
99141.8
99128.8
99111.5
99094.5
99264.6
99250.1
99235.6
99220.9
99206.2
99191.4
99176.6
99161.6
99146.7
99131.5
99116.1
99100.7
99085
99068.9
99053.8
99039
99019.1
99000.6
99177
99160.7
99144.4
99127.9
99111.4
99094.7
99078.1
99061.2
99044
99026.7
99009.4
98991.8
98973.6
98956.7
98940
98917.3
98897.2
99096.4
99078.2
99060
99041.6
99023.1
99004.6
98985.8
98966.8
98947.6
98928.2
98909
98889.2
98868.9
98850.2
98831.3
98805.6
98784.3
98987.3
98967
98946.6
98926.1
98905.3
98884.3
98863.1
98841.7
98820.2
98798.8
98776.8
98754.4
98733.8
98712.5
98683.8
98661.6
98864.9
98842.3
98819.4
98796.2
98772.9
98749.5
98725.9
98702.3
98678.7
98654.4
98629.8
98607.4
98583.8
98552.1
98529.7
98727.9
98702.6
98677
98651.5
98625.8
98599.9
98574.2
98548.5
98522
98495.4
98471.5
98445.6
98410.9
98389.4
98575.3
98547.4
98519.6
98491.7
98463.7
98436
98408.4
98379.9
98351.7
98326.7
98298.7
98261.5
98242.2
98407.3
98377.3
98347.4
98317.6
98288.2
98259
98228.9
98199.9
98174.5
98144.7
98106.3
98091
98225
98193.5
98162.3
98131.9
98101.6
98070.8
98042.2
98017.3
97986.2
97948.7
97939.9
98030.7
97998.9
97968.1
97937.6
97907.6
97880.7
97856.4
97825.2
97792.3
97792.4
97798.7
97769.4
97742.1
97718.3
97694.6
97666.4
97647.8
97654.1
97600.5
97577.7
97557.9
97537.6
97519.4
97520.2
97534.1
97417.1
97404.2
97395.1
97397.7
97413.4
97438
97280.2
97300.1
97335.7
97374.9
97345.9
99997.4
99997.4
99997.4
99997.4
99997.4
99997.4
99997.4
99997.4
99997.4
99997.4
99997.4
99997.4
99997.4
99997.4
99997.4
99997.3
99997.4
99997.4
99997.4
99997.4
99997.4
99997.4
99997.4
99997.4
99997.4
99997.4
99997.4
99997.3
99997.3
99997.4
99994.3
99994.2
99994.2
99994.2
99994.2
99994.2
99994.2
99994.2
99994.2
99994.2
99994.2
99994.2
99994.2
99994.2
99994.2
99992.8
99992.8
99992.8
99992.8
99992.8
99992.8
99992.8
99992.8
99992.8
99992.8
99992.8
99992.8
99992.8
99992.8
99992.8
99990.8
99990.8
99990.8
99990.8
99990.8
99990.8
99990.8
99990.8
99990.8
99990.8
99990.8
99990.8
99990.8
99990.8
99990.8
99989.2
99989.1
99989.1
99989.1
99989.1
99989.1
99989.1
99989.1
99989.1
99989.1
99989.1
99989.1
99989.1
99989.1
99989.1
99987.4
99987.4
99987.4
99987.4
99987.4
99987.4
99987.4
99987.4
99987.4
99987.4
99987.4
99987.3
99987.3
99987.3
99987.3
99985.7
99985.7
99985.7
99985.7
99985.7
99985.7
99985.7
99985.7
99985.7
99985.7
99985.7
99985.7
99985.7
99985.7
99985.7
99984
99984
99984
99984
99984
99984
99984
99984
99984
99984
99984
99984
99984
99984
99984
99982.3
99982.3
99982.3
99982.3
99982.3
99982.3
99982.3
99982.3
99982.3
99982.3
99982.3
99982.3
99982.3
99982.3
99982.3
99980.6
99980.6
99980.6
99980.6
99980.6
99980.6
99980.6
99980.6
99980.6
99980.6
99980.6
99980.6
99980.5
99980.5
99980.6
99978.9
99978.9
99978.9
99978.8
99978.8
99978.8
99978.8
99978.8
99978.8
99978.8
99978.8
99978.8
99978.8
99978.8
99978.8
99977.1
99977.1
99977
99977
99977
99977
99977
99977
99977
99977
99977
99977
99977
99977
99977
99975.2
99975.2
99975.2
99975.2
99975.2
99975.2
99975.1
99975.1
99975.1
99975.1
99975.1
99975.1
99975.1
99975.1
99975.1
99973.3
99973.2
99973.2
99973.2
99973.2
99973.2
99973.2
99973.2
99973.2
99973.2
99973.2
99973.2
99973.1
99973.1
99973.2
99971.2
99971.2
99971.2
99971.2
99971.2
99971.2
99971.2
99971.2
99971.1
99971.1
99971.1
99971.1
99971.1
99971.1
99971.1
99969.1
99969.1
99969.1
99969
99969
99969
99969
99969
99969
99969
99969
99969
99968.9
99968.9
99969
99966.8
99966.8
99966.8
99966.8
99966.8
99966.8
99966.7
99966.7
99966.7
99966.7
99966.7
99966.7
99966.7
99966.7
99966.7
99964.4
99964.4
99964.4
99964.4
99964.3
99964.3
99964.3
99964.3
99964.3
99964.3
99964.3
99964.3
99964.2
99964.2
99964.3
99961.8
99961.8
99961.8
99961.8
99961.8
99961.7
99961.7
99961.7
99961.7
99961.7
99961.7
99961.7
99961.7
99961.6
99961.7
99959
99959
99959
99959
99959
99959
99959
99958.9
99958.9
99958.9
99958.9
99958.9
99958.9
99958.9
99958.9
99956.1
99956
99956
99956
99956
99956
99955.9
99955.9
99955.9
99955.9
99955.9
99955.9
99955.9
99955.8
99955.9
99952.8
99952.8
99952.8
99952.7
99952.7
99952.7
99952.7
99952.7
99952.7
99952.6
99952.6
99952.6
99952.6
99952.6
99952.6
99949.3
99949.2
99949.2
99949.2
99949.2
99949.2
99949.1
99949.1
99949.1
99949.1
99949.1
99949.1
99949
99949
99949.1
99945.4
99945.4
99945.4
99945.3
99945.3
99945.3
99945.3
99945.3
99945.2
99945.2
99945.2
99945.2
99945.2
99945.1
99945.2
99941.2
99941.2
99941.1
99941.1
99941.1
99941.1
99941
99941
99941
99941
99941
99940.9
99940.9
99940.9
99940.9
99936.6
99936.5
99936.5
99936.5
99936.4
99936.4
99936.4
99936.4
99936.4
99936.3
99936.3
99936.3
99936.3
99936.2
99936.3
99931.5
99931.4
99931.4
99931.4
99931.4
99931.3
99931.3
99931.3
99931.2
99931.2
99931.2
99931.2
99931.1
99931.1
99931.2
99925.9
99925.8
99925.8
99925.8
99925.7
99925.7
99925.7
99925.7
99925.6
99925.6
99925.6
99925.6
99925.5
99925.5
99925.5
99919.7
99919.7
99919.6
99919.6
99919.6
99919.6
99919.5
99919.5
99919.5
99919.4
99919.4
99919.4
99919.3
99919.3
99919.4
99913
99912.9
99912.9
99912.8
99912.8
99912.8
99912.7
99912.7
99912.7
99912.6
99912.6
99912.6
99912.5
99912.5
99912.6
99905.5
99905.4
99905.4
99905.4
99905.3
99905.3
99905.3
99905.2
99905.2
99905.2
99905.1
99905.1
99905.1
99905
99905.1
99897.4
99897.2
99897.2
99897.2
99897.1
99897.1
99897.1
99897
99897
99897
99896.9
99896.9
99896.8
99896.8
99896.9
99888.4
99888.2
99888.2
99888.2
99888.1
99888.1
99888
99888
99888
99887.9
99887.9
99887.8
99887.8
99887.8
99887.8
99878.5
99878.3
99878.3
99878.3
99878.2
99878.2
99878.1
99878.1
99878
99878
99878
99877.9
99877.9
99877.8
99877.9
99867.6
99867.5
99867.4
99867.4
99867.3
99867.3
99867.3
99867.2
99867.2
99867.1
99867.1
99867
99867
99866.9
99867
99855.7
99855.6
99855.5
99855.5
99855.4
99855.4
99855.3
99855.3
99855.2
99855.2
99855.1
99855.1
99855
99855
99855
99842.7
99842.5
99842.4
99842.4
99842.3
99842.3
99842.2
99842.2
99842.1
99842.1
99842
99842
99841.9
99841.9
99841.9
99828.4
99828.1
99828.1
99828
99828
99827.9
99827.9
99827.8
99827.8
99827.7
99827.7
99827.6
99827.5
99827.5
99827.5
99812.7
99812.4
99812.4
99812.3
99812.3
99812.2
99812.1
99812.1
99812
99812
99811.9
99811.9
99811.8
99811.8
99811.8
99795.5
99795.2
99795.1
99795.1
99795
99795
99794.9
99794.8
99794.8
99794.7
99794.7
99794.6
99794.5
99794.5
99794.5
99776.6
99776.3
99776.3
99776.2
99776.1
99776.1
99776
99775.9
99775.9
99775.8
99775.7
99775.7
99775.6
99775.6
99775.6
99756
99755.6
99755.5
99755.5
99755.4
99755.3
99755.3
99755.2
99755.1
99755.1
99755
99754.9
99754.9
99754.8
99754.8
99733.3
99732.9
99732.8
99732.7
99732.6
99732.6
99732.5
99732.4
99732.4
99732.3
99732.2
99732.1
99732.1
99732
99732
99708.4
99707.9
99707.8
99707.7
99707.6
99707.6
99707.5
99707.4
99707.3
99707.3
99707.2
99707.1
99707.1
99707
99707
99681
99680.4
99680.3
99680.2
99680.1
99680.1
99680
99679.9
99679.8
99679.8
99679.7
99679.6
99679.5
99679.5
99679.5
99650.8
99650.1
99649.9
99649.9
99649.8
99649.8
99649.7
99649.6
99649.5
99649.5
99649.4
99649.3
99649.2
99649.2
99649.2
99617.5
99616.6
99616.5
99616.5
99616.4
99616.3
99616.3
99616.2
99616.1
99616
99616
99615.9
99615.8
99615.8
99615.8
99580.7
99579.7
99579.6
99579.5
99579.5
99579.4
99579.3
99579.3
99579.2
99579.1
99579.1
99579
99578.9
99578.9
99578.9
99539.9
99538.8
99538.7
99538.7
99538.6
99538.6
99538.5
99538.5
99538.4
99538.3
99538.3
99538.2
99538.2
99538.1
99538.2
99494.8
99493.5
99493.4
99493.4
99493.4
99493.3
99493.3
99493.2
99493.2
99493.1
99493.1
99493
99493
99493
99493.1
99444.6
99443.2
99443.1
99443.1
99443.1
99443.1
99443.1
99443.1
99443
99443
99443
99443
99442.9
99442.9
99443.2
99388.9
99387.3
99387.2
99387.4
99387.4
99387.4
99387.4
99387.4
99387.4
99387.4
99387.4
99387.4
99387.4
99387.5
99387.8
99327
99325.3
99325.2
99325.4
99325.5
99325.5
99325.6
99325.6
99325.7
99325.7
99325.8
99325.9
99325.9
99326
99326.4
99258.2
99256.4
99256.3
99256.6
99256.7
99256.8
99257
99257.1
99257.2
99257.4
99257.5
99257.6
99257.7
99257.9
99258.4
99181.9
99179.9
99179.9
99180.4
99180.6
99180.8
99181
99181.2
99181.5
99181.7
99181.9
99182.1
99182.3
99182.6
99183.2
99097.4
99095.3
99095.3
99096
99096.3
99096.6
99097
99097.3
99097.7
99098.1
99098.4
99098.8
99099.1
99099.5
99100.2
99004
99001.8
99002
99002.8
99003.3
99003.8
99004.3
99004.9
99005.4
99005.9
99006.4
99007
99007.4
99008
99008.9
98901.3
98898.9
98899.3
98900.4
98901.2
98901.9
98902.6
98903.4
98904.1
98904.9
98905.6
98906.4
98907.1
98907.9
98909
98788.8
98786.4
98787.1
98788.5
98789.6
98790.5
98791.6
98792.6
98793.6
98794.7
98795.7
98796.8
98797.8
98798.8
98800.2
98666.7
98664.2
98665.3
98667.1
98668.5
98669.8
98671.2
98672.7
98674.1
98675.5
98676.9
98678.3
98679.6
98681.1
98682.7
98535.1
98532.6
98534.2
98536.4
98538.3
98540.1
98542
98543.9
98545.7
98547.6
98549.5
98551.3
98553.2
98555
98557
98394.8
98392.5
98394.8
98397.5
98400
98402.4
98404.9
98407.3
98409.7
98412.2
98414.6
98417
98419.4
98421.8
98424.3
98247.5
98245.4
98248.5
98252
98255.1
98258.2
98261.4
98264.5
98267.6
98270.7
98273.8
98276.9
98279.9
98283
98286.1
98096.1
98094.5
98098.6
98102.9
98106.9
98110.8
98114.8
98118.7
98122.6
98126.6
98130.5
98134.4
98138.2
98142.1
98146
97944.4
97943.4
97948.2
97953.2
97958.1
97962.8
97967.6
97972.3
97977
97981.6
97986.3
97990.9
97995.5
98000
98004.6
97795.9
97796.3
97802.7
97808.9
97814.8
97820.6
97826.4
97832.2
97838
97843.7
97849.4
97855
97860.6
97866.2
97871.8
97656.7
97660.2
97667.2
97674.3
97681.2
97687.9
97694.7
97701.4
97708.1
97714.8
97721.4
97727.9
97734.4
97740.9
97747.4
97536.5
97542.3
97550.3
97558.2
97565.9
97573.5
97581.1
97588.7
97596.2
97603.6
97611
97618.3
97625.6
97632.8
97640.1
97440
97447.9
97456.6
97465.1
97473.4
97481.7
97490
97498.1
97506.2
97514.2
97522.2
97530.1
97537.9
97545.7
97553.4
97376.2
97385.4
97394.6
97403.4
97412
97420.6
97429.1
97437.5
97445.9
97454.2
97462.4
97470.5
97478.6
97486.6
97494.6
97346.8
97355.8
97364.4
97372.9
97381.3
97389.6
97397.9
97406.1
97414.3
97422.3
97430.3
97438.2
97446
97453.8
97461.4
97405.9
97412.4
97419.1
97425.9
97432.7
97439.6
97446.5
97453.3
97460.3
97497.5
97502.3
97506.8
99997.4
99997.4
99997.4
99997.4
99997.4
99997.4
99997.3
99997.3
99997.3
99997.4
99994.2
99994.2
99994.2
99994.2
99994.2
99992.8
99992.8
99992.8
99992.8
99992.8
99990.8
99990.7
99990.7
99990.7
99990.8
99989.1
99989.1
99989.1
99989.1
99989.1
99987.3
99987.3
99987.3
99987.3
99987.3
99985.7
99985.7
99985.6
99985.6
99985.7
99984
99983.9
99983.9
99983.9
99984
99982.3
99982.3
99982.2
99982.2
99982.3
99980.6
99980.5
99980.5
99980.5
99980.5
99978.8
99978.8
99978.7
99978.7
99978.8
99977
99976.9
99976.9
99976.9
99976.9
99975.1
99975.1
99975
99975
99975.1
99973.1
99973.1
99973.1
99973.1
99973.1
99971.1
99971
99971
99971
99971
99969
99968.9
99968.9
99968.8
99968.9
99966.7
99966.6
99966.6
99966.6
99966.6
99964.2
99964.2
99964.1
99964.1
99964.1
99961.7
99961.6
99961.5
99961.5
99961.5
99958.9
99958.8
99958.7
99958.7
99958.7
99955.9
99955.8
99955.7
99955.7
99955.7
99952.6
99952.5
99952.4
99952.4
99952.4
99949
99948.9
99948.9
99948.8
99948.8
99945.2
99945
99945
99944.9
99944.9
99940.9
99940.8
99940.7
99940.7
99940.6
99936.2
99936.1
99936
99936
99936
99931.1
99931
99930.9
99930.8
99930.8
99925.5
99925.3
99925.3
99925.2
99925.2
99919.3
99919.1
99919.1
99919
99918.9
99912.5
99912.3
99912.2
99912.1
99912.1
99905
99904.8
99904.7
99904.6
99904.6
99896.8
99896.6
99896.5
99896.4
99896.3
99887.7
99887.5
99887.4
99887.3
99887.2
99877.8
99877.6
99877.4
99877.3
99877.2
99866.9
99866.7
99866.5
99866.4
99866.3
99854.9
99854.7
99854.5
99854.4
99854.3
99841.8
99841.5
99841.4
99841.2
99841.1
99827.4
99827.1
99827
99826.8
99826.6
99811.6
99811.4
99811.2
99811
99810.8
99794.4
99794.1
99793.9
99793.7
99793.5
99775.4
99775.1
99774.9
99774.7
99774.5
99754.7
99754.4
99754.1
99753.9
99753.7
99731.9
99731.6
99731.3
99731.1
99730.9
99706.8
99706.5
99706.3
99706
99705.9
99679.3
99679
99678.7
99678.5
99678.4
99649
99648.7
99648.4
99648.2
99648.1
99615.6
99615.3
99615.1
99614.9
99614.8
99578.8
99578.5
99578.2
99578.1
99578.1
99538.1
99537.8
99537.6
99537.5
99537.6
99493.1
99492.8
99492.6
99492.5
99492.9
99443.2
99442.9
99442.8
99442.8
99443.4
99387.9
99387.8
99387.7
99387.8
99388.7
99326.7
99326.7
99326.7
99327.1
99328.1
99258.9
99259
99259.4
99260
99261.4
99183.9
99184.4
99185.1
99186
99187.8
99101.2
99102.2
99103.4
99104.8
99107
99010.4
99012
99013.8
99015.8
99018.6
98910.9
98913.4
98916
98918.8
98922.5
98802.8
98806.4
98810.1
98813.9
98818.5
98686.2
98691.2
98696.3
98701.4
98707.1
98561.5
98568.2
98575
98581.8
98588.9
98430
98438.8
98447.7
98456.4
98465.3
98293.4
98304.6
98315.8
98326.9
98338.1
98155.1
98169.1
98182.9
98196.6
98210.3
98016.2
98034
98050.7
98067.3
98084
97885
97905.3
97925.2
97944.8
97964.5
97762.7
97786.2
97809.1
97831.8
97854.3
97657
97683.2
97708.6
97733.6
97758.4
97571.7
97599.7
97627
97653.8
97680.1
97513.2
97542.1
97570
97597.4
97624.1
97479.4
97507.3
97534.5
97561
97586.5
97477.2
97502.6
97527.1
97550.8
97573.3
97517.1
97534.7
97552.8
97570.9
97588.6
97583.3
97595.8
97606.1
97614.8
97643.9
97631.7
97620.3
97708.3
97675.3
99997.4
99997.4
99997.4
99997.4
99997.3
99997.3
99997.3
99997.3
99997.3
99997.3
99997.3
99997.3
99997.3
99997.3
99997.3
99997.3
99997.3
99997.3
99997.3
99997.3
99997.3
99997.3
99997.3
99997.3
99997.3
99997.3
99997.3
99997.3
99997.3
99997.3
99997.3
99997.3
99997.3
99997.3
99997.3
99997.3
99997.3
99997.3
99997.3
99997.3
99997.3
99997.3
99997.3
99997.3
99997.3
99997.3
99997.3
99997.4
99997.4
99997.4
99997.4
99997.5
99997.5
99997.6
99997.6
99997.7
99997.7
99997.8
99997.9
99997.9
99998
99998.1
99998.1
99998.2
99998.3
99998.3
99998.4
99998.5
99998.6
99998.7
99998.8
99998.9
99998.9
99999
99999.1
99999.2
99999.3
99999.5
99999.7
99999.9
99997.4
99997.4
99997.4
99997.4
99997.4
99997.4
99997.3
99997.3
99997.3
99997.3
99997.3
99997.3
99997.3
99997.3
99997.3
99997.3
99997.3
99997.3
99997.3
99997.3
99997.3
99997.3
99997.3
99997.3
99997.3
99997.3
99997.3
99997.3
99997.3
99997.3
99997.3
99997.3
99997.3
99997.2
99997.2
99997.2
99997.2
99997.2
99997.2
99997.2
99997.1
99997.1
99997.1
99997.1
99997
99997
99997
99996.9
99996.9
99996.8
99996.8
99996.8
99996.7
99996.7
99996.6
99996.6
99996.6
99996.5
99996.5
99996.5
99996.5
99996.5
99996.5
99996.5
99996.6
99996.6
99996.7
99996.8
99996.9
99997
99997.2
99997.3
99997.5
99997.8
99998.1
99998.4
99998.8
99999.1
99999.4
99999.8
99994.2
99994.2
99994.2
99994.2
99994.2
99994.2
99994.2
99994.2
99994.2
99994.2
99994.2
99994.2
99994.2
99994.2
99994.2
99994.2
99994.2
99994.1
99994.1
99994.1
99994.1
99994.1
99994.1
99994.1
99994.1
99994.1
99994
99994
99994
99994
99994
99994
99993.9
99993.9
99993.9
99993.9
99993.9
99993.8
99993.8
99993.8
99993.8
99993.7
99993.7
99993.7
99993.6
99993.6
99993.6
99993.6
99993.5
99993.5
99993.5
99993.5
99993.4
99993.4
99993.4
99993.4
99993.4
99993.4
99993.4
99993.4
99993.5
99993.5
99993.6
99993.7
99993.8
99993.9
99994
99994.2
99994.4
99994.7
99994.9
99995.3
99995.6
99996.1
99996.5
99997.1
99997.7
99998.3
99999
99999.6
99992.8
99992.8
99992.8
99992.8
99992.8
99992.8
99992.8
99992.8
99992.8
99992.8
99992.8
99992.8
99992.8
99992.7
99992.7