# Forces      
# CofR        : (0.000000e+00 0.000000e+00 0.000000e+00)
# Time        forces(pressure viscous porous)	moments(pressure viscous porous)
0             	((0.000000e+00 0.000000e+00 0.000000e+00) (3.731504e-01 2.360535e-02 1.739060e-19) (0.000000e+00 0.000000e+00 0.000000e+00)) ((0.000000e+00 0.000000e+00 0.000000e+00) (-1.534348e-02 2.425477e-01 -1.732978e-01) (0.000000e+00 0.000000e+00 0.000000e+00))
