# Forces      
# CofR        : (0.000000e+00 0.000000e+00 0.000000e+00)
# Time        forces(pressure viscous porous)	moments(pressure viscous porous)
0.05          	((1.300318e+00 1.192742e+02 1.731555e-19) (6.232127e-01 2.766950e-02 -4.488657e-19) (0.000000e+00 0.000000e+00 0.000000e+00)) ((-7.752826e+01 8.452064e-01 -1.164760e+03) (-1.798517e-02 4.050883e-01 -2.663073e-01) (0.000000e+00 0.000000e+00 0.000000e+00))
