/*--------------------------------*- C++ -*----------------------------------*\
  =========                 |
  \\      /  F ield         | OpenFOAM: The Open Source CFD Toolbox
   \\    /   O peration     | Website:  https://openfoam.org
    \\  /    A nd           | Version:  8
     \\/     M anipulation  |
\*---------------------------------------------------------------------------*/
FoamFile
{
    version     2.0;
    format      ascii;
    class       volScalarField;
    location    "1";
    object      nuTilda;
}
// * * * * * * * * * * * * * * * * * * * * * * * * * * * * * * * * * * * * * //

dimensions      [0 2 -1 0 0 0 0];

internalField   nonuniform List<scalar> 
173000
(
0.000102402
0.000107275
0.000111512
0.000115152
0.000118308
0.000121054
0.000123449
0.00012554
0.000127365
0.000128955
0.000130337
0.000131535
0.000132572
0.000133471
0.00013426
0.000134967
0.000135622
0.000136253
0.000136878
0.000137495
0.000138081
0.000138606
0.000139041
0.000139365
0.000139558
0.000139616
0.0001396
0.000139516
0.000139365
0.00013915
0.000138872
0.000138532
0.000138132
0.000137672
0.000137154
0.000136579
0.000135947
0.000135259
0.000134516
0.000133718
0.000132866
0.000131961
0.000131002
0.00012999
0.000128925
0.000127808
0.000126637
0.000125414
0.000124138
0.000122808
0.000121424
0.000119985
0.00011849
0.000116938
0.000115327
0.000113654
0.000111919
0.000110116
0.000108242
0.000106293
0.000104263
0.000102142
9.99219e-05
9.75883e-05
9.51226e-05
9.24976e-05
8.96715e-05
8.65784e-05
8.31138e-05
7.91239e-05
7.44216e-05
6.88844e-05
6.2674e-05
5.64634e-05
5.12418e-05
4.75655e-05
4.54803e-05
4.48483e-05
4.47465e-05
4.47537e-05
4.47768e-05
4.47938e-05
4.4806e-05
4.4813e-05
4.48147e-05
4.48112e-05
4.48024e-05
4.47883e-05
4.47689e-05
4.47442e-05
4.47142e-05
4.46791e-05
4.46388e-05
4.45934e-05
4.45431e-05
4.44877e-05
4.44265e-05
4.4358e-05
4.42783e-05
4.41702e-05
0.000164236
0.000164759
0.00016505
0.000165079
0.000164893
0.000164509
0.00016394
0.000163198
0.000162288
0.000161217
0.000159995
0.000158633
0.00015715
0.000155574
0.000153954
0.000152364
0.000150918
0.000149776
0.000149123
0.000149104
0.000149717
0.000150782
0.000152089
0.000153518
0.000155006
0.000156535
0.000158044
0.000159529
0.000160991
0.000162431
0.000163849
0.000165246
0.000166623
0.000167979
0.000169315
0.000170633
0.000171931
0.000173211
0.000174472
0.000175716
0.000176941
0.000178149
0.00017934
0.000180513
0.000181668
0.000182807
0.000183928
0.000185032
0.000186119
0.000187189
0.000188243
0.00018928
0.0001903
0.000191305
0.000192293
0.000193264
0.00019422
0.00019516
0.000196084
0.000196993
0.000197886
0.000198765
0.00019963
0.000200481
0.000201321
0.000202151
0.000202975
0.000203801
0.000204635
0.000205491
0.000206379
0.000207301
0.000208238
0.000209148
0.000209978
0.000210703
0.000211325
0.000211867
0.000212372
0.000212855
0.000213319
0.000213761
0.00021418
0.000214576
0.000214949
0.000215298
0.000215623
0.000215924
0.000216201
0.000216454
0.000216682
0.000216887
0.000217067
0.000217223
0.000217355
0.000217463
0.000217545
0.0002176
0.000217618
0.000217571
0.000212071
0.000216499
0.000221689
0.000226733
0.000231658
0.000236467
0.000241172
0.000245785
0.000250317
0.000254778
0.000259178
0.000263527
0.000267832
0.000272102
0.000276341
0.000280555
0.000284745
0.000288907
0.000293036
0.00029712
0.000301144
0.000305095
0.000308961
0.000312739
0.000316451
0.000320102
0.0003237
0.000327244
0.000330735
0.000334176
0.000337568
0.000340911
0.000344206
0.000347454
0.000350655
0.000353809
0.000356918
0.000359981
0.000362999
0.000365971
0.000368899
0.000371781
0.000374619
0.000377412
0.00038016
0.000382862
0.000385518
0.000388128
0.000390692
0.00039321
0.000395683
0.000398109
0.000400488
0.000402821
0.000405108
0.000407348
0.00040954
0.000411686
0.000413784
0.000415836
0.000417839
0.000419795
0.000421704
0.000423565
0.000425379
0.000427146
0.000428867
0.000430543
0.000432175
0.000433763
0.000435307
0.000436804
0.00043825
0.000439639
0.000440968
0.00044224
0.000443457
0.000444625
0.000445747
0.000446822
0.00044785
0.00044883
0.00044976
0.000450641
0.000451471
0.00045225
0.000452978
0.000453654
0.00045428
0.000454853
0.000455375
0.000455846
0.000456265
0.000456633
0.000456949
0.000457214
0.000457427
0.000457587
0.000457692
0.000457732
0.000329728
0.000340465
0.000350769
0.000360618
0.000370074
0.000379181
0.00038798
0.000396506
0.000404787
0.000412847
0.000420707
0.000428385
0.000435895
0.000443249
0.000450456
0.000457525
0.000464463
0.000471275
0.000477966
0.000484542
0.000491006
0.000497362
0.000503614
0.000509769
0.000515831
0.000521803
0.000527686
0.000533482
0.000539194
0.000544822
0.000550368
0.000555834
0.000561221
0.00056653
0.00057176
0.000576914
0.000581991
0.000586993
0.000591918
0.000596769
0.000601545
0.000606247
0.000610875
0.00061543
0.000619911
0.000624316
0.000628646
0.0006329
0.000637078
0.00064118
0.000645206
0.000649156
0.000653029
0.000656826
0.000660547
0.00066419
0.000667757
0.000671246
0.000674658
0.000677992
0.000681248
0.000684427
0.000687527
0.00069055
0.000693494
0.000696362
0.000699152
0.000701865
0.000704503
0.000707064
0.000709548
0.000711953
0.000714276
0.000716511
0.000718658
0.00072072
0.000722699
0.000724597
0.000726416
0.000728157
0.000729818
0.0007314
0.000732901
0.000734321
0.000735659
0.000736914
0.000738087
0.000739178
0.000740185
0.000741109
0.00074195
0.000742709
0.000743384
0.000743976
0.000744485
0.000744911
0.000745254
0.000745511
0.00074568
0.000745758
0.00048254
0.000497614
0.000512007
0.000525803
0.000539074
0.000551881
0.000564276
0.000576302
0.000587997
0.000599393
0.000610515
0.000621388
0.000632029
0.000642456
0.000652681
0.000662717
0.000672574
0.000682261
0.000691785
0.000701156
0.000710378
0.000719456
0.000728398
0.000737208
0.000745889
0.000754444
0.000762872
0.000771177
0.00077936
0.000787423
0.00079537
0.0008032
0.000810915
0.000818518
0.000826008
0.000833387
0.000840655
0.000847813
0.000854861
0.000861801
0.000868633
0.000875356
0.000881974
0.000888486
0.000894894
0.000901195
0.000907386
0.000913467
0.000919439
0.000925302
0.000931055
0.000936698
0.000942232
0.000947655
0.000952968
0.00095817
0.000963262
0.000968242
0.000973112
0.00097787
0.000982516
0.000987051
0.000991474
0.000995784
0.000999983
0.00100407
0.00100804
0.00101191
0.00101566
0.0010193
0.00102283
0.00102624
0.00102954
0.00103272
0.00103577
0.0010387
0.00104152
0.00104422
0.00104681
0.00104928
0.00105163
0.00105388
0.001056
0.00105801
0.00105991
0.00106168
0.00106334
0.00106488
0.00106631
0.00106761
0.0010688
0.00106987
0.00107082
0.00107166
0.00107237
0.00107297
0.00107345
0.00107381
0.00107404
0.00107416
0.000657698
0.000676956
0.000695444
0.000713261
0.000730475
0.000747148
0.000763334
0.000779078
0.000794422
0.000809399
0.00082404
0.000838371
0.000852415
0.000866189
0.000879709
0.000892989
0.000906041
0.000918875
0.000931501
0.000943927
0.000956161
0.00096821
0.000980079
0.000991775
0.0010033
0.00101467
0.00102587
0.0010369
0.00104778
0.00105849
0.00106905
0.00107946
0.00108971
0.00109981
0.00110976
0.00111956
0.00112921
0.00113872
0.00114808
0.00115729
0.00116636
0.00117528
0.00118406
0.00119269
0.00120118
0.00120953
0.00121773
0.00122578
0.00123369
0.00124146
0.00124907
0.00125655
0.00126387
0.00127106
0.00127809
0.00128498
0.00129172
0.00129832
0.00130476
0.00131106
0.00131721
0.00132322
0.00132907
0.00133478
0.00134033
0.00134574
0.001351
0.00135611
0.00136107
0.00136588
0.00137055
0.00137506
0.00137941
0.00138361
0.00138765
0.00139154
0.00139527
0.00139884
0.00140226
0.00140553
0.00140865
0.00141161
0.00141442
0.00141708
0.00141958
0.00142192
0.00142411
0.00142615
0.00142803
0.00142975
0.00143132
0.00143273
0.00143398
0.00143508
0.00143602
0.00143681
0.00143743
0.0014379
0.00143822
0.00143837
0.000852805
0.000876409
0.000899172
0.000921204
0.00094257
0.000963329
0.000983534
0.00100323
0.00102246
0.00104126
0.00105965
0.00107768
0.00109536
0.00111272
0.00112978
0.00114654
0.00116302
0.00117923
0.00119518
0.00121089
0.00122635
0.00124158
0.00125659
0.00127137
0.00128594
0.0013003
0.00131445
0.00132839
0.00134213
0.00135567
0.00136901
0.00138216
0.00139511
0.00140788
0.00142045
0.00143284
0.00144504
0.00145705
0.00146888
0.00148052
0.00149198
0.00150325
0.00151434
0.00152525
0.00153597
0.00154651
0.00155687
0.00156705
0.00157704
0.00158684
0.00159647
0.0016059
0.00161516
0.00162423
0.00163311
0.00164181
0.00165032
0.00165865
0.00166679
0.00167474
0.00168251
0.00169009
0.00169748
0.00170469
0.0017117
0.00171853
0.00172517
0.00173161
0.00173787
0.00174394
0.00174982
0.00175551
0.001761
0.0017663
0.0017714
0.00177631
0.00178101
0.00178553
0.00178985
0.00179398
0.00179791
0.00180165
0.00180519
0.00180854
0.00181169
0.00181465
0.00181741
0.00181997
0.00182234
0.00182451
0.00182649
0.00182826
0.00182984
0.00183123
0.00183241
0.0018334
0.00183419
0.00183478
0.00183517
0.00183536
0.00106709
0.00109519
0.00112239
0.00114881
0.0011745
0.00119953
0.00122395
0.0012478
0.00127112
0.00129394
0.0013163
0.00133822
0.00135974
0.00138088
0.00140165
0.00142207
0.00144216
0.00146193
0.00148138
0.00150054
0.00151941
0.001538
0.00155632
0.00157437
0.00159215
0.00160968
0.00162696
0.00164398
0.00166076
0.0016773
0.0016936
0.00170966
0.00172548
0.00174108
0.00175644
0.00177157
0.00178647
0.00180115
0.0018156
0.00182982
0.00184382
0.00185759
0.00187114
0.00188446
0.00189756
0.00191043
0.00192308
0.00193551
0.00194771
0.00195969
0.00197144
0.00198296
0.00199426
0.00200534
0.00201619
0.00202681
0.0020372
0.00204737
0.00205731
0.00206702
0.0020765
0.00208576
0.00209478
0.00210357
0.00211214
0.00212047
0.00212857
0.00213644
0.00214408
0.00215148
0.00215865
0.00216559
0.00217229
0.00217875
0.00218498
0.00219096
0.00219671
0.00220222
0.00220749
0.00221253
0.00221733
0.00222189
0.00222621
0.00223029
0.00223414
0.00223775
0.00224111
0.00224424
0.00224712
0.00224977
0.00225218
0.00225434
0.00225626
0.00225795
0.00225939
0.00226059
0.00226155
0.00226227
0.00226275
0.00226299
0.00130007
0.0013328
0.00136457
0.00139552
0.0014257
0.00145515
0.00148393
0.00151208
0.00153964
0.00156664
0.00159313
0.00161912
0.00164465
0.00166973
0.00169439
0.00171865
0.00174252
0.00176602
0.00178916
0.00181195
0.0018344
0.00185652
0.00187832
0.0018998
0.00192097
0.00194184
0.00196241
0.00198269
0.00200267
0.00202237
0.00204178
0.00206091
0.00207976
0.00209833
0.00211663
0.00213465
0.0021524
0.00216988
0.0021871
0.00220404
0.00222071
0.00223711
0.00225325
0.00226912
0.00228472
0.00230005
0.00231512
0.00232992
0.00234445
0.00235871
0.0023727
0.00238643
0.00239989
0.00241307
0.00242599
0.00243864
0.00245101
0.00246312
0.00247495
0.00248651
0.0024978
0.00250881
0.00251955
0.00253002
0.00254021
0.00255013
0.00255977
0.00256913
0.00257822
0.00258703
0.00259556
0.00260381
0.00261178
0.00261947
0.00262687
0.002634
0.00264084
0.00264739
0.00265367
0.00265966
0.00266536
0.00267079
0.00267593
0.00268079
0.00268536
0.00268964
0.00269365
0.00269736
0.00270079
0.00270394
0.00270679
0.00270937
0.00271165
0.00271365
0.00271536
0.00271679
0.00271793
0.00271878
0.00271935
0.00271964
0.00155143
0.0015889
0.00162536
0.00166095
0.00169572
0.00172973
0.001763
0.0017956
0.00182755
0.00185889
0.00188965
0.00191987
0.00194956
0.00197876
0.00200748
0.00203574
0.00206356
0.00209095
0.00211794
0.00214452
0.00217071
0.00219652
0.00222196
0.00224704
0.00227175
0.00229611
0.00232013
0.0023438
0.00236714
0.00239014
0.00241281
0.00243515
0.00245717
0.00247886
0.00250023
0.00252129
0.00254202
0.00256244
0.00258254
0.00260233
0.0026218
0.00264096
0.0026598
0.00267833
0.00269655
0.00271446
0.00273205
0.00274933
0.0027663
0.00278295
0.00279929
0.00281532
0.00283103
0.00284643
0.00286151
0.00287627
0.00289072
0.00290485
0.00291866
0.00293215
0.00294533
0.00295818
0.00297072
0.00298293
0.00299483
0.0030064
0.00301765
0.00302857
0.00303917
0.00304945
0.0030594
0.00306903
0.00307832
0.00308729
0.00309593
0.00310424
0.00311222
0.00311987
0.00312718
0.00313417
0.00314083
0.00314715
0.00315315
0.00315881
0.00316414
0.00316914
0.0031738
0.00317813
0.00318213
0.00318579
0.00318912
0.00319212
0.00319478
0.00319711
0.0031991
0.00320076
0.00320209
0.00320308
0.00320374
0.00320407
0.00182098
0.00186329
0.00190454
0.00194488
0.00198436
0.00202304
0.00206094
0.00209811
0.00213459
0.00217041
0.0022056
0.00224018
0.00227419
0.00230765
0.00234057
0.00237299
0.00240491
0.00243635
0.00246733
0.00249785
0.00252793
0.00255758
0.00258681
0.00261562
0.00264402
0.00267202
0.00269962
0.00272683
0.00275366
0.0027801
0.00280616
0.00283185
0.00285716
0.0028821
0.00290667
0.00293087
0.00295471
0.00297819
0.0030013
0.00302405
0.00304643
0.00306846
0.00309012
0.00311143
0.00313237
0.00315295
0.00317318
0.00319304
0.00321254
0.00323168
0.00325046
0.00326888
0.00328694
0.00330463
0.00332196
0.00333893
0.00335553
0.00337176
0.00338763
0.00340314
0.00341827
0.00343304
0.00344744
0.00346147
0.00347513
0.00348842
0.00350134
0.00351389
0.00352607
0.00353787
0.00354929
0.00356034
0.00357102
0.00358131
0.00359123
0.00360077
0.00360993
0.00361871
0.00362712
0.00363514
0.00364278
0.00365004
0.00365692
0.00366341
0.00366953
0.00367526
0.00368061
0.00368558
0.00369016
0.00369437
0.00369818
0.00370162
0.00370467
0.00370734
0.00370962
0.00371152
0.00371304
0.00371418
0.00371494
0.00371532
0.00210862
0.00215587
0.00220201
0.00224722
0.00229153
0.00233499
0.00237765
0.00241952
0.00246065
0.00250108
0.00254082
0.0025799
0.00261836
0.00265622
0.00269349
0.00273019
0.00276635
0.00280197
0.00283708
0.00287168
0.00290578
0.00293941
0.00297255
0.00300523
0.00303745
0.00306922
0.00310053
0.00313141
0.00316185
0.00319185
0.00322143
0.00325058
0.0032793
0.00330761
0.00333549
0.00336296
0.00339002
0.00341666
0.00344289
0.0034687
0.00349411
0.0035191
0.00354369
0.00356786
0.00359163
0.00361498
0.00363793
0.00366047
0.00368259
0.00370431
0.00372562
0.00374651
0.00376699
0.00378706
0.00380672
0.00382596
0.00384479
0.00386321
0.00388121
0.00389879
0.00391595
0.0039327
0.00394903
0.00396494
0.00398043
0.0039955
0.00401015
0.00402437
0.00403817
0.00405155
0.0040645
0.00407702
0.00408912
0.00410079
0.00411203
0.00412284
0.00413323
0.00414318
0.0041527
0.00416179
0.00417044
0.00417867
0.00418646
0.00419382
0.00420075
0.00420724
0.0042133
0.00421892
0.00422411
0.00422887
0.00423319
0.00423708
0.00424053
0.00424354
0.00424613
0.00424828
0.00424999
0.00425128
0.00425214
0.00425256
0.0024143
0.00246658
0.00251773
0.00256789
0.00261714
0.0026655
0.002713
0.00275969
0.00280559
0.00285074
0.00289515
0.00293886
0.00298189
0.00302427
0.003066
0.00310712
0.00314764
0.00318757
0.00322693
0.00326573
0.00330398
0.0033417
0.00337888
0.00341555
0.00345171
0.00348736
0.00352251
0.00355716
0.00359133
0.00362501
0.00365821
0.00369094
0.00372318
0.00375496
0.00378627
0.0038171
0.00384748
0.00387739
0.00390683
0.00393581
0.00396433
0.00399239
0.00401999
0.00404712
0.0040738
0.00410002
0.00412577
0.00415107
0.0041759
0.00420028
0.00422419
0.00424764
0.00427062
0.00429315
0.00431521
0.0043368
0.00435793
0.00437859
0.00439878
0.00441851
0.00443777
0.00445656
0.00447487
0.00449272
0.00451009
0.004527
0.00454342
0.00455938
0.00457485
0.00458986
0.00460438
0.00461842
0.00463199
0.00464507
0.00465768
0.0046698
0.00468144
0.0046926
0.00470327
0.00471346
0.00472316
0.00473238
0.00474112
0.00474936
0.00475713
0.0047644
0.00477119
0.00477749
0.00478331
0.00478863
0.00479347
0.00479782
0.00480169
0.00480506
0.00480795
0.00481036
0.00481228
0.00481372
0.00481467
0.00481515
0.00273802
0.00279543
0.00285166
0.00290688
0.00296115
0.0030145
0.00306696
0.00311857
0.00316934
0.00321931
0.0032685
0.00331694
0.00336465
0.00341166
0.00345797
0.00350361
0.0035486
0.00359295
0.00363668
0.00367979
0.00372231
0.00376423
0.00380557
0.00384633
0.00388653
0.00392618
0.00396527
0.00400381
0.00404181
0.00407927
0.0041162
0.0041526
0.00418847
0.00422382
0.00425865
0.00429295
0.00432674
0.00436001
0.00439276
0.004425
0.00445672
0.00448793
0.00451863
0.00454882
0.00457849
0.00460765
0.00463629
0.00466443
0.00469205
0.00471915
0.00474574
0.00477182
0.00479738
0.00482243
0.00484695
0.00487096
0.00489445
0.00491743
0.00493988
0.00496181
0.00498322
0.00500411
0.00502447
0.00504431
0.00506362
0.00508241
0.00510067
0.0051184
0.0051356
0.00515227
0.00516841
0.00518401
0.00519909
0.00521363
0.00522763
0.0052411
0.00525403
0.00526643
0.00527829
0.00528961
0.00530039
0.00531063
0.00532033
0.00532949
0.00533811
0.00534619
0.00535373
0.00536073
0.00536718
0.00537309
0.00537847
0.0053833
0.00538758
0.00539133
0.00539454
0.00539721
0.00539934
0.00540093
0.00540199
0.00540252
0.00307983
0.00314244
0.00320385
0.00326421
0.00332359
0.00338201
0.00343952
0.00349613
0.00355186
0.00360675
0.00366082
0.00371409
0.00376658
0.00381832
0.00386931
0.00391958
0.00396914
0.00401802
0.00406621
0.00411374
0.00416062
0.00420684
0.00425244
0.00429741
0.00434175
0.00438549
0.00442862
0.00447115
0.00451308
0.00455442
0.00459518
0.00463534
0.00467493
0.00471394
0.00475238
0.00479024
0.00482753
0.00486424
0.00490039
0.00493597
0.00497098
0.00500543
0.0050393
0.00507261
0.00510536
0.00513754
0.00516915
0.00520019
0.00523067
0.00526058
0.00528992
0.00531869
0.00534689
0.00537452
0.00540159
0.00542807
0.00545399
0.00547933
0.0055041
0.00552829
0.00555191
0.00557495
0.00559741
0.00561929
0.00564059
0.00566131
0.00568144
0.00570099
0.00571996
0.00573835
0.00575614
0.00577335
0.00578997
0.005806
0.00582144
0.00583629
0.00585055
0.00586422
0.00587729
0.00588977
0.00590165
0.00591294
0.00592363
0.00593373
0.00594323
0.00595213
0.00596044
0.00596815
0.00597526
0.00598178
0.0059877
0.00599302
0.00599774
0.00600187
0.0060054
0.00600834
0.00601068
0.00601244
0.0060136
0.00601418
0.00343979
0.00350768
0.00357434
0.00363992
0.00370449
0.00376808
0.0038307
0.0038924
0.00395318
0.00401308
0.00407211
0.0041303
0.00418766
0.00424421
0.00429998
0.00435497
0.0044092
0.00446269
0.00451545
0.00456749
0.00461882
0.00466945
0.00471939
0.00476866
0.00481724
0.00486516
0.00491242
0.00495903
0.00500498
0.00505029
0.00509495
0.00513898
0.00518237
0.00522513
0.00526726
0.00530876
0.00534963
0.00538987
0.0054295
0.00546849
0.00550687
0.00554462
0.00558175
0.00561826
0.00565415
0.00568942
0.00572407
0.00575809
0.00579149
0.00582427
0.00585642
0.00588795
0.00591885
0.00594913
0.00597879
0.00600781
0.00603621
0.00606397
0.00609111
0.00611762
0.00614349
0.00616873
0.00619333
0.0062173
0.00624064
0.00626333
0.00628539
0.0063068
0.00632758
0.00634771
0.00636721
0.00638605
0.00640426
0.00642181
0.00643872
0.00645498
0.0064706
0.00648556
0.00649987
0.00651354
0.00652655
0.00653891
0.00655062
0.00656167
0.00657207
0.00658182
0.00659091
0.00659935
0.00660714
0.00661427
0.00662074
0.00662656
0.00663173
0.00663625
0.00664012
0.00664333
0.00664589
0.00664781
0.00664909
0.00664972
0.00381799
0.00389123
0.00396322
0.0040341
0.00410393
0.00417275
0.00424057
0.00430743
0.00437334
0.00443833
0.0045024
0.00456559
0.0046279
0.00468936
0.00474998
0.00480977
0.00486876
0.00492695
0.00498436
0.00504099
0.00509686
0.00515198
0.00520636
0.00526
0.00531291
0.0053651
0.00541658
0.00546734
0.0055174
0.00556675
0.00561541
0.00566338
0.00571065
0.00575723
0.00580313
0.00584834
0.00589287
0.00593672
0.00597989
0.00602238
0.00606419
0.00610532
0.00614577
0.00618555
0.00622465
0.00626307
0.00630081
0.00633788
0.00637426
0.00640997
0.006445
0.00647934
0.006513
0.00654599
0.00657828
0.0066099
0.00664082
0.00667107
0.00670062
0.00672949
0.00675766
0.00678515
0.00681194
0.00683805
0.00686345
0.00688817
0.00691218
0.0069355
0.00695812
0.00698004
0.00700127
0.00702178
0.0070416
0.00706071
0.00707912
0.00709682
0.00711382
0.00713011
0.00714569
0.00716056
0.00717473
0.00718818
0.00720092
0.00721295
0.00722427
0.00723488
0.00724478
0.00725396
0.00726243
0.00727019
0.00727724
0.00728357
0.0072892
0.00729411
0.00729832
0.00730181
0.0073046
0.00730669
0.00730808
0.00730877
0.00421453
0.0042932
0.00437058
0.00444682
0.00452199
0.00459611
0.00466921
0.0047413
0.00481241
0.00488255
0.00495174
0.00502
0.00508734
0.00515377
0.00521933
0.005284
0.00534782
0.00541079
0.00547292
0.00553423
0.00559472
0.00565441
0.0057133
0.0057714
0.00582871
0.00588524
0.00594101
0.00599601
0.00605024
0.00610372
0.00615645
0.00620842
0.00625965
0.00631013
0.00635987
0.00640886
0.00645712
0.00650464
0.00655142
0.00659747
0.00664278
0.00668735
0.00673119
0.00677429
0.00681666
0.0068583
0.0068992
0.00693936
0.00697879
0.00701748
0.00705543
0.00709264
0.00712912
0.00716485
0.00719984
0.00723409
0.0072676
0.00730036
0.00733238
0.00736365
0.00739417
0.00742395
0.00745297
0.00748125
0.00750877
0.00753553
0.00756155
0.0075868
0.0076113
0.00763504
0.00765803
0.00768025
0.00770171
0.00772241
0.00774234
0.00776151
0.00777992
0.00779755
0.00781443
0.00783053
0.00784587
0.00786043
0.00787423
0.00788725
0.00789951
0.007911
0.00792171
0.00793165
0.00794082
0.00794922
0.00795685
0.00796371
0.0079698
0.00797512
0.00797967
0.00798345
0.00798647
0.00798873
0.00799023
0.00799098
0.00462953
0.00471369
0.00479653
0.00487821
0.00495877
0.00503826
0.00511669
0.00519409
0.00527046
0.00534582
0.0054202
0.00549359
0.00556603
0.00563751
0.00570806
0.00577769
0.00584641
0.00591423
0.00598116
0.00604721
0.00611239
0.00617672
0.00624019
0.00630281
0.0063646
0.00642555
0.00648567
0.00654498
0.00660346
0.00666113
0.00671799
0.00677404
0.00682928
0.00688373
0.00693737
0.00699021
0.00704226
0.00709351
0.00714397
0.00719363
0.0072425
0.00729057
0.00733785
0.00738434
0.00743004
0.00747494
0.00751905
0.00756236
0.00760488
0.0076466
0.00768753
0.00772766
0.00776699
0.00780552
0.00784326
0.00788019
0.00791632
0.00795164
0.00798616
0.00801988
0.00805279
0.00808489
0.00811618
0.00814666
0.00817633
0.00820518
0.00823323
0.00826045
0.00828686
0.00831245
0.00833723
0.00836118
0.00838431
0.00840662
0.0084281
0.00844877
0.0084686
0.00848761
0.0085058
0.00852315
0.00853968
0.00855538
0.00857024
0.00858428
0.00859749
0.00860986
0.00862141
0.00863212
0.00864201
0.00865106
0.00865928
0.00866667
0.00867323
0.00867896
0.00868386
0.00868794
0.0086912
0.00869363
0.00869525
0.00869606
0.00506311
0.00515283
0.0052412
0.00532836
0.00541439
0.00549931
0.00558313
0.00566589
0.00574758
0.00582823
0.00590785
0.00598644
0.00606403
0.00614063
0.00621624
0.00629088
0.00636456
0.0064373
0.00650909
0.00657995
0.00664989
0.00671891
0.00678703
0.00685424
0.00692056
0.00698599
0.00705054
0.00711421
0.007177
0.00723892
0.00729997
0.00736016
0.00741949
0.00747795
0.00753555
0.0075923
0.0076482
0.00770323
0.00775742
0.00781075
0.00786323
0.00791486
0.00796563
0.00801556
0.00806463
0.00811285
0.00816021
0.00820672
0.00825238
0.00829718
0.00834113
0.00838422
0.00842645
0.00846782
0.00850834
0.00854799
0.00858678
0.00862471
0.00866177
0.00869796
0.00873329
0.00876775
0.00880134
0.00883407
0.00886591
0.00889689
0.00892699
0.00895621
0.00898456
0.00901203
0.00903862
0.00906433
0.00908915
0.0091131
0.00913616
0.00915833
0.00917962
0.00920002
0.00921954
0.00923816
0.0092559
0.00927274
0.0092887
0.00930376
0.00931793
0.00933122
0.0093436
0.0093551
0.00936571
0.00937542
0.00938424
0.00939217
0.00939921
0.00940536
0.00941062
0.009415
0.00941849
0.0094211
0.00942284
0.00942371
0.00551542
0.00561074
0.0057047
0.00579741
0.00588896
0.00597936
0.00606864
0.0061568
0.00624388
0.00632986
0.00641478
0.00649863
0.00658143
0.00666319
0.00674392
0.00682364
0.00690234
0.00698004
0.00705675
0.00713248
0.00720723
0.00728101
0.00735382
0.00742569
0.0074966
0.00756656
0.00763559
0.00770368
0.00777084
0.00783706
0.00790237
0.00796674
0.0080302
0.00809274
0.00815436
0.00821506
0.00827485
0.00833373
0.00839169
0.00844874
0.00850488
0.00856011
0.00861442
0.00866783
0.00872032
0.0087719
0.00882256
0.00887231
0.00892115
0.00896907
0.00901608
0.00906217
0.00910734
0.00915159
0.00919492
0.00923733
0.00927881
0.00931937
0.00935901
0.00939772
0.0094355
0.00947235
0.00950827
0.00954326
0.00957732
0.00961044
0.00964262
0.00967387
0.00970418
0.00973355
0.00976198
0.00978947
0.00981601
0.00984161
0.00986626
0.00988997
0.00991273
0.00993454
0.0099554
0.00997531
0.00999427
0.0100123
0.0100293
0.0100454
0.0100606
0.0100748
0.010088
0.0101003
0.0101117
0.010122
0.0101315
0.0101399
0.0101475
0.010154
0.0101597
0.0101644
0.0101681
0.0101709
0.0101727
0.0101737
0.00598657
0.00608756
0.00618715
0.00628548
0.00638259
0.00647853
0.00657331
0.00666694
0.00675944
0.00685082
0.00694108
0.00703024
0.0071183
0.00720528
0.00729118
0.00737601
0.00745979
0.00754251
0.00762419
0.00770483
0.00778444
0.00786303
0.0079406
0.00801716
0.00809271
0.00816726
0.00824082
0.00831338
0.00838495
0.00845553
0.00852513
0.00859375
0.00866138
0.00872804
0.00879372
0.00885843
0.00892216
0.00898492
0.0090467
0.00910751
0.00916736
0.00922622
0.00928412
0.00934104
0.009397
0.00945197
0.00950598
0.00955901
0.00961106
0.00966214
0.00971224
0.00976136
0.0098095
0.00985666
0.00990284
0.00994803
0.00999225
0.0100355
0.0100777
0.010119
0.0101592
0.0101985
0.0102368
0.0102741
0.0103103
0.0103456
0.0103799
0.0104132
0.0104455
0.0104768
0.0105071
0.0105364
0.0105647
0.0105919
0.0106182
0.0106435
0.0106677
0.0106909
0.0107132
0.0107344
0.0107546
0.0107738
0.0107919
0.0108091
0.0108252
0.0108403
0.0108545
0.0108675
0.0108796
0.0108907
0.0109007
0.0109098
0.0109178
0.0109248
0.0109308
0.0109358
0.0109397
0.0109427
0.0109447
0.0109457
0.0064767
0.00658342
0.0066887
0.00679268
0.00689541
0.00699694
0.00709726
0.00719641
0.00729438
0.0073912
0.00748685
0.00758136
0.00767473
0.00776697
0.00785808
0.00794808
0.00803697
0.00812475
0.00821144
0.00829705
0.00838156
0.00846501
0.00854738
0.00862868
0.00870892
0.0087881
0.00886622
0.0089433
0.00901932
0.0090943
0.00916824
0.00924114
0.00931299
0.00938381
0.00945359
0.00952234
0.00959006
0.00965673
0.00972238
0.00978699
0.00985057
0.00991312
0.00997463
0.0100351
0.0100946
0.010153
0.0102103
0.0102667
0.010322
0.0103762
0.0104295
0.0104817
0.0105328
0.0105829
0.010632
0.01068
0.0107269
0.0107728
0.0108177
0.0108615
0.0109043
0.010946
0.0109867
0.0110263
0.0110648
0.0111023
0.0111387
0.0111741
0.0112084
0.0112416
0.0112738
0.0113049
0.0113349
0.0113639
0.0113918
0.0114186
0.0114443
0.011469
0.0114926
0.0115151
0.0115366
0.0115569
0.0115762
0.0115945
0.0116116
0.0116277
0.0116426
0.0116565
0.0116694
0.0116811
0.0116918
0.0117014
0.0117099
0.0117173
0.0117237
0.011729
0.0117332
0.0117364
0.0117385
0.0117395
0.00698595
0.00709844
0.00720946
0.00731914
0.00742754
0.00753469
0.00764061
0.00774531
0.0078488
0.00795109
0.00805218
0.00815208
0.00825079
0.00834833
0.00844469
0.0085399
0.00863394
0.00872683
0.00881857
0.00890917
0.00899864
0.00908697
0.00917418
0.00926026
0.00934522
0.00942907
0.00951181
0.00959343
0.00967395
0.00975337
0.00983168
0.00990889
0.009985
0.01006
0.0101339
0.0102068
0.0102785
0.0103491
0.0104187
0.0104871
0.0105545
0.0106207
0.0106859
0.0107499
0.0108129
0.0108748
0.0109356
0.0109952
0.0110538
0.0111113
0.0111677
0.0112229
0.0112771
0.0113302
0.0113821
0.011433
0.0114827
0.0115313
0.0115789
0.0116253
0.0116706
0.0117147
0.0117578
0.0117997
0.0118405
0.0118802
0.0119188
0.0119562
0.0119926
0.0120277
0.0120618
0.0120947
0.0121265
0.0121572
0.0121867
0.0122151
0.0122424
0.0122685
0.0122935
0.0123173
0.0123401
0.0123616
0.0123821
0.0124013
0.0124195
0.0124365
0.0124524
0.0124671
0.0124806
0.0124931
0.0125044
0.0125145
0.0125235
0.0125314
0.0125382
0.0125438
0.0125483
0.0125516
0.0125538
0.0125549
0.00751445
0.00763275
0.00774956
0.00786498
0.00797909
0.00809191
0.00820346
0.00831375
0.00842279
0.00853059
0.00863715
0.00874247
0.00884657
0.00894944
0.0090511
0.00915154
0.00925077
0.00934879
0.00944562
0.00954126
0.0096357
0.00972896
0.00982103
0.00991193
0.0100016
0.0100902
0.0101776
0.0102638
0.0103488
0.0104327
0.0105154
0.010597
0.0106774
0.0107566
0.0108347
0.0109116
0.0109874
0.011062
0.0111355
0.0112078
0.0112789
0.0113489
0.0114178
0.0114854
0.0115519
0.0116173
0.0116815
0.0117445
0.0118064
0.0118671
0.0119267
0.0119851
0.0120423
0.0120983
0.0121532
0.0122069
0.0122594
0.0123108
0.012361
0.01241
0.0124578
0.0125045
0.01255
0.0125942
0.0126373
0.0126793
0.01272
0.0127595
0.0127979
0.012835
0.012871
0.0129058
0.0129393
0.0129717
0.0130029
0.0130329
0.0130617
0.0130893
0.0131157
0.0131408
0.0131648
0.0131876
0.0132092
0.0132295
0.0132487
0.0132666
0.0132834
0.0132989
0.0133133
0.0133264
0.0133383
0.013349
0.0133586
0.0133669
0.013374
0.0133799
0.0133846
0.0133882
0.0133905
0.0133917
0.00806232
0.00818648
0.00830911
0.00843032
0.00855017
0.00866869
0.00878591
0.00890183
0.00901646
0.0091298
0.00924186
0.00935264
0.00946214
0.00957038
0.00967735
0.00978306
0.0098875
0.0099907
0.0100926
0.0101933
0.0102928
0.010391
0.010488
0.0105837
0.0106782
0.0107715
0.0108635
0.0109543
0.0110439
0.0111323
0.0112195
0.0113054
0.0113901
0.0114736
0.0115559
0.0116369
0.0117168
0.0117954
0.0118728
0.011949
0.0120239
0.0120977
0.0121702
0.0122415
0.0123116
0.0123805
0.0124481
0.0125145
0.0125797
0.0126437
0.0127064
0.0127679
0.0128282
0.0128873
0.0129451
0.0130017
0.013057
0.0131111
0.013164
0.0132156
0.013266
0.0133151
0.013363
0.0134097
0.0134551
0.0134992
0.0135421
0.0135838
0.0136242
0.0136633
0.0137012
0.0137378
0.0137732
0.0138073
0.0138401
0.0138717
0.013902
0.0139311
0.0139588
0.0139854
0.0140106
0.0140346
0.0140573
0.0140788
0.0140989
0.0141178
0.0141355
0.0141519
0.014167
0.0141808
0.0141933
0.0142046
0.0142147
0.0142234
0.0142309
0.0142372
0.0142422
0.0142459
0.0142484
0.0142496
0.00862967
0.00875973
0.00888822
0.00901525
0.00914088
0.00926515
0.00938806
0.00950964
0.00962988
0.00974879
0.00986638
0.00998264
0.0100976
0.0102112
0.0103235
0.0104345
0.0105442
0.0106526
0.0107597
0.0108654
0.0109699
0.0110731
0.011175
0.0112756
0.0113749
0.0114729
0.0115696
0.0116651
0.0117593
0.0118521
0.0119437
0.0120341
0.0121231
0.0122109
0.0122974
0.0123826
0.0124665
0.0125491
0.0126305
0.0127106
0.0127894
0.0128669
0.0129431
0.0130181
0.0130918
0.0131641
0.0132352
0.0133051
0.0133736
0.0134408
0.0135068
0.0135714
0.0136348
0.0136968
0.0137576
0.013817
0.0138752
0.0139321
0.0139876
0.0140419
0.0140948
0.0141465
0.0141968
0.0142458
0.0142935
0.0143399
0.014385
0.0144288
0.0144712
0.0145123
0.0145521
0.0145906
0.0146278
0.0146636
0.0146981
0.0147313
0.0147632
0.0147937
0.0148229
0.0148507
0.0148773
0.0149025
0.0149263