/*--------------------------------*- C++ -*----------------------------------*\
  =========                 |
  \\      /  F ield         | OpenFOAM: The Open Source CFD Toolbox
   \\    /   O peration     | Website:  https://openfoam.org
    \\  /    A nd           | Version:  8
     \\/     M anipulation  |
\*---------------------------------------------------------------------------*/
FoamFile
{
    version     2.0;
    format      ascii;
    class       volScalarField;
    location    "1";
    object      p;
}
// * * * * * * * * * * * * * * * * * * * * * * * * * * * * * * * * * * * * * //

dimensions      [0 2 -2 0 0 0 0];

internalField   nonuniform List<scalar> 
277560
(
0.897794
0.897011
0.895071
0.89221
0.888535
0.884061
0.878818
0.872855
0.86622
0.858955
0.8511
0.842692
0.833771
0.824373
0.814531
0.804279
0.793649
0.782671
0.771375
0.759788
0.747938
0.73585
0.723547
0.711054
0.698392
0.685582
0.672644
0.659597
0.64646
0.633248
0.619979
0.606667
0.593327
0.579972
0.566615
0.553268
0.539943
0.526649
0.513398
0.500197
0.487057
0.473985
0.460988
0.448074
0.435249
0.422518
0.409889
0.397365
0.384952
0.372653
0.360473
0.348415
0.336482
0.324677
0.313003
0.301462
0.290056
0.278787
0.267656
0.256664
0.245813
0.235103
0.224535
0.214109
0.203826
0.193686
0.183689
0.173834
0.164122
0.154551
0.145123
0.135835
0.126687
0.117678
0.108808
0.100075
0.0914783
0.0830171
0.0746901
0.0664959
0.0584336
0.0505015
0.0426985
0.035023
0.027474
0.0200495
0.0127486
0.00556923
-0.00148953
-0.00842976
-0.0152525
-0.0219597
-0.0285525
-0.0350329
-0.041402
-0.0476618
-0.0538134
-0.0598587
-0.0657989
-0.071636
-0.0773711
-0.0830062
-0.0885422
-0.0939813
-0.0993245
-0.104574
-0.10973
-0.114795
-0.119771
-0.124658
-0.129458
-0.134173
-0.138804
-0.143352
-0.147819
-0.152206
-0.156514
-0.160745
-0.164899
-0.168981
0.898221
0.897463
0.895539
0.892683
0.889011
0.884541
0.8793
0.87334
0.866707
0.859444
0.85159
0.843184
0.834264
0.824865
0.815023
0.804771
0.79414
0.783162
0.771864
0.760276
0.748424
0.736334
0.724029
0.711533
0.698868
0.686055
0.673114
0.660064
0.646922
0.633707
0.620433
0.607116
0.593772
0.580412
0.56705
0.553697
0.540367
0.527068
0.51381
0.500604
0.487458
0.474379
0.461376
0.448455
0.435624
0.422887
0.410251
0.39772
0.3853
0.372994
0.360807
0.348741
0.336802
0.32499
0.313308
0.30176
0.290347
0.27907
0.267932
0.256932
0.246074
0.235356
0.224781
0.214348
0.204058
0.19391
0.183906
0.174044
0.164324
0.154746
0.14531
0.136015
0.12686
0.117844
0.108967
0.100226
0.0916231
0.0831549
0.074821
0.0666199
0.0585508
0.0506118
0.0428022
0.0351199
0.0275643
0.0201331
0.0128257
0.00563988
-0.00142525
-0.00837187
-0.0152008
-0.0219143
-0.0285132
-0.0349997
-0.0413748
-0.0476405
-0.0537979
-0.0598491
-0.0657949
-0.0716377
-0.0773783
-0.0830188
-0.0885602
-0.0940047
-0.0993531
-0.104607
-0.109769
-0.114839
-0.119819
-0.124711
-0.129516
-0.134235
-0.13887
-0.143423
-0.147893
-0.152284
-0.156596
-0.160831
-0.164989
-0.169074
0.899024
0.898263
0.896341
0.893487
0.889818
0.885351
0.880113
0.874155
0.867524
0.860262
0.852409
0.844003
0.835082
0.825682
0.815839
0.805584
0.794951
0.783969
0.772668
0.761076
0.749219
0.737124
0.724813
0.712311
0.69964
0.68682
0.673871
0.660814
0.647664
0.63444
0.621158
0.607832
0.594478
0.581108
0.567736
0.554374
0.541033
0.527723
0.514455
0.501238
0.48808
0.47499
0.461975
0.449043
0.4362
0.423451
0.410803
0.39826
0.385828
0.37351
0.36131
0.349233
0.337281
0.325456
0.313763
0.302202
0.290777
0.279488
0.268337
0.257326
0.246455
0.235726
0.225138
0.214693
0.204391
0.194232
0.184215
0.174342
0.164611
0.155022
0.145574
0.136268
0.127101
0.118074
0.109186
0.100436
0.0918213
0.0833427
0.0749983
0.0667872
0.0587077
0.0507589
0.0429392
0.0352475
0.0276819
0.0202416
0.0129245
0.00572975
-0.00134475
-0.00830001
-0.015138
-0.0218599
-0.0284676
-0.0349622
-0.0413458
-0.0476194
-0.053785
-0.0598438
-0.0657977
-0.0716478
-0.0773962
-0.0830439
-0.0885929
-0.0940443
-0.0994001
-0.104661
-0.10983
-0.114907
-0.119894
-0.124792
-0.129604
-0.134329
-0.138971
-0.14353
-0.148007
-0.152404
-0.156722
-0.160963
-0.165127
-0.169218
0.900211
0.89946
0.897548
0.894704
0.891043
0.886583
0.881352
0.875399
0.868772
0.861513
0.853662
0.845257
0.836337
0.826937
0.817092
0.806836
0.796199
0.785214
0.773909
0.762312
0.750449
0.738347
0.726029
0.713519
0.700839
0.68801
0.675052
0.661984
0.648823
0.635588
0.622293
0.608955
0.595588
0.582204
0.568819
0.555442
0.542086
0.528761
0.515477
0.502244
0.48907
0.475964
0.462933
0.449983
0.437123
0.424357
0.411691
0.39913
0.38668
0.374344
0.362126
0.350031
0.33806
0.326217
0.314505
0.302926
0.291482
0.280174
0.269005
0.257975
0.247086
0.236338
0.225732
0.215269
0.204948
0.19477
0.184736
0.174844
0.165095
0.155488
0.146023
0.136698
0.127514
0.11847
0.109564
0.100797
0.0921653
0.0836698
0.0753085
0.0670807
0.0589847
0.0510196
0.0431836
0.0354758
0.0278944
0.0204383
0.0131057
0.00589546
-0.00119427
-0.00816459
-0.0150175
-0.0217541
-0.0283763
-0.0348853
-0.0412831
-0.0475707
-0.0537502
-0.0598227
-0.0657902
-0.0716536
-0.0774152
-0.0830758
-0.0886377
-0.0941016
-0.0994698
-0.104743
-0.109924
-0.115012
-0.120011
-0.124921
-0.129744
-0.13448
-0.139133
-0.143702
-0.14819
-0.152597
-0.156926
-0.161176
-0.16535
-0.16945
0.901779
0.901042
0.899141
0.896308
0.892657
0.888205
0.882981
0.877033
0.870411
0.863156
0.855307
0.846903
0.837983
0.828582
0.818735
0.808476
0.797835
0.786844
0.775533
0.763928
0.752058
0.739946
0.727618
0.715098
0.702406
0.689564
0.676592
0.663509
0.650333
0.637082
0.623771
0.610416
0.59703
0.583629
0.570224
0.556828
0.543451
0.530106
0.516801
0.503547
0.490351
0.477222
0.464168
0.451196
0.438312
0.425523
0.412833
0.400249
0.387775
0.375414
0.363172
0.351052
0.339057
0.32719
0.315453
0.303849
0.29238
0.281048
0.269854
0.2588
0.247886
0.237113
0.226483
0.215995
0.205651
0.195449
0.18539
0.175475
0.165702
0.156072
0.146583
0.137236
0.128029
0.118962
0.110034
0.101244
0.0925902
0.0840729
0.0756899
0.0674408
0.0593235
0.0513375
0.0434808
0.0357526
0.0281509
0.020675
0.0133226
0.00609302
-0.00101594
-0.00800513
-0.0148768
-0.0216317
-0.0282721
-0.034799
-0.0412145
-0.0475195
-0.0537163
-0.0598057
-0.0657899
-0.0716698
-0.0774476
-0.0831243
-0.0887019
-0.0941814
-0.0995649
-0.104853
-0.110049
-0.115152
-0.120165
-0.125089
-0.129926
-0.134677
-0.139343
-0.143925
-0.148426
-0.152847
-0.157188
-0.161451
-0.165638
-0.16975
0.903719
0.902999
0.901113
0.898293
0.894654
0.890213
0.884998
0.879058
0.872441
0.865191
0.857345
0.848943
0.840023
0.830621
0.820772
0.810509
0.799863
0.788867
0.777547
0.765934
0.754054
0.741931
0.729591
0.717057
0.704351
0.691493
0.678505
0.665405
0.652211
0.63894
0.625609
0.612233
0.598826
0.585402
0.571974
0.558553
0.545153
0.531782
0.518452
0.505171
0.491949
0.478793
0.465711
0.452711
0.439799
0.426981
0.414263
0.401649
0.389145
0.376755
0.364484
0.352333
0.340308
0.328411
0.316644
0.30501
0.293511
0.282148
0.270924
0.259839
0.248895
0.238092
0.227432
0.216914
0.20654
0.196308
0.18622
0.176275
0.166473
0.156814
0.147297
0.137921
0.128685
0.11959
0.110634
0.101816
0.0931353
0.0845905
0.0761808
0.0679047
0.0597612
0.0517487
0.0438663
0.0361122
0.0284854
0.020984
0.0136071
0.00635271
-0.000780243
-0.00779369
-0.0146887
-0.0214673
-0.0281306
-0.0346805
-0.0411183
-0.0474458
-0.0536642
-0.0597756
-0.0657809
-0.0716822
-0.0774806
-0.0831781
-0.0887757
-0.0942754
-0.0996783
-0.104986
-0.110201
-0.115323
-0.120354
-0.125297
-0.130152
-0.13492
-0.139603
-0.144203
-0.148721
-0.153158
-0.157515
-0.161795
-0.165997
-0.170125
0.906023
0.905324
0.903456
0.900652
0.897028
0.892599
0.887394
0.881463
0.874854
0.867608
0.859766
0.851367
0.842447
0.833044
0.823192
0.812924
0.802273
0.791269
0.779941
0.768317
0.756424
0.744289
0.731934
0.719384
0.706661
0.693785
0.680777
0.667656
0.65444
0.641146
0.627791
0.61439
0.600957
0.587506
0.57405
0.560602
0.547172
0.533771
0.52041
0.507098
0.493844
0.480656
0.467541
0.454508
0.441562
0.428709
0.415956
0.403308
0.390769
0.378344
0.366036
0.35385
0.341789
0.329855
0.318052
0.306382
0.294847
0.283448
0.272187
0.261066
0.250086
0.239248
0.228551
0.217998
0.207588
0.197321
0.187198
0.177218
0.167381
0.157687
0.148135
0.138725
0.129456
0.120327
0.111338
0.102487
0.0937732
0.0851959
0.0767542
0.0684463
0.0602715
0.0522279
0.0443148
0.0365302
0.0288734
0.0213423
0.0139361
0.00665264
-0.000508885
-0.00755066
-0.0144735
-0.0212797
-0.0279702
-0.034547
-0.0410111
-0.0473649
-0.053609
-0.0597458
-0.0657762
-0.0717022
-0.077525
-0.0832465
-0.0888678
-0.0943909
-0.0998167
-0.105148
-0.110384
-0.115528
-0.120582
-0.125546
-0.130421
-0.13521
-0.139914
-0.144534
-0.149072
-0.153528
-0.157905
-0.162203
-0.166424
-0.17057
0.908686
0.90801
0.906162
0.903377
0.899769
0.895355
0.890162
0.884241
0.877641
0.870402
0.862564
0.854167
0.845248
0.835843
0.825988
0.815716
0.805057
0.794045
0.782706
0.771071
0.759165
0.747014
0.734643
0.722074
0.709331
0.696434
0.683404
0.670259
0.657018
0.643698
0.630315
0.616885
0.603422
0.589941
0.576453
0.562972
0.549508
0.536073
0.522677
0.509329
0.496038
0.482812
0.46966
0.456588
0.443603
0.430711
0.417918
0.40523
0.39265
0.380184
0.367836
0.355608
0.343506
0.331531
0.319686
0.307974
0.296397
0.284956
0.273654
0.262492
0.25147
0.24059
0.229852
0.219258
0.208806
0.198499
0.188335
0.178314
0.168437
0.158703
0.149112
0.139662
0.130354
0.121187
0.112159
0.10327
0.0945183
0.0859039
0.0774249
0.0690805
0.0608691
0.0527898
0.0448409
0.0370214
0.0293295
0.0217643
0.0143238
0.00700697
-0.000188063
-0.0072624
-0.014218
-0.021056
-0.0277783
-0.0343861
-0.0408814
-0.0472652
-0.0535397
-0.0597058
-0.0657657
-0.0717203
-0.0775718
-0.0833211
-0.0889703
-0.0945203
-0.0999733
-0.10533
-0.110593
-0.115763
-0.120842
-0.12583
-0.130731
-0.135544
-0.140272
-0.144915
-0.149476
-0.153955
-0.158355
-0.162675
-0.166918
-0.171084
0.911699
0.911049
0.909225
0.906461
0.902872
0.898474
0.893295
0.887386
0.880795
0.873563
0.865731
0.857336
0.848418
0.839012
0.829154
0.818876
0.80821
0.797188
0.785838
0.774189
0.762268
0.7501
0.73771
0.725121
0.712356
0.699435
0.686379
0.673207
0.659938
0.646588
0.633174
0.619712
0.606215
0.592698
0.579175
0.565656
0.552155
0.538681
0.525244
0.511856
0.498523
0.485255
0.47206
0.458944
0.445915
0.432979
0.420141
0.407407
0.394781
0.382269
0.369874
0.3576
0.345451
0.333428
0.321537
0.309777
0.298153
0.286665
0.275315
0.264105
0.253036
0.242109
0.231325
0.220683
0.210185
0.199831
0.189621
0.179555
0.169632
0.159853
0.150216
0.140722
0.13137
0.122158
0.113087
0.104154
0.0953602
0.0867033
0.0781822
0.0697962
0.0615436
0.0534235
0.0454342
0.0375748
0.0298435
0.0222392
0.0147602
0.00740527
0.000172588
-0.00693893
-0.0139313
-0.0208055
-0.0275636
-0.0342067
-0.0407369
-0.0471551
-0.0534635
-0.0596631
-0.065756
-0.0717433
-0.0776268
-0.0834078
-0.0890882
-0.0946691
-0.100152
-0.105539
-0.110832
-0.116031
-0.121138
-0.126155
-0.131083
-0.135924
-0.140678
-0.145348
-0.149935
-0.15444
-0.158865
-0.16321
-0.167477
-0.171668
0.915055
0.914436
0.912637
0.909897
0.906329
0.901949
0.896786
0.89089
0.88431
0.877086
0.869259
0.860868
0.851951
0.842544
0.832682
0.822397
0.811724
0.800691
0.789328
0.777665
0.765727
0.75354
0.741129
0.728517
0.715728
0.702781
0.689697
0.676495
0.663194
0.649811
0.636362
0.622864
0.60933
0.595775
0.582211
0.568651
0.555107
0.54159
0.528109
0.514675
0.501297
0.487982
0.474739
0.461575
0.448496
0.43551
0.422622
0.409837
0.397161
0.384597
0.37215
0.359824
0.347622
0.335548
0.323603
0.311791
0.300114
0.288573
0.277171
0.265909
0.254787
0.243807
0.23297
0.222277
0.211727
0.201322
0.19106
0.180943
0.170969
0.161139
0.151452
0.141909
0.132507
0.123246
0.114126
0.105145
0.0963033
0.0875991
0.0790311
0.0705987
0.0623
0.0541345
0.0461002
0.0381963
0.0304209
0.0227732
0.015251
0.00785361
0.000578844
-0.00657415
-0.0136076
-0.0205222
-0.0273204
-0.034003
-0.0405721
-0.0470288
-0.0533752
-0.0596122
-0.0657421
-0.0717657
-0.0776853
-0.0835017
-0.0892171
-0.0948324
-0.10035
-0.10577
-0.111095
-0.116327
-0.121466
-0.126515
-0.131474
-0.136345
-0.14113
-0.14583
-0.150446
-0.15498
-0.159433
-0.163806
-0.168101
-0.172318
0.918749
0.918162
0.916392
0.913678
0.910133
0.905774
0.900628
0.894747
0.888178
0.880964
0.873143
0.864756
0.85584
0.846432
0.836565
0.826275
0.815592
0.804548
0.793172
0.781492
0.769535
0.757328
0.744894
0.732258
0.719441
0.706465
0.693351
0.680116
0.666781
0.653362
0.639875
0.626337
0.612762
0.599164
0.585557
0.571952
0.558361
0.544796
0.531267
0.517783
0.504353
0.490987
0.477691
0.464474
0.451342
0.438301
0.425357
0.412517
0.399784
0.387164
0.37466
0.362277
0.350017
0.337885
0.325882
0.314012
0.302277
0.290678
0.279218
0.267897
0.256718
0.24568
0.234786
0.224035
0.213428
0.202965
0.192647
0.182473
0.172444
0.162558
0.152816
0.143217
0.133761
0.124446
0.115272
0.106238
0.0973436
0.0885869
0.0799674
0.0714835
0.0631343
0.0549183
0.0468345
0.0388813
0.0310575
0.0233614
0.0157921
0.00834745
0.00102658
-0.00617251
-0.0132509
-0.0202105
-0.0270526
-0.033779
-0.0403908
-0.0468902
-0.0532782
-0.0595568
-0.0657271
-0.0717912
-0.0777501
-0.0836058
-0.0893594
-0.0950129
-0.100567
-0.106025
-0.111386
-0.116654
-0.121828
-0.126911
-0.131905
-0.13681
-0.141628
-0.146361
-0.151009
-0.155575
-0.160059
-0.164463
-0.168788
-0.173034
0.922773
0.922222
0.920483
0.917797
0.914278
0.909941
0.904814
0.898949
0.892394
0.885189
0.877376
0.868993
0.860079
0.850669
0.840798
0.830501
0.819808
0.808752
0.797361
0.785664
0.773688
0.761459
0.749
0.736337
0.723491
0.710484
0.697336
0.684066
0.670693
0.657235
0.643707
0.630126
0.616506
0.602862
0.589207
0.575553
0.561912
0.548295
0.534713
0.521175
0.50769
0.494267
0.480914
0.467639
0.454448
0.441348
0.428344
0.415443
0.402649
0.389967
0.377401
0.364955
0.352633
0.340438
0.328372
0.316439
0.30464
0.292978
0.281454
0.27007
0.258828
0.247727
0.23677
0.225956
0.215287
0.204762
0.194382
0.184146
0.174056
0.164109
0.154307
0.144648
0.135132
0.125758
0.116526
0.107434
0.0984819
0.0896682
0.0809921
0.0724523
0.0640477
0.0557769
0.0476389
0.039632
0.0317552
0.0240067
0.0163854
0.00888959
0.00151809
-0.005731
-0.0128588
-0.0198672
-0.0267574
-0.0335313
-0.0401901
-0.0467358
-0.0531695
-0.0594933
-0.0657081
-0.071816
-0.0778182
-0.0837166
-0.0895123
-0.0952074
-0.100803
-0.106301
-0.111702
-0.117008
-0.122221
-0.127343
-0.132374
-0.137316
-0.14217
-0.146939
-0.151622
-0.156223
-0.160741
-0.165179
-0.169537
-0.173816
0.927122
0.926609
0.924904
0.922249
0.918758
0.914444
0.909339
0.903491
0.89695
0.889756
0.881951
0.873573
0.86466
0.855249
0.845374
0.83507
0.824368
0.813298
0.801892
0.790176
0.778179
0.765926
0.753441
0.740749
0.727872
0.714831
0.701647
0.688339
0.674926
0.661425
0.647853
0.634226
0.620559
0.606865
0.593158
0.579451
0.565756
0.552083
0.538443
0.524847
0.511303
0.497819
0.484405
0.471067
0.457812
0.444647
0.431579
0.418612
0.405752
0.393003
0.38037
0.367857
0.355467
0.343203
0.33107
0.319068
0.307201
0.29547
0.283878
0.272425
0.261115
0.249946
0.23892
0.228039
0.217302
0.20671
0.196263
0.185961
0.175804
0.165791
0.155924
0.1462
0.136619
0.127182
0.117886
0.108731
0.0997166
0.090841
0.0821038
0.0735033
0.0650388
0.0567086
0.0485118
0.0404467
0.0325125
0.024707
0.0170297
0.00947822
0.0020519
-0.00525148
-0.0124327
-0.0194941
-0.0264365
-0.033262
-0.0399717
-0.0465677
-0.0530509
-0.0594236
-0.0656866
-0.0718422
-0.0778912
-0.083836
-0.0896772
-0.0954173
-0.101057
-0.106599
-0.112043
-0.117392
-0.122647
-0.127809
-0.132881
-0.137863
-0.142757
-0.147564
-0.152286
-0.156924
-0.161479
-0.165954
-0.170348
-0.174661
0.931789
0.931318
0.929649
0.927027
0.923565
0.919278
0.914194
0.908366
0.90184
0.894659
0.886862
0.87849
0.869579
0.860167
0.850288
0.839976
0.829263
0.81818
0.806757
0.795022
0.783003
0.770724
0.758212
0.745489
0.732579
0.719502
0.70628
0.692931
0.679475
0.665929
0.65231
0.638633
0.624914
0.611167
0.597406
0.583642
0.569888
0.556156
0.542455
0.528796
0.515188
0.501639
0.488159
0.474753
0.461431
0.448197
0.435059
0.422022
0.409091
0.39627
0.383565
0.370979
0.358517
0.34618
0.333973
0.321898
0.309957
0.298153
0.286487
0.274961
0.263577
0.252335
0.241236
0.230282
0.219472
0.208808
0.198289
0.187915
0.177687
0.167604
0.157666
0.147872
0.138222
0.128716
0.119352
0.110129
0.101048
0.0921057
0.0833025
0.0746369
0.0661077
0.0577137
0.0494535
0.0413261
0.0333297
0.0254634
0.0177252
0.0101143
0.00262858
-0.00473289
-0.0119721
-0.0190902
-0.026089
-0.0329698
-0.0397345
-0.0463843
-0.0529212
-0.0593462
-0.0656614
-0.0718679
-0.0779678
-0.0839621
-0.0898528
-0.095641
-0.101329
-0.106917
-0.112408
-0.117802
-0.123103
-0.128309
-0.133425
-0.13845
-0.143386
-0.148235
-0.152998
-0.157677
-0.162272
-0.166786
-0.171219
-0.17557
0.936768
0.936341
0.934711
0.932124
0.928694
0.924435
0.919376
0.913567
0.907058
0.899891
0.892104
0.883737
0.874829
0.865416
0.855533
0.845213
0.834489
0.823392
0.811952
0.800197
0.788153
0.775848
0.763306
0.750551
0.737606
0.724491
0.711229
0.697837
0.684335
0.670741
0.657072
0.643343
0.62957
0.615766
0.601946
0.588122
0.574306
0.56051
0.546744
0.533018
0.519342
0.505725
0.492173
0.478697
0.465302
0.451995
0.438782
0.42567
0.412663
0.399766
0.386984
0.374321
0.361781
0.349366
0.337081
0.324927
0.312908
0.301025
0.289281
0.277676
0.266213
0.254893
0.243716
0.232684
0.221796
0.211055
0.200459
0.190008
0.179704
0.169545
0.159532
0.149664
0.13994
0.13036
0.120923
0.111628
0.102474
0.0934614
0.0845877
0.0758523
0.067254
0.0587916
0.0504638
0.0422694
0.0342068
0.0262749
0.018472
0.010797
0.00324811
-0.00417585
-0.0114768
-0.0186558
-0.0257148
-0.032655
-0.0394784
-0.046186
-0.05278
-0.0592613
-0.0656322
-0.0718936
-0.0780476
-0.0840952
-0.0900385
-0.0958787
-0.101618
-0.107256
-0.112797
-0.11824
-0.123589
-0.128843
-0.134006
-0.139077
-0.144059
-0.148952
-0.15376
-0.158482
-0.16312
-0.167676
-0.17215
-0.176541
0.942053
0.941673
0.940084
0.937535
0.93414
0.92991
0.924877
0.91909
0.912599
0.905446
0.897669
0.889309
0.880404
0.870991
0.861103
0.850776
0.840041
0.828929
0.817471
0.805694
0.793626
0.781293
0.768721
0.755931
0.742949
0.729795
0.716489
0.703052
0.689503
0.675858
0.662136
0.648351
0.63452
0.620657
0.606775
0.592888
0.579006
0.565143
0.551308
0.537511
0.523763
0.510072
0.496446
0.482894
0.469422
0.456037
0.442746
0.429554
0.416466
0.403488
0.390625
0.37788
0.365257
0.35276
0.340391
0.328154
0.316051
0.304085
0.292257
0.280569
0.269022
0.257619
0.246359
0.235244
0.224274
0.21345
0.202772
0.19224
0.181855
0.171616
0.161522
0.151575
0.141772
0.132113
0.122598
0.113227
0.103997
0.094908
0.0859592
0.0771497
0.0684777
0.0599426
0.0515426
0.0432769
0.0351437
0.0271422
0.0192703
0.0115272
0.00391085
-0.00357961
-0.0109463
-0.0181902
-0.0253134
-0.0323169
-0.0392028
-0.0459721
-0.052627
-0.0591684
-0.0655985
-0.0719183
-0.07813
-0.0842345
-0.090234
-0.0961294
-0.101923
-0.107615
-0.113209
-0.118705
-0.124105
-0.12941
-0.134622
-0.139742
-0.144773
-0.149714
-0.154568
-0.159337
-0.164021
-0.168621
-0.17314
-0.177573
0.947638
0.947308
0.945764
0.943255
0.939895
0.935697
0.930691
0.924928
0.918456
0.911318
0.903553
0.895201
0.8863
0.876886
0.866994
0.856659
0.845913
0.834786
0.823309
0.81151
0.799416
0.787054
0.774449
0.761625
0.748603
0.735407
0.722057
0.708573
0.694973
0.681275
0.667497
0.653655
0.639763
0.625837
0.61189
0.597935
0.583985
0.57005
0.556143
0.542272
0.528448
0.514679
0.500975
0.487342
0.473789
0.460322
0.446947
0.433671
0.420499
0.407435
0.394486
0.381654
0.368944
0.356359
0.343902
0.331577
0.319386
0.307331
0.295415
0.283638
0.272003
0.260512
0.249164
0.237961
0.226903
0.215992
0.205228
0.19461
0.184139
0.173814
0.163636
0.153604
0.143717
0.133976
0.124379
0.114925
0.105614
0.0964452
0.0874171
0.0785285
0.0697787
0.0611661
0.0526899
0.0443484
0.0361406
0.0280648
0.02012
0.0123044
0.00461684
-0.0029445
-0.0103807
-0.0176938
-0.0248848
-0.0319557
-0.0389077
-0.0457427
-0.0524619
-0.0590674
-0.0655601
-0.0719423
-0.0782149
-0.08438
-0.0904387
-0.0963931
-0.102244
-0.107994
-0.113643
-0.119195
-0.124649
-0.130008
-0.135273
-0.140446
-0.145527
-0.15052
-0.155424
-0.160241
-0.164973
-0.169622
-0.174187
-0.178667
0.953519
0.953241
0.951743
0.949276
0.945955
0.94179
0.936814
0.931075
0.924625
0.917503
0.90975
0.901406
0.892509
0.883095
0.8732
0.862857
0.852099
0.840957
0.829461
0.817639
0.805519
0.793127
0.780488
0.767626
0.754565
0.741325
0.727929
0.714395
0.700742
0.686989
0.673153
0.659249
0.645294
0.631302
0.617287
0.603262
0.589239
0.57523
0.561246
0.547297
0.533393
0.519543
0.505756
0.492039
0.478401
0.464847
0.451385
0.43802
0.424759
0.411605
0.398565
0.385641
0.372839
0.360162
0.347613
0.335195
0.322911
0.310763
0.298753
0.286883
0.275155
0.26357
0.25213
0.240834
0.229685
0.218682
0.207826
0.197116
0.186555
0.17614
0.165872
0.155751
0.145777
0.135947
0.126263
0.116723
0.107327
0.0980732
0.088961
0.0799892
0.0711569
0.0624628
0.0539058
0.0454844
0.0371975
0.0290435
0.0210214
0.0131294
0.00536626
-0.00226972
-0.0097797
-0.0171656
-0.0244285
-0.0315704
-0.0385925
-0.0454967
-0.0522842
-0.0589571
-0.0655163
-0.071964
-0.0783014
-0.0845303
-0.090652
-0.0966684
-0.102581
-0.108391
-0.1141
-0.11971
-0.125222
-0.130638
-0.135959
-0.141187
-0.146323
-0.151369
-0.156325
-0.161195
-0.165978
-0.170678
-0.175292
-0.17982
0.959688
0.959466
0.958017
0.955595
0.952313
0.948185
0.943239
0.937527
0.931098
0.923994
0.916255
0.90792
0.899027
0.889614
0.879715
0.869365
0.858595
0.847437
0.835921
0.824076
0.811929
0.799506
0.786832
0.773932
0.760829
0.747544
0.734099
0.720514
0.706806
0.692995
0.679098
0.665132
0.65111
0.63705
0.622963
0.608865
0.594766
0.580679
0.566615
0.552585
0.538597
0.524662
0.510788
0.496983
0.483255
0.469611
0.456057
0.4426
0.429244
0.415996
0.40286
0.389841
0.376943
0.364168
0.351522
0.339007
0.326625
0.314379
0.302271
0.290303
0.278478
0.266795
0.255257
0.243864
0.232617
0.221517
0.210565
0.19976
0.189103
0.178593
0.168232
0.158017
0.147949
0.138028
0.128252
0.118621
0.109135
0.0997918
0.0905912
0.0815317
0.0726127
0.0638326
0.0551905
0.0466849
0.0383148
0.0300784
0.0219749
0.0140022
0.0061596
-0.00155508
-0.0091427
-0.0166054
-0.0239441
-0.0311609
-0.0382568
-0.045234
-0.0520934
-0.0588374
-0.0654666
-0.0719836
-0.0783891
-0.0846854
-0.0908734
-0.0969553
-0.102932
-0.108806
-0.114578
-0.120249
-0.125822
-0.131298
-0.136678
-0.141964
-0.147158
-0.15226
-0.157272
-0.162197
-0.167034
-0.171786
-0.176453
-0.181031
0.966142
0.965978
0.96458
0.962205
0.958965
0.954874
0.949961
0.944277
0.937872
0.930787
0.923062
0.914737
0.90585
0.896438
0.886536
0.876178
0.865396
0.854223
0.842687
0.830817
0.818642
0.806187
0.793478
0.780538
0.767392
0.754061
0.740565
0.726926
0.713162
0.699291
0.685331
0.671298
0.657209
0.643076
0.628916
0.614741
0.600563
0.586395
0.572248
0.558132
0.544058
0.530034
0.516069
0.502173
0.488351
0.474612
0.460962
0.447407
0.433954
0.420607
0.407372
0.394252
0.381253
0.368377
0.355629
0.343011
0.330527
0.318178
0.305968
0.293898
0.281969
0.270184
0.258543
0.247049
0.2357
0.224499
0.213446
0.20254
0.191783
0.181174
0.170714
0.160401
0.150235
0.140217
0.130345
0.120619
0.111038
0.101602
0.0923078
0.0831565
0.0741461
0.0652759
0.0565443
0.0479504
0.0394926
0.0311699
0.0229806
0.0149235
0.00699703
-0.00080006
-0.00846959
-0.0160127
-0.0234313
-0.0307266
-0.0379004
-0.044954
-0.0518894
-0.0587077
-0.0654109
-0.0720002
-0.0784777
-0.0848444
-0.0911024
-0.0972528
-0.103298
-0.109238
-0.115076
-0.120812
-0.126449
-0.131988
-0.13743
-0.142778
-0.148031
-0.153193
-0.158264
-0.163246
-0.16814
-0.172948
-0.17767
-0.182301
0.972875
0.972771
0.971427
0.9691
0.965906
0.961854
0.956975
0.951321
0.94494
0.937875
0.930166
0.921852
0.912971
0.903561
0.893656
0.883291
0.872498
0.861308
0.849752
0.837858
0.825654
0.813166
0.800421
0.787441
0.77425
0.76087
0.747323
0.733629
0.719806
0.705873
0.691848
0.677747
0.663586
0.649379
0.635142
0.620887
0.606628
0.592376
0.578142
0.563938
0.549772
0.535656
0.521597
0.507605
0.493686
0.479848
0.466098
0.452442
0.438887
0.425437
0.412097
0.398873
0.385768
0.372787
0.359932
0.347208
0.334617
0.322161
0.309843
0.297666
0.28563
0.273738
0.26199
0.250389
0.238934
0.227627
0.216468
0.205457
0.194595
0.183883
0.173318
0.162903
0.152635
0.142516
0.132543
0.122717
0.113037
0.103502
0.0941113
0.0848636
0.0757577
0.0667929
0.0579677
0.0492812
0.0407317
0.0323184
0.0240393
0.0158937
0.0078795
-4.14338e-06
-0.00775931
-0.0153869
-0.0228891
-0.0302667
-0.037522
-0.044656
-0.0516707
-0.0585673
-0.0653478
-0.0720133
-0.0785659
-0.0850067
-0.0913379
-0.0975603
-0.103676
-0.109687
-0.115594
-0.121398
-0.127102
-0.132707
-0.138215
-0.143626
-0.148943
-0.154167
-0.1593
-0.164342
-0.169296
-0.174162
-0.178942
-0.183629
0.979881
0.97984
0.978552
0.976277
0.973129
0.969118
0.964275
0.958652
0.952298
0.945255
0.937562
0.92926
0.920386
0.910978
0.901071
0.890699
0.879894
0.868689
0.857112
0.845194
0.832961
0.82044
0.807656
0.794635
0.781399
0.76797
0.754369
0.740618
0.726735
0.712738
0.698646
0.684474
0.670239
0.655956
0.641639
0.627302
0.612958
0.598618
0.584295
0.569999
0.555739
0.541527
0.527371
0.513278
0.499258
0.485318
0.471464
0.457703
0.444042
0.430484
0.417037
0.403703
0.390489
0.377397
0.364432
0.351596
0.338894
0.326326
0.313897
0.301607
0.28946
0.277456
0.265597
0.253884
0.242318
0.2309
0.219631
0.208511
0.19754
0.186718
0.176046
0.165523
0.155149
0.144923
0.134846
0.124916
0.115132
0.105495
0.096002
0.0866533
0.0774478
0.068384
0.0594611
0.0506776
0.0420325
0.0335242
0.0251516
0.016913
0.0088074
0.000832949
-0.00701148
-0.0147277
-0.022317
-0.0297812
-0.0371214
-0.0443397
-0.0514372
-0.0584159
-0.065277
-0.0720225
-0.0786536
-0.0851722
-0.0915796
-0.0978778
-0.104068
-0.110152
-0.116131
-0.122007
-0.127781
-0.133455
-0.139031
-0.144509
-0.149892
-0.155182
-0.160378
-0.165484
-0.1705
-0.175428
-0.180268
-0.185014
0.987156
0.987181
0.985951
0.983729
0.98063
0.976662
0.971857
0.966267
0.959941
0.95292
0.945245
0.936956
0.92809
0.918685
0.908777
0.898398
0.887582
0.876361
0.864764
0.85282
0.840558
0.828003
0.815182
0.802118
0.788835
0.775355
0.7617
0.74789
0.733945
0.719883
0.705721
0.691477
0.677166
0.662804
0.648405
0.633983
0.619551
0.605121
0.590705
0.576313
0.561957
0.547645
0.533388
0.519192
0.505068
0.491021
0.477059
0.463189
0.449417
0.435748
0.422188
0.408742
0.395413
0.382207
0.369127
0.356176
0.343357
0.330674
0.318128
0.305722
0.293458
0.281338
0.269363
0.257534
0.245853
0.23432
0.222936
0.211701
0.200616
0.189682
0.178897
0.168262
0.157777
0.147441
0.137254
0.127215
0.117323
0.107579
0.0979802
0.0885265
0.0792169
0.07005
0.061025
0.0521405
0.0433954
0.0347881
0.0263177
0.0179824
0.00978119
0.00171221
-0.00622562
-0.0140342
-0.0217146
-0.0292688
-0.0366979
-0.044004
-0.0511881
-0.0582523
-0.0651978
-0.0720265
-0.0787397
-0.0853394
-0.0918267
-0.0982036
-0.104471
-0.110632
-0.116686
-0.122637
-0.128484
-0.134231
-0.139878
-0.145427
-0.150879
-0.156236
-0.1615
-0.166672
-0.171753
-0.176745
-0.181648
-0.186455
0.994695
0.994787
0.993618
0.991453
0.988404
0.984481
0.979716
0.97416
0.967863
0.960867
0.953211
0.944935
0.936079
0.926678
0.916768
0.906384
0.895557
0.88432
0.872703
0.860734
0.848442
0.835853
0.822992
0.809885
0.796555
0.783024
0.769313
0.755443
0.741434
0.727304
0.713071
0.698752
0.684364
0.66992
0.655437
0.640927
0.626405
0.611882
0.59737
0.582881
0.568424
0.554009
0.539647
0.525345
0.511112
0.496955
0.482882
0.468899
0.455013
0.441228
0.427552
0.413988
0.400542
0.387217
0.374017
0.360946
0.348007
0.335203
0.322537
0.31001
0.297625
0.285384
0.273289
0.261339
0.249538
0.237885
0.226382
0.215028
0.203825
0.192773
0.181871
0.17112
0.160519
0.150068
0.139767
0.129615
0.119612
0.109756
0.100047
0.0904835
0.0810655
0.0717913
0.0626601
0.0536703
0.0448211
0.0361108
0.0275386
0.0191025
0.0108017
0.00263415
-0.00540094
-0.0133057
-0.021081
-0.0287291
-0.0362508
-0.0436484
-0.0509228
-0.0580762
-0.0651096
-0.0720251
-0.0788239
-0.0855081
-0.0920786
-0.0985377
-0.104886
-0.111127
-0.11726
-0.123288
-0.129212
-0.135034
-0.140755
-0.146377
-0.151901
-0.15733
-0.162663
-0.167904
-0.173053
-0.178112
-0.183081
-0.187952
1.00249
1.00266
1.00155
0.999442
0.996445
0.99257
0.987846
0.982327
0.976061
0.96909
0.961454
0.953194
0.944347
0.934951
0.925041
0.914651
0.903815
0.892562
0.880924
0.868931
0.856608
0.843985
0.831085
0.817934
0.804556
0.790972
0.777204
0.763273
0.749199
0.735
0.720694
0.706299
0.69183
0.677303
0.662733
0.648134
0.633518
0.618899
0.604289
0.589698
0.575138
0.560618
0.546147
0.531736
0.51739
0.50312
0.488932
0.474832
0.460827
0.446924
0.433127
0.419442
0.405873
0.392425
0.379102
0.365907
0.352844
0.339915
0.327123
0.314471
0.301961
0.289595
0.277374
0.2653
0.253374
0.241597
0.22997
0.218493
0.207167
0.195993
0.184969
0.174097
0.163376
0.152806
0.142387
0.132117
0.121997
0.112025
0.102202
0.092525
0.0829942
0.0736086
0.0643667
0.0552677
0.0463101
0.0374929
0.0288145
0.0202738
0.0118692
0.00359948
-0.00453707
-0.0125416
-0.020416
-0.0281614
-0.0357798
-0.0432723
-0.0506409
-0.0578867
-0.0650119
-0.0720175
-0.0789056
-0.0856774
-0.0923349
-0.0988792
-0.105312
-0.111636
-0.117851
-0.123959
-0.129963
-0.135863
-0.141662
-0.14736
-0.15296
-0.158462
-0.163868
-0.169181
-0.174401
-0.179529
-0.184566
-0.189504
1.01054
1.01078
1.00974
1.00769
1.00475
1.00092
0.996243
0.990762
0.984528
0.977585
0.969971
0.961727
0.952891
0.943501
0.933591
0.923197
0.91235
0.901083
0.889425
0.877406
0.865054
0.852396
0.839457
0.826261
0.812834
0.799196
0.785371
0.771378
0.757237
0.742968
0.728588
0.714114
0.699563
0.68495
0.670291
0.6556
0.640889
0.626172
0.61146
0.596766
0.582099
0.56747
0.552888
0.538363
0.523902
0.509515
0.495208
0.480988
0.466861
0.452835
0.438914
0.425103
0.411408
0.397833
0.384382
0.371059
0.357866
0.344808
0.331888
0.319106
0.306466
0.293971
0.28162
0.269417
0.257362
0.245456
0.233701
0.222096
0.210643
0.199342
0.188192
0.177195
0.166349
0.155656
0.145113
0.134722
0.124481
0.114389
0.104446
0.0946517
0.085004
0.0755026
0.066146
0.0569335
0.0478635
0.038935
0.0301466
0.0214971
0.0129849
0.00460883
-0.00363284
-0.0117413
-0.0197183
-0.0275651
-0.0352835
-0.0428749
-0.050341
-0.0576832
-0.0649034
-0.0720028
-0.0789835
-0.0858465
-0.0925941
-0.0992272
-0.105748
-0.112158
-0.118458
-0.124651
-0.130737
-0.136719
-0.142598
-0.148375
-0.154053
-0.159632
-0.165114
-0.170501