/*--------------------------------*- C++ -*----------------------------------*\
  =========                 |
  \\      /  F ield         | OpenFOAM: The Open Source CFD Toolbox
   \\    /   O peration     | Website:  https://openfoam.org
    \\  /    A nd           | Version:  8
     \\/     M anipulation  |
\*---------------------------------------------------------------------------*/
FoamFile
{
    version     2.0;
    format      ascii;
    class       volScalarField;
    location    "0.8";
    object      p;
}
// * * * * * * * * * * * * * * * * * * * * * * * * * * * * * * * * * * * * * //

dimensions      [0 2 -2 0 0 0 0];

internalField   nonuniform List<scalar> 
248760
(
0.171149
0.171105
0.170901
0.170607
0.170211
0.169718
0.169133
0.16846
0.167702
0.166863
0.165945
0.164952
0.163888
0.162753
0.161552
0.160287
0.15896
0.157574
0.156132
0.154636
0.153088
0.151492
0.149848
0.148161
0.146431
0.144662
0.142856
0.141015
0.139142
0.137238
0.135306
0.133348
0.131367
0.129364
0.127341
0.125302
0.123246
0.121178
0.119098
0.117008
0.114911
0.112808
0.110702
0.108592
0.106483
0.104374
0.102268
0.100167
0.0980713
0.0959831
0.093904
0.0918346
0.089777
0.0877318
0.0857009
0.0836848
0.0816853
0.0797028
0.0777389
0.0757939
0.0738695
0.0719658
0.0700843
0.068225
0.0663894
0.0645772
0.0627901
0.0610275
0.059291
0.0575799
0.0558958
0.0542379
0.0526076
0.0510039
0.0494285
0.0478801
0.0463603
0.0448677
0.0434038
0.0419673
0.0405597
0.0391792
0.0378276
0.036503
0.0352071
0.0339379
0.0326971
0.0314828
0.0302964
0.029136
0.0280032
0.0268959
0.0258156
0.0247602
0.0237313
0.0227268
0.0217482
0.0207934
0.0198638
0.0189574
0.0180756
0.0172166
0.0163815
0.0155686
0.0147792
0.0140115
0.0132667
0.0125434
0.0118425
0.011163
0.0105055
0.00986944
0.00925535
0.00866273
0.00809227
0.00754378
0.00701753
0.0065139
0.00603531
0.00558634
0.171163
0.171118
0.170916
0.170621
0.170226
0.169733
0.169149
0.168476
0.167718
0.16688
0.165963
0.164971
0.163907
0.162773
0.161573
0.160308
0.158982
0.157598
0.156156
0.154661
0.153114
0.151519
0.149876
0.14819
0.146461
0.144693
0.142888
0.141048
0.139176
0.137273
0.135343
0.133386
0.131406
0.129404
0.127383
0.125345
0.123291
0.121224
0.119145
0.117057
0.114962
0.112861
0.110755
0.108648
0.106539
0.104432
0.102328
0.100228
0.0981332
0.0960465
0.093968
0.0918998
0.0898426
0.0877982
0.0857673
0.0837517
0.0817517
0.0797691
0.0778044
0.075859
0.0739332
0.0720286
0.0701453
0.0682847
0.0664469
0.0646331
0.0628434
0.0610788
0.0593395
0.0576262
0.0559391
0.0542787
0.0526452
0.051039
0.0494604
0.0479093
0.0463862
0.0448908
0.0434238
0.0419845
0.0405737
0.0391904
0.0378356
0.0365082
0.0352091
0.033937
0.032693
0.0314757
0.0302859
0.0291223
0.0279859
0.0268751
0.0257908
0.0247316
0.0236983
0.0226893
0.0217057
0.0207457
0.0198103
0.0188977
0.018009
0.0171425
0.0162991
0.0154771
0.0146776
0.0138987
0.0131415
0.0124045
0.0116883
0.0109917
0.0103154
0.00965822
0.00902068
0.00840206
0.00780261
0.00722191
0.00665991
0.0061166
0.0055927
0.00509168
0.171186
0.171141
0.17094
0.170645
0.170251
0.169759
0.169176
0.168504
0.167748
0.16691
0.165994
0.165003
0.163941
0.162808
0.161609
0.160346
0.159022
0.157638
0.156198
0.154705
0.15316
0.151565
0.149924
0.148239
0.146512
0.144746
0.142942
0.141104
0.139233
0.137332
0.135403
0.133448
0.131469
0.129469
0.12745
0.125413
0.123361
0.121295
0.119218
0.117132
0.115038
0.112938
0.110834
0.108728
0.106621
0.104515
0.102412
0.100313
0.0982198
0.0961337
0.0940565
0.0919888
0.0899326
0.0878883
0.0858582
0.0838422
0.0818428
0.0798595
0.077895
0.0759486
0.0740228
0.0721168
0.0702333
0.0683709
0.0665326
0.0647168
0.0629264
0.0611596
0.0594194
0.0577036
0.0560155
0.0543525
0.0527179
0.051109
0.0495291
0.0479752
0.0464508
0.0449526
0.043484
0.0420418
0.0406293
0.0392431
0.0378865
0.036556
0.0352549
0.0339797
0.0327334
0.0315126
0.0303203
0.0291531
0.0280137
0.0268989
0.0258113
0.0247476
0.0237104
0.0226964
0.0217081
0.0207424
0.0198015
0.0188823
0.017987
0.0171128
0.0162614
0.0154303
0.014621
0.0138311
0.0130621
0.0123115
0.0115807
0.0108675
0.0101728
0.00949497
0.00883434
0.0081896
0.00756081
0.006947
0.00634768
0.00576186
0.00518797
0.00463127
0.171221
0.171177
0.170976
0.170682
0.170289
0.169799
0.169217
0.168546
0.167791
0.166955
0.166041
0.165052
0.163991
0.162861
0.161664
0.160403
0.15908
0.157699
0.156261
0.15477
0.153226
0.151634
0.149996
0.148313
0.146588
0.144823
0.143022
0.141186
0.139317
0.137418
0.13549
0.133537
0.131561
0.129563
0.127545
0.12551
0.12346
0.121396
0.119321
0.117236
0.115144
0.113046
0.110944
0.108839
0.106734
0.10463
0.102528
0.10043
0.0983382
0.0962535
0.0941771
0.0921106
0.090055
0.0880117
0.0859818
0.0839667
0.0819671
0.0799845
0.0780195
0.0760735
0.0741469
0.072241
0.0703563
0.0684938
0.066654
0.0648379
0.0630458
0.0612785
0.0595361
0.0578197
0.0561292
0.0544653
0.052828
0.0512181
0.0496352
0.0480802
0.0465525
0.0450529
0.0435808
0.0421371
0.0407207
0.0393326
0.0379718
0.0366392
0.0353335
0.0340557
0.0328044
0.0315806
0.0303827
0.0292119
0.0280664
0.0269473
0.0258527
0.0247839
0.0237389
0.0227188
0.0217216
0.0207485
0.0197973
0.0188692
0.0179622
0.0170771
0.016212
0.0153677
0.0145424
0.0137366
0.0129487
0.0121789
0.0114258
0.0106894
0.00996834
0.00926258
0.0085707
0.00789251
0.00722679
0.00657303
0.00593025
0.00529692
0.00467046
0.00405574
0.171266
0.171223
0.171024
0.170732
0.17034
0.169851
0.169271
0.168602
0.167849
0.167015
0.166104
0.165117
0.164059
0.162931
0.161736
0.160478
0.159158
0.157779
0.156344
0.154855
0.153315
0.151725
0.150089
0.148409
0.146687
0.144925
0.143126
0.141293
0.139426
0.13753
0.135605
0.133654
0.13168
0.129684
0.127669
0.125636
0.123588
0.121526
0.119453
0.117371
0.115281
0.113184
0.111084
0.108981
0.106878
0.104775
0.102675
0.100579
0.0984883
0.0964047
0.0943298
0.0922641
0.0902097
0.0881671
0.0861381
0.0841233
0.0821244
0.0801418
0.0781773
0.076231
0.0743046
0.0723982
0.0705134
0.0686502
0.0668101
0.064993
0.0632002
0.0614318
0.0596885
0.0579708
0.0562791
0.0546136
0.0529749
0.0513631
0.0497786
0.0482214
0.0466917
0.0451898
0.0437154
0.0422689
0.0408499
0.0394588
0.038095
0.0367589
0.0354497
0.0341681
0.0329128
0.0316846
0.0304822
0.0293064
0.0281557
0.027031
0.0259305
0.0248553
0.0238035
0.0227761
0.0217712
0.0207897
0.0198296
0.0188919
0.0179747
0.0170786
0.0162018
0.0153449
0.014506
0.0136857
0.0128821
0.0120956
0.0113244
0.0105687
0.00982684
0.00909874
0.00838297
0.00767914
0.00698598
0.00630289
0.00562894
0.00496219
0.00429926
0.00364683
0.171322
0.171281
0.171083
0.170792
0.170403
0.169916
0.169338
0.168672
0.167921
0.16709
0.166181
0.165197
0.164142
0.163017
0.161826
0.16057
0.159254
0.157878
0.156447
0.154961
0.153424
0.151838
0.150205
0.148528
0.146809
0.145051
0.143255
0.141424
0.139561
0.137667
0.135746
0.133798
0.131826
0.129833
0.12782
0.12579
0.123745
0.121686
0.119615
0.117535
0.115447
0.113353
0.111254
0.109154
0.107052
0.104951
0.102853
0.100758
0.0986688
0.0965868
0.0945128
0.0924487
0.090395
0.0883537
0.0863251
0.0843115
0.0823127
0.0803311
0.0783664
0.0764209
0.074494
0.0725883
0.0707027
0.06884
0.0669989
0.0651821
0.063388
0.0616195
0.0598748
0.0581568
0.0564633
0.0547974
0.0531567
0.0515442
0.0499572
0.048399
0.0468667
0.0453633
0.0438859
0.0424376
0.0410152
0.0396219
0.0382543
0.0369154
0.035602
0.034317
0.033057
0.0318248
0.0306172
0.0294367
0.0282801
0.0271499
0.0260428
0.0249614
0.0239021
0.0228675
0.0218543
0.0208646
0.0198952
0.0189482
0.0180204
0.0171137
0.0162251
0.0153562
0.0145042
0.0136704
0.0128521
0.0120504
0.0112629
0.0104902
0.00973028
0.00898341
0.00824775
0.00752327
0.00680846
0.00610291
0.00540555
0.00471454
0.00402632
0.00334835
0.171389
0.171349
0.171153
0.170865
0.170478
0.169993
0.169417
0.168754
0.168007
0.167179
0.166273
0.165293
0.164241
0.16312
0.161932
0.160681
0.159368
0.157996
0.156568
0.155087
0.153554
0.151971
0.150342
0.148669
0.146954
0.145199
0.143407
0.14158
0.13972
0.13783
0.135912
0.133967
0.131999
0.130009
0.127999
0.125972
0.123929
0.121873
0.119805
0.117727
0.115641
0.11355
0.111454
0.109355
0.107256
0.105157
0.10306
0.100967
0.0988792
0.0967984
0.094726
0.0926629
0.0906107
0.0885702
0.0865429
0.0845297
0.082532
0.0805507
0.0785869
0.0766414
0.0747153
0.0728093
0.0709244
0.0690612
0.0672206
0.0654029
0.0636093
0.0618397
0.0600952
0.0583758
0.0566824
0.0550148
0.0533738
0.0517593
0.0501719
0.0486112
0.0470781
0.0455719
0.0440935
0.0426419
0.041218
0.0398209
0.0384514
0.0371083
0.0357925
0.0345027
0.0332398
0.0320023
0.0307912
0.0296049
0.0284442
0.0273075
0.0261958
0.0251072
0.0240426
0.0230002
0.0219809
0.0209828
0.0200067
0.0190506
0.0181154
0.017199
0.0163022
0.015423
0.0145621
0.0137174
0.0128896
0.0120766
0.0112789
0.0104946
0.00972403
0.00896541
0.00821872
0.00748255
0.00675659
0.00603968
0.00533125
0.00462952
0.00393079
0.00324432
0.171465
0.171428
0.171234
0.170948
0.170564
0.170082
0.16951
0.16885
0.168106
0.167281
0.166379
0.165403
0.164355
0.163238
0.162055
0.160808
0.159499
0.158132
0.156709
0.155232
0.153703
0.152125
0.150501
0.148832
0.147121
0.145371
0.143583
0.14176
0.139904
0.138018
0.136103
0.134162
0.132197
0.130211
0.128204
0.12618
0.124141
0.122087
0.120022
0.117947
0.115864
0.113775
0.111681
0.109585
0.107488
0.105391
0.103296
0.101205
0.0991185
0.0970393
0.0949681
0.0929067
0.0908554
0.0888164
0.0867899
0.084778
0.0827809
0.0808006
0.0788373
0.0768926
0.0749668
0.0730615
0.0711768
0.069314
0.0674734
0.0656561
0.0638622
0.0620928
0.0603479
0.0586283
0.0569342
0.0552662
0.0536244
0.0520091
0.0504205
0.0488588
0.0473242
0.0458165
0.0443361
0.0428827
0.0414565
0.0400571
0.0386848
0.0373389
0.0360199
0.0347269
0.0334603
0.032219
0.0310037
0.0298131
0.0286477
0.0275062
0.0263894
0.0252954
0.0242252
0.0231771
0.0221517
0.0211474
0.0201648
0.0192021
0.0182601
0.0173368
0.016433
0.0155467
0.0146786
0.0138267
0.0129916
0.0121715
0.0113668
0.0105756
0.00979834
0.00903332
0.00828058
0.00753876
0.00680767
0.00608619
0.00537384
0.00466894
0.0039685
0.00328176
0.171552
0.171517
0.171326
0.171043
0.170661
0.170183
0.169614
0.168957
0.168217
0.167397
0.1665
0.165528
0.164485
0.163372
0.162194
0.160952
0.159648
0.158286
0.156868
0.155396
0.153872
0.1523
0.15068
0.149016
0.14731
0.145564
0.143781
0.141963
0.140111
0.138229
0.136319
0.134382
0.132421
0.130438
0.128436
0.126415
0.124379
0.122329
0.120267
0.118194
0.116114
0.114028
0.111937
0.109843
0.107747
0.105653
0.10356
0.101471
0.0993863
0.0973085
0.0952391
0.0931787
0.0911293
0.0890911
0.0870662
0.0850549
0.0830594
0.0810795
0.0791176
0.0771732
0.0752488
0.0733435
0.07146
0.0695971
0.0677576
0.06594
0.064147
0.0623771
0.060633
0.0589127
0.0572192
0.0555502
0.0539087
0.0522921
0.0507035
0.0491402
0.0476052
0.0460957
0.0446145
0.0431588
0.0417314
0.0403293
0.0389554
0.0376065
0.0362854
0.0349888
0.0337197
0.0324746
0.0312563
0.0300615
0.0288927
0.0277467
0.0266261
0.0255274
0.0244531
0.0234
0.0223703
0.0213609
0.0203739
0.0194062
0.0184597
0.0175315
0.0166234
0.0157325
0.0148604
0.0140044
0.0131659
0.0123424
0.0115349
0.0107413
0.00996237
0.00919606
0.00844294
0.00770136
0.00697147
0.00625204
0.00554274
0.00484203
0.00414781
0.00346915
0.171649
0.171617
0.171428
0.171148
0.17077
0.170295
0.16973
0.169078
0.168342
0.167526
0.166634
0.165667
0.164629
0.163522
0.162349
0.161112
0.159814
0.158458
0.157045
0.155579
0.154061
0.152493
0.150879
0.149221
0.14752
0.14578
0.144001
0.142188
0.140342
0.138464
0.136558
0.134626
0.13267
0.130691
0.128692
0.126675
0.124643
0.122596
0.120537
0.118468
0.116391
0.114308
0.112219
0.110128
0.108035
0.105942
0.103852
0.101764
0.0996818
0.0976058
0.0955377
0.0934791
0.0914309
0.0893944
0.0873706
0.0853609
0.0833662
0.0813878
0.0794265
0.0774835
0.0755595
0.0736557
0.0717724
0.0699109
0.0680715
0.0662551
0.0644621
0.0626933
0.0609489
0.0592296
0.0575355
0.0558674
0.0542249
0.052609
0.0510192
0.0494562
0.0479196
0.0464101
0.0449269
0.0434709
0.0420412
0.0406384
0.0392617
0.0379118
0.0365875
0.0352896
0.0340169
0.0327702
0.031548
0.0303512
0.0291783
0.0280301
0.0269051
0.0258041
0.0247254
0.0236699
0.0226358
0.021624
0.0206327
0.0196628
0.0187124
0.0177823
0.0168707
0.0159784
0.0151035
0.0142467
0.0134063
0.0125828
0.0117746
0.0109821
0.0102037
0.0094398
0.00868893
0.00795119
0.00722543
0.00651148
0.00580849
0.0051151
0.00443077
0.00376277
0.171755
0.171726
0.17154
0.171264
0.170889
0.170418
0.169857
0.16921
0.168479
0.167668
0.166781
0.16582
0.164787
0.163686
0.162519
0.161288
0.159997
0.158646
0.15724
0.155779
0.154267
0.152706
0.151098
0.149446
0.147751
0.146016
0.144244
0.142436
0.140595
0.138722
0.136822
0.134894
0.132942
0.130968
0.128973
0.126961
0.124932
0.122889
0.120834
0.118768
0.116694
0.114614
0.112528
0.110439
0.108349
0.106259
0.10417
0.102085
0.100004
0.0979302
0.095864
0.0938068
0.0917604
0.0897252
0.0877031
0.0856945
0.0837014
0.081724
0.0797642
0.0778222
0.0758996
0.0739965
0.0721146
0.0702539
0.0684157
0.0665999
0.064808
0.0630397
0.0612962
0.0595773
0.0578839
0.0562159
0.0545739
0.0529578
0.0513681
0.0498049
0.048268
0.0467579
0.0452742
0.0438172
0.0423865
0.0409825
0.0396045
0.038253
0.0369271
0.0356273
0.0343527
0.0331038
0.0318795
0.0306804
0.0295052
0.0283546
0.0272272
0.0261237
0.0250426
0.0239848
0.0229485
0.0219345
0.0209413
0.0199696
0.0190177
0.0180864
0.0171738
0.016281
0.0154059
0.0145494
0.0137098
0.0128877
0.0120814
0.0112915
0.0105164
0.0097565
0.00901041
0.00827827
0.007559
0.00685245
0.00615771
0.00547365
0.00480093
0.00414569
0.171871
0.171844
0.171662
0.171389
0.171019
0.170552
0.169996
0.169353
0.168628
0.167823
0.166941
0.165986
0.16496
0.163865
0.162704
0.16148
0.160195
0.158852
0.157452
0.155998
0.154493
0.152938
0.151337
0.149691
0.148002
0.146274
0.144507
0.142705
0.14087
0.139003
0.137108
0.135185
0.133238
0.131269
0.129279
0.127271
0.125246
0.123207
0.121156
0.119094
0.117023
0.114946
0.112863
0.110777
0.108689
0.106602
0.104515
0.102432
0.100354
0.0982816
0.096217
0.0941618
0.0921167
0.0900836
0.0880626
0.0860561
0.0840639
0.0820885
0.0801296
0.0781895
0.0762677
0.0743666
0.0724853
0.0706264
0.0687887
0.0669748
0.0651833
0.0634168
0.0616735
0.0599561
0.0582628
0.0565961
0.0549539
0.053339
0.0517489
0.0501864
0.0486489
0.0471392
0.0456546
0.0441977
0.0427658
0.0413616
0.0399821
0.0386301
0.0373024
0.0360019
0.0347253
0.0334754
0.032249
0.0310487
0.0298714
0.0287196
0.0275901
0.0264854
0.0254024
0.0243434
0.0233055
0.0222907
0.0212962
0.0203241
0.0193715
0.0184403
0.0175277
0.0166357
0.0157614
0.0149066
0.0140687
0.0132492
0.0124458
0.0116596
0.0108886
0.0101337
0.00939305
0.00866722
0.00795485
0.00725603
0.00656965
0.00589483
0.00523348
0.00459039
0.171995
0.171972
0.171793
0.171525
0.171159
0.170697
0.170146
0.169508
0.168789
0.16799
0.167114
0.166165
0.165146
0.164058
0.162904
0.161687
0.160409
0.159073
0.15768
0.156234
0.154736
0.153189
0.151594
0.149955
0.148274
0.146552
0.144792
0.142996
0.141167
0.139306
0.137416
0.1355
0.133558
0.131594
0.129609
0.127605
0.125585
0.12355
0.121503
0.119444
0.117377
0.115303
0.113223
0.11114
0.109055
0.10697
0.104887
0.102806
0.10073
0.0986592
0.0965966
0.0945431
0.0925
0.0904684
0.0884495
0.0864443
0.0844542
0.08248
0.0805231
0.0785842
0.0766643
0.0747643
0.072885
0.071027
0.0691913
0.0673782
0.0655886
0.0638227
0.0620813
0.0603644
0.0586727
0.0570062
0.0553656
0.0537506
0.0521618
0.0505989
0.0490625
0.0475521
0.0460683
0.0446105
0.0431792
0.0417736
0.0403945
0.0390408
0.0377134
0.036411
0.0351344
0.0338825
0.032656
0.0314536
0.0302762
0.0291223
0.0279927
0.026886
0.0258031
0.0247424
0.0237048
0.0226886
0.0216948
0.0207218
0.0197703
0.0188387
0.017928
0.0170363
0.0161645
0.0153109
0.0144762
0.0136589
0.0128596
0.0120766
0.0113106
0.0105601
0.00982533
0.00910516
0.0083996
0.00770774
0.00702898
0.00636248
0.00571094
0.0050787
0.172129
0.172109
0.171934
0.17167
0.171309
0.170852
0.170306
0.169675
0.168961
0.168168
0.1673
0.166358
0.165345
0.164265
0.163118
0.161909
0.160639
0.159311
0.157926
0.156487
0.154997
0.153457
0.15187
0.150239
0.148564
0.14685
0.145097
0.143308
0.141485
0.139631
0.137747
0.135836
0.1339
0.131941
0.129962
0.127963
0.125947
0.123917
0.121874
0.119819
0.117756
0.115685
0.113609
0.111529
0.109447
0.107364
0.105283
0.103205
0.101131
0.0990628
0.0970021
0.0949507
0.0929094
0.0908799
0.0888627
0.0868596
0.084871
0.0828989
0.0809435
0.0790066
0.0770882
0.0751901
0.0733123
0.0714563
0.0696219
0.0678107
0.0660224
0.0642582
0.0625179
0.0608025
0.0591119
0.0574467
0.0558069
0.054193
0.0526049
0.0510428
0.0495068
0.0479969
0.0465132
0.0450556
0.0436242
0.0422186
0.0408391
0.0394852
0.0381572
0.0368543
0.0355771
0.0343246
0.0330973
0.0318943
0.0307161
0.0295615
0.0284312
0.027324
0.0262406
0.0251796
0.0241417
0.0231256
0.0221319
0.0211592
0.0202084
0.0192777
0.018368
0.0174778
0.0166078
0.0157563
0.0149241
0.0141097
0.0133135
0.0125342
0.0117722
0.0110261
0.0102962
0.00958134
0.00888148
0.00819576
0.00752348
0.00686403
0.0062212
0.00559797
0.172271
0.172255
0.172084
0.171825
0.171468
0.171017
0.170477
0.169852
0.169144
0.168359
0.167497
0.166563
0.165558
0.164485
0.163347
0.162146
0.160884
0.159564
0.158187
0.156757
0.155275
0.153743
0.152165
0.150541
0.148874
0.147167
0.145422
0.14364
0.141824
0.139977
0.1381
0.136195
0.134265
0.132312
0.130337
0.128344
0.126333
0.124307
0.122269
0.120218
0.118159
0.116092
0.114019
0.111942
0.109863
0.107783
0.105705
0.103629
0.101557
0.0994917
0.0974334
0.0953837
0.0933448
0.091317
0.0893022
0.0873007
0.0853146
0.083344
0.0813911
0.0794555
0.0775397
0.0756429
0.0737676
0.0719128
0.0700809
0.0682708
0.0664848
0.0647217
0.0629836
0.0612691
0.0595805
0.057916
0.0562781
0.0546646
0.053078
0.0515162
0.0499815
0.0484715
0.0469889
0.045531
0.0441003
0.0426942
0.0413153
0.0399607
0.0386329
0.0373293
0.0360521
0.0347987
0.0335715
0.0323675
0.0311893
0.0300339
0.0289036
0.0277957
0.0267124
0.0256509
0.0246133
0.023597
0.0226039
0.0216314
0.0206815
0.0197514
0.0188431
0.017954
0.0170858
0.016236
0.0154061
0.014594
0.0138007
0.0130244
0.0122658
0.0115233
0.0107975
0.010087
0.00939186
0.00871121
0.00804427
0.00739065
0.00675526
0.00613982
0.172421
0.17241
0.172243
0.171989
0.171637
0.171192
0.170658
0.170039
0.169339
0.16856
0.167707
0.16678
0.165783
0.164719
0.163589
0.162397
0.161144
0.159832
0.158465
0.157043
0.15557
0.154047
0.152477
0.150862
0.149203
0.147504
0.145766
0.143992
0.142184
0.140344
0.138473
0.136575
0.134652
0.132704
0.130736
0.128748
0.126742
0.124721
0.122687
0.120641
0.118585
0.116522
0.114452
0.112379
0.110303
0.108227
0.106151
0.104078
0.102009
0.0999456
0.0978895
0.0958424
0.0938053
0.09178
0.0897672
0.0877682
0.0857839
0.0838158
0.0818646
0.0799316
0.0780174
0.0761231
0.0742494
0.0723971
0.0705667
0.068759
0.0669744
0.0652136
0.0634767
0.0617644
0.0600767
0.0584143
0.056777
0.0551654
0.0535792
0.052019
0.0504844
0.0489759
0.047493
0.0460363
0.0446052
0.0432001
0.0418204
0.0404666
0.0391379
0.0378349
0.0365566
0.0353038
0.0340753
0.0328719
0.0316924
0.0305375
0.029406
0.0282987
0.0272143
0.0261535
0.025115
0.0240995
0.0231057
0.0221344
0.021184
0.0202554
0.019347
0.0184596
0.0175917
0.016744
0.0159149
0.0151051
0.0143132
0.0135395
0.0127828
0.0120434
0.01132
0.0106127
0.00992075
0.00924367
0.00858049
0.00793073
0.00730129
0.00669103
0.17258
0.172573
0.172411
0.172162
0.171816
0.171376
0.170849
0.170237
0.169544
0.168773
0.167927
0.167009
0.166021
0.164965
0.163845
0.162662
0.161418
0.160116
0.158757
0.157345
0.155881
0.154368
0.152806
0.1512
0.14955
0.14786
0.14613
0.144364
0.142564
0.140731
0.138868
0.136977
0.13506
0.133119
0.131156
0.129173
0.127173
0.125157
0.123128
0.121086
0.119035
0.116975
0.11491
0.11284
0.110767
0.108694
0.106621
0.104551
0.102485
0.100424
0.0983706
0.0963257
0.0942911
0.0922679
0.0902577
0.0882608
0.0862791
0.084313
0.0823644
0.0804334
0.0785217
0.0766294
0.0747581
0.0729077
0.0710797
0.0692738
0.0674914
0.0657323
0.0639974
0.0622866
0.0606008
0.0589397
0.0573039
0.0556934
0.0541085
0.0525491
0.0510155
0.0495076
0.0480254
0.0465691
0.0451383
0.0437334
0.0423538
0.0409999
0.0396712
0.0383679
0.0370895
0.0358363
0.0346075
0.0334036
0.0322237
0.0310683
0.0299364
0.0288287
0.0277439
0.0266827
0.0256439
0.0246282
0.0236343
0.0226628
0.0217125
0.0207839
0.0198758
0.0189887
0.0181213
0.017274
0.0164457
0.0156367
0.0148457
0.014073
0.0133176
0.0125795
0.0118576
0.0111521
0.010462
0.00978689
0.00912593
0.00847862
0.00785314
0.00724698
0.172747
0.172744
0.172587
0.172343
0.172003
0.17157
0.171049
0.170445
0.16976
0.168997
0.16816
0.16725
0.166271
0.165225
0.164114
0.16294
0.161706
0.160414
0.159065
0.157663
0.156209
0.154705
0.153153
0.151556
0.149916
0.148234
0.146513
0.144756
0.142963
0.141138
0.139283
0.137399
0.135488
0.133554
0.131598
0.129621
0.127626
0.125616
0.123591
0.121554
0.119507
0.117452
0.11539
0.113324
0.111255
0.109185
0.107115
0.105048
0.102984
0.100927
0.0988758
0.0968336
0.0948013
0.0927809
0.0907727
0.0887788
0.0867992
0.084836
0.0828893
0.0809612
0.0790514
0.077162
0.0752925
0.0734449
0.0716185
0.0698153
0.0680344
0.0662778
0.0645442
0.0628358
0.061151
0.059492
0.057857
0.0562483
0.0546639
0.0531061
0.0515727
0.050066
0.0485839
0.0471284
0.0456974
0.0442931
0.042913
0.0415595
0.0402301
0.038927
0.0376477
0.0363945
0.0351647
0.0339607
0.0327798
0.0316241
0.0304912
0.0293831
0.0282973
0.0272357
0.026196
0.0251799
0.0241851
0.0232132
0.0222621
0.0213332
0.0204244
0.0195371
0.0186691
0.0178217
0.0169929
0.0161838
0.0153925
0.0146199
0.0138643
0.0131263
0.0124045
0.0116991
0.0110092
0.0103344
0.00967381
0.00902695
0.00840343
0.00779925
0.172921
0.172923
0.172771
0.172533
0.172199
0.171773
0.171259
0.170662
0.169985
0.169231
0.168403
0.167502
0.166533
0.165496
0.164395
0.163232
0.162008
0.160726
0.159388
0.157996
0.156552
0.155058
0.153517
0.151929
0.150299
0.148626
0.146915
0.145166
0.143382
0.141565
0.139717
0.137841
0.135938
0.13401
0.13206
0.13009
0.128101
0.126096
0.124076
0.122044
0.120002
0.117951
0.115893
0.113831
0.111765
0.109699
0.107632
0.105568
0.103508
0.101453
0.099405
0.0973654
0.095336
0.0933179
0.0913127
0.0893211
0.0873444
0.0853835
0.0834397
0.0815138
0.0796068
0.0777195
0.0758528
0.0740071
0.0721834
0.0703819
0.0686036
0.0668484
0.0651172
0.06341
0.0617273
0.0600692
0.0584361
0.056828
0.0552453
0.0536877
0.0521556
0.0506489
0.0491678
0.0477119
0.0462817
0.0448766
0.0434972
0.0421426
0.0408136
0.0395092
0.0382301
0.0369753
0.0357456
0.0345399
0.0333588
0.0322014
0.0310683
0.0299583
0.0288721
0.0278086
0.0267685
0.0257504
0.0247551
0.0237813
0.0228297
0.0218988
0.0209894
0.0201002
0.0192315
0.0183822
0.0175528
0.0167418
0.0159498
0.0151755
0.014419
0.0136794
0.0129567
0.0122499
0.011559
0.0108831
0.0102212
0.00957351
0.00894992
0.00834655
0.173104
0.17311
0.172963
0.172731
0.172404
0.171984
0.171478
0.17089
0.170221
0.169476
0.168656
0.167766
0.166806
0.16578
0.16469
0.163537
0.162324
0.161053
0.159725
0.158344
0.156911
0.155428
0.153897
0.15232
0.150699
0.149036
0.147334
0.145594
0.143819
0.142011
0.140172
0.138303
0.136407
0.134487
0.132544
0.13058
0.128597
0.126597
0.124583
0.122556
0.120519
0.118472
0.116419
0.11436
0.112298
0.110235
0.108172
0.106111
0.104054
0.102002
0.0999575
0.097921
0.0958943
0.0938791
0.0918764
0.0898878
0.0879136
0.0859558
0.0840144
0.0820913
0.0801867
0.0783021
0.0764376
0.0745945
0.0727728
0.0709738
0.0691972
0.0674442
0.0657146
0.0640092
0.0623279
0.0606713
0.0590393
0.0574324
0.0558503
0.0542935
0.0527619
0.0512557
0.0497746
0.0483189
0.0468885
0.0454833
0.0441033
0.0427483
0.0414185
0.0401134
0.0388333
0.0375776
0.0363466
0.0351397
0.0339573
0.0327985
0.0316638
0.0305523
0.0294645
0.0283994
0.0273574
0.0263376
0.0253404
0.0243647
0.023411
0.0224782
0.0215667
0.0206753
0.0198044
0.018953
0.0181212
0.0173079
0.0165135
0.0157367
0.0149778
0.0142357
0.0135104
0.0128011
0.0121076
0.011429
0.0107643
0.010114
0.00948888
0.0088841
0.173293
0.173305
0.173163
0.172937
0.172617
0.172204
0.171706
0.171126
0.170466
0.16973
0.168921
0.16804
0.167091
0.166076
0.164996
0.163855
0.162653
0.161393
0.160077
0.158707
0.157285
0.155813
0.154293
0.152726
0.151116
0.149464
0.147771
0.146041
0.144275
0.142476
0.140645
0.138785
0.136897
0.134984
0.133047
0.13109
0.129113
0.12712
0.125111
0.123089
0.121056
0.119015
0.116965
0.114911
0.112853
0.110794
0.108735
0.106677
0.104623
0.102575
0.100533
0.0984996
0.096476
0.0944635
0.092464
0.0904779
0.088507
0.0865516
0.0846134
0.0826926
0.0807911
0.0789085
0.077047
0.0752057
0.0733868
0.0715894
0.0698153
0.0680636
0.0663363
0.0646319
0.0629524
0.0612965
0.0596661
0.0580594
0.0564786
0.0549217
0.0533909
0.0518842
0.0504037
0.0489472
0.0475169
0.0461106
0.0447303
0.043374
0.0420436
0.0407369
0.0394559
0.0381984
0.0369663
0.0357574
0.0345735
0.0334125
0.0322761
0.0311622
0.0300725
0.0290048
0.0279607
0.0269382
0.0259386
0.0249601
0.0240039
0.0230681
0.0221538
0.0212593
0.0203855
0.0195308
0.0186959
0.0178793
0.0170816
0.0163014
0.015539
0.0147935
0.0140646
0.0133518
0.0126546
0.0119725
0.0113042
0.0106503
0.010023
0.00941627
0.173489
0.173507
0.173371
0.173151
0.172837
0.172433
0.171943
0.171371
0.170721
0.169994
0.169195
0.168325
0.167387
0.166383
0.165315
0.164185
0.162995
0.161747
0.160442
0.159084
0.157674
0.156213
0.154704
0.153149
0.15155
0.149908
0.148226
0.146506
0.14475
0.142959
0.141137
0.139285
0.137405
0.1355
0.133571
0.13162
0.12965
0.127662
0.125659
0.123643
0.121615
0.119578
0.117534
0.115483
0.11343
0.111374
0.109319
0.107265
0.105215
0.10317
0.101131
0.099101
0.0970805
0.0950713
0.0930745
0.0910916
0.0891234
0.0871712
0.0852356
0.0833178
0.0814186
0.079539
0.0776795
0.075841
0.0740238
0.0722288
0.0704562
0.0687067
0.0669804
0.0652778
0.0635991
0.0619446
0.0603144
0.0587089
0.0571279
0.0555718
0.0540404
0.0525341
0.0510525
0.0495961
0.0481644
0.0467578
0.0453758
0.0440189
0.0426864
0.0413787
0.0400953
0.0388366
0.0376017
0.0363913
0.0352045
0.0340417
0.0329021
0.0317862
0.030693
0.0296231
0.0285753
0.0275502
0.0265468
0.0255655
0.0246052
0.0236664
0.0227479
0.0218501
0.0209719
0.0201137
0.0192742
0.0184538
0.0176515
0.0168672
0.0161002
0.0153502
0.0146167
0.0138992
0.0131973
0.0125103
0.0118372
0.0111782
0.0105474
0.00993664
0.173693
0.173715
0.173585
0.173373
0.173066
0.172669
0.172188
0.171625
0.170984
0.170268
0.169479
0.16862
0.167693
0.166701
0.165645
0.164527
0.163349
0.162113
0.160821
0.159475
0.158077
0.156629
0.155132
0.153588
0.152
0.150369
0.148698
0.146988
0.145242
0.143461
0.141648
0.139804
0.137933
0.136035
0.134114
0.13217
0.130206
0.128225
0.126228
0.124217
0.122194
0.120162
0.118122
0.116077
0.114027
0.111976
0.109925
0.107875
0.105828
0.103786
0.101751
0.0997246
0.0977076
0.0957014
0.0937079
0.0917278
0.089763
0.0878134
0.085881
0.0839657
0.0820694
0.0801921
0.0783352
0.0764987
0.0746839
0.0728905
0.0711199
0.0693717
0.0676469
0.0659453
0.0642676
0.0626137
0.0609842
0.0593788
0.057798
0.0562417
0.05471
0.0532031
0.0517208
0.0502633
0.0488305
0.0474225
0.046039
0.0446803
0.0433459
0.0420362
0.0407506
0.0394894
0.038252
0.0370389
0.0358492
0.0346834
0.0335407
0.0324215
0.0313249
0.0302513
0.0291999
0.0281709
0.0271636
0.0261781
0.0252137
0.0242704
0.0233475
0.022445
0.0215622
0.020699
0.0198547
0.0190293
0.0182218
0.0174323
0.01666
0.0159047
0.0151658
0.014443
0.0137357
0.0130433
0.0123649
0.0117005
0.0110658
0.0104514
0.173903
0.173931
0.173807
0.173602
0.173302
0.172914
0.172441
0.171888
0.171256
0.170551
0.169773
0.168926
0.16801
0.16703
0.165986
0.164881
0.163716
0.162493
0.161214
0.159881
0.158495
0.157059
0.155574
0.154042
0.152466
0.150847
0.149186
0.147487
0.145751
0.14398
0.142176
0.140342
0.138479
0.136589
0.134675
0.132739
0.130782
0.128807
0.126816
0.124811
0.122794
0.120767
0.118732
0.116691
0.114646
0.112599
0.110551
0.108505
0.106462
0.104425
0.102393
0.10037
0.0983564
0.0963537
0.0943631
0.0923866
0.0904244
0.0884783
0.0865484
0.0846363
0.0827423
0.0808678
0.0790128
0.0771789
0.0753655
0.0735744
0.0718048
0.0700584
0.0683342
0.066634
0.0649565
0.0633035
0.0616737
0.0600687
0.0584871
0.0569307
0.0553979
0.0538904
0.0524066
0.0509481
0.0495133
0.0481038
0.046718
0.0453574
0.0440203
0.0427083
0.0414196
0.0401558
0.038915
0.0376989
0.0365055
0.0353364
0.0341897
0.0330668
0.0319659
0.0308883
0.0298323
0.0287991
0.0277869
0.0267969
0.0258273
0.0248791
0.0239508
0.0230432
0.0221548
0.0212863
0.0204362
0.0196051
0.0187918
0.0179964
0.0172181
0.0164568
0.0157118
0.0149827
0.0142693
0.0135707
0.012886
0.0122152
0.0115756
0.0109566
0.17412
0.174153
0.174036
0.173837
0.173546
0.173166
0.172702
0.172158
0.171537
0.170843
0.170076
0.169241
0.168338
0.16737
0.166339
0.165247
0.164095
0.162885
0.161619
0.160299
0.158927
0.157503
0.156031
0.154512
0.152948
0.15134
0.149691
0.148003
0.146277
0.144517
0.142723
0.140897
0.139043
0.137162
0.135255
0.133326
0.131376
0.129408
0.127423
0.125424
0.123412
0.121391
0.119361
0.117325
0.115284
0.113241
0.111198
0.109156
0.107118
0.105084
0.103056
0.101037
0.0990268
0.0970274
0.0950404
0.0930669
0.0911078
0.0891647
0.0872377
0.0853285
0.083437
0.0815649
0.0797121
0.0778801
0.0760686
0.0742789
0.0725108
0.0707653
0.0690421
0.0673423
0.0656653
0.0640122
0.0623824
0.0607767
0.0591948
0.0576372
0.0561035
0.0545943
0.0531092
0.0516484
0.050212
0.0487998
0.0474119
0.0460481
0.0447086
0.043393
0.0421015
0.0408337
0.0395898
0.0383694
0.0371725
0.0359987
0.0348481
0.0337202
0.0326152
0.0315323
0.0304718
0.029433
0.028416
0.0274201
0.0264454
0.0254911
0.0245575
0.0236435
0.0227494
0.0218743
0.0210183
0.0201805
0.0193609
0.0185589
0.0177741
0.0170061
0.0162544
0.0155188
0.0147986
0.0140935
0.0134019
0.0127248
0.0120795
0.0114566
0.174343
0.174382
0.174271
0.17408
0.173797
0.173425
0.172971
0.172437
0.171827
0.171143
0.170389
0.169565
0.168675
0.16772
0.166702
0.165624
0.164485
0.163289
0.162037
0.160731
0.159372
0.157962
0.156503
0.154996
0.153445
0.151849
0.150212
0.148535
0.14682
0.14507
0.143286
0.14147
0.139625
0.137752
0.135853
0.133932
0.131989
0.130028
0.128049
0.126056
0.12405
0.122034
0.120009
0.117978
0.115942
0.113904
0.111866
0.109828
0.107793
0.105764
0.10374
0.101724
0.099718
0.0977223
0.0957387
0.0937682
0.0918126
0.0898722
0.0879485
0.0860415
0.0841529
0.0822827
0.0804324
0.0786017
0.0767923
0.0750034
0.0732368
0.0714916
0.0697695
0.0680694
0.0663929
0.064739
0.0631092
0.0615022
0.0599196