/*--------------------------------*- C++ -*----------------------------------*\
  =========                 |
  \\      /  F ield         | OpenFOAM: The Open Source CFD Toolbox
   \\    /   O peration     | Website:  https://openfoam.org
    \\  /    A nd           | Version:  8
     \\/     M anipulation  |
\*---------------------------------------------------------------------------*/
FoamFile
{
    version     2.0;
    format      ascii;
    class       volScalarField;
    location    "0.8";
    object      p;
}
// * * * * * * * * * * * * * * * * * * * * * * * * * * * * * * * * * * * * * //

dimensions      [0 2 -2 0 0 0 0];

internalField   nonuniform List<scalar> 
248760
(
0.426129
0.425312
0.423206
0.420076
0.416032
0.41108
0.405256
0.398622
0.391236
0.383147
0.374401
0.365042
0.355112
0.344644
0.333677
0.322242
0.310376
0.29811
0.285484
0.272529
0.259283
0.245778
0.232046
0.218117
0.204007
0.189761
0.175368
0.16092
0.146389
0.131816
0.117149
0.102416
0.0875918
0.0727168
0.0577837
0.0428433
0.0278967
0.0130049
-0.00183344
-0.016554
-0.031173
-0.0456293
-0.0599543
-0.0740884
-0.0880712
-0.101843
-0.115445
-0.128822
-0.142017
-0.154982
-0.16776
-0.180315
-0.192687
-0.204848
-0.216827
-0.228603
-0.240193
-0.251574
-0.262752
-0.27371
-0.284443
-0.294946
-0.305209
-0.315239
-0.325026
-0.334588
-0.343909
-0.353021
-0.361897
-0.370573
-0.379012
-0.387255
-0.395253
-0.403049
-0.410586
-0.417913
-0.424969
-0.431805
-0.438363
-0.4447
-0.450755
-0.456589
-0.462141
-0.467479
-0.472533
-0.477374
-0.481928
-0.48627
-0.490317
-0.49415
-0.497679
-0.500998
-0.504008
-0.506813
-0.509311
-0.511614
-0.513611
-0.51542
-0.51692
-0.518235
-0.519231
-0.520032
-0.520498
-0.520757
-0.520662
-0.520346
-0.519659
-0.518742
-0.517441
-0.515903
-0.513974
-0.511807
-0.509245
-0.506446
-0.503251
-0.49982
-0.495993
-0.491918
-0.487349
-0.4831
0.426496
0.425702
0.423614
0.420492
0.416454
0.411509
0.405691
0.399064
0.391683
0.383599
0.374859
0.365505
0.355579
0.345116
0.334152
0.32272
0.310855
0.298592
0.285966
0.273013
0.259768
0.246264
0.232532
0.218604
0.2045
0.190243
0.175865
0.161402
0.14688
0.132298
0.117642
0.102901
0.0880815
0.0731943
0.0582615
0.0433078
0.0283631
0.0134579
-0.0013752
-0.0161079
-0.0307161
-0.0451836
-0.0594949
-0.0736402
-0.0876079
-0.101392
-0.114982
-0.128372
-0.141556
-0.154535
-0.167307
-0.179877
-0.192246
-0.204423
-0.216408
-0.228202
-0.2398
-0.2512
-0.26239
-0.273362
-0.284108
-0.29462
-0.304896
-0.31493
-0.32473
-0.334293
-0.343633
-0.352742
-0.36164
-0.370314
-0.378779
-0.387016
-0.39504
-0.402825
-0.410387
-0.417695
-0.42477
-0.431581
-0.438153
-0.444456
-0.450521
-0.456317
-0.461878
-0.467168
-0.472228
-0.477014
-0.48157
-0.485843
-0.489884
-0.493633
-0.497147
-0.500366
-0.503358
-0.506059
-0.508548
-0.510752
-0.512758
-0.514484
-0.516016
-0.51726
-0.518305
-0.519044
-0.519569
-0.519767
-0.519736
-0.51936
-0.518743
-0.517769
-0.516549
-0.514961
-0.513127
-0.51092
-0.50847
-0.505642
-0.502568
-0.499111
-0.495414
-0.491321
-0.486872
-0.482616
0.427186
0.426396
0.424316
0.421201
0.417171
0.412235
0.406426
0.399805
0.392432
0.384355
0.375621
0.366273
0.356351
0.345892
0.33493
0.3235
0.311635
0.299372
0.286745
0.273791
0.260545
0.247039
0.233307
0.219377
0.205269
0.191014
0.176625
0.162159
0.147625
0.133045
0.118382
0.103644
0.0888142
0.0739214
0.0589756
0.0440142
0.0290575
0.014147
-0.000694271
-0.0154282
-0.0300408
-0.0445057
-0.0588188
-0.0729611
-0.0869321
-0.100716
-0.114312
-0.127706
-0.140899
-0.153885
-0.166669
-0.179251
-0.191638
-0.203834
-0.215841
-0.227659
-0.239284
-0.250709
-0.261924
-0.27292
-0.283687
-0.294217
-0.304509
-0.314558
-0.324372
-0.33395
-0.343305
-0.352432
-0.361349
-0.370043
-0.378528
-0.386785
-0.394827
-0.402627
-0.410198
-0.417514
-0.424591
-0.431401
-0.437967
-0.444263
-0.450318
-0.456102
-0.461651
-0.466928
-0.471974
-0.476744
-0.481282
-0.485532
-0.489544
-0.493257
-0.496733
-0.49991
-0.502861
-0.505522
-0.507977
-0.510158
-0.512153
-0.513878
-0.515421
-0.516683
-0.517748
-0.518508
-0.519051
-0.519263
-0.519238
-0.518863
-0.51824
-0.517257
-0.516024
-0.514425
-0.512578
-0.510365
-0.507914
-0.50509
-0.502029
-0.498583
-0.494902
-0.490818
-0.486369
-0.482098
0.428202
0.427428
0.425365
0.422267
0.418251
0.413329
0.407533
0.400925
0.393563
0.385497
0.376773
0.367435
0.357521
0.347068
0.336111
0.324684
0.312822
0.300559
0.287933
0.274979
0.261733
0.248227
0.234495
0.220562
0.206456
0.192189
0.177806
0.163319
0.148785
0.134189
0.119533
0.104785
0.0899575
0.0750506
0.0601007
0.0451225
0.0301619
0.0152352
0.000393372
-0.0143551
-0.0289634
-0.0434411
-0.0577478
-0.0719044
-0.0858712
-0.0996737
-0.11327
-0.126687
-0.139887
-0.152899
-0.165696
-0.178308
-0.190715
-0.202945
-0.21498
-0.226836
-0.238493
-0.249956
-0.261203
-0.272232
-0.283026
-0.293582
-0.303897
-0.313967
-0.323803
-0.333401
-0.34278
-0.35193
-0.360875
-0.369591
-0.378106
-0.386383
-0.39445
-0.402264
-0.409853
-0.417173
-0.424259
-0.431065
-0.437633
-0.443917
-0.449968
-0.455736
-0.461277
-0.466533
-0.471568
-0.476312
-0.480834
-0.485054
-0.489047
-0.492728
-0.496187
-0.499337
-0.502277
-0.504921
-0.507378
-0.509556
-0.511566
-0.513299
-0.514865
-0.51614
-0.51723
-0.518001
-0.518564
-0.51878
-0.518768
-0.518388
-0.517771
-0.516775
-0.515542
-0.513926
-0.512072
-0.509835
-0.507371
-0.504517
-0.501433
-0.497948
-0.494238
-0.490113
-0.48563
-0.481309
0.429546
0.428794
0.426751
0.423672
0.419674
0.414768
0.408989
0.402396
0.395049
0.386997
0.378286
0.368958
0.359053
0.348608
0.337657
0.326234
0.314373
0.302112
0.289486
0.276532
0.263285
0.249779
0.236045
0.222111
0.207997
0.193733
0.17933
0.164841
0.150284
0.135682
0.121015
0.106269
0.0914331
0.0765226
0.0615573
0.0465706
0.0315916
0.0166566
0.00179535
-0.012959
-0.0275863
-0.0420663
-0.0563925
-0.070552
-0.0845423
-0.0983514
-0.111977
-0.125406
-0.13864
-0.15167
-0.164504
-0.17714
-0.189589
-0.20185
-0.21393
-0.225823
-0.237526
-0.249027
-0.260316
-0.27138
-0.28221
-0.292798
-0.303141
-0.313242
-0.323101
-0.332732
-0.342134
-0.351321
-0.360287
-0.369045
-0.377579
-0.385898
-0.393978
-0.401829
-0.409424
-0.416776
-0.423858
-0.43069
-0.437247
-0.443556
-0.44959
-0.455381
-0.460899
-0.466181
-0.471187
-0.475958
-0.480448
-0.484702
-0.488667
-0.492396
-0.495832
-0.49904
-0.501963
-0.504676
-0.507115
-0.509366
-0.511351
-0.513155
-0.514687
-0.516029
-0.517079
-0.517916
-0.518431
-0.518713
-0.518647
-0.518333
-0.517655
-0.516727
-0.515426
-0.513876
-0.511948
-0.509775
-0.507219
-0.504422
-0.501233
-0.497797
-0.493971
-0.489878
-0.485291
-0.480967
0.431204
0.43048
0.428462
0.425406
0.421431
0.416547
0.410787
0.404214
0.396885
0.38885
0.380154
0.370839
0.360946
0.35051
0.339566
0.328148
0.316292
0.304033
0.291408
0.278455
0.265208
0.251701
0.237965
0.224026
0.209912
0.195632
0.18123
0.166718
0.152152
0.137527
0.122857
0.108101
0.0932661
0.0783436
0.0633711
0.0483667
0.0333752
0.0184189
0.00354256
-0.0112335
-0.0258747
-0.0403762
-0.0547165
-0.068898
-0.082905
-0.0967408
-0.110389
-0.12385
-0.137112
-0.150178
-0.163046
-0.175721
-0.188209
-0.200514
-0.212637
-0.224577
-0.236326
-0.247874
-0.259207
-0.270314
-0.281184
-0.29181
-0.302189
-0.312324
-0.322218
-0.331883
-0.341319
-0.350541
-0.359544
-0.368338
-0.376907
-0.385259
-0.393372
-0.401251
-0.408873
-0.416248
-0.423351
-0.430202
-0.436776
-0.443099
-0.449148
-0.454952
-0.460484
-0.465779
-0.470801
-0.47559
-0.480101
-0.48438
-0.488374
-0.492134
-0.495602
-0.498843
-0.501798
-0.504539
-0.507002
-0.50927
-0.511271
-0.513088
-0.514632
-0.515985
-0.517047
-0.517897
-0.518424
-0.518716
-0.518661
-0.518354
-0.517681
-0.516752
-0.51545
-0.513895
-0.511961
-0.509778
-0.507216
-0.504415
-0.501226
-0.497792
-0.493963
-0.489866
-0.485263
-0.480916
0.433177
0.432485
0.430496
0.427467
0.423518
0.418659
0.412923
0.406372
0.399065
0.391049
0.382371
0.373072
0.363192
0.352767
0.341832
0.33042
0.318568
0.306312
0.29369
0.280738
0.267491
0.253982
0.240243
0.226301
0.212176
0.197898
0.183471
0.168957
0.154358
0.139724
0.125031
0.110276
0.0954275
0.0805043
0.0655131
0.0504996
0.0354811
0.0205102
0.00560209
-0.00918964
-0.0238657
-0.0383822
-0.0527576
-0.0669542
-0.0809998
-0.0948551
-0.108546
-0.122033
-0.135342
-0.14844
-0.161358
-0.174072
-0.186612
-0.19896
-0.211139
-0.223126
-0.234931
-0.246528
-0.257916
-0.26907
-0.27999
-0.290661
-0.301085
-0.311263
-0.321199
-0.330908
-0.340386
-0.349653
-0.358698
-0.367537
-0.376147
-0.384545
-0.392696
-0.400619
-0.408276
-0.41569
-0.422825
-0.429713
-0.436316
-0.442676
-0.448754
-0.454596
-0.460158
-0.465492
-0.470545
-0.475374
-0.479916
-0.484236
-0.48826
-0.49206
-0.495556
-0.498837
-0.501818
-0.504595
-0.507081
-0.509384
-0.511406
-0.513256
-0.514822
-0.516212
-0.517298
-0.518188
-0.518744
-0.519081
-0.519056
-0.518793
-0.518148
-0.517256
-0.515972
-0.514441
-0.512513
-0.51034
-0.507767
-0.50496
-0.501746
-0.498295
-0.494433
-0.490318
-0.485683
-0.481339
0.43545
0.434796
0.43284
0.429844
0.425925
0.421095
0.415386
0.408862
0.401578
0.393585
0.384927
0.375647
0.365783
0.35537
0.344445
0.333041
0.321195
0.308944
0.296325
0.283374
0.270127
0.256617
0.242875
0.228927
0.214799
0.2005
0.186076
0.17153
0.156921
0.142255
0.127548
0.112776
0.0979255
0.0829887
0.0679892
0.052953
0.0379178
0.0229155
0.00798551
-0.0068437
-0.021543
-0.0360995
-0.0504978
-0.0647363
-0.0788063
-0.0927077
-0.106428
-0.119966
-0.133311
-0.146465
-0.159423
-0.172195
-0.184781
-0.19719
-0.209419
-0.221468
-0.233327
-0.244986
-0.256428
-0.267643
-0.278616
-0.289342
-0.299819
-0.310048
-0.320038
-0.329793
-0.339327
-0.348639
-0.35774
-0.366623
-0.375292
-0.38373
-0.391939
-0.399899
-0.407614
-0.415063
-0.422255
-0.429174
-0.435837
-0.442225
-0.448365
-0.454233
-0.459861
-0.46522
-0.470342
-0.475192
-0.479807
-0.484145
-0.488246
-0.492063
-0.495646
-0.498944
-0.502018
-0.504808
-0.507389
-0.509694
-0.511805
-0.513644
-0.515294
-0.516664
-0.517839
-0.518711
-0.519368
-0.519696
-0.519785
-0.519516
-0.518992
-0.518091
-0.516927
-0.515374
-0.513559
-0.511348
-0.508879
-0.506011
-0.502883
-0.499347
-0.495555
-0.491343
-0.486738
-0.482312
0.438025
0.437412
0.435494
0.432534
0.42865
0.423852
0.418174
0.411678
0.404423
0.396455
0.38782
0.378559
0.368713
0.358315
0.347401
0.336007
0.324168
0.311922
0.299306
0.286357
0.273111
0.2596
0.245854
0.231901
0.217759
0.203461
0.189007
0.174457
0.159813
0.145128
0.13039
0.115608
0.10074
0.085798
0.0707798
0.055729
0.0406653
0.0256383
0.010672
-0.00418803
-0.018929
-0.0335194
-0.0479603
-0.0622337
-0.0763486
-0.0902891
-0.104059
-0.117641
-0.13104
-0.144245
-0.157261
-0.170088
-0.182735
-0.195204
-0.207496
-0.219608
-0.231533
-0.243257
-0.254765
-0.266045
-0.277083
-0.287873
-0.298413
-0.308704
-0.318755
-0.328571
-0.338164
-0.347537
-0.356698
-0.365641
-0.374368
-0.382865
-0.391132
-0.39915
-0.40692
-0.414424
-0.421671
-0.428646
-0.435363
-0.441808
-0.448003
-0.453931
-0.459615
-0.465033
-0.470214
-0.475125
-0.479799
-0.484199
-0.488365
-0.49225
-0.495904
-0.499273
-0.502417
-0.505272
-0.507913
-0.510273
-0.512431
-0.51431
-0.515999
-0.517408
-0.518625
-0.519545
-0.520256
-0.520643
-0.520793
-0.520585
-0.520118
-0.519269
-0.518147
-0.516632
-0.51484
-0.512653
-0.510203
-0.507354
-0.504245
-0.500727
-0.496954
-0.492751
-0.488154
-0.483734
0.440887
0.440322
0.438445
0.435525
0.43168
0.426918
0.421275
0.414812
0.407587
0.399647
0.391038
0.3818
0.371973
0.361592
0.350692
0.339309
0.327478
0.315239
0.302627
0.289681
0.276435
0.262923
0.249173
0.235212
0.221066
0.206742
0.19229
0.177704
0.16305
0.148323
0.133567
0.118753
0.103878
0.0889154
0.07389
0.0588108
0.043729
0.0286626
0.0136697
-0.0012402
-0.0160136
-0.0306588
-0.0451335
-0.0594645
-0.0736152
-0.0876158
-0.101426
-0.115074
-0.12852
-0.141793
-0.154863
-0.167762
-0.180468
-0.193011
-0.205366
-0.217555
-0.229546
-0.241347
-0.252925
-0.264282
-0.27539
-0.286256
-0.296865
-0.30723
-0.31735
-0.327238
-0.336901
-0.346343
-0.355574
-0.364585
-0.373381
-0.381945
-0.39028
-0.398361
-0.406198
-0.413766
-0.42108
-0.428116
-0.434902
-0.441411
-0.447678
-0.453672
-0.459431
-0.464918
-0.470175
-0.475156
-0.479907
-0.484375
-0.488615
-0.492563
-0.496289
-0.499715
-0.502922
-0.505828
-0.508531
-0.51094
-0.51316
-0.515094
-0.516854
-0.518329
-0.51963
-0.52063
-0.521437
-0.521912
-0.522161
-0.52204
-0.521665
-0.520889
-0.51984
-0.518374
-0.51663
-0.514465
-0.512035
-0.509182
-0.50607
-0.502531
-0.498748
-0.494527
-0.489932
-0.485506
0.44404
0.443524
0.441694
0.438818
0.435015
0.430293
0.424688
0.418261
0.411069
0.40316
0.394578
0.385366
0.37556
0.365197
0.354313
0.342942
0.331121
0.318889
0.306283
0.29334
0.280095
0.266581
0.252826
0.238859
0.224697
0.210374
0.195886
0.181298
0.166602
0.151855
0.137058
0.122222
0.107322
0.0923492
0.0773013
0.0622059
0.0470904
0.0319965
0.016957
0.00201031
-0.0128194
-0.0275063
-0.0420419
-0.0564157
-0.0706299
-0.0846757
-0.0985534
-0.112252
-0.125771
-0.139101
-0.152248
-0.16521
-0.177996
-0.190606
-0.203044
-0.215304
-0.22738
-0.239256
-0.25092
-0.262353
-0.273547
-0.28449
-0.295184
-0.305627
-0.315828
-0.325795
-0.335536
-0.345059
-0.354365
-0.363457
-0.372326
-0.380971
-0.389376
-0.397539
-0.405444
-0.413092
-0.420472
-0.427593
-0.434444
-0.441041
-0.447375
-0.453463
-0.459291
-0.464879
-0.470205
-0.475292
-0.480109
-0.484685
-0.488982
-0.493038
-0.49681
-0.500343
-0.503591
-0.506611
-0.509348
-0.511874
-0.514127
-0.516186
-0.517978
-0.519583
-0.520914
-0.522049
-0.522884
-0.523495
-0.523769
-0.523786
-0.523427
-0.522784
-0.521739
-0.520399
-0.518643
-0.516595
-0.514128
-0.511376
-0.508207
-0.504767
-0.500917
-0.496791
-0.492152
-0.487802
0.447467
0.447007
0.445227
0.4424
0.438643
0.433965
0.428401
0.422013
0.414857
0.406982
0.398431
0.389246
0.379464
0.369122
0.358254
0.346898
0.335089
0.322865
0.310266
0.297327
0.284083
0.270567
0.256808
0.242832
0.228665
0.214312
0.199826
0.185196
0.17049
0.155698
0.140874
0.125998
0.11108
0.0960816
0.0810208
0.0658965
0.0507559
0.0356207
0.0205429
0.00554212
-0.00933654
-0.0240845
-0.038673
-0.0531107
-0.0673804
-0.0814917
-0.0954284
-0.109197
-0.122782
-0.136188
-0.149407
-0.162449
-0.175313
-0.188006
-0.200526
-0.212872
-0.225033
-0.236997
-0.248748
-0.260271
-0.271554
-0.282587
-0.293369
-0.303902
-0.314192
-0.324248
-0.334077
-0.343688
-0.353081
-0.36226
-0.371216
-0.379948
-0.38844
-0.396688
-0.404679
-0.412414
-0.41988
-0.427087
-0.434026
-0.440712
-0.447136
-0.453315
-0.459237
-0.464919
-0.470341
-0.475523
-0.480437
-0.485109
-0.489505
-0.493658
-0.497529
-0.501165
-0.504514
-0.507635
-0.510471
-0.513094
-0.515439
-0.517585
-0.519456
-0.521137
-0.522538
-0.523739
-0.524639
-0.525314
-0.52565
-0.525724
-0.525421
-0.524829
-0.523831
-0.522531
-0.520817
-0.518803
-0.516377
-0.513671
-0.510559
-0.507178
-0.503389
-0.499326
-0.494745
-0.490444
0.451173
0.450772
0.449047
0.446271
0.442565
0.437933
0.432414
0.426068
0.418951
0.411112
0.402594
0.393438
0.383683
0.373363
0.362514
0.351173
0.339377
0.327163
0.314571
0.301636
0.288394
0.274876
0.261112
0.247129
0.232944
0.218592
0.204065
0.189432
0.174678
0.159871
0.144994
0.130093
0.115133
0.100121
0.0850302
0.0698893
0.054708
0.0395424
0.0244074
0.00936311
-0.0055852
-0.0203837
-0.0350487
-0.0495395
-0.0638869
-0.0780529
-0.0920711
-0.1059
-0.119571
-0.133045
-0.146356
-0.159474
-0.172433
-0.185207
-0.197825
-0.210257
-0.222517
-0.23457
-0.246423
-0.258037
-0.269422
-0.280548
-0.291432
-0.302059
-0.31245
-0.3226
-0.332528
-0.342234
-0.351726
-0.361
-0.370055
-0.378883
-0.387473
-0.39582
-0.403911
-0.411745
-0.419311
-0.42662
-0.43366
-0.44045
-0.446976
-0.453261
-0.459286
-0.465073
-0.470597
-0.475884
-0.480899
-0.485675
-0.490168
-0.494425
-0.49839
-0.502126
-0.505565
-0.508785
-0.511707
-0.514426
-0.516855
-0.519095
-0.521048
-0.522819
-0.5243
-0.525593
-0.526572
-0.527338
-0.527754
-0.527919
-0.527696
-0.527191
-0.526268
-0.525048
-0.523397
-0.521448
-0.519068
-0.516412
-0.51333
-0.509983
-0.506217
-0.502193
-0.497644
-0.493412
0.455141
0.454804
0.453138
0.450419
0.446766
0.442186
0.436714
0.430413
0.423339
0.415539
0.407057
0.397933
0.388206
0.37791
0.367083
0.355759
0.343977
0.331774
0.31919
0.306261
0.293021
0.279502
0.265733
0.251741
0.23755
0.223165
0.20864
0.19396
0.179198
0.164337
0.149435
0.134483
0.119495
0.104449
0.0893399
0.0741652
0.0589555
0.0437398
0.0285609
0.0134505
-0.00155325
-0.0164288
-0.0311541
-0.0457256
-0.0601342
-0.0743833
-0.0884655
-0.102383
-0.116125
-0.129694
-0.143084
-0.156303
-0.169348
-0.182227
-0.194935
-0.207474
-0.219828
-0.23199
-0.243939
-0.255664
-0.267147
-0.278384
-0.289368
-0.300105
-0.310597
-0.320855
-0.330886
-0.340698
-0.350293
-0.359673
-0.368834
-0.377768
-0.386467
-0.394921
-0.403123
-0.411065
-0.418746
-0.426162
-0.433319
-0.440214
-0.446858
-0.453245
-0.459387
-0.465273
-0.470916
-0.476295
-0.481429
-0.486292
-0.490908
-0.495245
-0.499337
-0.503148
-0.506723
-0.510017
-0.513088
-0.515883
-0.518468
-0.52078
-0.522889
-0.524722
-0.526351
-0.527689
-0.528808
-0.529607
-0.530164
-0.530366
-0.530292
-0.52983
-0.529069
-0.527894
-0.526407
-0.524493
-0.52227
-0.51962
-0.516675
-0.513308
-0.509665
-0.505593
-0.501135
-0.496865
0.459378
0.459109
0.457504
0.454845
0.451249
0.446723
0.441303
0.43505
0.428021
0.420263
0.411819
0.402729
0.393032
0.382763
0.371957
0.360652
0.348886
0.336696
0.324121
0.311197
0.29796
0.28444
0.270667
0.256666
0.242456
0.22807
0.2135
0.198818
0.184004
0.169126
0.154168
0.139183
0.124147
0.109075
0.09393
0.0787308
0.0634779
0.0482213
0.0329821
0.0178146
0.00273702
-0.0122058
-0.0270116
-0.0416535
-0.0561437
-0.0704656
-0.0846324
-0.0986286
-0.112462
-0.12612
-0.13961
-0.152925
-0.166075
-0.179057
-0.191873
-0.204517
-0.216981
-0.229251
-0.24131
-0.253145
-0.264741
-0.27609
-0.287188
-0.298039
-0.308645
-0.319017
-0.329162
-0.339088
-0.348799
-0.358294
-0.36757
-0.376621
-0.385437
-0.39401
-0.402332
-0.410396
-0.418198
-0.425736
-0.433014
-0.440031
-0.446794
-0.453299
-0.459558
-0.465559
-0.471315
-0.476808
-0.482055
-0.487033
-0.491764
-0.49622
-0.500435
-0.504374
-0.50808
-0.511513
-0.514728
-0.517666
-0.520391
-0.522835
-0.525068
-0.527012
-0.528739
-0.530161
-0.531355
-0.532225
-0.532846
-0.533118
-0.533116
-0.532732
-0.532048
-0.530957
-0.52955
-0.527724
-0.525588
-0.523031
-0.520177
-0.516898
-0.513344
-0.509349
-0.504964
-0.500758
0.463864
0.463668
0.462131
0.459535
0.456001
0.451532
0.446166
0.439965
0.432985
0.425271
0.416868
0.407815
0.39815
0.387909
0.377129
0.365844
0.354095
0.341919
0.329355
0.316438
0.303204
0.289683
0.275906
0.261895
0.247678
0.233257
0.21869
0.203955
0.189133
0.174195
0.159216
0.144168
0.1291
0.113978
0.0988088
0.0835661
0.0682824
0.0529668
0.0376798
0.0224355
0.00729721
-0.00773457
-0.0226066
-0.037342
-0.0519004
-0.066318
-0.0805577
-0.0946557
-0.108573
-0.122341
-0.135925
-0.149358
-0.162609
-0.175711
-0.188633
-0.201398
-0.21397
-0.226362
-0.238531
-0.25049
-0.262198
-0.273674
-0.284887
-0.295865
-0.30659
-0.31709
-0.327355
-0.337409
-0.34724
-0.356863
-0.366262
-0.375441
-0.384383
-0.393086
-0.401537
-0.409733
-0.417666
-0.425338
-0.432748
-0.439898
-0.446794
-0.453431
-0.459821
-0.465952
-0.471838
-0.477459
-0.482838
-0.487945
-0.492811
-0.497399
-0.501754
-0.505828
-0.509679
-0.513245
-0.5166
-0.519666
-0.52252
-0.525078
-0.527427
-0.529471
-0.5313
-0.532812
-0.534103
-0.535062
-0.535783
-0.536147
-0.536251
-0.535967
-0.535393
-0.534402
-0.533103
-0.531371
-0.529333
-0.526855
-0.524083
-0.520869
-0.517386
-0.513452
-0.509145
-0.504996
0.46861
0.468489
0.467022
0.464494
0.461024
0.456616
0.451308
0.445161
0.438231
0.430564
0.422204
0.41319
0.40356
0.39335
0.382595
0.371333
0.359603
0.347442
0.334889
0.32198
0.308749
0.295229
0.281446
0.267427
0.25319
0.238769
0.224152
0.209416
0.194534
0.179585
0.16454
0.14946
0.134332
0.119171
0.103956
0.0886817
0.0733475
0.0579869
0.0426316
0.0273267
0.0121045
-0.00299759
-0.0179623
-0.0327714
-0.0474262
-0.0619214
-0.0762636
-0.0904476
-0.104477
-0.118343
-0.132049
-0.145589
-0.158967
-0.17218
-0.185231
-0.198108
-0.210808
-0.223312
-0.235612
-0.247686
-0.259528
-0.271123
-0.282473
-0.293574
-0.304437
-0.315063
-0.325466
-0.335648
-0.345617
-0.355369
-0.364905
-0.374215
-0.383295
-0.392132
-0.400722
-0.409055
-0.417129
-0.424943
-0.432495
-0.439789
-0.446826
-0.453611
-0.460141
-0.466421
-0.472444
-0.478219
-0.483732
-0.488997
-0.493995
-0.498749
-0.503232
-0.507476
-0.511449
-0.51519
-0.518656
-0.521895
-0.524852
-0.527584
-0.530023
-0.532234
-0.534142
-0.535817
-0.537175
-0.538291
-0.539073
-0.539595
-0.539757
-0.539634
-0.53912
-0.538298
-0.537058
-0.535495
-0.5335
-0.531181
-0.528428
-0.525369
-0.521886
-0.518106
-0.513808
-0.509796
0.473594
0.473555
0.472162
0.469705
0.466303
0.46196
0.456712
0.450623
0.443747
0.436131
0.427816
0.418844
0.409251
0.399073
0.388347
0.377109
0.365399
0.353255
0.340715
0.327815
0.314589
0.301069
0.287282
0.273253
0.259009
0.24455
0.229936
0.215144
0.200255
0.18524
0.170173
0.155026
0.139856
0.124637
0.109383
0.0940577
0.0786829
0.0632617
0.0478495
0.0324679
0.0171747
0.00198418
-0.0130601
-0.0279633
-0.0427033
-0.057298
-0.0717339
-0.0860268
-0.100162
-0.114148
-0.127971
-0.141638
-0.15514
-0.168482
-0.181657
-0.194662
-0.207487
-0.220119
-0.232545
-0.244749
-0.256722
-0.268451
-0.279937
-0.291177
-0.302179
-0.312947
-0.323493
-0.333818
-0.34393
-0.353826
-0.363506
-0.37296
-0.382184
-0.391166
-0.399903
-0.408383
-0.416606
-0.424568
-0.432273
-0.439718
-0.446909
-0.453847
-0.460532
-0.466967
-0.473147
-0.479078
-0.48475
-0.490173
-0.495332
-0.500247
-0.504895
-0.509304
-0.513444
-0.517352
-0.520988
-0.524396
-0.527521
-0.530414
-0.533009
-0.535366
-0.53741
-0.539208
-0.54068
-0.541898
-0.542775
-0.543384
-0.543634
-0.543597
-0.543174
-0.542441
-0.541298
-0.539831
-0.537941
-0.535732
-0.533099
-0.530159
-0.526793
-0.523127
-0.518936
-0.515013
0.478828
0.478872
0.477556
0.475174
0.471843
0.467568
0.462384
0.456355
0.449536
0.441972
0.433705
0.424777
0.415223
0.40508
0.394383
0.383172
0.371484
0.359357
0.346831
0.333941
0.32072
0.307201
0.29341
0.279374
0.265107
0.250649
0.235983
0.221189
0.206237
0.191209
0.176069
0.160894
0.145651
0.130388
0.115071
0.0997065
0.084271
0.068804
0.0533165
0.0378745
0.0224895
0.00722724
-0.00791964
-0.0229026
-0.0377527
-0.0524354
-0.0669902
-0.0813821
-0.0956468
-0.109745
-0.123706
-0.137494
-0.151139
-0.164605
-0.177922
-0.191051
-0.204016
-0.216772
-0.229339
-0.241671
-0.253788
-0.265651
-0.277287
-0.288667
-0.299824
-0.310737
-0.32144
-0.331914
-0.342184
-0.352231
-0.362069
-0.371675
-0.381058
-0.390193
-0.399089
-0.407722
-0.416106
-0.424224
-0.432089
-0.439693
-0.447046
-0.454146
-0.460995
-0.467595
-0.473942
-0.480042
-0.485882
-0.491478
-0.496807
-0.501896
-0.506713
-0.511297
-0.515604
-0.519683
-0.523479
-0.527052
-0.530327
-0.533375
-0.536108
-0.53861
-0.540784
-0.542718
-0.544312
-0.54566
-0.546656
-0.547394
-0.54776
-0.547848
-0.54754
-0.546929
-0.545899
-0.54455
-0.542768
-0.540672
-0.538138
-0.535303
-0.532029
-0.528465
-0.524361
-0.520554
0.484289
0.484422
0.483188
0.480884
0.477629
0.473424
0.468308
0.462343
0.455583
0.448075
0.439859
0.430977
0.421464
0.411358
0.400694
0.389511
0.377846
0.36574
0.353229
0.34035
0.327136
0.313618
0.299824
0.285778
0.271505
0.257007
0.242345
0.227491
0.212532
0.197433
0.182276
0.167022
0.151738
0.136404
0.121036
0.10561
0.0901287
0.0745964
0.0590511
0.0435266
0.0280698
0.0127094
-0.00252183
-0.0176144
-0.0325576
-0.0473591
-0.0620163
-0.0765368
-0.0909145
-0.105151
-0.119237
-0.133171
-0.146945
-0.16056
-0.174006
-0.187283
-0.200377
-0.213281
-0.225978
-0.238461
-0.250713
-0.262733
-0.27451
-0.286053
-0.297358
-0.30844
-0.319296
-0.32994
-0.340367
-0.350585
-0.360583
-0.37036
-0.379904
-0.389211
-0.398266
-0.407072
-0.415617
-0.423907
-0.431936
-0.439712
-0.447234
-0.454506
-0.46153
-0.468306
-0.474834
-0.48111
-0.487139
-0.492909
-0.498431
-0.50369
-0.508703
-0.513447
-0.517948
-0.522174
-0.52616
-0.529864
-0.533326
-0.536492
-0.539412
-0.542025
-0.544389
-0.546434
-0.548224
-0.549684
-0.55088
-0.551726
-0.55229
-0.552478
-0.552358
-0.551834
-0.550983
-0.549707
-0.548095
-0.54605
-0.543677
-0.540868
-0.537757
-0.534198
-0.530248
-0.526458
0.489991
0.490215
0.489066
0.486843
0.483666
0.479535
0.474489
0.468591
0.461893
0.454442
0.44628
0.437446
0.427977
0.41791
0.40728
0.396126
0.384487
0.372401
0.359907
0.34704
0.333834
0.320318
0.306521
0.292467
0.278173
0.263676
0.248959
0.234104
0.219078
0.203967
0.188732
0.17345
0.158087
0.1427
0.127261
0.111785
0.0962389
0.0806541
0.0650358
0.0494432
0.0338951
0.0184489
0.0031109
-0.0120812
-0.0271418
-0.0420525
-0.056834
-0.0714725
-0.0859829
-0.100349
-0.114576
-0.128647
-0.142568
-0.156326
-0.16992
-0.183339
-0.196579
-0.209627
-0.222472
-0.235101
-0.247505
-0.259679
-0.271615
-0.283318
-0.29479
-0.306038
-0.317065
-0.32788
-0.338481
-0.348874
-0.359046
-0.369
-0.378719
-0.388203
-0.397436
-0.406419
-0.415143
-0.423613
-0.431823
-0.439783
-0.44749
-0.454952
-0.462167
-0.469137
-0.475862
-0.482337
-0.488565
-0.494537
-0.500261
-0.505721
-0.510933
-0.515875
-0.520572
-0.524991
-0.529167
-0.533057
-0.536698
-0.540038
-0.543127
-0.545904
-0.548425
-0.550623
-0.552562
-0.554168
-0.555507
-0.556495
-0.557194
-0.557516
-0.557523
-0.557122
-0.556383
-0.555218
-0.553713
-0.551775
-0.549505
-0.546802
-0.543796
-0.540344
-0.536504
-0.532829
0.49591
0.496231
0.49517
0.493033
0.489937
0.485885
0.480912
0.475083
0.468451
0.461061
0.452955
0.444172
0.434749
0.424723
0.41413
0.403008
0.391396
0.379333
0.366857
0.354004
0.340806
0.327294
0.313494
0.299431
0.285131
0.270593
0.255881
0.240964
0.225931
0.210746
0.195492
0.180126
0.164727
0.149256
0.133761
0.118211
0.102615
0.0869602
0.0712854
0.0556049
0.0399813
0.0244253
0.008994
-0.0063239
-0.0214893
-0.0365336
-0.0514266
-0.0662048
-0.0808356
-0.0953494
-0.109707
-0.123936
-0.137995
-0.151913
-0.165648
-0.179228
-0.192609
-0.205818
-0.218806
-0.231599
-0.244151
-0.256494
-0.268587
-0.280466
-0.292101
-0.303531
-0.314728
-0.325728
-0.336505
-0.347084
-0.357435
-0.367577
-0.377477
-0.387151
-0.396567
-0.405743
-0.414654
-0.42332
-0.431724
-0.439884
-0.447791
-0.455457
-0.462877
-0.470055
-0.476989
-0.483675
-0.490116
-0.496299
-0.502235
-0.507904
-0.513328
-0.518475
-0.523379
-0.527995
-0.532371
-0.536445
-0.540274
-0.543784
-0.547044
-0.549974
-0.552651
-0.55499
-0.557075
-0.558816
-0.560298
-0.561421
-0.562266
-0.562727
-0.562882
-0.562623
-0.562032
-0.561007
-0.559644
-0.557837
-0.5557
-0.553117
-0.550234
-0.546896
-0.543184
-0.539607
0.502061
0.50248
0.501511
0.499462
0.496451
0.492479
0.487583
0.481825
0.475261
0.467935
0.459887
0.451157
0.441783
0.4318
0.421245
0.410157
0.398574
0.386535
0.374079
0.36124
0.348052
0.334543
0.320742
0.306672
0.292351
0.277816
0.263046
0.248129
0.233027
0.217829
0.202493
0.187103
0.171614
0.156089
0.140523
0.124901
0.109244
0.0935246
0.0777815
0.0620224
0.0463077
0.0306513
0.0151076
-0.000326138
-0.015617
-0.0307836
-0.0458093
-0.0607159
-0.0754881
-0.0901384
-0.104648
-0.119021
-0.133241
-0.147308
-0.161206
-0.174936
-0.188482
-0.201839
-0.214994
-0.227938
-0.240664
-0.253163
-0.265435
-0.27748
-0.289301
-0.300902
-0.31229
-0.323467
-0.334438
-0.345198
-0.355747
-0.366074
-0.376176
-0.386039
-0.395663
-0.405035
-0.414159
-0.423027
-0.431648
-0.440016
-0.448142
-0.456022
-0.463661
-0.471056
-0.478208
-0.485113
-0.491767
-0.498172
-0.504315
-0.510205
-0.515827
-0.521196
-0.526288
-0.531126
-0.535678
-0.539975
-0.54397
-0.547701
-0.551114
-0.554257
-0.557071
-0.559612
-0.561816
-0.563745
-0.565331
-0.566631
-0.56757
-0.568204
-0.56845
-0.568364
-0.567866
-0.567017
-0.565743
-0.564122
-0.562077
-0.5597
-0.5569
-0.553787
-0.550164
-0.546801
0.508418
0.508941
0.508068
0.506111
0.503189
0.4993
0.494484
0.488802
0.482309
0.475049
0.467062
0.458389
0.449065
0.439128
0.428614
0.417562
0.40601
0.393998
0.381563
0.36874
0.355563
0.342059
0.328257
0.31418
0.299854
0.285277
0.270515
0.255532
0.240425
0.225149
0.209796
0.194316
0.178788
0.16319
0.147536
0.131858
0.11612
0.100345
0.0845181
0.0686907
0.0528698
0.0371242
0.0214524
0.00591201
-0.00951917
-0.0248026
-0.0399762
-0.0550085
-0.0699362
-0.0847217
-0.0993954
-0.113914
-0.128304
-0.14252
-0.156591
-0.170472
-0.18419
-0.197699
-0.211027
-0.224128
-0.237031
-0.249692
-0.262149
-0.274364
-0.286376
-0.298154
-0.309738
-0.321099
-0.33227
-0.34322
-0.353974
-0.364498
-0.374812
-0.38488
-0.394723
-0.404308
-0.413657
-0.422745
-0.431595
-0.440189
-0.448546
-0.456653
-0.464523
-0.472146
-0.479526
-0.486659
-0.493538
-0.500168
-0.506534
-0.512648
-0.518489
-0.524079
-0.529384
-0.534441
-0.539201
-0.543711
-0.547907
-0.551844
-0.555448
-0.558788
-0.561782
-0.564506
-0.566875
-0.568971
-0.570706
-0.57216
-0.573238
-0.574018
-0.574398
-0.574456
-0.574092
-0.573387
-0.572248
-0.570771
-0.568862
-0.566629
-0.563968
-0.561008
-0.557539
-0.554344
0.514999
0.515628
0.514853
0.512991
0.51016
0.506358
0.501624
0.49602
0.489601
0.482409
0.474486
0.465871
0.456601
0.446711
0.436239
0.425225
0.413706
0.401721
0.389309
0.376504
0.363339
0.349842
0.336039
0.321957
0.307609
0.293037
0.278215
0.263235
0.248054
0.232768
0.217329
0.201825
0.18621
0.170543
0.154829
0.139061
0.123257
0.107402
0.0915086
0.0755896
0.0596854
0.0438255
0.0280499
0.0123765
-0.00317445
-0.0186037
-0.033908
-0.0490962
-0.0641641
-0.0791146
-0.0939367
-0.108628
-0.123172
-0.137564
-0.15179
-0.165848
-0.179721
-0.193408
-0.206893
-0.220175
-0.233239
-0.246089
-0.258715
-0.271125
-0.283314
-0.295295
-0.307063
-0.318632
-0.329994
-0.341158
-0.35211
-0.362855
-0.373376
-0.383674
-0.393732
-0.403554
-0.413126
-0.422456
-0.431535
-0.440371
-0.448959
-0.457306
-0.465408
-0.473267
-0.480879
-0.488242
-0.495354
-0.502208
-0.508807
-0.515138
-0.521212
-0.52701
-0.532549
-0.537802
-0.542793
-0.547484
-0.551908
-0.556016
-0.559845
-0.563344
-0.566556
-0.569423
-0.571998
-0.574218
-0.576143
-0.577704
-0.578963
-0.579844
-0.580411
-0.580582
-0.58042
-0.579846
-0.578927
-0.577586
-0.575903
-0.573798
-0.571375
-0.568516
-0.565277
-0.562178
0.521777
0.522517
0.521845
0.520082
0.517345
0.513633
0.508985
0.503463
0.49712
0.489999
0.482143
0.473589
0.464375
0.454535
0.444109
0.433134
0.421651
0.409697
0.397309
0.384524
0.371372
0.357882
0.344081
0.329992
0.315641
0.301026
0.286214
0.271167
0.255982
0.240615
0.225159
0.209562