/*--------------------------------*- C++ -*----------------------------------*\
  =========                 |
  \\      /  F ield         | OpenFOAM: The Open Source CFD Toolbox
   \\    /   O peration     | Website:  https://openfoam.org
    \\  /    A nd           | Version:  8
     \\/     M anipulation  |
\*---------------------------------------------------------------------------*/
FoamFile
{
    version     2.0;
    format      ascii;
    class       volScalarField;
    location    "6.5";
    object      p;
}
// * * * * * * * * * * * * * * * * * * * * * * * * * * * * * * * * * * * * * //

dimensions      [0 2 -2 0 0 0 0];

internalField   nonuniform List<scalar> 
262620
(
-1.35585
-1.35606
-1.35674
-1.35776
-1.35909
-1.36074
-1.36267
-1.36488
-1.36735
-1.37005
-1.37298
-1.37611
-1.37943
-1.38293
-1.38659
-1.3904
-1.39435
-1.39843
-1.40262
-1.40691
-1.41129
-1.41575
-1.42028
-1.42488
-1.42953
-1.43423
-1.43897
-1.44374
-1.44853
-1.45334
-1.45816
-1.46299
-1.46782
-1.47265
-1.47746
-1.48226
-1.48705
-1.49181
-1.49655
-1.50127
-1.50595
-1.51059
-1.51521
-1.51978
-1.52431
-1.5288
-1.53324
-1.53764
-1.54199
-1.5463
-1.55055
-1.55475
-1.5589
-1.563
-1.56704
-1.57103
-1.57497
-1.57885
-1.58267
-1.58645
-1.59016
-1.59382
-1.59743
-1.60098
-1.60448
-1.60792
-1.6113
-1.61464
-1.61792
-1.62114
-1.62431
-1.62743
-1.6305
-1.63352
-1.63648
-1.63939
-1.64226
-1.64507
-1.64784
-1.65055
-1.65322
-1.65584
-1.65842
-1.66095
-1.66343
-1.66587
-1.66827
-1.67062
-1.67293
-1.6752
-1.67742
-1.67961
-1.68175
-1.68386
-1.68593
-1.68795
-1.68995
-1.6919
-1.69382
-1.6957
-1.69755
-1.69936
-1.70114
-1.70289
-1.7046
-1.70628
-1.70793
-1.70955
-1.71114
-1.7127
-1.71423
-1.71573
-1.7172
-1.71864
-1.72006
-1.72145
-1.72282
-1.72416
-1.72547
-1.72676
-1.35571
-1.35593
-1.3566
-1.35762
-1.35895
-1.3606
-1.36253
-1.36474
-1.3672
-1.36991
-1.37283
-1.37596
-1.37928
-1.38278
-1.38645
-1.39026
-1.39421
-1.39828
-1.40247
-1.40676
-1.41115
-1.41561
-1.42015
-1.42475
-1.4294
-1.4341
-1.43884
-1.44361
-1.4484
-1.45322
-1.45804
-1.46287
-1.4677
-1.47253
-1.47735
-1.48215
-1.48694
-1.49171
-1.49645
-1.50116
-1.50585
-1.5105
-1.51511
-1.51969
-1.52422
-1.52871
-1.53316
-1.53756
-1.54192
-1.54622
-1.55048
-1.55468
-1.55883
-1.56293
-1.56698
-1.57097
-1.57491
-1.5788
-1.58263
-1.5864
-1.59012
-1.59379
-1.59739
-1.60095
-1.60445
-1.60789
-1.61128
-1.61462
-1.6179
-1.62113
-1.6243
-1.62743
-1.6305
-1.63351
-1.63648
-1.6394
-1.64226
-1.64508
-1.64785
-1.65057
-1.65324
-1.65586
-1.65844
-1.66097
-1.66346
-1.6659
-1.6683
-1.67065
-1.67297
-1.67524
-1.67747
-1.67965
-1.6818
-1.68391
-1.68598
-1.68801
-1.69
-1.69196
-1.69388
-1.69576
-1.69761
-1.69943
-1.70121
-1.70296
-1.70467
-1.70636
-1.70801
-1.70963
-1.71122
-1.71278
-1.71431
-1.71581
-1.71729
-1.71873
-1.72015
-1.72155
-1.72291
-1.72425
-1.72557
-1.72686
-1.35548
-1.35569
-1.35636
-1.35738
-1.35871
-1.36035
-1.36228
-1.36449
-1.36695
-1.36965
-1.37258
-1.37571
-1.37903
-1.38253
-1.38619
-1.39001
-1.39396
-1.39804
-1.40223
-1.40652
-1.4109
-1.41537
-1.41991
-1.42451
-1.42917
-1.43387
-1.43861
-1.44338
-1.44818
-1.453
-1.45783
-1.46266
-1.4675
-1.47233
-1.47715
-1.48196
-1.48675
-1.49153
-1.49627
-1.50099
-1.50568
-1.51033
-1.51495
-1.51953
-1.52407
-1.52857
-1.53302
-1.53743
-1.54179
-1.5461
-1.55036
-1.55457
-1.55873
-1.56283
-1.56689
-1.57088
-1.57483
-1.57872
-1.58255
-1.58633
-1.59006
-1.59372
-1.59734
-1.6009
-1.6044
-1.60785
-1.61125
-1.61459
-1.61787
-1.62111
-1.62428
-1.62741
-1.63049
-1.63351
-1.63648
-1.6394
-1.64227
-1.64509
-1.64787
-1.65059
-1.65326
-1.65589
-1.65847
-1.66101
-1.6635
-1.66595
-1.66835
-1.67071
-1.67302
-1.6753
-1.67753
-1.67972
-1.68187
-1.68398
-1.68605
-1.68809
-1.69008
-1.69204
-1.69397
-1.69586
-1.69771
-1.69953
-1.70131
-1.70306
-1.70478
-1.70647
-1.70812
-1.70974
-1.71134
-1.7129
-1.71443
-1.71594
-1.71742
-1.71886
-1.72029
-1.72168
-1.72305
-1.72439
-1.72571
-1.727
-1.35513
-1.35534
-1.356
-1.35701
-1.35834
-1.35998
-1.36191
-1.36412
-1.36658
-1.36928
-1.3722
-1.37533
-1.37865
-1.38215
-1.38581
-1.38963
-1.39358
-1.39766
-1.40185
-1.40615
-1.41054
-1.41501
-1.41955
-1.42415
-1.42881
-1.43352
-1.43827
-1.44305
-1.44785
-1.45267
-1.45751
-1.46235
-1.46719
-1.47203
-1.47685
-1.48167
-1.48647
-1.49125
-1.496
-1.50073
-1.50542
-1.51009
-1.51471
-1.5193
-1.52385
-1.52835
-1.53281
-1.53723
-1.54159
-1.54591
-1.55018
-1.5544
-1.55856
-1.56268
-1.56674
-1.57074
-1.57469
-1.57859
-1.58243
-1.58622
-1.58995
-1.59363
-1.59725
-1.60082
-1.60433
-1.60779
-1.61119
-1.61454
-1.61783
-1.62107
-1.62426
-1.62739
-1.63047
-1.6335
-1.63648
-1.63941
-1.64229
-1.64511
-1.64789
-1.65062
-1.6533
-1.65594
-1.65853
-1.66107
-1.66357
-1.66602
-1.66843
-1.67079
-1.67311
-1.67539
-1.67763
-1.67983
-1.68198
-1.6841
-1.68618
-1.68822
-1.69022
-1.69219
-1.69411
-1.69601
-1.69787
-1.69969
-1.70148
-1.70323
-1.70496
-1.70665
-1.70831
-1.70993
-1.71153
-1.7131
-1.71464
-1.71615
-1.71763
-1.71908
-1.72051
-1.72191
-1.72328
-1.72463
-1.72595
-1.72724
-1.35467
-1.35487
-1.35553
-1.35654
-1.35786
-1.35949
-1.36142
-1.36362
-1.36608
-1.36878
-1.3717
-1.37483
-1.37815
-1.38165
-1.38531
-1.38913
-1.39309
-1.39717
-1.40136
-1.40566
-1.41005
-1.41453
-1.41907
-1.42368
-1.42835
-1.43306
-1.43782
-1.4426
-1.44741
-1.45224
-1.45708
-1.46193
-1.46678
-1.47163
-1.47646
-1.48129
-1.4861
-1.49088
-1.49565
-1.50038
-1.50509
-1.50976
-1.5144
-1.51899
-1.52355
-1.52807
-1.53254
-1.53696
-1.54134
-1.54567
-1.54994
-1.55417
-1.55835
-1.56247
-1.56654
-1.57056
-1.57452
-1.57843
-1.58228
-1.58608
-1.58982
-1.59351
-1.59714
-1.60071
-1.60423
-1.6077
-1.61111
-1.61447
-1.61777
-1.62102
-1.62422
-1.62736
-1.63045
-1.63349
-1.63648
-1.63942
-1.6423
-1.64514
-1.64793
-1.65067
-1.65336
-1.656
-1.6586
-1.66115
-1.66365
-1.66611
-1.66853
-1.6709
-1.67323
-1.67551
-1.67776
-1.67996
-1.68213
-1.68425
-1.68634
-1.68838
-1.69039
-1.69236
-1.6943
-1.6962
-1.69806
-1.69989
-1.70169
-1.70345
-1.70518
-1.70688
-1.70854
-1.71018
-1.71178
-1.71335
-1.7149
-1.71641
-1.7179
-1.71936
-1.72079
-1.72219
-1.72357
-1.72492
-1.72625
-1.72755
-1.3541
-1.35429
-1.35494
-1.35594
-1.35726
-1.35889
-1.36081
-1.36301
-1.36546
-1.36816
-1.37108
-1.3742
-1.37753
-1.38103
-1.38469
-1.38851
-1.39247
-1.39655
-1.40075
-1.40506
-1.40945
-1.41393
-1.41848
-1.4231
-1.42778
-1.4325
-1.43726
-1.44205
-1.44687
-1.45171
-1.45656
-1.46141
-1.46627
-1.47113
-1.47598
-1.48081
-1.48563
-1.49043
-1.49521
-1.49995
-1.50467
-1.50936
-1.514
-1.51861
-1.52318
-1.52771
-1.53219
-1.53663
-1.54102
-1.54536
-1.54965
-1.55389
-1.55808
-1.56222
-1.5663
-1.57033
-1.5743
-1.57822
-1.58209
-1.5859
-1.58965
-1.59335
-1.597
-1.60058
-1.60412
-1.6076
-1.61102
-1.61439
-1.6177
-1.62097
-1.62417
-1.62733
-1.63043
-1.63348
-1.63648
-1.63943
-1.64233
-1.64517
-1.64797
-1.65072
-1.65342
-1.65608
-1.65868
-1.66124
-1.66376
-1.66623
-1.66865
-1.67103
-1.67337
-1.67567
-1.67792
-1.68014
-1.68231
-1.68444
-1.68654
-1.68859
-1.69061
-1.69259
-1.69453
-1.69644
-1.69831
-1.70015
-1.70196
-1.70373
-1.70546
-1.70717
-1.70884
-1.71048
-1.71209
-1.71367
-1.71522
-1.71674
-1.71824
-1.7197
-1.72114
-1.72255
-1.72393
-1.72529
-1.72662
-1.72793
-1.35343
-1.35361
-1.35425
-1.35524
-1.35655
-1.35817
-1.36008
-1.36228
-1.36473
-1.36742
-1.37034
-1.37347
-1.37679
-1.38029
-1.38396
-1.38778
-1.39174
-1.39583
-1.40003
-1.40434
-1.40874
-1.41323
-1.41779
-1.42241
-1.42709
-1.43182
-1.43659
-1.44139
-1.44622
-1.45107
-1.45593
-1.4608
-1.46567
-1.47054
-1.4754
-1.48025
-1.48508
-1.4899
-1.49468
-1.49944
-1.50418
-1.50887
-1.51354
-1.51816
-1.52274
-1.52729
-1.53178
-1.53624
-1.54064
-1.545
-1.5493
-1.55356
-1.55776
-1.56191
-1.56601
-1.57005
-1.57404
-1.57798
-1.58186
-1.58568
-1.58945
-1.59317
-1.59683
-1.60043
-1.60398
-1.60747
-1.61091
-1.61429
-1.61762
-1.6209
-1.62412
-1.62729
-1.6304
-1.63347
-1.63648
-1.63944
-1.64235
-1.64521
-1.64802
-1.65078
-1.6535
-1.65616
-1.65878
-1.66136
-1.66388
-1.66636
-1.6688
-1.67119
-1.67354
-1.67585
-1.67812
-1.68034
-1.68253
-1.68467
-1.68677
-1.68884
-1.69087
-1.69286
-1.69481
-1.69673
-1.69861
-1.70046
-1.70227
-1.70405
-1.70579
-1.70751
-1.70919
-1.71084
-1.71246
-1.71405
-1.71561
-1.71714
-1.71864
-1.72011
-1.72156
-1.72297
-1.72437
-1.72573
-1.72707
-1.72838
-1.35264
-1.35281
-1.35344
-1.35442
-1.35572
-1.35734
-1.35925
-1.36143
-1.36388
-1.36657
-1.36949
-1.37261
-1.37593
-1.37944
-1.38311
-1.38693
-1.39089
-1.39498
-1.39919
-1.40351
-1.40792
-1.41241
-1.41698
-1.42161
-1.4263
-1.43104
-1.43582
-1.44064
-1.44548
-1.45034
-1.45521
-1.46009
-1.46498
-1.46986
-1.47474
-1.4796
-1.48445
-1.48927
-1.49408
-1.49886
-1.5036
-1.50832
-1.513
-1.51764
-1.52224
-1.5268
-1.53131
-1.53578
-1.5402
-1.54458
-1.5489
-1.55317
-1.55739
-1.56156
-1.56568
-1.56974
-1.57375
-1.5777
-1.5816
-1.58544
-1.58922
-1.59296
-1.59663
-1.60025
-1.60382
-1.60733
-1.61078
-1.61418
-1.61753
-1.62082
-1.62406
-1.62724
-1.63037
-1.63345
-1.63648
-1.63946
-1.64238
-1.64526
-1.64808
-1.65086
-1.65359
-1.65627
-1.6589
-1.66149
-1.66403
-1.66652
-1.66897
-1.67138
-1.67374
-1.67606
-1.67834
-1.68058
-1.68278
-1.68493
-1.68705
-1.68913
-1.69117
-1.69317
-1.69513
-1.69706
-1.69895
-1.70081
-1.70264
-1.70443
-1.70618
-1.70791
-1.7096
-1.71126
-1.71289
-1.71448
-1.71605
-1.71759
-1.7191
-1.72058
-1.72204
-1.72347
-1.72487
-1.72624
-1.72759
-1.72891
-1.35176
-1.35191
-1.35253
-1.3535
-1.35479
-1.3564
-1.3583
-1.36048
-1.36292
-1.36561
-1.36852
-1.37165
-1.37497
-1.37847
-1.38214
-1.38597
-1.38994
-1.39403
-1.39825
-1.40257
-1.40698
-1.41148
-1.41606
-1.42071
-1.42541
-1.43016
-1.43495
-1.43978
-1.44463
-1.44951
-1.4544
-1.45929
-1.46419
-1.46909
-1.47398
-1.47886
-1.48373
-1.48857
-1.49339
-1.49819
-1.50295
-1.50769
-1.51238
-1.51704
-1.52166
-1.52624
-1.53078
-1.53527
-1.53971
-1.5441
-1.54844
-1.55274
-1.55698
-1.56117
-1.5653
-1.56938
-1.57341
-1.57738
-1.5813
-1.58516
-1.58897
-1.59272
-1.59641
-1.60005
-1.60363
-1.60716
-1.61064
-1.61405
-1.61742
-1.62073
-1.62398
-1.62719
-1.63034
-1.63343
-1.63648
-1.63947
-1.64242
-1.64531
-1.64815
-1.65094
-1.65369
-1.65639
-1.65903
-1.66164
-1.66419
-1.6667
-1.66917
-1.67159
-1.67397
-1.6763
-1.6786
-1.68085
-1.68306
-1.68523
-1.68736
-1.68945
-1.6915
-1.69352
-1.6955
-1.69744
-1.69934
-1.70121
-1.70305
-1.70485
-1.70662
-1.70835
-1.71006
-1.71173
-1.71337
-1.71498
-1.71656
-1.71811
-1.71963
-1.72112
-1.72259
-1.72402
-1.72543
-1.72682
-1.72817
-1.7295
-1.35077
-1.35091
-1.35151
-1.35247
-1.35375
-1.35535
-1.35724
-1.35942
-1.36185
-1.36454
-1.36745
-1.37057
-1.37389
-1.37739
-1.38107
-1.3849
-1.38887
-1.39297
-1.39719
-1.40152
-1.40594
-1.41045
-1.41504
-1.4197
-1.42441
-1.42917
-1.43398
-1.43882
-1.44369
-1.44858
-1.45348
-1.4584
-1.46332
-1.46823
-1.47314
-1.47804
-1.48292
-1.48779
-1.49263
-1.49744
-1.50223
-1.50698
-1.5117
-1.51638
-1.52102
-1.52562
-1.53018
-1.53469
-1.53915
-1.54357
-1.54793
-1.55225
-1.55651
-1.56072
-1.56488
-1.56898
-1.57303
-1.57703
-1.58096
-1.58485
-1.58868
-1.59245
-1.59616
-1.59982
-1.60343
-1.60698
-1.61047
-1.61391
-1.6173
-1.62063
-1.6239
-1.62713
-1.6303
-1.63341
-1.63648
-1.63949
-1.64245
-1.64537
-1.64823
-1.65104
-1.6538
-1.65652
-1.65918
-1.6618
-1.66438
-1.66691
-1.66939
-1.67183
-1.67422
-1.67657
-1.67888
-1.68115
-1.68338
-1.68556
-1.68771
-1.68981
-1.69188
-1.69391
-1.6959
-1.69786
-1.69978
-1.70166
-1.70351
-1.70533
-1.70711
-1.70886
-1.71057
-1.71226
-1.71391
-1.71553
-1.71712
-1.71868
-1.72022
-1.72172
-1.7232
-1.72464
-1.72607
-1.72746
-1.72883
-1.73016
-1.34969
-1.34981
-1.3504
-1.35134
-1.35261
-1.35419
-1.35608
-1.35825
-1.36068
-1.36336
-1.36626
-1.36938
-1.3727
-1.37621
-1.37988
-1.38372
-1.38769
-1.3918
-1.39603
-1.40036
-1.4048
-1.40932
-1.41392
-1.41859
-1.42331
-1.42809
-1.43291
-1.43777
-1.44265
-1.44756
-1.45248
-1.45741
-1.46235
-1.46729
-1.47221
-1.47713
-1.48204
-1.48692
-1.49179
-1.49662
-1.50143
-1.50621
-1.51095
-1.51565
-1.52032
-1.52494
-1.52952
-1.53406
-1.53854
-1.54298
-1.54737
-1.55171
-1.556
-1.56023
-1.56442
-1.56854
-1.57262
-1.57663
-1.5806
-1.5845
-1.58836
-1.59215
-1.59589
-1.59958
-1.60321
-1.60678
-1.6103
-1.61376
-1.61717
-1.62052
-1.62382
-1.62706
-1.63025
-1.63339
-1.63648
-1.63951
-1.6425
-1.64543
-1.64831
-1.65114
-1.65393
-1.65666
-1.65935
-1.66199
-1.66458
-1.66713
-1.66963
-1.67209
-1.6745
-1.67687
-1.6792
-1.68148
-1.68372
-1.68593
-1.68809
-1.69021
-1.6923
-1.69434
-1.69635
-1.69832
-1.70026
-1.70216
-1.70402
-1.70585
-1.70765
-1.70941
-1.71114
-1.71284
-1.7145
-1.71614
-1.71774
-1.71932
-1.72086
-1.72238
-1.72387
-1.72533
-1.72676
-1.72817
-1.72955
-1.73089
-1.3485
-1.34861
-1.34918
-1.35011
-1.35136
-1.35294
-1.35481
-1.35697
-1.3594
-1.36207
-1.36497
-1.36809
-1.37141
-1.37492
-1.37859
-1.38243
-1.38641
-1.39053
-1.39476
-1.39911
-1.40355
-1.40808
-1.41269
-1.41737
-1.42211
-1.42691
-1.43174
-1.43662
-1.44152
-1.44644
-1.45139
-1.45634
-1.4613
-1.46625
-1.4712
-1.47615
-1.48107
-1.48598
-1.49087
-1.49573
-1.50056
-1.50536
-1.51013
-1.51486
-1.51955
-1.5242
-1.5288
-1.53337
-1.53788
-1.54234
-1.54676
-1.55113
-1.55544
-1.5597
-1.56391
-1.56806
-1.57216
-1.57621
-1.5802
-1.58413
-1.58801
-1.59183
-1.5956
-1.59931
-1.60296
-1.60656
-1.6101
-1.61359
-1.61702
-1.6204
-1.62372
-1.62699
-1.63021
-1.63337
-1.63648
-1.63954
-1.64254
-1.6455
-1.6484
-1.65126
-1.65406
-1.65682
-1.65953
-1.66219
-1.6648
-1.66737
-1.66989
-1.67237
-1.6748
-1.67719
-1.67954
-1.68184
-1.6841
-1.68633
-1.68851
-1.69065
-1.69275
-1.69481
-1.69684
-1.69883
-1.70078
-1.7027
-1.70458
-1.70642
-1.70824
-1.71001
-1.71176
-1.71347
-1.71515
-1.7168
-1.71842
-1.72001
-1.72157
-1.7231
-1.7246
-1.72608
-1.72753
-1.72895
-1.73034
-1.73169
-1.34723
-1.34731
-1.34786
-1.34878
-1.35002
-1.35158
-1.35344
-1.35559
-1.35801
-1.36068
-1.36358
-1.36669
-1.37001
-1.37352
-1.3772
-1.38104
-1.38503
-1.38915
-1.39339
-1.39774
-1.4022
-1.40674
-1.41137
-1.41606
-1.42082
-1.42563
-1.43048
-1.43537
-1.44029
-1.44524
-1.4502
-1.45518
-1.46016
-1.46513
-1.47011
-1.47508
-1.48003
-1.48496
-1.48987
-1.49476
-1.49962
-1.50445
-1.50924
-1.514
-1.51872
-1.52339
-1.52803
-1.53262
-1.53716
-1.54165
-1.5461
-1.55049
-1.55483
-1.55912
-1.56336
-1.56754
-1.57167
-1.57574
-1.57976
-1.58372
-1.58763
-1.59148
-1.59527
-1.59901
-1.60269
-1.60632
-1.60989
-1.6134
-1.61686
-1.62027
-1.62362
-1.62691
-1.63015
-1.63334
-1.63648
-1.63956
-1.64259
-1.64557
-1.6485
-1.65138
-1.65421
-1.65699
-1.65972
-1.66241
-1.66504
-1.66763
-1.67018
-1.67268
-1.67513
-1.67754
-1.67991
-1.68223
-1.68452
-1.68676
-1.68896
-1.69112
-1.69324
-1.69532
-1.69737
-1.69938
-1.70135
-1.70328
-1.70518
-1.70704
-1.70887
-1.71067
-1.71243
-1.71416
-1.71586
-1.71752
-1.71916
-1.72076
-1.72234
-1.72388
-1.7254
-1.72689
-1.72835
-1.72979
-1.73119
-1.73256
-1.34585
-1.34591
-1.34645
-1.34735
-1.34857
-1.35012
-1.35197
-1.35411
-1.35652
-1.35918
-1.36208
-1.36519
-1.36851
-1.37202
-1.3757
-1.37955
-1.38354
-1.38767
-1.39192
-1.39628
-1.40075
-1.40531
-1.40994
-1.41465
-1.41943
-1.42425
-1.42912
-1.43404
-1.43898
-1.44394
-1.44893
-1.45393
-1.45893
-1.46393
-1.46893
-1.47393
-1.4789
-1.48387
-1.48881
-1.49372
-1.49861
-1.50347
-1.50829
-1.51307
-1.51782
-1.52253
-1.52719
-1.53181
-1.53638
-1.54091
-1.54538
-1.54981
-1.55418
-1.5585
-1.56277
-1.56698
-1.57114
-1.57525
-1.5793
-1.58329
-1.58722
-1.59111
-1.59493
-1.5987
-1.60241
-1.60606
-1.60966
-1.61321
-1.6167
-1.62013
-1.62351
-1.62683
-1.6301
-1.63332
-1.63648
-1.63959
-1.64265
-1.64565
-1.64861
-1.65151
-1.65437
-1.65717
-1.65993
-1.66264
-1.6653
-1.66792
-1.67048
-1.67301
-1.67548
-1.67792
-1.68031
-1.68266
-1.68496
-1.68722
-1.68945
-1.69163
-1.69377
-1.69587
-1.69794
-1.69997
-1.70196
-1.70391
-1.70583
-1.70771
-1.70956
-1.71137
-1.71315
-1.7149
-1.71662
-1.7183
-1.71995
-1.72157
-1.72316
-1.72473
-1.72626
-1.72776
-1.72924
-1.73069
-1.73211
-1.73349
-1.34439
-1.34442
-1.34494
-1.34582
-1.34703
-1.34856
-1.3504
-1.35253
-1.35493
-1.35759
-1.36048
-1.36359
-1.36691
-1.37042
-1.3741
-1.37795
-1.38195
-1.38608
-1.39035
-1.39472
-1.3992
-1.40377
-1.40842
-1.41315
-1.41794
-1.42278
-1.42768
-1.43261
-1.43757
-1.44256
-1.44757
-1.45259
-1.45762
-1.46265
-1.46768
-1.4727
-1.4777
-1.48269
-1.48766
-1.49261
-1.49753
-1.50241
-1.50727
-1.51209
-1.51687
-1.5216
-1.5263
-1.53095
-1.53556
-1.54011
-1.54462
-1.54908
-1.55349
-1.55784
-1.56214
-1.56639
-1.57058
-1.57472
-1.5788
-1.58282
-1.58679
-1.5907
-1.59456
-1.59836
-1.6021
-1.60579
-1.60942
-1.613
-1.61651
-1.61998
-1.62339
-1.62674
-1.63004
-1.63329
-1.63648
-1.63962
-1.6427
-1.64574
-1.64872
-1.65165
-1.65454
-1.65737
-1.66015
-1.66289
-1.66558
-1.66822
-1.67081
-1.67336
-1.67586
-1.67832
-1.68074
-1.68311
-1.68544
-1.68772
-1.68997
-1.69217
-1.69434
-1.69646
-1.69855
-1.7006
-1.70261
-1.70458
-1.70652
-1.70843
-1.71029
-1.71213
-1.71393
-1.71569
-1.71743
-1.71913
-1.7208
-1.72244
-1.72405
-1.72563
-1.72718
-1.7287
-1.73019
-1.73166
-1.73309
-1.73448
-1.34283
-1.34284
-1.34334
-1.3442
-1.34539
-1.34691
-1.34873
-1.35085
-1.35324
-1.35589
-1.35878
-1.36189
-1.3652
-1.36871
-1.3724
-1.37625
-1.38026
-1.3844
-1.38867
-1.39306
-1.39755
-1.40214
-1.40681
-1.41155
-1.41636
-1.42122
-1.42613
-1.43109
-1.43608
-1.44109
-1.44612
-1.45117
-1.45623
-1.46129
-1.46634
-1.47139
-1.47643
-1.48145
-1.48645
-1.49143
-1.49638
-1.5013
-1.50618
-1.51103
-1.51585
-1.52062
-1.52535
-1.53004
-1.53468
-1.53927
-1.54381
-1.5483
-1.55275
-1.55713
-1.56147
-1.56575
-1.56998
-1.57415
-1.57827
-1.58233
-1.58633
-1.59028
-1.59417
-1.598
-1.60178
-1.6055
-1.60916
-1.61277
-1.61632
-1.61982
-1.62326
-1.62665
-1.62998
-1.63325
-1.63648
-1.63965
-1.64277
-1.64583
-1.64884
-1.65181
-1.65472
-1.65758
-1.66039
-1.66316
-1.66587
-1.66854
-1.67116
-1.67374
-1.67627
-1.67875
-1.68119
-1.68359
-1.68594
-1.68825
-1.69052
-1.69275
-1.69494
-1.69709
-1.6992
-1.70127
-1.7033
-1.7053
-1.70726
-1.70919
-1.71107
-1.71293
-1.71475
-1.71654
-1.71829
-1.72001
-1.7217
-1.72336
-1.72499
-1.72658
-1.72815
-1.72969
-1.7312
-1.73269
-1.73414
-1.73555
-1.34119
-1.34117
-1.34164
-1.34248
-1.34365
-1.34515
-1.34697
-1.34908
-1.35146
-1.3541
-1.35698
-1.36009
-1.3634
-1.36691
-1.3706
-1.37446
-1.37847
-1.38263
-1.38691
-1.39131
-1.39581
-1.40041
-1.40509
-1.40986
-1.41468
-1.41957
-1.4245
-1.42948
-1.43449
-1.43953
-1.44459
-1.44967
-1.45475
-1.45984
-1.46493
-1.47001
-1.47508
-1.48013
-1.48516
-1.49017
-1.49516
-1.50011
-1.50503
-1.50992
-1.51477
-1.51958
-1.52434
-1.52907
-1.53374
-1.53837
-1.54295
-1.54748
-1.55196
-1.55639
-1.56076
-1.56508
-1.56934
-1.57355
-1.5777
-1.5818
-1.58584
-1.58982
-1.59375
-1.59762
-1.60143
-1.60519
-1.60889
-1.61253
-1.61612
-1.61965
-1.62313
-1.62655
-1.62991
-1.63322
-1.63648
-1.63968
-1.64283
-1.64593
-1.64897
-1.65197
-1.65491
-1.6578
-1.66064
-1.66344
-1.66618
-1.66888
-1.67153
-1.67413
-1.67669
-1.6792
-1.68167
-1.6841
-1.68648
-1.68882
-1.69111
-1.69337
-1.69558
-1.69775
-1.69989
-1.70198
-1.70404
-1.70606
-1.70805
-1.70999
-1.7119
-1.71378
-1.71562
-1.71743
-1.71921
-1.72095
-1.72266
-1.72434
-1.72598
-1.7276
-1.72919
-1.73075
-1.73228
-1.73378
-1.73525
-1.73667
-1.33945
-1.33941
-1.33986
-1.34067
-1.34183
-1.34331
-1.34511
-1.34721
-1.34958
-1.35221
-1.35509
-1.35819
-1.3615
-1.36501
-1.36871
-1.37257
-1.37659
-1.38075
-1.38504
-1.38945
-1.39397
-1.39859
-1.40329
-1.40807
-1.41292
-1.41783
-1.42279
-1.42779
-1.43283
-1.43789
-1.44298
-1.44808
-1.4532
-1.45832
-1.46344
-1.46855
-1.47365
-1.47874
-1.4838
-1.48885
-1.49387
-1.49886
-1.50382
-1.50875
-1.51363
-1.51848
-1.52328
-1.52804
-1.53276
-1.53743
-1.54205
-1.54662
-1.55113
-1.5556
-1.56001
-1.56437
-1.56867
-1.57292
-1.57711
-1.58125
-1.58532
-1.58935
-1.59331
-1.59722
-1.60107
-1.60486
-1.6086
-1.61228
-1.6159
-1.61947
-1.62298
-1.62644
-1.62984
-1.63319
-1.63648
-1.63972
-1.6429
-1.64603
-1.64911
-1.65214
-1.65511
-1.65804
-1.66091
-1.66374
-1.66651
-1.66924
-1.67192
-1.67456
-1.67714
-1.67969
-1.68218
-1.68463
-1.68704
-1.68941
-1.69173
-1.69401
-1.69626
-1.69846
-1.70062
-1.70274
-1.70482
-1.70686
-1.70887
-1.71084
-1.71278
-1.71468
-1.71654
-1.71837
-1.72017
-1.72194
-1.72367
-1.72537
-1.72704
-1.72867
-1.73028
-1.73186
-1.73341
-1.73493
-1.73642
-1.73786
-1.33763
-1.33756
-1.33798
-1.33878
-1.33991
-1.34138
-1.34316
-1.34524
-1.3476
-1.35023
-1.3531
-1.35619
-1.35951
-1.36302
-1.36672
-1.37059
-1.37461
-1.37878
-1.38309
-1.38751
-1.39204
-1.39668
-1.4014
-1.4062
-1.41107
-1.416
-1.42098
-1.42601
-1.43107
-1.43617
-1.44128
-1.44642
-1.45156
-1.45672
-1.46187
-1.46701
-1.47215
-1.47727
-1.48238
-1.48746
-1.49252
-1.49755
-1.50255
-1.50751
-1.51243
-1.51732
-1.52217
-1.52697
-1.53172
-1.53643
-1.54109
-1.5457
-1.55026
-1.55477
-1.55922
-1.56362
-1.56796
-1.57225
-1.57648
-1.58066
-1.58478
-1.58884
-1.59285
-1.5968
-1.60069
-1.60452
-1.6083
-1.61202
-1.61568
-1.61928
-1.62283
-1.62633
-1.62977
-1.63315
-1.63648
-1.63975
-1.64297
-1.64614
-1.64925
-1.65231
-1.65532
-1.65828
-1.66119
-1.66405
-1.66686
-1.66962
-1.67233
-1.675
-1.67762
-1.68019
-1.68272
-1.6852
-1.68764
-1.69003
-1.69239
-1.6947
-1.69697
-1.69919
-1.70138
-1.70353
-1.70564
-1.70771
-1.70974
-1.71174
-1.7137
-1.71563
-1.71751
-1.71937
-1.72119
-1.72298
-1.72473
-1.72645
-1.72815
-1.72981
-1.73143
-1.73303
-1.7346
-1.73615
-1.73765
-1.73911
-1.33573
-1.33563
-1.33602
-1.33679
-1.3379
-1.33935
-1.34112
-1.34319
-1.34553
-1.34815
-1.35101
-1.35411
-1.35742
-1.36093
-1.36463
-1.36851
-1.37254
-1.37672
-1.38103
-1.38547
-1.39002
-1.39467
-1.39941
-1.40423
-1.40912
-1.41408
-1.41909
-1.42414
-1.42923
-1.43436
-1.43951
-1.44467
-1.44985
-1.45504
-1.46022
-1.4654
-1.47058
-1.47574
-1.48088
-1.486
-1.4911
-1.49617
-1.50121
-1.50621
-1.51118
-1.51611
-1.521
-1.52584
-1.53064
-1.53539
-1.54009
-1.54475
-1.54935
-1.5539
-1.55839
-1.56283
-1.56722
-1.57155
-1.57583
-1.58005
-1.58421
-1.58831
-1.59236
-1.59635
-1.60029
-1.60416
-1.60798
-1.61174
-1.61544
-1.61909
-1.62268
-1.62621
-1.62969
-1.63311
-1.63648
-1.63979
-1.64305
-1.64625
-1.6494
-1.6525
-1.65555
-1.65854
-1.66149
-1.66438
-1.66722
-1.67002
-1.67277
-1.67547
-1.67812
-1.68072
-1.68328
-1.6858
-1.68827
-1.69069
-1.69307
-1.69541
-1.69771
-1.69997
-1.70219
-1.70436
-1.7065
-1.7086
-1.71066
-1.71268
-1.71467
-1.71662
-1.71853
-1.72041
-1.72226
-1.72407
-1.72585
-1.7276
-1.72931
-1.73099
-1.73264
-1.73427
-1.73586
-1.73742
-1.73895
-1.74042
-1.33374
-1.33361
-1.33398
-1.33472
-1.3358
-1.33723
-1.33898
-1.34104
-1.34338
-1.34598
-1.34884
-1.35193
-1.35524
-1.35875
-1.36246
-1.36634
-1.37038
-1.37457
-1.37889
-1.38334
-1.38791
-1.39258
-1.39734
-1.40218
-1.40709
-1.41207
-1.41711
-1.42219
-1.42731
-1.43247
-1.43765
-1.44285
-1.44806
-1.45328
-1.4585
-1.46372
-1.46893
-1.47413
-1.47932
-1.48448
-1.48962
-1.49473
-1.49981
-1.50486
-1.50987
-1.51484
-1.51977
-1.52466
-1.5295
-1.5343
-1.53905
-1.54374
-1.54839
-1.55298
-1.55753
-1.56201
-1.56645
-1.57082
-1.57514
-1.57941
-1.58361
-1.58776
-1.59185
-1.59589
-1.59986
-1.60378
-1.60764
-1.61145
-1.61519
-1.61888
-1.62251
-1.62609
-1.62961
-1.63307
-1.63648
-1.63983
-1.64313
-1.64637
-1.64956
-1.6527
-1.65578
-1.65881
-1.6618
-1.66473
-1.66761
-1.67044
-1.67322
-1.67595
-1.67864
-1.68128
-1.68387
-1.68642
-1.68892
-1.69138
-1.69379
-1.69616
-1.69849
-1.70078
-1.70303
-1.70523
-1.7074
-1.70953
-1.71162
-1.71367
-1.71568
-1.71766
-1.7196
-1.72151
-1.72338
-1.72522
-1.72702
-1.72879
-1.73053
-1.73224
-1.73391
-1.73556
-1.73717
-1.73876
-1.7403
-1.7418
-1.33167
-1.3315
-1.33184
-1.33256
-1.33362
-1.33503
-1.33676
-1.3388
-1.34113
-1.34372
-1.34657
-1.34966
-1.35297
-1.35648
-1.36019
-1.36407
-1.36812
-1.37232
-1.37666
-1.38113
-1.38571
-1.39039
-1.39517
-1.40004
-1.40498
-1.40998
-1.41504
-1.42016
-1.42531
-1.43049
-1.43571
-1.44094
-1.44619
-1.45145
-1.45671
-1.46197
-1.46722
-1.47246
-1.47768
-1.48289
-1.48807
-1.49322
-1.49835
-1.50344
-1.5085
-1.51351
-1.51849
-1.52343
-1.52831
-1.53316
-1.53795
-1.5427
-1.54739
-1.55203
-1.55662
-1.56116
-1.56563
-1.57006
-1.57443
-1.57874
-1.58299
-1.58718
-1.59132
-1.5954
-1.59942
-1.60339
-1.60729
-1.61114
-1.61493
-1.61867
-1.62234
-1.62596
-1.62952
-1.63303
-1.63648
-1.63987
-1.64321
-1.64649
-1.64972
-1.6529
-1.65603
-1.6591
-1.66212
-1.66509
-1.668
-1.67087
-1.67369
-1.67646
-1.67918
-1.68186
-1.68449
-1.68707
-1.68961
-1.6921
-1.69454
-1.69695
-1.69931
-1.70163
-1.70391
-1.70615
-1.70834
-1.7105
-1.71262
-1.7147
-1.71674
-1.71875
-1.72072
-1.72265
-1.72455
-1.72641
-1.72824
-1.73004
-1.7318
-1.73353
-1.73523
-1.7369
-1.73854
-1.74015
-1.74172
-1.74324
-1.32952
-1.32932
-1.32963
-1.33032
-1.33135
-1.33274
-1.33445
-1.33648
-1.33879
-1.34137
-1.34422
-1.3473
-1.3506
-1.35412
-1.35783
-1.36172
-1.36578
-1.36999
-1.37434
-1.37882
-1.38342
-1.38812
-1.39292
-1.39781
-1.40277
-1.40781
-1.4129
-1.41804
-1.42322
-1.42844
-1.43369
-1.43896
-1.44425
-1.44954
-1.45484
-1.46014
-1.46543
-1.47072
-1.47598
-1.48123
-1.48646
-1.49166
-1.49683
-1.50197
-1.50707
-1.51213
-1.51716
-1.52214
-1.52708
-1.53197
-1.53681
-1.54161
-1.54635
-1.55104
-1.55568
-1.56026
-1.56479
-1.56926
-1.57368
-1.57804
-1.58234
-1.58658
-1.59077
-1.5949
-1.59897
-1.60298
-1.60693
-1.61083
-1.61466
-1.61844
-1.62216
-1.62583
-1.62943
-1.63298
-1.63648
-1.63991
-1.6433
-1.64662
-1.6499
-1.65311
-1.65628
-1.65939
-1.66245
-1.66546
-1.66842
-1.67133
-1.67418
-1.67699
-1.67975
-1.68246
-1.68513
-1.68775
-1.69032
-1.69285
-1.69533
-1.69777
-1.70016
-1.70251
-1.70482
-1.70709
-1.70932
-1.71151
-1.71366
-1.71577
-1.71785
-1.71988
-1.72188
-1.72384
-1.72577
-1.72766
-1.72952
-1.73134
-1.73313
-1.73489
-1.73661
-1.73831
-1.73997
-1.74161
-1.7432
-1.74473
-1.32729
-1.32705
-1.32733
-1.32799
-1.329
-1.33036
-1.33206
-1.33406
-1.33636
-1.33894
-1.34177
-1.34485
-1.34815
-1.35167
-1.35538
-1.35928
-1.36334
-1.36756
-1.37193
-1.37642
-1.38104
-1.38576
-1.39059
-1.3955
-1.40049
-1.40555
-1.41067
-1.41584
-1.42106
-1.42631
-1.43159
-1.4369
-1.44223
-1.44756
-1.4529
-1.45824
-1.46358
-1.4689
-1.47422
-1.47951
-1.48478
-1.49003
-1.49525
-1.50043
-1.50558
-1.5107
-1.51577
-1.5208
-1.52579
-1.53073
-1.53563
-1.54047
-1.54527
-1.55001
-1.5547
-1.55933
-1.56391
-1.56843
-1.5729
-1.57731
-1.58166
-1.58596
-1.59019
-1.59437
-1.59849
-1.60255
-1.60655
-1.61049
-1.61438
-1.61821
-1.62197
-1.62569
-1.62934
-1.63293
-1.63647
-1.63996
-1.64338
-1.64676
-1.65007
-1.65334
-1.65654
-1.6597
-1.6628
-1.66585
-1.66885
-1.6718
-1.6747
-1.67754
-1.68034
-1.68309
-1.6858
-1.68845
-1.69106
-1.69362
-1.69614
-1.69862
-1.70105
-1.70343
-1.70578
-1.70808
-1.71034
-1.71257
-1.71475
-1.71689
-1.71899
-1.72106
-1.72309
-1.72508
-1.72704
-1.72896
-1.73084
-1.7327
-1.73451
-1.7363
-1.73805
-1.73977
-1.74146
-1.74312
-1.74474
-1.74629
-1.32498
-1.32471
-1.32495
-1.32558
-1.32657
-1.32791
-1.32958
-1.33157
-1.33385
-1.33642
-1.33924
-1.34231
-1.34561
-1.34913
-1.35285
-1.35675
-1.36082
-1.36505
-1.36943
-1.37394
-1.37858
-1.38332
-1.38817
-1.3931
-1.39812
-1.40321
-1.40836
-1.41356
-1.41881
-1.4241
-1.42942
-1.43477
-1.44013
-1.44551
-1.45089
-1.45627
-1.46165
-1.46702
-1.47238
-1.47772
-1.48304
-1.48834
-1.49361
-1.49884
-1.50404
-1.50921
-1.51433
-1.51942
-1.52446
-1.52945
-1.5344
-1.5393
-1.54414
-1.54894
-1.55368
-1.55836
-1.563
-1.56757
-1.57209
-1.57655
-1.58096
-1.58531
-1.58959
-1.59382
-1.59799
-1.6021
-1.60616
-1.61015
-1.61409
-1.61796
-1.62178
-1.62554
-1.62924
-1.63289
-1.63647
-1.64
-1.64348
-1.64689
-1.65026
-1.65356
-1.65682
-1.66002
-1.66316
-1.66626
-1.6693
-1.67229
-1.67523
-1.67812
-1.68096
-1.68375
-1.68649
-1.68918
-1.69183
-1.69443
-1.69699
-1.6995
-1.70197
-1.70439
-1.70677
-1.70911
-1.7114
-1.71366
-1.71588
-1.71805
-1.72019
-1.72229
-1.72435
-1.72637
-1.72836
-1.73031
-1.73222
-1.7341
-1.73595
-1.73776
-1.73954
-1.74129
-1.74301
-1.74469
-1.74634
-1.74791
-1.3226
-1.32228
-1.32249
-1.32309
-1.32405
-1.32536
-1.32702
-1.32899
-1.33126
-1.33381
-1.33663
-1.33969
-1.34299
-1.34651
-1.35022
-1.35413
-1.35821
-1.36246
-1.36685
-1.37138
-1.37603
-1.38079
-1.38566
-1.39062
-1.39567
-1.40078
-1.40596
-1.4112
-1.41649
-1.42181
-1.42717
-1.43256
-1.43796
-1.44338
-1.4488
-1.45423
-1.45966
-1.46508
-1.47048
-1.47587
-1.48124
-1.48659
-1.49191
-1.49719
-1.50245
-1.50767
-1.51284
-1.51798
-1.52307
-1.52812
-1.53312
-1.53808
-1.54298
-1.54783
-1.55262
-1.55736
-1.56205
-1.56668
-1.57125
-1.57577
-1.58023
-1.58463
-1.58897
-1.59325
-1.59748
-1.60164
-1.60575
-1.60979
-1.61378
-1.61771
-1.62158
-1.62539
-1.62914
-1.63283
-1.63647
-1.64005
-1.64357
-1.64704
-1.65045
-1.6538
-1.6571
-1.66035
-1.66354
-1.66668
-1.66976
-1.6728
-1.67578
-1.67871
-1.68159
-1.68442
-1.68721
-1.68994
-1.69263
-1.69527
-1.69787
-1.70042
-1.70292
-1.70538
-1.7078
-1.71017
-1.7125
-1.7148
-1.71705
-1.71925
-1.72143
-1.72356
-1.72565
-1.7277
-1.72972
-1.73171
-1.73365
-1.73556
-1.73744
-1.73928
-1.74109
-1.74287
-1.74461
-1.74633
-1.748
-1.7496
-1.32013
-1.31978
-1.31996
-1.32052
-1.32145
-1.32274
-1.32437
-1.32632
-1.32858
-1.33112
-1.33392
-1.33698
-1.34028
-1.3438
-1.34752
-1.35143
-1.35552
-1.35977
-1.36418
-1.36872
-1.3734
-1.37818
-1.38307
-1.38806
-1.39313
-1.39828
-1.40349
-1.40876
-1.41408
-1.41945
-1.42485
-1.43027
-1.43572
-1.44118
-1.44665
-1.45212
-1.4576
-1.46306
-1.46852
-1.47396
-1.47938
-1.48478
-1.49015
-1.49549
-1.5008
-1.50607
-1.5113
-1.51649
-1.52164
-1.52675
-1.5318
-1.53681
-1.54177
-1.54667
-1.55153
-1.55633
-1.56107
-1.56576
-1.57039
-1.57496
-1.57947
-1.58393
-1.58833
-1.59267
-1.59694
-1.60116
-1.60532
-1.60942
-1.61346
-1.61745
-1.62137
-1.62523
-1.62903
-1.63278
-1.63647
-1.6401
-1.64367
-1.64718
-1.65064
-1.65405
-1.65739
-1.66069
-1.66393
-1.66711
-1.67024
-1.67332
-1.67635
-1.67932
-1.68225
-1.68512
-1.68795
-1.69073
-1.69346
-1.69614
-1.69877
-1.70136
-1.70391
-1.70641
-1.70886
-1.71127
-1.71364
-1.71597
-1.71826
-1.7205
-1.72271
-1.72487
-1.727
-1.72909
-1.73114
-1.73315
-1.73513
-1.73708
-1.73898
-1.74086
-1.7427
-1.7445
-1.74628
-1.74802
-1.74972
-1.75134
-1.3176
-1.3172
-1.31734
-1.31788
-1.31877
-1.32004
-1.32165
-1.32358
-1.32582
-1.32834
-1.33114
-1.33419
-1.33749
-1.341
-1.34473
-1.34865
-1.35274
-1.35701
-1.36143
-1.36599
-1.37068
-1.37549
-1.3804
-1.38542
-1.39052
-1.3957
-1.40094
-1.40625
-1.41161
-1.41701
-1.42244
-1.42791
-1.4334
-1.43891
-1.44442
-1.44995
-1.45547
-1.46098
-1.46649
-1.47198
-1.47746
-1.48291
-1.48833
-1.49373
-1.49909
-1.50442
-1.50971
-1.51496
-1.52016
-1.52532
-1.53044
-1.53551
-1.54052
-1.54549
-1.5504
-1.55525