/*--------------------------------*- C++ -*----------------------------------*\
  =========                 |
  \\      /  F ield         | OpenFOAM: The Open Source CFD Toolbox
   \\    /   O peration     | Website:  https://openfoam.org
    \\  /    A nd           | Version:  8
     \\/     M anipulation  |
\*---------------------------------------------------------------------------*/
FoamFile
{
    version     2.0;
    format      ascii;
    class       volScalarField;
    location    "2.8";
    object      nuTilda;
}
// * * * * * * * * * * * * * * * * * * * * * * * * * * * * * * * * * * * * * //

dimensions      [0 2 -1 0 0 0 0];

internalField   nonuniform List<scalar> 
10000
(
4.10879e+78
2.67803e+78
1.74489e+78
1.13666e+78
7.4037e+77
4.82213e+77
3.14063e+77
2.04544e+77
1.33215e+77
8.676e+76
5.65046e+76
3.68001e+76
2.3967e+76
1.56091e+76
1.01658e+76
6.62073e+75
4.31191e+75
2.80824e+75
1.82894e+75
1.19114e+75
7.75759e+74
5.05232e+74
3.29045e+74
2.14299e+74
1.39567e+74
9.08967e+73
5.91987e+73
3.85546e+73
2.51097e+73
1.63533e+73
1.06505e+73
6.93639e+72
4.5175e+72
2.94213e+72
1.91614e+72
1.24793e+72
8.12746e+71
5.29321e+71
3.44733e+71
2.24516e+71
1.46222e+71
9.52305e+70
6.20212e+70
4.03928e+70
2.63068e+70
1.7133e+70
1.11583e+70
7.2671e+69
4.73288e+69
3.08241e+69
2.00749e+69
1.30743e+69
8.51496e+68
5.54558e+68
3.61169e+68
2.3522e+68
1.53193e+68
9.97708e+67
6.49782e+67
4.23187e+67
2.75611e+67
1.79498e+67
1.16903e+67
7.61358e+66
4.95853e+66
3.22937e+66
2.10321e+66
1.36976e+66
8.92093e+65
5.80998e+65
3.78389e+65
2.46435e+65
1.60497e+65
1.04528e+65
6.80763e+64
4.43363e+64
2.88751e+64
1.88056e+64
1.22476e+64
7.97658e+63
5.19495e+63
3.38334e+63
2.20348e+63
1.43507e+63
9.34626e+62
6.08698e+62
3.9643e+62
2.58185e+62
1.68149e+62
1.09511e+62
7.1322e+61
4.64502e+61
3.02518e+61
1.97023e+61
1.28317e+61
8.35779e+60
5.44862e+60
3.57232e+60
2.41885e+60
1.93727e+60
2.67803e+78
1.74547e+78
1.13726e+78
7.40831e+77
4.82539e+77
3.14282e+77
2.0469e+77
1.33311e+77
8.68223e+76
5.65453e+76
3.68266e+76
2.39842e+76
1.56203e+76
1.01731e+76
6.6255e+75
4.31502e+75
2.81026e+75
1.83025e+75
1.192e+75
7.76318e+74
5.05596e+74
3.29282e+74
2.14453e+74
1.39668e+74
9.09621e+73
5.92413e+73
3.85824e+73
2.51277e+73
1.63651e+73
1.06582e+73
6.94138e+72
4.52075e+72
2.94425e+72
1.91752e+72
1.24883e+72
8.13331e+71
5.29702e+71
3.44981e+71
2.24678e+71
1.46327e+71
9.5299e+70
6.20658e+70
4.04219e+70
2.63258e+70
1.71453e+70
1.11663e+70
7.27233e+69
4.73629e+69
3.08462e+69
2.00894e+69
1.30837e+69
8.52109e+68
5.54957e+68
3.61429e+68
2.3539e+68
1.53303e+68
9.98427e+67
6.5025e+67
4.23491e+67
2.75809e+67
1.79628e+67
1.16987e+67
7.61906e+66
4.9621e+66
3.23169e+66
2.10472e+66
1.37075e+66
8.92736e+65
5.81416e+65
3.78662e+65
2.46613e+65
1.60613e+65
1.04603e+65
6.81253e+64
4.43683e+64
2.88959e+64
1.88192e+64
1.22565e+64
7.98232e+63
5.19869e+63
3.38577e+63
2.20507e+63
1.43611e+63
9.35299e+62
6.09137e+62
3.96715e+62
2.58371e+62
1.6827e+62
1.0959e+62
7.13733e+61
4.64837e+61
3.02736e+61
1.97164e+61
1.28408e+61
8.36299e+60
5.44701e+60
3.54983e+60
2.32087e+60
1.54524e+60
1.17304e+60
1.74489e+78
1.13726e+78
7.40965e+77
4.82671e+77
3.14382e+77
2.04758e+77
1.33356e+77
8.68517e+76
5.65644e+76
3.68389e+76
2.39923e+76
1.56255e+76
1.01765e+76
6.6277e+75
4.31645e+75
2.8112e+75
1.83086e+75
1.19239e+75
7.76576e+74
5.05764e+74
3.29392e+74
2.14524e+74
1.39714e+74
9.09924e+73
5.92611e+73
3.85952e+73
2.51361e+73
1.63705e+73
1.06617e+73
6.94369e+72
4.52225e+72
2.94523e+72
1.91815e+72
1.24924e+72
8.13601e+71
5.29878e+71
3.45096e+71
2.24752e+71
1.46376e+71
9.53307e+70
6.20865e+70
4.04354e+70
2.63345e+70
1.7151e+70
1.117e+70
7.27475e+69
4.73786e+69
3.08565e+69
2.00961e+69
1.30881e+69
8.52392e+68
5.55142e+68
3.6155e+68
2.35468e+68
1.53354e+68
9.98759e+67
6.50466e+67
4.23632e+67
2.75901e+67
1.79687e+67
1.17026e+67
7.6216e+66
4.96375e+66
3.23277e+66
2.10542e+66
1.37121e+66
8.93032e+65
5.81609e+65
3.78788e+65
2.46695e+65
1.60666e+65
1.04638e+65
6.81479e+64
4.4383e+64
2.89055e+64
1.88255e+64
1.22605e+64
7.98498e+63
5.20042e+63
3.3869e+63
2.2058e+63
1.43658e+63
9.3561e+62
6.09339e+62
3.96847e+62
2.58457e+62
1.68326e+62
1.09627e+62
7.13971e+61
4.64991e+61
3.02837e+61
1.9723e+61
1.28451e+61
8.36569e+60
5.4484e+60
3.54852e+60
2.31162e+60
1.50804e+60
9.99535e+59
7.7242e+59
1.13666e+78
7.40831e+77
4.82671e+77
3.14409e+77
2.04782e+77
1.33373e+77
8.68628e+76
5.65713e+76
3.68432e+76
2.39949e+76
1.56272e+76
1.01776e+76
6.62839e+75
4.3169e+75
2.81148e+75
1.83105e+75
1.19251e+75
7.76655e+74
5.05815e+74
3.29425e+74
2.14546e+74
1.39728e+74
9.10016e+73
5.9267e+73
3.85991e+73
2.51386e+73
1.63722e+73
1.06628e+73
6.94439e+72
4.52271e+72
2.94553e+72
1.91835e+72
1.24937e+72
8.13684e+71
5.29932e+71
3.45131e+71
2.24775e+71
1.4639e+71
9.53403e+70
6.20928e+70
4.04394e+70
2.63372e+70
1.71527e+70
1.11712e+70
7.27549e+69
4.73834e+69
3.08596e+69
2.00981e+69
1.30894e+69
8.52478e+68
5.55198e+68
3.61586e+68
2.35492e+68
1.5337e+68
9.9886e+67
6.50532e+67
4.23675e+67
2.75929e+67
1.79706e+67
1.17038e+67
7.62237e+66
4.96426e+66
3.23309e+66
2.10563e+66
1.37135e+66
8.93123e+65
5.81668e+65
3.78826e+65
2.4672e+65
1.60682e+65
1.04648e+65
6.81548e+64
4.43875e+64
2.89085e+64
1.88274e+64
1.22618e+64
7.98579e+63
5.20094e+63
3.38724e+63
2.20602e+63
1.43673e+63
9.35705e+62
6.09401e+62
3.96887e+62
2.58483e+62
1.68343e+62
1.09638e+62
7.14043e+61
4.65038e+61
3.02868e+61
1.9725e+61
1.28464e+61
8.36653e+60
5.44891e+60
3.54876e+60
2.3112e+60
1.50518e+60
9.8121e+59
6.5217e+59
5.16031e+59
7.4037e+77
4.82539e+77
3.14382e+77
2.04782e+77
1.33377e+77
8.68657e+76
5.65727e+76
3.68437e+76
2.3995e+76
1.56271e+76
1.01774e+76
6.62826e+75
4.3168e+75
2.81141e+75
1.831e+75
1.19248e+75
7.76632e+74
5.058e+74
3.29415e+74
2.1454e+74
1.39724e+74
9.09988e+73
5.92652e+73
3.85979e+73
2.51379e+73
1.63717e+73
1.06624e+73
6.94418e+72
4.52257e+72
2.94544e+72
1.91829e+72
1.24933e+72
8.13658e+71
5.29915e+71
3.4512e+71
2.24768e+71
1.46386e+71
9.53374e+70
6.20908e+70
4.04382e+70
2.63364e+70
1.71522e+70
1.11708e+70
7.27526e+69
4.7382e+69
3.08587e+69
2.00975e+69
1.3089e+69
8.52452e+68
5.5518e+68
3.61575e+68
2.35485e+68
1.53365e+68
9.98829e+67
6.50512e+67
4.23662e+67
2.7592e+67
1.797e+67
1.17034e+67
7.62213e+66
4.9641e+66
3.23299e+66
2.10557e+66
1.3713e+66
8.93095e+65
5.8165e+65
3.78814e+65
2.46712e+65
1.60677e+65
1.04645e+65
6.81527e+64
4.43861e+64
2.89076e+64
1.88268e+64
1.22614e+64
7.98554e+63
5.20078e+63
3.38714e+63
2.20596e+63
1.43668e+63
9.35676e+62
6.09382e+62
3.96875e+62
2.58475e+62
1.68338e+62
1.09634e+62
7.14021e+61
4.65024e+61
3.02858e+61
1.97244e+61
1.2846e+61
8.36627e+60
5.44874e+60
3.54863e+60
2.31114e+60
1.50514e+60
9.80122e+59
6.39026e+59
4.26708e+59
3.43708e+59
4.82213e+77
3.14282e+77
2.04758e+77
1.33373e+77
8.68657e+76
5.65727e+76
3.68432e+76
2.39942e+76
1.56264e+76
1.01768e+76
6.62777e+75
4.31644e+75
2.81116e+75
1.83083e+75
1.19237e+75
7.76555e+74
5.0575e+74
3.29382e+74
2.14518e+74
1.3971e+74
9.09895e+73
5.92591e+73
3.8594e+73
2.51353e+73
1.637e+73
1.06613e+73
6.94347e+72
4.5221e+72
2.94513e+72
1.91809e+72
1.2492e+72
8.13575e+71
5.29861e+71
3.45085e+71
2.24745e+71
1.46371e+71
9.53276e+70
6.20845e+70
4.0434e+70
2.63337e+70
1.71505e+70
1.11697e+70
7.27452e+69
4.73771e+69
3.08555e+69
2.00954e+69
1.30876e+69
8.52364e+68
5.55123e+68
3.61538e+68
2.3546e+68
1.53349e+68
9.98726e+67
6.50445e+67
4.23618e+67
2.75892e+67
1.79681e+67
1.17022e+67
7.62135e+66
4.96359e+66
3.23266e+66
2.10535e+66
1.37116e+66
8.93003e+65
5.8159e+65
3.78775e+65
2.46687e+65
1.60661e+65
1.04634e+65
6.81457e+64
4.43816e+64
2.89046e+64
1.88248e+64
1.22601e+64
7.98472e+63
5.20025e+63
3.38679e+63
2.20573e+63
1.43654e+63
9.3558e+62
6.09319e+62
3.96834e+62
2.58448e+62
1.68321e+62
1.09623e+62
7.13947e+61
4.64976e+61
3.02827e+61
1.97224e+61
1.28447e+61
8.36541e+60
5.44818e+60
3.54826e+60
2.3109e+60
1.50503e+60
9.80149e+59
6.38248e+59
4.16328e+59
2.7915e+59
2.2752e+59
3.14063e+77
2.0469e+77
1.33356e+77
8.68628e+76
5.65727e+76
3.68432e+76
2.39938e+76
1.56258e+76
1.01762e+76
6.62725e+75
4.31603e+75
2.81086e+75
1.83061e+75
1.19222e+75
7.76455e+74
5.05683e+74
3.29337e+74
2.14488e+74
1.39691e+74
9.09768e+73
5.92509e+73
3.85886e+73
2.51317e+73
1.63677e+73
1.06598e+73
6.94249e+72
4.52147e+72
2.94472e+72
1.91782e+72
1.24903e+72
8.1346e+71
5.29786e+71
3.45036e+71
2.24713e+71
1.4635e+71
9.53142e+70
6.20757e+70
4.04283e+70
2.633e+70
1.7148e+70
1.11681e+70
7.27349e+69
4.73704e+69
3.08511e+69
2.00926e+69
1.30858e+69
8.52244e+68
5.55045e+68
3.61487e+68
2.35427e+68
1.53328e+68
9.98585e+67
6.50353e+67
4.23559e+67
2.75853e+67
1.79656e+67
1.17006e+67
7.62028e+66
4.96289e+66
3.23221e+66
2.10505e+66
1.37097e+66
8.92877e+65
5.81508e+65
3.78722e+65
2.46652e+65
1.60638e+65
1.0462e+65
6.81361e+64
4.43753e+64
2.89005e+64
1.88222e+64
1.22584e+64
7.98359e+63
5.19951e+63
3.38631e+63
2.20542e+63
1.43633e+63
9.35448e+62
6.09234e+62
3.96778e+62
2.58412e+62
1.68297e+62
1.09608e+62
7.13847e+61
4.6491e+61
3.02784e+61
1.97196e+61
1.28429e+61
8.36423e+60
5.44741e+60
3.54776e+60
2.31057e+60
1.50482e+60
9.80049e+59
6.38254e+59
4.15627e+59
2.71247e+59
1.82423e+59
1.49787e+59
2.04544e+77
1.33311e+77
8.68517e+76
5.65713e+76
3.68437e+76
2.39942e+76
1.56258e+76
1.0176e+76
6.62693e+75
4.31572e+75
2.8106e+75
1.83041e+75
1.19207e+75
7.76353e+74
5.05612e+74
3.29289e+74
2.14456e+74
1.39669e+74
9.09627e+73
5.92416e+73
3.85825e+73
2.51278e+73
1.63651e+73
1.06581e+73
6.94138e+72
4.52074e+72
2.94425e+72
1.91751e+72
1.24883e+72
8.1333e+71
5.29701e+71
3.44981e+71
2.24677e+71
1.46327e+71
9.52989e+70
6.20658e+70
4.04219e+70
2.63257e+70
1.71453e+70
1.11663e+70
7.27232e+69
4.73628e+69
3.08462e+69
2.00894e+69
1.30837e+69
8.52108e+68
5.54956e+68
3.61429e+68
2.3539e+68
1.53303e+68
9.98425e+67
6.50249e+67
4.23491e+67
2.75809e+67
1.79627e+67
1.16987e+67
7.61905e+66
4.9621e+66
3.23169e+66
2.10472e+66
1.37075e+66
8.92734e+65
5.81415e+65
3.78661e+65
2.46612e+65
1.60612e+65
1.04603e+65
6.81252e+64
4.43682e+64
2.88959e+64
1.88192e+64
1.22564e+64
7.98231e+63
5.19868e+63
3.38577e+63
2.20507e+63
1.4361e+63
9.35298e+62
6.09136e+62
3.96715e+62
2.5837e+62
1.6827e+62
1.0959e+62
7.13732e+61
4.64836e+61
3.02736e+61
1.97164e+61
1.28408e+61
8.36289e+60
5.44654e+60
3.54719e+60
2.3102e+60
1.50457e+60
9.79891e+59
6.38178e+59
4.15612e+59
2.70655e+59
1.76705e+59
1.1908e+59
9.82171e+58
1.33215e+77
8.68223e+76
5.65644e+76
3.68432e+76
2.3995e+76
1.56264e+76
1.01762e+76
6.62693e+75
4.31561e+75
2.81046e+75
1.83028e+75
1.19196e+75
7.76264e+74
5.05548e+74
3.29244e+74
2.14425e+74
1.39648e+74
9.09484e+73
5.9232e+73
3.85762e+73
2.51236e+73
1.63623e+73
1.06564e+73
6.94021e+72
4.51998e+72
2.94375e+72
1.91719e+72
1.24862e+72
8.13192e+71
5.29611e+71
3.44922e+71
2.24639e+71
1.46302e+71
9.52827e+70
6.20552e+70
4.0415e+70
2.63213e+70
1.71424e+70
1.11644e+70
7.27109e+69
4.73548e+69
3.0841e+69
2.00859e+69
1.30815e+69
8.51963e+68
5.54862e+68
3.61367e+68
2.3535e+68
1.53277e+68
9.98256e+67
6.50139e+67
4.23419e+67
2.75762e+67
1.79597e+67
1.16967e+67
7.61776e+66
4.96125e+66
3.23114e+66
2.10436e+66
1.37052e+66
8.92582e+65
5.81316e+65
3.78597e+65
2.4657e+65
1.60585e+65
1.04585e+65
6.81136e+64
4.43607e+64
2.8891e+64
1.8816e+64
1.22544e+64
7.98096e+63
5.1978e+63
3.38519e+63
2.20469e+63
1.43586e+63
9.35139e+62
6.09032e+62
3.96647e+62
2.58326e+62
1.68241e+62
1.09571e+62
7.13611e+61
4.64757e+61
3.02684e+61
1.97131e+61
1.28386e+61
8.36147e+60
5.44562e+60
3.54659e+60
2.30981e+60
1.50432e+60
9.79724e+59
6.3807e+59
4.15559e+59
2.70632e+59
1.76247e+59
1.151e+59
7.7663e+58
6.42288e+58
8.676e+76
5.65453e+76
3.68389e+76
2.39949e+76
1.56271e+76
1.01768e+76
6.62725e+75
4.31572e+75
2.81046e+75
1.83022e+75
1.19189e+75
7.76205e+74
5.05498e+74
3.29206e+74
2.14397e+74
1.39628e+74
9.09349e+73
5.92228e+73
3.857e+73
2.51195e+73
1.63596e+73
1.06546e+73
6.93902e+72
4.5192e+72
2.94324e+72
1.91686e+72
1.2484e+72
8.1305e+71
5.29519e+71
3.44862e+71
2.246e+71
1.46276e+71
9.52661e+70
6.20444e+70
4.04079e+70
2.63167e+70
1.71394e+70
1.11624e+70
7.26982e+69
4.73465e+69
3.08356e+69
2.00824e+69
1.30792e+69
8.51814e+68
5.54765e+68
3.61304e+68
2.35308e+68
1.5325e+68
9.98081e+67
6.50025e+67
4.23345e+67
2.75714e+67
1.79565e+67
1.16946e+67
7.61643e+66
4.96039e+66
3.23057e+66
2.10399e+66
1.37028e+66
8.92427e+65
5.81215e+65
3.78531e+65
2.46527e+65
1.60557e+65
1.04567e+65
6.81017e+64
4.43529e+64
2.88859e+64
1.88127e+64
1.22522e+64
7.97956e+63
5.19689e+63
3.3846e+63
2.20431e+63
1.43561e+63
9.34976e+62
6.08926e+62
3.96578e+62
2.58281e+62
1.68212e+62
1.09552e+62
7.13486e+61
4.64676e+61
3.02632e+61
1.97096e+61
1.28364e+61
8.36001e+60
5.44466e+60
3.54597e+60
2.3094e+60
1.50406e+60
9.79553e+59
6.37958e+59
4.15486e+59
2.70596e+59
1.76225e+59
1.14768e+59
7.49632e+58
5.06199e+58
4.19304e+58
5.65046e+76
3.68266e+76
2.39923e+76
1.56272e+76
1.01774e+76
6.62777e+75
4.31603e+75
2.8106e+75
1.83028e+75
1.19189e+75
7.76184e+74
5.05472e+74
3.29181e+74
2.14377e+74
1.39613e+74
9.09233e+73
5.92146e+73
3.85643e+73
2.51156e+73
1.6357e+73
1.06528e+73
6.93786e+72
4.51843e+72
2.94273e+72
1.91652e+72
1.24818e+72
8.12908e+71
5.29426e+71
3.44801e+71
2.2456e+71
1.4625e+71
9.52492e+70
6.20334e+70
4.04008e+70
2.6312e+70
1.71363e+70
1.11605e+70
7.26853e+69
4.73381e+69
3.08301e+69
2.00789e+69
1.30769e+69
8.51663e+68
5.54667e+68
3.6124e+68
2.35267e+68
1.53223e+68
9.97905e+67
6.4991e+67
4.2327e+67
2.75665e+67
1.79534e+67
1.16926e+67
7.61508e+66
4.95951e+66
3.23e+66
2.10362e+66
1.37003e+66
8.92269e+65
5.81112e+65
3.78464e+65
2.46484e+65
1.60529e+65
1.04548e+65
6.80896e+64
4.43451e+64
2.88808e+64
1.88093e+64
1.22501e+64
7.97815e+63
5.19597e+63
3.384e+63
2.20392e+63
1.43535e+63
9.3481e+62
6.08818e+62
3.96508e+62
2.58236e+62
1.68182e+62
1.09533e+62
7.1336e+61
4.64593e+61
3.02578e+61
1.97061e+61
1.28341e+61
8.35853e+60
5.4437e+60
3.54534e+60
2.30899e+60
1.50379e+60
9.7938e+59
6.37845e+59
4.15413e+59
2.70548e+59
1.76201e+59
1.14751e+59
7.47336e+58
4.88186e+58
3.2981e+58
2.73451e+58
3.68001e+76
2.39842e+76
1.56255e+76
1.01776e+76
6.62826e+75
4.31644e+75
2.81086e+75
1.83041e+75
1.19196e+75
7.76205e+74
5.05472e+74
3.29172e+74
2.14366e+74
1.39602e+74
9.09148e+73
5.92081e+73
3.85595e+73
2.51121e+73
1.63546e+73
1.06512e+73
6.93675e+72
4.51769e+72
2.94224e+72
1.9162e+72
1.24797e+72
8.12766e+71
5.29333e+71
3.44741e+71
2.24521e+71
1.46225e+71
9.52323e+70
6.20224e+70
4.03936e+70
2.63073e+70
1.71333e+70
1.11585e+70
7.26724e+69
4.73297e+69
3.08246e+69
2.00753e+69
1.30745e+69
8.51512e+68
5.54568e+68
3.61176e+68
2.35225e+68
1.53196e+68
9.97727e+67
6.49794e+67
4.23195e+67
2.75616e+67
1.79502e+67
1.16905e+67
7.61373e+66
4.95863e+66
3.22943e+66
2.10325e+66
1.36979e+66
8.9211e+65
5.81009e+65
3.78396e+65
2.4644e+65
1.605e+65
1.0453e+65
6.80775e+64
4.43372e+64
2.88757e+64
1.8806e+64
1.22479e+64
7.97673e+63
5.19504e+63
3.3834e+63
2.20352e+63
1.4351e+63
9.34644e+62
6.0871e+62
3.96437e+62
2.5819e+62
1.68152e+62
1.09513e+62
7.13233e+61
4.64511e+61
3.02524e+61
1.97026e+61
1.28318e+61
8.35704e+60
5.44273e+60
3.54471e+60
2.30858e+60
1.50352e+60
9.79206e+59
6.37732e+59
4.15339e+59
2.705e+59
1.7617e+59
1.14735e+59
7.47211e+58
4.86635e+58
3.1791e+58
2.1484e+58
1.78221e+58
2.3967e+76
1.56203e+76
1.01765e+76
6.62839e+75
4.3168e+75
2.81116e+75
1.83061e+75
1.19207e+75
7.76264e+74
5.05498e+74
3.29181e+74
2.14366e+74
1.39599e+74
9.09103e+73
5.92038e+73
3.85559e+73
2.51094e+73
1.63526e+73
1.06497e+73
6.93575e+72
4.517e+72
2.94177e+72
1.91588e+72
1.24776e+72
8.12628e+71
5.29242e+71
3.44681e+71
2.24481e+71
1.46199e+71
9.52155e+70
6.20114e+70
4.03864e+70
2.63027e+70
1.71303e+70
1.11565e+70
7.26594e+69
4.73213e+69
3.08191e+69
2.00717e+69
1.30722e+69
8.5136e+68
5.54469e+68
3.61112e+68
2.35183e+68
1.53169e+68
9.97549e+67
6.49679e+67
4.23119e+67
2.75567e+67
1.7947e+67
1.16884e+67
7.61237e+66
4.95774e+66
3.22885e+66
2.10287e+66
1.36955e+66
8.91951e+65
5.80905e+65
3.78329e+65
2.46396e+65
1.60471e+65
1.04511e+65
6.80654e+64
4.43293e+64
2.88705e+64
1.88026e+64
1.22457e+64
7.97531e+63
5.19412e+63
3.3828e+63
2.20313e+63
1.43484e+63
9.34477e+62
6.08601e+62
3.96367e+62
2.58144e+62
1.68122e+62
1.09494e+62
7.13106e+61
4.64428e+61
3.0247e+61
1.96991e+61
1.28295e+61
8.35555e+60
5.44176e+60
3.54408e+60
2.30817e+60
1.50325e+60
9.79031e+59
6.37618e+59
4.15265e+59
2.70451e+59
1.76138e+59
1.14714e+59
7.47106e+58
4.86551e+58
3.16877e+58
2.07024e+58
1.39928e+58
1.16107e+58
1.56091e+76
1.01731e+76
6.6277e+75
4.3169e+75
2.81141e+75
1.83083e+75
1.19222e+75
7.76353e+74
5.05548e+74
3.29206e+74
2.14377e+74
1.39602e+74
9.09103e+73
5.92023e+73
3.85541e+73
2.51077e+73
1.63511e+73
1.06486e+73
6.93492e+72
4.51641e+72
2.94136e+72
1.9156e+72
1.24756e+72
8.12497e+71
5.29154e+71
3.44623e+71
2.24443e+71
1.46174e+71
9.51989e+70
6.20005e+70
4.03793e+70
2.6298e+70
1.71272e+70
1.11545e+70
7.26465e+69
4.73128e+69
3.08136e+69
2.00681e+69
1.30699e+69
8.51208e+68
5.5437e+68
3.61047e+68
2.35141e+68
1.53141e+68
9.97371e+67
6.49563e+67
4.23044e+67
2.75518e+67
1.79438e+67
1.16863e+67
7.61101e+66
4.95686e+66
3.22828e+66
2.10249e+66
1.3693e+66
8.91791e+65
5.80801e+65
3.78261e+65
2.46352e+65
1.60443e+65
1.04492e+65
6.80532e+64
4.43213e+64
2.88654e+64
1.87993e+64
1.22435e+64
7.97388e+63
5.19319e+63
3.38219e+63
2.20274e+63
1.43459e+63
9.3431e+62
6.08493e+62
3.96296e+62
2.58097e+62
1.68092e+62
1.09474e+62
7.12979e+61
4.64345e+61
3.02416e+61
1.96956e+61
1.28272e+61
8.35406e+60
5.44079e+60
3.54345e+60
2.30776e+60
1.50298e+60
9.78856e+59
6.37504e+59
4.1519e+59
2.70403e+59
1.76107e+59
1.14694e+59
7.46972e+58
4.86484e+58
3.16821e+58
2.06339e+58
1.34814e+58
9.11261e+57
7.5619e+57
1.01658e+76
6.6255e+75
4.31645e+75
2.81148e+75
1.831e+75
1.19237e+75
7.76455e+74
5.05612e+74
3.29244e+74
2.14397e+74
1.39613e+74
9.09148e+73
5.92038e+73
3.85541e+73
2.51071e+73
1.63504e+73
1.06479e+73
6.93432e+72
4.51594e+72
2.94101e+72
1.91535e+72
1.24739e+72
8.12377e+71
5.29073e+71
3.44568e+71
2.24406e+71
1.46149e+71
9.51827e+70
6.19898e+70
4.03723e+70
2.62934e+70
1.71242e+70
1.11525e+70
7.26336e+69
4.73044e+69
3.08082e+69
2.00646e+69
1.30675e+69
8.51056e+68
5.54271e+68
3.60983e+68
2.35099e+68
1.53114e+68
9.97193e+67
6.49446e+67
4.22968e+67
2.75468e+67
1.79406e+67
1.16842e+67
7.60965e+66
4.95597e+66
3.2277e+66
2.10212e+66
1.36906e+66
8.91632e+65
5.80697e+65
3.78194e+65
2.46308e+65
1.60414e+65
1.04474e+65
6.80411e+64
4.43134e+64
2.88602e+64
1.87959e+64
1.22413e+64
7.97246e+63
5.19226e+63
3.38159e+63
2.20234e+63
1.43433e+63
9.34143e+62
6.08384e+62
3.96225e+62
2.58051e+62
1.68062e+62
1.09455e+62
7.12851e+61
4.64262e+61
3.02362e+61
1.96921e+61
1.2825e+61
8.35257e+60
5.43982e+60
3.54282e+60
2.30735e+60
1.50272e+60
9.78681e+59
6.3739e+59
4.15116e+59
2.70355e+59
1.76075e+59
1.14673e+59
7.46839e+58
4.86397e+58
3.16778e+58
2.063e+58
1.34362e+58
8.77898e+57
5.93376e+57
4.92413e+57
6.62073e+75
4.31502e+75
2.8112e+75
1.83105e+75
1.19248e+75
7.76555e+74
5.05683e+74
3.29289e+74
2.14425e+74
1.39628e+74
9.09233e+73
5.92081e+73
3.85559e+73
2.51077e+73
1.63504e+73
1.06476e+73
6.93401e+72
4.51565e+72
2.94076e+72
1.91516e+72
1.24724e+72
8.12274e+71
5.29e+71
3.44517e+71
2.24372e+71
1.46126e+71
9.51671e+70
6.19795e+70
4.03654e+70
2.62889e+70
1.71212e+70
1.11506e+70
7.26209e+69
4.72961e+69
3.08027e+69
2.0061e+69
1.30652e+69
8.50904e+68
5.54172e+68
3.60918e+68
2.35057e+68
1.53087e+68
9.97015e+67
6.4933e+67
4.22893e+67
2.75419e+67
1.79374e+67
1.16821e+67
7.60829e+66
4.95509e+66
3.22712e+66
2.10174e+66
1.36881e+66
8.91473e+65
5.80594e+65
3.78126e+65
2.46264e+65
1.60385e+65
1.04455e+65
6.80289e+64
4.43055e+64
2.88551e+64
1.87926e+64
1.22391e+64
7.97103e+63
5.19133e+63
3.38098e+63
2.20195e+63
1.43407e+63
9.33976e+62
6.08275e+62
3.96154e+62
2.58005e+62
1.68032e+62
1.09435e+62
7.12724e+61
4.64179e+61
3.02308e+61
1.96886e+61
1.28227e+61
8.35108e+60
5.43885e+60
3.54218e+60
2.30693e+60
1.50245e+60
9.78506e+59
6.37276e+59
4.15042e+59
2.70306e+59
1.76044e+59
1.14653e+59
7.46705e+58
4.8631e+58
3.16722e+58
2.06272e+58
1.34335e+58
8.74924e+57
5.71658e+57
3.86351e+57
3.20634e+57
4.31191e+75
2.81026e+75
1.83086e+75
1.19251e+75
7.76632e+74
5.0575e+74
3.29337e+74
2.14456e+74
1.39648e+74
9.09349e+73
5.92146e+73
3.85595e+73
2.51094e+73
1.63511e+73
1.06479e+73
6.93401e+72
4.51554e+72
2.94063e+72
1.91503e+72
1.24714e+72
8.12194e+71
5.2894e+71
3.44474e+71
2.24342e+71
1.46105e+71
9.51528e+70
6.19698e+70
4.03589e+70
2.62845e+70
1.71183e+70
1.11487e+70
7.26083e+69
4.72878e+69
3.07973e+69
2.00575e+69
1.30629e+69
8.50753e+68
5.54074e+68
3.60854e+68
2.35015e+68
1.53059e+68
9.96837e+67
6.49215e+67
4.22817e+67
2.7537e+67
1.79342e+67
1.16801e+67
7.60693e+66
4.9542e+66
3.22655e+66
2.10137e+66
1.36857e+66
8.91313e+65
5.8049e+65
3.78058e+65
2.4622e+65
1.60357e+65
1.04436e+65
6.80168e+64
4.42976e+64
2.88499e+64
1.87892e+64
1.22369e+64
7.96961e+63
5.19041e+63
3.38038e+63
2.20156e+63
1.43382e+63
9.33809e+62
6.08166e+62
3.96083e+62
2.57959e+62
1.68002e+62
1.09416e+62
7.12596e+61
4.64096e+61
3.02254e+61
1.9685e+61
1.28204e+61
8.34958e+60
5.43787e+60
3.54155e+60
2.30652e+60
1.50218e+60
9.78331e+59
6.37163e+59
4.14968e+59
2.70258e+59
1.76012e+59
1.14632e+59
7.46572e+58
4.86223e+58
3.16665e+58
2.06236e+58
1.34316e+58
8.74734e+57
5.69722e+57
3.72233e+57
2.51552e+57
2.08795e+57
2.80824e+75
1.83025e+75
1.19239e+75
7.76655e+74
5.058e+74
3.29382e+74
2.14488e+74
1.39669e+74
9.09484e+73
5.92228e+73
3.85643e+73
2.51121e+73
1.63526e+73
1.06486e+73
6.93432e+72
4.51565e+72
2.94063e+72
1.91499e+72
1.24709e+72
8.12143e+71
5.28898e+71
3.44441e+71
2.24317e+71
1.46087e+71
9.51401e+70
6.1961e+70
4.03529e+70
2.62804e+70
1.71156e+70
1.11469e+70
7.25961e+69
4.72798e+69
3.0792e+69
2.0054e+69
1.30606e+69
8.50604e+68
5.53976e+68
3.6079e+68
2.34973e+68
1.53032e+68
9.96659e+67
6.49099e+67
4.22742e+67
2.75321e+67
1.7931e+67
1.1678e+67
7.60557e+66
4.95331e+66
3.22597e+66
2.10099e+66
1.36832e+66
8.91154e+65
5.80386e+65
3.77991e+65
2.46176e+65
1.60328e+65
1.04418e+65
6.80046e+64
4.42897e+64
2.88447e+64
1.87859e+64
1.22348e+64
7.96819e+63
5.18948e+63
3.37978e+63
2.20116e+63
1.43356e+63
9.33642e+62
6.08058e+62
3.96013e+62
2.57913e+62
1.67972e+62
1.09396e+62
7.12469e+61
4.64013e+61
3.022e+61
1.96815e+61
1.28181e+61
8.34809e+60
5.4369e+60
3.54092e+60
2.30611e+60
1.50191e+60
9.78157e+59
6.37049e+59
4.14894e+59
2.7021e+59
1.75981e+59
1.14612e+59
7.46438e+58
4.86136e+58
3.16608e+58
2.06199e+58
1.34292e+58
8.7461e+57
5.69593e+57
3.70982e+57
2.42374e+57
1.6379e+57
1.35979e+57
1.82894e+75
1.192e+75
7.76576e+74
5.05815e+74
3.29415e+74
2.14518e+74
1.39691e+74
9.09627e+73
5.9232e+73
3.857e+73
2.51156e+73
1.63546e+73
1.06497e+73
6.93492e+72
4.51594e+72
2.94076e+72
1.91503e+72
1.24709e+72
8.12126e+71
5.28876e+71
3.4442e+71
2.24299e+71
1.46073e+71
9.51298e+70
6.19535e+70
4.03476e+70
2.62768e+70
1.71131e+70
1.11451e+70
7.25846e+69
4.72721e+69
3.07869e+69
2.00506e+69
1.30584e+69
8.50456e+68
5.53879e+68
3.60727e+68
2.34932e+68
1.53005e+68
9.96482e+67
6.48983e+67
4.22666e+67
2.75272e+67
1.79278e+67
1.16759e+67
7.60421e+66
4.95243e+66
3.22539e+66
2.10062e+66
1.36808e+66
8.90995e+65
5.80282e+65
3.77923e+65
2.46132e+65
1.60299e+65
1.04399e+65
6.79924e+64
4.42818e+64
2.88396e+64
1.87825e+64
1.22326e+64
7.96676e+63
5.18855e+63
3.37917e+63
2.20077e+63
1.43331e+63
9.33476e+62
6.07949e+62
3.95942e+62
2.57867e+62
1.67942e+62
1.09377e+62
7.12342e+61
4.6393e+61
3.02146e+61
1.9678e+61
1.28158e+61
8.3466e+60
5.43593e+60
3.54028e+60
2.3057e+60
1.50164e+60
9.77982e+59
6.36935e+59
4.1482e+59
2.70161e+59
1.75949e+59
1.14591e+59
7.46305e+58
4.86049e+58
3.16552e+58
2.06162e+58
1.34268e+58
8.74455e+57
5.6951e+57
3.70897e+57
2.41569e+57
1.5782e+57
1.06646e+57
8.85342e+56
1.19114e+75
7.76318e+74
5.05764e+74
3.29425e+74
2.1454e+74
1.3971e+74
9.09768e+73
5.92416e+73
3.85762e+73
2.51195e+73
1.6357e+73
1.06512e+73
6.93575e+72
4.51641e+72
2.94101e+72
1.91516e+72
1.24714e+72
8.12143e+71
5.28876e+71
3.44413e+71
2.2429e+71
1.46064e+71
9.51225e+70
6.19478e+70
4.03433e+70
2.62736e+70
1.71109e+70
1.11436e+70
7.2574e+69
4.72649e+69
3.0782e+69
2.00473e+69
1.30562e+69
8.50313e+68
5.53785e+68
3.60665e+68
2.34891e+68
1.52978e+68
9.96307e+67
6.48869e+67
4.22591e+67
2.75223e+67
1.79246e+67
1.16738e+67
7.60286e+66
4.95155e+66
3.22482e+66
2.10024e+66
1.36783e+66
8.90836e+65
5.80179e+65
3.77856e+65
2.46088e+65
1.60271e+65
1.0438e+65
6.79803e+64
4.42738e+64
2.88344e+64
1.87791e+64
1.22304e+64
7.96534e+63
5.18762e+63
3.37857e+63
2.20038e+63
1.43305e+63
9.33309e+62
6.0784e+62
3.95871e+62
2.57821e+62
1.67912e+62
1.09357e+62
7.12214e+61
4.63847e+61
3.02092e+61
1.96745e+61
1.28135e+61
8.34511e+60
5.43496e+60
3.53965e+60
2.30529e+60
1.50137e+60
9.77807e+59
6.36821e+59
4.14745e+59
2.70113e+59
1.75918e+59
1.14571e+59
7.46171e+58
4.85963e+58
3.16495e+58
2.06125e+58
1.34244e+58
8.74298e+57
5.69408e+57
3.70842e+57
2.41514e+57
1.57301e+57
1.02755e+57
6.93902e+56
5.75377e+56
7.75759e+74
5.05596e+74
3.29392e+74
2.14546e+74
1.39724e+74
9.09895e+73
5.92509e+73
3.85825e+73
2.51236e+73
1.63596e+73
1.06528e+73
6.93675e+72
4.517e+72
2.94136e+72
1.91535e+72
1.24724e+72
8.12194e+71
5.28898e+71
3.4442e+71
2.2429e+71
1.46061e+71
9.51187e+70
6.19442e+70
4.03403e+70
2.62713e+70
1.71091e+70
1.11423e+70
7.25648e+69
4.72584e+69
3.07776e+69
2.00443e+69
1.30542e+69
8.50176e+68
5.53694e+68
3.60604e+68
2.34851e+68
1.52952e+68
9.96134e+67
6.48755e+67
4.22517e+67
2.75174e+67
1.79214e+67
1.16717e+67
7.6015e+66
4.95067e+66
3.22424e+66
2.09987e+66
1.36759e+66
8.90677e+65
5.80075e+65
3.77788e+65
2.46044e+65
1.60242e+65
1.04362e+65
6.79681e+64
4.42659e+64
2.88293e+64
1.87758e+64
1.22282e+64
7.96391e+63
5.1867e+63
3.37796e+63
2.19998e+63
1.43279e+63
9.33142e+62
6.07732e+62
3.958e+62
2.57775e+62
1.67882e+62
1.09337e+62
7.12087e+61
4.63764e+61
3.02038e+61
1.9671e+61
1.28112e+61
8.34362e+60
5.43399e+60
3.53902e+60
2.30487e+60
1.50111e+60
9.77632e+59
6.36707e+59
4.14671e+59
2.70065e+59
1.75886e+59
1.1455e+59
7.46038e+58
4.85876e+58
3.16439e+58
2.06088e+58
1.3422e+58
8.74142e+57
5.69307e+57
3.70775e+57
2.41477e+57
1.57265e+57
1.02422e+57
6.68606e+56
4.50646e+56
3.7318e+56
5.05232e+74
3.29282e+74
2.14524e+74
1.39728e+74
9.09988e+73
5.92591e+73
3.85886e+73
2.51278e+73
1.63623e+73
1.06546e+73
6.93786e+72
4.51769e+72
2.94177e+72
1.9156e+72
1.24739e+72
8.12274e+71
5.2894e+71
3.44441e+71
2.24299e+71
1.46064e+71
9.51187e+70
6.19429e+70
4.03387e+70
2.62698e+70
1.71078e+70
1.11413e+70
7.25573e+69
4.7253e+69
3.07737e+69
2.00416e+69
1.30523e+69
8.50049e+68
5.53608e+68
3.60547e+68
2.34813e+68
1.52926e+68
9.95965e+67
6.48644e+67
4.22444e+67
2.75126e+67
1.79182e+67
1.16697e+67
7.60016e+66
4.94979e+66
3.22367e+66
2.09949e+66
1.36735e+66
8.90518e+65
5.79972e+65
3.77721e+65
2.46e+65
1.60214e+65
1.04343e+65
6.7956e+64
4.4258e+64
2.88241e+64
1.87724e+64
1.2226e+64
7.96249e+63
5.18577e+63
3.37736e+63
2.19959e+63
1.43254e+63
9.32975e+62
6.07623e+62
3.9573e+62
2.57729e+62
1.67852e+62
1.09318e+62
7.1196e+61
4.63681e+61
3.01984e+61
1.96675e+61
1.28089e+61
8.34212e+60
5.43302e+60
3.53839e+60
2.30446e+60
1.50084e+60
9.77457e+59
6.36593e+59
4.14597e+59
2.70017e+59
1.75855e+59
1.1453e+59
7.45905e+58
4.85789e+58
3.16382e+58
2.06052e+58
1.34196e+58
8.73986e+57
5.69205e+57
3.70709e+57
2.41433e+57
1.5724e+57
1.02403e+57
6.66741e+56
4.34837e+56
2.94992e+56
2.58755e+56
3.29045e+74
2.14453e+74
1.39714e+74
9.10016e+73
5.92652e+73
3.8594e+73
2.51317e+73
1.63651e+73
1.06564e+73
6.93902e+72
4.51843e+72
2.94224e+72
1.91588e+72
1.24756e+72
8.12377e+71
5.29e+71
3.44474e+71
2.24317e+71
1.46073e+71
9.51225e+70
6.19442e+70
4.03387e+70
2.62693e+70
1.71072e+70
1.11407e+70
7.25521e+69
4.72488e+69
3.07706e+69
2.00393e+69
1.30507e+69
8.49936e+68
5.5353e+68
3.60493e+68
2.34777e+68
1.52902e+68
9.95804e+67
6.48537e+67
4.22373e+67
2.75079e+67
1.79152e+67
1.16677e+67
7.59883e+66
4.94892e+66
3.2231e+66
2.09912e+66
1.3671e+66
8.9036e+65
5.79869e+65
3.77654e+65
2.45956e+65
1.60185e+65
1.04324e+65
6.79439e+64
4.42501e+64
2.8819e+64
1.87691e+64
1.22238e+64
7.96107e+63
5.18484e+63
3.37676e+63
2.1992e+63
1.43228e+63
9.32808e+62
6.07515e+62
3.95659e+62
2.57683e+62
1.67822e+62
1.09298e+62
7.11833e+61
4.63599e+61
3.0193e+61
1.96639e+61
1.28066e+61
8.34063e+60
5.43204e+60
3.53775e+60
2.30405e+60
1.50057e+60
9.77283e+59
6.3648e+59
4.14523e+59
2.69968e+59
1.75824e+59
1.14509e+59
7.45771e+58
4.85702e+58
3.16325e+58
2.06015e+58
1.34172e+58
8.7383e+57
5.69103e+57
3.70643e+57
2.4139e+57
1.57211e+57
1.02388e+57
6.66781e+56
4.34111e+56
2.83953e+56
2.01441e+56
2.14551e+56
2.14299e+74
1.39668e+74
9.09924e+73
5.9267e+73
3.85979e+73
2.51353e+73
1.63677e+73
1.06581e+73
6.94021e+72
4.5192e+72
2.94273e+72
1.9162e+72
1.24776e+72
8.12497e+71
5.29073e+71
3.44517e+71
2.24342e+71
1.46087e+71
9.51298e+70
6.19478e+70
4.03403e+70
2.62698e+70
1.71072e+70
1.11405e+70
7.25494e+69
4.72463e+69
3.07684e+69
2.00376e+69
1.30494e+69
8.49841e+68
5.53462e+68
3.60446e+68
2.34744e+68
1.5288e+68
9.95652e+67
6.48434e+67
4.22305e+67
2.75034e+67
1.79122e+67
1.16657e+67
7.59752e+66
4.94806e+66
3.22254e+66
2.09875e+66
1.36686e+66
8.90202e+65
5.79766e+65
3.77586e+65
2.45912e+65
1.60156e+65
1.04306e+65
6.79317e+64
4.42422e+64
2.88138e+64
1.87657e+64
1.22216e+64
7.95965e+63
5.18392e+63
3.37615e+63
2.1988e+63
1.43203e+63
9.32642e+62
6.07406e+62
3.95588e+62
2.57637e+62
1.67792e+62
1.09279e+62
7.11705e+61
4.63516e+61
3.01876e+61
1.96604e+61
1.28043e+61
8.33914e+60
5.43107e+60
3.53712e+60
2.30364e+60
1.5003e+60
9.77108e+59
6.36366e+59
4.14449e+59
2.6992e+59
1.75792e+59
1.14489e+59
7.45638e+58
4.85615e+58
3.16269e+58
2.05978e+58
1.34148e+58
8.73674e+57
5.69002e+57
3.70576e+57
2.41347e+57
1.57183e+57
1.0237e+57
6.66707e+56
4.34166e+56
2.82708e+56
1.85833e+56
1.38157e+56
1.61251e+56
1.39567e+74
9.09621e+73
5.92611e+73
3.85991e+73
2.51379e+73
1.637e+73
1.06598e+73
6.94138e+72
4.51998e+72
2.94324e+72
1.91652e+72
1.24797e+72
8.12628e+71
5.29154e+71
3.44568e+71
2.24372e+71
1.46105e+71
9.51401e+70
6.19535e+70
4.03433e+70
2.62713e+70
1.71078e+70
1.11407e+70
7.25494e+69
4.72454e+69
3.07673e+69
2.00365e+69
1.30485e+69
8.4977e+68
5.53408e+68
3.60406e+68
2.34715e+68
1.5286e+68
9.95514e+67
6.4834e+67
4.22241e+67
2.74991e+67
1.79093e+67
1.16638e+67
7.59625e+66
4.94722e+66
3.22199e+66
2.09839e+66
1.36662e+66
8.90046e+65
5.79664e+65
3.7752e+65
2.45869e+65
1.60128e+65
1.04287e+65
6.79197e+64
4.42343e+64
2.88087e+64
1.87624e+64
1.22195e+64
7.95822e+63
5.18299e+63
3.37555e+63
2.19841e+63
1.43177e+63
9.32475e+62
6.07297e+62
3.95517e+62
2.57591e+62
1.67762e+62