/*--------------------------------*- C++ -*----------------------------------*\
  =========                 |
  \\      /  F ield         | OpenFOAM: The Open Source CFD Toolbox
   \\    /   O peration     | Website:  https://openfoam.org
    \\  /    A nd           | Version:  8
     \\/     M anipulation  |
\*---------------------------------------------------------------------------*/
FoamFile
{
    version     2.0;
    format      ascii;
    class       surfaceScalarField;
    location    "2.8";
    object      phi;
}
// * * * * * * * * * * * * * * * * * * * * * * * * * * * * * * * * * * * * * //

dimensions      [0 3 -1 0 0 0 0];

internalField   nonuniform List<scalar> 
19800
(
0.00907118
0.0337009
0.0191743
0.0228
0.0214031
0.00763702
0.0181834
-0.00873748
0.0108054
-0.0239563
0.000771879
-0.0360608
-0.0103806
-0.0436748
-0.0211878
-0.0460632
-0.0303771
-0.0431351
-0.0369677
-0.0353862
-0.0403385
-0.0237902
-0.0402547
-0.00965002
-0.0368529
0.00557092
-0.0305899
0.0204175
-0.0221625
0.033594
-0.0124116
0.0440808
-0.00222161
0.0512098
0.00757164
0.0546914
0.0162574
0.0545994
0.0233029
0.0513189
0.0283806
0.0454681
0.0313716
0.0378082
0.0323463
0.0291505
0.0315304
0.0202736
0.0292606
0.0118563
0.0259365
0.00443207
0.0219758
-0.00163531
0.0177741
-0.00615495
0.013675
-0.00909535
0.00995058
-0.0105585
0.00679086
-0.0107462
0.00430389
-0.00992436
0.00252231
-0.00838785
0.00141541
-0.00643008
0.000904238
-0.00431871
0.000877837
-0.00227844
0.00120887
-0.000480954
0.00176751
0.000958584
0.00243266
0.00197964
0.0031003
0.00257022
0.00368858
0.00275802
0.00414021
0.00260012
0.00442228
0.0021723
0.00452413
0.00155902
0.00445382
0.00084465
0.0042338
0.000106387
0.00389616
-0.000590791
0.00347807
-0.00119726
0.00301768
-0.00168002
0.0025506
-0.0020224
0.00210739
-0.00222244
0.00171181
-0.00229043
0.00138001
-0.00224587
0.0011204
-0.00211427
0.00093432
-0.00192396
0.000816987
-0.00170333
0.000758919
-0.00147846
0.000747417
-0.00127139
0.000768088
-0.00109898
0.00080624
-0.000972414
0.00084808
-0.000897147
0.000881656
-0.000873388
0.000897501
-0.000896861
0.000889001
-0.000959803
0.000852486
-0.00105206
0.000787098
-0.00116218
0.000694473
-0.00127847
0.000578295
-0.00138985
0.000443772
-0.0014866
0.000297087
-0.00156084
0.000144861
-0.00160684
-6.33275e-06
-0.00162115
-0.000150383
-0.00160257
-0.000281964
-0.00155192
-0.00039677
-0.00147177
-0.000491646
-0.00136611
-0.000564638
-0.00123992
-0.000614968
-0.00109882
-0.000642942
-0.000948677
-0.000649821
-0.000795279
-0.000637647
-0.000644056
-0.000609069
-0.000499861
-0.000567149
-0.0003668
-0.00051518
-0.000248134
-0.000456521
-0.00014622
-0.000394437
-6.25032e-05
-0.000331968
2.45491e-06
-0.000271816
4.89237e-05
-0.000216249
7.79239e-05
-0.000167029
9.11328e-05
-0.000125353
9.07743e-05
-9.18163e-05
7.94943e-05
-6.63988e-05
6.02221e-05
-4.84696e-05
3.60151e-05
-3.68529e-05
9.88852e-06
-3.00144e-05
-1.53673e-05
-2.65913e-05
-3.73813e-05
-2.68168e-05
-5.44242e-05
-3.60804e-05
-6.56956e-05
-7.10767e-05
0.0189424
0.0295649
0.024464
0.0200742
0.0273481
0.00885352
0.0263864
-0.00383577
0.02146
-0.016709
0.0131991
-0.0282584
0.00265957
-0.0371304
-0.00889005
-0.0423325
-0.0201483
-0.0433374
-0.0299326
-0.0401091
-0.037298
-0.0330673
-0.0416176
-0.0230038
-0.0426196
-0.0109643
-0.0403819
0.00188555
-0.0352891
0.0143936
-0.0279619
0.0255391
-0.0191687
0.034523
-0.00973266
0.0408241
-0.000443869
0.044218
0.0080126
0.0447631
0.0151085
0.0427582
0.0205007
0.0386812
0.0240362
0.0331193
0.025738
0.0266975
0.0257755
0.020016
0.0244258
0.0135996
0.0220308
0.00786345
0.0189568
0.00309487
0.0155578
-0.000548948
0.0121478
-0.00303098
0.00898161
-0.00441516
0.00624428
-0.00484174
0.00404935
-0.00450063
0.00244333
-0.0036056
0.00141522
-0.00237166
0.00090894
-0.000996801
0.000837109
0.000351056
0.00109466
0.00154192
0.00157114
0.00248682
0.00216096
0.00313687
0.00277121
0.0034792
0.00332677
0.00353075
0.00377308
0.00333089
0.00407654
0.00293365
0.00422321
0.00240029
0.0042161
0.0017928
0.00407168
0.00116848
0.00381586
0.000576053
0.00348005
5.31625e-05
0.00309745
-0.00037477
0.0026999
-0.000694458
0.00231544
-0.000903707
0.00196656
-0.00100966
0.0016693
-0.00102659
0.00143294
-0.000973546
0.00126039
-0.000871954
0.00114891
-0.000743528
0.00109126
-0.000608449
0.00107696
-0.000484007
0.00109365
-0.000383677
0.00112828
-0.00031666
0.0011683
-0.000287817
0.00120248
-0.000297951
0.00122162
-0.000344347
0.00121896
-0.000421493
0.00119029
-0.000521894
0.00113398
-0.000636902
0.00105071
-0.000757502
0.00094314
-0.000875008
0.000815486
-0.000981628
0.000673039
-0.00107088
0.000521697
-0.00113789
0.000367513
-0.00117945
0.000216315
-0.00119411
7.33788e-05
-0.00118199
-5.68114e-05
-0.00114463
-0.000170721
-0.00108473
-0.000265851
-0.00100588
-0.00034075
-0.000912245
-0.000394969
-0.00080831
-0.000428977
-0.000698612
-0.000444031
-0.000587516
-0.000442034
-0.000479035
-0.000425382
-0.000376681
-0.000396804
-0.000283365
-0.000359214
-0.000201333
-0.000315565
-0.000132136
-0.000268721
-7.66198e-05
-0.000221336
-3.49502e-05
-0.000175751
-6.64838e-06
-0.000133904
9.35181e-06
-9.72455e-05
1.46296e-05
-6.6679e-05
1.11845e-05
-4.25175e-05
1.32124e-06
-2.44821e-05
-1.24881e-05
-1.1794e-05
-2.77649e-05
-3.44961e-06
-4.22021e-05
1.20545e-06
-5.38501e-05
1.77478e-06
-6.12899e-05
-6.3906e-05
0.026884
0.0289913
0.030398
0.020379
0.0328301
0.0102273
0.0328179
-0.00139712
0.0296131
-0.0137268
0.0231759
-0.0255925
0.0140143
-0.0357381
0.00301787
-0.0430647
-0.00871282
-0.0467951
-0.020028
-0.0465629
-0.0298718
-0.042435
-0.0373958
-0.0348756
-0.0420362
-0.0246669
-0.0435492
-0.0127994
-0.0420073
-0.000349609
-0.0377612
0.0116391
-0.0313749
0.0222595
-0.0235463
0.0308166
-0.0150233
0.0368718
-0.00652507
0.0402547
0.00132248
0.0410448
0.00803244
0.03953
0.013282
0.0361506
0.0169174
0.0314353
0.0189409
0.0259401
0.0194855
0.0201932
0.0187808
0.0146533
0.0171164
0.00968078
0.014806
0.00552418
0.012156
0.0023192
0.00944088
9.82592e-05
0.00688595
-0.00119243
0.0046582
-0.00167149
0.00286376
-0.00149954
0.00155117
-0.000857324
0.000719007
7.34972e-05
0.000326097
0.00112566
0.000303017
0.00215733
0.000563607
0.00305873
0.00101552
0.00375476
0.00156917
0.00420423
0.00214462
0.00439646
0.00267633
0.00434607
0.00311578
0.00408671
0.0034322
0.00366452
0.00361168
0.00313182
0.00365511
0.0025415
0.0035753
0.00194248
0.00339367
0.00137629
0.00313683
0.000874933
0.00283342
0.000459926
0.00251132
0.000142308
0.00219545
-7.64496e-05
0.00190619
-0.000202942
0.00165842
-0.000249946
0.00146124
-0.000234356
0.00131811
-0.00017516
0.00122751
-9.1575e-05
0.00118381
-1.4922e-06
0.00117835
7.97255e-05
0.00120059
0.00014005
0.00123919
0.000171206
0.00128303
0.000168743
0.00132201
0.000131798
0.00134765
6.26411e-05
0.00135352
-3.39484e-05
0.0013354
-0.000151384
0.00129135
-0.000281997
0.00122149
-0.000417729
0.00112778
-0.000550745
0.00101363
-0.000673939
0.000883541
-0.00078132
0.000742669
-0.000868259
0.000596445
-0.000931623
0.000450218
-0.000969791
0.000308961
-0.000982573
0.000177039
-0.000971059
5.80446e-05
-0.000937413
-4.53028e-05
-0.00088464
-0.000131193
-0.000816335
-0.000198711
-0.000736441
-0.000247781
-0.000649019
-0.00027908
-0.000558049
-0.00029392
-0.000467259
-0.000294134
-0.000379985
-0.000281938
-0.000299069
-0.000259803
-0.000226784
-0.000230331
-0.000164787
-0.000196126
-0.000114095
-0.000159686
-7.50845e-05
-0.000123286
-4.75088e-05
-8.88791e-05
-3.05362e-05
-5.8002e-05
-2.28124e-05
-3.17028e-05
-2.25501e-05
-1.04995e-05
-2.7652e-05
5.58831e-06
-3.58662e-05
1.68993e-05
-4.49628e-05
2.38645e-05
-5.28897e-05
2.65946e-05
-5.7844e-05
-5.8921e-05
0.0340693
0.0279755
0.0366184
0.0202944
0.0387375
0.0112066
0.0392871
0.000675927
0.0373559
-0.0108645
0.0325228
-0.0225751
0.024864
-0.0333994
0.0148865
-0.0422717
0.0034136
-0.0482943
-0.00855248
-0.050865
-0.0199709
-0.0497468
-0.0298898
-0.0450807
-0.0375492
-0.03735
-0.0424492
-0.0273049
-0.0443819
-0.015863
-0.0434257
-0.00400075
-0.0399099
0.00735117
-0.0343546
0.0173956
-0.0273984
0.025532
-0.0197229
0.0313911
-0.0119824
0.0348405
-0.00474692
0.0359656
0.00153806
0.0350305
0.00657318
0.0324274
0.0102089
0.0286217
0.0124343
0.024098
0.0133542
0.0193147
0.0131596
0.0146683
0.0120959
0.0104703
0.0104316
0.0069362
0.00843096
0.00418539
0.00633273
0.00224952
0.00433482
0.00108715
0.00258595
0.000601861
0.00118308
0.000661389
0.000173806
0.001116
-0.000437623
0.00181457
-0.000681796
0.0026175
-0.000614527
0.00340604
-0.000307082
0.00408796
0.000162883
0.0045999
0.000719091
0.00490686
0.00129275
0.00499949
0.00182685
0.00488981
0.00227865
0.004606
0.00262049
0.00418695
0.00283931
0.0036769
0.00293497
0.00312071
0.00291788
0.00255998
0.00280622
0.00203012
0.00262303
0.00155848
0.00239343
0.00116344
0.00214213
0.000854457
0.00189154
0.00063276
0.00166021
0.000492608
0.00146205
0.000422896
0.00130588
0.000408909
0.00119555
0.000434066
0.00113047
0.000481521
0.00110626
0.000535522
0.00111574
0.00058246
0.00114991
0.000611591
0.00119885
0.000615418
0.0012527
0.000589778
0.00130231
0.000533663
0.00133989
0.000448838
0.00135936
0.000339324
0.00135654
0.000210795
0.00132928
6.99529e-05
0.00127726
-7.60714e-05
0.00120186
-0.000220261
0.00110583
-0.000356164
0.000992967
-0.000478241
0.000867771
-0.000582101
0.000735091
-0.000664639
0.00059981
-0.000724067
0.000466578
-0.000759863
0.000339585
-0.000772661
0.000222402
-0.000764081
0.00011787
-0.000736541
2.80459e-05
-0.000693044
-4.58057e-05
-0.000636974
-0.000103185
-0.000571893
-0.000144296
-0.000501363
-0.000169966
-0.000428792
-0.000181548
-0.000357298
-0.000180817
-0.000289606
-0.000169858
-0.000227964
-0.000150953
-0.000174085
-0.000126467
-0.000129104
-9.8734e-05
-9.35601e-05
-6.99431e-05
-6.73978e-05
-4.20261e-05
-4.99938e-05
-1.65608e-05
-4.02182e-05
5.29861e-06
-3.65361e-05
2.28341e-05
-3.71517e-05
3.56936e-05
-4.01813e-05
4.37421e-05
-4.37984e-05
4.68851e-05
-4.63102e-05
-4.69332e-05
0.0404807
0.0270286
0.0425608
0.0201738
0.0445257
0.0120068
0.0454861
0.0024389
0.0445574
-0.00830592
0.0411393
-0.0196516
0.0350126
-0.030759
0.0263575
-0.040672
0.0157051
-0.048476
0.00384514
-0.0534341
-0.00829086
-0.0550862
-0.0197519
-0.0533004
-0.0296796
-0.0482763
-0.0373981
-0.0405072
-0.0424724
-0.0307088
-0.0447339
-0.0197295
-0.0442729
-0.00845339
-0.0414031
0.00229042
-0.0366066
0.0118019
-0.0304682
0.0195623
-0.0236074
0.0252599
-0.0166167
0.0287922
-0.0100114
0.0302455
-0.00419516
0.029859
0.000558096
0.0279804
0.00410694
0.0250171
0.0064319
0.0213908
0.00761552
0.0174987
0.00781655
0.0136835
0.00724217
0.0102148
0.00612105
0.00727985
0.00467987
0.00498422
0.00312463
0.0033588
0.00162747
0.00237241
0.000319105
0.00194696
-0.000713679
0.00197365
-0.00142634
0.00232834
-0.00181169
0.00288514
-0.00189289
0.00352735
-0.00171534
0.00415535
-0.00133843
0.00469159
-0.000827739
0.00508266
-0.000248276
0.00529902
0.000340849
0.00533279
0.00089029
0.00519426
0.00136276
0.00490755
0.00173393
0.00450592
0.00199206
0.00402736
0.00213672
0.00351043
0.00217684
0.002991
0.00212826
0.00249964
0.00201128
0.00206007
0.00184822
0.00168825
0.00166125
0.00139247
0.00147061
0.00117385
0.00129334
0.00102745
0.00114236
0.000943608
0.0010262
0.000909478
0.000948964
0.00091052
0.000910711
0.000931895
0.000908108
0.000959659
0.000935188
0.000981692
0.000984215
0.000988342
0.00104653
0.00097278
0.00111335
0.000931098
0.00117643
0.000862176
0.0012286
0.000767366
0.00126414
0.000650052
0.00127899
0.000515141
0.00127084
0.000368516
0.00123907
0.000216513
0.00118454
6.54455e-05
0.00110945
-7.88035e-05
0.00101699
-0.000211096
0.000911037
-0.000327266
0.000795896
-0.000424249
0.000675987
-0.000500131
0.000555606
-0.000554124
0.000438714
-0.00058648
0.000328787
-0.00059836
0.000228695
-0.000591677
0.000140638
-0.000568921
6.61216e-05
-0.00053298
5.96043e-06
-0.000486967
-3.96835e-05
-0.000434063
-7.12461e-05
-0.000377367
-8.96888e-05
-0.000319775
-9.64145e-05
-0.000263872
-9.31751e-05
-0.000211843
-8.197e-05
-0.000165403
-6.49383e-05
-0.000125745
-4.42437e-05
-9.35035e-05
-2.1956e-05
-6.87549e-05
6.21389e-08
-5.1046e-05
2.02457e-05
-3.94742e-05
3.73684e-05
-3.28204e-05
5.05083e-05
-2.97232e-05
5.89463e-05
-2.88419e-05
6.22057e-05
-2.8968e-05
-2.95655e-05
0.0462319
0.0261647
0.0480719
0.0200331
0.0499915
0.0126908
0.0512987
0.00400573
0.0511974
-0.0059389
0.0490271
-0.0167715
0.0443869
-0.0278564
0.0372054
-0.038383
0.0277473
-0.0474888
0.0165689
-0.0543861
0.00443601
-0.0584714
-0.00777924
-0.059401
-0.0192059
-0.0571273
-0.0290717
-0.0518938
-0.0367802
-0.0441953
-0.0419593
-0.0347109
-0.0444796
-0.0242224
-0.0444442
-0.0135285
-0.0421538
-0.00336738
-0.0380561
0.00564687
-0.0326859
0.0130657
-0.0266045
0.0186258
-0.0203458
0.0222473
-0.0143733
0.0240141
-0.00904998
0.0241411
-0.00462407
0.0229345
-0.00122715
0.0207498
0.00111614
0.0179531
0.00247047
0.0148878
0.0029674
0.0118502
0.00278129
0.00907333
0.00210616
0.00672013
0.00113544
0.00488373
4.58276e-05
0.00359379
-0.00101417
0.00282704
-0.0019309
0.00252014
-0.00262801
0.00258329
-0.00306521
0.00291327
-0.00323432
0.00340488
-0.00315347
0.00396034
-0.00286023
0.00449602
-0.00240462
0.00494675
-0.00184237
0.00526776
-0.00122911
0.00543449
-0.000615677
0.00544084
-4.46552e-05
0.00529625
0.00045167
0.00502199
0.000852196
0.00464724
0.00114679
0.00420524
0.00133525
0.00372976
0.00142557
0.00325224
0.00143197
0.00279955
0.00137267
0.00239254
0.00126778
0.00204539
0.00113736
0.00176549
0.000999905
0.00155396
0.000871065
0.00140658
0.000762945
0.00131495
0.000683708
0.00126779
0.000637578
0.00125231
0.000625139
0.00125536
0.000643861
0.00126455
0.000688774
0.00126902
0.00075322
0.00126008
0.000829602
0.00123149
0.000910092
0.00117958
0.000987243
0.00110315
0.00105447
0.00100325
0.00110643
0.000882715
0.00113919
0.000745819
0.00115039
0.000597744
0.00113912
0.000444141
0.00110589
0.000290702
0.00105239
0.000142797
0.000981281
5.18669e-06
0.000895902
-0.00011819
0.000800041
-0.000224345
0.000697667
-0.000311297
0.000592714
-0.000378065
0.000488886
-0.000424605
0.000389506
-0.000451709
0.000297402
-0.000460873
0.000214837
-0.000454155
0.000143464
-0.000434017
8.43169e-05
-0.000403178
3.78284e-05
-0.000364471
3.86209e-06
-0.000320707
-1.82347e-05
-0.000274559
-2.95652e-05
-0.000228453
-3.16036e-05
-0.000184477
-2.61019e-05
-0.000144299
-1.49828e-05
-0.00010911
-2.21636e-07
-7.95915e-05
1.62737e-05
-5.59148e-05
3.27677e-05
-3.78029e-05
4.77549e-05
-2.46515e-05
5.99391e-05
-1.57102e-05
6.81347e-05
-1.0282e-05
7.14423e-05
-7.87928e-06
-8.37839e-06
0.0514076
0.0253949
0.0531122
0.0198973
0.0550384
0.013297
0.0566449
0.0054286
0.0572382
-0.00372318
0.0561621
-0.0139436
0.0529172
-0.024775
0.0472531
-0.0355615
0.0392122
-0.0455341
0.0291261
-0.0539175
0.0175698
-0.0600346
0.00528535
-0.0633948
-0.0069107
-0.0637512
-0.0182221
-0.0611241
-0.0279575
-0.0557892
-0.0355949
-0.0482364
-0.0408213
-0.039107
-0.0435441
-0.0291196
-0.0438783
-0.018995
-0.0421124
-0.0093892
-0.0386617
-0.000840856
-0.0340138
0.00626234
-0.028676
0.0116978
-0.0231273
0.0154036
-0.0177824
0.0174596
-0.0129659
0.0180576
-0.00890091
0.0174664
-0.00570837
0.0159957
-0.00341566
0.0139626
-0.0019723
0.0116635
-0.00126945
0.00935417
-0.00116065
0.00723566
-0.00148175
0.0054491
-0.00206833
0.00407599
-0.00276961
0.00314371
-0.00345836
0.00263446
-0.00403679
0.00249616
-0.00443881
0.00265404
-0.00462912
0.00302165
-0.00460003
0.00351069
-0.00436651
0.00403899
-0.00396044
0.00453636
-0.00342459
0.00494831
-0.00280683
0.00523775
-0.0021551
0.00538494
-0.00151323
0.00538597
-0.000917987
0.00525026
-0.000397194
0.00499744
3.10984e-05
0.00465392
0.000358451
0.00424953
0.00058515
0.00381452
0.00071876
0.00337699
0.000772344
0.00296096
0.000762552
0.00258515
0.00070774
0.00226228
0.00062628
0.0019991
0.000535141
0.00179676
0.000448824
0.00165165
0.00037865
0.00155641
0.00033242
0.0015011
0.000314386
0.00147438
0.0003255
0.00146455
0.000363863
0.00146053
0.00042532
0.0014526
0.00050411
0.00143288
0.000593547
0.00139569
0.000686643
0.00133762
0.000776669
0.00125746
0.000857597
0.001156
0.000924438
0.00103568
0.000973454
0.000900234
0.00100225
0.000754249
0.00100978
0.00060278
0.000996227
0.000450964
0.000962904
0.000303696
0.000912003
0.000165366
0.000846399
3.9662e-05
0.000769414
-7.05496e-05
0.000684599
-0.000163289
0.000595534
-0.000237466
0.000505647
-0.000292833
0.000418076
-0.000329909
0.000335556
-0.000349866
0.000260342
-0.000354414
0.000194158
-0.000345663
0.000138174
-0.000325996
9.30051e-05
-0.00029794
5.87279e-05
-0.000264038
3.49193e-05
-0.000226745
2.07081e-05
-0.000188311
1.48489e-05
-0.000150693
1.58136e-05
-0.000115469
2.19033e-05
-8.37849e-05
3.13694e-05
-5.63304e-05
4.25261e-05
-3.33788e-05
5.38189e-05
-1.48979e-05
6.38034e-05
-7.41733e-07
7.10223e-05
9.10608e-06
7.4223e-05
1.43139e-05
1.43582e-05
0.0560755
0.0247153
0.0576899
0.0197758
0.0596365
0.0138441
0.0614919
0.00673243
0.0626633
-0.00164335
0.0625329
-0.0111879
0.0605607
-0.0215938
0.0563787
-0.0323537
0.0498563
-0.0428131
0.0411265
-0.0522517
0.0305718
-0.0599762
0.0187772
-0.0654082
0.00645781
-0.0681541
-0.00562475
-0.0680485
-0.0167457
-0.0651667
-0.0262898
-0.0598073
-0.0338048
-0.0524506
-0.0390319
-0.0436993
-0.041912
-0.0342127
-0.04257
-0.02464
-0.0412822
-0.0155634
-0.0384327
-0.00745472
-0.0344654
-0.000648552
-0.0298367
0.00466721
-0.0249752
0.00844538
-0.0202496
0.0107611
-0.0159491
0.0117853
-0.0122726
0.0117534
-0.00932983
0.0109346
-0.00714888
0.00960313
-0.00569027
0.00801452
-0.00486377
0.00638842
-0.00454634
0.00489757
-0.00459928
0.00366311
-0.00488321
0.00275516
-0.00527005
0.00219759
-0.00565158
0.00197575
-0.00594463
0.00204573
-0.00609304
0.00234432
-0.00606704
0.00279841
-0.00586053
0.00333345
-0.00548695
0.00388025
-0.0049743
0.00438008
-0.00435995
0.00478782
-0.00368565
0.00507346
-0.0029931
0.00522202
-0.0023204
0.00523222
-0.00169935
0.00511429
-0.00115385
0.00488722
-0.00069916
0.00457574
-0.000342037
0.00420741
-8.15097e-05
0.00380995
8.98403e-05
0.00340898
0.000184306
0.00302638
0.000217356
0.00267918
0.000205963
0.00237898
0.000167097
0.00213199
0.000116458
0.00193939
6.7516e-05
0.00179804
3.08746e-05
0.00170144
1.39509e-05
0.00164076
2.09454e-05
0.00160588
5.30529e-05
0.00158636
0.000108858
0.00157226
0.000184858
0.00155484
0.000276045
0.00152702
0.000376514
0.00148364
0.000480022
0.00142157
0.000580494
0.00133968
0.000672434
0.00123859
0.000751232
0.00112043
0.000813367
0.0009885
0.000856508
0.000846895
0.000879517
0.000700143
0.000882391
0.000552879
0.000866128
0.000409543
0.000832561
0.000274152
0.000784171
0.000150116
0.000723882
4.01261e-05
0.00065487
-5.39108e-05
0.000580379
-0.000130878
0.000503567
-0.000190418
0.000427365
-0.000232868
0.00035438
-0.000259171
0.000286804
-0.00027077
0.000226366
-0.000269498
0.000174297
-0.000257458
0.000131313
-0.000236913
9.76277e-05
-0.000210165
7.29742e-05
-0.000179449
5.66572e-05
-0.000146829
4.76266e-05
-0.0001141
4.45771e-05
-8.27126e-05
4.60666e-05
-5.37356e-05
5.06337e-05
-2.78697e-05
5.68737e-05
-5.54821e-06
6.34172e-05
1.28634e-05
6.87709e-05
2.67805e-05
7.1504e-05
3.5088e-05
3.635e-05
0.0602927
0.0241176
0.0618337
0.0196703
0.0637923
0.0143397
0.0658412
0.00792702
0.067481
0.000300854
0.0681503
-0.00853299
0.0673067
-0.0183901
0.0645142
-0.0288981
0.0595166
-0.0395231
0.052282
-0.0496264
0.0430151
-0.0585405
0.0321359
-0.06565
0.02023
-0.0704653
0.00798154
-0.072678
-0.0039031
-0.0721921
-0.0147682
-0.0691272
-0.0240703
-0.0637975
-0.0314217
-0.0566698
-0.0366132
-0.0483087
-0.0396151
-0.0393171
-0.0405601
-0.0302785
-0.0397118
-0.0217085
-0.0374248
-0.0140192
-0.0341016
-0.00749847
-0.0301517
-0.00230393
-0.0259566
0.00152961
-0.0218432
0.00407281
-0.0180669
0.00547775
-0.0148039
0.00595076
-0.012152
0.00572544
-0.0101384
0.00503825
-0.00873161
0.00410859
-0.00785626
0.00312414
-0.00740866
0.00223187
-0.0072716
0.00153425
-0.00732715
0.00108999
-0.00746707
0.00091825
-0.00760014
0.00100542
-0.0076566
0.00131314
-0.00758994
0.00178688
-0.00737633
0.00236405
-0.00701228
0.00298132
-0.00651102
0.00358043
-0.00589825
0.00411258
-0.00520754
0.00454106
-0.00447603
0.00484251
-0.00374054
0.00500675
-0.00303447
0.00503553
-0.00238548
0.00494055
-0.00181406
0.00474097
-0.00133297
0.00446075
-0.000947333
0.00412602
-0.000655392
0.00376273
-0.000449659
0.0033947
-0.000318332
0.00304216
-0.000246828
0.00272076
-0.000219279
0.00244121
-0.000219882
0.00220922
-0.000234034
0.00202595
-0.00024919
0.00188862
-0.000255429
0.00179143
-0.000245743
0.00172647
-0.000216058
0.00168466
-0.000165045
0.00165665
-9.37674e-05
0.00163356
-5.20636e-06
0.00160754
9.62617e-05
0.00157227
0.000205407
0.00152314
0.000316658
0.00145736
0.000424556
0.00137391
0.000524128
0.00127337
0.000611168
0.00115765
0.000682428
0.00102971
0.000735713
0.000893237
0.000769899
0.000752297
0.000784877
0.000611063
0.000781449
0.000473544
0.000761186
0.000343374
0.000726258
0.000223658
0.000679266
0.000116858
0.000623062
2.47448e-05
0.000560593
-5.16179e-05
0.000494755
-0.000111848
0.00042827
-0.000156189
0.000363585
-0.000185438
0.000302791
-0.000200853
0.000247566
-0.000204057
0.000199132
-0.000196933
0.000158239
-0.000181516
0.000125166
-0.000159891
9.97451e-05
-0.000134078
8.14178e-05
-0.000105937
6.93212e-05
-7.70743e-05
6.24001e-05
-4.87865e-05
5.95289e-05
-2.20565e-05
5.95986e-05
2.36354e-06
6.15032e-05
2.37544e-05
6.39577e-05
4.1106e-05
6.56153e-05
5.26771e-05
5.58816e-05
0.0641099
0.023592
0.0655812
0.0195782
0.0675332
0.0147864
0.0697182
0.00901534
0.0717221
0.00210365
0.0730482
-0.00600848
0.073177
-0.0152349
0.0716425
-0.0253209
0.0681041
-0.0358496
0.0624019
-0.0462776
0.0545861
-0.0559919
0.0449182
-0.0643803
0.0338429
-0.0709022
0.0219385
-0.075149
0.00985377
-0.0768881
-0.00176077
-0.0760825
-0.0123161
-0.0728878
-0.0213363
-0.0676276
-0.0284933
-0.0607522
-0.0336225
-0.0527883
-0.0367199
-0.0442853
-0.0379238
-0.0357661
-0.0374846
-0.0276857
-0.0357287
-0.0204025
-0.0330198
-0.0141625
-0.029724
-0.0090966
-0.0261793
-0.00522874
-0.0226737
-0.00249217
-0.019431
-0.000751243
-0.0166053
0.000174721
-0.0142824
0.000488077
-0.0124867
0.000392017
-0.011192
7.36915e-05
-0.0103346
-0.000308
-0.00982645
-0.0006298
-0.00956839
-0.000806992
-0.0094609
-0.000792482
-0.00941309
-0.000572879
-0.00934901
-0.000162544
-0.0092114
0.000403529
-0.00896316
0.00107716
-0.00858677
0.00180406
-0.00808219
0.00253013
-0.00746365
0.00320642
-0.00675585
0.00379288
-0.00598997
0.00426049
-0.00519981
0.00459221
-0.00441847
0.00478269
-0.00367557
0.00483701
-0.00299532
0.00476885
-0.00239529
0.00459816
-0.00188598
0.00434876
-0.00147098
0.00404596
-0.00114769
0.00371453
-0.0009084
0.00337691
-0.000741614
0.00305201
-0.000633412
0.00275438
-0.000568826
0.00249388
-0.000533053
0.00227578
-0.000512468
0.00210115
-0.000495382
0.0019675
-0.000472548
0.00186956
-0.0004374
0.00180023
-0.000386065
0.00175135
-0.000317179
0.00171454
-0.000231562
0.0016819
-0.000131784
0.00164648
-2.16933e-05
0.00160269
9.4081e-05
0.00154653
0.000210586
0.00147559
0.000322955
0.00138907
0.000426747
0.00128759
0.0005182
0.00117295
0.000594402
0.00104785
0.00065338
0.000915637
0.000694115
0.000779996
0.000716503
0.000644672
0.000721256
0.000513261
0.000709782
0.000389016
0.000684036
0.000274705
0.000646369
0.000172526
0.000599372
8.40526e-05
0.000545735
1.02284e-05
0.000488116
-4.86143e-05
0.000429028
-9.27057e-05
0.000370742
-0.000122773
0.000315213
-0.000139964
0.000264019
-0.000145753
0.000218319
-0.000141855
0.000178834
-0.000130117
0.000145853
-0.00011242
0.000119268
-9.05707e-05
9.8642e-05
-6.62065e-05
8.33217e-05
-4.07193e-05
7.25593e-05
-1.52307e-05
6.56199e-05
9.34948e-06
6.17913e-05
3.21399e-05
6.02144e-05
5.1944e-05
5.99477e-05
6.66478e-05
7.23674e-05
0.0675743
0.0231278
0.0689739
0.0194954
0.0708971
0.0151846
0.0731628
0.00999862
0.0754339
0.00375927
0.0772803
-0.00363954
0.0782218
-0.0121881
0.07779
-0.0217307
0.0755951
-0.0319585
0.0713836
-0.0424265
0.0650796
-0.0525942
0.0568016
-0.0618823
0.0468544
-0.069736
0.0356967
-0.0756864
0.0238923
-0.0794001
0.0120505
-0.0807114
0.000765788
-0.0796343
-0.00943722
-0.0763529
-0.0181461
-0.0711948
-0.0250875
-0.0645916
-0.0301368
-0.057032
-0.0333121
-0.0490149
-0.0347551
-0.0410063
-0.0347028
-0.0334058
-0.0334545
-0.0265229
-0.0313377
-0.020566
-0.0286779
-0.0156418
-0.0257728
-0.0117641
-0.0228741
-0.00886939
-0.0201758
-0.00683628
-0.0178106
-0.00550658
-0.0158517
-0.00470554
-0.0143191
-0.00425959
-0.0131896
-0.00401059
-0.0124082
-0.00382595
-0.0118996
-0.0036045
-0.0115797
-0.00327864
-0.0113649
-0.00281309
-0.0111795
-0.00220118
-0.0109616
-0.00145945
-0.0106656
-0.000621251
-0.0102636
0.000269745
-0.00974497
0.0011658
-0.00911367
0.00202048
-0.00838598
0.00279292
-0.00758672
0.00345085
-0.00674578
0.00397238
-0.00589474
0.0043465
-0.00506387
0.00457265
-0.00427981
0.00465944
-0.00356391
0.00462282
-0.00293121
0.00448394
-0.00239019
0.00426689
-0.00194299
0.00399659
-0.00158617
0.00369696
-0.00131173
0.00338937
-0.00110831
0.00309162
-0.00096253
0.00281726
-0.000860194
0.00257542
-0.00078739
0.00237089
-0.0007314
0.00220462
-0.000681368
0.0020743
-0.000628731
0.00197516
-0.000567412
0.00190076
-0.000493813
0.00184383
-0.000406625
0.00179692
-0.000306521
0.00175306
-0.000195754
0.0017062
-7.77184e-05
0.00165155
4.34962e-05
0.00158573
0.000163521
0.00150683
0.000278078
0.00141435
0.000383278
0.00130904
0.000475848
0.00119268
0.000553281
0.00106781
0.000613911
0.000937532
0.000656928
0.000805181
0.000682331
0.000674135
0.00069085
0.000547595
0.000683831
0.000428435
0.000663105
0.000319079
0.000630851
0.000221425
0.000589464
0.000136806
0.000541421
6.59881e-05
0.000489167
9.19086e-06
0.000435014
-3.38699e-05
0.000381048
-6.39211e-05
0.000329059
-8.20613e-05
0.000280486
-8.9679e-05
0.000236376
-8.83621e-05
0.000197374
-7.98007e-05
0.000163738
-6.56824e-05
0.0001354
-4.75902e-05
0.000112061
-2.6912e-05
9.33314e-05
-4.78951e-06
7.88547e-05
1.78561e-05
6.83708e-05
4.01748e-05
6.16075e-05
6.10466e-05
5.83726e-05
7.82988e-05
8.67507e-05
0.0707288
0.0227136
0.072053
0.019417
0.0739261
0.0155348
0.0762225
0.0108793
0.0786733
0.00526557
0.0809139
-0.00144327
0.0825122
-0.00929497
0.0830175
-0.018215
0.0820184
-0.0279894
0.0791991
-0.038269
0.0743862
-0.0485942
0.0675769
-0.0584381
0.0589455
-0.0672611
0.0488284
-0.0745673
0.0376891
-0.0799572
0.0260699
-0.0831666
0.0145379
-0.0840899
0.0036313
-0.0827842
-0.00618726
-0.0794557
-0.0145648
-0.0744316
-0.0212779
-0.0681222
-0.0262377
-0.0609785
-0.0294811
-0.0534507
-0.0311513
-0.0459519
-0.0314716
-0.0388301
-0.030715
-0.0323499
-0.0291752
-0.0266852
-0.0271397
-0.0219204
-0.0248684
-0.01806
-0.0225788
-0.0150427
-0.0204368
-0.0127597
-0.018554
-0.0110724
-0.0169904
-0.00983076
-0.0157605
-0.00888786
-0.0148419
-0.00811201
-0.0141858
-0.00739492
-0.0137275
-0.00665633
-0.0133953
-0.00584522
-0.0131195
-0.0049383
-0.0128383
-0.00393636
-0.0125024
-0.0028592
-0.0120776
-0.00173991
-0.0115451
-0.000619032
-0.0109011
0.000460883
-0.0101545
0.00145987
-0.00932438
0.00234414
-0.00843645
0.00308849
-0.00752028
0.00367758
-0.00660602
0.00410615
-0.00572188
0.00437833
-0.00489213
0.00450627
-0.00413572
0.00450834
-0.00346549
0.00440705
-0.00288812
0.00422702
-0.00240442
0.00399299
-0.0020101
0.00372821
-0.00169684
0.00345316
-0.00145338
0.00318463
-0.0012668
0.00293526
-0.00112361
0.00271344
-0.00101074
0.00252352
-0.000916367
0.00236627
-0.000830474
0.00223954
-0.000745219
0.002139
-0.000655076
0.00205886
-0.000556795
0.00199268
-0.000449209
0.00193395
-0.000332926
0.00187665
-0.000209957
0.00181568
-8.33076e-05
0.00174707
4.34302e-05
0.00166817
0.000166452
0.00157765
0.000282071
0.00147539
0.000386977
0.00136239
0.000478438
0.00124048
0.000554419
0.00111217
0.000613645
0.000980356
0.000655605
0.000848113
0.000680505
0.000718487
0.000689189
0.000594322
0.000683036
0.000478125
0.000663839
0.000371968
0.000633684
0.000277433
0.000594827
0.000195582
0.000549581
0.000126958
0.000500206
7.1617e-05
0.000448823
2.91634e-05
0.000397325
-1.18761e-06
0.000347319
-2.05427e-05
0.000300067
-3.02505e-05
0.000256467
-3.18106e-05
0.000217046
-2.67725e-05
0.000182013
-1.66281e-05
0.000151343
-2.70638e-06
0.000124923
1.39068e-05
0.000102719
3.23884e-05
8.49007e-05
5.20824e-05
7.18656e-05
7.21911e-05
6.45039e-05
9.08222e-05
0.000101695
0.0736111
0.0223377
0.0748564
0.0193385
0.0766611
0.0158386
0.0789454
0.0116625
0.0815001
0.00662567
0.0840221
0.000572927
0.0861316
-0.00658511
0.0874088
-0.014838
0.0874418
-0.0240532
0.0858792
-0.0339692
0.082477
-0.0442091
0.0771343
-0.0543104
0.0699115
-0.0637689
0.0610276
-0.0720895
0.0508402
-0.0788365
0.0398088
-0.083677
0.0284492
-0.0864109
0.0172833
-0.0869858
0.00679341
-0.0854952
-0.00261723
-0.0821614
-0.0106511
-0.0773068
-0.0171305
-0.0713183
-0.0219982
-0.0646091
-0.0253067
-0.0575824
-0.0271991
-0.0506011
-0.0278844
-0.0439649
-0.0276107
-0.0378971
-0.0266391
-0.0325395
-0.0252214
-0.0279557
-0.0235822
-0.0241412
-0.0219063
-0.0210365
-0.0203326
-0.0185434
-0.0189522
-0.0165412
-0.0178113
-0.014902
-0.0169176
-0.0135031
-0.0162482
-0.0122373
-0.0157587
-0.0110191
-0.0153926
-0.0097881
-0.0150892
-0.00850949
-0.0147909
-0.00717205
-0.0144485
-0.0057845
-0.0140248
-0.00437076
-0.0134962
-0.00296458
-0.0128531
-0.00160444
-0.0120989
-0.00032873
-0.0112477
0.000828129
-0.0103217
0.0018386
-0.00934842
0.0026839
-0.00835772
0.00335474
-0.00737892
0.00385127
-0.00643873
0.00418206
-0.00555948
0.0043627
-0.00475808
0.00441393
-0.00404548
0.00435967
-0.00342672
0.00422507
-0.00290139
0.00403477
-0.00246445
0.00381144
-0.00210725
0.0035747
-0.00181866
0.0033404
-0.00158621
0.00312028
-0.0013971
0.00292202
-0.00123914
0.00274951
-0.00110141
0.00260337
-0.00097478
0.00248159
-0.000852195
0.00238026
-0.000728749
0.00229427
-0.000601618
0.00221802
-0.000469853
0.00214596
-0.000334077
0.00207308
-0.000196123
0.00199527
-5.86558e-05
0.00190949
7.51957e-05
0.00181389
0.00020218
0.00170779
0.000319207
0.00159159
0.000423577
0.0014666
0.000513143
0.00133484
0.000586405
0.00119883
0.000642555
0.00106138
0.000681463
0.000925345
0.000703629
0.000793505
0.000710101
0.000668379
0.000702376
0.000552133
0.000682288
0.000446496
0.000651899
0.000352724
0.000613386
0.000271588
0.000568937
0.000203378
0.000520658
0.000147945