# Forces      
# CofR        : (0.000000e+00 0.000000e+00 0.000000e+00)
# Time        forces(pressure viscous porous)	moments(pressure viscous porous)
0             	((0.000000e+00 0.000000e+00 0.000000e+00) (3.313004e-01 5.473759e-03 -5.101675e-19) (0.000000e+00 0.000000e+00 0.000000e+00)) ((0.000000e+00 0.000000e+00 0.000000e+00) (-3.557943e-03 2.153452e-01 -4.198618e-02) (0.000000e+00 0.000000e+00 0.000000e+00))
