/*--------------------------------*- C++ -*----------------------------------*\
  =========                 |
  \\      /  F ield         | OpenFOAM: The Open Source CFD Toolbox
   \\    /   O peration     | Website:  https://openfoam.org
    \\  /    A nd           | Version:  9
     \\/     M anipulation  |
\*---------------------------------------------------------------------------*/
FoamFile
{
    format      ascii;
    class       volScalarField;
    location    "0.035";
    object      T;
}
// * * * * * * * * * * * * * * * * * * * * * * * * * * * * * * * * * * * * * //

dimensions      [0 0 0 1 0 0 0];

internalField   nonuniform List<scalar> 
9689
(
298
298
298
298
298
298
298
298
298
298
298
298
298
298
298
298
298
298
298
298
298
298
298
298
298
298
298
298
298
298
298
298
298
298
298
298
298
298
298
297.999
297.999
297.999
297.999
297.999
297.999
297.999
297.999
297.999
297.998
297.998
297.998
297.998
297.998
297.998
297.998
297.998
297.998
297.998
297.998
297.998
297.998
297.998
297.997
297.997
297.997
297.997
297.997
297.997
297.997
297.997
297.997
297.997
297.997
297.997
297.997
297.997
297.997
297.997
297.999
297.999
297.999
297.999
297.999
297.998
297.998
297.998
297.998
297.998
297.998
297.998
297.998
297.998
297.998
297.997
297.997
297.997
297.997
297.997
297.997
297.997
297.997
297.997
297.997
297.997
297.996
297.996
297.996
297.996
297.996
297.996
297.996
297.996
297.996
297.996
297.996
297.996
297.996
297.999
297.999
297.998
297.998
297.998
297.998
297.998
297.998
297.997
297.997
297.997
297.997
297.997
297.997
297.996
297.996
297.996
297.996
297.996
297.996
297.996
297.996
297.995
297.995
297.995
297.995
297.995
297.995
297.995
297.995
297.994
297.994
297.994
297.994
297.994
297.994
297.994
297.994
297.994
297.998
297.998
297.998
297.998
297.998
297.997
297.997
297.997
297.997
297.997
297.996
297.996
297.996
297.996
297.996
297.996
297.995
297.995
297.995
297.995
297.995
297.995
297.994
297.994
297.994
297.994
297.994
297.994
297.994
297.993
297.993
297.993
297.993
297.993
297.993
297.993
297.992
297.992
297.992
297.998
297.998
297.998
297.997
297.997
297.997
297.997
297.997
297.996
297.996
297.996
297.996
297.995
297.995
297.995
297.995
297.995
297.994
297.994
297.994
297.994
297.994
297.993
297.993
297.993
297.993
297.993
297.992
297.992
297.992
297.992
297.992
297.992
297.991
297.991
297.991
297.991
297.991
297.991
297.998
297.998
297.997
297.997
297.997
297.997
297.996
297.996
297.996
297.996
297.995
297.995
297.995
297.995
297.994
297.994
297.994
297.994
297.993
297.993
297.993
297.993
297.992
297.992
297.992
297.992
297.992
297.991
297.991
297.991
297.991
297.991
297.99
297.99
297.99
297.99
297.99
297.989
297.989
297.998
297.997
297.997
297.997
297.996
297.996
297.996
297.996
297.995
297.995
297.995
297.994
297.994
297.994
297.994
297.993
297.993
297.993
297.992
297.992
297.992
297.992
297.991
297.991
297.991
297.991
297.99
297.99
297.99
297.99
297.989
297.989
297.989
297.989
297.989
297.988
297.988
297.988
297.988
297.998
297.997
297.997
297.997
297.996
297.996
297.995
297.995
297.995
297.994
297.994
297.994
297.994
297.993
297.993
297.993
297.992
297.992
297.992
297.991
297.991
297.991
297.99
297.99
297.99
297.99
297.989
297.989
297.989
297.989
297.988
297.988
297.988
297.988
297.987
297.987
297.987
297.987
297.986
297.997
297.997
297.996
297.996
297.995
297.995
297.995
297.994
297.994
297.994
297.993
297.993
297.993
297.992
297.992
297.991
297.991
297.991
297.99
297.99
297.99
297.99
297.989
297.989
297.989
297.988
297.988
297.988
297.987
297.987
297.987
297.987
297.986
297.986
297.986
297.985
297.985
297.985
297.997
297.996
297.996
297.996
297.995
297.995
297.994
297.994
297.993
297.993
297.993
297.992
297.992
297.991
297.991
297.991
297.99
297.99
297.99
297.989
297.989
297.989
297.988
297.988
297.988
297.987
297.987
297.987
297.986
297.986
297.986
297.985
297.985
297.985
297.984
297.984
297.984
297.983
297.997
297.996
297.996
297.995
297.995
297.994
297.994
297.993
297.993
297.993
297.992
297.992
297.991
297.991
297.99
297.99
297.99
297.989
297.989
297.988
297.988
297.988
297.987
297.987
297.986
297.986
297.986
297.985
297.985
297.985
297.984
297.984
297.984
297.983
297.983
297.983
297.982
297.982
297.997
297.996
297.995
297.995
297.994
297.994
297.993
297.993
297.992
297.992
297.992
297.991
297.991
297.99
297.99
297.989
297.989
297.988
297.988
297.987
297.987
297.987
297.986
297.986
297.985
297.985
297.985
297.984
297.984
297.983
297.983
297.983
297.982
297.982
297.981
297.981
297.981
297.98
297.996
297.996
297.995
297.995
297.994
297.994
297.993
297.992
297.992
297.991
297.991
297.99
297.99
297.989
297.989
297.988
297.988
297.987
297.987
297.986
297.986
297.986
297.985
297.985
297.984
297.984
297.983
297.983
297.982
297.982
297.982
297.981
297.981
297.98
297.98
297.98
297.979
297.979
297.996
297.996
297.995
297.994
297.994
297.993
297.993
297.992
297.991
297.991
297.99
297.99
297.989
297.989
297.988
297.988
297.987
297.987
297.986
297.985
297.985
297.984
297.984
297.983
297.983
297.983
297.982
297.982
297.981
297.981
297.98
297.98
297.979
297.979
297.978
297.978
297.978
297.977
297.996
297.995
297.995
297.994
297.993
297.993
297.992
297.992
297.991
297.99
297.99
297.989
297.988
297.988
297.987
297.987
297.986
297.986
297.985
297.984
297.984
297.983
297.983
297.982
297.982
297.981
297.981
297.98
297.98
297.979
297.979
297.978
297.978
297.977
297.977
297.976
297.976
297.976
297.996
297.995
297.995
297.994
297.993
297.992
297.992
297.991
297.99
297.99
297.989
297.988
297.988
297.987
297.986
297.986
297.985
297.985
297.984
297.983
297.983
297.982
297.982
297.981
297.98
297.98
297.979
297.979
297.978
297.978
297.977
297.977
297.976
297.976
297.975
297.975
297.974
297.974
297.995
297.994
297.994
297.993
297.992
297.991
297.991
297.99
297.989
297.988
297.988
297.987
297.986
297.986
297.985
297.984
297.984
297.983
297.982
297.982
297.981
297.98
297.98
297.979
297.979
297.978
297.977
297.977
297.976
297.976
297.975
297.975
297.974
297.973
297.973
297.972
297.972
297.995
297.994
297.993
297.992
297.992
297.991
297.99
297.989
297.988
297.988
297.987
297.986
297.985
297.985
297.984
297.983
297.982
297.982
297.981
297.98
297.98
297.979
297.978
297.978
297.977
297.976
297.976
297.975
297.975
297.974
297.973
297.973
297.972
297.972
297.971
297.97
297.97
297.995
297.994
297.993
297.992
297.991
297.99
297.989
297.988
297.988
297.987
297.986
297.985
297.984
297.984
297.983
297.982
297.981
297.98
297.98
297.979
297.978
297.978
297.977
297.976
297.975
297.975
297.974
297.973
297.973
297.972
297.971
297.971
297.97
297.97
297.969
297.968
297.968
297.994
297.993
297.992
297.991
297.99
297.99
297.989
297.988
297.987
297.986
297.985
297.984
297.983
297.982
297.982
297.981
297.98
297.979
297.978
297.978
297.977
297.976
297.975
297.974
297.974
297.973
297.972
297.972
297.971
297.97
297.969
297.969
297.968
297.967
297.967
297.966
297.966
297.994
297.993
297.992
297.991
297.99
297.989
297.988
297.987
297.986
297.985
297.984
297.983
297.982
297.981
297.98
297.979
297.979
297.978
297.977
297.976
297.975
297.974
297.973
297.973
297.972
297.971
297.97
297.97
297.969
297.968
297.967
297.967
297.966
297.965
297.964
297.964
297.963
297.992
297.991
297.99
297.989
297.988
297.987
297.986
297.985
297.984
297.983
297.982
297.981
297.98
297.979
297.978
297.977
297.976
297.975
297.974
297.973
297.972
297.972
297.971
297.97
297.969
297.968
297.967
297.967
297.966
297.965
297.964
297.963
297.963
297.962
297.961
297.96
297.992
297.991
297.989
297.988
297.987
297.986
297.985
297.984
297.983
297.982
297.98
297.979
297.978
297.977
297.976
297.975
297.974
297.973
297.972
297.971
297.97
297.969
297.969
297.968
297.967
297.966
297.965
297.964
297.963
297.962
297.962
297.961
297.96
297.959
297.958
297.958
297.991
297.99
297.989
297.987
297.986
297.985
297.984
297.982
297.981
297.98
297.979
297.978
297.977
297.976
297.974
297.973
297.972
297.971
297.97
297.969
297.968
297.967
297.966
297.965
297.964
297.963
297.962
297.961
297.961
297.96
297.959
297.958
297.957
297.956
297.955
297.955
297.99
297.989
297.987
297.986
297.985
297.984
297.982
297.981
297.98
297.978
297.977
297.976
297.975
297.974
297.972
297.971
297.97
297.969
297.968
297.967
297.966
297.965
297.964
297.963
297.962
297.961
297.96
297.959
297.958
297.957
297.956
297.955
297.954
297.953
297.952
297.951
297.988
297.986
297.985
297.983
297.982
297.981
297.979
297.978
297.977
297.975
297.974
297.973
297.971
297.97
297.969
297.968
297.967
297.965
297.964
297.963
297.962
297.961
297.96
297.959
297.958
297.956
297.955
297.954
297.953
297.952
297.951
297.95
297.949
297.949
297.948
297.986
297.985
297.983
297.982
297.98
297.979
297.977
297.976
297.975
297.973
297.972
297.97
297.969
297.968
297.966
297.965
297.964
297.963
297.961
297.96
297.959
297.958
297.956
297.955
297.954
297.953
297.952
297.951
297.95
297.949
297.948
297.947
297.946
297.945
297.944
297.985
297.983
297.982
297.98
297.978
297.977
297.975
297.974
297.972
297.971
297.969
297.968
297.966
297.965
297.964
297.962
297.961
297.959
297.958
297.957
297.955
297.954
297.953
297.952
297.951
297.949
297.948
297.947
297.946
297.945
297.944
297.943
297.941
297.94
297.939
297.983
297.981
297.98
297.978
297.976
297.974
297.973
297.971
297.97
297.968
297.966
297.965
297.963
297.962
297.96
297.959
297.957
297.956
297.955
297.953
297.952
297.95
297.949
297.948
297.946
297.945
297.944
297.943
297.942
297.94
297.939
297.938
297.937
297.936
297.935
297.979
297.977
297.975
297.974
297.972
297.97
297.968
297.967
297.965
297.963
297.962
297.96
297.958
297.957
297.955
297.954
297.952
297.951
297.949
297.948
297.946
297.945
297.943
297.942
297.941
297.939
297.938
297.937
297.936
297.934
297.933
297.932
297.931
297.929
297.977
297.975
297.973
297.971
297.969
297.967
297.965
297.963
297.962
297.96
297.958
297.956
297.955
297.953
297.951
297.95
297.948
297.946
297.945
297.943
297.942
297.94
297.939
297.937
297.936
297.934
297.933
297.932
297.93
297.929
297.928
297.926
297.925
297.924
297.972
297.97
297.968
297.966
297.964
297.962
297.96
297.958
297.956
297.954
297.952
297.95
297.949
297.947
297.945
297.943
297.942
297.94
297.938
297.937
297.935
297.934
297.932
297.93
297.929
297.927
297.926
297.925
297.923
297.922
297.92
297.919
297.918
297.969
297.967
297.964
297.962
297.96
297.958
297.956
297.954
297.952
297.95
297.948
297.946
297.944
297.942
297.94
297.938
297.937
297.935
297.933
297.931
297.93
297.928
297.926
297.925
297.923
297.921
297.92
297.918
297.917
297.915
297.914
297.912
297.911
297.965
297.963
297.961
297.958
297.956
297.954
297.952
297.949
297.947
297.945
297.943
297.941
297.939
297.937
297.935
297.933
297.931
297.929
297.927
297.925
297.923
297.922
297.92
297.918
297.916
297.915
297.913
297.911
297.91
297.908
297.907
297.905
297.904
297.959
297.956
297.954
297.952
297.949
297.947
297.944
297.942
297.94
297.938
297.935
297.933
297.931
297.929
297.927
297.925
297.923
297.921
297.919
297.917
297.915
297.913
297.911
297.909
297.907
297.906
297.904
297.902
297.901
297.899
297.897
297.896
297.955
297.952
297.949
297.947
297.944
297.942
297.939
297.937
297.934
297.932
297.929
297.927
297.925
297.923
297.92
297.918
297.916
297.914
297.912
297.91
297.908
297.906
297.904
297.902
297.9
297.898
297.896
297.894
297.892
297.89
297.889
297.887
297.947
297.944
297.941
297.939
297.936
297.933
297.931
297.928
297.926
297.923
297.921
297.918
297.916
297.913
297.911
297.909
297.906
297.904
297.902
297.9
297.897
297.895
297.893
297.891
297.889
297.887
297.885
297.883
297.881
297.879
297.878
297.942
297.939
297.936
297.933
297.93
297.927
297.924
297.922
297.919
297.916
297.913
297.911
297.908
297.906
297.903
297.901
297.898
297.896
297.893
297.891
297.889
297.886
297.884
297.882
297.88
297.878
297.875
297.873
297.871
297.869
297.867
297.933
297.93
297.926
297.923
297.92
297.917
297.914
297.911
297.909
297.906
297.903
297.9
297.897
297.895
297.892
297.889
297.887
297.884
297.882
297.879
297.877
297.874
297.872
297.869
297.867
297.865
297.863
297.861
297.858
297.856
297.926
297.923
297.92
297.916
297.913
297.91
297.907
297.904
297.9
297.897
297.894
297.891
297.888
297.885
297.883
297.88
297.877
297.874
297.871
297.869
297.866
297.864
297.861
297.858
297.856
297.854
297.851
297.849
297.846
297.844
297.916
297.912
297.909
297.905
297.902
297.898
297.895
297.892
297.888
297.885
297.882
297.879
297.876
297.873
297.869
297.866
297.863
297.861
297.858
297.855
297.852
297.849
297.846
297.844
297.841
297.839
297.836
297.833
297.831
297.908
297.904
297.9
297.897
297.893
297.889
297.886
297.882
297.879
297.875
297.872
297.868
297.865
297.862
297.858
297.855
297.852
297.849
297.846
297.842
297.839
297.836
297.833
297.831
297.828
297.825
297.822
297.819
297.817
297.895
297.891
297.887
297.884
297.88
297.876
297.872
297.868
297.864
297.861
297.857
297.853
297.85
297.846
297.843
297.839
297.836
297.832
297.829
297.826
297.823
297.819
297.816
297.813
297.81
297.807
297.804
297.801
297.882
297.877
297.873
297.869
297.865
297.861
297.857
297.853
297.849
297.845
297.841
297.837
297.833
297.829
297.826
297.822
297.818
297.815
297.811
297.807
297.804
297.801
297.797
297.794
297.791
297.787
297.784
297.871
297.867
297.862
297.858
297.853
297.849
297.844
297.84
297.836
297.831
297.827
297.823
297.819
297.815
297.811
297.807
297.803
297.799
297.795
297.791
297.787
297.783
297.78
297.776
297.773
297.769
297.765
297.855
297.85
297.845
297.84
297.835
297.831
297.826
297.821
297.817
297.812
297.808
297.803
297.799
297.794
297.79
297.785
297.781
297.777
297.773
297.769
297.765
297.761
297.757
297.753
297.749
297.745
297.842
297.836
297.831
297.826
297.821
297.816
297.811
297.806
297.801
297.796
297.791
297.786
297.781
297.776
297.771
297.767
297.762
297.757
297.753
297.748
297.744
297.74
297.735
297.731
297.727
297.722
297.821
297.816
297.81
297.805
297.799
297.794
297.788
297.783
297.777
297.772
297.767
297.761
297.756
297.751
297.746
297.741
297.736
297.731
297.726
297.721
297.716
297.711
297.707
297.702
297.697
297.799
297.793
297.787
297.781
297.775
297.769
297.763
297.757
297.751
297.746
297.74
297.734
297.729
297.723
297.717
297.712
297.706
297.701
297.696
297.69
297.685
297.68
297.675
297.669
297.78
297.774
297.767
297.761
297.754
297.748
297.741
297.735
297.729
297.722
297.716
297.71
297.704
297.697
297.691
297.685
297.679
297.673
297.667
297.661
297.656
297.65
297.644
297.638
297.753
297.746
297.738
297.731
297.724
297.717
297.71
297.703
297.696
297.689
297.683
297.676
297.669
297.662
297.655
297.649
297.642
297.636
297.629
297.623
297.616
297.61
297.603
297.721
297.714
297.706
297.698
297.69
297.683
297.675
297.667
297.66
297.652
297.645
297.637
297.63
297.622
297.615
297.607
297.6
297.593
297.586
297.579
297.571
297.564
297.686
297.677
297.669
297.66
297.652
297.643
297.635
297.627
297.618
297.61
297.602
297.593
297.585
297.577
297.568
297.56
297.552
297.544
297.536
297.529
297.52
297.654
297.645
297.636
297.626
297.617
297.608
297.599
297.589
297.58
297.571
297.561
297.552
297.543
297.534
297.525
297.516
297.507
297.498
297.489
297.48
297.47
297.609
297.599
297.589
297.578
297.568
297.558
297.547
297.537
297.527
297.516
297.506
297.496
297.486
297.476
297.466
297.456
297.446
297.436
297.426
297.415
297.558
297.546
297.535
297.524
297.512
297.5
297.489
297.478
297.466
297.455
297.444
297.432
297.421
297.41
297.398
297.387
297.376
297.365
297.352
297.499
297.486
297.474
297.461
297.448
297.435
297.423
297.41
297.398
297.385
297.372
297.36
297.347
297.334
297.322
297.309
297.296
297.282
297.432
297.418
297.404
297.39
297.376
297.362
297.347
297.333
297.319
297.305
297.291
297.277
297.263
297.249
297.235
297.22
297.204
297.371
297.356
297.34
297.325
297.309
297.293
297.278
297.262
297.246
297.23
297.215
297.199
297.183
297.167
297.152
297.135
297.118
297.287
297.27
297.252
297.235
297.217
297.2
297.183
297.165
297.148
297.13
297.113
297.095
297.078
297.061
297.042
297.023
297.191
297.172
297.153
297.134
297.114
297.095
297.076
297.057
297.037
297.018
296.999
296.98
296.961
296.94
296.92
297.084
297.062
297.041
297.02
296.999
296.978
296.957
296.936
296.915
296.894
296.873
296.853
296.83
296.808
296.964
296.94
296.917
296.894
296.871
296.849
296.826
296.803
296.781
296.759
296.737
296.713
296.691
296.831
296.806
296.781
296.757
296.732
296.708
296.684
296.661
296.638
296.615
296.59
296.568
296.686
296.66
296.634
296.608
296.583
296.559
296.534
296.512
296.489
296.463
296.444
296.531
296.504
296.479
296.453
296.428
296.405
296.383
296.361
296.337
296.322
296.344
296.32
296.297
296.276
296.256
296.235
296.218
296.211
296.187
296.167
296.149
296.133
296.119
296.112
296.114
296.042
296.03
296.022
296.02
296.026
296.038
295.93
295.941
295.961
295.987
295.958
298
298
298
298
298
298
298
298
298
298
298
298
298
298
298
297.997
297.997
297.997
297.997
297.997
297.997
297.997
297.997
297.997
297.997
297.997
297.997
297.997
297.997
297.997
297.995
297.995
297.995
297.995
297.995
297.995
297.995
297.995
297.995
297.995
297.995
297.995
297.995
297.995
297.995
297.994
297.994
297.994
297.994
297.994
297.994
297.994
297.994
297.994
297.994
297.994
297.994
297.994
297.994
297.994
297.992
297.992
297.992
297.992
297.992
297.992
297.992
297.992
297.992
297.992
297.992
297.992
297.992
297.992
297.992
297.991
297.991
297.991
297.991
297.991
297.991
297.991
297.991
297.991
297.991
297.991
297.991
297.991
297.991
297.991
297.989
297.989
297.989
297.989
297.989
297.989
297.989
297.989
297.989
297.989
297.989
297.989
297.989
297.989
297.989
297.988
297.988
297.988
297.988
297.988
297.988
297.988
297.988
297.988
297.988
297.988
297.988
297.988
297.988
297.988
297.986
297.986
297.986
297.986
297.986
297.986
297.986
297.986
297.986
297.986
297.986
297.986
297.986
297.986
297.986
297.985
297.985
297.985
297.985
297.985
297.985
297.985
297.985
297.985
297.985
297.985
297.985
297.985
297.985
297.985
297.983
297.983
297.983
297.983
297.983
297.983
297.983
297.983
297.983
297.983
297.983
297.983
297.983
297.983
297.983
297.982
297.982
297.982
297.982
297.982
297.982
297.982
297.982
297.982
297.982
297.982
297.982
297.982
297.982
297.982
297.98
297.98
297.98
297.98
297.98
297.98
297.98
297.98
297.98
297.98
297.98
297.98
297.98
297.98
297.98
297.979
297.979
297.979
297.979
297.979
297.979
297.979
297.979
297.979
297.979
297.979
297.979
297.979
297.979
297.979
297.977
297.977
297.977
297.977
297.977
297.977
297.977
297.977
297.977
297.977
297.977
297.977
297.977
297.977
297.977
297.975
297.975
297.975
297.975
297.975
297.975
297.975
297.975
297.975
297.975
297.975
297.975
297.975
297.975
297.975
297.974
297.974
297.974
297.973
297.973
297.973
297.973
297.973
297.973
297.973
297.973
297.973
297.973
297.973
297.973
297.972
297.972
297.972
297.972
297.972
297.972
297.972
297.972
297.972
297.972
297.972
297.972
297.972
297.971
297.971
297.97
297.97
297.97
297.97
297.97
297.97
297.97
297.97
297.97
297.97
297.97
297.969
297.969
297.969
297.969
297.967
297.967
297.967
297.967
297.967
297.967
297.967
297.967
297.967
297.967
297.967
297.967
297.967
297.967
297.967
297.965
297.965
297.965
297.965
297.965
297.965
297.965
297.965
297.965
297.965
297.965
297.965
297.965
297.965
297.965
297.963
297.963
297.963
297.963
297.963
297.963
297.963
297.963
297.963
297.963
297.963
297.963
297.963
297.963
297.963
297.96
297.96
297.96
297.96
297.96
297.96
297.96
297.96
297.96
297.96
297.96
297.96
297.96
297.96
297.96
297.957
297.957
297.957
297.957
297.957
297.957
297.957
297.957
297.957
297.957
297.957
297.957
297.957
297.957
297.957
297.954
297.954
297.954
297.954
297.954
297.954
297.954
297.954
297.954
297.954
297.954
297.954
297.954
297.954
297.954
297.951
297.951
297.951
297.951
297.951
297.951
297.951
297.951
297.951
297.951
297.951
297.951
297.951
297.951
297.951
297.947
297.947
297.947
297.947
297.947
297.947
297.947
297.947
297.947
297.947
297.947
297.947
297.947
297.947
297.947
297.943
297.943
297.943
297.943
297.943
297.943
297.943
297.943
297.943
297.943
297.943
297.943
297.943
297.943
297.943
297.939
297.939
297.939
297.939
297.939
297.939
297.939
297.939
297.939
297.939
297.939
297.939
297.939
297.938
297.938
297.934
297.934
297.934
297.934
297.934
297.934
297.934
297.934
297.934
297.934
297.934
297.934
297.934
297.934
297.934
297.929
297.929
297.929
297.929
297.929
297.929
297.929
297.929
297.929
297.929
297.929
297.929
297.929
297.928
297.928
297.923
297.923
297.923
297.923
297.923
297.923
297.923
297.923
297.923
297.923
297.923
297.923
297.923
297.923
297.923
297.917
297.917
297.917
297.917
297.917
297.917
297.917
297.917
297.917
297.917
297.917
297.917
297.917
297.917
297.917
297.91
297.91
297.91
297.91
297.91
297.91
297.91
297.91
297.91
297.91
297.91
297.91
297.91
297.91
297.91
297.903
297.903
297.903
297.903
297.903
297.903
297.903
297.903
297.903
297.903
297.902
297.902
297.902
297.902
297.902
297.895
297.895
297.895
297.895
297.895
297.895
297.895
297.895
297.895
297.894
297.894
297.894
297.894
297.894
297.894
297.886
297.886
297.886
297.886
297.886
297.886
297.886
297.886
297.886
297.886
297.886
297.886
297.886
297.886
297.885
297.877
297.877
297.877
297.876
297.876
297.876
297.876
297.876
297.876
297.876
297.876
297.876
297.876
297.876
297.876
297.866
297.866
297.866
297.866
297.866
297.866
297.866
297.866
297.866
297.866
297.866
297.866
297.866
297.866
297.866
297.855
297.855
297.855
297.855
297.855
297.855
297.855
297.855
297.855
297.855
297.854
297.854
297.854
297.854
297.854
297.843
297.843
297.843
297.843
297.843
297.843
297.843
297.842
297.842
297.842
297.842
297.842
297.842
297.842
297.842
297.83
297.83
297.83
297.829
297.829
297.829
297.829
297.829
297.829
297.829
297.829
297.829
297.829
297.829
297.829
297.815
297.815
297.815
297.815
297.815
297.815
297.815
297.815
297.815
297.815
297.814
297.814
297.814
297.814
297.814
297.8
297.8
297.799
297.799
297.799
297.799
297.799
297.799
297.799
297.799
297.799
297.799
297.799
297.798
297.798
297.782
297.782
297.782
297.782
297.782
297.782
297.782
297.782
297.782
297.782
297.781
297.781
297.781
297.781
297.781
297.764
297.764
297.763
297.763
297.763
297.763
297.763
297.763
297.763
297.763
297.763
297.763
297.762
297.762
297.762
297.743
297.743
297.743
297.743
297.743
297.742
297.742
297.742
297.742
297.742
297.742
297.742
297.742
297.742
297.741
297.72
297.72
297.72
297.72
297.72
297.72
297.719
297.719
297.719
297.719
297.719
297.719
297.719
297.719
297.718
297.695
297.695
297.695
297.694
297.694
297.694
297.694
297.694
297.694
297.694
297.694
297.693
297.693
297.693
297.693
297.667
297.667
297.666
297.666
297.666
297.666
297.666
297.666
297.666
297.665
297.665
297.665
297.665
297.665
297.665
297.635
297.635
297.635
297.635
297.635
297.634
297.634
297.634
297.634
297.634
297.634
297.634
297.634
297.633
297.633
297.6
297.6
297.6
297.599
297.599
297.599
297.599
297.599
297.599
297.599
297.599
297.598
297.598
297.598
297.598
297.561
297.56
297.56
297.56
297.56
297.56
297.56
297.559
297.559
297.559
297.559
297.559
297.559
297.559
297.559
297.516
297.516
297.516
297.516
297.516
297.515
297.515
297.515
297.515
297.515
297.515
297.515
297.515
297.514
297.514
297.466
297.466
297.466
297.466
297.466
297.466
297.465
297.465
297.465
297.465
297.465
297.465
297.465
297.465
297.465
297.41
297.41
297.41
297.41
297.41
297.41
297.409
297.409
297.409
297.409
297.409
297.409
297.409
297.409
297.409
297.348
297.347
297.347
297.347
297.347
297.347
297.347
297.346
297.346
297.346
297.346
297.346
297.346
297.346
297.346
297.277
297.277
297.277
297.277
297.276
297.276
297.276
297.276
297.276
297.276
297.276
297.277
297.277
297.277
297.277
297.199
297.199
297.198
297.198
297.198
297.198
297.198
297.198
297.199
297.199
297.199
297.2
297.2
297.2
297.201
297.112
297.112
297.112
297.112
297.112
297.112
297.112
297.113
297.113
297.114
297.114
297.115
297.115
297.116
297.117
297.017
297.017
297.017
297.017
297.017
297.017
297.018
297.019
297.02
297.02
297.021
297.022
297.023
297.024
297.025
296.913
296.913
296.913
296.913
296.914
296.915
296.916
296.917
296.918
296.92
296.921
296.922
296.923
296.925
296.926
296.802
296.802
296.802
296.803
296.804
296.805
296.807
296.809
296.81
296.812
296.814
296.815
296.817
296.819
296.821
296.685
296.685
296.685
296.687
296.689
296.69
296.693
296.695
296.697
296.699
296.701
296.704
296.706
296.708
296.71
296.563
296.564
296.565
296.567
296.57
296.572
296.575
296.577
296.58
296.583
296.586
296.589
296.592
296.594
296.597
296.44
296.441
296.443
296.446
296.449
296.452
296.455
296.459
296.462
296.466
296.47
296.473
296.477
296.48
296.484
296.321
296.322
296.325
296.328
296.332
296.336
296.34
296.344
296.349
296.353
296.357
296.362
296.366
296.371
296.375
296.211
296.213
296.217
296.221
296.225
296.23
296.235
296.24
296.245
296.25
296.255
296.26
296.265
296.27
296.276
296.117
296.12
296.124
296.129
296.134
296.14
296.145
296.151
296.157
296.162
296.168
296.174
296.18
296.185
296.191
296.044
296.049
296.054
296.059
296.065
296.071
296.077
296.083
296.09
296.096
296.102
296.108
296.114
296.12
296.126
295.997
296.003
296.008
296.015
296.021
296.028
296.035
296.041
296.048
296.054
296.06
296.067
296.073
296.079
296.085
295.974
295.98
295.986
295.993
296.001
296.008
296.016
296.023
296.03
296.037
296.044
296.05
296.057
296.063
296.069
296.014
296.021
296.028
296.036
296.043
296.05
296.057
296.064
296.071
296.078
296.085
296.091
298
298
298
298
298
297.997
297.997
297.997
297.997
297.997
297.995
297.995
297.995
297.995
297.995
297.994
297.994
297.994
297.994
297.994
297.992
297.992
297.992
297.992
297.992
297.991
297.991
297.991
297.991
297.991
297.989
297.989
297.989
297.989
297.989
297.988
297.988
297.988
297.988
297.988
297.986
297.986
297.986
297.986
297.986
297.985
297.985
297.985
297.985
297.985
297.983
297.983
297.983
297.983
297.983
297.982
297.982
297.982
297.982
297.982
297.98
297.98
297.98
297.98
297.98
297.979
297.979
297.979
297.979
297.979
297.977
297.977
297.977
297.977
297.977
297.975
297.975
297.975
297.975
297.975
297.973
297.973
297.973
297.973
297.973
297.971
297.971
297.971
297.971
297.971
297.969
297.969
297.969
297.969
297.969
297.967
297.967
297.967
297.967
297.967
297.965
297.965
297.965
297.965
297.965
297.963
297.962
297.962
297.962
297.962
297.96
297.96
297.96
297.96
297.96
297.957
297.957
297.957
297.957
297.957
297.954
297.954
297.954
297.954
297.954
297.951
297.95
297.95
297.95
297.95
297.947
297.947
297.947
297.947
297.947
297.943
297.943
297.943
297.943
297.943
297.938
297.938
297.938
297.938
297.938
297.934
297.934
297.933
297.933
297.933
297.928
297.928
297.928
297.928
297.928
297.923
297.923
297.922
297.922
297.922
297.916
297.916
297.916
297.916
297.916
297.91
297.91
297.909
297.909
297.909
297.902
297.902
297.902
297.902
297.902
297.894
297.894
297.894
297.894
297.894
297.885
297.885
297.885
297.885
297.885
297.876
297.876
297.875
297.875
297.875
297.865
297.865
297.865
297.865
297.865
297.854
297.854
297.854
297.853
297.853
297.842
297.842
297.841
297.841
297.841
297.828
297.828
297.828
297.828
297.827
297.814
297.814
297.813
297.813
297.813
297.798
297.798
297.798
297.797
297.797
297.781
297.781
297.78
297.78
297.78
297.762
297.762
297.761
297.761
297.761
297.741
297.741
297.74
297.74
297.74
297.718
297.718
297.717
297.717
297.717
297.693
297.692
297.692
297.692
297.691
297.665
297.664
297.664
297.663
297.663
297.633
297.633
297.632
297.632
297.631
297.598
297.597
297.597
297.597
297.596
297.558
297.558
297.558
297.557
297.557
297.514
297.514
297.514
297.513
297.513
297.464
297.464
297.464
297.464
297.464
297.409
297.409
297.409
297.409
297.41
297.347
297.347
297.348
297.349
297.349
297.278
297.279
297.28
297.281
297.282
297.202
297.204
297.205
297.207
297.209
297.118
297.121
297.124
297.126
297.129
297.027
297.031
297.035
297.038
297.042
296.929
296.934
296.939
296.944
296.949
296.825
296.832
296.838
296.845
296.851
296.716
296.724
296.733
296.741
296.75
296.604
296.615
296.626
296.637
296.647
296.493
296.506
296.52
296.533
296.545
296.386
296.402
296.418
296.433
296.449
296.288
296.307
296.325
296.343
296.36
296.204
296.225
296.245
296.265
296.284
296.14
296.162
296.183
296.204
296.224
296.1
296.122
296.143
296.163
296.183
296.083
296.104
296.124
296.143
296.162
296.086
296.108
296.128
296.145
296.162
296.106
296.129
296.149
296.166
296.18
296.158
296.175
296.191
296.204
296.203
296.204
296.207
296.273
296.233
298
298
298
298
298
298
298
298
298
298
298
298
298
298
298
298
298
298
298
298
298
298
298
298
298
298
298
298
298
298
298
298
298
298
298
298
298
298
298
298
298
298
298
298
298
298
298
298
298
298
298
298
298
298
298
297.999
297.999
297.999
297.999
297.999
297.999
297.999
297.999
297.999
297.999
297.999
297.999
297.999
297.999
297.999
297.999
297.999
297.999
297.999
297.999
298.001
298.004
298.007
298.01
298.01
297.997
297.997
297.997
297.997
297.997
297.997
297.997
297.997
297.997
297.997
297.997
297.997
297.997
297.997
297.997
297.997
297.997
297.997
297.997
297.997
297.997
297.997
297.997
297.997
297.997
297.997
297.997
297.996
297.996
297.996
297.996
297.996
297.996
297.996
297.996
297.996
297.996
297.996
297.996
297.996
297.996
297.996
297.996
297.996
297.996
297.996
297.996
297.996
297.996
297.996
297.996
297.996
297.996
297.996
297.996
297.996
297.996
297.996
297.996
297.996
297.996
297.996
297.996
297.996
297.996
297.996
297.996
297.996
297.996
297.997
297.997
297.997
297.997
297.997
297.997
297.998
298.001
298.005
298.009
298.01
297.995
297.995
297.995
297.995
297.995
297.995
297.995
297.995
297.995
297.995
297.995
297.995
297.995
297.995
297.995
297.995
297.995
297.995
297.995
297.995
297.995
297.995
297.995
297.995
297.995
297.995
297.995
297.995
297.995
297.995
297.995
297.995
297.995
297.995
297.995
297.995
297.995
297.995
297.995
297.995
297.995
297.995
297.995
297.995
297.995
297.995
297.995
297.995
297.995
297.995
297.995
297.995
297.995
297.994
297.994
297.994
297.994
297.994
297.994
297.994
297.994
297.994
297.994
297.994
297.994
297.994
297.994
297.995
297.995
297.995
297.995
297.995
297.995
297.995
297.996
297.997
298
298.004
298.008
298.01
297.994
297.993
297.993
297.993
297.993
297.993
297.993
297.993
297.993
297.993
297.993
297.993
297.993
297.993
297.993
297.993
297.993
297.993
297.993