/*--------------------------------*- C++ -*----------------------------------*\
  =========                 |
  \\      /  F ield         | OpenFOAM: The Open Source CFD Toolbox
   \\    /   O peration     | Website:  https://openfoam.org
    \\  /    A nd           | Version:  10
     \\/     M anipulation  |
\*---------------------------------------------------------------------------*/
FoamFile
{
    format      ascii;
    class       volScalarField;
    location    "0.001";
    object      alphat;
}
// * * * * * * * * * * * * * * * * * * * * * * * * * * * * * * * * * * * * * //

dimensions      [1 -1 -1 0 0 0 0];

internalField   nonuniform List<scalar> 
8915
(
8.15092e-09
8.09241e-09
8.07768e-09
8.07054e-09
1.49071e-08
1.50908e-08
1.5101e-08
8.05153e-09
8.0745e-09
8.09363e-09
1.46826e-08
8.12868e-09
8.15427e-09
8.17603e-09
1.45203e-08
8.23469e-09
1.44521e-08
8.30018e-09
8.33503e-09
8.36479e-09
1.42828e-08
8.40993e-09
8.41104e-09
8.39029e-09
1.38262e-08
1.38181e-08
1.36393e-08
1.34297e-08
1.32442e-08
7.86028e-09
7.69282e-09
7.50364e-09
7.29599e-09
7.07252e-09
6.83542e-09
1.07255e-08
1.04348e-08
6.08876e-09
5.83426e-09
9.02628e-09
8.65599e-09
8.20806e-09
7.75019e-09
7.28488e-09
6.81412e-09
6.32387e-09
5.79408e-09
4.45736e-09
3.97685e-09
3.66577e-09
3.36949e-09
3.08113e-09
2.80197e-09
2.53532e-09
2.27493e-09
2.03063e-09
1.79599e-09
1.58331e-09
1.38174e-09
1.20058e-09
1.03015e-09
8.79996e-10
7.43218e-10
6.26384e-10
5.22072e-10
4.2931e-10
3.49529e-10
2.91927e-10
2.40373e-10
2.14145e-10
1.9727e-10
1.84775e-10
1.73706e-10
1.66257e-10
1.64533e-10
1.70484e-10
1.84027e-10
2.01382e-10
2.17151e-10
2.16858e-10
1.86226e-10
1.33142e-10
1.99128e-10
2.9974e-10
3.9079e-10
4.49686e-10
5.49068e-10
9.14911e-10
1.68219e-09
2.82618e-09
3.19789e-09
4.55974e-09
6.62316e-09
1.02441e-08
1.40577e-08
2.22682e-08
3.20609e-08
4.03158e-08
4.73614e-08
5.37489e-08
5.92944e-08
6.46845e-08
7.01119e-08
7.60266e-08
8.29321e-08
9.09814e-08
9.98374e-08
1.09147e-07
1.1879e-07
1.2887e-07
1.39566e-07
1.50965e-07
1.63061e-07
1.75813e-07
1.89152e-07
2.03034e-07
2.17424e-07
2.3231e-07
2.47675e-07
2.63559e-07
2.79965e-07
2.96886e-07
3.14302e-07
3.32158e-07
3.50375e-07
3.68921e-07
3.88118e-07
4.08493e-07
2.02965e-06
2.02321e-06
2.03879e-06
2.05709e-06
2.15507e-06
2.17082e-06
2.1897e-06
2.12796e-06
2.152e-06
2.17824e-06
2.2924e-06
2.23174e-06
2.25743e-06
2.28675e-06
2.40726e-06
2.35384e-06
2.47383e-06
2.42221e-06
2.45485e-06
2.48981e-06
2.61168e-06
2.55651e-06
2.57623e-06
2.59023e-06
2.68023e-06
2.67927e-06
2.66609e-06
2.64295e-06
2.60831e-06
2.48286e-06
2.42636e-06
2.36043e-06
2.2868e-06
2.20605e-06
2.12095e-06
2.09805e-06
2.00812e-06
1.85777e-06
1.77234e-06
1.74622e-06
1.666e-06
1.58452e-06
1.50229e-06
1.41906e-06
1.33488e-06
1.2508e-06
1.16832e-06
1.07835e-06
1.00107e-06
9.28961e-07
8.59453e-07
7.92478e-07
7.28368e-07
6.67327e-07
6.08234e-07
5.52267e-07
4.99069e-07
4.51011e-07
4.05454e-07
3.63449e-07
3.22996e-07
2.85525e-07
2.50184e-07
2.18085e-07
1.86825e-07
1.56042e-07
1.27601e-07
1.04035e-07
8.36659e-08
6.71446e-08
5.40244e-08
4.40003e-08
3.61171e-08
3.06774e-08
2.72138e-08
2.56853e-08
2.56991e-08
2.69466e-08
2.98296e-08
3.3319e-08
3.64151e-08
3.80496e-08
3.9829e-08
4.15741e-08
4.21256e-08
4.42766e-08
5.53723e-08
1.11811e-07
2.43885e-07
5.77286e-07
1.25181e-06
2.38824e-06
3.50207e-06
5.38441e-06
6.79179e-06
7.63743e-06
8.25336e-06
8.72963e-06
9.14317e-06
9.52064e-06
9.88622e-06
1.02487e-05
1.06206e-05
1.10748e-05
1.16517e-05
1.23692e-05
1.32007e-05
1.41376e-05
1.51933e-05
1.63793e-05
1.76678e-05
1.90481e-05
2.04945e-05
2.19858e-05
2.35146e-05
2.50762e-05
2.66505e-05
2.824e-05
2.98503e-05
3.14701e-05
3.31007e-05
3.47499e-05
3.64125e-05
3.80656e-05
3.97051e-05
4.13305e-05
4.29391e-05
4.45833e-05
3.38449e-05
3.37887e-05
3.39974e-05
3.42441e-05
3.45088e-05
3.46759e-05
3.4913e-05
3.51448e-05
3.54896e-05
3.58339e-05
3.62908e-05
3.64988e-05
3.68541e-05
3.72326e-05
3.77587e-05
3.80602e-05
3.85967e-05
3.89154e-05
3.93438e-05
3.97807e-05
4.03102e-05
4.05764e-05
4.08389e-05
4.10147e-05
4.11845e-05
4.11611e-05
4.10155e-05
4.07526e-05
4.03424e-05
3.96963e-05
3.90187e-05
3.81974e-05
3.72691e-05
3.62362e-05
3.51346e-05
3.40628e-05
3.28695e-05
3.15909e-05
3.04229e-05
2.93781e-05
2.82595e-05
2.7121e-05
2.59557e-05
2.47572e-05
2.35242e-05
2.22718e-05
2.10262e-05
1.97951e-05
1.8598e-05
1.7428e-05
1.62793e-05
1.51536e-05
1.40588e-05
1.2998e-05
1.19566e-05
1.09521e-05
9.9843e-06
9.09532e-06
8.2436e-06
7.44512e-06
6.66776e-06
5.93528e-06
5.23662e-06
4.59381e-06
3.95947e-06
3.32497e-06
2.73041e-06
2.2309e-06
1.79657e-06
1.4378e-06
1.14111e-06
9.08766e-07
7.29175e-07
6.06156e-07
5.27392e-07
4.9019e-07
4.85433e-07
5.07148e-07
5.65578e-07
6.41472e-07
7.18148e-07
7.71591e-07
7.80582e-07
7.86628e-07
7.75071e-07
7.78294e-07
9.98958e-07
2.13099e-06
4.84614e-06
1.13217e-05
2.29231e-05
3.80595e-05
5.00487e-05
6.73e-05
7.82621e-05
8.48336e-05
8.92292e-05
9.24599e-05
9.51092e-05
9.74113e-05
9.95047e-05
0.000101525
0.000103475
0.000105423
0.000107424
0.000109508
0.000111572
0.000113576
0.000115554
0.000117541
0.000119563
0.000121641
0.000123721
0.00012576
0.000127746
0.000129651
0.000131471
0.000133243
0.000134989
0.000136719
0.000138469
0.000140253
0.000142048
0.000143822
0.000145564
0.000147259
0.00014889
0.0001505
7.16238e-05
7.14491e-05
7.17711e-05
7.21852e-05
7.24448e-05
7.27398e-05
7.31838e-05
7.38477e-05
7.45308e-05
7.5221e-05
7.59275e-05
7.6593e-05
7.73593e-05
7.81765e-05
7.90873e-05
7.99994e-05
8.09928e-05
8.19921e-05
8.30536e-05
8.41613e-05
8.53048e-05
8.63919e-05
8.73679e-05
8.82392e-05
8.9002e-05
8.96538e-05
9.01777e-05
9.05597e-05
9.07514e-05
9.07467e-05
9.0574e-05
9.01788e-05
8.96013e-05
8.8841e-05
8.79252e-05
8.68601e-05
8.56366e-05
8.42799e-05
8.27982e-05
8.11727e-05
7.93518e-05
7.73485e-05
7.51933e-05
7.28975e-05
7.04666e-05
6.79306e-05
6.53338e-05
6.26872e-05
6.00093e-05
5.7313e-05
5.4593e-05
5.18511e-05
4.91108e-05
4.63702e-05
4.36024e-05
4.08378e-05
3.8094e-05
3.54899e-05
3.29255e-05
3.0432e-05
2.79266e-05
2.54685e-05
2.30424e-05
2.07289e-05
1.83454e-05
1.58421e-05
1.33861e-05
1.12316e-05
9.28804e-06
7.61531e-06
6.17911e-06
4.9888e-06
4.04878e-06
3.39192e-06
2.96702e-06
2.76619e-06
2.7443e-06
2.86992e-06
3.20106e-06
3.63144e-06
4.07234e-06
4.38309e-06
4.41492e-06
4.43619e-06
4.39001e-06
4.41525e-06
5.58946e-06
1.14629e-05
2.43906e-05
4.95861e-05
8.33776e-05
0.000117189
0.000137454
0.000150588
0.000159025
0.000164366
0.000167976
0.000170671
0.000172998
0.000175127
0.000177154
0.000179236
0.000181313
0.000183412
0.00018563
0.000187971
0.000190292
0.000192521
0.00019471
0.00019691
0.000199182
0.000201549
0.000203943
0.000206296
0.000208574
0.00021074
0.000212795
0.000214787
0.000216751
0.000218714
0.000220737
0.000222833
0.000224978
0.000227127
0.000229253
0.000231319
0.000233294
0.000235217
0.000106343
0.000105973
0.000106311
0.00010679
0.000107035
0.000107397
0.000107979
0.000108923
0.000109866
0.000110835
0.000111814
0.000112812
0.000113939
0.000115146
0.000116474
0.000117879
0.000119366
0.000120938
0.000122601
0.000124355
0.000126175
0.00012801
0.000129723
0.000131339
0.000132847
0.000134278
0.000135606
0.0001368
0.000137803
0.000138622
0.000139248
0.00013963
0.000139805
0.00013978
0.000139573
0.000139173
0.000138606
0.000137902
0.000137028
0.000135936
0.000134592
0.000133009
0.00013121
0.000129196
0.000126942
0.00012444
0.000121697
0.000118684
0.000115416
0.000111947
0.000108312
0.000104546
0.000100708
9.67852e-05
9.27477e-05
8.86121e-05
8.44216e-05
8.02494e-05
7.60312e-05
7.1799e-05
6.74292e-05
6.29796e-05
5.8443e-05
5.3966e-05
4.91489e-05
4.38207e-05
3.83143e-05
3.32305e-05
2.84255e-05
2.40682e-05
2.01535e-05
1.67283e-05
1.3869e-05
1.17939e-05
1.04241e-05
9.77285e-06
9.71492e-06
1.0146e-05
1.12462e-05
1.26576e-05
1.40859e-05
1.50305e-05
1.51138e-05
1.51945e-05
1.51604e-05
1.53357e-05
1.8937e-05
3.57788e-05
6.69431e-05
0.000113516
0.000163831
0.000195049
0.000211947
0.000223126
0.000230698
0.000235685
0.000239076
0.00024162
0.000243922
0.000246124
0.000248284
0.000250612
0.00025297
0.000255334
0.000257865
0.00026057
0.000263264
0.000265836
0.00026836
0.000270907
0.00027358
0.00027641
0.000279316
0.000282194
0.000284985
0.000287636
0.000290152
0.000292596
0.00029502
0.000297481
0.00030007
0.000302816
0.000305696
0.000308647
0.000311615
0.000314533
0.000317352
0.000320086
0.000136953
0.00013634
0.000136646
0.000137115
0.000137278
0.000137646
0.000138305
0.00013945
0.000140577
0.00014176
0.000142972
0.000144221
0.000145649
0.000147185
0.00014889
0.000150703
0.000152637
0.000154691
0.000156884
0.00015921
0.000161651
0.000164138
0.000166511
0.000168801
0.000171006
0.000173157
0.000175231
0.00017719
0.000178965
0.000180564
0.000181982
0.000183151
0.000184111
0.000184877
0.000185464
0.000185865
0.000186106
0.000186223
0.00018619
0.00018594
0.000185413
0.00018465
0.000183673
0.000182478
0.000181031
0.0001793
0.000177267
0.000174859
0.000172077
0.000168967
0.000165541
0.000161808
0.000157814
0.000153543
0.000148997
0.000144217
0.00013931
0.000134319
0.000129219
0.000124013
0.00011856
0.000112878
0.000106967
0.000100875
9.41075e-05
8.63132e-05
7.79085e-05
6.97982e-05
6.17995e-05
5.41624e-05
4.69822e-05
4.03393e-05
3.44942e-05
3.00158e-05
2.69381e-05
2.54513e-05
2.53351e-05
2.63671e-05
2.88164e-05
3.191e-05
3.48838e-05
3.67869e-05
3.69519e-05
3.71995e-05
3.74342e-05
3.80917e-05
4.55179e-05
7.71444e-05
0.000125415
0.000186296
0.000236884
0.000262077
0.000276938
0.000287695
0.000295568
0.000301032
0.000304838
0.000307726
0.000310437
0.000313119
0.00031577
0.000318714
0.000321716
0.000324679
0.000327859
0.000331314
0.00033479
0.00033811
0.000341362
0.000344647
0.000348137
0.000351906
0.000355865
0.000359862
0.000363796
0.000367588
0.000371247
0.000374854
0.000378494
0.000382273
0.000386357
0.000390815
0.000395658
0.000400811
0.00040618
0.000411653
0.000417152
0.000422672
0.000163939
0.000163066
0.000163335
0.00016374
0.000163728
0.000164049
0.000164738
0.000166052
0.000167304
0.000168646
0.000170045
0.00017149
0.00017318
0.000174997
0.000177041
0.000179211
0.000181549
0.000184037
0.00018671
0.000189559
0.000192569
0.000195654
0.000198626
0.000201533
0.000204377
0.000207191
0.000209955
0.000212621
0.000215112
0.000217436
0.000219596
0.000221503
0.000223206
0.000224726
0.000226079
0.000227262
0.000228301
0.000229238
0.000230058
0.000230683
0.000231024
0.000231151
0.000231092
0.000230848
0.000230379
0.000229643
0.000228607
0.000227159
0.000225296
0.000223065
0.000220461
0.000217475
0.000214117
0.00021034
0.000206075
0.000201357
0.000196321
0.000191033
0.000185546
0.000179866
0.000173888
0.000167577
0.000160969
0.000154041
0.000146208
0.00013696
0.000126724
0.000116456
0.000106054
9.57467e-05
8.57213e-05
7.60325e-05
6.71041e-05
5.99362e-05
5.4832e-05
5.2294e-05
5.20866e-05
5.3827e-05
5.77472e-05
6.26433e-05
6.71737e-05
6.9996e-05
7.02359e-05
7.07784e-05
7.1706e-05
7.32991e-05
8.47516e-05
0.000129404
0.000189415
0.000259349
0.000300992
0.00032217
0.000336272
0.000347601
0.000356607
0.000363257
0.000368089
0.000371845
0.000375481
0.000379193
0.000382852
0.000386996
0.000391285
0.000395469
0.000399961
0.000404956
0.000410096
0.00041508
0.000420013
0.000425043
0.000430478
0.000436505
0.000443068
0.000449953
0.000456981
0.00046402
0.000471053
0.000478139
0.000485315
0.000492631
0.000500191
0.000507938
0.000515845
0.000523876
0.000532011
0.000540202
0.000548411
0.000556659
0.000189548
0.000189247
0.000189101
0.000188458
0.000188342
0.000188777
0.000190013
0.000191134
0.000192396
0.000193813
0.000195403
0.000197329
0.000199393
0.000201748
0.000204246
0.000206957
0.000209851
0.000212977
0.000216321
0.000219873
0.000223529
0.00022706
0.00023055
0.000233996
0.000237441
0.00024086
0.000244201
0.00024737
0.000250386
0.000253256
0.000255865
0.000258276
0.000260518
0.000262607
0.00026454
0.00026635
0.000268085
0.000269738
0.000271218
0.000272408
0.000273415
0.000274274
0.000274989
0.000275523
0.000275828
0.000275861
0.000275475
0.00027467
0.000273503
0.000271965
0.000270039
0.000267713
0.000264933
0.000261533
0.000257545
0.000253057
0.000248099
0.000242708
0.000236901
0.000230651
0.000223941
0.00021689
0.000209447
0.000200958
0.00019079
0.000179408
0.000167806
0.000155936
0.00014395
0.000131986
0.000120114
0.000108828
9.94495e-05
9.25824e-05
8.90723e-05
8.87179e-05
9.09582e-05
9.59353e-05
0.000102141
0.000107727
0.000111123
0.00011137
0.000112275
0.000114263
0.000117161
0.000131739
0.000186335
0.00025543
0.000325596
0.000359529
0.000378117
0.000392366
0.000405034
0.000415911
0.000424482
0.000431058
0.00043635
0.000441646
0.00044728
0.000452862
0.000459341
0.000466281
0.000473141
0.000480617
0.000489234
0.000498487
0.000507758
0.00051706
0.000526354
0.000535833
0.000545589
0.000555586
0.000565722
0.000575922
0.000586115
0.000596329
0.000606626
0.00061702
0.000627556
0.000638369
0.000649311
0.000660344
0.00067146
0.000682667
0.000693924
0.000705209
0.000716554
0.000229133
0.000224993
0.000221481
0.000218158
0.000216004
0.000215192
0.000215567
0.000215913
0.000216531
0.000217511
0.000218843
0.000220639
0.00022263
0.000225008
0.000227571
0.000230412
0.000233491
0.000236863
0.000240511
0.00024442
0.000248499
0.000252557
0.000256607
0.000260632
0.000264691
0.000268748
0.000272747
0.000276572
0.000280262
0.000283827
0.000287115
0.000290217
0.000293161
0.00029597
0.000298638
0.000301205
0.000303728
0.000306202
0.000308522
0.000310544
0.000312413
0.000314177
0.000315842
0.000317373
0.000318717
0.00031983
0.000320526
0.000320815
0.000320769
0.00032038
0.000319633
0.000318508
0.000316953
0.000314718
0.000311848
0.000308399
0.000304386
0.00029977
0.000294514
0.000288503
0.0002817
0.000274353
0.000266477
0.000257401
0.000246412
0.000234047
0.000221375
0.000208405
0.000195213
0.000181943
0.000168633
0.000155808
0.00014484
0.000136646
0.000132344
0.000131764
0.000134193
0.000139658
0.000146557
0.000152649
0.000156256
0.000156399
0.000157669
0.000160972
0.000165428
0.000182271
0.000245157
0.000323156
0.000386792
0.000414647
0.000431628
0.000446776
0.00046149
0.000475022
0.000486399
0.000495703
0.000503553
0.000511786
0.000521139
0.00053078
0.000542527
0.000555883
0.000569201
0.000582515
0.000596063
0.000609642
0.000622957
0.000636241
0.000649381
0.000662577
0.000675911
0.000689389
0.000702976
0.000716608
0.00073022
0.000743883
0.00075766
0.000771517
0.000785529
0.000799938
0.000814478
0.000829094
0.000843814
0.000858652
0.000873547
0.000888483
0.000903513
0.000285374
0.0002781
0.00027158
0.000265472
0.00026022
0.000255957
0.000252619
0.000249764
0.000247737
0.000246831
0.000246799
0.000247532
0.000248714
0.00025049
0.000252596
0.000255107
0.000257976
0.000261245
0.000264888
0.000268874
0.00027311
0.000277411
0.000281757
0.000286111
0.00029055
0.000295023
0.000299463
0.000303729
0.000307885
0.000311947
0.000315837
0.000319618
0.000323259
0.000326783
0.000330181
0.000333504
0.000336817
0.000340114
0.000343274
0.000346117
0.000348843
0.000351509
0.000354123
0.000356648
0.00035903
0.000361225
0.000363003
0.00036439
0.00036548
0.000366267
0.000366741
0.000366881
0.000366645
0.000365702
0.000364125
0.000361961
0.000359231
0.000355844
0.000351744
0.000346689
0.000340563
0.000333554
0.000325628
0.000316087
0.000304242
0.000290821
0.000277027
0.00026295
0.000248594
0.000234155
0.000219621
0.000205602
0.000193409
0.000184181
0.000179208
0.000178318
0.00018066
0.000186189
0.000193365
0.00019963
0.000203256
0.000203199
0.000204815
0.000209679
0.000215958
0.000234553
0.000306216
0.000387897
0.000444658
0.000467661
0.000483862
0.000500647
0.000518152
0.000535244
0.000550596
0.000564161
0.000576484
0.000590547
0.000608494
0.000627744
0.000647283
0.000666872
0.000685876
0.000704368
0.000722614
0.000740583
0.000758066
0.000775497
0.000792654
0.000809801
0.000827022
0.000844369
0.000861878
0.000879453
0.000896979
0.0009146
0.00093239
0.000950215
0.000968182
0.000986477
0.00100487
0.00102332
0.00104193
0.00106072
0.00107956
0.00109844
0.00111747
0.00035557
0.000345738
0.000336699
0.000328186
0.000320384
0.000313436
0.000307127
0.000301346
0.000296161
0.000291838
0.000288337
0.000285865
0.00028447
0.00028418
0.000284652
0.000285847
0.0002877
0.000290178
0.000293235
0.000296791
0.000300727
0.000304835
0.00030907
0.000313379
0.000317852
0.000322428
0.000327005
0.000331418
0.000335761
0.000340061
0.00034428
0.00034847
0.00035255
0.000356542
0.000360432
0.000364283
0.000368166
0.000372071
0.000375912
0.000379569
0.000383156
0.000386733
0.000390305
0.000393832
0.00039726
0.000400549
0.000403412
0.0004059
0.000408134
0.000410111
0.000411823
0.000413255
0.000414377
0.000414777
0.000414562
0.00041379
0.000412492
0.000410553
0.000407918
0.000404243
0.00039937
0.000393451
0.000386362
0.000377112
0.000364808
0.000350436
0.00033548
0.000320183
0.000304526
0.000288806
0.000272959
0.000257717
0.000244329
0.000234082
0.000228406
0.000227101
0.000229178
0.000234532
0.00024177
0.000248023
0.000251534
0.000251193
0.000253183
0.000259867
0.000268325
0.000288457
0.000370544
0.000449631
0.000500278
0.00051947
0.000535737
0.000554978
0.000576092
0.000597836
0.000618824
0.00063948
0.000661237
0.000688888
0.00071716
0.000744734
0.000771263
0.000796973
0.00082165
0.000845418
0.000868654
0.000891449
0.000913523
0.0009356
0.000957234
0.000978839
0.00100048
0.00102201
0.00104368
0.00106547
0.00108714
0.00110897
0.00113107
0.00115311
0.0011753
0.00119791
0.00122059
0.00124331
0.00126627
0.0012895
0.00131276
0.00133606
0.00135959
0.000437025
0.000424954
0.0004137
0.000403049
0.000393106
0.000384014
0.000375392
0.000367292
0.000359668
0.000352747
0.000346456
0.000340963
0.000336372
0.000332746
0.000330067
0.000328506
0.000328103
0.000328743
0.000330331
0.000332705
0.000335671
0.000338968
0.000342511
0.000346242
0.000350255
0.000354484
0.00035876
0.000362896
0.000367021
0.000371182
0.000375362
0.000379599
0.00038378
0.00038791
0.000391984
0.000396073
0.000400251
0.000404506
0.000408762
0.00041294
0.000417114
0.000421337
0.000425608
0.000429882
0.000434099
0.000438225
0.000442084
0.00044568
0.000449075
0.000452258
0.000455228
0.000457974
0.000460482
0.000462247
0.000463422
0.000464089
0.000464288
0.000463894
0.00046286
0.000460759
0.000457403
0.000452965
0.000447282
0.000439028
0.000426954
0.000412222
0.000396614
0.000380438
0.000363626
0.000346597
0.000329298
0.000312653
0.000297946
0.000286531
0.000280019
0.000278166
0.000279829
0.000284844
0.000292004
0.000298101
0.000301356
0.000300594
0.000302996
0.000311699
0.000322791
0.000344471
0.000435067
0.000509256
0.000554363
0.000570786
0.000588105
0.000610777
0.000636411
0.000664138
0.000693429
0.000728539
0.000767472
0.000807134
0.000844934
0.000880597
0.00091416
0.000946399
0.000977215
0.00100675
0.00103554
0.00106353
0.00109083
0.00111797
0.00114461
0.00117115
0.00119768
0.00122403
0.00125049
0.00127709
0.00130358
0.00133024
0.00135719
0.00138413
0.00141121
0.00143871
0.00146635
0.00149406
0.00152201
0.00155029
0.00157865
0.00160708
0.00163574
0.000513799
0.000500467
0.000487783
0.000475914
0.000464957
0.000454391
0.000444332
0.000434732
0.000425783
0.000417372
0.00040965
0.000402683
0.000396396
0.000390712
0.000385945
0.000382431
0.000380307
0.000379584
0.000380058
0.000381422
0.000383327
0.00038563
0.000388269
0.00039135
0.000394798
0.000398327
0.000401726
0.000405182
0.000408775
0.000412493
0.000416353
0.000420227
0.000424088
0.000427957
0.000431914
0.000436033
0.000440303
0.000444637
0.00044899
0.000453421
0.000457978
0.000462652
0.000467386
0.000472112
0.000476802
0.000481349
0.000485736
0.000489981
0.00049406
0.000497976
0.000501722
0.000505295
0.000508353
0.000510937
0.000513078
0.000514809
0.00051601
0.000516642
0.000516202
0.000514469
0.000511681
0.00050766
0.000500734
0.000489209
0.000474426
0.000458535
0.000441904
0.000424452
0.000406641
0.000388399
0.000370674
0.00035478
0.000342129
0.000334645
0.000332109
0.000333216
0.00033773
0.000344658
0.000350433
0.000353238
0.000351866
0.000354643
0.000365603
0.00037984
0.000403171
0.000497946
0.000567618
0.000607613
0.000622477
0.000642168
0.000669674
0.000701188
0.000737524
0.000785894
0.000841717
0.000896186
0.000947793
0.000995703
0.00104027
0.00108176
0.00112101
0.00115842
0.00119424
0.00122909
0.00126295
0.00129603
0.00132881
0.00136106
0.00139312
0.00142513
0.00145695
0.00148883
0.00152085
0.00155282
0.00158493
0.00161735
0.00164983
0.00168244
0.00171547
0.0017487
0.00178207
0.00181568
0.00184965
0.00188378
0.00191799
0.00195244
0.000611265
0.00059586
0.000581153
0.000567444
0.000554741
0.000542396
0.000530531
0.000519189
0.000508502
0.00049833
0.000488857
0.000480097
0.000471864
0.000463917
0.000456592
0.000450231
0.00044514
0.00044161
0.000439649
0.000438931
0.000439006
0.000439679
0.000440885
0.000442754
0.000445194
0.000447726
0.000450095
0.000452594
0.000455337
0.000458305
0.000461492
0.000464751
0.00046801
0.000471342
0.000474836
0.000478564
0.000482524
0.000486593
0.000490765
0.000495105
0.00049966
0.000504413
0.00050929
0.000514213
0.000519159
0.00052407
0.000528919
0.000533693
0.000538352
0.000542901
0.000547342
0.000551677
0.000555664
0.000559276
0.00056251
0.000565387
0.000567791
0.000569674
0.000570679
0.000570611
0.000569549
0.000567313
0.000561855
0.000550976
0.000536224
0.00052015
0.00050319
0.000485243
0.000466833
0.000447904
0.000429434
0.000412776
0.000399827
0.000392203
0.000389656
0.000390724
0.000394895
0.000401572
0.000406975
0.000409233
0.000407119
0.000410261
0.000424011
0.000442372
0.00046788
0.000563441
0.00062704
0.000661684
0.000676224
0.000700085
0.000734631
0.000774547
0.000830239
0.000905521
0.000981154
0.0010513
0.00111573
0.00117425
0.00122805
0.00127796
0.00132486
0.00136955
0.00141234
0.0014539
0.00149432
0.00153382
0.0015729
0.0016114
0.00164962
0.00168775
0.00172569
0.00176363
0.00180172
0.00183981
0.00187802
0.00191654
0.00195522
0.00199401
0.00203322
0.00207272
0.00211241
0.00215235
0.00219268
0.00223324
0.00227391
0.00231477
0.000721106
0.000702634
0.000684991
0.000668484
0.000653115
0.000638603
0.000624944
0.000611961
0.000599661
0.000587891
0.000576914
0.000566678
0.000556913
0.000547171
0.000537902
0.000529353
0.000521788
0.000515551
0.000510913
0.000507697
0.00050548
0.000504122
0.000503568
0.000504027
0.000505363
0.000506796
0.000507984
0.000509419
0.000511232
0.00051338
0.000515831
0.000518394
0.00052094
0.000523614
0.000526518
0.00052972
0.000533227
0.000536849
0.000540628
0.000544658
0.000548987
0.000553591
0.000558373
0.000563241
0.000568186
0.000573186
0.00057821
0.00058322
0.000588158
0.000593043
0.000597886
0.000602691
0.000607274
0.00061157
0.000615554
0.000619235
0.000622504
0.000625295
0.000627341
0.000628463
0.000628656
0.000627727
0.00062347
0.000613412
0.000599177
0.000583487
0.000566836
0.000549116
0.000530884
0.000512096
0.000493734
0.00047714
0.000464423
0.000457
0.000454607
0.000455688
0.000459433
0.000465675
0.00047048
0.000471855
0.00046865
0.000471912
0.000488975
0.000512696
0.000541189
0.000633639
0.000688941
0.000718019
0.00073365
0.000764104
0.000808979
0.00086166
0.000952161
0.00105358
0.00114977
0.00123607
0.0013136
0.00138337
0.00144719
0.00150627
0.00156165
0.00161438
0.0016649
0.00171391
0.00176163
0.00180824
0.0018543
0.00189975
0.0019448
0.00198972
0.00203445
0.00207913
0.00212397
0.00216886
0.00221383
0.00225914
0.00230468
0.00235034
0.0023964
0.00244282
0.00248946
0.00253633
0.00258356
0.00263104
0.00267858
0.00272614
0.000848593
0.000826443
0.000805209
0.000785242
0.000766589
0.000749092
0.0007327
0.000717155
0.00070233
0.000688093
0.000674763
0.000662259
0.000650483
0.000639129
0.000628264
0.000618005
0.000608549
0.000600133
0.000593055
0.000587156
0.000582145
0.000578193
0.000575365
0.000574085
0.000574172
0.000574362
0.00057417
0.00057446
0.00057533
0.000576678
0.000578464
0.000580393
0.000582272
0.000584347
0.000586734
0.000589494
0.000592634
0.000595848
0.000599252
0.00060298
0.000607085
0.000611531
0.00061619
0.000620946
0.000625814
0.0006308
0.000635875
0.000640977
0.000646029
0.000651068
0.000656121
0.000661196
0.000666138
0.000670859
0.000675325
0.000679542
0.000683403
0.000686825
0.000689593
0.000691545
0.000692622
0.000692641
0.00068946
0.000680586
0.000667545
0.000652964
0.000637363
0.000620629
0.000603303
0.000585329
0.000567639
0.000551529
0.000539211
0.000532048
0.000529755
0.000530715
0.00053381
0.000539241
0.000543015
0.000542912
0.000538029
0.000540909
0.000561761
0.000592353
0.000625086
0.000709491
0.000754119
0.000777746
0.000796333
0.000836534
0.000896159
0.000975734
0.00110356
0.00123238
0.00134947
0.00145245
0.00154401
0.00162607
0.0017009
0.0017701
0.00183485
0.00189647
0.00195554
0.00201279
0.00206858
0.00212306
0.00217685
0.00222996
0.00228256
0.002335
0.00238724
0.00243936
0.00249164
0.002544
0.00259641
0.00264913
0.00270214
0.00275519
0.00280856
0.00286227
0.00291614
0.00297006
0.00302416
0.00307834
0.00313235
0.00318606
0.00323948
0.000995861
0.000969738
0.000944551
0.000920776
0.000898481
0.00087757
0.000857975
0.000839397
0.000821475
0.000804197
0.000787949
0.000772617
0.000758182
0.000744405
0.00073118
0.000718532
0.000706646
0.000695681
0.00068579
0.000676932
0.000668821
0.000661622
0.000655761
0.000652197
0.000650719
0.000649345
0.000647374
0.000646329
0.000646184
0.000646716
0.000647903
0.000649266
0.000650533
0.000652111
0.000654126
0.000656626
0.000659612
0.000662582
0.000665777
0.000669379
0.000673447
0.000677925
0.000682636
0.00068743
0.000692358
0.000697451
0.000702678
0.00070795
0.000713163
0.000718383
0.000723657
0.000728996
0.000734254
0.000739325
0.000744176
0.000748819
0.00075315
0.000757064
0.000760374
0.000762944
0.000764684
0.000765416
0.000763295
0.000756042
0.000744891
0.000732117
0.000718228
0.00070311
0.000687242
0.000670552
0.000653876
0.000638457
0.000626572
0.000619624
0.00061732
0.000617951
0.000620066
0.000624104
0.000626185
0.000623737
0.000616347
0.000618036
0.000643037
0.000682312
0.000721211
0.000791234
0.000822924
0.000841702
0.000865713
0.000919565
0.000997973
0.00112041
0.00128604
0.00144308
0.00158202
0.00170296
0.00180987
0.00190546
0.00199248
0.00207286
0.00214797
0.00221938
0.00228788
0.00235423
0.0024189
0.00248205
0.00254433
0.00260586
0.00266676
0.0027274
0.0027878
0.00284798
0.00290823
0.00296853
0.00302873
0.00308911
0.00314969
0.00321011
0.0032706
0.00333122
0.00339176
0.00345201
0.0035121
0.00357194
0.00363123
0.00368981
0.0037476
0.00113293
0.00110361
0.00107588
0.00104982
0.00102536
0.00100236
0.000980577
0.000959315
0.000938765
0.00091933
0.000900893
0.000883475
0.000866854
0.00085082
0.000835343
0.000820646
0.000806851
0.000794026
0.000782166
0.000770906
0.000760396
0.000750914
0.000742961
0.00073665
0.00073125
0.000726734
0.00072403
0.000722674
0.000722272
0.000722871
0.000723663
0.000724286
0.000725423
0.000727183
0.000729597
0.00073266
0.000735549
0.000738727
0.000742428
0.000746713
0.000751498
0.00075653
0.000761613
0.00076686
0.000772322
0.00077796
0.000783653
0.000789254
0.000794872
0.000800576
0.000806378
0.000812124
0.000817685
0.000823043
0.000828216
0.000833103
0.000837573
0.000841451
0.000844634
0.000847016
0.000848424
0.000847445
0.000842199
0.000833483
0.000823052
0.000811365
0.000798319
0.00078432
0.000769283
0.000753924
0.00073942
0.000728077
0.00072138
0.000719039
0.000719174
0.000719959
0.000721825
0.000721285
0.000715403
0.000704408
0.00070371
0.000733012
0.000783114
0.000829536
0.000878722
0.000895575
0.000910632
0.000943102
0.00101549
0.00111646
0.00129528
0.00150069
0.00168724
0.00184987
0.00199051
0.00211437
0.00222492
0.00232542
0.00241818
0.00250469
0.0025868
0.00266562
0.0027419
0.00281623
0.00288874
0.00296015
0.00303065
0.00310028
0.00316948
0.00323826
0.00330659
0.00337478
0.00344281
0.00351045
0.00357798
0.00364546
0.00371246
0.00377915
0.00384566
0.00391174
0.00397712
0.00404191
0.00410604
0.0041692
0.00423116
0.0042919
0.00131577
0.00128201
0.00125023
0.00122039
0.00119237
0.00116595
0.001141
0.00111629
0.00109238
0.00106975
0.00104822
0.00102775
0.00100816
0.000989145
0.000970645
0.000952975
0.000936231
0.000920426
0.000905577
0.000891149
0.000877379
0.000864497
0.000852743
0.000842259
0.000832685
0.00082386
0.000816305
0.000810205
0.000805889
0.000803678
0.000802716
0.000802491
0.000803171
0.00080474
0.000807188
0.000810548
0.000813432
0.000816737
0.000820735
0.000825477
0.000830838
0.000836454
0.00084207
0.000847908
0.000854032
0.000860388
0.000866811
0.000873094
0.000879415
0.000885864
0.00089245
0.000898994
0.000905336
0.000911483
0.000917465
0.000923176
0.00092845
0.000933118
0.000937113
0.000940325
0.000942583
0.000942914
0.000939939
0.000933982
0.000926225
0.000917057
0.000906393
0.000894585
0.000881562
0.000867906
0.000854719
0.000844267
0.000838127
0.000836012
0.000835777
0.000835078
0.00083383
0.000829486
0.000818862
0.000802896
0.000798131
0.00083153
0.000894958
0.000946506
0.000971721
0.000972209
0.000985204
0.00102963
0.00112684
0.00126491
0.00150158
0.00174841
0.00196713
0.00215598
0.00231845
0.00246101
0.00258798
0.00270319
0.00280936
0.00290816
0.00300155
0.00309125
0.00317788
0.00326217
0.00334422
0.00342481
0.00350416
0.00358232
0.00365972
0.00373641
0.0038123
0.00388772
0.00396267
0.00403688
0.00411062
0.00418396
0.00425644
0.00432823
0.00439946
0.00446985
0.00453913
0.00460738
0.00467453
0.00474023
0.00480428
0.00486664
0.00152466
0.00148527
0.00144828
0.00141353
0.00138084
0.00134985
0.00132038
0.00129206
0.00126479
0.00123901
0.00121449
0.0011911
0.00116864
0.00114665
0.0011251
0.00110447
0.00108481
0.0010661
0.0010484
0.00103086
0.00101393
0.000997836
0.000982674
0.000968553
0.000955262
0.000942555
0.000930752
0.000920053
0.000910674
0.00090296
0.000896783
0.00089243
0.000890085
0.000889479
0.00089039
0.000892584
0.000895339
0.000898854
0.000903302
0.000908699
0.000914865
0.000921276
0.000927601
0.000934251
0.000941293
0.000948643
0.000956084
0.000963316
0.000970635
0.000978151
0.000985865
0.000993553
0.00100101
0.00100829
0.00101543
0.00102232
0.00102875
0.00103454
0.00103968
0.00104405
0.00104748
0.00104934
0.00104876
0.00104567
0.00104073
0.00103424
0.00102614
0.00101676
0.00100608
0.000994565
0.000983244
0.000974282
0.000969343
0.000968182
0.000968362
0.00096671
0.000961507
0.00095202
0.000935091
0.000912457
0.000901493
0.000938156
0.00101728