/*--------------------------------*- C++ -*----------------------------------*\
  =========                 |
  \\      /  F ield         | OpenFOAM: The Open Source CFD Toolbox
   \\    /   O peration     | Website:  https://openfoam.org
    \\  /    A nd           | Version:  10
     \\/     M anipulation  |
\*---------------------------------------------------------------------------*/
FoamFile
{
    format      ascii;
    class       volVectorField;
    location    "0.001";
    object      U;
}
// * * * * * * * * * * * * * * * * * * * * * * * * * * * * * * * * * * * * * //

dimensions      [0 1 -1 0 0 0 0];

internalField   nonuniform List<vector> 
8915
(
(1.61437 0.532633 1.70824e-17)
(1.60765 0.511158 -3.38982e-17)
(1.60049 0.489044 -4.23257e-15)
(1.59438 0.468484 -3.28729e-17)
(1.58545 0.448463 -4.09161e-15)
(1.57833 0.430118 3.181e-17)
(1.57067 0.41209 -4.04746e-15)
(1.56552 0.395288 3.07983e-17)
(1.55899 0.37886 3.87838e-15)
(1.55178 0.362678 0)
(1.54306 0.346999 3.80942e-15)
(1.53562 0.33179 7.46744e-15)
(1.52751 0.317115 0)
(1.5185 0.302502 3.64198e-15)
(1.50856 0.288473 0)
(1.50051 0.274968 0)
(1.49022 0.261645 -3.51271e-15)
(1.48172 0.248877 2.70944e-17)
(1.47216 0.236444 -3.42429e-15)
(1.46216 0.224242 3.33286e-15)
(1.4507 0.212249 -3.31978e-15)
(1.44064 0.20065 0)
(1.42859 0.189206 -3.26747e-15)
(1.41516 0.177852 3.20647e-15)
(1.3997 0.166657 7.28087e-23)
(1.38406 0.155783 4.94237e-17)
(1.36751 0.14514 -3.15579e-15)
(1.34961 0.13461 -2.41895e-17)
(1.33033 0.124249 2.39694e-17)
(1.31056 0.114632 -2.36862e-17)
(1.28822 0.105251 -3.00626e-15)
(1.265 0.0956585 -1.46443e-15)
(1.24045 0.0858285 1.47425e-15)
(1.21476 0.0767672 1.46086e-15)
(1.18791 0.068008 0)
(1.15905 0.0593409 -3.8513e-23)
(1.1299 0.0510128 -1.42296e-15)
(1.10029 0.0428589 -2.81993e-15)
(1.06929 0.0351247 0)
(1.03711 0.0277777 -2.16676e-17)
(1.00444 0.0208022 -1.35363e-15)
(0.971068 0.0142541 0)
(0.936639 0.00812429 -6.76255e-16)
(0.901184 0.00251936 -2.0962e-17)
(0.864846 -0.00247772 2.07954e-17)
(0.827804 -0.00726942 -3.50736e-16)
(0.790038 -0.0118026 -1.43292e-16)
(0.751753 -0.0157256 8.12437e-17)
(0.712829 -0.0190777 6.04697e-17)
(0.673414 -0.0222201 -2.80062e-16)
(0.633395 -0.0251979 -1.98547e-17)
(0.592918 -0.0277333 -6.30686e-16)
(0.552086 -0.0296761 6.26162e-16)
(0.511441 -0.0313798 0)
(0.469914 -0.0322525 1.27297e-15)
(0.429145 -0.0329461 -3.82996e-17)
(0.387664 -0.0329719 0)
(0.347571 -0.0328373 -2.45484e-15)
(0.307002 -0.0319369 -2.40102e-15)
(0.268149 -0.0309907 4.80622e-15)
(0.228927 -0.0293147 2.3683e-15)
(0.191913 -0.0276232 3.67532e-17)
(0.155034 -0.0253945 -3.65058e-17)
(0.120582 -0.022881 -2.32061e-15)
(0.0874686 -0.0201524 4.72191e-15)
(0.0567811 -0.017227 3.02227e-22)
(0.0290102 -0.0140947 -3.85213e-17)
(0.00449996 -0.0113185 -3.94873e-17)
(-0.0168814 -0.00855928 -5.13941e-15)
(-0.0345739 -0.00628913 -5.26743e-15)
(-0.0497511 -0.00397673 -4.24759e-17)
(-0.061687 -0.00206019 -5.56667e-15)
(-0.0715224 -0.000285188 0)
(-0.0803603 0.00109621 4.55806e-17)
(-0.0905971 0.00245704 -4.67393e-17)
(-0.103153 0.00351218 0)
(-0.118257 0.00401759 0)
(-0.131976 0.00379464 5.00472e-17)
(-0.13685 0.00263393 -6.66468e-15)
(-0.124031 0.000806158 5.23868e-17)
(-0.0835815 -0.00134927 2.68634e-17)
(-0.0108167 -0.00344234 3.52571e-15)
(0.074543 -0.00474635 -2.80677e-17)
(0.157153 -0.00676602 0)
(0.223259 -0.00935992 3.73891e-15)
(0.252043 -0.0124677 -3.78947e-15)
(0.271679 -0.0150096 -3.05079e-17)
(0.326815 -0.0156301 3.98364e-15)
(0.452117 -0.00747919 -5.48272e-22)
(0.585346 0.00656272 -3.15497e-17)
(0.64855 0.0552298 -3.2334e-17)
(0.520473 0.134269 4.22407e-15)
(0.193851 0.2238 -3.34319e-17)
(-0.309002 0.306139 -3.33877e-17)
(-0.822925 0.362379 -4.19485e-15)
(-1.30307 0.400261 4.13172e-15)
(-1.73913 0.429199 0)
(-2.12613 0.453176 0)
(-2.47081 0.47453 0)
(-2.77769 0.494475 -4.00556e-15)
(-3.05373 0.514069 0)
(-3.3024 0.533551 -3.96264e-15)
(-3.53348 0.552367 3.94152e-15)
(-3.74936 0.572243 -3.10968e-17)
(-3.96385 0.593186 -3.9312e-15)
(-4.17481 0.615869 3.07615e-17)
(-4.38342 0.639236 -9.76139e-22)
(-4.58577 0.663212 -6.09706e-17)
(-4.78539 0.687875 3.03213e-17)
(-4.98084 0.713293 0)
(-5.17785 0.73959 0)
(-5.37444 0.767064 -1.906e-15)
(-5.57133 0.795334 -1.86673e-15)
(-5.76935 0.824061 3.72633e-15)
(-5.96748 0.853614 0)
(-6.16418 0.883654 0)
(-6.36118 0.91417 0)
(-6.55859 0.945381 3.63354e-15)
(-6.75487 0.977149 1.78099e-15)
(-6.95117 1.00999 2.80008e-17)
(-7.14889 1.04356 2.7721e-17)
(-7.34642 1.07765 -1.78769e-15)
(-7.54309 1.11189 3.4711e-15)
(-7.7401 1.14639 1.78628e-15)
(-7.93671 1.18116 -2.6805e-17)
(-8.13092 1.21626 -1.70383e-15)
(-8.32428 1.25132 1.6915e-15)
(-8.50762 1.28641 -3.32108e-15)
(4.65057 1.38743 0)
(4.63845 1.33616 4.11891e-15)
(4.62666 1.28609 0)
(4.61552 1.2382 0)
(4.59962 1.19102 3.90823e-15)
(4.58369 1.14611 3.04247e-17)
(4.56642 1.10186 -3.00227e-17)
(4.55164 1.05988 -3.73752e-15)
(4.53584 1.01888 -3.73044e-15)
(4.51818 0.978789 2.85548e-17)
(4.49904 0.939885 -3.69392e-15)
(4.47766 0.901401 -7.09221e-15)
(4.45617 0.864236 0)
(4.43276 0.827377 -3.4924e-15)
(4.40908 0.792125 2.67949e-17)
(4.38463 0.757168 3.37183e-15)
(4.35936 0.723483 2.60361e-17)
(4.33323 0.690163 -5.12516e-17)
(4.30649 0.658038 1.57974e-22)
(4.27869 0.626282 -6.33171e-15)
(4.24984 0.595615 3.15261e-15)
(4.21929 0.565176 -2.42732e-17)
(4.18603 0.535498 -8.0105e-22)
(4.14953 0.505912 -3.03472e-15)
(4.11041 0.477111 -2.35196e-17)
(4.06842 0.448615 3.00542e-15)
(4.024 0.420809 2.9364e-15)
(3.97635 0.393494 2.29418e-17)
(3.92524 0.36694 -2.28361e-17)
(3.87068 0.341187 -1.45079e-15)
(3.81187 0.316087 1.44808e-15)
(3.75029 0.290962 2.25763e-17)
(3.68553 0.265339 -1.44481e-15)
(3.61774 0.240983 -1.44604e-15)
(3.54671 0.217663 0)
(3.472 0.195205 -2.90952e-15)
(3.39421 0.173461 1.45872e-15)
(3.31328 0.152246 1.46088e-15)
(3.22936 0.132009 -1.46591e-15)
(3.14279 0.112629 1.51914e-15)
(3.05299 0.0941611 1.38591e-15)
(2.96043 0.0766562 4.63843e-17)
(2.86455 0.0601463 1.49099e-15)
(2.76542 0.0444232 0)
(2.6632 0.0296946 -7.53868e-16)
(2.55829 0.0161213 3.79376e-16)
(2.45085 0.00361874 0)
(2.34121 -0.00793052 4.80443e-17)
(2.22911 -0.0183037 -9.6763e-17)
(2.11492 -0.0274886 4.38573e-16)
(1.99848 -0.0354276 -4.4179e-16)
(1.88013 -0.0422643 -7.91335e-16)
(1.75999 -0.04773 4.98316e-17)
(1.6398 -0.0525707 5.02196e-17)
(1.51644 -0.0556473 -5.05927e-17)
(1.39429 -0.0582525 0)
(1.26969 -0.0591215 1.64362e-15)
(1.14812 -0.0596264 -5.1738e-17)
(1.02467 -0.0581785 5.2081e-17)
(0.905255 -0.0566796 -6.6589e-15)
(0.784314 -0.0532656 5.67682e-22)
(0.668826 -0.049989 3.34421e-15)
(0.553511 -0.0451919 0)
(0.444169 -0.0399322 3.43347e-15)
(0.338564 -0.0340115 -7.01202e-15)
(0.239577 -0.0278244 0)
(0.148968 -0.0213401 7.4867e-15)
(0.0687165 -0.0157143 1.22174e-16)
(-0.00233834 -0.00926639 -8.13448e-15)
(-0.06182 -0.00408674 -6.4872e-17)
(-0.11315 0.00119463 6.65263e-17)
(-0.154297 0.00531968 8.73072e-15)
(-0.188446 0.00945213 0)
(-0.218699 0.0130236 9.15073e-15)
(-0.251091 0.0167997 -9.44276e-15)
(-0.287663 0.0205325 -9.48535e-15)
(-0.327851 0.0238204 -4.87338e-15)
(-0.360478 0.0256716 -4.90587e-15)
(-0.365801 0.0242868 5.02197e-15)
(-0.322563 0.0183998 5.20204e-15)
(-0.209424 0.00719736 0)
(-0.01703 -0.00835746 -5.55876e-15)
(0.204363 -0.0234262 8.65025e-17)
(0.421299 -0.0392064 -5.57938e-15)
(0.600825 -0.0523061 8.62996e-22)
(0.691748 -0.0600785 8.96983e-17)
(0.748024 -0.0686701 -9.06881e-17)
(0.866825 -0.0826497 5.69098e-15)
(1.10279 -0.0928224 0)
(1.25311 -0.0933554 0)
(1.02867 -0.0233915 -7.46614e-17)
(0.100989 0.117842 -8.3496e-15)
(-1.23751 0.314365 0)
(-2.78059 0.496669 0)
(-4.15792 0.649108 2.7072e-15)
(-5.33247 0.776069 -5.03641e-15)
(-6.33051 0.883252 2.41634e-15)
(-7.18008 0.976938 0)
(-7.91488 1.06041 -2.27736e-15)
(-8.55442 1.13595 0)
(-9.11968 1.20565 3.42412e-17)
(-9.62307 1.27062 2.13261e-15)
(-10.0771 1.33134 2.13304e-15)
(-10.4855 1.38961 -2.09665e-15)
(-10.8622 1.4443 2.06876e-15)
(-11.2084 1.49753 0)
(-11.5317 1.54784 -1.59118e-17)
(-11.8332 1.59714 1.56874e-17)
(-12.1202 1.64508 0)
(-12.3915 1.69207 0)
(-12.653 1.73804 -1.51995e-17)
(-12.9037 1.78361 9.78374e-16)
(-13.1456 1.82797 9.40399e-16)
(-13.3803 1.87223 1.47526e-17)
(-13.6086 1.91632 9.3497e-16)
(-13.8304 1.95971 -1.45127e-17)
(-14.0484 2.00299 1.43608e-17)
(-14.2638 2.04628 -1.81969e-15)
(-14.4758 2.08927 -8.91452e-16)
(-14.6863 2.13255 -1.40204e-17)
(-14.8966 2.17632 1.38888e-17)
(-15.1058 2.22013 8.54756e-16)
(-15.3138 2.26359 -8.63555e-16)
(-15.5218 2.30736 -1.75276e-15)
(-15.7293 2.35134 1.34728e-17)
(-15.9354 2.39529 8.57428e-16)
(-16.1402 2.43884 0)
(-16.3484 2.48375 1.67826e-15)
(6.31026 1.85271 1.87998e-17)
(6.30434 1.78787 -4.78484e-15)
(6.29475 1.72401 0)
(6.28244 1.66186 -2.31462e-15)
(6.26567 1.60061 0)
(6.2464 1.54153 0)
(6.22455 1.48303 0)
(6.20178 1.42669 2.14087e-15)
(6.17805 1.3717 -2.09729e-15)
(6.15173 1.31802 2.08066e-15)
(6.12417 1.26594 -2.07905e-15)
(6.0925 1.21429 2.01441e-15)
(6.06014 1.16433 -1.98738e-15)
(6.02534 1.11486 1.96305e-15)
(5.99001 1.06741 -1.30903e-22)
(5.9521 1.02015 -1.89607e-15)
(5.91397 0.974796 -1.4459e-17)
(5.87343 0.929691 1.41872e-17)
(5.83236 0.886353 1.39268e-17)
(5.79014 0.843525 3.49029e-15)
(5.74738 0.802329 0)
(5.70207 0.76142 -2.64327e-17)
(5.65516 0.721911 1.6903e-15)
(5.60577 0.682711 1.66621e-15)
(5.55495 0.644796 -1.64637e-15)
(5.50157 0.607361 4.06975e-22)
(5.44647 0.571213 1.58531e-15)
(5.3891 0.535739 0)
(5.32924 0.501354 2.43791e-17)
(5.26644 0.46758 -8.22689e-16)
(5.20071 0.434695 2.41417e-17)
(5.13301 0.40256 -2.40928e-17)
(5.06284 0.370212 -2.36882e-23)
(4.99027 0.338707 2.41675e-17)
(4.91466 0.308145 0)
(4.83573 0.278895 8.05542e-16)
(4.75256 0.250592 -8.10404e-16)
(4.66426 0.222839 -7.65876e-16)
(4.57163 0.196194 1.56893e-15)
(4.47488 0.17045 -1.58418e-15)
(4.37252 0.145678 -5.07905e-17)
(4.26573 0.121985 2.56866e-17)
(4.15441 0.0994514 -8.32556e-16)
(4.03856 0.0780226 -2.63964e-17)
(3.91823 0.0579155 4.29242e-16)
(3.79354 0.0389575 -2.1845e-16)
(3.66418 0.0211867 -2.26894e-22)
(3.52972 0.00476162 5.67256e-17)
(3.39029 -0.010155 -2.8954e-17)
(3.24603 -0.0238084 0)
(3.09664 -0.0360998 2.72371e-16)
(2.94231 -0.0469465 4.64867e-16)
(2.78307 -0.0559898 -5.08196e-16)
(2.62051 -0.064093 0)
(2.4515 -0.0697371 -1.07089e-15)
(2.28026 -0.0747119 -1.10138e-15)
(2.10313 -0.0772384 -3.3586e-22)
(1.9257 -0.0792137 0)
(1.74311 -0.0783437 0)
(1.56203 -0.0772198 2.47059e-15)
(1.37649 -0.0732567 -2.54484e-15)
(1.19475 -0.0693839 -2.58486e-15)
(1.01106 -0.0631379 -8.46506e-17)
(0.832685 -0.0560786 4.36573e-17)
(0.657845 -0.0478254 -5.86622e-15)
(0.490876 -0.0389719 -6.27521e-15)
(0.335116 -0.0294271 6.71341e-15)
(0.194612 -0.0210092 0)
(0.0679589 -0.0114512 1.5241e-14)
(-0.0400095 -0.00376031 0)
(-0.134464 0.00443726 0)
(-0.211565 0.0108948 -8.65705e-15)
(-0.276242 0.0174898 -7.05253e-17)
(-0.333035 0.0231627 -9.23264e-15)
(-0.390318 0.0294866 1.9114e-14)
(-0.450292 0.0357552 9.75115e-15)
(-0.510399 0.0410641 4.88514e-15)
(-0.553157 0.0435207 0)
(-0.549348 0.0400945 8.06998e-17)
(-0.470883 0.0289307 -1.05191e-14)
(-0.293427 0.00867019 0)
(-0.00873956 -0.018555 5.40501e-15)
(0.317477 -0.0443525 0)
(0.638862 -0.0705697 5.41156e-15)
(0.912495 -0.0909667 -1.0982e-14)
(1.06837 -0.102147 5.55052e-15)
(1.15735 -0.116113 8.59381e-17)
(1.28636 -0.138018 -5.0081e-15)
(1.47437 -0.148776 6.81556e-17)
(1.36876 -0.12483 -5.35383e-17)
(0.611092 0.01171 2.56169e-15)
(-0.958668 0.229099 1.93825e-15)
(-2.75494 0.478575 0)
(-4.51313 0.691608 -1.35324e-15)
(-6.05197 0.863948 -2.37029e-21)
(-7.35036 1.00787 2.38608e-15)
(-8.44438 1.13044 -2.35239e-15)
(-9.37097 1.23767 1.16153e-15)
(-10.1684 1.33318 1.79667e-17)
(-10.8613 1.41982 -1.1396e-15)
(-11.4723 1.49985 -1.76658e-17)
(-12.0156 1.57381 -1.7623e-17)
(-12.5049 1.64281 -1.10149e-15)
(-12.9465 1.70927 1.11794e-15)
(-13.3512 1.77117 -1.73725e-17)
(-13.7239 1.83153 1.726e-17)
(-14.0706 1.88829 -1.72629e-17)
(-14.3951 1.94402 1.132e-15)
(-14.7024 1.99796 -1.11154e-15)
(-14.9932 2.05084 1.70908e-17)
(-15.2718 2.10229 -3.35906e-22)
(-15.5389 2.15334 -1.69527e-17)
(-15.7961 2.20284 8.4683e-18)
(-16.0457 2.25252 -5.39204e-16)
(-16.2884 2.30183 -5.46138e-16)
(-16.5247 2.35035 0)
(-16.7567 2.39874 -5.36231e-16)
(-16.9856 2.44711 5.34391e-16)
(-17.2108 2.49502 8.37435e-18)
(-17.4337 2.54271 -8.3517e-18)
(-17.6558 2.59078 0)
(-17.8762 2.63892 0)
(-18.0951 2.68652 0)
(-18.3137 2.73438 5.31003e-16)
(-18.5319 2.7825 -5.29458e-16)
(-18.7486 2.83059 -5.29633e-16)
(-18.9645 2.87833 5.29764e-16)
(-19.1812 2.92623 3.48295e-22)
(7.15132 2.09678 0)
(7.15354 2.02628 1.59726e-15)
(7.14959 1.95633 0)
(7.14015 1.88752 -2.79809e-21)
(7.12514 1.8193 0)
(7.10655 1.7532 1.16357e-17)
(7.08445 1.68758 -1.64197e-22)
(7.05973 1.62397 -1.11823e-17)
(7.03294 1.56173 2.83409e-15)
(7.00288 1.50089 -1.3868e-15)
(6.97083 1.44172 1.38229e-15)
(6.93486 1.38319 -2.07486e-17)
(6.89711 1.32641 2.61576e-15)
(6.85645 1.27017 -1.29932e-15)
(6.81421 1.21602 1.27637e-15)
(6.7694 1.16217 0)
(6.72334 1.11034 0)
(6.67501 1.05887 -1.18194e-15)
(6.62546 1.00936 0)
(6.5745 0.960442 -1.13412e-15)
(6.52252 0.913327 0)
(6.46849 0.866696 1.70027e-17)
(6.41292 0.821745 -1.66707e-17)
(6.35526 0.777261 -2.07959e-15)
(6.29621 0.734251 2.06123e-15)
(6.23523 0.691952 -2.04372e-15)
(6.17286 0.651196 -9.83848e-16)
(6.10874 0.611118 -1.53929e-17)
(6.04264 0.572252 -9.74436e-16)
(5.97437 0.534163 -1.50471e-17)
(5.90354 0.497134 5.07745e-16)
(5.83118 0.461124 -1.48201e-17)
(5.75684 0.425417 0)
(5.68058 0.390459 0)
(5.60174 0.356321 4.69016e-16)
(5.51974 0.32343 0)
(5.43384 0.291871 1.91174e-23)
(5.34295 0.260953 1.46791e-17)
(5.24738 0.231223 -9.71656e-16)
(5.14739 0.202422 4.73188e-16)
(5.04198 0.17465 1.48767e-17)
(4.93211 0.148015 -2.24936e-16)
(4.81782 0.122608 1.38997e-22)
(4.69905 0.0983048 -1.53164e-17)
(4.57574 0.075344 2.48406e-16)
(4.44783 0.053671 1.26133e-16)
(4.31477 0.0332964 0)
(4.17584 0.0142667 0)
(4.03105 -0.00319057 -7.8171e-23)
(3.88041 -0.0192354 1.70603e-17)
(3.72362 -0.0337307 -1.39809e-16)
(3.56066 -0.0466819 0)
(3.39152 -0.057704 2.76511e-16)
(3.21709 -0.067684 1.89825e-17)
(3.03507 -0.0750286 6.26604e-16)
(2.8483 -0.0816096 6.48002e-16)
(2.65392 -0.085476 -1.36315e-15)
(2.45558 -0.0886008 -2.42312e-22)
(2.24991 -0.0885781 4.51638e-17)
(2.04209 -0.0881357 2.58037e-22)
(1.82749 -0.0845153 -4.90262e-17)
(1.61283 -0.0807825 2.56625e-17)
(1.39329 -0.0742169 0)
(1.17529 -0.0665283 -2.83051e-17)
(0.958236 -0.0572378 5.86974e-15)
(0.747022 -0.0471066 4.32236e-15)
(0.54536 -0.035989 -4.75153e-15)
(0.357946 -0.0259779 2.63698e-22)
(0.184266 -0.014232 -5.82172e-15)
(0.0312536 -0.00452733 2.45765e-22)
(-0.106131 0.00597909 -6.98503e-15)
(-0.222163 0.0145213 7.40719e-15)
(-0.321654 0.0234807 6.26821e-17)
(-0.409152 0.0315486 0)
(-0.493281 0.0403252 -6.4403e-22)
(-0.574803 0.0487493 -4.59051e-15)
(-0.648043 0.0552234 1.43786e-16)
(-0.69135 0.0568406 -7.31813e-17)
(-0.670113 0.049975 -4.632e-15)
(-0.55602 0.0322685 -7.27824e-17)
(-0.329541 0.00308684 -7.25963e-17)
(0.0136359 -0.0331867 7.26768e-17)
(0.406957 -0.0688051 0)
(0.79678 -0.100887 0)
(1.13641 -0.125354 4.71991e-15)
(1.34883 -0.137644 -7.40956e-17)
(1.45529 -0.153402 0)
(1.5279 -0.17276 0)
(1.54808 -0.164524 0)
(1.17552 -0.0929058 -1.83919e-15)
(0.0815319 0.114432 -2.6296e-15)
(-1.72407 0.378512 -1.36371e-21)
(-3.67803 0.653853 -1.40993e-17)
(-5.499 0.874019 1.66102e-15)
(-7.08107 1.04507 7.92627e-16)
(-8.41254 1.18579 -7.95478e-16)
(-9.53237 1.30572 1.54532e-15)
(-10.4801 1.41118 -7.48333e-16)
(-11.2953 1.50572 7.36386e-16)
(-12.0037 1.59212 7.82908e-16)
(-12.6285 1.67243 -7.82012e-16)
(-13.1843 1.747 1.1894e-17)
(-13.6858 1.81694 -1.18607e-17)
(-14.14 1.88484 7.74526e-16)
(-14.5569 1.94833 0)
(-14.9427 2.01069 1.18938e-17)
(-15.3023 2.06959 -1.19605e-17)
(-15.6397 2.12772 -7.76046e-16)
(-15.9595 2.18408 7.77389e-16)
(-16.2627 2.23953 0)
(-16.5532 2.29357 -3.83789e-16)
(-16.8323 2.34734 0)
(-17.1015 2.39959 0)
(-17.3631 2.45182 0)
(-17.618 2.50393 -3.85757e-16)
(-17.8665 2.55532 1.21179e-17)
(-18.1104 2.60661 3.75643e-16)
(-18.3507 2.65793 3.8786e-16)
(-18.5871 2.70884 3.906e-16)
(-18.8206 2.75949 0)
(-19.0526 2.81044 3.78774e-16)
(-19.2826 2.86149 -3.79671e-16)
(-19.5108 2.91196 6.14912e-18)
(-19.7381 2.96263 -7.55287e-24)
(-19.9649 3.01356 3.8727e-16)
(-20.1902 3.06449 3.94717e-16)
(-20.4146 3.11506 -3.89782e-16)
(-20.6391 3.16577 -4.02394e-16)
(7.70026 2.26204 0)
(7.71139 2.18881 -9.80658e-18)
(7.71497 2.1158 -1.21376e-15)
(7.71096 2.04339 2.42528e-15)
(7.69998 1.97114 0)
(7.68445 1.90083 0)
(7.6646 1.8309 1.79848e-17)
(7.64096 1.76278 -1.75751e-17)
(7.61412 1.69592 -1.10899e-15)
(7.58328 1.63041 1.68843e-17)
(7.54966 1.56657 -1.66859e-17)
(7.51214 1.50347 -1.02536e-15)
(7.47201 1.44213 -2.06654e-15)
(7.42848 1.38133 0)
(7.38248 1.32259 -9.83141e-16)
(7.33378 1.26423 -1.50303e-17)
(7.28291 1.20789 1.47157e-17)
(7.22971 1.15199 9.21887e-16)
(7.17465 1.09811 0)
(7.11781 1.04488 0)
(7.05941 0.993526 0)
(6.99909 0.942782 -8.56271e-16)
(6.93699 0.89386 -8.11904e-16)
(6.87287 0.845512 7.95521e-16)
(6.80715 0.79874 -1.58457e-15)
(6.7397 0.752826 7.89205e-16)
(6.67087 0.708518 -1.19272e-17)
(6.60038 0.664988 1.17121e-17)
(6.52802 0.622801 1.4652e-15)
(6.45378 0.581538 3.74667e-16)
(6.37705 0.541454 -3.58843e-16)
(6.29891 0.502489 -1.10705e-17)
(6.21895 0.464177 3.50575e-16)
(6.13727 0.426633 1.08531e-17)
(6.05325 0.389985 -3.44304e-16)
(5.96616 0.354511 -3.42038e-16)
(5.87545 0.320567 3.39885e-16)
(5.78001 0.287416 3.27604e-16)
(5.67986 0.255532 6.84281e-16)
(5.57528 0.224644 0)
(5.46561 0.194854 0)
(5.35158 0.166255 3.35971e-16)
(5.23328 0.138955 3.09213e-23)
(5.11056 0.112818 -1.05632e-17)
(4.98335 0.0880917 -1.59339e-16)
(4.85158 0.064737 -8.56124e-17)
(4.71464 0.0427631 1.08006e-17)
(4.57184 0.0221975 -1.09242e-17)
(4.42305 0.00327309 -3.08593e-24)
(4.26821 -0.0141671 4.499e-17)
(4.10697 -0.0299846 -9.1572e-17)
(3.93915 -0.0441922 0)
(3.7647 -0.0563884 -1.90806e-16)
(3.58409 -0.0674672 -1.22086e-17)
(3.39559 -0.0758069 4.13274e-16)
(3.20119 -0.0833022 1.28807e-17)
(2.99865 -0.0879612 -1.32702e-17)
(2.7904 -0.091801 1.36988e-17)
(2.57413 -0.0923326 8.92596e-16)
(2.35369 -0.09236 0)
(2.12567 -0.0889852 9.7781e-16)
(1.89527 -0.0854222 0)
(1.65867 -0.0788295 0)
(1.42108 -0.0709481 0)
(1.18302 -0.0612467 -2.42536e-15)
(0.949633 -0.0505698 2.10086e-17)
(0.724348 -0.0387685 1.70115e-22)
(0.510811 -0.0279689 -2.64475e-17)
(0.309134 -0.0151772 -2.98442e-17)
(0.126385 -0.0043883 3.37993e-17)
(-0.0419161 0.0074211 4.87137e-15)
(-0.189131 0.017294 0)
(-0.320723 0.0280404 0)
(-0.436061 0.0378046 0)
(-0.544958 0.0484779 -6.95968e-15)
(-0.643896 0.0583227 3.66997e-15)
(-0.723224 0.0650458 3.62853e-15)
(-0.760373 0.0645573 0)
(-0.720369 0.0533297 3.61248e-15)
(-0.57958 0.0293547 7.14287e-15)
(-0.323182 -0.00751209 5.39505e-17)
(0.0409415 -0.0513525 -3.45782e-15)
(0.465612 -0.0954495 0)
(0.889791 -0.128822 5.28189e-17)
(1.26413 -0.154188 -5.33836e-17)
(1.51209 -0.164524 5.44822e-17)
(1.61361 -0.175455 -3.29148e-15)
(1.60428 -0.184114 0)
(1.48363 -0.151184 2.58442e-17)
(0.926346 -0.0323427 1.10495e-15)
(-0.357199 0.235886 8.47969e-16)
(-2.29411 0.539913 6.92892e-16)
(-4.33869 0.830018 0)
(-6.20996 1.05061 -6.16022e-16)
(-7.82019 1.21493 -6.05785e-16)
(-9.16968 1.34705 9.33254e-18)
(-10.3023 1.45933 -1.20745e-15)
(-11.26 1.55878 0)
(-12.0831 1.64874 -6.01042e-16)
(-12.7986 1.73179 -9.41874e-18)
(-13.4298 1.80972 6.1372e-16)
(-13.9917 1.88265 0)
(-14.4992 1.95158 -6.08356e-16)
(-14.9599 2.01904 -1.21601e-15)
(-15.3833 2.08249 -9.59394e-18)
(-15.776 2.14521 0)
(-16.1425 2.20471 6.19129e-16)
(-16.4868 2.2637 0)
(-16.8131 2.32105 -9.70947e-18)
(-17.1228 2.37764 -6.15409e-16)
(-17.4195 2.43291 3.02888e-16)
(-17.7047 2.48802 1.9605e-17)
(-17.9798 2.54169 -3.25025e-16)
(-18.2472 2.59508 -9.8484e-18)
(-18.5077 2.64861 3.25775e-16)
(-18.7615 2.70152 3.17924e-16)
(-19.0103 2.75431 0)
(-19.2552 2.80714 -6.27236e-16)
(-19.4955 2.85957 -3.41249e-16)
(-19.7323 2.91169 -3.11634e-16)
(-19.967 2.96405 -3.21939e-16)
(-20.1991 3.01649 3.12775e-16)
(-20.4289 3.06831 1.01352e-17)
(-20.6574 3.12028 0)
(-20.8849 3.17247 -3.34362e-16)
(-21.1108 3.22465 -3.15123e-16)
(-21.3354 3.27646 -1.01965e-17)
(-21.5596 3.32837 3.36584e-16)
(8.11108 2.38953 -1.09024e-15)
(8.13209 2.31505 1.10267e-15)
(8.14447 2.24061 1.05853e-15)
(8.14757 2.1663 -2.09971e-15)
(8.14247 2.09165 1.01242e-15)
(8.13174 2.01866 -9.98475e-16)
(8.11591 1.94589 0)
(8.09523 1.87468 0)
(8.07034 1.80459 9.616e-16)
(8.0407 1.73573 0)
(8.00758 1.66851 9.25934e-16)
(7.97028 1.60202 -1.41125e-17)
(7.92971 1.53726 8.88744e-16)
(7.88523 1.473 1.35696e-17)
(7.83759 1.41079 -1.33076e-17)
(7.78682 1.34894 1.3016e-17)
(7.73324 1.28911 8.15139e-16)
(7.67696 1.22972 0)
(7.61828 1.17237 0)
(7.55741 1.11569 7.73752e-16)
(7.49453 1.06095 -7.55205e-16)
(7.42952 1.00687 7.38161e-16)
(7.36246 0.9547 -4.26726e-22)
(7.29327 0.903178 -1.08573e-17)
(7.22227 0.853298 6.80123e-16)
(7.14947 0.804375 -6.76273e-16)
(7.07515 0.757105 1.01999e-17)
(6.99912 0.710708 -9.99363e-18)
(6.92117 0.665756 -1.2373e-15)
(6.84136 0.621832 -9.63756e-18)
(6.75907 0.579183 3.13196e-16)
(6.67533 0.537729 -9.33932e-18)
(6.58983 0.497096 -3.03942e-16)
(6.50265 0.457323 9.09043e-18)
(6.41326 0.418514 0)
(6.32086 0.380969 5.59441e-16)
(6.22497 0.344967 8.7848e-18)
(6.12444 0.309947 0)
(6.01917 0.276268 -2.7593e-16)
(5.90945 0.243656 0)
(5.79478 0.212208 -2.5496e-16)
(5.67576 0.182004 -1.69095e-16)
(5.55248 0.15317 2.86269e-16)
(5.42481 0.125572 -1.67896e-17)
(5.29264 0.0994589 1.6763e-17)
(5.15592 0.0747915 1.69142e-23)
(5.01411 0.0515883 0)
(4.86656 0.0298726 0)
(4.71308 0.00987096 8.47071e-18)
(4.55357 -0.008585 -6.82783e-17)
(4.38763 -0.0253577 8.6158e-17)
(4.21498 -0.0404602 1.39448e-16)
(4.03555 -0.0534756 0)
(3.84956 -0.0653115 0)
(3.65559 -0.0743214 -6.02707e-16)
(3.4551 -0.082422 3.72771e-17)
(3.24623 -0.0875969 6.097e-16)
(3.03074 -0.0918735 2.17734e-22)
(2.80693 -0.0927729 -1.30208e-15)
(2.57783 -0.0930756 0)
(2.34074 -0.0898976 -6.58852e-16)
(2.09999 -0.0864332 -7.26247e-16)
(1.85245 -0.0798392 0)
(1.6026 -0.0718658 -7.39106e-16)
(1.35168 -0.0619474 8.14968e-16)
(1.10514 -0.0509808 -2.7996e-17)
(0.86634 -0.0388238 1.99154e-15)
(0.637927 -0.0276268 2.22553e-15)
(0.420441 -0.0143731 2.50333e-15)
(0.220354 -0.00306006 0)
(0.0336046 0.00936889 0)
(-0.133399 0.0199167 -3.69876e-15)
(-0.285904 0.031556 1.27845e-16)
(-0.422029 0.0423979 -7.0705e-17)
(-0.549254 0.0541625 2.37302e-15)
(-0.659663 0.064465 -2.56908e-15)
(-0.740856 0.0701377 -2.54527e-15)
(-0.771334 0.0671916 2.64854e-15)
(-0.717699 0.0514036 -2.64801e-15)
(-0.566766 0.0221394 -2.37008e-15)
(-0.303659 -0.0207431 0)
(0.0628013 -0.0713734 4.69582e-15)
(0.496336 -0.120878 2.23617e-15)
(0.933276 -0.155062 0)
(1.32063 -0.178622 2.33646e-15)
(1.58424 -0.18396 0)
(1.66772 -0.184471 2.11876e-15)
(1.59917 -0.180628 -1.51245e-15)
(1.37596 -0.12292 1.14015e-15)
(0.681316 0.0439268 -2.47584e-17)
(-0.743902 0.369889 1.98931e-17)
(-2.78802 0.711751 -5.83847e-16)
(-4.89946 1.01204 5.35833e-16)
(-6.80261 1.22647 0)
(-8.4257 1.37898 -1.60135e-17)
(-9.78062 1.4989 7.93575e-18)
(-10.9156 1.60071 -1.6808e-21)
(-11.8744 1.69185 7.99002e-18)
(-12.6981 1.77533 -2.09797e-21)
(-13.4139 1.8534 0)
(-14.0453 1.92751 5.18957e-16)
(-14.6078 1.99754 5.31095e-16)
(-15.1161 2.06427 5.06781e-16)
(-15.578 2.13012 5.35508e-16)
(-16.0025 2.19245 -8.25837e-18)
(-16.3967 2.25442 5.373e-16)
(-16.7647 2.31345 -5.33159e-16)
(-17.1105 2.37219 5.41583e-16)
(-17.438 2.42946 -8.36274e-18)
(-17.7487 2.4861 1.07699e-15)
(-18.046 2.54154 -8.41487e-18)
(-18.3316 2.59689 8.44006e-18)
(-18.6068 2.65093 2.71226e-16)
(-18.8738 2.7047 8.46875e-18)
(-19.1337 2.7586 -8.48189e-18)
(-19.3865 2.8119 3.28306e-22)
(-19.6338 2.86503 -8.52794e-18)
(-19.8766 2.91819 8.52873e-18)
(-20.1143 2.97091 0)
(-20.3477 3.02326 2.66402e-16)
(-20.5783 3.07576 8.59046e-18)
(-20.8057 3.12828 0)
(-21.03 3.18012 0)
(-21.2524 3.232 -2.84547e-16)
(-21.4733 3.28406 8.60979e-18)
(-21.692 3.33602 0)
(-21.909 3.38759 -2.67896e-16)
(-22.125 3.43918 -2.84831e-16)
(8.44137 2.49484 9.91649e-16)
(8.47121 2.41956 -9.73659e-16)
(8.49334 2.34472 9.50268e-16)
(8.50486 2.26963 9.58487e-16)
(8.50716 2.19374 -9.25575e-16)
(8.50276 2.11911 9.13664e-16)
(8.49243 2.04451 0)
(8.47625 1.97118 -1.39581e-17)
(8.45493 1.8988 -8.67677e-16)
(8.42812 1.82747 8.59386e-16)
(8.39714 1.7577 -1.71215e-15)
(8.36157 1.68861 8.41619e-16)
(8.3221 1.62119 -1.27413e-17)
(8.2782 1.55421 1.24505e-17)
(8.23052 1.48921 -7.93557e-16)
(8.17917 1.42454 2.38785e-17)
(8.12442 1.36184 -1.16796e-17)
(8.06651 1.29956 0)
(8.00567 1.23932 -7.14061e-16)
(7.94221 1.17973 -6.97892e-16)
(7.87628 1.1221 6.80802e-16)
(7.80788 1.06516 6.65008e-16)
(7.73714 1.01018 -3.87757e-22)
(7.66404 0.955901 6.34804e-16)
(7.58887 0.90332 1.93982e-17)
(7.51173 0.85175 -1.89712e-17)
(7.43286 0.801872 0)
(7.35212 0.752938 -5.99755e-16)
(7.26933 0.705525 6.06251e-16)
(7.18456 0.65922 -1.74699e-17)
(7.09727 0.614266 -5.32322e-16)
(7.00842 0.570579 -3.37268e-17)
(6.9178 0.527796 -2.65509e-16)
(6.82547 0.486009 1.63395e-17)
(6.73097 0.445196 2.73602e-16)
(6.6335 0.405767 -2.54052e-16)
(6.53257 0.367887 -1.56625e-17)
(6.42705 0.331184 0)
(6.31675 0.295889 0)
(6.20193 0.261732 0)
(6.08221 0.228797 4.78249e-16)
(5.95809 0.197159 -2.36922e-16)
(5.82968 0.166955 -2.39325e-23)
(5.69684 0.138053 -1.45695e-17)
(5.55944 0.110703 -1.03794e-22)
(5.41746 0.0848742 1.29533e-16)
(5.27041 0.0605933 5.73229e-17)
(5.11769 0.0378748 1.42947e-17)
(4.95911 0.0169437 -1.4284e-17)
(4.79453 -0.00237272 4.28888e-17)
(4.62354 -0.019937 4.29959e-17)
(4.44582 -0.0357713 -1.29548e-16)
(4.26131 -0.0494441 1.44828e-17)
(4.07005 -0.0618776 0)
(3.87083 -0.071413 -1.47548e-17)
(3.66477 -0.0799761 1.49481e-17)
(3.45024 -0.0855419 -4.85487e-16)
(3.22855 -0.0901424 -1.54331e-17)
(2.99834 -0.0913028 5.19007e-16)
(2.76209 -0.0918158 -5.13967e-16)
(2.51755 -0.0887819 5.26087e-16)
(2.26847 -0.0853835 5.40328e-16)
(2.01223 -0.0787957 -1.73889e-17)
(1.75287 -0.0707673 5.92987e-16)
(1.49209 -0.0607121 0)
(1.23561 -0.0495686 2.06408e-17)
(0.986879 -0.0371987 -1.47211e-15)
(0.747997 -0.0257945 -1.59945e-15)
(0.519782 -0.0123514 -2.4976e-22)
(0.308175 -0.000809592 -1.98743e-15)
(0.109537 0.0118608 0)
(-0.0701663 0.0226829 5.03102e-15)
(-0.23599 0.0347213 0)
(-0.385523 0.0460373 -3.12213e-15)
(-0.524157 0.0581572 -1.6958e-15)
(-0.641839 0.0681224 1.78489e-15)
(-0.724421 0.0722958 0)
(-0.750634 0.0664154 -3.05945e-22)
(-0.693672 0.0465308 1.7845e-15)
(-0.541157 0.0122543 -1.64839e-15)
(-0.281703 -0.0359891 -1.69324e-15)
(0.0789855 -0.0921695 -1.56331e-15)
(0.511614 -0.145044 -3.28281e-15)
(0.949807 -0.180821 0)
(1.33833 -0.200906 -1.63779e-15)
(1.60682 -0.197685 1.61041e-15)
(1.66876 -0.185692 9.62068e-17)
(1.55856 -0.168408 2.22653e-15)
(1.25232 -0.0838948 -8.57833e-16)
(0.441062 0.131964 6.4969e-16)
(-1.11325 0.516276 1.68452e-17)
(-3.24778 0.893295 -1.54049e-17)
(-5.40602 1.19963 -4.72392e-16)
(-7.32384 1.40415 4.58652e-16)
(-8.94627 1.54148 -1.42584e-17)
(-10.2959 1.64647 1.41543e-17)
(-11.4245 1.7356 -2.29973e-21)
(-12.3771 1.81657 -1.42719e-17)
(-13.1948 1.892 4.74341e-16)
(-13.9051 1.96371 0)
(-14.5315 2.03278 1.63244e-21)
(-15.0895 2.09878 -4.66379e-16)
(-15.5937 2.16226 -4.66069e-16)
(-16.0519 2.22546 0)
(-16.4727 2.28571 -4.69866e-16)
(-16.8633 2.34593 -9.39122e-16)
(-17.2276 2.40356 4.87105e-16)
(-17.5697 2.4611 -4.71525e-16)
(-17.8933 2.51733 -1.47613e-17)
(-18.1998 2.57305 8.52247e-22)
(-18.4925 2.62768 7.39962e-18)
(-18.773 2.68225 -1.31008e-22)
(-19.0424 2.73557 -7.4259e-18)
(-19.3033 2.78875 -2.29556e-16)
(-19.5565 2.84197 -2.44243e-16)
(-19.8023 2.89454 -2.37653e-16)
(-20.0419 2.9469 -7.41e-18)
(-20.2767 2.99927 -2.39448e-22)
(-20.5059 3.05117 1.48632e-17)
(-20.7302 3.10265 -7.41985e-18)
(-20.9512 3.15421 0)
(-21.1685 3.20576 0)
(-21.3823 3.2566 -7.41839e-18)
(-21.5935 3.30741 1.47975e-17)
(-21.8029 3.35833 2.2877e-16)
(-22.0097 3.4091 -2.36376e-16)
(-22.2142 3.45946 -2.53809e-22)
(-22.4175 3.50977 -7.37503e-18)
(8.75209 2.50842 -9.13559e-16)
(8.78415 2.43385 2.5139e-21)
(8.80536 2.35895 1.39646e-17)
(8.81665 2.28281 -2.26102e-22)
(8.8202 2.20748 -2.7241e-17)
(8.81695 2.13192 -8.46477e-16)
(8.80681 2.05729 -8.42205e-16)
(8.79067 1.98341 0)
(8.7683 1.91034 -8.12784e-16)
(8.74105 1.83871 1.60842e-15)
(8.70865 1.76764 0)
(8.67168 1.69814 7.60792e-16)
(8.62975 1.629 1.18052e-17)
(8.5834 1.56175 -9.54425e-22)
(8.53281 1.49475 0)
(8.47824 1.42965 -1.39621e-15)
(8.41998 1.36493 6.71958e-16)
(8.35828 1.30219 -6.42547e-22)
(8.29346 1.24009 0)
(8.22571 1.17994 -2.01759e-17)
(8.15509 1.12048 -6.10736e-16)
(8.0818 1.063 1.23058e-15)
(8.00585 1.00624 -1.20239e-15)
(7.92752 0.951249 0)
(7.84696 0.897255 5.56183e-16)
(7.76439 0.845 1.7552e-17)
(7.67974 0.793741 5.49016e-16)
(7.59284 0.744058 5.54887e-16)
(7.50379 0.695546 5.10104e-16)
(7.41209 0.648447 2.74601e-16)
(7.3187 0.602681 5.58057e-24)
(7.22346 0.55787 2.33476e-16)
(7.12643 0.514201 2.44821e-16)
(7.02722 0.471477 -1.50456e-17)
(6.92503 0.430244 -2.22242e-16)
(6.81938 0.390571 0)
(6.70916 0.352288 0)
(6.59408 0.315474 -2.26588e-16)
(6.4744 0.279865 -2.3739e-16)
(6.34983 0.24553 -2.2058e-16)
(6.22077 0.21254 1.3621e-17)
(6.08736 0.181046 -2.01964e-16)
(5.94943 0.150915 1.06542e-16)
(5.80687 0.122399 -1.31825e-17)
(5.65963 0.0954765 -5.22376e-17)
(5.50731 0.0701848 -5.17994e-17)
(5.34934 0.046528 -1.28609e-17)
(5.18555 0.0247316 1.27915e-17)
(5.01577 0.00462234 -2.54778e-17)
(4.83961 -0.0136634 -5.08134e-17)
(4.65668 -0.0301597 1.01497e-16)
(4.46698 -0.0444198 0)
(4.27041 -0.0573777 1.01727e-16)
(4.06597 -0.0673727 1.27687e-17)
(3.85451 -0.0763269 -2.18505e-16)
(3.6346 -0.0822247 4.14805e-16)
(3.40724 -0.0871229 0)
(3.17124 -0.0884976 0)
(2.92868 -0.0891756 4.31161e-16)
(2.67763 -0.0862416 0)
(2.42134 -0.082886 -4.47788e-16)
(2.15757 -0.0763163 -4.58136e-16)
(1.89006 -0.0682576 -4.70125e-16)
(1.62081 -0.0581113 0)
(1.35577 -0.0468507 0)
(1.09856 -0.0343407 0)
(0.851006 -0.0228218 0)
(0.614098 -0.00932986 -1.37632e-15)
(0.393381 0.00227859 1.51878e-15)
(0.185677 0.0149763 2.62957e-17)
(-0.00346604 0.0258421 -1.90258e-15)
(-0.178781 0.0379659 -2.08005e-15)
(-0.337618 0.0494202 2.2847e-15)
(-0.48388 0.0614483 0)
(-0.606504 0.070581 0)