# Forces      
# CofR        : (0.000000e+00 0.000000e+00 0.000000e+00)
# Time        forces(pressure viscous porous)	moments(pressure viscous porous)
0             	((7.500000e+02 -1.004175e-11 -1.677030e-19) (4.161053e+00 -6.083490e-02 -1.254789e-24) (0.000000e+00 0.000000e+00 0.000000e+00)) ((-1.408155e-21 6.468596e-21 -2.812500e+00) (9.053858e-27 9.706337e-26 -2.278808e-02) (0.000000e+00 0.000000e+00 0.000000e+00))
