# Forces      
# CofR        : (0.000000e+00 0.000000e+00 0.000000e+00)
# Time        forces(pressure viscous porous)	moments(pressure viscous porous)
0.002         	((1.331894e+03 6.487365e+01 -1.702358e-19) (3.912684e+00 -2.126836e+00 -2.454391e-20) (0.000000e+00 0.000000e+00 0.000000e+00)) ((-1.396452e-21 6.715879e-21 -2.529979e+00) (-3.707969e-23 1.716741e-21 -2.133487e-01) (0.000000e+00 0.000000e+00 0.000000e+00))
