/*--------------------------------*- C++ -*----------------------------------*\
  =========                 |
  \\      /  F ield         | OpenFOAM: The Open Source CFD Toolbox
   \\    /   O peration     | Website:  https://openfoam.org
    \\  /    A nd           | Version:  8
     \\/     M anipulation  |
\*---------------------------------------------------------------------------*/
FoamFile
{
    version     2.0;
    format      ascii;
    class       volScalarField;
    location    "0.853475";
    object      p;
}
// * * * * * * * * * * * * * * * * * * * * * * * * * * * * * * * * * * * * * //

dimensions      [0 2 -2 0 0 0 0];

internalField   nonuniform List<scalar> 
127200
(
-13.505
-13.944
-14.3585
-14.7467
-15.1064
-15.4367
-15.7361
-16.0033
-16.2373
-16.4375
-16.6036
-16.7357
-16.8342
-16.8996
-16.9327
-16.9346
-16.9064
-16.8495
-16.7652
-16.6549
-16.5216
-16.369
-16.1957
-15.9894
-15.7457
-15.4704
-15.1666
-14.8368
-14.483
-14.1065
-13.7089
-13.2911
-12.8542
-12.3991
-11.9268
-11.4381
-10.9338
-10.4149
-9.88212
-9.33632
-8.77832
-8.20895
-7.62904
-7.03939
-6.44085
-5.83422
-5.22034
-4.60002
-3.97409
-3.34336
-2.70867
-2.07081
-1.43061
-0.788873
-0.146415
0.495966
1.13748
1.77732
2.41471
3.04888
3.67906
4.30448
4.9244
5.53807
6.14478
6.74379
7.33442
7.91597
8.48777
9.04916
9.59951
10.1382
10.6646
11.1782
11.6783
12.1646
12.6363
13.0932
13.5346
13.9602
14.3694
14.7619
15.1371
15.4946
15.8335
16.1522
16.4499
16.7262
16.9813
17.215
17.4275
17.6186
17.7881
17.936
18.0621
18.1661
18.2482
18.3084
18.3468
18.3642
-11.5157
-11.8116
-12.0826
-12.3295
-12.5507
-12.7454
-12.9131
-13.0543
-13.1695
-13.259
-13.323
-13.3619
-13.3758
-13.3649
-13.3292
-13.2688
-13.1838
-13.0741
-12.9396
-12.78
-12.594
-12.3806
-12.143
-11.8931
-11.6349
-11.3634
-11.0769
-10.7741
-10.4547
-10.1188
-9.76653
-9.39846
-9.01508
-8.61697
-8.20475
-7.77907
-7.34057
-6.88993
-6.42782
-5.9549
-5.47185
-4.97937
-4.47812
-3.9688
-3.45209
-2.92868
-2.39925
-1.8645
-1.32511
-0.78177
-0.235167
0.314012
0.865084
1.41737
1.97018
2.52286
3.07472
3.62511
4.17336
4.71881
5.26081
5.79871
6.33187
6.85967
7.38147
7.89665
8.40461
8.90475
9.39647
9.87918
10.3523
10.8153
11.2675
11.7084
12.1374
12.554
12.9577
13.3477
13.7235
14.0847
14.4306
14.7607
15.0749
15.3737
15.6577
15.9277
16.1829
16.4224
16.6454
16.8514
17.04
17.211
17.3642
17.4995
17.6167
17.7158
17.7965
17.859
17.9035
17.929
-11.3662
-11.624
-11.8676
-12.0953
-12.3055
-12.4969
-12.6687
-12.82
-12.95
-13.058
-13.1435
-13.206
-13.2454
-13.2613
-13.2536
-13.2221
-13.167
-13.088
-12.9853
-12.8592
-12.7097
-12.5359
-12.3367
-12.1134
-11.8681
-11.6021
-11.3164
-11.012
-10.6895
-10.3498
-9.99354
-9.62141
-9.23407
-8.83221
-8.41648
-7.98755
-7.54609
-7.09277
-6.62826
-6.15325
-5.66841
-5.17442
-4.67197
-4.16174
-3.64443
-3.12072
-2.5913
-2.05687
-1.51811
-0.975713
-0.430371
0.117229
0.666404
1.21647
1.76675
2.31656
2.86523
3.41211
3.95652
4.49781
5.03533
5.56845
6.09653
6.61895
7.1351
7.64436
8.14615
8.63988
9.12498
9.60089
10.0671
10.523
10.9681
11.4018
11.8238
12.2336
12.6305
13.0143
13.3845
13.7406
14.0823
14.4092
14.721
15.0173
15.298
15.5626
15.8108
16.0421
16.2563
16.4531
16.6323
16.7937
16.9373
17.0629
17.1705
17.2599
17.3313
17.3847
17.4204
17.4384
-10.1114
-10.2781
-10.433
-10.5747
-10.7021
-10.814
-10.9095
-10.9879
-11.0486
-11.091
-11.1149
-11.1201
-11.1062
-11.0733
-11.0213
-10.9503
-10.8605
-10.752
-10.6252
-10.4805
-10.3183
-10.1388
-9.94285
-9.73093
-9.50332
-9.26014
-9.00155
-8.72776
-8.43907
-8.1358
-7.81836
-7.48716
-7.14269
-6.78543
-6.4159
-6.03463
-5.64217
-5.23908
-4.82592
-4.40328
-3.97173
-3.53186
-3.08426
-2.62954
-2.16829
-1.70111
-1.22861
-0.751405
-0.270093
0.214713
0.702405
1.19237
1.68401
2.1767
2.66985
3.16286
3.65511
4.14603
4.635
5.12145
5.60479
6.08444
6.55983
7.0304
7.49557
7.9548
8.40754
8.85327
9.29143
9.72153
10.143
10.5555
10.9583
11.3511
11.7333
12.1046
12.4645
12.8125
13.1482
13.4714
13.7816
14.0785
14.3619
14.6315
14.8871
15.1285
15.3553
15.5672
15.764
15.9453
16.1109
16.2606
16.3942
16.5114
16.6123
16.6966
16.7641
16.8149
16.8488
16.8657
-9.63708
-9.7714
-9.89932
-10.0181
-10.1262
-10.2222
-10.305
-10.3736
-10.4271
-10.465
-10.4865
-10.4913
-10.4789
-10.4489
-10.4011
-10.3352
-10.2512
-10.1489
-10.0283
-9.88945
-9.73268
-9.5583
-9.36672
-9.15842
-8.93393
-8.69374
-8.43833
-8.16818
-7.88378
-7.58561
-7.27413
-6.94983
-6.61322
-6.26477
-5.90501
-5.53445
-5.15361
-4.76303
-4.36323
-3.95477
-3.53819
-3.11405
-2.68291
-2.24533
-1.80187
-1.35312
-0.899633
-0.441992
0.0192315
0.483461
0.950121
1.41864
1.88843
2.35894
2.82958
3.29979
3.76901
4.23667
4.70222
5.1651
5.62476
6.08067
6.53229
6.97909
7.42055
7.85615
8.28539
8.70777
9.1228
9.53001
9.92893
10.3191
10.7001
11.0714
11.4327
11.7835
12.1234
12.4521
12.7692
13.0744
13.3672
13.6474
13.9148
14.1689
14.4096
14.6366
14.8495
15.0483
15.2326
15.4022
15.5569
15.6966
15.8211
15.9303
16.0241
16.1024
16.165
16.2121
16.2435
16.2591
-8.79695
-8.88767
-8.97035
-9.04401
-9.10774
-9.16071
-9.20218
-9.23149
-9.24807
-9.25141
-9.2411
-9.2168
-9.17825
-9.12525
-9.05769
-8.97551
-8.87872
-8.76737
-8.64157
-8.50129
-8.3466
-8.17761
-7.99451
-7.7975
-7.58682
-7.3627
-7.12542
-6.87527
-6.61257
-6.33765
-6.05087
-5.75262
-5.44328
-5.12327
-4.79301
-4.45295
-4.10354
-3.74524
-3.37853
-3.00388
-2.62178
-2.23272
-1.83722
-1.43577
-1.02889
-0.617078
-0.200867
0.219227
0.642684
1.06898
1.49759
1.92799
2.35965
2.79205
3.22468
3.657
4.0885
4.51866
4.94697
5.37292
5.79601
6.21574
6.6316
7.04312
7.44981
7.85119
8.24679
8.63616
9.01883
9.39436
9.76233
10.1223
10.4738
10.8166
11.1501
11.474
11.7879
12.0916
12.3846
12.6666
12.9373
13.1964
13.4436
13.6787
13.9015
14.1116
14.3088
14.4929
14.6637
14.8209
14.9645
15.0942
15.2098
15.3113
15.3985
15.4713
15.5297
15.5735
15.6027
15.6173
-8.21359
-8.27874
-8.33817
-8.39027
-8.43407
-8.46879
-8.4937
-8.50814
-8.51153
-8.50334
-8.48311
-8.45046
-8.40503
-8.34656
-8.2748
-8.18957
-8.09075
-7.97825
-7.85209
-7.71236
-7.5592
-7.39277
-7.21326
-7.02091
-6.81595
-6.59865
-6.36931
-6.12821
-5.87569
-5.61206
-5.33767
-5.05287
-4.75805
-4.45357
-4.13983
-3.81724
-3.48621
-3.14716
-2.80052
-2.44673
-2.08623
-1.71949
-1.34695
-0.969091
-0.586366
-0.199253
0.191774
0.586236
0.983652
1.38354
1.78542
2.18881
2.59322
2.99817
3.40318
3.80777
4.21145
4.61376
5.01422
5.41236
5.80772
6.19983
6.58824
6.9725
7.35216
7.72678
8.09594
8.45921
8.81616
9.1664
9.50952
9.84513
10.1728
10.4923
10.8031
11.105
11.3975
11.6804
11.9534
12.2161
12.4682
12.7095
12.9397
13.1586
13.3659
13.5614
13.7448
13.9161
14.0748
14.221
14.3544
14.4749
14.5823
14.6766
14.7575
14.8251
14.8793
14.92
14.9471
14.9607
-7.56166
-7.60254
-7.63721
-7.66475
-7.68451
-7.69596
-7.6986
-7.69196
-7.67561
-7.64917
-7.61231
-7.56473
-7.5062
-7.4365
-7.35549
-7.26306
-7.15913
-7.04368
-6.91667
-6.77808
-6.62796
-6.46638
-6.29344
-6.10928
-5.91406
-5.70797
-5.49121
-5.26402
-5.02663
-4.77932
-4.52238
-4.2561
-3.98079
-3.69679
-3.40444
-3.10409
-2.79611
-2.48087
-2.15876
-1.83016
-1.49548
-1.15513
-0.80952
-0.459067
-0.104197
0.254661
0.617076
0.982612
1.35083
1.72129
2.09356
2.46718
2.84172
3.21674
3.59178
3.96642
4.34021
4.71271
5.08348
5.45211
5.81815
6.18118
6.54079
6.89655
7.24806
7.59491
7.93671
8.27305
8.60356
8.92785
9.24557
9.55634
9.85981
10.1556
10.4435
10.7231
10.994
11.256
11.5089
11.7522
11.9858
12.2093
12.4226
12.6254
12.8175
12.9986
13.1686
13.3272
13.4744
13.6098
13.7335
13.8451
13.9447
14.0321
14.1071
14.1698
14.2201
14.2578
14.2829
14.2955
-7.00394
-7.02636
-7.04366
-7.05468
-7.0588
-7.05556
-7.04453
-7.02529
-6.99747
-6.96072
-6.91472
-6.85921
-6.79394
-6.7187
-6.63334
-6.53771
-6.43171
-6.3153
-6.18846
-6.0512
-5.90358
-5.74567
-5.57756
-5.39939
-5.2113
-5.01346
-4.80606
-4.5893
-4.3634
-4.12861
-3.88518
-3.63337
-3.37347
-3.10577
-2.83058
-2.54822
-2.25901
-1.96329
-1.6614
-1.35371
-1.04057
-0.722344
-0.399415
-0.0721611
0.259034
0.59378
0.931685
1.27235
1.61538
1.96037
2.30692
2.65462
3.00307
3.35186
3.70059
4.04885
4.39625
4.74238
5.08684
5.42923
5.76917
6.10626
6.44011
6.77035
7.09659
7.41847
7.73562
8.04768
8.3543
8.65512
8.94982
9.23805
9.51949
9.79383
10.0608
10.32
10.5712
10.8141
11.0485
11.2741
11.4906
11.6978
11.8955
12.0835
12.2615
12.4293
12.5868
12.7338
12.8701
12.9956
13.1102
13.2136
13.3059
13.3868
13.4563
13.5144
13.5609
13.5958
13.6192
13.6308
-6.45665
-6.46358
-6.46555
-6.46164
-6.45133
-6.43429
-6.41018
-6.3787
-6.33956
-6.29248
-6.23723
-6.17359
-6.10139
-6.02045
-5.93066
-5.8319
-5.72412
-5.60724
-5.48124
-5.34612
-5.20189
-5.04861
-4.88634
-4.71518
-4.53523
-4.34664
-4.14955
-3.94414
-3.73059
-3.50911
-3.27991
-3.04323
-2.7993
-2.5484
-2.29079
-2.02675
-1.75657
-1.48055
-1.19901
-0.912246
-0.620599
-0.324396
-0.0239745
0.280322
0.588144
0.899141
1.21295
1.52922
1.84759
2.16768
2.48913
2.81158
3.13465
3.45797
3.78117
4.10389
4.42575
4.74639
5.06544
5.38254
5.69732
6.00944
6.31853
6.62425
6.92625
7.22418
7.51772
7.80653
8.09028
8.36866
8.64136
8.90807
9.16848
9.42231
9.66928
9.90911
10.1415
10.3663
10.5831
10.7918
10.9922
11.1839
11.3667
11.5406
11.7053
11.8605
12.0062
12.1422
12.2683
12.3844
12.4904
12.5861
12.6714
12.7463
12.8106
12.8643
12.9073
12.9396
12.9612
12.972
-5.9587
-5.953
-5.94296
-5.92761
-5.90644
-5.87919
-5.84558
-5.80536
-5.75827
-5.7041
-5.64264
-5.57369
-5.49711
-5.41275
-5.32049
-5.22025
-5.11194
-4.99554
-4.871
-4.73835
-4.59759
-4.44877
-4.29196
-4.12722
-3.95468
-3.77443
-3.58662
-3.39139
-3.18891
-2.97936
-2.76293
-2.53982
-2.31026
-2.07448
-1.83271
-1.5852
-1.33221
-1.07402
-0.810901
-0.543135
-0.271015
0.00516016
0.285085
0.568451
0.854942
1.14424
1.43602
1.72995
2.02572
2.32297
2.62139
2.92064
3.22037
3.52025
3.81994
4.11912
4.41743
4.71455
5.01014
5.30386
5.5954
5.88442
6.1706
6.45361
6.73314
7.00888
7.28053
7.54776
7.8103
8.06784
8.32011
8.56681
8.80767
9.04244
9.27084
9.49263
9.70755
9.91538
10.1159
10.3088
10.494
10.6713
10.8404
11.0011
11.1533
11.2968
11.4315
11.5572
11.6737
11.781
11.879
11.9674
12.0462
12.1154
12.1749
12.2245
12.2643
12.2941
12.3141
12.324
-5.48814
-5.47217
-5.45222
-5.42735
-5.39714
-5.36136
-5.31981
-5.27228
-5.21858
-5.15852
-5.09195
-5.01872
-4.93869
-4.85176
-4.75784
-4.65685
-4.54873
-4.43345
-4.31098
-4.18133
-4.0445
-3.90054
-3.74949
-3.59143
-3.42643
-3.25461
-3.07606
-2.89093
-2.69935
-2.50149
-2.2975
-2.08758
-1.87191
-1.6507
-1.42416
-1.19251
-0.955986
-0.714827
-0.469281
-0.219603
0.0339447
0.291093
0.551569
0.815092
1.08138
1.35014
1.62108
1.89391
2.16832
2.44403
2.72071
2.99807
3.2758
3.5536
3.83116
4.10816
4.38431
4.6593
4.93282
5.20457
5.47424
5.74155
6.00619
6.26788
6.52631
6.78121
7.03229
7.27928
7.52189
7.75988
7.99296
8.22089
8.44342
8.66029
8.87128
9.07614
9.27466
9.46661
9.65178
9.82998
10.001
10.1647
10.3208
10.4692
10.6098
10.7423
10.8666
10.9827
11.0903
11.1894
11.2798
11.3614
11.4342
11.4981
11.5529
11.5988
11.6355
11.6631
11.6814
11.6906
-5.05331
-5.02895
-5.00106
-4.96869
-4.93143
-4.88911
-4.84155
-4.7886
-4.73008
-4.66585
-4.59578
-4.51974
-4.43763
-4.34936
-4.25484
-4.15403
-4.04687
-3.93333
-3.8134
-3.68708
-3.55439
-3.41536
-3.27004
-3.11849
-2.96078
-2.797
-2.62725
-2.45166
-2.27034
-2.08344
-1.8911
-1.69349
-1.49078
-1.28314
-1.07078
-0.853879
-0.632654
-0.407318
-0.178094
0.0547881
0.291094
0.530582
0.773004
1.01811
1.26564
1.51534
1.76694
2.02017
2.27476
2.53044
2.78694
3.04398
3.30128
3.55856
3.81554
4.07194
4.32749
4.5819
4.8349
5.08622
5.33557
5.58268
5.82729
6.06913
6.30793
6.54343
6.77537
7.00351
7.22758
7.44735
7.66258
7.87303
8.07847
8.27868
8.47344
8.66253
8.84575
9.0229
9.1938
9.35824
9.51606
9.66707
9.81113
9.94806
10.0777
10.2
10.3147
10.4218
10.521
10.6124
10.6958
10.7711
10.8383
10.8972
10.9478
10.99
11.0239
11.0493
11.0663
11.0748
-4.64749
-4.61642
-4.58217
-4.54383
-4.501
-4.45354
-4.40132
-4.34421
-4.28207
-4.2148
-4.14227
-4.0644
-3.9811
-3.8923
-3.79794
-3.69796
-3.59234
-3.48105
-3.36408
-3.24144
-3.11315
-2.97922
-2.83972
-2.69468
-2.54419
-2.38831
-2.22714
-2.06078
-1.88935
-1.71296
-1.53176
-1.34588
-1.15547
-0.960708
-0.761751
-0.55878
-0.35198
-0.141545
0.072327
0.289429
0.50955
0.732473
0.957975
1.18583
1.4158
1.64766
1.88117
2.11608
2.35215
2.58913
2.82678
3.06484
3.30306
3.54119
3.77897
4.01615
4.25248
4.4877
4.72156
4.95382
5.18421
5.4125
5.63843
5.86176
6.08226
6.29968
6.51378
6.72434
6.93114
7.13393
7.33252
7.52667
7.71619
7.90086
8.08049
8.25489
8.42386
8.58722
8.7448
8.89642
9.04192
9.18115
9.31396
9.44019
9.55972
9.67242
9.77816
9.87683
9.96832
10.0525
10.1294
10.1988
10.2607
10.315
10.3616
10.4006
10.4318
10.4552
10.4709
10.4787
-4.27158
-4.23514
-4.19588
-4.1529
-4.10581
-4.0545
-3.99886
-3.93879
-3.87418
-3.80494
-3.73097
-3.65221
-3.56857
-3.48002
-3.38649
-3.28795
-3.18438
-3.07576
-2.96208
-2.84336
-2.71961
-2.59086
-2.45715
-2.31854
-2.17508
-2.02685
-1.87392
-1.7164
-1.55438
-1.38797
-1.2173
-1.04249
-0.863675
-0.681003
-0.494627
-0.304706
-0.111405
0.0851015
0.284635
0.48701
0.692036
0.899519
1.10926
1.32104
1.53468
1.74994
1.96661
2.18448
2.40333
2.62292
2.84304
3.06346
3.28395
3.50428
3.72422
3.94354
4.16201
4.37941
4.59549
4.81003
5.02282
5.23361
5.44219
5.64833
5.85182
6.05244
6.24997
6.44421
6.63494
6.82196
7.00508
7.1841
7.35882
7.52905
7.69463
7.85536
8.01109
8.16163
8.30683
8.44654
8.5806
8.70887
8.83121
8.9475
9.05761
9.16141
9.25881
9.34969
9.43396
9.51152
9.5823
9.64622
9.70321
9.75321
9.79617
9.83203
9.86077
9.88235
9.89675
9.90394
-3.92266
-3.88204
-3.83892
-3.79241
-3.74214
-3.68801
-3.62994
-3.56786
-3.50167
-3.4313
-3.35668
-3.27774
-3.19444
-3.10673
-3.01458
-2.91795
-2.81683
-2.71121
-2.60109
-2.48648
-2.36741
-2.24389
-2.11597
-1.9837
-1.84713
-1.70633
-1.56138
-1.41235
-1.25934
-1.10245
-0.941793
-0.777473
-0.609618
-0.438359
-0.263832
-0.0861802
0.094446
0.277891
0.463995
0.65259
0.843506
1.03657
1.23159
1.42839
1.62678
1.82658
2.02757
2.22958
2.43239
2.63581
2.83963
3.04364
3.24765
3.45143
3.65479
3.85752
4.0594
4.26023
4.4598
4.6579
4.85432
5.04887
5.24134
5.43152
5.61922
5.80424
5.98639
6.16546
6.34129
6.51367
6.68243
6.84739
7.00838
7.16522
7.31774
7.4658
7.60922
7.74787
7.88158
8.01023
8.13367
8.25177
8.3644
8.47146
8.57282
8.66837
8.75802
8.84167
8.91923
8.99062
9.05576
9.11459
9.16703
9.21305
9.25258
9.28558
9.31202
9.33188
9.34513
9.35175
-3.59984
-3.55601
-3.50999
-3.46089
-3.40834
-3.35228
-3.29264
-3.22935
-3.16235
-3.09158
-3.01697
-2.93849
-2.85609
-2.76973
-2.67939
-2.58506
-2.48672
-2.38436
-2.27799
-2.16763
-2.0533
-1.93502
-1.81283
-1.68679
-1.55693
-1.42332
-1.28603
-1.14514
-1.00073
-0.852888
-0.701714
-0.547313
-0.389795
-0.229277
-0.0658835
0.100257
0.269009
0.440234
0.613785
0.789513
0.967264
1.14688
1.32819
1.51104
1.69526
1.88066
2.06709
2.25435
2.44227
2.63066
2.81935
3.00813
3.19684
3.38528
3.57326
3.76059
3.94709
4.13256
4.31681
4.49967
4.68093
4.86042
5.03796
5.21335
5.38642
5.55698
5.72487
5.8899
6.05191
6.21073
6.36619
6.51812
6.66638
6.81081
6.95125
7.08755
7.21958
7.3472
7.47028
7.58867
7.70227
7.81094
7.91458
8.01308
8.10634
8.19425
8.27672
8.35367
8.42501
8.49068
8.5506
8.6047
8.65294
8.69526
8.73161
8.76197
8.78629
8.80455
8.81674
8.82283
-3.30123
-3.25504
-3.20693
-3.15603
-3.10198
-3.04472
-2.9842
-2.92038
-2.8532
-2.78261
-2.70856
-2.63103
-2.54998
-2.46538
-2.37722
-2.28548
-2.19016
-2.09126
-1.98879
-1.88277
-1.77321
-1.66014
-1.54361
-1.42365
-1.30031
-1.17366
-1.04375
-0.910648
-0.77444
-0.635204
-0.493029
-0.34801
-0.200247
-0.0498472
0.103079
0.258415
0.416038
0.575822
0.737637
0.901347
1.06681
1.23389
1.40244
1.57229
1.74332
1.91535
2.08822
2.26179
2.43588
2.61032
2.78496
2.95963
3.13415
3.30836
3.48208
3.65514
3.82738
3.99863
4.1687
4.33743
4.50466
4.67021
4.83392
4.99561
5.15513
5.31232
5.46701
5.61905
5.76827
5.91453
6.05768
6.19757
6.33405
6.46699
6.59624
6.72168
6.84317
6.96058
7.07381
7.18272
7.28721
7.38717
7.48249
7.57307
7.65883
7.73966
7.81549
7.88624
7.95184
8.01221
8.06729
8.11704
8.16138
8.20028
8.2337
8.2616
8.28396
8.30075
8.31195
8.31755
-3.02555
-2.97771
-2.92819
-2.87615
-2.82123
-2.76338
-2.70258
-2.63877
-2.57193
-2.50201
-2.42897
-2.3528
-2.27346
-2.19094
-2.10523
-2.01632
-1.92421
-1.82891
-1.73043
-1.62877
-1.52398
-1.41607
-1.30508
-1.19106
-1.07404
-0.954086
-0.831251
-0.705602
-0.577208
-0.446144
-0.312491
-0.176336
-0.0377703
0.103111
0.246205
0.391409
0.53861
0.687695
0.838546
0.991041
1.14505
1.30045
1.45711
1.61489
1.77365
1.93325
2.09355
2.2544
2.41566
2.57718
2.7388
2.90037
3.06175
3.22278
3.3833
3.54316
3.70221
3.86028
4.01723
4.17291
4.32715
4.4798
4.63072
4.77976
4.92676
5.07158
5.21407
5.35409
5.4915
5.62616
5.75793
5.88668
6.01228
6.1346
6.25352
6.36891
6.48066
6.58866
6.69278
6.79294
6.88901
6.98091
7.06854
7.15182
7.23064
7.30494
7.37464
7.43967
7.49995
7.55543
7.60605
7.65176
7.69251
7.72825
7.75896
7.7846
7.80514
7.82056
7.83085
7.836
-2.77126
-2.72237
-2.67203
-2.6194
-2.56414
-2.50622
-2.44561
-2.38228
-2.3162
-2.24734
-2.17567
-2.10118
-2.02384
-1.94366
-1.86061
-1.7747
-1.68593
-1.59431
-1.49985
-1.40258
-1.30251
-1.19967
-1.0941
-0.985843
-0.874933
-0.761425
-0.645373
-0.526835
-0.405877
-0.282569
-0.156983
-0.0291985
0.100701
0.232628
0.366492
0.502195
0.63964
0.778721
0.919333
1.06136
1.2047
1.34923
1.49483
1.64137
1.78873
1.9368
2.08542
2.23448
2.38385
2.53338
2.68294
2.8324
2.98161
3.13044
3.27874
3.42639
3.57324
3.71914
3.86396
4.00756
4.1498
4.29055
4.42966
4.567
4.70244
4.83583
4.96706
5.09599
5.22249
5.34644
5.46771
5.58618
5.70174
5.81426
5.92364
6.02977
6.13253
6.23183
6.32756
6.41963
6.50794
6.59241
6.67295
6.74948
6.82191
6.89018
6.95422
7.01397
7.06935
7.12032
7.16682
7.2088
7.24623
7.27907
7.30727
7.33082
7.34969
7.36385
7.3733
7.37803
-2.53705
-2.48761
-2.43692
-2.38417
-2.32902
-2.27144
-2.21142
-2.14893
-2.08396
-2.01648
-1.94646
-1.87391
-1.7988
-1.72113
-1.64089
-1.5581
-1.47275
-1.38486
-1.29444
-1.20151
-1.1061
-1.00823
-0.907934
-0.805254
-0.700231
-0.59291
-0.483343
-0.371584
-0.257694
-0.141735
-0.0237764
0.0961105
0.21785
0.341362
0.466563
0.593367
0.721682
0.851415
0.98247
1.11475
1.24814
1.38255
1.51786
1.65396
1.79075
1.9281
2.0659
2.20403
2.34237
2.48081
2.6192
2.75744
2.8954
3.03295
3.16997
3.30633
3.4419
3.57656
3.71018
3.84263
3.9738
4.10355
4.23176
4.35831
4.48308
4.60594
4.72678
4.84548
4.96192
5.07599
5.18758
5.29657
5.40287
5.50637
5.60695
5.70453
5.79901
5.8903
5.97829
6.06291
6.14407
6.22169
6.29569
6.366
6.43255
6.49527
6.55409
6.60897
6.65984
6.70665
6.74935
6.78791
6.82228
6.85243
6.87833
6.89996
6.91728
6.93029
6.93897
6.94331
-2.32156
-2.272
-2.22136
-2.16887
-2.11419
-2.05729
-1.99819
-1.93685
-1.87326
-1.8074
-1.73927
-1.66884
-1.59612
-1.5211
-1.44379
-1.36419
-1.2823
-1.19815
-1.11174
-1.0231
-0.932248
-0.839218
-0.744039
-0.646747
-0.547382
-0.445988
-0.342612
-0.237305
-0.130123
-0.0211245
0.0896287
0.20207
0.316131
0.431738
0.548816
0.667285
0.787063
0.908064
1.0302
1.15338
1.27752
1.40251
1.52826
1.65467
1.78164
1.90905
2.03682
2.16483
2.29296
2.42112
2.54919
2.67706
2.80461
2.93174
3.05833
3.18426
3.30942
3.43371
3.55699
3.67916
3.80011
3.91972
4.03788
4.15448
4.26941
4.38257
4.49383
4.6031
4.71028
4.81525
4.91792
5.01819
5.11596
5.21113
5.30362
5.39334
5.48019
5.56409
5.64497
5.72273
5.7973
5.86862
5.93661
6.00119
6.06232
6.11993
6.17395
6.22435
6.27106
6.31404
6.35326
6.38866
6.42022
6.4479
6.47168
6.49153
6.50744
6.51938
6.52734
6.53133
-2.12353
-2.07421
-2.02396
-1.97204
-1.91813
-1.8622
-1.80426
-1.74431
-1.68232
-1.61828
-1.55219
-1.48404
-1.41383
-1.34156
-1.26723
-1.19085
-1.11243
-1.03199
-0.949545
-0.865111
-0.778715
-0.690383
-0.600147
-0.508042
-0.414104
-0.318375
-0.220899
-0.121725
-0.020902
0.0815145
0.185467
0.290896
0.397737
0.505924
0.615388
0.726056
0.837853
0.950703
1.06453
1.17924
1.29476
1.41099
1.52786
1.64527
1.76312
1.88133
1.9998
2.11843
2.23712
2.35577
2.47429
2.59257
2.71052
2.82802
2.94498
3.06129
3.17685
3.29155
3.4053
3.518
3.62953
3.73979
3.8487
3.95613
4.062
4.16621
4.26866
4.36926
4.4679
4.56449
4.65896
4.75119
4.84112
4.92864
5.01368
5.09616
5.176
5.25311
5.32743
5.39889
5.46741
5.53293
5.59538
5.65471
5.71085
5.76375
5.81337
5.85964
5.90254
5.942
5.97801
6.01051
6.03948
6.06489
6.08672
6.10495
6.11955
6.13051
6.13782
6.14148
-1.94177
-1.89297
-1.84338
-1.79229
-1.73938
-1.68464
-1.62809
-1.5697
-1.50948
-1.4474
-1.38348
-1.31771
-1.25008
-1.18061
-1.10929
-1.03615
-0.961178
-0.884405
-0.805845
-0.725518
-0.643448
-0.559662
-0.47419
-0.387063
-0.298319
-0.207995
-0.116134
-0.0227786
0.0720228
0.16822
0.265761
0.364589
0.464647
0.565873
0.668205
0.771575
0.875917
0.98116
1.08723
1.19406
1.30156
1.40966
1.51827
1.62733
1.73673
1.84641
1.95626
2.06621
2.17616
2.28603
2.39572
2.50515
2.61421
2.72283
2.8309
2.93833
3.04504
3.15092
3.25589
3.35984
3.4627
3.56436
3.66473
3.76373
3.86127
3.95725
4.05158
4.14419
4.23499
4.32388
4.41079
4.49565
4.57835
4.65885
4.73704
4.81287
4.88626
4.95713
5.02543
5.09109
5.15405
5.21424
5.27161
5.3261
5.37766
5.42625
5.47181
5.5143
5.55369
5.58992
5.62298
5.65282
5.67941
5.70274
5.72278
5.73951
5.75291
5.76297
5.76968
5.77304
-1.77511
-1.72708
-1.67837
-1.62831
-1.5766
-1.52323
-1.46821
-1.41154
-1.3532
-1.2932
-1.23153
-1.1682
-1.1032
-1.03655
-0.968249
-0.89831
-0.826747
-0.753574
-0.67881
-0.602475
-0.524594
-0.445191
-0.364296
-0.281939
-0.198155
-0.112979
-0.0264506
0.0613891
0.150496
0.240824
0.332324
0.424945
0.518634
0.613334
0.708988
0.805536
0.902916
1.00106
1.09991
1.19939
1.29944
1.39998
1.50094
1.60224
1.70381
1.80558
1.90746
2.00937
2.11125
2.21299
2.31453
2.41577
2.51665
2.61706
2.71694
2.81619
2.91473
3.01248
3.10935
3.20526
3.30013
3.39387
3.4864
3.57764
3.6675
3.75591
3.84279
3.92806
4.01164
4.09345
4.17343
4.25149
4.32757
4.4016
4.47351
4.54323
4.61069
4.67584
4.73861
4.79895
4.8568
4.9121
4.9648
5.01485
5.06221
5.10684
5.14868
5.1877
5.22386
5.25713
5.28748
5.31487
5.33929
5.36071
5.3791
5.39446
5.40676
5.41599
5.42215
5.42523
-1.62248
-1.57539
-1.52774
-1.47889
-1.42853
-1.37666
-1.32329
-1.26843
-1.21207
-1.15421
-1.09485
-1.03399
-0.971645
-0.907811
-0.842501
-0.775727
-0.707504
-0.637847
-0.566774
-0.494307
-0.420466
-0.345279
-0.268771
-0.190973
-0.111916
-0.0316349
0.0498345
0.132453
0.216181
0.300975
0.386789
0.473577
0.56129
0.649876
0.739283
0.829455
0.920336
1.01187
1.10399
1.19664
1.28975
1.38327
1.47712
1.57123
1.66555
1.75999
1.85449
1.94898
2.04338
2.13761
2.23162
2.32532
2.41863
2.51148
2.6038
2.69551
2.78653
2.87679
2.96621
3.05471
3.14223
3.22868
3.31399
3.39809
3.4809
3.56236
3.64238
3.7209
3.79785
3.87316
3.94677
4.0186
4.08859
4.15669
4.22282
4.28693
4.34896
4.40885
4.46655
4.522
4.57516
4.62598
4.6744
4.72038
4.76389
4.80487
4.8433
4.87914
4.91235
4.9429
4.97076
4.99592
5.01834
5.038
5.05488
5.06898
5.08027
5.08875
5.09441
5.09724
-1.48282
-1.43685
-1.3904
-1.34287
-1.29397
-1.2437
-1.19208
-1.13911
-1.08478
-1.02911
-0.972079
-0.913706
-0.853994
-0.792953
-0.730592
-0.666923
-0.601962
-0.535723
-0.468226
-0.39949
-0.329538
-0.258393
-0.186081
-0.112631
-0.038073
0.0375614
0.114238
0.191921
0.270572
0.350153
0.43062
0.511931
0.59404
0.676901
0.760465
0.844682
0.9295
1.01486
1.10072
1.18702
1.27369
1.36068
1.44794
1.53539
1.62298
1.71064
1.79831
1.88592
1.97342
2.06072
2.14777
2.2345
2.32084
2.40672
2.49207
2.57683
2.66093
2.74429
2.82685
2.90854
2.98929
3.06904
3.14772
3.22525
3.30158
3.37664
3.45037
3.52269
3.59356
3.6629
3.73065
3.79676
3.86117
3.92382
3.98465
4.04362
4.10066
4.15573
4.20878
4.25975
4.30861
4.35531
4.39981
4.44206
4.48203
4.51969
4.55499
4.5879
4.6184
4.64646
4.67205
4.69515
4.71574
4.73379
4.7493
4.76224
4.77261
4.78039
4.78559
4.78818
-1.35518
-1.31044
-1.26529
-1.21918
-1.17183
-1.12324
-1.07342
-1.02238
-0.970121
-0.916643
-0.861951
-0.806051
-0.748951
-0.690661
-0.63119
-0.570552
-0.508762
-0.445835
-0.38179
-0.316645
-0.250423
-0.183146
-0.114839
-0.0455294
0.0247552
0.0959844
0.168127
0.241148
0.315014
0.389687
0.46513
0.541301
0.61816
0.695663
0.773765
0.852422
0.931584
1.0112
1.09123
1.17162
1.25231
1.33324
1.41438
1.49565
1.57701
1.6584
1.73975
1.82101
1.90212
1.98302
2.06366
2.14396
2.22386
2.30331
2.38225
2.4606
2.53832
2.61533
2.69158
2.767
2.84153
2.91512
2.98769
3.0592
3.12958
3.19876
3.26671
3.33334
3.39862
3.46248
3.52486
3.58573
3.64501
3.70266
3.75864
3.81288
3.86535
3.916
3.96478
4.01165
4.05657
4.0995
4.1404
4.17923
4.21597
4.25056
4.283
4.31324
4.34126
4.36704
4.39055
4.41176
4.43067
4.44725
4.46149
4.47338
4.4829
4.49005
4.49482
4.4972
-1.23863
-1.19521
-1.15145
-1.10683
-1.06108
-1.01421
-0.96623
-0.917148
-0.866965
-0.815685
-0.763314
-0.709859
-0.655328
-0.599731
-0.54308
-0.485388
-0.426669
-0.366939
-0.306216
-0.244518
-0.181866
-0.118283
-0.0537918
0.0115825
0.077813
0.144872
0.212728
0.281352
0.350711
0.42077
0.491493
0.562845
0.634786
0.707277
0.780277
0.853744
0.927635
1.0019
1.07651
1.1514
1.22653
1.30185
1.3773
1.45285
1.52844
1.60402
1.67953
1.75492
1.83013
1.90512
1.97983
2.05419
2.12817
2.20169
2.27472
2.34718
2.41902
2.49019
2.56063
2.63028
2.6991
2.76702
2.83399
2.89995
2.96486
3.02866
3.09129
3.1527
3.21285
3.27168
3.32914
3.38519
3.43977
3.49284
3.54436
3.59428
3.64256
3.68916
3.73403
3.77714
3.81845
3.85792
3.89552
3.93123
3.96499
3.99679
4.02661
4.0544
4.08015
4.10383
4.12543
4.14493
4.1623
4.17753
4.19061
4.20153
4.21028
4.21685
4.22123
4.22342
-1.13232
-1.09028
-1.04797
-1.00488
-0.960773
-0.915646
-0.86952
-0.822398
-0.774285
-0.725185
-0.675104
-0.624051
-0.572034
-0.519064
-0.465152
-0.410312
-0.354558
-0.297905
-0.240371
-0.181974
-0.122733
-0.0626704
-0.00180748
0.0598315
0.122222
0.185336
0.249148
0.313627
0.378744
0.444466
0.510761
0.577596
0.644934
0.712739
0.780974
0.8496
0.918577
0.987864
1.05742
1.1272
1.19717
1.26727
1.33747
1.40772
1.47796
1.54816
1.61826
1.68822
1.75799
1.82752
1.89676
1.96566
2.03416
2.10223
2.1698
2.23683
2.30327
2.36906
2.43416
2.49851
2.56207
2.62478
2.6866
2.74748
2.80736
2.8662
2.92396
2.98058
3.03602
3.09024
3.14318
3.19482
3.24509
3.29396
3.3414
3.38736
3.43179
3.47467
3.51597
3.55563
3.59363
3.62994
3.66453
3.69736
3.72841
3.75765
3.78506
3.81061
3.83428
3.85605
3.87591
3.89382
3.90979
3.92379
3.93581
3.94584
3.95388
3.95992
3.96394
3.96595
-1.03542
-0.994818
-0.953986
-0.912464
-0.870014
-0.826643
-0.782369
-0.737197
-0.691132
-0.64418
-0.596347
-0.547642
-0.498074
-0.447655
-0.396395
-0.344308
-0.291407
-0.237709
-0.183229
-0.127985
-0.0719964
-0.0152827
0.0421346
0.100233
0.15899
0.218379
0.278375
0.338951
0.400079
0.461729
0.523872
0.586475
0.649506
0.712932
0.776718
0.840829
0.905228
0.969878
1.03474
1.09978
1.16495
1.23022
1.29553
1.36086
1.42616
1.49138
1.55649
1.62143
1.68617
1.75066
1.81485
1.8787
1.94216
2.0052
2.06775
2.12978
2.19124
2.25208
2.31227
2.37175
2.43047
2.4884
2.54549
2.60169
2.65696
2.71126
2.76454
2.81676
2.86789
2.91787
2.96668
3.01426
3.06058
3.10561
3.1493
3.19162
3.23254
3.27202
3.31003
3.34654
3.38151
3.41493
3.44675
3.47695
3.50552
3.53242
3.55762
3.58112
3.60289
3.62291
3.64117
3.65764
3.67232
3.68519
3.69624
3.70547
3.71286
3.7184
3.7221
3.72395
-0.9472
-0.908055
-0.868722
-0.828775
-0.787987
-0.746366
-0.703929
-0.660683
-0.616634
-0.571786
-0.526149
-0.47973
-0.432539
-0.384587
-0.335886
-0.286448
-0.236287
-0.185419
-0.133858
-0.0816213
-0.0287277
0.0248041
0.0789541
0.133701
0.189023
0.244897
0.301298
0.358202
0.415581
0.47341
0.53166
0.590302
0.649305
0.70864
0.768274
0.828175
0.888309
0.948644
1.00914
1.06977
1.13049
1.19127
1.25206
1.31284
1.37356
1.43418
1.49466
1.55497
1.61506
1.67489
1.73442
1.79362
1.85243
1.91083
1.96876
2.02618
2.08306
2.13936
2.19502
2.25001
2.3043
2.35783
2.41057
2.46248
2.51351
2.56364
2.61281
2.661
2.70817
2.75427
2.79927
2.84314
2.88584
2.92734
2.96761
3.0066
3.0443
3.08066
3.11567
3.14928
3.18148
3.21224
3.24154
3.26934
3.29563
3.32038
3.34357
3.36519
3.38522
3.40364
3.42043
3.43559
3.44909
3.46092
3.47109
3.47957
3.48637
3.49147
3.49487
3.49658
-0.866941
-0.829269
-0.791442
-0.753067
-0.713932
-0.674042
-0.633417
-0.592064
-0.549987
-0.507194
-0.463692
-0.41949
-0.374598
-0.329027
-0.282787
-0.235893
-0.188356
-0.140192
-0.0914152
-0.0420421
0.00791007
0.0584234
0.109479
0.161057
0.213136
0.265695
0.318712
0.372162
0.426022
0.480267
0.53487
0.589804
0.645042
0.700556
0.756317
0.812294
0.868457
0.924774
0.981215
1.03775
1.09434
1.15095
1.20755
1.26411
1.32058
1.37694
1.43315
1.48917
1.54497
1.60051
1.65574
1.71065
1.76518
1.8193
1.87297
1.92615
1.97882
2.03092
2.08242
2.1333
2.18349
2.23299
2.28173
2.3297
2.37684
2.42314
2.46855
2.51303
2.55656
2.59911
2.64063
2.68109
2.72047
2.75874
2.79586
2.8318
2.86655
2.90006
2.93231
2.96328
2.99294
3.02127
3.04825
3.07385
3.09806
3.12085
3.1422
3.1621
3.18054
3.19749
3.21294
3.22689
3.23931
3.2502
3.25956
3.26737
3.27362
3.27831
3.28144
3.28301
-0.793991
-0.757791
-0.721465
-0.684649
-0.647146
-0.608962
-0.570114
-0.530611
-0.490457
-0.449659
-0.408227
-0.366168
-0.323493
-0.280212
-0.236336
-0.191878
-0.146849
-0.101265
-0.0551401
-0.00848893
0.0386718
0.0863252
0.134453
0.183037
0.232058
0.281495
0.331327
0.381533
0.432089
0.482973
0.534161
0.585627
0.637347
0.689294
0.741441
0.793761
0.846226
0.898807
0.951476
1.0042
1.05695
1.1097
1.16242
1.21507
1.26762
1.32004
1.37229
1.42435
1.47618
1.52775
1.57902
1.62997
1.68054
1.73072
1.78047
1.82975
1.87853
1.92678
1.97446
2.02154
2.06799
2.11376
2.15884
2.20318
2.24676
2.28954
2.33149
2.37257
2.41277
2.45205
2.49037
2.52772
2.56406
2.59936
2.6336
2.66675
2.69879
2.72968
2.75942
2.78796
2.8153
2.84141
2.86627
2.88985
2.91215
2.93314
2.95281
2.97114
2.98812
3.00373
3.01796
3.0308
3.04224
3.05227
3.06088
3.06806
3.07382
3.07814
3.08102
3.08246
-0.72774
-0.693002
-0.65816
-0.622882
-0.586983
-0.550469
-0.513357
-0.475654
-0.437367
-0.398504
-0.359071
-0.319078
-0.278535
-0.237452
-0.19584
-0.15371
-0.111075
-0.0679488
-0.0243447
0.0197225
0.0642374
0.109184
0.154545
0.200304
0.246442
0.292939
0.339778
0.386936
0.434394
0.482129
0.53012
0.578343
0.626775
0.675393
0.72417
0.773083
0.822105
0.87121
0.920372
0.969563
1.01876
1.06792
1.11703
1.16606
1.21498
1.26375
1.31235
1.36075
1.40891
1.45682
1.50443
1.55172
1.59865
1.6452
1.69133
1.73702
1.78223
1.82692
1.87109
1.91468
1.95767
2.00003
2.04174
2.08275
2.12305
2.1626
2.20137
2.23934
2.27648
2.31276
2.34816
2.38264
2.41619
2.44878
2.48038
2.51097