/*--------------------------------*- C++ -*----------------------------------*\
  =========                 |
  \\      /  F ield         | OpenFOAM: The Open Source CFD Toolbox
   \\    /   O peration     | Website:  https://openfoam.org
    \\  /    A nd           | Version:  8
     \\/     M anipulation  |
\*---------------------------------------------------------------------------*/
FoamFile
{
    version     2.0;
    format      ascii;
    class       volScalarField;
    location    "0.1";
    object      nut;
}
// * * * * * * * * * * * * * * * * * * * * * * * * * * * * * * * * * * * * * //

dimensions      [0 2 -1 0 0 0 0];

internalField   nonuniform List<scalar> 
277560
(
0.00996134
0.0099616
0.00996138
0.00996081
0.00995999
0.00995903
0.00995798
0.0099569
0.00995584
0.00995483
0.0099539
0.00995306
0.00995232
0.0099517
0.00995119
0.00995079
0.00995051
0.00995035
0.0099503
0.00995037
0.00995053
0.0099508
0.00995116
0.00995161
0.00995215
0.00995276
0.00995344
0.00995418
0.00995497
0.00995581
0.00995668
0.00995758
0.00995851
0.00995946
0.00996042
0.00996138
0.00996235
0.00996333
0.00996429
0.00996526
0.00996621
0.00996716
0.00996809
0.009969
0.0099699
0.00997078
0.00997164
0.00997248
0.0099733
0.0099741
0.00997488
0.00997563
0.00997636
0.00997706
0.00997774
0.00997839
0.00997901
0.00997962
0.0099802
0.00998076
0.00998129
0.00998181
0.00998231
0.0099828
0.00998326
0.00998371
0.00998415
0.00998458
0.00998499
0.00998539
0.00998578
0.00998615
0.00998652
0.00998687
0.00998722
0.00998755
0.00998787
0.00998818
0.00998848
0.00998877
0.00998905
0.00998932
0.00998958
0.00998982
0.00999006
0.00999029
0.00999051
0.00999072
0.00999092
0.00999111
0.0099913
0.00999148
0.00999166
0.00999183
0.00999199
0.00999215
0.0099923
0.00999245
0.00999259
0.00999272
0.00999284
0.00999296
0.00999306
0.00999314
0.00999321
0.00999326
0.00999328
0.00999328
0.00999324
0.00999317
0.00999305
0.00999288
0.00999266
0.00999238
0.00999203
0.00999161
0.0099911
0.00999051
0.00998981
0.00998902
0.00996217
0.00996242
0.00996218
0.00996159
0.00996075
0.00995976
0.00995868
0.00995756
0.00995646
0.00995541
0.00995444
0.00995355
0.00995277
0.00995211
0.00995156
0.00995113
0.00995081
0.00995061
0.00995053
0.00995056
0.0099507
0.00995095
0.0099513
0.00995174
0.00995227
0.00995288
0.00995357
0.00995433
0.00995514
0.00995601
0.00995691
0.00995786
0.00995883
0.00995982
0.00996082
0.00996184
0.00996286
0.00996389
0.00996491
0.00996592
0.00996693
0.00996792
0.0099689
0.00996986
0.00997081
0.00997173
0.00997264
0.00997352
0.00997438
0.00997522
0.00997604
0.00997684
0.00997761
0.00997835
0.00997907
0.00997976
0.00998043
0.00998106
0.00998167
0.00998226
0.00998281
0.00998335
0.00998386
0.00998436
0.00998483
0.00998529
0.00998573
0.00998615
0.00998657
0.00998696
0.00998735
0.00998773
0.00998809
0.00998845
0.00998879
0.00998913
0.00998946
0.00998978
0.00999008
0.00999038
0.00999067
0.00999095
0.00999121
0.00999147
0.00999171
0.00999194
0.00999216
0.00999237
0.00999257
0.00999276
0.00999294
0.00999311
0.00999328
0.00999343
0.00999358
0.00999372
0.00999386
0.00999399
0.00999411
0.00999423
0.00999434
0.00999443
0.00999452
0.00999459
0.00999465
0.00999468
0.00999469
0.00999466
0.0099946
0.0099945
0.00999434
0.00999413
0.00999385
0.00999349
0.00999306
0.00999254
0.00999193
0.00999122
0.00999042
0.00998951
0.00996302
0.00996324
0.00996297
0.00996234
0.00996146
0.00996042
0.00995927
0.00995809
0.00995691
0.00995578
0.00995473
0.00995376
0.00995291
0.00995216
0.00995153
0.00995102
0.00995064
0.00995037
0.00995023
0.0099502
0.00995029
0.0099505
0.00995081
0.00995123
0.00995176
0.00995238
0.00995308
0.00995387
0.00995474
0.00995566
0.00995664
0.00995767
0.00995874
0.00995983
0.00996094
0.00996207
0.0099632
0.00996434
0.00996547
0.0099666
0.00996772
0.00996883
0.00996992
0.00997099
0.00997204
0.00997306
0.00997405
0.00997503
0.00997598
0.00997691
0.00997782
0.0099787
0.00997956
0.0099804
0.00998121
0.00998198
0.00998272
0.00998343
0.00998411
0.00998475
0.00998536
0.00998593
0.00998648
0.00998699
0.00998749
0.00998795
0.00998839
0.00998881
0.00998921
0.00998958
0.00998994
0.00999028
0.0099906
0.0099909
0.00999119
0.00999146
0.00999172
0.00999196
0.00999218
0.00999239
0.00999259
0.00999277
0.00999293
0.00999309
0.00999322
0.00999335
0.00999346
0.00999356
0.00999365
0.00999373
0.0099938
0.00999386
0.00999392
0.00999396
0.009994
0.00999403
0.00999406
0.00999409
0.00999411
0.00999412
0.00999414
0.00999414
0.00999415
0.00999414
0.00999413
0.0099941
0.00999406
0.00999399
0.0099939
0.00999378
0.00999361
0.00999339
0.0099931
0.00999275
0.00999232
0.00999179
0.00999117
0.00999045
0.00998961
0.00998867
0.00996395
0.00996414
0.00996384
0.00996317
0.00996223
0.00996111
0.00995988
0.00995859
0.0099573
0.00995606
0.00995488
0.00995379
0.00995281
0.00995194
0.00995119
0.00995056
0.00995005
0.00994968
0.00994942
0.0099493
0.0099493
0.00994943
0.00994969
0.00995006
0.00995056
0.00995117
0.00995188
0.0099527
0.00995362
0.00995462
0.00995569
0.00995684
0.00995803
0.00995927
0.00996055
0.00996184
0.00996315
0.00996446
0.00996577
0.00996708
0.00996838
0.00996966
0.00997093
0.00997216
0.00997336
0.00997452
0.00997564
0.00997671
0.00997774
0.00997873
0.00997967
0.00998058
0.00998144
0.00998226
0.00998304
0.00998378
0.00998448
0.00998514
0.00998575
0.00998633
0.00998688
0.00998739
0.00998786
0.00998831
0.00998872
0.0099891
0.00998946
0.00998979
0.0099901
0.00999039
0.00999065
0.00999088
0.0099911
0.0099913
0.00999148
0.00999164
0.00999178
0.0099919
0.009992
0.00999209
0.00999216
0.00999222
0.00999226
0.00999228
0.00999229
0.00999229
0.00999227
0.00999224
0.0099922
0.00999215
0.00999209
0.00999201
0.00999194
0.00999185
0.00999176
0.00999166
0.00999157
0.00999147
0.00999137
0.00999127
0.00999117
0.00999107
0.00999098
0.0099909
0.00999082
0.00999076
0.00999069
0.00999062
0.00999053
0.00999042
0.00999028
0.0099901
0.00998988
0.00998959
0.00998924
0.00998882
0.0099883
0.0099877
0.009987
0.00998618
0.00996508
0.00996526
0.00996493
0.00996421
0.0099632
0.00996199
0.00996064
0.00995922
0.00995778
0.00995637
0.00995502
0.00995376
0.0099526
0.00995155
0.00995062
0.00994982
0.00994914
0.0099486
0.00994819
0.00994791
0.00994777
0.00994777
0.00994791
0.00994819
0.00994861
0.00994916
0.00994985
0.00995067
0.00995161
0.00995266
0.00995383
0.0099551
0.00995645
0.00995787
0.00995934
0.00996086
0.00996238
0.00996391
0.0099654
0.00996687
0.00996829
0.00996966
0.00997097
0.00997224
0.00997345
0.00997461
0.00997571
0.00997676
0.00997776
0.00997871
0.00997961
0.00998047
0.00998128
0.00998204
0.00998275
0.00998343
0.00998406
0.00998464
0.00998519
0.0099857
0.00998616
0.0099866
0.00998699
0.00998736
0.00998769
0.00998799
0.00998826
0.00998851
0.00998872
0.00998892
0.00998908
0.00998922
0.00998934
0.00998944
0.00998952
0.00998957
0.00998961
0.00998962
0.00998962
0.0099896
0.00998956
0.00998951
0.00998943
0.00998935
0.00998924
0.00998913
0.009989
0.00998885
0.0099887
0.00998854
0.00998837
0.0099882
0.00998803
0.00998786
0.00998772
0.0099876
0.00998752
0.00998747
0.00998747
0.00998749
0.00998754
0.00998761
0.00998768
0.00998777
0.00998785
0.00998793
0.009988
0.00998805
0.00998807
0.00998806
0.00998801
0.00998791
0.00998775
0.00998752
0.00998722
0.00998684
0.00998636
0.00998579
0.00998511
0.00998433
0.00996656
0.00996672
0.00996636
0.00996559
0.0099645
0.00996319
0.00996171
0.00996013
0.0099585
0.00995688
0.00995531
0.00995381
0.00995242
0.00995113
0.00994996
0.00994892
0.00994801
0.00994723
0.00994659
0.00994609
0.00994574
0.00994554
0.0099455
0.00994561
0.00994588
0.00994631
0.00994689
0.00994764
0.00994854
0.00994959
0.0099508
0.00995215
0.00995362
0.0099552
0.00995683
0.00995847
0.0099601
0.00996169
0.00996323
0.0099647
0.00996612
0.00996747
0.00996877
0.00997
0.00997118
0.0099723
0.00997337
0.00997439
0.00997535
0.00997626
0.00997713
0.00997794
0.00997871
0.00997944
0.00998011
0.00998074
0.00998133
0.00998188
0.00998238
0.00998284
0.00998327
0.00998365
0.009984
0.00998432
0.0099846
0.00998485
0.00998506
0.00998525
0.00998541
0.00998554
0.00998565
0.00998572
0.00998578
0.00998581
0.00998582
0.0099858
0.00998577
0.00998571
0.00998564
0.00998555
0.00998544
0.00998531
0.00998517
0.00998501
0.00998484
0.00998467
0.00998449
0.00998431
0.00998414
0.009984
0.00998389
0.00998383
0.00998382
0.00998386
0.00998394
0.00998405
0.00998421
0.00998439
0.0099846
0.00998484
0.00998509
0.00998536
0.00998564
0.00998591
0.00998619
0.00998645
0.00998669
0.0099869
0.00998707
0.00998719
0.00998726
0.00998726
0.00998718
0.00998702
0.00998677
0.00998642
0.00998596
0.00998539
0.0099847
0.00998388
0.0099685
0.00996866
0.00996827
0.00996746
0.00996629
0.00996486
0.00996323
0.00996147
0.00995963
0.00995777
0.00995593
0.00995414
0.00995244
0.00995084
0.00994936
0.00994801
0.00994678
0.00994569
0.00994474
0.00994395
0.00994331
0.00994283
0.00994251
0.00994237
0.0099424
0.00994261
0.009943
0.00994357
0.00994433
0.00994526
0.00994639
0.00994769
0.00994914
0.0099507
0.00995232
0.00995394
0.00995555
0.00995711
0.00995861
0.00996006
0.00996144
0.00996277
0.00996404
0.00996526
0.00996642
0.00996754
0.0099686
0.00996961
0.00997058
0.00997149
0.00997236
0.00997318
0.00997396
0.00997469
0.00997537
0.00997601
0.00997661
0.00997716
0.00997767
0.00997814
0.00997857
0.00997896
0.00997932
0.00997963
0.00997992
0.00998016
0.00998038
0.00998056
0.00998071
0.00998083
0.00998093
0.00998099
0.00998103
0.00998105
0.00998104
0.00998101
0.00998096
0.00998089
0.00998081
0.00998071
0.00998059
0.00998047
0.00998035
0.00998023
0.00998013
0.00998006
0.00998002
0.00998004
0.0099801
0.00998021
0.00998037
0.00998056
0.0099808
0.00998107
0.00998138
0.00998172
0.00998208
0.00998248
0.0099829
0.00998334
0.0099838
0.00998427
0.00998474
0.00998522
0.00998568
0.00998613
0.00998654
0.00998692
0.00998725
0.00998752
0.00998772
0.00998784
0.00998787
0.00998781
0.00998763
0.00998734
0.00998692
0.00998636
0.00998567
0.00998483
0.00997107
0.00997122
0.00997083
0.00996999
0.00996875
0.00996721
0.00996542
0.00996345
0.00996137
0.00995922
0.00995707
0.00995493
0.00995286
0.00995088
0.00994901
0.00994727
0.00994565
0.00994417
0.00994283
0.00994165
0.00994063
0.00993978
0.00993911
0.00993862
0.00993832
0.0099382
0.00993829
0.00993857
0.00993905
0.00993972
0.0099406
0.00994166
0.00994289
0.00994425
0.0099457
0.00994719
0.00994869
0.00995017
0.00995162
0.00995303
0.0099544
0.00995573
0.00995701
0.00995825
0.00995944
0.00996059
0.0099617
0.00996276
0.00996378
0.00996475
0.00996568
0.00996657
0.00996741
0.00996821
0.00996897
0.00996968
0.00997035
0.00997097
0.00997155
0.00997209
0.00997259
0.00997305
0.00997348
0.00997386
0.0099742
0.00997451
0.00997479
0.00997503
0.00997524
0.00997543
0.00997558
0.0099757
0.0099758
0.00997588
0.00997593
0.00997597
0.00997599
0.009976
0.00997601
0.00997602
0.00997605
0.00997609
0.00997617
0.00997628
0.00997644
0.00997663
0.00997687
0.00997714
0.00997745
0.00997778
0.00997815
0.00997855
0.00997898
0.00997943
0.00997991
0.00998042
0.00998096
0.00998152
0.0099821
0.0099827
0.00998332
0.00998395
0.00998459
0.00998522
0.00998585
0.00998645
0.00998703
0.00998757
0.00998807
0.00998851
0.00998888
0.00998918
0.00998938
0.00998948
0.00998947
0.00998932
0.00998902
0.00998857
0.00998794
0.00998714
0.0099744
0.00997458
0.00997421
0.00997336
0.00997208
0.00997043
0.00996847
0.00996627
0.00996392
0.00996145
0.00995894
0.00995641
0.00995392
0.00995149
0.00994915
0.00994693
0.00994483
0.00994288
0.00994107
0.00993942
0.00993794
0.00993663
0.00993551
0.00993458
0.00993385
0.00993333
0.00993301
0.0099329
0.009933
0.0099333
0.0099338
0.00993448
0.00993534
0.00993635
0.0099375
0.00993874
0.00994004
0.00994139
0.00994275
0.00994412
0.00994548
0.00994682
0.00994813
0.00994943
0.00995069
0.00995193
0.00995313
0.0099543
0.00995543
0.00995652
0.00995758
0.0099586
0.00995957
0.00996051
0.0099614
0.00996226
0.00996307
0.00996384
0.00996456
0.00996525
0.0099659
0.0099665
0.00996707
0.0099676
0.00996809
0.00996854
0.00996896
0.00996935
0.00996971
0.00997004
0.00997034
0.00997062
0.00997087
0.00997112
0.00997135
0.00997157
0.00997179
0.00997202
0.00997227
0.00997254
0.00997283
0.00997314
0.00997349
0.00997385
0.00997425
0.00997466
0.0099751
0.00997555
0.00997603
0.00997652
0.00997703
0.00997756
0.00997811
0.00997868
0.00997928
0.00997989
0.00998053
0.00998119
0.00998188
0.00998258
0.00998331
0.00998404
0.00998479
0.00998553
0.00998627
0.009987
0.00998771
0.00998839
0.00998904
0.00998964
0.00999018
0.00999064
0.00999099
0.00999122
0.00999132
0.00999127
0.00999107
0.00999072
0.0099902
0.00998951
0.00997863
0.00997888
0.00997859
0.00997779
0.00997648
0.00997472
0.00997259
0.00997015
0.00996748
0.00996466
0.00996175
0.00995879
0.00995582
0.0099529
0.00995003
0.00994726
0.00994461
0.00994209
0.00993972
0.00993752
0.00993548
0.00993364
0.00993199
0.00993054
0.00992931
0.0099283
0.00992751
0.00992694
0.0099266
0.00992646
0.00992654
0.00992681
0.00992727
0.00992789
0.00992866
0.00992957
0.00993059
0.0099317
0.0099329
0.00993416
0.00993546
0.0099368
0.00993815
0.00993951
0.00994087
0.00994222
0.00994355
0.00994487
0.00994617
0.00994744
0.00994868
0.00994989
0.00995106
0.00995221
0.00995331
0.00995438
0.00995541
0.0099564
0.00995735
0.00995827
0.00995915
0.00995999
0.00996079
0.00996155
0.00996229
0.00996298
0.00996365
0.00996428
0.00996489
0.00996547
0.00996603
0.00996657
0.00996709
0.0099676
0.00996811
0.00996861
0.00996911
0.00996962
0.00997013
0.00997064
0.00997117
0.0099717
0.00997224
0.00997278
0.00997332
0.00997388
0.00997443
0.009975
0.00997556
0.00997614
0.00997673
0.00997732
0.00997793
0.00997856
0.0099792
0.00997986
0.00998055
0.00998126
0.00998199
0.00998275
0.00998353
0.00998433
0.00998513
0.00998594
0.00998676
0.00998757
0.00998837
0.00998915
0.0099899
0.0099906
0.00999124
0.00999177
0.00999219
0.00999249
0.00999265
0.00999267
0.00999255
0.00999228
0.00999186
0.00999127
0.00998388
0.00998427
0.00998415
0.00998345
0.00998216
0.00998032
0.00997799
0.00997528
0.00997227
0.00996906
0.0099657
0.00996225
0.00995877
0.0099553
0.00995186
0.0099485
0.00994523
0.00994208
0.00993907
0.00993623
0.00993357
0.0099311
0.00992885
0.00992682
0.00992502
0.00992346
0.00992215
0.00992108
0.00992025
0.00991967
0.00991932
0.00991919
0.00991927
0.00991954
0.00991999
0.00992061
0.00992137
0.00992227
0.00992328
0.00992439
0.00992559
0.00992687
0.00992821
0.00992959
0.00993102
0.00993247
0.00993394
0.00993542
0.0099369
0.00993838
0.00993984
0.00994129
0.00994272
0.00994413
0.00994551
0.00994686
0.00994818
0.00994947
0.00995073
0.00995195
0.00995315
0.00995431
0.00995543
0.00995652
0.00995758
0.00995861
0.0099596
0.00996056
0.00996149
0.0099624
0.00996327
0.00996412
0.00996494
0.00996574
0.00996651
0.00996727
0.00996801
0.00996873
0.00996943
0.00997012
0.00997079
0.00997145
0.0099721
0.00997274
0.00997336
0.00997398
0.00997458
0.00997518
0.00997578
0.00997638
0.00997698
0.00997759
0.00997821
0.00997884
0.00997948
0.00998015
0.00998084
0.00998156
0.0099823
0.00998308
0.00998388
0.00998469
0.00998553
0.00998638
0.00998724
0.0099881
0.00998895
0.00998979
0.00999061
0.00999137
0.00999205
0.00999262
0.00999308
0.00999341
0.00999361
0.00999368
0.00999361
0.0099934
0.00999305
0.00999255
0.00999025
0.0099909
0.00999106
0.00999056
0.00998933
0.00998742
0.0099849
0.00998188
0.00997849
0.00997483
0.00997098
0.009967
0.00996295
0.00995888
0.00995482
0.00995082
0.00994689
0.00994307
0.00993937
0.00993583
0.00993247
0.00992932
0.00992639
0.00992371
0.00992129
0.00991913
0.00991726
0.00991566
0.00991434
0.00991329
0.00991252
0.00991201
0.00991174
0.00991171
0.0099119
0.0099123
0.00991288
0.00991362
0.00991453
0.00991557
0.00991673
0.009918
0.00991936
0.0099208
0.00992231
0.00992387
0.00992548
0.00992712
0.00992879
0.00993048
0.00993217
0.00993388
0.00993558
0.00993727
0.00993895
0.00994062
0.00994227
0.0099439
0.0099455
0.00994708
0.00994863
0.00995015
0.00995164
0.00995309
0.0099545
0.00995588
0.00995721
0.00995851
0.00995976
0.00996097
0.00996214
0.00996326
0.00996434
0.00996537
0.00996635
0.00996729
0.00996819
0.00996905
0.00996986
0.00997064
0.00997139
0.0099721
0.00997279
0.00997344
0.00997408
0.00997469
0.00997529
0.00997587
0.00997645
0.00997702
0.00997759
0.00997817
0.00997875
0.00997935
0.00997997
0.00998061
0.00998128
0.00998197
0.00998271
0.00998347
0.00998427
0.00998509
0.00998594
0.00998681
0.00998769
0.00998858
0.00998948
0.00999036
0.00999122
0.00999201
0.00999271
0.0099933
0.00999377
0.00999413
0.00999435
0.00999445
0.00999442
0.00999425
0.00999395
0.0099935
0.00999774
0.00999877
0.00999909
0.00999864
0.00999742
0.00999548
0.0099929
0.00998977
0.00998615
0.00998213
0.00997777
0.00997318
0.00996851
0.0099638
0.00995907
0.00995438
0.00994974
0.0099452
0.00994077
0.0099365
0.00993241
0.00992852
0.00992487
0.00992148
0.00991838
0.00991558
0.00991311
0.00991095
0.00990912
0.00990762
0.00990643
0.00990555
0.00990497
0.00990468
0.00990464
0.00990486
0.00990531
0.00990597
0.00990682
0.00990785
0.00990904
0.00991036
0.00991181
0.00991336
0.00991501
0.00991674
0.00991853
0.00992038
0.00992227
0.0099242
0.00992616
0.00992813
0.00993012
0.00993211
0.00993411
0.0099361
0.00993807
0.00994004
0.00994198
0.0099439
0.0099458
0.00994766
0.00994949
0.00995128
0.00995302
0.00995472
0.00995637
0.00995796
0.00995949
0.00996096
0.00996236
0.0099637
0.00996497
0.00996617
0.0099673
0.00996836
0.00996935
0.00997027
0.00997114
0.00997194
0.00997268
0.00997338
0.00997404
0.00997466
0.00997525
0.00997581
0.00997635
0.00997687
0.00997739
0.00997789
0.0099784
0.00997892
0.00997944
0.00997999
0.00998055
0.00998115
0.00998177
0.00998244
0.00998314
0.00998389
0.00998467
0.00998549
0.00998634
0.00998722
0.00998811
0.00998903
0.00998995
0.00999087
0.00999175
0.00999256
0.00999327
0.00999387
0.00999435
0.00999472
0.00999496
0.00999508
0.00999507
0.00999493
0.00999465
0.00999424
0.0100061
0.0100071
0.0100073
0.0100068
0.0100056
0.0100037
0.0100011
0.0099979
0.00999423
0.0099901
0.00998558
0.00998071
0.00997556
0.00997018
0.00996472
0.00995929
0.0099539
0.00994859
0.00994339
0.00993834
0.00993347
0.00992882
0.00992441
0.00992029
0.00991648
0.00991301
0.0099099
0.00990716
0.0099048
0.00990283
0.00990122
0.00989999
0.00989911
0.00989856
0.00989833
0.00989841
0.00989876
0.00989937
0.00990021
0.00990126
0.00990251
0.00990393
0.0099055
0.00990721
0.00990903
0.00991096
0.00991297
0.00991505
0.0099172
0.00991939
0.00992162
0.00992389
0.00992617
0.00992847
0.00993077
0.00993307
0.00993537
0.00993766
0.00993992
0.00994217
0.00994438
0.00994656
0.0099487
0.0099508
0.00995284
0.00995482
0.00995673
0.00995857
0.00996034
0.00996202
0.00996362
0.00996512
0.00996653
0.00996785
0.00996907
0.00997019
0.00997122
0.00997216
0.00997301
0.00997377
0.00997447
0.0099751
0.00997567
0.0099762
0.00997669
0.00997716
0.0099776
0.00997803
0.00997845
0.00997887
0.00997929
0.00997973
0.00998018
0.00998065
0.00998115
0.00998169
0.00998227
0.00998289
0.00998356
0.00998428
0.00998504
0.00998585
0.0099867
0.00998758
0.00998849
0.00998942
0.00999037
0.00999131
0.00999221
0.00999303
0.00999375
0.00999436
0.00999485
0.00999522
0.00999548
0.00999561
0.00999561
0.00999549
0.00999523
0.00999485
0.0100144
0.0100152
0.0100154
0.0100148
0.0100136
0.0100116
0.010009
0.0100059
0.0100022
0.00999803
0.00999346
0.0099885
0.0099832
0.00997759
0.00997171
0.00996563
0.00995945
0.00995331
0.00994729
0.00994142
0.00993572
0.00993026
0.00992507
0.00992018
0.00991564
0.00991148
0.00990772
0.00990438
0.00990148
0.00989901
0.00989698
0.00989538
0.0098942
0.00989341
0.009893
0.00989294
0.00989321
0.00989379
0.00989464
0.00989574
0.00989707
0.00989861
0.00990032
0.0099022
0.00990421
0.00990634
0.00990858
0.00991091
0.00991331
0.00991577
0.00991829
0.00992083
0.00992341
0.009926
0.00992861
0.00993121
0.00993382
0.0099364
0.00993898
0.00994152
0.00994403
0.00994651
0.00994893
0.0099513
0.0099536
0.00995583
0.00995798
0.00996003
0.00996199
0.00996383
0.00996557
0.00996719
0.0099687
0.00997008
0.00997134
0.00997249
0.00997351
0.00997443
0.00997523
0.00997593
0.00997653
0.00997705
0.00997751
0.00997791
0.00997827
0.00997861
0.00997892
0.00997923
0.00997954
0.00997985
0.00998018
0.00998052
0.00998088
0.00998128
0.00998171
0.00998219
0.00998271
0.00998329
0.00998393
0.00998462
0.00998537
0.00998616
0.00998701
0.00998789
0.00998881
0.00998976
0.00999073
0.0099917
0.00999261
0.00999344
0.00999416
0.00999478
0.00999528
0.00999566
0.00999592
0.00999606
0.00999608
0.00999597
0.00999573
0.00999536
0.0100223
0.010023
0.010023
0.0100224
0.0100211
0.0100192
0.0100166
0.0100134
0.0100098
0.0100056
0.0100011
0.00999608
0.00999074
0.00998504
0.00997902
0.00997271
0.00996613
0.00995937
0.00995252
0.00994575
0.00993918
0.00993286
0.00992682
0.00992113
0.00991583
0.00991095
0.00990652
0.00990258
0.00989912
0.00989616
0.0098937
0.00989172
0.00989022
0.00988919
0.00988859
0.0098884
0.0098886
0.00988914
0.00989001
0.00989116
0.00989258
0.00989423
0.0098961
0.00989814
0.00990035
0.00990269
0.00990516
0.00990772
0.00991037
0.0099131
0.00991587
0.0099187
0.00992155
0.00992443
0.00992732
0.00993021
0.0099331
0.00993597
0.00993883
0.00994165
0.00994445
0.00994719
0.00994988
0.00995249
0.00995503
0.00995747
0.0099598
0.00996202
0.00996411
0.00996607
0.0099679
0.00996959
0.00997113
0.00997254
0.0099738
0.00997493
0.00997593
0.00997679
0.00997753
0.00997814
0.00997865
0.00997906
0.00997938
0.00997964
0.00997985
0.00998004
0.00998021
0.00998039
0.00998057
0.00998077
0.00998099
0.00998124
0.00998152
0.00998184
0.0099822
0.00998262
0.00998309
0.00998363
0.00998423
0.0099849
0.00998563
0.00998642
0.00998726
0.00998815
0.00998908
0.00999005
0.00999104
0.00999203
0.00999295
0.00999379
0.00999452
0.00999515
0.00999566
0.00999604
0.00999631
0.00999646
0.00999648
0.00999638
0.00999615
0.00999579
0.0100297
0.0100303
0.0100302
0.0100296
0.0100283
0.0100263
0.0100237
0.0100206
0.0100169
0.0100128
0.0100082
0.0100032
0.00999789
0.00999217
0.0099861
0.0099797
0.00997297
0.00996596
0.0099587
0.00995127
0.00994383
0.00993657
0.00992964
0.00992309
0.00991697
0.00991134
0.00990622
0.00990165
0.00989764
0.00989418
0.00989128
0.00988893
0.00988712
0.00988582
0.00988502
0.00988469
0.0098848
0.00988531
0.00988618
0.00988739
0.00988889
0.00989065
0.00989265
0.00989486
0.00989725
0.00989979
0.00990247
0.00990526
0.00990815
0.00991112
0.00991415
0.00991723
0.00992034
0.00992349
0.00992664
0.0099298
0.00993296
0.0099361
0.00993923
0.00994232
0.00994537
0.00994836
0.00995129
0.00995412
0.00995685
0.00995945
0.00996193
0.00996425
0.00996643
0.00996844
0.0099703
0.009972
0.00997354
0.00997493
0.00997617
0.00997725
0.00997819
0.009979
0.00997966
0.0099802
0.00998061
0.00998092
0.00998113
0.00998126
0.00998133
0.00998137
0.0099814
0.00998144
0.0099815
0.00998159
0.0099817
0.00998186
0.00998206
0.0099823
0.00998261
0.00998297
0.00998339
0.00998389
0.00998446
0.00998511
0.00998583
0.00998661
0.00998746
0.00998835
0.0099893
0.00999029
0.0099913
0.0099923
0.00999324
0.00999409
0.00999483
0.00999547
0.00999598
0.00999638
0.00999665
0.00999681
0.00999684
0.00999674
0.00999652
0.00999617
0.0100365
0.010037
0.0100369
0.0100362
0.0100349
0.0100329
0.0100303
0.0100272
0.0100235
0.0100194
0.0100149
0.0100099
0.0100046
0.00999884
0.00999275
0.00998631
0.00997952
0.0099724
0.00996496
0.00995724
0.00994932
0.00994132
0.00993345
0.00992597
0.00991899
0.00991255
0.00990671
0.00990149
0.00989689
0.00989293
0.0098896
0.00988687
0.00988475
0.00988319
0.00988218
0.00988169
0.0098817
0.00988216
0.00988303
0.00988427
0.00988584
0.0098877
0.00988983
0.00989219
0.00989474
0.00989747
0.00990034
0.00990334
0.00990645
0.00990964
0.0099129
0.00991622
0.00991958
0.00992297
0.00992637
0.00992978
0.00993319
0.00993659
0.00993997
0.00994331
0.0099466
0.00994982
0.00995294
0.00995595
0.00995883
0.00996155
0.0099641
0.00996648
0.00996868
0.00997071
0.00997256
0.00997423
0.00997574
0.00997708
0.00997826
0.00997929
0.00998017
0.00998091
0.00998151
0.00998197
0.00998231
0.00998253
0.00998265
0.00998267
0.00998263
0.00998254
0.00998244
0.00998235
0.00998229
0.00998227
0.0099823
0.00998237
0.00998249
0.00998267
0.00998291
0.00998323
0.00998361
0.00998408
0.00998463
0.00998526
0.00998596
0.00998674
0.00998759
0.0099885
0.00998946
0.00999047
0.00999151
0.00999253
0.00999348
0.00999434
0.0099951
0.00999574
0.00999626
0.00999667
0.00999695
0.00999711
0.00999715
0.00999706
0.00999684
0.00999649
0.0100428
0.0100432
0.0100431
0.0100424
0.010041
0.010039
0.0100364
0.0100333
0.0100296
0.0100255
0.010021
0.010016
0.0100107
0.010005
0.00999889
0.00999243
0.00998561
0.00997843
0.00997091
0.00996304
0.00995488
0.0099465
0.00993803
0.00992968
0.00992177
0.00991448
0.00990787
0.00990196
0.00989676
0.00989228
0.0098885
0.0098854
0.00988295
0.00988113
0.00987992
0.00987927
0.00987915
0.00987955
0.0098804
0.00988166
0.00988329
0.00988524
0.00988747
0.00988996
0.00989266
0.00989555
0.0098986
0.00990179
0.00990509
0.00990849
0.00991197
0.0099155
0.00991909
0.0099227
0.00992634
0.00992998
0.00993363
0.00993727
0.00994088
0.00994445
0.00994796
0.00995137
0.00995466
0.0099578
0.00996077
0.00996355
0.00996614
0.00996853
0.00997072
0.00997272
0.00997453
0.00997616
0.00997761
0.0099789
0.00998002
0.00998099
0.00998181
0.00998249
0.00998303
0.00998343
0.00998371
0.00998386
0.0099839
0.00998385
0.00998371
0.00998352
0.00998331
0.00998311
0.00998295
0.00998283
0.00998277
0.00998276
0.00998282
0.00998294
0.00998313
0.0099834
0.00998376
0.00998419
0.00998472
0.00998534
0.00998604
0.00998682
0.00998768
0.0099886
0.00998958
0.00999061
0.00999167
0.00999271
0.00999368
0.00999455
0.00999532
0.00999597
0.0099965
0.00999692
0.00999721
0.00999737
0.00999742
0.00999733
0.00999712
0.00999677
0.0100485
0.0100489
0.0100487
0.010048
0.0100466
0.0100446
0.010042
0.0100389
0.0100352
0.0100311
0.0100266
0.0100216
0.0100163
0.0100106
0.0100045
0.00999801
0.00999118
0.00998398
0.0099764
0.00996846
0.00996017
0.00995158
0.00994277
0.00993388
0.00992517
0.00991698
0.00990956
0.00990293
0.00989712
0.0098921
0.00988787
0.00988438
0.00988161
0.00987953
0.0098781
0.00987728
0.00987705
0.00987736
0.00987817
0.00987944
0.0098811
0.00988312
0.00988544
0.00988804
0.00989087
0.0098939
0.00989711
0.00990047
0.00990395
0.00990754
0.0099112
0.00991494
0.00991873
0.00992255
0.0099264
0.00993027
0.00993414
0.009938
0.00994184
0.00994562
0.00994931
0.00995287
0.00995628
0.00995951
0.00996253
0.00996534
0.00996793
0.0099703
0.00997247
0.00997442
0.00997618
0.00997776
0.00997915
0.00998038
0.00998145
0.00998236
0.00998312
0.00998375
0.00998423
0.00998459
0.00998481
0.00998492
0.00998491
0.00998479
0.00998459
0.00998432
0.00998402
0.00998372
0.00998347
0.00998326
0.00998312
0.00998305
0.00998304
0.00998312
0.00998327
0.0099835
0.00998382
0.00998424
0.00998475
0.00998536
0.00998606
0.00998685
0.00998771
0.00998865
0.00998964
0.0099907
0.00999178
0.00999284
0.00999383
0.00999472
0.0099955
0.00999616
0.0099967
0.00999713
0.00999743
0.0099976
0.00999765
0.00999757
0.00999736
0.00999701
0.0100537
0.0100541
0.0100538
0.010053
0.0100516
0.0100496
0.010047
0.0100439
0.0100403
0.0100362
0.0100316
0.0100267
0.0100213
0.0100156
0.0100095
0.0100031
0.00999622
0.009989
0.00998139
0.0099734
0.00996503
0.00995631
0.0099473
0.00993809
0.00992887
0.00991992
0.00991167
0.0099043
0.00989785
0.00989229
0.00988758
0.00988371
0.00988061
0.00987826
0.00987661
0.00987562
0.00987526
0.00987548
0.00987624
0.00987749
0.00987918
0.00988124
0.00988364
0.00988632
0.00988926
0.00989242
0.00989577
0.00989927
0.00990291
0.00990666
0.0099105
0.00991442
0.00991839
0.00992241
0.00992646
0.00993053
0.00993461
0.00993868
0.00994272
0.00994667
0.00995052
0.0099542
0.00995769
0.00996097
0.00996402
0.00996683
0.00996941
0.00997176
0.00997388
0.00997579
0.0099775
0.00997903
0.00998037
0.00998154
0.00998256
0.00998342
0.00998414
0.00998472
0.00998517
0.00998548
0.00998567
0.00998573
0.00998568
0.00998552
0.00998526
0.00998494
0.00998457
0.00998419
0.00998385
0.00998358
0.00998337
0.00998323
0.00998318
0.00998321
0.00998332
0.00998353
0.00998382
0.00998422
0.00998472
0.00998533
0.00998603
0.00998682
0.0099877
0.00998865
0.00998967
0.00999075
0.00999186
0.00999294
0.00999394
0.00999485
0.00999564
0.00999632
0.00999687
0.0099973
0.00999761
0.00999779
0.00999784
0.00999777
0.00999756
0.00999721
0.0100584
0.0100587
0.0100585
0.0100576
0.0100562
0.0100542
0.0100516
0.0100485
0.0100448
0.0100407
0.0100362
0.0100312
0.0100259
0.0100202
0.0100141
0.0100076
0.0100007
0.00999351
0.00998588
0.00997786
0.00996944
0.00996064
0.0099515
0.00994208
0.00993253
0.00992306
0.00991406
0.00990595
0.00989885
0.00989273
0.00988756
0.00988329
0.00987986
0.00987724
0.00987537
0.0098742
0.0098737
0.00987381
0.00987451
0.00987574
0.00987742
0.00987952
0.00988197
0.00988473
0.00988775
0.00989102
0.00989448
0.00989811
0.00990189
0.00990579
0.00990978
0.00991386
0.009918
0.0099222
0.00992643
0.00993069
0.00993496
0.00993922
0.00994343
0.00994753
0.0099515
0.00995527
0.00995882
0.00996213
0.00996519
0.009968
0.00997056
0.00997288
0.00997497
0.00997684
0.00997851
0.00997999
0.00998129
0.00998242
0.0099834
0.00998422
0.00998491
0.00998545
0.00998586
0.00998615
0.0099863
0.00998634
0.00998625
0.00998606
0.00998577
0.00998539
0.00998497
0.00998453
0.00998412
0.00998378
0.00998351
0.00998333
0.00998323
0.00998322
0.0099833
0.00998348
0.00998376
0.00998415
0.00998464
0.00998524
0.00998595
0.00998675
0.00998764
0.00998861
0.00998965
0.00999075
0.00999189
0.00999299
0.00999402
0.00999494
0.00999575
0.00999644
0.00999701
0.00999745
0.00999776
0.00999795
0.00999801
0.00999793
0.00999772
0.00999738
0.0100626
0.0100629
0.0100626
0.0100618
0.0100603
0.0100583
0.0100557
0.0100526
0.010049
0.0100448
0.0100403
0.0100353
0.01003
0.0100243
0.0100181
0.0100117
0.0100048
0.00999756
0.00998991
0.00998186
0.0099734
0.00996454
0.00995531
0.00994576
0.00993598
0.00992616
0.0099166
0.00990779
0.00990004
0.00989337
0.00988773
0.00988306
0.0098793
0.0098764
0.0098743
0.00987295
0.0098723
0.0098723
0.00987292
0.0098741
0.00987577
0.00987788
0.00988036
0.00988318
0.00988628
0.00988962
0.00989318
0.00989692
0.00990082
0.00990484
0.00990897
0.00991319
0.00991749
0.00992184
0.00992624
0.00993067
0.00993512
0.00993954
0.00994389
0.00994813
0.00995219
0.00995603
0.00995963
0.00996297
0.00996604