/*--------------------------------*- C++ -*----------------------------------*\
  =========                 |
  \\      /  F ield         | OpenFOAM: The Open Source CFD Toolbox
   \\    /   O peration     | Website:  https://openfoam.org
    \\  /    A nd           | Version:  8
     \\/     M anipulation  |
\*---------------------------------------------------------------------------*/
FoamFile
{
    version     2.0;
    format      ascii;
    class       volScalarField;
    location    "6";
    object      p;
}
// * * * * * * * * * * * * * * * * * * * * * * * * * * * * * * * * * * * * * //

dimensions      [0 2 -2 0 0 0 0];

internalField   nonuniform List<scalar> 
277560
(
-0.580912
-0.581681
-0.583587
-0.586397
-0.590007
-0.594402
-0.599553
-0.60541
-0.611926
-0.619061
-0.626775
-0.63503
-0.643788
-0.653015
-0.662675
-0.672736
-0.683166
-0.693936
-0.705016
-0.716379
-0.727999
-0.73985
-0.751909
-0.764152
-0.776558
-0.789106
-0.801777
-0.814551
-0.827412
-0.840342
-0.853326
-0.866348
-0.879395
-0.892453
-0.905509
-0.918553
-0.931572
-0.944556
-0.957497
-0.970383
-0.983208
-0.995962
-1.00864
-1.02123
-1.03374
-1.04614
-1.05845
-1.07065
-1.08274
-1.09471
-1.10656
-1.11829
-1.1299
-1.14138
-1.15273
-1.16394
-1.17502
-1.18597
-1.19677
-1.20744
-1.21797
-1.22836
-1.23861
-1.24871
-1.25868
-1.2685
-1.27819
-1.28773
-1.29713
-1.30639
-1.31551
-1.3245
-1.33334
-1.34205
-1.35062
-1.35906
-1.36736
-1.37553
-1.38356
-1.39147
-1.39925
-1.4069
-1.41442
-1.42182
-1.42909
-1.43625
-1.44328
-1.45019
-1.45699
-1.46367
-1.47023
-1.47668
-1.48302
-1.48926
-1.49538
-1.50139
-1.50731
-1.51311
-1.51882
-1.52443
-1.52993
-1.53534
-1.54066
-1.54587
-1.551
-1.55604
-1.56098
-1.56584
-1.57061
-1.5753
-1.5799
-1.58442
-1.58886
-1.59322
-1.5975
-1.6017
-1.60583
-1.60988
-1.61386
-1.61777
-0.580492
-0.581237
-0.583127
-0.585933
-0.58954
-0.593931
-0.599079
-0.604933
-0.611448
-0.618581
-0.626294
-0.634548
-0.643306
-0.652532
-0.662193
-0.672254
-0.682685
-0.693456
-0.704538
-0.715903
-0.727524
-0.739378
-0.751439
-0.763685
-0.776094
-0.788646
-0.80132
-0.814099
-0.826964
-0.839898
-0.852886
-0.865914
-0.878965
-0.892029
-0.905091
-0.91814
-0.931165
-0.944156
-0.957102
-0.969995
-0.982826
-0.995587
-1.00827
-1.02087
-1.03338
-1.0458
-1.05811
-1.07031
-1.08241
-1.09439
-1.10625
-1.11799
-1.1296
-1.14109
-1.15244
-1.16367
-1.17476
-1.18571
-1.19652
-1.2072
-1.21774
-1.22813
-1.23839
-1.2485
-1.25848
-1.26831
-1.278
-1.28755
-1.29696
-1.30623
-1.31536
-1.32435
-1.3332
-1.34191
-1.35049
-1.35894
-1.36725
-1.37542
-1.38347
-1.39138
-1.39916
-1.40682
-1.41435
-1.42176
-1.42904
-1.4362
-1.44324
-1.45016
-1.45696
-1.46365
-1.47022
-1.47668
-1.48302
-1.48926
-1.49539
-1.50141
-1.50733
-1.51314
-1.51886
-1.52447
-1.52998
-1.53539
-1.54071
-1.54594
-1.55107
-1.55611
-1.56106
-1.56593
-1.5707
-1.57539
-1.58
-1.58453
-1.58897
-1.59333
-1.59762
-1.60182
-1.60596
-1.61001
-1.614
-1.61791
-0.579703
-0.58045
-0.582339
-0.585143
-0.588747
-0.593136
-0.598281
-0.604133
-0.610646
-0.617779
-0.625491
-0.633746
-0.642505
-0.651732
-0.661394
-0.671458
-0.681892
-0.692667
-0.703753
-0.715122
-0.726749
-0.738608
-0.750675
-0.762928
-0.775344
-0.787903
-0.800585
-0.813372
-0.826245
-0.839188
-0.852186
-0.865223
-0.878284
-0.891358
-0.90443
-0.91749
-0.930526
-0.943528
-0.956485
-0.96939
-0.982232
-0.995006
-1.0077
-1.02031
-1.03284
-1.04526
-1.05759
-1.06981
-1.08191
-1.09391
-1.10578
-1.11753
-1.12916
-1.14066
-1.15203
-1.16326
-1.17436
-1.18533
-1.19616
-1.20684
-1.21739
-1.2278
-1.23807
-1.2482
-1.25818
-1.26803
-1.27773
-1.28729
-1.29671
-1.306
-1.31514
-1.32414
-1.333
-1.34173
-1.35032
-1.35877
-1.36709
-1.37528
-1.38334
-1.39126
-1.39906
-1.40672
-1.41426
-1.42168
-1.42897
-1.43614
-1.44319
-1.45012
-1.45693
-1.46363
-1.47021
-1.47667
-1.48303
-1.48928
-1.49541
-1.50144
-1.50737
-1.51319
-1.51891
-1.52453
-1.53005
-1.53547
-1.5408
-1.54603
-1.55117
-1.55622
-1.56118
-1.56605
-1.57083
-1.57553
-1.58015
-1.58468
-1.58913
-1.5935
-1.59779
-1.602
-1.60614
-1.61021
-1.6142
-1.61812
-0.578536
-0.579274
-0.581153
-0.583947
-0.587544
-0.591925
-0.597064
-0.602912
-0.609422
-0.616552
-0.624263
-0.632516
-0.641275
-0.650503
-0.660167
-0.670234
-0.680671
-0.69145
-0.702541
-0.713916
-0.725549
-0.737415
-0.749491
-0.761752
-0.774177
-0.786746
-0.799439
-0.812237
-0.825122
-0.838078
-0.851088
-0.864138
-0.877214
-0.890301
-0.903389
-0.916464
-0.929515
-0.942533
-0.955507
-0.968428
-0.981288
-0.994079
-1.00679
-1.01942
-1.03196
-1.04441
-1.05675
-1.06899
-1.08112
-1.09313
-1.10502
-1.11679
-1.12844
-1.13996
-1.15134
-1.1626
-1.17372
-1.1847
-1.19555
-1.20626
-1.21683
-1.22726
-1.23754
-1.24769
-1.2577
-1.26756
-1.27728
-1.28686
-1.2963
-1.3056
-1.31476
-1.32378
-1.33266
-1.34141
-1.35002
-1.35849
-1.36683
-1.37503
-1.38311
-1.39105
-1.39886
-1.40654
-1.4141
-1.42153
-1.42884
-1.43603
-1.44309
-1.45004
-1.45687
-1.46358
-1.47017
-1.47666
-1.48303
-1.48929
-1.49544
-1.50149
-1.50743
-1.51326
-1.519
-1.52463
-1.53017
-1.5356
-1.54094
-1.54619
-1.55134
-1.5564
-1.56137
-1.56626
-1.57105
-1.57576
-1.58039
-1.58493
-1.58939
-1.59377
-1.59807
-1.6023
-1.60645
-1.61052
-1.61453
-1.61845
-0.576996
-0.57772
-0.579587
-0.582371
-0.585958
-0.590332
-0.595465
-0.601308
-0.607813
-0.61494
-0.622649
-0.630902
-0.639662
-0.648892
-0.658558
-0.668629
-0.679071
-0.689856
-0.700954
-0.712337
-0.72398
-0.735856
-0.747942
-0.760216
-0.772654
-0.785237
-0.797944
-0.810757
-0.823658
-0.836631
-0.849659
-0.862727
-0.875822
-0.888929
-0.902036
-0.915132
-0.928205
-0.941244
-0.95424
-0.967184
-0.980067
-0.992881
-1.00562
-1.01827
-1.03084
-1.04331
-1.05568
-1.06794
-1.08009
-1.09213
-1.10404
-1.11584
-1.12751
-1.13906
-1.15047
-1.16175
-1.1729
-1.18391
-1.19478
-1.20551
-1.21611
-1.22656
-1.23688
-1.24705
-1.25708
-1.26697
-1.27671
-1.28632
-1.29578
-1.30511
-1.31429
-1.32334
-1.33224
-1.34101
-1.34964
-1.35814
-1.3665
-1.37473
-1.38282
-1.39079
-1.39862
-1.40633
-1.41391
-1.42136
-1.42869
-1.4359
-1.44298
-1.44995
-1.4568
-1.46353
-1.47014
-1.47665
-1.48304
-1.48932
-1.49549
-1.50155
-1.50751
-1.51336
-1.51911
-1.52476
-1.53032
-1.53577
-1.54113
-1.54639
-1.55156
-1.55663
-1.56162
-1.56652
-1.57133
-1.57605
-1.58069
-1.58525
-1.58973
-1.59412
-1.59844
-1.60268
-1.60684
-1.61093
-1.61494
-1.61888
-0.575089
-0.575797
-0.57765
-0.580421
-0.583996
-0.58836
-0.593484
-0.59932
-0.60582
-0.612943
-0.62065
-0.628902
-0.637662
-0.646894
-0.656564
-0.666639
-0.677087
-0.687879
-0.698986
-0.710379
-0.722032
-0.733921
-0.746021
-0.758308
-0.770762
-0.783361
-0.796086
-0.808918
-0.821839
-0.834832
-0.847881
-0.860972
-0.874089
-0.88722
-0.900352
-0.913473
-0.926572
-0.939638
-0.952661
-0.965632
-0.978543
-0.991386
-1.00415
-1.01684
-1.02943
-1.04193
-1.05433
-1.06662
-1.0788
-1.09087
-1.10282
-1.11465
-1.12635
-1.13793
-1.14937
-1.16069
-1.17186
-1.18291
-1.19381
-1.20458
-1.2152
-1.22569
-1.23603
-1.24624
-1.2563
-1.26622
-1.27599
-1.28563
-1.29513
-1.30448
-1.31369
-1.32277
-1.3317
-1.3405
-1.34916
-1.35769
-1.36608
-1.37434
-1.38246
-1.39045
-1.39831
-1.40605
-1.41365
-1.42113
-1.42849
-1.43572
-1.44283
-1.44983
-1.4567
-1.46345
-1.4701
-1.47662
-1.48304
-1.48934
-1.49553
-1.50162
-1.5076
-1.51348
-1.51925
-1.52493
-1.5305
-1.53597
-1.54135
-1.54663
-1.55182
-1.55692
-1.56193
-1.56685
-1.57168
-1.57642
-1.58108
-1.58565
-1.59015
-1.59456
-1.59889
-1.60315
-1.60733
-1.61144
-1.61547
-1.61942
-0.572824
-0.573512
-0.575348
-0.578103
-0.581665
-0.586017
-0.591131
-0.596959
-0.603453
-0.610571
-0.618275
-0.626526
-0.635286
-0.644521
-0.654195
-0.664275
-0.674731
-0.685531
-0.696648
-0.708052
-0.719719
-0.731622
-0.743738
-0.756043
-0.768515
-0.781134
-0.79388
-0.806734
-0.819678
-0.832696
-0.845771
-0.858888
-0.872033
-0.885192
-0.898353
-0.911504
-0.924634
-0.937731
-0.950787
-0.963791
-0.976736
-0.989612
-1.00241
-1.01513
-1.02776
-1.0403
-1.05273
-1.06506
-1.07728
-1.08939
-1.10137
-1.11324
-1.12498
-1.13659
-1.14808
-1.15943
-1.17064
-1.18172
-1.19266
-1.20347
-1.21413
-1.22465
-1.23504
-1.24528
-1.25538
-1.26533
-1.27515
-1.28482
-1.29435
-1.30374
-1.31299
-1.3221
-1.33107
-1.33991
-1.3486
-1.35716
-1.36559
-1.37388
-1.38203
-1.39006
-1.39795
-1.40572
-1.41336
-1.42087
-1.42826
-1.43552
-1.44266
-1.44969
-1.45659
-1.46337
-1.47004
-1.4766
-1.48304
-1.48937
-1.4956
-1.50171
-1.50772
-1.51362
-1.51942
-1.52512
-1.53072
-1.53622
-1.54162
-1.54693
-1.55214
-1.55726
-1.56229
-1.56723
-1.57208
-1.57685
-1.58153
-1.58613
-1.59064
-1.59508
-1.59943
-1.60371
-1.60791
-1.61203
-1.61608
-1.62006
-0.570208
-0.570872
-0.572688
-0.575426
-0.578971
-0.58331
-0.588413
-0.594231
-0.600717
-0.60783
-0.615531
-0.62378
-0.632541
-0.641778
-0.651456
-0.661543
-0.672007
-0.682817
-0.693945
-0.705363
-0.717045
-0.728965
-0.741098
-0.753423
-0.765917
-0.778559
-0.791329
-0.804209
-0.81718
-0.830225
-0.843329
-0.856477
-0.869653
-0.882846
-0.89604
-0.909226
-0.922391
-0.935525
-0.948617
-0.96166
-0.974643
-0.987558
-1.0004
-1.01316
-1.02583
-1.03841
-1.05088
-1.06325
-1.07552
-1.08766
-1.09969
-1.1116
-1.12339
-1.13504
-1.14657
-1.15796
-1.16922
-1.18035
-1.19133
-1.20218
-1.21289
-1.22345
-1.23388
-1.24416
-1.2543
-1.2643
-1.27416
-1.28388
-1.29345
-1.30288
-1.31217
-1.32132
-1.33034
-1.33921
-1.34795
-1.35654
-1.36501
-1.37334
-1.38153
-1.3896
-1.39753
-1.40533
-1.41301
-1.42056
-1.42798
-1.43528
-1.44246
-1.44952
-1.45645
-1.46327
-1.46998
-1.47657
-1.48304
-1.48941
-1.49566
-1.50181
-1.50785
-1.51378
-1.51961
-1.52534
-1.53097
-1.5365
-1.54193
-1.54726
-1.55251
-1.55765
-1.56271
-1.56768
-1.57256
-1.57735
-1.58206
-1.58668
-1.59122
-1.59568
-1.60006
-1.60436
-1.60858
-1.61273
-1.6168
-1.6208
-0.567247
-0.567885
-0.569679
-0.572395
-0.575923
-0.580246
-0.585336
-0.591143
-0.597621
-0.604728
-0.612425
-0.620672
-0.629434
-0.638673
-0.648356
-0.65845
-0.668923
-0.679744
-0.690885
-0.702318
-0.714017
-0.725955
-0.73811
-0.750457
-0.762974
-0.775642
-0.788439
-0.801348
-0.814349
-0.827427
-0.840564
-0.853746
-0.866958
-0.880187
-0.89342
-0.906645
-0.91985
-0.933025
-0.946159
-0.959244
-0.972271
-0.985231
-0.998117
-1.01092
-1.02364
-1.03626
-1.04879
-1.06121
-1.07352
-1.08571
-1.09779
-1.10975
-1.12158
-1.13329
-1.14486
-1.15631
-1.16762
-1.17879
-1.18982
-1.20072
-1.21148
-1.22209
-1.23257
-1.2429
-1.25309
-1.26314
-1.27304
-1.28281
-1.29243
-1.30191
-1.31125
-1.32044
-1.3295
-1.33842
-1.3472
-1.35585
-1.36436
-1.37273
-1.38097
-1.38908
-1.39705
-1.4049
-1.41262
-1.42021
-1.42767
-1.43501
-1.44223
-1.44933
-1.4563
-1.46316
-1.4699
-1.47653
-1.48304
-1.48945
-1.49574
-1.50192
-1.50799
-1.51396
-1.51983
-1.52559
-1.53125
-1.53681
-1.54228
-1.54765
-1.55292
-1.5581
-1.56319
-1.56818
-1.57309
-1.57792
-1.58265
-1.5873
-1.59187
-1.59636
-1.60076
-1.60509
-1.60934
-1.61351
-1.61761
-1.62163
-0.563947
-0.564557
-0.566325
-0.569019
-0.572526
-0.576832
-0.581907
-0.587703
-0.594171
-0.601271
-0.608963
-0.617209
-0.625971
-0.635213
-0.644901
-0.655003
-0.665485
-0.676319
-0.687474
-0.698924
-0.710641
-0.7226
-0.734777
-0.747149
-0.759693
-0.772389
-0.785217
-0.798157
-0.811192
-0.824305
-0.837479
-0.850699
-0.863951
-0.877221
-0.890496
-0.903765
-0.917014
-0.930235
-0.943416
-0.956549
-0.969624
-0.982634
-0.99557
-1.00843
-1.02119
-1.03387
-1.04645
-1.05892
-1.07128
-1.08353
-1.09567
-1.10768
-1.11957
-1.13133
-1.14296
-1.15446
-1.16582
-1.17705
-1.18814
-1.19909
-1.2099
-1.22057
-1.2311
-1.24149
-1.25173
-1.26183
-1.27179
-1.28161
-1.29128
-1.30082
-1.31021
-1.31946
-1.32857
-1.33754
-1.34637
-1.35506
-1.36362
-1.37205
-1.38033
-1.38849
-1.39651
-1.40441
-1.41217
-1.41981
-1.42732
-1.43471
-1.44197
-1.44911
-1.45613
-1.46303
-1.46982
-1.47649
-1.48304
-1.48949
-1.49582
-1.50204
-1.50815
-1.51416
-1.52007
-1.52587
-1.53157
-1.53716
-1.54267
-1.54807
-1.55338
-1.55859
-1.56371
-1.56875
-1.57369
-1.57854
-1.58331
-1.58799
-1.59259
-1.59711
-1.60155
-1.6059
-1.61018
-1.61439
-1.61851
-1.62256
-0.560317
-0.560894
-0.562635
-0.565303
-0.568788
-0.573075
-0.578134
-0.583916
-0.590373
-0.597466
-0.605153
-0.613396
-0.622159
-0.631404
-0.641098
-0.651207
-0.6617
-0.672547
-0.683718
-0.695186
-0.706923
-0.718905
-0.731107
-0.743506
-0.756079
-0.768806
-0.781667
-0.794643
-0.807715
-0.820866
-0.83408
-0.847342
-0.860638
-0.873953
-0.887274
-0.90059
-0.913889
-0.92716
-0.940393
-0.953578
-0.966706
-0.97977
-0.992762
-1.00567
-1.0185
-1.03123
-1.04387
-1.0564
-1.06882
-1.08113
-1.09332
-1.10539
-1.11734
-1.12916
-1.14085
-1.15241
-1.16384
-1.17513
-1.18628
-1.19729
-1.20816
-1.21889
-1.22948
-1.23993
-1.25023
-1.26039
-1.27041
-1.28029
-1.29002
-1.29961
-1.30906
-1.31837
-1.32753
-1.33656
-1.34545
-1.3542
-1.36281
-1.37129
-1.37963
-1.38784
-1.39592
-1.40387
-1.41168
-1.41937
-1.42693
-1.43437
-1.44168
-1.44887
-1.45594
-1.46289
-1.46972
-1.47644
-1.48304
-1.48953
-1.4959
-1.50217
-1.50833
-1.51438
-1.52033
-1.52617
-1.53191
-1.53755
-1.54309
-1.54853
-1.55388
-1.55913
-1.56429
-1.56936
-1.57434
-1.57923
-1.58404
-1.58876
-1.59339
-1.59794
-1.60241
-1.6068
-1.61111
-1.61535
-1.61951
-1.62359
-0.556361
-0.556903
-0.558613
-0.561255
-0.564715
-0.568981
-0.574022
-0.579789
-0.586235
-0.593318
-0.601
-0.609241
-0.618003
-0.627252
-0.636951
-0.64707
-0.657574
-0.668435
-0.679623
-0.69111
-0.70287
-0.714876
-0.727105
-0.739532
-0.752137
-0.764898
-0.777795
-0.790808
-0.80392
-0.817114
-0.830372
-0.843679
-0.857022
-0.870386
-0.883758
-0.897126
-0.910478
-0.923803
-0.937092
-0.950334
-0.963521
-0.976644
-0.989695
-1.00267
-1.01555
-1.02835
-1.04105
-1.05364
-1.06613
-1.0785
-1.09076
-1.1029
-1.11491
-1.1268
-1.13855
-1.15018
-1.16167
-1.17303
-1.18424
-1.19532
-1.20626
-1.21706
-1.22771
-1.23822
-1.24859
-1.25882
-1.2689
-1.27884
-1.28864
-1.29829
-1.3078
-1.31717
-1.3264
-1.33549
-1.34444
-1.35325
-1.36193
-1.37046
-1.37887
-1.38713
-1.39527
-1.40327
-1.41114
-1.41889
-1.42651
-1.434
-1.44136
-1.44861
-1.45573
-1.46273
-1.46961
-1.47638
-1.48303
-1.48957
-1.496
-1.50231
-1.50852
-1.51462
-1.52061
-1.5265
-1.53228
-1.53797
-1.54355
-1.54904
-1.55443
-1.55972
-1.56492
-1.57003
-1.57505
-1.57998
-1.58483
-1.58958
-1.59426
-1.59884
-1.60335
-1.60778
-1.61212
-1.61639
-1.62059
-1.6247
-0.552086
-0.552591
-0.554268
-0.55688
-0.560314
-0.564556
-0.569578
-0.575329
-0.581762
-0.588836
-0.596511
-0.604749
-0.613511
-0.622763
-0.632469
-0.642596
-0.653113
-0.663989
-0.675195
-0.686703
-0.698485
-0.710518
-0.722775
-0.735234
-0.747873
-0.76067
-0.773605
-0.78666
-0.799815
-0.813053
-0.826358
-0.839715
-0.853109
-0.866525
-0.879951
-0.893375
-0.906784
-0.920169
-0.933518
-0.946821
-0.960071
-0.973257
-0.986373
-0.999412
-1.01237
-1.02523
-1.03799
-1.05066
-1.06321
-1.07566
-1.08798
-1.10019
-1.11228
-1.12423
-1.13606
-1.14776
-1.15932
-1.17075
-1.18204
-1.19319
-1.2042
-1.21507
-1.22579
-1.23638
-1.24682
-1.25711
-1.26726
-1.27727
-1.28714
-1.29686
-1.30644
-1.31588
-1.32518
-1.33433
-1.34335
-1.35222
-1.36096
-1.36956
-1.37803
-1.38636
-1.39456
-1.40262
-1.41056
-1.41836
-1.42604
-1.43359
-1.44102
-1.44832
-1.4555
-1.46255
-1.46949
-1.47632
-1.48302
-1.48961
-1.49609
-1.50246
-1.50872
-1.51487
-1.52091
-1.52685
-1.53268
-1.53841
-1.54405
-1.54958
-1.55502
-1.56036
-1.5656
-1.57076
-1.57582
-1.58079
-1.58568
-1.59048
-1.59519
-1.59982
-1.60437
-1.60883
-1.61322
-1.61753
-1.62176
-1.62591
-0.547498
-0.547962
-0.549604
-0.552184
-0.555589
-0.559807
-0.564807
-0.570541
-0.57696
-0.584024
-0.591692
-0.599926
-0.608688
-0.617943
-0.627655
-0.637792
-0.648322
-0.659214
-0.670439
-0.681968
-0.693776
-0.705836
-0.718124
-0.730617
-0.743291
-0.756127
-0.769103
-0.782201
-0.795402
-0.808688
-0.822044
-0.835453
-0.848901
-0.862374
-0.875858
-0.889342
-0.902813
-0.91626
-0.929673
-0.943043
-0.956359
-0.969614
-0.9828
-0.995908
-1.00893
-1.02187
-1.03471
-1.04744
-1.06007
-1.07259
-1.085
-1.09728
-1.10944
-1.12147
-1.13338
-1.14515
-1.15679
-1.1683
-1.17966
-1.19089
-1.20198
-1.21292
-1.22372
-1.23438
-1.2449
-1.25527
-1.2655
-1.27558
-1.28552
-1.29532
-1.30497
-1.31448
-1.32385
-1.33308
-1.34216
-1.35111
-1.35992
-1.36859
-1.37713
-1.38552
-1.39379
-1.40192
-1.40992
-1.41779
-1.42553
-1.43315
-1.44064
-1.448
-1.45524
-1.46236
-1.46936
-1.47624
-1.48301
-1.48966
-1.49619
-1.50262
-1.50893
-1.51513
-1.52123
-1.52722
-1.53311
-1.53889
-1.54458
-1.55016
-1.55565
-1.56104
-1.56633
-1.57153
-1.57664
-1.58166
-1.58659
-1.59144
-1.59619
-1.60087
-1.60546
-1.60996
-1.61439
-1.61874
-1.62301
-1.6272
-0.542603
-0.543024
-0.544628
-0.547173
-0.550548
-0.554739
-0.559717
-0.565432
-0.571836
-0.578888
-0.586549
-0.594779
-0.60354
-0.612798
-0.622517
-0.632664
-0.643206
-0.654115
-0.66536
-0.676912
-0.688746
-0.700836
-0.713156
-0.725684
-0.738397
-0.751273
-0.764293
-0.777437
-0.790686
-0.804024
-0.817433
-0.830898
-0.844403
-0.857936
-0.871482
-0.885029
-0.898565
-0.91208
-0.925562
-0.939001
-0.952389
-0.965717
-0.978977
-0.99216
-1.00526
-1.01827
-1.03119
-1.044
-1.05671
-1.06931
-1.0818
-1.09416
-1.1064
-1.11852
-1.13051
-1.14236
-1.15408
-1.16567
-1.17712
-1.18843
-1.19959
-1.21062
-1.2215
-1.23225
-1.24284
-1.25329
-1.2636
-1.27377
-1.28379
-1.29366
-1.30339
-1.31298
-1.32243
-1.33173
-1.3409
-1.34992
-1.3588
-1.36755
-1.37615
-1.38463
-1.39296
-1.40117
-1.40924
-1.41718
-1.42499
-1.43267
-1.44023
-1.44766
-1.45496
-1.46215
-1.46921
-1.47616
-1.48299
-1.4897
-1.49629
-1.50278
-1.50915
-1.51541
-1.52157
-1.52762
-1.53356
-1.5394
-1.54514
-1.55078
-1.55632
-1.56176
-1.56711
-1.57236
-1.57752
-1.58259
-1.58757
-1.59246
-1.59726
-1.60198
-1.60662
-1.61117
-1.61564
-1.62004
-1.62435
-1.62858
-0.537407
-0.537781
-0.539345
-0.541854
-0.545196
-0.549359
-0.554313
-0.560007
-0.566395
-0.573435
-0.581087
-0.589312
-0.598073
-0.607333
-0.617058
-0.627215
-0.637772
-0.648698
-0.659963
-0.67154
-0.683402
-0.695522
-0.707876
-0.720441
-0.733194
-0.746113
-0.759179
-0.772371
-0.785672
-0.799063
-0.812529
-0.826052
-0.839619
-0.853215
-0.866826
-0.880441
-0.894046
-0.907631
-0.921186
-0.9347
-0.948164
-0.961568
-0.974906
-0.98817
-1.00135
-1.01444
-1.02744
-1.04034
-1.05314
-1.06582
-1.07839
-1.09084
-1.10317
-1.11537
-1.12744
-1.13939
-1.1512
-1.16287
-1.1744
-1.1858
-1.19705
-1.20817
-1.21914
-1.22997
-1.24065
-1.25119
-1.26158
-1.27183
-1.28193
-1.29189
-1.30171
-1.31138
-1.32091
-1.33029
-1.33954
-1.34864
-1.3576
-1.36643
-1.37512
-1.38366
-1.39208
-1.40036
-1.4085
-1.41652
-1.4244
-1.43216
-1.43979
-1.44729
-1.45466
-1.46192
-1.46905
-1.47606
-1.48296
-1.48973
-1.4964
-1.50295
-1.50938
-1.51571
-1.52192
-1.52803
-1.53404
-1.53994
-1.54573
-1.55143
-1.55703
-1.56252
-1.56793
-1.57323
-1.57845
-1.58357
-1.5886
-1.59354
-1.5984
-1.60317
-1.60785
-1.61245
-1.61697
-1.62141
-1.62577
-1.63005
-0.531915
-0.53224
-0.533761
-0.536231
-0.539539
-0.543671
-0.548599
-0.554272
-0.560643
-0.567669
-0.575312
-0.583531
-0.592291
-0.601554
-0.611286
-0.621453
-0.632024
-0.642968
-0.654254
-0.665856
-0.677746
-0.689899
-0.702288
-0.714892
-0.727686
-0.740651
-0.753765
-0.767008
-0.780363
-0.793811
-0.807336
-0.820921
-0.834552
-0.848214
-0.861894
-0.875579
-0.889258
-0.902918
-0.916549
-0.930141
-0.943685
-0.957171
-0.970591
-0.983939
-0.997205
-1.01038
-1.02347
-1.03646
-1.04934
-1.06211
-1.07477
-1.08731
-1.09973
-1.11203
-1.12419
-1.13623
-1.14813
-1.15989
-1.17152
-1.18301
-1.19436
-1.20556
-1.21663
-1.22754
-1.23832
-1.24895
-1.25943
-1.26977
-1.27996
-1.29001
-1.29992
-1.30968
-1.31929
-1.32876
-1.33809
-1.34728
-1.35633
-1.36524
-1.37401
-1.38264
-1.39113
-1.39949
-1.40772
-1.41581
-1.42377
-1.43161
-1.43931
-1.44689
-1.45434
-1.46167
-1.46887
-1.47596
-1.48292
-1.48977
-1.4965
-1.50312
-1.50962
-1.51601
-1.5223
-1.52847
-1.53454
-1.5405
-1.54636
-1.55212
-1.55777
-1.56333
-1.56879
-1.57416
-1.57943
-1.5846
-1.58969
-1.59469
-1.5996
-1.60442
-1.60915
-1.61381
-1.61838
-1.62286
-1.62727
-1.6316
-0.526133
-0.526406
-0.527882
-0.530311
-0.533582
-0.537682
-0.542583
-0.548233
-0.554584
-0.561596
-0.569229
-0.577443
-0.5862
-0.595466
-0.605204
-0.615382
-0.625967
-0.636929
-0.648238
-0.659866
-0.671785
-0.683971
-0.696397
-0.709041
-0.721879
-0.734891
-0.748055
-0.761351
-0.774762
-0.78827
-0.801856
-0.815506
-0.829204
-0.842936
-0.856688
-0.870448
-0.884203
-0.897941
-0.911653
-0.925327
-0.938954
-0.952526
-0.966034
-0.979469
-0.992825
-1.0061
-1.01927
-1.03235
-1.04533
-1.0582
-1.07095
-1.08359
-1.0961
-1.10849
-1.12076
-1.13289
-1.14489
-1.15675
-1.16847
-1.18006
-1.1915
-1.20281
-1.21397
-1.22498
-1.23585
-1.24658
-1.25716
-1.26759
-1.27788
-1.28802
-1.29802
-1.30787
-1.31758
-1.32714
-1.33656
-1.34584
-1.35498
-1.36397
-1.37283
-1.38155
-1.39013
-1.39857
-1.40688
-1.41506
-1.42311
-1.43102
-1.4388
-1.44646
-1.45399
-1.4614
-1.46868
-1.47584
-1.48288
-1.4898
-1.4966
-1.50329
-1.50987
-1.51633
-1.52268
-1.52892
-1.53506
-1.54109
-1.54701
-1.55283
-1.55856
-1.56418
-1.5697
-1.57512
-1.58045
-1.58569
-1.59084
-1.59589
-1.60086
-1.60573
-1.61052
-1.61523
-1.61985
-1.62439
-1.62885
-1.63323
-0.520065
-0.520285
-0.521712
-0.524098
-0.527331
-0.531397
-0.536269
-0.541894
-0.548226
-0.555222
-0.562843
-0.571051
-0.579806
-0.589073
-0.598818
-0.609006
-0.619606
-0.630586
-0.641918
-0.653573
-0.665523
-0.677743
-0.690207
-0.702893
-0.715776
-0.728837
-0.742053
-0.755405
-0.768874
-0.782443
-0.796094
-0.809812
-0.82358
-0.837385
-0.851212
-0.865049
-0.878884
-0.892705
-0.9065
-0.92026
-0.933975
-0.947636
-0.961235
-0.974763
-0.988213
-1.00158
-1.01485
-1.02803
-1.0411
-1.05407
-1.06692
-1.07966
-1.09228
-1.10477
-1.11713
-1.12937
-1.14147
-1.15343
-1.16526
-1.17695
-1.18849
-1.1999
-1.21116
-1.22228
-1.23325
-1.24407
-1.25475
-1.26529
-1.27567
-1.28592
-1.29601
-1.30596
-1.31577
-1.32543
-1.33494
-1.34431
-1.35354
-1.36263
-1.37158
-1.38039
-1.38906
-1.3976
-1.406
-1.41426
-1.42239
-1.43039
-1.43826
-1.446
-1.45362
-1.4611
-1.46847
-1.47571
-1.48283
-1.48983
-1.49671
-1.50347
-1.51012
-1.51666
-1.52308
-1.5294
-1.5356
-1.5417
-1.5477
-1.55359
-1.55937
-1.56506
-1.57065
-1.57614
-1.58153
-1.58683
-1.59204
-1.59715
-1.60218
-1.60711
-1.61196
-1.61672
-1.6214
-1.626
-1.63051
-1.63494
-0.513718
-0.51388
-0.515258
-0.517599
-0.52079
-0.524821
-0.529662
-0.535261
-0.541571
-0.548551
-0.55616
-0.56436
-0.573113
-0.582382
-0.592132
-0.602331
-0.612945
-0.623945
-0.6353
-0.646982
-0.658963
-0.671218
-0.683722
-0.696451
-0.709381
-0.722492
-0.735762
-0.749172
-0.762702
-0.776335
-0.790053
-0.803841
-0.817682
-0.831562
-0.845468
-0.859386
-0.873304
-0.88721
-0.901093
-0.914942
-0.928749
-0.942503
-0.956197
-0.969821
-0.983369
-0.996834
-1.01021
-1.02349
-1.03666
-1.04973
-1.06269
-1.07553
-1.08825
-1.10085
-1.11332
-1.12566
-1.13787
-1.14994
-1.16188
-1.17367
-1.18533
-1.19684
-1.2082
-1.21943
-1.23051
-1.24144
-1.25222
-1.26286
-1.27335
-1.2837
-1.2939
-1.30395
-1.31385
-1.32361
-1.33323
-1.3427
-1.35203
-1.36122
-1.37027
-1.37917
-1.38794
-1.39657
-1.40506
-1.41341
-1.42164
-1.42973
-1.43768
-1.44551
-1.45321
-1.46079
-1.46824
-1.47556
-1.48276
-1.48984
-1.49681
-1.50365
-1.51038
-1.51699
-1.52349
-1.52988
-1.53617
-1.54234
-1.5484
-1.55437
-1.56022
-1.56598
-1.57164
-1.57719
-1.58265
-1.58802
-1.59329
-1.59847
-1.60356
-1.60855
-1.61346
-1.61829
-1.62302
-1.62768
-1.63225
-1.63673
-0.507096
-0.507199
-0.508525
-0.510818
-0.513966
-0.51796
-0.522768
-0.52834
-0.534627
-0.541589
-0.549185
-0.557377
-0.566126
-0.575396
-0.585152
-0.595361
-0.60599
-0.617009
-0.628387
-0.640097
-0.652111
-0.664402
-0.676946
-0.689719
-0.702698
-0.71586
-0.729186
-0.742655
-0.756248
-0.769947
-0.783735
-0.797595
-0.811512
-0.825471
-0.839458
-0.85346
-0.867464
-0.881459
-0.895433
-0.909376
-0.923278
-0.937129
-0.950921
-0.964646
-0.978296
-0.991864
-1.00534
-1.01873
-1.03201
-1.04519
-1.05825
-1.07121
-1.08404
-1.09675
-1.10933
-1.12178
-1.1341
-1.14628
-1.15833
-1.17023
-1.182
-1.19362
-1.2051
-1.21644
-1.22763
-1.23867
-1.24956
-1.26031
-1.27091
-1.28137
-1.29167
-1.30183
-1.31184
-1.32171
-1.33143
-1.34101
-1.35044
-1.35973
-1.36888
-1.37788
-1.38675
-1.39547
-1.40406
-1.41252
-1.42084
-1.42902
-1.43707
-1.44499
-1.45278
-1.46045
-1.46798
-1.4754
-1.48269
-1.48985
-1.4969
-1.50383
-1.51064
-1.51734
-1.52392
-1.53039
-1.53675
-1.543
-1.54914
-1.55517
-1.56111
-1.56694
-1.57266
-1.57829
-1.58382
-1.58926
-1.59459
-1.59984
-1.60499
-1.61006
-1.61503
-1.61991
-1.62471
-1.62943
-1.63406
-1.6386
-0.500204
-0.500245
-0.501516
-0.503759
-0.506863
-0.510817
-0.515591
-0.521134
-0.527397
-0.53434
-0.541922
-0.550105
-0.558849
-0.56812
-0.577881
-0.5881
-0.598744
-0.609782
-0.621184
-0.632922
-0.644969
-0.657297
-0.669883
-0.682701
-0.695729
-0.708946
-0.722329
-0.735859
-0.749516
-0.763284
-0.777143
-0.791078
-0.805073
-0.819114
-0.833185
-0.847273
-0.861367
-0.875454
-0.889522
-0.903562
-0.917562
-0.931514
-0.945409
-0.959239
-0.972995
-0.98667
-1.00026
-1.01375
-1.02715
-1.04044
-1.05362
-1.06668
-1.07963
-1.09245
-1.10515
-1.11771
-1.13015
-1.14245
-1.15461
-1.16664
-1.17852
-1.19026
-1.20185
-1.2133
-1.22461
-1.23577
-1.24678
-1.25764
-1.26835
-1.27892
-1.28934
-1.29961
-1.30973
-1.31971
-1.32954
-1.33923
-1.34877
-1.35816
-1.36741
-1.37653
-1.3855
-1.39433
-1.40302
-1.41157
-1.41999
-1.42827
-1.43642
-1.44444
-1.45232
-1.46008
-1.46771
-1.47522
-1.4826
-1.48985
-1.49699
-1.50401
-1.5109
-1.51768
-1.52435
-1.5309
-1.53734
-1.54367
-1.5499
-1.55601
-1.56202
-1.56793
-1.57373
-1.57943
-1.58503
-1.59054
-1.59595
-1.60126
-1.60649
-1.61162
-1.61666
-1.62161
-1.62647
-1.63125
-1.63595
-1.64055
-0.493047
-0.493024
-0.494238
-0.496429
-0.499486
-0.503399
-0.508137
-0.513649
-0.519887
-0.52681
-0.534377
-0.542549
-0.551288
-0.560559
-0.570325
-0.580553
-0.591212
-0.602269
-0.613696
-0.625462
-0.637542
-0.649908
-0.662536
-0.6754
-0.688479
-0.70175
-0.715192
-0.728785
-0.742509
-0.756347
-0.77028
-0.784293
-0.798368
-0.812492
-0.82665
-0.840828
-0.855014
-0.869196
-0.883362
-0.897502
-0.911605
-0.925661
-0.939662
-0.9536
-0.967465
-0.981252
-0.994953
-1.00856
-1.02207
-1.03548
-1.04877
-1.06196
-1.07502
-1.08797
-1.10078
-1.11347
-1.12603
-1.13845
-1.15073
-1.16288
-1.17488
-1.18674
-1.19846
-1.21003
-1.22145
-1.23273
-1.24386
-1.25484
-1.26568
-1.27636
-1.2869
-1.29728
-1.30752
-1.31761
-1.32756
-1.33736
-1.34701
-1.35652
-1.36588
-1.3751
-1.38418
-1.39312
-1.40191
-1.41057
-1.41909
-1.42748
-1.43573
-1.44385
-1.45184
-1.45969
-1.46742
-1.47502
-1.48249
-1.48985
-1.49707
-1.50418
-1.51117
-1.51804
-1.52479
-1.53143
-1.53796
-1.54437
-1.55068
-1.55687
-1.56296
-1.56895
-1.57483
-1.58061
-1.58629
-1.59187
-1.59735
-1.60274
-1.60804
-1.61324
-1.61835
-1.62337
-1.6283
-1.63314
-1.6379
-1.64257
-0.48563
-0.485541
-0.486695
-0.488832
-0.49184
-0.49571
-0.500411
-0.50589
-0.512101
-0.519002
-0.526553
-0.534714
-0.543447
-0.552717
-0.562487
-0.572725
-0.583398
-0.594474
-0.605925
-0.61772
-0.629833
-0.642238
-0.654908
-0.66782
-0.680951
-0.694278
-0.70778
-0.721437
-0.73523
-0.749139
-0.763149
-0.77724
-0.791399
-0.805609
-0.819856
-0.834127
-0.848408
-0.862688
-0.876955
-0.891197
-0.905406
-0.91957
-0.933681
-0.94773
-0.961709
-0.975611
-0.989429
-1.00316
-1.01678
-1.03031
-1.04373
-1.05704
-1.07022
-1.08329
-1.09623
-1.10905
-1.12173
-1.13427
-1.14668
-1.15895
-1.17108
-1.18307
-1.19491
-1.20661
-1.21816
-1.22956
-1.24082
-1.25192
-1.26288
-1.27368
-1.28434
-1.29485
-1.30521
-1.31542
-1.32548
-1.3354
-1.34517
-1.35479
-1.36427
-1.3736
-1.3828
-1.39184
-1.40075
-1.40952
-1.41815
-1.42664
-1.435
-1.44322
-1.45131
-1.45927
-1.4671
-1.4748
-1.48238
-1.48982
-1.49715
-1.50435
-1.51143
-1.5184
-1.52524
-1.53197
-1.53859
-1.54509
-1.55148
-1.55776
-1.56394
-1.57
-1.57597
-1.58183
-1.58759
-1.59325
-1.59881
-1.60427
-1.60964
-1.61491
-1.6201
-1.62519
-1.63019
-1.6351
-1.63993
-1.64466
-0.477958
-0.477799
-0.478892
-0.480973
-0.48393
-0.487755
-0.492416
-0.497862
-0.504044
-0.510922
-0.518455
-0.526604
-0.535331
-0.544599
-0.554373
-0.564619
-0.575306
-0.586401
-0.597876
-0.6097
-0.621847
-0.63429
-0.647004
-0.659964
-0.673148
-0.686532
-0.700095
-0.713818
-0.72768
-0.741664
-0.75575
-0.769924
-0.784167
-0.798466
-0.812805
-0.82717
-0.84155
-0.85593
-0.870301
-0.88465
-0.898967
-0.913242
-0.927467
-0.941631
-0.955727
-0.969748
-0.983686
-0.997535
-1.01129
-1.02494
-1.03848
-1.05192
-1.06523
-1.07843
-1.0915
-1.10444
-1.11725
-1.12993
-1.14247
-1.15487
-1.16713
-1.17925
-1.19122
-1.20305
-1.21473
-1.22626
-1.23764
-1.24887
-1.25996
-1.27089
-1.28168
-1.29231
-1.30279
-1.31313
-1.32332
-1.33335
-1.34325
-1.35299
-1.36259
-1.37204
-1.38135
-1.39051
-1.39953
-1.40842
-1.41716
-1.42576
-1.43423
-1.44256
-1.45076
-1.45883
-1.46676
-1.47457
-1.48224
-1.48979
-1.49722
-1.50452
-1.5117
-1.51875
-1.5257
-1.53252
-1.53923
-1.54582
-1.5523
-1.55867
-1.56493
-1.57109
-1.57714
-1.58308
-1.58892
-1.59466
-1.6003
-1.60585
-1.61129
-1.61665
-1.6219
-1.62707
-1.63215
-1.63713
-1.64203
-1.64683
-0.470035
-0.469804
-0.470833
-0.472856
-0.47576
-0.479538
-0.484158
-0.489568
-0.495721
-0.502574
-0.510089
-0.518224
-0.526943
-0.536208
-0.545985
-0.556239
-0.56694
-0.578054
-0.589552
-0.601406
-0.613587
-0.626069
-0.638827
-0.651835
-0.665072
-0.678514
-0.69214
-0.70593
-0.719863
-0.733922
-0.748088
-0.762345
-0.776675
-0.791064
-0.805498
-0.819961
-0.834441
-0.848925
-0.863402
-0.87786
-0.892289
-0.906679
-0.92102
-0.935303
-0.94952
-0.963664
-0.977726
-0.9917
-1.00558
-1.01936
-1.03303
-1.0466
-1.06005
-1.07337
-1.08658
-1.09965
-1.1126
-1.12541
-1.13809
-1.15062
-1.16302
-1.17527
-1.18738
-1.19934
-1.21115
-1.22282
-1.23433
-1.2457
-1.25692
-1.26798
-1.2789
-1.28966
-1.30028
-1.31074
-1.32105
-1.33122
-1.34124
-1.3511
-1.36082
-1.3704
-1.37983
-1.38911
-1.39826
-1.40726
-1.41612
-1.42484
-1.43342
-1.44186
-1.45017
-1.45835
-1.46639
-1.47431
-1.48209
-1.48974
-1.49727
-1.50468
-1.51196
-1.51912
-1.52615
-1.53308
-1.53988
-1.54657
-1.55314
-1.55961
-1.56596
-1.5722
-1.57834
-1.58437
-1.5903
-1.59612
-1.60185
-1.60747
-1.613
-1.61843
-1.62377
-1.62901
-1.63416
-1.63923
-1.6442
-1.64907
-0.461866
-0.461561
-0.462524
-0.464486
-0.467336
-0.471064
-0.475641
-0.481014
-0.487136
-0.493963
-0.501457
-0.509578
-0.518287
-0.527549
-0.537328
-0.54759
-0.558303
-0.569436
-0.580958
-0.59284
-0.605055
-0.617576
-0.630378
-0.643437
-0.656727
-0.670228
-0.683918
-0.697775
-0.711781
-0.725917
-0.740164
-0.754505
-0.768925
-0.783407
-0.797936
-0.812499
-0.827082
-0.841673
-0.856259
-0.870829
-0.885373
-0.89988
-0.914341