# Forces      
# CofR        : (0.000000e+00 0.000000e+00 0.000000e+00)
# Time        forces(pressure viscous porous)	moments(pressure viscous porous)
0             	((0.000000e+00 0.000000e+00 0.000000e+00) (5.226509e-01 3.715188e-15 -5.452090e-17) (0.000000e+00 0.000000e+00 0.000000e+00)) ((0.000000e+00 0.000000e+00 0.000000e+00) (-4.607766e-19 2.180422e-17 -2.344849e-16) (0.000000e+00 0.000000e+00 0.000000e+00))
0.2           	((4.024655e-01 -1.570893e-04 2.000109e-23) (1.715320e-01 -2.011980e-06 2.296453e-22) (0.000000e+00 0.000000e+00 0.000000e+00)) ((3.379127e-24 1.996380e-23 6.501419e-04) (-4.940165e-24 1.148016e-22 7.280967e-07) (0.000000e+00 0.000000e+00 0.000000e+00))
0.4           	((3.559972e-01 -5.746283e-04 2.293908e-23) (1.691493e-01 -2.166877e-07 2.518439e-22) (0.000000e+00 0.000000e+00 0.000000e+00)) ((3.310042e-24 1.874835e-23 -1.506194e-04) (-4.679685e-24 1.112610e-22 -1.566435e-09) (0.000000e+00 0.000000e+00 0.000000e+00))
0.6           	((3.558182e-01 -2.897406e-05 2.295789e-23) (1.691731e-01 -2.742709e-08 2.520964e-22) (0.000000e+00 0.000000e+00 0.000000e+00)) ((3.310932e-24 1.874338e-23 2.789637e-05) (-4.686481e-24 1.112012e-22 5.481177e-08) (0.000000e+00 0.000000e+00 0.000000e+00))
