# Forces      
# CofR        : (0.000000e+00 0.000000e+00 0.000000e+00)
# Time        forces(pressure viscous porous)	moments(pressure viscous porous)
0             	((-1.000000e-04 0.000000e+00 0.000000e+00) (5.226509e-01 3.715188e-15 -5.452090e-17) (0.000000e+00 0.000000e+00 0.000000e+00)) ((0.000000e+00 0.000000e+00 1.654361e-23) (-4.607766e-19 2.180422e-17 -2.344849e-16) (0.000000e+00 0.000000e+00 0.000000e+00))
0.2           	((1.196172e+02 -2.529242e+01 -9.404592e-21) (3.233358e+02 1.745361e+01 -2.194122e-15) (0.000000e+00 0.000000e+00 0.000000e+00)) ((1.031680e-22 4.400013e-21 -9.659966e+00) (-1.250465e-17 8.772848e-16 7.040430e+00) (0.000000e+00 0.000000e+00 0.000000e+00))
