/*--------------------------------*- C++ -*----------------------------------*\
  =========                 |
  \\      /  F ield         | OpenFOAM: The Open Source CFD Toolbox
   \\    /   O peration     | Website:  https://openfoam.org
    \\  /    A nd           | Version:  8
     \\/     M anipulation  |
\*---------------------------------------------------------------------------*/
FoamFile
{
    version     2.0;
    format      ascii;
    class       volScalarField;
    location    "5.4";
    object      p;
}
// * * * * * * * * * * * * * * * * * * * * * * * * * * * * * * * * * * * * * //

dimensions      [0 2 -2 0 0 0 0];

internalField   nonuniform List<scalar> 
262620
(
-1.35974
-1.35996
-1.36063
-1.36166
-1.36299
-1.36464
-1.36658
-1.36879
-1.37126
-1.37397
-1.3769
-1.38003
-1.38336
-1.38687
-1.39054
-1.39436
-1.39831
-1.40239
-1.40659
-1.41088
-1.41527
-1.41974
-1.42429
-1.42889
-1.43355
-1.43826
-1.443
-1.44778
-1.45258
-1.4574
-1.46223
-1.46707
-1.47191
-1.47674
-1.48157
-1.48638
-1.49117
-1.49594
-1.50069
-1.50541
-1.5101
-1.51476
-1.51938
-1.52396
-1.5285
-1.533
-1.53745
-1.54186
-1.54622
-1.55053
-1.55479
-1.559
-1.56316
-1.56726
-1.57131
-1.57531
-1.57926
-1.58315
-1.58698
-1.59076
-1.59448
-1.59815
-1.60176
-1.60532
-1.60883
-1.61228
-1.61567
-1.61901
-1.62229
-1.62553
-1.62871
-1.63183
-1.63491
-1.63793
-1.6409
-1.64382
-1.64669
-1.64951
-1.65228
-1.655
-1.65768
-1.66031
-1.66289
-1.66542
-1.66791
-1.67036
-1.67276
-1.67512
-1.67743
-1.6797
-1.68193
-1.68412
-1.68628
-1.68839
-1.69046
-1.69249
-1.69449
-1.69645
-1.69837
-1.70026
-1.70211
-1.70393
-1.70571
-1.70746
-1.70918
-1.71086
-1.71252
-1.71414
-1.71573
-1.7173
-1.71883
-1.72034
-1.72181
-1.72326
-1.72468
-1.72608
-1.72745
-1.72879
-1.73011
-1.7314
-1.35961
-1.35982
-1.3605
-1.36152
-1.36285
-1.3645
-1.36644
-1.36865
-1.37112
-1.37382
-1.37675
-1.37989
-1.38322
-1.38672
-1.39039
-1.39421
-1.39817
-1.40225
-1.40645
-1.41074
-1.41513
-1.41961
-1.42415
-1.42876
-1.43342
-1.43813
-1.44287
-1.44765
-1.45245
-1.45728
-1.46211
-1.46695
-1.47179
-1.47662
-1.48145
-1.48626
-1.49106
-1.49584
-1.50059
-1.50531
-1.51
-1.51466
-1.51928
-1.52387
-1.52841
-1.53291
-1.53737
-1.54178
-1.54614
-1.55045
-1.55472
-1.55893
-1.56309
-1.5672
-1.57126
-1.57526
-1.5792
-1.5831
-1.58693
-1.59072
-1.59444
-1.59811
-1.60173
-1.60529
-1.6088
-1.61225
-1.61565
-1.61899
-1.62228
-1.62551
-1.6287
-1.63182
-1.6349
-1.63793
-1.6409
-1.64382
-1.6467
-1.64952
-1.65229
-1.65502
-1.6577
-1.66033
-1.66291
-1.66545
-1.66794
-1.67039
-1.67279
-1.67515
-1.67747
-1.67974
-1.68198
-1.68417
-1.68632
-1.68844
-1.69051
-1.69255
-1.69454
-1.69651
-1.69843
-1.70032
-1.70218
-1.70399
-1.70578
-1.70753
-1.70925
-1.71094
-1.7126
-1.71422
-1.71582
-1.71738
-1.71892
-1.72042
-1.7219
-1.72335
-1.72477
-1.72617
-1.72754
-1.72888
-1.7302
-1.7315
-1.35937
-1.35959
-1.36026
-1.36128
-1.36261
-1.36425
-1.36619
-1.3684
-1.37087
-1.37357
-1.3765
-1.37964
-1.38296
-1.38647
-1.39014
-1.39396
-1.39792
-1.402
-1.4062
-1.4105
-1.41489
-1.41936
-1.42391
-1.42852
-1.43318
-1.4379
-1.44265
-1.44743
-1.45223
-1.45706
-1.46189
-1.46674
-1.47158
-1.47642
-1.48125
-1.48607
-1.49087
-1.49565
-1.50041
-1.50514
-1.50984
-1.5145
-1.51913
-1.52372
-1.52826
-1.53277
-1.53723
-1.54165
-1.54601
-1.55033
-1.5546
-1.55882
-1.56298
-1.5671
-1.57116
-1.57516
-1.57912
-1.58301
-1.58686
-1.59064
-1.59438
-1.59805
-1.60167
-1.60524
-1.60875
-1.61221
-1.61561
-1.61896
-1.62225
-1.62549
-1.62868
-1.63181
-1.63489
-1.63792
-1.6409
-1.64383
-1.6467
-1.64953
-1.65231
-1.65504
-1.65772
-1.66035
-1.66294
-1.66548
-1.66798
-1.67043
-1.67284
-1.6752
-1.67752
-1.6798
-1.68204
-1.68424
-1.68639
-1.68851
-1.69059
-1.69262
-1.69463
-1.69659
-1.69852
-1.70041
-1.70227
-1.70409
-1.70588
-1.70764
-1.70936
-1.71105
-1.71271
-1.71434
-1.71593
-1.7175
-1.71904
-1.72055
-1.72203
-1.72348
-1.72491
-1.72631
-1.72768
-1.72903
-1.73035
-1.73164
-1.35903
-1.35923
-1.3599
-1.36091
-1.36224
-1.36388
-1.36582
-1.36802
-1.37049
-1.37319
-1.37612
-1.37925
-1.38258
-1.38609
-1.38976
-1.39358
-1.39754
-1.40162
-1.40582
-1.41013
-1.41452
-1.419
-1.42355
-1.42816
-1.43283
-1.43755
-1.4423
-1.44709
-1.4519
-1.45673
-1.46157
-1.46642
-1.47127
-1.47612
-1.48096
-1.48578
-1.49059
-1.49538
-1.50014
-1.50487
-1.50958
-1.51425
-1.51888
-1.52348
-1.52804
-1.53255
-1.53702
-1.54144
-1.54582
-1.55014
-1.55442
-1.55865
-1.56282
-1.56694
-1.57101
-1.57502
-1.57898
-1.58289
-1.58674
-1.59053
-1.59427
-1.59796
-1.60159
-1.60516
-1.60868
-1.61214
-1.61555
-1.61891
-1.62221
-1.62545
-1.62865
-1.63179
-1.63488
-1.63791
-1.6409
-1.64383
-1.64672
-1.64955
-1.65234
-1.65507
-1.65776
-1.6604
-1.663
-1.66554
-1.66805
-1.6705
-1.67292
-1.67529
-1.67761
-1.6799
-1.68214
-1.68434
-1.68651
-1.68863
-1.69071
-1.69276
-1.69476
-1.69673
-1.69867
-1.70056
-1.70243
-1.70425
-1.70605
-1.70781
-1.70954
-1.71123
-1.71289
-1.71453
-1.71613
-1.7177
-1.71924
-1.72076
-1.72224
-1.7237
-1.72513
-1.72653
-1.72791
-1.72926
-1.73058
-1.73188
-1.35857
-1.35877
-1.35942
-1.36043
-1.36176
-1.36339
-1.36532
-1.36753
-1.36999
-1.37269
-1.37562
-1.37875
-1.38208
-1.38559
-1.38926
-1.39308
-1.39704
-1.40113
-1.40533
-1.40964
-1.41404
-1.41852
-1.42307
-1.42769
-1.43237
-1.43709
-1.44185
-1.44664
-1.45146
-1.4563
-1.46115
-1.466
-1.47086
-1.47572
-1.48056
-1.4854
-1.49022
-1.49501
-1.49978
-1.50453
-1.50924
-1.51392
-1.51857
-1.52317
-1.52774
-1.53226
-1.53674
-1.54117
-1.54556
-1.5499
-1.55418
-1.55842
-1.5626
-1.56673
-1.57081
-1.57484
-1.57881
-1.58272
-1.58658
-1.59039
-1.59414
-1.59783
-1.60147
-1.60505
-1.60858
-1.61206
-1.61548
-1.61884
-1.62215
-1.62541
-1.62861
-1.63176
-1.63486
-1.6379
-1.6409
-1.64384
-1.64673
-1.64958
-1.65237
-1.65512
-1.65781
-1.66046
-1.66306
-1.66562
-1.66813
-1.6706
-1.67302
-1.67539
-1.67773
-1.68002
-1.68227
-1.68448
-1.68665
-1.68878
-1.69087
-1.69292
-1.69493
-1.69691
-1.69885
-1.70076
-1.70262
-1.70446
-1.70626
-1.70802
-1.70976
-1.71146
-1.71313
-1.71477
-1.71637
-1.71795
-1.7195
-1.72102
-1.72251
-1.72397
-1.72541
-1.72681
-1.7282
-1.72955
-1.73088
-1.73219
-1.358
-1.35819
-1.35884
-1.35984
-1.36116
-1.36279
-1.36471
-1.36691
-1.36937
-1.37207
-1.375
-1.37813
-1.38146
-1.38496
-1.38864
-1.39246
-1.39642
-1.40052
-1.40472
-1.40903
-1.41344
-1.41792
-1.42248
-1.42711
-1.43179
-1.43652
-1.44129
-1.44609
-1.45092
-1.45576
-1.46062
-1.46549
-1.47036
-1.47522
-1.48008
-1.48492
-1.48975
-1.49456
-1.49934
-1.5041
-1.50882
-1.51352
-1.51817
-1.52279
-1.52737
-1.53191
-1.5364
-1.54084
-1.54524
-1.54959
-1.55389
-1.55814
-1.56233
-1.56648
-1.57057
-1.57461
-1.57859
-1.58252
-1.58639
-1.59021
-1.59397
-1.59768
-1.60133
-1.60492
-1.60847
-1.61195
-1.61538
-1.61876
-1.62208
-1.62535
-1.62856
-1.63173
-1.63483
-1.63789
-1.6409
-1.64385
-1.64676
-1.64961
-1.65241
-1.65517
-1.65788
-1.66054
-1.66315
-1.66571
-1.66824
-1.67071
-1.67314
-1.67553
-1.67787
-1.68018
-1.68244
-1.68465
-1.68683
-1.68897
-1.69107
-1.69313
-1.69515
-1.69714
-1.69909
-1.701
-1.70288
-1.70472
-1.70653
-1.7083
-1.71004
-1.71175
-1.71343
-1.71507
-1.71669
-1.71827
-1.71983
-1.72135
-1.72285
-1.72432
-1.72576
-1.72717
-1.72856
-1.72992
-1.73126
-1.73257
-1.35732
-1.3575
-1.35814
-1.35913
-1.36044
-1.36207
-1.36399
-1.36618
-1.36864
-1.37133
-1.37426
-1.37739
-1.38072
-1.38422
-1.3879
-1.39172
-1.39569
-1.39979
-1.404
-1.40831
-1.41272
-1.41722
-1.42178
-1.42642
-1.43111
-1.43584
-1.44062
-1.44543
-1.45027
-1.45513
-1.46
-1.46487
-1.46976
-1.47463
-1.4795
-1.48436
-1.4892
-1.49402
-1.49882
-1.50359
-1.50833
-1.51303
-1.51771
-1.52234
-1.52693
-1.53148
-1.53599
-1.54045
-1.54486
-1.54923
-1.55354
-1.5578
-1.56202
-1.56617
-1.57028
-1.57433
-1.57833
-1.58227
-1.58616
-1.58999
-1.59377
-1.59749
-1.60116
-1.60477
-1.60833
-1.61183
-1.61527
-1.61866
-1.622
-1.62528
-1.62851
-1.63168
-1.63481
-1.63788
-1.6409
-1.64386
-1.64678
-1.64965
-1.65246
-1.65523
-1.65795
-1.66062
-1.66325
-1.66583
-1.66836
-1.67085
-1.67329
-1.67569
-1.67804
-1.68036
-1.68263
-1.68486
-1.68705
-1.6892
-1.69131
-1.69338
-1.69541
-1.6974
-1.69936
-1.70128
-1.70317
-1.70502
-1.70684
-1.70862
-1.71037
-1.71209
-1.71378
-1.71543
-1.71705
-1.71865
-1.72021
-1.72174
-1.72325
-1.72473
-1.72618
-1.7276
-1.72899
-1.73036
-1.73171
-1.73302
-1.35653
-1.3567
-1.35733
-1.35832
-1.35962
-1.36123
-1.36315
-1.36534
-1.36779
-1.37048
-1.3734
-1.37653
-1.37986
-1.38337
-1.38705
-1.39087
-1.39484
-1.39894
-1.40316
-1.40748
-1.4119
-1.4164
-1.42097
-1.42562
-1.43031
-1.43506
-1.43985
-1.44467
-1.44952
-1.45439
-1.45927
-1.46417
-1.46906
-1.47395
-1.47883
-1.48371
-1.48856
-1.4934
-1.49821
-1.503
-1.50775
-1.51248
-1.51716
-1.52181
-1.52642
-1.53099
-1.53551
-1.53999
-1.54442
-1.5488
-1.55314
-1.55742
-1.56165
-1.56582
-1.56995
-1.57402
-1.57803
-1.58199
-1.5859
-1.58975
-1.59354
-1.59728
-1.60096
-1.60459
-1.60816
-1.61168
-1.61514
-1.61855
-1.6219
-1.6252
-1.62844
-1.63164
-1.63478
-1.63786
-1.6409
-1.64388
-1.64681
-1.64969
-1.65252
-1.65531
-1.65804
-1.66073
-1.66337
-1.66596
-1.66851
-1.67101
-1.67346
-1.67587
-1.67824
-1.68057
-1.68285
-1.6851
-1.6873
-1.68946
-1.69158
-1.69366
-1.69571
-1.69771
-1.69968
-1.70162
-1.70351
-1.70538
-1.7072
-1.709
-1.71076
-1.71249
-1.71418
-1.71585
-1.71748
-1.71908
-1.72066
-1.7222
-1.72371
-1.7252
-1.72666
-1.72809
-1.72949
-1.73087
-1.73222
-1.73354
-1.35565
-1.3558
-1.35642
-1.35739
-1.35868
-1.36029
-1.3622
-1.36438
-1.36683
-1.36952
-1.37244
-1.37557
-1.37889
-1.3824
-1.38608
-1.38991
-1.39389
-1.39799
-1.40221
-1.40654
-1.41096
-1.41547
-1.42006
-1.42471
-1.42942
-1.43418
-1.43898
-1.44381
-1.44868
-1.45356
-1.45846
-1.46336
-1.46827
-1.47318
-1.47808
-1.48297
-1.48784
-1.49269
-1.49752
-1.50233
-1.5071
-1.51184
-1.51655
-1.52122
-1.52585
-1.53043
-1.53498
-1.53947
-1.54392
-1.54833
-1.55268
-1.55698
-1.56123
-1.56542
-1.56957
-1.57366
-1.57769
-1.58167
-1.5856
-1.58947
-1.59328
-1.59704
-1.60074
-1.60439
-1.60798
-1.61151
-1.615
-1.61842
-1.62179
-1.62511
-1.62837
-1.63158
-1.63474
-1.63784
-1.64089
-1.64389
-1.64684
-1.64974
-1.65259
-1.65539
-1.65814
-1.66084
-1.6635
-1.66611
-1.66867
-1.67119
-1.67366
-1.67608
-1.67847
-1.68081
-1.68311
-1.68536
-1.68758
-1.68975
-1.69189
-1.69399
-1.69604
-1.69806
-1.70005
-1.70199
-1.7039
-1.70578
-1.70762
-1.70942
-1.7112
-1.71294
-1.71464
-1.71632
-1.71796
-1.71958
-1.72116
-1.72271
-1.72424
-1.72574
-1.7272
-1.72865
-1.73006
-1.73145
-1.73281
-1.73414
-1.35466
-1.3548
-1.3554
-1.35636
-1.35764
-1.35924
-1.36114
-1.36332
-1.36576
-1.36845
-1.37136
-1.37449
-1.37781
-1.38132
-1.385
-1.38884
-1.39282
-1.39693
-1.40115
-1.40549
-1.40992
-1.41444
-1.41903
-1.4237
-1.42842
-1.43319
-1.438
-1.44285
-1.44773
-1.45263
-1.45754
-1.46247
-1.46739
-1.47232
-1.47724
-1.48214
-1.48703
-1.49191
-1.49676
-1.50158
-1.50638
-1.51114
-1.51587
-1.52056
-1.52521
-1.52981
-1.53438
-1.5389
-1.54337
-1.54779
-1.55217
-1.55649
-1.56076
-1.56498
-1.56915
-1.57326
-1.57731
-1.58132
-1.58526
-1.58915
-1.59299
-1.59677
-1.60049
-1.60416
-1.60777
-1.61133
-1.61483
-1.61828
-1.62167
-1.62501
-1.62829
-1.63152
-1.6347
-1.63782
-1.64089
-1.64391
-1.64688
-1.6498
-1.65267
-1.65548
-1.65825
-1.66097
-1.66365
-1.66627
-1.66885
-1.67139
-1.67388
-1.67632
-1.67872
-1.68108
-1.68339
-1.68566
-1.6879
-1.69009
-1.69224
-1.69435
-1.69642
-1.69846
-1.70045
-1.70241
-1.70434
-1.70623
-1.70808
-1.7099
-1.71169
-1.71344
-1.71516
-1.71685
-1.7185
-1.72013
-1.72172
-1.72329
-1.72483
-1.72634
-1.72782
-1.72927
-1.73069
-1.73209
-1.73346
-1.7348
-1.35357
-1.35369
-1.35428
-1.35523
-1.3565
-1.35809
-1.35998
-1.36215
-1.36458
-1.36726
-1.37017
-1.3733
-1.37663
-1.38014
-1.38382
-1.38766
-1.39164
-1.39575
-1.39999
-1.40433
-1.40877
-1.4133
-1.41791
-1.42258
-1.42732
-1.4321
-1.43693
-1.4418
-1.44669
-1.45161
-1.45654
-1.46148
-1.46642
-1.47137
-1.47631
-1.48123
-1.48615
-1.49104
-1.49591
-1.50076
-1.50558
-1.51036
-1.51511
-1.51983
-1.5245
-1.52913
-1.53372
-1.53826
-1.54276
-1.54721
-1.5516
-1.55595
-1.56025
-1.56449
-1.56868
-1.57282
-1.5769
-1.58092
-1.58489
-1.58881
-1.59267
-1.59647
-1.60022
-1.60391
-1.60755
-1.61113
-1.61465
-1.61812
-1.62154
-1.6249
-1.6282
-1.63145
-1.63465
-1.6378
-1.64089
-1.64393
-1.64692
-1.64986
-1.65275
-1.65559
-1.65838
-1.66112
-1.66381
-1.66646
-1.66906
-1.67161
-1.67412
-1.67658
-1.679
-1.68137
-1.6837
-1.68599
-1.68824
-1.69045
-1.69262
-1.69475
-1.69684
-1.69889
-1.7009
-1.70288
-1.70482
-1.70672
-1.70859
-1.71042
-1.71222
-1.71399
-1.71573
-1.71743
-1.7191
-1.72074
-1.72235
-1.72393
-1.72548
-1.727
-1.72849
-1.72995
-1.73139
-1.7328
-1.73418
-1.73553
-1.35239
-1.35249
-1.35306
-1.354
-1.35525
-1.35683
-1.35871
-1.36087
-1.3633
-1.36597
-1.36888
-1.37201
-1.37533
-1.37884
-1.38253
-1.38637
-1.39036
-1.39448
-1.39872
-1.40307
-1.40752
-1.41206
-1.41668
-1.42137
-1.42612
-1.43092
-1.43576
-1.44064
-1.44556
-1.45049
-1.45544
-1.4604
-1.46537
-1.47033
-1.47529
-1.48024
-1.48518
-1.4901
-1.49499
-1.49986
-1.5047
-1.50951
-1.51429
-1.51903
-1.52373
-1.52839
-1.533
-1.53757
-1.54209
-1.54657
-1.55099
-1.55536
-1.55969
-1.56396
-1.56817
-1.57233
-1.57644
-1.58049
-1.58449
-1.58843
-1.59232
-1.59615
-1.59992
-1.60364
-1.6073
-1.61091
-1.61446
-1.61795
-1.62139
-1.62478
-1.62811
-1.63138
-1.6346
-1.63777
-1.64089
-1.64395
-1.64697
-1.64993
-1.65284
-1.6557
-1.65851
-1.66127
-1.66399
-1.66666
-1.66928
-1.67185
-1.67438
-1.67686
-1.6793
-1.68169
-1.68405
-1.68636
-1.68862
-1.69085
-1.69304
-1.69518
-1.69729
-1.69936
-1.70139
-1.70338
-1.70534
-1.70726
-1.70915
-1.711
-1.71281
-1.7146
-1.71634
-1.71806
-1.71975
-1.7214
-1.72303
-1.72462
-1.72618
-1.72772
-1.72922
-1.7307
-1.73215
-1.73358
-1.73497
-1.73633
-1.35111
-1.35119
-1.35175
-1.35266
-1.3539
-1.35547
-1.35734
-1.35949
-1.36191
-1.36458
-1.36748
-1.3706
-1.37393
-1.37744
-1.38113
-1.38497
-1.38897
-1.3931
-1.39735
-1.40171
-1.40617
-1.41072
-1.41535
-1.42005
-1.42482
-1.42964
-1.4345
-1.4394
-1.44433
-1.44928
-1.45425
-1.45924
-1.46422
-1.46921
-1.4742
-1.47917
-1.48413
-1.48907
-1.494
-1.49889
-1.50376
-1.5086
-1.5134
-1.51817
-1.52289
-1.52758
-1.53222
-1.53682
-1.54137
-1.54587
-1.55032
-1.55473
-1.55908
-1.56338
-1.56762
-1.57181
-1.57595
-1.58003
-1.58406
-1.58803
-1.59194
-1.5958
-1.5996
-1.60334
-1.60703
-1.61067
-1.61424
-1.61777
-1.62123
-1.62464
-1.628
-1.6313
-1.63455
-1.63775
-1.64089
-1.64398
-1.64702
-1.65
-1.65294
-1.65582
-1.65866
-1.66144
-1.66418
-1.66687
-1.66952
-1.67211
-1.67466
-1.67717
-1.67963
-1.68204
-1.68442
-1.68675
-1.68903
-1.69128
-1.69349
-1.69565
-1.69778
-1.69987
-1.70192
-1.70393
-1.70591
-1.70784
-1.70975
-1.71162
-1.71345
-1.71525
-1.71702
-1.71875
-1.72045
-1.72212
-1.72376
-1.72537
-1.72695
-1.7285
-1.73002
-1.73151
-1.73298
-1.73442
-1.73582
-1.7372
-1.34973
-1.34979
-1.35033
-1.35123
-1.35245
-1.354
-1.35586
-1.35801
-1.36042
-1.36308
-1.36598
-1.3691
-1.37243
-1.37594
-1.37963
-1.38348
-1.38748
-1.39161
-1.39587
-1.40024
-1.40472
-1.40928
-1.41393
-1.41864
-1.42342
-1.42826
-1.43314
-1.43806
-1.44301
-1.44798
-1.45298
-1.45798
-1.463
-1.46801
-1.47302
-1.47802
-1.48301
-1.48798
-1.49292
-1.49785
-1.50275
-1.50761
-1.51244
-1.51724
-1.522
-1.52671
-1.53138
-1.53601
-1.54059
-1.54513
-1.54961
-1.55404
-1.55842
-1.56275
-1.56703
-1.57125
-1.57542
-1.57953
-1.58359
-1.58759
-1.59153
-1.59542
-1.59925
-1.60303
-1.60675
-1.61041
-1.61402
-1.61757
-1.62106
-1.6245
-1.62789
-1.63122
-1.6345
-1.63772
-1.64089
-1.644
-1.64707
-1.65008
-1.65304
-1.65595
-1.65882
-1.66163
-1.66439
-1.66711
-1.66977
-1.67239
-1.67497
-1.6775
-1.67998
-1.68242
-1.68481
-1.68717
-1.68948
-1.69175
-1.69397
-1.69616
-1.69831
-1.70042
-1.70249
-1.70452
-1.70651
-1.70847
-1.7104
-1.71228
-1.71413
-1.71595
-1.71774
-1.71949
-1.72121
-1.7229
-1.72455
-1.72618
-1.72777
-1.72934
-1.73088
-1.73239
-1.73387
-1.73532
-1.73674
-1.73813
-1.34826
-1.3483
-1.34882
-1.3497
-1.35091
-1.35244
-1.35429
-1.35642
-1.35883
-1.36148
-1.36438
-1.3675
-1.37082
-1.37433
-1.37802
-1.38188
-1.38588
-1.39003
-1.3943
-1.39868
-1.40316
-1.40774
-1.4124
-1.41713
-1.42193
-1.42679
-1.43169
-1.43663
-1.4416
-1.4466
-1.45162
-1.45665
-1.46168
-1.46672
-1.47176
-1.47679
-1.4818
-1.4868
-1.49178
-1.49673
-1.50166
-1.50656
-1.51142
-1.51625
-1.52104
-1.52578
-1.53049
-1.53515
-1.53976
-1.54433
-1.54885
-1.55331
-1.55773
-1.56209
-1.5664
-1.57065
-1.57485
-1.579
-1.58309
-1.58712
-1.5911
-1.59502
-1.59888
-1.60269
-1.60644
-1.61013
-1.61377
-1.61735
-1.62088
-1.62435
-1.62777
-1.63113
-1.63443
-1.63769
-1.64089
-1.64403
-1.64712
-1.65017
-1.65316
-1.6561
-1.65898
-1.66182
-1.66461
-1.66735
-1.67005
-1.67269
-1.67529
-1.67785
-1.68036
-1.68282
-1.68524
-1.68762
-1.68995
-1.69224
-1.69449
-1.6967
-1.69887
-1.701
-1.7031
-1.70515
-1.70717
-1.70915
-1.71109
-1.713
-1.71487
-1.71671
-1.71851
-1.72028
-1.72202
-1.72373
-1.7254
-1.72704
-1.72866
-1.73024
-1.73179
-1.73332
-1.73482
-1.73629
-1.73772
-1.73912
-1.34671
-1.34672
-1.34721
-1.34807
-1.34927
-1.35079
-1.35262
-1.35474
-1.35713
-1.35979
-1.36268
-1.36579
-1.36911
-1.37263
-1.37632
-1.38018
-1.38419
-1.38834
-1.39262
-1.39701
-1.40151
-1.40611
-1.41078
-1.41553
-1.42035
-1.42522
-1.43014
-1.43511
-1.4401
-1.44512
-1.45017
-1.45522
-1.46029
-1.46536
-1.47042
-1.47548
-1.48052
-1.48555
-1.49056
-1.49555
-1.50051
-1.50544
-1.51033
-1.51519
-1.52002
-1.5248
-1.52954
-1.53423
-1.53888
-1.54348
-1.54803
-1.55253
-1.55698
-1.56138
-1.56572
-1.57001
-1.57425
-1.57843
-1.58255
-1.58662
-1.59063
-1.59459
-1.59849
-1.60233
-1.60611
-1.60984
-1.61351
-1.61713
-1.62069
-1.62419
-1.62764
-1.63103
-1.63437
-1.63765
-1.64088
-1.64406
-1.64718
-1.65026
-1.65328
-1.65625
-1.65916
-1.66203
-1.66485
-1.66762
-1.67034
-1.67302
-1.67564
-1.67822
-1.68076
-1.68325
-1.68569
-1.6881
-1.69046
-1.69277
-1.69505
-1.69728
-1.69948
-1.70163
-1.70375
-1.70582
-1.70786
-1.70986
-1.71183
-1.71376
-1.71565
-1.71751
-1.71933
-1.72112
-1.72288
-1.72461
-1.7263
-1.72796
-1.7296
-1.7312
-1.73277
-1.73431
-1.73583
-1.73732
-1.73877
-1.74018
-1.34506
-1.34504
-1.34552
-1.34636
-1.34753
-1.34903
-1.35085
-1.35296
-1.35535
-1.35799
-1.36088
-1.36399
-1.36731
-1.37082
-1.37452
-1.37838
-1.3824
-1.38656
-1.39085
-1.39526
-1.39977
-1.40437
-1.40907
-1.41384
-1.41867
-1.42357
-1.42851
-1.4335
-1.43852
-1.44356
-1.44863
-1.45372
-1.45881
-1.46391
-1.469
-1.47409
-1.47917
-1.48423
-1.48927
-1.49429
-1.49929
-1.50425
-1.50918
-1.51408
-1.51893
-1.52375
-1.52853
-1.53326
-1.53794
-1.54258
-1.54717
-1.55171
-1.5562
-1.56063
-1.56501
-1.56934
-1.57361
-1.57783
-1.58199
-1.58609
-1.59014
-1.59413
-1.59807
-1.60194
-1.60577
-1.60953
-1.61324
-1.61689
-1.62048
-1.62402
-1.6275
-1.63093
-1.6343
-1.63762
-1.64088
-1.64409
-1.64725
-1.65035
-1.6534
-1.6564
-1.65935
-1.66225
-1.6651
-1.6679
-1.67065
-1.67336
-1.67601
-1.67862
-1.68118
-1.6837
-1.68618
-1.68861
-1.69099
-1.69333
-1.69564
-1.6979
-1.70011
-1.70229
-1.70443
-1.70653
-1.7086
-1.71062
-1.71261
-1.71456
-1.71648
-1.71836
-1.72021
-1.72202
-1.7238
-1.72554
-1.72726
-1.72894
-1.73059
-1.73221
-1.73381
-1.73537
-1.7369
-1.73841
-1.73988
-1.74131
-1.34332
-1.34328
-1.34373
-1.34455
-1.3457
-1.34719
-1.34899
-1.35109
-1.35346
-1.3561
-1.35898
-1.36209
-1.36541
-1.36892
-1.37262
-1.37649
-1.38052
-1.38468
-1.38898
-1.3934
-1.39793
-1.40255
-1.40726
-1.41205
-1.4169
-1.42182
-1.42679
-1.4318
-1.43684
-1.44192
-1.44702
-1.45213
-1.45725
-1.46238
-1.46751
-1.47263
-1.47774
-1.48283
-1.48791
-1.49297
-1.498
-1.503
-1.50796
-1.5129
-1.51779
-1.52265
-1.52746
-1.53223
-1.53696
-1.54163
-1.54626
-1.55084
-1.55536
-1.55984
-1.56426
-1.56862
-1.57294
-1.57719
-1.58139
-1.58554
-1.58962
-1.59365
-1.59762
-1.60154
-1.6054
-1.6092
-1.61295
-1.61663
-1.62026
-1.62384
-1.62736
-1.63082
-1.63423
-1.63758
-1.64088
-1.64412
-1.64732
-1.65045
-1.65354
-1.65657
-1.65955
-1.66248
-1.66537
-1.6682
-1.67098
-1.67371
-1.6764
-1.67904
-1.68163
-1.68418
-1.68668
-1.68914
-1.69156
-1.69393
-1.69626
-1.69854
-1.70079
-1.70299
-1.70516
-1.70729
-1.70937
-1.71142
-1.71344
-1.71541
-1.71735
-1.71926
-1.72113
-1.72296
-1.72476
-1.72653
-1.72827
-1.72997
-1.73165
-1.73329
-1.7349
-1.73648
-1.73804
-1.73956
-1.74105
-1.7425
-1.3415
-1.34143
-1.34185
-1.34265
-1.34378
-1.34525
-1.34703
-1.34912
-1.35148
-1.35411
-1.35699
-1.36009
-1.36341
-1.36693
-1.37063
-1.3745
-1.37853
-1.38271
-1.38702
-1.39145
-1.39599
-1.40063
-1.40536
-1.41017
-1.41505
-1.41999
-1.42498
-1.43001
-1.43509
-1.44019
-1.44532
-1.45046
-1.45561
-1.46077
-1.46593
-1.47109
-1.47624
-1.48137
-1.48648
-1.49157
-1.49664
-1.50168
-1.50669
-1.51166
-1.51659
-1.52149
-1.52634
-1.53115
-1.53592
-1.54064
-1.5453
-1.54992
-1.55449
-1.559
-1.56347
-1.56787
-1.57223
-1.57652
-1.58076
-1.58495
-1.58908
-1.59315
-1.59716
-1.60112
-1.60501
-1.60886
-1.61264
-1.61637
-1.62004
-1.62365
-1.62721
-1.63071
-1.63415
-1.63754
-1.64088
-1.64416
-1.64739
-1.65056
-1.65368
-1.65675
-1.65976
-1.66273
-1.66565
-1.66851
-1.67133
-1.67409
-1.67681
-1.67948
-1.68211
-1.68469
-1.68722
-1.68971
-1.69215
-1.69455
-1.69691
-1.69923
-1.7015
-1.70373
-1.70593
-1.70808
-1.71019
-1.71227
-1.71431
-1.71631
-1.71827
-1.7202
-1.7221
-1.72396
-1.72578
-1.72757
-1.72933
-1.73106
-1.73275
-1.73442
-1.73605
-1.73765
-1.73923
-1.74078
-1.74229
-1.74375
-1.33959
-1.33949
-1.33989
-1.34066
-1.34177
-1.34322
-1.34499
-1.34706
-1.34941
-1.35203
-1.3549
-1.358
-1.36132
-1.36483
-1.36854
-1.37242
-1.37646
-1.38065
-1.38497
-1.38941
-1.39397
-1.39862
-1.40337
-1.4082
-1.4131
-1.41806
-1.42308
-1.42814
-1.43324
-1.43838
-1.44353
-1.44871
-1.4539
-1.45909
-1.46429
-1.46948
-1.47466
-1.47983
-1.48498
-1.49011
-1.49522
-1.5003
-1.50534
-1.51036
-1.51533
-1.52027
-1.52517
-1.53002
-1.53483
-1.53959
-1.5443
-1.54896
-1.55357
-1.55813
-1.56264
-1.56709
-1.57148
-1.57582
-1.58011
-1.58433
-1.5885
-1.59262
-1.59667
-1.60067
-1.60461
-1.60849
-1.61232
-1.61609
-1.6198
-1.62345
-1.62705
-1.63059
-1.63407
-1.6375
-1.64088
-1.6442
-1.64746
-1.65067
-1.65383
-1.65693
-1.65999
-1.66299
-1.66594
-1.66884
-1.67169
-1.67449
-1.67724
-1.67995
-1.6826
-1.68522
-1.68778
-1.6903
-1.69278
-1.69521
-1.6976
-1.69994
-1.70224
-1.70451
-1.70673
-1.70891
-1.71105
-1.71316
-1.71522
-1.71725
-1.71924
-1.7212
-1.72312
-1.725
-1.72685
-1.72867
-1.73045
-1.7322
-1.73392
-1.7356
-1.73726
-1.73889
-1.74048
-1.74205
-1.74358
-1.74506
-1.3376
-1.33747
-1.33784
-1.33858
-1.33967
-1.3411
-1.34285
-1.34491
-1.34725
-1.34986
-1.35272
-1.35582
-1.35913
-1.36265
-1.36636
-1.37024
-1.37429
-1.37849
-1.38282
-1.38728
-1.39185
-1.39653
-1.40129
-1.40614
-1.41107
-1.41605
-1.4211
-1.42619
-1.43132
-1.43648
-1.44167
-1.44688
-1.4521
-1.45733
-1.46256
-1.46779
-1.47301
-1.47822
-1.48341
-1.48858
-1.49373
-1.49885
-1.50394
-1.509
-1.51402
-1.519
-1.52394
-1.52884
-1.53369
-1.53849
-1.54325
-1.54796
-1.55261
-1.55722
-1.56177
-1.56626
-1.5707
-1.57509
-1.57942
-1.58369
-1.5879
-1.59206
-1.59616
-1.6002
-1.60419
-1.60811
-1.61198
-1.61579
-1.61955
-1.62324
-1.62688
-1.63046
-1.63399
-1.63746
-1.64087
-1.64423
-1.64754
-1.65079
-1.65398
-1.65713
-1.66022
-1.66326
-1.66624
-1.66918
-1.67207
-1.67491
-1.67769
-1.68043
-1.68312
-1.68577
-1.68837
-1.69092
-1.69343
-1.69589
-1.69831
-1.70069
-1.70302
-1.70532
-1.70757
-1.70978
-1.71195
-1.71408
-1.71618
-1.71823
-1.72025
-1.72224
-1.72418
-1.72609
-1.72797
-1.72981
-1.73162
-1.73339
-1.73514
-1.73685
-1.73853
-1.74018
-1.7418
-1.74339
-1.74494
-1.74643
-1.33553
-1.33536
-1.3357
-1.33642
-1.33748
-1.33889
-1.34063
-1.34267
-1.345
-1.3476
-1.35045
-1.35354
-1.35685
-1.36037
-1.36409
-1.36798
-1.37203
-1.37624
-1.38058
-1.38506
-1.38965
-1.39434
-1.39913
-1.404
-1.40895
-1.41396
-1.41903
-1.42415
-1.42931
-1.43451
-1.43973
-1.44497
-1.45023
-1.4555
-1.46076
-1.46603
-1.47129
-1.47654
-1.48178
-1.48699
-1.49218
-1.49734
-1.50248
-1.50758
-1.51264
-1.51767
-1.52266
-1.5276
-1.5325
-1.53735
-1.54215
-1.54691
-1.55161
-1.55626
-1.56086
-1.5654
-1.56989
-1.57432
-1.5787
-1.58301
-1.58728
-1.59148
-1.59563
-1.59971
-1.60374
-1.60772
-1.61163
-1.61549
-1.61928
-1.62302
-1.62671
-1.63033
-1.6339
-1.63741
-1.64087
-1.64427
-1.64762
-1.65091
-1.65415
-1.65733
-1.66046
-1.66354
-1.66656
-1.66954
-1.67246
-1.67534
-1.67816
-1.68094
-1.68367
-1.68635
-1.68898
-1.69157
-1.69411
-1.69661
-1.69906
-1.70147
-1.70384
-1.70616
-1.70845
-1.71069
-1.71289
-1.71505
-1.71718
-1.71926
-1.72131
-1.72332
-1.7253
-1.72723
-1.72914
-1.73101
-1.73284
-1.73464
-1.73641
-1.73815
-1.73985
-1.74152
-1.74317
-1.74478
-1.74636
-1.74787
-1.33337
-1.33317
-1.33348
-1.33417
-1.33521
-1.3366
-1.33831
-1.34034
-1.34266
-1.34524
-1.34809
-1.35118
-1.35449
-1.35801
-1.36172
-1.36562
-1.36968
-1.3739
-1.37826
-1.38275
-1.38735
-1.39206
-1.39687
-1.40177
-1.40674
-1.41178
-1.41688
-1.42203
-1.42722
-1.43245
-1.43771
-1.44299
-1.44828
-1.45358
-1.45889
-1.4642
-1.4695
-1.47479
-1.48007
-1.48533
-1.49056
-1.49577
-1.50095
-1.5061
-1.51121
-1.51629
-1.52132
-1.52631
-1.53126
-1.53616
-1.54101
-1.54581
-1.55057
-1.55526
-1.55991
-1.5645
-1.56904
-1.57352
-1.57795
-1.58231
-1.58662
-1.59088
-1.59507
-1.59921
-1.60328
-1.6073
-1.61126
-1.61517
-1.61901
-1.6228
-1.62652
-1.6302
-1.63381
-1.63737
-1.64087
-1.64431
-1.6477
-1.65104
-1.65431
-1.65754
-1.66071
-1.66383
-1.6669
-1.66991
-1.67288
-1.67579
-1.67865
-1.68147
-1.68423
-1.68695
-1.68962
-1.69225
-1.69482
-1.69736
-1.69985
-1.70229
-1.70469
-1.70705
-1.70936
-1.71164
-1.71387
-1.71607
-1.71822
-1.72034
-1.72241
-1.72445
-1.72646
-1.72843
-1.73036
-1.73225
-1.73411
-1.73594
-1.73774
-1.7395
-1.74123
-1.74293
-1.7446
-1.74624
-1.74783
-1.74937
-1.33114
-1.3309
-1.33118
-1.33184
-1.33285
-1.33422
-1.33592
-1.33792
-1.34023
-1.3428
-1.34564
-1.34872
-1.35203
-1.35555
-1.35927
-1.36317
-1.36725
-1.37147
-1.37584
-1.38035
-1.38497
-1.3897
-1.39453
-1.39945
-1.40445
-1.40952
-1.41464
-1.41983
-1.42505
-1.43031
-1.43561
-1.44092
-1.44625
-1.4516
-1.45695
-1.4623
-1.46764
-1.47298
-1.4783
-1.4836
-1.48889
-1.49414
-1.49937
-1.50456
-1.50972
-1.51485
-1.51993
-1.52497
-1.52997
-1.53492
-1.53982
-1.54468
-1.54948
-1.55423
-1.55893
-1.56357
-1.56816
-1.57269
-1.57716
-1.58158
-1.58594
-1.59025
-1.59449
-1.59868
-1.6028
-1.60687
-1.61088
-1.61483
-1.61872
-1.62256
-1.62633
-1.63005
-1.63371
-1.63732
-1.64086
-1.64435
-1.64779
-1.65117
-1.65449
-1.65776
-1.66097
-1.66414
-1.66724
-1.6703
-1.67331
-1.67626
-1.67916
-1.68202
-1.68482
-1.68758
-1.69029
-1.69295
-1.69557
-1.69813
-1.70066
-1.70314
-1.70557
-1.70797
-1.71032
-1.71263
-1.71489
-1.71712
-1.71931
-1.72145
-1.72356
-1.72563
-1.72767
-1.72966
-1.73162
-1.73355
-1.73544
-1.7373
-1.73912
-1.74091
-1.74267
-1.74439
-1.74609
-1.74775
-1.74937
-1.75093
-1.32883
-1.32855
-1.3288
-1.32943
-1.33041
-1.33176
-1.33343
-1.33542
-1.33771
-1.34028
-1.34311
-1.34618
-1.34949
-1.35301
-1.35673
-1.36064
-1.36472
-1.36896
-1.37334
-1.37786
-1.3825
-1.38725
-1.39211
-1.39705
-1.40207
-1.40717
-1.41233
-1.41754
-1.4228
-1.4281
-1.43343
-1.43878
-1.44415
-1.44954
-1.45493
-1.46032
-1.46571
-1.47109
-1.47646
-1.48181
-1.48714
-1.49245
-1.49772
-1.50297
-1.50818
-1.51335
-1.51849
-1.52358
-1.52863
-1.53363
-1.53859
-1.5435
-1.54835
-1.55315
-1.5579
-1.5626
-1.56724
-1.57183
-1.57635
-1.58082
-1.58524
-1.58959
-1.59389
-1.59813
-1.6023
-1.60642
-1.61048
-1.61449
-1.61843
-1.62231
-1.62614
-1.6299
-1.63361
-1.63726
-1.64086
-1.6444
-1.64788
-1.6513
-1.65467
-1.65799
-1.66125
-1.66445
-1.6676
-1.6707
-1.67375
-1.67675
-1.67969
-1.68259
-1.68543
-1.68823
-1.69098
-1.69368
-1.69633
-1.69894
-1.7015
-1.70402
-1.70649
-1.70892
-1.71131
-1.71365
-1.71595
-1.71821
-1.72043
-1.72261
-1.72475
-1.72686
-1.72892
-1.73095
-1.73294
-1.7349
-1.73682
-1.7387
-1.74056
-1.74237
-1.74416
-1.74591
-1.74763
-1.74932
-1.75097
-1.75255
-1.32644
-1.32612
-1.32634
-1.32693
-1.32789
-1.32921
-1.33087
-1.33284
-1.33511
-1.33767
-1.34049
-1.34356
-1.34686
-1.35038
-1.35411
-1.35802
-1.36211
-1.36636
-1.37075
-1.37529
-1.37995
-1.38472
-1.3896
-1.39457
-1.39962
-1.40474
-1.40993
-1.41518
-1.42047
-1.42581
-1.43117
-1.43657
-1.44198
-1.44741
-1.45284
-1.45828
-1.46372
-1.46914
-1.47456
-1.47996
-1.48534
-1.49069
-1.49602
-1.50132
-1.50658
-1.51181
-1.51699
-1.52214
-1.52724
-1.5323
-1.53731
-1.54227
-1.54718
-1.55204
-1.55684
-1.56159
-1.56629
-1.57093
-1.57551
-1.58004
-1.5845
-1.58891
-1.59326
-1.59755
-1.60179
-1.60596
-1.61007
-1.61413
-1.61812
-1.62206
-1.62593
-1.62975
-1.63351
-1.63721
-1.64085
-1.64444
-1.64797
-1.65144
-1.65486
-1.65822
-1.66153
-1.66478
-1.66798
-1.67112
-1.67421
-1.67725
-1.68024
-1.68318
-1.68607
-1.68891
-1.6917
-1.69444
-1.69713
-1.69978
-1.70238
-1.70493
-1.70744
-1.70991
-1.71233
-1.71471
-1.71705
-1.71935
-1.7216
-1.72382
-1.72599
-1.72813
-1.73023
-1.73229
-1.73431
-1.7363
-1.73825
-1.74016
-1.74204
-1.74389
-1.74571
-1.74749
-1.74924
-1.75095
-1.75263
-1.75423
-1.32397
-1.32362
-1.3238
-1.32436
-1.32529
-1.32658
-1.32822
-1.33017
-1.33243
-1.33497
-1.33778
-1.34085
-1.34415
-1.34767
-1.3514
-1.35531
-1.35941
-1.36367
-1.36808
-1.37263
-1.37731
-1.38211
-1.38701
-1.392
-1.39708
-1.40223
-1.40746
-1.41274
-1.41806
-1.42344
-1.42884
-1.43428
-1.43973
-1.4452
-1.45068
-1.45617
-1.46165
-1.46713
-1.47259
-1.47804
-1.48347
-1.48888
-1.49426
-1.49961
-1.50492
-1.5102
-1.51545
-1.52065
-1.52581
-1.53092
-1.53599
-1.541
-1.54597
-1.55088
-1.55575
-1.56055
-1.56531
-1.57
-1.57464
-1.57922
-1.58374
-1.58821
-1.59262
-1.59696
-1.60125
-1.60548
-1.60964
-1.61375
-1.6178
-1.62179
-1.62572
-1.62959
-1.6334
-1.63715
-1.64085
-1.64449
-1.64806
-1.65159
-1.65505
-1.65846
-1.66182
-1.66512
-1.66836
-1.67155
-1.67469
-1.67778
-1.68081
-1.68379
-1.68673
-1.68961
-1.69244
-1.69522
-1.69796
-1.70065
-1.70329
-1.70588
-1.70843
-1.71094
-1.7134
-1.71581
-1.71819
-1.72052
-1.72281
-1.72506
-1.72727
-1.72944
-1.73158
-1.73367
-1.73573
-1.73774
-1.73973
-1.74167
-1.74359
-1.74546
-1.74731
-1.74912
-1.7509
-1.75264
-1.75435
-1.75597
-1.32143
-1.32104
-1.32118
-1.32171
-1.32261
-1.32388
-1.32549
-1.32742
-1.32966
-1.33219
-1.33499
-1.33805
-1.34135
-1.34487
-1.3486
-1.35252
-1.35663
-1.3609
-1.36533
-1.36989
-1.37459
-1.37941
-1.38433
-1.38935
-1.39446
-1.39965
-1.4049
-1.41021
-1.41558
-1.42099
-1.42644
-1.43191
-1.43741
-1.44293
-1.44845
-1.45398
-1.45952
-1.46504
-1.47056
-1.47606
-1.48154
-1.487
-1.49244
-1.49784
-1.50321
-1.50855
-1.51385
-1.51911
-1.52432
-1.52949
-1.53462
-1.53969
-1.54472
-1.54969
-1.55461
-1.55948
-1.56429
-1.56904
-1.57374
-1.57838