/*--------------------------------*- C++ -*----------------------------------*\
  =========                 |
  \\      /  F ield         | OpenFOAM: The Open Source CFD Toolbox
   \\    /   O peration     | Website:  https://openfoam.org
    \\  /    A nd           | Version:  8
     \\/     M anipulation  |
\*---------------------------------------------------------------------------*/
FoamFile
{
    version     2.0;
    format      ascii;
    class       volScalarField;
    location    "2.6";
    object      p;
}
// * * * * * * * * * * * * * * * * * * * * * * * * * * * * * * * * * * * * * //

dimensions      [0 2 -2 0 0 0 0];

internalField   nonuniform List<scalar> 
248760
(
0.0997451
0.0997014
0.0994994
0.0992091
0.0988204
0.0983366
0.0977639
0.0971063
0.0963678
0.0955522
0.0946633
0.0937046
0.0926794
0.0915909
0.0904424
0.0892367
0.0879769
0.0866656
0.0853058
0.0839
0.0824508
0.0809607
0.0794322
0.0778676
0.0762694
0.0746397
0.0729807
0.0712947
0.0695837
0.0678497
0.0660947
0.0643208
0.0625296
0.0607232
0.0589032
0.0570714
0.0552294
0.0533788
0.0515213
0.0496584
0.0477914
0.0459218
0.0440509
0.0421801
0.0403106
0.0384436
0.0365803
0.0347217
0.0328689
0.0310229
0.0291846
0.0273551
0.0255351
0.0237255
0.021927
0.0201405
0.0183665
0.0166058
0.0148589
0.0131265
0.011409
0.00970713
0.00802114
0.00635163
0.00469888
0.00306342
0.00144545
-0.000154566
-0.00173646
-0.00329981
-0.00484453
-0.00637023
-0.00787687
-0.00936411
-0.0108319
-0.01228
-0.0137085
-0.015117
-0.0165056
-0.017874
-0.0192225
-0.0205507
-0.0218589
-0.0231467
-0.0244143
-0.0256617
-0.0268889
-0.0280957
-0.0292825
-0.030449
-0.0315955
-0.0327218
-0.0338281
-0.0349143
-0.0359808
-0.0370272
-0.038054
-0.0390609
-0.0400483
-0.0410159
-0.0419642
-0.0428929
-0.0438024
-0.0446924
-0.0455635
-0.0464152
-0.0472481
-0.0480618
-0.0488569
-0.0496328
-0.0503903
-0.0511287
-0.0518488
-0.05255
-0.0532328
-0.0538967
-0.054541
-0.055168
-0.0557956
-0.056415
0.0997585
0.0997141
0.0995136
0.0992232
0.0988351
0.0983517
0.0977795
0.0971224
0.0963843
0.0955693
0.0946809
0.0937227
0.092698
0.0916101
0.0904621
0.089257
0.0879977
0.086687
0.0853277
0.0839224
0.0824738
0.0809842
0.0794563
0.0778923
0.0762945
0.0746654
0.0730069
0.0713214
0.0696108
0.0678773
0.0661228
0.0643493
0.0625586
0.0607526
0.0589329
0.0571015
0.0552599
0.0534097
0.0515525
0.0496898
0.0478231
0.0459538
0.0440832
0.0422126
0.0403433
0.0384765
0.0366134
0.0347549
0.0329023
0.0310564
0.0292183
0.0273888
0.0255689
0.0237593
0.0219609
0.0201744
0.0184004
0.0166397
0.0148928
0.0131603
0.0114429
0.00974089
0.00805489
0.00638525
0.00473247
0.00309686
0.00147883
-0.000121347
-0.00170332
-0.00326685
-0.00481168
-0.00633757
-0.00784434
-0.00933177
-0.0107997
-0.0122481
-0.0136767
-0.0150854
-0.0164742
-0.0178429
-0.0191916
-0.0205201
-0.0218284
-0.0231165
-0.0243845
-0.0256321
-0.0268596
-0.0280668
-0.0292539
-0.0304207
-0.0315676
-0.0326942
-0.033801
-0.0348877
-0.0359545
-0.0370015
-0.0380287
-0.0390362
-0.0400241
-0.0409924
-0.0419413
-0.0428707
-0.043781
-0.0446719
-0.0455438
-0.0463965
-0.0472305
-0.0480453
-0.0488416
-0.0496189
-0.0503778
-0.0511179
-0.0518397
-0.0525428
-0.0532277
-0.0538938
-0.0545406
-0.0551706
-0.0558018
-0.0564228
0.0997814
0.0997373
0.0995378
0.0992479
0.0988606
0.0983779
0.0978065
0.0971502
0.096413
0.0955988
0.0947113
0.093754
0.0927302
0.0916432
0.0904961
0.0892919
0.0880336
0.0867238
0.0853655
0.0839612
0.0825134
0.0810248
0.0794978
0.0779347
0.0763379
0.0747096
0.073052
0.0713673
0.0696576
0.0679249
0.0661711
0.0643983
0.0626084
0.060803
0.058984
0.0571532
0.0553122
0.0534625
0.0516059
0.0497437
0.0478774
0.0460085
0.0441383
0.0422681
0.0403991
0.0385326
0.0366696
0.0348115
0.0329589
0.0311132
0.0292751
0.0274458
0.0256259
0.0238164
0.0220179
0.0202314
0.0184573
0.0166966
0.0149495
0.013217
0.0114993
0.00979717
0.00811086
0.00644109
0.00478796
0.00315218
0.00153376
-6.66169e-05
-0.00164901
-0.00321278
-0.00475806
-0.00628422
-0.00779146
-0.00927921
-0.0107477
-0.0121963
-0.0136255
-0.0150345
-0.0164239
-0.017793
-0.0191423
-0.0204712
-0.0217801
-0.0230687
-0.0243372
-0.0255853
-0.0268135
-0.0280212
-0.0292089
-0.0303764
-0.0315239
-0.0326512
-0.0337586
-0.034846
-0.0359136
-0.0369612
-0.0379894
-0.0389975
-0.0399864
-0.0409555
-0.0419054
-0.0428357
-0.043747
-0.0446389
-0.045512
-0.0463658
-0.0472009
-0.048017
-0.0488146
-0.0495933
-0.0503537
-0.0510953
-0.0518187
-0.0525236
-0.0532104
-0.0538784
-0.0545274
-0.0551597
-0.0557933
-0.0564171
0.0998152
0.099772
0.0995736
0.0992846
0.0988983
0.0984168
0.0978465
0.0971914
0.0964554
0.0956425
0.0947562
0.0938002
0.0927777
0.0916921
0.0905464
0.0893436
0.0880866
0.0867782
0.0854213
0.0840183
0.082572
0.0810848
0.0795591
0.0779974
0.0764018
0.0747748
0.0731185
0.0714351
0.0697266
0.067995
0.0662425
0.0644708
0.0626819
0.0608775
0.0590595
0.0572296
0.0553895
0.0535407
0.0516848
0.0498233
0.0479578
0.0460895
0.0442199
0.0423502
0.0404817
0.0386156
0.036753
0.0348952
0.033043
0.0311974
0.0293596
0.0275303
0.0257106
0.0239011
0.0221027
0.0203161
0.0185421
0.0167811
0.015034
0.0133012
0.0115834
0.00988101
0.00819453
0.00652438
0.00487103
0.00323481
0.00161613
1.52545e-05
-0.00156745
-0.00313176
-0.00467738
-0.00620414
-0.00771177
-0.00920015
-0.010669
-0.0121184
-0.013548
-0.0149578
-0.0163476
-0.0177175
-0.0190672
-0.0203969
-0.0217064
-0.0229958
-0.0242649
-0.025514
-0.0267427
-0.0279514
-0.0291398
-0.0303082
-0.0314565
-0.0325848
-0.0336931
-0.0347816
-0.0358501
-0.036899
-0.037928
-0.0389376
-0.0399275
-0.040898
-0.0418491
-0.042781
-0.0436936
-0.0445873
-0.0454618
-0.0463176
-0.0471545
-0.0479727
-0.0487722
-0.0495534
-0.0503159
-0.0510603
-0.0517862
-0.0524941
-0.0531837
-0.0538551
-0.0545072
-0.0551432
-0.0557805
-0.0564087
0.0998599
0.0998179
0.0996207
0.0993331
0.0989482
0.0984682
0.0978993
0.0972458
0.0965114
0.0957001
0.0948155
0.0938612
0.0928405
0.0917566
0.0906127
0.0894116
0.0881565
0.08685
0.0854948
0.0840937
0.0826492
0.0811638
0.0796399
0.0780799
0.0764861
0.0748608
0.0732062
0.0715244
0.0698175
0.0680875
0.0663364
0.0645662
0.0627786
0.0609756
0.0591589
0.0573303
0.0554912
0.0536435
0.0517887
0.0499282
0.0480635
0.046196
0.0443271
0.0424581
0.0405903
0.0387247
0.0368627
0.0350052
0.0331534
0.0313082
0.0294706
0.0276415
0.0258219
0.0240125
0.022214
0.0204275
0.0186532
0.0168922
0.0151449
0.0134119
0.0116938
0.00999107
0.00830418
0.00663367
0.00497984
0.00334318
0.00172396
0.000122575
-0.00146073
-0.00302562
-0.0045719
-0.00609929
-0.00760762
-0.0090967
-0.0105663
-0.0120164
-0.0134468
-0.0148574
-0.0162481
-0.0176188
-0.0189694
-0.0203
-0.0216105
-0.0229008
-0.0241709
-0.0254209
-0.0266507
-0.0278604
-0.02905
-0.0302195
-0.0313689
-0.0324984
-0.0336079
-0.0346976
-0.0357675
-0.0368177
-0.0378481
-0.0388591
-0.0398505
-0.0408226
-0.0417752
-0.0427088
-0.0436231
-0.0445186
-0.045395
-0.0462527
-0.0470915
-0.0479119
-0.0487136
-0.049497
-0.0502618
-0.0510087
-0.0517371
-0.0524476
-0.0531399
-0.0538142
-0.0544693
-0.0551084
-0.0557489
-0.0563806
0.0999152
0.0998747
0.0996791
0.0993931
0.0990099
0.0985316
0.0979646
0.097313
0.0965805
0.0957713
0.0948888
0.0939365
0.0929179
0.0918362
0.0906945
0.0894957
0.0882428
0.0869385
0.0855856
0.0841868
0.0827445
0.0812613
0.0797396
0.0781818
0.0765902
0.074967
0.0733144
0.0716346
0.0699297
0.0682016
0.0664524
0.0646839
0.0628981
0.0610967
0.0592816
0.0574544
0.0556168
0.0537705
0.0519169
0.0500575
0.0481939
0.0463275
0.0444595
0.0425914
0.0407243
0.0388594
0.036998
0.035141
0.0332897
0.0314448
0.0296076
0.0277787
0.0259592
0.0241498
0.0223515
0.0205647
0.0187905
0.0170292
0.0152817
0.0135484
0.01183
0.0101268
0.00843955
0.00676844
0.00511418
0.00347683
0.00185709
0.000254941
-0.00132896
-0.00289469
-0.00444163
-0.00596993
-0.007479
-0.00896903
-0.0104395
-0.0118906
-0.0133218
-0.0147335
-0.016125
-0.0174969
-0.0188485
-0.0201803
-0.0214917
-0.0227832
-0.0240544
-0.0253057
-0.0265366
-0.0277477
-0.0289384
-0.0301093
-0.03126
-0.032391
-0.0335018
-0.034593
-0.0356643
-0.0367161
-0.0377481
-0.0387607
-0.0397538
-0.0407277
-0.0416821
-0.0426176
-0.0435339
-0.0444314
-0.0453098
-0.0461698
-0.0470108
-0.0478336
-0.0486377
-0.0494237
-0.0501912
-0.0509408
-0.051672
-0.0523856
-0.0530809
-0.0537585
-0.0544168
-0.0550594
-0.0557034
-0.0563389
0.0999809
0.0999421
0.0997482
0.0994643
0.0990831
0.0986069
0.0980421
0.0973927
0.0966626
0.0958557
0.0949756
0.0940259
0.0930098
0.0919307
0.0907915
0.0895954
0.0883451
0.0870435
0.0856933
0.0842971
0.0828575
0.0813769
0.0798578
0.0783026
0.0767135
0.0750928
0.0734427
0.0717653
0.0700627
0.0683369
0.0665898
0.0648235
0.0630397
0.0612403
0.0594271
0.0576016
0.0557657
0.053921
0.0520689
0.0502109
0.0483486
0.0464834
0.0446166
0.0427494
0.0408832
0.0390191
0.0371584
0.0353021
0.0334513
0.0316069
0.0297699
0.0279413
0.026122
0.0243128
0.0225144
0.0207276
0.0189532
0.0171917
0.0154439
0.0137103
0.0119914
0.0102878
0.00859996
0.00692835
0.00527335
0.00363541
0.00201482
0.00041199
-0.00117285
-0.00273934
-0.00428731
-0.00581645
-0.00732661
-0.00881755
-0.0102892
-0.0117412
-0.0131737
-0.0145864
-0.0159793
-0.0173522
-0.0187052
-0.0200381
-0.0213509
-0.0226437
-0.0239163
-0.0251688
-0.0264013
-0.0276136
-0.028806
-0.0299782
-0.0311306
-0.032263
-0.0333755
-0.0344683
-0.0355413
-0.0365947
-0.0376286
-0.0386429
-0.0396379
-0.0406135
-0.04157
-0.0425074
-0.0434258
-0.0443252
-0.045206
-0.0460679
-0.0469114
-0.0477363
-0.0485429
-0.0493312
-0.0501013
-0.0508532
-0.0515873
-0.0523033
-0.0530016
-0.0536816
-0.054343
-0.0549881
-0.0556353
-0.0562734
0.100057
0.10002
0.0998281
0.0995464
0.0991675
0.0986937
0.0981314
0.0974846
0.0967572
0.095953
0.0950757
0.0941289
0.0931157
0.0920396
0.0909035
0.0897103
0.0884631
0.0871646
0.0858174
0.0844243
0.0829877
0.0815102
0.0799941
0.0784419
0.0768557
0.0752379
0.0735907
0.071916
0.0702161
0.0684929
0.0667484
0.0649845
0.0632031
0.0614059
0.0595948
0.0577715
0.0559375
0.0540946
0.0522442
0.0503879
0.0485271
0.0466633
0.0447977
0.0429317
0.0410665
0.0392034
0.0373435
0.0354879
0.0336377
0.0317938
0.0299573
0.028129
0.0263099
0.0245007
0.0227024
0.0209155
0.0191409
0.0173792
0.0156311
0.013897
0.0121777
0.0104735
0.00878508
0.00711275
0.00545705
0.00381827
0.00219687
0.000593094
-0.000992668
-0.0025602
-0.00410919
-0.00563944
-0.00715072
-0.00864285
-0.0101157
-0.011569
-0.0130027
-0.0144167
-0.0158109
-0.0171852
-0.0185396
-0.0198739
-0.0211882
-0.0224824
-0.0237566
-0.0250107
-0.0262447
-0.0274586
-0.0286526
-0.0298265
-0.0309805
-0.0321146
-0.0332289
-0.0343234
-0.0353983
-0.0364534
-0.0374892
-0.0385054
-0.0395024
-0.04048
-0.0414385
-0.0423779
-0.0432985
-0.0442001
-0.045083
-0.0459473
-0.0467931
-0.0476203
-0.0484294
-0.0492201
-0.0499927
-0.0507473
-0.0514839
-0.0522026
-0.0529035
-0.0535864
-0.0542505
-0.0548984
-0.0555485
-0.0561895
0.100142
0.100108
0.0999183
0.0996392
0.0992629
0.0987918
0.0982324
0.0975885
0.0968641
0.096063
0.0951889
0.0942453
0.0932355
0.0921626
0.0910299
0.0898402
0.0885965
0.0873014
0.0859577
0.0845681
0.0831349
0.0816609
0.0801482
0.0785993
0.0770165
0.075402
0.0737579
0.0720864
0.0703895
0.0686692
0.0669276
0.0651665
0.0633877
0.0615931
0.0597845
0.0579634
0.0561317
0.0542908
0.0524424
0.0505879
0.0487289
0.0468666
0.0450025
0.0431378
0.0412738
0.0394118
0.0375528
0.035698
0.0338485
0.0320052
0.0301691
0.0283412
0.0265222
0.0247132
0.0229148
0.021128
0.0193531
0.0175912
0.0158426
0.0141082
0.0123882
0.0106835
0.00899431
0.00732132
0.00566468
0.0040251
0.00240263
0.000797934
-0.000789012
-0.00235757
-0.00390784
-0.00543923
-0.00695188
-0.00844522
-0.00991948
-0.0113741
-0.0128094
-0.0142247
-0.0156205
-0.0169963
-0.0183523
-0.0196881
-0.0210041
-0.0222999
-0.0235758
-0.0248314
-0.0260673
-0.0272828
-0.0284786
-0.0296542
-0.0308101
-0.031946
-0.0330622
-0.0341585
-0.0352353
-0.0362924
-0.0373301
-0.0383483
-0.0393473
-0.0403268
-0.0412875
-0.0422289
-0.0431515
-0.0440552
-0.0449403
-0.0458066
-0.0466545
-0.047484
-0.0482951
-0.0490881
-0.0498629
-0.0506197
-0.0513584
-0.0520794
-0.0527825
-0.0534677
-0.0541338
-0.0547842
-0.0554361
-0.0560798
0.100237
0.100206
0.100019
0.0997424
0.099369
0.098901
0.0983447
0.097704
0.096983
0.0961853
0.0953148
0.0943747
0.0933686
0.0922995
0.0911706
0.0899847
0.0887448
0.0874536
0.0861138
0.084728
0.0832987
0.0818284
0.0803196
0.0787745
0.0771953
0.0755844
0.0739439
0.0722759
0.0705824
0.0688655
0.067127
0.065369
0.0635932
0.0618015
0.0599955
0.0581771
0.0563478
0.0545093
0.0526631
0.0508106
0.0489534
0.0470929
0.0452304
0.0433672
0.0415046
0.0396437
0.0377858
0.0359319
0.0340832
0.0322405
0.030405
0.0285774
0.0267587
0.0249498
0.0231515
0.0213645
0.0195895
0.0178272
0.0160783
0.0143432
0.0126228
0.0109173
0.00922739
0.00755345
0.00589597
0.00425529
0.00263184
0.00102591
-0.000562135
-0.00213206
-0.00368354
-0.00521639
-0.00673034
-0.00822526
-0.0097009
-0.0111572
-0.0125939
-0.014011
-0.0154083
-0.0167859
-0.0181434
-0.0194811
-0.0207988
-0.0220965
-0.023374
-0.0246316
-0.0258692
-0.0270868
-0.0282843
-0.0294619
-0.0306196
-0.0317575
-0.0328756
-0.033974
-0.0350527
-0.0361119
-0.0371515
-0.0381718
-0.0391727
-0.0401545
-0.0411171
-0.0420607
-0.0429854
-0.0438913
-0.0447785
-0.0456471
-0.0464971
-0.0473288
-0.0481422
-0.0489374
-0.0497145
-0.0504735
-0.0512147
-0.0519378
-0.0526434
-0.0533307
-0.0539994
-0.0546518
-0.0553064
-0.0559519
0.100342
0.100313
0.100129
0.0998559
0.0994857
0.0990209
0.0984681
0.097831
0.0971136
0.0963198
0.0954531
0.094517
0.0935149
0.0924499
0.0913251
0.0901434
0.0889077
0.0876208
0.0862852
0.0849037
0.0834787
0.0820126
0.0805079
0.0789669
0.0773919
0.075785
0.0741484
0.0724842
0.0707945
0.0690812
0.0673463
0.0655916
0.0638191
0.0620305
0.0602276
0.058412
0.0565855
0.0547495
0.0529057
0.0510555
0.0492004
0.0473419
0.0454811
0.0436195
0.0417584
0.0398988
0.0380421
0.0361892
0.0343413
0.0324994
0.0306644
0.0288373
0.0270188
0.0252101
0.0234118
0.0216247
0.0198494
0.0180869
0.0163374
0.0146019
0.0128807
0.0111745
0.00948372
0.00780888
0.00615033
0.00450859
0.00288392
0.00127677
-0.000312626
-0.0018839
-0.00343685
-0.00497117
-0.0064867
-0.00798319
-0.00946049
-0.0109184
-0.0123569
-0.0137757
-0.0151749
-0.0165542
-0.0179136
-0.0192532
-0.0205727
-0.0218723
-0.0231519
-0.0244114
-0.0256509
-0.0268705
-0.02807
-0.0292497
-0.0304094
-0.0315493
-0.0326694
-0.0337699
-0.0348506
-0.0359118
-0.0369535
-0.0379759
-0.0389788
-0.0399627
-0.0409273
-0.0418729
-0.0427996
-0.0437075
-0.0445967
-0.0454672
-0.0463193
-0.0471528
-0.0479682
-0.0487651
-0.0495441
-0.0503047
-0.0510477
-0.0517723
-0.0524796
-0.0531682
-0.0538385
-0.0544919
-0.0551478
-0.0557939
0.100456
0.10043
0.100249
0.0999793
0.0996125
0.0991514
0.0986023
0.0979691
0.0972557
0.096466
0.0956035
0.0946717
0.093674
0.0926135
0.0914932
0.0903161
0.089085
0.0878027
0.0864717
0.0850948
0.0836744
0.082213
0.0807129
0.0791764
0.0776058
0.0760032
0.0743709
0.0727109
0.0710253
0.0693159
0.0675849
0.065834
0.064065
0.0622799
0.0604802
0.0586678
0.0568442
0.055011
0.0531699
0.0513222
0.0494694
0.0476129
0.0457542
0.0438944
0.0420348
0.0401767
0.0383212
0.0364694
0.0346225
0.0327813
0.030947
0.0291203
0.0273023
0.0254936
0.0236954
0.0219081
0.0201327
0.0183696
0.0166198
0.0148836
0.0131618
0.0114547
0.00976303
0.00808706
0.0064275
0.00478445
0.0031586
0.00154998
-4.0745e-05
-0.00161363
-0.00316804
-0.00470409
-0.0062212
-0.00771952
-0.00919851
-0.0106584
-0.0120986
-0.0135194
-0.0149204
-0.0163018
-0.0176631
-0.0190048
-0.0203263
-0.021628
-0.0229095
-0.0241712
-0.0254128
-0.0266345
-0.0278361
-0.0290179
-0.0301797
-0.0313218
-0.032444
-0.0335466
-0.0346294
-0.0356928
-0.0367366
-0.0377611
-0.0387661
-0.0397521
-0.0407187
-0.0416666
-0.0425953
-0.0435053
-0.0443965
-0.0452692
-0.0461232
-0.0469589
-0.0477763
-0.0485754
-0.0493564
-0.0501193
-0.0508642
-0.0515912
-0.0523004
-0.0529914
-0.0536638
-0.0543196
-0.0549776
-0.0556261
0.100579
0.100556
0.100378
0.100112
0.0997494
0.0992921
0.0987471
0.0981181
0.097409
0.0966237
0.0957658
0.0948387
0.0938457
0.09279
0.0916746
0.0905024
0.0892763
0.0879989
0.086673
0.0853011
0.0838857
0.0824292
0.080934
0.0794024
0.0778366
0.0762388
0.0746111
0.0729556
0.0712744
0.0695694
0.0678425
0.0660956
0.0643306
0.0625491
0.060753
0.058944
0.0571236
0.0552935
0.0534552
0.0516102
0.0497599
0.0479058
0.0460491
0.0441912
0.0423334
0.0404769
0.0386228
0.0367722
0.0349263
0.033086
0.0312523
0.0294262
0.0276084
0.0258
0.0240018
0.0222144
0.0204387
0.0186753
0.0169249
0.0151881
0.0134654
0.0117575
0.0100648
0.00838778
0.00672692
0.00508265
0.00345532
0.00184532
0.000252944
-0.00132146
-0.00287767
-0.00441538
-0.0059344
-0.00743448
-0.0089155
-0.0103772
-0.0118196
-0.0132423
-0.0146455
-0.0160288
-0.0173924
-0.0187361
-0.0200599
-0.0213637
-0.0226475
-0.0239113
-0.0251552
-0.026379
-0.027583
-0.0287669
-0.029931
-0.0310752
-0.0321997
-0.0333044
-0.0343895
-0.035455
-0.036501
-0.0375275
-0.0385347
-0.0395226
-0.0404915
-0.0414411
-0.042372
-0.0432837
-0.0441769
-0.0450512
-0.0459072
-0.0467444
-0.0475635
-0.0483639
-0.0491465
-0.0499104
-0.0506568
-0.0513845
-0.0520949
-0.0527863
-0.0534597
-0.0541154
-0.0547742
-0.0554225
0.100711
0.100692
0.100517
0.100255
0.099896
0.0994429
0.0989022
0.0982777
0.0975732
0.0967927
0.0959396
0.0950175
0.0940296
0.092979
0.0918689
0.0907019
0.0894812
0.0882092
0.0868886
0.0855221
0.0841121
0.0826609
0.081171
0.0796446
0.078084
0.0764912
0.0748686
0.073218
0.0715415
0.0698411
0.0681187
0.0663761
0.0646153
0.0628379
0.0610456
0.0592402
0.0574233
0.0555965
0.0537613
0.0519191
0.0500716
0.0482199
0.0463655
0.0445098
0.0426539
0.040799
0.0389464
0.0370971
0.0352523
0.0334129
0.03158
0.0297544
0.0279371
0.0261288
0.0243307
0.0225431
0.0207672
0.0190033
0.0172524
0.0155148
0.0137914
0.0120825
0.0103887
0.00871048
0.00704836
0.00540266
0.00377387
0.00216225
0.000568238
-0.00100795
-0.00256594
-0.00410556
-0.00562651
-0.00712862
-0.00861167
-0.0100755
-0.01152
-0.0129449
-0.0143503
-0.0157359
-0.0171018
-0.0184477
-0.0197738
-0.02108
-0.0223661
-0.0236323
-0.0248785
-0.0261046
-0.0273109
-0.0284972
-0.0296636
-0.0308101
-0.0319369
-0.0330439
-0.0341313
-0.035199
-0.0362472
-0.0372759
-0.0382853
-0.0392754
-0.0402463
-0.041198
-0.042131
-0.0430447
-0.04394
-0.0448162
-0.0456741
-0.0465131
-0.0473342
-0.0481363
-0.0489209
-0.0496865
-0.0504348
-0.0511641
-0.0518765
-0.0525697
-0.053245
-0.0539026
-0.0545634
-0.0552137
0.100851
0.100836
0.100665
0.100407
0.100052
0.0996035
0.0990674
0.0984476
0.0977481
0.0969726
0.0961247
0.0952079
0.0942255
0.0931804
0.0920758
0.0909145
0.0896994
0.0884332
0.0871184
0.0857576
0.0843532
0.0829078
0.0814235
0.0799027
0.0783476
0.0767603
0.0751429
0.0734976
0.0718262
0.0701307
0.0684131
0.0666752
0.0649188
0.0631457
0.0613576
0.0595561
0.0577429
0.0559196
0.0540877
0.0522487
0.050404
0.048555
0.0467031
0.0448496
0.0429957
0.0411427
0.0392917
0.0374438
0.0356002
0.0337618
0.0319296
0.0301047
0.0282877
0.0264798
0.0246816
0.022894
0.0211177
0.0193535
0.0176019
0.0158636
0.0141392
0.0124293
0.0107343
0.00905494
0.00739133
0.00574424
0.00411374
0.00250053
0.000904634
-0.000673314
-0.00223336
-0.00377489
-0.00529802
-0.00680217
-0.00828751
-0.0097535
-0.0112003
-0.0126275
-0.0140353
-0.0154233
-0.0167916
-0.01814
-0.0194686
-0.0207771
-0.0220658
-0.0233343
-0.0245831
-0.0258116
-0.0270204
-0.0282091
-0.029378
-0.0305269
-0.0316562
-0.0327654
-0.0338552
-0.0349252
-0.0359758
-0.0370066
-0.0380184
-0.0390105
-0.0399837
-0.0409374
-0.0418725
-0.0427881
-0.0436854
-0.0445633
-0.0454233
-0.0462638
-0.0470868
-0.0478903
-0.0486767
-0.0494434
-0.0501933
-0.0509236
-0.0516375
-0.0523313
-0.0530079
-0.0536658
-0.0543276
-0.0549781
0.100999
0.100988
0.100821
0.100568
0.100218
0.0997736
0.0992424
0.0986277
0.0979333
0.0971632
0.0963209
0.0954097
0.094433
0.0933937
0.092295
0.0911398
0.0899307
0.0886705
0.0873618
0.0860071
0.0846088
0.0831694
0.0816912
0.0801763
0.0786271
0.0770455
0.0754339
0.073794
0.0721281
0.0704379
0.0687254
0.0669924
0.0652408
0.0634723
0.0616885
0.0598912
0.058082
0.0562625
0.0544341
0.0525984
0.0507568
0.0489107
0.0470614
0.0452103
0.0433586
0.0415075
0.0396583
0.0378119
0.0359696
0.0341322
0.032301
0.0304766
0.0286602
0.0268524
0.0250543
0.0232666
0.02149
0.0197253
0.0179731
0.016234
0.0145087
0.0127976
0.0111015
0.00942065
0.00775565
0.00610687
0.00447476
0.00285966
0.00126195
-0.000318084
-0.0018801
-0.00342388
-0.00494912
-0.00645566
-0.00794323
-0.00941172
-0.0108609
-0.0122907
-0.0137009
-0.0150915
-0.0164622
-0.0178133
-0.0191444
-0.0204556
-0.0217468
-0.0230181
-0.0242693
-0.0255006
-0.0267118
-0.0279032
-0.0290746
-0.0302261
-0.0313577
-0.0324697
-0.0335617
-0.0346343
-0.035687
-0.0367205
-0.0377342
-0.0387289
-0.039704
-0.0406601
-0.0415969
-0.042515
-0.0434139
-0.0442942
-0.0451555
-0.0459985
-0.0468225
-0.0476285
-0.0484156
-0.0491849
-0.0499353
-0.0506683
-0.0513823
-0.0520788
-0.052755
-0.053416
-0.0540768
-0.0547309
0.101156
0.101149
0.100986
0.100738
0.100392
0.099953
0.099427
0.0988176
0.0981288
0.0973643
0.0965278
0.0956225
0.0946519
0.0936188
0.0925264
0.0913774
0.0901747
0.0889209
0.0876187
0.0862704
0.0848786
0.0834456
0.0819737
0.0804651
0.0789221
0.0773467
0.075741
0.074107
0.0724468
0.0707622
0.0690552
0.0673274
0.0655809
0.0638172
0.0620381
0.0602453
0.0584403
0.0566247
0.0548001
0.052968
0.0511296
0.0492866
0.0474401
0.0455916
0.0437422
0.0418932
0.0400457
0.038201
0.03636
0.0345239
0.0326935
0.0308699
0.0290539
0.0272465
0.0254484
0.0236606
0.0218836
0.0201185
0.0183655
0.0166257
0.0148993
0.0131872
0.0114897
0.00980743
0.00814082
0.00649039
0.00485643
0.00323944
0.00163968
5.75685e-05
-0.00150668
-0.00305271
-0.00458034
-0.00608927
-0.00757935
-0.00905034
-0.0105021
-0.0119345
-0.0133474
-0.0147406
-0.0161142
-0.0174679
-0.0188018
-0.0201157
-0.0214097
-0.0226838
-0.0239377
-0.0251718
-0.0263858
-0.0275799
-0.0287539
-0.0299081
-0.0310424
-0.0321569
-0.0332516
-0.0343266
-0.0353819
-0.0364178
-0.037434
-0.038431
-0.0394085
-0.0403669
-0.0413059
-0.0422261
-0.0431272
-0.0440095
-0.0448729
-0.0457177
-0.0465438
-0.0473515
-0.0481406
-0.0489115
-0.0496639
-0.0503982
-0.0511142
-0.0518118
-0.0524903
-0.0531518
-0.0538149
-0.0544688
0.101321
0.101318
0.10116
0.100916
0.100575
0.100141
0.0996209
0.0990171
0.098334
0.0975755
0.0967451
0.0958461
0.0948818
0.0938553
0.0927694
0.0916271
0.0904311
0.0891841
0.0878886
0.0865471
0.0851621
0.0837358
0.0822706
0.0807687
0.0792322
0.0776633
0.0760639
0.0744362
0.072782
0.0711034
0.069402
0.0676799
0.0659387
0.0641801
0.062406
0.0606178
0.0588173
0.057006
0.0551854
0.053357
0.0515221
0.0496823
0.0478388
0.045993
0.0441461
0.0422993
0.0404539
0.0386108
0.0367713
0.0349363
0.033107
0.0312841
0.0294687
0.0276615
0.0258636
0.0240756
0.0222984
0.0205326
0.0187791
0.0170382
0.0153109
0.0135974
0.0118987
0.0102148
0.00854665
0.00689432
0.00525855
0.00363943
0.00203764
0.000453177
-0.0011133
-0.00266185
-0.00419187
-0.00570347
-0.00719608
-0.00866986
-0.0101243
-0.0115595
-0.0129751
-0.0143714
-0.0157477
-0.0171044
-0.0184411
-0.0197581
-0.0210549
-0.0223319
-0.0235887
-0.0248258
-0.0260426
-0.0272396
-0.0284164
-0.0295736
-0.0307105
-0.0318279
-0.0329252
-0.034003
-0.0350609
-0.0360993
-0.037118
-0.0381175
-0.0390974
-0.0400581
-0.0409995
-0.0419219
-0.0428251
-0.0437095
-0.0445749
-0.0454216
-0.0462496
-0.047059
-0.0478499
-0.0486222
-0.0493763
-0.0501117
-0.0508292
-0.0515278
-0.0522075
-0.0528698
-0.0535338
-0.0541883
0.101493
0.101495
0.101341
0.101103
0.100767
0.100339
0.0998239
0.099226
0.098549
0.0977967
0.0969727
0.0960803
0.0951226
0.0941029
0.0930239
0.0918886
0.0906996
0.0894597
0.0881714
0.086837
0.0854591
0.0840399
0.0825818
0.0810868
0.0795572
0.0779951
0.0764024
0.0747812
0.0731334
0.071461
0.0697657
0.0680494
0.0663138
0.0645607
0.0627918
0.0610086
0.0592128
0.057406
0.0555896
0.0537651
0.051934
0.0500976
0.0482573
0.0464143
0.04457
0.0427256
0.0408822
0.039041
0.037203
0.0353694
0.033541
0.031719
0.0299041
0.0280974
0.0262995
0.0245114
0.0227338
0.0209675
0.0192132
0.0174715
0.015743
0.0140283
0.012328
0.0106427
0.00897266
0.00731853
0.00568065
0.00405947
0.00245533
0.000868597
-0.000700446
-0.00225145
-0.00378421
-0.00529843
-0.00679392
-0.00827044
-0.00972787
-0.011166
-0.0125847
-0.0139838
-0.0153633
-0.016723
-0.0180628
-0.0193828
-0.0206828
-0.0219628
-0.0232229
-0.0244629
-0.0256829
-0.0268828
-0.0280628
-0.0292228
-0.0303629
-0.031483
-0.0325834
-0.0336638
-0.0347247
-0.0357657
-0.0367873
-0.0377892
-0.0387719
-0.039735
-0.040679
-0.0416037
-0.0425093
-0.0433959
-0.0442637
-0.0451125
-0.0459426
-0.0467541
-0.0475469
-0.0483212
-0.049077
-0.0498145
-0.0505335
-0.0512341
-0.051915
-0.0525794
-0.0532444
-0.0539013
0.101673
0.10168
0.101531
0.101297
0.100967
0.100545
0.100036
0.0994439
0.0987733
0.0980276
0.0972102
0.0963246
0.095374
0.0943613
0.0932896
0.0921615
0.09098
0.0897475
0.0884666
0.0871397
0.0857692
0.0843575
0.0829067
0.0814191
0.0798967
0.0783417
0.076756
0.0751417
0.0735006
0.0718347
0.0701458
0.0684356
0.066706
0.0649586
0.0631951
0.0614172
0.0596264
0.0578243
0.0560123
0.054192
0.0523648
0.050532
0.048695
0.0468551
0.0450136
0.0431717
0.0413305
0.0394912
0.0376549
0.0358226
0.0339954
0.0321742
0.03036
0.0285535
0.0267558
0.0249676
0.0231897
0.0214228
0.0196678
0.017925
0.0161954
0.0144794
0.0127776
0.0110905
0.00941872
0.00776254
0.00612258
0.00449911
0.00289261
0.00130335
-0.000268259
-0.001822
-0.00335752
-0.00487463
-0.00637305
-0.0078526
-0.00931307
-0.0107543
-0.0121762
-0.0135785
-0.0149612
-0.0163241
-0.0176673
-0.0189905
-0.0202938
-0.0215771
-0.0228405
-0.0240837
-0.025307
-0.0265102
-0.0276934
-0.0288565
-0.0299998
-0.031123
-0.0322264
-0.0333099
-0.0343737
-0.0354177
-0.0364421
-0.0374469
-0.0384323
-0.0393981
-0.0403447
-0.041272
-0.0421801
-0.0430692
-0.0439392
-0.0447904
-0.0456227
-0.0464363
-0.0472311
-0.0480075
-0.0487651
-0.0495044
-0.050225
-0.0509272
-0.0516096
-0.0522753
-0.0529414
-0.0535995
0.10186
0.101872
0.101728
0.1015
0.101176
0.100759
0.100256
0.0996708
0.0990068
0.0982678
0.0974575
0.096579
0.0956356
0.0946304
0.0935661
0.0924457
0.0912719
0.0900471
0.088774
0.0874549
0.0860922
0.0846883
0.0832452
0.0817652
0.0802504
0.0787028
0.0771245
0.0755174
0.0738833
0.0722243
0.070542
0.0688383
0.0671149
0.0653735
0.0636158
0.0618433
0.0600577
0.0582606
0.0564533
0.0546374
0.0528143
0.0509853
0.0491518
0.0473152
0.0454765
0.0436372
0.0417984
0.0399611
0.0381266
0.0362958
0.0344697
0.0326495
0.0308359
0.0290299
0.0272323
0.025444
0.0236657
0.0218983
0.0201424
0.0183987
0.0166678
0.0149504
0.013247
0.0115582
0.00988439
0.00822623
0.00658392
0.00495817
0.00334906
0.00175727
0.000182816
-0.00137367
-0.00291224
-0.00443227
-0.0059339
-0.00741653
-0.00888034
-0.0103248
-0.0117501
-0.0131557
-0.0145419
-0.0159082
-0.0172549
-0.0185815
-0.0198884
-0.0211751
-0.022442
-0.0236887
-0.0249155
-0.026122
-0.0273087
-0.0284752
-0.0296218
-0.0307483
-0.0318551
-0.0329418
-0.0340088
-0.0350559
-0.0360835
-0.0370912
-0.0380796
-0.0390483
-0.0399978
-0.0409278
-0.0418387
-0.0427304
-0.0436031
-0.0444568
-0.0452915
-0.0461075
-0.0469046
-0.0476833
-0.048443
-0.0491845
-0.0499071
-0.0506114
-0.0512956
-0.0519632
-0.0526311
-0.053291
0.102055
0.102071
0.101933
0.101711
0.101392
0.100982
0.100485
0.0999063
0.0992491
0.0985172
0.0977141
0.0968431
0.0959073
0.0949097
0.0938533
0.0927408
0.091575
0.0903583
0.0890933
0.0877823
0.0864278
0.0850319
0.0835969
0.0821249
0.080618
0.0790782
0.0775075
0.0759079
0.0742812
0.0726293
0.070954
0.069257
0.0675401
0.065805
0.0640533
0.0622866
0.0605065
0.0587146
0.0569122
0.0551009
0.0532821
0.0514571
0.0496273
0.0477941
0.0459585
0.044122
0.0422856
0.0404505
0.0386178
0.0367886
0.0349638
0.0331445
0.0313317
0.029526
0.0277287
0.0259402
0.0241616
0.0223936
0.0206369
0.0188921
0.01716
0.0154411
0.0137361
0.0120454
0.0103696
0.00870914
0.00706456
0.00543622
0.00382457
0.00222992
0.000652667
-0.000906914
-0.00244848
-0.00397182
-0.00547661
-0.0069627
-0.00842983
-0.00987786
-0.0113066
-0.0127159
-0.0141056
-0.0154757
-0.0168259
-0.0181564
-0.0194668
-0.0207574
-0.0220278
-0.0232783
-0.0245087
-0.025719
-0.0269092
-0.0280794
-0.0292295
-0.0303597
-0.0314699
-0.0325602
-0.0336305
-0.0346811
-0.0357119
-0.036723
-0.0377145
-0.0386865
-0.039639
-0.0405721
-0.0414859
-0.0423805
-0.043256
-0.0441124
-0.0449498
-0.0457683
-0.0465681
-0.047349
-0.0481114
-0.0488549
-0.04958
-0.050286
-0.0509726
-0.0516418
-0.0523118
-0.0529729
0.102256
0.102278
0.102145
0.101929
0.101616
0.101212
0.100722
0.10015
0.0995002
0.0987756
0.09798
0.0971166
0.0961887
0.0951992
0.0941509
0.0930466
0.0918891
0.0906808
0.0894242
0.0881217
0.0867756
0.0853881
0.0839615
0.0824978
0.0809991
0.0794674
0.0779047
0.0763129
0.0746939
0.0730494
0.0713814
0.0696915
0.0679814
0.0662529
0.0645075
0.0627468
0.0609725
0.0591859
0.0573887
0.0555822
0.0537679
0.0519472
0.0501213
0.0482916
0.0464593
0.0446257
0.0427919
0.0409591
0.0391283
0.0373007
0.0354773
0.0336591
0.0318469
0.0300418
0.0282446
0.0264561
0.0246771
0.0229085
0.0211509
0.0194051
0.0176716
0.0159512
0.0142444
0.0125518
0.0108738
0.00921117
0.00756408
0.00593316
0.00431869
0.00272118
0.00114085
-0.000421848
-0.00196671
-0.00349338
-0.00500166
-0.00649126
-0.00796202
-0.00941371
-0.0108462
-0.0122593
-0.0136528
-0.0150267
-0.0163809
-0.0177152
-0.0190296
-0.0203241
-0.0215985
-0.0228529
-0.0240872
-0.0253014
-0.0264955
-0.0276696
-0.0288236
-0.0299576
-0.0310715
-0.0321655
-0.0332395
-0.0342938
-0.0353281
-0.0363428
-0.0373378
-0.0383132
-0.039269
-0.0402054
-0.0411225
-0.0420202
-0.0428988
-0.0437582
-0.0445987
-0.04542
-0.0462227
-0.0470063
-0.0477713
-0.0485174
-0.049245
-0.0499535
-0.0506424
-0.0513137
-0.0519858
-0.0526489
0.102464
0.102492
0.102364
0.102154
0.101848
0.10145
0.100967
0.100402
0.0997597
0.0990426
0.0982548
0.0973994
0.0964796
0.0954983
0.0944585
0.0933628
0.0922138
0.0910142
0.0897664
0.0884726
0.0871353
0.0857565
0.0843386
0.0828835
0.0813934
0.0798702
0.0783158
0.0767321
0.0751211
0.0734844
0.0718239
0.0701414
0.0684384
0.0667167
0.0649779
0.0632235
0.0614552
0.0596743
0.0578825
0.0560811
0.0542715
0.0524552
0.0506334
0.0488074
0.0469785
0.0451479
0.0433169
0.0414864
0.0396578
0.0378319
0.03601
0.0341928
0.0323815
0.0305768
0.0287799
0.0269913
0.025212
0.0234427
0.0216843