/*--------------------------------*- C++ -*----------------------------------*\
  =========                 |
  \\      /  F ield         | OpenFOAM: The Open Source CFD Toolbox
   \\    /   O peration     | Website:  https://openfoam.org
    \\  /    A nd           | Version:  10
     \\/     M anipulation  |
\*---------------------------------------------------------------------------*/
FoamFile
{
    format      ascii;
    class       volScalarField;
    location    "0.0003";
    object      nut;
}
// * * * * * * * * * * * * * * * * * * * * * * * * * * * * * * * * * * * * * //

dimensions      [0 2 -1 0 0 0 0];

internalField   nonuniform List<scalar> 
13320
(
0.000473886
0.000446355
0.000384518
0.00031849
0.00027034
0.000239133
0.000220204
0.000209252
0.000204692
0.000204212
0.000204885
0.00020601
0.000207815
0.000209014
0.000210329
0.000211435
0.000211846
0.000211731
0.000211283
0.000210768
0.000210409
0.000210306
0.000210655
0.000211611
0.000213215
0.000215795
0.00021896
0.000222068
0.000224947
0.000227659
0.000230198
0.000232559
0.000234731
0.000236703
0.000238447
0.000239898
0.000240976
0.000241924
0.000242642
0.000243401
0.000244349
0.000245257
0.000245913
0.000246226
0.000246342
0.000246699
0.000246265
0.000246668
0.000244718
0.00024816
0.00193342
0.00185267
0.00171451
0.00154695
0.00140415
0.00130248
0.00123851
0.00120315
0.0011928
0.00119938
0.00120777
0.00121875
0.00123378
0.00124307
0.00124989
0.00125639
0.00125952
0.00125933
0.00125682
0.00125297
0.00124912
0.00124589
0.0012441
0.00124439
0.00124731
0.00125451
0.0012645
0.00127443
0.00128352
0.0012922
0.00130048
0.00130828
0.00131548
0.00132209
0.00132809
0.00133289
0.0013362
0.00133848
0.00134058
0.00134357
0.00134726
0.00135062
0.00135235
0.00135255
0.00135053
0.0013482
0.00134407
0.0013402
0.00132608
0.00132656
0.00357729
0.00350769
0.00335256
0.00312474
0.0029073
0.00273589
0.00262106
0.00255744
0.00254481
0.00256858
0.00259052
0.00261907
0.00265799
0.00268201
0.00270205
0.00271709
0.00272412
0.00272329
0.00271572
0.00270338
0.00268961
0.00267605
0.00266451
0.00265625
0.00265234
0.00265706
0.00266792
0.0026789
0.00268939
0.0026994
0.00270888
0.0027178
0.00272605
0.00273346
0.00273964
0.00274405
0.00274627
0.002747
0.00274784
0.00275067
0.0027551
0.00275921
0.00276052
0.00275852
0.00275217
0.0027451
0.00273493
0.00272575
0.00270322
0.00270005
0.00522964
0.00515167
0.00494113
0.0045946
0.00425174
0.00397717
0.00378992
0.00368619
0.00366805
0.00371452
0.00374995
0.00380601
0.00388705
0.00394055
0.0039918
0.00403555
0.00406599
0.00408319
0.00408831
0.0040836
0.00407531
0.0040663
0.00405993
0.00405851
0.0040637
0.00407936
0.00410163
0.00412366
0.00414454
0.00416423
0.00418265
0.0041998
0.00421556
0.00422974
0.00424181
0.00425097
0.00425669
0.00425988
0.00426297
0.0042689
0.00427716
0.00428511
0.00428898
0.00428749
0.00427948
0.00426967
0.00425605
0.00424372
0.00421826
0.00421838
0.00679879
0.00672162
0.00645516
0.00607017
0.00568059
0.00533796
0.00507185
0.00488453
0.00478288
0.00476327
0.00480229
0.00489663
0.00504272
0.00513589
0.00523605
0.00532598
0.00539631
0.00544591
0.0054756
0.00548735
0.00549112
0.00549127
0.00549351
0.00550165
0.00551817
0.00554621
0.00558069
0.00561432
0.00564597
0.00567553
0.005703
0.0057284
0.00575162
0.0057725
0.00579039
0.00580427
0.00581338
0.00581898
0.00582426
0.00583317
0.00584532
0.00585714
0.00586351
0.00586286
0.00585356
0.00584098
0.00582488
0.00581049
0.00578672
0.00579188
0.00821631
0.00814757
0.00787894
0.00751917
0.0071399
0.00678122
0.00647665
0.00623468
0.00606215
0.00596157
0.0059306
0.00596463
0.00606398
0.00619431
0.00636557
0.00652148
0.00665044
0.00675032
0.00682001
0.00685872
0.00688244
0.00689627
0.00690936
0.00692788
0.00695546
0.00699471
0.0070397
0.00708308
0.0071236
0.0071612
0.00719592
0.00722784
0.00725688
0.00728294
0.00730529
0.00732259
0.00733409
0.00734112
0.00734728
0.00735782
0.00737272
0.00738767
0.00739597
0.00739583
0.00738548
0.00736974
0.00735112
0.00733522
0.00731509
0.00732514
0.00943864
0.00938047
0.00915087
0.008849
0.00851559
0.00817975
0.00787401
0.00761671
0.00741042
0.00726064
0.00716955
0.00713297
0.00715485
0.00722799
0.00736204
0.00754171
0.00774947
0.00792208
0.0080525
0.0081334
0.00818841
0.00822205
0.00824856
0.00827761
0.00831459
0.00836215
0.00841417
0.00846376
0.00850973
0.00855207
0.00859095
0.00862652
0.00865862
0.00868736
0.00871195
0.00873057
0.00874251
0.00874926
0.00875426
0.0087643
0.00878013
0.00879682
0.00880487
0.00880417
0.00879262
0.00877122
0.00874908
0.00873171
0.00871591
0.00872941
0.0104462
0.0103949
0.0102242
0.00999158
0.0097184
0.0094262
0.00914129
0.00890078
0.00869473
0.00853351
0.00841951
0.00834024
0.00830141
0.00830625
0.00836757
0.00849221
0.00867412
0.00888199
0.00909878
0.00924131
0.00934626
0.00941037
0.00945522
0.00949571
0.00954004
0.00959211
0.00964684
0.00969836
0.00974575
0.00978897
0.00982848
0.00986447
0.0098964
0.00992492
0.00994919
0.00996622
0.0099763
0.00998082
0.00998138
0.00998767
0.0100017
0.0100182
0.0100211
0.0100181
0.0100055
0.00998701
0.00996891
0.00995622
0.00994826
0.00996444
0.0112449
0.0112055
0.0110866
0.0109188
0.0107014
0.0104526
0.010208
0.00998739
0.00980165
0.00965976
0.00956133
0.00947611
0.00941267
0.00937243
0.00937273
0.00942977
0.0095469
0.00971235
0.00991603
0.0101169
0.0102983
0.0104097
0.0104826
0.0105385
0.0105897
0.0106431
0.0106967
0.0107462
0.0107914
0.0108318
0.0108686
0.0109019
0.0109301
0.0109552
0.0109765
0.010988
0.010993
0.0109931
0.0109834
0.0109813
0.0109901
0.0110052
0.0110165
0.0110204
0.0110135
0.0109996
0.0109859
0.0109776
0.0109756
0.0109917
0.0118575
0.0118296
0.0117513
0.0116356
0.0114709
0.0112801
0.0110866
0.0109016
0.0107373
0.0106034
0.0105075
0.0104423
0.0103926
0.0103421
0.0103101
0.0103185
0.010375
0.0104784
0.0106257
0.0108008
0.0109937
0.011176
0.0112963
0.0113795
0.0114415
0.0114952
0.0115449
0.0115896
0.0116298
0.0116642
0.0116955
0.0117239
0.0117441
0.0117626
0.0117787
0.011778
0.011774
0.0117676
0.0117594
0.0117587
0.0117701
0.0117887
0.0118066
0.0118178
0.0118174
0.0118078
0.0117968
0.0117908
0.0117913
0.0118049
0.0123156
0.0122968
0.0122474
0.0121671
0.0120515
0.0119154
0.0117731
0.0116298
0.0114962
0.0113809
0.0112889
0.0112222
0.0111752
0.0111449
0.0111139
0.011105
0.0111267
0.0111815
0.0112713
0.0113928
0.0115442
0.0117146
0.0118786
0.0120106
0.0120949
0.0121518
0.0121976
0.0122363
0.0122706
0.0122955
0.0123188
0.0123408
0.0123454
0.0123526
0.0123612
0.0123653
0.0123657
0.0123626
0.0123583
0.0123605
0.0123737
0.0123946
0.0124166
0.012433
0.012438
0.012432
0.0124222
0.0124161
0.0124162
0.0124261
0.0126596
0.0126472
0.0126173
0.0125617
0.0124843
0.0123907
0.0122881
0.0121768
0.0120728
0.0119849
0.0119075
0.0118458
0.0117941
0.0117553
0.0117352
0.0117394
0.0117564
0.0117888
0.0118411
0.0119163
0.0120172
0.0121432
0.0122865
0.0124348
0.0125654
0.0126349
0.0126787
0.0127097
0.0127367
0.0127437
0.0127534
0.0127659
0.0127754
0.0127864
0.0127984
0.0128083
0.0128142
0.0128147
0.0128124
0.0128142
0.012826
0.0128461
0.0128687
0.0128879
0.0128974
0.0128945
0.0128854
0.0128775
0.0128755
0.0128817
0.0129142
0.0129057
0.0128891
0.0128529
0.012804
0.0127413
0.0126646
0.0125847
0.0125056
0.0124342
0.0123744
0.0123293
0.01228
0.0122324
0.0122018
0.0122039
0.0122385
0.0122721
0.0123118
0.0123613
0.0124264
0.0125114
0.0126161
0.0127383
0.012868
0.0129628
0.0130066
0.0130239
0.0130397
0.0130521
0.0130664
0.0130826
0.013099
0.0131157
0.0131321
0.0131463
0.0131561
0.0131597
0.0131582
0.0131578
0.0131655
0.0131836
0.0132059
0.0132265
0.0132395
0.0132413
0.0132335
0.0132228
0.013216
0.0132163
0.0130879
0.0130826
0.0130737
0.0130501
0.0130208
0.0129772
0.0129262
0.0128729
0.0128177
0.0127663
0.0127222
0.0126863
0.0126504
0.012611
0.0125747
0.0125652
0.0125914
0.0126405
0.0126871
0.0127295
0.0127754
0.0128322
0.0129035
0.0129906
0.0130918
0.0131788
0.0132253
0.0132493
0.0132711
0.0132926
0.0133145
0.0133364
0.0133576
0.0133779
0.0133966
0.0134127
0.0134244
0.0134298
0.0134284
0.0134252
0.0134283
0.0134412
0.0134614
0.0134826
0.0134993
0.0135063
0.0135027
0.0134924
0.0134812
0.0134735
0.0132339
0.0132326
0.0132287
0.0132113
0.0131912
0.0131571
0.013118
0.0130764
0.013032
0.012991
0.0129591
0.012931
0.0129009
0.012866
0.0128384
0.0128286
0.0128474
0.0128912
0.0129483
0.0130015
0.0130459
0.0130905
0.0131429
0.0132069
0.0132834
0.0133556
0.0134027
0.0134342
0.0134622
0.0134883
0.0135127
0.0135352
0.0135559
0.0135747
0.0135916
0.0136059
0.0136165
0.0136214
0.0136197
0.0136135
0.0136083
0.0136113
0.0136233
0.0136409
0.0136577
0.0136706
0.0136759
0.0136731
0.0136654
0.0136573
0.0133663
0.0133639
0.0133648
0.0133552
0.013345
0.0133229
0.0132952
0.0132613
0.01322
0.0131794
0.0131496
0.0131251
0.013094
0.0130544
0.0130211
0.0130185
0.0130365
0.0130751
0.0131273
0.0131863
0.013243
0.0132896
0.0133354
0.0133871
0.0134463
0.0135036
0.0135469
0.0135795
0.0136076
0.0136328
0.0136554
0.0136759
0.0136945
0.0137113
0.0137264
0.0137396
0.0137501
0.0137564
0.0137573
0.0137525
0.0137449
0.0137387
0.0137394
0.0137479
0.0137613
0.0137761
0.0137887
0.0137961
0.0137983
0.0137974
0.0134108
0.0134025
0.013405
0.0134038
0.0134038
0.0133988
0.0133913
0.0133782
0.0133587
0.0133356
0.013319
0.0133072
0.0132791
0.0132422
0.0132069
0.0131922
0.0132089
0.0132462
0.0132921
0.0133421
0.0133955
0.013448
0.0134912
0.0135325
0.0135775
0.0136239
0.0136632
0.0136958
0.0137248
0.0137509
0.0137747
0.0137964
0.0138163
0.0138345
0.013851
0.0138657
0.0138782
0.0138877
0.0138916
0.0138913
0.0138873
0.0138818
0.0138782
0.0138789
0.0138842
0.0138925
0.0139024
0.0139116
0.0139189
0.0139231
0.0133905
0.0133877
0.0133868
0.0133869
0.0133863
0.0133825
0.0133801
0.0133759
0.013371
0.0133667
0.0133656
0.0133667
0.0133568
0.0133274
0.0132999
0.0132972
0.0133195
0.0133607
0.0134088
0.0134562
0.0135034
0.013552
0.0136012
0.0136423
0.0136847
0.0137286
0.0137691
0.0138047
0.0138361
0.0138639
0.0138887
0.0139107
0.0139302
0.0139476
0.0139629
0.013975
0.0139858
0.0139949
0.0140012
0.0140038
0.0140031
0.0139997
0.0139951
0.0139914
0.0139897
0.0139906
0.0139928
0.0139965
0.0140004
0.014004
0.0134411
0.0134534
0.0134462
0.0134427
0.0134279
0.0134134
0.0133989
0.0133856
0.0133678
0.0133512
0.0133381
0.0133263
0.0133157
0.0132991
0.0132897
0.013302
0.0133403
0.0133916
0.0134488
0.0135064
0.0135598
0.0136125
0.0136665
0.0137211
0.0137703
0.013816
0.0138564
0.0138902
0.013918
0.013941
0.0139599
0.0139756
0.0139876
0.0139978
0.0140066
0.0140141
0.0140205
0.0140258
0.0140297
0.0140316
0.0140313
0.0140289
0.0140249
0.0140204
0.0140162
0.0140128
0.0140105
0.0140093
0.0140086
0.0140084
0.0135907
0.0136114
0.0136048
0.0135996
0.0135827
0.0135604
0.0135326
0.0135019
0.0134694
0.0134362
0.0134048
0.0133749
0.0133492
0.013334
0.0133317
0.0133461
0.0133847
0.0134385
0.0134968
0.0135566
0.0136153
0.0136705
0.0137239
0.0137767
0.0138286
0.0138695
0.0139016
0.0139256
0.0139433
0.0139565
0.0139647
0.0139712
0.0139763
0.0139804
0.0139837
0.0139864
0.0139886
0.0139903
0.0139915
0.013992
0.0139915
0.0139901
0.0139878
0.0139848
0.0139816
0.0139784
0.0139756
0.0139732
0.0139712
0.0139697
0.0137519
0.0137687
0.0137654
0.0137613
0.0137496
0.0137322
0.0137097
0.0136829
0.0136516
0.0136179
0.0135825
0.0135478
0.013519
0.0135001
0.0134954
0.013507
0.01353
0.0135639
0.0136077
0.0136529
0.0136988
0.0137443
0.0137855
0.0138244
0.0138612
0.0138918
0.0139115
0.0139237
0.0139311
0.013936
0.0139394
0.0139418
0.0139436
0.0139451
0.0139462
0.013947
0.0139477
0.0139482
0.0139485
0.0139486
0.0139484
0.0139479
0.013947
0.0139458
0.0139443
0.0139427
0.0139409
0.0139396
0.0139383
0.0139373
0.0138605
0.0138699
0.0138688
0.0138666
0.013861
0.0138516
0.0138391
0.0138237
0.0138046
0.013783
0.0137591
0.0137333
0.0137105
0.0136953
0.0136882
0.0136902
0.0137008
0.0137186
0.0137414
0.0137673
0.013793
0.0138188
0.0138436
0.013865
0.0138842
0.0138996
0.0139099
0.0139158
0.0139194
0.013922
0.0139239
0.0139254
0.0139266
0.0139276
0.0139285
0.0139292
0.0139298
0.0139303
0.0139303
0.0139304
0.0139305
0.0139306
0.0139306
0.0139305
0.0139306
0.0139303
0.0139297
0.0139291
0.0139287
0.0139285
0.013916
0.0139203
0.0139202
0.0139192
0.0139171
0.0139129
0.0139074
0.0139006
0.0138916
0.0138814
0.0138697
0.0138564
0.013844
0.013834
0.0138279
0.0138267
0.0138292
0.0138352
0.013844
0.013854
0.0138653
0.013876
0.0138866
0.0138968
0.0139049
0.0139115
0.0139164
0.0139197
0.0139222
0.0139243
0.013926
0.0139275
0.0139288
0.0139299
0.0139309
0.0139313
0.0139319
0.0139324
0.013933
0.0139335
0.013934
0.0139344
0.0139347
0.013935
0.0139354
0.0139357
0.0139355
0.0139354
0.0139354
0.0139355
0.0139422
0.0139442
0.0139444
0.0139441
0.0139433
0.0139415
0.0139391
0.0139362
0.0139323
0.0139279
0.0139225
0.0139169
0.0139113
0.0139064
0.0139026
0.0139002
0.0139
0.0139006
0.0139023
0.0139053
0.0139085
0.0139125
0.013916
0.0139198
0.0139238
0.0139268
0.0139294
0.0139318
0.0139338
0.0139356
0.0139372
0.0139386
0.0139395
0.0139403
0.0139412
0.013942
0.0139427
0.0139434
0.013944
0.0139445
0.013945
0.0139454
0.0139458
0.0139461
0.0139463
0.0139467
0.0139468
0.0139468
0.0139469
0.0139471
0.0139565
0.0139576
0.0139578
0.013958
0.0139574
0.0139565
0.0139555
0.0139539
0.0139519
0.0139498
0.0139471
0.0139445
0.0139418
0.0139392
0.0139368
0.0139349
0.0139335
0.0139331
0.0139327
0.0139329
0.0139337
0.0139347
0.0139362
0.0139376
0.0139394
0.0139417
0.0139435
0.0139453
0.013947
0.0139485
0.0139493
0.0139503
0.0139512
0.0139521
0.0139529
0.0139536
0.0139543
0.0139549
0.0139554
0.0139558
0.0139562
0.0139566
0.0139569
0.013957
0.0139572
0.0139575
0.0139576
0.0139577
0.0139578
0.0139579
0.0139659
0.0139667
0.013967
0.0139672
0.0139668
0.0139663
0.0139657
0.0139647
0.0139635
0.0139622
0.0139606
0.0139591
0.0139575
0.0139556
0.0139539
0.0139527
0.0139515
0.0139505
0.0139501
0.0139496
0.0139495
0.0139499
0.0139504
0.0139514
0.0139524
0.0139538
0.0139556
0.0139567
0.0139578
0.0139589
0.0139599
0.0139607
0.0139616
0.0139623
0.013963
0.0139636
0.0139641
0.0139645
0.013965
0.0139653
0.0139656
0.0139657
0.0139658
0.013966
0.0139662
0.0139663
0.0139665
0.0139667
0.0139668
0.0139669
0.0139731
0.0139737
0.0139741
0.0139741
0.0139739
0.0139735
0.0139732
0.0139725
0.0139718
0.0139708
0.0139697
0.0139687
0.0139676
0.0139662
0.013965
0.0139639
0.0139628
0.0139622
0.0139615
0.0139613
0.013961
0.013961
0.0139614
0.0139618
0.0139628
0.0139637
0.0139647
0.0139658
0.0139667
0.0139677
0.0139685
0.0139692
0.0139699
0.0139705
0.013971
0.0139713
0.0139716
0.0139719
0.0139723
0.0139725
0.0139727
0.0139729
0.0139731
0.0139732
0.0139734
0.0139735
0.0139737
0.0139738
0.0139739
0.0139739
0.0139786
0.0139791
0.0139795
0.0139795
0.0139794
0.0139793
0.0139789
0.0139784
0.013978
0.0139773
0.0139766
0.0139757
0.0139749
0.0139739
0.013973
0.0139722
0.0139714
0.0139706
0.0139702
0.0139698
0.0139697
0.0139696
0.01397
0.0139702
0.0139707
0.0139716
0.0139723
0.0139731
0.0139739
0.0139746
0.0139753
0.0139759
0.0139762
0.0139766
0.013977
0.0139774
0.0139777
0.013978
0.0139782
0.0139784
0.0139785
0.0139787
0.0139789
0.013979
0.0139791
0.0139791
0.0139792
0.0139793
0.0139794
0.0139795
0.0139831
0.0139835
0.0139837
0.0139838
0.0139837
0.0139837
0.0139834
0.013983
0.0139827
0.0139822
0.0139817
0.0139811
0.0139805
0.0139798
0.0139791
0.0139785
0.0139779
0.0139773
0.0139768
0.0139766
0.0139763
0.0139764
0.0139764
0.0139767
0.0139771
0.0139776
0.0139783
0.013979
0.0139796
0.01398
0.0139804
0.0139809
0.0139813
0.0139816
0.0139819
0.0139822
0.0139825
0.0139827
0.0139829
0.013983
0.0139831
0.0139832
0.0139833
0.0139834
0.0139835
0.0139836
0.0139836
0.0139837
0.0139838
0.0139838
0.0139865
0.0139869
0.0139871
0.0139872
0.0139872
0.0139871
0.0139869
0.0139867
0.0139864
0.013986
0.0139857
0.0139852
0.0139848
0.0139843
0.0139838
0.0139833
0.0139828
0.0139824
0.013982
0.0139817
0.0139816
0.0139815
0.0139816
0.0139817
0.0139821
0.0139824
0.0139829
0.0139833
0.0139838
0.0139842
0.0139846
0.0139849
0.0139853
0.0139855
0.0139858
0.013986
0.0139862
0.0139864
0.0139864
0.0139865
0.0139866
0.0139868
0.0139868
0.0139869
0.013987
0.013987
0.0139871
0.0139871
0.0139872
0.0139872
0.0139893
0.0139896
0.0139898
0.0139899
0.0139899
0.0139898
0.0139897
0.0139895
0.0139893
0.0139891
0.0139888
0.0139885
0.0139881
0.0139878
0.0139874
0.013987
0.0139867
0.0139864
0.013986
0.0139858
0.0139856
0.0139856
0.0139855
0.0139857
0.0139859
0.0139862
0.0139865
0.0139869
0.0139872
0.0139876
0.0139879
0.0139882
0.0139884
0.0139886
0.0139887
0.0139889
0.013989
0.0139891
0.0139893
0.0139893
0.0139894
0.0139896
0.0139896
0.0139897
0.0139897
0.0139898
0.0139898
0.0139898
0.0139899
0.0139899
0.0139915
0.0139917
0.0139919
0.013992
0.013992
0.013992
0.0139919
0.0139917
0.0139916
0.0139914
0.0139912
0.013991
0.0139907
0.0139905
0.0139902
0.0139899
0.0139896
0.0139894
0.0139892
0.013989
0.0139888
0.0139888
0.0139887
0.0139888
0.0139889
0.0139891
0.0139894
0.0139897
0.01399
0.0139902
0.0139904
0.0139906
0.0139908
0.013991
0.0139911
0.0139913
0.0139914
0.0139914
0.0139915
0.0139916
0.0139917
0.0139917
0.0139918
0.0139918
0.0139919
0.0139919
0.0139919
0.013992
0.013992
0.013992
0.0139932
0.0139934
0.0139935
0.0139936
0.0139937
0.0139936
0.0139936
0.0139935
0.0139934
0.0139933
0.0139931
0.0139929
0.0139928
0.0139926
0.0139924
0.0139921
0.0139919
0.0139917
0.0139916
0.0139914
0.0139913
0.0139912
0.0139912
0.0139912
0.0139914
0.0139915
0.0139917
0.0139918
0.013992
0.0139922
0.0139924
0.0139926
0.0139927
0.0139929
0.013993
0.0139931
0.0139932
0.0139932
0.0139933
0.0139933
0.0139934
0.0139935
0.0139935
0.0139935
0.0139935
0.0139936
0.0139936
0.0139936
0.0139937
0.0139937
0.0139946
0.0139948
0.0139949
0.0139949
0.013995
0.0139949
0.0139949
0.0139949
0.0139948
0.0139947
0.0139946
0.0139944
0.0139943
0.0139942
0.013994
0.0139939
0.0139937
0.0139936
0.0139934
0.0139933
0.0139932
0.0139931
0.0139931
0.0139931
0.0139932
0.0139933
0.0139935
0.0139936
0.0139937
0.0139939
0.013994
0.0139942
0.0139943
0.0139944
0.0139945
0.0139945
0.0139946
0.0139946
0.0139947
0.0139947
0.0139948
0.0139948
0.0139949
0.0139949
0.0139949
0.0139949
0.0139949
0.013995
0.013995
0.013995
0.0139957
0.0139958
0.0139959
0.013996
0.013996
0.013996
0.013996
0.0139959
0.0139959
0.0139958
0.0139957
0.0139957
0.0139955
0.0139955
0.0139953
0.0139952
0.0139951
0.013995
0.0139949
0.0139948
0.0139947
0.0139946
0.0139946
0.0139946
0.0139947
0.0139947
0.0139949
0.013995
0.0139951
0.0139952
0.0139953
0.0139954
0.0139955
0.0139955
0.0139956
0.0139956
0.0139957
0.0139957
0.0139958
0.0139958
0.0139959
0.0139959
0.0139959
0.0139959
0.013996
0.013996
0.013996
0.013996
0.013996
0.013996
0.0139966
0.0139967
0.0139967
0.0139968
0.0139968
0.0139968
0.0139968
0.0139968
0.0139967
0.0139967
0.0139966
0.0139966
0.0139965
0.0139964
0.0139964
0.0139963
0.0139962
0.0139961
0.013996
0.0139959
0.0139959
0.0139958
0.0139958
0.0139958
0.0139958
0.0139959
0.0139959
0.013996
0.0139961
0.0139962
0.0139963
0.0139963
0.0139964
0.0139965
0.0139965
0.0139965
0.0139966
0.0139966
0.0139967
0.0139967
0.0139967
0.0139968
0.0139968
0.0139968
0.0139968
0.0139968
0.0139968
0.0139968
0.0139969
0.0139969
0.0139973
0.0139974
0.0139974
0.0139974
0.0139975
0.0139975
0.0139975
0.0139975
0.0139974
0.0139974
0.0139974
0.0139973
0.0139972
0.0139972
0.0139971
0.0139971
0.013997
0.0139969
0.0139969
0.0139968
0.0139968
0.0139967
0.0139967
0.0139967
0.0139967
0.0139968
0.0139968
0.0139969
0.0139969
0.013997
0.0139971
0.0139971
0.0139972
0.0139972
0.0139972
0.0139973
0.0139973
0.0139973
0.0139974
0.0139974
0.0139974
0.0139974
0.0139974
0.0139975
0.0139975
0.0139975
0.0139975
0.0139975
0.0139975
0.0139975
0.0139978
0.0139979
0.0139979
0.013998
0.013998
0.013998
0.013998
0.013998
0.013998
0.0139979
0.0139979
0.0139979
0.0139978
0.0139978
0.0139978
0.0139977
0.0139977
0.0139976
0.0139976
0.0139975
0.0139975
0.0139975
0.0139974
0.0139974
0.0139974
0.0139975
0.0139975
0.0139975
0.0139976
0.0139976
0.0139977
0.0139977
0.0139978
0.0139978
0.0139978
0.0139978
0.0139979
0.0139979
0.0139979
0.0139979
0.0139979
0.013998
0.013998
0.013998
0.013998
0.013998
0.013998
0.013998
0.013998
0.013998
0.0139983
0.0139983
0.0139984
0.0139984
0.0139984
0.0139984
0.0139984
0.0139984
0.0139984
0.0139984
0.0139984
0.0139983
0.0139983
0.0139983
0.0139982
0.0139982
0.0139982
0.0139981
0.0139981
0.0139981
0.013998
0.013998
0.013998
0.013998
0.013998
0.013998
0.013998
0.0139981
0.0139981
0.0139981
0.0139982
0.0139982
0.0139982
0.0139982
0.0139983
0.0139983
0.0139983
0.0139983
0.0139983
0.0139983
0.0139984
0.0139984
0.0139984
0.0139984
0.0139984
0.0139984
0.0139984
0.0139984
0.0139984
0.0139984
0.0139986
0.0139987
0.0139987
0.0139987
0.0139987
0.0139987
0.0139987
0.0139987
0.0139987
0.0139987
0.0139987
0.0139987
0.0139987
0.0139986
0.0139986
0.0139986
0.0139986
0.0139985
0.0139985
0.0139985
0.0139985
0.0139984
0.0139984
0.0139984
0.0139984
0.0139984
0.0139985
0.0139985
0.0139985
0.0139985
0.0139986
0.0139986
0.0139986
0.0139986
0.0139986
0.0139986
0.0139987
0.0139987
0.0139987
0.0139987
0.0139987
0.0139987
0.0139987
0.0139987
0.0139987
0.0139987
0.0139987
0.0139987
0.0139987
0.0139987
0.0139989
0.0139989
0.013999
0.013999
0.013999
0.013999
0.013999
0.013999
0.013999
0.013999
0.013999
0.013999
0.0139989
0.0139989
0.0139989
0.0139989
0.0139989
0.0139988
0.0139988
0.0139988
0.0139988
0.0139988
0.0139988
0.0139988
0.0139988
0.0139988
0.0139988
0.0139988
0.0139988
0.0139988
0.0139989
0.0139989
0.0139989
0.0139989
0.0139989
0.0139989
0.0139989
0.0139989
0.0139989
0.013999
0.013999
0.013999
0.013999
0.013999
0.013999
0.013999
0.013999
0.013999
0.013999
0.013999
0.0139991
0.0139991
0.0139992
0.0139992
0.0139992
0.0139992
0.0139992
0.0139992
0.0139992
0.0139992
0.0139992
0.0139992
0.0139992
0.0139991
0.0139991
0.0139991
0.0139991
0.0139991
0.0139991
0.0139991
0.0139991
0.013999
0.013999
0.013999
0.013999
0.013999
0.0139991
0.0139991
0.0139991
0.0139991
0.0139991
0.0139991
0.0139991
0.0139991
0.0139991
0.0139991
0.0139992
0.0139992
0.0139992
0.0139992
0.0139992
0.0139992
0.0139992
0.0139992
0.0139992
0.0139992
0.0139992
0.0139992
0.0139992
0.0139992
0.0139993
0.0139993
0.0139993
0.0139993
0.0139993
0.0139993
0.0139993
0.0139993
0.0139993
0.0139993
0.0139993
0.0139993
0.0139993
0.0139993
0.0139993
0.0139993
0.0139993
0.0139993
0.0139993
0.0139993
0.0139993
0.0139992
0.0139992
0.0139992
0.0139992
0.0139992
0.0139993
0.0139993
0.0139993
0.0139993
0.0139993
0.0139993
0.0139993
0.0139993
0.0139993
0.0139993
0.0139993
0.0139993
0.0139993
0.0139993
0.0139993
0.0139993
0.0139993
0.0139994
0.0139994
0.0139994
0.0139994
0.0139994
0.0139994
0.0139994
0.0139994
0.0139995
0.0139995
0.0139995
0.0139995
0.0139995
0.0139995
0.0139995
0.0139995
0.0139995
0.0139995
0.0139995
0.0139995
0.0139995
0.0139995
0.0139995
0.0139994
0.0139994
0.0139994
0.0139994
0.0139994
0.0139994
0.0139994
0.0139994
0.0139994
0.0139994
0.0139994
0.0139994
0.0139994
0.0139994
0.0139994
0.0139994
0.0139994
0.0139995
0.0139995
0.0139995
0.0139995
0.0139995
0.0139995
0.0139995
0.0139995
0.0139995
0.0139995
0.0139995
0.0139995
0.0139995
0.0139995
0.0139995
0.0139995
0.0139995
0.0139996
0.0139996
0.0139996
0.0139996
0.0139996
0.0139996
0.0139996
0.0139996
0.0139996
0.0139996
0.0139996
0.0139996
0.0139996
0.0139996
0.0139996
0.0139996
0.0139996
0.0139995
0.0139995
0.0139995
0.0139995
0.0139995
0.0139995
0.0139995
0.0139995
0.0139995
0.0139995
0.0139995
0.0139995
0.0139996
0.0139996
0.0139996
0.0139996
0.0139996
0.0139996
0.0139996
0.0139996
0.0139996
0.0139996
0.0139996
0.0139996
0.0139996
0.0139996
0.0139996
0.0139996
0.0139996
0.0139996
0.0139996
0.0139996
0.0139996
0.0139996
0.0139997
0.0139997
0.0139997
0.0139997
0.0139997
0.0139997
0.0139997
0.0139997
0.0139997
0.0139997
0.0139997
0.0139997
0.0139997
0.0139997
0.0139996
0.0139996
0.0139996
0.0139996
0.0139996
0.0139996
0.0139996
0.0139996
0.0139996
0.0139996
0.0139996
0.0139996
0.0139996
0.0139996
0.0139996
0.0139997
0.0139996
0.0139997
0.0139997
0.0139997
0.0139997
0.0139997
0.0139997
0.0139997
0.0139997
0.0139997
0.0139997
0.0139997
0.0139997
0.0139997
0.0139997
0.0139997
0.0139997
0.0139997
0.0139997
0.0139997
0.0139997
0.0139997
0.0139997
0.0139997
0.0139997
0.0139997
0.0139997
0.0139997
0.0139997
0.0139997
0.0139997
0.0139997
0.0139997
0.0139997
0.0139997
0.0139997
0.0139997
0.0139997
0.0139997
0.0139997
0.0139997
0.0139997
0.0139997
0.0139997
0.0139997
0.0139997
0.0139997
0.0139997
0.0139997
0.0139997
0.0139997
0.0139997
0.0139997
0.0139997
0.0139997
0.0139997
0.0139997
0.0139997
0.0139997
0.0139997
0.0139997
0.0139997
0.0139997
0.0139997
0.0139997
0.0139997
0.0139997
0.0139997
0.0139997
0.0139998
0.0139998
0.0139998
0.0139998
0.0139998
0.0139998
0.0139998
0.0139998
0.0139998
0.0139998
0.0139998
0.0139998
0.0139998
0.0139998
0.0139998
0.0139998
0.0139998
0.0139998
0.0139998
0.0139998
0.0139998
0.0139998
0.0139998
0.0139998
0.0139998
0.0139998
0.0139998
0.0139998
0.0139998
0.0139998
0.0139998
0.0139998
0.0139998
0.0139998
0.0139998
0.0139998
0.0139998
0.0139998
0.0139998
0.0139998
0.0139998
0.0139998
0.0139998
0.0139998
0.0139998
0.0139998
0.0139998
0.0139998
0.0139998
0.0139998
0.0139998
0.0139998
0.0139998
0.0139998
0.0139998
0.0139998
0.0139998
0.0139998
0.0139998
0.0139998
0.0139998
0.0139998
0.0139998
0.0139998
0.0139998
0.0139998
0.0139998
0.0139998
0.0139998
0.0139998
0.0139998
0.0139998
0.0139998
0.0139998
0.0139998
0.0139998
0.0139998
0.0139998
0.0139998
0.0139998
0.0139998
0.0139998
0.0139998
0.0139998
0.0139998
0.0139998
0.0139998
0.0139998
0.0139998
0.0139998
0.0139998
0.0139998
0.0139998
0.0139998
0.0139998
0.0139998
0.0139998
0.0139998
0.0139998
0.0139998
0.0139999
0.0139999
0.0139999
0.0139999
0.0139999
0.0139999
0.0139999
0.0139999
0.0139999
0.0139999
0.0139999
0.0139999
0.0139999
0.0139999
0.0139999
0.0139999
0.0139999
0.0139999
0.0139999
0.0139999
0.0139999
0.0139999
0.0139999
0.0139999
0.0139999
0.0139999
0.0139999
0.0139999
0.0139999
0.0139999
0.0139999
0.0139999
0.0139999
0.0139999
0.0139999
0.0139999
0.0139999
0.0139999
0.0139999
0.0139999
0.0139999
0.0139999
0.0139999
0.0139999
0.0139999
0.0139999
0.0139999
0.0139999
0.0139999
0.0139999
0.0139999
0.0139999
0.0139999
0.0139999
0.0139999
0.0139999
0.0139999
0.0139999
0.0139999
0.0139999
0.0139999
0.0139999
0.0139999
0.0139999
0.0139999
0.0139999
0.0139999
0.0139999
0.0139999
0.0139999
0.0139999
0.0139999
0.0139999
0.0139999
0.0139999
0.0139999
0.0139999
0.0139999
0.0139999
0.0139999
0.0139999
0.0139999
0.0139999
0.0139999
0.0139999
0.0139999
0.0139999
0.0139999
0.0139999
0.0139999
0.0139999
0.0139999
0.0139999
0.0139999
0.0139999
0.0139999
0.0139999
0.0139999
0.0139999
0.0139999
0.0139999
0.0139999
0.0139999
0.0139999
0.0139999
0.0139999
0.0139999
0.0139999
0.0139999
0.0139999
0.0139999
0.0139999
0.0139999
0.0139999
0.0139999
0.0139999
0.0139999
0.0139999
0.0139999
0.0139999
0.0139999
0.0139999
0.0139999
0.0139999
0.0139999
0.0139999
0.0139999
0.0139999
0.0139999
0.0139999
0.0139999
0.0139999
0.0139999
0.0139999
0.0139999
0.0139999
0.0139999
0.0139999
0.0139999
0.0139999
0.0139999
0.0139999
0.0139999
0.0139999
0.0139999
0.0139999
0.0139999
0.0139999
0.0139999
0.0139999
0.0139999
0.0139999
0.0139999
0.0139999
0.0139999
0.0139999
0.0139999
0.0139999
0.0139999
0.0139999
0.0139999
0.0139999
0.0139999
0.0139999
0.0139999
0.0139999
0.0139999
0.0139999
0.0139999
0.0139999
0.0139999
0.0139999
0.0139999
0.0139999
0.0139999
0.0139999
0.0139999
0.0139999
0.0139999
0.0139999
0.0139999
0.0139999
0.0139999
0.0139999
0.0139999
0.0139999
0.0139999
0.0139999
0.0139999
0.0139999
0.0139999
0.0139999
0.0139999
0.0139999
0.0139999
0.0139999
0.0139999
0.0139999
0.0139999
0.0139999
0.0139999
0.0139999
0.0139999
0.0139999
0.0139999
0.0139999
0.0139999
0.0139999
0.0139999
0.0139999
0.0139999
0.0139999
0.0139999
0.0139999
0.0139999
0.0139999
0.0139999
0.0139999
0.0139999
0.0139999
0.0139999
0.0139999
0.0139999
0.0139999
0.0139999
0.0139999
0.0139999
0.0139999
0.0139999
0.0139999
0.0139999
0.0139999
0.0139999
0.0139999
0.0139999
0.0139999
0.0139999
0.0139999
0.0139999
0.0139999
0.0139999
0.0139999
0.0139999
0.0139999
0.0139999
0.0139999
0.0139999
0.0139999
0.0139999
0.0139999
0.0139999
0.0139999
0.0139999
0.0139999
0.0139999
0.0139999
0.0139999
0.0139999
0.0139999
0.0139999
0.0139999
0.0139999
0.0139999
0.0139999
0.0139999
0.0139999
0.0139999
0.0139999
0.0139999
0.0139999
0.0139999
0.0139999
0.0139999
0.0139999
0.0139999
0.0139999
0.0139999
0.014
0.014
0.014
0.014
0.014
0.014
0.014
0.014
0.014
0.014
0.014
0.014
0.014
0.014
0.014
0.014
0.014
0.014
0.014
0.014
0.014
0.014
0.014
0.014
0.014
0.014
0.014
0.014
0.014
0.014
0.014
0.014
0.014
0.014
0.014
0.014
0.014
0.014
0.014
0.014
0.014
0.014
0.014
0.014
0.014
0.014
0.014
0.014
0.014
0.014
0.014
0.014
0.014
0.014
0.014
0.014
0.014
0.014
0.014
0.014
0.014
0.014
0.014
0.014
0.014
0.014
0.014
0.014
0.014
0.014
0.014
0.014
0.014
0.014
0.014
0.014
0.014
0.014
0.014
0.014
0.014
0.014
0.014
0.014
0.014
0.014
0.014
0.014
0.014
0.014
0.014
0.014
0.014
0.014
0.014
0.014
0.014
0.014
0.014
0.014
0.014
0.014
0.014
0.014
0.014
0.014
0.014
0.014
0.014
0.014
0.014
0.014
0.014
0.014
0.014
0.014
0.014
0.014
0.014
0.014
0.014
0.014
0.014
0.014
0.014
0.014
0.014
0.014
0.014
0.014
0.014
0.014
0.014
0.014
0.014
0.014
0.014
0.014
0.014
0.014
0.014
0.014
0.014
0.014
0.014
0.014
0.014
0.014
0.014
0.014
0.014
0.014
0.014
0.014
0.014
0.014
0.014
0.014
0.014
0.014
0.014
0.014
0.014
0.014
0.014
0.014
0.014
0.014
0.014
0.014
0.014
0.014
0.014
0.014
0.014
0.014
0.014
0.014
0.014
0.014
0.014
0.014
0.014
0.014
0.014
0.014
0.014
0.014
0.014
0.014
0.014
0.014
0.014
0.014
0.014
0.014
0.014
0.014
0.014
0.014
0.014
0.014
0.014
0.014
0.014
0.014
0.014
0.014
0.014
0.014
0.014
0.014
0.014
0.014
0.014
0.014
0.014
0.014
0.014
0.014
0.014
0.014
0.014
0.014
0.014
0.014
0.014
0.014
0.014
0.014
0.014
0.014
0.014
0.014
0.014
0.014
0.014
0.014
0.014
0.014
0.014
0.014
0.014
0.014
0.014
0.014
0.014
0.014
0.014
0.014
0.014
0.014
0.014
0.014
0.014
0.014
0.014
0.014
0.014
0.014
0.014
0.014
0.014
0.014
0.014
0.014
0.014
0.014
0.014
0.014
0.014
0.014
0.014
0.000283193
0.000283426
0.000276894
0.000272614
0.000270078
0.000269119
0.000269123
0.000270304
0.000272256
0.00027626
0.000280952
0.000292166
0.000299228
0.000336063
0.000342116
0.00140667