/*--------------------------------*- C++ -*----------------------------------*\
  =========                 |
  \\      /  F ield         | OpenFOAM: The Open Source CFD Toolbox
   \\    /   O peration     | Website:  https://openfoam.org
    \\  /    A nd           | Version:  10
     \\/     M anipulation  |
\*---------------------------------------------------------------------------*/
FoamFile
{
    format      ascii;
    class       volScalarField;
    location    "0.0003";
    object      p;
}
// * * * * * * * * * * * * * * * * * * * * * * * * * * * * * * * * * * * * * //

dimensions      [1 -1 -2 0 0 0 0];

internalField   nonuniform List<scalar> 
13320
(
101513
101455
101363
101282
101203
101145
101101
101071
101052
101031
101023
101035
101075
101107
101076
100973
100824
100658
100492
100332
100186
100046
99915.4
99792.9
99678.1
99574.9
99489.4
99418.8
99359
99307.4
99262
99222
99187.4
99160.9
99149.2
99162.5
99205.7
99261.2
99290.2
99258.6
99181.3
99100.3
99062.7
99087.5
99170.8
99249.4
99302
99312.3
99351.1
99352.3
101493
101460
101400
101320
101245
101182
101132
101094
101070
101045
101032
101038
101077
101114
101092
100994
100846
100678
100510
100347
100198
100056
99924
99799.9
99683.6
99579.6
99493.5
99422.4
99362.4
99310.5
99265
99224.8
99190
99162.9
99150
99161.5
99203
99258.6
99290.7
99263.8
99189.3
99107.3
99064.9
99084.4
99163.3
99242.4
99298.1
99309.4
99346.2
99345.9
101473
101442
101386
101321
101250
101187
101136
101098
101074
101049
101035
101040
101074
101112
101092
100996
100848
100680
100512
100349
100199
100058
99925.2
99801.1
99684.8
99580.6
99494.2
99423.1
99363
99311
99265.5
99225.2
99190.3
99163.1
99150
99160.7
99202
99258
99291.1
99265.4
99191.1
99108.4
99064.6
99081.1
99159.4
99239.9
99297
99308.7
99343.8
99346.3
101453
101435
101398
101343
101281
101219
101165
101121
101093
101063
101044
101045
101079
101120
101108
101018
100872
100702
100530
100366
100213
100069
99934.2
99808.4
99690.6
99585.4
99498.4
99426.8
99366.4
99314.3
99268.6
99228.2
99193.1
99165.3
99151
99160.3
99199.3
99254.8
99291.1
99270.3
99200.2
99117.1
99068.4
99079.3
99152.4
99232.1
99291.4
99304.3
99335.9
99338.5
101432
101416
101387
101341
101287
101230
101176
101131
101103
101073
101051
101049
101077
101120
101111
101024
100880
100710
100537
100370
100217
100073
99937.7
99811.4
99693.2
99587.6
99500.2
99428.5
99367.9
99315.7
99270
99229.5
99194.3
99166.2
99151.2
99158.9
99197.1
99252.9
99291.4
99273.6
99205
99121.1
99069.4
99074.3
99143.9
99225
99286.8
99302.2
99331.2
99336.3
101415
101405
101384
101350
101305
101253
101201
101153
101122
101088
101062
101057
101084
101127
101126
101046
100903
100731
100556
100388
100231
100084
99946.9
99819
99699.4
99592.8
99504.7
99432.3
99371.4
99318.9
99272.9
99232.3
99196.9
99168.3
99152
99157.9
99193.3
99248.2
99289.8
99277.9
99214.1
99131
99074.5
99071.9
99135.1
99214.7
99278.3
99296.7
99321.9
99328.2
101398
101389
101373
101345
101308
101262
101214
101169
101137
101103
101073
101062
101085
101130
101135
101058
100916
100744
100567
100395
100238
100091
99953
99823.9
99703.3
99595.9
99507.3
99434.8
99373.9
99321.4
99275.5
99234.9
99199.3
99170.3
99152.9
99156.4
99190
99244.9
99289.8
99283.6
99223.8
99140.7
99079.8
99068.6
99123.7
99203.3
99269.7
99292.5
99315.1
99323.3
101385
101378
101367
101346
101318
101279
101235
101190
101155
101120
101088
101072
101092
101136
101150
101081
100943
100770
100590
100418
100256
100104
99963.3
99832.4
99710.5
99602.2
99512.9
99439.8
99378.4
99325.4
99279
99237.9
99201.7
99171.8
99152.9
99153.8
99183.9
99236.9
99284.9
99285.4
99231.9
99150.4
99085.1
99064.2
99108.8
99185.7
99254.7
99282.5
99303.5
99313.3
101370
101364
101356
101339
101317
101286
101251
101209
101175
101140
101105
101084
101099
101142
101161
101094
100956
100783
100600
100423
100263
100112
99970.9
99839.2
99716.2
99606.5
99516
99442.2
99380.3
99327.2
99280.8
99239.8
99203.7
99173.6
99153.7
99152.3
99179.4
99231.3
99282.9
99291.7
99245.7
99166.9
99097.1
99065.9
99099
99171.4
99242.3
99276.4
99297.2
99308.6
101362
101358
101351
101336
101318
101291
101260
101220
101188
101157
101123
101098
101111
101155
101182
101127
100995
100820
100635
100456
100287
100130
99985.2
99849.4
99723.7
99612.9
99522.3
99448.6
99386.9
99333.8
99287.4
99246.3
99209.9
99178.8
99156.7
99151.8
99174.1
99222.9
99277
99295.9
99259.1
99184.5
99110.9
99067.9
99085.4
99149.7
99222
99263.4
99286.3
99299.3
101363
101358
101354
101342
101329
101309
101283
101243
101212
101179
101141
101110
101115
101156
101188
101137
101008
100833
100645
100464
100296
100139
99992.8
99857.9
99732.7
99621.1
99529
99453.7
99390.4
99335.9
99288.4
99246.3
99209
99176.9
99153.1
99144.1
99160.5
99204.5
99259.6
99287.4
99262.5
99195.6
99120.5
99066
99065.4
99116.3
99187.5
99236.9
99264.6
99279.5
101340
101337
101334
101326
101319
101306
101289
101261
101241
101217
101182
101146
101145
101185
101219
101174
101046
100868
100677
100491
100317
100158
100009
99870.1
99740.2
99625.2
99531.4
99455.7
99392.7
99339.1
99292.6
99251.6
99215.5
99184.2
99160.1
99148.9
99160.7
99201.8
99258.9
99298
99288.8
99233.6
99162
99100.3
99079.4
99112.9
99178.8
99236.7
99269.7
99284.5
101339
101338
101335
101321
101310
101292
101275
101245
101229
101211
101183
101154
101159
101209
101249
101214
101093
100915
100718
100527
100348
100181
100026
99882.3
99750.3
99636.1
99543.5
99469
99406.9
99353.7
99307.4
99266.3
99229.5
99196.9
99170
99154
99157
99187.5
99241.1
99288.5
99297.1
99252.5
99182.5
99114.2
99075.1
99082.5
99135.2
99200.4
99249.5
99277.3
101408
101405
101406
101396
101387
101368
101347
101306
101277
101244
101201
101154
101146
101187
101234
101209
101089
100913
100718
100527
100350
100185
100033
99894.1
99765
99649
99552.7
99474.2
99407.9
99350.6
99299.9
99254.5
99213.7
99177.4
99146.6
99124.6
99119.1
99138.3
99184.4
99238
99262.8
99240.7
99179.1
99104.8
99045.3
99022.1
99046.3
99101.7
99164.1
99214.8
101358
101350
101351
101354
101363
101368
101377
101366
101363
101351
101318
101273
101256
101288
101322
101287
101161
100975
100772
100574
100388
100218
100060
99911
99770.7
99647.7
99547.3
99466.4
99399.8
99344
99296.6
99255.9
99220.5
99189.7
99163.7
99144.3
99137.2
99150.3
99189.6
99247.8
99300.6
99314.3
99284.4
99222.6
99154.1
99099.7
99078
99094
99133.5
99180.7
101244
101250
101243
101235
101237
101228
101237
101238
101261
101284
101287
101277
101297
101359
101414
101378
101250
101061
100849
100639
100440
100256
100087
99929
99785.1
99664.7
99569.8
99496.7
99438.3
99390.1
99348.9
99312.6
99280.2
99250.9
99224.5
99202.2
99187.8
99186.7
99206.6
99249.1
99302.6
99343
99352.7
99325.9
99276.7
99218.3
99168
99139.3
99133.8
99146.3
101446
101476
101473
101442
101423
101367
101322
101267
101231
101199
101159
101131
101154
101225
101287
101287
101180
101004
100801
100604
100419
100244
100083
99940.1
99810.3
99694
99600.2
99524.5
99459.6
99401.7
99348.9
99299.9
99254.4
99211.9
99172.6
99137.1
99107.3
99087.2
99082.3
99095.7
99127.3
99163.6
99190.6
99197.4
99183.4
99155.5
99120.3
99084.3
99058.4
99045.4
101808
101809
101830
101805
101807
101769
101731
101672
101609
101530
101436
101361
101348
101380
101412
101361
101224
101032
100827
100625
100440
100271
100110
99960.8
99818.4
99686.7
99573.8
99478.8
99396.8
99324.7
99260.9
99204.1
99153.5
99108.4
99068.1
99032.6
99002.1
98978.3
98964.5
98964.3
98978.5
99003.2
99031.7
99055.6
99070.2
99072.9
99068.7
99056.6
99045.5
99031.5
101742
101678
101716
101714
101766
101803
101849
101883
101907
101906
101885
101867
101876
101893
101853
101729
101529
101288
101039
100801
100579
100371
100178
99992.5
99816.7
99664.1
99541.3
99446
99371.1
99311.7
99264
99225.3
99193.7
99167.7
99146.3
99128.7
99114.4
99103.8
99098.1
99099.3
99108.6
99125.9
99149
99173.4
99196
99214
99227.4
99234.8
99240.7
99241
101193
101104
101135
101147
101212
101289
101386
101493
101604
101708
101802
101893
101975
102010
101967
101837
101631
101384
101126
100874
100637
100412
100205
100016
99843.5
99706
99608.3
99542.9
99499.4
99470.7
99451.8
99439.6
99432
99427.7
99425.4
99424.7
99425
99426.4
99429.2
99434.1
99442
99453.3
99467.5
99483.8
99500.7
99516.6
99530.9
99542.2
99552.5
99558.2
100595
100528
100543
100555
100599
100659
100738
100834
100944
101063
101188
101312
101419
101480
101471
101392
101253
101077
100885
100691
100504
100326
100164
100019
99897.3
99808.4
99753.6
99723.5
99708.4
99702.3
99701.3
99703.1
99706.6
99710.7
99715.3
99719.9
99724.5
99728.9
99733.3
99738
99743.2
99749.4
99756.6
99764.7
99773.2
99781.7
99789.9
99796.9
99803.7
99808.1
100222
100189
100194
100200
100220
100249
100289
100341
100403
100476
100558
100643
100718
100768
100779
100751
100687
100598
100495
100388
100282
100181
100091
100012
99949.5
99907.9
99885.8
99876.6
99874.4
99875.8
99878.9
99882.7
99886.8
99890.7
99894.4
99897.9
99901
99903.8
99906.5
99908.9
99911.4
99913.9
99916.7
99919.7
99922.9
99926
99929.2
99932
99934.8
99936.7
100064
100052
100054
100056
100062
100072
100086
100105
100129
100159
100194
100231
100266
100292
100302
100296
100275
100242
100203
100159
100115
100074
100036
100005
99981.2
99966.7
99960.2
99958.4
99959.1
99960.7
99962.7
99964.8
99966.7
99968.5
99970.1
99971.5
99972.7
99973.8
99974.8
99975.7
99976.5
99977.3
99978.1
99979
99979.9
99980.8
99981.7
99982.5
99983.3
99983.9
100015
100011
100012
100012
100014
100016
100020
100025
100032
100041
100051
100063
100075
100084
100088
100088
100083
100074
100062
100049
100035
100022
100011
100002
99994.7
99990.8
99989.3
99989.2
99989.7
99990.4
99991.1
99991.8
99992.4
99992.9
99993.4
99993.8
99994.1
99994.4
99994.7
99994.9
99995.1
99995.3
99995.5
99995.7
99995.9
99996.1
99996.3
99996.5
99996.6
99996.8
100003
100002
100002
100002
100002
100003
100004
100005
100006
100008
100011
100013
100016
100019
100020
100020
100019
100017
100015
100012
100008
100005
100003
100000
99998.8
99998
99997.8
99997.8
99998
99998.2
99998.3
99998.5
99998.6
99998.8
99998.8
99998.9
99999
99999.1
99999.1
99999.2
99999.2
99999.2
99999.3
99999.3
99999.3
99999.4
99999.4
99999.4
99999.5
99999.5
100000
100000
100000
100000
100000
100000
100001
100001
100001
100001
100002
100002
100003
100003
100004
100004
100004
100003
100003
100002
100002
100001
100000
100000
99999.8
99999.7
99999.6
99999.7
99999.7
99999.7
99999.8
99999.8
99999.8
99999.8
99999.8
99999.9
99999.9
99999.9
99999.9
99999.9
99999.9
99999.9
99999.9
99999.9
99999.9
99999.9
99999.9
99999.9
99999.9
99999.9
100000
100000
100000
100000
100000
100000
100000
100000
100000
100000
100000
100000
100000
100000
100000
100001
100001
100000
100000
100000
100000
100000
100000
100000
100000
100000
100000
100000
100000
100000
100000
100000
100000
100000
100000
100000
100000
100000
100000
100000
100000
100000
100000
100000
100000
100000
100000
100000
100000
100000
100000
100000
100000
100000
100000
100000
100000
100000
100000
100000
100000
100000
100000
100000
100000
100000
100000
100000
100000
100000
100000
100000
100000
100000
100000
100000
100000
100000
100000
100000
100000
100000
100000
100000
100000
100000
100000
100000
100000
100000
100000
100000
100000
100000
100000
100000
100000
100000
100000
100000
100000
100000
100000
100000
100000
100000
100000
100000
100000
100000
100000
100000
100000
100000
100000
100000
100000
100000
100000
100000
100000
100000
100000
100000
100000
100000
100000
100000
100000
100000
100000
100000
100000
100000
100000
100000
100000
100000
100000
100000
100000
100000
100000
100000
100000
100000
100000
100000
100000
100000
100000
100000
100000
100000
100000
100000
100000
100000
100000
100000
100000
100000
100000
100000
100000
100000
100000
100000
100000
100000
100000
100000
100000
100000
100000
100000
100000
100000
100000
100000
100000
100000
100000
100000
100000
100000
100000
100000
100000
100000
100000
100000
100000
100000
100000
100000
100000
100000
100000
100000
100000
100000
100000
100000
100000
100000
100000
100000
100000
100000
100000
100000
100000
100000
100000
100000
100000
100000
100000
100000
100000
100000
100000
100000
100000
100000
100000
100000
100000
100000
100000
100000
100000
100000
100000
100000
100000
100000
100000
100000
100000
100000
100000
100000
100000
100000
100000
100000
100000
100000
100000
100000
100000
100000
100000
100000
100000
100000
100000
100000
100000
100000
100000
100000
100000
100000
100000
100000
100000
100000
100000
100000
100000
100000
100000
100000
100000
100000
100000
100000
100000
100000
100000
100000
100000
100000
100000
100000
100000
100000
100000
100000
100000
100000
100000
100000
100000
100000
100000
100000
100000
100000
100000
100000
100000
100000
100000
100000
100000
100000
100000
100000
100000
100000
100000
100000
100000
100000
100000
100000
100000
100000
100000
100000
100000
100000
100000
100000
100000
100000
100000
100000
100000
100000
100000
100000
100000
100000
100000
100000
100000
100000
100000
100000
100000
100000
100000
100000
100000
100000
100000
100000
100000
100000
100000
100000
100000
100000
100000
100000
100000
100000
100000
100000
100000
100000
100000
100000
100000
100000
100000
100000
100000
100000
100000
100000
100000
100000
100000
100000
100000
100000
100000
100000
100000
100000
100000
100000
100000
100000
100000
100000
100000
100000
100000
100000
100000
100000
100000
100000
100000
100000
100000
100000
100000
100000
100000
100000
100000
100000
100000
100000
100000
100000
100000
100000
100000
100000
100000
100000
100000
100000
100000
100000
100000
100000
100000
100000
100000
100000
100000
100000
100000
100000
100000
100000
100000
100000
100000
100000
100000
100000
100000
100000
100000
100000
100000
100000
100000
100000
100000
100000
100000
100000
100000
100000
100000
100000
100000
100000
100000
100000
100000
100000
100000
100000
100000
100000
100000
100000
100000
100000
100000
100000
100000
100000
100000
100000
100000
100000
100000
100000
100000
100000
100000
100000
100000
100000
100000
100000
100000
100000
100000
100000
100000
100000
100000
100000
100000
100000
100000
100000
100000
100000
100000
100000
100000
100000
100000
100000
100000
100000
100000
100000
100000
100000
100000
100000
100000
100000
100000
100000
100000
100000
100000
100000
100000
100000
100000
100000
100000
100000
100000
100000
100000
100000
100000
100000
100000
100000
100000
100000
100000
100000
100000
100000
100000
100000
100000
100000
100000
100000
100000
100000
100000
100000
100000
100000
100000
100000
100000
100000
100000
100000
100000
100000
100000
100000
100000
100000
100000
100000
100000
100000
100000
100000
100000
100000
100000
100000
100000
100000
100000
100000
100000
100000
100000
100000
100000
100000
100000
100000
100000
100000
100000
100000
100000
100000
100000
100000
100000
100000
100000
100000
100000
100000
100000
100000
100000
100000
100000
100000
100000
100000
100000
100000
100000
100000
100000
100000
100000
100000
100000
100000
100000
100000
100000
100000
100000
100000
100000
100000
100000
100000
100000
100000
100000
100000
100000
100000
100000
100000
100000
100000
100000
100000
100000
100000
100000
100000
100000
100000
100000
100000
100000
100000
100000
100000
100000
100000
100000
100000
100000
100000
100000
100000
100000
100000
100000
100000
100000
100000
100000
100000
100000
100000
100000
100000
100000
100000
100000
100000
100000
100000
100000
100000
100000
100000
100000
100000
100000
100000
100000
100000
100000
100000
100000
100000
100000
100000
100000
100000
100000
100000
100000
100000
100000
100000
100000
100000
100000
100000
100000
100000
100000
100000
100000
100000
100000
100000
100000
100000
100000
100000
100000
100000
100000
100000
100000
100000
100000
100000
100000
100000
100000
100000
100000
100000
100000
100000
100000
100000
100000
100000
100000
100000
100000
100000
100000
100000
100000
100000
100000
100000
100000
100000
100000
100000
100000
100000
100000
100000
100000
100000
100000
100000
100000
100000
100000
100000
100000
100000
100000
100000
100000
100000
100000
100000
100000
100000
100000
100000
100000
100000
100000
100000
100000
100000
100000
100000
100000
100000
100000
100000
100000
100000
100000
100000
100000
100000
100000
100000
100000
100000
100000
100000
100000
100000
100000
100000
100000
100000
100000
100000
100000
100000
100000
100000
100000
100000
100000
100000
100000
100000
100000
100000
100000
100000
100000
100000
100000
100000
100000
100000
100000
100000
100000
100000
100000
100000
100000
100000
100000
100000
100000
100000
100000
100000
100000
100000
100000
100000
100000
100000
100000
100000
100000
100000
100000
100000
100000
100000
100000
100000
100000
100000
100000
100000
100000
100000
100000
100000
100000
100000
100000
100000
100000
100000
100000
100000
100000
100000
100000
100000
100000
100000
100000
100000
100000
100000
100000
100000
100000
100000
100000
100000
100000
100000
100000
100000
100000
100000
100000
100000
100000
100000
100000
100000
100000
100000
100000
100000
100000
100000
100000
100000
100000
100000
100000
100000
100000
100000
100000
100000
100000
100000
100000
100000
100000
100000
100000
100000
100000
100000
100000
100000
100000
100000
100000
100000
100000
100000
100000
100000
100000
100000
100000
100000
100000
100000
100000
100000
100000
100000
100000
100000
100000
100000
100000
100000
100000
100000
100000
100000
100000
100000
100000
100000
100000
100000
100000
100000
100000
100000
100000
100000
100000
100000
100000
100000
100000
100000
100000
100000
100000
100000
100000
100000
100000
100000
100000
100000
100000
100000
100000
100000
100000
100000
100000
100000
100000
100000
100000
100000
100000
100000
100000
100000
100000
100000
100000
100000
100000
100000
100000
100000
100000
100000
100000
100000
100000
100000
100000
100000
100000
100000
100000
100000
100000
100000
100000
100000
100000
100000
100000
100000
100000
100000
100000
100000
100000
100000
100000
100000
100000
100000
100000
100000
100000
100000
100000
100000
100000
100000
100000
100000
100000
100000
100000
100000
100000
100000
100000
100000
100000
100000
100000
100000
100000
100000
100000
100000
100000
100000
100000
100000
100000
100000
100000
100000
100000
100000
100000
100000
100000
100000
100000
100000
100000
100000
100000
100000
100000
100000
100000
100000
100000
100000
100000
100000
100000
100000
100000
100000
100000
100000
100000
100000
100000
100000
100000
100000
100000
100000
100000
100000
100000
100000
100000
100000
100000
100000
100000
100000
100000
100000
100000
100000
100000
100000
100000
100000
100000
100000
100000
100000
100000
100000
100000
100000
100000
100000
100000
100000
100000
100000
100000
100000
100000
100000
100000
100000
100000
100000
100000
100000
100000
100000
100000
100000
100000
100000
100000
100000
100000
100000
100000
100000
100000
100000
100000
100000
100000
100000
100000
100000
100000
100000
100000
100000
100000
100000
100000
100000
100000
100000
100000
100000
100000
100000
100000
100000
100000
100000
100000
100000
100000
100000
100000
100000
100000
100000
100000
100000
100000
100000
100000
100000
100000
100000
100000
100000
100000
100000
100000
100000
100000
100000
100000
100000
100000
100000
100000
100000
100000
100000
100000
100000
100000
100000
100000
100000
100000
100000
100000
100000
100000
100000
100000
100000
100000
100000
100000
100000
100000
100000
100000
100000
100000
100000
100000
100000
100000
100000
100000
100000
100000
100000
100000
100000
100000
100000
100000
100000
100000
100000
100000
100000
100000
100000
100000
100000
100000
100000
100000
100000
100000
100000
100000
100000
100000
100000
100000
100000
100000
100000
100000
100000
100000
100000
100000
100000
100000
100000
100000
100000
100000
100000
100000
100000
100000
100000
100000
100000
100000
100000
100000
100000
100000
100000
100000
100000
100000
100000
100000
100000
100000
100000
100000
100000
100000
100000
100000
100000
100000
100000
100000
100000
100000
100000
100000
100000
100000
100000
100000
100000
100000
100000
100000
100000
100000
100000
100000
100000
100000
100000
100000
100000
100000
100000
100000
100000
100000
100000
100000
100000
100000
100000
100000
100000
100000
100000
100000
100000
100000
100000
100000
100000
100000
100000
100000
100000
100000
100000
100000
100000
100000
100000
100000
100000
100000
100000
100000
100000
100000
100000
100000
100000
100000
100000
100000
100000
100000
100000
100000
100000
100000
100000
100000
100000
100000
100000
100000
100000
100000
100000
100000
100000
100000
100000
100000
100000
100000
100000
100000
100000
100000
100000
100000
100000
100000
100000
100000
100000
100000
100000
100000
100000
100000
100000
100000
100000
100000
100000
100000
100000
100000
100000
100000
100000
100000
100000
100000
100000
100000
100000
100000
100000
100000
100000
100000
100000
100000
100000
100000
100000
100000
100000
100000
100000
100000
100000
100000
100000
100000
100000
100000
100000
100000
100000
100000
100000
100000
100000
100000
100000
100000
100000
100000
100000
100000
100000
100000
100000
100000
100000
100000
100000
100000
100000
100000
100000
100000
100000
100000
100000
100000
100000
100000
100000
100000
100000
100000
100000
100000
100000
100000
100000
100000
100000
100000
100000
100000
100000
100000
100000
100000
100000
100000
100000
100000
100000
100000
100000
100000
100000
100000
100000
100000
100000
100000
100000
100000
100000
100000
100000
100000
100000
100000
100000
100000
100000
100000
100000
100000
100000
100000
100000
100000
100000
100000
100000
100000
100000
100000
100000
100000
100000
100000
100000
100000
100000
100000
100000
100000
100000
100000
100000
100000
100000
100000
100000
100000
100000
100000
100000
100000
100000
100000
100000
100000
100000
100000
100000
100000
100000
100000
100000
100000
100000
100000
100000
100000
100000
100000
100000
100000
100000
100000
100000
100000
100000
100000
100000
100000
100000
100000
100000
100000
100000
100000
100000
100000
100000
100000
100000
100000
100000
100000
100000
100000
100000
100000
100000
100000
100000
100000
100000
100000
100000
100000
100000
100000
100000
100000
100000
100000
100000
100000
100000
100000
100000
100000
100000
100000
100000
100000
100000
100000
100000
100000
100000
100000
100000
100000
100000
100000
100000
100000
100000
100000
100000
100000
100000
100000
100000
100000
100000
100000
100000
100000
100000
100000
100000
100000
100000
100000
100000
100000
100000
100000
100000
100000
100000
100000
100000
100000
100000
100000
100000
100000
100000
100000
100000
100000
100000
100000
100000
100000
100000
99478
99369.4
99402.5
99386.5
99393.7
99392.2
99393.2
99390.5
99388.9
99381.6
99378.5
99358.6
99357.8
99292.7
99330.5
99427.9
99368.7
99399
99385.8
99392.6
99391.5
99392.5
99390
99388.6
99381.4
99378.9
99358.9
99357.5
99295
99294.6
99426.2
99369
99395.9
99384.7
99391.3
99391
99392.3
99390.5
99389.6
99384.2
99383.1
99371
99374.7
99353.3
99379.1
99391.7
99365.2
99389.5
99383
99389.3
99389.9
99391.6
99390.5
99390.1
99385.7
99384.4
99374.2
99372.9
99353
99353
99385.6
99362.7
99384.3
99380.9
99387.3
99389.2
99391.7
99392
99392.9
99391.7
99393.1
99391.2
99396.4
99397.8
99410.2
99363.4
99358.4
99377.2
99377.7
99384.4
99387.7
99391.1
99392.6
99394.3
99394.4
99395.8
99394.9
99397
99396.9
99400.6
99354.3
99354.1
99371
99374.3
99381.5
99386.3
99391
99394.3
99397.8
99400.9
99405
99409.1
99415.6
99422.8
99432.5
99338
99346
99362.5
99369.1
99377.6
99384.3
99390.3
99395.2
99399.8
99404
99408.5
99412.9
99418.1
99423.6
99430.2
99329.9
99340.6
99356.3
99364.9
99374.1
99382.4
99390.3
99397.2
99403.9
99410.6
99417.7
99424.9
99432.8
99441.1
99449.9
99317.7
99330.7
99346.5
99356.7
99366.4
99375.2
99383.7
99391.3
99398.5
99405.7
99412.9
99420.1
99427.4
99435
99442.7
99298.1
99315.4
99335
99350.3
99363.7
99375.9
99387.3
99397.7
99407.4
99416.7
99425.6
99434.1
99442.3
99450.4
99458
99298.1
99311
99328.2
99343.4
99357.6
99370.7
99383.2
99395.1
99406.3
99416.8
99426.9
99436.5
99445.8
99454.8
99463.5
99292.7
99300.4
99311.2
99321.1
99330.7
99340
99349.5
99359
99368.6
99378.2
99387.8
99397.4
99407
99416.6
99426.3
99254
99280.1
99302.9
99321.5
99337
99350.3
99362.1
99372.9
99383
99392.4
99401.5
99410.1
99418.2
99426.1
99433.4
99229.8
99271
99307.6
99339
99365.5
99388.1
99407.3
99423.9
99438.3
99450.8
99461.8
99471.5
99480.1
99487.7
99494.6
99168.1
99190.4
99214.1
99237.8
99260.3
99281.4
99300.7
99318.5
99334.8
99349.9
99363.9
99376.9
99389.2
99400.7
99412
99039.5
99040.1
99045.4
99056.1
99069.4
99084.6
99101
99118
99135.3
99152.8
99170.2
99187.6
99204.8
99221.7
99238.5
99026.6
99031.3
99037
99047.2
99059.7
99074.5
99090.9
99108.4
99126.7
99145.3
99164.1
99182.9
99201.4
99219.8
99237.3
99247
99263.4
99276.1
99290.9
99306
99321.6
99337.5
99353.6
99369.6
99385.5
99401
99416.2
99430.7
99445
99458
99568.2
99585.6
99598.8
99612.1
99624.6
99636.4
99647.8
99658.7
99669.1
99679
99688.4
99697.3
99705.7
99713.9
99721
99814.8
99825.3
99833.2
99840.8
99847.7
99854
99859.8
99865.1
99870.1
99874.6
99878.9
99882.8
99886.4
99889.9
99892.8
99939.5
99943.8
99947
99950
99952.7
99955.1
99957.2
99959.2
99960.9
99962.5
99963.9
99965.2
99966.4
99967.5
99968.5
99984.7
99985.9
99986.9
99987.8
99988.5
99989.2
99989.8
99990.3
99990.8
99991.2
99991.6
99991.9
99992.2
99992.5
99992.8
99997
99997.2
99997.4
99997.6
99997.8
99997.9
99998.1
99998.2
99998.3
99998.4
99998.4
99998.5
99998.6
99998.6
99998.7
99999.5
99999.6
99999.6
99999.6
99999.7
99999.7
99999.7
99999.7
99999.7
99999.8
99999.8
99999.8
99999.8
99999.8
99999.8
99999.9
99999.9
99999.9
100000
100000
100000
100000
100000
100000
100000
100000
100000
100000
100000
100000
100000
100000
100000
100000
100000
100000
100000
100000
100000
100000
100000
100000
100000
100000
100000
100000
100000
100000
100000
100000
100000
100000
100000
100000
100000
100000
100000
100000
100000
100000
100000
100000
100000
100000
100000
100000
100000
100000
100000
100000
100000
100000
100000
100000
100000
100000
100000
100000
100000
100000
100000
100000
100000
100000
100000
100000
100000
100000
100000
100000
100000
100000
100000
100000
100000
100000
100000
100000
100000
100000
100000
100000
100000
100000
100000
100000
100000
100000
100000
100000
100000
100000
100000
100000
100000
100000
100000
100000
100000
100000
100000
100000
100000
100000
100000
100000
100000
100000
100000
100000
100000
100000
100000
100000
100000
100000
100000
100000
100000
100000
100000
100000
100000
100000
100000
100000
100000
100000
100000
100000
100000
100000
100000
100000
100000
100000
100000
100000
100000
100000
100000
100000
100000
100000
100000
100000
100000
100000
100000
100000
100000
100000
100000
100000
100000
100000
100000
100000
100000
100000
100000
100000
100000
100000
100000
100000
100000
100000
100000
100000
100000
100000
100000
100000
100000
100000
100000
100000
100000
100000
100000
100000
100000
100000
100000
100000
100000
100000
100000
100000
100000
100000
100000
100000
100000
100000
100000
100000
100000
100000
100000
100000
100000
100000
100000
100000
100000
100000
100000
100000
100000
100000
100000
100000
100000
100000
100000
100000
100000
100000
100000
100000
100000
100000
100000
100000
100000
100000
100000
100000
100000
100000
100000
100000
100000
100000
100000
100000
100000
100000
100000
100000
100000
100000
100000
100000
100000
100000
100000
100000
100000
100000
100000
100000
100000
100000
100000
100000
100000
100000
100000
100000
100000
100000
100000
100000
100000
100000
100000
100000
100000
100000
100000
100000
100000
100000
100000
100000
100000
100000
100000
100000
100000
100000
100000
100000
100000
100000
100000
100000
100000
100000
100000
100000
100000
100000
100000
100000
100000
100000
100000
100000
100000
100000
100000
100000
100000
100000
100000
100000
100000
100000
100000
100000
100000
100000
100000
100000
100000
100000
100000
100000
100000
100000
100000
100000
100000
100000
100000
100000
100000
100000
100000
100000
100000
100000
100000
100000
100000
100000
100000
100000
100000
100000
100000
100000
100000
100000
100000
100000
100000
100000
100000
100000
100000
100000
100000
100000
100000
100000
100000
100000
100000
100000
100000
100000
100000
100000
100000
100000
100000
100000
100000
100000
100000
100000
100000
100000
100000
100000
100000
100000
100000
100000
100000
100000
100000
100000
100000
100000
100000
100000
100000
100000
100000
100000
100000
100000
100000
100000
100000
100000
100000
100000
100000
100000
100000
100000
100000
100000
100000
100000
100000
100000
100000
100000
100000
100000
100000
100000
100000
100000
100000
100000
100000
100000
100000
100000
100000
100000
100000
100000
100000
100000
100000
100000
100000
100000
100000
100000
100000
100000
100000
100000
100000
100000
100000
100000
100000
100000
100000
100000
100000
100000
100000
100000
100000
100000
100000
100000
100000
100000
100000
100000
100000
100000
100000
100000
100000
100000
100000
100000
100000
100000
100000
100000
100000
100000
100000
100000
100000
100000
100000
100000
100000
100000
100000
100000
100000
100000
100000
100000
100000
100000
100000
100000
100000
100000
100000
100000
100000
100000
100000
100000
100000
100000
100000
100000
100000
100000
100000
100000
100000
100000
100000
100000
100000
100000
100000
100000
99150
99351.8
99398.2
99372.5
99350.6
99336
99324.2
99311.8
99302.5
99298.8
99296.7
99296.5
99300.2
99307.8
99318
99330
99343.4
99357.9
99373.7
99390.9
99409.4
99429.3
99450.7
99473.5
99497.8
99523.6
99550.7
99579.1
99607
99636.5
99669
99700.7
99728.6
99749.7
99767.9
99783.6
99792
99795.1
99795.9
99795
99792.5
99788.9
99784.2
99778.6
99772.1
99764.6
99756.1
99746.4
99735.6
99723.8
99711
99697.5
99683.5
99669.2
99654.6
99640
99625.2
99610.2
99594.9
99579
99562.5
99545.5
99528.1
99510
99491.5
99472.8
99454.2
99435.3
99415.6
99394.5
99373
99351.1
99329.5
99309.5
99293.2
99283
99282.1
99291.6
99312.2
99345.2
99154.7
99151.5
99168.6
99183.2
99197.9
99212.6
99225.8
99239.5
99251.9
99265
99278.4
99291.1
99305.3
99319.2
99332.7
99346.5
99360.9
99375.9
99391.3
99407.3
99423.9
99441.1
99458.7
99476.6
99495.2
99515.1
99536.4
99559.6
99585
99613.3
99642.7
99670.9
99697.9
99722.8
99742.2
99755
99762.7
99766.8
99768.4
99768.2
99766.7
99764.3
99761.1
99757.1
99752.3
99746.7
99740.2
99732.7
99724.1
99714.6
99704.1
99692.9
99681
99668.5
99655.6
99642.3
99628.7
99614.8
99600.7
99586.5
99572.1
99557.6
99542.9
99528
99512.7
99497.2
99481.3
99465.2
99448.8
99432.7