/*--------------------------------*- C++ -*----------------------------------*\
  =========                 |
  \\      /  F ield         | OpenFOAM: The Open Source CFD Toolbox
   \\    /   O peration     | Website:  https://openfoam.org
    \\  /    A nd           | Version:  10
     \\/     M anipulation  |
\*---------------------------------------------------------------------------*/
FoamFile
{
    format      ascii;
    class       surfaceScalarField;
    location    "0.0003";
    object      phi;
}
// * * * * * * * * * * * * * * * * * * * * * * * * * * * * * * * * * * * * * //

dimensions      [1 0 -1 0 0 0 0];

internalField   nonuniform List<scalar> 
26421
(
0.00069764
-0.000685772
-2.21459e-10
0.00130459
-0.000594334
0.00172707
-0.000409307
0.00195852
-0.000217397
0.00208651
-0.000112573
0.00215943
-5.64641e-05
0.00221091
-3.342e-05
0.00225505
-2.3038e-05
0.00229508
-1.88803e-05
0.00233179
-1.38335e-05
0.00237039
-6.94236e-06
0.00241437
-5.07193e-06
0.00245949
2.90497e-06
0.00249182
1.15697e-05
0.00249726
1.91804e-05
0.00248273
2.05789e-05
0.0024598
1.72408e-05
0.00243752
1.27039e-05
0.00242065
6.54857e-06
0.00241049
5.70095e-07
0.00240712
-5.26208e-06
0.00240994
-1.10454e-05
0.00241924
-1.72153e-05
0.00243612
-2.46653e-05
0.0024626
-3.34713e-05
0.00249748
-4.02146e-05
0.00253595
-4.18225e-05
0.00257525
-4.11208e-05
0.00261354
-3.91149e-05
0.0026498
-3.64624e-05
0.00268342
-3.36016e-05
0.00271395
-3.06932e-05
0.00274042
-2.7714e-05
0.00276047
-2.45434e-05
0.00276979
-2.07333e-05
0.00276475
-1.61631e-05
0.00274797
-1.05023e-05
0.00273253
-5.3374e-06
0.00273444
-2.34688e-06
0.00275764
-4.28122e-07
0.00278886
8.47692e-07
0.00280891
2.12279e-06
0.00280193
5.11457e-06
0.0027657
9.37375e-06
0.00271344
1.62457e-05
0.00266724
2.0648e-05
0.00262244
3.3417e-05
0.00257717
3.90934e-05
0.00247649
9.42325e-05
8.92971e-05
0.00238038
0.000613925
-0.00128607
7.62247e-11
0.00118851
-0.00115442
0.0016692
-0.000874944
0.00201024
-0.000542583
0.00222808
-0.000312999
0.00236763
-0.000177331
0.00246336
-0.000108948
0.00253502
-7.08597e-05
0.00259201
-5.15734e-05
0.00264008
-3.66069e-05
0.00268775
-2.00566e-05
0.00273774
-1.11068e-05
0.00278717
8.90389e-06
0.00282217
2.8898e-05
0.00282881
4.34311e-05
0.00281356
4.47583e-05
0.0027889
3.66181e-05
0.00276487
2.60313e-05
0.00274681
1.32111e-05
0.00273578
6.8864e-07
0.00273206
-1.13398e-05
0.00273523
-2.35187e-05
0.00274568
-3.65919e-05
0.00276446
-5.22814e-05
0.00279349
-7.05045e-05
0.00283177
-8.4617e-05
0.00287431
-8.81927e-05
0.00291784
-8.67336e-05
0.00296029
-8.25071e-05
0.00300055
-7.69715e-05
0.00303787
-7.08942e-05
0.00307178
-6.47401e-05
0.00310133
-5.85073e-05
0.00312419
-5.20653e-05
0.00313588
-4.45816e-05
0.00313197
-3.51145e-05
0.00311407
-2.30531e-05
0.00309547
-1.10436e-05
0.00309399
-2.84382e-06
0.00311631
1.33354e-06
0.00314999
3.00311e-06
0.00317465
3.82479e-06
0.00317117
9.52367e-06
0.00313603
1.73191e-05
0.00308061
3.17273e-05
0.00303032
4.14516e-05
0.00298355
6.64064e-05
0.00293982
7.55271e-05
0.00288076
0.000146013
0.000156014
0.00280641
0.000599988
-0.00187039
8.74476e-11
0.00118337
-0.00172108
0.00169338
-0.00136758
0.00209957
-0.000930658
0.00239527
-0.000588972
0.00259584
-0.000356562
0.00273131
-0.00022128
0.00282851
-0.00014124
0.00290192
-9.70191e-05
0.00296075
-6.56489e-05
0.00301704
-3.77794e-05
0.00307728
-2.22003e-05
0.00313926
9.25183e-06
0.00318445
4.37741e-05
0.00319423
6.85219e-05
0.00317643
7.23108e-05
0.0031463
6.02613e-05
0.00311613
4.34566e-05
0.00309288
2.26479e-05
0.00307845
2.48135e-06
0.00307295
-1.69552e-05
0.00307536
-3.65077e-05
0.00308589
-5.73321e-05
0.00310581
-8.21321e-05
0.00313735
-0.000110945
0.00317936
-0.000133435
0.00322622
-0.000139328
0.00327437
-0.000137259
0.0033214
-0.000130704
0.00336599
-0.000122004
0.00340739
-0.000112376
0.00344507
-0.000102608
0.00347794
-9.27602e-05
0.0035034
-8.26684e-05
0.00351652
-7.11126e-05
0.00351226
-5.64289e-05
0.00349244
-3.75943e-05
0.00347172
-1.81137e-05
0.00346992
-4.21268e-06
0.0034949
3.21909e-06
0.00353265
5.65552e-06
0.00356071
6.13796e-06
0.00355836
1.37964e-05
0.0035203
2.52902e-05
0.0034598
4.71572e-05
0.00340499
6.23346e-05
0.00335727
9.7992e-05
0.00331302
0.000111501
0.00325806
0.000192971
0.000211458
0.00319393
0.000573025
-0.00242545
7.32591e-11
0.00115124
-0.00228009
0.00169496
-0.0018913
0.00216001
-0.00137508
0.00252568
-0.000932427
0.0027948
-0.000601763
0.0029846
-0.000385225
0.00312107
-0.000247812
0.00322227
-0.000166378
0.00329973
-0.000109298
0.00336786
-6.38343e-05
0.0034355
-3.45886e-05
0.00350485
1.05064e-05
0.00355753
6.23536e-05
0.00357137
9.8359e-05
0.00355341
0.000103908
0.00352111
8.62751e-05
0.00348835
6.12793e-05
0.00346286
3.19877e-05
0.00344707
3.20232e-06
0.00344104
-2.40993e-05
0.00344393
-5.13138e-05
0.00345602
-8.08814e-05
0.00347854
-0.000116008
0.00351385
-0.000156687
0.00356074
-0.000188413
0.00361305
-0.000196715
0.00366681
-0.000193812
0.00371932
-0.000184495
0.00376911
-0.000172191
0.00381536
-0.000158527
0.0038575
-0.000144686
0.00389443
-0.000130826
0.00392336
-0.000116701
0.00393885
-0.000100648
0.0039356
-8.04438e-05
0.00391475
-5.4537e-05
0.00389122
-2.66534e-05
0.00388682
-5.8915e-06
0.00391213
4.67991e-06
0.00395367
8.3049e-06
0.00398693
8.75511e-06
0.00398816
1.85373e-05
0.00395027
3.21897e-05
0.00388672
6.18819e-05
0.00382749
8.2487e-05
0.00377989
0.000126111
0.00373767
0.00014389
0.00369874
0.000222977
0.000246716
0.00365375
0.000569535
-0.00297438
2.18471e-11
0.0011528
-0.00284126
0.00172294
-0.00243829
0.0022396
-0.00186788
0.00267286
-0.00134002
0.00300866
-0.000910151
0.00325609
-0.000603298
0.00343736
-0.000395709
0.00357173
-0.000263994
0.00367299
-0.00017094
0.00375879
-0.00010326
0.00384239
-5.57881e-05
0.00392804
7.10306e-06
0.0039952
7.71172e-05
0.00401638
0.000126449
0.00399833
0.000138047
0.00396054
0.000117342
0.00392104
8.35299e-05
0.00388949
4.40645e-05
0.00386924
8.83263e-06
0.00386076
-2.94421e-05
0.00386263
-6.66142e-05
0.00387496
-0.000106351
0.00389911
-0.000153035
0.00393777
-0.000206762
0.00398956
-0.000248717
0.00404752
-0.000259782
0.00410723
-0.00025623
0.00416564
-0.00024408
0.00422107
-0.000227863
0.0042726
-0.000209796
0.00431961
-0.00019153
0.00436089
-0.000173372
0.00439353
-0.000155026
0.00441172
-0.000134336
0.00440903
-0.000107917
0.0043861
-7.45237e-05
0.00435932
-3.75017e-05
0.0043533
-8.15966e-06
0.00438057
5.44642e-06
0.00442701
1.13057e-05
0.00446585
1.14614e-05
0.00447117
2.2342e-05
0.00443299
3.88255e-05
0.00436527
7.4582e-05
0.00430058
0.000100903
0.00425212
0.000150716
0.00421091
0.000173293
0.00417656
0.000247101
0.000269364
0.00414303
0.000566623
-0.00351748
-2.71431e-11
0.00115179
-0.00340117
0.00173988
-0.00299987
0.00229693
-0.00239764
0.00279306
-0.00180679
0.00320179
-0.00128766
0.00351736
-0.000886082
0.00375567
-0.000596886
0.00393473
-0.000401129
0.00406869
-0.000258925
0.00417664
-0.00015948
0.00427756
-8.6382e-05
0.00437963
-3.04694e-06
0.004461
9.25185e-05
0.00449023
0.000158465
0.00447291
0.000176544
0.00443197
0.000150608
0.00438797
0.000105711
0.00435287
5.33271e-05
0.00433085
7.3484e-06
0.00432158
-3.96423e-05
0.00432402
-8.58173e-05
0.00433829
-0.000136068
0.0043657
-0.000195262
0.00440903
-0.000263517
0.00446682
-0.000317147
0.00453147
-0.000331297
0.00459808
-0.000326858
0.00466327
-0.000311288
0.00472518
-0.000290396
0.00478278
-0.000267115
0.00483538
-0.000243695
0.00488179
-0.000220646
0.00491895
-0.000197551
0.00494053
-0.000171837
0.00493958
-0.000139029
0.00491592
-9.75567e-05
0.00488599
-5.05273e-05
0.00487647
-1.17531e-05
0.0049033
7.48625e-06
0.00495376
1.48789e-05
0.00499955
1.47887e-05
0.00501155
2.65047e-05
0.00497597
4.40843e-05
0.00490661
8.50586e-05
0.00483774
0.000117397
0.00478921
0.000170486
0.00475097
0.000197279
0.0047251
0.000261426
0.000283582
0.00469889
0.000578138
-0.00406797
-3.22246e-11
0.00117341
-0.00396684
0.00178086
-0.00357621
0.00237404
-0.0029588
0.00292493
-0.00232296
0.00340137
-0.00172753
0.00378623
-0.00123421
0.00408909
-0.000858127
0.00432263
-0.000586337
0.00449904
-0.000382675
0.00463807
-0.000241587
0.00476464
-0.000136355
0.00489074
-2.46042e-05
0.00499442
9.86355e-05
0.00503876
0.000186874
0.00502513
0.000220475
0.00497946
0.000193765
0.00492795
0.00013852
0.00488561
7.32429e-05
0.00485775
1.75555e-05
0.00484555
-4.27953e-05
0.00484698
-0.000102687
0.00486176
-0.000166407
0.00489133
-0.000241323
0.00493893
-0.000326209
0.00500292
-0.000392436
0.00507474
-0.000409243
0.00514888
-0.00040333
0.00522154
-0.000383849
0.00529061
-0.000358057
0.0053549
-0.000329502
0.00541367
-0.000300932
0.00546569
-0.000273029
0.00550781
-0.000245188
0.00553341
-0.000214356
0.00553445
-0.000175718
0.00550959
-0.000125868
0.0054756
-6.79476e-05
0.00546232
-1.81452e-05
0.0054894
7.6411e-06
0.00554493
1.76211e-05
0.00559868
1.76026e-05
0.00561889
2.88029e-05
0.00558777
4.65935e-05
0.00551702
9.07922e-05
0.00544285
0.000128986
0.00539174
0.000184397
0.00535519
0.00021471
0.00533289
0.000269477
0.000289402
0.00531277
0.000595047
-0.00463052
-2.88745e-11
0.00120458
-0.00454179
0.00182891
-0.00416443
0.00244898
-0.00354169
0.00304835
-0.0028817
0.00359199
-0.00222765
0.00405182
-0.0016501
0.00442778
-0.00118481
0.00472524
-0.00082592
0.00495292
-0.000548827
0.00512989
-0.000353727
0.00528688
-0.00020707
0.00543976
-6.1233e-05
0.00556753
9.78166e-05
0.00562889
0.000214438
0.00562139
0.00026217
0.00557361
0.000233019
0.00551637
0.000165709
0.00546918
8.36225e-05
0.0054389
1.48128e-05
0.00542483
-5.80428e-05
0.00542624
-0.000128915
0.00544308
-0.000205216
0.00547661
-0.000294404
0.00553007
-0.000395341
0.00560152
-0.0004757
0.00568154
-0.000496953
0.0057641
-0.000490839
0.00584503
-0.000468254
0.00592196
-0.000437778
0.0059936
-0.000403715
0.00605918
-0.000369237
0.00611749
-0.000335365
0.00616537
-0.000301534
0.00619584
-0.000264306
0.00620017
-0.000218769
0.00617559
-0.000160358
0.00613806
-9.11541e-05
0.00611959
-2.9008e-05
0.00614436
6.91444e-06
0.00620342
2.07813e-05
0.00626566
2.06793e-05
0.00629729
3.05877e-05
0.00627461
4.82518e-05
0.00620558
9.32092e-05
0.00612753
0.000136107
0.00607401
0.000191544
0.00603929
0.000224989
0.00602118
0.000271031
0.00028894
0.00600565
0.000622566
-0.00521531
3.28103e-12
0.00125432
-0.00513337
0.00190075
-0.00476863
0.00254919
-0.00414671
0.00318879
-0.00347572
0.00378951
-0.00278267
0.00432143
-0.00213533
0.00477534
-0.00158383
0.00514861
-0.00113297
0.00544097
-0.00077161
0.00566799
-0.000508399
0.00586569
-0.000307515
0.00605466
-0.000117606
0.00621651
8.61649e-05
0.00630254
0.000243364
0.00630252
0.000316407
0.00625126
0.000289304
0.00618627
0.000209737
0.00613074
0.000109692
0.0060936
2.27585e-05
0.00607716
-6.4311e-05
0.00607863
-0.000149237
0.00609707
-0.000241008
0.0061339
-0.000351518
0.00619277
-0.000475908
0.00627177
-0.000573707
0.00636055
-0.000598614
0.00645236
-0.000589994
0.00654252
-0.000561542
0.00662836
-0.000523744
0.0067084
-0.000482161
0.0067818
-0.00043998
0.00684735
-0.000398696
0.00690201
-0.000358119
0.00693859
-0.000314806
0.00694731
-0.000262949
0.00692339
-0.000195412
0.00688192
-0.000114517
0.00685755
-3.81609e-05
0.0068789
9.6461e-06
0.00694117
2.85256e-05
0.00701341
2.86834e-05
0.00705909
3.64754e-05
0.00704813
5.15815e-05
0.00698373
9.49651e-05
0.0069022
0.00014087
0.00684334
0.000196098
0.0068083
0.000231765
0.00679171
0.000270078
0.000285059
0.00677959
0.000658021
-0.00582264
1.56499e-11
0.00131977
-0.00574169
0.00199268
-0.00538621
0.00266694
-0.00476431
0.00334233
-0.00409095
0.00399413
-0.003375
0.00459315
-0.00267406
0.00512448
-0.00204847
0.00557657
-0.00151023
0.00594138
-0.00106323
0.00622975
-0.00072149
0.00647923
-0.000454685
0.00671507
-0.000207904
0.0069175
5.33507e-05
0.00703599
0.000262993
0.00705195
0.000369496
0.00700171
0.000348073
0.00692992
0.000260098
0.00686733
0.000142425
0.00682624
3.65916e-05
0.00680638
-6.84551e-05
0.00680654
-0.000174675
0.00682631
-0.000286307
0.00686693
-0.000417362
0.00693268
-0.000561531
0.0070211
-0.000672831
0.00712033
-0.000700945
0.00722285
-0.000691238
0.00732347
-0.000659089
0.0074192
-0.000616038
0.00750842
-0.000568769
0.00759027
-0.000520811
0.00766364
-0.000473185
0.00772562
-0.000426476
0.00776908
-0.000377452
0.00778384
-0.00032093
0.00776283
-0.000245622
0.00771894
-0.000153946
0.00768681
-6.21593e-05
0.00770135
-2.7194e-06
0.00776434
2.38228e-05
0.00784574
2.5535e-05
0.00790749
3.09213e-05
0.00791388
4.32221e-05
0.00785965
8.34518e-05
0.00777706
0.00013139
0.00771177
0.000187569
0.00767408
0.000226529
0.00765756
0.000260081
0.000272922
0.00764692
0.000704218
-0.00647134
2.34563e-11
0.00140634
-0.00638533
0.00211479
-0.00603492
0.00282106
-0.00540914
0.00353196
-0.00473569
0.00423107
-0.00400306
0.00489339
-0.00325772
0.00550117
-0.00256712
0.00603595
-0.00194642
0.00647994
-0.0014073
0.00683733
-0.000979779
0.0071475
-0.00063816
0.00743616
-0.000327026
0.00769077
-1.07918e-06
0.00785044
0.000265413
0.00788453
0.000404485
0.00783535
0.000383232
0.0077574
0.000281337
0.00768679
0.000144391
0.00763891
1.38324e-05
0.00761673
-0.000100777
0.00761788
-0.000220118
0.00764135
-0.000345884
0.0076883
-0.000492426
0.00776229
-0.000660388
0.00786048
-0.000794908
0.00797025
-0.000832732
0.00808364
-0.00082477
0.00819504
-0.000788319
0.00830114
-0.00073742
0.00840015
-0.000680179
0.00849116
-0.000621612
0.00857313
-0.000564294
0.0086435
-0.000509009
0.00869556
-0.000451933
0.00871825
-0.000387193
0.00870234
-0.000301622
0.00865694
-0.000199869
0.0086165
-9.04269e-05
0.00862126
-1.13933e-05
0.00868151
2.73581e-05
0.00877118
3.34496e-05
0.00885131
3.73522e-05
0.0088814
4.37131e-05
0.0088455
7.53681e-05
0.00876622
0.000122902
0.00869317
0.000178745
0.00864877
0.000221357
0.00863019
0.000251149
0.000261285
0.00862069
0.000757423
-0.00717811
6.62126e-12
0.00150508
-0.00707866
0.00225353
-0.00672945
0.00299429
-0.00609816
0.00374212
-0.00542745
0.00448584
-0.00468431
0.00520431
-0.00391216
0.00588253
-0.00317416
0.00650349
-0.00247554
0.00704035
-0.00183863
0.00748147
-0.00131156
0.00786835
-0.000873961
0.00822917
-0.000470583
0.00854929
-5.5004e-05
0.00875707
0.000295033
0.00881373
0.000490506
0.00876734
0.0004948
0.00868251
0.000385364
0.00860272
0.000229457
0.00855003
7.28489e-05
0.00852635
-7.63108e-05
0.00852783
-0.000226623
0.0085538
-0.000381953
0.0086048
-0.000570952
0.00868578
-0.000781039
0.00879448
-0.000937885
0.00891677
-0.000973094
0.00904348
-0.000956093
0.00916824
-0.000906496
0.00928725
-0.000841213
0.00939844
-0.000770356
0.00950081
-0.000699883
0.00959341
-0.000632131
0.00967405
-0.000567778
0.00973658
-0.000503499
0.00976995
-0.000433738
0.00976265
-0.00034418
0.00971927
-0.00023464
0.00967066
-0.000110073
0.00966249
-9.99761e-06
0.00971546
4.63007e-05
0.00980908
5.6541e-05
0.00990619
5.65126e-05
0.00996502
5.68142e-05
0.00995589
7.68371e-05
0.00988832
0.000115425
0.00980847
0.00016996
0.00975307
0.000217221
0.00972763
0.000249164
0.000258498
0.00971722
0.000823785
-0.00787934
6.33015e-12
0.00163222
-0.00776163
0.00243515
-0.00740389
0.00322377
-0.00676355
0.00401196
-0.00609279
0.00479396
-0.00534961
0.00555466
-0.00456958
0.00629204
-0.00381529
0.00698846
-0.00307106
0.00761035
-0.00236506
0.00813821
-0.0017624
0.00860921
-0.00124251
0.00906214
-0.000747482
0.00946825
-0.000238671
0.00974555
0.000219022
0.00984851
0.000482344
0.00981841
0.000520074
0.00973039
0.000407272
0.0096423
0.000229799
0.00957893
6.00203e-05
0.00954619
-0.000117423
0.00954484
-0.000292901
0.00957223
-0.000471685
0.00962928
-0.000671708
0.00972147
-0.000888371
0.00984472
-0.0010541
0.00998237
-0.00109453
0.0101243
-0.00108027
0.0102636
-0.0010328
0.0103961
-0.000965603
0.0105196
-0.000890194
0.0106331
-0.000816854
0.0107358
-0.000747133
0.0108262
-0.000680627
0.0108991
-0.00061434
0.0109435
-0.000542741
0.0109495
-0.000454757
0.0109117
-0.00034106
0.0108567
-0.000204871
0.0108302
-8.24053e-05
0.0108687
-5.98796e-06
0.0109601
1.96836e-05
0.0110701
1.63452e-05
0.0111572
1.02471e-05
0.0111863
2.05388e-05
0.0111457
5.12214e-05
0.0110664
0.000104732
0.0109926
0.000161611
0.010947
0.000206514
0.000227286
0.0109251
0.000903167
-0.00864637
2.47155e-11
0.00178713
-0.00851331
0.00265776
-0.00813679
0.00350857
-0.00746392
0.00435514
-0.00677144
0.00519164
-0.00599948
0.00600626
-0.00518695
0.00680351
-0.00439783
0.00756802
-0.00359836
0.00826148
-0.00282412
0.00886174
-0.00214855
0.00941134
-0.00156453
0.00993869
-0.000996728
0.0104284
-0.000411263
0.010786
0.000147293
0.010933
0.000468221
0.0109216
0.000526126
0.0108353
0.00039717
0.010745
0.000195184
0.0106833
-3.40338e-06
0.0106569
-0.000187524
0.0106632
-0.000371058
0.0107018
-0.00056395
0.0107732
-0.000782124
0.0108794
-0.00103918
0.011016
-0.00124955
0.0111669
-0.00130998
0.011322
-0.00130543
0.0114742
-0.00125845
0.0116192
-0.00118813
0.0117546
-0.00110609
0.0118794
-0.00101938
0.0119931
-0.0009303
0.0120946
-0.000843434
0.01218
-0.000759237
0.0122399
-0.000672855
0.0122623
-0.000574026
0.0122384
-0.000450899
0.0121838
-0.000298656
0.0121395
-0.000148289
0.0121484
-3.2231e-05
0.0122264
2.96849e-05
0.0123464
4.00282e-05
0.0124656
2.79319e-05
0.0125446
1.85678e-05
0.0125546
2.39431e-05
0.0125055
5.47387e-05
0.0124304
0.000104179
0.0123622
0.000152858
0.000185345
0.0123143
0.000990083
-0.00967615
3.83153e-11
0.00194533
-0.00950523
0.00288091
-0.00911775
0.00379061
-0.00841109
0.00469457
-0.00769516
0.00558876
-0.006897
0.00646809
-0.0060406
0.00734194
-0.00519494
0.00820236
-0.00430516
0.00900317
-0.00341639
0.00970914
-0.00260143
0.0103627
-0.00188131
0.0110037
-0.00116137
0.011607
-0.000404342
0.0120443
0.000271597
0.0122295
0.0006772
0.012226
0.000769361
0.0121339
0.000639011
0.0120324
0.00041172
0.0119618
0.000163366
0.0119305
-7.541e-05
0.0119361
-0.000324422
0.0119763
-0.000577241
0.0120495
-0.00088831
0.012162
-0.00123419
0.0123114
-0.00147667
0.0124786
-0.00152964
0.0126519
-0.00149777
0.0128234
-0.00141066
0.0129878
-0.00129662
0.0131423
-0.00117275
0.0132853
-0.00104983
0.0134159
-0.000933133
0.0135335
-0.00082551
0.0136354
-0.000725645
0.0137153
-0.000631401
0.0137593
-0.000532514
0.0137586
-0.000417344
0.0137142
-0.000276241
0.0136563
-0.000117179
0.0136364
2.99741e-05
0.0136774
0.000126491
0.0137777
0.000167174
0.0139057
0.000162476
0.0140259
0.000141062
0.0141029
0.000117752
0.0141183
0.000109884
0.0140849
0.000122552
0.0140286
0.000146975
0.000166401
0.0139702
0.00108338
-0.0106138
2.59926e-11
0.00212508
-0.0103628
0.0031469
-0.0099594
0.00412742
-0.0092449
0.00509121
-0.0085344
0.00603088
-0.00777595
0.00694445
-0.00695278
0.00786614
-0.00614462
0.00878495
-0.00526686
0.00966242
-0.00436998
0.0104697
-0.00350858
0.0112439
-0.00269973
0.0120363
-0.00184172
0.0127723
-0.000896857
0.0133264
-6.25839e-05
0.0136018
0.00050405
0.0136423
0.000682653
0.0135625
0.000575944
0.0134596
0.000345551
0.0133807
7.83873e-05
0.0133405
-0.000187202
0.0133425
-0.000465594
0.0133845
-0.000749073
0.0134674
-0.00105418
0.0135999
-0.00136275
0.0137754
-0.00157635
0.013971
-0.00159269
0.0141721
-0.001529
0.0143692
-0.00142439
0.0145561
-0.00130712
0.0147297
-0.00119171
0.0148888
-0.00108027
0.0150333
-0.000978861
0.0151633
-0.000888608
0.0152774
-0.000805446
0.0153718
-0.000727735
0.0154371
-0.000647493
0.0154665
-0.000556048
0.0154508
-0.000442151
0.0154018
-0.000304793
0.015355
-0.000153951
0.0153454
-2.83808e-05
0.0153976
6.33117e-05
0.0154915
0.000108417
0.0156075
0.000119921
0.0157173
0.000108225
0.0157938
9.32756e-05
0.0158249
8.69197e-05
0.0158224
8.75772e-05
9.22083e-05
0.0157959
0.00120971
-0.0110594
1.22428e-11
0.00238756
-0.0107682
0.00353354
-0.0103056
0.00463278
-0.00957342
0.00568688
-0.00882024
0.00670529
-0.00806398
0.00767644
-0.00725608
0.00863794
-0.00648902
0.00957988
-0.00568035
0.0104669
-0.00487894
0.0112951
-0.00411244
0.012126
-0.00333858
0.0130124
-0.00245902
0.0138842
-0.00145896
0.0145472
-0.000522801
0.0149143
9.08768e-05
0.0150159
0.000278237
0.0149735
0.000179303
0.0148964
-4.48092e-05
0.0148433
-0.000287248
0.0148304
-0.0005096
0.0148592
-0.000738815
0.0149327
-0.000991703
0.0150525
-0.00124875
0.0152188
-0.00154991
0.0154219
-0.00181688
0.0156399
-0.00187987
0.0158595
-0.00188108
0.0160714
-0.00183873
0.0162698
-0.00177192
0.0164529
-0.00169098
0.0166207
-0.00160231
0.0167732
-0.00150936
0.016911
-0.00141448
0.017034
-0.00131862
0.0171403
-0.00122242
0.0172243
-0.00112361
0.017278
-0.00101776
0.0172975
-0.000897158
0.017282
-0.000758853
0.0172487
-0.000601493
0.0172232
-0.000445653
0.0172271
-0.000306667
0.0172755
-0.000200452
0.0173508
-0.00012668
0.0174391
-8.21242e-05
0.0175286
-5.49229e-05
0.0176009
-3.64424e-05
0.0176478
-2.24587e-05
-1.30385e-05
0.0176685
0.00136177
-0.0117916
-2.49173e-12
0.00268914
-0.011576
0.00397376
-0.0110179
0.00521568
-0.0102119
0.00639727
-0.00931718
0.00754697
-0.00840957
0.0086448
-0.00743597
0.00971798
-0.0065025
0.0107494
-0.00554919
0.0117137
-0.0046297
0.0126304
-0.00375055
0.0135804
-0.00283891
0.0145702
-0.00181129
0.0155077
-0.000725253
0.0162202
0.00020186
0.0165881
0.000729322
0.0166858
0.000827749
0.0166481
0.000655182
0.0165839
0.000363658
0.0165454
5.67998e-05
0.0165473
-0.000276916
0.0165933
-0.000587834
0.0166847
-0.000949669
0.0168177
-0.00138977
0.0169911
-0.00193314
0.0172012
-0.00238226
0.0174279
-0.0025638
0.0176566
-0.00260944
0.0178806
-0.00255961
0.0180949
-0.00244925
0.018296
-0.0023036
0.0184826
-0.00213402
0.0186538
-0.00195935
0.0188102
-0.00178571
0.018952
-0.00161721
0.019079
-0.00145627
0.0191888
-0.00130346
0.0192763
-0.00115694
0.0193346
-0.00101194
0.0193641
-0.000863577
0.0193702
-0.000708654
0.0193653
-0.000554233
0.019366
-0.000407863
0.0193841
-0.00028028
0.0194233
-0.000175665
0.0194797
-9.70833e-05
0.0195449
-3.69402e-05
0.0196126
5.66654e-06
0.0196737
3.65726e-05
5.10971e-05
0.0197204
0.0015106
-0.0138501
-1.28367e-11
0.0029849
-0.0137247
0.00438126
-0.013068
0.00574415
-0.0121622
0.00704326
-0.0111161
0.00831827
-0.0100197
0.00955748
-0.00881647
0.0107815
-0.00762334
0.0119763
-0.00637931
0.0131286
-0.00513354
0.014267
-0.0038819
0.0154388
-0.00257817
0.0166022
-0.00122518
0.0176145
6.05902e-05
0.0183243
0.00102373
0.0186869
0.00154958
0.0187731
0.00161933
0.0187224
0.0013962
0.0186368
0.00102732
0.0185708
0.000595309
0.0185466
0.000136145
0.0185693
-0.000368526
0.0186389
-0.000920522
0.0187556
-0.00156687
0.0189266
-0.0022912
0.0191517
-0.00279643
0.0194059
-0.00289546
0.019672
-0.0027933
0.0199392
-0.00257517
0.0201972
-0.00230166
0.0204405
-0.00201058
0.0206663
-0.00172575
0.0208735
-0.00145946
0.0210622
-0.00121835
0.0212326
-0.00100247
0.0213853
-0.000813736
0.0215201
-0.000648415
0.0216356
-0.000504709
0.0217288
-0.000377574
0.0217954
-0.000261202
0.0218391
-0.000150795
0.0218657
-4.34213e-05
0.0218854
4.73783e-05
0.0219062
0.000129757
0.0219337
0.00020099
0.0219691
0.000253671
0.022011
0.000295114
0.0220564
0.000322364
0.0221009
0.000340184
0.000339319
0.0221425
0.00164836
-0.017007
-1.58081e-11
0.00325949
-0.016838
0.00476689
-0.0160973
0.00623528
-0.0150996
0.00763259
-0.0139791
0.00899489
-0.0128075
0.0103211
-0.0115144
0.0116331
-0.0102293
0.0129307
-0.00886098
0.0142219
-0.00744792
0.0155284
-0.0059752
0.01686
-0.00443876
0.0181341
-0.00289264
0.0192154
-0.00150445
0.0199963
-0.000434338
0.0204481
0.000202847
0.0206263
0.00046163
0.0206497
0.000410532
0.0206182
0.000171571
0.0205898
-0.000149756
0.0205903
-0.000532292
0.0206319
-0.000972957
0.0207275
-0.00144536
0.020884
-0.00194483
0.021115
-0.00240218
0.0214222
-0.00257021
0.0217595
-0.00234576
0.0221033
-0.00198636
0.0224379
-0.00157785
0.0227537
-0.00117646
0.0230457
-0.0008083
0.0233118
-0.000488509
0.023552
-0.000215565
0.0237672
6.52248e-06
0.0239588
0.000185956
0.0241284
0.000327554
0.024277
0.000439787
0.0244055
0.000524401
0.024514
0.000587505
0.0246023
0.000634823
0.0246712
0.000671341
0.024723
0.0007002
0.0247618
0.000721506
0.0247928
0.000735498
0.0248201
0.000746183
0.0248464
0.000744436
0.0248728
0.000741278
0.0248996
0.000729783
0.0249255
0.000714479
0.000684785
0.0249504
0.00181368
-0.0203167
-1.10693e-11
0.00357621
-0.0199799
0.00522771
-0.0191512
0.00681198
-0.0180646
0.00831051
-0.0169127
0.00974592
-0.0157453
0.0111244
-0.0144803
0.0124655
-0.0132671
0.0137801
-0.011986
0.0150854
-0.0106718
0.0163966
-0.00929912
0.0177065
-0.00788397
0.0189439
-0.00646901
0.0200111
-0.00518468
0.0208558
-0.00412669
0.0214456
-0.00335648
0.0218237
-0.00287156
0.0220629
-0.00260894
0.0222332
-0.0024966
0.0223847
-0.00246879
0.0225461
-0.00248734
0.0227379
-0.00252604
0.0229733
-0.00254407
0.0232683
-0.00253641
0.0236473
-0.00241393
0.0240862
-0.00201849
0.0245292
-0.00143659
0.0249564
-0.000878718
0.025356
-0.000375285
0.0257221
5.19249e-05
0.0260524
0.00040401
0.026348
0.000680202
0.0266108
0.000894475
0.0268431
0.00105056
0.0270476
0.00116655
0.0272266
0.00124066
0.0273826
0.00128804
0.0275174
0.00130968
0.0276326
0.00131212
0.0277294
0.00130089
0.0278091
0.00128035
0.0278732
0.00125371
0.027924
0.00122101
0.0279642
0.0011837
0.0279961
0.00114847
0.0280219
0.0011043
0.0280431
0.00106536
0.0280608
0.0010223
0.0280752
0.000979853
0.00092736
0.0280873
0.00202343
-0.0232612
-5.23702e-12
0.00397151
-0.0227277
0.00580426
-0.0217955
0.0075408
-0.0206091
0.00917381
-0.0194056
0.0107141
-0.0182254
0.0121687
-0.0169814
0.0135516
-0.015842
0.0148753
-0.0146763
0.0161559
-0.0135247
0.0174053
-0.0123571
0.0186195
-0.0111926
0.0197634
-0.0100359
0.0207868
-0.00896027
0.0216647
-0.00801073
0.0223856
-0.00720899
0.0229673
-0.00655462
0.0234481
-0.00601975
0.0238683
-0.00556267
0.0242614
-0.00514271
0.0246514
-0.00472882
0.0250581
-0.00429366
0.0254986
-0.0038069
0.0259784
-0.00325772
0.0265278
-0.00259746
0.0271024
-0.00174243
0.0276444
-0.00091274
0.0281444
-0.000249278
0.028598
0.000281863
0.029005
0.000695139
0.0293676
0.00101436
0.0296889
0.00124837
0.0299722
0.00141904
0.0302212
0.00153184
0.030439
0.00160832
0.0306287
0.00164525
0.0307933
0.00165944
0.0309351
0.00165077
0.0310566
0.00162561
0.0311596
0.00158905
0.0312458
0.0015449
0.031317
0.00149594
0.0313749
0.00144173
0.0314212
0.00138387
0.0314577
0.00133013
0.0314858
0.00126845
0.0315069
0.00121467
0.0315221
0.00115837
0.0315322
0.0011045
0.00104272
0.0315381
0.00227141
-0.0259329
-1.71609e-12
0.00444126
-0.025227
0.00648869
-0.0241756
0.00841762
-0.0228719
0.0102259
-0.0215753
0.0119185
-0.0203252
0.0135009
-0.0190348
0.0149823
-0.0178845
0.0163727
-0.0167429
0.0176842
-0.0156578
0.0189268
-0.0145991
0.0201039
-0.0135851
0.021207
-0.0125927
0.0222215
-0.0116591
0.0231398
-0.0107918
0.0239648
-0.00999104
0.024704
-0.00924921
0.0253764
-0.00855375
0.0260032
-0.00787718
0.0266044
-0.00719578
0.0271967
-0.00648717
0.0277953
-0.00573237
0.0284142
-0.00491617
0.0290612
-0.00403461
0.0297555
-0.00307204
0.0304449
-0.00196437
0.0310724
-0.00098766
0.0316375
-0.000257866
0.0321428
0.000299952
0.0325923
0.000721637
0.0329905
0.00104229
0.033342
0.00127491
0.0336513
0.00144422
0.0339224
0.00155594
0.0341593
0.00163264
0.0343654
0.00167023
0.0345439
0.00168597
0.0346976
0.00167917
0.0348293
0.00165608
0.0349411
0.00162162
0.0350352
0.00157939
0.0351135
0.00153201
0.0351776
0.00147884
0.0352294
0.00142152
0.0352701
0.00136818
0.0353014
0.00130644
0.0353242
0.00125276
0.0353399
0.00119647
0.0353492
0.00114265
0.00108122
0.0353531
0.00255006
-0.0286137
-4.37018e-13
0.00497732
-0.027757
0.00726981
-0.0265711
0.00942611
-0.0251322
0.0114453
-0.0237084
0.0133303
-0.0223416
0.015086
-0.0209468
0.0167192
-0.0197105
0.0182384
-0.0185034
0.0196531
-0.0173781
0.0209727
-0.0163058
0.0222049
-0.0153047
0.0233539
-0.01434
0.0244221
-0.0134335
0.025413
-0.0125748
0.0263348
-0.0117543
0.0271951
-0.0109587
0.028006
-0.0101792
0.0287805
-0.00939293
0.0295319
-0.00858384
0.0302724
-0.0077349
0.0310141
-0.00683376
0.0317684
-0.00587477
0.0325447
-0.0048607
0.0333562
-0.00379215
0.0341456
-0.00257175
0.0348536
-0.0014903
0.0354857
-0.00069179
0.0360481
-8.2883e-05
0.036547
0.000380783
0.0369882
0.000738405
0.0373774
0.00100444
0.0377197
0.00120457
0.0380197
0.00134467
0.0382818
0.00144767
0.0385098
0.00150937
0.0387073
0.00154725
0.0388773
0.00156062
0.039023
0.00155585
0.0391467
0.00153794
0.0392509
0.00151058
0.0393378
0.00147651
0.0394091
0.00143513
0.0394668
0.00138821
0.0395123
0.00134408
0.0395471
0.00129038
0.0395725
0.00124382
0.0395897
0.00119376
0.0395996
0.00114542
0.00108886
0.0396032
0.00286038
-0.0315073
-8.40349e-14
0.00557985
-0.0305014
0.00814906
-0.0291652
0.0105647
-0.027573
0.0128261
-0.0259977
0.0149358
-0.024484
0.0168987
-0.0229497
0.0187214
-0.0215839
0.0204121
-0.0202595
0.0219799
-0.0190316
0.0234347
-0.0178726
0.0247861
-0.0168009
0.0260433
-0.0157787
0.027215
-0.0148229
0.0283101
-0.0139174
0.0293387
-0.0130488
0.0303107
-0.0122015
0.0312371
-0.011367
0.0321288
-0.0105234
0.0329974
-0.00965714
0.0338539
-0.00875336
0.0347095
-0.00780264
0.0355752
-0.00680333
0.0364615
-0.00576108
0.0373798
-0.00468247
0.0382674
-0.00340644
0.03906
-0.0022258
0.039766
-0.00134463
0.0403934
-0.000663473
0.0409495
-0.000135465
0.0414412
0.000280393
0.041875
0.000599224
0.0422564
0.000847269
0.0425908
0.00103078
0.0428829
0.00117309
0.043137
0.00127027
0.0433571
0.00134015
0.0435467
0.0013823
0.043709
0.00140335
0.043847
0.00140859
0.0439632
0.00140193
0.0440601
0.0013863
0.0441397
0.00136134
0.0442041
0.00132899
0.0442549
0.00129775
0.0442938
0.00125544
0.0443222
0.00121892
0.0443413
0.00117768
0.0443523
0.00113706
0.0010873
0.0443562
0.00320731
-0.0347213
-1.21017e-14
0.00625575
-0.0335547
0.00913593
-0.0320502
0.0118437
-0.0302856
0.0143785
-0.0285379
0.0167429
-0.0268548
0.0189423
-0.0251571
0.0209837
-0.0236358
0.0228761
-0.0221657
0.0246293
-0.0208034
0.0262539
-0.0195222
0.027761
-0.018341
0.0291619
-0.0172218
0.0304679
-0.0161802
0.0316905
-0.015199
0.0328411
-0.0142635
0.0339314
-0.0133576
0.034973
-0.0124725
0.0359777
-0.0115865
0.036957
-0.0106866
0.0379228
-0.00975849
0.0388868
-0.00879373
0.0398606
-0.00779188
0.0408559
-0.00675952
0.0418849
-0.00570485
0.0428776
-0.00438746
0.0437634
-0.00309929
0.0445519
-0.00212209
0.0452524
-0.00135459
0.0458734
-0.00074856
0.0464224
-0.00026221
0.0469067
0.000120299
0.0473326
0.000425805
0.047706
0.000661113
0.0480322
0.000850031
0.048316
0.000989128
0.0485618
0.00109662
0.0487735