/*--------------------------------*- C++ -*----------------------------------*\
  =========                 |
  \\      /  F ield         | OpenFOAM: The Open Source CFD Toolbox
   \\    /   O peration     | Website:  https://openfoam.org
    \\  /    A nd           | Version:  10
     \\/     M anipulation  |
\*---------------------------------------------------------------------------*/
FoamFile
{
    format      ascii;
    class       volScalarField;
    location    "0.0003";
    object      T;
}
// * * * * * * * * * * * * * * * * * * * * * * * * * * * * * * * * * * * * * //

dimensions      [0 0 0 1 0 0 0];

internalField   nonuniform List<scalar> 
13320
(
300.694
300.672
300.638
300.633
300.632
300.632
300.619
300.611
300.607
300.592
300.595
300.645
300.756
300.843
300.78
300.522
300.157
299.754
299.355
298.972
298.621
298.286
297.965
297.661
297.377
297.125
296.918
296.749
296.608
296.487
296.381
296.288
296.206
296.142
296.108
296.126
296.199
296.297
296.342
296.272
296.112
295.947
295.858
295.902
296.043
296.194
296.271
296.307
296.321
296.377
300.527
300.514
300.485
300.459
300.441
300.431
300.416
300.415
300.427
300.431
300.447
300.504
300.629
300.745
300.709
300.482
300.131
299.735
299.341
298.962
298.614
298.283
297.97
297.675
297.398
297.152
296.949
296.785
296.647
296.529
296.425
296.334
296.255
296.192
296.158
296.172
296.245
296.345
296.398
296.337
296.184
296.018
295.921
295.953
296.088
296.24
296.323
296.361
296.376
296.418
300.469
300.457
300.428
300.395
300.363
300.342
300.32
300.316
300.333
300.344
300.37
300.439
300.568
300.698
300.681
300.468
300.122
299.73
299.338
298.961
298.613
298.285
297.978
297.688
297.414
297.169
296.969
296.806
296.67
296.554
296.452
296.362
296.284
296.221
296.188
296.201
296.274
296.374
296.428
296.37
296.219
296.054
295.957
295.983
296.118
296.271
296.357
296.394
296.411
296.449
300.449
300.439
300.413
300.378
300.339
300.309
300.279
300.269
300.284
300.295
300.318
300.381
300.513
300.652
300.654
300.457
300.118
299.729
299.337
298.964
298.619
298.293
297.987
297.699
297.427
297.183
296.983
296.821
296.685
296.569
296.468
296.378
296.3
296.238
296.202
296.214
296.283
296.383
296.445
296.395
296.253
296.086
295.98
295.997
296.122
296.275
296.367
296.406
296.426
296.46
300.44
300.433
300.41
300.376
300.334
300.3
300.265
300.25
300.261
300.268
300.285
300.347
300.475
300.626
300.645
300.464
300.134
299.746
299.355
298.977
298.63
298.304
297.997
297.708
297.436
297.193
296.993
296.831
296.695
296.579
296.478
296.388
296.31
296.247
296.21
296.218
296.285
296.386
296.452
296.407
296.269
296.103
295.991
295.998
296.118
296.272
296.37
296.411
296.433
296.465
300.435
300.431
300.414
300.387
300.349
300.314
300.276
300.255
300.262
300.264
300.268
300.319
300.447
300.603
300.639
300.48
300.157
299.77
299.374
298.998
298.648
298.318
298.008
297.718
297.444
297.2
296.999
296.836
296.7
296.583
296.481
296.392
296.313
296.249
296.209
296.215
296.277
296.377
296.449
296.416
296.286
296.121
296.001
295.992
296.102
296.253
296.358
296.403
296.427
296.457
300.432
300.43
300.417
300.397
300.364
300.331
300.293
300.269
300.272
300.274
300.276
300.315
300.434
300.599
300.656
300.51
300.193
299.805
299.406
299.019
298.666
298.334
298.022
297.728
297.451
297.205
297.003
296.839
296.703
296.586
296.484
296.394
296.315
296.25
296.208
296.209
296.269
296.367
296.446
296.423
296.302
296.136
296.009
295.983
296.081
296.231
296.343
296.394
296.419
296.448
300.431
300.432
300.423
300.409
300.383
300.356
300.319
300.292
300.288
300.287
300.284
300.312
300.424
300.589
300.667
300.541
300.235
299.846
299.443
299.057
298.694
298.355
298.038
297.741
297.462
297.213
297.009
296.845
296.707
296.589
296.486
296.395
296.315
296.248
296.204
296.199
296.252
296.348
296.433
296.425
296.312
296.151
296.015
295.971
296.05
296.194
296.314
296.373
296.403
296.432
300.429
300.433
300.425
300.415
300.395
300.378
300.349
300.323
300.313
300.312
300.304
300.321
300.422
300.588
300.683
300.57
300.268
299.879
299.469
299.073
298.711
298.372
298.053
297.754
297.472
297.22
297.013
296.847
296.708
296.589
296.486
296.395
296.315
296.247
296.201
296.192
296.239
296.334
296.425
296.434
296.335
296.18
296.037
295.972
296.029
296.166
296.294
296.362
296.396
296.423
300.432
300.439
300.432
300.421
300.401
300.388
300.364
300.335
300.325
300.328
300.321
300.329
300.421
300.59
300.706
300.621
300.335
299.945
299.53
299.131
298.754
298.405
298.078
297.771
297.483
297.229
297.022
296.856
296.717
296.599
296.496
296.404
296.323
296.254
296.203
296.187
296.226
296.315
296.411
296.441
296.361
296.214
296.061
295.973
296.003
296.128
296.259
296.339
296.379
296.409
300.453
300.462
300.456
300.45
300.435
300.427
300.407
300.374
300.356
300.354
300.338
300.334
300.413
300.575
300.71
300.636
300.362
299.975
299.555
299.15
298.773
298.421
298.093
297.787
297.5
297.244
297.034
296.864
296.722
296.601
296.495
296.402
296.319
296.247
296.193
296.168
296.196
296.274
296.374
296.422
296.365
296.228
296.076
295.967
295.963
296.061
296.19
296.285
296.337
296.371
300.436
300.45
300.442
300.445
300.435
300.437
300.427
300.412
300.41
300.411
300.397
300.379
300.441
300.602
300.738
300.69
300.423
300.032
299.607
299.196
298.811
298.455
298.122
297.808
297.512
297.249
297.036
296.865
296.723
296.603
296.499
296.408
296.327
296.257
296.202
296.173
296.191
296.266
296.373
296.443
296.413
296.304
296.16
296.037
295.992
296.056
296.179
296.29
296.353
296.385
300.442
300.46
300.45
300.442
300.424
300.418
300.404
300.383
300.388
300.398
300.389
300.387
300.457
300.636
300.793
300.76
300.513
300.126
299.692
299.268
298.871
298.499
298.155
297.83
297.53
297.269
297.058
296.89
296.75
296.631
296.528
296.437
296.355
296.283
296.223
296.185
296.185
296.241
296.339
296.426
296.435
296.345
296.203
296.067
295.986
295.999
296.101
296.226
296.321
296.377
300.582
300.601
300.595
300.592
300.573
300.559
300.532
300.485
300.466
300.443
300.399
300.355
300.405
300.56
300.735
300.73
300.489
300.108
299.679
299.259
298.868
298.502
298.163
297.851
297.557
297.293
297.075
296.899
296.751
296.623
296.51
296.409
296.319
296.238
296.169
296.118
296.1
296.134
296.217
296.318
296.359
296.31
296.186
296.037
295.916
295.867
295.919
296.026
296.148
296.249
300.538
300.544
300.539
300.558
300.571
300.597
300.62
300.619
300.639
300.657
300.621
300.568
300.593
300.737
300.878
300.865
300.617
300.223
299.78
299.348
298.94
298.566
298.215
297.881
297.565
297.287
297.059
296.877
296.728
296.603
296.497
296.406
296.327
296.258
296.199
296.154
296.135
296.157
296.231
296.342
296.441
296.468
296.404
296.281
296.142
296.033
295.99
296.021
296.099
296.192
300.332
300.368
300.338
300.342
300.342
300.343
300.368
300.392
300.46
300.54
300.577
300.581
300.669
300.869
301.054
301.026
300.782
300.382
299.926
299.472
299.038
298.635
298.263
297.912
297.59
297.318
297.103
296.938
296.807
296.698
296.606
296.525
296.453
296.388
296.329
296.279
296.245
296.238
296.274
296.355
296.46
296.538
296.553
296.498
296.4
296.283
296.18
296.122
296.108
296.131
300.698
300.776
300.756
300.722
300.684
300.6
300.526
300.438
300.39
300.361
300.31
300.285
300.369
300.576
300.775
300.82
300.617
300.249
299.814
299.387
298.983
298.601
298.246
297.93
297.639
297.376
297.165
296.996
296.851
296.722
296.605
296.496
296.395
296.301
296.214
296.135
296.068
296.021
296.005
296.028
296.088
296.156
296.206
296.219
296.189
296.133
296.062
295.989
295.933
295.91
301.392
301.425
301.449
301.422
301.423
301.364
301.302
301.211
301.113
300.991
300.842
300.733
300.744
300.869
301.003
300.944
300.68
300.284
299.847
299.416
299.016
298.649
298.295
297.967
297.65
297.356
297.104
296.892
296.709
296.549
296.407
296.281
296.168
296.068
295.978
295.898
295.83
295.776
295.743
295.739
295.764
295.811
295.866
295.914
295.943
295.95
295.941
295.92
295.898
295.879
301.297
301.201
301.262
301.275
301.377
301.462
301.562
301.645
301.712
301.737
301.727
301.736
301.81
301.892
301.873
301.666
301.277
300.785
300.268
299.765
299.293
298.848
298.428
298.024
297.636
297.298
297.025
296.813
296.647
296.514
296.408
296.322
296.252
296.194
296.146
296.106
296.074
296.05
296.036
296.037
296.055
296.089
296.136
296.186
296.233
296.271
296.3
296.319
296.332
296.341
300.288
300.131
300.184
300.216
300.343
300.498
300.692
300.91
301.139
301.362
301.574
301.79
301.998
302.113
302.067
301.841
301.442
300.945
300.416
299.891
299.39
298.913
298.468
298.06
297.683
297.38
297.164
297.019
296.923
296.859
296.817
296.789
296.772
296.762
296.757
296.755
296.755
296.758
296.764
296.774
296.79
296.813
296.842
296.876
296.911
296.945
296.976
297.001
297.023
297.04
299.154
299.03
299.057
299.083
299.17
299.29
299.448
299.641
299.864
300.108
300.368
300.635
300.875
301.025
301.033
300.894
300.626
300.274
299.882
299.48
299.087
298.71
298.364
298.054
297.79
297.595
297.475
297.408
297.375
297.361
297.358
297.362
297.369
297.378
297.388
297.398
297.408
297.417
297.427
297.436
297.448
297.46
297.476
297.492
297.51
297.528
297.546
297.561
297.575
297.587
298.435
298.372
298.381
298.394
298.433
298.491
298.571
298.674
298.801
298.95
299.118
299.296
299.459
299.572
299.606
299.557
299.434
299.256
299.047
298.826
298.604
298.392
298.199
298.031
297.896
297.806
297.757
297.737
297.732
297.735
297.742
297.75
297.758
297.767
297.775
297.782
297.789
297.795
297.801
297.806
297.811
297.817
297.822
297.829
297.835
297.842
297.849
297.855
297.86
297.865
298.126
298.104
298.106
298.11
298.123
298.143
298.171
298.209
298.258
298.318
298.389
298.467
298.541
298.597
298.622
298.613
298.573
298.507
298.426
298.337
298.245
298.158
298.079
298.012
297.961
297.93
297.916
297.912
297.913
297.917
297.921
297.925
297.93
297.933
297.937
297.94
297.942
297.945
297.947
297.949
297.95
297.952
297.954
297.956
297.958
297.959
297.961
297.963
297.965
297.966
298.029
298.023
298.023
298.024
298.027
298.033
298.04
298.05
298.064
298.082
298.104
298.128
298.152
298.171
298.182
298.182
298.172
298.154
298.13
298.103
298.075
298.048
298.024
298.004
297.989
297.981
297.978
297.977
297.978
297.98
297.981
297.983
297.984
297.985
297.986
297.987
297.988
297.988
297.989
297.989
297.99
297.99
297.991
297.991
297.991
297.992
297.992
297.993
297.993
297.993
298.005
298.004
298.004
298.004
298.005
298.006
298.007
298.01
298.013
298.017
298.022
298.027
298.033
298.038
298.041
298.042
298.04
298.036
298.031
298.024
298.018
298.011
298.005
298.001
297.998
297.996
297.995
297.995
297.996
297.996
297.997
297.997
297.997
297.997
297.998
297.998
297.998
297.998
297.998
297.998
297.998
297.998
297.998
297.999
297.999
297.999
297.999
297.999
297.999
297.999
298.001
298.001
298.001
298.001
298.001
298.001
298.001
298.001
298.002
298.003
298.004
298.005
298.006
298.007
298.007
298.007
298.007
298.007
298.006
298.004
298.003
298.002
298.001
298
298
297.999
297.999
297.999
297.999
297.999
297.999
298
298
298
298
298
298
298
298
298
298
298
298
298
298
298
298
298
298
298
298
298
298
298
298
298
298
298
298
298
298
298.001
298.001
298.001
298.001
298.001
298.001
298.001
298.001
298.001
298
298
298
298
298
298
298
298
298
298
298
298
298
298
298
298
298
298
298
298
298
298
298
298
298
298
298
298
298
298
298
298
298
298
298
298
298
298
298
298
298
298
298
298
298
298
298
298
298
298
298
298
298
298
298
298
298
298
298
298
298
298
298
298
298
298
298
298
298
298
298
298
298
298
298
298
298
298
298
298
298
298
298
298
298
298
298
298
298
298
298
298
298
298
298
298
298
298
298
298
298
298
298
298
298
298
298
298
298
298
298
298
298
298
298
298
298
298
298
298
298
298
298
298
298
298
298
298
298
298
298
298
298
298
298
298
298
298
298
298
298
298
298
298
298
298
298
298
298
298
298
298
298
298
298
298
298
298
298
298
298
298
298
298
298
298
298
298
298
298
298
298
298
298
298
298
298
298
298
298
298
298
298
298
298
298
298
298
298
298
298
298
298
298
298
298
298
298
298
298
298
298
298
298
298
298
298
298
298
298
298
298
298
298
298
298
298
298
298
298
298
298
298
298
298
298
298
298
298
298
298
298
298
298
298
298
298
298
298
298
298
298
298
298
298
298
298
298
298
298
298
298
298
298
298
298
298
298
298
298
298
298
298
298
298
298
298
298
298
298
298
298
298
298
298
298
298
298
298
298
298
298
298
298
298
298
298
298
298
298
298
298
298
298
298
298
298
298
298
298
298
298
298
298
298
298
298
298
298
298
298
298
298
298
298
298
298
298
298
298
298
298
298
298
298
298
298
298
298
298
298
298
298
298
298
298
298
298
298
298
298
298
298
298
298
298
298
298
298
298
298
298
298
298
298
298
298
298
298
298
298
298
298
298
298
298
298
298
298
298
298
298
298
298
298
298
298
298
298
298
298
298
298
298
298
298
298
298
298
298
298
298
298
298
298
298
298
298
298
298
298
298
298
298
298
298
298
298
298
298
298
298
298
298
298
298
298
298
298
298
298
298
298
298
298
298
298
298
298
298
298
298
298
298
298
298
298
298
298
298
298
298
298
298
298
298
298
298
298
298
298
298
298
298
298
298
298
298
298
298
298
298
298
298
298
298
298
298
298
298
298
298
298
298
298
298
298
298
298
298
298
298
298
298
298
298
298
298
298
298
298
298
298
298
298
298
298
298
298
298
298
298
298
298
298
298
298
298
298
298
298
298
298
298
298
298
298
298
298
298
298
298
298
298
298
298
298
298
298
298
298
298
298
298
298
298
298
298
298
298
298
298
298
298
298
298
298
298
298
298
298
298
298
298
298
298
298
298
298
298
298
298
298
298
298
298
298
298
298
298
298
298
298
298
298
298
298
298
298
298
298
298
298
298
298
298
298
298
298
298
298
298
298
298
298
298
298
298
298
298
298
298
298
298
298
298
298
298
298
298
298
298
298
298
298
298
298
298
298
298
298
298
298
298
298
298
298
298
298
298
298
298
298
298
298
298
298
298
298
298
298
298
298
298
298
298
298
298
298
298
298
298
298
298
298
298
298
298
298
298
298
298
298
298
298
298
298
298
298
298
298
298
298
298
298
298
298
298
298
298
298
298
298
298
298
298
298
298
298
298
298
298
298
298
298
298
298
298
298
298
298
298
298
298
298
298
298
298
298
298
298
298
298
298
298
298
298
298
298
298
298
298
298
298
298
298
298
298
298
298
298
298
298
298
298
298
298
298
298
298
298
298
298
298
298
298
298
298
298
298
298
298
298
298
298
298
298
298
298
298
298
298
298
298
298
298
298
298
298
298
298
298
298
298
298
298
298
298
298
298
298
298
298
298
298
298
298
298
298
298
298
298
298
298
298
298
298
298
298
298
298
298
298
298
298
298
298
298
298
298
298
298
298
298
298
298
298
298
298
298
298
298
298
298
298
298
298
298
298
298
298
298
298
298
298
298
298
298
298
298
298
298
298
298
298
298
298
298
298
298
298
298
298
298
298
298
298
298
298
298
298
298
298
298
298
298
298
298
298
298
298
298
298
298
298
298
298
298
298
298
298
298
298
298
298
298
298
298
298
298
298
298
298
298
298
298
298
298
298
298
298
298
298
298
298
298
298
298
298
298
298
298
298
298
298
298
298
298
298
298
298
298
298
298
298
298
298
298
298
298
298
298
298
298
298
298
298
298
298
298
298
298
298
298
298
298
298
298
298
298
298
298
298
298
298
298
298
298
298
298
298
298
298
298
298
298
298
298
298
298
298
298
298
298
298
298
298
298
298
298
298
298
298
298
298
298
298
298
298
298
298
298
298
298
298
298
298
298
298
298
298
298
298
298
298
298
298
298
298
298
298
298
298
298
298
298
298
298
298
298
298
298
298
298
298
298
298
298
298
298
298
298
298
298
298
298
298
298
298
298
298
298
298
298
298
298
298
298
298
298
298
298
298
298
298
298
298
298
298
298
298
298
298
298
298
298
298
298
298
298
298
298
298
298
298
298
298
298
298
298
298
298
298
298
298
298
298
298
298
298
298
298
298
298
298
298
298
298
298
298
298
298
298
298
298
298
298
298
298
298
298
298
298
298
298
298
298
298
298
298
298
298
298
298
298
298
298
298
298
298
298
298
298
298
298
298
298
298
298
298
298
298
298
298
298
298
298
298
298
298
298
298
298
298
298
298
298
298
298
298
298
298
298
298
298
298
298
298
298
298
298
298
298
298
298
298
298
298
298
298
298
298
298
298
298
298
298
298
298
298
298
298
298
298
298
298
298
298
298
298
298
298
298
298
298
298
298
298
298
298
298
298
298
298
298
298
298
298
298
298
298
298
298
298
298
298
298
298
298
298
298
298
298
298
298
298
298
298
298
298
298
298
298
298
298
298
298
298
298
298
298
298
298
298
298
298
298
298
298
298
298
298
298
298
298
298
298
298
298
298
298
298
298
298
298
298
298
298
298
298
298
298
298
298
298
298
298
298
298
298
298
298
298
298
298
298
298
298
298
298
298
298
298
298
298
298
298
298
298
298
298
298
298
298
298
298
298
298
298
298
298
298
298
298
298
298
298
298
298
298
298
298
298
298
298
298
298
298
298
298
298
298
298
298
298
298
298
298
298
298
298
298
298
298
298
298
298
298
298
298
298
298
298
298
298
298
298
298
298
298
298
298
298
298
298
298
298
298
298
298
298
298
298
298
298
298
298
298
298
298
298
298
298
298
298
298
298
298
298
298
298
298
298
298
298
298
298
298
298
298
298
298
298
298
298
298
298
298
298
298
298
298
298
298
298
298
298
298
298
298
298
298
298
298
298
298
298
298
298
298
298
298
298
298
298
298
298
298
298
298
298
298
298
298
298
298
298
298
298
298
298
298
298
298
298
298
298
298
298
298
298
298
298
298
298
298
298
298
298
298
298
298
298
298
298
298
298
298
298
298
298
298
298
298
298
298
298
298
298
298
298
298
298
298
298
298
298
298
298
298
298
298
298
298
298
298
298
298
298
298
298
298
298
298
298
298
298
298
298
298
298
298
298
298
298
298
298
298
298
298
298
298
298
298
298
298
298
298
298
298
298
298
298
298
298
298
298
298
298
298
298
298
298
298
298
298
298
298
298
298
298
298
298
298
298
298
298
298
298
298
298
298
298
298
298
298
298
298
298
298
298
298
298
298
298
298
298
298
298
298
298
298
298
298
298
298
298
298
298
298
298
298
298
298
298
298
298
298
298
298
298
298
298
298
298
298
298
298
298
298
298
298
298
298
298
298
298
298
298
298
298
298
298
298
298
298
298
298
298
298
298
298
298
298
298
298
298
298
298
298
298
298
298
298
298
298
298
298
298
298
298
298
298
298
298
298
298
298
298
298
296.402
296.39
296.398
296.416
296.459
296.512
296.558
296.59
296.607
296.615
296.616
296.62
296.605
296.609
296.52
296.449
296.451
296.466
296.48
296.509
296.543
296.574
296.599
296.614
296.625
296.628
296.633
296.624
296.623
296.575
296.477
296.489
296.506
296.518
296.539
296.562
296.585
296.605
296.62
296.632
296.64
296.648
296.651
296.66
296.67
296.49
296.508
296.526
296.538
296.555
296.574
296.592
296.61
296.625
296.637
296.647
296.657
296.664
296.674
296.688
296.493
296.515
296.535
296.548
296.563
296.58
296.596
296.613
296.628
296.642
296.655
296.667
296.68
296.694
296.711
296.487
296.514
296.536
296.55
296.566
296.582
296.599
296.615
296.631
296.646
296.66
296.674
296.689
296.704
296.722
296.479
296.508
296.532
296.548
296.565
296.582
296.599
296.616
296.633
296.649
296.665
296.68
296.697
296.714
296.733
296.464
296.496
296.523
296.542
296.562
296.581
296.6
296.618
296.636
296.653
296.67
296.687
296.703
296.721
296.738
296.454
296.488
296.516
296.537
296.558
296.579
296.6
296.62
296.64
296.659
296.678
296.696
296.715
296.733
296.751
296.439
296.473
296.503
296.526
296.547
296.568
296.589
296.609
296.629
296.649
296.668
296.687
296.706
296.724
296.743
296.405
296.446
296.484
296.515
296.543
296.569
296.595
296.62
296.643
296.665
296.686
296.706
296.724
296.742
296.759
296.412
296.444
296.477
296.508
296.536
296.565
296.593
296.621
296.647
296.672
296.695
296.717
296.737
296.757
296.776
296.407
296.427
296.446
296.464
296.484
296.504
296.526
296.548
296.571
296.592
296.613
296.635
296.656
296.677
296.699
296.329
296.385
296.429
296.465
296.497
296.526
296.553
296.578
296.6
296.621
296.641
296.661
296.679
296.697
296.714
296.292
296.376
296.448
296.512
296.569
296.617
296.658
296.693
296.723
296.749
296.773
296.794
296.813
296.83
296.845
296.176
296.219
296.265
296.313
296.36
296.403
296.443
296.48
296.514
296.546
296.576
296.604
296.63
296.656
296.681
295.904
295.899
295.91
295.93
295.957
295.989
296.024
296.061
296.098
296.136
296.174
296.213
296.251
296.288
296.325
295.875
295.878
295.892
295.915
295.944
295.978
296.015
296.054
296.095
296.137
296.18
296.222
296.264
296.305
296.344
296.361
296.389
296.421
296.455
296.49
296.526
296.562
296.599
296.635
296.671
296.707
296.741
296.774
296.806
296.835
297.065
297.098
297.13
297.16
297.188
297.215
297.241
297.266
297.289
297.312
297.333
297.353
297.372
297.39
297.405
297.602
297.622
297.641
297.658
297.673
297.687
297.7
297.712
297.723
297.733
297.743
297.752
297.76
297.767
297.774
297.871
297.879
297.887
297.893
297.899
297.904
297.909
297.913
297.917
297.921
297.924
297.927
297.93
297.932
297.934
297.968
297.97
297.972
297.974
297.976
297.977
297.978
297.98
297.981
297.982
297.982
297.983
297.984
297.984
297.985
297.994
297.994
297.995
297.995
297.995
297.996
297.996
297.996
297.996
297.997
297.997
297.997
297.997
297.997
297.997
297.999
297.999
297.999
297.999
297.999
297.999
297.999
297.999
297.999
297.999
298
298
298
298
298
298
298
298
298
298
298
298
298
298
298
298
298
298
298
298
298
298
298
298
298
298
298
298
298
298
298
298
298
298
298
298
298
298
298
298
298
298
298
298
298
298
298
298
298
298
298
298
298
298
298
298
298
298
298
298
298
298
298
298
298
298
298
298
298
298
298
298
298
298
298
298
298
298
298
298
298
298
298
298
298
298
298
298
298
298
298
298
298
298
298
298
298
298
298
298
298
298
298
298
298
298
298
298
298
298
298
298
298
298
298
298
298
298
298
298
298
298
298
298
298
298
298
298
298
298
298
298
298
298
298
298
298
298
298
298
298
298
298
298
298
298
298
298
298
298
298
298
298
298
298
298
298
298
298
298
298
298
298
298
298
298
298
298
298
298
298
298
298
298
298
298
298
298
298
298
298
298
298
298
298
298
298
298
298
298
298
298
298
298
298
298
298
298
298
298
298
298
298
298
298
298
298
298
298
298
298
298
298
298
298
298
298
298
298
298
298
298
298
298
298
298
298
298
298
298
298
298
298
298
298
298
298
298
298
298
298
298
298
298
298
298
298
298
298
298
298
298
298
298
298
298
298
298
298
298
298
298
298
298
298
298
298
298
298
298
298
298
298
298
298
298
298
298
298
298
298
298
298
298
298
298
298
298
298
298
298
298
298
298
298
298
298
298
298
298
298
298
298
298
298
298
298
298
298
298
298
298
298
298
298
298
298
298
298
298
298
298
298
298
298
298
298
298
298
298
298
298
298
298
298
298
298
298
298
298
298
298
298
298
298
298
298
298
298
298
298
298
298
298
298
298
298
298
298
298
298
298
298
298
298
298
298
298
298
298
298
298
298
298
298
298
298
298
298
298
298
298
298
298
298
298
298
298
298
298
298
298
298
298
298
298
298
298
298
298
298
298
298
298
298
298
298
298
298
298
298
298
298
298
298
298
298
298
298
298
298
298
298
298
298
298
298
298
298
298
298
298
298
298
298
298
298
298
298
298
298
298
298
298
298
298
298
298
298
298
298
298
298
298
298
298
298
298
298
298
298
298
298
298
298
298
298
298
298
298
298
298
298
298
298
298
298
298
298
298
298
298
298
298
298
298
298
298
298
298
298
298
298
298
298
298
298
298
298
298
298
298
298
298
298
298
298
298
298
298
298
298
298
298
298
298
298
298
298
298
298
298
298
298
298
298
298
298
298
298
296.551
296.637
296.658
296.667
296.679
296.692
296.705
296.718
296.732
296.748
296.767
296.789
296.812
296.838
296.866
296.895
296.926
296.957
296.989
297.021
297.053
297.085
297.117
297.151
297.189
297.231
297.275
297.312
297.326
297.294
297.186
296.957
296.625
296.095
295.317
294.398
293.741
293.888
295.034
296.735
298.212
299.065
299.411
299.484
299.389
299.151
298.809
298.434
298.093
297.827
297.642
297.522
297.447
297.399
297.364
297.334
297.306
297.277
297.249
297.22
297.191
297.162
297.133
297.104
297.074
297.045
297.017
296.988
296.96
296.932
296.904
296.874
296.844
296.814
296.785
296.76
296.74
296.729
296.726
296.735
296.56
296.576
296.6
296.623
296.644
296.664
296.682
296.699
296.715
296.73
296.745
296.759
296.773
296.786
296.798
296.807
296.814
296.816
296.814
296.808
296.795
296.772
296.737
296.686
296.615
296.523
296.416
296.297
296.164
296.013
295.833
295.61
295.324
294.97
294.621
294.455
294.641
295.323
296.366
297.469
298.344
298.872
299.094
299.107
298.983
298.77
298.507
298.235
297.989
297.788
297.637
297.529
297.453
297.398
297.356
297.321
297.29
297.262
297.235
297.209
297.184
297.159
297.134
297.109
297.084
297.06
297.035
297.011
296.986
296.962
296.937
296.913
296.889
296.866
296.844
296.826
296.81
296.798
296.79
296.785
296.675
296.679
296.684
296.689
296.695
296.702
296.711
296.72
296.73
296.742
296.755
296.769
296.784
296.799
296.814
296.827
296.838
296.846
296.849
296.845
296.83
296.801
296.753
296.681
296.579
296.444
296.274
296.071
295.841
295.597
295.36
295.157
295.024
294.988
295.088
295.434
296.01
296.717
297.43
298.033
298.462
298.708
298.801
298.78
298.681
298.53
298.35
298.162
297.983
297.824
297.69
297.581
297.495
297.426
297.371
297.325
297.286
297.251
297.22
297.192
297.164
297.138
297.113
297.088
297.065
297.042
297.02
296.999
296.979
296.96
296.942
296.926
296.91
296.896
296.883
296.871
296.861
296.852
296.845
296.839
296.699
296.706
296.715
296.724
296.734
296.745
296.755
296.766
296.777
296.788
296.8
296.813
296.826
296.84
296.854
296.868
296.881
296.892
296.901
296.904
296.9
296.885
296.856
296.807
296.735
296.637
296.513
296.366
296.208
296.056
295.936
295.876
295.905
296.063
296.354
296.735
297.166
297.588
297.949
298.22
298.397
298.488
298.51
298.477
298.405
298.304
298.186
298.06
297.933
297.813
297.704
297.607
297.524
297.453
297.392
297.341
297.296
297.258
297.224
297.193
297.166
297.141
297.117
297.095
297.075
297.055
297.037
297.019
297.002
296.986
296.971
296.956
296.941
296.928
296.914
296.902
296.89
296.879
296.869
296.86
296.725
296.732
296.74
296.748
296.757
296.767
296.777
296.788
296.799
296.811
296.823
296.836
296.85
296.864
296.879
296.895
296.91
296.926
296.941
296.954
296.965
296.971
296.97
296.961
296.942
296.914
296.878
296.838
296.802
296.782
296.791
296.841
296.944
297.099
297.294
297.497
297.699
297.879
298.021
298.119
298.177
298.198
298.191
298.159
298.109
298.044
297.97
297.889
297.805
297.723
297.643
297.569
297.501
297.44
297.385
297.336
297.292
297.253
297.218
297.187
297.158
297.133
297.109
297.087
297.067
297.048
297.03
297.013
296.997
296.982
296.967
296.953
296.94
296.927
296.915
296.904
296.894
296.884
296.874
296.865
296.737
296.745
296.754
296.763
296.773
296.783
296.794
296.805
296.817
296.829
296.842
296.856
296.87
296.886
296.902
296.92
296.938
296.957
296.977
296.998
297.018
297.038
297.058
297.076
297.094
297.113
297.132
297.154
297.182
297.218
297.265
297.323
297.394
297.477
297.566
297.657
297.737
297.8
297.845
297.873
297.884
297.883
297.869
297.846
297.815
297.776
297.732
297.685
297.635
297.584
297.534
297.485
297.438
297.394
297.352
297.313
297.276
297.243
297.211
297.182
297.155
297.131
297.108
297.086
297.067
297.048
297.031
297.015
297
296.985
296.971
296.958
296.946
296.933
296.922
296.911
296.9
296.889
296.879
296.869
296.747
296.756
296.766
296.776
296.786
296.797
296.808
296.82
296.832
296.845
296.859
296.874
296.889
296.906
296.923
296.942
296.962
296.982
297.004
297.026
297.05
297.074
297.098
297.124
297.149
297.176
297.203
297.232
297.264
297.299
297.337
297.38
297.424
297.466
297.505
297.538
297.564
297.583
297.594
297.6
297.6
297.595
297.586
297.573
297.556
297.536
297.514
297.49
297.464
297.438
297.41
297.383
297.355
297.327
297.3
297.273
297.246
297.22
297.195
297.171
297.147
297.124
297.103
297.082
297.062
297.044
297.026
297.01
296.995
296.98
296.966
296.953
296.94
296.928
296.916
296.905
296.894
296.883
296.873
296.863
296.752
296.762
296.772
296.782
296.792
296.803
296.815
296.827
296.84
296.854
296.868
296.884
296.9
296.917
296.935
296.953
296.972
296.992
297.012
297.033
297.054
297.076
297.097
297.119
297.141
297.163
297.185
297.208
297.23
297.252
297.274
297.295
297.314
297.33
297.343
297.353
297.36
297.364
297.367
297.367
297.367
297.364
297.361
297.356
297.35
297.343
297.334
297.325
297.315
297.304
297.292
297.279
297.265
297.251
297.235
297.219
297.202
297.184
297.166
297.148
297.129
297.11
297.091
297.073
297.055
297.037
297.021
297.004
296.989
296.974
296.96
296.947
296.935
296.922
296.911
296.9
296.889
296.878
296.868
296.858
296.766
296.777
296.788
296.8
296.812
296.824
296.837
296.85
296.865
296.879
296.894
296.91
296.927
296.943
296.96
296.977
296.994
297.012
297.029
297.046
297.062
297.079
297.095
297.111
297.126
297.14
297.154
297.168
297.18
297.191
297.2
297.208
297.215
297.219
297.223
297.225
297.226
297.227
297.227
297.228
297.228
297.228
297.228
297.228
297.228
297.228
297.227
297.226
297.224
297.221
297.218
297.213
297.208
297.201
297.194
297.185
297.175
297.164
297.152
297.139
297.125
297.11
297.095
297.08
297.064
297.048
297.032
297.016
297.001
296.986
296.971
296.957
296.943
296.93
296.918
296.905
296.894
296.882
296.87
296.859
296.758
296.77
296.783
296.795
296.809
296.823
296.838
296.853
296.868
296.884
296.901
296.917
296.934
296.95
296.966
296.982
296.998
297.013
297.028
297.042
297.056
297.069
297.081
297.093
297.103
297.113
297.122
297.13
297.137
297.143
297.147
297.15
297.153
297.154
297.155
297.156
297.156
297.156
297.156
297.157
297.158
297.159
297.161
297.163
297.165
297.167
297.169
297.17
297.171
297.172
297.172
297.171
297.168
297.165
297.161
297.156
297.149
297.142
297.133
297.123
297.112
297.1
297.088
297.074
297.06
297.045
297.03
297.014
296.998
296.983
296.967
296.951
296.936
296.921
296.907
296.893
296.879
296.866
296.854
296.841
296.773
296.785
296.798
296.811
296.825
296.839
296.854
296.868
296.883
296.899
296.914
296.929
296.944
296.959
296.973
296.986
296.999
297.011
297.023
297.034
297.044
297.054
297.062
297.07
297.078
297.084
297.09
297.095
297.099
297.102
297.104
297.106
297.107
297.108
297.108
297.108
297.108
297.108
297.108
297.109
297.109
297.11
297.112
297.114
297.116
297.118
297.12
297.121
297.123
297.124
297.125
297.124
297.124
297.122
297.119
297.116
297.112
297.106
297.1
297.093
297.085
297.076
297.066
297.056
297.044
297.032
297.019
297.005
296.991
296.976
296.962
296.947
296.933
296.919
296.905
296.891
296.878
296.865
296.852
296.84
296.793
296.809
296.826
296.843
296.86
296.878
296.896
296.915
296.934
296.952
296.97
296.987
297.003
297.018
297.033
297.046
297.058
297.07
297.081
297.09
297.1
297.108
297.116
297.124
297.131
297.138
297.144
297.15
297.155
297.16
297.165
297.168
297.172
297.175
297.177
297.179
297.181
297.182
297.184
297.185
297.186
297.187