/*--------------------------------*- C++ -*----------------------------------*\
  =========                 |
  \\      /  F ield         | OpenFOAM: The Open Source CFD Toolbox
   \\    /   O peration     | Website:  https://openfoam.org
    \\  /    A nd           | Version:  8
     \\/     M anipulation  |
\*---------------------------------------------------------------------------*/
FoamFile
{
    version     2.0;
    format      ascii;
    class       volVectorField;
    location    "0.18";
    object      U;
}
// * * * * * * * * * * * * * * * * * * * * * * * * * * * * * * * * * * * * * //

dimensions      [0 1 -1 0 0 0 0];

internalField   nonuniform List<vector> 
104000
(
(-103.652 -4.07939 -3.28696e-21)
(-88.4073 -2.52614 1.07978e-20)
(-83.0658 -2.23968 -7.85103e-21)
(-75.8634 -1.94564 1.72563e-20)
(-70.2331 -1.75296 -1.86009e-20)
(-64.871 -1.60313 0)
(-60.0176 -1.47834 4.38008e-20)
(-55.5077 -1.37352 1.79543e-22)
(-51.3288 -1.28507 -1.02203e-19)
(-47.4404 -1.21037 5.51732e-20)
(-43.8208 -1.14318 5.9779e-20)
(-40.4482 -1.07764 -6.44236e-20)
(-37.3042 -1.01327 0)
(-34.3714 -0.952227 -1.50627e-19)
(-31.6344 -0.895596 3.25346e-19)
(-29.0793 -0.842907 2.06767e-22)
(-26.6936 -0.792723 -1.90173e-19)
(-24.4664 -0.744003 -2.06013e-19)
(-22.3874 -0.696997 -1.69682e-22)
(-20.4472 -0.652542 2.4166e-19)
(-18.6366 -0.610912 0)
(-16.9475 -0.571908 2.85023e-19)
(-15.3727 -0.535285 1.30531e-22)
(-13.9054 -0.500932 -3.37518e-19)
(-12.5395 -0.468916 7.36507e-19)
(-11.2692 -0.439298 2.13585e-22)
(-10.0895 -0.411045 1.9927e-22)
(-8.99573 -0.383131 -1.9259e-18)
(-7.98326 -0.356231 1.05571e-18)
(-7.04762 -0.330732 1.15939e-18)
(-6.18455 -0.306314 -2.54962e-18)
(-5.39009 -0.282882 -1.37384e-22)
(-4.66043 -0.260385 1.54831e-18)
(-3.99189 -0.238855 1.71037e-18)
(-3.38074 -0.218369 -3.78389e-18)
(-2.82332 -0.199012 -9.89287e-23)
(-2.31618 -0.18096 2.32552e-18)
(-1.85628 -0.164445 0)
(-1.44206 -0.150118 0)
(-1.07466 -0.138811 0)
(-0.751772 -0.129306 0)
(-0.467009 -0.119966 0)
(-0.215991 -0.110161 -4.62675e-18)
(0.00778172 -0.0993282 5.29073e-18)
(0.209599 -0.0863347 5.98422e-18)
(0.398471 -0.0696522 -6.18456e-18)
(0.570932 -0.0533791 0)
(0.7178 -0.0406609 0)
(0.840762 -0.030327 0)
(0.942533 -0.0215606 1.10363e-17)
(1.02583 -0.0139079 -1.08987e-17)
(1.09253 -0.00713828 0)
(1.14411 -0.00121248 1.07789e-17)
(1.18168 0.00388169 1.08266e-22)
(1.20634 0.0081485 -1.08272e-17)
(1.21937 0.0116506 1.09043e-17)
(1.2222 0.0144586 1.14211e-22)
(1.21608 0.0166329 -2.22941e-17)
(1.20186 0.018188 2.25549e-17)
(1.18076 0.0191423 1.22004e-22)
(1.15393 0.0195725 1.25072e-22)
(1.12239 0.0195656 -1.18123e-17)
(1.08708 0.0191675 1.20324e-17)
(1.04879 0.0184227 1.35844e-22)
(1.00823 0.0173368 -2.50488e-17)
(0.966027 0.0159241 1.27923e-17)
(0.922795 0.0141885 1.30725e-17)
(0.879094 0.0121596 -2.67248e-17)
(0.835421 0.00985009 2.73216e-17)
(0.79225 0.00728626 1.65492e-22)
(0.749937 0.00449252 -1.42744e-17)
(0.708805 0.00150105 -1.45851e-17)
(0.66912 -0.00169611 1.48949e-17)
(0.631147 -0.00508521 0)
(0.595093 -0.00864752 -1.55015e-17)
(0.56116 -0.0123483 1.57927e-17)
(0.529469 -0.0161635 0)
(0.500137 -0.0200628 0)
(0.473214 -0.0240293 0)
(0.44881 -0.0280441 0)
(0.42686 -0.0320612 0)
(0.407406 -0.036045 0)
(0.390422 -0.0400231 1.74392e-17)
(0.375898 -0.0439916 -1.75947e-17)
(0.363802 -0.0478999 -1.77281e-17)
(0.354147 -0.051715 3.56673e-17)
(0.346844 -0.0554234 -1.79155e-17)
(0.341845 -0.0590007 0)
(0.339353 -0.0623724 1.79799e-17)
(0.339149 -0.065546 2.6769e-22)
(0.340981 -0.0685388 -1.79195e-17)
(0.344744 -0.0713571 0)
(0.350301 -0.0740031 1.77742e-17)
(0.357676 -0.0764748 -1.76704e-17)
(0.366876 -0.078759 0)
(0.377503 -0.080829 0)
(0.389552 -0.0826945 0)
(0.403125 -0.0844501 0)
(0.418139 -0.0860962 3.39111e-17)
(0.434602 -0.0876071 -6.70954e-17)
(0.452427 -0.0889576 3.3173e-17)
(0.471602 -0.090156 0)
(0.492017 -0.0911989 3.23754e-17)
(0.513652 -0.092104 4.75116e-22)
(0.536402 -0.0928686 4.66554e-22)
(0.560253 -0.0935101 -3.11086e-17)
(0.585105 -0.0940229 0)
(0.610944 -0.0944253 3.02483e-17)
(0.637673 -0.0947136 4.30064e-22)
(0.665284 -0.0949092 4.20641e-22)
(0.69369 -0.0950067 -2.89637e-17)
(0.722887 -0.0950243 2.8539e-17)
(0.752783 -0.0949521 -2.81228e-17)
(0.783363 -0.0948078 2.77086e-17)
(0.814529 -0.0945841 -2.73043e-17)
(0.84626 -0.0943009 2.69037e-17)
(0.878455 -0.0939471 -2.65141e-17)
(0.911071 -0.0935405 2.61301e-17)
(0.944164 -0.0930607 -2.57588e-17)
(0.977324 -0.0924804 2.54012e-17)
(1.01063 -0.0918375 -2.50558e-17)
(1.04427 -0.0912695 2.47139e-17)
(1.07822 -0.0907692 -2.43796e-17)
(1.11254 -0.0902924 2.40487e-17)
(1.14722 -0.0897884 -4.74522e-17)
(1.18228 -0.0892642 4.68142e-17)
(1.21765 -0.0887089 -2.30967e-17)
(1.25335 -0.088138 0)
(1.2893 -0.0875364 -2.24936e-17)
(1.32548 -0.0869194 4.44015e-17)
(1.36184 -0.0862792 -2.19166e-17)
(1.39837 -0.0856371 0)
(1.43504 -0.084985 0)
(1.47186 -0.0843384 -2.10988e-17)
(1.50879 -0.0836843 -2.24693e-22)
(1.54586 -0.0830349 2.05835e-17)
(1.58304 -0.0823762 0)
(1.62034 -0.0817193 2.00909e-17)
(1.65773 -0.0810475 -3.97065e-17)
(1.69521 -0.0803679 -1.97691e-22)
(1.73274 -0.0796664 3.87862e-17)
(1.7703 -0.0789611 -1.91703e-17)
(1.80786 -0.0782482 0)
(1.84544 -0.0775453 -1.87412e-17)
(1.88301 -0.0768426 3.70681e-17)
(1.9206 -0.0761507 -3.66605e-17)
(1.95819 -0.075456 1.81317e-17)
(1.99581 -0.0747673 0)
(2.03343 -0.0740708 1.77459e-17)
(2.07107 -0.0733759 -3.51165e-17)
(2.10871 -0.0726695 3.47509e-17)
(2.14637 -0.0719591 -1.71955e-17)
(2.184 -0.0712278 1.70204e-17)
(2.2216 -0.0704843 -1.6848e-17)
(2.25914 -0.0697243 0)
(2.29662 -0.0689672 0)
(2.33403 -0.0682072 1.63541e-17)
(2.37138 -0.0674545 -1.61954e-17)
(2.40866 -0.0666958 0)
(2.44587 -0.0659371 0)
(2.48296 -0.0651631 0)
(2.51995 -0.0643684 0)
(2.55663 -0.0635442 0)
(2.59327 -0.0626037 0)
(2.62891 -0.0613922 0)
(2.66372 -0.0600765 0)
(2.69805 -0.0589532 -1.49473e-17)
(2.73211 -0.0581074 1.48291e-17)
(2.76605 -0.0574226 0)
(2.79999 -0.0567902 1.45976e-17)
(2.83396 -0.0561339 -2.89682e-17)
(2.86799 -0.0554408 1.43717e-17)
(2.90203 -0.0547106 0)
(2.93611 -0.05397 0)
(2.97023 -0.0532238 -1.4043e-17)
(3.00444 -0.0524843 2.78703e-17)
(3.03873 -0.0517403 -1.38285e-17)
(3.07316 -0.050995 0)
(3.10773 -0.050236 0)
(3.14247 -0.04947 1.3512e-17)
(3.17739 -0.0486881 -2.68154e-17)
(3.21253 -0.0478979 2.66072e-17)
(3.24787 -0.0470902 -1.32001e-17)
(3.28347 -0.0462716 1.30967e-17)
(3.3193 -0.0454325 -1.29938e-17)
(3.3554 -0.0445798 1.28912e-17)
(3.39174 -0.0437056 -1.2789e-17)
(3.42834 -0.042818 1.26873e-17)
(3.46516 -0.0419098 -1.25862e-17)
(3.50221 -0.0409895 0)
(3.53943 -0.0400527 0)
(3.5768 -0.0391121 0)
(3.6143 -0.0381642 0)
(3.6519 -0.0372124 0)
(3.68952 -0.0362487 0)
(3.72715 -0.0352929 2.38077e-17)
(3.76475 -0.0343552 -4.72448e-17)
(3.80233 -0.0334519 4.68782e-17)
(3.83987 -0.0325759 -2.32585e-17)
(3.87739 -0.0317277 2.30801e-17)
(3.91485 -0.0308928 7.85707e-23)
(3.95225 -0.0300714 -2.27312e-17)
(3.98957 -0.0292525 0)
(4.02678 -0.0284397 0)
(4.06384 -0.0276249 -2.2229e-17)
(4.10073 -0.0268143 2.20673e-17)
(4.13741 -0.026004 0)
(4.17387 -0.0252039 2.17536e-17)
(4.21007 -0.0244112 -4.32029e-17)
(4.24601 -0.0236338 4.29041e-17)
(4.28168 -0.0228657 -2.13058e-17)
(4.31706 -0.0221114 0)
(4.35214 -0.0213627 0)
(4.38691 -0.0206238 0)
(4.42134 -0.0198881 0)
(4.45542 -0.0191614 2.06186e-17)
(4.48914 -0.0184391 -4.09801e-17)
(4.52246 -0.0177281 4.07286e-17)
(4.55538 -0.0170244 -4.04834e-17)
(4.58787 -0.0163348 2.01218e-17)
(4.61992 -0.0156547 -2.0005e-17)
(4.65151 -0.0149898 1.98908e-17)
(4.68262 -0.014334 0)
(4.71324 -0.0136911 0)
(4.74334 -0.0130517 0)
(4.77288 -0.0124075 0)
(4.80179 -0.0117453 0)
(4.83001 -0.011086 1.92706e-17)
(4.8575 -0.0104488 -3.83572e-17)
(4.88426 -0.009854 1.90895e-17)
(4.91026 -0.00930006 0)
(4.93549 -0.00878852 0)
(4.95992 -0.00830861 0)
(4.98353 -0.00785991 0)
(5.00626 -0.00743435 0)
(5.02808 -0.00703534 -1.86208e-17)
(5.04892 -0.00665821 1.85542e-17)
(5.06874 -0.00630857 0)
(5.08746 -0.00598291 0)
(5.10502 -0.00568709 1.83763e-17)
(5.12133 -0.00541806 -1.83249e-17)
(5.13632 -0.0051826 0)
(5.14988 -0.00497931 0)
(5.16193 -0.00481663 0)
(5.17236 -0.00469385 0)
(5.18107 -0.00461815 0)
(5.18794 -0.00458366 0)
(5.1928 -0.00460144 -1.80962e-17)
(5.19555 -0.0046309 1.80861e-17)
(5.19578 -0.00460596 0)
(5.19307 -0.00453921 -1.80774e-17)
(5.1874 -0.00451976 3.6165e-17)
(5.17868 -0.00460204 -1.80959e-17)
(5.16678 -0.00480835 0)
(5.15157 -0.00513027 0)
(5.13287 -0.00556184 -1.81895e-17)
(5.11048 -0.00608913 1.82404e-17)
(5.08419 -0.00670958 -1.83025e-17)
(5.05373 -0.0074157 -1.20897e-22)
(5.01883 -0.0082122 -1.29245e-22)
(4.97919 -0.00909858 1.85648e-17)
(4.9345 -0.0100857 0)
(4.88442 -0.0111746 -1.8816e-17)
(4.82858 -0.0123759 1.89688e-17)
(4.76662 -0.0136941 0)
(4.6981 -0.0151423 0)
(4.62259 -0.0166902 1.95636e-17)
(4.53942 -0.0184054 -3.96325e-17)
(4.44849 -0.0199661 2.01025e-17)
(4.34695 -0.0210619 -2.04458e-17)
(4.23493 -0.0220316 -2.78721e-22)
(4.11283 -0.0235385 4.25509e-17)
(3.98069 -0.0258003 -2.17753e-17)
(3.83834 -0.0286597 0)
(3.68552 -0.0319003 0)
(3.52195 -0.0354422 2.37236e-17)
(3.34735 -0.0392687 -2.45626e-17)
(3.16151 -0.0433755 -2.55261e-17)
(2.96423 -0.0477493 5.32739e-17)
(2.75538 -0.0523909 5.49914e-22)
(2.53494 -0.0573003 -2.94367e-17)
(2.30298 -0.0624957 3.12196e-17)
(2.05973 -0.0680018 -6.66914e-17)
(1.80559 -0.0738738 3.5914e-17)
(1.54115 -0.080204 0)
(1.26724 -0.0871849 0)
(0.985003 -0.0952274 -4.80299e-17)
(0.695764 -0.105018 -1.11675e-21)
(0.397564 -0.114845 1.27605e-16)
(0.0923731 -0.114477 -1.50955e-16)
(-0.216169 -0.100108 1.50133e-16)
(-0.514075 -0.0932862 -6.4238e-17)
(-0.781959 -0.10165 0)
(-1.01492 -0.119471 0)
(-1.21594 -0.135644 0)
(-1.38748 -0.144524 0)
(-1.53244 -0.147777 0)
(-1.65653 -0.150527 -4.15718e-17)
(-1.75838 -0.156247 8.12624e-17)
(-1.82625 -0.167953 -7.84047e-17)
(-101.864 -9.46213 0)
(-89.5799 -7.07309 4.75615e-21)
(-83.9285 -5.9104 -5.10373e-21)
(-77.2725 -5.27066 1.1079e-20)
(-71.7292 -4.7451 -1.18102e-20)
(-66.504 -4.35678 0)
(-61.7149 -4.02395 0)
(-57.2516 -3.73632 2.91735e-20)
(-53.0949 -3.47795 -3.11368e-20)
(-49.2121 -3.24304 -3.34622e-20)
(-45.5826 -3.02693 3.57548e-20)
(-42.1874 -2.82698 0)
(-39.0105 -2.64131 0)
(-36.037 -2.46848 -8.81428e-20)
(-33.2537 -2.30715 9.43314e-20)
(-30.648 -2.15625 0)
(-28.2085 -2.01516 0)
(-25.9242 -1.88352 0)
(-23.7855 -1.7609 0)
(-21.7834 -1.64649 1.33925e-19)
(-19.9097 -1.53936 -1.43635e-19)
(-18.1569 -1.43869 -1.54279e-19)
(-16.518 -1.34382 -7.17462e-23)
(-14.9863 -1.25421 1.77911e-19)
(-13.556 -1.16936 0)
(-12.2212 -1.08886 -4.11286e-19)
(-10.9768 -1.01242 -1.03413e-22)
(-9.81763 -0.939983 9.51748e-19)
(-8.73908 -0.871431 -1.02444e-18)
(-7.73677 -0.806471 5.51516e-19)
(-6.80652 -0.744869 -5.9416e-19)
(-5.94435 -0.68643 6.40175e-19)
(-5.14644 -0.631009 6.90145e-19)
(-4.40911 -0.578498 -1.48838e-18)
(-3.72877 -0.528845 8.02749e-19)
(-3.10189 -0.482068 0)
(-2.52507 -0.438263 -9.35108e-19)
(-1.99528 -0.397565 -3.44574e-23)
(-1.51024 -0.360207 -3.07215e-23)
(-1.06925 -0.326913 1.17613e-18)
(-0.671779 -0.297465 0)
(-0.313933 -0.26968 0)
(0.00912534 -0.242129 1.47072e-18)
(0.302907 -0.214036 -1.54336e-18)
(0.572641 -0.184468 0)
(0.821288 -0.155039 0)
(1.04904 -0.128923 1.61323e-18)
(1.25416 -0.106867 -1.63532e-18)
(1.43641 -0.0876227 0)
(1.59746 -0.0702848 -3.36403e-18)
(1.73939 -0.0544401 -3.39957e-23)
(1.86389 -0.0398849 3.46489e-18)
(1.97241 -0.026545 -3.51788e-18)
(2.06622 -0.0143691 -3.63616e-23)
(2.14652 -0.0033249 3.6279e-18)
(2.21445 0.00664711 0)
(2.27117 0.0156118 0)
(2.31777 0.0236004 0)
(2.35526 0.030639 0)
(2.38439 0.0367829 0)
(2.40601 0.0421061 0)
(2.42094 0.0466698 0)
(2.42999 0.0504986 4.06921e-18)
(2.43397 0.0536482 4.54217e-23)
(2.4336 0.056174 4.64047e-23)
(2.42951 0.0581003 4.74317e-23)
(2.42233 0.0594439 -8.53878e-18)
(2.41264 0.0602305 8.63505e-18)
(2.40099 0.0604824 -8.72898e-18)
(2.38791 0.0602246 -5.19638e-23)
(2.37387 0.0595238 -5.31804e-23)
(2.35925 0.0584498 4.49761e-18)
(2.34444 0.0570152 -4.53821e-18)
(2.32976 0.0552287 4.57626e-18)
(2.31553 0.0531166 -4.61185e-18)
(2.30202 0.0507201 4.64472e-18)
(2.28948 0.0480822 -4.675e-18)
(2.27811 0.0452429 -6.19896e-23)
(2.26807 0.0422237 4.72732e-18)
(2.25958 0.0390307 0)
(2.2527 0.0357418 0)
(2.24755 0.0324366 0)
(2.24418 0.0290963 0)
(2.24265 0.0257056 0)
(2.24298 0.022292 0)
(2.2452 0.0188959 0)
(2.24927 0.0155255 4.83295e-18)
(2.25518 0.0122186 -4.83163e-18)
(2.26282 0.00900174 4.82687e-18)
(2.27226 0.00591023 -4.81976e-18)
(2.28346 0.00295727 0)
(2.29641 0.000147732 4.80049e-18)
(2.31105 -0.00252087 -4.78839e-18)
(2.32733 -0.00506817 0)
(2.34521 -0.00752513 4.76098e-18)
(2.36461 -0.00981279 -4.74695e-18)
(2.38553 -0.0118818 0)
(2.40797 -0.0138199 0)
(2.43189 -0.0156759 0)
(2.45725 -0.0174399 9.35555e-18)
(2.48399 -0.0190885 -1.86299e-17)
(2.5121 -0.0206088 -1.38428e-22)
(2.54151 -0.0219954 9.22929e-18)
(2.5722 -0.0232519 0)
(2.60409 -0.0243829 0)
(2.63716 -0.0253947 0)
(2.67135 -0.0262892 -9.04491e-18)
(2.70661 -0.0270711 -1.30159e-22)
(2.74289 -0.027745 8.94804e-18)
(2.78015 -0.0283208 -8.89901e-18)
(2.81833 -0.0288054 -1.25171e-22)
(2.8574 -0.0292054 -1.23428e-22)
(2.8973 -0.0295195 8.74958e-18)
(2.938 -0.0297488 0)
(2.97943 -0.0298928 0)
(3.02156 -0.0299559 -8.59955e-18)
(3.0643 -0.0299362 -1.14392e-22)
(3.10762 -0.0298496 -1.12567e-22)
(3.15151 -0.0297535 8.45153e-18)
(3.19583 -0.0295757 0)
(3.24066 -0.0292849 0)
(3.28602 -0.0290017 -8.31725e-18)
(3.33183 -0.0287723 8.2707e-18)
(3.37806 -0.0285792 0)
(3.42468 -0.0283935 8.17742e-18)
(3.47168 -0.0282038 9.81055e-23)
(3.51904 -0.0280032 -8.08452e-18)
(3.56677 -0.0277913 0)
(3.61481 -0.0275587 0)
(3.66317 -0.0273027 0)
(3.71179 -0.0270226 7.90332e-18)
(3.76067 -0.0267282 8.79622e-23)
(3.80976 -0.0264249 8.63389e-23)
(3.85906 -0.0261218 -7.77079e-18)
(3.90853 -0.02582 0)
(3.95817 -0.025525 0)
(4.00797 -0.0252358 7.64098e-18)
(4.05791 -0.0249569 -1.51967e-17)
(4.10799 -0.0246835 -7.70934e-23)
(4.1582 -0.0244094 7.51455e-18)
(4.20851 -0.0241226 0)
(4.2589 -0.0238264 0)
(4.30936 -0.0235246 0)
(4.35988 -0.0232274 0)
(4.41042 -0.0229375 -7.31282e-18)
(4.461 -0.0226606 1.45466e-17)
(4.51158 -0.0223947 6.59901e-23)
(4.56218 -0.0221421 -7.1952e-18)
(4.61278 -0.0218988 -7.15668e-18)
(4.66337 -0.0216667 -6.2222e-23)
(4.71395 -0.0214433 7.08048e-18)
(4.76451 -0.0212301 0)
(4.81506 -0.0210151 0)
(4.86557 -0.0207912 6.96957e-18)
(4.91603 -0.0205564 -1.38668e-17)
(4.96643 -0.0203204 -5.51665e-23)
(5.01675 -0.0200853 6.86188e-18)
(5.06699 -0.0198552 0)
(5.11713 -0.0196246 6.7914e-18)
(5.16716 -0.0193903 -6.75645e-18)
(5.21705 -0.0191398 0)
(5.26681 -0.0188496 0)
(5.31634 -0.0184863 0)
(5.36567 -0.0181066 0)
(5.41452 -0.0175777 0)
(5.46338 -0.0169422 -6.56956e-18)
(5.51228 -0.0164337 6.54169e-18)
(5.56111 -0.0161183 0)
(5.60979 -0.0159406 0)
(5.65829 -0.0158405 -6.45502e-18)
(5.70662 -0.0157659 -4.04518e-23)
(5.7548 -0.0156877 6.39812e-18)
(5.80283 -0.0155975 0)
(5.85071 -0.0155073 6.34216e-18)
(5.89844 -0.0154243 -6.31424e-18)
(5.94602 -0.0153549 -6.28643e-18)
(5.99345 -0.0152947 -3.56344e-23)
(6.04072 -0.0152411 -3.48618e-23)
(6.08782 -0.015187 6.20325e-18)
(6.13473 -0.0151318 0)
(6.18145 -0.0150715 0)
(6.22798 -0.0150076 -6.12047e-18)
(6.27428 -0.0149372 -3.11209e-23)
(6.32036 -0.014862 -3.0398e-23)
(6.36621 -0.0147793 6.03749e-18)
(6.41181 -0.0146918 0)
(6.45717 -0.0145979 0)
(6.50228 -0.0145004 -5.95447e-18)
(6.54713 -0.0143964 5.92683e-18)
(6.59173 -0.0142865 0)
(6.63607 -0.0141675 -1.17438e-17)
(6.68013 -0.0140457 1.16893e-17)
(6.72393 -0.0139251 0)
(6.76746 -0.0138007 0)
(6.8107 -0.0136575 -1.15287e-17)
(6.85365 -0.0135003 -4.46371e-23)
(6.8963 -0.0133386 1.14237e-17)
(6.93866 -0.0131834 0)
(6.98071 -0.0130356 0)
(7.02246 -0.0128959 0)
(7.06391 -0.012758 1.1216e-17)
(7.10506 -0.0126197 3.78799e-23)
(7.14592 -0.0124748 -2.22288e-17)
(7.18649 -0.0123209 -3.5866e-23)
(7.22677 -0.0121506 -3.48968e-23)
(7.26676 -0.0119614 1.09663e-17)
(7.30644 -0.0117498 0)
(7.34582 -0.0115188 0)
(7.38487 -0.0112683 0)
(7.42361 -0.0110019 0)
(7.462 -0.0107188 -1.07314e-17)
(7.50006 -0.0104204 2.13722e-17)
(7.53777 -0.0101033 2.82448e-23)
(7.57513 -0.0097679 2.75595e-23)
(7.61211 -0.0094109 -2.11072e-17)
(7.64872 -0.00903319 -2.62875e-23)
(7.68493 -0.00863268 -2.57021e-23)
(7.72074 -0.0082112 -2.51515e-23)
(7.75612 -0.00776743 1.03857e-17)
(7.79106 -0.0073037 -1.03454e-17)
(7.82554 -0.00681901 -2.3715e-23)
(7.85956 -0.0063154 -2.33082e-23)
(7.89308 -0.00579074 -2.29364e-23)
(7.92609 -0.00524693 2.03815e-17)
(7.95856 -0.00468605 -1.01541e-17)
(7.99049 -0.00409339 0)
(8.02181 -0.00344262 0)
(8.05251 -0.00273637 0)
(8.08253 -0.00198829 0)
(8.11185 -0.00121139 0)
(8.14042 -0.000408253 0)
(8.1682 0.000420865 0)
(8.19516 0.00128182 -9.8938e-18)
(8.22125 0.00217874 -2.16005e-23)
(8.24642 0.0031187 -2.18415e-23)
(8.27063 0.00410564 1.96174e-17)
(8.29383 0.00514613 2.25315e-23)
(8.31595 0.00624398 -9.75678e-18)
(8.33694 0.0074063 0)
(8.35673 0.00863819 0)
(8.37523 0.00994793 0)
(8.39237 0.0113408 0)
(8.40806 0.0128241 0)
(8.42218 0.0144015 0)
(8.43465 0.0160795 -9.61206e-18)
(8.44535 0.0178645 9.59689e-18)
(8.45415 0.0197722 0)
(8.46094 0.0218198 0)
(8.46552 0.0240532 0)
(8.46791 0.0265107 0)
(8.46801 0.0291634 9.54141e-18)
(8.46554 0.0319677 4.04217e-23)
(8.4603 0.0349118 4.26927e-23)
(8.45205 0.0380016 -9.51352e-18)
(8.44057 0.0412548 0)
(8.42562 0.0446897 0)
(8.40695 0.0483279 0)
(8.38431 0.0521894 0)
(8.35742 0.0562963 0)
(8.32598 0.0606682 -9.51586e-18)
(8.28967 0.0653253 -6.91867e-23)
(8.24815 0.0702845 -7.3711e-23)
(8.20102 0.0755643 1.91126e-17)
(8.14789 0.0811837 8.37235e-23)
(8.08832 0.0871677 8.9243e-23)
(8.02183 0.0935418 -9.63229e-18)
(7.9479 0.100356 0)
(7.86601 0.107729 0)
(7.77532 0.115447 0)
(7.67597 0.123735 0)
(7.56745 0.132861 0)
(7.44873 0.142429 0)
(7.31882 0.152191 0)
(7.17683 0.162129 0)
(7.02194 0.172307 0)
(6.8534 0.182728 -1.0396e-17)
(6.6705 0.193358 -1.84575e-22)
(6.47247 0.204158 2.13982e-17)
(6.2586 0.21507 2.05848e-22)
(6.02819 0.226012 2.16813e-22)
(5.78058 0.236882 -1.13256e-17)
(5.51523 0.24755 0)
(5.23168 0.257856 0)
(4.92965 0.267611 0)
(4.60908 0.276589 0)
(4.27012 0.284497 0)
(3.9133 0.29089 0)
(3.53993 0.295228 0)
(3.15162 0.297663 -1.53002e-17)
(2.75224 0.301186 3.25588e-17)
(2.34501 0.307075 3.21264e-22)
(1.93429 0.310326 -1.89437e-17)
(1.53046 0.305986 2.07105e-17)
(1.14073 0.290658 3.723e-22)
(0.764637 0.26678 -2.52086e-17)
(0.400072 0.243246 0)
(0.0473901 0.227135 0)
(-0.292025 0.218538 3.4399e-17)
(-0.609863 0.210414 -6.7259e-17)
(-0.881247 0.20034 -3.12974e-22)
(-97.7423 -13.6369 0)
(-88.1288 -11.0868 -3.29626e-21)
(-82.6962 -9.46848 3.49479e-21)
(-76.6557 -8.48508 0)
(-71.3905 -7.6958 0)
(-66.4156 -7.08189 0)
(-61.8023 -6.55722 0)
(-57.4788 -6.09852 0)
(-53.4285 -5.68522 -2.05275e-20)
(-49.6273 -5.30759 2.18132e-20)
(-46.0589 -4.95911 0)
(-42.708 -4.63598 0)
(-39.5614 -4.33559 -5.31009e-20)
(-36.6067 -4.0559 1.1325e-19)
(-33.8326 -3.7951 -6.04056e-20)
(-31.2282 -3.55156 6.45767e-20)
(-28.7834 -3.32378 7.42069e-23)
(-26.4886 -3.11045 -1.47135e-19)
(-24.335 -2.91047 7.85148e-20)
(-22.3144 -2.72283 8.38897e-20)
(-20.4193 -2.54656 -8.95033e-20)
(-18.6427 -2.38073 9.56048e-20)
(-16.9781 -2.22447 -2.04067e-19)
(-15.4193 -2.07704 1.08897e-19)
(-13.9606 -1.93779 0)
(-12.5966 -1.80614 0)
(-11.3223 -1.68154 0)
(-10.1327 -1.56355 -2.82724e-19)
(-9.0234 -1.45186 3.01637e-19)
(-7.98998 -1.3462 0)
(-7.02841 -1.24621 0)
(-6.13478 -1.15161 3.662e-19)
(-5.30532 -1.06214 -3.90426e-19)
(-4.5364 -0.977575 0)
(-3.82449 -0.897747 0)
(-3.16614 -0.822561 -4.72485e-19)
(-2.55805 -0.751988 5.03096e-19)
(-1.99714 -0.686066 0)
(-1.48088 -0.624895 -5.69552e-19)
(-1.00753 -0.568647 1.21064e-18)
(-0.575576 -0.516799 -6.42742e-19)
(-0.182081 -0.468072 0)
(0.17659 -0.421455 7.16213e-19)
(0.504604 -0.376351 1.00346e-23)
(0.806261 -0.332468 -1.51257e-18)
(1.08475 -0.29082 7.73788e-19)
(1.34103 -0.253068 -7.91176e-19)
(1.57475 -0.219541 8.08396e-19)
(1.78623 -0.189395 0)
(1.97685 -0.1619 1.68519e-18)
(2.14824 -0.136696 -1.71911e-18)
(2.30196 -0.113572 -1.75283e-18)
(2.4394 -0.0923951 1.78623e-18)
(2.56188 -0.073047 0)
(2.67062 -0.0554127 0)
(2.76679 -0.0393885 0)
(2.85149 -0.0248927 0)
(2.92577 -0.0118568 -1.94656e-18)
(2.99057 -0.000205606 1.97676e-18)
(3.04671 0.0101526 0)
(3.09501 0.0192999 0)
(3.13627 0.0273092 0)
(3.17124 0.0342266 0)
(3.20058 0.04014 0)
(3.22493 0.0451377 0)
(3.24488 0.0492674 0)
(3.26101 0.0525619 -2.17624e-18)
(3.27385 0.0550696 2.19547e-18)
(3.28391 0.0568319 0)
(3.29165 0.0578887 -2.2314e-18)
(3.2975 0.0583288 2.24817e-18)
(3.30186 0.0582371 -2.26402e-18)
(3.3051 0.057638 2.2787e-18)
(3.30755 0.0565552 -2.29229e-18)
(3.30952 0.0550296 -2.88597e-23)
(3.31128 0.0531127 -2.94206e-23)
(3.31309 0.0508579 -2.99765e-23)
(3.31517 0.0483135 -3.05228e-23)
(3.31773 0.0455098 2.34425e-18)
(3.32097 0.0424566 -2.35195e-18)
(3.32503 0.0392373 -3.206e-23)
(3.33005 0.0359284 2.36541e-18)
(3.33617 0.0325181 -2.37074e-18)
(3.34346 0.0290068 2.37506e-18)
(3.35198 0.0254234 -2.3777e-18)
(3.36179 0.0218064 2.3794e-18)
(3.37297 0.0181896 -2.37985e-18)
(3.38552 0.0146063 -3.46313e-23)
(3.39945 0.0110911 2.37842e-18)
(3.41477 0.00766763 -2.3769e-18)
(3.43152 0.00435038 2.37482e-18)
(3.44968 0.00114818 -2.37233e-18)
(3.46922 -0.00192558 2.36936e-18)
(3.49013 -0.00488089 0)
(3.51241 -0.00775986 0)
(3.53596 -0.0105122 0)
(3.56087 -0.0130984 0)
(3.58712 -0.0155841 0)
(3.61467 -0.0179932 -4.69604e-18)
(3.64346 -0.0203178 9.37309e-18)
(3.67347 -0.0225392 -4.67657e-18)
(3.70466 -0.0246465 0)
(3.73699 -0.026631 0)
(3.77045 -0.0284949 -4.64459e-18)
(3.80499 -0.0302393 -6.79233e-23)
(3.84057 -0.0318696 4.62175e-18)
(3.87717 -0.0333842 0)
(3.91475 -0.0347866 0)
(3.95325 -0.0360789 -4.58623e-18)
(3.99264 -0.0372712 -6.49462e-23)
(4.03289 -0.0383688 -6.42694e-23)
(4.07395 -0.0393776 4.54936e-18)
(4.11579 -0.0402932 0)
(4.15838 -0.0411147 0)
(4.20165 -0.0418394 -4.51211e-18)
(4.24558 -0.042471 4.49954e-18)
(4.29013 -0.0430049 0)
(4.33526 -0.043449 0)
(4.38096 -0.0438481 0)
(4.42712 -0.0441669 0)
(4.47388 -0.0444134 0)
(4.52119 -0.0446668 4.43196e-18)
(4.56896 -0.0449376 -4.42058e-18)
(4.61712 -0.0452145 0)
(4.66566 -0.0454831 0)
(4.71454 -0.0457393 0)
(4.76376 -0.0459772 0)
(4.81331 -0.0461945 0)
(4.86317 -0.0463787 4.35116e-18)
(4.91332 -0.0465244 4.97959e-23)
(4.96373 -0.046631 -4.32831e-18)
(5.01439 -0.0467084 0)
(5.06527 -0.046763 -4.30559e-18)
(5.11635 -0.0468037 8.58828e-18)
(5.16761 -0.0468329 -4.28269e-18)
(5.21904 -0.0468564 4.27128e-18)
(5.27063 -0.0468747 -4.25981e-18)
(5.32236 -0.0468929 0)
(5.37422 -0.0469073 0)
(5.4262 -0.0469088 4.226e-18)
(5.47829 -0.0468849 4.18594e-23)
(5.53046 -0.0468384 -4.20391e-18)
(5.58271 -0.0467748 0)
(5.63501 -0.0467035 -4.18197e-18)
(5.68735 -0.0466286 -3.91876e-23)
(5.73973 -0.0465557 4.15985e-18)
(5.79212 -0.0464847 0)
(5.84452 -0.0464175 4.13773e-18)
(5.89692 -0.0463513 3.66579e-23)
(5.94931 -0.0462873 -8.23114e-18)
(6.00168 -0.0462249 -3.54384e-23)
(6.05402 -0.0461653 4.09362e-18)
(6.10633 -0.0460958 0)
(6.1586 -0.0460073 0)
(6.2108 -0.0459007 -4.06153e-18)
(6.26295 -0.0457852 -3.24947e-23)
(6.31502 -0.0456637 4.04014e-18)
(6.36701 -0.0455383 0)
(6.4189 -0.045405 4.0187e-18)
(6.47068 -0.0452599 3.02884e-23)
(6.52233 -0.0450927 -3.99711e-18)
(6.57386 -0.0448833 -3.98635e-18)
(6.62528 -0.0445795 3.97554e-18)
(6.67653 -0.0442721 0)
(6.72792 -0.0438953 3.95879e-18)
(6.77944 -0.0434397 2.71664e-23)
(6.83099 -0.0430819 -3.94295e-18)
(6.88249 -0.0428414 0)
(6.93383 -0.0426878 0)
(6.98499 -0.0425967 3.91609e-18)
(7.03597 -0.0425339 -3.90719e-18)
(7.08676 -0.042473 0)
(7.13736 -0.0424089 -3.8897e-18)
(7.18778 -0.0423504 -2.34041e-23)
(7.23804 -0.0423028 3.87207e-18)
(7.28812 -0.0422685 3.86325e-18)
(7.33802 -0.0422425 2.21027e-23)
(7.38773 -0.0422211 -7.69109e-18)
(7.43724 -0.0421996 3.83671e-18)
(7.48653 -0.0421778 -3.82791e-18)
(7.53559 -0.0421546 -2.0418e-23)
(7.58442 -0.0421315 3.81021e-18)
(7.633 -0.0421076 0)
(7.68133 -0.0420841 0)
(7.72939 -0.0420598 -3.78358e-18)
(7.77719 -0.042036 3.77465e-18)
(7.82471 -0.0420121 0)
(7.87196 -0.0419883 3.75684e-18)
(7.91893 -0.0419607 -7.49589e-18)
(7.96563 -0.0419244 3.73909e-18)
(8.01205 -0.0418743 0)
(8.05818 -0.0418135 0)
(8.10403 -0.0417478 0)
(8.1496 -0.0416664 0)
(8.19487 -0.0415538 0)
(8.23985 -0.0414173 0)
(8.28455 -0.0412693 0)
(8.32896 -0.0411187 -7.34275e-18)
(8.37309 -0.040967 -2.69933e-23)
(8.41692 -0.0408137 -2.63263e-23)
(8.46047 -0.0406552 -2.56765e-23)
(8.50373 -0.0404886 7.27539e-18)
(8.54669 -0.0403101 0)
(8.58936 -0.0401159 0)
(8.63174 -0.0398987 0)
(8.67383 -0.0396541 7.20925e-18)
(8.71561 -0.0393806 2.20901e-23)
(8.75708 -0.0390811 2.15507e-23)
(8.79824 -0.0387578 -1.43218e-17)
(8.83907 -0.0384142 -2.05265e-23)
(8.87959 -0.0380509 7.12899e-18)
(8.91977 -0.0376684 0)
(8.9596 -0.0372644 0)
(8.99909 -0.0368377 0)
(9.03822 -0.0363861 0)
(9.07697 -0.0359089 0)
(9.11534 -0.0354047 0)
(9.1533 -0.0348738 7.02023e-18)
(9.19085 -0.0343156 -7.00514e-18)
(9.22797 -0.0337307 6.99022e-18)
(9.26464 -0.0331191 -1.39508e-17)
(9.30085 -0.0324813 -1.60582e-23)
(9.33658 -0.0318146 -1.58263e-23)
(9.3718 -0.0311173 6.93216e-18)
(9.4065 -0.0303933 0)
(9.44063 -0.0296228 0)
(9.47418 -0.0287793 0)
(9.5071 -0.0278704 0)
(9.5394 -0.0269113 -6.86863e-18)
(9.57102 -0.02591 1.3713e-17)
(9.60195 -0.0248676 1.48373e-23)
(9.63213 -0.0237819 -6.83267e-18)
(9.66153 -0.0226481 0)
(9.69009 -0.0214607 0)
(9.71778 -0.0202132 0)
(9.74454 -0.0188994 -6.78768e-18)
(9.77033 -0.0175124 -1.57454e-23)
(9.79508 -0.0160452 -1.60644e-23)
(9.81875 -0.0144895 6.7573e-18)
(9.84125 -0.0128362 0)
(9.86253 -0.0110749 0)
(9.8825 -0.00919601 0)
(9.90108 -0.00719086 0)
(9.91817 -0.00505233 0)
(9.93368 -0.00277318 6.70941e-18)
(9.94751 -0.000343321 -6.70347e-18)
(9.95953 0.00225541 0)
(9.96964 0.00504455 0)
(9.97769 0.00803913 -6.69027e-18)
(9.98355 0.011263 -2.53295e-23)
(9.98718 0.0147423 6.68412e-18)
(9.98844 0.0184771 0)
(9.98713 0.0224651 0)
(9.98305 0.0267121 0)
(9.97599 0.0312309 0)
(9.96572 0.0360403 0)
(9.952 0.0411636 6.65659e-18)
(9.93459 0.0466285 3.97243e-23)
(9.91322 0.052466 4.22137e-23)
(9.88762 0.0587089 -1.33066e-17)
(9.85748 0.0653904 -4.77356e-23)
(9.82249 0.0725442 6.65628e-18)
(9.78229 0.0802055 0)
(9.73652 0.0884126 0)
(9.68478 0.0972081 0)
(9.62664 0.106641 6.6775e-18)
(9.56164 0.116771 6.91121e-23)
(9.48935 0.127739 -6.69703e-18)
(9.4092 0.139611 6.70934e-18)
(9.32108 0.152326 -6.72561e-18)
(9.22435 0.165873 0)
(9.11832 0.180297 -6.76514e-18)
(9.00224 0.195562 -9.75563e-23)
(8.87519 0.211645 -1.02905e-22)
(8.73637 0.228575 6.84815e-18)
(8.58496 0.246343 0)
(8.42012 0.264949 0)
(8.24104 0.284398 0)
(8.04683 0.304666 7.01636e-18)
(7.83665 0.325697 -7.0722e-18)
(7.60966 0.347404 7.13568e-18)
(7.36508 0.369661 1.4772e-22)
(7.10215 0.392294 -7.28909e-18)
(6.82025 0.415073 0)
(6.5189 0.437713 0)
(6.1978 0.459844 0)
(5.85692 0.480964 -7.7518e-18)
(5.49675 0.500392 -1.66368e-22)
(5.11858 0.517082 -1.66664e-22)
(4.72441 0.529593 1.66336e-17)
(4.31582 0.536936 -8.56968e-18)
(3.8945 0.537854 0)
(3.46387 0.529948 0)
(3.02704 0.511884 0)
(2.58633 0.486211 0)
(2.14465 0.457988 -1.06976e-17)
(1.70615 0.431478 -1.65389e-22)
(1.277 0.407786 1.22062e-17)
(0.865393 0.383402 0)
(0.483274 0.35269 -1.35372e-17)
(-93.3702 -16.8772 0)
(-85.7152 -14.5255 0)
(-80.7504 -12.7061 0)
(-75.3058 -11.4916 0)
(-70.3887 -10.5049 0)
(-65.7037 -9.70928 0)
(-61.3089 -9.02257 -1.29289e-20)
(-57.1614 -8.41518 1.36644e-20)
(-53.2514 -7.8643 0)
(-49.563 -7.35805 1.54942e-20)
(-46.0845 -6.8888 -1.64411e-20)
(-42.8048 -6.45193 0)
(-39.7137 -6.04426 0)
(-36.8014 -5.66333 0)
(-34.0585 -5.30701 0)
(-31.476 -4.9734 0)
(-29.0453 -4.66072 4.81581e-20)
(-26.7581 -4.36732 -5.12616e-20)
(-24.6067 -4.09175 0)
(-22.5837 -3.83268 0)
(-20.6824 -3.58887 6.20232e-20)
(-18.8964 -3.35915 -1.32062e-19)
(-17.2198 -3.14246 -3.3147e-23)
(-15.6468 -2.93783 7.48284e-20)
(-14.1721 -2.74444 0)
(-12.7906 -2.56151 -1.69543e-19)
(-11.4976 -2.38839 1.80307e-19)
(-10.2884 -2.22447 0)
(-9.15864 -2.0693 0)
(-8.1042 -1.92247 0)
(-7.12112 -1.78354 -2.30222e-19)
(-6.20561 -1.65214 4.88916e-19)
(-5.35399 -1.52793 2.51162e-23)
(-4.5627 -1.4106 -2.75258e-19)
(-3.82832 -1.29988 0)
(-3.1475 -1.19555 0)
(-2.51704 -1.09747 0)
(-1.9339 -1.00556 3.46638e-19)
(-1.39539 -0.919783 -3.66555e-19)
(-0.899284 -0.840076 -3.87327e-19)
(-0.443468 -0.765945 4.08899e-19)
(-0.0253364 -0.69643 4.30915e-19)
(0.358141 -0.630615 -4.48486e-19)
(0.710553 -0.568145 0)
(1.03529 -0.508944 -4.74159e-19)
(1.33506 -0.453413 -6.10486e-24)
(1.61133 -0.402339 4.99751e-19)
(1.8647 -0.355838 0)
(2.096 -0.313371 0)
(2.30654 -0.274436 0)
(2.49781 -0.238718 0)
(2.67124 -0.205968 0)
(2.82821 -0.175976 -1.14744e-18)
(2.97001 -0.148551 1.17084e-18)
(3.09787 -0.123513 0)
(3.21295 -0.100711 -1.21618e-18)
(3.31633 -0.0800256 -1.33587e-23)
(3.40902 -0.0613434 1.25916e-18)
(3.49196 -0.04453 0)
(3.56597 -0.0294591 0)
(3.63185 -0.0160341 0)
(3.69038 -0.00416761 1.33709e-18)
(3.74227 0.0062219 1.48396e-23)
(3.78818 0.0152603 -1.37156e-18)
(3.82872 0.0230613 0)
(3.86448 0.0296942 1.40209e-18)
(3.89601 0.0352165 -1.41578e-18)
(3.92381 0.0396999 0)
(3.94834 0.0432058 1.44053e-18)
(3.97007 0.0457877 1.68726e-23)
(3.98939 0.0475516 -1.46191e-18)
(4.00669 0.0485982 0)
(4.02235 0.0489658 1.48068e-18)
(4.03669 0.0486943 -1.48892e-18)
(4.05002 0.047838 -1.49651e-18)
(4.06261 0.0464588 -1.89148e-23)
(4.07471 0.0446197 1.50966e-18)
(4.08656 0.042379 0)
(4.09837 0.0397774 0)
(4.11034 0.0368322 0)
(4.1226 0.0336292 1.52976e-18)
(4.13535 0.0302484 -1.53353e-18)
(4.14874 0.0266937 0)
(4.16287 0.0229824 1.53898e-18)
(4.17783 0.0191519 -1.54056e-18)
(4.19369 0.0152404 0)
(4.2105 0.0112891 -1.54249e-18)
(4.22832 0.00733675 3.08582e-18)
(4.24718 0.00341912 -1.54302e-18)
(4.26712 -0.000438919 -1.54288e-18)
(4.28818 -0.00421761 1.54244e-18)
(4.31036 -0.00789992 0)
(4.33368 -0.0114679 0)
(4.35813 -0.0149244 0)
(4.38372 -0.0183054 0)
(4.41039 -0.0215756 0)
(4.43823 -0.0247067 3.07478e-18)
(4.46723 -0.0277385 -3.07221e-18)
(4.49735 -0.0306817 -3.06929e-18)
(4.52854 -0.0335329 3.06599e-18)
(4.56077 -0.0362792 0)
(4.59402 -0.0389095 0)
(4.62827 -0.0414144 -3.05513e-18)
(4.66348 -0.0437942 3.05116e-18)
(4.69965 -0.0460497 0)
(4.73673 -0.0481842 0)
(4.7747 -0.0501947 0)