/*--------------------------------*- C++ -*----------------------------------*\
  =========                 |
  \\      /  F ield         | OpenFOAM: The Open Source CFD Toolbox
   \\    /   O peration     | Website:  https://openfoam.org
    \\  /    A nd           | Version:  8
     \\/     M anipulation  |
\*---------------------------------------------------------------------------*/
FoamFile
{
    version     2.0;
    format      ascii;
    class       volScalarField;
    location    "0.22";
    object      p;
}
// * * * * * * * * * * * * * * * * * * * * * * * * * * * * * * * * * * * * * //

dimensions      [0 2 -2 0 0 0 0];

internalField   nonuniform List<scalar> 
112642
(
0.851668
0.856706
0.859762
0.861699
0.863359
0.865083
0.86685
0.868479
0.869833
0.870828
0.871443
0.871687
0.871578
0.871138
0.870388
0.869344
0.868017
0.866418
0.864554
0.862431
0.860055
0.85743
0.854559
0.851447
0.848097
0.844514
0.840701
0.836661
0.832402
0.827927
0.823243
0.818354
0.813267
0.807989
0.802524
0.796881
0.791065
0.785079
0.778933
0.77263
0.766176
0.759572
0.752826
0.745939
0.738918
0.731765
0.724485
0.717079
0.709551
0.701903
0.694138
0.68626
0.67827
0.670173
0.661969
0.653662
0.645253
0.636747
0.628145
0.619449
0.610665
0.601788
0.592824
0.583774
0.574639
0.565421
0.556119
0.546737
0.537274
0.527731
0.518109
0.508408
0.49863
0.488775
0.478844
0.46884
0.45876
0.44861
0.438387
0.428093
0.417726
0.407291
0.396787
0.386217
0.375575
0.364865
0.354094
0.343253
0.332347
0.321375
0.310339
0.299241
0.288077
0.27685
0.265559
0.254208
0.242792
0.231313
0.219774
0.208172
0.196508
0.184783
0.172996
0.161146
0.149235
0.137265
0.125231
0.113135
0.100978
0.0887621
0.0764816
0.0641399
0.0517372
0.0392717
0.0267489
0.0141582
0.00150748
-0.011202
-0.0239746
-0.0368093
-0.0497066
-0.0626621
-0.0756783
-0.0887529
-0.101891
-0.115086
-0.12834
-0.141655
-0.155028
-0.16846
-0.181951
-0.195504
-0.209115
-0.222787
-0.236522
-0.250316
-0.264172
-0.27809
-0.29207
-0.306113
-0.320213
-0.334378
-0.348607
-0.362895
-0.377248
-0.391662
-0.406139
-0.420677
-0.43528
-0.449944
-0.46467
-0.479459
-0.494308
-0.509216
-0.524183
-0.539211
-0.554296
-0.569441
-0.58464
-0.599893
-0.615196
-0.630553
-0.64596
-0.661418
-0.676917
-0.692459
-0.708045
-0.723666
-0.739329
-0.755029
-0.770761
-0.786534
-0.80234
-0.818186
-0.834065
-0.849974
-0.865925
-0.881907
-0.897925
-0.913972
-0.930056
-0.946167
-0.962301
-0.978457
-0.994631
-1.01081
-1.02698
-1.04314
-1.05927
-1.07534
-1.09135
-1.10731
-1.12325
-1.13931
-1.15572
-1.17277
-1.19071
-1.20934
-1.22763
-1.24455
0.848124
0.854159
0.85805
0.860424
0.862178
0.863825
0.865549
0.867227
0.868727
0.869925
0.870772
0.87125
0.87137
0.871147
0.870602
0.869751
0.868609
0.867185
0.865488
0.863524
0.861302
0.858822
0.856093
0.853116
0.849896
0.846438
0.842744
0.838819
0.83467
0.830301
0.825716
0.820923
0.815926
0.810734
0.80535
0.799782
0.794037
0.788118
0.782033
0.775786
0.769382
0.762827
0.756123
0.749274
0.742286
0.735162
0.727907
0.720522
0.713009
0.705374
0.697617
0.689745
0.681756
0.673655
0.665444
0.657126
0.648704
0.64018
0.631556
0.622836
0.61402
0.605112
0.596111
0.587022
0.577845
0.568579
0.559229
0.549794
0.540275
0.530672
0.520989
0.511224
0.501379
0.491456
0.481454
0.471374
0.461218
0.450988
0.440683
0.430304
0.419852
0.409328
0.398733
0.388068
0.377332
0.366526
0.355653
0.344711
0.333702
0.322625
0.311483
0.300274
0.289
0.277659
0.266255
0.254787
0.243254
0.231658
0.219996
0.208275
0.196486
0.184638
0.172723
0.160748
0.148709
0.136608
0.124444
0.112216
0.099927
0.0875754
0.0751615
0.0626847
0.0501456
0.0375439
0.0248815
0.0121543
-0.000634274
-0.0134843
-0.0263959
-0.0393703
-0.0524055
-0.0655023
-0.078658
-0.091874
-0.105151
-0.118488
-0.131883
-0.145337
-0.158851
-0.172426
-0.186058
-0.199752
-0.213505
-0.227318
-0.241191
-0.255128
-0.269123
-0.28318
-0.297299
-0.311476
-0.325717
-0.340017
-0.354381
-0.368804
-0.383289
-0.397834
-0.412443
-0.42711
-0.44184
-0.456628
-0.471479
-0.48639
-0.50136
-0.516387
-0.531471
-0.546611
-0.561812
-0.577066
-0.592373
-0.607729
-0.623139
-0.638597
-0.654102
-0.669653
-0.685245
-0.700878
-0.71655
-0.732255
-0.747999
-0.763775
-0.779587
-0.795427
-0.811301
-0.827212
-0.843149
-0.859118
-0.875118
-0.891148
-0.907205
-0.923297
-0.939406
-0.955547
-0.971703
-0.987873
-1.00405
-1.02023
-1.03639
-1.05253
-1.06863
-1.08467
-1.10067
-1.11665
-1.1327
-1.14901
-1.16585
-1.18345
-1.20177
-1.22039
-1.23809
-1.25408
0.843668
0.851014
0.855961
0.859001
0.861043
0.862725
0.864432
0.866145
0.867764
0.869144
0.870207
0.870911
0.871254
0.871244
0.870901
0.87024
0.869278
0.868026
0.866493
0.864688
0.862616
0.860284
0.857695
0.854854
0.851766
0.848435
0.844865
0.841059
0.837024
0.832765
0.828285
0.823593
0.818693
0.813591
0.808293
0.802807
0.797137
0.791289
0.785269
0.779083
0.772734
0.766229
0.759571
0.752763
0.745812
0.738718
0.731489
0.724126
0.716633
0.709011
0.701265
0.693396
0.685411
0.677307
0.66909
0.660764
0.652327
0.643785
0.635141
0.626394
0.61755
0.608608
0.599571
0.590441
0.581219
0.571906
0.562505
0.553015
0.543439
0.533776
0.524028
0.514199
0.504285
0.494288
0.484212
0.474056
0.46382
0.453507
0.443117
0.432651
0.422109
0.411492
0.400804
0.390041
0.379206
0.368298
0.357322
0.346275
0.335157
0.323973
0.312717
0.301396
0.290005
0.278549
0.267026
0.255438
0.243782
0.232062
0.220275
0.208426
0.19651
0.184532
0.172486
0.160378
0.148205
0.135969
0.123669
0.111305
0.0988764
0.086387
0.0738305
0.0612148
0.0485324
0.0357891
0.0229841
0.0101118
-0.00281962
-0.0158149
-0.0288694
-0.0419896
-0.0551699
-0.068411
-0.0817121
-0.0950739
-0.108496
-0.121977
-0.135519
-0.149121
-0.162782
-0.1765
-0.19028
-0.204121
-0.218019
-0.23198
-0.245999
-0.260079
-0.27422
-0.288421
-0.302681
-0.317003
-0.331383
-0.345825
-0.360326
-0.374888
-0.38951
-0.404189
-0.41893
-0.433732
-0.44859
-0.46351
-0.478486
-0.493522
-0.508612
-0.52376
-0.538962
-0.554222
-0.569533
-0.5849
-0.600313
-0.615776
-0.631288
-0.646847
-0.66245
-0.678094
-0.693777
-0.709497
-0.725255
-0.741043
-0.756865
-0.772717
-0.788601
-0.804513
-0.820454
-0.836427
-0.852425
-0.868445
-0.884498
-0.900573
-0.916678
-0.932799
-0.948947
-0.965106
-0.981282
-0.997459
-1.01364
-1.02981
-1.04596
-1.06207
-1.07814
-1.09415
-1.11014
-1.12616
-1.14236
-1.15896
-1.17619
-1.19422
-1.21273
-1.23104
-1.24789
-1.26265
0.838278
0.847102
0.853321
0.857334
0.85988
0.861743
0.86348
0.865215
0.866917
0.868446
0.869701
0.87062
0.871179
0.87138
0.871237
0.870765
0.869983
0.868901
0.867533
0.865885
0.863966
0.861781
0.859335
0.856634
0.853682
0.850482
0.847039
0.843357
0.839443
0.835299
0.830932
0.826347
0.821549
0.816544
0.811339
0.80594
0.800351
0.79458
0.788631
0.782509
0.776221
0.769771
0.763161
0.756399
0.749485
0.742427
0.735227
0.727889
0.720415
0.712808
0.705074
0.697212
0.689227
0.681123
0.672902
0.664564
0.656114
0.647555
0.638888
0.630117
0.621242
0.612266
0.603192
0.594021
0.584753
0.575392
0.565937
0.556393
0.546757
0.537033
0.527221
0.517322
0.507337
0.497266
0.487112
0.476878
0.466559
0.45616
0.445683
0.435125
0.424491
0.413778
0.402992
0.392127
0.38119
0.370178
0.359094
0.347936
0.336708
0.325408
0.314036
0.302597
0.291087
0.279509
0.267862
0.256148
0.244365
0.232516
0.2206
0.208617
0.196568
0.184453
0.172273
0.160026
0.147714
0.135337
0.122895
0.110388
0.0978162
0.0851815
0.0724803
0.0597155
0.0468874
0.0339951
0.0210403
0.00802057
-0.00506084
-0.0182074
-0.0314128
-0.0446829
-0.0580125
-0.0714065
-0.0848575
-0.0983713
-0.111946
-0.125577
-0.139272
-0.153026
-0.166837
-0.180709
-0.194641
-0.208631
-0.222683
-0.236792
-0.250964
-0.265192
-0.279483
-0.293831
-0.308239
-0.322707
-0.337233
-0.351818
-0.366464
-0.381165
-0.395928
-0.410749
-0.425624
-0.440559
-0.455554
-0.470604
-0.485709
-0.500872
-0.516089
-0.531355
-0.546678
-0.562054
-0.577482
-0.592956
-0.608481
-0.624049
-0.639664
-0.655323
-0.67102
-0.686756
-0.702531
-0.718334
-0.734173
-0.750047
-0.765946
-0.781871
-0.797827
-0.813809
-0.829815
-0.84585
-0.861907
-0.877983
-0.894083
-0.910204
-0.926346
-0.942509
-0.95868
-0.974863
-0.991052
-1.00724
-1.02342
-1.03957
-1.0557
-1.07178
-1.08781
-1.1038
-1.11979
-1.1359
-1.1523
-1.16922
-1.18684
-1.20513
-1.22356
-1.24122
-1.25688
-1.2703
0.832251
0.842384
0.849966
0.855205
0.858479
0.860695
0.862524
0.864276
0.866023
0.86766
0.869082
0.870199
0.870971
0.871385
0.871447
0.871173
0.870577
0.869674
0.868476
0.866993
0.865234
0.863203
0.860909
0.858354
0.855545
0.852484
0.849177
0.845627
0.84184
0.83782
0.833572
0.829102
0.824413
0.819513
0.814407
0.809102
0.803601
0.797911
0.792038
0.785988
0.779765
0.773373
0.766817
0.760104
0.753235
0.746214
0.739047
0.731736
0.724285
0.716698
0.708976
0.701125
0.693144
0.685039
0.676814
0.668468
0.660005
0.651429
0.642742
0.633945
0.625042
0.616034
0.606922
0.597709
0.588397
0.578989
0.569482
0.559881
0.550187
0.540401
0.530522
0.520554
0.510497
0.500351
0.49012
0.479803
0.469402
0.458916
0.448348
0.437699
0.42697
0.416158
0.40527
0.394304
0.383262
0.372141
0.360947
0.349677
0.338334
0.326916
0.315426
0.303865
0.292232
0.280528
0.268754
0.25691
0.244997
0.233014
0.220964
0.208846
0.196659
0.184405
0.172084
0.159695
0.14724
0.134717
0.12213
0.109475
0.0967549
0.0839701
0.0711193
0.0582032
0.0452236
0.0321783
0.0190702
0.0058959
-0.00733921
-0.0206386
-0.0340001
-0.0474265
-0.0609116
-0.0744586
-0.0880672
-0.101738
-0.115466
-0.129256
-0.143105
-0.157015
-0.170983
-0.185011
-0.199099
-0.213245
-0.227449
-0.241715
-0.25604
-0.270422
-0.284863
-0.299364
-0.313923
-0.328539
-0.343213
-0.357946
-0.372736
-0.387583
-0.402488
-0.417449
-0.432465
-0.447538
-0.462667
-0.477848
-0.493087
-0.508374
-0.523717
-0.53911
-0.554552
-0.570046
-0.585587
-0.601171
-0.616804
-0.632481
-0.648195
-0.66395
-0.679743
-0.695572
-0.711433
-0.727322
-0.743242
-0.759191
-0.775167
-0.791166
-0.807189
-0.823237
-0.839306
-0.855397
-0.871509
-0.887643
-0.90379
-0.919953
-0.936132
-0.952324
-0.968521
-0.984726
-1.00093
-1.01712
-1.03328
-1.04942
-1.06552
-1.08157
-1.09757
-1.11356
-1.12961
-1.14587
-1.16252
-1.1798
-1.19774
-1.21612
-1.23416
-1.25084
-1.26522
-1.2773
0.825595
0.836853
0.845788
0.852389
0.856622
0.859395
0.861435
0.86324
0.865015
0.866726
0.868283
0.86958
0.870559
0.871187
0.871462
0.871393
0.870995
0.87028
0.869264
0.867956
0.866366
0.8645
0.862365
0.859967
0.857309
0.854396
0.851233
0.847824
0.844173
0.840284
0.836163
0.831813
0.827242
0.822453
0.817452
0.812246
0.806839
0.801237
0.795447
0.789472
0.78332
0.776992
0.770495
0.763835
0.757014
0.750035
0.742905
0.735625
0.728202
0.720637
0.712933
0.705093
0.69712
0.689019
0.680791
0.67244
0.663967
0.655376
0.646671
0.63785
0.62892
0.61988
0.610732
0.601481
0.592126
0.582669
0.573112
0.563456
0.553703
0.543856
0.533912
0.523874
0.513745
0.503526
0.493214
0.482817
0.472329
0.461757
0.451098
0.440356
0.429529
0.41862
0.40763
0.39656
0.385409
0.374178
0.362873
0.351487
0.340027
0.32849
0.31688
0.305193
0.293435
0.281602
0.269699
0.257722
0.245675
0.233558
0.221368
0.209112
0.196784
0.184388
0.171921
0.159388
0.146786
0.134115
0.121378
0.108572
0.0957011
0.0827618
0.0697578
0.0566867
0.0435516
0.0303493
0.0170854
0.00375352
-0.00964076
-0.0230978
-0.0366182
-0.0502013
-0.0638471
-0.0775532
-0.0913222
-0.105149
-0.11904
-0.132987
-0.146999
-0.161065
-0.175192
-0.189381
-0.203628
-0.217931
-0.232295
-0.246717
-0.261197
-0.275736
-0.290332
-0.304985
-0.319697
-0.334466
-0.34929
-0.364173
-0.379108
-0.394102
-0.409151
-0.424253
-0.439411
-0.454622
-0.469888
-0.485204
-0.500572
-0.515988
-0.531455
-0.546973
-0.562535
-0.578147
-0.593801
-0.609497
-0.625238
-0.641018
-0.656832
-0.672684
-0.688569
-0.704488
-0.720434
-0.736407
-0.752405
-0.768429
-0.784475
-0.800545
-0.816635
-0.832743
-0.848868
-0.865014
-0.881177
-0.897357
-0.913547
-0.929749
-0.94596
-0.962182
-0.978405
-0.994617
-1.01082
-1.02701
-1.04317
-1.05928
-1.07536
-1.09138
-1.10737
-1.1234
-1.13955
-1.15601
-1.17299
-1.19061
-1.20876
-1.22696
-1.24431
-1.25977
-1.27292
-1.28386
0.818337
0.83058
0.840734
0.848741
0.854147
0.857715
0.860143
0.862092
0.863912
0.865678
0.86734
0.868796
0.869969
0.870811
0.871304
0.871449
0.871257
0.870742
0.869917
0.868794
0.867382
0.86569
0.863723
0.861489
0.85899
0.856233
0.853221
0.849958
0.846449
0.842698
0.838708
0.834487
0.830038
0.825365
0.820476
0.815374
0.810066
0.804557
0.798854
0.79296
0.786881
0.780624
0.77419
0.767588
0.760818
0.753887
0.746797
0.739555
0.732162
0.724621
0.716937
0.709113
0.701153
0.693057
0.684831
0.676478
0.667997
0.659395
0.650672
0.641832
0.632875
0.623806
0.614625
0.605337
0.595938
0.586435
0.576829
0.567119
0.557309
0.547399
0.53739
0.527285
0.517083
0.506788
0.496399
0.485918
0.475346
0.464685
0.453935
0.443097
0.432174
0.421164
0.41007
0.398893
0.387634
0.376292
0.364871
0.353369
0.34179
0.330131
0.318397
0.306584
0.294696
0.282734
0.270695
0.258587
0.246401
0.234145
0.221815
0.209416
0.196944
0.184402
0.171788
0.159107
0.146352
0.133532
0.120639
0.107681
0.0946534
0.0815575
0.0683961
0.0551668
0.0418724
0.0285102
0.0150844
0.00159271
-0.0119627
-0.0255822
-0.0392663
-0.0530121
-0.0668188
-0.080689
-0.0946202
-0.108611
-0.122664
-0.136776
-0.150948
-0.165178
-0.179469
-0.193817
-0.208226
-0.222691
-0.237216
-0.251798
-0.266437
-0.281133
-0.295889
-0.310696
-0.325564
-0.340484
-0.355463
-0.370495
-0.385582
-0.400721
-0.415917
-0.431161
-0.446461
-0.461813
-0.477213
-0.492663
-0.508164
-0.523712
-0.539305
-0.554943
-0.570629
-0.586356
-0.602125
-0.617931
-0.633778
-0.649658
-0.665576
-0.681522
-0.697498
-0.713504
-0.729534
-0.745586
-0.761661
-0.777757
-0.793873
-0.810004
-0.826156
-0.842323
-0.858503
-0.874698
-0.890906
-0.907126
-0.923357
-0.939588
-0.955829
-0.97207
-0.988305
-1.00453
-1.02073
-1.03691
-1.05305
-1.06914
-1.08519
-1.1012
-1.11721
-1.13331
-1.14963
-1.16635
-1.18365
-1.20153
-1.2197
-1.23742
-1.25382
-1.26798
-1.27993
-1.28995
0.810648
0.823648
0.834909
0.844274
0.850988
0.855574
0.858607
0.86084
0.862764
0.864589
0.866336
0.867926
0.869276
0.870323
0.871034
0.871398
0.871422
0.871114
0.870489
0.869558
0.868333
0.866821
0.86503
0.862965
0.860632
0.858035
0.855179
0.852068
0.848705
0.845096
0.841244
0.837154
0.83283
0.828279
0.823504
0.818512
0.813307
0.807896
0.802283
0.796474
0.790475
0.784291
0.777926
0.771383
0.764671
0.75779
0.750745
0.743542
0.736184
0.728673
0.721012
0.713207
0.705262
0.697176
0.688954
0.680601
0.672116
0.663504
0.654766
0.645907
0.636928
0.627831
0.618618
0.609291
0.599853
0.590305
0.580648
0.570886
0.561018
0.551046
0.540973
0.530799
0.520525
0.510154
0.499685
0.489121
0.478463
0.467712
0.456869
0.445935
0.434912
0.423801
0.4126
0.401316
0.389946
0.37849
0.366952
0.355331
0.343631
0.331846
0.319985
0.308043
0.296023
0.283926
0.271752
0.259504
0.247179
0.23478
0.222306
0.20976
0.197141
0.184449
0.171684
0.158848
0.14594
0.132963
0.119914
0.106796
0.093609
0.0803524
0.0670302
0.0536361
0.0401793
0.0266531
0.013062
-0.000595891
-0.0143166
-0.0281016
-0.0419527
-0.0558641
-0.0698395
-0.0838767
-0.0979747
-0.112133
-0.126352
-0.140631
-0.15497
-0.169367
-0.183824
-0.198339
-0.212912
-0.227542
-0.242231
-0.256975
-0.271778
-0.286636
-0.301549
-0.316519
-0.331543
-0.346621
-0.361753
-0.376936
-0.392176
-0.407467
-0.422808
-0.438198
-0.453641
-0.469132
-0.484669
-0.500256
-0.515891
-0.531569
-0.547288
-0.563051
-0.578857
-0.594702
-0.610582
-0.626501
-0.642453
-0.658436
-0.674449
-0.690492
-0.706559
-0.72265
-0.738761
-0.754892
-0.771042
-0.787209
-0.803389
-0.819585
-0.835793
-0.852013
-0.868244
-0.884485
-0.900733
-0.916991
-0.93325
-0.949513
-0.965768
-0.982027
-0.998265
-1.01449
-1.03069
-1.04685
-1.06297
-1.07903
-1.09506
-1.11108
-1.12714
-1.14335
-1.15989
-1.1769
-1.19448
-1.21248
-1.23041
-1.2474
-1.26263
-1.27549
-1.28636
-1.29558
0.802572
0.816161
0.828383
0.839011
0.847095
0.852876
0.856729
0.859426
0.861558
0.863476
0.865302
0.867005
0.868514
0.869753
0.870677
0.871262
0.871505
0.871412
0.870994
0.870264
0.869231
0.867905
0.866294
0.864405
0.862242
0.85981
0.857114
0.854158
0.850947
0.847482
0.843771
0.839817
0.835623
0.831196
0.826541
0.821662
0.816565
0.811256
0.805739
0.80002
0.794103
0.787998
0.781704
0.775229
0.768576
0.76175
0.754755
0.747596
0.740275
0.732797
0.725164
0.717384
0.709454
0.701382
0.693166
0.684815
0.676328
0.667709
0.65896
0.650085
0.641084
0.63196
0.622716
0.613355
0.603877
0.594285
0.58458
0.574764
0.564839
0.554807
0.544668
0.534424
0.524079
0.513629
0.503082
0.492434
0.481689
0.470847
0.459908
0.448878
0.437751
0.426538
0.415231
0.403834
0.392351
0.380778
0.369121
0.357379
0.345551
0.333641
0.321649
0.309574
0.29742
0.285184
0.272872
0.26048
0.248011
0.235466
0.222844
0.210148
0.197376
0.18453
0.171609
0.158617
0.14555
0.132411
0.119202
0.10592
0.0925692
0.0791466
0.0656564
0.0520976
0.0384705
0.0247764
0.011016
-0.0028126
-0.0167032
-0.0306605
-0.0446818
-0.0587631
-0.072912
-0.0871182
-0.10139
-0.11572
-0.13011
-0.144561
-0.159069
-0.173639
-0.188265
-0.202951
-0.217693
-0.232491
-0.247348
-0.26226
-0.277228
-0.29225
-0.307327
-0.322458
-0.337642
-0.35288
-0.36817
-0.383509
-0.3989
-0.414343
-0.429833
-0.445371
-0.460961
-0.476591
-0.492272
-0.507992
-0.52376
-0.539568
-0.555418
-0.571303
-0.587231
-0.603192
-0.619187
-0.635214
-0.651272
-0.667355
-0.68347
-0.699604
-0.715762
-0.731936
-0.748127
-0.764338
-0.780559
-0.796793
-0.813039
-0.829294
-0.845558
-0.861831
-0.878106
-0.894389
-0.910674
-0.926965
-0.94325
-0.959531
-0.975808
-0.992063
-1.00831
-1.02452
-1.04071
-1.05685
-1.07294
-1.08899
-1.10501
-1.12105
-1.1372
-1.15358
-1.17035
-1.18764
-1.20541
-1.22333
-1.24075
-1.25675
-1.27073
-1.28233
-1.2923
-1.30091
0.794323
0.808291
0.821226
0.832998
0.842414
0.849519
0.854391
0.85775
0.860231
0.862314
0.864236
0.866042
0.867689
0.869104
0.870231
0.871034
0.871498
0.871624
0.871419
0.870894
0.87006
0.868926
0.867501
0.865791
0.863802
0.861539
0.859008
0.856212
0.853155
0.849841
0.846274
0.84246
0.838401
0.834104
0.829573
0.824811
0.819827
0.814624
0.809208
0.803584
0.797757
0.791735
0.785517
0.779114
0.772527
0.76576
0.75882
0.751707
0.74443
0.736988
0.729389
0.721634
0.713726
0.705669
0.697464
0.689118
0.680632
0.67201
0.663251
0.654361
0.645341
0.636193
0.626921
0.617525
0.60801
0.598374
0.588621
0.578755
0.568773
0.558679
0.548476
0.538164
0.527744
0.517219
0.50659
0.495859
0.485024
0.474088
0.463056
0.451925
0.440699
0.429376
0.417961
0.406451
0.394852
0.383162
0.371382
0.359514
0.347559
0.335518
0.323393
0.311182
0.298888
0.286513
0.274055
0.261518
0.248902
0.236205
0.223432
0.21058
0.197653
0.184648
0.171569
0.158412
0.145184
0.13188
0.118502
0.105055
0.0915337
0.0779416
0.0642803
0.0505496
0.0367496
0.0228816
0.00894621
-0.00505575
-0.0191217
-0.0332555
-0.0474511
-0.0617115
-0.0760331
-0.0904179
-0.104863
-0.119371
-0.133938
-0.148563
-0.163248
-0.17799
-0.192793
-0.207652
-0.222566
-0.237539
-0.252568
-0.267649
-0.282785
-0.297977
-0.313219
-0.328516
-0.343864
-0.359263
-0.374712
-0.39021
-0.405759
-0.421351
-0.436993
-0.45268
-0.468415
-0.484192
-0.50001
-0.515871
-0.531769
-0.547711
-0.563686
-0.579701
-0.595744
-0.611826
-0.627932
-0.644067
-0.660232
-0.676416
-0.692626
-0.708853
-0.7251
-0.741359
-0.75763
-0.773918
-0.790208
-0.806509
-0.822818
-0.839131
-0.855451
-0.871768
-0.888089
-0.904409
-0.920729
-0.937043
-0.953351
-0.969648
-0.985931
-1.00219
-1.01843
-1.03463
-1.05079
-1.06691
-1.08297
-1.09901
-1.11504
-1.13114
-1.14741
-1.164
-1.18102
-1.19852
-1.21632
-1.23393
-1.25059
-1.26543
-1.27812
-1.2886
-1.29785
-1.30609
0.786045
0.800162
0.813547
0.826263
0.836942
0.845399
0.851454
0.855676
0.858676
0.861033
0.863099
0.865013
0.866785
0.86836
0.869677
0.87069
0.871374
0.87172
0.871733
0.871419
0.870789
0.869852
0.868618
0.867093
0.865284
0.863195
0.860833
0.858201
0.855304
0.852145
0.848729
0.84506
0.841141
0.836979
0.832578
0.82794
0.823074
0.817984
0.812675
0.807152
0.801422
0.795485
0.789352
0.783025
0.776509
0.769807
0.762925
0.755867
0.748637
0.741238
0.733674
0.725949
0.718067
0.710029
0.701842
0.693504
0.685022
0.676398
0.667634
0.658731
0.649696
0.640525
0.631227
0.6218
0.612247
0.60257
0.592772
0.582853
0.572817
0.562664
0.552395
0.542015
0.531523
0.520921
0.510211
0.499393
0.488469
0.477442
0.466313
0.455082
0.44375
0.432321
0.420793
0.40917
0.397452
0.38564
0.373737
0.361739
0.349656
0.33748
0.325217
0.312868
0.300433
0.287912
0.275308
0.262621
0.249851
0.237002
0.224072
0.211062
0.197974
0.184806
0.171562
0.158241
0.144843
0.131369
0.117823
0.104201
0.090507
0.0767409
0.0629031
0.0489942
0.035019
0.0209706
0.00685746
-0.00732396
-0.0215717
-0.0358831
-0.0502607
-0.0647012
-0.0792045
-0.0937697
-0.108396
-0.123083
-0.13783
-0.152638
-0.167501
-0.182423
-0.197404
-0.21244
-0.227533
-0.242682
-0.257883
-0.27314
-0.288448
-0.303811
-0.319225
-0.334689
-0.350201
-0.365766
-0.381375
-0.397035
-0.41274
-0.428489
-0.444282
-0.460123
-0.476
-0.491921
-0.50788
-0.52388
-0.539915
-0.555987
-0.57209
-0.588226
-0.604393
-0.620589
-0.63681
-0.653052
-0.669319
-0.685609
-0.70191
-0.718229
-0.734559
-0.750901
-0.767254
-0.783615
-0.799975
-0.816339
-0.832709
-0.849076
-0.865444
-0.881809
-0.898169
-0.914525
-0.930873
-0.947213
-0.963535
-0.979843
-0.996127
-1.01238
-1.02861
-1.04479
-1.06093
-1.07702
-1.09307
-1.10911
-1.12517
-1.14137
-1.15779
-1.17459
-1.19183
-1.20943
-1.22708
-1.24412
-1.25981
-1.27337
-1.28486
-1.29438
-1.30316
-1.31133
0.777976
0.791919
0.805494
0.81893
0.830697
0.840489
0.847827
0.853089
0.856793
0.859563
0.861851
0.863902
0.865798
0.867518
0.869011
0.870224
0.871123
0.87169
0.871922
0.871824
0.871403
0.87067
0.869632
0.868297
0.866673
0.864765
0.862577
0.860116
0.857384
0.854386
0.851126
0.847608
0.843836
0.839815
0.835549
0.831043
0.826302
0.821331
0.816136
0.810721
0.80509
0.79925
0.793205
0.786961
0.780521
0.773889
0.767072
0.760073
0.752895
0.745543
0.738021
0.730332
0.722478
0.714466
0.706297
0.697972
0.689498
0.680875
0.672109
0.663199
0.654147
0.644961
0.635637
0.62618
0.616592
0.606876
0.597032
0.587065
0.576975
0.566762
0.556431
0.545982
0.535418
0.524739
0.513946
0.503043
0.49203
0.480909
0.469681
0.458349
0.446911
0.435371
0.423732
0.411991
0.400154
0.388217
0.376186
0.364061
0.351841
0.33953
0.327128
0.314635
0.302055
0.289385
0.276632
0.26379
0.250865
0.237856
0.224766
0.211593
0.19834
0.185006
0.171592
0.1581
0.14453
0.130881
0.11716
0.10336
0.0894885
0.0755423
0.0615241
0.0474351
0.0332743
0.019045
0.00474775
-0.00961938
-0.0240501
-0.0385485
-0.0531095
-0.0677371
-0.0824264
-0.0971766
-0.111989
-0.126861
-0.141794
-0.156783
-0.171834
-0.18694
-0.202102
-0.217321
-0.232593
-0.247923
-0.263303
-0.278736
-0.294222
-0.309757
-0.325345
-0.340979
-0.356662
-0.372389
-0.388166
-0.403986
-0.419848
-0.435756
-0.451703
-0.467694
-0.483721
-0.499785
-0.515889
-0.532025
-0.548195
-0.564396
-0.580629
-0.596887
-0.613173
-0.629487
-0.645819
-0.66217
-0.67854
-0.694924
-0.711323
-0.727731
-0.744146
-0.760567
-0.776994
-0.793424
-0.809853
-0.826281
-0.842706
-0.859125
-0.875541
-0.891947
-0.908343
-0.92473
-0.941105
-0.95746
-0.973795
-0.990108
-1.00639
-1.02264
-1.03885
-1.05501
-1.07113
-1.0872
-1.10324
-1.11929
-1.13542
-1.15174
-1.16835
-1.18534
-1.20272
-1.22028
-1.23754
-1.25379
-1.26834
-1.28063
-1.29103
-1.29984
-1.30843
-1.31679
0.770184
0.78371
0.797223
0.811114
0.823748
0.834781
0.843431
0.849874
0.854461
0.857806
0.860427
0.862674
0.86471
0.866571
0.868227
0.869629
0.870736
0.871521
0.871974
0.872095
0.87189
0.871365
0.87053
0.869393
0.867961
0.866239
0.864233
0.861948
0.859389
0.856558
0.853461
0.850101
0.846482
0.842609
0.838485
0.834117
0.829508
0.824663
0.819588
0.814285
0.808763
0.803024
0.797075
0.790919
0.784561
0.778007
0.77126
0.764324
0.757206
0.749905
0.742429
0.73478
0.726962
0.718977
0.710831
0.702524
0.694061
0.685445
0.676679
0.667762
0.658701
0.649497
0.640151
0.630667
0.621048
0.611294
0.601408
0.591391
0.581248
0.570979
0.560584
0.550067
0.53943
0.528674
0.5178
0.506811
0.495706
0.484492
0.473165
0.461728
0.450185
0.438533
0.426779
0.414919
0.402959
0.390898
0.378736
0.366477
0.354122
0.34167
0.329126
0.316486
0.303757
0.290936
0.278026
0.265027
0.251943
0.238771
0.225516
0.212176
0.198754
0.185248
0.171661
0.157992
0.144245
0.130418
0.116515
0.102533
0.088479
0.0743458
0.0601443
0.0458664
0.0315192
0.0171022
0.00261446
-0.0119401
-0.0265613
-0.0412508
-0.0560022
-0.0708197
-0.0856981
-0.10064
-0.115643
-0.130705
-0.145827
-0.161008
-0.176245
-0.191539
-0.206889
-0.222294
-0.237754
-0.253264
-0.268826
-0.284442
-0.300107
-0.31582
-0.33158
-0.347388
-0.363243
-0.37914
-0.395082
-0.411067
-0.42709
-0.443154
-0.459258
-0.4754
-0.491576
-0.507788
-0.52403
-0.540307
-0.55661
-0.572945
-0.589301
-0.605685
-0.622089
-0.638515
-0.65496
-0.671416
-0.687886
-0.704368
-0.720856
-0.737353
-0.753851
-0.77035
-0.786848
-0.803344
-0.819838
-0.836325
-0.852804
-0.869271
-0.885729
-0.902174
-0.918603
-0.935016
-0.951409
-0.967779
-0.984123
-1.00043
-1.01671
-1.03295
-1.04913
-1.06527
-1.08137
-1.09743
-1.11348
-1.12958
-1.1458
-1.16225
-1.17903
-1.19619
-1.21359
-1.23091
-1.24757
-1.26283
-1.27617
-1.28725
-1.29676
-1.3051
-1.31381
-1.32265
0.76283
0.775737
0.788913
0.802971
0.816232
0.828321
0.838255
0.845956
0.851582
0.855671
0.858762
0.861287
0.863504
0.865515
0.867329
0.86891
0.870216
0.871216
0.87189
0.872234
0.872248
0.871939
0.871314
0.870381
0.869147
0.867619
0.865802
0.8637
0.86132
0.858664
0.855737
0.852541
0.849083
0.845364
0.84139
0.837166
0.832695
0.827983
0.823033
0.817853
0.812444
0.806813
0.800966
0.794904
0.788636
0.782163
0.775492
0.768627
0.761572
0.754328
0.746903
0.739299
0.73152
0.723569
0.71545
0.707164
0.698718
0.690111
0.681348
0.672429
0.663361
0.654142
0.644777
0.63527
0.625619
0.615829
0.605902
0.595839
0.585643
0.575316
0.56486
0.554275
0.543565
0.532732
0.521776
0.5107
0.499506
0.488195
0.476767
0.465228
0.453576
0.441811
0.42994
0.417959
0.405874
0.393683
0.381389
0.368995
0.356499
0.343905
0.331213
0.318424
0.305542
0.292565
0.279496
0.266337
0.253087
0.239749
0.226324
0.212811
0.199215
0.185533
0.171766
0.157918
0.143988
0.129978
0.115887
0.10172
0.0874754
0.0731541
0.0587589
0.0442916
0.0297493
0.0151396
0.000457701
-0.0142927
-0.0291082
-0.0439932
-0.0589401
-0.0739542
-0.0890291
-0.104164
-0.119364
-0.134621
-0.149937
-0.165311
-0.180742
-0.196229
-0.211771
-0.227367
-0.243014
-0.258714
-0.274462
-0.290262
-0.306108
-0.322003
-0.337942
-0.353925
-0.369953
-0.386023
-0.402132
-0.418283
-0.43447
-0.450694
-0.466953
-0.483247
-0.499573
-0.515931
-0.532315
-0.54873
-0.565169
-0.581635
-0.598117
-0.614622
-0.631143
-0.647683
-0.664234
-0.680797
-0.697364
-0.71394
-0.730519
-0.747098
-0.763678
-0.780251
-0.796818
-0.81338
-0.82993
-0.846474
-0.862999
-0.879516
-0.896012
-0.912487
-0.928944
-0.945379
-0.961787
-0.978166
-0.994511
-1.01082
-1.02708
-1.0433
-1.05947
-1.07558
-1.09166
-1.10772
-1.1238
-1.13996
-1.1563
-1.1729
-1.18984
-1.20705
-1.22433
-1.24121
-1.25706
-1.27119
-1.28332
-1.29334
-1.3022
-1.31037
-1.31947
-1.32912
0.756024
0.768088
0.780691
0.794652
0.808272
0.821211
0.832298
0.841277
0.848057
0.85305
0.856761
0.859678
0.862141
0.864331
0.866308
0.868063
0.869563
0.870772
0.871667
0.872235
0.872474
0.872386
0.871978
0.871256
0.870229
0.868902
0.867281
0.865371
0.863177
0.860702
0.857951
0.854928
0.851636
0.848079
0.844262
0.840189
0.835863
0.83129
0.826474
0.82142
0.816132
0.810616
0.804876
0.798917
0.792742
0.786359
0.77977
0.77298
0.765994
0.758813
0.751445
0.743892
0.736155
0.728243
0.720155
0.711895
0.703468
0.694874
0.686118
0.677202
0.668128
0.658899
0.649518
0.639987
0.630307
0.620484
0.610517
0.600409
0.590162
0.579779
0.569262
0.55861
0.547828
0.536918
0.52588
0.514719
0.503431
0.492025
0.480495
0.46885
0.457086
0.445208
0.433217
0.421116
0.4089
0.39658
0.38415
0.371617
0.358977
0.346237
0.333395
0.320453
0.307414
0.294277
0.281046
0.26772
0.254301
0.24079
0.227193
0.213502
0.199728
0.185862
0.171914
0.157879
0.14376
0.12956
0.11528
0.100918
0.0864798
0.0719632
0.0573715
0.0427063
0.0279659
0.0131565
-0.00172584
-0.0166743
-0.0316946
-0.0467768
-0.0619266
-0.0771397
-0.0924174
-0.107754
-0.123154
-0.13861
-0.154128
-0.169699
-0.185329
-0.201012
-0.216749
-0.23254
-0.24838
-0.26427
-0.280211
-0.296197
-0.312231
-0.328306
-0.344429
-0.360592
-0.376795
-0.393038
-0.40932
-0.425637
-0.441987
-0.458374
-0.47479
-0.491238
-0.507715
-0.524216
-0.540749
-0.5573
-0.573872
-0.590468
-0.607076
-0.623701
-0.640339
-0.656989
-0.673648
-0.690311
-0.706977
-0.723642
-0.74031
-0.75697
-0.773623
-0.790269
-0.806904
-0.823525
-0.840134
-0.856724
-0.873299
-0.889849
-0.906381
-0.922885
-0.939362
-0.955813
-0.97223
-0.988612
-1.00495
-1.02125
-1.0375
-1.05369
-1.06984
-1.08594
-1.10201
-1.11807
-1.1342
-1.15045
-1.1669
-1.18365
-1.20067
-1.21783
-1.23481
-1.25105
-1.26592
-1.27886
-1.28985
-1.29901
-1.30753
-1.31581
-1.3256
-1.33626
0.749808
0.760911
0.772751
0.786344
0.800043
0.813556
0.825636
0.835838
0.843832
0.849863
0.854346
0.857788
0.860585
0.863004
0.865164
0.867097
0.868786
0.870201
0.871314
0.872108
0.872574
0.872714
0.872529
0.872026
0.871212
0.870094
0.868676
0.866964
0.864963
0.862677
0.86011
0.857266
0.854147
0.850759
0.847105
0.843189
0.839016
0.834589
0.829913
0.824992
0.819831
0.814436
0.80881
0.802959
0.796886
0.790597
0.784097
0.777388
0.770476
0.763365
0.756059
0.74856
0.740874
0.733004
0.724951
0.716722
0.708317
0.699741
0.690996
0.682084
0.673009
0.663771
0.654376
0.644826
0.635122
0.625265
0.61526
0.605109
0.594813
0.584375
0.573796
0.56308
0.552226
0.541238
0.530119
0.518869
0.50749
0.495984
0.484355
0.472601
0.460725
0.448733
0.436618
0.424391
0.412047
0.399591
0.387025
0.374347
0.361564
0.34867
0.335676
0.322577
0.309376
0.296075
0.282676
0.269179
0.255587
0.2419
0.228122
0.21425
0.200291
0.186239
0.1721
0.157874
0.143563
0.129167
0.114689
0.100129
0.0854903
0.0707725
0.0559801
0.0411081
0.0261663
0.0111493
-0.00393714
-0.0190932
-0.0343185
-0.0496079
-0.0649671
-0.0803849
-0.0958684
-0.111414
-0.127017
-0.14268
-0.158402
-0.174178
-0.19001
-0.205895
-0.221835
-0.237822
-0.253861
-0.269947
-0.286079
-0.302258
-0.31848
-0.334746
-0.35105
-0.367394
-0.383776
-0.400198
-0.41665
-0.433138
-0.449654
-0.466202
-0.482779
-0.499381
-0.51601
-0.53266
-0.549332
-0.566023
-0.582728
-0.599452
-0.616185