/*--------------------------------*- C++ -*----------------------------------*\
  =========                 |
  \\      /  F ield         | OpenFOAM: The Open Source CFD Toolbox
   \\    /   O peration     | Website:  https://openfoam.org
    \\  /    A nd           | Version:  8
     \\/     M anipulation  |
\*---------------------------------------------------------------------------*/
FoamFile
{
    version     2.0;
    format      ascii;
    class       volVectorField;
    location    "0.22";
    object      U;
}
// * * * * * * * * * * * * * * * * * * * * * * * * * * * * * * * * * * * * * //

dimensions      [0 1 -1 0 0 0 0];

internalField   nonuniform List<vector> 
112642
(
(15.0001 6.28446e-07 1.7598e-21)
(15.0001 4.26996e-06 4.5514e-21)
(15.0001 -1.67892e-05 7.55458e-21)
(15 -1.89167e-05 -9.47706e-22)
(15 -1.72701e-05 -9.7345e-21)
(15 -1.90029e-05 7.16262e-21)
(15 -1.91414e-05 2.02447e-22)
(15 -1.89965e-05 -1.48688e-21)
(15 -1.73947e-05 -3.18234e-21)
(15 -1.51884e-05 3.26686e-21)
(15 -1.23628e-05 4.92307e-23)
(15 -9.38474e-06 -1.3528e-21)
(15 -6.35577e-06 -8.31207e-24)
(15 -3.4346e-06 6.88422e-22)
(15 -5.0667e-07 1.1119e-21)
(15 2.39671e-06 2.44465e-21)
(15 5.2742e-06 -2.24163e-21)
(15 8.20627e-06 4.49123e-21)
(15 1.11254e-05 -3.67601e-21)
(15 1.41014e-05 -5.9303e-21)
(14.9999 1.71486e-05 -1.13845e-20)
(14.9999 2.03045e-05 -5.12488e-21)
(14.9999 2.34856e-05 -5.55764e-21)
(14.9999 2.68211e-05 -3.31464e-21)
(14.9999 3.01839e-05 2.98428e-21)
(14.9999 3.37355e-05 6.77189e-21)
(14.9999 3.73235e-05 -1.09438e-20)
(14.9999 4.09908e-05 1.50718e-20)
(14.9999 4.47933e-05 -1.0838e-22)
(14.9999 4.86709e-05 8.22895e-21)
(14.9999 5.26539e-05 8.31415e-21)
(14.9999 5.66286e-05 1.04077e-22)
(14.9999 6.06864e-05 8.84026e-21)
(14.9999 6.48244e-05 9.27745e-21)
(14.9999 6.88737e-05 -9.49013e-21)
(14.9999 7.30831e-05 1.07891e-22)
(14.9999 7.72472e-05 -1.52565e-20)
(14.9999 8.14685e-05 9.91124e-21)
(14.9999 8.58103e-05 -4.2712e-21)
(14.9999 9.00001e-05 2.04729e-20)
(14.9999 9.43335e-05 -2.06884e-20)
(14.9999 9.859e-05 1.67966e-20)
(14.9999 0.000102796 3.97575e-21)
(14.9999 0.000107074 -1.04038e-22)
(14.9999 0.000111387 1.06685e-20)
(14.9999 0.000115606 3.52094e-21)
(14.9999 0.00011997 1.06334e-20)
(14.9999 0.000124253 -1.79668e-20)
(14.9999 0.000128409 -1.07532e-20)
(14.9999 0.000132716 2.59875e-20)
(14.9999 0.000136898 7.86973e-21)
(14.9999 0.000141163 2.11619e-20)
(14.9999 0.000145323 2.10903e-20)
(14.9999 0.00014959 -8.23435e-21)
(14.9999 0.00015371 -8.46458e-21)
(14.9999 0.000157789 -1.03478e-20)
(14.9999 0.000161856 -2.05352e-20)
(14.9999 0.000165947 8.78938e-21)
(14.9999 0.000169857 1.01534e-20)
(14.9999 0.000173868 -1.00368e-20)
(14.9999 0.000177797 9.92412e-21)
(14.9999 0.000181555 -7.38633e-23)
(14.9999 0.000185431 9.64791e-21)
(14.9999 0.000189182 -7.7424e-23)
(14.9999 0.000192961 9.34148e-21)
(14.9999 0.000196698 -1.90055e-20)
(14.9999 0.000200301 0)
(14.9999 0.000204062 -8.77238e-21)
(14.9999 0.000207654 8.5961e-21)
(14.9999 0.000211186 8.40495e-21)
(14.9999 0.000214679 1.86312e-20)
(14.9999 0.000218127 -1.04684e-20)
(14.9999 0.000221499 -1.57179e-20)
(14.9999 0.000224834 1.84588e-20)
(14.9999 0.000228228 -2.18139e-20)
(14.9999 0.0002315 1.09183e-20)
(14.9999 0.000234582 2.50317e-20)
(14.9999 0.000237846 -4.5781e-21)
(14.9999 0.000240887 0)
(14.9999 0.000243905 0)
(14.9999 0.000246761 0)
(14.9999 0.000249714 -5.68603e-21)
(14.9999 0.000252551 0)
(14.9999 0.000255372 -6.68138e-21)
(14.9999 0.000257996 2.3812e-20)
(14.9999 0.000260564 9.30545e-21)
(14.9999 0.000263219 -4.07992e-20)
(14.9999 0.00026566 8.1884e-21)
(15 0.00026808 8.60535e-21)
(15 0.000270416 -1.24102e-20)
(15 0.000272742 -3.16098e-21)
(15 0.000274995 2.85614e-21)
(15 0.000277094 2.50936e-21)
(15 0.000279134 2.33817e-20)
(15 0.000281063 2.76458e-20)
(15 0.000282978 -1.13922e-20)
(15 0.000284767 -2.61054e-20)
(15 0.000286557 0)
(15 0.000288184 5.48508e-22)
(15 0.000289763 1.3303e-20)
(15 0.000291277 -1.33612e-22)
(15 0.00029273 -1.29379e-20)
(15 0.00029413 0)
(15 0.000295364 2.70862e-20)
(15 0.000296598 -6.24432e-21)
(15 0.000297695 -1.17079e-20)
(15 0.000298779 -4.59483e-21)
(15 0.000299739 -1.37477e-20)
(15 0.000300634 -1.68453e-20)
(15 0.000301353 6.83524e-21)
(15 0.000301991 3.75007e-21)
(15.0001 0.000302611 1.3982e-20)
(15.0001 0.000303132 -4.61057e-21)
(15.0001 0.000303623 1.41268e-20)
(15.0001 0.000303857 -1.07407e-20)
(15.0001 0.000304188 -8.29246e-21)
(15.0001 0.000304441 -2.03719e-20)
(15.0001 0.000304441 6.62858e-21)
(15.0001 0.000304405 3.57257e-20)
(15.0001 0.000304205 -2.15764e-20)
(15.0001 0.000304102 -1.42689e-20)
(15.0001 0.000303771 1.61914e-20)
(15.0001 0.000303387 1.44037e-20)
(15.0001 0.000302687 5.45316e-21)
(15.0001 0.000302201 -4.75547e-20)
(15.0001 0.00030144 9.8664e-21)
(15.0001 0.000300491 4.22202e-21)
(15.0001 0.000299601 -2.89841e-20)
(15.0001 0.000298634 3.66027e-20)
(15.0001 0.000297539 3.02958e-21)
(15.0002 0.000296357 -1.45226e-20)
(15.0002 0.00029509 -9.84946e-21)
(15.0002 0.000293706 2.72285e-20)
(15.0002 0.000292042 -2.77572e-20)
(15.0002 0.000290576 1.24616e-20)
(15.0002 0.000288867 1.47108e-20)
(15.0002 0.000287061 1.46067e-20)
(15.0002 0.000285258 -2.9563e-20)
(15.0002 0.000283223 -4.46428e-20)
(15.0002 0.000281345 1.44558e-22)
(15.0002 0.000279158 1.46718e-20)
(15.0002 0.00027681 0)
(15.0002 0.000274602 1.70077e-20)
(15.0002 0.000272064 0)
(15.0002 0.000269533 -1.48309e-20)
(15.0002 0.000266951 1.85081e-20)
(15.0002 0.000264259 -4.0973e-21)
(15.0002 0.000261254 1.92325e-20)
(15.0002 0.000258389 1.48514e-20)
(15.0002 0.000255266 -4.03807e-20)
(15.0003 0.000252222 -8.96916e-21)
(15.0003 0.000248861 6.3468e-21)
(15.0003 0.000245702 3.63094e-20)
(15.0003 0.000242204 -7.222e-21)
(15.0003 0.000238444 0)
(15.0003 0.000234894 7.91101e-21)
(15.0003 0.000231045 3.82225e-20)
(15.0003 0.000227169 3.79291e-20)
(15.0003 0.000223338 -3.86048e-20)
(15.0003 0.00021929 9.69052e-21)
(15.0003 0.000214932 2.57303e-22)
(15.0003 0.000210788 1.44765e-20)
(15.0003 0.000206124 -1.46957e-20)
(15.0003 0.000201616 2.96599e-20)
(15.0003 0.000197091 1.8913e-21)
(15.0003 0.00019228 -5.58653e-20)
(15.0003 0.000187735 -1.42702e-20)
(15.0003 0.000182745 -1.31794e-20)
(15.0003 0.000177764 -3.36696e-22)
(15.0003 0.00017281 3.72944e-22)
(15.0003 0.000167525 1.40783e-20)
(15.0003 0.000162285 -1.14033e-24)
(15.0003 0.000156915 -8.778e-20)
(15.0003 0.000151661 4.63211e-20)
(15.0003 0.000146286 -4.6655e-20)
(15.0003 0.000140539 4.47955e-20)
(15.0004 0.000135135 -4.55511e-20)
(15.0004 0.000129309 3.97396e-21)
(15.0004 0.000123744 4.56789e-20)
(15.0004 0.000117673 -4.31204e-21)
(15.0004 0.000111781 -3.27267e-20)
(15.0004 0.000105769 3.30738e-20)
(15.0004 9.97244e-05 1.32537e-20)
(15.0004 9.30729e-05 -1.91168e-20)
(15.0004 8.67154e-05 -8.06979e-20)
(15.0004 8.03803e-05 4.07806e-20)
(15.0004 7.3583e-05 -3.35218e-20)
(15.0004 6.70843e-05 2.00193e-20)
(15.0004 6.01136e-05 4.80023e-20)
(15.0004 5.3648e-05 -2.23903e-20)
(15.0004 4.76634e-05 8.28072e-21)
(15.0004 4.21178e-05 3.52298e-20)
(15.0004 3.82672e-05 -4.91869e-20)
(15.0004 3.67297e-05 3.86234e-20)
(15.0004 3.6937e-05 2.44854e-20)
(15.0004 3.96411e-05 5.35739e-20)
(15.0004 3.77928e-05 -4.32762e-20)
(15.0004 4.01074e-05 -5.13093e-20)
(15.0004 4.0315e-05 5.43712e-20)
(15.0002 3.80302e-06 -4.44057e-20)
(15.0004 -6.1946e-06 -1.05743e-20)
(15.0003 -1.46352e-05 1.3163e-20)
(15.0002 9.31505e-05 1.24873e-21)
(15.0001 9.8107e-05 8.69308e-21)
(15.0001 8.40585e-05 -6.68684e-21)
(15.0001 7.87576e-05 3.80565e-21)
(15.0001 7.33368e-05 6.0294e-21)
(15.0001 7.02424e-05 -1.78528e-22)
(15.0001 6.47594e-05 -8.86287e-22)
(15.0001 5.93493e-05 -1.89155e-22)
(15.0001 5.35388e-05 1.14945e-21)
(15 4.92057e-05 -2.32616e-22)
(15 4.60254e-05 -5.92197e-22)
(15 4.46437e-05 1.35709e-22)
(15 4.46661e-05 2.37953e-21)
(14.9999 4.62028e-05 -1.23833e-22)
(14.9999 4.90282e-05 -3.26643e-21)
(14.9999 5.311e-05 -1.2293e-22)
(14.9999 5.82277e-05 3.19181e-21)
(14.9999 6.43104e-05 -1.3143e-23)
(14.9999 7.12115e-05 -2.02171e-21)
(14.9998 7.89542e-05 -7.09775e-21)
(14.9998 8.72474e-05 -5.23445e-21)
(14.9998 9.61922e-05 -1.74602e-23)
(14.9998 0.000105562 -2.92242e-21)
(14.9998 0.000115491 6.23086e-21)
(14.9998 0.000125732 2.50262e-22)
(14.9998 0.000136263 -3.15463e-22)
(14.9997 0.000147083 -3.5494e-21)
(14.9997 0.000158078 -4.03122e-21)
(14.9997 0.00016931 4.17244e-21)
(14.9997 0.000180583 2.05902e-22)
(14.9997 0.000192046 -1.34652e-20)
(14.9997 0.000203609 3.64424e-20)
(14.9997 0.000215124 5.1814e-21)
(14.9997 0.000226835 9.27892e-21)
(14.9997 0.000238504 -1.09913e-20)
(14.9997 0.000250281 -1.85828e-22)
(14.9996 0.0002623 9.99581e-21)
(14.9996 0.000274132 2.57196e-20)
(14.9996 0.000286243 1.65798e-20)
(14.9996 0.000298228 -2.81419e-21)
(14.9996 0.000310245 1.02832e-20)
(14.9996 0.000322342 0)
(14.9996 0.000334517 3.51837e-21)
(14.9996 0.000346612 -7.1646e-21)
(14.9996 0.000358938 2.49868e-20)
(14.9996 0.000371095 -1.34798e-20)
(14.9996 0.000383161 -2.57616e-20)
(14.9996 0.000395435 7.62467e-21)
(14.9996 0.00040763 1.07242e-20)
(14.9996 0.000419789 4.85569e-21)
(14.9996 0.000431816 3.73245e-20)
(14.9996 0.00044403 1.89508e-20)
(14.9996 0.000455968 -8.77822e-23)
(14.9996 0.000467851 6.92884e-21)
(14.9996 0.000479706 -8.6744e-21)
(14.9996 0.000491455 -1.79301e-20)
(14.9996 0.000502994 2.9238e-20)
(14.9996 0.000514641 2.00894e-20)
(14.9996 0.00052609 5.52856e-22)
(14.9996 0.000537338 0)
(14.9996 0.000548708 9.6666e-21)
(14.9996 0.00055986 -9.52113e-21)
(14.9996 0.000570983 1.91646e-20)
(14.9997 0.000582004 5.49988e-23)
(14.9997 0.000592923 -7.10856e-23)
(14.9997 0.000603898 -1.89745e-20)
(14.9997 0.000614613 -2.06806e-20)
(14.9997 0.000625208 4.28862e-24)
(14.9997 0.000635656 2.10328e-20)
(14.9997 0.000646067 2.13939e-20)
(14.9997 0.000656273 -1.07772e-20)
(14.9997 0.000666274 4.53632e-21)
(14.9997 0.000676335 -1.09805e-20)
(14.9997 0.000686125 -1.84453e-20)
(14.9997 0.000695628 7.08179e-21)
(14.9997 0.000705258 1.1326e-20)
(14.9997 0.000714484 1.80775e-20)
(14.9998 0.000723567 -6.34951e-21)
(14.9998 0.000732346 1.77562e-20)
(14.9998 0.000741137 5.88256e-21)
(14.9998 0.000749693 -2.93378e-20)
(14.9998 0.00075812 -1.20002e-20)
(14.9998 0.000766161 1.20674e-20)
(14.9998 0.000774044 2.17393e-20)
(14.9998 0.000781881 -2.81753e-24)
(14.9998 0.000789432 1.23712e-20)
(14.9999 0.000796733 3.1111e-23)
(14.9999 0.000803841 -1.6184e-20)
(14.9999 0.000810898 -1.59535e-20)
(14.9999 0.000817602 -2.85024e-20)
(14.9999 0.000824012 2.2977e-20)
(14.9999 0.000830212 2.58967e-20)
(14.9999 0.000836225 6.09496e-21)
(14.9999 0.000842165 5.13311e-21)
(15 0.000847683 -1.46028e-20)
(15 0.000853104 -1.33e-20)
(15 0.000858087 -5.5346e-24)
(15 0.000862951 1.312e-20)
(15 0.000867612 1.35436e-20)
(15 0.000872078 -2.72254e-24)
(15 0.000876415 -1.3662e-20)
(15 0.000880304 -2.74628e-20)
(15.0001 0.000884084 1.09362e-20)
(15.0001 0.000887414 1.20004e-20)
(15.0001 0.00089066 -1.6021e-20)
(15.0001 0.000893694 -2.40099e-23)
(15.0001 0.000896491 1.10921e-20)
(15.0001 0.000898952 2.80527e-20)
(15.0001 0.000901005 -3.18625e-20)
(15.0002 0.00090299 -1.40721e-20)
(15.0002 0.000904734 -2.42516e-23)
(15.0002 0.000906177 4.86757e-21)
(15.0002 0.000907262 3.79015e-21)
(15.0002 0.000908264 1.12402e-20)
(15.0002 0.00090905 -1.43815e-20)
(15.0003 0.000909324 6.45462e-21)
(15.0003 0.00090939 7.88335e-22)
(15.0003 0.000909103 -7.21761e-21)
(15.0003 0.000908766 3.66847e-20)
(15.0003 0.000907972 -1.08799e-22)
(15.0003 0.000906918 -2.90866e-20)
(15.0003 0.000905257 -2.3479e-20)
(15.0004 0.000903682 4.95462e-23)
(15.0004 0.000901646 3.39203e-20)
(15.0004 0.000899164 -1.00753e-20)
(15.0004 0.000896683 1.47664e-20)
(15.0004 0.000893836 2.1753e-20)
(15.0004 0.000890621 -2.6037e-20)
(15.0005 0.000887258 -2.96489e-20)
(15.0005 0.000883584 4.20339e-20)
(15.0005 0.000879631 2.93353e-20)
(15.0005 0.000875169 -1.28505e-20)
(15.0005 0.000870661 -1.59698e-22)
(15.0005 0.000865865 -7.94242e-22)
(15.0005 0.000860768 -1.44654e-20)
(15.0006 0.000855478 -4.46378e-20)
(15.0006 0.000849701 3.35165e-22)
(15.0006 0.000843974 4.63097e-20)
(15.0006 0.000837796 3.09755e-20)
(15.0006 0.000831147 -1.5063e-21)
(15.0006 0.000824562 -1.32332e-22)
(15.0007 0.000817499 2.51481e-21)
(15.0007 0.000810133 0)
(15.0007 0.000802594 3.26107e-21)
(15.0007 0.000794831 1.52307e-20)
(15.0007 0.000786405 1.47653e-20)
(15.0007 0.000778158 -3.00149e-20)
(15.0007 0.000769449 -4.85656e-21)
(15.0008 0.000760468 1.47405e-20)
(15.0008 0.000751054 6.07636e-21)
(15.0008 0.000741784 2.76881e-20)
(15.0008 0.00073201 -2.16252e-20)
(15.0008 0.000721569 2.99557e-20)
(15.0008 0.000711276 -2.28375e-20)
(15.0008 0.000700469 3.84597e-20)
(15.0008 0.000689463 -3.90443e-20)
(15.0009 0.00067828 9.5984e-21)
(15.0009 0.000666748 2.39025e-20)
(15.0009 0.00065453 3.50661e-20)
(15.0009 0.00064252 1.47036e-20)
(15.0009 0.000629558 1.06483e-20)
(15.0009 0.000616716 1.52165e-20)
(15.0009 0.000603721 1.42431e-20)
(15.0009 0.000590088 -4.14107e-20)
(15.001 0.000576573 -4.20055e-20)
(15.001 0.000562386 1.50305e-20)
(15.001 0.000547992 -1.38811e-20)
(15.001 0.000533627 3.56149e-22)
(15.001 0.000518814 -1.44134e-20)
(15.001 0.000504011 -8.73865e-20)
(15.001 0.000489047 6.53802e-22)
(15.001 0.000474079 4.43463e-20)
(15.001 0.000459017 3.11848e-20)
(15.001 0.000443676 2.75858e-20)
(15.001 0.00042894 -7.55721e-20)
(15.001 0.000413821 3.11817e-20)
(15.0011 0.00039929 1.71693e-20)
(15.0011 0.000384231 3.21508e-20)
(15.0011 0.000369876 2.7719e-20)
(15.0011 0.000355539 -1.85448e-20)
(15.0011 0.000341592 -1.40999e-20)
(15.0011 0.000327376 -4.60566e-20)
(15.0011 0.000313876 -3.78962e-20)
(15.0011 0.000300826 -1.52077e-20)
(15.0011 0.000287514 -4.45398e-20)
(15.0011 0.0002747 1.20915e-20)
(15.0011 0.000261776 -1.25669e-20)
(15.0011 0.000248101 1.34143e-20)
(15.0011 0.000233445 -9.81186e-22)
(15.0011 0.000214323 -2.55906e-20)
(15.0011 0.000191045 2.19773e-20)
(15.0011 0.00015817 8.51588e-20)
(15.0012 0.000120109 -1.00934e-20)
(15.0012 7.13138e-05 -2.56573e-21)
(15.0013 3.21667e-05 -7.01243e-20)
(15.0013 -3.50367e-05 6.12455e-20)
(15.0012 -0.000117817 -1.47794e-20)
(15.001 -2.39406e-05 -8.07038e-20)
(15.0007 -1.60254e-05 -2.11167e-20)
(15.0005 -6.07376e-05 -2.6578e-21)
(15.0003 0.000153553 -5.2029e-21)
(15.0002 0.000167956 5.73114e-21)
(15.0002 0.000136413 2.88209e-21)
(15.0002 0.000123377 -7.7265e-21)
(15.0002 0.000107712 1.48528e-21)
(15.0002 0.000103352 0)
(15.0002 9.48247e-05 6.49664e-21)
(15.0001 8.73949e-05 -6.96366e-21)
(15.0001 7.84746e-05 3.85771e-21)
(15.0001 7.14858e-05 -4.44592e-22)
(15 6.58999e-05 -1.33428e-22)
(15 6.3029e-05 -5.34549e-22)
(14.9999 6.23507e-05 1.0498e-21)
(14.9999 6.4143e-05 7.38832e-22)
(14.9999 6.80493e-05 -4.75335e-21)
(14.9998 7.40617e-05 -5.8046e-21)
(14.9998 8.18639e-05 2.00912e-21)
(14.9998 9.1319e-05 2.34397e-21)
(14.9998 0.000102267 8.88493e-21)
(14.9997 0.000114597 2.20031e-21)
(14.9997 0.000128053 3.03403e-21)
(14.9997 0.000142614 -5.88993e-21)
(14.9997 0.000157998 2.91066e-21)
(14.9996 0.000174301 -1.32555e-20)
(14.9996 0.000191256 1.40283e-20)
(14.9996 0.000208748 3.49697e-21)
(14.9996 0.000226738 3.82253e-21)
(14.9995 0.000245142 -3.97558e-21)
(14.9995 0.000263891 -8.46731e-21)
(14.9995 0.000282863 1.31434e-20)
(14.9995 0.000302108 -2.27854e-20)
(14.9995 0.000321547 -1.43073e-20)
(14.9995 0.000341006 1.96858e-20)
(14.9995 0.000360755 1.92703e-20)
(14.9994 0.000380474 9.84745e-21)
(14.9994 0.000400351 -5.64651e-21)
(14.9994 0.000420506 4.31055e-21)
(14.9994 0.000440549 -2.0677e-20)
(14.9994 0.000460819 2.71987e-20)
(14.9994 0.000481101 6.47159e-21)
(14.9994 0.00050142 1.06909e-20)
(14.9994 0.000521905 1.07874e-20)
(14.9994 0.000542409 0)
(14.9994 0.000562833 -7.07972e-21)
(14.9994 0.000583464 3.39003e-21)
(14.9994 0.000603997 1.86672e-20)
(14.9994 0.000624463 -1.53259e-20)
(14.9994 0.000645054 -1.10361e-20)
(14.9994 0.000665609 1.41615e-20)
(14.9994 0.000686149 -1.91249e-20)
(14.9994 0.000706387 -1.37611e-20)
(14.9994 0.00072681 3.02914e-20)
(14.9994 0.000746966 8.49018e-21)
(14.9994 0.000767063 1.0923e-20)
(14.9994 0.000786952 2.34035e-20)
(14.9994 0.000806751 1.74882e-21)
(14.9994 0.000826341 -1.8203e-20)
(14.9994 0.000845909 1.96325e-20)
(14.9994 0.000865259 2.92196e-20)
(14.9994 0.000884355 1.02449e-20)
(14.9994 0.000903504 9.59432e-21)
(14.9994 0.000922474 7.00448e-23)
(14.9994 0.000941268 -2.96089e-20)
(14.9994 0.000959905 1.93573e-20)
(14.9994 0.000978433 1.01088e-20)
(14.9994 0.00099686 9.39952e-21)
(14.9994 0.00101503 -1.96037e-20)
(14.9995 0.00103299 -1.26862e-23)
(14.9995 0.00105076 1.83995e-21)
(14.9995 0.00106842 -1.06599e-20)
(14.9995 0.0010858 -1.34683e-20)
(14.9995 0.00110279 1.91167e-20)
(14.9995 0.00111965 1.90596e-20)
(14.9995 0.00113633 -7.69224e-21)
(14.9995 0.00115262 -7.45713e-21)
(14.9996 0.0011687 -2.58452e-20)
(14.9996 0.00118441 4.54289e-21)
(14.9996 0.00119987 -6.59446e-21)
(14.9996 0.00121484 -2.36136e-20)
(14.9996 0.00122972 2.99374e-20)
(14.9996 0.00124425 2.46739e-22)
(14.9997 0.00125851 -2.42333e-20)
(14.9997 0.00127218 -4.24336e-23)
(14.9997 0.00128566 3.18356e-23)
(14.9997 0.00129887 -1.72042e-20)
(14.9997 0.00131175 1.25042e-20)
(14.9998 0.00132421 2.10813e-20)
(14.9998 0.00133631 3.88384e-21)
(14.9998 0.00134813 3.51404e-21)
(14.9998 0.00135948 1.89328e-23)
(14.9998 0.00137046 -1.59155e-20)
(14.9999 0.00138107 -2.36382e-20)
(14.9999 0.00139135 -1.32249e-20)
(14.9999 0.00140138 3.98524e-20)
(14.9999 0.00141077 1.18494e-20)
(14.9999 0.00141986 -1.34611e-20)
(15 0.00142843 1.27125e-20)
(15 0.0014368 4.80875e-22)
(15 0.00144473 -1.36022e-20)
(15 0.00145221 2.61552e-22)
(15 0.00145948 0)
(15.0001 0.00146622 1.00042e-21)
(15.0001 0.00147264 -1.25721e-20)
(15.0001 0.00147837 -1.75149e-21)
(15.0001 0.00148382 1.62113e-20)
(15.0002 0.0014889 -1.9191e-20)
(15.0002 0.00149355 -1.41532e-20)
(15.0002 0.00149778 1.10158e-24)
(15.0002 0.00150146 -1.20112e-23)
(15.0003 0.0015048 2.86578e-20)
(15.0003 0.0015077 1.43088e-20)
(15.0003 0.00151007 -1.4386e-20)
(15.0003 0.00151202 1.44652e-20)
(15.0004 0.00151361 2.02033e-20)
(15.0004 0.00151491 -2.91288e-20)
(15.0004 0.00151543 -2.25635e-20)
(15.0004 0.00151551 7.67074e-21)
(15.0005 0.00151508 3.66756e-20)
(15.0005 0.00151442 7.73802e-21)
(15.0005 0.00151301 -2.29206e-20)
(15.0005 0.00151117 0)
(15.0006 0.0015087 1.48344e-20)
(15.0006 0.0015058 2.42919e-20)
(15.0006 0.00150227 -1.48731e-20)
(15.0007 0.00149835 -1.48384e-20)
(15.0007 0.0014941 1.49431e-20)
(15.0007 0.00148916 -2.25211e-20)
(15.0007 0.00148367 -1.49115e-20)
(15.0008 0.00147788 1.50145e-20)
(15.0008 0.00147162 2.75227e-20)
(15.0008 0.00146487 -4.10289e-20)
(15.0008 0.00145754 -1.55364e-21)
(15.0009 0.00144982 -1.26654e-20)
(15.0009 0.0014417 1.42201e-20)
(15.0009 0.00143308 -2.98099e-20)
(15.0009 0.00142394 1.51581e-20)
(15.001 0.00141425 3.07547e-20)
(15.001 0.00140438 1.61606e-20)
(15.001 0.00139386 -1.38198e-20)
(15.001 0.00138273 -1.49454e-20)
(15.0011 0.00137133 4.77666e-20)
(15.0011 0.00135936 -1.43391e-22)
(15.0011 0.001347 -1.50923e-20)
(15.0011 0.00133404 0)
(15.0012 0.00132075 3.85952e-20)
(15.0012 0.00130671 -3.95279e-20)
(15.0012 0.00129272 0)
(15.0012 0.00127781 2.06656e-20)
(15.0013 0.00126251 -2.11227e-20)
(15.0013 0.00124669 1.52686e-20)
(15.0013 0.00123065 6.56367e-21)
(15.0013 0.00121397 2.99949e-20)
(15.0014 0.00119653 -2.0948e-22)
(15.0014 0.00117899 -4.63925e-20)
(15.0014 0.00116065 1.49973e-20)
(15.0014 0.00114174 -5.73015e-20)
(15.0014 0.00112259 3.95536e-20)
(15.0015 0.00110282 -2.49749e-20)
(15.0015 0.0010824 -1.50574e-20)
(15.0015 0.00106178 -2.55506e-20)
(15.0015 0.00104008 1.08888e-20)
(15.0015 0.00101829 4.22779e-20)
(15.0016 0.000996142 -1.28751e-20)
(15.0016 0.000973037 -7.17218e-20)
(15.0016 0.000949964 -5.53465e-20)
(15.0016 0.00092607 4.28324e-20)
(15.0016 0.000901822 -5.72257e-20)
(15.0016 0.000877448 0)
(15.0017 0.000852772 -4.41344e-20)
(15.0017 0.000827873 -1.462e-20)
(15.0017 0.000802955 5.87121e-20)
(15.0017 0.00077799 -3.03809e-20)
(15.0017 0.000752859 4.70034e-20)
(15.0017 0.000727606 -5.97539e-20)
(15.0017 0.000702981 3.17682e-20)
(15.0018 0.000678043 4.55862e-20)
(15.0018 0.000653597 4.6394e-20)
(15.0018 0.000629098 4.62251e-20)
(15.0018 0.000605119 3.98989e-21)
(15.0018 0.000581455 9.2054e-22)
(15.0018 0.000558349 -2.01573e-20)
(15.0018 0.00053513 1.97481e-20)
(15.0018 0.00051263 0)
(15.0018 0.000490486 -4.77064e-20)
(15.0018 0.000468119 6.80451e-20)
(15.0018 0.000445929 -3.46913e-20)
(15.0018 0.00042335 -1.91675e-20)
(15.0018 0.000398318 1.16317e-20)
(15.0018 0.000370249 -9.40064e-20)
(15.0018 0.00033443 1.47819e-20)
(15.0018 0.000291449 4.64892e-20)
(15.0019 0.000232734 9.62699e-21)
(15.0019 0.000175971 1.7428e-21)
(15.002 0.000102792 -2.64732e-20)
(15.0021 6.83324e-05 1.63041e-20)
(15.0021 -4.4401e-05 -3.73598e-21)
(15.002 -6.59025e-05 -6.01411e-20)
(15.0018 -3.04224e-05 2.21672e-20)
(15.0011 -2.43203e-05 1.91135e-20)
(15.0008 -0.000102759 -1.6196e-20)
(15.0005 0.000173502 0)
(15.0004 0.000167523 0)
(15.0003 0.000129861 1.59283e-21)
(15.0003 0.000103189 1.50291e-21)
(15.0003 7.78303e-05 2.10199e-21)
(15.0003 7.39508e-05 5.73377e-22)
(15.0003 6.75891e-05 2.39997e-21)
(15.0002 6.45742e-05 -2.38922e-21)
(15.0002 5.9145e-05 9.6419e-22)
(15.0001 5.50864e-05 6.59259e-22)
(15 5.20604e-05 1.77984e-22)
(15 5.16713e-05 5.57663e-25)
(14.9999 5.35105e-05 -1.8756e-21)
(14.9999 5.82241e-05 2.11542e-21)
(14.9998 6.53344e-05 8.12818e-22)
(14.9998 7.49364e-05 1.76887e-21)
(14.9997 8.67321e-05 -4.68539e-21)
(14.9997 0.000100639 2.36135e-21)
(14.9997 0.000116382 -8.82849e-21)
(14.9996 0.000133845 8.04614e-23)
(14.9996 0.000152843 2.16963e-21)
(14.9996 0.000173256 -3.143e-21)
(14.9995 0.000194796 6.10438e-21)
(14.9995 0.000217538 9.15199e-23)
(14.9995 0.000241195 -1.34618e-20)
(14.9994 0.000265647 -7.47344e-21)
(14.9994 0.000290794 3.75671e-21)
(14.9994 0.000316595 1.50833e-23)
(14.9993 0.00034289 0)
(14.9993 0.000369551 8.75856e-21)
(14.9993 0.000396606 1.35777e-20)
(14.9993 0.000424008 -9.27302e-21)
(14.9993 0.000451562 -1.00279e-20)
(14.9992 0.000479458 -9.91338e-21)
(14.9992 0.000507482 -9.93456e-21)
(14.9992 0.000535741 -1.03533e-20)
(14.9992 0.00056428 1.19684e-21)
(14.9992 0.000592784 -2.11246e-20)
(14.9992 0.00062158 -1.70314e-20)
(14.9991 0.000650408 4.54973e-21)
(14.9991 0.000679334 4.38429e-21)
(14.9991 0.000708484 6.71338e-21)
(14.9991 0.000737704 1.12871e-20)
(14.9991 0.000766814 -9.68552e-23)
(14.9991 0.000796155 7.31617e-21)
(14.9991 0.000825392 2.27162e-20)
(14.9991 0.000854649 1.13653e-20)
(14.9991 0.000883936 -7.72929e-21)
(14.9991 0.000913188 1.12804e-20)
(14.9991 0.000942354 -6.54921e-21)
(14.9991 0.000971352 -8.13776e-21)
(14.9991 0.00100036 -8.55312e-21)
(14.9991 0.00102906 8.61716e-21)
(14.9991 0.0010577 1.37382e-20)
(14.9991 0.00108599 -8.89228e-21)
(14.9991 0.00111423 2.0012e-20)
(14.9991 0.00114224 -1.77099e-21)
(14.9991 0.00117009 -3.09648e-20)
(14.9991 0.00119772 -9.46315e-21)
(14.9991 0.00122508 9.54412e-21)
(14.9991 0.00125236 9.7571e-21)
(14.9991 0.00127938 2.99441e-20)
(14.9992 0.00130623 -9.79996e-21)
(14.9992 0.0013329 -2.03699e-20)
(14.9992 0.00135929 4.00082e-22)
(14.9992 0.00138549 9.70748e-21)
(14.9992 0.00141148 -1.04559e-20)
(14.9992 0.00143719 9.26477e-21)
(14.9992 0.00146259 2.14993e-20)
(14.9993 0.00148766 1.79068e-20)
(14.9993 0.00151248 -3.06868e-20)
(14.9993 0.0015368 -1.96284e-20)
(14.9993 0.00156081 1.12116e-20)
(14.9993 0.00158459 3.36612e-21)
(14.9994 0.00160791 1.14368e-20)
(14.9994 0.00163077 4.07552e-21)
(14.9994 0.00165316 -1.45624e-20)
(14.9994 0.00167526 2.24413e-21)
(14.9994 0.00169679 -2.54624e-20)
(14.9995 0.00171799 1.75392e-20)
(14.9995 0.00173869 -5.82387e-21)
(14.9995 0.00175901 -3.67901e-20)
(14.9995 0.00177864 6.72459e-21)
(14.9996 0.00179794 2.49358e-20)
(14.9996 0.00181674 2.72175e-23)
(14.9996 0.00183509 7.90482e-21)
(14.9996 0.00185293 -1.26965e-20)
(14.9997 0.00187023 -3.45799e-20)
(14.9997 0.001887 3.75217e-21)
(14.9997 0.00190327 3.35284e-24)
(14.9998 0.00191909 1.31657e-20)
(14.9998 0.00193428 1.32794e-20)
(14.9998 0.00194892 6.17357e-21)
(14.9998 0.00196311 9.38223e-21)
(14.9999 0.00197653 -1.186e-20)
(14.9999 0.0019895 -1.36523e-20)
(14.9999 0.0020018 -1.37286e-20)
(15 0.00201379 -1.32394e-20)
(15 0.00202509 4.18888e-20)
(15 0.0020357 1.3958e-20)
(15.0001 0.00204599 -1.4572e-20)
(15.0001 0.00205558 -1.40815e-20)
(15.0001 0.00206469 -1.54525e-20)
(15.0002 0.00207297 1.59218e-20)
(15.0002 0.00208075 -3.27775e-20)
(15.0002 0.00208792 -1.42874e-20)
(15.0003 0.00209437 4.60065e-20)
(15.0003 0.00210028 2.87915e-20)
(15.0003 0.00210561 -2.51802e-20)
(15.0004 0.00211029 -6.12896e-21)
(15.0004 0.00211431 -3.86422e-23)
(15.0004 0.00211769 3.18898e-23)
(15.0005 0.00212047 2.93068e-20)
(15.0005 0.00212259 -5.87641e-21)
(15.0005 0.00212423 -2.09713e-20)
(15.0006 0.00212493 -8.10364e-21)
(15.0006 0.00212504 2.20279e-20)
(15.0007 0.00212438 2.96788e-20)
(15.0007 0.00212316 0)
(15.0007 0.00212104 -1.49433e-20)
(15.0008 0.00211836 -6.07712e-21)
(15.0008 0.00211487 0)
(15.0008 0.00211059 -9.73338e-21)
(15.0009 0.00210548 -1.01772e-20)
(15.0009 0.00209988 -1.06112e-20)
(15.001 0.00209363 -1.514e-20)
(15.001 0.00208649 -1.1428e-20)
(15.001 0.00207875 1.51103e-20)
(15.0011 0.00207031 -1.52337e-20)
(15.0011 0.00206115 6.94504e-23)
(15.0011 0.00205132 1.70837e-20)
(15.0012 0.00204087 1.36855e-20)
(15.0012 0.0020298 1.16215e-22)
(15.0012 0.00201797 -2.94905e-20)
(15.0013 0.00200552 -1.52097e-20)
(15.0013 0.00199241 0)
(15.0014 0.00197851 -1.78441e-23)
(15.0014 0.00196411 -1.17666e-21)
(15.0014 0.00194893 -3.41576e-20)
(15.0015 0.001933 5.04947e-20)
(15.0015 0.00191645 1.76481e-20)
(15.0015 0.00189918 -6.73583e-20)
(15.0016 0.00188147 0)
(15.0016 0.00186282 1.54467e-20)
(15.0016 0.00184369 4.18336e-21)
(15.0017 0.00182359 5.1169e-21)
(15.0017 0.0018031 1.52436e-20)
(15.0017 0.0017818 -2.1154e-20)
(15.0018 0.00175977 0)
(15.0018 0.00173707 1.54323e-20)
(15.0018 0.00171375 -7.29062e-21)
(15.0019 0.00168974 7.59502e-21)
(15.0019 0.00166473 -5.39883e-20)
(15.0019 0.00163943 2.40592e-20)
(15.002 0.00161301 -2.39299e-22)
(15.002 0.00158584 -2.44726e-20)
(15.002 0.0015583 1.50437e-20)
(15.0021 0.00152998 -1.5352e-20)
(15.0021 0.00150074 -1.50844e-20)
(15.0021 0.00147114 5.68858e-20)
(15.0021 0.0014403 1.46521e-20)
(15.0022 0.00140899 1.23108e-20)
(15.0022 0.00137714 -4.28049e-20)
(15.0022 0.00134434 -5.78957e-20)
(15.0022 0.00131125 4.36246e-20)
(15.0023 0.00127732 -1.43807e-20)
(15.0023 0.00124297 3.00389e-22)
(15.0023 0.00120832 1.45678e-20)
(15.0023 0.0011732 0)
(15.0024 0.00113771 6.03898e-20)
(15.0024 0.00110233 -3.05519e-20)
(15.0024 0.00106672 -3.0884e-20)
(15.0024 0.00103098 -6.23728e-20)
(15.0024 0.000995063 -1.68365e-20)
(15.0024 0.000959718 4.60542e-20)
(15.0025 0.000923914 -3.19906e-20)
(15.0025 0.000888613 -1.43528e-20)
(15.0025 0.000853334 -3.21674e-20)
(15.0025 0.00081871 -5.21381e-20)
(15.0025 0.000784168 5.21749e-20)
(15.0025 0.00075006 5.50105e-22)
(15.0025 0.000715919 -6.01967e-22)
(15.0025 0.000682408 3.44194e-20)
(15.0025 0.000649016 4.71298e-20)
(15.0025 0.000615047 2.0215e-20)
(15.0025 0.000580562 7.25372e-21)
(15.0025 0.000544833 -3.30312e-20)
(15.0025 0.000504917 -3.5366e-20)
(15.0025 0.000460512 1.01148e-21)
(15.0025 0.000405921 4.77592e-20)
(15.0026 0.000344395 -7.23005e-20)
(15.0026 0.000268729 3.74669e-20)
(15.0027 0.000208478 1.91106e-22)
(15.0029 0.000143361 0)
(15.0029 0.0001361 -1.59391e-20)
(15.0029 3.78895e-05 -3.25076e-20)
(15.0027 8.92962e-05 8.83397e-21)
(15.0024 -1.53272e-05 2.58762e-20)
(15.0015 -4.23102e-05 2.81658e-20)
(15.0012 -0.000177782 2.79921e-20)
(15.0008 0.000184881 0)
(15.0005 0.000140314 -9.06393e-21)
(15.0004 0.000115475 -1.97952e-21)
(15.0004 7.05016e-05 2.56063e-21)
(15.0004 3.84473e-05 3.71265e-21)
(15.0004 3.36725e-05 1.35934e-21)
(15.0003 3.02803e-05 -6.40626e-22)
(15.0003 3.2905e-05 3.1615e-21)
(15.0002 3.24778e-05 -3.59933e-21)
(15.0001 3.30009e-05 1.07771e-21)
(15.0001 3.36085e-05 -1.59411e-21)
(15 3.63373e-05 1.14143e-24)
(14.9999 4.1209e-05 2.96159e-22)
(14.9998 4.88632e-05 -3.82776e-22)
(14.9998 5.92132e-05 3.44881e-21)
(14.9997 7.228e-05 3.22487e-21)
(14.9997 8.78375e-05 -1.08952e-21)
(14.9996 0.000105807 -1.13364e-22)
(14.9996 0.000126013 -2.26046e-21)
(14.9995 0.000148235 -1.94958e-21)
(14.9995 0.000172314 -5.02108e-21)
(14.9994 0.000198099 -2.34348e-21)
(14.9994 0.000225335 -6.0151e-21)
(14.9993 0.000254037 1.21388e-20)
(14.9993 0.00028398 -3.65753e-21)
(14.9993 0.000314961 -7.23885e-21)
(14.9992 0.000346898 -7.61056e-21)
(14.9992 0.00037976 -1.17566e-20)
(14.9992 0.000413284 -4.10454e-21)
(14.9991 0.000447401 0)
(14.9991 0.000482101 -1.343e-20)
(14.9991 0.000517277 -9.3537e-21)
(14.999 0.000552817 3.16924e-22)
(14.999 0.000588828 -4.65176e-21)
(14.999 0.000625086 -1.00834e-20)
(14.999 0.000661698 -1.58052e-20)
(14.9989 0.000698642 -1.05899e-20)
(14.9989 0.000735693 2.1428e-20)
(14.9989 0.000773103 -1.49374e-21)
(14.9989 0.000810709 -1.73762e-20)
(14.9989 0.000848396 -4.62144e-21)
(14.9989 0.000886329 1.02393e-22)
(14.9989 0.000924427 -9.32747e-23)
(14.9988 0.000962394 -1.13008e-20)
(14.9988 0.00100059 1.13547e-20)
(14.9988 0.00103884 -1.14021e-20)
(14.9988 0.00107701 1.14555e-20)
(14.9988 0.00111525 1.11061e-22)
(14.9988 0.00115349 7.79693e-21)
(14.9988 0.00119152 1.17728e-20)
(14.9988 0.00122947 3.13633e-21)
(14.9988 0.00126734 -3.05037e-21)
(14.9988 0.00130488 2.94466e-21)
(14.9988 0.0013423 1.13414e-20)
(14.9988 0.00137939 -1.12796e-20)
(14.9988 0.0014163 -1.13882e-20)
(14.9988 0.00145294 2.04375e-20)
(14.9988 0.00148938 0)
(14.9989 0.00152555 -1.1006e-20)
(14.9989 0.00156151 -2.1767e-20)
(14.9989 0.00159721 1.07497e-20)
(14.9989 0.00163255 -1.06124e-20)
(14.9989 0.00166774 2.09524e-20)
(14.9989 0.00170271 1.01373e-20)
(14.9989 0.00173726 1.02199e-20)
(14.999 0.00177154 -5.24504e-22)
(14.999 0.00180552 -1.05372e-20)
(14.999 0.00183925 -1.92516e-20)
(14.999 0.00187254 9.46775e-21)
(14.999 0.00190526 9.12601e-21)
(14.9991 0.0019377 2.15869e-21)
(14.9991 0.00196969 -8.75377e-21)
(14.9991 0.00200117 -5.7332e-21)
(14.9991 0.00203222 -8.22781e-21)
(14.9992 0.00206273 -8.10283e-21)
(14.9992 0.00209272 1.95088e-20)
(14.9992 0.0021221 -2.35918e-20)
(14.9992 0.00215107 -9.78692e-23)
(14.9993 0.00217938 1.21384e-20)
(14.9993 0.00220706 -1.21886e-20)
(14.9993 0.00223416 1.28599e-20)