/*--------------------------------*- C++ -*----------------------------------*\
  =========                 |
  \\      /  F ield         | OpenFOAM: The Open Source CFD Toolbox
   \\    /   O peration     | Website:  https://openfoam.org
    \\  /    A nd           | Version:  8
     \\/     M anipulation  |
\*---------------------------------------------------------------------------*/
FoamFile
{
    version     2.0;
    format      ascii;
    class       volVectorField;
    location    "0.15";
    object      U;
}
// * * * * * * * * * * * * * * * * * * * * * * * * * * * * * * * * * * * * * //

dimensions      [0 1 -1 0 0 0 0];

internalField   nonuniform List<vector> 
112601
(
(15 5.52493e-08 -3.00244e-24)
(15 7.32949e-07 -7.79426e-23)
(14.9999 1.89784e-06 -4.64921e-22)
(14.9999 4.47551e-06 1.46614e-22)
(14.9999 7.07266e-06 2.64439e-21)
(14.9999 9.56599e-06 -2.74915e-21)
(14.9999 1.22159e-05 -1.05535e-22)
(14.9999 1.5448e-05 1.10226e-21)
(14.9999 1.90381e-05 3.51893e-21)
(14.9998 2.31543e-05 -5.84665e-21)
(14.9998 2.73352e-05 -1.56224e-22)
(14.9998 3.18414e-05 1.03484e-20)
(14.9998 3.67848e-05 6.86029e-21)
(14.9998 4.17031e-05 7.30462e-21)
(14.9998 4.69612e-05 6.60981e-21)
(14.9998 5.21707e-05 1.11633e-20)
(14.9998 5.75169e-05 -8.42026e-21)
(14.9998 6.32066e-05 1.50151e-20)
(14.9998 6.86509e-05 -1.12134e-20)
(14.9998 7.41539e-05 -1.67668e-20)
(14.9998 7.96993e-05 -3.03567e-20)
(14.9998 8.54292e-05 -1.3019e-20)
(14.9998 9.0896e-05 -1.35186e-20)
(14.9998 9.66069e-05 -7.80334e-21)
(14.9997 0.000102085 6.71139e-21)
(14.9997 0.000107844 1.48704e-20)
(14.9997 0.000113396 -2.34172e-20)
(14.9997 0.000118863 3.13457e-20)
(14.9997 0.000124458 -2.17057e-22)
(14.9997 0.00013 1.63493e-20)
(14.9997 0.000135587 1.61807e-20)
(14.9997 0.00014094 1.98765e-22)
(14.9997 0.000146337 1.6562e-20)
(14.9997 0.000151758 1.70846e-20)
(14.9997 0.000156857 -1.71892e-20)
(14.9997 0.000162183 1.92628e-22)
(14.9997 0.000167321 -2.67323e-20)
(14.9997 0.000172472 1.7185e-20)
(14.9997 0.000177791 -7.40882e-21)
(14.9997 0.000182707 3.45952e-20)
(14.9997 0.000187828 -3.45447e-20)
(14.9997 0.000192732 2.76166e-20)
(14.9998 0.000197476 6.59336e-21)
(14.9998 0.000202282 -1.64732e-22)
(14.9998 0.000207104 1.70459e-20)
(14.9998 0.000211688 5.68005e-21)
(14.9998 0.000216493 1.66515e-20)
(14.9998 0.000221091 -2.77486e-20)
(14.9998 0.00022541 -1.65216e-20)
(14.9998 0.000229937 3.93276e-20)
(14.9998 0.000234198 1.1753e-20)
(14.9998 0.000238567 3.16605e-20)
(14.9998 0.000242717 3.12794e-20)
(14.9998 0.000247023 -1.19844e-20)
(14.9998 0.000251056 -1.22248e-20)
(14.9998 0.000255006 -1.49783e-20)
(14.9998 0.000258929 -2.94957e-20)
(14.9998 0.000262877 1.24055e-20)
(14.9998 0.000266531 1.43686e-20)
(14.9998 0.000270337 -1.41053e-20)
(14.9998 0.000274007 1.3846e-20)
(14.9998 0.000277397 -1.02593e-22)
(14.9998 0.000280959 1.32797e-20)
(14.9998 0.000284309 -1.04109e-22)
(14.9998 0.000287685 1.26916e-20)
(14.9998 0.000290975 -2.55442e-20)
(14.9998 0.00029404 0)
(14.9998 0.000297321 -1.16978e-20)
(14.9998 0.000300334 1.13929e-20)
(14.9998 0.000303233 1.10719e-20)
(14.9998 0.000306063 2.42777e-20)
(14.9999 0.000308817 -1.35096e-20)
(14.9999 0.000311447 -2.03382e-20)
(14.9999 0.000314016 2.36285e-20)
(14.9999 0.000316665 -2.76702e-20)
(14.9999 0.000319137 1.37706e-20)
(14.9999 0.000321337 3.15389e-20)
(14.9999 0.000323791 -5.64531e-21)
(14.9999 0.000325938 0)
(14.9999 0.00032805 0)
(14.9999 0.000329946 0)
(14.9999 0.000331975 -6.99171e-21)
(14.9999 0.00033385 0)
(14.9999 0.000335709 -8.03837e-21)
(14.9999 0.000337311 2.86403e-20)
(14.9999 0.000338834 1.11964e-20)
(14.9999 0.000340487 -4.86151e-20)
(14.9999 0.000341866 9.6843e-21)
(14.9999 0.000343215 1.0134e-20)
(14.9999 0.000344469 -1.45668e-20)
(14.9999 0.000345713 -3.69873e-21)
(15 0.000346872 3.32228e-21)
(15 0.000347843 2.90079e-21)
(15 0.000348744 2.69427e-20)
(15 0.000349513 3.16878e-20)
(15 0.000350276 -1.30208e-20)
(15 0.000350891 -2.96617e-20)
(15 0.000351514 0)
(15 0.000351942 5.87182e-22)
(15 0.00035232 1.49123e-20)
(15 0.000352626 -1.88489e-22)
(15 0.000352861 -1.43336e-20)
(15 0.000353044 0)
(15 0.000353032 2.98422e-20)
(15 0.000353028 -7.07164e-21)
(15 0.000352872 -1.27292e-20)
(15 0.000352711 -5.12364e-21)
(15 0.000352413 -1.48892e-20)
(15 0.000352044 -1.82365e-20)
(15.0001 0.000351482 7.48673e-21)
(15.0001 0.000350831 4.08534e-21)
(15.0001 0.000350169 1.48866e-20)
(15.0001 0.000349406 -4.97164e-21)
(15.0001 0.000348611 1.49122e-20)
(15.0001 0.000347532 -1.14667e-20)
(15.0001 0.000346583 -8.58247e-21)
(15.0001 0.00034555 -2.13196e-20)
(15.0001 0.00034425 6.97642e-21)
(15.0001 0.000342928 3.67881e-20)
(15.0001 0.000341444 -2.22879e-20)
(15.0001 0.000340093 -1.46051e-20)
(15.0001 0.000338513 1.67267e-20)
(15.0001 0.000336894 1.46157e-20)
(15.0001 0.000334948 5.39078e-21)
(15.0001 0.000333263 -4.80703e-20)
(15.0001 0.000331289 1.00015e-20)
(15.0001 0.000329124 4.08322e-21)
(15.0002 0.000327036 -2.87595e-20)
(15.0002 0.000324878 3.64056e-20)
(15.0002 0.000322584 2.84942e-21)
(15.0002 0.000320203 -1.42068e-20)
(15.0002 0.000317742 -9.84199e-21)
(15.0002 0.000315153 2.65039e-20)
(15.0002 0.000312272 -2.68758e-20)
(15.0002 0.000309613 1.21999e-20)
(15.0002 0.000306706 1.40245e-20)
(15.0002 0.0003037 1.38515e-20)
(15.0002 0.000300712 -2.80036e-20)
(15.0002 0.000297488 -4.19747e-20)
(15.0002 0.000294439 1.33827e-22)
(15.0002 0.00029108 1.35872e-20)
(15.0002 0.000287564 0)
(15.0002 0.000284202 1.56773e-20)
(15.0002 0.000280512 0)
(15.0002 0.000276836 -1.33826e-20)
(15.0002 0.000273122 1.67028e-20)
(15.0002 0.000269305 -3.7603e-21)
(15.0002 0.000265176 1.70922e-20)
(15.0002 0.000261207 1.30113e-20)
(15.0003 0.000256984 -3.53085e-20)
(15.0003 0.000252867 -7.61695e-21)
(15.0003 0.000248443 5.5303e-21)
(15.0003 0.000244234 3.08427e-20)
(15.0003 0.000239702 -6.16194e-21)
(15.0003 0.000234926 0)
(15.0003 0.000230378 6.6039e-21)
(15.0003 0.00022555 3.11832e-20)
(15.0003 0.000220722 3.05934e-20)
(15.0003 0.000215947 -3.07805e-20)
(15.0003 0.000210975 7.69747e-21)
(15.0003 0.000205739 2.00418e-22)
(15.0003 0.000200717 1.10701e-20)
(15.0003 0.000195218 -1.1079e-20)
(15.0003 0.00018989 2.20251e-20)
(15.0003 0.000184554 1.31281e-21)
(15.0003 0.000178982 -4.02006e-20)
(15.0003 0.000173647 -1.00724e-20)
(15.0003 0.00016792 -9.1789e-21)
(15.0003 0.000162196 -2.29022e-22)
(15.0003 0.000156499 2.48051e-22)
(15.0003 0.000150504 9.11913e-21)
(15.0003 0.000144533 3.06903e-25)
(15.0003 0.000138472 -5.39371e-20)
(15.0003 0.000132532 2.7661e-20)
(15.0003 0.000126461 -2.69568e-20)
(15.0003 0.000120115 2.49446e-20)
(15.0003 0.000114067 -2.44207e-20)
(15.0003 0.000107709 2.06014e-21)
(15.0003 0.000101605 2.24357e-20)
(15.0003 9.51499e-05 -2.02741e-21)
(15.0003 8.88763e-05 -1.44703e-20)
(15.0003 8.26134e-05 1.37792e-20)
(15.0003 7.6379e-05 5.16711e-21)
(15.0003 6.98027e-05 -6.92095e-21)
(15.0003 6.35967e-05 -2.69271e-20)
(15.0002 5.75098e-05 1.24495e-20)
(15.0002 5.13139e-05 -9.24759e-21)
(15.0002 4.5485e-05 4.94592e-21)
(15.0002 3.95713e-05 1.04194e-20)
(15.0002 3.41494e-05 -4.21834e-21)
(15.0002 2.90812e-05 1.33116e-21)
(15.0002 2.4041e-05 4.64422e-21)
(15.0002 1.96134e-05 -5.16974e-21)
(15.0002 1.5595e-05 3.06231e-21)
(15.0002 1.22832e-05 1.38191e-21)
(15.0001 9.13505e-06 1.9602e-21)
(15.0001 5.77895e-06 -9.41325e-22)
(15.0001 2.45293e-06 -6.20173e-22)
(15 9.15001e-07 3.09586e-22)
(15.0001 1.03246e-07 -3.64476e-23)
(14.9987 7.65703e-06 5.64669e-23)
(14.9995 1.86166e-05 -6.36674e-22)
(14.9997 1.07001e-05 -1.58056e-22)
(14.9996 1.77922e-05 -2.63855e-21)
(14.9995 3.26391e-05 3.75011e-21)
(14.9994 4.70877e-05 -2.8016e-21)
(14.9994 5.89344e-05 -6.03285e-21)
(14.9994 7.03862e-05 2.26605e-22)
(14.9994 8.22699e-05 2.06173e-21)
(14.9993 9.50809e-05 4.83287e-22)
(14.9993 0.000108059 -6.94691e-21)
(14.9993 0.00012137 3.71671e-21)
(14.9993 0.000135296 1.12121e-20)
(14.9993 0.000149432 -7.55403e-21)
(14.9993 0.000164213 3.11883e-20)
(14.9993 0.000179191 2.72719e-21)
(14.9992 0.000194362 -2.05498e-20)
(14.9992 0.000210089 -2.84804e-21)
(14.9992 0.000225739 1.35901e-20)
(14.9992 0.000241582 -5.91632e-23)
(14.9992 0.000257514 -7.26737e-21)
(14.9992 0.000273784 -2.54181e-20)
(14.9992 0.000289777 -1.80594e-20)
(14.9992 0.000306102 -5.59873e-23)
(14.9992 0.000322169 -8.38161e-21)
(14.9992 0.000338582 1.70892e-20)
(14.9992 0.000354919 7.15674e-22)
(14.9992 0.00037109 5.25973e-22)
(14.9992 0.000387274 -1.00624e-20)
(14.9992 0.000403456 -9.57033e-21)
(14.9992 0.000419607 9.59384e-21)
(14.9992 0.000435545 4.96825e-22)
(14.9992 0.000451538 -3.07231e-20)
(14.9992 0.000467477 8.14737e-20)
(14.9992 0.000482993 1.07964e-20)
(14.9992 0.000498685 2.01249e-20)
(14.9992 0.000514017 -2.1942e-20)
(14.9992 0.000529346 -3.89533e-22)
(14.9992 0.000544903 2.03591e-20)
(14.9992 0.000559798 5.07399e-20)
(14.9992 0.000574927 3.19017e-20)
(14.9992 0.000589666 -4.19027e-21)
(14.9992 0.000604141 1.95033e-20)
(14.9992 0.000618571 0)
(14.9992 0.000632935 7.04311e-21)
(14.9992 0.000646912 -1.24191e-20)
(14.9993 0.000661104 4.35361e-20)
(14.9993 0.000674781 -2.42738e-20)
(14.9993 0.000688064 -4.3753e-20)
(14.9993 0.000701546 1.25824e-20)
(14.9993 0.000714701 1.81802e-20)
(14.9993 0.000727683 9.07467e-21)
(14.9993 0.000740283 6.08477e-20)
(14.9993 0.000753102 3.05609e-20)
(14.9993 0.000765348 -1.42775e-22)
(14.9993 0.000777439 1.02769e-20)
(14.9994 0.000789399 -1.33433e-20)
(14.9994 0.00080111 -2.73533e-20)
(14.9994 0.00081243 4.49902e-20)
(14.9994 0.000823837 3.08482e-20)
(14.9994 0.000834837 1.15191e-21)
(14.9994 0.000845454 0)
(14.9994 0.00085615 1.44383e-20)
(14.9994 0.00086642 -1.40982e-20)
(14.9994 0.000876546 2.78881e-20)
(14.9995 0.000886403 8.0488e-23)
(14.9995 0.000896023 -1.02989e-22)
(14.9995 0.000905627 -2.69788e-20)
(14.9995 0.000914768 -2.89998e-20)
(14.9995 0.000923637 6.08127e-24)
(14.9995 0.000932239 2.9092e-20)
(14.9995 0.00094073 2.93979e-20)
(14.9996 0.000948874 -1.47118e-20)
(14.9996 0.000956693 6.37361e-21)
(14.9996 0.000964564 -1.4799e-20)
(14.9996 0.000972029 -2.47927e-20)
(14.9996 0.000979068 9.50159e-21)
(14.9996 0.000986267 1.49869e-20)
(14.9996 0.0009929 2.38297e-20)
(14.9997 0.000999317 -8.34121e-21)
(14.9997 0.00100532 2.31139e-20)
(14.9997 0.00101134 7.61955e-21)
(14.9997 0.00101704 -3.77249e-20)
(14.9997 0.00102257 -1.53456e-20)
(14.9997 0.00102759 1.53485e-20)
(14.9998 0.00103239 2.74375e-20)
(14.9998 0.00103715 -3.51818e-24)
(14.9998 0.00104155 1.54892e-20)
(14.9998 0.00104562 3.82223e-23)
(14.9998 0.00104947 -1.99803e-20)
(14.9998 0.00105325 -1.95862e-20)
(14.9999 0.0010566 -3.48781e-20)
(14.9999 0.00105959 2.81701e-20)
(14.9999 0.00106232 3.14708e-20)
(14.9999 0.00106483 6.98401e-21)
(14.9999 0.00106727 5.75805e-21)
(14.9999 0.00106921 -1.73471e-20)
(15 0.00107104 -1.5864e-20)
(15 0.00107235 -5.19892e-24)
(15 0.00107353 1.56849e-20)
(15 0.00107448 1.57476e-20)
(15 0.00107519 -4.79187e-24)
(15 0.00107577 -1.59329e-20)
(15.0001 0.00107583 -3.18923e-20)
(15.0001 0.00107578 1.22016e-20)
(15.0001 0.00107522 1.35786e-20)
(15.0001 0.00107458 -1.86034e-20)
(15.0001 0.00107371 -2.95641e-23)
(15.0001 0.00107258 1.23538e-20)
(15.0002 0.00107109 3.17498e-20)
(15.0002 0.00106913 -3.61882e-20)
(15.0002 0.00106712 -1.57908e-20)
(15.0002 0.00106487 -2.98444e-23)
(15.0002 0.00106226 5.71852e-21)
(15.0002 0.00105929 3.5853e-21)
(15.0003 0.00105626 1.30405e-20)
(15.0003 0.00105299 -1.5811e-20)
(15.0003 0.00104919 7.40631e-21)
(15.0003 0.00104521 1.62279e-22)
(15.0003 0.00104088 -8.19723e-21)
(15.0003 0.00103655 4.00479e-20)
(15.0004 0.00103179 -1.23641e-22)
(15.0004 0.00102678 -3.12015e-20)
(15.0004 0.00102117 -2.54979e-20)
(15.0004 0.00101571 5.56213e-23)
(15.0004 0.00100979 3.68137e-20)
(15.0004 0.00100343 -1.10765e-20)
(15.0005 0.000997099 1.5531e-20)
(15.0005 0.000990412 2.36914e-20)
(15.0005 0.00098334 -2.76208e-20)
(15.0005 0.000976131 -3.08046e-20)
(15.0005 0.000968617 4.39736e-20)
(15.0005 0.000960795 3.02065e-20)
(15.0006 0.000952456 -1.36611e-20)
(15.0006 0.000944077 -1.7076e-22)
(15.0006 0.000935421 -2.99998e-22)
(15.0006 0.000926454 -1.51543e-20)
(15.0006 0.000917304 -4.54926e-20)
(15.0006 0.00090767 8.56959e-22)
(15.0006 0.000898093 4.72837e-20)
(15.0007 0.000888075 3.13042e-20)
(15.0007 0.000877586 -2.02518e-21)
(15.0007 0.000867162 -1.351e-22)
(15.0007 0.000856281 3.01711e-21)
(15.0007 0.000845095 0)
(15.0007 0.000833733 3.72471e-21)
(15.0007 0.000822167 1.46785e-20)
(15.0008 0.000809936 1.41335e-20)
(15.0008 0.000797907 -2.85828e-20)
(15.0008 0.000785419 -5.19493e-21)
(15.0008 0.000772701 1.38609e-20)
(15.0008 0.000759579 6.31034e-21)
(15.0008 0.000746634 2.69884e-20)
(15.0008 0.000733208 -2.05982e-20)
(15.0008 0.000719166 2.74599e-20)
(15.0008 0.000705313 -2.14553e-20)
(15.0009 0.000690981 3.54359e-20)
(15.0009 0.000676523 -3.5707e-20)
(15.0009 0.000661962 9.24163e-21)
(15.0009 0.000647051 2.17697e-20)
(15.0009 0.000631646 3.20809e-20)
(15.0009 0.000616446 1.27493e-20)
(15.0009 0.000600436 9.84113e-21)
(15.0009 0.000584624 1.29634e-20)
(15.0009 0.000568744 1.1986e-20)
(15.0009 0.000552388 -3.51905e-20)
(15.0009 0.000536165 -3.5285e-20)
(15.0009 0.000519388 1.22459e-20)
(15.0009 0.000502475 -1.18106e-20)
(15.0009 0.00048555 2.90701e-22)
(15.001 0.000468301 -1.18711e-20)
(15.001 0.000450935 -6.83305e-20)
(15.001 0.000433484 5.07098e-22)
(15.001 0.000415961 3.39512e-20)
(15.001 0.000398155 2.31826e-20)
(15.001 0.000380165 1.95237e-20)
(15.001 0.000362487 -5.32676e-20)
(15.001 0.000344404 2.14676e-20)
(15.001 0.000326615 1.16947e-20)
(15.0009 0.000308385 2.07629e-20)
(15.0009 0.00029045 1.68193e-20)
(15.0009 0.000272505 -1.12693e-20)
(15.0009 0.000254674 -7.84062e-21)
(15.0009 0.000236626 -2.4742e-20)
(15.0009 0.000219124 -1.97425e-20)
(15.0009 0.000201728 -7.10776e-21)
(15.0009 0.000184437 -1.96117e-20)
(15.0009 0.000167792 4.79011e-21)
(15.0009 0.000151273 -4.52937e-21)
(15.0008 0.000135374 4.31642e-21)
(15.0008 0.000119732 -2.8291e-22)
(15.0008 0.000104149 -6.10132e-21)
(15.0008 8.9589e-05 4.3987e-21)
(15.0008 7.54457e-05 1.29862e-20)
(15.0008 6.05927e-05 -1.11877e-21)
(15.0007 4.21103e-05 -1.93143e-22)
(15.0005 2.28426e-05 -3.35597e-21)
(15.0004 1.39435e-05 1.74422e-21)
(15.0007 2.4619e-05 -2.84106e-22)
(15.0018 1.04118e-05 -2.54438e-22)
(14.9976 4.32822e-06 1.07614e-22)
(14.9988 3.5727e-05 1.00753e-22)
(14.9993 3.14493e-05 5.01431e-22)
(14.9993 3.05424e-05 -1.53217e-21)
(14.9991 4.71735e-05 -1.55701e-21)
(14.999 7.29056e-05 6.61555e-21)
(14.9989 9.70255e-05 -1.71221e-21)
(14.9989 0.00011864 0)
(14.9989 0.000139839 -1.30396e-20)
(14.9988 0.000162141 2.0224e-20)
(14.9988 0.000184952 -1.78413e-20)
(14.9988 0.000208114 3.93598e-21)
(14.9988 0.00023171 4.11504e-21)
(14.9987 0.000255733 -1.63352e-20)
(14.9987 0.000280568 1.23748e-20)
(14.9987 0.000305721 5.97241e-21)
(14.9987 0.000331095 -2.94379e-20)
(14.9987 0.000357093 -3.03749e-20)
(14.9987 0.000383127 9.18519e-21)
(14.9986 0.000409474 9.71886e-21)
(14.9986 0.000436054 3.40615e-20)
(14.9986 0.000462868 7.84513e-21)
(14.9986 0.000489675 1.02324e-20)
(14.9986 0.000516719 -1.87268e-20)
(14.9986 0.000543503 8.70227e-21)
(14.9986 0.000570602 -3.83345e-20)
(14.9986 0.000597725 3.89085e-20)
(14.9986 0.000624587 9.15825e-21)
(14.9986 0.000651419 9.6498e-21)
(14.9986 0.000678344 -9.69406e-21)
(14.9986 0.000705075 -2.0412e-20)
(14.9986 0.000731746 3.0545e-20)
(14.9986 0.000758389 -5.12044e-20)
(14.9986 0.000784911 -3.14879e-20)
(14.9986 0.000810967 4.21259e-20)
(14.9986 0.000837189 4.0653e-20)
(14.9986 0.000862889 2.03102e-20)
(14.9986 0.000888489 -1.1231e-20)
(14.9986 0.000914241 8.68998e-21)
(14.9987 0.00093933 -4.01392e-20)
(14.9987 0.000964387 5.17042e-20)
(14.9987 0.000989196 1.19989e-20)
(14.9987 0.00101357 1.9691e-20)
(14.9987 0.00103795 1.95547e-20)
(14.9987 0.00106201 0)
(14.9987 0.00108551 -1.23836e-20)
(14.9987 0.00110907 5.76454e-21)
(14.9988 0.00113211 3.18889e-20)
(14.9988 0.00115471 -2.58093e-20)
(14.9988 0.00117723 -1.83975e-20)
(14.9988 0.00119944 2.33269e-20)
(14.9988 0.00122138 -3.11143e-20)
(14.9988 0.00124259 -2.2109e-20)
(14.9988 0.00126395 4.81802e-20)
(14.9989 0.0012847 1.3392e-20)
(14.9989 0.00130523 1.69831e-20)
(14.9989 0.00132526 3.59239e-20)
(14.9989 0.00134501 2.5663e-21)
(14.9989 0.00136432 -2.76657e-20)
(14.999 0.00138342 2.9436e-20)
(14.999 0.00140203 4.34973e-20)
(14.999 0.00142009 1.50087e-20)
(14.999 0.00143804 1.41083e-20)
(14.999 0.00145556 1.00571e-22)
(14.9991 0.0014726 -4.24607e-20)
(14.9991 0.00148924 2.73971e-20)
(14.9991 0.00150557 1.44216e-20)
(14.9991 0.00152155 1.30905e-20)
(14.9992 0.00153704 -2.73425e-20)
(14.9992 0.00155207 -1.73867e-23)
(14.9992 0.00156672 2.78182e-21)
(14.9992 0.00158113 -1.46868e-20)
(14.9993 0.00159505 -1.86606e-20)
(14.9993 0.00160834 2.57523e-20)
(14.9993 0.00162138 2.55036e-20)
(14.9993 0.00163414 -1.00829e-20)
(14.9994 0.00164633 -9.70283e-21)
(14.9994 0.00165816 -3.37706e-20)
(14.9994 0.00166948 6.23788e-21)
(14.9994 0.00168043 -8.391e-21)
(14.9995 0.00169072 -3.07497e-20)
(14.9995 0.00170085 3.85086e-20)
(14.9995 0.00171054 8.34038e-22)
(14.9995 0.00171985 -3.10277e-20)
(14.9996 0.0017284 -5.17008e-23)
(14.9996 0.00173666 3.79606e-23)
(14.9996 0.0017446 -2.14018e-20)
(14.9996 0.00175216 1.56711e-20)
(14.9997 0.00175913 2.65575e-20)
(14.9997 0.00176569 4.53636e-21)
(14.9997 0.0017719 4.05827e-21)
(14.9998 0.00177751 2.11417e-23)
(14.9998 0.00178271 -1.91596e-20)
(14.9998 0.00178743 -2.90336e-20)
(14.9998 0.00179179 -1.6e-20)
(14.9999 0.00179586 4.79969e-20)
(14.9999 0.00179916 1.4494e-20)
(14.9999 0.00180211 -1.60586e-20)
(15 0.00180446 1.53964e-20)
(15 0.00180659 2.65574e-22)
(15 0.00180821 -1.63065e-20)
(15 0.0018093 6.09083e-22)
(15.0001 0.00181017 0)
(15.0001 0.00181044 1.4665e-21)
(15.0001 0.00181034 -1.42304e-20)
(15.0002 0.00180948 -2.32013e-21)
(15.0002 0.00180831 1.88861e-20)
(15.0002 0.00180676 -2.25175e-20)
(15.0002 0.00180473 -1.60815e-20)
(15.0003 0.00180227 1.03976e-24)
(15.0003 0.00179919 -1.36858e-23)
(15.0003 0.00179574 3.21559e-20)
(15.0004 0.00179186 1.59826e-20)
(15.0004 0.00178736 -1.60039e-20)
(15.0004 0.00178246 1.60278e-20)
(15.0004 0.00177721 2.26047e-20)
(15.0005 0.00177165 -3.20077e-20)
(15.0005 0.00176529 -2.43653e-20)
(15.0005 0.00175851 8.03512e-21)
(15.0006 0.00175126 4.01332e-20)
(15.0006 0.00174382 8.69542e-21)
(15.0006 0.00173567 -2.50125e-20)
(15.0006 0.00172712 0)
(15.0007 0.001718 1.58432e-20)
(15.0007 0.00170848 2.61887e-20)
(15.0007 0.00169835 -1.5757e-20)
(15.0008 0.00168788 -1.56543e-20)
(15.0008 0.00167713 1.57042e-20)
(15.0008 0.00166567 -2.42948e-20)
(15.0008 0.00165367 -1.55396e-20)
(15.0009 0.00164138 1.55853e-20)
(15.0009 0.00162865 2.88065e-20)
(15.0009 0.0016154 -4.29485e-20)
(15.0009 0.00160158 -1.23041e-21)
(15.001 0.00158735 -1.36392e-20)
(15.001 0.00157276 1.47988e-20)
(15.001 0.00155768 -3.04985e-20)
(15.001 0.00154206 1.52591e-20)
(15.0011 0.00152591 3.1167e-20)
(15.0011 0.00150961 1.64702e-20)
(15.0011 0.00149266 -1.33627e-20)
(15.0011 0.00147513 -1.47541e-20)
(15.0012 0.00145731 4.72895e-20)
(15.0012 0.00143898 -1.43401e-22)
(15.0012 0.00142027 -1.46756e-20)
(15.0012 0.00140096 0)
(15.0013 0.00138134 3.78501e-20)
(15.0013 0.00136101 -3.8541e-20)
(15.0013 0.00134077 0)
(15.0013 0.00131965 1.99107e-20)
(15.0013 0.00129818 -2.02259e-20)
(15.0014 0.00127629 1.42631e-20)
(15.0014 0.00125423 6.46863e-21)
(15.0014 0.00123162 2.84336e-20)
(15.0014 0.00120834 -1.96063e-22)
(15.0014 0.00118506 -4.29736e-20)
(15.0015 0.00116106 1.35342e-20)
(15.0015 0.00113662 -5.25543e-20)
(15.0015 0.00111209 3.55625e-20)
(15.0015 0.00108699 -2.24331e-20)
(15.0015 0.00106151 -1.31627e-20)
(15.0015 0.0010359 -2.25553e-20)
(15.0015 0.00100943 9.76328e-21)
(15.0016 0.000983039 3.63737e-20)
(15.0016 0.000956422 -1.1264e-20)
(15.0016 0.000929098 -6.01247e-20)
(15.0016 0.000901851 -4.63634e-20)
(15.0016 0.00087395 3.52262e-20)
(15.0016 0.000845787 -4.67051e-20)
(15.0016 0.000817464 0)
(15.0016 0.000788945 -3.47724e-20)
(15.0016 0.000760062 -1.15477e-20)
(15.0016 0.000731151 4.4572e-20)
(15.0016 0.00070206 -2.27794e-20)
(15.0016 0.000672515 3.46436e-20)
(15.0016 0.000642843 -4.25844e-20)
(15.0016 0.000613382 2.22153e-20)
(15.0016 0.00058345 3.08774e-20)
(15.0016 0.000553626 3.04855e-20)
(15.0016 0.000523617 2.93707e-20)
(15.0016 0.000493701 2.65973e-21)
(15.0016 0.000463873 5.43758e-22)
(15.0016 0.000434229 -1.14633e-20)
(15.0016 0.000404423 1.06752e-20)
(15.0016 0.000375153 0)
(15.0016 0.00034594 -2.25453e-20)
(15.0016 0.000316887 3.00216e-20)
(15.0015 0.000288592 -1.40428e-20)
(15.0015 0.000260583 -7.12343e-21)
(15.0015 0.000232868 3.76183e-21)
(15.0015 0.000205293 -2.68587e-20)
(15.0014 0.000178109 3.54201e-21)
(15.0014 0.000152043 9.13557e-21)
(15.0014 0.000125122 1.50108e-21)
(15.0013 9.45356e-05 1.93466e-22)
(15.0012 6.13974e-05 -2.05652e-21)
(15.0009 3.99782e-05 8.26642e-22)
(15.0009 4.19352e-05 -1.13708e-22)
(15.0016 4.77794e-05 -1.22169e-21)
(15.0032 5.99075e-06 9.18888e-23)
(14.9968 6.94182e-06 -9.47077e-23)
(14.9981 4.06344e-05 4.89333e-22)
(14.9988 5.54648e-05 0)
(14.9989 5.10255e-05 0)
(14.9988 6.03946e-05 -7.93789e-22)
(14.9986 9.0833e-05 -1.28002e-21)
(14.9985 0.00012709 -2.8238e-21)
(14.9984 0.000160192 -1.38856e-21)
(14.9984 0.000191199 -4.44994e-21)
(14.9983 0.000222964 6.98502e-21)
(14.9983 0.000255493 -4.85202e-21)
(14.9983 0.000288573 -4.21182e-21)
(14.9982 0.000322099 -6.51632e-21)
(14.9982 0.000356279 3.93911e-23)
(14.9982 0.000391248 -2.57996e-20)
(14.9981 0.000426636 1.92279e-20)
(14.9981 0.000462396 6.07682e-21)
(14.9981 0.000498808 9.09999e-21)
(14.9981 0.000535479 -2.28667e-20)
(14.9981 0.000572477 9.71621e-21)
(14.9981 0.00060963 -3.46523e-20)
(14.998 0.000647188 2.92261e-22)
(14.998 0.000684844 7.65247e-21)
(14.998 0.000722831 -9.89095e-21)
(14.998 0.000760487 1.86282e-20)
(14.998 0.000798441 2.66077e-22)
(14.998 0.000836412 -3.77445e-20)
(14.998 0.000874214 -1.99687e-20)
(14.998 0.000911857 9.76915e-21)
(14.998 0.000949737 3.74297e-23)
(14.998 0.000987392 0)
(14.998 0.00102486 2.03768e-20)
(14.998 0.00106222 3.07623e-20)
(14.998 0.00109948 -2.03677e-20)
(14.998 0.00113633 -2.16797e-20)
(14.9981 0.00117314 -2.06908e-20)
(14.9981 0.00120952 -2.02577e-20)
(14.9981 0.00124574 -2.06522e-20)
(14.9981 0.00128188 2.65786e-21)
(14.9981 0.0013173 -4.04496e-20)
(14.9981 0.00135265 -3.2189e-20)
(14.9981 0.00138758 8.19716e-21)
(14.9981 0.00142206 7.74128e-21)
(14.9982 0.00145651 1.22085e-20)
(14.9982 0.00149056 1.9833e-20)
(14.9982 0.00152384 -1.67346e-22)
(14.9982 0.00155708 1.27441e-20)
(14.9982 0.00158968 3.82265e-20)
(14.9983 0.00162188 1.88715e-20)
(14.9983 0.0016537 -1.29653e-20)
(14.9983 0.00168514 1.82631e-20)
(14.9983 0.00171608 -9.84426e-21)
(14.9983 0.00174647 -1.31932e-20)
(14.9984 0.00177662 -1.37068e-20)
(14.9984 0.00180605 1.36716e-20)
(14.9984 0.00183516 2.06346e-20)
(14.9984 0.0018635 -1.38332e-20)
(14.9985 0.00189158 3.0358e-20)
(14.9985 0.00191911 -2.21183e-21)
(14.9985 0.00194615 -4.58738e-20)
(14.9986 0.00197261 -1.42005e-20)
(14.9986 0.00199844 1.42061e-20)
(14.9986 0.0020239 1.44004e-20)
(14.9986 0.00204872 4.33382e-20)
(14.9987 0.002073 -1.42494e-20)
(14.9987 0.00209679 -2.93608e-20)
(14.9987 0.00211992 1.08238e-21)
(14.9988 0.00214254 1.32783e-20)
(14.9988 0.00216467 -1.47466e-20)
(14.9988 0.0021862 1.24719e-20)
(14.9989 0.00220713 2.98907e-20)
(14.9989 0.00222746 2.37275e-20)
(14.9989 0.0022473 -4.15907e-20)
(14.999 0.00226635 -2.62489e-20)
(14.999 0.00228484 1.5175e-20)
(14.999 0.002303 5.0051e-21)
(14.9991 0.00232045 1.52835e-20)
(14.9991 0.0023372 5.88322e-21)
(14.9992 0.00235329 -1.82778e-20)
(14.9992 0.00236894 2.00913e-21)
(14.9992 0.0023838 -3.22751e-20)
(14.9993 0.0023982 2.32035e-20)
(14.9993 0.00241194 -7.97382e-21)
(14.9993 0.00242516 -4.71513e-20)
(14.9994 0.00243749 9.02381e-21)
(14.9994 0.00244936 3.16106e-20)
(14.9995 0.00246061 3.12046e-23)
(14.9995 0.00247131 1.03608e-20)
(14.9995 0.00248133 -1.58484e-20)
(14.9996 0.00249072 -4.33465e-20)
(14.9996 0.00249941 4.20169e-21)
(14.9997 0.00250753 3.31087e-24)
(14.9997 0.00251511 1.60953e-20)
(14.9997 0.00252192 1.61507e-20)
(14.9998 0.00252808 8.72848e-21)
(14.9998 0.00253372 1.21299e-20)
(14.9999 0.00253846 -1.46312e-20)
(14.9999 0.00254267 -1.62878e-20)
(14.9999 0.00254611 -1.63057e-20)
(15 0.00254922 -1.60494e-20)
(15 0.00255153 4.88951e-20)
(15.0001 0.00255301 1.63413e-20)
(15.0001 0.00255417 -1.73752e-20)
(15.0001 0.00255455 -1.63518e-20)
(15.0002 0.0025544 -1.82337e-20)
(15.0002 0.00255333 1.86943e-20)
(15.0003 0.00255171 -3.82948e-20)
(15.0003 0.00254944 -1.62939e-20)
(15.0003 0.00254637 5.26162e-20)
(15.0004 0.00254275 3.25593e-20)
(15.0004 0.00253853 -2.80076e-20)
(15.0005 0.00253357 -6.17528e-21)
(15.0005 0.00252796 -4.65508e-23)
(15.0005 0.00252163 3.81348e-23)
(15.0006 0.00251471 3.24485e-20)
(15.0006 0.00250713 -6.81411e-21)
(15.0007 0.00249906 -2.33547e-20)
(15.0007 0.00249005 -8.53463e-21)
(15.0008 0.00248046 2.43175e-20)
(15.0008 0.00247016 3.21837e-20)
(15.0008 0.00245935 0)
(15.0009 0.00244769 -1.60754e-20)
(15.0009 0.00243554 -6.18718e-21)
(15.001 0.00242267 0)
(15.001 0.00240902 -1.06619e-20)
(15.001 0.00239459 -1.1088e-20)
(15.0011 0.00237976 -1.14987e-20)
(15.0011 0.00236431 -1.58949e-20)
(15.0011 0.00234797 -1.22511e-20)
(15.0012 0.00233108 1.57303e-20)
(15.0012 0.0023135 -1.57949e-20)
(15.0013 0.00229523 7.35912e-23)
(15.0013 0.00227626 1.72738e-20)
(15.0013 0.00225673 1.42868e-20)
(15.0014 0.00223658 1.20995e-22)
(15.0014 0.00221567 -3.04621e-20)
(15.0014 0.00219418 -1.53586e-20)
(15.0015 0.00217204 0)
(15.0015 0.00214915 -1.81853e-23)
(15.0015 0.00212579 -1.42167e-21)
(15.0016 0.00210167 -3.43466e-20)
(15.0016 0.00207685 5.02854e-20)
(15.0016 0.00205142 1.75509e-20)
(15.0017 0.00202533 -6.62251e-20)
(15.0017 0.00199886 0)
(15.0017 0.00197146 1.49226e-20)
(15.0018 0.00194363 4.24114e-21)
(15.0018 0.00191493 5.11546e-21)
(15.0018 0.00188587 1.44785e-20)
(15.0019 0.0018561 -2.01983e-20)
(15.0019 0.00182568 0)
(15.0019 0.00179474 1.43952e-20)
(15.002 0.00176327 -6.98376e-21)
(15.002 0.00173125 7.21998e-21)
(15.002 0.0016984 -4.96e-20)
(15.002 0.00166539 2.20817e-20)
(15.0021 0.00163141 -2.18313e-22)
(15.0021 0.00159685 -2.21304e-20)
(15.0021 0.00156213 1.33517e-20)
(15.0021 0.00152677 -1.35184e-20)
(15.0021 0.0014908 -1.3168e-20)
(15.0022 0.00145462 4.94797e-20)
(15.0022 0.00141747 1.25608e-20)
(15.0022 0.0013801 1.07037e-20)
(15.0022 0.00134237 -3.62268e-20)
(15.0022 0.001304 -4.83844e-20)
(15.0023 0.00126542 3.61023e-20)
(15.0023 0.00122621 -1.19099e-20)
(15.0023 0.00118669 2.43302e-22)
(15.0023 0.00114688 1.15169e-20)
(15.0023 0.00110667 0)
(15.0023 0.001066 4.66342e-20)
(15.0023 0.00102541 -2.3164e-20)
(15.0023 0.000984436 -2.29642e-20)
(15.0023 0.000943049 -4.53847e-20)
(15.0023 0.000901462 -1.20292e-20)
(15.0023 0.000859999 3.18683e-20)
(15.0023 0.000817912 -2.15768e-20)
(15.0023 0.000775972 -9.34376e-21)
(15.0023 0.000733896 -2.03509e-20)
(15.0023 0.000692045 -3.18224e-20)
(15.0023 0.00065011 3.05728e-20)
(15.0023 0.000608285 3.07572e-22)
(15.0023 0.000566481 -3.20232e-22)
(15.0023 0.00052516 1.72949e-20)
(15.0023 0.000483988 2.21892e-20)
(15.0022 0.000442988 8.89641e-21)
(15.0022 0.000402621 2.97465e-21)
(15.0022 0.000362708 -1.20901e-20)
(15.0022 0.000322966 -1.15697e-20)
(15.0021 0.000283515 2.88267e-22)
(15.0021 0.00024464 1.14503e-20)
(15.002 0.000206281 -1.40802e-20)
(15.002 0.000164671 5.67333e-21)
(15.0019 0.000118334 2.14584e-23)
(15.0016 7.91581e-05 0)
(15.0014 6.75522e-05 -8.58025e-22)
(15.0016 7.43078e-05 -1.0736e-21)
(15.0026 5.45329e-05 1.89724e-22)
(15.0043 9.55446e-06 1.35684e-22)
(14.9962 6.97495e-06 -1.5424e-22)
(14.9973 4.26778e-05 -7.31975e-22)
(14.9982 7.61756e-05 0)
(14.9985 7.86942e-05 1.5937e-21)
(14.9984 7.91654e-05 8.18646e-22)
(14.9982 0.000105849 -2.10979e-21)
(14.998 0.00015015 -4.47441e-21)
(14.9979 0.000195286 -1.9545e-21)
(14.9979 0.000236971 1.66585e-21)
(14.9978 0.00027839 -8.042e-21)
(14.9978 0.000320566 1.24393e-20)
(14.9977 0.000363421 -6.29043e-21)
(14.9977 0.000406826 1.54017e-20)
(14.9976 0.000451048 -4.47684e-23)
(14.9976 0.000496038 7.87457e-21)
(14.9976 0.00054173 -5.73913e-21)
(14.9976 0.000587875 2.92978e-20)
(14.9975 0.000634571 2.16135e-20)
(14.9975 0.000681739 -6.32478e-21)
(14.9975 0.000729521 -5.44048e-22)
(14.9975 0.000777491 -9.47308e-21)
(14.9975 0.000825737 -7.89241e-21)
(14.9975 0.000874326 -1.82735e-20)
(14.9974 0.000923176 -8.15499e-21)
(14.9974 0.000971782 -1.92514e-20)
(14.9974 0.00102065 3.71221e-20)
(14.9974 0.00106966 -1.03909e-20)
(14.9974 0.00111854 -1.99438e-20)
(14.9974 0.00116719 -2.01082e-20)
(14.9974 0.00121622 -3.00336e-20)
(14.9974 0.00126485 -1.02216e-20)
(14.9974 0.00131332 0)
(14.9974 0.00136167 -3.09909e-20)
(14.9975 0.00140982 -2.08173e-20)
(14.9975 0.00145766 1.11177e-21)
(14.9975 0.00150537 -9.57723e-21)
(14.9975 0.00155256 -2.07328e-20)
(14.9975 0.00159955 -3.19983e-20)
(14.9975 0.00164624 -2.08031e-20)
(14.9975 0.00169229 4.12239e-20)
(14.9975 0.00173817 -3.42227e-21)
(14.9976 0.0017837 -3.24842e-20)
(14.9976 0.00182856 -8.07152e-21)
(14.9976 0.00187322 1.82533e-22)
(14.9976 0.0019175 -1.6338e-22)
(14.9977 0.00196079 -1.95678e-20)
(14.9977 0.00200389 1.93696e-20)
(14.9977 0.00204649 -1.91746e-20)
(14.9977 0.00208836 1.89999e-20)
(14.9978 0.00212983 1.81254e-22)
(14.9978 0.00217083 1.30296e-20)
(14.9978 0.00221105 1.8784e-20)
(14.9979 0.00225078 4.48968e-21)
(14.9979 0.00229002 -4.28433e-21)
(14.9979 0.00232842 4.05291e-21)
(14.9979 0.00236636 1.72777e-20)
(14.998 0.00240349 -1.6998e-20)
(14.998 0.00244005 -1.69796e-20)
(14.9981 0.00247597 3.07044e-20)
(14.9981 0.00251124 0)
(14.9981 0.00254583 -1.59219e-20)
(14.9982 0.00257979 -3.11903e-20)
(14.9982 0.002613 1.52597e-20)
(14.9982 0.00264535 -1.49279e-20)
(14.9983 0.00267717 2.92084e-20)
(14.9983 0.00270834 1.46685e-20)
(14.9984 0.0027386 1.40004e-20)
(14.9984 0.00276814 -1.40519e-21)
(14.9984 0.00279704 -1.49044e-20)
(14.9985 0.00282533 -2.57173e-20)
(14.9985 0.00285278 1.25437e-20)
(14.9986 0.00287921 1.19944e-20)
(14.9986 0.0029051 3.60036e-21)
(14.9987 0.00293024 -1.13192e-20)
(14.9987 0.00295454 -6.52053e-21)
(14.9988 0.00297816 -1.04699e-20)
(14.9988 0.00300097 -1.02257e-20)
(14.9989 0.00302295 2.53364e-20)
(14.9989 0.00304409 -3.11891e-20)
(14.9989 0.0030646 -1.18763e-22)
(14.999 0.00308424 1.58429e-20)
(14.999 0.00310297 -1.58193e-20)