/*--------------------------------*- C++ -*---------------------------------*\ 
| ========                 |                                                 | 
| \      /  F ield         | OpenFOAM: The Open Source CFD Toolbox           | 
|  \    /   O peration     | Version:  v1812                                 | 
|   \  /    A nd           | Web:      www.OpenFOAM.com                      | 
|    \/     M anipulation  |                                                 | 
\*--------------------------------------------------------------------------*/ 
FoamFile
{
    version     2.0;
    format      ascii;
    class       volVectorField;
    location    "/home/james/dafoam/myRuns/bezier_coanda_opt/0.00000000001/";
    object      sens_CL_shapey;
}
// * * * * * * * * * * * * * * * * * * * * * * * * * * * * * * * * * * * * * //

dimensions      [0 0 0 0 0 0 0];
internalField   uniform (0 0 0);
boundaryField
{
    allWalls
    {
        type  wall;
        value nonuniform List<vector>
188
(
(-0.255320 0.019269 0.000137)
(0.391379 -0.183003 0.000142)
(0.900958 -0.275846 0.000140)
(0.204964 -0.030620 0.000139)
(0.067162 -0.090126 0.000137)
(0.253650 -0.419922 0.000134)
(-0.099217 0.090959 0.000132)
(-0.268319 0.336928 0.000130)
(-0.051159 0.075463 0.000128)
(-0.085321 0.142137 0.000125)
(-0.068940 0.140535 0.000123)
(-0.061573 0.142766 0.000120)
(-0.027942 0.082869 0.000244)
(-0.028188 0.099430 0.000370)
(-0.012893 0.052405 0.000373)
(-0.011740 0.056734 0.000375)
(-0.012597 0.072300 0.000378)
(-0.009597 0.062617 0.000381)
(-0.007696 0.060352 0.000831)
(-0.007176 0.069912 0.001351)
(-0.005104 0.062465 0.001501)
(-0.003497 0.058029 0.001661)
(-0.002363 0.052072 0.001828)
(-0.001081 0.078450 0.002135)
(0.000327 0.094795 0.002097)
(0.002698 0.081860 0.001762)
(0.002408 0.050827 0.001570)
(0.003030 0.035519 0.001348)
(0.005469 0.051854 0.001148)
(0.006170 0.048193 0.000972)
(0.007467 0.049901 0.000801)
(0.008642 0.050857 0.000641)
(0.009936 0.052966 0.000509)
(0.011738 0.057706 0.000336)
(0.013813 0.063574 0.000226)
(0.016248 0.070586 0.000232)
(0.018915 0.078292 0.000238)
(0.021834 0.086568 0.000171)
(0.024861 0.095136 0.000083)
(0.027662 0.102856 0.000165)
(0.031082 0.112844 0.000164)
(0.035229 0.125022 0.000064)
(0.036285 0.124849 0.000022)
(0.031772 0.104367 0.000022)
(0.039982 0.127480 0.000064)
(0.083558 0.264263 0.000064)
(0.080232 0.212108 0.000005)
(-0.097655 -0.464489 -0.000069)
(-0.261652 -1.168541 -0.000084)
(0.321038 1.497388 -0.000084)
(0.140945 -1.424340 -0.000084)
(-0.218551 1.021139 -0.000084)
(-0.081793 0.337183 -0.000010)
(0.025752 -0.083895 0.000196)
(-0.022680 0.063632 0.000196)
(0.012796 -0.031017 0.000064)
(0.016145 -0.045513 0.000064)
(0.018406 -0.056131 0.000064)
(0.037022 -0.120466 0.000064)
(0.070185 -0.252577 0.000064)
(0.101277 -0.431042 0.000123)
(0.052103 -0.341147 0.000258)
(0.196500 -0.244997 0.000337)
(0.119582 -0.234379 0.000343)
(-0.096476 -0.076517 0.000352)
(-0.053242 0.062207 0.000431)
(-0.060271 0.176490 0.000443)
(-0.003417 0.240283 0.000387)
(0.043726 0.029364 0.000605)
(0.021017 -0.176549 0.000865)
(-0.009300 -0.051477 0.000960)
(-0.014304 0.077428 0.001054)
(-0.009384 0.093799 0.001120)
(-0.005328 0.092444 0.001200)
(-0.002564 0.098144 0.001203)
(0.000135 0.108093 0.001138)
(0.001861 0.091053 0.000913)
(0.002679 0.063318 0.000652)
(0.004112 0.061636 0.000574)
(0.005475 0.062020 0.000511)
(0.005651 0.052923 0.000460)
(0.005766 0.044768 0.000420)
(0.006380 0.042163 0.000370)
(0.006529 0.037485 0.000338)
(0.007122 0.034849 0.000339)
(0.007405 0.032170 0.000341)
(0.007563 0.029567 0.000343)
(0.008157 0.029162 0.000345)
(0.009149 0.029014 0.000232)
(0.010786 0.025411 0.000119)
(0.011375 0.012716 0.000120)
(0.008775 -0.001978 0.000122)
(0.011404 0.011563 0.000123)
(0.012081 0.056570 0.000125)
(-0.011029 0.084743 0.000126)
(-0.069783 0.065926 0.000127)
(-0.204657 -0.035489 0.000129)
(-0.436321 -0.191944 0.000130)
(-0.460811 -0.208127 0.000131)
(-0.123059 -0.087652 0.000132)
(0.305450 1.588298 -0.000084)
(-0.264927 -1.279181 -0.000084)
(-0.110422 -0.703649 -0.000084)
(0.016779 0.397593 -0.000084)
(0.022714 0.501444 -0.000084)
(0.006591 0.172009 -0.000084)
(0.011851 0.125215 -0.000084)
(0.025910 0.181681 -0.000084)
(0.054679 0.627025 -0.000084)
(0.087810 0.930317 -0.000063)
(0.087681 -1.595186 -0.000042)
(0.227179 -5.234215 -0.000042)
(1.160264 9.107787 -0.000042)
(4.025825 53.688163 -0.000042)
(-40.526667 -80.909410 -0.000042)
(47.820308 -462.809140 -0.000042)
(-27.071644 -5.630382 -0.000042)
(-11.955737 -1.624661 -0.000042)
(-53.061529 -131.891250 -0.000042)
(-5.205476 491.427964 -0.000042)
(5.940698 56.301255 -0.000006)
(-5.734346 25.775497 0.000029)
(-3.426011 4.793748 0.000029)
(0.034776 1.533215 0.000029)
(3.186172 9.224901 0.000029)
(2.049812 6.089531 0.000029)
(1.209332 3.593171 0.000029)
(2.070883 4.376210 0.000029)
(0.600707 2.208964 0.000029)
(0.807891 2.684282 0.000029)
(3.500613 5.904266 0.000029)
(-0.125249 1.634457 0.000029)
(-0.010103 1.011750 0.000029)
(-0.453487 1.114053 0.000029)
(-1.269567 0.114323 0.000029)
(-0.713657 0.885503 0.000029)
(-0.748636 0.644639 0.000029)
(-0.466280 1.055054 0.000029)
(-0.580905 0.752373 0.000029)
(0.483696 1.192571 0.000029)
(0.157362 0.864285 0.000029)
(0.868879 0.930867 0.000029)
(1.281420 0.690651 0.000029)
(2.211210 0.475507 0.000029)
(2.497776 0.042335 0.000029)
(2.234138 -0.259182 0.000029)
(1.291049 -0.417800 0.000029)
(1.284463 -0.512330 0.000029)
(1.157295 -0.492682 0.000029)
(0.669662 -0.317670 0.000029)
(0.625850 -0.308110 0.000029)
(0.603456 -0.302303 0.000029)
(0.448509 -0.314960 0.000029)
(0.553851 -0.449329 0.000029)
(0.455629 -0.446230 0.000029)
(0.441547 -0.484677 0.000029)
(0.682182 -0.765157 0.000029)
(0.914713 -1.070970 0.000029)
(0.800716 -1.025084 0.000029)
(0.863247 -1.256327 0.000029)
(1.179588 -1.948471 0.000029)
(1.335808 -2.521208 0.000029)
(1.118723 -2.470140 0.000029)
(0.816497 -2.196636 0.000029)
(0.302384 -1.003451 0.000029)
(0.048240 -0.101056 0.000029)
(-0.161252 1.134182 0.000029)
(-0.418867 1.581516 -0.000006)
(-23.329512 0.262185 -0.000042)
(22.996565 0.254016 -0.000042)
(-0.326471 0.162692 -0.000042)
(0.358448 -0.334151 -0.000042)
(-2.080114 8.576748 -0.000042)
(-2.352743 5.415933 -0.000042)
(0.364433 -4.510982 -0.000042)
(0.064698 -0.870453 -0.000042)
(0.006764 0.028827 -0.000042)
(0.012059 -0.103032 -0.000042)
(0.012084 -0.030343 -0.000063)
(0.010678 0.027638 -0.000084)
(0.007681 0.038824 -0.000084)
(0.004601 0.073480 -0.000084)
(0.002140 0.110808 -0.000084)
(0.005402 -0.032722 -0.000084)
(0.006175 -0.157197 -0.000084)
(-0.022244 0.414554 -0.000084)
(-0.028196 1.150349 -0.000084)
(0.224676 -1.306801 -0.000084)
)
;
    }
}
