/*--------------------------------*- C++ -*---------------------------------*\ 
| ========                 |                                                 | 
| \      /  F ield         | OpenFOAM: The Open Source CFD Toolbox           | 
|  \    /   O peration     | Version:  v1812                                 | 
|   \  /    A nd           | Web:      www.OpenFOAM.com                      | 
|    \/     M anipulation  |                                                 | 
\*--------------------------------------------------------------------------*/ 
FoamFile
{
    version     2.0;
    format      ascii;
    class       volVectorField;
    location    "/home/james/dafoam/myRuns/bezier_coanda_opt/0.00000000001/";
    object      sens_CL_shapey;
}
// * * * * * * * * * * * * * * * * * * * * * * * * * * * * * * * * * * * * * //

dimensions      [0 0 0 0 0 0 0];
internalField   uniform (0 0 0);
boundaryField
{
    allWalls
    {
        type  wall;
        value nonuniform List<vector>
188
(
(-0.259124 0.100706 0.000005)
(0.020620 -0.137552 -0.000094)
(0.862707 -0.246215 -0.000094)
(0.175499 -0.029894 0.000005)
(0.131276 -0.119568 0.000005)
(0.262556 -0.427544 -0.000033)
(-0.073406 0.064878 -0.000033)
(-0.268172 0.330439 0.000005)
(-0.047450 0.069677 0.000205)
(-0.086875 0.142129 0.000429)
(-0.066594 0.134018 0.000479)
(-0.062165 0.142227 0.000402)
(-0.027919 0.081763 0.000399)
(-0.029165 0.101459 0.000551)
(-0.012999 0.051927 0.000652)
(-0.011746 0.056060 0.000757)
(-0.012729 0.072132 0.000868)
(-0.009576 0.061969 0.001050)
(-0.007700 0.059875 0.001205)
(-0.007213 0.069451 0.001370)
(-0.005170 0.062511 0.001546)
(-0.003561 0.058427 0.001787)
(-0.002380 0.052054 0.002019)
(-0.001110 0.078500 0.001742)
(0.000282 0.094435 0.001476)
(0.002738 0.082333 0.001459)
(0.002375 0.051025 0.001308)
(0.002928 0.034619 0.001124)
(0.005414 0.051568 0.000954)
(0.006133 0.047795 0.000501)
(0.007428 0.049489 0.000122)
(0.008552 0.050375 0.000111)
(0.009878 0.052639 0.000100)
(0.011712 0.057398 0.000089)
(0.013851 0.063398 0.000079)
(0.016409 0.070612 0.000248)
(0.019177 0.078392 0.000421)
(0.022126 0.086805 0.000420)
(0.025192 0.095539 0.000420)
(0.028055 0.103264 0.000420)
(0.031543 0.113194 0.000420)
(0.035880 0.125750 0.000455)
(0.036975 0.125770 0.000491)
(0.032413 0.105218 0.000491)
(0.040760 0.128210 0.000491)
(0.084456 0.263747 0.000491)
(0.080918 0.211075 0.000491)
(-0.096664 -0.458579 0.000202)
(-0.259680 -1.153799 -0.000086)
(0.320538 1.480677 -0.000086)
(0.142591 -1.443704 -0.000086)
(-0.220343 1.035175 -0.000086)
(-0.082461 0.340894 0.000202)
(0.025842 -0.084222 0.000491)
(-0.023323 0.066434 0.000491)
(0.013413 -0.032463 0.000491)
(0.016687 -0.046947 0.000491)
(0.018489 -0.056334 0.000491)
(0.037089 -0.121410 0.000455)
(0.070369 -0.255598 0.000420)
(0.101065 -0.435796 0.000420)
(0.050724 -0.341467 0.000420)
(0.198933 -0.244508 0.000420)
(0.120774 -0.236260 0.000420)
(-0.098736 -0.077042 0.000261)
(-0.055205 0.067337 0.000108)
(-0.060141 0.172173 0.000123)
(-0.001910 0.258656 0.000138)
(0.042118 0.086228 0.000153)
(0.023402 -0.175337 0.000168)
(-0.004617 -0.092390 0.000439)
(-0.013025 0.062757 0.000739)
(-0.009321 0.091461 0.000809)
(-0.005200 0.089304 0.000871)
(-0.002461 0.095563 0.000893)
(0.000155 0.107202 0.000826)
(0.001823 0.089340 0.000972)
(0.002628 0.062415 0.001060)
(0.004177 0.062723 0.000667)
(0.005322 0.061058 0.000489)
(0.005481 0.051837 0.000424)
(0.005738 0.045238 0.000238)
(0.006290 0.042095 0.000253)
(0.006433 0.037287 0.000280)
(0.007034 0.034757 0.000258)
(0.007299 0.032052 0.000241)
(0.007437 0.029388 0.000227)
(0.008044 0.029259 0.000149)
(0.008834 0.028659 0.000070)
(0.010737 0.025780 0.000132)
(0.011216 0.012560 0.000199)
(0.008630 -0.002971 0.000101)
(0.010796 0.009392 0.000024)
(0.011634 0.054742 -0.000065)
(-0.010599 0.086660 -0.000084)
(-0.065472 0.072875 0.000005)
(-0.207268 -0.032261 0.000005)
(-0.516602 -0.224619 -0.000105)
(-0.511861 -0.248140 -0.000105)
(0.347326 -0.087933 0.000005)
(0.303892 1.570970 -0.000086)
(-0.264805 -1.263915 -0.000086)
(-0.110628 -0.698416 -0.000086)
(0.016418 0.393850 -0.000086)
(0.022500 0.500769 -0.000086)
(0.006568 0.173830 -0.000086)
(0.011900 0.126999 -0.000086)
(0.025981 0.183294 -0.000086)
(0.054741 0.627682 -0.000086)
(0.087929 0.932016 -0.000065)
(0.088045 -1.585942 -0.000044)
(0.227768 -5.220566 -0.000044)
(1.160403 9.100675 -0.000044)
(4.024346 53.647165 -0.000044)
(-40.753516 -81.100645 -0.000044)
(47.602875 -463.984439 -0.000044)
(-27.154983 -5.710493 -0.000044)
(-11.858166 -1.594133 -0.000044)
(-53.152623 -131.996448 -0.000044)
(-4.914900 492.726669 -0.000044)
(5.947479 56.259261 -0.000007)
(-5.727835 25.899608 0.000029)
(-3.397737 5.021306 0.000029)
(-0.028453 1.313136 0.000029)
(3.168326 9.002768 0.000029)
(2.111134 6.184731 0.000029)
(1.238597 3.646823 0.000029)
(2.074302 4.388746 0.000029)
(0.623728 2.216761 0.000029)
(0.940742 2.781422 0.000029)
(3.639908 6.019027 0.000029)
(-0.376277 1.437444 0.000029)
(-0.216479 0.832404 0.000029)
(-0.201437 1.293440 0.000029)
(-0.863471 0.380926 0.000029)
(-1.261703 0.608294 0.000029)
(-0.833442 0.548562 0.000029)
(-0.169535 1.231437 0.000029)
(-0.806988 0.648791 0.000029)
(0.718140 1.265308 0.000029)
(0.067657 0.849094 0.000029)
(0.996732 0.937492 0.000029)
(1.297063 0.710645 0.000029)
(2.082276 0.446955 0.000029)
(2.292579 0.035795 0.000029)
(2.218867 -0.296402 0.000029)
(1.401566 -0.426908 0.000029)
(1.268181 -0.523844 0.000029)
(1.216392 -0.497949 0.000029)
(0.634244 -0.307516 0.000029)
(0.676163 -0.318612 0.000029)
(0.586669 -0.291526 0.000029)
(0.409521 -0.286544 0.000029)
(0.539336 -0.441405 0.000029)
(0.480077 -0.456341 0.000029)
(0.431927 -0.471924 0.000029)
(0.740221 -0.816464 0.000029)
(0.953410 -1.101566 0.000029)
(0.794242 -1.011894 0.000029)
(0.882731 -1.285231 0.000029)
(1.179241 -1.948969 0.000029)
(1.334097 -2.531292 0.000029)
(1.146552 -2.534312 0.000029)
(0.838592 -2.252325 0.000029)
(0.313342 -1.035384 0.000029)
(0.053323 -0.112929 0.000029)
(-0.160987 1.154957 0.000029)
(-0.426880 1.614771 -0.000007)
(-23.332139 0.265591 -0.000044)
(22.990209 0.260559 -0.000044)
(-0.334543 0.169042 -0.000044)
(0.374777 -0.341709 -0.000044)
(-2.119050 8.742750 -0.000044)
(-2.406827 5.533270 -0.000044)
(0.369898 -4.591991 -0.000044)
(0.066034 -0.887298 -0.000044)
(0.006887 0.031535 -0.000044)
(0.012290 -0.104874 -0.000044)
(0.012251 -0.029841 -0.000065)
(0.010853 0.027506 -0.000086)
(0.007854 0.038189 -0.000086)
(0.004749 0.072713 -0.000086)
(0.002202 0.112166 -0.000086)
(0.005502 -0.032695 -0.000086)
(0.006341 -0.158868 -0.000086)
(-0.022384 0.419987 -0.000086)
(-0.028433 1.165296 -0.000086)
(0.226611 -1.324846 -0.000086)
)
;
    }
}
