/*--------------------------------*- C++ -*---------------------------------*\ 
| ========                 |                                                 | 
| \      /  F ield         | OpenFOAM: The Open Source CFD Toolbox           | 
|  \    /   O peration     | Version:  v1812                                 | 
|   \  /    A nd           | Web:      www.OpenFOAM.com                      | 
|    \/     M anipulation  |                                                 | 
\*--------------------------------------------------------------------------*/ 
FoamFile
{
    version     2.0;
    format      ascii;
    class       volVectorField;
    location    "/home/james/dafoam/myRuns/bezier_coanda_opt/0.00000000001/";
    object      sens_CL_shapey;
}
// * * * * * * * * * * * * * * * * * * * * * * * * * * * * * * * * * * * * * //

dimensions      [0 0 0 0 0 0 0];
internalField   uniform (0 0 0);
boundaryField
{
    allWalls
    {
        type  wall;
        value nonuniform List<vector>
188
(
(-0.033593 0.014486 0.000140)
(-0.024462 0.007410 0.000124)
(-0.079962 0.045527 0.000124)
(-0.162490 0.093534 0.000140)
(-0.058833 0.036508 0.000140)
(-0.010744 0.022818 0.000221)
(-0.029036 0.053309 0.000336)
(-0.011929 0.030391 0.000255)
(-0.004987 0.017538 0.000140)
(-0.005418 0.018122 0.000406)
(-0.009217 0.029590 0.000737)
(-0.008116 0.028259 0.000829)
(-0.005611 0.023238 0.000985)
(-0.007844 0.032370 0.001168)
(-0.008062 0.036189 0.001326)
(-0.008843 0.044885 0.001547)
(-0.008841 0.050732 0.001671)
(-0.007838 0.052175 0.001973)
(-0.007484 0.059267 0.002382)
(-0.006808 0.065931 0.002413)
(-0.005739 0.071156 0.002780)
(-0.004682 0.082198 0.002988)
(-0.003391 0.103433 0.003336)
(-0.001170 0.111292 0.003132)
(0.002687 0.136719 0.002299)
(0.007474 0.167410 0.002127)
(0.011592 0.163445 0.001815)
(0.015679 0.164293 0.001473)
(0.019962 0.170446 0.001173)
(0.023947 0.174315 0.000479)
(0.027799 0.178539 -0.000080)
(0.031466 0.182580 -0.000088)
(0.035030 0.186967 -0.000096)
(0.038276 0.190486 -0.000103)
(0.041089 0.192727 -0.000110)
(0.043611 0.194407 -0.000077)
(0.045816 0.195606 -0.000042)
(0.047534 0.195576 -0.000043)
(0.048774 0.194281 -0.000043)
(0.049610 0.192096 -0.000043)
(0.049953 0.188676 -0.000043)
(0.049418 0.182672 0.000047)
(0.048469 0.175868 0.000137)
(0.048154 0.171908 0.000137)
(0.046304 0.163068 0.000137)
(0.037716 0.131971 0.000137)
(0.033202 0.116933 0.000137)
(0.055065 0.197556 -0.000042)
(0.066771 0.250688 -0.000221)
(-0.020158 -0.145475 -0.000221)
(0.000641 -0.007954 -0.000221)
(-0.001110 0.002483 -0.000221)
(-0.001401 0.002080 -0.000042)
(-0.001573 0.003525 0.000137)
(-0.003037 0.007594 0.000137)
(-0.004989 0.012478 0.000137)
(-0.007767 0.019811 0.000137)
(-0.010287 0.027435 0.000137)
(-0.013428 0.040381 0.000047)
(-0.013653 0.043304 -0.000043)
(-0.003629 0.019625 -0.000043)
(0.002900 0.002036 -0.000043)
(0.000186 0.002876 -0.000043)
(-0.001957 0.006278 -0.000043)
(-0.003848 0.012449 -0.000081)
(-0.005977 0.022563 -0.000118)
(-0.007503 0.032605 -0.000114)
(-0.008348 0.041518 -0.000111)
(-0.008617 0.049134 -0.000107)
(-0.008376 0.055396 -0.000103)
(-0.007683 0.060380 0.000131)
(-0.006658 0.064564 0.000395)
(-0.005360 0.067972 0.000461)
(-0.003808 0.071234 0.000530)
(-0.002023 0.068611 0.000583)
(-0.000106 0.075056 0.000579)
(0.001218 0.067018 0.000643)
(0.002262 0.049888 0.000659)
(0.003152 0.047579 0.000538)
(0.003425 0.039973 0.000457)
(0.003717 0.035491 0.000374)
(0.004068 0.032844 0.000296)
(0.004081 0.028240 0.000251)
(0.004202 0.025012 0.000211)
(0.004390 0.023134 0.000179)
(0.004639 0.021654 0.000151)
(0.004695 0.020099 0.000098)
(0.004520 0.017575 0.000045)
(0.004977 0.017248 0.000023)
(0.005057 0.015165 0.000040)
(0.005754 0.012371 0.000104)
(0.005685 0.006341 0.000140)
(0.003198 -0.003589 0.000045)
(0.003495 -0.004203 0.000017)
(0.006661 0.006768 0.000006)
(0.002887 0.006241 0.000033)
(0.006595 -0.009399 0.000140)
(0.037288 -0.003133 0.000100)
(0.069813 0.018195 0.000100)
(0.046012 0.017415 0.000140)
(-0.036052 -0.134122 -0.000221)
(0.022797 0.280045 -0.000221)
(0.012244 0.244722 -0.000221)
(0.004977 0.170950 -0.000221)
(0.006397 0.223407 -0.000221)
(0.009765 0.314259 -0.000221)
(0.012046 0.379686 -0.000221)
(0.015642 0.497023 -0.000221)
(0.021673 0.698603 -0.000221)
(0.026100 0.899218 -0.000177)
(0.027134 0.987507 -0.000133)
(0.038916 1.687412 -0.000133)
(0.196406 5.299868 -0.000133)
(0.292838 8.759506 -0.000133)
(-14.580415 -39.033822 -0.000133)
(292.357014 -430.083689 -0.000133)
(-13.728179 -17.209605 -0.000133)
(-16.258600 -7.461557 -0.000133)
(-20.614492 -35.705833 -0.000133)
(-262.354469 411.967447 -0.000133)
(12.113378 135.748454 -0.000060)
(9.316375 61.956406 0.000013)
(1.921455 18.454463 0.000013)
(-0.304454 -3.377284 0.000013)
(4.464689 12.610966 0.000013)
(-0.179188 0.677905 0.000013)
(-1.822385 -3.890411 0.000013)
(-1.077680 -1.925091 0.000013)
(-1.079716 -2.059858 0.000013)
(1.003486 1.065682 0.000013)
(0.360181 0.460116 0.000013)
(0.155535 0.141293 0.000013)
(0.821270 0.831540 0.000013)
(1.032380 0.928344 0.000013)
(0.730003 0.731144 0.000013)
(6.298109 3.717867 0.000013)
(11.916681 6.429871 0.000013)
(14.509886 6.507014 0.000013)
(26.329782 9.407940 0.000013)
(0.644618 1.605061 0.000013)
(-11.702335 -3.175860 0.000013)
(17.796768 2.491295 0.000013)
(7.671228 -0.520236 0.000013)
(-35.398903 -5.758415 0.000013)
(-99.741481 0.751026 0.000013)
(-88.486314 24.014117 0.000013)
(-26.283112 22.650719 0.000013)
(18.732875 -7.945524 0.000013)
(64.868614 -28.542057 0.000013)
(51.581341 -24.848109 0.000013)
(15.250094 -8.099666 0.000013)
(0.839334 -1.703372 0.000013)
(-0.054562 -2.219146 0.000013)
(1.343312 -2.747530 0.000013)
(0.787003 -2.874506 0.000013)
(0.933153 -1.016454 0.000013)
(0.155502 0.499166 0.000013)
(0.955525 -0.159195 0.000013)
(0.841817 -0.361432 0.000013)
(0.410633 -0.155733 0.000013)
(0.309666 -0.261341 0.000013)
(0.256727 -0.305430 0.000013)
(0.113252 -0.130384 0.000013)
(0.037921 -0.029531 0.000013)
(-0.008071 0.049139 0.000013)
(-0.028426 0.104244 0.000013)
(-0.039953 0.120179 0.000013)
(-0.033276 0.077020 -0.000060)
(-23.442381 0.026978 -0.000133)
(23.426048 0.003901 -0.000133)
(-0.025684 0.033570 -0.000133)
(0.019293 0.009380 -0.000133)
(0.073342 -0.061189 -0.000133)
(-0.012203 0.042505 -0.000133)
(-0.048380 0.091553 -0.000133)
(-0.010584 0.027569 -0.000133)
(-0.007125 0.025864 -0.000133)
(-0.005108 0.006902 -0.000133)
(-0.003814 0.007726 -0.000177)
(-0.002817 0.006360 -0.000221)
(-0.001960 -0.000755 -0.000221)
(-0.001650 0.001127 -0.000221)
(-0.001309 0.000357 -0.000221)
(-0.001053 -0.000257 -0.000221)
(-0.000684 -0.001155 -0.000221)
(-0.000457 0.000458 -0.000221)
(-0.000341 0.002629 -0.000221)
(0.000798 -0.007886 -0.000221)
)
;
    }
}
