/*--------------------------------*- C++ -*---------------------------------*\ 
| ========                 |                                                 | 
| \      /  F ield         | OpenFOAM: The Open Source CFD Toolbox           | 
|  \    /   O peration     | Version:  v1812                                 | 
|   \  /    A nd           | Web:      www.OpenFOAM.com                      | 
|    \/     M anipulation  |                                                 | 
\*--------------------------------------------------------------------------*/ 
FoamFile
{
    version     2.0;
    format      ascii;
    class       volVectorField;
    location    "/home/james/dafoam/myRuns/bezier_coanda_opt/0.00000000001/";
    object      sens_CL_shapey;
}
// * * * * * * * * * * * * * * * * * * * * * * * * * * * * * * * * * * * * * //

dimensions      [0 0 0 0 0 0 0];
internalField   uniform (0 0 0);
boundaryField
{
    allWalls
    {
        type  wall;
        value nonuniform List<vector>
188
(
(-0.256630 0.099398 0.000138)
(0.040061 -0.143874 0.000143)
(0.880101 -0.251778 0.000141)
(0.176839 -0.031080 0.000139)
(0.132629 -0.124292 0.000137)
(0.257800 -0.426497 0.000135)
(-0.080138 0.072330 0.000132)
(-0.270448 0.335455 0.000130)
(-0.048003 0.070741 0.000128)
(-0.086945 0.143322 0.000125)
(-0.067286 0.136163 0.000123)
(-0.061960 0.142386 0.000120)
(-0.027996 0.082584 0.000248)
(-0.028814 0.100806 0.000377)
(-0.012733 0.051391 0.000379)
(-0.011774 0.056532 0.000381)
(-0.012659 0.072204 0.000384)
(-0.009605 0.062387 0.000387)
(-0.007679 0.060024 0.000836)
(-0.007185 0.069668 0.001355)
(-0.005136 0.062493 0.001503)
(-0.003532 0.058241 0.001661)
(-0.002372 0.052009 0.001826)
(-0.001081 0.078429 0.002122)
(0.000326 0.094670 0.002085)
(0.002735 0.082176 0.001760)
(0.002410 0.050904 0.001567)
(0.003002 0.035002 0.001345)
(0.005477 0.051698 0.001145)
(0.006177 0.048009 0.000968)
(0.007467 0.049640 0.000796)
(0.008624 0.050478 0.000635)
(0.009970 0.052843 0.000506)
(0.011767 0.057533 0.000333)
(0.013863 0.063431 0.000223)
(0.016338 0.070576 0.000230)
(0.019030 0.078315 0.000236)
(0.021981 0.086657 0.000173)
(0.025056 0.095333 0.000090)
(0.027904 0.103166 0.000167)
(0.031324 0.113056 0.000162)
(0.035547 0.125413 0.000062)
(0.036638 0.125328 0.000026)
(0.032106 0.104850 0.000026)
(0.040352 0.127873 0.000062)
(0.083998 0.263947 0.000062)
(0.080625 0.211568 0.000011)
(-0.097066 -0.461095 -0.000063)
(-0.260548 -1.160183 -0.000085)
(0.320788 1.487907 -0.000085)
(0.141860 -1.435101 -0.000085)
(-0.219536 1.028948 -0.000085)
(-0.082199 0.339265 -0.000011)
(0.025727 -0.084147 0.000194)
(-0.023108 0.065111 0.000194)
(0.013068 -0.031835 0.000062)
(0.016388 -0.046366 0.000062)
(0.018394 -0.056305 0.000062)
(0.037049 -0.121048 0.000062)
(0.070303 -0.254226 0.000062)
(0.101233 -0.433845 0.000126)
(0.051485 -0.341887 0.000261)
(0.197761 -0.245007 0.000334)
(0.120007 -0.235510 0.000340)
(-0.097807 -0.077085 0.000349)
(-0.054367 0.065086 0.000429)
(-0.060137 0.173815 0.000440)
(-0.002564 0.251343 0.000383)
(0.042747 0.063087 0.000601)
(0.022458 -0.175966 0.000860)
(-0.006514 -0.075469 0.000955)
(-0.013517 0.068963 0.001049)
(-0.009297 0.092552 0.001108)
(-0.005206 0.090544 0.001189)
(-0.002467 0.096762 0.001190)
(0.000167 0.107719 0.001126)
(0.001847 0.090107 0.000908)
(0.002638 0.062545 0.000643)
(0.004084 0.061422 0.000567)
(0.005477 0.062272 0.000506)
(0.005633 0.053011 0.000458)
(0.005721 0.044595 0.000420)
(0.006353 0.042173 0.000374)
(0.006472 0.037324 0.000345)
(0.007067 0.034743 0.000347)
(0.007358 0.032117 0.000348)
(0.007503 0.029466 0.000350)
(0.008114 0.029236 0.000352)
(0.008976 0.028825 0.000236)
(0.010783 0.025691 0.000119)
(0.011306 0.012690 0.000120)
(0.008722 -0.002474 0.000122)
(0.011122 0.010398 0.000123)
(0.011932 0.055590 0.000125)
(-0.010365 0.085648 0.000126)
(-0.065836 0.070275 0.000127)
(-0.208401 -0.034262 0.000129)
(-0.518621 -0.224045 0.000130)
(-0.524853 -0.247552 0.000131)
(0.335229 -0.089062 0.000132)
(0.304587 1.578480 -0.000085)
(-0.264894 -1.270529 -0.000085)
(-0.110553 -0.700720 -0.000085)
(0.016574 0.395459 -0.000085)
(0.022595 0.501074 -0.000085)
(0.006580 0.173031 -0.000085)
(0.011881 0.126202 -0.000085)
(0.025953 0.182554 -0.000085)
(0.054717 0.627336 -0.000085)
(0.087882 0.931203 -0.000064)
(0.087894 -1.590125 -0.000042)
(0.227525 -5.226924 -0.000042)
(1.160362 9.103324 -0.000042)
(4.025006 53.665379 -0.000042)
(-40.655272 -81.021508 -0.000042)
(47.637255 -463.452593 -0.000042)
(-27.122602 -5.674652 -0.000042)
(-11.901842 -1.608053 -0.000042)
(-53.114945 -131.957982 -0.000042)
(-4.979880 492.151689 -0.000042)
(5.943211 56.253253 -0.000007)
(-5.732820 25.835876 0.000029)
(-3.410401 4.920575 0.000029)
(-0.002888 1.402991 0.000029)
(3.173773 9.091208 0.000029)
(2.088105 6.152455 0.000029)
(1.225326 3.626493 0.000029)
(2.058217 4.358769 0.000029)
(0.624141 2.214578 0.000029)
(0.964656 2.821910 0.000029)
(3.615188 6.009997 0.000029)
(-0.372526 1.439759 0.000029)
(-0.229935 0.827604 0.000029)
(-0.199647 1.289201 0.000029)
(-0.860493 0.390091 0.000029)
(-1.261742 0.603248 0.000029)
(-0.831151 0.554425 0.000029)
(-0.177713 1.223659 0.000029)
(-0.796400 0.656238 0.000029)
(0.711117 1.260989 0.000029)
(0.074316 0.852894 0.000029)
(0.991579 0.935543 0.000029)
(1.299590 0.713056 0.000029)
(2.085121 0.447052 0.000029)
(2.303674 0.038018 0.000029)
(2.214244 -0.295299 0.000029)
(1.404662 -0.426329 0.000029)
(1.266546 -0.523441 0.000029)
(1.216077 -0.498066 0.000029)
(0.638581 -0.310381 0.000029)
(0.667703 -0.315288 0.000029)
(0.586149 -0.292490 0.000029)
(0.433360 -0.299235 0.000029)
(0.541890 -0.441450 0.000029)
(0.477267 -0.454694 0.000029)
(0.435404 -0.475788 0.000029)
(0.716371 -0.794386 0.000029)
(0.936435 -1.088444 0.000029)
(0.801897 -1.023868 0.000029)
(0.867790 -1.262376 0.000029)
(1.175866 -1.945492 0.000029)
(1.337194 -2.531785 0.000029)
(1.132709 -2.503562 0.000029)
(0.829230 -2.228921 0.000029)
(0.308320 -1.020978 0.000029)
(0.051098 -0.107994 0.000029)
(-0.161186 1.146015 0.000029)
(-0.423383 1.600202 -0.000007)
(-23.330986 0.264081 -0.000042)
(22.993007 0.257631 -0.000042)
(-0.331017 0.166220 -0.000042)
(0.367548 -0.338397 -0.000042)
(-2.101734 8.669627 -0.000042)
(-2.382763 5.481238 -0.000042)
(0.367544 -4.556767 -0.000042)
(0.065428 -0.879989 -0.000042)
(0.006842 0.030394 -0.000042)
(0.012205 -0.104043 -0.000042)
(0.012195 -0.030093 -0.000064)
(0.010790 0.027598 -0.000085)
(0.007789 0.038551 -0.000085)
(0.004695 0.073117 -0.000085)
(0.002186 0.111586 -0.000085)
(0.005468 -0.032658 -0.000085)
(0.006274 -0.158083 -0.000085)
(-0.022315 0.417591 -0.000085)
(-0.028326 1.158664 -0.000085)
(0.225754 -1.316843 -0.000085)
)
;
    }
}
