/*--------------------------------*- C++ -*---------------------------------*\ 
| ========                 |                                                 | 
| \      /  F ield         | OpenFOAM: The Open Source CFD Toolbox           | 
|  \    /   O peration     | Version:  v1812                                 | 
|   \  /    A nd           | Web:      www.OpenFOAM.com                      | 
|    \/     M anipulation  |                                                 | 
\*--------------------------------------------------------------------------*/ 
FoamFile
{
    version     2.0;
    format      ascii;
    class       volVectorField;
    location    "/home/james/dafoam/myRuns/bezier_coanda_opt/0.00000000001/";
    object      sens_CL_shapey;
}
// * * * * * * * * * * * * * * * * * * * * * * * * * * * * * * * * * * * * * //

dimensions      [0 0 0 0 0 0 0];
internalField   uniform (0 0 0);
boundaryField
{
    allWalls
    {
        type  wall;
        value nonuniform List<vector>
188
(
(-0.013069 0.004340 0.000256)
(-0.041081 0.016366 0.000268)
(-0.060370 0.029529 0.000267)
(-0.032520 0.018429 0.000266)
(-0.019630 0.020828 0.000265)
(-0.023703 0.032208 0.000264)
(-0.014339 0.025563 0.000263)
(-0.013745 0.026341 0.000262)
(-0.012244 0.028048 0.000261)
(-0.012281 0.033227 0.000260)
(-0.010716 0.034143 0.000259)
(-0.009222 0.034589 0.000258)
(-0.008823 0.036859 0.000434)
(-0.007980 0.038489 0.000610)
(-0.007715 0.042829 0.000610)
(-0.006770 0.044157 0.000610)
(-0.006040 0.046743 0.000610)
(-0.005407 0.050850 0.000610)
(-0.004660 0.054361 0.001146)
(-0.003847 0.058267 0.001776)
(-0.003061 0.065214 0.001969)
(-0.002060 0.073350 0.002168)
(-0.000759 0.086419 0.002366)
(0.000943 0.100423 0.002734)
(0.003404 0.118292 0.002756)
(0.006075 0.127705 0.001930)
(0.008370 0.123598 0.001191)
(0.010468 0.124077 0.000891)
(0.012627 0.128875 0.000636)
(0.014491 0.132864 0.000424)
(0.017002 0.141566 0.000250)
(0.017871 0.137093 0.000112)
(0.018830 0.136255 -0.000093)
(0.020626 0.143480 -0.000218)
(0.021440 0.142023 -0.000179)
(0.022534 0.142888 -0.000142)
(0.023955 0.143518 -0.000144)
(0.026656 0.152803 -0.000178)
(0.027413 0.153272 -0.000203)
(0.027252 0.149306 -0.000211)
(0.027854 0.149786 -0.000221)
(0.028078 0.147874 -0.000234)
(0.028210 0.146376 -0.000235)
(0.028219 0.144374 -0.000233)
(0.028003 0.141136 -0.000229)
(0.026789 0.132868 -0.000224)
(0.025049 0.121698 -0.000200)
(0.025718 0.124750 -0.000174)
(0.026471 0.125022 -0.000169)
(0.013022 0.045003 -0.000169)
(-0.002163 0.009604 -0.000169)
(-0.003561 0.012737 -0.000169)
(-0.004341 0.017202 0.000105)
(-0.005907 0.022371 0.000374)
(-0.006240 0.024516 0.000142)
(-0.005248 0.023357 -0.000082)
(-0.002696 0.016800 -0.000073)
(-0.000707 0.009163 -0.000061)
(-0.001971 0.012088 0.000141)
(-0.003304 0.017180 0.000335)
(-0.003504 0.018290 0.000179)
(-0.004112 0.021142 0.000179)
(-0.005197 0.026069 0.000336)
(-0.005984 0.031326 0.000341)
(-0.006810 0.036451 0.000257)
(-0.007528 0.041399 0.000268)
(-0.007792 0.046019 0.000374)
(-0.007470 0.050139 0.000312)
(-0.007141 0.053770 0.000334)
(-0.006726 0.056957 0.000407)
(-0.006056 0.059784 0.000591)
(-0.005335 0.062176 0.000674)
(-0.004422 0.064854 0.000603)
(-0.003446 0.067003 0.000695)
(-0.002498 0.066319 0.000763)
(-0.001549 0.069308 0.000745)
(-0.000111 0.066886 0.000620)
(0.000861 0.047971 0.000497)
(0.001578 0.042370 0.000430)
(0.002337 0.044505 0.000374)
(0.002507 0.036428 0.000328)
(0.002796 0.032466 0.000289)
(0.003231 0.030718 0.000441)
(0.003365 0.026914 0.000610)
(0.003719 0.025322 0.000610)
(0.003825 0.023346 0.000610)
(0.003768 0.020603 0.000610)
(0.004140 0.020212 0.000610)
(0.004663 0.019586 0.000406)
(0.005410 0.018636 0.000205)
(0.006401 0.016748 0.000209)
(0.006903 0.011058 0.000214)
(0.004805 -0.000673 0.000218)
(0.003313 -0.006917 0.000222)
(0.006975 0.003899 0.000226)
(0.007764 0.020482 0.000230)
(0.000870 0.013743 0.000233)
(-0.001870 -0.001664 0.000237)
(-0.000295 -0.001614 0.000240)
(-0.003035 0.001255 0.000242)
(0.001383 0.068502 -0.000169)
(0.001280 0.162547 -0.000169)
(0.001845 0.146947 -0.000169)
(0.005319 0.177816 -0.000169)
(0.007888 0.247166 -0.000169)
(0.009548 0.287759 -0.000169)
(0.011538 0.331761 -0.000169)
(0.015364 0.428168 -0.000169)
(0.022532 0.626050 -0.000169)
(0.028998 0.808559 -0.000135)
(0.029307 0.668620 -0.000101)
(0.048385 0.925248 -0.000101)
(0.233196 4.781637 -0.000101)
(0.512806 10.634232 -0.000101)
(-15.161230 -35.677621 -0.000101)
(211.032725 -365.687213 -0.000101)
(-13.364163 -13.437451 -0.000101)
(-12.625645 -6.073889 -0.000101)
(-20.189947 -37.514577 -0.000101)
(-184.956617 355.257598 -0.000101)
(9.416606 103.769704 -0.000044)
(6.300763 47.662693 0.000013)
(1.036898 13.895120 0.000013)
(-0.165300 -2.085329 0.000013)
(3.620647 10.330374 0.000013)
(0.061690 0.989480 0.000013)
(-1.160182 -2.418497 0.000013)
(-0.739043 -1.173794 0.000013)
(-0.525841 -0.982596 0.000013)
(0.975581 1.287600 0.000013)
(0.475511 0.687994 0.000013)
(0.372844 0.504388 0.000013)
(0.696696 0.802419 0.000013)
(0.968397 0.953253 0.000013)
(1.040107 0.956952 0.000013)
(6.236631 3.743680 0.000013)
(10.711003 5.809676 0.000013)
(9.017745 4.227026 0.000013)
(15.967112 5.807735 0.000013)
(-0.158314 0.955760 0.000013)
(2.000226 -0.383320 0.000013)
(15.502348 2.362371 0.000013)
(1.898013 -1.379453 0.000013)
(-22.882920 -5.416109 0.000013)
(-89.893742 6.844206 0.000013)
(-68.692025 16.551939 0.000013)
(4.456546 0.500888 0.000013)
(38.133574 -17.491060 0.000013)
(41.329666 -18.056942 0.000013)
(13.552955 -7.078007 0.000013)
(2.292700 -2.168655 0.000013)
(-0.351739 -1.229194 0.000013)
(0.977380 -1.613851 0.000013)
(1.644528 -2.369374 0.000013)
(2.146549 -1.500518 0.000013)
(0.522449 0.201665 0.000013)
(0.685438 0.128529 0.000013)
(0.739184 -0.227398 0.000013)
(0.455699 -0.213788 0.000013)
(0.259618 -0.165388 0.000013)
(0.152060 -0.124830 0.000013)
(0.068193 -0.060024 0.000013)
(0.017948 -0.008852 0.000013)
(-0.007777 0.025906 0.000013)
(-0.016928 0.041626 0.000013)
(-0.016164 0.040219 0.000013)
(-0.013161 0.031768 0.000013)
(-0.008722 0.019805 -0.000044)
(-23.439746 0.008931 -0.000101)
(23.435054 0.001762 -0.000101)
(-0.005957 0.009266 -0.000101)
(0.006597 0.000275 -0.000101)
(0.009081 -0.004957 -0.000101)
(-0.010849 0.024734 -0.000101)
(-0.010395 0.030737 -0.000101)
(-0.004523 0.017716 -0.000101)
(-0.003153 0.016633 -0.000101)
(-0.002158 0.014928 -0.000101)
(-0.001534 0.014017 -0.000135)
(-0.001198 0.013013 -0.000169)
(-0.000990 0.011934 -0.000169)
(-0.000868 0.011008 -0.000169)
(-0.000786 0.010006 -0.000169)
(-0.000756 0.009263 -0.000169)
(-0.000576 0.009100 -0.000169)
(-0.000385 0.008690 -0.000169)
(-0.000240 0.009259 -0.000169)
(-0.000503 0.009373 -0.000169)
)
;
    }
}
