/*--------------------------------*- C++ -*---------------------------------*\ 
| ========                 |                                                 | 
| \      /  F ield         | OpenFOAM: The Open Source CFD Toolbox           | 
|  \    /   O peration     | Version:  v1812                                 | 
|   \  /    A nd           | Web:      www.OpenFOAM.com                      | 
|    \/     M anipulation  |                                                 | 
\*--------------------------------------------------------------------------*/ 
FoamFile
{
    version     2.0;
    format      ascii;
    class       volVectorField;
    location    "/home/james/dafoam/myRuns/bezier_coanda_opt/0.00000000001/";
    object      sens_CL_shapey;
}
// * * * * * * * * * * * * * * * * * * * * * * * * * * * * * * * * * * * * * //

dimensions      [0 0 0 0 0 0 0];
internalField   uniform (0 0 0);
boundaryField
{
    allWalls
    {
        type  wall;
        value nonuniform List<vector>
188
(
(-0.259278 0.100781 0.000138)
(0.018634 -0.136871 0.000142)
(0.860784 -0.245631 0.000140)
(0.175426 -0.029775 0.000139)
(0.130878 -0.118932 0.000137)
(0.262791 -0.427440 0.000135)
(-0.072887 0.064307 0.000134)
(-0.267955 0.329917 0.000132)
(-0.047327 0.069423 0.000130)
(-0.086876 0.142080 0.000128)
(-0.066589 0.133939 0.000126)
(-0.062162 0.142082 0.000124)
(-0.027976 0.081813 0.000250)
(-0.029341 0.102159 0.000378)
(-0.012924 0.051814 0.000380)
(-0.011579 0.055516 0.000383)
(-0.012739 0.072283 0.000385)
(-0.009563 0.061963 0.000388)
(-0.007671 0.059889 0.000837)
(-0.007184 0.069493 0.001356)
(-0.005152 0.062524 0.001505)
(-0.003555 0.058453 0.001664)
(-0.002381 0.052012 0.001830)
(-0.001380 0.078507 0.002000)
(-0.000253 0.094464 0.001971)
(0.002202 0.082366 0.001777)
(0.001851 0.051064 0.001582)
(0.002414 0.034626 0.001358)
(0.004912 0.051590 0.001156)
(0.005629 0.047766 0.000979)
(0.006892 0.049405 0.000832)
(0.008018 0.050414 0.000691)
(0.009332 0.052612 0.000549)
(0.011186 0.057396 0.000354)
(0.013371 0.063560 0.000225)
(0.016435 0.070646 0.000230)
(0.019727 0.078400 0.000234)
(0.022655 0.086772 0.000172)
(0.025696 0.095405 0.000087)
(0.028631 0.103337 0.000045)
(0.032168 0.113390 0.000023)
(0.036471 0.125817 0.000023)
(0.037536 0.125817 -0.000003)
(0.032959 0.105287 -0.000003)
(0.041296 0.128205 0.000023)
(0.084989 0.263665 0.000023)
(0.081482 0.211070 -0.000023)
(-0.096326 -0.458240 -0.000077)
(-0.259573 -1.153101 -0.000085)
(0.320482 1.479873 -0.000085)
(0.142614 -1.444021 -0.000085)
(-0.220345 1.035402 -0.000085)
(-0.082493 0.340962 -0.000058)
(0.026040 -0.084350 0.000141)
(-0.022855 0.066306 0.000168)
(0.013943 -0.032639 0.000023)
(0.017193 -0.047084 0.000023)
(0.018958 -0.056394 0.000023)
(0.037638 -0.121502 0.000023)
(0.070933 -0.255750 0.000170)
(0.101546 -0.435959 0.000252)
(0.051198 -0.341537 0.000256)
(0.199485 -0.244614 0.000328)
(0.121262 -0.236424 0.000335)
(-0.098793 -0.077076 0.000344)
(-0.055757 0.067528 0.000443)
(-0.060618 0.172031 0.000455)
(-0.002328 0.259123 0.000380)
(0.041508 0.087981 0.000603)
(0.022858 -0.175147 0.000868)
(-0.005010 -0.093608 0.000964)
(-0.013473 0.062288 0.001059)
(-0.009820 0.091375 0.001185)
(-0.005714 0.089240 0.001268)
(-0.002991 0.095486 0.001294)
(-0.000392 0.107186 0.001230)
(0.001554 0.089338 0.000917)
(0.002649 0.062428 0.000647)
(0.004187 0.062712 0.000570)
(0.005339 0.061063 0.000508)
(0.005511 0.051875 0.000459)
(0.005789 0.045261 0.000421)
(0.006335 0.042129 0.000375)
(0.006448 0.037289 0.000346)
(0.007055 0.034787 0.000348)
(0.007318 0.032055 0.000350)
(0.007470 0.029416 0.000351)
(0.008071 0.029278 0.000353)
(0.008870 0.028747 0.000237)
(0.010732 0.025827 0.000120)
(0.011283 0.012736 0.000122)
(0.008663 -0.002825 0.000123)
(0.010931 0.009512 0.000125)
(0.011967 0.055016 0.000126)
(-0.009806 0.086227 0.000127)
(-0.064616 0.071977 0.000129)
(-0.207399 -0.032768 0.000130)
(-0.516976 -0.224850 0.000131)
(-0.511010 -0.248237 0.000132)
(0.348028 -0.087826 0.000133)
(0.303797 1.570134 -0.000085)
(-0.264770 -1.263184 -0.000085)
(-0.110624 -0.698141 -0.000085)
(0.016401 0.393655 -0.000085)
(0.022488 0.500681 -0.000085)
(0.006565 0.173873 -0.000085)
(0.011899 0.127041 -0.000085)
(0.025978 0.183318 -0.000085)
(0.054735 0.627615 -0.000085)
(0.087922 0.931950 -0.000064)
(0.088048 -1.585464 -0.000043)
(0.227766 -5.219587 -0.000043)
(1.160274 9.099134 -0.000043)
(4.023841 53.639513 -0.000043)
(-40.755144 -81.094427 -0.000043)
(47.585952 -463.958497 -0.000043)
(-27.153848 -5.711765 -0.000043)
(-11.853307 -1.592610 -0.000043)
(-53.148286 -131.981473 -0.000043)
(-4.901395 492.698959 -0.000043)
(5.950259 56.250531 -0.000007)
(-5.727303 25.900625 0.000029)
(-3.396734 5.027661 0.000029)
(-0.030413 1.306142 0.000029)
(3.167416 8.994764 0.000029)
(2.112571 6.186354 0.000029)
(1.239464 3.647986 0.000029)
(2.075297 4.390538 0.000029)
(0.623631 2.216710 0.000029)
(0.938722 2.777928 0.000029)
(3.641379 6.019033 0.000029)
(-0.376522 1.437111 0.000029)
(-0.215417 0.832685 0.000029)
(-0.201538 1.293645 0.000029)
(-0.863605 0.380197 0.000029)
(-1.261542 0.608649 0.000029)
(-0.833521 0.548079 0.000029)
(-0.168877 1.231921 0.000029)
(-0.807679 0.648177 0.000029)
(0.718634 1.265535 0.000029)
(0.067078 0.848721 0.000029)
(0.996926 0.937515 0.000029)
(1.297065 0.710428 0.000029)
(2.082704 0.447012 0.000029)
(2.291447 0.035700 0.000029)
(2.218600 -0.296462 0.000029)
(1.401255 -0.426942 0.000029)
(1.268056 -0.523835 0.000029)
(1.216194 -0.497912 0.000029)
(0.633789 -0.307302 0.000029)
(0.676632 -0.318830 0.000029)
(0.586554 -0.291407 0.000029)
(0.407832 -0.285649 0.000029)
(0.539153 -0.441380 0.000029)
(0.480183 -0.456371 0.000029)
(0.431575 -0.471536 0.000029)
(0.741709 -0.817798 0.000029)
(0.954611 -1.102490 0.000029)
(0.794085 -1.011538 0.000029)
(0.882898 -1.285361 0.000029)
(1.179096 -1.948766 0.000029)
(1.334298 -2.531856 0.000029)
(1.147186 -2.535723 0.000029)
(0.839153 -2.253678 0.000029)
(0.313613 -1.036146 0.000029)
(0.053478 -0.113280 0.000029)
(-0.160947 1.155389 0.000029)
(-0.427037 1.615488 -0.000007)
(-23.332197 0.265655 -0.000043)
(22.990059 0.260715 -0.000043)
(-0.334720 0.169202 -0.000043)
(0.375199 -0.341875 -0.000043)
(-2.119913 8.746379 -0.000043)
(-2.408067 5.535945 -0.000043)
(0.370019 -4.593660 -0.000043)
(0.066069 -0.887647 -0.000043)
(0.006892 0.031608 -0.000043)
(0.012295 -0.104908 -0.000043)
(0.012255 -0.029822 -0.000064)
(0.010857 0.027500 -0.000085)
(0.007858 0.038167 -0.000085)
(0.004752 0.072682 -0.000085)
(0.002203 0.112190 -0.000085)
(0.005504 -0.032684 -0.000085)
(0.006344 -0.158883 -0.000085)
(-0.022384 0.420074 -0.000085)
(-0.028436 1.165524 -0.000085)
(0.226617 -1.325141 -0.000085)
)
;
    }
}
