/*--------------------------------*- C++ -*---------------------------------*\ 
| ========                 |                                                 | 
| \      /  F ield         | OpenFOAM: The Open Source CFD Toolbox           | 
|  \    /   O peration     | Version:  v1812                                 | 
|   \  /    A nd           | Web:      www.OpenFOAM.com                      | 
|    \/     M anipulation  |                                                 | 
\*--------------------------------------------------------------------------*/ 
FoamFile
{
    version     2.0;
    format      ascii;
    class       volVectorField;
    location    "/home/james/dafoam/myRuns/bezier_coanda_opt/0.00000000001/";
    object      sens_CL_shapey;
}
// * * * * * * * * * * * * * * * * * * * * * * * * * * * * * * * * * * * * * //

dimensions      [0 0 0 0 0 0 0];
internalField   uniform (0 0 0);
boundaryField
{
    allWalls
    {
        type  wall;
        value nonuniform List<vector>
188
(
(-0.258427 0.100371 0.000138)
(0.025820 -0.139261 0.000142)
(0.867674 -0.247813 0.000140)
(0.176033 -0.030277 0.000139)
(0.131783 -0.121001 0.000137)
(0.261410 -0.427434 0.000135)
(-0.075296 0.066891 0.000134)
(-0.268904 0.331921 0.000132)
(-0.047646 0.069999 0.000130)
(-0.086839 0.142348 0.000128)
(-0.066802 0.134640 0.000126)
(-0.062139 0.142348 0.000124)
(-0.027896 0.081819 0.000250)
(-0.029075 0.101334 0.000377)
(-0.012968 0.052031 0.000380)
(-0.011724 0.056169 0.000382)
(-0.012682 0.072102 0.000385)
(-0.009567 0.062066 0.000388)
(-0.007670 0.059916 0.000838)
(-0.007178 0.069540 0.001357)
(-0.005145 0.062512 0.001505)
(-0.003543 0.058353 0.001663)
(-0.002379 0.052023 0.001829)
(-0.001379 0.078480 0.001999)
(-0.000252 0.094489 0.001963)
(0.002192 0.082265 0.001765)
(0.001848 0.051006 0.001571)
(0.002420 0.034744 0.001347)
(0.004907 0.051611 0.001147)
(0.005626 0.047805 0.000970)
(0.006895 0.049478 0.000821)
(0.008008 0.050424 0.000679)
(0.009326 0.052647 0.000537)
(0.011192 0.057504 0.000353)
(0.013345 0.063532 0.000235)
(0.016407 0.070620 0.000240)
(0.019702 0.078408 0.000244)
(0.022617 0.086746 0.000171)
(0.025657 0.095393 0.000075)
(0.028565 0.103239 0.000045)
(0.032098 0.113300 0.000035)
(0.036417 0.125816 0.000035)
(0.037454 0.125721 -0.000003)
(0.032858 0.105097 -0.000003)
(0.041216 0.128149 0.000035)
(0.084912 0.263871 0.000035)
(0.081406 0.211272 -0.000023)
(-0.096528 -0.459354 -0.000083)
(-0.259981 -1.155814 -0.000085)
(0.320675 1.482970 -0.000085)
(0.142483 -1.442239 -0.000085)
(-0.220255 1.034115 -0.000085)
(-0.082443 0.340655 -0.000058)
(0.026069 -0.084340 0.000146)
(-0.022772 0.066007 0.000179)
(0.013870 -0.032400 0.000035)
(0.017135 -0.046859 0.000035)
(0.018974 -0.056371 0.000035)
(0.037633 -0.121340 0.000035)
(0.070900 -0.255300 0.000181)
(0.101613 -0.435412 0.000251)
(0.051348 -0.341522 0.000255)
(0.199233 -0.244697 0.000338)
(0.121249 -0.236268 0.000344)
(-0.098506 -0.077042 0.000354)
(-0.055542 0.066884 0.000442)
(-0.060719 0.172730 0.000454)
(-0.002620 0.257140 0.000390)
(0.041776 0.080418 0.000605)
(0.022652 -0.175982 0.000861)
(-0.005623 -0.088423 0.000956)
(-0.013666 0.064266 0.001051)
(-0.009847 0.091695 0.001175)
(-0.005742 0.089593 0.001257)
(-0.003012 0.095848 0.001282)
(-0.000402 0.107350 0.001219)
(0.001556 0.089492 0.000912)
(0.002653 0.062546 0.000647)
(0.004198 0.062798 0.000570)
(0.005343 0.061056 0.000509)
(0.005514 0.051828 0.000461)
(0.005798 0.045287 0.000422)
(0.006341 0.042118 0.000375)
(0.006459 0.037309 0.000345)
(0.007060 0.034763 0.000346)
(0.007329 0.032055 0.000348)
(0.007471 0.029385 0.000349)
(0.008083 0.029246 0.000351)
(0.008867 0.028670 0.000236)
(0.010747 0.025774 0.000120)
(0.011212 0.012543 0.000122)
(0.008627 -0.002873 0.000123)
(0.010828 0.009628 0.000125)
(0.011612 0.054907 0.000126)
(-0.010746 0.086571 0.000127)
(-0.065768 0.072487 0.000129)
(-0.207544 -0.032627 0.000130)
(-0.517140 -0.224459 0.000131)
(-0.515411 -0.248025 0.000132)
(0.344190 -0.088261 0.000133)
(0.304152 1.573356 -0.000085)
(-0.264883 -1.266019 -0.000085)
(-0.110628 -0.699206 -0.000085)
(0.016467 0.394366 -0.000085)
(0.022534 0.500944 -0.000085)
(0.006576 0.173632 -0.000085)
(0.011901 0.126794 -0.000085)
(0.025983 0.183117 -0.000085)
(0.054751 0.627701 -0.000085)
(0.087943 0.931987 -0.000064)
(0.088038 -1.587353 -0.000043)
(0.227772 -5.223296 -0.000043)
(1.160688 9.103183 -0.000043)
(4.025585 53.663071 -0.000043)
(-40.737222 -81.095191 -0.000043)
(47.703256 -463.964236 -0.000043)
(-27.143962 -5.702928 -0.000043)
(-11.868394 -1.596757 -0.000043)
(-53.152412 -132.010198 -0.000043)
(-5.018407 492.689453 -0.000043)
(5.944103 56.299516 -0.000007)
(-5.726808 25.899795 0.000029)
(-3.400151 5.001299 0.000029)
(-0.022066 1.334683 0.000029)
(3.171441 9.028905 0.000029)
(2.106036 6.177932 0.000029)
(1.235377 3.641487 0.000029)
(2.070152 4.380790 0.000029)
(0.623740 2.215557 0.000029)
(0.947533 2.792396 0.000029)
(3.633538 6.016518 0.000029)
(-0.376863 1.436281 0.000029)
(-0.221797 0.829098 0.000029)
(-0.202688 1.290622 0.000029)
(-0.867285 0.379825 0.000029)
(-1.271194 0.601082 0.000029)
(-0.843401 0.544318 0.000029)
(-0.191083 1.221393 0.000029)
(-0.817048 0.645785 0.000029)
(0.708715 1.263079 0.000029)
(0.036947 0.844103 0.000029)
(0.951443 0.929957 0.000029)
(1.259813 0.703264 0.000029)
(2.196324 0.455473 0.000029)
(2.511889 0.055698 0.000029)
(2.219781 -0.274458 0.000029)
(1.325090 -0.410568 0.000029)
(1.253591 -0.517146 0.000029)
(1.193468 -0.492019 0.000029)
(0.632515 -0.307729 0.000029)
(0.658371 -0.314962 0.000029)
(0.559835 -0.290004 0.000029)
(0.405516 -0.294517 0.000029)
(0.546996 -0.450282 0.000029)
(0.486276 -0.462717 0.000029)
(0.436358 -0.476384 0.000029)
(0.736453 -0.813056 0.000029)
(0.949792 -1.098613 0.000029)
(0.794884 -1.012877 0.000029)
(0.881905 -1.284093 0.000029)
(1.179168 -1.948507 0.000029)
(1.332891 -2.528260 0.000029)
(1.144144 -2.528871 0.000029)
(0.836534 -2.247233 0.000029)
(0.312341 -1.032598 0.000029)
(0.052824 -0.111829 0.000029)
(-0.161087 1.153170 0.000029)
(-0.426273 1.611924 -0.000007)
(-23.331959 0.265329 -0.000043)
(22.990795 0.260013 -0.000043)
(-0.333810 0.168424 -0.000043)
(0.373386 -0.341069 -0.000043)
(-2.115637 8.728599 -0.000043)
(-2.402142 5.523073 -0.000043)
(0.369445 -4.585233 -0.000043)
(0.065963 -0.885873 -0.000043)
(0.006878 0.031326 -0.000043)
(0.012267 -0.104707 -0.000043)
(0.012236 -0.029885 -0.000064)
(0.010839 0.027528 -0.000085)
(0.007840 0.038263 -0.000085)
(0.004739 0.072813 -0.000085)
(0.002200 0.112075 -0.000085)
(0.005499 -0.032696 -0.000085)
(0.006330 -0.158754 -0.000085)
(-0.022377 0.419574 -0.000085)
(-0.028416 1.164189 -0.000085)
(0.226509 -1.323456 -0.000085)
)
;
    }
}
