/*--------------------------------*- C++ -*----------------------------------*\
  =========                 |
  \\      /  F ield         | OpenFOAM: The Open Source CFD Toolbox
   \\    /   O peration     | Website:  https://openfoam.org
    \\  /    A nd           | Version:  8
     \\/     M anipulation  |
\*---------------------------------------------------------------------------*/
FoamFile
{
    version     2.0;
    format      ascii;
    class       volScalarField;
    location    "4.6";
    object      p;
}
// * * * * * * * * * * * * * * * * * * * * * * * * * * * * * * * * * * * * * //

dimensions      [0 2 -2 0 0 0 0];

internalField   nonuniform List<scalar> 
262620
(
-1.36432
-1.36454
-1.36521
-1.36623
-1.36757
-1.36921
-1.37114
-1.37335
-1.37581
-1.37851
-1.38143
-1.38456
-1.38788
-1.39138
-1.39503
-1.39884
-1.40279
-1.40686
-1.41104
-1.41533
-1.41971
-1.42417
-1.4287
-1.43329
-1.43794
-1.44264
-1.44737
-1.45214
-1.45693
-1.46173
-1.46655
-1.47138
-1.4762
-1.48103
-1.48584
-1.49064
-1.49543
-1.50019
-1.50493
-1.50964
-1.51432
-1.51897
-1.52358
-1.52815
-1.53268
-1.53717
-1.54161
-1.54601
-1.55036
-1.55467
-1.55892
-1.56312
-1.56727
-1.57137
-1.57542
-1.57941
-1.58335
-1.58723
-1.59106
-1.59484
-1.59855
-1.60222
-1.60583
-1.60938
-1.61288
-1.61633
-1.61972
-1.62305
-1.62634
-1.62957
-1.63274
-1.63587
-1.63894
-1.64196
-1.64493
-1.64784
-1.65071
-1.65353
-1.6563
-1.65902
-1.6617
-1.66433
-1.66691
-1.66944
-1.67193
-1.67438
-1.67678
-1.67913
-1.68145
-1.68372
-1.68596
-1.68815
-1.6903
-1.69241
-1.69449
-1.69652
-1.69852
-1.70048
-1.70241
-1.7043
-1.70615
-1.70797
-1.70976
-1.71151
-1.71323
-1.71492
-1.71658
-1.7182
-1.7198
-1.72137
-1.72291
-1.72441
-1.7259
-1.72735
-1.72877
-1.73017
-1.73155
-1.7329
-1.73422
-1.73552
-1.36419
-1.36441
-1.36508
-1.36609
-1.36743
-1.36907
-1.371
-1.37321
-1.37567
-1.37837
-1.38129
-1.38442
-1.38774
-1.39123
-1.39489
-1.3987
-1.40265
-1.40672
-1.4109
-1.41519
-1.41957
-1.42403
-1.42856
-1.43316
-1.43781
-1.4425
-1.44724
-1.45201
-1.4568
-1.46161
-1.46643
-1.47126
-1.47609
-1.48091
-1.48573
-1.49053
-1.49532
-1.50008
-1.50482
-1.50954
-1.51422
-1.51887
-1.52348
-1.52806
-1.53259
-1.53708
-1.54153
-1.54593
-1.55029
-1.55459
-1.55885
-1.56306
-1.56721
-1.57131
-1.57536
-1.57936
-1.5833
-1.58718
-1.59101
-1.59479
-1.59851
-1.60218
-1.60579
-1.60935
-1.61285
-1.6163
-1.61969
-1.62303
-1.62632
-1.62955
-1.63273
-1.63586
-1.63893
-1.64195
-1.64493
-1.64785
-1.65072
-1.65354
-1.65631
-1.65904
-1.66171
-1.66434
-1.66693
-1.66947
-1.67196
-1.67441
-1.67681
-1.67917
-1.68149
-1.68376
-1.686
-1.68819
-1.69035
-1.69246
-1.69454
-1.69658
-1.69858
-1.70054
-1.70247
-1.70436
-1.70622
-1.70804
-1.70983
-1.71158
-1.7133
-1.715
-1.71666
-1.71828
-1.71988
-1.72145
-1.72299
-1.7245
-1.72598
-1.72744
-1.72887
-1.73027
-1.73164
-1.73299
-1.73432
-1.73562
-1.36396
-1.36417
-1.36484
-1.36585
-1.36718
-1.36882
-1.37075
-1.37296
-1.37542
-1.37811
-1.38104
-1.38416
-1.38748
-1.39098
-1.39464
-1.39845
-1.4024
-1.40647
-1.41065
-1.41494
-1.41932
-1.42379
-1.42832
-1.43292
-1.43757
-1.44227
-1.44701
-1.45178
-1.45658
-1.46139
-1.46622
-1.47105
-1.47588
-1.48071
-1.48553
-1.49034
-1.49513
-1.4999
-1.50465
-1.50936
-1.51405
-1.51871
-1.52332
-1.5279
-1.53244
-1.53694
-1.54139
-1.5458
-1.55016
-1.55447
-1.55873
-1.56294
-1.5671
-1.57121
-1.57526
-1.57926
-1.58321
-1.5871
-1.59094
-1.59472
-1.59845
-1.60212
-1.60574
-1.6093
-1.61281
-1.61626
-1.61966
-1.623
-1.62629
-1.62953
-1.63271
-1.63584
-1.63892
-1.64195
-1.64492
-1.64785
-1.65073
-1.65355
-1.65633
-1.65906
-1.66174
-1.66437
-1.66696
-1.6695
-1.672
-1.67445
-1.67686
-1.67922
-1.68154
-1.68382
-1.68606
-1.68826
-1.69041
-1.69253
-1.69461
-1.69665
-1.69866
-1.70062
-1.70255
-1.70445
-1.70631
-1.70813
-1.70992
-1.71168
-1.71341
-1.7151
-1.71676
-1.7184
-1.72
-1.72157
-1.72311
-1.72462
-1.72611
-1.72757
-1.729
-1.7304
-1.73178
-1.73313
-1.73446
-1.73576
-1.36361
-1.36382
-1.36448
-1.36549
-1.36682
-1.36845
-1.37038
-1.37258
-1.37504
-1.37774
-1.38066
-1.38378
-1.3871
-1.3906
-1.39426
-1.39807
-1.40202
-1.40609
-1.41028
-1.41457
-1.41896
-1.42342
-1.42796
-1.43256
-1.43722
-1.44193
-1.44667
-1.45144
-1.45624
-1.46106
-1.46589
-1.47073
-1.47557
-1.48041
-1.48523
-1.49005
-1.49485
-1.49962
-1.50437
-1.5091
-1.51379
-1.51846
-1.52308
-1.52767
-1.53222
-1.53672
-1.54118
-1.5456
-1.54996
-1.55428
-1.55855
-1.56277
-1.56694
-1.57105
-1.57511
-1.57912
-1.58307
-1.58697
-1.59082
-1.59461
-1.59834
-1.60202
-1.60565
-1.60922
-1.61273
-1.61619
-1.6196
-1.62295
-1.62625
-1.62949
-1.63268
-1.63582
-1.63891
-1.64194
-1.64492
-1.64786
-1.65074
-1.65357
-1.65635
-1.65909
-1.66178
-1.66442
-1.66701
-1.66956
-1.67206
-1.67452
-1.67693
-1.6793
-1.68163
-1.68392
-1.68616
-1.68836
-1.69053
-1.69265
-1.69473
-1.69678
-1.69879
-1.70076
-1.7027
-1.7046
-1.70646
-1.70829
-1.71009
-1.71185
-1.71358
-1.71528
-1.71695
-1.71859
-1.72019
-1.72177
-1.72331
-1.72483
-1.72632
-1.72778
-1.72922
-1.73062
-1.73201
-1.73336
-1.73469
-1.736
-1.36315
-1.36335
-1.36401
-1.36501
-1.36633
-1.36796
-1.36989
-1.37209
-1.37454
-1.37724
-1.38016
-1.38328
-1.3866
-1.3901
-1.39376
-1.39757
-1.40152
-1.4056
-1.40979
-1.41409
-1.41847
-1.42294
-1.42749
-1.43209
-1.43676
-1.44147
-1.44622
-1.451
-1.45581
-1.46063
-1.46547
-1.47032
-1.47516
-1.48001
-1.48484
-1.48966
-1.49447
-1.49926
-1.50402
-1.50875
-1.51346
-1.51813
-1.52276
-1.52736
-1.53192
-1.53643
-1.5409
-1.54533
-1.5497
-1.55403
-1.55831
-1.56254
-1.56672
-1.57084
-1.57492
-1.57893
-1.5829
-1.58681
-1.59066
-1.59446
-1.59821
-1.6019
-1.60553
-1.60911
-1.61263
-1.6161
-1.61952
-1.62288
-1.62619
-1.62944
-1.63264
-1.63579
-1.63888
-1.64193
-1.64492
-1.64786
-1.65075
-1.65359
-1.65639
-1.65913
-1.66183
-1.66447
-1.66708
-1.66963
-1.67214
-1.67461
-1.67703
-1.67941
-1.68174
-1.68404
-1.68629
-1.6885
-1.69067
-1.6928
-1.69489
-1.69694
-1.69896
-1.70094
-1.70288
-1.70479
-1.70666
-1.7085
-1.7103
-1.71207
-1.7138
-1.71551
-1.71718
-1.71882
-1.72043
-1.72202
-1.72357
-1.72509
-1.72659
-1.72805
-1.72949
-1.73091
-1.73229
-1.73365
-1.73499
-1.7363
-1.36258
-1.36277
-1.36342
-1.36442
-1.36573
-1.36736
-1.36928
-1.37147
-1.37393
-1.37662
-1.37954
-1.38266
-1.38598
-1.38948
-1.39314
-1.39695
-1.40091
-1.40499
-1.40918
-1.41348
-1.41787
-1.42235
-1.4269
-1.43151
-1.43618
-1.4409
-1.44566
-1.45045
-1.45526
-1.4601
-1.46494
-1.4698
-1.47466
-1.47951
-1.48436
-1.48919
-1.49401
-1.4988
-1.50358
-1.50832
-1.51304
-1.51772
-1.52237
-1.52698
-1.53155
-1.53607
-1.54056
-1.54499
-1.54938
-1.55373
-1.55802
-1.56226
-1.56645
-1.57059
-1.57467
-1.5787
-1.58268
-1.5866
-1.59047
-1.59428
-1.59804
-1.60174
-1.60539
-1.60898
-1.61251
-1.616
-1.61942
-1.6228
-1.62612
-1.62938
-1.63259
-1.63575
-1.63886
-1.64191
-1.64492
-1.64787
-1.65077
-1.65362
-1.65643
-1.65918
-1.66189
-1.66455
-1.66716
-1.66972
-1.67225
-1.67472
-1.67715
-1.67954
-1.68188
-1.68419
-1.68645
-1.68867
-1.69085
-1.69299
-1.69509
-1.69715
-1.69917
-1.70116
-1.70311
-1.70503
-1.70691
-1.70875
-1.71056
-1.71234
-1.71408
-1.7158
-1.71748
-1.71912
-1.72074
-1.72233
-1.72389
-1.72542
-1.72692
-1.7284
-1.72984
-1.73126
-1.73265
-1.73402
-1.73536
-1.73668
-1.36191
-1.36209
-1.36272
-1.36371
-1.36502
-1.36664
-1.36856
-1.37075
-1.37319
-1.37588
-1.3788
-1.38192
-1.38524
-1.38874
-1.3924
-1.39622
-1.40018
-1.40426
-1.40846
-1.41276
-1.41716
-1.42164
-1.4262
-1.43082
-1.4355
-1.44022
-1.44499
-1.44979
-1.45462
-1.45946
-1.46432
-1.46919
-1.47406
-1.47892
-1.48378
-1.48863
-1.49346
-1.49827
-1.50305
-1.50781
-1.51254
-1.51724
-1.5219
-1.52652
-1.53111
-1.53565
-1.54015
-1.5446
-1.549
-1.55336
-1.55767
-1.56192
-1.56613
-1.57028
-1.57438
-1.57843
-1.58242
-1.58635
-1.59024
-1.59406
-1.59784
-1.60155
-1.60521
-1.60882
-1.61237
-1.61587
-1.61931
-1.6227
-1.62603
-1.62931
-1.63253
-1.63571
-1.63883
-1.6419
-1.64491
-1.64788
-1.65079
-1.65366
-1.65647
-1.65924
-1.66196
-1.66463
-1.66726
-1.66983
-1.67237
-1.67485
-1.6773
-1.6797
-1.68205
-1.68437
-1.68664
-1.68887
-1.69106
-1.69321
-1.69532
-1.69739
-1.69943
-1.70142
-1.70338
-1.70531
-1.7072
-1.70905
-1.71087
-1.71266
-1.71441
-1.71613
-1.71782
-1.71948
-1.72111
-1.7227
-1.72427
-1.72581
-1.72732
-1.7288
-1.73025
-1.73168
-1.73308
-1.73446
-1.7358
-1.73713
-1.36112
-1.36129
-1.36192
-1.3629
-1.3642
-1.36581
-1.36772
-1.36991
-1.37235
-1.37503
-1.37795
-1.38107
-1.38439
-1.38789
-1.39155
-1.39537
-1.39933
-1.40342
-1.40762
-1.41193
-1.41634
-1.42083
-1.42539
-1.43002
-1.43471
-1.43944
-1.44422
-1.44903
-1.45387
-1.45873
-1.4636
-1.46848
-1.47336
-1.47824
-1.48311
-1.48797
-1.49282
-1.49764
-1.50245
-1.50722
-1.51197
-1.51668
-1.52136
-1.526
-1.5306
-1.53516
-1.53967
-1.54414
-1.54856
-1.55294
-1.55726
-1.56154
-1.56576
-1.56993
-1.57404
-1.57811
-1.58212
-1.58607
-1.58997
-1.59381
-1.5976
-1.60134
-1.60502
-1.60864
-1.61221
-1.61572
-1.61918
-1.62258
-1.62593
-1.62923
-1.63247
-1.63566
-1.63879
-1.64188
-1.64491
-1.64789
-1.65082
-1.6537
-1.65653
-1.65931
-1.66205
-1.66473
-1.66737
-1.66996
-1.67251
-1.67501
-1.67747
-1.67988
-1.68225
-1.68457
-1.68686
-1.6891
-1.6913
-1.69347
-1.69559
-1.69767
-1.69972
-1.70173
-1.7037
-1.70564
-1.70754
-1.7094
-1.71123
-1.71303
-1.71479
-1.71653
-1.71822
-1.71989
-1.72153
-1.72314
-1.72471
-1.72626
-1.72778
-1.72927
-1.73073
-1.73217
-1.73358
-1.73496
-1.73632
-1.73765
-1.36024
-1.36039
-1.36101
-1.36198
-1.36327
-1.36487
-1.36677
-1.36895
-1.37139
-1.37407
-1.37698
-1.3801
-1.38342
-1.38692
-1.39059
-1.39441
-1.39837
-1.40247
-1.40668
-1.41099
-1.41541
-1.4199
-1.42448
-1.42912
-1.43381
-1.43856
-1.44335
-1.44817
-1.45302
-1.45789
-1.46278
-1.46767
-1.47257
-1.47747
-1.48236
-1.48723
-1.4921
-1.49694
-1.50176
-1.50655
-1.51132
-1.51605
-1.52075
-1.5254
-1.53002
-1.5346
-1.53914
-1.54362
-1.54807
-1.55246
-1.5568
-1.5611
-1.56534
-1.56953
-1.57366
-1.57775
-1.58178
-1.58575
-1.58967
-1.59353
-1.59734
-1.60109
-1.60479
-1.60843
-1.61202
-1.61555
-1.61903
-1.62245
-1.62582
-1.62913
-1.63239
-1.6356
-1.63875
-1.64185
-1.6449
-1.6479
-1.65085
-1.65375
-1.65659
-1.65939
-1.66214
-1.66484
-1.6675
-1.67011
-1.67267
-1.67518
-1.67766
-1.68008
-1.68247
-1.68481
-1.68711
-1.68937
-1.69158
-1.69376
-1.6959
-1.69799
-1.70005
-1.70207
-1.70406
-1.70601
-1.70792
-1.7098
-1.71164
-1.71345
-1.71523
-1.71697
-1.71868
-1.72036
-1.72201
-1.72362
-1.72521
-1.72677
-1.7283
-1.7298
-1.73127
-1.73272
-1.73414
-1.73553
-1.7369
-1.73823
-1.35926
-1.35939
-1.36
-1.36095
-1.36223
-1.36383
-1.36572
-1.36789
-1.37032
-1.373
-1.37591
-1.37903
-1.38235
-1.38585
-1.38951
-1.39334
-1.39731
-1.4014
-1.40562
-1.40995
-1.41437
-1.41887
-1.42346
-1.42811
-1.43282
-1.43758
-1.44238
-1.44721
-1.45208
-1.45697
-1.46187
-1.46678
-1.47169
-1.47661
-1.48151
-1.48641
-1.49129
-1.49615
-1.50099
-1.50581
-1.51059
-1.51534
-1.52006
-1.52474
-1.52938
-1.53398
-1.53854
-1.54305
-1.54751
-1.55192
-1.55629
-1.56061
-1.56487
-1.56908
-1.57324
-1.57734
-1.58139
-1.58539
-1.58933
-1.59322
-1.59705
-1.60082
-1.60454
-1.6082
-1.61181
-1.61536
-1.61886
-1.6223
-1.62569
-1.62903
-1.63231
-1.63553
-1.63871
-1.64183
-1.6449
-1.64792
-1.65088
-1.6538
-1.65666
-1.65948
-1.66225
-1.66497
-1.66764
-1.67027
-1.67285
-1.67538
-1.67787
-1.68031
-1.68271
-1.68507
-1.68739
-1.68966
-1.69189
-1.69408
-1.69624
-1.69835
-1.70042
-1.70246
-1.70446
-1.70642
-1.70835
-1.71024
-1.7121
-1.71392
-1.71571
-1.71747
-1.71919
-1.72088
-1.72254
-1.72417
-1.72577
-1.72734
-1.72888
-1.73039
-1.73188
-1.73334
-1.73477
-1.73617
-1.73755
-1.73889
-1.35817
-1.35829
-1.35888
-1.35982
-1.36109
-1.36267
-1.36456
-1.36672
-1.36915
-1.37182
-1.37473
-1.37784
-1.38116
-1.38466
-1.38833
-1.39216
-1.39613
-1.40024
-1.40446
-1.40879
-1.41322
-1.41774
-1.42233
-1.42699
-1.43172
-1.43649
-1.44131
-1.44616
-1.45104
-1.45594
-1.46086
-1.46579
-1.47073
-1.47566
-1.48059
-1.4855
-1.4904
-1.49529
-1.50015
-1.50498
-1.50979
-1.51457
-1.51931
-1.52401
-1.52867
-1.5333
-1.53787
-1.54241
-1.5469
-1.55134
-1.55573
-1.56006
-1.56435
-1.56859
-1.57277
-1.5769
-1.58097
-1.58499
-1.58896
-1.59287
-1.59672
-1.60052
-1.60426
-1.60795
-1.61158
-1.61516
-1.61868
-1.62214
-1.62555
-1.62891
-1.63221
-1.63546
-1.63866
-1.6418
-1.64489
-1.64793
-1.65092
-1.65385
-1.65674
-1.65958
-1.66237
-1.66511
-1.6678
-1.67044
-1.67304
-1.67559
-1.6781
-1.68057
-1.68298
-1.68536
-1.68769
-1.68998
-1.69223
-1.69444
-1.69661
-1.69874
-1.70083
-1.70289
-1.7049
-1.70688
-1.70882
-1.71073
-1.7126
-1.71444
-1.71624
-1.71801
-1.71975
-1.72146
-1.72313
-1.72477
-1.72639
-1.72797
-1.72952
-1.73105
-1.73255
-1.73402
-1.73546
-1.73687
-1.73826
-1.73962
-1.35699
-1.35709
-1.35766
-1.35859
-1.35985
-1.36142
-1.36329
-1.36545
-1.36787
-1.37054
-1.37344
-1.37655
-1.37987
-1.38337
-1.38704
-1.39087
-1.39485
-1.39896
-1.40319
-1.40753
-1.41197
-1.4165
-1.42111
-1.42578
-1.43052
-1.43531
-1.44014
-1.44501
-1.44991
-1.45483
-1.45977
-1.46472
-1.46967
-1.47462
-1.47957
-1.48451
-1.48944
-1.49434
-1.49923
-1.50409
-1.50892
-1.51372
-1.51848
-1.52321
-1.5279
-1.53255
-1.53715
-1.54171
-1.54623
-1.55069
-1.55511
-1.55947
-1.56379
-1.56805
-1.57226
-1.57642
-1.58052
-1.58456
-1.58855
-1.59249
-1.59637
-1.60019
-1.60396
-1.60767
-1.61133
-1.61493
-1.61848
-1.62197
-1.6254
-1.62878
-1.63211
-1.63538
-1.6386
-1.64177
-1.64488
-1.64795
-1.65096
-1.65392
-1.65683
-1.65969
-1.6625
-1.66526
-1.66797
-1.67064
-1.67326
-1.67583
-1.67836
-1.68084
-1.68328
-1.68568
-1.68803
-1.69034
-1.69261
-1.69483
-1.69702
-1.69917
-1.70128
-1.70335
-1.70538
-1.70738
-1.70934
-1.71126
-1.71315
-1.715
-1.71682
-1.71861
-1.72036
-1.72208
-1.72377
-1.72543
-1.72706
-1.72866
-1.73022
-1.73176
-1.73327
-1.73476
-1.73621
-1.73764
-1.73904
-1.74041
-1.35571
-1.35579
-1.35635
-1.35726
-1.3585
-1.36006
-1.36192
-1.36407
-1.36648
-1.36915
-1.37204
-1.37516
-1.37847
-1.38197
-1.38565
-1.38948
-1.39347
-1.39758
-1.40182
-1.40617
-1.41062
-1.41516
-1.41978
-1.42447
-1.42922
-1.43403
-1.43888
-1.44376
-1.44868
-1.45362
-1.45858
-1.46355
-1.46853
-1.47351
-1.47848
-1.48344
-1.48839
-1.49332
-1.49823
-1.50312
-1.50797
-1.5128
-1.51759
-1.52235
-1.52706
-1.53174
-1.53637
-1.54096
-1.5455
-1.55
-1.55444
-1.55884
-1.56318
-1.56747
-1.57171
-1.57589
-1.58002
-1.58409
-1.58811
-1.59208
-1.59599
-1.59984
-1.60363
-1.60737
-1.61106
-1.61469
-1.61826
-1.62178
-1.62524
-1.62865
-1.632
-1.6353
-1.63855
-1.64174
-1.64488
-1.64796
-1.651
-1.65398
-1.65692
-1.6598
-1.66264
-1.66542
-1.66816
-1.67085
-1.67349
-1.67608
-1.67863
-1.68114
-1.6836
-1.68602
-1.68839
-1.69072
-1.69301
-1.69526
-1.69747
-1.69963
-1.70176
-1.70385
-1.7059
-1.70792
-1.7099
-1.71184
-1.71374
-1.71562
-1.71745
-1.71926
-1.72103
-1.72276
-1.72447
-1.72614
-1.72779
-1.7294
-1.73098
-1.73254
-1.73406
-1.73556
-1.73703
-1.73847
-1.73989
-1.74127
-1.35434
-1.3544
-1.35494
-1.35583
-1.35705
-1.3586
-1.36045
-1.36259
-1.365
-1.36765
-1.37054
-1.37366
-1.37697
-1.38047
-1.38415
-1.38799
-1.39198
-1.3961
-1.40035
-1.40471
-1.40917
-1.41372
-1.41836
-1.42306
-1.42783
-1.43265
-1.43752
-1.44243
-1.44736
-1.45233
-1.45731
-1.4623
-1.4673
-1.4723
-1.4773
-1.48229
-1.48726
-1.49222
-1.49716
-1.50207
-1.50696
-1.51181
-1.51663
-1.52142
-1.52617
-1.53087
-1.53553
-1.54015
-1.54472
-1.54925
-1.55372
-1.55815
-1.56252
-1.56684
-1.57111
-1.57533
-1.57949
-1.58359
-1.58764
-1.59164
-1.59557
-1.59946
-1.60328
-1.60705
-1.61077
-1.61442
-1.61803
-1.62157
-1.62506
-1.6285
-1.63188
-1.63521
-1.63848
-1.6417
-1.64487
-1.64798
-1.65105
-1.65406
-1.65702
-1.65993
-1.66279
-1.6656
-1.66836
-1.67107
-1.67374
-1.67636
-1.67893
-1.68146
-1.68395
-1.68639
-1.68878
-1.69113
-1.69345
-1.69572
-1.69795
-1.70013
-1.70228
-1.70439
-1.70647
-1.7085
-1.7105
-1.71246
-1.71438
-1.71627
-1.71813
-1.71995
-1.72174
-1.72349
-1.72522
-1.72691
-1.72857
-1.7302
-1.7318
-1.73337
-1.73491
-1.73643
-1.73791
-1.73937
-1.7408
-1.74219
-1.35288
-1.35291
-1.35343
-1.35431
-1.35551
-1.35704
-1.35888
-1.36101
-1.36341
-1.36606
-1.36895
-1.37205
-1.37537
-1.37887
-1.38255
-1.3864
-1.39039
-1.39452
-1.39878
-1.40315
-1.40762
-1.41219
-1.41684
-1.42156
-1.42634
-1.43118
-1.43607
-1.441
-1.44596
-1.45094
-1.45595
-1.46097
-1.46599
-1.47102
-1.47604
-1.48106
-1.48606
-1.49105
-1.49601
-1.50096
-1.50587
-1.51076
-1.51561
-1.52043
-1.5252
-1.52994
-1.53464
-1.53929
-1.54389
-1.54845
-1.55296
-1.55741
-1.56182
-1.56617
-1.57048
-1.57472
-1.57892
-1.58305
-1.58714
-1.59116
-1.59513
-1.59905
-1.60291
-1.60671
-1.61045
-1.61414
-1.61778
-1.62135
-1.62488
-1.62834
-1.63175
-1.63511
-1.63842
-1.64166
-1.64486
-1.648
-1.65109
-1.65413
-1.65712
-1.66006
-1.66295
-1.66578
-1.66857
-1.67131
-1.67401
-1.67665
-1.67925
-1.68181
-1.68431
-1.68678
-1.6892
-1.69158
-1.69391
-1.6962
-1.69846
-1.70067
-1.70284
-1.70497
-1.70707
-1.70912
-1.71114
-1.71312
-1.71507
-1.71698
-1.71885
-1.7207
-1.7225
-1.72428
-1.72602
-1.72773
-1.72941
-1.73106
-1.73267
-1.73426
-1.73582
-1.73735
-1.73885
-1.74033
-1.74177
-1.74318
-1.35132
-1.35133
-1.35183
-1.35269
-1.35387
-1.35539
-1.35722
-1.35933
-1.36172
-1.36437
-1.36725
-1.37035
-1.37367
-1.37717
-1.38085
-1.3847
-1.3887
-1.39284
-1.39711
-1.40149
-1.40598
-1.41055
-1.41522
-1.41996
-1.42476
-1.42962
-1.43453
-1.43948
-1.44446
-1.44947
-1.4545
-1.45954
-1.4646
-1.46965
-1.4747
-1.47975
-1.48478
-1.4898
-1.4948
-1.49977
-1.50472
-1.50964
-1.51452
-1.51937
-1.52418
-1.52895
-1.53368
-1.53837
-1.54301
-1.5476
-1.55214
-1.55663
-1.56107
-1.56546
-1.5698
-1.57408
-1.57831
-1.58248
-1.5866
-1.59066
-1.59466
-1.59861
-1.60251
-1.60634
-1.61012
-1.61384
-1.61751
-1.62112
-1.62468
-1.62818
-1.63162
-1.63501
-1.63834
-1.64162
-1.64485
-1.64803
-1.65115
-1.65422
-1.65723
-1.6602
-1.66312
-1.66598
-1.6688
-1.67157
-1.67429
-1.67696
-1.67959
-1.68217
-1.68471
-1.6872
-1.68964
-1.69205
-1.69441
-1.69673
-1.699
-1.70124
-1.70343
-1.70559
-1.70771
-1.70978
-1.71183
-1.71383
-1.7158
-1.71773
-1.71963
-1.72149
-1.72332
-1.72511
-1.72687
-1.7286
-1.7303
-1.73197
-1.7336
-1.73521
-1.73679
-1.73834
-1.73986
-1.74135
-1.74281
-1.74423
-1.34968
-1.34966
-1.35014
-1.35097
-1.35214
-1.35364
-1.35546
-1.35756
-1.35994
-1.36257
-1.36545
-1.36855
-1.37187
-1.37537
-1.37906
-1.38291
-1.38692
-1.39106
-1.39534
-1.39973
-1.40423
-1.40883
-1.41351
-1.41826
-1.42309
-1.42797
-1.4329
-1.43787
-1.44288
-1.44791
-1.45297
-1.45804
-1.46312
-1.4682
-1.47329
-1.47836
-1.48343
-1.48848
-1.49351
-1.49851
-1.5035
-1.50845
-1.51337
-1.51825
-1.5231
-1.52791
-1.53267
-1.53739
-1.54207
-1.5467
-1.55128
-1.5558
-1.56028
-1.56471
-1.56908
-1.5734
-1.57767
-1.58187
-1.58603
-1.59013
-1.59417
-1.59815
-1.60208
-1.60595
-1.60977
-1.61353
-1.61723
-1.62087
-1.62446
-1.628
-1.63148
-1.6349
-1.63827
-1.64158
-1.64484
-1.64805
-1.6512
-1.6543
-1.65735
-1.66035
-1.6633
-1.6662
-1.66904
-1.67184
-1.67459
-1.6773
-1.67995
-1.68256
-1.68512
-1.68764
-1.69012
-1.69255
-1.69493
-1.69728
-1.69958
-1.70184
-1.70406
-1.70624
-1.70838
-1.71049
-1.71255
-1.71458
-1.71657
-1.71852
-1.72044
-1.72233
-1.72418
-1.72599
-1.72778
-1.72953
-1.73125
-1.73293
-1.73459
-1.73622
-1.73781
-1.73938
-1.74092
-1.74243
-1.74391
-1.74534
-1.34795
-1.34791
-1.34835
-1.34917
-1.35032
-1.3518
-1.3536
-1.35569
-1.35806
-1.36069
-1.36356
-1.36666
-1.36997
-1.37347
-1.37716
-1.38102
-1.38504
-1.38919
-1.39348
-1.39788
-1.4024
-1.40701
-1.4117
-1.41648
-1.42132
-1.42622
-1.43118
-1.43617
-1.44121
-1.44627
-1.45135
-1.45645
-1.46156
-1.46668
-1.47179
-1.4769
-1.482
-1.48708
-1.49215
-1.49719
-1.50221
-1.50719
-1.51215
-1.51707
-1.52196
-1.5268
-1.5316
-1.53636
-1.54108
-1.54574
-1.55036
-1.55493
-1.55945
-1.56391
-1.56832
-1.57268
-1.57699
-1.58123
-1.58543
-1.58956
-1.59364
-1.59767
-1.60163
-1.60554
-1.6094
-1.61319
-1.61693
-1.62061
-1.62424
-1.62781
-1.63132
-1.63478
-1.63819
-1.64154
-1.64483
-1.64807
-1.65126
-1.6544
-1.65748
-1.66051
-1.66349
-1.66642
-1.6693
-1.67213
-1.67491
-1.67764
-1.68033
-1.68297
-1.68556
-1.68811
-1.69061
-1.69307
-1.69549
-1.69786
-1.70019
-1.70248
-1.70473
-1.70693
-1.7091
-1.71123
-1.71332
-1.71537
-1.71739
-1.71936
-1.72131
-1.72322
-1.72509
-1.72693
-1.72873
-1.73051
-1.73225
-1.73395
-1.73563
-1.73728
-1.7389
-1.74048
-1.74204
-1.74357
-1.74507
-1.74652
-1.34613
-1.34606
-1.34648
-1.34727
-1.3484
-1.34987
-1.35165
-1.35373
-1.35609
-1.35871
-1.36157
-1.36467
-1.36798
-1.37148
-1.37517
-1.37904
-1.38306
-1.38722
-1.39152
-1.39594
-1.40047
-1.40509
-1.40981
-1.4146
-1.41947
-1.42439
-1.42937
-1.43439
-1.43945
-1.44454
-1.44965
-1.45478
-1.45993
-1.46507
-1.47022
-1.47536
-1.48049
-1.48561
-1.49072
-1.49579
-1.50085
-1.50588
-1.51087
-1.51583
-1.52075
-1.52564
-1.53048
-1.53528
-1.54004
-1.54474
-1.5494
-1.55401
-1.55857
-1.56308
-1.56753
-1.57193
-1.57627
-1.58056
-1.58479
-1.58897
-1.59309
-1.59715
-1.60116
-1.60511
-1.609
-1.61284
-1.61662
-1.62034
-1.624
-1.62761
-1.63117
-1.63466
-1.6381
-1.64149
-1.64482
-1.6481
-1.65132
-1.65449
-1.65761
-1.66068
-1.66369
-1.66666
-1.66957
-1.67243
-1.67525
-1.67801
-1.68073
-1.6834
-1.68603
-1.6886
-1.69114
-1.69363
-1.69607
-1.69847
-1.70083
-1.70315
-1.70542
-1.70766
-1.70985
-1.71201
-1.71413
-1.7162
-1.71825
-1.72025
-1.72222
-1.72415
-1.72605
-1.72791
-1.72974
-1.73154
-1.7333
-1.73503
-1.73673
-1.7384
-1.74004
-1.74165
-1.74323
-1.74478
-1.74629
-1.74776
-1.34423
-1.34413
-1.34452
-1.34529
-1.3464
-1.34784
-1.34961
-1.35167
-1.35402
-1.35663
-1.35949
-1.36258
-1.36589
-1.3694
-1.37309
-1.37696
-1.38099
-1.38516
-1.38947
-1.3939
-1.39845
-1.40309
-1.40782
-1.41264
-1.41752
-1.42247
-1.42748
-1.43252
-1.43761
-1.44273
-1.44787
-1.45304
-1.45821
-1.46339
-1.46857
-1.47375
-1.47892
-1.48408
-1.48921
-1.49433
-1.49943
-1.50449
-1.50953
-1.51453
-1.51949
-1.52442
-1.52931
-1.53415
-1.53894
-1.54369
-1.5484
-1.55305
-1.55765
-1.5622
-1.56669
-1.57113
-1.57552
-1.57985
-1.58413
-1.58835
-1.59251
-1.59662
-1.60067
-1.60466
-1.60859
-1.61247
-1.61629
-1.62005
-1.62376
-1.62741
-1.631
-1.63453
-1.63801
-1.64144
-1.64481
-1.64813
-1.65139
-1.6546
-1.65775
-1.66085
-1.6639
-1.6669
-1.66985
-1.67275
-1.6756
-1.6784
-1.68115
-1.68386
-1.68651
-1.68912
-1.69169
-1.69421
-1.69668
-1.69912
-1.70151
-1.70385
-1.70616
-1.70842
-1.71065
-1.71283
-1.71497
-1.71708
-1.71915
-1.72118
-1.72317
-1.72513
-1.72705
-1.72894
-1.7308
-1.73262
-1.7344
-1.73616
-1.73788
-1.73957
-1.74123
-1.74287
-1.74447
-1.74604
-1.74758
-1.74906
-1.34224
-1.34211
-1.34248
-1.34322
-1.3443
-1.34573
-1.34748
-1.34953
-1.35186
-1.35447
-1.35732
-1.3604
-1.36371
-1.36722
-1.37092
-1.37479
-1.37883
-1.38301
-1.38733
-1.39178
-1.39633
-1.401
-1.40575
-1.41059
-1.41549
-1.42047
-1.4255
-1.43057
-1.43569
-1.44084
-1.44601
-1.45121
-1.45642
-1.46163
-1.46685
-1.47206
-1.47727
-1.48247
-1.48765
-1.4928
-1.49794
-1.50305
-1.50812
-1.51317
-1.51818
-1.52315
-1.52807
-1.53296
-1.5378
-1.5426
-1.54734
-1.55204
-1.55668
-1.56128
-1.56582
-1.57031
-1.57474
-1.57911
-1.58343
-1.5877
-1.59191
-1.59606
-1.60015
-1.60418
-1.60816
-1.61208
-1.61594
-1.61975
-1.6235
-1.62719
-1.63082
-1.6344
-1.63792
-1.64139
-1.6448
-1.64815
-1.65145
-1.6547
-1.6579
-1.66104
-1.66412
-1.66716
-1.67015
-1.67308
-1.67597
-1.6788
-1.68159
-1.68433
-1.68702
-1.68967
-1.69226
-1.69482
-1.69733
-1.69979
-1.70221
-1.70459
-1.70693
-1.70922
-1.71147
-1.71369
-1.71586
-1.718
-1.72009
-1.72215
-1.72417
-1.72616
-1.72811
-1.73002
-1.7319
-1.73375
-1.73556
-1.73734
-1.73909
-1.7408
-1.74249
-1.74414
-1.74577
-1.74736
-1.74892
-1.75043
-1.34018
-1.34001
-1.34035
-1.34106
-1.34212
-1.34353
-1.34526
-1.34729
-1.34962
-1.35221
-1.35505
-1.35814
-1.36144
-1.36495
-1.36865
-1.37253
-1.37657
-1.38077
-1.3851
-1.38956
-1.39413
-1.39881
-1.40359
-1.40844
-1.41338
-1.41838
-1.42343
-1.42854
-1.43368
-1.43887
-1.44407
-1.4493
-1.45455
-1.4598
-1.46505
-1.47031
-1.47555
-1.48079
-1.48601
-1.49121
-1.49639
-1.50154
-1.50666
-1.51175
-1.5168
-1.52181
-1.52679
-1.53172
-1.53661
-1.54145
-1.54624
-1.55098
-1.55568
-1.56032
-1.56491
-1.56944
-1.57392
-1.57834
-1.58271
-1.58702
-1.59127
-1.59547
-1.59961
-1.60369
-1.60771
-1.61168
-1.61558
-1.61943
-1.62323
-1.62696
-1.63064
-1.63426
-1.63782
-1.64133
-1.64478
-1.64818
-1.65152
-1.65481
-1.65805
-1.66123
-1.66436
-1.66743
-1.67046
-1.67343
-1.67635
-1.67923
-1.68205
-1.68482
-1.68755
-1.69023
-1.69287
-1.69545
-1.698
-1.70049
-1.70295
-1.70536
-1.70773
-1.71005
-1.71234
-1.71458
-1.71679
-1.71895
-1.72108
-1.72317
-1.72522
-1.72723
-1.72921
-1.73115
-1.73306
-1.73493
-1.73677
-1.73858
-1.74035
-1.74209
-1.7438
-1.74548
-1.74713
-1.74875
-1.75033
-1.75185
-1.33803
-1.33783
-1.33813
-1.33882
-1.33986
-1.34124
-1.34295
-1.34497
-1.34728
-1.34986
-1.3527
-1.35578
-1.35908
-1.36259
-1.36629
-1.37018
-1.37423
-1.37843
-1.38278
-1.38725
-1.39184
-1.39654
-1.40134
-1.40622
-1.41118
-1.4162
-1.42128
-1.42642
-1.4316
-1.43681
-1.44205
-1.44732
-1.4526
-1.45789
-1.46318
-1.46848
-1.47376
-1.47904
-1.4843
-1.48955
-1.49477
-1.49997
-1.50513
-1.51027
-1.51537
-1.52043
-1.52545
-1.53043
-1.53536
-1.54025
-1.54509
-1.54989
-1.55463
-1.55932
-1.56395
-1.56854
-1.57306
-1.57754
-1.58195
-1.58631
-1.59061
-1.59486
-1.59904
-1.60317
-1.60724
-1.61125
-1.61521
-1.6191
-1.62294
-1.62672
-1.63045
-1.63411
-1.63772
-1.64127
-1.64477
-1.64821
-1.6516
-1.65493
-1.6582
-1.66143
-1.6646
-1.66771
-1.67078
-1.67379
-1.67675
-1.67966
-1.68253
-1.68534
-1.68811
-1.69082
-1.69349
-1.69612
-1.6987
-1.70123
-1.70372
-1.70616
-1.70856
-1.71092
-1.71324
-1.71552
-1.71775
-1.71995
-1.72211
-1.72423
-1.72631
-1.72835
-1.73036
-1.73233
-1.73426
-1.73616
-1.73803
-1.73986
-1.74166
-1.74343
-1.74517
-1.74687
-1.74854
-1.75019
-1.75179
-1.75333
-1.3358
-1.33556
-1.33584
-1.3365
-1.33751
-1.33887
-1.34056
-1.34256
-1.34486
-1.34743
-1.35026
-1.35333
-1.35663
-1.36014
-1.36385
-1.36774
-1.3718
-1.37601
-1.38037
-1.38486
-1.38947
-1.39418
-1.399
-1.40391
-1.40889
-1.41394
-1.41905
-1.42422
-1.42943
-1.43468
-1.43996
-1.44526
-1.45058
-1.4559
-1.46124
-1.46657
-1.4719
-1.47723
-1.48253
-1.48782
-1.49309
-1.49833
-1.50355
-1.50873
-1.51388
-1.51899
-1.52406
-1.52909
-1.53407
-1.53901
-1.5439
-1.54874
-1.55354
-1.55828
-1.56296
-1.5676
-1.57217
-1.5767
-1.58116
-1.58557
-1.58992
-1.59422
-1.59846
-1.60263
-1.60675
-1.61081
-1.61482
-1.61876
-1.62265
-1.62648
-1.63025
-1.63396
-1.63762
-1.64121
-1.64476
-1.64824
-1.65167
-1.65505
-1.65837
-1.66163
-1.66485
-1.66801
-1.67111
-1.67417
-1.67717
-1.68012
-1.68302
-1.68588
-1.68868
-1.69144
-1.69415
-1.69681
-1.69942
-1.70199
-1.70452
-1.707
-1.70943
-1.71183
-1.71418
-1.71649
-1.71876
-1.72099
-1.72318
-1.72533
-1.72744
-1.72951
-1.73155
-1.73355
-1.73552
-1.73745
-1.73934
-1.7412
-1.74303
-1.74482
-1.74659
-1.74832
-1.75002
-1.75169
-1.75332
-1.75488
-1.33349
-1.33322
-1.33346
-1.33409
-1.33508
-1.33641
-1.33808
-1.34007
-1.34235
-1.34491
-1.34773
-1.3508
-1.35409
-1.3576
-1.36131
-1.36521
-1.36928
-1.3735
-1.37787
-1.38238
-1.387
-1.39174
-1.39658
-1.40151
-1.40652
-1.4116
-1.41674
-1.42194
-1.42718
-1.43247
-1.43778
-1.44312
-1.44848
-1.45385
-1.45922
-1.4646
-1.46998
-1.47534
-1.4807
-1.48603
-1.49135
-1.49664
-1.5019
-1.50713
-1.51233
-1.51749
-1.52261
-1.52769
-1.53273
-1.53772
-1.54266
-1.54756
-1.5524
-1.5572
-1.56194
-1.56662
-1.57125
-1.57583
-1.58034
-1.58481
-1.58921
-1.59356
-1.59784
-1.60207
-1.60625
-1.61036
-1.61441
-1.61841
-1.62234
-1.62622
-1.63004
-1.6338
-1.6375
-1.64115
-1.64474
-1.64827
-1.65175
-1.65517
-1.65854
-1.66185
-1.6651
-1.66831
-1.67146
-1.67456
-1.6776
-1.6806
-1.68354
-1.68643
-1.68928
-1.69208
-1.69482
-1.69752
-1.70018
-1.70278
-1.70535
-1.70786
-1.71034
-1.71277
-1.71516
-1.7175
-1.7198
-1.72207
-1.72429
-1.72647
-1.72862
-1.73072
-1.73279
-1.73482
-1.73682
-1.73878
-1.7407
-1.74259
-1.74445
-1.74627
-1.74806
-1.74982
-1.75155
-1.75325
-1.7549
-1.75649
-1.33111
-1.3308
-1.33101
-1.33161
-1.33256
-1.33387
-1.33553
-1.33749
-1.33976
-1.3423
-1.34512
-1.34818
-1.35147
-1.35498
-1.35869
-1.3626
-1.36667
-1.37091
-1.37529
-1.37981
-1.38446
-1.38922
-1.39408
-1.39903
-1.40407
-1.40918
-1.41435
-1.41958
-1.42486
-1.43018
-1.43553
-1.44091
-1.4463
-1.45172
-1.45714
-1.46256
-1.46798
-1.47339
-1.47879
-1.48418
-1.48954
-1.49488
-1.50019
-1.50548
-1.51073
-1.51594
-1.52112
-1.52625
-1.53134
-1.53638
-1.54138
-1.54633
-1.55123
-1.55608
-1.56087
-1.56561
-1.57029
-1.57492
-1.5795
-1.58401
-1.58847
-1.59287
-1.59721
-1.60149
-1.60572
-1.60988
-1.61399
-1.61804
-1.62202
-1.62595
-1.62982
-1.63364
-1.63739
-1.64109
-1.64472
-1.64831
-1.65183
-1.6553
-1.65871
-1.66207
-1.66537
-1.66862
-1.67182
-1.67496
-1.67805
-1.68109
-1.68408
-1.68701
-1.6899
-1.69274
-1.69553
-1.69827
-1.70096
-1.70361
-1.70621
-1.70876
-1.71128
-1.71374
-1.71617
-1.71855
-1.72089
-1.72319
-1.72544
-1.72766
-1.72984
-1.73198
-1.73408
-1.73614
-1.73817
-1.74016
-1.74212
-1.74404
-1.74592
-1.74778
-1.7496
-1.75138
-1.75314
-1.75486
-1.75654
-1.75815
-1.32865
-1.3283
-1.32848
-1.32904
-1.32997
-1.33126
-1.33288
-1.33483
-1.33708
-1.33962
-1.34242
-1.34547
-1.34876
-1.35227
-1.35599
-1.3599
-1.36398
-1.36823
-1.37262
-1.37716
-1.38183
-1.3866
-1.39149
-1.39647
-1.40153
-1.40667
-1.41188
-1.41714
-1.42245
-1.42781
-1.4332
-1.43862
-1.44406
-1.44951
-1.45498
-1.46045
-1.46591
-1.47137
-1.47682
-1.48226
-1.48767
-1.49306
-1.49843
-1.50377
-1.50907
-1.51434
-1.51957
-1.52475
-1.5299
-1.535
-1.54005
-1.54506
-1.55001
-1.55491
-1.55977
-1.56456
-1.5693
-1.57399
-1.57862
-1.58319
-1.5877
-1.59216
-1.59656
-1.60089
-1.60517
-1.60939
-1.61355
-1.61765
-1.62169
-1.62568
-1.6296
-1.63346
-1.63727
-1.64102
-1.64471
-1.64834
-1.65191
-1.65543
-1.65889
-1.6623
-1.66565
-1.66895
-1.67219
-1.67538
-1.67851
-1.6816
-1.68463
-1.68761
-1.69054
-1.69342
-1.69625
-1.69904
-1.70177
-1.70446
-1.7071
-1.7097
-1.71225
-1.71475
-1.71721
-1.71963
-1.72201
-1.72434
-1.72664
-1.72889
-1.7311
-1.73328
-1.73541
-1.73751
-1.73957
-1.74159
-1.74358
-1.74553
-1.74745
-1.74933
-1.75118
-1.753
-1.75478
-1.75654
-1.75825
-1.75988
-1.32612
-1.32573
-1.32587
-1.3264
-1.32729
-1.32856
-1.33016
-1.33209
-1.33432
-1.33684
-1.33964
-1.34269
-1.34597
-1.34948
-1.3532
-1.35711
-1.3612
-1.36546
-1.36987
-1.37443
-1.37911
-1.38391
-1.38882
-1.39383
-1.39892
-1.40409
-1.40933
-1.41462
-1.41997
-1.42537
-1.4308
-1.43626
-1.44174
-1.44724
-1.45275
-1.45826
-1.46378
-1.46929
-1.47479
-1.48027
-1.48574
-1.49119
-1.49661
-1.502
-1.50736
-1.51268
-1.51796
-1.52321
-1.52841
-1.53357
-1.53868
-1.54374
-1.54875
-1.55372
-1.55862
-1.56348
-1.56828
-1.57302