/*--------------------------------*- C++ -*----------------------------------*\
  =========                 |
  \\      /  F ield         | OpenFOAM: The Open Source CFD Toolbox
   \\    /   O peration     | Website:  https://openfoam.org
    \\  /    A nd           | Version:  8
     \\/     M anipulation  |
\*---------------------------------------------------------------------------*/
FoamFile
{
    version     2.0;
    format      ascii;
    class       surfaceScalarField;
    location    "0.29";
    object      phi;
}
// * * * * * * * * * * * * * * * * * * * * * * * * * * * * * * * * * * * * * //

dimensions      [0 3 -1 0 0 0 0];

internalField   nonuniform List<scalar> 
225079
(
-0.00367111
0.0264719
-0.00848168
0.0708111
-0.0120935
0.115212
-0.0168893
0.159596
-0.0216706
0.203982
-0.0252555
0.248385
-0.0288436
0.291588
-0.0324358
0.335992
-0.0360303
0.379194
-0.0396263
0.424796
-0.0420234
0.466797
-0.0456211
0.511197
-0.0492191
0.555598
-0.0528173
0.597598
-0.0540157
0.640798
-0.0576142
0.685198
-0.0612128
0.727198
-0.0636115
0.770398
-0.0660103
0.812398
-0.0672092
0.854399
-0.0708082
0.897599
-0.0720072
0.938399
-0.0744063
0.980399
-0.0756054
1.0224
-0.0780046
1.0632
-0.0792037
1.104
-0.0816029
1.146
-0.0828022
1.1844
-0.0840015
1.2252
-0.0864007
1.266
-0.0876
1.3044
-0.0887993
1.344
-0.0899986
1.3824
-0.0899979
1.4208
-0.0911972
1.4592
-0.0911966
1.4964
-0.0923959
1.5348
-0.0935952
1.572
-0.0935945
1.608
-0.0947939
1.644
-0.0947932
1.68
-0.0947925
1.716
-0.0947918
1.7496
-0.0947911
1.7856
-0.0947905
1.8192
-0.0947898
1.8528
-0.0947891
1.8864
-0.0935884
1.9188
-0.0935877
1.9512
-0.093587
1.9836
-0.0923863
2.0136
-0.0923856
2.046
-0.091185
2.0748
-0.0905843
2.10564
-0.0897436
2.13468
-0.088783
2.16336
-0.0878223
2.19168
-0.0868617
2.2194
-0.085661
2.24652
-0.0844604
2.27304
-0.0832597
2.2992
-0.0819391
2.32464
-0.0804985
2.34948
-0.0790579
2.37384
-0.0776173
2.3976
-0.0760567
2.42076
-0.0743761
2.4432
-0.0728155
2.46528
-0.071135
2.48664
-0.0693344
2.50728
-0.0675339
2.52744
-0.0656134
2.54688
-0.0636928
2.56572
-0.0616523
2.58396
-0.0596118
2.6016
-0.0576913
2.61864
-0.0555308
2.63484
-0.0533703
2.65044
-0.0512098
2.66556
-0.0489294
2.67984
-0.0467689
2.69364
-0.0446085
2.7066
-0.042208
2.71884
-0.0399276
2.73072
-0.0375272
2.74164
-0.0351268
2.75196
-0.0327264
2.76168
-0.0303261
2.77068
-0.0279257
2.77896
-0.0254053
2.78652
-0.022885
2.79348
-0.0203647
2.79972
-0.0178444
2.80536
-0.0152041
2.81004
-0.0128038
2.81436
-0.0102235
2.8178
-0.00766726
2.82058
-0.00509899
2.82266
-0.0025308
2.82404
3.74612e-05
2.82475
0.00260563
2.82475
0.00517387
2.82404
0.00774203
2.82266
0.0102982
2.82058
0.0128784
2.8178
0.0152785
2.81436
0.0179187
2.81004
0.0204388
2.80536
0.0229589
2.79972
0.025479
2.79348
0.027999
2.78652
0.0303991
2.77896
0.0327991
2.77068
0.0351992
2.76168
0.0375992
2.75196
0.0399992
2.74164
0.0422792
2.73072
0.0446791
2.71884
0.0468391
2.7066
0.048999
2.69364
0.051279
2.67984
0.0534389
2.66556
0.0555988
2.65044
0.0577586
2.63484
0.0596785
2.61864
0.0617184
2.6016
0.0637582
2.58396
0.065678
2.56572
0.0675979
2.54688
0.0693977
2.52744
0.0711975
2.50728
0.0728773
2.48664
0.0744371
2.46528
0.0761168
2.4432
0.0776766
2.42076
0.0791163
2.3976
0.080556
2.37384
0.0819957
2.34948
0.0833154
2.32464
0.0845151
2.2992
0.0857147
2.27304
0.0869144
2.24652
0.087874
2.2194
0.0888336
2.19168
0.0897932
2.16336
0.0906328
2.13468
0.0912323
2.10564
0.0924319
2.0748
0.0924314
2.046
0.0936309
2.0136
0.0936304
1.9836
0.0936299
1.9512
0.0948294
1.9188
0.0948288
1.8864
0.0948282
1.8528
0.0948277
1.8192
0.0948271
1.7856
0.0948265
1.7496
0.0948259
1.716
0.0948253
1.68
0.0936246
1.644
0.0936239
1.608
0.0924231
1.572
0.0912224
1.5348
0.0912216
1.4964
0.0900208
1.4592
0.0900199
1.4208
0.088819
1.3824
0.0876181
1.344
0.0864171
1.3044
0.084016
1.266
0.082815
1.2252
0.0816139
1.1844
0.0792128
1.146
0.0780116
1.104
0.0756104
1.0632
0.0744091
1.0224
0.0720078
0.980401
0.0708064
0.938401
0.0672049
0.897601
0.0660033
0.854401
0.0636017
0.812401
0.0611999
0.770401
0.0575981
0.727201
0.0539961
0.685202
0.052794
0.640802
0.0491916
0.597602
0.0455889
0.555602
0.0419857
0.511202
0.0395818
0.466803
0.0359766
0.424804
0.0323693
0.379206
0.0287588
0.336009
0.0251424
0.291615
0.0215206
0.24842
0.0166915
0.204027
0.0118779
0.159611
0.00828418
0.11519
0.00350699
0.0707743
0.0263042
-0.00489707
0.031368
-0.00974623
0.0756597
-0.0133218
0.118787
-0.0181137
0.164388
-0.0216923
0.20756
-0.0240768
0.250769
-0.0288622
0.296373
-0.0324522
0.339582
-0.0360444
0.382786
-0.0396388
0.42839
-0.0432342
0.470392
-0.0468304
0.514793
-0.0480272
0.556794
-0.0516242
0.601194
-0.0552213
0.644395
-0.0576187
0.687595
-0.0600162
0.729595
-0.0624138
0.772796
-0.0648115
0.814796
-0.0684092
0.857996
-0.069607
0.898796
-0.0732049
0.941996
-0.0744028
0.981596
-0.0768007
1.0248
-0.0779987
1.0644
-0.0803967
1.1064
-0.0815947
1.1472
-0.0839927
1.1868
-0.0851908
1.2264
-0.0851889
1.266
-0.0863869
1.3056
-0.087585
1.3452
-0.088783
1.3836
-0.0899811
1.422
-0.0911792
1.4604
-0.0923772
1.4976
-0.0923753
1.5348
-0.0923734
1.572
-0.0935714
1.6092
-0.0935695
1.644
-0.0947675
1.6812
-0.0935656
1.7148
-0.0947637
1.7508
-0.0947617
1.7856
-0.0947598
1.8192
-0.0947578
1.8528
-0.0947558
1.8864
-0.093554
1.9176
-0.093552
1.9512
-0.0923501
1.9824
-0.0935481
2.0148
-0.0911462
2.0436
-0.0911443
2.0748
-0.0905424
2.10504
-0.0897005
2.13384
-0.0888585
2.16252
-0.0877766
2.1906
-0.0866948
2.21832
-0.0856129
2.24544
-0.084531
2.27196
-0.0832092
2.29788
-0.0818874
2.32332
-0.0804455
2.34804
-0.0791238
2.37252
-0.0775621
2.39604
-0.0760003
2.4192
-0.0744386
2.44164
-0.0727569
2.4636
-0.0709553
2.48484
-0.0691537
2.50548
-0.0673521
2.52564
-0.0654304
2.54496
-0.0636289
2.56392
-0.0617074
2.58204
-0.0596659
2.59956
-0.0575044
2.61648
-0.055463
2.6328
-0.0534216
2.6484
-0.0511402
2.66328
-0.0489788
2.67768
-0.0466975
2.69136
-0.0444162
2.70432
-0.0421349
2.71656
-0.0397337
2.72832
-0.0374525
2.73936
-0.0350513
2.74956
-0.0326502
2.75928
-0.030129
2.76816
-0.027728
2.77656
-0.0253269
2.78412
-0.022806
2.79096
-0.020285
2.7972
-0.0177641
2.80284
-0.0152432
2.80752
-0.0127223
2.81184
-0.0101294
2.81521
-0.00757263
2.81802
-0.00500389
2.82009
-0.00244722
2.82149
0.000121476
2.82218
0.00269009
2.82218
0.00524673
2.82149
0.0078153
2.8201
0.0103718
2.81802
0.0129643
2.81521
0.0154847
2.81184
0.018005
2.80752
0.0205255
2.80284
0.0230458
2.7972
0.0255661
2.79096
0.0279662
2.78412
0.0303665
2.77656
0.0328866
2.76816
0.0352867
2.75928
0.0376868
2.74956
0.0399667
2.73936
0.0423668
2.72832
0.0446466
2.71656
0.0469266
2.70432
0.0492064
2.69136
0.0513662
2.67768
0.053646
2.66328
0.0556857
2.6484
0.0577254
2.6328
0.059885
2.61648
0.0619247
2.59956
0.0638443
2.58204
0.0656438
2.56392
0.0675632
2.54496
0.0693627
2.52564
0.0711622
2.50548
0.0729615
2.48484
0.0746409
2.4636
0.0762001
2.44164
0.0777593
2.4192
0.0793186
2.39604
0.0806377
2.37252
0.0820768
2.34804
0.0833958
2.32332
0.0847148
2.29788
0.0857938
2.27196
0.0868726
2.24544
0.0879515
2.21832
0.0890303
2.1906
0.089869
2.16252
0.0907078
2.13384
0.0913064
2.10504
0.091305
2.0748
0.0937037
2.0436
0.0925021
2.0148
0.0937006
1.9824
0.093699
1.9512
0.0948975
1.9176
0.0948959
1.8864
0.0948942
1.8528
0.0948924
1.8192
0.0948907
1.7856
0.0936888
1.7508
0.094887
1.7148
0.0936849
1.6812
0.093683
1.644
0.0924809
1.6092
0.0924788
1.572
0.0924767
1.5348
0.0912744
1.4976
0.0900721
1.4604
0.0888697
1.422
0.0876672
1.3836
0.0864647
1.3452
0.0852621
1.3056
0.0852596
1.266
0.0840569
1.2264
0.0816541
1.1868
0.0804513
1.1472
0.0780483
1.1064
0.0768454
1.0644
0.0744423
1.0248
0.0732392
0.981604
0.0696358
0.942004
0.0684325
0.898804
0.0648289
0.858005
0.0624253
0.814805
0.0600215
0.772805
0.0576176
0.729605
0.0552135
0.687605
0.0516091
0.644406
0.0480043
0.601206
0.0467993
0.556806
0.0431934
0.514808
0.0395864
0.470409
0.0359779
0.428412
0.0323666
0.382816
0.028752
0.339623
0.0239306
0.296435
0.0215074
0.250842
0.0178745
0.207658
0.0130578
0.164426
0.00941949
0.118826
0.00468462
0.0755069
0.030989
-0.00482239
0.036192
-0.00853744
0.0793759
-0.0133348
0.123586
-0.0169352
0.167989
-0.0205153
0.21114
-0.0252978
0.255552
-0.0288798
0.299956
-0.0324667
0.343169
-0.0360562
0.386376
-0.0384485
0.430782
-0.0432422
0.475186
-0.0456372
0.517188
-0.0492327
0.560389
-0.0528287
0.60479
-0.0552249
0.646791
-0.0576212
0.689991
-0.0612177
0.733192
-0.0636143
0.775192
-0.0660109
0.817192
-0.0672077
0.859192
-0.0708044
0.902392
-0.0720012
0.943193
-0.075598
0.985193
-0.0767948
1.02599
-0.0791917
1.06679
-0.0803886
1.10759
-0.0815855
1.14839
-0.0827824
1.18799
-0.0839793
1.22759
-0.0863762
1.26839
-0.087573
1.30679
-0.0887699
1.34639
-0.0899667
1.38479
-0.0911636
1.42319
-0.0911604
1.46039
-0.0923573
1.49879
-0.0923541
1.53479
-0.0935509
1.57319
-0.0935477
1.60919
-0.0947445
1.64519
-0.0935414
1.67999
-0.0947382
1.71599
-0.094735
1.75079
-0.0947317
1.78559
-0.0947285
1.81919
-0.0947253
1.85279
-0.0935221
1.88519
-0.0947188
1.91879
-0.0935156
1.94999
-0.0935124
1.98239
-0.0923092
2.01359
-0.092306
2.04359
-0.0923028
2.07479
-0.0904996
2.10323
-0.0896564
2.13299
-0.0886933
2.16155
-0.0877301
2.18963
-0.0867669
2.21735
-0.0855638
2.24423
-0.0843606
2.27075
-0.0830376
2.29656
-0.0817145
2.322
-0.0805115
2.34684
-0.0789485
2.37096
-0.0775055
2.3946
-0.0759426
2.41764
-0.0742598
2.43996
-0.0725769
2.46192
-0.0708942
2.48316
-0.0692114
2.5038
-0.0672887
2.52372
-0.0654861
2.54316
-0.0634434
2.56188
-0.0615209
2.58012
-0.0595984
2.59764
-0.0575558
2.61444
-0.0553934
2.63064
-0.0532311
2.64624
-0.0510687
2.66112
-0.0489065
2.67552
-0.0466242
2.68908
-0.044342
2.70204
-0.0420598
2.71428
-0.0397777
2.72604
-0.0373758
2.73696
-0.0349737
2.74716
-0.0325718
2.75688
-0.0301699
2.76576
-0.027648
2.77404
-0.0251263
2.7816
-0.0227246
2.78856
-0.020203
2.79468
-0.0176813
2.80032
-0.0151598
2.805
-0.0126384
2.80932
-0.010057
2.81263
-0.0074997
2.81546
-0.00493046
2.81753
-0.00236117
2.81892
0.000207987
2.81961
0.00277705
2.81961
0.00534597
2.81892
0.00791495
2.81753
0.0104719
2.81546
0.0130527
2.81263
0.0155735
2.80932
0.0180941
2.805
0.0206147
2.80032
0.0231352
2.79468
0.0255356
2.78856
0.0280561
2.7816
0.0305763
2.77404
0.0329766
2.76576
0.0353767
2.75688
0.0377768
2.74716
0.0401768
2.73696
0.0424569
2.72604
0.0447366
2.71428
0.0470164
2.70204
0.0492961
2.68908
0.0514559
2.67552
0.0536154
2.66112
0.0557751
2.64624
0.0579346
2.63064
0.0599739
2.61444
0.0618933
2.59764
0.0638126
2.58012
0.0658518
2.56188
0.0676509
2.54316
0.06957
2.52372
0.0712489
2.5038
0.0729279
2.48316
0.0746066
2.46192
0.0762855
2.43996
0.0778441
2.41764
0.0792828
2.3946
0.0808412
2.37096
0.0820396
2.34684
0.083358
2.322
0.0846764
2.29656
0.0858745
2.27076
0.0870727
2.24424
0.0880306
2.21736
0.0889886
2.18964
0.0899466
2.16156
0.0907843
2.133
0.0925821
2.10324
0.0925798
2.0748
0.0925773
2.0436
0.0937749
2.0136
0.0937723
1.9824
0.0949698
1.95
0.0937669
1.9188
0.0949642
1.8852
0.0949613
1.8528
0.0949585
1.8192
0.0949554
1.7856
0.0949523
1.75081
0.093749
1.71601
0.0949459
1.68001
0.0937426
1.64521
0.0937392
1.60921
0.0925355
1.57321
0.092532
1.53481
0.0913283
1.49881
0.0913245
1.46041
0.0901207
1.42321
0.0889167
1.38481
0.0877126
1.34641
0.0865084
1.30681
0.0841041
1.26841
0.0828998
1.22761
0.0816955
1.18801
0.080491
1.14841
0.0792865
1.10761
0.0768817
1.06681
0.075677
1.02601
0.0720718
0.985209
0.0708669
0.943209
0.0672615
0.902409
0.0660563
0.859209
0.0636508
0.81721
0.0612452
0.77521
0.0576392
0.73321
0.0552331
0.690011
0.0528267
0.646811
0.0492197
0.604812
0.0456121
0.560413
0.0432038
0.517215
0.0383933
0.475219
0.0359811
0.430823
0.0323648
0.386431
0.0287444
0.343241
0.0251167
0.300061
0.0202881
0.255668
0.0166548
0.211289
0.0130475
0.16803
0.00823779
0.123632
0.00478055
0.0789607
0.0357654
-0.00358215
0.0397735
-0.00846903
0.0842627
-0.0133012
0.128418
-0.0169171
0.171605
-0.0217096
0.215933
-0.0252972
0.25914
-0.0288811
0.303539
-0.0324678
0.346756
-0.0360565
0.389964
-0.0396479
0.434373
-0.042041
0.477579
-0.0456354
0.520782
-0.0492304
0.563984
-0.051626
0.607185
-0.0552217
0.650386
-0.0576176
0.692387
-0.0600135
0.735587
-0.0624095
0.777587
-0.0660055
0.820788
-0.0684016
0.861588
-0.0695976
0.903588
-0.0719937
0.945588
-0.0743897
0.987588
-0.0755857
1.02719
-0.0779817
1.06919
-0.0791777
1.10879
-0.0815737
1.15079
-0.0827696
1.18919
-0.0851655
1.22999
-0.0863613
1.26959
-0.0875572
1.30799
-0.087553
1.34639
-0.0887488
1.38599
-0.0899445
1.42439
-0.0911401
1.46159
-0.0911359
1.49879
-0.0935314
1.53719
-0.0935271
1.57319
-0.0935227
1.60919
-0.0935183
1.64519
-0.0947138
1.68119
-0.0947094
1.71599
-0.094705
1.75079
-0.0947006
1.78559
-0.0946961
1.81919
-0.0946916
1.85279
-0.0946871
1.88519
-0.0934827
1.91759
-0.0934782
1.94999
-0.0934736
1.98239
-0.0922693
2.01239
-0.0922648
2.04359
-0.0910603
2.07359
-0.0904558
2.10263
-0.0896114
2.13215
-0.0886469
2.16059
-0.0878024
2.18879
-0.0865981
2.21615
-0.0855136
2.24315
-0.0843093
2.26955
-0.0831049
2.29535
-0.0817805
2.32067
-0.0803363
2.34539
-0.0788922
2.36951
-0.0774479
2.39315
-0.0757638
2.41595
-0.0743198
2.43851
-0.0726358
2.46023
-0.0708318
2.48135
-0.0690278
2.50199
-0.0672241
2.52191
-0.0654204
2.54135
-0.0634966
2.55995
-0.061453
2.57807
-0.0594094
2.59559
-0.057366
2.61239
-0.0553224
2.62859
-0.053159
2.64407
-0.0511158
2.65907
-0.0488324
2.67323
-0.0465492
2.68679
-0.0442662
2.69975
-0.0421032
2.71211
-0.0397002
2.72363
-0.0372972
2.73455
-0.0348944
2.74475
-0.0324917
2.75447
-0.030089
2.76335
-0.0275665
2.77151
-0.025164
2.77919
-0.0226415
2.78603
-0.0201191
2.79215
-0.0175968
2.79779
-0.0150747
2.80248
-0.0124326
2.80668
-0.00997065
2.81017
-0.00740064
2.81289
-0.00484288
2.81497
-0.00227319
2.81635
0.000296444
2.81704
0.00286597
2.81704
0.00543543
2.81635
0.00799282
2.81497
0.0105619
2.81289
0.0130232
2.81017
0.0156641
2.80668
0.0181852
2.80248
0.020706
2.7978
0.0232267
2.79216
0.0257473
2.78604
0.0281478
2.7792
0.0306683
2.77152
0.0330686
2.76336
0.0354689
2.75448
0.0378691
2.74476
0.040269
2.73456
0.0426688
2.72364
0.0448288
2.71212
0.0471086
2.69976
0.0493882
2.6868
0.0516676
2.67324
0.0537071
2.65908
0.0558665
2.64408
0.0579056
2.6286
0.059945
2.6124
0.0619839
2.5956
0.064023
2.57808
0.0659417
2.55996
0.0677406
2.54136
0.0695393
2.52192
0.0713378
2.502
0.073136
2.48136
0.0748145
2.46024
0.0762527
2.43852
0.0779308
2.41596
0.0793686
2.39316
0.0808067
2.36952
0.0822445
2.3454
0.0835621
2.32068
0.0847595
2.29537
0.0859571
2.26957
0.0870343
2.24317
0.0882317
2.21617
0.0890687
2.18881
0.0900257
2.16061
0.0908628
2.13217
0.0914595
2.10265
0.0926562
2.07361
0.0926527
2.04361
0.0938494
2.01241
0.0938457
1.98241
0.093842
1.95001
0.0950383
1.91761
0.0950343
1.88521
0.0950304
1.85281
0.0950262
1.81921
0.0950219
1.78561
0.0950177
1.75081
0.0950134
1.71601
0.0938087
1.68121
0.093804
1.64521
0.0937993
1.60921
0.0937945
1.57321
0.0913893
1.53721
0.0913843
1.49881
0.0901791
1.46161
0.0889736
1.42441
0.0877683
1.38601
0.0877629
1.34641
0.0865574
1.30801
0.0853517
1.26961
0.0829458
1.23001
0.0817399
1.18921
0.0793338
1.15081
0.0781278
1.10881
0.0757215
1.06921
0.0745153
1.02721
0.0721087
0.987615
0.069702
0.945615
0.0684955
0.903616
0.0660886
0.861616
0.0624814
0.820817
0.0600742
0.777617
0.0576668
0.735617
0.0552592
0.692418
0.051651
0.650419
0.0492426
0.60722
0.0456331
0.564022
0.0420226
0.520825
0.0396104
0.47763
0.0359954
0.434437
0.0323763
0.390049
0.0287536
0.346863
0.025126
0.303687
0.0215021
0.259291
0.0166828
0.216106
0.0130941
0.171616
0.00832868
0.128394
0.00362738
0.0836591
0.0393931
-0.00478965
0.0445655
-0.0096231
0.0890979
-0.0132725
0.132069
-0.0168991
0.175232
-0.020506
0.219541
-0.0252999
0.263934
-0.028887
0.307127
-0.0324737
0.350343
-0.0360614
0.393552
-0.0396515
0.437964
-0.0432435
0.481171
-0.046837
0.524376
-0.0492313
0.566379
-0.0528262
0.61078
-0.0552214
0.652781
-0.0588166
0.695982
-0.061212
0.737982
-0.0636074
0.779983
-0.0648028
0.821983
-0.068398
0.865183
-0.0707933
0.905983
-0.0731885
0.947983
-0.0743837
0.988783
-0.0767788
1.02958
-0.077974
1.07038
-0.080369
1.11118
-0.0815639
1.15198
-0.0827589
1.19038
-0.0839537
1.23118
-0.0851485
1.27078
-0.0863432
1.30918
-0.0887378
1.34878
-0.0899324
1.38718
-0.089927
1.42438
-0.0911214
1.46278
-0.0923158
1.49998
-0.0923103
1.53718
-0.0923047
1.57318
-0.093499
1.61038
-0.0934934
1.64518
-0.0934877
1.68118
-0.0946818
1.71718
-0.0946761
1.75078
-0.0946703
1.78558
-0.0946645
1.81918
-0.0934588
1.85158
-0.093453
1.88518
-0.0946471
1.91878
-0.0934413
1.94878
-0.0922356
1.98118
-0.0922297
2.01238
-0.0910239
2.04238
-0.0910181
2.07358
-0.0904123
2.10202
-0.0895665
2.1313
-0.0887207
2.15974
-0.0876349
2.1877
-0.0865492
2.21506
-0.0854634
2.24206
-0.0842578
2.26835
-0.083052
2.29415
-0.0817265
2.31935
-0.080281
2.34395
-0.0789553
2.36819
-0.0773899
2.39159
-0.0758245
2.41439
-0.0741392
2.43683
-0.072454
2.45855
-0.0707689
2.47967
-0.0690838
2.50031
-0.0672787
2.52011
-0.0652339
2.53931
-0.0634291
2.55815
-0.0615041
2.57615
-0.0594596
2.59355
-0.0574149
2.61035
-0.0552505
2.62643
-0.0530859
2.64191
-0.0509216
2.65691
-0.0487573
2.67107
-0.0464732
2.68451
-0.0441891
2.69747
-0.041905
2.70983
-0.039501
2.72123
-0.0372173
2.73227
-0.0348137
2.74235
-0.0324099
2.75207
-0.0298865
2.76083
-0.0276031
2.76923
-0.0249598
2.77655
-0.0225566
2.78363
-0.0200337
2.78963
-0.0175106
2.79527
-0.0149879
2.79995
-0.0124651
2.80415
-0.00987059
2.80757
-0.00732417
2.81035
-0.00475364
2.8124
-0.00218343
2.81378
0.0003867
2.81447
0.00295669
2.81447
0.0055266
2.81378
0.00809617
2.8124
0.0106419
2.81035
0.0132355
2.80758
0.0157567
2.80416
0.0182781
2.79996
0.0207991
2.79528
0.0233202
2.78964
0.025721
2.78364
0.0283617
2.77656
0.0306423
2.76924
0.0331628
2.76084
0.0355629
2.75208
0.0379631
2.74236
0.0402432
2.73228
0.042643
2.72124
0.0449226
2.70984
0.0472022
2.69748
0.0494819
2.68452
0.0516412
2.67108
0.0538005
2.65692
0.0559594
2.64192
0.0581187
2.62644
0.0601574
2.61036
0.0621964
2.59356
0.0641146
2.57616
0.0659132
2.55816
0.0679517
2.53932
0.0697498
2.52013
0.0714277
2.50033
0.0731058
2.47969
0.0747835
2.45857
0.0764612
2.43685
0.0780186
2.41441
0.079576
2.39161
0.080893
2.36821
0.0823301
2.34397
0.0836471
2.31937
0.0848437
2.29417
0.0860404
2.26837
0.0871168
2.24209
0.0881933
2.21509
0.0892695
2.18773
0.0901055
2.15977
0.0909414
2.13133
0.0915372
2.10205
0.0915329
2.07361
0.0927286
2.04241
0.0927238
2.01241
0.0939192
1.98121
0.0951144
1.94881
0.0939092
1.91881
0.0939041
1.88521
0.0950991
1.85161
0.0950937
1.81921
0.0950882
1.78561
0.0950826
1.75081
0.0938765
1.71722
0.0938706
1.68122
0.0938646
1.64522
0.0926583
1.61042
0.0926522
1.57322
0.0926459
1.53722
0.0914393
1.50002
0.0902325
1.46282
0.0902259
1.42442
0.0890189
1.38722
0.0866117
1.34882
0.0854046
1.30922
0.0841972
1.27082
0.0829898
1.23122
0.0817825
1.19042
0.0805749
1.15202
0.078167
1.11122
0.0769594
1.07042
0.0745513
1.02962
0.0733433
0.988823
0.070935
0.948023
0.0685266
0.906024
0.0649176
0.865224
0.0637092
0.822025
0.0613003
0.780025
0.0588911
0.738026
0.0552814
0.696027
0.0528716
0.652828
0.0492608
0.61083
0.0468494
0.566433
0.0432362
0.524437
0.0396206
0.481244
0.0360022
0.438054
0.0323798
0.39367
0.0287549
0.350486
0.0251287
0.307311
0.0203102
0.264107
0.0167078
0.219706
0.0131311
0.17519
0.0095863
0.131935
0.00481408
0.0884276
0.0442024
-0.00480213
0.0493674
-0.00840211
0.0926984
-0.0132526
0.13692
-0.0180848
0.180065
-0.0217036
0.22316
-0.0253049
0.267536
-0.0288961
0.310718
-0.0324836
0.35393
-0.0372706
0.398339
-0.0396594
0.440353
-0.04325
0.484761
-0.0456423
0.526768
-0.0492356
0.569972
-0.0516297
0.613174
-0.0552241
0.656375
-0.0576187
0.698376
-0.0600134
0.740377
-0.063608
0.783577
-0.0660026
0.824377
-0.0671972
0.866377
-0.0695916
0.908377
-0.071986
0.950377
-0.0743802
0.991177
-0.0767743
1.03198
-0.0779684
1.07158
-0.0803624
1.11358
-0.0815563
1.15318
-0.08395
1.19278
-0.0851438
1.23238
-0.0863374
1.27198
-0.0875309
1.31038
-0.0887243
1.34998
-0.0887178
1.38718
-0.089911
1.42558
-0.0911042
1.46398
-0.0922973
1.50118
-0.0922904
1.53718
-0.0934834
1.57438
-0.0934764
1.61038
-0.0946693
1.64638
-0.0946623
1.68118
-0.0946552
1.71718
-0.0946481
1.75078
-0.0946409
1.78558
-0.0946338
1.81918
-0.0946266
1.85158
-0.0946194
1.88518
-0.0934122
1.91758
-0.093405
1.94878
-0.0933977
1.98118
-0.0921906
2.01118
-0.0921833
2.04238
-0.090976
2.07238
-0.0903689
2.10142
-0.0895217
2.13046
-0.0885545
2.15878
-0.0875874
2.18674
-0.0866201
2.2141
-0.085413
2.24086
-0.0842059
2.26714
-0.0829991
2.29294
-0.081672
2.31802
-0.0803452
2.34262
-0.0787782
2.36662
-0.0772116
2.39002
-0.0757649
2.41294
-0.0741981
2.43526
-0.0725116
2.45686
-0.0708251
2.47798
-0.0688989
2.49838
-0.0670928
2.5183
-0.0652864
2.5375
-0.0633604
2.55622
-0.0613146
2.5741
-0.0592686
2.5915
-0.0572229
2.6083
-0.0551772
2.62438
-0.0531317
2.63986
-0.0508463
2.65462
-0.0485611
2.66878
-0.0463956
2.68234
-0.0442305
2.6953
-0.0418256
2.70742
-0.0395409
2.71894
-0.0370163
2.72975
-0.0347315
2.74007
-0.032327
2.74967
-0.0299227
2.75843
-0.0273985
2.76671
-0.0249944
2.77415
-0.0223504
2.78099
-0.0199465
2.78723
-0.017423
2.79275
-0.0148991
2.79743
-0.0123761
2.80163
-0.00979247
2.80499
-0.00722147
2.80777
-0.00466258
2.80984
-0.00209184
2.81121
0.000478798
2.8119
0.00304928
2.8119
0.00561965
2.81121
0.00817786
2.80984
0.010748
2.80778
0.0133294
2.80499
0.0158515
2.80163
0.0183726
2.79743
0.0208941
2.79276
0.0232953
2.78724
0.0259362
2.781
0.0283371
2.77416
0.0308578
2.76672
0.0332583
2.75844
0.0356587
2.74968
0.0379387
2.74008
0.0404589
2.72976
0.0427388
2.71896
0.0451387
2.70744
0.0472981
2.69532
0.0494571
2.68236
0.0517366
2.6688
0.0540156
2.65464
0.0560545
2.63988
0.0580933
2.6244
0.0601319
2.60832
0.0621701
2.59153
0.0642084
2.57413
0.0661265
2.55625
0.067924
2.53753
0.0697219
2.51833
0.0716396
2.49841
0.0733168
2.47801
0.074994
2.45689
0.0765506
2.43529
0.0779874
2.41297
0.0795444
2.39005
0.0811006
2.36665
0.0824169
2.34265
0.0837329
2.31805
0.0849291
2.29297
0.0861248
2.26717
0.0873205
2.24089
0.0882755
2.21413
0.089231
2.18677
0.090186
2.15881
0.0910209
2.1305
0.0916158
2.10146
0.0928102
2.07242
0.0928045
2.04242
0.093999
2.01122
0.093993
1.98122
0.0939869
1.94882
0.0951807
1.91762
0.0951743
1.88522
0.0951677
1.85162
0.0951611
1.81922
0.0951541
1.78562
0.0951472
1.75082
0.0951399
1.71722
0.0951328
1.68122
0.093925
1.64642
0.0939174
1.61042
0.0927094
1.57442
0.0927016
1.53722
0.0914934
1.50123
0.090285
1.46403
0.0890766
1.42563
0.0890683
1.38723
0.0878595
1.35003
0.0866507
1.31043
0.0854419
1.27203
0.0842329
1.23243
0.0818235
1.19283
0.0806142
1.15323
0.0782046
1.11363
0.0769951
1.07163
0.0745851
1.03203
0.0721751
0.991232
0.0697649
0.950433
0.0673547
0.908434
0.0661446
0.866434
0.063734
0.824435
0.0601228
0.783636
0.0577117
0.740437
0.0553002
0.698438
0.0516878
0.65644
0.049275
0.613242
0.0456605
0.570046
0.0432445
0.526852
0.0396254
0.484863
0.0372035
0.440475
0.0323775
0.398495
0.028751
0.354111
0.0251276
0.310933
0.0215164
0.267716
0.0179273
0.223293
0.0131553
0.179959
0.00840857
0.136678
0.00479553
0.092037
0.0489981
-0.00360227
0.0529725
-0.00839022
0.0974887
-0.0120316
0.140563
-0.0168662
0.184901
-0.0216941
0.227989
-0.0253042
0.271147
-0.0289016
0.314316
-0.0324917
0.357521
-0.0360792
0.401927
-0.0396672
0.443941
-0.0420568
0.487151
-0.0456479
0.530359
-0.0492403
0.573564
-0.0528335
0.616767
-0.0552272
0.658769
-0.0576211
0.70077
-0.0612151
0.743971
-0.0624091
0.784771
-0.0660029
0.827971
-0.0683967
0.868771
-0.0707903
0.910771
-0.0719838
0.951571
-0.0743771
0.99357
-0.0755704
1.03317
-0.0791633
1.07517
-0.0791564
1.11357
-0.0815491
1.15557
-0.0827418
1.19397
-0.0839344
1.23357
-0.0851269
1.27317
-0.0875191
1.31277
-0.0875114
1.34997
-0.0899033
1.38957
-0.0910953
1.42677
-0.0910873
1.46397
-0.0910792
1.50117
-0.0922709
1.53837
-0.0934625
1.57557
-0.0934542
1.61037
-0.0934459
1.64637
-0.0946373
1.68237
-0.0934289
1.71597
-0.0946202
1.75197
-0.0946117
1.78557
-0.0934032
1.81797
-0.0945944
1.85277
-0.0945857
1.88517
-0.0933772
1.91637
-0.0933685
1.94877
-0.0933598
1.98117
-0.0933511
2.01117
-0.0921425
2.04117
-0.0909339
2.07117
-0.0903253
2.10081
-0.0893566
2.12949
-0.0885079
2.15793
-0.0875393
2.18577
-0.0864508
2.21301
-0.0853624
2.23977
-0.0841538
2.26593
-0.0829453
2.29173
-0.081617
2.31669
-0.0801685
2.34117
-0.0787206
2.36517
-0.0772722
2.38857
-0.0757042
2.41137
-0.0740165
2.43357
-0.0724486
2.45529
-0.0706408
2.47617
-0.0689531
2.49669
-0.0670255
2.51637
-0.0652183
2.53569
-0.0631708
2.55417
-0.0612438
2.57217
-0.0593168
2.58957
-0.0571499
2.60614
-0.0551029
2.62234
-0.0529362
2.6377
-0.0507696
2.65246
-0.0486032
2.66662
-0.0464371
2.68018
-0.0440309
2.6929
-0.041745
2.70514
-0.039339
2.71654
-0.0370532
2.72746
-0.0346477
2.73766
-0.0322424
2.74726
-0.0298372
2.75602
-0.0273118
2.76418
-0.0249071
2.77174
-0.0223823
2.77846
-0.0198577
2.7847
-0.0173331
2.79022
-0.0148091
2.7949
-0.0121648
2.79899
-0.00970103
2.80253
-0.00714109
2.80521
-0.00456962
2.80727
-0.00199833
2.80864
0.00057283
2.80933
0.00314381
2.80933
0.00571466
2.80864
0.00828532
2.80727
0.0108435
2.80522
0.0133058
2.80253
0.0159477
2.79899
0.0184697
2.79491
0.0209912
2.79023
0.0235125
2.78471
0.0260337
2.77847
0.028435
2.77176
0.0309555
2.7642
0.0333561
2.75604
0.0357566
2.74728
0.0381569
2.73768
0.0404367
2.72748
0.0428364
2.71656
0.0451162
2.70516
0.0475155
2.69292
0.0496749
2.6802
0.0518339
2.66664
0.0539927
2.65248
0.0561513
2.63772
0.0581894
2.62237
0.0603477
2.60617
0.0622658
2.58961
0.0641837
2.57221
0.0662211
2.55421
0.0680187
2.53573
0.0699357
2.51641
0.0716126
2.49673
0.0734092
2.47621
0.0749657
2.45533
0.0766423
2.43361
0.0781984
2.41141
0.079634
2.38861
0.08107
2.36521
0.0825053
2.34122
0.0838206
2.31674
0.0850155
2.29178
0.0862102
2.26598
0.087285
2.23982
0.0883596
2.21306
0.0893138
2.18582
0.0901477
2.15798
0.0911015
2.12954
0.0916951
2.10086
0.0928886
2.07122
0.094082
2.04122
0.094075
2.01122
0.0940678
1.98122
0.0940604
1.94883
0.0952532
1.91643
0.0952452
1.88523
0.0940371
1.85283
0.0952292
1.81803
0.095221
1.78563
0.0940121
1.75203
0.0952037
1.71603
0.0939945
1.68243
0.0939858
1.64643
0.0939767
1.61043
0.0927671
1.57563
0.0915574
1.53843
0.0915479
1.50124
0.0915382
1.46404
0.0903281
1.42684
0.0879175
1.38964
0.0879076
1.35004
0.0854966
1.31284
0.084286
1.27324
0.0830753
1.23364
0.0818644
1.19404
0.079453
1.15564
0.0794423
1.11364
0.0758303
1.07524
0.0746191
1.03324
0.0722071
0.993644
0.0709956
0.951644
0.0685834
0.910845
0.0661711
0.868846
0.0625583
0.828047
0.061346
0.784848
0.0577325
0.74405
0.055319
0.700851
0.0529048
0.658853
0.049289
0.616857
0.0456717
0.573663
0.0420521
0.530471
0.03963
0.487284
0.0360046
0.444099
0.0323771
0.402121
0.0287515
0.357735
0.0251334
0.314549
0.0215312
0.271316
0.0167513
0.22807
0.0119806
0.184726
0.00842032
0.140234
0.00359529
0.096858
0.0525882
-0.00479628
0.0577693
-0.00958019
0.102274
-0.0132081
0.144192
-0.0168434
0.188537
-0.0204779
0.231624
-0.0240969
0.274766
-0.028902
0.319122
-0.0324968
0.361116
-0.0360863
0.405517
-0.0396745
0.447529
-0.0432633
0.49074
-0.0468535
0.533949
-0.0492449
0.575955
-0.0516373
0.61916
-0.0552302
0.662362
-0.0576235
0.703163
-0.0600168
0.746364
-0.06361
0.788364
-0.0648033
0.829164
-0.0683962
0.872364
-0.0695891
0.911963
-0.0731816
0.955163
-0.0743741
0.994763
-0.0767663
1.03556
-0.0779585
1.07636
-0.0803503
1.11596
-0.0815421
1.15676
-0.0827337
1.19516
-0.085125
1.23596
-0.0863163
1.27436
-0.0863076
1.31276
-0.0886984
1.35236
-0.0886893
1.38956
-0.08988
1.42796
-0.0910706
1.46516
-0.0922611
1.50236
-0.0922515
1.53836
-0.0922419
1.57556
-0.0934321
1.61156
-0.094622
1.64756
-0.0934125
1.68116
-0.0946024
1.71716
-0.0945925
1.75196
-0.0945824
1.78556
-0.0945724
1.81796
-0.0945622
1.85276
-0.0933523
1.88396
-0.0945419
1.91756
-0.0933319
1.94756
-0.0921219
1.97996
-0.0921117
2.01116
-0.0921013
2.04116
-0.0908915
2.06996
-0.0902811
2.1002
-0.0894311
2.12864
-0.088581
2.15708
-0.0874908
2.18468
-0.0865209
2.21204
-0.0853108
2.23856
-0.0842208
2.26484
-0.082771
2.29028
-0.0814413
2.31536
-0.0801116
2.33984
-0.0787817
2.36384
-0.0772122
2.387
-0.0756428
2.4098
-0.0740735
2.432
-0.0722642
2.45348
-0.0705754
2.47448
-0.0687663
2.49488
-0.0669574
2.51456
-0.0650288
2.53377
-0.0632201
2.55237
-0.0612918
2.57025
-0.0591233
2.58741
-0.0571952
2.60421
-0.0550272
2.62017
-0.0528593
2.63553
-0.0506919
2.65029
-0.048524
2.66445
-0.0462369
2.67789
-0.0439495
2.69061
-0.0416623
2.70285
-0.0393756
2.71425
-0.0369687
2.72505
-0.0345623
2.73525
-0.032156
2.74485
-0.0296295
2.75349
-0.0272239
2.76178
-0.0246977
2.76922
-0.0222921
2.77606
-0.0197669
2.78218
-0.0172416
2.7877
-0.0147168
2.79238
-0.0121918
2.79646
-0.0095954
2.79993
-0.00703514
2.80265
-0.00447468
2.80471
-0.00190282
2.80606
0.000668886
2.80676
0.00324039
2.80676
0.00581172
2.80607
0.00837045
2.80471
0.0109294
2.80266
0.0135241
2.79994
0.0160463
2.79647
0.0185686
2.79239
0.0210903
2.78771
0.0236123
2.78219
0.0260136
2.77607
0.0285344
2.76923
0.0309357
2.7618
0.0334561
2.75352
0.0358566
2.74488
0.038257
2.73528
0.0406567
2.72508
0.0429366
2.71428
0.045216
2.70288
0.0474951
2.69064
0.0497745
2.67792
0.0519328
2.66448
0.0540918
2.65033
0.0562501
2.63557
0.0584082
2.62021
0.0603262
2.60425
0.0624835
2.58745
0.064401
2.57029
0.0661979
2.55241
0.068115
2.53381
0.0699114
2.51461
0.0717077
2.49493
0.0733841
2.47454
0.0751799
2.45354
0.0767355
2.43206
0.0782909
2.40986
0.079846
2.38706
0.0811605
2.3639
0.0824752
2.3399
0.0837897
2.31542
0.0852241
2.29034
0.0862977
2.2649
0.0874913
2.23862
0.0884449
2.21211
0.089518
2.18475
0.0903508
2.15715
0.0911838
2.12871
0.0917759
2.10027
0.0929686
2.07003
0.0929601
2.04123
0.0929518
2.01123
0.0941436
1.98003
0.0953353
1.94763
0.0941258
1.91763
0.0953171
1.88404
0.0953075
1.85284
0.0952981
1.81804
0.0952882
1.78564
0.0952784
1.75204
0.0940678
1.71724
0.0952581
1.68124
0.0940469
1.64764
0.0928361
1.61164
0.0928253
1.57564
0.0928141
1.53845
0.0916029
1.50245
0.0903912
1.46525
0.0891794
1.42805
0.0891677
1.38965
0.0867552
1.35245
0.0867435
1.31285
0.0855312
1.27445
0.0831182
1.23605
0.0819057
1.19525
0.080693
1.15685
0.0782797
1.11605
0.0770667
1.07646
0.074653
1.03566
0.07344
0.994857
0.0698255
0.955258
0.068612
0.912058
0.0649974
0.87246
0.0637835
0.829261
0.0601684
0.788462
0.0577534
0.746464
0.0553378
0.703266
0.0517208
0.66247