/*--------------------------------*- C++ -*---------------------------------*\ 
| ========                 |                                                 | 
| \      /  F ield         | OpenFOAM: The Open Source CFD Toolbox           | 
|  \    /   O peration     | Version:  v1812                                 | 
|   \  /    A nd           | Web:      www.OpenFOAM.com                      | 
|    \/     M anipulation  |                                                 | 
\*--------------------------------------------------------------------------*/ 
FoamFile
{
    version     2.0;
    format      ascii;
    class       volVectorField;
    location    "/home/james/dafoam/myRuns/bezier_coanda_opt/0.00000000001/";
    object      sens_CL_shapey;
}
// * * * * * * * * * * * * * * * * * * * * * * * * * * * * * * * * * * * * * //

dimensions      [0 0 0 0 0 0 0];
internalField   uniform (0 0 0);
boundaryField
{
    allWalls
    {
        type  wall;
        value nonuniform List<vector>
188
(
(0.001225 -0.001651 0.000103)
(-0.006942 0.003841 0.000103)
(-0.018824 0.012220 0.000103)
(-0.026765 0.021275 0.000103)
(-0.026396 0.025313 0.000103)
(-0.025448 0.029694 0.000103)
(-0.014958 0.019852 0.000103)
(-0.004793 0.009607 0.000103)
(-0.011405 0.024671 0.000151)
(-0.012434 0.029286 0.000207)
(-0.010280 0.028228 0.000252)
(-0.009838 0.030824 0.000331)
(-0.008566 0.031735 0.000420)
(-0.007645 0.032298 0.000519)
(-0.006917 0.033997 0.000629)
(-0.006751 0.037773 0.000751)
(-0.006186 0.040678 0.000692)
(-0.005775 0.044566 0.000837)
(-0.005175 0.048357 0.000882)
(-0.004633 0.053723 0.000990)
(-0.003859 0.059464 0.001462)
(-0.002962 0.067765 0.001586)
(-0.001702 0.076802 0.001615)
(0.000061 0.091483 0.001333)
(0.002746 0.112402 0.000997)
(0.005758 0.121806 0.000929)
(0.008366 0.119732 0.000787)
(0.011005 0.121933 0.000637)
(0.013610 0.125668 0.000507)
(0.016028 0.128446 0.000218)
(0.018379 0.131637 -0.000011)
(0.020584 0.134545 -0.000011)
(0.022662 0.137359 -0.000011)
(0.024583 0.139895 -0.000011)
(0.026327 0.142034 -0.000011)
(0.027879 0.143730 -0.000057)
(0.029216 0.144697 -0.000103)
(0.030263 0.144769 -0.000103)
(0.030968 0.143881 -0.000103)
(0.031380 0.142126 -0.000103)
(0.031496 0.139492 -0.000103)
(0.031175 0.135357 -0.000074)
(0.030356 0.129482 -0.000045)
(0.029356 0.123214 -0.000045)
(0.028793 0.118845 -0.000045)
(0.027537 0.111650 -0.000045)
(0.022556 0.088627 -0.000045)
(0.022128 0.086204 -0.000058)
(0.026550 0.105984 -0.000071)
(0.010082 0.024592 -0.000071)
(-0.011640 0.049211 -0.000071)
(-0.003048 0.001215 -0.000071)
(-0.011727 0.038277 -0.000058)
(-0.013424 0.045346 -0.000045)
(-0.013741 0.048204 -0.000045)
(-0.014784 0.052634 -0.000045)
(-0.016458 0.059783 -0.000045)
(-0.017687 0.065642 -0.000045)
(-0.018621 0.070845 -0.000074)
(-0.019216 0.075314 -0.000103)
(-0.019483 0.079045 -0.000103)
(-0.019410 0.081962 -0.000103)
(-0.019033 0.084142 -0.000103)
(-0.018359 0.085541 -0.000103)
(-0.017471 0.086414 -0.000058)
(-0.016390 0.086810 -0.000012)
(-0.015130 0.086788 -0.000012)
(-0.013783 0.086729 -0.000013)
(-0.012342 0.086521 -0.000013)
(-0.010808 0.086161 -0.000013)
(-0.009226 0.085873 -0.000027)
(-0.007630 0.086083 -0.000056)
(-0.005930 0.085608 -0.000091)
(-0.004102 0.081930 -0.000132)
(-0.002314 0.084881 -0.000173)
(-0.000579 0.087558 -0.000196)
(0.001062 0.079190 -0.000444)
(0.002034 0.062571 -0.000530)
(0.002544 0.049065 -0.000379)
(0.003243 0.046829 -0.000385)
(0.003539 0.041364 -0.000378)
(0.004190 0.039506 -0.000453)
(0.004964 0.039390 -0.000514)
(0.005192 0.034911 -0.000420)
(0.005112 0.030084 -0.000319)
(0.006518 0.032584 -0.000260)
(0.006547 0.029783 -0.000199)
(0.004869 0.019669 -0.000148)
(0.005781 0.020684 -0.000102)
(0.010909 0.031869 -0.000060)
(0.009429 0.024371 -0.000021)
(0.007192 0.013321 0.000014)
(0.010730 0.016685 -0.000129)
(0.004637 0.003009 -0.000100)
(0.001710 -0.004913 0.000099)
(-0.001961 -0.008715 0.000107)
(0.005081 -0.003360 -0.000015)
(0.024697 0.017413 -0.000015)
(0.017482 0.020346 0.000103)
(0.003750 0.005740 0.000103)
(-0.001386 0.027947 -0.000071)
(0.002938 0.123111 -0.000071)
(0.001626 0.109841 -0.000071)
(0.003058 0.117084 -0.000071)
(0.004951 0.158669 -0.000071)
(0.005896 0.180868 -0.000071)
(0.007499 0.230303 -0.000071)
(0.010197 0.289178 -0.000071)
(0.013772 0.377529 -0.000071)
(0.017561 0.480691 -0.000057)
(0.017893 0.425446 -0.000044)
(0.027016 0.534753 -0.000044)
(0.101766 2.254141 -0.000044)
(0.233928 5.210142 -0.000044)
(-5.369164 -7.615065 -0.000044)
(76.095457 -120.282832 -0.000044)
(-7.375352 -4.314707 -0.000044)
(-5.465944 -2.876525 -0.000044)
(-8.184495 -10.537127 -0.000044)
(-65.290142 112.516231 -0.000044)
(3.204876 35.976230 -0.000021)
(1.999705 16.217379 0.000001)
(0.591095 6.007393 0.000001)
(0.117101 0.168359 0.000001)
(0.850784 2.552502 0.000001)
(0.065719 0.486746 0.000001)
(-0.076045 -0.058950 0.000001)
(0.435087 0.745814 0.000001)
(1.592249 2.303765 0.000001)
(3.541497 4.682812 0.000001)
(3.619220 4.512180 0.000001)
(3.306333 4.028563 0.000001)
(15.879083 13.952109 0.000001)
(20.091612 15.332992 0.000001)
(-5.633769 -5.656691 0.000001)
(-56.457451 -33.635885 0.000001)
(-50.669377 -25.455780 0.000001)
(-5.220269 -0.797794 0.000001)
(17.256445 4.128567 0.000001)
(23.682495 4.663756 0.000001)
(12.397918 2.001846 0.000001)
(5.431015 1.002553 0.000001)
(0.255565 -0.445901 0.000001)
(0.783279 -0.645287 0.000001)
(1.774204 -0.732149 0.000001)
(1.749524 -0.613420 0.000001)
(0.767082 -0.042898 0.000001)
(0.274131 0.247574 0.000001)
(0.395511 0.212238 0.000001)
(0.215234 0.125668 0.000001)
(0.018364 0.084031 0.000001)
(-0.097981 0.077730 0.000001)
(-0.159506 0.099314 0.000001)
(-0.205015 0.147062 0.000001)
(-0.236799 0.193326 0.000001)
(-0.249616 0.213218 0.000001)
(-0.208934 0.183641 0.000001)
(-0.149588 0.145837 0.000001)
(-0.117231 0.128194 0.000001)
(-0.076350 0.091924 0.000001)
(-0.025725 0.028403 0.000001)
(0.009722 -0.025106 0.000001)
(0.026977 -0.064880 0.000001)
(0.035527 -0.093231 0.000001)
(0.021093 -0.043198 0.000001)
(-0.006894 0.053470 0.000001)
(-0.001345 0.005645 0.000001)
(0.017037 -0.126449 -0.000021)
(-14.961534 -0.084399 -0.000044)
(14.987443 -0.002852 -0.000044)
(0.034559 -0.033335 -0.000044)
(0.116954 -0.064289 -0.000044)
(0.514533 -2.681777 -0.000044)
(0.399397 -1.817325 -0.000044)
(-0.048310 1.219469 -0.000044)
(-0.017728 0.460554 -0.000044)
(-0.003184 0.088642 -0.000044)
(-0.001358 0.046348 -0.000044)
(-0.002932 0.085247 -0.000057)
(-0.003165 0.097146 -0.000071)
(-0.002366 0.071309 -0.000071)
(-0.001923 0.059868 -0.000071)
(-0.001542 0.051224 -0.000071)
(-0.001723 0.049323 -0.000071)
(-0.001692 0.041137 -0.000071)
(0.001494 0.017762 -0.000071)
(0.004342 0.013445 -0.000071)
(-0.011397 0.070996 -0.000071)
)
;
    }
}
