/*--------------------------------*- C++ -*---------------------------------*\ 
| ========                 |                                                 | 
| \      /  F ield         | OpenFOAM: The Open Source CFD Toolbox           | 
|  \    /   O peration     | Version:  v1812                                 | 
|   \  /    A nd           | Web:      www.OpenFOAM.com                      | 
|    \/     M anipulation  |                                                 | 
\*--------------------------------------------------------------------------*/ 
FoamFile
{
    version     2.0;
    format      ascii;
    class       volVectorField;
    location    "/home/james/dafoam/myRuns/bezier_coanda_opt/0.00000000001/";
    object      sens_CL_shapey;
}
// * * * * * * * * * * * * * * * * * * * * * * * * * * * * * * * * * * * * * //

dimensions      [0 0 0 0 0 0 0];
internalField   uniform (0 0 0);
boundaryField
{
    allWalls
    {
        type  wall;
        value nonuniform List<vector>
188
(
(0.020524 -0.010536 0.000046)
(0.003768 0.001763 0.000046)
(-0.023421 0.019193 0.000046)
(-0.043970 0.038236 0.000058)
(-0.047070 0.049383 0.000058)
(-0.031409 0.039724 0.000046)
(-0.010081 0.017951 0.000046)
(-0.003421 0.013607 0.000046)
(-0.009127 0.024374 0.000169)
(-0.009764 0.026241 0.000324)
(-0.009182 0.028736 0.000389)
(-0.008749 0.031948 0.000461)
(-0.006572 0.028537 0.000542)
(-0.005864 0.029495 0.000603)
(-0.005929 0.033892 0.000673)
(-0.005531 0.036462 0.000781)
(-0.005210 0.040621 0.000830)
(-0.004854 0.045152 0.000990)
(-0.004257 0.048940 0.001191)
(-0.003670 0.054410 0.001165)
(-0.002842 0.059273 0.001308)
(-0.001898 0.066986 0.001382)
(-0.000743 0.077656 0.001572)
(0.000925 0.090597 0.001390)
(0.003516 0.113413 0.000886)
(0.006100 0.123367 0.000830)
(0.008133 0.118944 0.000704)
(0.010344 0.122249 0.000570)
(0.012448 0.126050 0.000453)
(0.014348 0.128684 0.000183)
(0.016158 0.131522 -0.000034)
(0.017878 0.134452 -0.000034)
(0.019481 0.137243 -0.000034)
(0.020955 0.139758 -0.000034)
(0.022298 0.141992 -0.000034)
(0.023516 0.143947 -0.000075)
(0.024603 0.145499 -0.000115)
(0.025464 0.146150 -0.000115)
(0.026091 0.145999 -0.000115)
(0.026503 0.145068 -0.000115)
(0.026721 0.143458 -0.000115)
(0.026654 0.140673 -0.000083)
(0.026399 0.137242 -0.000051)
(0.026188 0.134336 -0.000051)
(0.025427 0.128662 -0.000051)
(0.022544 0.112686 -0.000051)
(0.020878 0.102280 -0.000051)
(0.027848 0.138129 -0.000061)
(0.034079 0.170439 -0.000072)
(0.000864 -0.027773 -0.000072)
(-0.015062 0.073029 -0.000072)
(-0.000945 -0.004808 -0.000072)
(-0.010422 0.039441 -0.000061)
(-0.013777 0.055556 -0.000051)
(-0.013526 0.056070 -0.000051)
(-0.014330 0.060639 -0.000051)
(-0.015805 0.068380 -0.000051)
(-0.016574 0.073463 -0.000051)
(-0.017029 0.077542 -0.000083)
(-0.017307 0.081275 -0.000115)
(-0.017350 0.084372 -0.000115)
(-0.017125 0.086629 -0.000115)
(-0.016663 0.088133 -0.000115)
(-0.016000 0.088995 -0.000115)
(-0.015178 0.089314 -0.000074)
(-0.014216 0.089182 -0.000034)
(-0.013136 0.088739 -0.000034)
(-0.011982 0.088137 -0.000034)
(-0.010772 0.087460 -0.000034)
(-0.009514 0.086734 -0.000034)
(-0.008220 0.086001 -0.000052)
(-0.006897 0.085295 -0.000081)
(-0.005580 0.085559 -0.000105)
(-0.004023 0.080045 -0.000133)
(-0.002712 0.089175 -0.000160)
(-0.001332 0.087993 -0.000175)
(0.000179 0.067740 -0.000203)
(0.001151 0.060297 -0.000383)
(0.001853 0.052328 -0.000527)
(0.002359 0.045858 -0.000429)
(0.002815 0.041853 -0.000334)
(0.003198 0.038026 -0.000373)
(0.003633 0.035359 -0.000405)
(0.004674 0.037114 -0.000371)
(0.004637 0.032008 -0.000290)
(0.005042 0.029331 -0.000259)
(0.005726 0.029541 -0.000245)
(0.005715 0.025696 -0.000186)
(0.004413 0.018250 -0.000163)
(0.006734 0.021658 -0.000141)
(0.010314 0.028409 -0.000122)
(0.008436 0.018598 -0.000098)
(0.009231 0.015770 -0.000112)
(0.006077 0.007228 -0.000047)
(0.004052 0.000144 0.000046)
(0.000564 -0.004135 0.000046)
(0.004412 -0.002305 0.000009)
(0.019759 0.013366 0.000009)
(0.013931 0.012485 0.000046)
(0.013139 -0.004656 0.000046)
(-0.008744 -0.009222 -0.000072)
(0.011207 0.207573 -0.000072)
(0.004604 0.148133 -0.000072)
(0.002812 0.121616 -0.000072)
(0.005378 0.184266 -0.000072)
(0.007937 0.242059 -0.000072)
(0.009392 0.272660 -0.000072)
(0.010978 0.310989 -0.000072)
(0.015411 0.432330 -0.000072)
(0.019950 0.552773 -0.000059)
(0.020505 0.501617 -0.000046)
(0.031187 0.635233 -0.000046)
(0.110918 2.533997 -0.000046)
(0.285911 6.002147 -0.000046)
(-7.137212 -3.118703 -0.000046)
(129.189188 -168.282343 -0.000046)
(-6.872209 -4.277168 -0.000046)
(-5.515342 -2.998690 -0.000046)
(-10.129021 -6.989758 -0.000046)
(-116.590685 149.263052 -0.000046)
(4.229491 53.370398 -0.000023)
(3.152088 24.120741 0.000000)
(0.732740 8.113779 0.000000)
(-0.115054 -0.912771 0.000000)
(1.206333 3.430487 0.000000)
(0.057517 0.531958 0.000000)
(0.132540 0.325368 0.000000)
(1.300777 2.399631 0.000000)
(2.527637 3.788801 0.000000)
(2.971115 4.183754 0.000000)
(1.557117 2.318161 0.000000)
(3.867028 4.262126 0.000000)
(16.632565 14.697355 0.000000)
(3.179541 1.419980 0.000000)
(-39.156502 -25.845494 0.000000)
(-55.638147 -27.279132 0.000000)
(-24.731782 -9.201830 0.000000)
(14.974147 5.979389 0.000000)
(30.624291 8.773271 0.000000)
(23.556091 5.471130 0.000000)
(6.984436 0.600787 0.000000)
(0.158551 -0.940351 0.000000)
(0.539365 -0.773916 0.000000)
(1.181313 -0.573398 0.000000)
(1.279154 -0.847818 0.000000)
(1.204312 -0.389752 0.000000)
(0.035224 -0.082188 0.000000)
(0.372040 0.039903 0.000000)
(0.288178 0.027918 0.000000)
(-0.043184 0.043881 0.000000)
(-0.146033 0.031781 0.000000)
(-0.191419 0.055206 0.000000)
(-0.238118 0.113111 0.000000)
(-0.281962 0.174283 0.000000)
(-0.304245 0.221470 0.000000)
(-0.319775 0.260439 0.000000)
(-0.273959 0.240863 0.000000)
(-0.196457 0.191306 0.000000)
(-0.149561 0.158749 0.000000)
(-0.085114 0.091036 0.000000)
(-0.019139 0.006236 0.000000)
(0.037500 -0.089685 0.000000)
(0.068325 -0.165663 0.000000)
(0.074360 -0.218972 0.000000)
(0.073295 -0.266674 0.000000)
(0.067505 -0.292078 0.000000)
(0.053342 -0.262751 0.000000)
(0.028342 -0.207166 -0.000023)
(-14.951576 -0.096596 -0.000046)
(14.984610 -0.005711 -0.000046)
(0.042993 -0.033868 -0.000046)
(0.139327 -0.057075 -0.000046)
(0.524270 -2.745738 -0.000046)
(0.384932 -1.674923 -0.000046)
(-0.058589 1.547341 -0.000046)
(-0.022778 0.600692 -0.000046)
(-0.004892 0.123431 -0.000046)
(-0.002687 0.075308 -0.000046)
(-0.004213 0.121625 -0.000059)
(-0.004305 0.131581 -0.000072)
(-0.003209 0.096969 -0.000072)
(-0.002610 0.080837 -0.000072)
(-0.002142 0.069511 -0.000072)
(-0.002468 0.066557 -0.000072)
(-0.002614 0.057624 -0.000072)
(0.001712 0.021588 -0.000072)
(0.006320 0.011485 -0.000072)
(-0.013924 0.097158 -0.000072)
)
;
    }
}
