/*--------------------------------*- C++ -*---------------------------------*\ 
| ========                 |                                                 | 
| \      /  F ield         | OpenFOAM: The Open Source CFD Toolbox           | 
|  \    /   O peration     | Version:  v1812                                 | 
|   \  /    A nd           | Web:      www.OpenFOAM.com                      | 
|    \/     M anipulation  |                                                 | 
\*--------------------------------------------------------------------------*/ 
FoamFile
{
    version     2.0;
    format      ascii;
    class       volVectorField;
    location    "/home/james/dafoam/myRuns/bezier_coanda_opt/0.00000000001/";
    object      sens_CL_shapey;
}
// * * * * * * * * * * * * * * * * * * * * * * * * * * * * * * * * * * * * * //

dimensions      [0 0 0 0 0 0 0];
internalField   uniform (0 0 0);
boundaryField
{
    allWalls
    {
        type  wall;
        value nonuniform List<vector>
188
(
(-0.010828 0.003524 0.000126)
(-0.014758 0.005711 0.000078)
(-0.019138 0.009734 0.000079)
(-0.018227 0.012588 0.000129)
(-0.014652 0.013106 0.000130)
(-0.015880 0.017254 0.000131)
(-0.013524 0.016712 0.000158)
(-0.010473 0.016586 0.000159)
(-0.012713 0.024363 0.000207)
(-0.012284 0.027367 0.000306)
(-0.011076 0.028645 0.000366)
(-0.010134 0.030436 0.000272)
(-0.009064 0.031573 0.000147)
(-0.008414 0.033761 0.000377)
(-0.007863 0.036254 0.000667)
(-0.007179 0.038218 0.000773)
(-0.006622 0.041143 0.000877)
(-0.006036 0.044115 0.001004)
(-0.005452 0.048001 0.001132)
(-0.004882 0.053112 0.001276)
(-0.004098 0.058488 0.001432)
(-0.003182 0.065924 0.001534)
(-0.001957 0.075263 0.001607)
(-0.000215 0.090629 0.001335)
(0.002499 0.111626 0.001009)
(0.005461 0.118414 0.000936)
(0.008078 0.114653 0.000786)
(0.010820 0.117470 0.000630)
(0.013451 0.120700 0.000495)
(0.015906 0.123124 0.000214)
(0.018294 0.126006 -0.000006)
(0.020520 0.128531 -0.000007)
(0.022633 0.131088 -0.000009)
(0.024593 0.133423 -0.000011)
(0.026379 0.135408 -0.000012)
(0.027966 0.136785 -0.000045)
(0.029305 0.137462 -0.000078)
(0.030350 0.137457 -0.000078)
(0.031059 0.136476 -0.000078)
(0.031444 0.134574 -0.000078)
(0.031491 0.131687 -0.000078)
(0.031133 0.127553 -0.000049)
(0.030356 0.122105 -0.000020)
(0.029222 0.115571 -0.000020)
(0.028006 0.108773 -0.000020)
(0.026740 0.101852 -0.000020)
(0.023599 0.086705 -0.000020)
(0.020735 0.073474 -0.000043)
(0.018257 0.061795 -0.000066)
(0.015635 0.056344 -0.000066)
(-0.010745 0.044799 -0.000066)
(-0.004754 0.006258 -0.000066)
(-0.011377 0.035794 -0.000043)
(-0.012653 0.040904 -0.000020)
(-0.015929 0.053614 -0.000020)
(-0.015127 0.051751 -0.000020)
(-0.014660 0.051078 -0.000020)
(-0.016892 0.059831 -0.000020)
(-0.018601 0.067335 -0.000049)
(-0.019141 0.071248 -0.000078)
(-0.019304 0.074258 -0.000078)
(-0.019315 0.077215 -0.000078)
(-0.019062 0.079697 -0.000078)
(-0.018475 0.081358 -0.000078)
(-0.017647 0.082604 -0.000047)
(-0.016618 0.083427 -0.000017)
(-0.015404 0.083777 -0.000017)
(-0.014087 0.084100 -0.000016)
(-0.012663 0.084340 -0.000016)
(-0.011124 0.084390 -0.000015)
(-0.009519 0.084576 -0.000026)
(-0.007844 0.084759 -0.000052)
(-0.006127 0.085751 -0.000087)
(-0.004300 0.086732 -0.000130)
(-0.002357 0.081690 -0.000174)
(-0.000456 0.083318 -0.000202)
(0.001321 0.083297 -0.000466)
(0.002321 0.064127 -0.000706)
(0.002789 0.049366 -0.000803)
(0.003560 0.047603 -0.000758)
(0.003825 0.041830 -0.000573)
(0.004536 0.040056 -0.000522)
(0.005377 0.040211 -0.000472)
(0.005599 0.035474 -0.000439)
(0.005559 0.030896 -0.000389)
(0.007140 0.033794 -0.000310)
(0.007041 0.030493 -0.000237)
(0.004677 0.018162 -0.000170)
(0.005881 0.020204 -0.000109)
(0.012201 0.034193 -0.000054)
(0.010098 0.025123 -0.000004)
(0.007324 0.012853 0.000041)
(0.010988 0.016144 -0.000048)
(0.003888 0.000861 -0.000117)
(0.000278 -0.007834 0.000046)
(-0.003055 -0.010942 0.000181)
(0.006300 -0.003145 0.000159)
(0.027989 0.020302 0.000123)
(0.019436 0.025380 0.000124)
(-0.002436 0.011955 0.000125)
(0.006351 0.069035 -0.000066)
(-0.002806 0.080632 -0.000066)
(-0.000784 0.077081 -0.000066)
(0.003174 0.111931 -0.000066)
(0.005215 0.160889 -0.000066)
(0.005033 0.150593 -0.000066)
(0.006035 0.187848 -0.000066)
(0.009490 0.271477 -0.000066)
(0.013135 0.353311 -0.000066)
(0.016425 0.436822 -0.000054)
(0.016428 0.364334 -0.000041)
(0.025092 0.426489 -0.000041)
(0.100455 2.116258 -0.000041)
(0.242838 5.124472 -0.000041)
(-5.792307 -8.769441 -0.000041)
(59.269379 -108.029230 -0.000041)
(-7.246469 -3.927321 -0.000041)
(-4.662045 -2.393674 -0.000041)
(-8.095403 -11.871959 -0.000041)
(-49.206691 102.950615 -0.000041)
(2.729085 30.286205 -0.000019)
(1.477998 13.775950 0.000002)
(0.438587 5.110007 0.000002)
(0.181055 0.302409 0.000002)
(0.809392 2.281988 0.000002)
(0.100183 0.412760 0.000002)
(0.035077 0.145909 0.000002)
(0.390081 0.738887 0.000002)
(0.966770 1.456884 0.000002)
(2.469291 3.255294 0.000002)
(4.548467 5.321496 0.000002)
(2.999269 3.604964 0.000002)
(11.330499 9.841604 0.000002)
(14.294156 12.270317 0.000002)
(5.655271 2.532016 0.000002)
(-33.856721 -21.266667 0.000002)
(-49.087822 -25.921455 0.000002)
(-13.606833 -5.127125 0.000002)
(11.335983 2.343725 0.000002)
(18.555880 3.182928 0.000002)
(11.014364 1.285656 0.000002)
(4.757182 0.402408 0.000002)
(-0.250703 -0.625936 0.000002)
(0.662789 -0.636115 0.000002)
(1.415166 -0.718056 0.000002)
(1.349606 -0.774679 0.000002)
(1.036192 -0.225972 0.000002)
(0.342610 0.113303 0.000002)
(0.376798 0.153313 0.000002)
(0.228329 0.096117 0.000002)
(0.051943 0.063204 0.000002)
(-0.068302 0.061665 0.000002)
(-0.134590 0.079556 0.000002)
(-0.174880 0.119694 0.000002)
(-0.201521 0.161061 0.000002)
(-0.209427 0.175362 0.000002)
(-0.173839 0.148752 0.000002)
(-0.126696 0.120487 0.000002)
(-0.100774 0.108463 0.000002)
(-0.070307 0.085361 0.000002)
(-0.032308 0.041848 0.000002)
(-0.004193 0.003941 0.000002)
(0.006622 -0.009346 0.000002)
(-0.005401 0.049573 0.000002)
(-0.038076 0.172317 0.000002)
(-0.034882 0.112673 0.000002)
(0.009025 -0.101698 0.000002)
(0.025301 -0.197503 -0.000019)
(-14.963147 -0.101695 -0.000041)
(14.988987 -0.001504 -0.000041)
(0.031505 -0.031197 -0.000041)
(0.105159 -0.063748 -0.000041)
(0.498040 -2.503178 -0.000041)
(0.395006 -1.728102 -0.000041)
(-0.044305 1.088793 -0.000041)
(-0.016088 0.409832 -0.000041)
(-0.002764 0.074125 -0.000041)
(-0.001131 0.037767 -0.000041)
(-0.002607 0.074484 -0.000054)
(-0.002793 0.084962 -0.000066)
(-0.002087 0.062417 -0.000066)
(-0.001709 0.052856 -0.000066)
(-0.001388 0.045651 -0.000066)
(-0.001489 0.044210 -0.000066)
(-0.001381 0.036424 -0.000066)
(0.001255 0.017638 -0.000066)
(0.003401 0.015337 -0.000066)
(-0.010599 0.065617 -0.000066)
)
;
    }
}
