/*--------------------------------*- C++ -*----------------------------------*\
  =========                 |
  \\      /  F ield         | OpenFOAM: The Open Source CFD Toolbox
   \\    /   O peration     | Website:  https://openfoam.org
    \\  /    A nd           | Version:  10
     \\/     M anipulation  |
\*---------------------------------------------------------------------------*/
FoamFile
{
    format      ascii;
    class       volScalarField;
    location    "0.002";
    object      rho;
}
// * * * * * * * * * * * * * * * * * * * * * * * * * * * * * * * * * * * * * //

dimensions      [1 -3 0 0 0 0 0];

internalField   nonuniform List<scalar> 
8922
(
1.16521
1.16488
1.16452
1.16412
1.16369
1.16322
1.1627
1.16216
1.16158
1.16098
1.16035
1.15971
1.15906
1.15842
1.15779
1.1572
1.15666
1.15618
1.15579
1.15551
1.15537
1.15537
1.15551
1.15579
1.1562
1.15661
1.15717
1.15816
1.15734
1.15111
1.16469
1.1642
1.16367
1.1631
1.1625
1.16186
1.1612
1.16052
1.15983
1.15914
1.15847
1.15782
1.15722
1.15668
1.15621
1.15582
1.15552
1.15531
1.1552
1.1552
1.15529
1.15548
1.15575
1.15611
1.15649
1.15683
1.15736
1.15807
1.15705
1.1541
1.16372
1.16312
1.16248
1.16182
1.16115
1.16046
1.15978
1.15911
1.15847
1.15787
1.15732
1.15683
1.15641
1.15607
1.15579
1.15559
1.15547
1.15541
1.15542
1.1555
1.15565
1.15585
1.15612
1.15644
1.15676
1.15707
1.15752
1.15792
1.15702
1.15561
1.16265
1.16202
1.16137
1.16073
1.16009
1.15947
1.15888
1.15833
1.15782
1.15737
1.15698
1.15664
1.15637
1.15614
1.15598
1.15586
1.1558
1.15579
1.15582
1.15591
1.15605
1.15624
1.15648
1.15675
1.15702
1.1573
1.15767
1.15786
1.15725
1.15663
1.16179
1.1612
1.16062
1.16005
1.15952
1.15901
1.15855
1.15812
1.15774
1.1574
1.15711
1.15686
1.15665
1.15649
1.15636
1.15627
1.15622
1.15622
1.15625
1.15633
1.15645
1.15662
1.15682
1.15706
1.15729
1.15753
1.15783
1.15793
1.15754
1.15734
1.16126
1.16075
1.16027
1.15981
1.15937
1.15897
1.1586
1.15826
1.15796
1.15768
1.15744
1.15723
1.15705
1.1569
1.15679
1.15671
1.15666
1.15665
1.15668
1.15674
1.15685
1.15699
1.15717
1.15736
1.15756
1.15777
1.158
1.15807
1.15788
1.15786
1.16105
1.16063
1.16023
1.15985
1.1595
1.15916
1.15885
1.15856
1.1583
1.15806
1.15784
1.15764
1.15748
1.15734
1.15723
1.15715
1.1571
1.15708
1.1571
1.15715
1.15724
1.15735
1.1575
1.15767
1.15784
1.15802
1.1582
1.15827
1.15821
1.15827
1.16107
1.16072
1.16038
1.16006
1.15975
1.15946
1.15918
1.15892
1.15868
1.15845
1.15825
1.15806
1.1579
1.15777
1.15766
1.15757
1.15752
1.1575
1.15751
1.15755
1.15762
1.15772
1.15784
1.15798
1.15812
1.15828
1.15843
1.1585
1.15852
1.15863
1.16122
1.16092
1.16062
1.16034
1.16006
1.15979
1.15954
1.15929
1.15906
1.15885
1.15865
1.15848
1.15832
1.15819
1.15808
1.15799
1.15794
1.15791
1.15791
1.15794
1.15799
1.15807
1.15817
1.15829
1.15841
1.15855
1.15867
1.15875
1.15882
1.15894
1.16144
1.16117
1.1609
1.16064
1.16039
1.16014
1.15989
1.15966
1.15944
1.15924
1.15905
1.15888
1.15873
1.1586
1.15849
1.1584
1.15834
1.15831
1.1583
1.15832
1.15836
1.15842
1.1585
1.1586
1.1587
1.15882
1.15893
1.15902
1.1591
1.15923
1.16169
1.16144
1.16119
1.16095
1.16071
1.16047
1.16024
1.16002
1.15981
1.15962
1.15944
1.15927
1.15912
1.15899
1.15889
1.1588
1.15874
1.1587
1.15868
1.15869
1.15871
1.15876
1.15883
1.15891
1.159
1.15909
1.15919
1.15928
1.15938
1.1595
1.16194
1.16171
1.16148
1.16125
1.16102
1.1608
1.16058
1.16037
1.16017
1.15998
1.15981
1.15965
1.15951
1.15938
1.15927
1.15919
1.15912
1.15907
1.15905
1.15905
1.15906
1.1591
1.15915
1.15921
1.15929
1.15937
1.15946
1.15955
1.15964
1.15976
1.16219
1.16197
1.16175
1.16154
1.16132
1.16111
1.1609
1.1607
1.16051
1.16033
1.16017
1.16001
1.15987
1.15975
1.15965
1.15956
1.15949
1.15944
1.15941
1.1594
1.1594
1.15943
1.15947
1.15952
1.15958
1.15965
1.15973
1.15981
1.1599
1.16001
1.16243
1.16223
1.16202
1.16181
1.16161
1.16141
1.16121
1.16103
1.16084
1.16067
1.16051
1.16036
1.16023
1.16011
1.16
1.15992
1.15985
1.15979
1.15976
1.15974
1.15973
1.15975
1.15977
1.15981
1.15986
1.15992
1.15999
1.16007
1.16015
1.16025
1.16266
1.16247
1.16227
1.16208
1.16189
1.1617
1.16151
1.16133
1.16116
1.161
1.16084
1.1607
1.16057
1.16045
1.16035
1.16026
1.16019
1.16013
1.16009
1.16007
1.16006
1.16006
1.16008
1.16011
1.16015
1.16019
1.16025
1.16032
1.1604
1.16048
1.16287
1.16269
1.16251
1.16233
1.16215
1.16197
1.1618
1.16162
1.16146
1.1613
1.16116
1.16102
1.16089
1.16078
1.16068
1.16059
1.16052
1.16046
1.16041
1.16038
1.16037
1.16036
1.16037
1.16039
1.16042
1.16046
1.16051
1.16057
1.16063
1.16071
1.16308
1.16291
1.16274
1.16257
1.1624
1.16223
1.16206
1.1619
1.16175
1.1616
1.16146
1.16133
1.1612
1.16109
1.16099
1.16091
1.16083
1.16077
1.16072
1.16069
1.16066
1.16065
1.16065
1.16067
1.16069
1.16072
1.16076
1.16081
1.16087
1.16093
1.16328
1.16312
1.16296
1.1628
1.16264
1.16248
1.16232
1.16217
1.16202
1.16188
1.16174
1.16162
1.1615
1.16139
1.16129
1.16121
1.16113
1.16107
1.16102
1.16098
1.16095
1.16094
1.16093
1.16093
1.16095
1.16097
1.161
1.16104
1.16109
1.16115
1.16346
1.16331
1.16316
1.16301
1.16286
1.16271
1.16256
1.16242
1.16228
1.16214
1.16201
1.16189
1.16178
1.16167
1.16158
1.16149
1.16142
1.16136
1.1613
1.16126
1.16123
1.16121
1.16119
1.16119
1.1612
1.16122
1.16124
1.16127
1.16131
1.16136
1.16363
1.16349
1.16335
1.16321
1.16307
1.16293
1.16279
1.16265
1.16252
1.16239
1.16227
1.16215
1.16204
1.16194
1.16185
1.16177
1.16169
1.16163
1.16157
1.16153
1.16149
1.16147
1.16145
1.16144
1.16144
1.16145
1.16147
1.16149
1.16152
1.16156
1.1638
1.16367
1.16353
1.1634
1.16327
1.16314
1.163
1.16288
1.16275
1.16263
1.16251
1.1624
1.1623
1.1622
1.16211
1.16203
1.16195
1.16189
1.16183
1.16178
1.16175
1.16172
1.1617
1.16168
1.16168
1.16168
1.16169
1.16171
1.16173
1.16176
1.16395
1.16383
1.1637
1.16358
1.16346
1.16333
1.16321
1.16309
1.16297
1.16285
1.16274
1.16263
1.16253
1.16244
1.16235
1.16227
1.1622
1.16213
1.16208
1.16203
1.16199
1.16195
1.16193
1.16191
1.1619
1.1619
1.16191
1.16192
1.16193
1.16196
1.16409
1.16398
1.16387
1.16375
1.16363
1.16351
1.1634
1.16328
1.16317
1.16306
1.16296
1.16285
1.16276
1.16267
1.16258
1.1625
1.16243
1.16237
1.16231
1.16226
1.16222
1.16218
1.16215
1.16213
1.16212
1.16211
1.16211
1.16212
1.16213
1.16214
1.16423
1.16412
1.16402
1.16391
1.1638
1.16369
1.16358
1.16347
1.16336
1.16326
1.16316
1.16306
1.16297
1.16288
1.1628
1.16272
1.16265
1.16259
1.16253
1.16248
1.16244
1.1624
1.16237
1.16235
1.16233
1.16232
1.16231
1.16231
1.16231
1.16233
1.16436
1.16426
1.16416
1.16406
1.16395
1.16385
1.16375
1.16365
1.16354
1.16345
1.16335
1.16326
1.16317
1.16309
1.16301
1.16293
1.16286
1.1628
1.16274
1.16269
1.16265
1.16261
1.16257
1.16255
1.16253
1.16251
1.1625
1.1625
1.1625
1.1625
1.16448
1.16439
1.16429
1.1642
1.1641
1.164
1.16391
1.16381
1.16371
1.16362
1.16353
1.16344
1.16336
1.16328
1.1632
1.16313
1.16306
1.163
1.16294
1.16289
1.16285
1.16281
1.16277
1.16274
1.16272
1.1627
1.16268
1.16268
1.16267
1.16267
1.16459
1.16451
1.16442
1.16433
1.16424
1.16415
1.16406
1.16396
1.16388
1.16379
1.1637
1.16362
1.16354
1.16346
1.16338
1.16331
1.16325
1.16319
1.16313
1.16308
1.16303
1.16299
1.16296
1.16292
1.1629
1.16288
1.16286
1.16285
1.16284
1.16284
1.1647
1.16462
1.16454
1.16445
1.16437
1.16428
1.1642
1.16411
1.16403
1.16394
1.16386
1.16378
1.1637
1.16363
1.16356
1.16349
1.16343
1.16337
1.16331
1.16326
1.16321
1.16317
1.16313
1.1631
1.16307
1.16305
1.16303
1.16301
1.163
1.16299
1.1648
1.16473
1.16465
1.16457
1.16449
1.16441
1.16433
1.16425
1.16417
1.16409
1.16401
1.16393
1.16386
1.16379
1.16372
1.16366
1.16359
1.16353
1.16348
1.16343
1.16338
1.16334
1.1633
1.16327
1.16324
1.16321
1.16319
1.16317
1.16316
1.16315
1.1649
1.16483
1.16476
1.16468
1.16461
1.16453
1.16445
1.16438
1.1643
1.16423
1.16415
1.16408
1.16401
1.16394
1.16387
1.16381
1.16375
1.16369
1.16364
1.16359
1.16354
1.1635
1.16346
1.16343
1.1634
1.16337
1.16334
1.16332
1.16331
1.16329
1.16499
1.16492
1.16486
1.16479
1.16472
1.16464
1.16457
1.1645
1.16443
1.16436
1.16429
1.16422
1.16415
1.16408
1.16402
1.16396
1.1639
1.16384
1.16379
1.16374
1.1637
1.16365
1.16361
1.16358
1.16355
1.16352
1.16349
1.16347
1.16345
1.16343
1.16508
1.16502
1.16495
1.16489
1.16482
1.16475
1.16468
1.16461
1.16455
1.16448
1.16441
1.16434
1.16428
1.16422
1.16416
1.1641
1.16404
1.16399
1.16393
1.16389
1.16384
1.1638
1.16376
1.16372
1.16369
1.16366
1.16363
1.16361
1.16359
1.16357
1.16516
1.1651
1.16504
1.16498
1.16492
1.16485
1.16479
1.16472
1.16466
1.16459
1.16453
1.16447
1.1644
1.16434
1.16428
1.16423
1.16417
1.16412
1.16407
1.16402
1.16398
1.16393
1.16389
1.16386
1.16382
1.16379
1.16376
1.16374
1.16372
1.1637
1.16524
1.16518
1.16513
1.16507
1.16501
1.16495
1.16489
1.16483
1.16476
1.1647
1.16464
1.16458
1.16452
1.16446
1.16441
1.16435
1.1643
1.16425
1.1642
1.16415
1.16411
1.16406
1.16402
1.16399
1.16395
1.16392
1.16389
1.16386
1.16384
1.16382
1.16531
1.16526
1.16521
1.16515
1.1651
1.16504
1.16498
1.16492
1.16486
1.1648
1.16475
1.16469
1.16463
1.16458
1.16452
1.16447
1.16442
1.16437
1.16432
1.16427
1.16423
1.16419
1.16415
1.16411
1.16407
1.16404
1.16401
1.16398
1.16396
1.16394
1.16538
1.16533
1.16528
1.16523
1.16518
1.16512
1.16507
1.16501
1.16496
1.1649
1.16484
1.16479
1.16473
1.16468
1.16463
1.16458
1.16453
1.16448
1.16443
1.16439
1.16434
1.1643
1.16426
1.16422
1.16419
1.16416
1.16413
1.1641
1.16407
1.16405
1.16545
1.1654
1.16536
1.16531
1.16526
1.1652
1.16515
1.1651
1.16504
1.16499
1.16494
1.16488
1.16483
1.16478
1.16473
1.16468
1.16463
1.16458
1.16454
1.16449
1.16445
1.16441
1.16437
1.16433
1.1643
1.16427
1.16423
1.16421
1.16418
1.16415
1.16551
1.16547
1.16542
1.16538
1.16533
1.16528
1.16523
1.16518
1.16513
1.16508
1.16503
1.16497
1.16492
1.16487
1.16482
1.16478
1.16473
1.16468
1.16464
1.16459
1.16455
1.16451
1.16447
1.16444
1.1644
1.16437
1.16434
1.16431
1.16428
1.16425
1.16557
1.16553
1.16549
1.16544
1.1654
1.16535
1.1653
1.16526
1.16521
1.16516
1.16511
1.16506
1.16501
1.16496
1.16491
1.16487
1.16482
1.16478
1.16473
1.16469
1.16465
1.16461
1.16457
1.16453
1.1645
1.16447
1.16443
1.1644
1.16438
1.16435
1.16563
1.16559
1.16555
1.16551
1.16546
1.16542
1.16537
1.16533
1.16528
1.16523
1.16519
1.16514
1.16509
1.16504
1.165
1.16495
1.16491
1.16486
1.16482
1.16478
1.16474
1.1647
1.16466
1.16463
1.16459
1.16456
1.16453
1.1645
1.16447
1.16444
1.16568
1.16564
1.16561
1.16557
1.16552
1.16548
1.16544
1.16539
1.16535
1.1653
1.16526
1.16521
1.16517
1.16512
1.16508
1.16503
1.16499
1.16495
1.16491
1.16487
1.16483
1.16479
1.16475
1.16471
1.16468
1.16464
1.16461
1.16458
1.16455
1.16452
1.16573
1.1657
1.16566
1.16562
1.16558
1.16554
1.1655
1.16546
1.16541
1.16537
1.16533
1.16528
1.16524
1.1652
1.16515
1.16511
1.16507
1.16503
1.16498
1.16494
1.16491
1.16487
1.16483
1.16479
1.16476
1.16473
1.16469
1.16466
1.16463
1.1646
1.16578
1.16575
1.16571
1.16567
1.16564
1.1656
1.16556
1.16552
1.16548
1.16543
1.16539
1.16535
1.16531
1.16526
1.16522
1.16518
1.16514
1.1651
1.16506
1.16502
1.16498
1.16494
1.16491
1.16487
1.16484
1.1648
1.16477
1.16474
1.16471
1.16468
1.16582
1.16579
1.16576
1.16572
1.16569
1.16565
1.16561
1.16557
1.16553
1.16549
1.16545
1.16541
1.16537
1.16533
1.16529
1.16525
1.16521
1.16517
1.16513
1.16509
1.16505
1.16502
1.16498
1.16494
1.16491
1.16488
1.16484
1.16481
1.16478
1.16475
1.16586
1.16583
1.1658
1.16577
1.16573
1.1657
1.16566
1.16562
1.16559
1.16555
1.16551
1.16547
1.16543
1.16539
1.16535
1.16531
1.16527
1.16523
1.1652
1.16516
1.16512
1.16508
1.16505
1.16501
1.16498
1.16495
1.16491
1.16488
1.16485
1.16482
1.1659
1.16587
1.16584
1.16581
1.16578
1.16574
1.16571
1.16567
1.16564
1.1656
1.16556
1.16552
1.16548
1.16545
1.16541
1.16537
1.16533
1.16529
1.16526
1.16522
1.16518
1.16515
1.16511
1.16508
1.16505
1.16501
1.16498
1.16495
1.16492
1.16489
1.16593
1.16591
1.16588
1.16585
1.16582
1.16579
1.16575
1.16572
1.16568
1.16565
1.16561
1.16557
1.16554
1.1655
1.16546
1.16543
1.16539
1.16535
1.16532
1.16528
1.16524
1.16521
1.16517
1.16514
1.16511
1.16507
1.16504
1.16501
1.16498
1.16495
1.16597
1.16594
1.16591
1.16589
1.16586
1.16583
1.16579
1.16576
1.16573
1.16569
1.16566
1.16562
1.16559
1.16555
1.16551
1.16548
1.16544
1.16541
1.16537
1.16534
1.1653
1.16527
1.16523
1.1652
1.16517
1.16513
1.1651
1.16507
1.16504
1.16501
1.166
1.16597
1.16595
1.16592
1.16589
1.16586
1.16583
1.1658
1.16577
1.16573
1.1657
1.16567
1.16563
1.1656
1.16556
1.16553
1.16549
1.16546
1.16542
1.16539
1.16535
1.16532
1.16529
1.16525
1.16522
1.16519
1.16516
1.16513
1.16509
1.16506
1.16602
1.166
1.16598
1.16595
1.16592
1.1659
1.16587
1.16584
1.16581
1.16577
1.16574
1.16571
1.16567
1.16564
1.16561
1.16557
1.16554
1.16551
1.16547
1.16544
1.16541
1.16537
1.16534
1.16531
1.16527
1.16524
1.16521
1.16518
1.16515
1.16512
1.16604
1.16603
1.166
1.16598
1.16595
1.16593
1.1659
1.16587
1.16584
1.16581
1.16578
1.16575
1.16571
1.16568
1.16565
1.16562
1.16558
1.16555
1.16552
1.16549
1.16545
1.16542
1.16539
1.16536
1.16532
1.16529
1.16526
1.16523
1.1652
1.16517
1.16607
1.16605
1.16603
1.16601
1.16598
1.16596
1.16593
1.1659
1.16587
1.16584
1.16581
1.16578
1.16575
1.16572
1.16569
1.16566
1.16563
1.16559
1.16556
1.16553
1.1655
1.16547
1.16544
1.1654
1.16537
1.16534
1.16531
1.16528
1.16525
1.16522
1.16609
1.16607
1.16605
1.16603
1.16601
1.16598
1.16596
1.16593
1.1659
1.16588
1.16585
1.16582
1.16579
1.16576
1.16573
1.1657
1.16567
1.16564
1.1656
1.16557
1.16554
1.16551
1.16548
1.16545
1.16542
1.16539
1.16536
1.16533
1.1653
1.16526
1.1661
1.16609
1.16607
1.16605
1.16603
1.16601
1.16598
1.16596
1.16593
1.16591
1.16588
1.16585
1.16582
1.16579
1.16576
1.16573
1.1657
1.16567
1.16564
1.16561
1.16558
1.16555
1.16552
1.16549
1.16546
1.16543
1.1654
1.16537
1.16534
1.16531
1.16612
1.1661
1.16609
1.16607
1.16605
1.16603
1.16601
1.16598
1.16596
1.16593
1.16591
1.16588
1.16585
1.16583
1.1658
1.16577
1.16574
1.16571
1.16568
1.16565
1.16562
1.16559
1.16556
1.16553
1.1655
1.16547
1.16544
1.16541
1.16538
1.16535
1.16613
1.16612
1.16611
1.16609
1.16607
1.16605
1.16603
1.16601
1.16598
1.16596
1.16593
1.16591
1.16588
1.16586
1.16583
1.1658
1.16577
1.16575
1.16572
1.16569
1.16566
1.16563
1.1656
1.16557
1.16555
1.16552
1.16549
1.16546
1.16543
1.1654
1.16614
1.16613
1.16612
1.16611
1.16609
1.16607
1.16605
1.16603
1.16601
1.16598
1.16596
1.16594
1.16591
1.16589
1.16586
1.16583
1.16581
1.16578
1.16575
1.16572
1.1657
1.16567
1.16564
1.16561
1.16558
1.16555
1.16553
1.1655
1.16547
1.16544
1.16615
1.16614
1.16613
1.16612
1.16611
1.16609
1.16607
1.16605
1.16603
1.16601
1.16598
1.16596
1.16594
1.16591
1.16589
1.16586
1.16584
1.16581
1.16578
1.16576
1.16573
1.1657
1.16568
1.16565
1.16562
1.16559
1.16556
1.16554
1.16551
1.16548
1.16616
1.16616
1.16615
1.16613
1.16612
1.16611
1.16609
1.16607
1.16605
1.16603
1.16601
1.16599
1.16596
1.16594
1.16592
1.16589
1.16587
1.16584
1.16582
1.16579
1.16576
1.16574
1.16571
1.16568
1.16566
1.16563
1.1656
1.16557
1.16554
1.16552
1.16617
1.16617
1.16616
1.16615
1.16614
1.16612
1.1661
1.16609
1.16607
1.16605
1.16603
1.16601
1.16599
1.16596
1.16594
1.16592
1.16589
1.16587
1.16584
1.16582
1.16579
1.16577
1.16574
1.16572
1.16569
1.16566
1.16564
1.16561
1.16558
1.16555
1.16618
1.16617
1.16617
1.16616
1.16615
1.16614
1.16612
1.1661
1.16609
1.16607
1.16605
1.16603
1.16601
1.16599
1.16597
1.16594
1.16592
1.1659
1.16587
1.16585
1.16582
1.1658
1.16577
1.16575
1.16572
1.1657
1.16567
1.16564
1.16562
1.16559
1.16618
1.16618
1.16618
1.16617
1.16616
1.16615
1.16614
1.16612
1.1661
1.16609
1.16607
1.16605
1.16603
1.16601
1.16599
1.16597
1.16594
1.16592
1.1659
1.16588
1.16585
1.16583
1.1658
1.16578
1.16575
1.16573
1.1657
1.16568
1.16565
1.16562
1.16619
1.16619
1.16619
1.16618
1.16617
1.16616
1.16615
1.16614
1.16612
1.1661
1.16609
1.16607
1.16605
1.16603
1.16601
1.16599
1.16597
1.16595
1.16592
1.1659
1.16588
1.16586
1.16583
1.16581
1.16579
1.16576
1.16574
1.16571
1.16569
1.16566
1.16619
1.1662
1.1662
1.16619
1.16618
1.16617
1.16616
1.16615
1.16614
1.16612
1.1661
1.16609
1.16607
1.16605
1.16603
1.16601
1.16599
1.16597
1.16595
1.16593
1.1659
1.16588
1.16586
1.16584
1.16581
1.16579
1.16577
1.16574
1.16572
1.16569
1.1662
1.1662
1.1662
1.1662
1.16619
1.16619
1.16618
1.16616
1.16615
1.16614
1.16612
1.1661
1.16609
1.16607
1.16605
1.16603
1.16601
1.16599
1.16597
1.16595
1.16593
1.16591
1.16589
1.16586
1.16584
1.16582
1.1658
1.16577
1.16575
1.16573
1.1662
1.16621
1.16621
1.16621
1.1662
1.1662
1.16619
1.16618
1.16616
1.16615
1.16614
1.16612
1.1661
1.16609
1.16607
1.16605
1.16603
1.16601
1.16599
1.16597
1.16595
1.16593
1.16591
1.16589
1.16587
1.16585
1.16583
1.1658
1.16578
1.16576
1.16621
1.16622
1.16622
1.16622
1.16621
1.16621
1.1662
1.16619
1.16618
1.16616
1.16615
1.16614
1.16612
1.1661
1.16609
1.16607
1.16605
1.16603
1.16601
1.166
1.16598
1.16596
1.16594
1.16592
1.1659
1.16588
1.16586
1.16583
1.16581
1.16579
1.16621
1.16622
1.16623
1.16623
1.16622
1.16622
1.16621
1.1662
1.16619
1.16618
1.16616
1.16615
1.16613
1.16612
1.1661
1.16609
1.16607
1.16605
1.16603
1.16602
1.166
1.16598
1.16596
1.16594
1.16592
1.1659
1.16588
1.16586
1.16584
1.16582
1.16622
1.16623
1.16623
1.16624
1.16623
1.16623
1.16622
1.16621
1.1662
1.16619
1.16618
1.16616
1.16615
1.16613
1.16612
1.1661
1.16609
1.16607
1.16605
1.16604
1.16602
1.166
1.16598
1.16597
1.16595
1.16593
1.16591
1.16589
1.16587
1.16585
1.16622
1.16624
1.16624
1.16624
1.16624
1.16624
1.16623
1.16622
1.16621
1.1662
1.16619
1.16618
1.16616
1.16615
1.16613
1.16612
1.1661
1.16609
1.16607
1.16606
1.16604
1.16602
1.16601
1.16599
1.16597
1.16595
1.16594
1.16592
1.1659
1.16588
1.16623
1.16624
1.16625
1.16625
1.16625
1.16625
1.16624
1.16623
1.16622
1.16621
1.1662
1.16619
1.16618
1.16616
1.16615
1.16613
1.16612
1.1661
1.16609
1.16607
1.16606
1.16604
1.16603
1.16601
1.166
1.16598
1.16596
1.16595
1.16593
1.16591
1.16623
1.16625
1.16625
1.16626
1.16626
1.16626
1.16625
1.16624
1.16623
1.16622
1.16621
1.1662
1.16619
1.16618
1.16616
1.16615
1.16614
1.16612
1.16611
1.16609
1.16608
1.16606
1.16605
1.16603
1.16602
1.166
1.16599
1.16597
1.16596
1.16594
1.16623
1.16625
1.16626
1.16627
1.16627
1.16626
1.16626
1.16625
1.16624
1.16623
1.16622
1.16621
1.1662
1.16619
1.16618
1.16616
1.16615
1.16614
1.16612
1.16611
1.1661
1.16608
1.16607
1.16605
1.16604
1.16603
1.16601
1.166
1.16598
1.16597
1.16624
1.16626
1.16627
1.16627
1.16627
1.16627
1.16627
1.16626
1.16625
1.16624
1.16623
1.16622
1.16621
1.1662
1.16619
1.16618
1.16616
1.16615
1.16614
1.16613
1.16611
1.1661
1.16609
1.16608
1.16606
1.16605
1.16604
1.16602
1.16601
1.166
1.16624
1.16626
1.16627
1.16628
1.16628
1.16628
1.16627
1.16627
1.16626
1.16625
1.16624
1.16623
1.16622
1.16621
1.1662
1.16619
1.16618
1.16617
1.16615
1.16614
1.16613
1.16612
1.16611
1.1661
1.16608
1.16607
1.16606
1.16605
1.16604
1.16602
1.16625
1.16627
1.16628
1.16629
1.16629
1.16629
1.16628
1.16628
1.16627
1.16626
1.16625
1.16624
1.16623
1.16622
1.16621
1.1662
1.16619
1.16618
1.16617
1.16616
1.16615
1.16614
1.16613
1.16611
1.1661
1.16609
1.16608
1.16607
1.16606
1.16605
1.16625
1.16627
1.16629
1.16629
1.16629
1.16629
1.16629
1.16628
1.16628
1.16627
1.16626
1.16625
1.16624
1.16623
1.16622
1.16621
1.1662
1.16619
1.16618
1.16617
1.16616
1.16615
1.16614
1.16613
1.16612
1.16611
1.1661
1.16609
1.16608
1.16608
1.16625
1.16628
1.16629
1.1663
1.1663
1.1663
1.1663
1.16629
1.16628
1.16628
1.16627
1.16626
1.16625
1.16624
1.16623
1.16623
1.16622
1.16621
1.1662
1.16619
1.16618
1.16617
1.16616
1.16615
1.16614
1.16613
1.16612
1.16612
1.16611
1.1661
1.16626
1.16628
1.1663
1.16631
1.16631
1.16631
1.1663
1.1663
1.16629
1.16629
1.16628
1.16627
1.16626
1.16625
1.16625
1.16624
1.16623
1.16622
1.16621
1.1662
1.16619
1.16618
1.16618
1.16617
1.16616
1.16615
1.16614
1.16614
1.16613
1.16612
1.16626
1.16629
1.1663
1.16631
1.16631
1.16631
1.16631
1.1663
1.1663
1.16629
1.16629
1.16628
1.16627
1.16626
1.16626
1.16625
1.16624
1.16623
1.16622
1.16622
1.16621
1.1662
1.16619
1.16618
1.16618
1.16617
1.16616
1.16616
1.16615
1.16614
1.16627
1.16629
1.16631
1.16632
1.16632
1.16632
1.16632
1.16631
1.16631
1.1663
1.16629
1.16629
1.16628
1.16627
1.16627
1.16626
1.16625
1.16624
1.16624
1.16623
1.16622
1.16621
1.16621
1.1662
1.16619
1.16619
1.16618
1.16617
1.16617
1.16616
1.16627
1.1663
1.16631
1.16632
1.16632
1.16632
1.16632
1.16632
1.16631
1.16631
1.1663
1.16629
1.16629
1.16628
1.16627
1.16627
1.16626
1.16625
1.16625
1.16624
1.16623
1.16623
1.16622
1.16622
1.16621
1.1662
1.1662
1.16619
1.16619
1.16618
1.16627
1.1663
1.16632
1.16633
1.16633
1.16633
1.16633
1.16632
1.16632
1.16631
1.16631
1.1663
1.1663
1.16629
1.16628
1.16628
1.16627
1.16626
1.16626
1.16625
1.16625
1.16624
1.16623
1.16623
1.16622
1.16622
1.16621
1.16621
1.1662
1.1662
1.16628
1.16631
1.16632
1.16633
1.16634
1.16633
1.16633
1.16633
1.16632
1.16632
1.16631
1.16631
1.1663
1.1663
1.16629
1.16629
1.16628
1.16627
1.16627
1.16626
1.16626
1.16625
1.16625
1.16624
1.16624
1.16623
1.16623
1.16623
1.16622
1.16622
1.16628
1.16631
1.16633
1.16634
1.16634
1.16634
1.16634
1.16633
1.16633
1.16633
1.16632
1.16632
1.16631
1.16631
1.1663
1.1663
1.16629
1.16628
1.16628
1.16627
1.16627
1.16627
1.16626
1.16626
1.16625
1.16625
1.16624
1.16624
1.16624
1.16623
1.16629
1.16632
1.16633
1.16634
1.16634
1.16634
1.16634
1.16634
1.16634
1.16633
1.16633
1.16632
1.16632
1.16631
1.16631
1.1663
1.1663
1.16629
1.16629
1.16629
1.16628
1.16628
1.16627
1.16627
1.16626
1.16626
1.16626
1.16625
1.16625
1.16625
1.16629
1.16632
1.16634
1.16635
1.16635
1.16635
1.16635
1.16634
1.16634
1.16634
1.16633
1.16633
1.16632
1.16632
1.16632
1.16631
1.16631
1.1663
1.1663
1.1663
1.16629
1.16629
1.16628
1.16628
1.16628
1.16627
1.16627
1.16627
1.16627
1.16626
1.1663
1.16633
1.16634
1.16635
1.16635
1.16635
1.16635
1.16635
1.16635
1.16634
1.16634
1.16633
1.16633
1.16633
1.16632
1.16632
1.16632
1.16631
1.16631
1.1663
1.1663
1.1663
1.16629
1.16629
1.16629
1.16629
1.16628
1.16628
1.16628
1.16628
1.1663
1.16633
1.16635
1.16635
1.16636
1.16636
1.16636
1.16635
1.16635
1.16635
1.16634
1.16634
1.16634
1.16633
1.16633
1.16633
1.16632
1.16632
1.16632
1.16631
1.16631
1.16631
1.1663
1.1663
1.1663
1.1663
1.16629
1.16629
1.16629
1.16629
1.1663
1.16633
1.16635
1.16636
1.16636
1.16636
1.16636
1.16636
1.16636
1.16635
1.16635
1.16635
1.16634
1.16634
1.16634
1.16633
1.16633
1.16633
1.16633
1.16632
1.16632
1.16632
1.16631
1.16631
1.16631
1.16631
1.16631
1.1663
1.1663
1.1663
1.16631
1.16634
1.16636
1.16636
1.16636
1.16636
1.16636
1.16636
1.16636
1.16636
1.16635
1.16635
1.16635
1.16635
1.16634
1.16634
1.16634
1.16634
1.16633
1.16633
1.16633
1.16633
1.16632
1.16632
1.16632
1.16632
1.16632
1.16632
1.16631
1.16631
1.16631
1.16634
1.16636
1.16637
1.16637
1.16637
1.16637
1.16637
1.16636
1.16636
1.16636
1.16636
1.16636
1.16635
1.16635
1.16635
1.16635
1.16634
1.16634
1.16634
1.16634
1.16633
1.16633
1.16633
1.16633
1.16633
1.16633
1.16632
1.16632
1.16632
1.16632
1.16635
1.16636
1.16637
1.16637
1.16637
1.16637
1.16637
1.16637
1.16637
1.16636
1.16636
1.16636
1.16636
1.16636
1.16635
1.16635
1.16635
1.16635
1.16635
1.16635
1.16634
1.16634
1.16634
1.16634
1.16634
1.16634
1.16634
1.16633
1.16633
1.16632
1.16635
1.16637
1.16637
1.16637
1.16638
1.16637
1.16637
1.16637
1.16637
1.16637
1.16637
1.16637
1.16636
1.16636
1.16636
1.16636
1.16636
1.16636
1.16635
1.16635
1.16635
1.16635
1.16635
1.16635
1.16634
1.16634
1.16634
1.16634
1.16634
1.16632
1.16635
1.16637
1.16638
1.16638
1.16638
1.16638
1.16638
1.16638
1.16638
1.16637
1.16637
1.16637
1.16637
1.16637
1.16637
1.16637
1.16636
1.16636
1.16636
1.16636
1.16636
1.16636
1.16636
1.16636
1.16636
1.16636
1.16636
1.16636
1.16636
1.16633
1.16636
1.16637
1.16638
1.16638
1.16638
1.16638
1.16638
1.16638
1.16638
1.16638
1.16638
1.16638
1.16637
1.16637
1.16637
1.16637
1.16637
1.16637
1.16637
1.16637
1.16637
1.16636
1.16636
1.16636
1.16636
1.16636
1.16636
1.16636
1.16635
1.16633
1.16636
1.16638
1.16638
1.16638
1.16638
1.16638
1.16638
1.16638
1.16638
1.16638
1.16638
1.16638
1.16638
1.16638
1.16638
1.16638
1.16638
1.16638
1.16638
1.16638
1.16638
1.16638
1.16638
1.16638
1.16638
1.16638
1.16638
1.16638
1.16638
1.16634
1.16636
1.16638
1.16638
1.16639
1.16639
1.16639
1.16639
1.16639
1.16639
1.16639
1.16639
1.16639
1.16639
1.16638
1.16638
1.16638
1.16638
1.16638
1.16638
1.16638
1.16638
1.16638
1.16638
1.16638
1.16637
1.16637
1.16637
1.16637
1.16636
1.16634
1.16637
1.16638
1.16639
1.16639
1.16639
1.16639
1.16639
1.16639
1.16639
1.16639
1.16639
1.16639
1.16639
1.16639
1.16639
1.16639
1.16639
1.16639
1.16639
1.16639
1.16639
1.16639
1.16639
1.16639
1.16639
1.1664
1.1664
1.16641
1.16641
1.16635
1.16637
1.16639
1.16639
1.16639
1.16639
1.16639
1.16639
1.16639
1.16639
1.16639
1.16639
1.16639
1.16639
1.16639
1.16639
1.16639
1.16639
1.16639
1.16639
1.16638
1.16638
1.16638
1.16638
1.16638
1.16638
1.16638
1.16638
1.16638
1.16638
1.15573
1.15688
1.15797
1.15868
1.15925
1.15973
1.16015
1.16053
1.16087
1.16118
1.16147
1.16173
1.16197
1.1622
1.16242
1.16262
1.16281
1.16299
1.16316
1.16333
1.16349
1.16366
1.16379
1.16398
1.16442
1.15689
1.15742
1.15849
1.15911
1.15967
1.16009
1.16047
1.16081
1.16111
1.16139
1.16165
1.16189
1.16211
1.16232
1.16252
1.16271
1.16289
1.16306
1.16322
1.16338
1.16354
1.1637
1.16383
1.16401
1.16443
1.15714
1.15784
1.1587
1.15931
1.15983
1.16025
1.16062
1.16095
1.16124
1.16151
1.16176
1.16199
1.1622
1.16241
1.1626
1.16278
1.16295
1.16312
1.16328
1.16343
1.16358
1.16374
1.16386
1.16403
1.16442
1.15753
1.15813
1.15885
1.15942
1.15991
1.16032
1.16069
1.16101
1.1613
1.16157
1.16182
1.16204
1.16225
1.16245
1.16264
1.16282
1.16299
1.16315
1.16331
1.16346
1.16361
1.16375
1.16387
1.16403
1.16441
1.1579
1.1584
1.159
1.15951
1.15997
1.16037
1.16073
1.16105
1.16134
1.16161
1.16185
1.16207
1.16228
1.16248
1.16267
1.16284
1.16301
1.16317
1.16332
1.16347
1.16362
1.16376
1.16387
1.16402
1.1644
1.15825
1.15866
1.15915
1.15961
1.16004
1.16042
1.16077
1.16108
1.16137
1.16163
1.16187
1.16209
1.1623
1.1625
1.16268
1.16286
1.16302
1.16318
1.16333
1.16348
1.16362
1.16376
1.16387
1.16402
1.16438
1.15857
1.15891
1.15932
1.15973
1.16012
1.16048
1.16081
1.16111
1.16139
1.16165
1.16189
1.16211
1.16232
1.16251
1.16269
1.16287
1.16303
1.16319
1.16334
1.16348
1.16362
1.16376
1.16387
1.16402
1.16437
1.15886
1.15915
1.15949
1.15985
1.1602
1.16054
1.16085
1.16114
1.16142
1.16167
1.1619
1.16212
1.16233
1.16252
1.1627
1.16287
1.16304
1.16319
1.16334
1.16348
1.16362
1.16376
1.16387
1.16402
1.16436
1.15914
1.15938
1.15967
1.15998
1.16029
1.1606
1.1609
1.16118
1.16144
1.16169
1.16192
1.16213
1.16234
1.16253
1.16271
1.16288
1.16304
1.16319
1.16334
1.16348
1.16362
1.16376
1.16387
1.16402
1.16435
1.15941
1.1596
1.15984
1.16011
1.1604
1.16068
1.16095
1.16122
1.16147
1.16171
1.16194
1.16215
1.16235
1.16254
1.16271
1.16288
1.16304
1.1632
1.16334
1.16348
1.16362
1.16376
1.16387
1.16402
1.16433
1.15966
1.15982
1.16003
1.16026
1.16051
1.16076
1.16102
1.16127
1.16151
1.16174
1.16196
1.16216
1.16236
1.16254
1.16272
1.16289
1.16305
1.1632
1.16335
1.16348
1.16362
1.16376
1.16387
1.16402
1.16432
1.1599
1.16004
1.16021
1.16041
1.16063
1.16086
1.16109
1.16132
1.16155
1.16177
1.16198
1.16218
1.16237
1.16256
1.16273
1.16289
1.16305
1.1632
1.16335
1.16349
1.16363
1.16376
1.16387
1.16402
1.1643
1.16013
1.16025
1.16039
1.16057
1.16076
1.16096
1.16117
1.16138
1.1616
1.16181
1.16201
1.1622
1.16239
1.16257
1.16274
1.1629
1.16306
1.16321
1.16335
1.16349
1.16363
1.16376
1.16387
1.16402
1.16428
1.16035
1.16046
1.16058
1.16073
1.16089
1.16107
1.16126
1.16145
1.16165
1.16185
1.16204
1.16223
1.16241
1.16258
1.16275
1.16291
1.16307
1.16321
1.16336
1.16349
1.16363
1.16376
1.16387
1.16402
1.16427
1.16057
1.16066
1.16076
1.16089
1.16103
1.16119
1.16136
1.16153
1.16172
1.1619
1.16208
1.16226
1.16243
1.1626
1.16277
1.16292
1.16307
1.16322
1.16336
1.1635
1.16363
1.16376
1.16388
1.16402
1.16425
1.16079
1.16086
1.16095
1.16105
1.16118
1.16131
1.16146
1.16162
1.16179
1.16195
1.16212
1.16229
1.16246
1.16262
1.16278
1.16294
1.16308
1.16323
1.16337
1.1635
1.16364
1.16377
1.16388
1.16401
1.16423
1.161
1.16106
1.16113
1.16122
1.16133
1.16144
1.16157
1.16171
1.16186
1.16202
1.16218
1.16234
1.16249
1.16265
1.1628
1.16295
1.1631
1.16324
1.16338
1.16351
1.16364
1.16377
1.16388
1.16401
1.16421
1.16121
1.16125
1.16132
1.16139
1.16148
1.16158
1.16169
1.16182
1.16195
1.16209
1.16223
1.16238
1.16253
1.16268
1.16283
1.16297
1.16311
1.16325
1.16338
1.16352
1.16364
1.16377
1.16388
1.16401
1.16419
1.16141
1.16145
1.1615
1.16156
1.16163
1.16172
1.16181
1.16192
1.16204
1.16217
1.1623
1.16244
1.16258
1.16272
1.16286
1.16299
1.16313
1.16326
1.1634
1.16352
1.16365
1.16377
1.16388
1.16401
1.16418
1.1616
1.16164
1.16168
1.16173
1.16179
1.16186
1.16194
1.16204
1.16214
1.16225
1.16237
1.1625
1.16262
1.16276
1.16289
1.16302
1.16315
1.16328
1.16341
1.16353
1.16366
1.16378
1.16389
1.16401
1.16416
1.16179
1.16182
1.16185
1.1619
1.16195
1.16201
1.16208
1.16215
1.16224
1.16234
1.16245
1.16256
1.16268
1.1628
1.16293
1.16305
1.16318
1.1633
1.16342
1.16355
1.16367
1.16378
1.16389
1.16401
1.16414
1.16198
1.162
1.16203
1.16206
1.1621
1.16215
1.16221
1.16228
1.16235
1.16244
1.16253
1.16263
1.16274
1.16285
1.16297
1.16309
1.16321
1.16332
1.16344
1.16356
1.16368
1.16379
1.16389
1.16401
1.16413
1.16216
1.16218
1.1622
1.16223
1.16226
1.1623
1.16235
1.1624
1.16247
1.16254
1.16262
1.16271
1.16281
1.16291
1.16302
1.16313
1.16324
1.16335
1.16346
1.16358
1.16369
1.1638
1.1639
1.16401
1.16412
1.16234
1.16235
1.16237
1.16239
1.16241
1.16245
1.16249
1.16253
1.16259
1.16265
1.16272
1.1628
1.16288
1.16297
1.16307
1.16317
1.16327
1.16338
1.16349
1.1636
1.1637
1.16381
1.1639
1.16401
1.16411
1.16251
1.16252
1.16253
1.16255
1.16257
1.16259
1.16262
1.16266
1.16271
1.16276
1.16282
1.16289
1.16296
1.16304
1.16313
1.16322
1.16332
1.16342
1.16352
1.16362
1.16372
1.16382
1.16391
1.16401
1.1641
1.16268
1.16268
1.16269
1.1627
1.16272
1.16274
1.16276
1.16279
1.16283
1.16287
1.16292
1.16298
1.16304
1.16312
1.16319
1.16328
1.16336
1.16345
1.16355
1.16364
1.16374
1.16383
1.16392
1.16402
1.1641
1.16284
1.16284
1.16285
1.16286
1.16287
1.16288
1.1629
1.16292
1.16295
1.16299
1.16303
1.16308
1.16313
1.16319
1.16326
1.16334
1.16341
1.1635
1.16358
1.16367
1.16376
1.16385
1.16394
1.16403
1.1641
1.163
1.163
1.163
1.16301
1.16301
1.16302
1.16304
1.16306
1.16308
1.16311
1.16314
1.16318
1.16323
1.16328
1.16334
1.1634
1.16347
1.16355
1.16362
1.16371
1.16379
1.16387
1.16395
1.16403
1.1641
1.16315
1.16315
1.16315
1.16315
1.16315
1.16316
1.16317
1.16318
1.1632
1.16322
1.16325
1.16328
1.16332