/*--------------------------------*- C++ -*----------------------------------*\
  =========                 |
  \\      /  F ield         | OpenFOAM: The Open Source CFD Toolbox
   \\    /   O peration     | Website:  https://openfoam.org
    \\  /    A nd           | Version:  10
     \\/     M anipulation  |
\*---------------------------------------------------------------------------*/
FoamFile
{
    format      ascii;
    class       volScalarField;
    location    "0.002";
    object      T;
}
// * * * * * * * * * * * * * * * * * * * * * * * * * * * * * * * * * * * * * //

dimensions      [0 0 0 1 0 0 0];

internalField   nonuniform List<scalar> 
8922
(
295.611
295.582
295.561
295.549
295.547
295.557
295.58
295.616
295.665
295.728
295.805
295.895
295.997
296.109
296.228
296.353
296.479
296.604
296.725
296.837
296.938
297.027
297.106
297.177
297.23
297.279
297.331
297.387
297.35
297.122
295.982
295.991
296.009
296.036
296.073
296.12
296.177
296.242
296.316
296.395
296.479
296.564
296.649
296.731
296.807
296.876
296.936
296.987
297.031
297.068
297.102
297.135
297.167
297.202
297.239
297.276
297.316
297.347
297.289
297.136
296.415
296.45
296.492
296.54
296.594
296.651
296.711
296.771
296.83
296.886
296.937
296.982
297.02
297.051
297.075
297.093
297.107
297.118
297.129
297.141
297.155
297.173
297.196
297.223
297.253
297.283
297.316
297.335
297.286
297.205
296.836
296.879
296.924
296.969
297.013
297.055
297.091
297.123
297.149
297.168
297.181
297.188
297.19
297.189
297.186
297.182
297.179
297.178
297.179
297.184
297.193
297.208
297.227
297.249
297.274
297.299
297.325
297.34
297.302
297.263
297.184
297.218
297.248
297.274
297.294
297.309
297.317
297.32
297.317
297.31
297.299
297.286
297.272
297.258
297.245
297.235
297.227
297.222
297.22
297.223
297.231
297.242
297.258
297.278
297.298
297.319
297.34
297.348
297.327
297.311
297.433
297.448
297.458
297.461
297.459
297.452
297.44
297.424
297.405
297.385
297.364
297.343
297.324
297.306
297.291
297.278
297.269
297.263
297.261
297.262
297.268
297.278
297.291
297.307
297.324
297.341
297.357
297.364
297.355
297.351
297.593
297.59
297.582
297.569
297.552
297.531
297.508
297.484
297.459
297.434
297.41
297.387
297.366
297.348
297.332
297.319
297.309
297.303
297.3
297.301
297.305
297.313
297.323
297.336
297.35
297.365
297.378
297.384
297.383
297.387
297.69
297.674
297.655
297.632
297.608
297.581
297.554
297.527
297.5
297.474
297.449
297.427
297.406
297.388
297.372
297.359
297.349
297.342
297.339
297.338
297.341
297.347
297.356
297.366
297.378
297.39
297.401
297.408
297.411
297.419
297.748
297.726
297.701
297.674
297.646
297.618
297.59
297.562
297.536
297.51
297.486
297.464
297.444
297.426
297.411
297.398
297.388
297.381
297.377
297.375
297.377
297.381
297.388
297.396
297.406
297.416
297.426
297.433
297.439
297.449
297.786
297.76
297.734
297.706
297.678
297.65
297.622
297.595
297.569
297.545
297.522
297.5
297.481
297.463
297.448
297.436
297.426
297.418
297.414
297.411
297.412
297.415
297.42
297.426
297.434
297.443
297.451
297.459
297.466
297.477
297.814
297.788
297.761
297.733
297.706
297.679
297.652
297.626
297.601
297.578
297.556
297.535
297.516
297.5
297.485
297.472
297.462
297.455
297.449
297.446
297.446
297.447
297.451
297.456
297.462
297.47
297.477
297.485
297.493
297.503
297.837
297.811
297.785
297.758
297.732
297.706
297.681
297.656
297.632
297.61
297.588
297.569
297.551
297.534
297.52
297.508
297.497
297.489
297.484
297.48
297.479
297.479
297.482
297.485
297.49
297.496
297.503
297.51
297.518
297.528
297.857
297.832
297.807
297.782
297.757
297.732
297.708
297.684
297.662
297.64
297.62
297.601
297.583
297.568
297.554
297.542
297.531
297.523
297.517
297.513
297.511
297.51
297.511
297.514
297.518
297.523
297.529
297.535
297.543
297.552
297.876
297.852
297.828
297.804
297.78
297.757
297.734
297.711
297.69
297.669
297.65
297.632
297.615
297.6
297.586
297.574
297.564
297.555
297.549
297.544
297.541
297.54
297.54
297.542
297.545
297.549
297.554
297.56
297.567
297.575
297.893
297.87
297.848
297.825
297.802
297.78
297.758
297.737
297.717
297.697
297.678
297.661
297.645
297.63
297.617
297.605
297.595
297.586
297.579
297.574
297.571
297.569
297.568
297.569
297.571
297.575
297.579
297.584
297.59
297.598
297.909
297.888
297.866
297.845
297.823
297.802
297.782
297.761
297.742
297.723
297.705
297.689
297.673
297.659
297.646
297.634
297.624
297.616
297.609
297.603
297.599
297.597
297.595
297.596
297.597
297.599
297.603
297.607
297.613
297.619
297.924
297.904
297.884
297.863
297.843
297.823
297.803
297.784
297.766
297.748
297.731
297.715
297.7
297.686
297.673
297.662
297.652
297.644
297.636
297.631
297.626
297.623
297.621
297.621
297.621
297.623
297.626
297.63
297.634
297.64
297.938
297.919
297.9
297.881
297.861
297.843
297.824
297.806
297.788
297.771
297.755
297.74
297.725
297.712
297.7
297.689
297.679
297.67
297.663
297.657
297.652
297.649
297.646
297.645
297.645
297.646
297.648
297.651
297.655
297.66
297.951
297.933
297.915
297.897
297.879
297.861
297.843
297.826
297.809
297.793
297.777
297.763
297.749
297.736
297.724
297.713
297.704
297.695
297.688
297.682
297.677
297.673
297.67
297.668
297.668
297.668
297.669
297.672
297.675
297.679
297.963
297.946
297.929
297.912
297.895
297.878
297.861
297.845
297.829
297.813
297.799
297.785
297.771
297.759
297.747
297.737
297.727
297.719
297.711
297.705
297.7
297.696
297.692
297.69
297.689
297.689
297.69
297.692
297.694
297.697
297.974
297.958
297.942
297.926
297.91
297.894
297.878
297.862
297.847
297.832
297.818
297.805
297.792
297.78
297.769
297.759
297.749
297.741
297.733
297.727
297.722
297.717
297.714
297.711
297.71
297.709
297.709
297.71
297.712
297.715
297.985
297.97
297.954
297.939
297.924
297.908
297.893
297.879
297.864
297.85
297.837
297.824
297.812
297.8
297.789
297.779
297.77
297.762
297.754
297.748
297.742
297.738
297.734
297.731
297.729
297.728
297.728
297.728
297.729
297.731
297.994
297.98
297.966
297.951
297.936
297.922
297.908
297.894
297.88
297.867
297.854
297.841
297.83
297.818
297.808
297.798
297.789
297.781
297.774
297.767
297.762
297.757
297.753
297.75
297.747
297.746
297.745
297.745
297.746
297.747
298.003
297.99
297.976
297.962
297.948
297.935
297.921
297.908
297.895
297.882
297.87
297.858
297.846
297.836
297.825
297.816
297.807
297.799
297.792
297.785
297.78
297.775
297.77
297.767
297.764
297.763
297.762
297.761
297.761
297.762
298.011
297.998
297.985
297.972
297.959
297.946
297.933
297.921
297.908
297.896
297.884
297.873
297.862
297.851
297.842
297.832
297.824
297.816
297.809
297.802
297.796
297.791
297.787
297.783
297.781
297.778
297.777
297.776
297.776
297.777
298.019
298.007
297.994
297.982
297.969
297.957
297.944
297.932
297.92
297.909
297.897
297.887
297.876
297.866
297.856
297.848
297.839
297.831
297.824
297.818
297.812
297.807
297.802
297.799
297.796
297.793
297.791
297.79
297.79
297.79
298.026
298.014
298.002
297.99
297.978
297.967
297.955
297.943
297.932
297.921
297.91
297.899
297.889
297.879
297.87
297.861
297.853
297.846
297.839
297.832
297.826
297.821
297.817
297.813
297.809
297.807
297.805
297.803
297.803
297.802
298.032
298.021
298.01
297.998
297.987
297.975
297.964
297.953
297.942
297.931
297.921
297.911
297.901
297.892
297.883
297.874
297.866
297.859
297.852
297.846
297.84
297.835
297.83
297.826
297.822
297.82
297.817
297.816
297.815
297.814
298.038
298.027
298.016
298.005
297.994
297.984
297.973
297.962
297.952
297.941
297.931
297.921
297.912
297.903
297.894
297.886
297.878
297.871
297.864
297.858
297.852
297.847
297.842
297.838
297.834
297.831
297.829
297.827
297.826
297.825
298.043
298.033
298.022
298.012
298.001
297.991
297.98
297.97
297.96
297.95
297.941
297.931
297.922
297.913
297.905
297.897
297.889
297.882
297.875
297.869
297.863
297.858
297.853
297.849
297.845
297.842
297.84
297.838
297.836
297.835
298.048
298.038
298.028
298.018
298.008
297.998
297.988
297.978
297.968
297.958
297.949
297.94
297.931
297.923
297.914
297.907
297.899
297.892
297.885
297.879
297.874
297.868
297.864
297.859
297.856
297.852
297.85
297.847
297.846
297.844
298.052
298.042
298.033
298.023
298.013
298.003
297.994
297.984
297.975
297.966
297.957
297.948
297.939
297.931
297.923
297.915
297.908
297.901
297.895
297.889
297.883
297.878
297.873
297.869
297.865
297.862
297.859
297.856
297.854
297.853
298.056
298.047
298.037
298.028
298.018
298.009
297.999
297.99
297.981
297.972
297.963
297.955
297.947
297.939
297.931
297.923
297.916
297.91
297.903
297.897
297.892
297.887
297.882
297.877
297.874
297.87
297.867
297.865
297.862
297.861
298.06
298.05
298.041
298.032
298.023
298.014
298.005
297.996
297.987
297.978
297.97
297.961
297.953
297.945
297.938
297.931
297.924
297.917
297.911
297.905
297.9
297.894
297.89
297.885
297.881
297.878
297.875
297.872
297.87
297.868
298.063
298.054
298.045
298.036
298.027
298.018
298.009
298
297.992
297.983
297.975
297.967
297.959
297.952
297.944
297.937
297.931
297.924
297.918
297.912
297.907
297.902
297.897
297.893
297.889
297.885
297.882
297.879
297.877
297.875
298.065
298.057
298.048
298.039
298.03
298.022
298.013
298.005
297.996
297.988
297.98
297.972
297.965
297.957
297.95
297.943
297.937
297.93
297.924
297.919
297.913
297.908
297.903
297.899
297.895
297.892
297.888
297.885
297.883
297.881
298.068
298.059
298.05
298.042
298.033
298.025
298.016
298.008
298
297.992
297.984
297.977
297.969
297.962
297.955
297.949
297.942
297.936
297.93
297.924
297.919
297.914
297.909
297.905
297.901
297.897
297.894
297.891
297.889
297.886
298.07
298.061
298.053
298.044
298.036
298.028
298.02
298.011
298.004
297.996
297.988
297.981
297.974
297.967
297.96
297.953
297.947
297.941
297.935
297.93
297.924
297.92
297.915
297.911
297.907
297.903
297.9
297.897
297.894
297.892
298.072
298.063
298.055
298.046
298.038
298.03
298.022
298.014
298.007
297.999
297.992
297.984
297.977
297.971
297.964
297.958
297.951
297.946
297.94
297.934
297.929
297.924
297.92
297.916
297.912
297.908
297.905
297.901
297.899
297.896
298.073
298.065
298.056
298.048
298.04
298.032
298.024
298.017
298.009
298.002
297.995
297.988
297.981
297.974
297.968
297.961
297.955
297.95
297.944
297.939
297.934
297.929
297.924
297.92
297.916
297.912
297.909
297.906
297.903
297.901
298.074
298.066
298.058
298.05
298.042
298.034
298.026
298.019
298.011
298.004
297.997
297.99
297.984
297.977
297.971
297.965
297.959
297.953
297.948
297.943
297.938
297.933
297.929
297.924
297.92
297.917
297.913
297.91
297.907
297.905
298.075
298.067
298.059
298.051
298.043
298.035
298.028
298.02
298.013
298.006
297.999
297.993
297.986
297.98
297.974
297.968
297.962
297.957
297.951
297.946
297.941
297.937
297.932
297.928
297.924
297.92
297.917
297.914
297.911
297.908
298.075
298.067
298.059
298.052
298.044
298.036
298.029
298.022
298.015
298.008
298.001
297.995
297.988
297.982
297.976
297.971
297.965
297.96
297.954
297.949
297.944
297.94
297.936
297.931
297.927
297.924
297.92
297.917
297.914
297.911
298.076
298.068
298.06
298.052
298.045
298.037
298.03
298.023
298.016
298.009
298.003
297.997
297.99
297.984
297.979
297.973
297.967
297.962
297.957
297.952
297.947
297.943
297.939
297.934
297.93
297.927
297.923
297.92
297.917
297.914
298.076
298.068
298.06
298.052
298.045
298.038
298.031
298.024
298.017
298.011
298.004
297.998
297.992
297.986
297.98
297.975
297.97
297.964
297.959
297.955
297.95
297.945
297.941
297.937
297.933
297.93
297.926
297.923
297.92
297.917
298.076
298.068
298.06
298.052
298.045
298.038
298.031
298.024
298.018
298.011
298.005
297.999
297.993
297.988
297.982
297.977
297.971
297.966
297.961
297.957
297.952
297.948
297.944
297.939
297.936
297.932
297.929
297.925
297.922
297.919
298.075
298.067
298.06
298.052
298.045
298.038
298.031
298.025
298.018
298.012
298.006
298
297.994
297.989
297.983
297.978
297.973
297.968
297.963
297.959
297.954
297.95
297.946
297.942
297.938
297.934
297.931
297.927
297.924
297.921
298.075
298.067
298.059
298.052
298.045
298.038
298.031
298.025
298.019
298.013
298.007
298.001
297.995
297.99
297.984
297.979
297.974
297.969
297.965
297.96
297.956
297.952
297.947
297.943
297.94
297.936
297.933
297.929
297.926
297.923
298.074
298.066
298.059
298.051
298.044
298.038
298.031
298.025
298.019
298.013
298.007
298.001
297.996
297.991
297.985
297.98
297.975
297.971
297.966
297.962
297.957
297.953
297.949
297.945
297.941
297.938
297.934
297.931
297.928
297.925
298.073
298.065
298.058
298.051
298.044
298.037
298.031
298.025
298.019
298.013
298.007
298.002
297.996
297.991
297.986
297.981
297.976
297.972
297.967
297.963
297.958
297.954
297.95
297.947
297.943
297.939
297.936
297.933
297.929
297.926
298.072
298.064
298.057
298.05
298.043
298.037
298.03
298.024
298.018
298.013
298.007
298.002
297.997
297.991
297.987
297.982
297.977
297.972
297.968
297.964
297.96
297.956
297.952
297.948
297.944
297.941
297.937
297.934
297.931
297.928
298.071
298.063
298.056
298.049
298.042
298.036
298.03
298.024
298.018
298.012
298.007
298.002
297.997
297.992
297.987
297.982
297.978
297.973
297.969
297.965
297.96
297.956
297.953
297.949
297.945
297.942
297.938
297.935
297.932
297.929
298.069
298.062
298.054
298.048
298.041
298.035
298.029
298.023
298.017
298.012
298.007
298.002
297.997
297.992
297.987
297.982
297.978
297.974
297.969
297.965
297.961
297.957
297.953
297.95
297.946
297.943
297.939
297.936
297.933
297.93
298.068
298.06
298.053
298.046
298.04
298.034
298.028
298.022
298.017
298.011
298.006
298.001
297.996
297.992
297.987
297.983
297.978
297.974
297.97
297.966
297.962
297.958
297.954
297.951
297.947
297.944
297.94
297.937
297.934
297.931
298.066
298.059
298.052
298.045
298.039
298.033
298.027
298.021
298.016
298.011
298.006
298.001
297.996
297.991
297.987
297.983
297.978
297.974
297.97
297.966
297.962
297.958
297.955
297.951
297.948
297.944
297.941
297.938
297.935
297.932
298.064
298.057
298.05
298.043
298.037
298.031
298.026
298.02
298.015
298.01
298.005
298
297.996
297.991
297.987
297.982
297.978
297.974
297.97
297.966
297.963
297.959
297.955
297.952
297.948
297.945
297.942
297.939
297.936
297.933
298.063
298.055
298.048
298.042
298.036
298.03
298.024
298.019
298.014
298.009
298.004
298
297.995
297.991
297.986
297.982
297.978
297.974
297.97
297.967
297.963
297.959
297.956
297.952
297.949
297.946
297.943
297.939
297.936
297.933
298.061
298.054
298.047
298.04
298.034
298.028
298.023
298.018
298.013
298.008
298.003
297.999
297.994
297.99
297.986
297.982
297.978
297.974
297.971
297.967
297.963
297.96
297.956
297.953
297.95
297.947
297.943
297.94
297.937
297.934
298.059
298.052
298.045
298.039
298.033
298.027
298.022
298.017
298.012
298.007
298.002
297.998
297.994
297.99
297.986
297.982
297.978
297.974
297.971
297.967
297.964
297.96
297.957
297.954
297.95
297.947
297.944
297.941
297.938
297.935
298.057
298.05
298.043
298.037
298.031
298.025
298.02
298.015
298.011
298.006
298.002
297.997
297.993
297.989
297.985
297.981
297.978
297.974
297.971
297.967
297.964
297.961
297.957
297.954
297.951
297.948
297.945
297.942
297.939
297.936
298.056
298.048
298.041
298.035
298.029
298.024
298.019
298.014
298.009
298.005
298.001
297.996
297.992
297.989
297.985
297.981
297.978
297.974
297.971
297.968
297.964
297.961
297.958
297.955
297.952
297.949
297.946
297.943
297.94
297.937
298.054
298.046
298.04
298.033
298.028
298.022
298.017
298.013
298.008
298.004
298
297.996
297.992
297.988
297.985
297.981
297.978
297.974
297.971
297.968
297.965
297.962
297.959
297.956
297.953
297.95
297.947
297.944
297.942
297.939
298.052
298.044
298.038
298.032
298.026
298.021
298.016
298.011
298.007
298.003
297.999
297.995
297.991
297.988
297.984
297.981
297.978
297.974
297.971
297.968
297.965
297.962
297.96
297.957
297.954
297.951
297.948
297.946
297.943
297.94
298.05
298.043
298.036
298.03
298.024
298.019
298.015
298.01
298.006
298.002
297.998
297.994
297.991
297.987
297.984
297.981
297.978
297.975
297.972
297.969
297.966
297.963
297.96
297.958
297.955
297.952
297.95
297.947
297.944
297.942
298.049
298.041
298.034
298.028
298.023
298.018
298.013
298.009
298.005
298.001
297.997
297.994
297.99
297.987
297.984
297.981
297.978
297.975
297.972
297.969
297.967
297.964
297.961
297.959
297.956
297.954
297.951
297.949
297.946
297.944
298.047
298.039
298.032
298.027
298.021
298.016
298.012
298.008
298.004
298
297.996
297.993
297.99
297.987
297.984
297.981
297.978
297.975
297.973
297.97
297.968
297.965
297.963
297.96
297.958
297.955
297.953
297.95
297.948
297.946
298.045
298.038
298.031
298.025
298.02
298.015
298.01
298.006
298.003
297.999
297.996
297.992
297.989
297.987
297.984
297.981
297.978
297.976
297.973
297.971
297.968
297.966
297.964
297.961
297.959
297.957
297.954
297.952
297.95
297.948
298.044
298.036
298.029
298.023
298.018
298.013
298.009
298.005
298.002
297.998
297.995
297.992
297.989
297.986
297.984
297.981
297.979
297.976
297.974
297.972
297.969
297.967
297.965
297.963
297.961
297.958
297.956
297.954
297.952
297.95
298.042
298.034
298.028
298.022
298.017
298.012
298.008
298.004
298.001
297.998
297.995
297.992
297.989
297.986
297.984
297.982
297.979
297.977
297.975
297.973
297.97
297.968
297.966
297.964
297.962
297.96
297.958
297.956
297.954
297.952
298.041
298.033
298.026
298.02
298.015
298.011
298.007
298.003
298
297.997
297.994
297.991
297.989
297.987
297.984
297.982
297.98
297.978
297.976
297.974
297.972
297.97
297.968
297.966
297.964
297.962
297.96
297.958
297.956
297.954
298.04
298.031
298.024
298.019
298.014
298.01
298.006
298.002
297.999
297.996
297.994
297.991
297.989
297.987
297.985
297.982
297.98
297.978
297.976
297.975
297.973
297.971
297.969
297.967
297.965
297.964
297.962
297.96
297.958
297.956
298.038
298.03
298.023
298.017
298.013
298.009
298.005
298.002
297.999
297.996
297.994
297.991
297.989
297.987
297.985
297.983
297.981
297.979
297.977
297.976
297.974
297.972
297.97
297.969
297.967
297.965
297.964
297.962
297.96
297.959
298.037
298.028
298.022
298.016
298.011
298.007
298.004
298.001
297.998
297.996
297.993
297.991
297.989
297.987
297.985
297.984
297.982
297.98
297.978
297.977
297.975
297.973
297.972
297.97
297.969
297.967
297.966
297.964
297.963
297.961
298.036
298.027
298.02
298.015
298.01
298.007
298.003
298
297.998
297.995
297.993
297.991
297.989
297.988
297.986
297.984
297.982
297.981
297.979
297.978
297.976
297.975
297.973
297.972
297.97
297.969
297.968
297.966
297.965
297.963
298.035
298.026
298.019
298.014
298.009
298.006
298.003
298
297.997
297.995
297.993
297.991
297.99
297.988
297.986
297.985
297.983
297.982
297.98
297.979
297.977
297.976
297.975
297.973
297.972
297.971
297.969
297.968
297.967
297.966
298.034
298.025
298.018
298.013
298.008
298.005
298.002
297.999
297.997
297.995
297.993
297.992
297.99
297.988
297.987
297.985
297.984
297.983
297.981
297.98
297.979
297.977
297.976
297.975
297.974
297.972
297.971
297.97
297.969
297.968
298.033
298.023
298.017
298.011
298.007
298.004
298.001
297.999
297.997
297.995
297.993
297.992
297.99
297.989
297.987
297.986
297.985
297.983
297.982
297.981
297.98
297.979
297.977
297.976
297.975
297.974
297.973
297.972
297.971
297.97
298.032
298.022
298.016
298.011
298.007
298.004
298.001
297.999
297.997
297.995
297.994
297.992
297.991
297.989
297.988
297.987
297.986
297.984
297.983
297.982
297.981
297.98
297.979
297.978
297.977
297.976
297.975
297.974
297.973
297.972
298.031
298.021
298.014
298.01
298.006
298.003
298.001
297.999
297.997
297.995
297.994
297.992
297.991
297.99
297.989
297.987
297.986
297.985
297.984
297.983
297.982
297.981
297.98
297.979
297.978
297.977
297.977
297.976
297.975
297.974
298.03
298.02
298.013
298.009
298.005
298.002
298
297.998
297.997
297.995
297.994
297.993
297.991
297.99
297.989
297.988
297.987
297.986
297.985
297.984
297.983
297.982
297.981
297.981
297.98
297.979
297.978
297.977
297.977
297.976
298.029
298.019
298.013
298.008
298.005
298.002
298
297.998
297.997
297.995
297.994
297.993
297.992
297.991
297.99
297.989
297.988
297.987
297.986
297.985
297.984
297.983
297.983
297.982
297.981
297.98
297.98
297.979
297.979
297.978
298.028
298.018
298.012
298.007
298.004
298.002
298
297.998
297.997
297.996
297.994
297.993
297.992
297.991
297.99
297.989
297.989
297.988
297.987
297.986
297.985
297.985
297.984
297.983
297.983
297.982
297.981
297.981
297.98
297.98
298.027
298.017
298.011
298.007
298.004
298.001
298
297.998
297.997
297.996
297.995
297.994
297.993
297.992
297.991
297.99
297.989
297.989
297.988
297.987
297.986
297.986
297.985
297.984
297.984
297.983
297.983
297.982
297.982
297.981
298.026
298.016
298.01
298.006
298.003
298.001
297.999
297.998
297.997
297.996
297.995
297.994
297.993
297.992
297.992
297.991
297.99
297.989
297.989
297.988
297.987
297.987
297.986
297.986
297.985
297.985
297.984
297.984
297.983
297.983
298.025
298.016
298.009
298.005
298.003
298.001
297.999
297.998
297.997
297.996
297.995
297.994
297.994
297.993
297.992
297.991
297.991
297.99
297.99
297.989
297.988
297.988
297.987
297.987
297.986
297.986
297.985
297.985
297.985
297.984
298.024
298.015
298.009
298.005
298.002
298.001
297.999
297.998
297.997
297.996
297.996
297.995
297.994
297.993
297.993
297.992
297.991
297.991
297.99
297.99
297.989
297.989
297.988
297.988
297.987
297.987
297.987
297.986
297.986
297.986
298.023
298.014
298.008
298.004
298.002
298.001
297.999
297.998
297.997
297.997
297.996
297.995
297.995
297.994
297.993
297.993
297.992
297.992
297.991
297.991
297.99
297.99
297.989
297.989
297.989
297.988
297.988
297.988
297.987
297.987
298.022
298.013
298.007
298.004
298.002
298
297.999
297.998
297.998
297.997
297.996
297.996
297.995
297.994
297.994
297.993
297.993
297.992
297.992
297.991
297.991
297.991
297.99
297.99
297.99
297.989
297.989
297.989
297.988
297.988
298.021
298.012
298.007
298.004
298.002
298
297.999
297.998
297.998
297.997
297.996
297.996
297.995
297.995
297.994
297.994
297.993
297.993
297.993
297.992
297.992
297.992
297.991
297.991
297.991
297.99
297.99
297.99
297.99
297.989
298.021
298.012
298.006
298.003
298.002
298
297.999
297.999
297.998
297.997
297.997
297.996
297.996
297.995
297.995
297.995
297.994
297.994
297.993
297.993
297.993
297.992
297.992
297.992
297.992
297.991
297.991
297.991
297.991
297.991
298.02
298.011
298.006
298.003
298.001
298
297.999
297.999
297.998
297.998
297.997
297.997
297.996
297.996
297.995
297.995
297.995
297.994
297.994
297.994
297.993
297.993
297.993
297.993
297.993
297.992
297.992
297.992
297.992
297.992
298.019
298.01
298.005
298.003
298.001
298
298
297.999
297.998
297.998
297.997
297.997
297.997
297.996
297.996
297.996
297.995
297.995
297.995
297.995
297.994
297.994
297.994
297.994
297.993
297.993
297.993
297.993
297.993
297.993
298.018
298.01
298.005
298.003
298.001
298
298
297.999
297.999
297.998
297.998
297.997
297.997
297.997
297.996
297.996
297.996
297.996
297.995
297.995
297.995
297.995
297.995
297.994
297.994
297.994
297.994
297.994
297.994
297.994
298.017
298.009
298.005
298.002
298.001
298
298
297.999
297.999
297.998
297.998
297.998
297.998
297.997
297.997
297.997
297.997
297.996
297.996
297.996
297.996
297.996
297.995
297.995
297.995
297.995
297.995
297.995
297.995
297.995
298.017
298.009
298.004
298.002
298.001
298
298
297.999
297.999
297.999
297.998
297.998
297.998
297.998
297.998
297.997
297.997
297.997
297.997
297.997
297.996
297.996
297.996
297.996
297.996
297.996
297.996
297.995
297.995
297.995
298.016
298.008
298.004
298.002
298.001
298
298
298
297.999
297.999
297.999
297.999
297.998
297.998
297.998
297.998
297.998
297.998
297.997
297.997
297.997
297.997
297.997
297.997
297.997
297.997
297.997
297.997
297.997
297.997
298.015
298.008
298.004
298.002
298.001
298
298
298
298
297.999
297.999
297.999
297.999
297.999
297.998
297.998
297.998
297.998
297.998
297.998
297.998
297.998
297.998
297.997
297.997
297.997
297.997
297.997
297.997
297.996
298.014
298.007
298.003
298.002
298.001
298.001
298
298
298
298
297.999
297.999
297.999
297.999
297.999
297.999
297.999
297.999
297.999
297.999
297.999
297.999
297.999
297.999
297.999
297.999
298
298
298
298
298.014
298.007
298.003
298.002
298.001
298.001
298
298
298
298
298
298
298
297.999
297.999
297.999
297.999
297.999
297.999
297.999
297.999
297.999
298
298
297.999
297.999
297.999
297.998
297.998
297.998
298.013
298.006
298.003
298.002
298.001
298.001
298.001
298.001
298
298
298
298
298
298
298
298
298.001
298.001
298.001
298.001
298.001
298.002
298.002
298.003
298.003
298.004
298.005
298.006
298.008
298.009
297.235
297.483
297.571
297.643
297.693
297.73
297.758
297.782
297.802
297.82
297.836
297.851
297.864
297.876
297.888
297.899
297.909
297.919
297.929
297.938
297.947
297.956
297.964
297.973
297.985
297.143
297.387
297.458
297.541
297.592
297.64
297.679
297.712
297.741
297.767
297.79
297.81
297.829
297.846
297.861
297.876
297.889
297.901
297.913
297.924
297.935
297.945
297.954
297.964
297.981
297.255
297.36
297.434
297.504
297.558
297.604
297.644
297.679
297.71
297.737
297.762
297.785
297.806
297.825
297.842
297.858
297.873
297.887
297.9
297.912
297.924
297.935
297.946
297.96
297.981
297.301
297.373
297.437
297.498
297.548
297.592
297.631
297.665
297.696
297.723
297.749
297.772
297.793
297.813
297.831
297.848
297.863
297.878
297.892
297.905
297.918
297.931
297.944
297.96
297.981
297.341
297.394
297.448
297.501
297.547
297.589
297.626
297.659
297.689
297.716
297.742
297.765
297.786
297.806
297.824
297.842
297.858
297.873
297.888
297.902
297.915
297.929
297.943
297.96
297.981
297.376
297.417
297.462
297.508
297.55
297.589
297.625
297.657
297.686
297.713
297.738
297.761
297.782
297.802
297.821
297.838
297.855
297.87
297.885
297.9
297.914
297.929
297.943
297.96
297.98
297.408
297.44
297.478
297.518
297.556
297.592
297.626
297.657
297.686
297.712
297.736
297.759
297.78
297.8
297.819
297.836
297.853
297.869
297.884
297.899
297.914
297.928
297.943
297.96
297.98
297.438
297.464
297.495
297.53
297.564
297.597
297.629
297.659
297.686
297.712
297.736
297.758
297.779
297.799
297.818
297.835
297.852
297.868
297.884
297.899
297.914
297.928
297.943
297.959
297.979
297.465
297.487
297.513
297.543
297.574
297.604
297.634
297.662
297.688
297.713
297.737
297.759
297.779
297.799
297.818
297.835
297.852
297.868
297.883
297.898
297.913
297.928
297.943
297.959
297.977
297.491
297.509
297.532
297.557
297.584
297.612
297.639
297.666
297.691
297.715
297.738
297.759
297.78
297.799
297.818
297.835
297.852
297.868
297.883
297.898
297.913
297.928
297.942
297.958
297.976
297.516
297.531
297.55
297.572
297.596
297.621
297.646
297.67
297.694
297.717
297.74
297.761
297.781
297.8
297.818
297.835
297.852
297.868
297.883
297.898
297.913
297.928
297.942
297.957
297.975
297.54
297.553
297.569
297.587
297.608
297.63
297.653
297.676
297.699
297.721
297.742
297.762
297.782
297.801
297.818
297.836
297.852
297.868
297.883
297.898
297.913
297.927
297.941
297.956
297.973
297.562
297.573
297.587
297.603
297.621
297.641
297.661
297.682
297.703
297.724
297.744
297.764
297.783
297.801
297.819
297.836
297.852
297.868
297.883
297.898
297.912
297.927
297.94
297.955
297.972
297.584
297.594
297.605
297.619
297.635
297.652
297.67
297.689
297.709
297.728
297.748
297.766
297.785
297.803
297.82
297.836
297.852
297.868
297.883
297.898
297.912
297.926
297.94
297.954
297.97
297.605
297.613
297.623
297.635
297.648
297.663
297.68
297.697
297.715
297.733
297.751
297.769
297.787
297.804
297.821
297.837
297.853
297.868
297.883
297.897
297.911
297.925
297.939
297.953
297.968
297.626
297.633
297.641
297.651
297.662
297.675
297.69
297.705
297.721
297.738
297.755
297.772
297.789
297.806
297.822
297.838
297.853
297.868
297.883
297.897
297.911
297.925
297.938
297.952
297.967
297.646
297.651
297.658
297.666
297.676
297.688
297.7
297.714
297.728
297.744
297.76
297.776
297.791
297.807
297.823
297.838
297.853
297.868
297.882
297.896
297.91
297.924
297.937
297.951
297.965
297.665
297.669
297.675
297.682
297.69
297.7
297.711
297.723
297.736
297.75
297.764
297.779
297.794
297.809
297.824
297.839
297.854
297.868
297.882
297.896
297.91
297.923
297.936
297.949
297.963
297.683
297.687
297.692
297.697
297.704
297.713
297.722
297.733
297.744
297.757
297.77
297.784
297.798
297.812
297.826
297.84
297.855
297.868
297.882
297.896
297.909
297.922
297.935
297.948
297.961
297.701
297.704
297.708
297.712
297.718
297.725
297.733
297.742
297.753
297.764
297.776
297.788
297.801
297.814
297.828
297.842
297.855
297.869
297.882
297.895
297.908
297.921
297.934
297.947
297.959
297.718
297.72
297.723
297.727
297.732
297.738
297.745
297.752
297.761
297.771
297.782
297.793
297.805
297.817
297.83
297.843
297.856
297.869
297.882
297.895
297.908
297.92
297.933
297.945
297.957
297.734
297.736
297.738
297.741
297.745
297.75
297.756
297.763
297.77
297.779
297.788
297.798
297.809
297.821
297.833
297.845
297.857
297.87
297.882
297.895
297.907
297.919
297.931
297.943
297.954
297.749
297.751
297.753
297.755
297.758
297.762
297.767
297.773
297.779
297.787
297.795
297.804
297.814
297.824
297.835
297.847
297.858
297.87
297.882
297.894
297.906
297.918
297.93
297.941
297.952
297.764
297.765
297.766
297.768
297.771
297.774
297.778
297.783
297.788
297.795
297.802
297.81
297.819
297.828
297.838
297.849
297.86
297.871
297.882
297.894
297.905
297.917
297.928
297.939
297.949
297.777
297.778
297.78
297.781
297.783
297.786
297.789
297.793
297.797
297.803
297.809
297.816
297.824
297.832
297.841
297.851
297.861
297.872
297.882
297.893
297.904
297.915
297.926
297.937
297.947
297.79
297.791
297.792
297.793
297.795
297.797
297.799
297.802
297.806
297.811
297.816
297.822
297.829
297.836
297.845
297.853
297.863
297.872
297.883
297.893
297.903
297.914
297.924
297.935
297.944
297.803
297.803
297.804
297.805
297.806
297.807
297.809
297.812
297.815
297.819
297.823
297.828
297.834
297.841
297.848
297.856
297.864
297.873
297.883
297.892
297.902
297.912
297.922
297.932
297.941
297.814
297.814
297.815
297.815
297.816
297.817
297.819
297.821
297.823
297.826
297.83
297.834
297.839
297.845
297.851
297.859
297.866
297.874
297.883
297.892
297.901
297.911
297.92
297.929
297.938
297.825
297.825
297.825
297.825
297.826
297.827
297.828
297.83
297.832
297.834
297.837
297.841
297.845
297.85
297.855
297.861
297.868
297.875
297.883
297.892
297.9
297.909
297.918
297.927
297.934
297.835
297.835
297.835
297.835
297.835
297.836
297.837
297.838
297.839
297.841
297.844
297.847
297.85