/*--------------------------------*- C++ -*----------------------------------*\
  =========                 |
  \\      /  F ield         | OpenFOAM: The Open Source CFD Toolbox
   \\    /   O peration     | Website:  https://openfoam.org
    \\  /    A nd           | Version:  10
     \\/     M anipulation  |
\*---------------------------------------------------------------------------*/
FoamFile
{
    format      ascii;
    class       volVectorField;
    location    "0.002";
    object      U;
}
// * * * * * * * * * * * * * * * * * * * * * * * * * * * * * * * * * * * * * //

dimensions      [0 1 -1 0 0 0 0];

internalField   nonuniform List<vector> 
8922
(
(3.58235 59.2234 0)
(6.61093 58.7232 0)
(9.57884 58.0157 0)
(12.4677 57.1035 1.61742e-17)
(15.2593 55.9924 0)
(17.9358 54.6912 -4.16619e-18)
(20.4803 53.215 2.12146e-17)
(22.8846 51.577 6.92157e-17)
(25.137 49.7884 0)
(27.2232 47.8674 -4.53052e-17)
(29.1374 45.8371 4.6519e-17)
(30.8789 43.7199 0)
(32.4506 41.5362 7.8969e-17)
(33.8561 39.3098 7.14196e-17)
(35.109 37.061 1.19064e-21)
(36.222 34.8049 -3.25004e-17)
(37.2089 32.5502 0)
(38.0733 30.2984 -4.52703e-17)
(38.8154 28.0491 -1.1582e-17)
(39.4172 25.7985 5.32764e-17)
(39.8754 23.5667 6.05387e-18)
(40.1669 21.3778 4.95207e-17)
(40.246 19.2521 -5.04983e-17)
(40.0697 17.2259 -1.92708e-17)
(39.6061 15.3934 -6.52739e-18)
(38.816 13.9424 2.64767e-17)
(37.5089 13 -2.98991e-17)
(35.7468 12.6013 3.30298e-18)
(35.89 13.7122 -6.43717e-18)
(40.681 15.6829 2.74493e-18)
(3.1445 51.2726 -1.11679e-18)
(5.73429 50.7615 7.91627e-18)
(8.26491 50.0987 9.17704e-18)
(10.7259 49.2915 0)
(13.1081 48.3494 1.42204e-17)
(15.4038 47.2841 4.82547e-18)
(17.6077 46.1105 -1.96673e-17)
(19.721 44.8412 -4.01439e-17)
(21.7429 43.4864 1.02537e-17)
(23.6724 42.0594 4.19194e-17)
(25.5132 40.5735 -4.28903e-17)
(27.2707 39.0387 -9.88124e-17)
(28.9496 37.4613 -4.49247e-17)
(30.5513 35.8458 -3.44828e-17)
(32.0757 34.1918 -1.50043e-21)
(33.516 32.4948 2.34333e-17)
(34.8642 30.7509 3.67597e-22)
(36.1057 28.9543 -2.37283e-17)
(37.2187 27.0996 -1.19243e-17)
(38.1732 25.1868 0)
(38.9337 23.2323 4.81282e-17)
(39.4658 21.2653 -4.83386e-17)
(39.7387 19.3224 0)
(39.734 17.4586 4.87898e-17)
(39.4804 15.7848 0)
(39.0251 14.4345 -2.44631e-17)
(38.2975 13.4383 2.42787e-17)
(37.5652 13.0241 0)
(38.6828 13.8764 5.66542e-18)
(42.1659 13.971 -2.68071e-18)
(2.79523 44.4544 2.35938e-18)
(5.03853 44.0963 2.39839e-18)
(7.24555 43.6452 -2.42334e-18)
(9.41446 43.1088 0)
(11.5447 42.4948 -4.00239e-17)
(13.6369 41.8112 5.0778e-18)
(15.693 41.0652 4.64008e-17)
(17.7173 40.2601 -6.27724e-17)
(19.7109 39.3954 2.12152e-17)
(21.6719 38.4704 4.30098e-17)
(23.5977 37.4822 -1.08923e-17)
(25.4824 36.4245 1.32308e-16)
(27.3165 35.2898 -5.57765e-17)
(29.0869 34.0722 2.25552e-17)
(30.7794 32.7653 -2.25407e-17)
(32.3782 31.3655 1.12268e-17)
(33.8646 29.8703 -4.4675e-17)
(35.2179 28.2801 -1.11337e-17)
(36.4152 26.5983 1.1064e-17)
(37.4306 24.8356 0)
(38.2366 23.0145 -5.49981e-17)
(38.8098 21.1693 1.09913e-17)
(39.1309 19.3394 4.39969e-17)
(39.1955 17.5844 -4.40298e-17)
(39.0426 16.0026 -5.5085e-18)
(38.714 14.6611 -2.37939e-21)
(38.1798 13.5555 -1.64015e-17)
(37.7947 13.0253 -2.69009e-18)
(38.9285 13.2189 2.58221e-18)
(41.2312 11.9487 2.56136e-18)
(2.57616 39.0902 1.23815e-18)
(4.58045 39.0087 -1.37617e-17)
(6.58429 38.8782 -1.26305e-17)
(8.59064 38.6998 1.01968e-17)
(10.602 38.4724 3.59662e-17)
(12.6197 38.1928 -3.10407e-17)
(14.6437 37.8554 -3.1201e-17)
(16.672 37.4507 5.22568e-17)
(18.6984 36.9665 -5.248e-17)
(20.7124 36.3914 -9.46878e-17)
(22.7018 35.7158 4.22042e-17)
(24.6517 34.93 -3.17103e-17)
(26.5451 34.0271 5.29409e-17)
(28.3638 33.0033 -5.30735e-17)
(30.0907 31.8581 1.05859e-17)
(31.7094 30.5942 -1.04657e-17)
(33.2026 29.216 3.10292e-17)
(34.5522 27.7304 5.12018e-17)
(35.739 26.1479 0)
(36.7428 24.4852 0)
(37.5448 22.7681 -3.01106e-17)
(38.1299 21.0299 -9.99828e-18)
(38.4873 19.3088 -3.99048e-17)
(38.6241 17.6637 0)
(38.5827 16.1741 1.98968e-17)
(38.3952 14.8689 0)
(38.054 13.7469 2.46962e-17)
(37.8041 13.0606 -4.87725e-18)
(38.8317 12.8374 -9.49522e-18)
(40.2074 11.0967 0)
(2.54581 35.2102 -3.44821e-38)
(4.40713 35.4418 0)
(6.30155 35.6381 5.1049e-18)
(8.23055 35.7899 -2.55217e-17)
(10.1932 35.8855 -4.07543e-17)
(12.1858 35.9114 -2.03306e-17)
(14.2018 35.8534 0)
(16.232 35.6974 -1.00664e-17)
(18.2637 35.4295 4.00627e-17)
(20.2811 35.0388 9.9376e-18)
(22.2676 34.5176 -3.95896e-17)
(24.2064 33.8611 0)
(26.0807 33.0681 -3.92706e-17)
(27.8734 32.1395 9.79401e-17)
(29.5687 31.0794 1.95697e-17)
(31.151 29.8944 0)
(32.6054 28.5933 1.90868e-17)
(33.9169 27.1867 -9.42606e-18)
(35.0698 25.6878 -9.32615e-18)
(36.0483 24.1153 -3.69866e-17)
(36.8386 22.4943 4.58903e-17)
(37.43 20.8549 -9.12944e-18)
(37.8167 19.2327 0)
(38.0113 17.6808 3.62677e-17)
(38.0526 16.2575 -2.71085e-17)
(37.9647 14.9752 9.00507e-18)
(37.7789 13.8525 -2.24261e-17)
(37.7953 13.0378 1.33308e-17)
(38.4788 12.34 -1.09746e-18)
(39.2944 10.6468 1.10711e-18)
(2.71643 32.5668 -2.53951e-18)
(4.49534 33.0592 5.04256e-18)
(6.32802 33.5027 -1.93565e-21)
(8.21148 33.8812 1.48506e-17)
(10.1396 34.1789 1.95944e-17)
(12.1037 34.3799 4.84357e-17)
(14.0922 34.47 -9.57081e-18)
(16.0916 34.4365 9.45143e-18)
(18.0872 34.2702 -9.34565e-18)
(20.0631 33.9646 3.69556e-17)
(22.0028 33.5156 3.66219e-17)
(23.8904 32.9231 -1.81625e-17)
(25.7098 32.1894 1.80549e-17)
(27.4461 31.3191 -1.79743e-17)
(29.0852 30.3188 -3.59552e-17)
(30.6131 29.1968 -5.37281e-17)
(32.0168 27.9633 0)
(33.2831 26.6304 3.47803e-17)
(34.3988 25.212 0)
(35.3511 23.727 3.39896e-17)
(36.1297 22.1987 0)
(36.727 20.6541 0)
(37.1416 19.1259 4.16153e-17)
(37.3892 17.6588 -4.96956e-17)
(37.5042 16.2916 1.64998e-17)
(37.5087 15.0291 -4.109e-18)
(37.4441 13.9029 1.22918e-17)
(37.5314 12.9948 -8.13779e-18)
(38.0072 12.0545 8.08061e-18)
(38.4598 10.4296 0)
(3.04873 30.7762 -8.62124e-22)
(4.77185 31.4351 9.71806e-18)
(6.55673 32.0229 0)
(8.39584 32.5226 -9.38503e-18)
(10.2793 32.919 9.2207e-18)
(12.1959 33.1992 0)
(14.1327 33.3527 4.45156e-17)
(16.0759 33.3705 8.75583e-18)
(18.0106 33.2471 1.72723e-17)
(19.9214 32.9798 0)
(21.7936 32.5685 -1.68471e-17)
(23.6125 32.0151 1.67241e-17)
(25.3636 31.3239 -8.3104e-17)
(27.0337 30.501 6.62378e-17)
(28.6097 29.5536 8.2687e-17)
(30.079 28.4907 4.96102e-17)
(31.4299 27.3228 8.1607e-17)
(32.6505 26.0619 -1.60642e-17)
(33.7295 24.7224 -3.17163e-17)
(34.6566 23.322 -1.5681e-17)
(35.424 21.8823 0)
(36.0267 20.4273 0)
(36.4663 18.9865 -3.05618e-17)
(36.7586 17.5957 0)
(36.9315 16.2806 -7.5636e-18)
(37.0059 15.0445 7.53459e-18)
(37.0275 13.9147 -1.12666e-17)
(37.1476 12.9198 -1.86993e-17)
(37.4686 11.8493 -7.46214e-18)
(37.6997 10.3527 1.43507e-23)
(3.49063 29.4888 -2.34799e-18)
(5.16357 30.2292 -1.83436e-17)
(6.89746 30.88 0)
(8.68288 31.4271 -8.75558e-18)
(10.5091 31.8579 8.5673e-18)
(12.364 32.1632 -8.38853e-18)
(14.2344 32.3358 -8.21232e-18)
(16.1072 32.3705 -6.6945e-21)
(17.9685 32.2648 -4.77926e-17)
(19.8043 32.0182 0)
(21.6012 31.6323 -1.55458e-17)
(23.3457 31.1101 4.62641e-17)
(25.0249 30.4566 -3.03647e-20)
(26.6264 29.678 3.04865e-20)
(28.1382 28.7818 -1.21915e-16)
(29.5487 27.7768 -6.1051e-17)
(30.847 26.6734 1.51652e-17)
(32.0228 25.4834 -1.48912e-17)
(33.0662 24.2207 0)
(33.9689 22.9022 1.44794e-17)
(34.7249 21.547 1.43257e-17)
(35.3315 20.1768 1.41918e-17)
(35.7921 18.817 1.40848e-17)
(36.1212 17.4958 -6.99356e-18)
(36.3409 16.2304 6.95545e-18)
(36.4704 15.0259 0)
(36.5513 13.9014 0)
(36.6808 12.8525 2.75581e-17)
(36.8933 11.726 6.8873e-18)
(36.9952 10.3482 -1.73247e-18)
(3.99458 28.4665 2.19548e-18)
(5.61477 29.2305 6.40962e-18)
(7.29216 29.8935 1.66507e-17)
(9.0165 30.4449 0)
(10.7768 30.8758 2.37888e-17)
(12.5614 31.1798 2.32704e-17)
(14.358 31.3523 -4.56317e-17)
(16.1542 31.3905 1.49316e-17)
(17.9376 31.2934 -1.47198e-17)
(19.6953 31.0617 0)
(21.4149 30.6975 5.74735e-17)
(23.0842 30.2042 -5.69484e-17)
(24.6911 29.5868 5.65872e-17)
(26.2241 28.8515 2.74518e-20)
(27.6722 28.0055 5.62818e-17)
(29.0246 27.0574 1.12719e-16)
(30.2714 26.0173 -5.62383e-17)
(31.4034 24.8966 -5.53001e-17)
(32.4123 23.7085 5.44402e-17)
(33.2911 22.4685 -6.71053e-17)
(34.0355 21.1939 1.32555e-17)
(34.6442 19.9038 1.3118e-17)
(35.1213 18.6198 -5.19998e-17)
(35.4796 17.3635 1.29051e-17)
(35.7364 16.1473 3.20824e-17)
(35.9088 14.9771 1.91712e-17)
(36.0306 13.8643 -1.2744e-17)
(36.1598 12.7914 3.90945e-21)
(36.301 11.6581 -6.36472e-18)
(36.331 10.383 4.78906e-18)
(4.5291 27.5723 -2.04248e-18)
(6.09309 28.325 1.98247e-18)
(7.70924 28.9727 -1.54196e-17)
(9.3675 29.5074 -1.50301e-17)
(11.0574 29.9231 -4.40077e-17)
(12.768 30.2151 1.43568e-17)
(14.488 30.3805 0)
(16.2062 30.4178 2.76508e-17)
(17.9108 30.3265 0)
(19.5903 30.1079 0)
(21.233 29.7642 2.66047e-17)
(22.8277 29.2989 5.27117e-17)
(24.3631 28.7168 -7.85687e-17)
(25.8287 28.0239 2.46704e-20)
(27.2141 27.2273 0)
(28.5097 26.335 2.47146e-20)
(29.7062 25.3567 -5.22585e-17)
(30.7955 24.3033 7.71012e-17)
(31.7707 23.1871 2.53006e-17)
(32.6259 22.0224 2.48914e-17)
(33.358 20.8244 1.22883e-17)
(33.9666 19.61 -9.28977e-22)
(34.4561 18.3972 2.40651e-17)
(34.8368 17.2026 1.1941e-17)
(35.1224 16.0362 -1.18561e-17)
(35.3275 14.9036 -1.77039e-17)
(35.4771 13.8102 2.94325e-17)
(35.604 12.7375 -1.17522e-17)
(35.7025 11.6248 -1.95118e-21)
(35.6961 10.4367 -5.8892e-18)
(5.07487 26.7347 3.78414e-18)
(6.57984 27.4591 7.34563e-18)
(8.13205 28.0789 2.22555e-21)
(9.72206 28.5885 3.48017e-17)
(11.3401 28.9831 -1.35949e-17)
(12.976 29.2597 0)
(14.6195 29.416 1.30382e-17)
(16.2599 29.451 -1.28151e-17)
(17.8867 29.3648 0)
(19.4889 29.1587 -4.98215e-17)
(21.056 28.8349 -7.38878e-17)
(22.5774 28.3971 -2.44056e-17)
(24.0427 27.8496 4.85135e-17)
(25.4422 27.1983 -4.83135e-17)
(26.7664 26.4497 0)
(28.0064 25.6119 -1.20692e-16)
(29.1539 24.6936 7.26474e-17)
(30.2017 23.7051 -9.57102e-17)
(31.1438 22.6581 -4.70152e-17)
(31.9755 21.5651 -2.31545e-17)
(32.6945 20.4399 7.95227e-22)
(33.3008 19.2971 2.2556e-17)
(33.7984 18.1517 -3.34767e-17)
(34.1957 17.0167 -3.31757e-17)
(34.5031 15.9005 2.1974e-17)
(34.7327 14.8083 -2.18599e-17)
(34.9018 13.7422 -1.63434e-17)
(35.028 12.6875 5.43935e-18)
(35.1041 11.6104 8.16645e-18)
(35.0835 10.4971 -2.76911e-22)
(5.62046 25.9227 0)
(7.06518 26.6113 -1.94899e-21)
(8.55269 27.1986 -3.31246e-17)
(10.0742 27.6802 -1.2919e-17)
(11.6206 28.0524 -2.52195e-17)
(13.1826 28.3127 1.23404e-17)
(14.7505 28.4595 0)
(16.3146 28.4921 4.75655e-17)
(17.865 28.4107 2.34282e-17)
(19.3916 28.2169 1.3866e-16)
(20.8847 27.9127 2.2864e-17)
(22.3345 27.5016 -2.26554e-17)
(23.7314 26.9879 2.25118e-17)
(25.0665 26.3769 0)
(26.331 25.6752 0)
(27.5168 24.8899 -1.98589e-20)
(28.6166 24.0296 0)
(29.6239 23.1037 2.22946e-17)
(30.5336 22.1227 2.19007e-17)
(31.3418 21.0982 1.07702e-16)
(32.0466 20.0421 -2.12249e-17)
(32.6483 18.9673 -4.18954e-17)
(33.1503 17.886 2.07055e-17)
(33.5591 16.8089 -2.0529e-17)
(33.8828 15.7434 -4.07602e-17)
(34.1306 14.6942 0)
(34.314 13.662 0)
(34.4422 12.6375 -5.04123e-18)
(34.5099 11.6034 5.04369e-18)
(34.4886 10.5559 0)
(6.15961 25.125 -3.25262e-18)
(7.54415 25.7753 -1.1956e-22)
(8.96739 26.3289 -6.15085e-18)
(10.4212 26.782 -4.4464e-21)
(11.8972 27.1317 -1.17144e-17)
(13.3867 27.376 6.71571e-21)
(14.8807 27.5135 2.24825e-17)
(16.3702 27.5438 -4.41718e-17)
(17.8461 27.4673 -6.52507e-17)
(19.2991 27.2853 -2.14572e-17)
(20.7201 27.0002 -4.24565e-17)
(22.1002 26.6151 4.20989e-17)
(23.4306 26.1341 4.18196e-17)
(24.703 25.5623 0)
(25.9095 24.9057 -4.15488e-17)
(27.0429 24.1712 4.15428e-17)
(28.0963 23.3665 -4.16652e-17)
(29.0641 22.5004 2.45108e-21)
(29.9419 21.5825 -2.04358e-17)
(30.7263 20.6231 -6.02036e-17)
(31.4159 19.6327 3.95325e-17)
(32.0109 18.6224 0)
(32.514 17.6025 3.85281e-17)
(32.9301 16.5821 0)
(33.2654 15.5675 2.83938e-17)
(33.5267 14.5633 7.73166e-22)
(33.7214 13.5704 -9.37314e-18)
(33.8544 12.5837 -9.35483e-18)
(33.9227 11.596 -7.01735e-18)
(33.9091 10.6076 -4.64724e-18)
(6.68857 24.339 -3.02009e-18)
(8.01384 24.9504 -8.80516e-18)
(9.374 25.4704 1.14275e-17)
(10.7616 25.8956 2.22909e-17)
(12.1688 26.2234 2.17776e-17)
(13.5876 26.4521 -2.13145e-17)
(15.0097 26.5806 -6.27224e-17)
(16.4267 26.6088 4.10879e-17)
(17.8303 26.5371 -2.02327e-17)
(19.2118 26.3668 -1.99618e-17)
(20.563 26.1001 1.97448e-17)
(21.8755 25.7401 -3.91242e-17)
(23.1415 25.2907 -7.77335e-17)
(24.3532 24.7566 0)
(25.5036 24.1434 7.71992e-17)
(26.586 23.4575 -3.8599e-17)
(27.5944 22.706 7.73982e-17)
(28.5237 21.897 3.88205e-17)
(29.37 21.0391 5.71605e-17)
(30.1305 20.1415 7.48939e-17)
(30.8038 19.2135 -3.68275e-17)
(31.3902 18.2645 -6.17972e-21)
(31.8916 17.3037 -1.79376e-17)
(32.3116 16.3385 3.5512e-17)
(32.6548 15.375 -1.76089e-17)
(32.9261 14.4173 -8.74832e-18)
(33.1302 13.4671 2.61289e-17)
(33.2701 12.5228 1.30287e-17)
(33.3448 11.5825 1.30256e-17)
(33.3436 10.6483 -6.04748e-22)
(7.20481 23.5646 2.80577e-18)
(8.47226 24.138 5.45609e-18)
(9.77103 24.6251 0)
(11.0943 25.0231 0)
(12.4347 25.3297 2.02701e-17)
(13.785 25.5434 1.98477e-17)
(15.1374 25.6635 -1.28771e-20)
(16.4843 25.6896 0)
(17.8178 25.6225 0)
(19.1303 25.4635 3.71571e-17)
(20.4139 25.2146 -7.34903e-17)
(21.6613 24.8788 3.64147e-17)
(22.865 24.4596 7.2316e-17)
(24.0182 23.9616 3.59925e-17)
(25.1143 23.3899 5.44628e-21)
(26.1474 22.7504 -3.58867e-17)
(27.1121 22.0497 -3.5952e-17)
(28.0039 21.2949 3.61211e-17)
(28.8192 20.494 -3.56082e-17)
(29.5556 19.6549 -6.98893e-17)
(30.2118 18.7862 1.27061e-20)
(30.7878 17.8958 6.77305e-17)
(31.2851 16.9916 0)
(31.7062 16.0804 1.11929e-20)
(32.0544 15.1676 1.63876e-17)
(32.3332 14.2574 1.62816e-17)
(32.5456 13.352 -2.42955e-17)
(32.6937 12.4523 1.61497e-17)
(32.778 11.5592 -1.61346e-17)
(32.7919 10.6756 1.99215e-18)
(7.70658 22.803 2.61236e-18)
(8.918 23.3395 -1.01618e-17)
(10.1574 23.7949 -9.90079e-18)
(11.4183 24.1666 0)
(12.6943 24.4529 0)
(13.9784 24.6523 -1.84832e-17)
(15.2636 24.7642 3.62605e-17)
(16.5428 24.7885 5.34525e-17)
(17.809 24.7259 0)
(19.0549 24.5777 -3.46166e-17)
(20.2735 24.3458 0)
(21.4581 24.0331 0)
(22.6019 23.6429 -3.36542e-17)
(23.6987 23.1793 -6.69928e-17)
(24.7425 22.6471 -3.34012e-17)
(25.7281 22.0517 -3.33788e-17)
(26.6505 21.3991 6.68778e-17)
(27.5057 20.6958 -3.35782e-17)
(28.2904 19.9487 6.6582e-17)
(29.0027 19.1652 -3.26526e-17)
(29.641 18.3527 3.21043e-17)
(30.2054 17.5182 -3.15915e-17)
(30.6966 16.6685 3.11816e-17)
(31.1164 15.8097 1.01341e-20)
(31.4674 14.947 0)
(31.7518 14.0844 -3.03181e-17)
(31.9716 13.2248 7.53648e-18)
(32.1285 12.3704 -7.51222e-18)
(32.2242 11.5237 -3.75141e-18)
(32.2542 10.6877 1.8465e-18)
(8.19256 22.0556 4.86938e-18)
(9.34995 22.5566 -4.73584e-18)
(10.5321 22.9815 3.68985e-17)
(11.7332 23.3282 -3.8854e-21)
(12.9471 23.5949 -1.76045e-17)
(14.1675 23.7806 0)
(15.3881 23.8847 -3.38007e-17)
(16.6024 23.9073 -6.64301e-17)
(17.8038 23.849 -6.54002e-17)
(18.9858 23.7111 3.22569e-17)
(20.1421 23.4955 -3.1893e-17)
(21.2664 23.2047 0)
(22.3528 22.842 0)
(23.3954 22.411 3.11795e-17)
(24.389 21.9163 3.10956e-17)
(25.3287 21.3627 0)
(26.2102 20.7556 0)
(27.0298 20.1009 3.12258e-17)
(27.7846 19.4049 -6.22574e-17)
(28.4726 18.674 -9.1586e-17)
(29.0926 17.9147 1.02597e-20)
(29.6441 17.1334 -2.95057e-17)
(30.1277 16.336 2.91075e-17)
(30.5446 15.5281 -5.75187e-17)
(30.8964 14.7145 2.84834e-17)
(31.1849 13.8991 0)
(31.4112 13.0853 1.40425e-17)
(31.5772 12.2761 -6.99481e-18)
(31.6847 11.4746 6.98172e-18)
(31.7309 10.6835 1.71281e-18)
(8.66173 21.3236 -2.27218e-18)
(9.76726 21.7908 1.79606e-21)
(10.8945 22.1866 8.60925e-18)
(12.0381 22.5093 1.67969e-17)
(13.1925 22.7574 -3.28348e-17)
(14.3521 22.93 3.21579e-17)
(15.5108 23.0267 3.15398e-17)
(16.6629 23.0476 6.1957e-17)
(17.8023 22.9933 -6.10096e-17)
(18.9233 22.8652 3.00761e-17)
(20.0199 22.665 2.97144e-17)
(21.0866 22.395 -5.88896e-17)
(22.1179 22.0583 0)
(23.1087 21.6583 0)
(24.054 21.1989 0)
(24.9497 20.6847 0)
(25.7917 20.1206 -5.79097e-17)
(26.5768 19.5118 2.90563e-17)
(27.3022 18.8639 8.74072e-17)
(27.9661 18.1826 2.85416e-17)
(28.5673 17.4739 5.47479e-21)
(29.1052 16.7432 -2.75825e-17)
(29.5801 15.996 -8.15381e-17)
(29.9925 15.2372 5.36911e-17)
(30.3438 14.4713 -2.65672e-17)
(30.635 13.7024 0)
(30.8671 12.9337 1.30915e-17)
(31.0417 12.1688 -1.30333e-17)
(31.161 11.411 3.25111e-18)
(31.2228 10.6627 -3.17925e-18)
(9.1133 20.6083 -8.3136e-22)
(10.1692 21.0432 -1.64914e-17)
(11.244 21.4114 -1.60611e-17)
(12.3327 21.7112 0)
(13.4304 21.9416 -6.12966e-17)
(14.5317 22.1017 -6.74697e-22)
(15.6315 22.1914 -5.88647e-17)
(16.7242 22.2106 -2.89112e-17)
(17.8046 22.1602 8.53618e-17)
(18.8672 22.0413 5.61284e-17)
(19.907 21.8556 0)
(20.9188 21.6053 1.09808e-16)
(21.8976 21.2931 -5.44825e-17)
(22.8387 20.9221 -1.12541e-20)
(23.738 20.4961 -6.25657e-21)
(24.5914 20.019 -5.57817e-21)
(25.3954 19.4953 -5.39217e-17)
(26.147 18.9296 -1.00056e-20)
(26.8437 18.3271 -1.63074e-16)
(27.4837 17.6927 5.34349e-17)
(28.0659 17.0318 -1.04875e-16)
(28.5896 16.3492 1.54662e-16)
(29.0548 15.6498 2.53919e-17)
(29.4617 14.9382 -2.50685e-17)
(29.8112 14.2186 0)
(30.1041 13.4948 1.22967e-17)
(30.3411 12.7703 1.22093e-17)
(30.5237 12.0484 6.07534e-18)
(30.6541 11.3327 -6.05864e-18)
(30.7307 10.6253 0)
(9.5467 19.9105 -7.29491e-22)
(10.5554 20.3148 2.31064e-17)
(11.5802 20.6567 -2.69205e-21)
(12.6167 20.935 -1.46402e-17)
(13.6603 21.1486 2.86155e-17)
(14.7063 21.2969 2.80188e-17)
(15.7499 21.3798 5.49571e-17)
(16.7863 21.3975 2.69985e-17)
(17.8105 21.3506 -5.31314e-17)
(18.8178 21.2404 -5.2367e-17)
(19.8034 21.0683 0)
(20.7629 20.8365 -1.02417e-16)
(21.6917 20.5472 1.01593e-16)
(22.5857 20.2036 5.04836e-17)
(23.4409 19.8088 5.02891e-17)
(24.2538 19.3665 -5.0202e-17)
(25.0212 18.8807 5.02136e-17)
(25.7405 18.3556 5.03313e-17)
(26.4092 17.7957 -1.01182e-16)
(27.0257 17.2055 5.00262e-17)
(27.5889 16.5897 9.81188e-17)
(28.098 15.9527 -4.82063e-17)
(28.5527 15.299 -4.74857e-17)
(28.9532 14.6326 2.34265e-17)
(29.3001 13.9575 -2.31655e-17)
(29.5937 13.2773 -2.29488e-17)
(29.8347 12.5954 -1.13928e-17)
(30.0245 11.9152 2.26668e-17)
(30.1652 11.2398 -5.64938e-18)
(30.2553 10.5715 0)
(9.96154 19.2309 -6.3998e-22)
(10.9254 19.6062 1.44023e-17)
(11.9027 19.9234 2.80403e-17)
(12.8897 20.1812 2.58798e-22)
(13.882 20.379 2.67398e-17)
(14.8756 20.5161 0)
(15.866 20.5926 0)
(16.8489 20.6087 -5.04154e-17)
(17.8199 20.5652 4.95991e-17)
(18.7746 20.4631 4.88901e-17)
(19.709 20.3037 -4.82905e-17)
(20.6189 20.0891 -4.77899e-17)
(21.5002 19.8214 0)
(22.3492 19.5033 0)
(23.1625 19.1377 0)
(23.9367 18.728 0)
(24.6691 18.2777 0)
(25.3571 17.7907 0)
(25.9987 17.2707 4.70771e-17)
(26.5921 16.7221 -9.36644e-17)
(27.1364 16.1488 -4.59074e-17)
(27.6306 15.555 4.51114e-17)
(28.0745 14.9446 4.43852e-17)
(28.4679 14.3213 -4.37976e-17)
(28.8112 13.6888 -2.1645e-17)
(29.1047 13.0505 2.14363e-17)
(29.3488 12.4097 2.12717e-17)
(29.5449 11.7695 1.05774e-17)
(29.6948 11.1329 -5.26932e-18)
(29.7972 10.502 0)
(10.3576 18.5698 -5.61491e-22)
(11.279 18.9179 -1.34688e-17)
(12.2115 19.2118 -2.62245e-17)
(13.1516 19.4504 -2.55717e-17)
(14.0955 19.6332 -2.4987e-17)
(15.0394 19.7598 -4.89192e-17)
(15.9796 19.8302 9.59351e-17)
(16.9119 19.8449 1.30823e-21)
(17.8326 19.8044 -4.63285e-17)
(18.7377 19.7097 4.56583e-17)
(19.6235 19.5623 4.50805e-17)
(20.4864 19.3637 4.4586e-17)
(21.3227 19.1161 0)
(22.1291 18.8218 8.78206e-17)
(22.9025 18.4835 -4.37086e-17)
(23.6398 18.1042 -4.35936e-17)
(24.3386 17.6871 4.35802e-17)
(24.9966 17.2356 4.36538e-17)
(25.6119 16.7531 -4.38316e-17)
(26.1828 16.2435 8.77321e-17)
(26.7083 15.7103 -8.59666e-17)
(27.1877 15.1572 4.22099e-17)
(27.6203 14.5878 -6.58035e-21)
(28.0061 14.0055 8.18812e-17)
(28.3452 13.4137 -2.68965e-21)
(28.6378 12.8155 2.00242e-17)
(28.8842 12.2139 4.93646e-21)
(29.0855 11.612 -1.97376e-17)
(29.2436 11.0126 9.83226e-18)
(29.3569 10.4173 0)
(10.7349 17.9275 4.33709e-22)
(11.6163 18.2501 6.30354e-18)
(12.5065 18.522 -4.18097e-21)
(13.4023 18.7426 2.39205e-17)
(14.3005 18.9113 0)
(15.1978 19.0281 4.57286e-17)
(16.0905 19.0928 -4.4833e-17)
(16.9752 19.106 -4.40091e-17)
(17.8484 19.0682 -4.3287e-17)
(18.7066 18.9805 0)
(19.5467 18.8441 -4.20782e-17)
(20.3651 18.6604 -8.32471e-17)
(21.1589 18.4315 -8.24806e-17)
(21.9249 18.1594 1.2288e-16)
(22.6604 17.8465 8.15093e-17)
(23.3626 17.4955 -1.33635e-20)
(24.0294 17.1094 -8.12044e-17)
(24.6586 16.691 0)
(25.2484 16.2436 -8.16129e-17)
(25.7974 15.7705 1.0602e-20)
(26.3045 15.275 -4.02463e-17)
(26.769 14.7603 5.39264e-21)
(27.1902 14.2296 3.88431e-17)
(27.568 13.6862 -3.82762e-17)
(27.9023 13.133 3.78058e-17)
(28.1933 12.5729 -3.74121e-17)
(28.4411 12.0089 -1.85463e-17)
(28.6468 11.4436 4.14708e-21)
(28.8118 10.8795 -4.58927e-18)
(28.9348 10.3184 -6.59887e-18)
(11.0936 17.304 -3.04011e-18)
(11.9373 17.6026 1.18043e-17)
(12.7877 17.8541 2.29591e-17)
(13.642 18.0578 2.23775e-17)
(14.4972 18.2134 -4.3717e-17)
(15.3505 18.3208 -4.27638e-17)
(16.1986 18.3802 0)
(17.0385 18.392 0)
(17.867 18.3567 4.04352e-17)
(18.6812 18.2754 0)
(19.478 18.1492 0)
(20.2546 17.9794 1.55372e-16)
(21.0082 17.7677 7.69628e-17)
(21.736 17.5162 -1.52786e-16)
(22.4356 17.2269 -7.59785e-17)
(23.1045 16.9023 7.57302e-17)
(23.7407 16.545 7.56486e-17)
(24.3423 16.1575 -1.51451e-16)
(24.9077 15.7429 7.596e-17)
(25.4354 15.304 -1.14562e-16)
(25.9245 14.8437 1.88376e-16)
(26.3742 14.365 -1.10882e-16)
(26.7839 13.8709 -1.0901e-16)
(27.1534 13.3642 1.07391e-16)
(27.4824 12.8476 -3.53389e-17)
(27.7711 12.3238 0)
(28.0196 11.7954 0)
(28.2287 11.2649 2.02801e-21)
(28.3997 10.7347 -8.64822e-22)
(28.5311 10.2063 -6.13371e-18)
(11.4339 16.699 5.6991e-18)
(12.2423 16.9753 -1.1056e-17)
(13.0554 17.2077 0)
(13.8707 17.3957 0)
(14.6856 17.5391 4.08878e-17)
(15.4975 17.6378 3.9995e-17)
(16.3038 17.6922 -7.83558e-17)
(17.1016 17.7025 1.5379e-16)
(17.8882 17.6696 -7.55789e-17)
(18.6609 17.5942 -1.14162e-20)
(19.4172 17.4773 -8.80844e-21)
(20.1544 17.3203 -7.25232e-17)
(20.8701 17.1247 -7.17911e-17)
(21.5619 16.8922 7.12685e-17)
(22.2274 16.6249 7.08501e-17)
(22.8647 16.3247 -7.05846e-17)
(23.4718 15.9941 2.11441e-16)
(24.0471 15.6355 -7.0521e-17)
(24.5889 15.2514 0)
(25.0961 14.8443 2.13191e-16)
(25.5676 14.4171 -3.85705e-21)
(26.0028 13.9722 -1.38358e-16)
(26.401 13.5125 6.79651e-17)
(26.7619 13.0403 1.80487e-21)
(27.0853 12.5583 2.90271e-21)
(27.3711 12.0688 0)
(27.6195 11.5743 0)
(27.8311 11.077 1.60729e-17)
(28.007 10.579 -7.99722e-18)
(28.1456 10.0817 1.14027e-17)
(11.7563 16.1123 5.34418e-18)
(12.5317 16.3678 2.07218e-17)
(13.3098 16.5824 -4.02714e-17)
(14.0886 16.7558 1.17656e-16)
(14.8657 16.8878 -3.82687e-17)
(15.639 16.9785 6.06204e-21)
(16.406 17.0281 0)
(17.1644 17.0372 -1.43758e-16)
(17.9117 17.0063 1.4125e-16)
(18.6455 16.9363 -1.30833e-20)
(19.3636 16.8281 0)
(20.0638 16.683 0)
(20.7439 16.5022 -1.33996e-16)
(21.4016 16.2873 -1.32894e-16)
(22.0351 16.0402 1.32092e-16)
(22.6424 15.7628 3.42435e-21)
(23.2219 15.457 -1.31297e-16)
(23.772 15.1251 6.56665e-17)
(24.2913 14.7694 6.58201e-17)
(24.7787 14.3921 -6.61062e-17)
(25.2331 13.9957 -1.32082e-16)
(25.654 13.5825 6.47336e-17)
(26.0407 13.155 1.58955e-16)
(26.3929 12.7153 -6.25908e-17)
(26.7103 12.2659 6.45412e-21)
(26.9928 11.8089 0)
(27.2404 11.3464 -3.02322e-17)
(27.4538 10.8806 3.84689e-22)
(27.6336 10.4134 0)
(27.7784 9.9459 -7.06524e-18)
(12.0613 15.5432 1.1778e-21)
(12.8059 15.7796 0)
(13.5514 15.9777 -1.88656e-17)
(14.296 16.1375 5.69898e-22)
(15.0378 16.259 -1.07448e-16)
(15.7749 16.3422 3.50059e-17)
(16.5052 16.3875 -1.37048e-16)
(17.2267 16.3953 6.71944e-17)
(17.9371 16.3663 9.91413e-21)
(18.6345 16.3013 1.29822e-16)
(19.3169 16.2011 -6.39783e-17)
(19.9823 16.0668 -6.31583e-17)
(20.6288 15.8997 2.50011e-16)
(21.2546 15.7012 6.19712e-17)
(21.8578 15.4728 -6.15663e-17)
(22.4368 15.2164 6.12869e-17)
(22.99 14.9336 6.11227e-17)
(23.5161 14.6266 -1.22239e-16)
(24.0139 14.2972 4.76071e-21)
(24.4822 13.9477 -1.22995e-16)
(24.9201 13.58 6.17382e-17)
(25.327 13.1965 -6.05564e-17)
(25.7024 12.7991 -5.94513e-17)
(26.0457 12.39 8.7762e-17)
(26.3569 11.9713 -8.6541e-17)
(26.6355 11.5448 2.85036e-17)
(26.8818 11.1127 -2.82333e-17)
(27.0962 10.6767 -1.34333e-21)
(27.2791 10.2387 1.39368e-17)
(27.4289 9.79967 3.28257e-18)
(12.3495 14.9913 -4.70199e-18)
(13.0654 15.2099 3.64321e-17)
(13.7804 15.3929 -7.07299e-17)
(14.4932 15.5402 0)
(15.202 15.6519 0)
(15.9054 15.7282 6.5491e-17)
(16.6014 15.7694 6.4081e-17)
(17.2883 15.7761 6.28171e-17)
(17.9644 15.7489 0)
(18.6276 15.6884 -6.06361e-17)
(19.2765 15.5956 -5.97145e-17)
(19.9093 15.4714 1.17896e-16)
(20.5243 15.3169 -1.74891e-16)
(21.12 15.1334 -1.73303e-16)
(21.6946 14.9224 2.29477e-16)
(22.2469 14.6854 0)
(22.7752 14.424 5.69303e-17)
(23.2786 14.1399 -5.68797e-17)
(23.7557 13.8351 -5.69741e-17)
(24.2057 13.5113 5.71728e-17)
(24.6276 13.1705 0)
(25.0209 12.8145 5.66415e-17)
(25.3851 12.4454 0)
(25.7196 12.0649 -5.46829e-17)
(26.0242 11.675 5.38984e-17)
(26.2987 11.2774 -6.11751e-21)
(26.5431 10.8739 0)
(26.7577 10.4662 -2.61568e-17)
(26.9429 10.0558 1.10448e-21)
(27.0966 9.64389 1.21998e-17)
(12.6218 14.4557 4.57834e-22)
(13.3109 14.6581 0)
(13.9976 14.8271 3.31463e-17)
(14.6806 14.9629 0)
(15.3587 15.0656 6.27804e-17)
(16.0305 15.1356 -6.12889e-17)
(16.6945 15.1732 -5.99313e-17)
(17.3492 15.1788 -1.76139e-16)
(17.993 15.1532 1.15234e-16)
(18.6244 15.097 -1.1325e-16)
(19.242 15.011 -5.5734e-17)
(19.8442 14.896 2.74994e-16)
(20.4297 14.7532 -1.08736e-16)
(20.997 14.5836 -1.07692e-16)
(21.5448 14.3886 -5.34469e-17)
(22.0718 14.1695 0)
(22.5766 13.9278 -1.58952e-16)
(23.0583 13.6652 -4.78335e-21)
(23.5158 13.3831 1.58932e-16)
(23.9482 13.0832 -2.65763e-16)
(24.3548 12.7673 1.06892e-16)
(24.7348 12.4371 -5.29465e-17)
(25.0879 12.0944 -5.19496e-17)
(25.4136 11.7407 1.53235e-16)
(25.7116 11.3779 -5.03299e-17)
(25.9816 11.0074 4.97094e-17)
(26.2236 10.6309 0)
(26.4379 10.2499 -4.16185e-21)
(26.6247 9.86569 1.02286e-21)
(26.7821 9.47957 -1.13302e-17)
(12.8788 13.9359 -1.24323e-17)
(13.5431 14.1233 1.60322e-17)
(14.2034 14.2795 3.10796e-17)
(14.8587 14.4048 0)
(15.5082 14.4994 0)
(16.1505 14.5636 0)
(16.7847 14.5978 0)
(17.4093 14.6025 -5.4888e-17)
(18.023 14.5784 1.07646e-16)
(18.6246 14.5261 -1.58634e-16)
(19.2128 14.4464 0)
(19.7864 14.34 -1.02605e-16)
(20.3442 14.2079 -1.01378e-16)
(20.885 14.0512 1.00363e-16)
(21.4075 13.871 9.95553e-17)
(21.9106 13.6685 1.97968e-16)
(22.3933 13.4451 -2.95842e-16)
(22.8544 13.2022 9.84504e-17)
(23.2932 12.9412 9.85107e-17)
(23.7088 12.6636 2.46953e-16)
(24.1005 12.3709 -9.92836e-17)
(24.4677 12.0647 -4.94908e-17)
(24.81 11.7466 4.85253e-17)
(25.1269 11.418 -9.53994e-17)
(25.4181 11.0805 4.6992e-17)
(25.6834 10.7355 -9.27718e-17)
(25.9225 10.3844 1.2426e-21)
(26.1358 10.0287 2.27571e-17)
(26.3236 9.66952 2.26252e-17)
(26.484 9.30782 -8.02432e-23)
(13.1215 13.431 7.14378e-22)
(13.7627 13.6048 1.50445e-17)
(14.3984 13.7493 -2.91397e-17)
(15.028 13.865 5.65816e-17)
(15.6507 13.9522 -5.50485e-17)
(16.2657 14.0111 5.36685e-17)
(16.8719 14.0423 0)
(17.4685 14.0463 5.12946e-17)
(18.0541 14.0237 1.07105e-20)
(18.6279 13.975 1.97444e-16)
(19.1886 13.9012 9.70918e-17)
(19.7355 13.8027 -1.17026e-20)
(20.2674 13.6806 -1.03442e-20)
(20.7832 13.5358 -9.34983e-17)
(21.282 13.3692 9.27031e-17)
(21.7627 13.1821 -2.76349e-16)
(22.2243 12.9756 2.75188e-16)
(22.666 12.751 -9.15331e-17)
(23.087 12.5095 9.15464e-17)
(23.4865 12.2525 -9.17461e-17)
(23.864 11.9814 9.21816e-17)
(24.2187 11.6976 4.62234e-17)
(24.5504 11.4024 1.35952e-16)
(24.8585 11.0972 4.45243e-17)
(25.1429 10.7835 -4.38346e-17)
(25.4032 10.4624 4.3264e-17)
(25.6392 10.1353 -4.27941e-17)
(25.8511 9.80341 6.36487e-17)
(26.0391 9.46791 -1.05437e-17)
(26.2015 9.12952 -7.44501e-23)
(13.3508 12.9402 1.46254e-17)
(13.9705 13.1016 -1.15887e-21)
(14.5834 13.2356 -2.73296e-17)
(15.1889 13.3427 5.28251e-21)
(15.7868 13.4231 -5.36702e-21)
(16.3762 13.4773 -5.02145e-17)
(16.9565 13.5059 0)
(17.5268 13.5093 9.58863e-17)
(18.0862 13.4881 1.97268e-21)
(18.634 13.4429 -9.21545e-17)
(19.1692 13.3745 -9.05655e-17)
(19.691 13.2834 2.67645e-16)
(20.1986 13.1706 2.64118e-16)
(20.6911 13.0367 -3.48295e-16)
(21.1675 12.8828 1.72596e-16)
(21.6271 12.7099 1.714e-16)
(22.0689 12.5191 -4.26475e-16)
(22.4922 12.3114 3.40297e-16)
(22.8963 12.088 -2.55125e-16)
(23.2806 11.8502 8.518e-17)
(23.6443 11.5991 -2.56613e-16)
(23.987 11.3361 0)
(24.3083 11.0623 -8.45804e-17)
(24.6079 10.779 -4.15318e-17)
(24.8854 10.4875 -8.17636e-17)
(25.1405 10.1888 4.03389e-17)
(25.373 9.88417 5.06239e-21)
(25.5831 9.57476 -5.06779e-22)
(25.7708 9.26158 2.94607e-17)
(25.9346 8.94536 6.90358e-23)
(13.5677 12.4629 -2.74809e-17)
(14.1674 12.6131 5.30169e-17)
(14.759 12.7376 2.56273e-17)
(15.3422 12.8368 -1.49053e-16)
(15.9168 12.9112 4.82626e-17)
(16.4824 12.9613 -9.39813e-17)
(17.0384 12.9875 0)
(17.5843 12.9905 -2.68769e-16)
(18.1194 12.9708 3.50819e-16)
(18.6428 12.9289 -1.46646e-20)
(19.1541 12.8656 -2.5344e-16)
(19.6525 12.7815 1.03266e-20)
(20.1374 12.6772 -1.64033e-16)
(20.608 12.5535 1.62148e-16)
(21.0636 12.4114 -8.03063e-17)
(21.5033 12.2516 0)
(21.9265 12.0753 7.92933e-17)
(22.3324 11.8833 -7.90461e-17)
(22.7205 11.6768 7.89611e-17)
(23.0901 11.4567 -7.90708e-17)
(23.4407 11.2243 7.93515e-17)
(23.7719 10.9806 -7.98276e-17)
(24.0832 10.7267 0)
(24.3743 10.4638 -7.74611e-17)
(24.6449 10.193 7.62162e-17)
(24.8947 9.91534 -3.75784e-17)
(25.1235 9.63185 0)
(25.3314 9.34359 1.84054e-17)
(25.5183 9.05147 0)
(25.6828 8.75624 4.19312e-18)
(13.7731 11.9982 -6.45619e-18)
(14.3543 12.1384 -9.95377e-17)
(14.926 12.2544 7.21197e-17)
(15.4884 12.3466 4.65574e-17)
(16.0413 12.4157 -9.03829e-17)
(16.5847 12.4622 8.79308e-17)
(17.1181 12.4865 -1.71417e-16)
(17.6412 12.4892 1.67421e-16)
(18.1534 12.471 0)
(18.6543 12.4323 8.02432e-17)
(19.1432 12.3738 0)
(19.6198 12.2961 -1.54964e-16)
(20.0835 12.1998 1.18163e-20)
(20.5336 12.0857 1.50912e-16)
(20.9695 11.9544 -2.24112e-16)
(21.3906 11.8069 -3.25393e-21)
(21.7962 11.644 -2.21044e-16)
(22.1858 11.4666 2.20239e-16)
(22.5587 11.2757 7.32964e-17)
(22.9144 11.0721 -1.4673e-16)
(23.2525 10.857 7.35826e-17)
(23.5726 10.6312 -7.39887e-17)
(23.8741 10.3959 2.20745e-16)
(24.157 10.1521 -1.44404e-16)
(24.4207 9.90067 7.10057e-17)
(24.6652 9.64266 -1.39999e-16)
(24.89 9.379 1.03762e-16)
(25.0954 9.11063 2.54078e-21)
(25.2812 8.83841 1.70111e-17)
(25.446 8.56303 6.10735e-22)
(13.9681 11.5456 -2.42717e-17)
(14.532 11.6769 4.67279e-17)