/*--------------------------------*- C++ -*----------------------------------*\
  =========                 |
  \\      /  F ield         | OpenFOAM: The Open Source CFD Toolbox
   \\    /   O peration     | Website:  https://openfoam.org
    \\  /    A nd           | Version:  8
     \\/     M anipulation  |
\*---------------------------------------------------------------------------*/
FoamFile
{
    version     2.0;
    format      ascii;
    class       volScalarField;
    location    "29";
    object      nuTilda;
}
// * * * * * * * * * * * * * * * * * * * * * * * * * * * * * * * * * * * * * //

dimensions      [0 2 -1 0 0 0 0];

internalField   nonuniform List<scalar> 
277560
(
0.139962
0.139901
0.13984
0.139774
0.1397
0.139614
0.139517
0.139407
0.139284
0.139148
0.139001
0.138843
0.138675
0.138498
0.138314
0.138124
0.13793
0.137731
0.13753
0.137328
0.137123
0.136919
0.136714
0.136508
0.136304
0.136099
0.135895
0.135692
0.135489
0.135287
0.135084
0.134882
0.13468
0.134477
0.134274
0.13407
0.133866
0.133661
0.133455
0.133248
0.13304
0.132831
0.132621
0.132411
0.132199
0.131988
0.131778
0.131568
0.131361
0.131156
0.130955
0.130758
0.130568
0.130385
0.13021
0.130046
0.129893
0.129752
0.129626
0.129516
0.129423
0.129348
0.129292
0.129257
0.129242
0.12925
0.129279
0.12933
0.129404
0.129498
0.129614
0.129749
0.129902
0.130072
0.130257
0.130454
0.130663
0.130881
0.131107
0.131339
0.131575
0.131815
0.132057
0.132299
0.132541
0.132781
0.133019
0.133253
0.133483
0.133708
0.133928
0.134141
0.134348
0.134548
0.134741
0.134927
0.135105
0.135275
0.135437
0.135591
0.135735
0.135871
0.135998
0.136116
0.136225
0.136325
0.136417
0.136501
0.136577
0.136646
0.136707
0.136761
0.136809
0.13685
0.136886
0.136916
0.13694
0.13696
0.136975
0.136985
0.139975
0.139921
0.139863
0.139797
0.139722
0.139636
0.139537
0.139426
0.139301
0.139164
0.139015
0.138854
0.138684
0.138506
0.13832
0.138129
0.137933
0.137734
0.137532
0.137328
0.137124
0.136919
0.136713
0.136508
0.136304
0.136099
0.135896
0.135693
0.13549
0.135288
0.135086
0.134884
0.134683
0.13448
0.134278
0.134075
0.133871
0.133666
0.133461
0.133254
0.133047
0.132838
0.132628
0.132418
0.132207
0.131996
0.131786
0.131576
0.131368
0.131164
0.130962
0.130766
0.130575
0.130392
0.130217
0.130052
0.129899
0.129759
0.129633
0.129522
0.129429
0.129354
0.129299
0.129264
0.129251
0.129259
0.12929
0.129343
0.129419
0.129517
0.129637
0.129777
0.129936
0.130112
0.130303
0.130507
0.130722
0.130945
0.131176
0.131413
0.131654
0.131898
0.132144
0.13239
0.132636
0.13288
0.133121
0.133359
0.133592
0.133821
0.134043
0.13426
0.134469
0.134672
0.134866
0.135053
0.135232
0.135402
0.135564
0.135717
0.135861
0.135996
0.136122
0.13624
0.136349
0.136449
0.136541
0.136624
0.1367
0.136769
0.13683
0.136884
0.136931
0.136972
0.137007
0.137036
0.13706
0.137078
0.137092
0.137102
0.139981
0.139934
0.139878
0.139813
0.139737
0.139649
0.139547
0.139433
0.139304
0.139163
0.13901
0.138845
0.138671
0.138489
0.1383
0.138106
0.137908
0.137708
0.137505
0.137301
0.137096
0.136891
0.136686
0.136482
0.136279
0.136077
0.135875
0.135675
0.135475
0.135276
0.135077
0.134878
0.134678
0.134479
0.134279
0.134078
0.133876
0.133673
0.133469
0.133264
0.133058
0.13285
0.132641
0.132432
0.132221
0.132011
0.131801
0.131591
0.131384
0.131179
0.130977
0.13078
0.130589
0.130406
0.130231
0.130065
0.129912
0.129771
0.129645
0.129534
0.129441
0.129366
0.129311
0.129277
0.129265
0.129275
0.129308
0.129364
0.129443
0.129546
0.129672
0.129819
0.129986
0.13017
0.130368
0.130578
0.130799
0.131028
0.131265
0.131507
0.131754
0.132003
0.132254
0.132506
0.132757
0.133006
0.133253
0.133496
0.133734
0.133968
0.134195
0.134416
0.13463
0.134837
0.135035
0.135225
0.135407
0.13558
0.135745
0.1359
0.136046
0.136183
0.136311
0.13643
0.13654
0.136642
0.136735
0.136819
0.136896
0.136965
0.137026
0.13708
0.137127
0.137167
0.137201
0.137229
0.137251
0.137267
0.137279
0.137285
0.139985
0.139942
0.139887
0.139822
0.139744
0.139653
0.139548
0.139428
0.139295
0.139148
0.138988
0.138818
0.138639
0.138452
0.138259
0.138062
0.137862
0.13766
0.137457
0.137254
0.137051
0.136849
0.136648
0.136448
0.136249
0.136051
0.135853
0.135657
0.135461
0.135265
0.13507
0.134874
0.134678
0.134482
0.134285
0.134087
0.133888
0.133687
0.133485
0.133282
0.133077
0.132871
0.132664
0.132455
0.132245
0.132035
0.131825
0.131616
0.131409
0.131204
0.131002
0.130805
0.130613
0.130429
0.130253
0.130087
0.129933
0.129791
0.129665
0.129554
0.12946
0.129385
0.129331
0.129298
0.129286
0.129298
0.129333
0.129393
0.129476
0.129584
0.129716
0.129871
0.130046
0.130237
0.130442
0.130659
0.130886
0.131122
0.131365
0.131613
0.131866
0.132122
0.13238
0.132638
0.132895
0.133151
0.133404
0.133654
0.133899
0.134139
0.134372
0.134599
0.134819
0.135031
0.135235
0.135431
0.135618
0.135796
0.135964
0.136123
0.136273
0.136414
0.136545
0.136667
0.13678
0.136883
0.136978
0.137064
0.137142
0.137211
0.137273
0.137327
0.137373
0.137412
0.137444
0.13747
0.137489
0.137503
0.137511
0.137513
0.139986
0.139946
0.139892
0.139825
0.139745
0.13965
0.139539
0.139413
0.139273
0.139119
0.138952
0.138775
0.13859
0.138398
0.138202
0.138003
0.137803
0.137603
0.137403
0.137204
0.137005
0.136808
0.136611
0.136416
0.136221
0.136028
0.135835
0.135643
0.135451
0.13526
0.135069
0.134877
0.134685
0.134493
0.134299
0.134105
0.133908
0.133711
0.133512
0.133311
0.133108
0.132904
0.132698
0.13249
0.132282
0.132072
0.131863
0.131654
0.131447
0.131241
0.131039
0.130841
0.130649
0.130464
0.130287
0.13012
0.129964
0.129822
0.129694
0.129582
0.129488
0.129413
0.129359
0.129326
0.129315
0.129329
0.129367
0.129429
0.129517
0.12963
0.129768
0.12993
0.130112
0.13031
0.130521
0.130745
0.130979
0.131221
0.131471
0.131726
0.131986
0.13225
0.132515
0.13278
0.133045
0.133309
0.133569
0.133827
0.134079
0.134326
0.134568
0.134802
0.135029
0.135248
0.135459
0.135661
0.135854
0.136037
0.136212
0.136376
0.136531
0.136676
0.136811
0.136937
0.137053
0.137159
0.137257
0.137344
0.137423
0.137494
0.137555
0.137609
0.137654
0.137692
0.137722
0.137745
0.137761
0.13777
0.137773
0.13777
0.139987
0.139948
0.139894
0.139825
0.13974
0.13964
0.139523
0.13939
0.139241
0.139078
0.138904
0.13872
0.138529
0.138334
0.138137
0.13794
0.137743
0.137546
0.137351
0.137156
0.136962
0.13677
0.136578
0.136388
0.136198
0.13601
0.135823
0.135636
0.135449
0.135263
0.135076
0.13489
0.134702
0.134514
0.134325
0.134134
0.133942
0.133747
0.133551
0.133353
0.133153
0.132951
0.132746
0.13254
0.132333
0.132125
0.131916
0.131707
0.1315
0.131294
0.131091
0.130892
0.130699
0.130512
0.130334
0.130166
0.130009
0.129864
0.129735
0.129622
0.129527
0.129451
0.129396
0.129363
0.129353
0.129368
0.129407
0.129473
0.129564
0.129682
0.129826
0.129994
0.130182
0.130387
0.130605
0.130835
0.131075
0.131324
0.131581
0.131844
0.132112
0.132382
0.132655
0.132929
0.133202
0.133474
0.133743
0.134009
0.13427
0.134525
0.134775
0.135017
0.135252
0.135479
0.135698
0.135907
0.136107
0.136298
0.136478
0.136649
0.136809
0.13696
0.1371
0.137229
0.137349
0.137459
0.137559
0.137649
0.137729
0.1378
0.137862
0.137915
0.137959
0.137995
0.138023
0.138042
0.138055
0.138059
0.138057
0.138048
0.139987
0.139948
0.139892
0.13982
0.13973
0.139624
0.139499
0.139357
0.139199
0.139028
0.138845
0.138655
0.138462
0.138267
0.138073
0.137879
0.137686
0.137493
0.137302
0.137113
0.136924
0.136737
0.136551
0.136366
0.136183
0.136
0.135819
0.135637
0.135457
0.135276
0.135095
0.134914
0.134732
0.134549
0.134364
0.134178
0.13399
0.133799
0.133607
0.133412
0.133215
0.133015
0.132813
0.132609
0.132403
0.132195
0.131987
0.131778
0.131571
0.131364
0.131161
0.130961
0.130766
0.130577
0.130397
0.130227
0.130067
0.129921
0.129789
0.129674
0.129577
0.1295
0.129443
0.12941
0.1294
0.129415
0.129456
0.129523
0.129618
0.129739
0.129889
0.130062
0.130256
0.130466
0.13069
0.130926
0.131173
0.13143
0.131694
0.131964
0.132239
0.132518
0.132799
0.133081
0.133363
0.133644
0.133922
0.134196
0.134466
0.134731
0.134989
0.135241
0.135484
0.13572
0.135947
0.136164
0.136372
0.13657
0.136757
0.136934
0.137101
0.137257
0.137402
0.137537
0.137661
0.137774
0.137876
0.137969
0.138051
0.138122
0.138185
0.138237
0.13828
0.138314
0.138339
0.138355
0.138363
0.138363
0.138355
0.13834
0.139987
0.139946
0.139888
0.139811
0.139716
0.139602
0.139469
0.139317
0.13915
0.138969
0.13878
0.138588
0.138396
0.138203
0.138012
0.137822
0.137633
0.137446
0.13726
0.137075
0.136893
0.136711
0.136532
0.136354
0.136177
0.136001
0.135826
0.135651
0.135477
0.135303
0.135128
0.134953
0.134777
0.1346
0.134421
0.134239
0.134056
0.13387
0.133682
0.13349
0.133296
0.133099
0.132899
0.132697
0.132492
0.132286
0.132078
0.13187
0.131662
0.131455
0.13125
0.131048
0.130852
0.130661
0.130478
0.130305
0.130143
0.129993
0.129859
0.12974
0.129641
0.129561
0.129502
0.129467
0.129456
0.129471
0.129512
0.129581
0.129677
0.129802
0.129955
0.130134
0.130332
0.130547
0.130777
0.131019
0.131272
0.131535
0.131806
0.132084
0.132367
0.132654
0.132943
0.133234
0.133525
0.133815
0.134102
0.134386
0.134665
0.134939
0.135207
0.135467
0.13572
0.135965
0.1362
0.136426
0.136642
0.136848
0.137043
0.137227
0.1374
0.137562
0.137713
0.137853
0.137981
0.138098
0.138203
0.138298
0.138382
0.138455
0.138517
0.138569
0.138611
0.138643
0.138665
0.138678
0.138682
0.138676
0.138662
0.13864
0.139986
0.139943
0.139881
0.139799
0.139697
0.139575
0.139432
0.13927
0.139093
0.138906
0.138715
0.138524
0.138334
0.138145
0.137957
0.137771
0.137587
0.137405
0.137225
0.137046
0.13687
0.136696
0.136523
0.136352
0.136183
0.136014
0.135847
0.13568
0.135513
0.135346
0.135179
0.13501
0.134841
0.134669
0.134496
0.134321
0.134142
0.133961
0.133777
0.133589
0.133399
0.133205
0.133007
0.132807
0.132604
0.132398
0.132191
0.131983
0.131774
0.131566
0.131359
0.131156
0.130957
0.130764
0.130578
0.130402
0.130236
0.130083
0.129944
0.129822
0.129719
0.129635
0.129574
0.129536
0.129523
0.129536
0.129577
0.129645
0.129743
0.129869
0.130025
0.130207
0.13041
0.13063
0.130864
0.131112
0.131371
0.13164
0.131918
0.132203
0.132494
0.132789
0.133086
0.133386
0.133686
0.133984
0.134281
0.134574
0.134863
0.135147
0.135424
0.135694
0.135957
0.13621
0.136455
0.13669
0.136914
0.137128
0.137331
0.137522
0.137702
0.137871
0.138027
0.138172
0.138305
0.138426
0.138535
0.138632
0.138718
0.138792
0.138855
0.138907
0.138947
0.138977
0.138997
0.139006
0.139005
0.138995
0.138975
0.138946
0.139985
0.139939
0.139872
0.139784
0.139675
0.139543
0.13939
0.139218
0.139034
0.138843
0.138653
0.138464
0.138277
0.138091
0.137908
0.137727
0.137548
0.137372
0.137199
0.137027
0.136858
0.136692
0.136527
0.136364
0.136203
0.136043
0.135884
0.135725
0.135566
0.135407
0.135247
0.135086
0.134924
0.134759
0.134592
0.134423
0.13425
0.134074
0.133894
0.133711
0.133524
0.133333
0.133138
0.13294
0.132738
0.132534
0.132327
0.132118
0.131909
0.131699
0.131491
0.131285
0.131084
0.130887
0.130698
0.130517
0.130347
0.13019
0.130047
0.12992
0.129812
0.129724
0.129658
0.129617
0.129601
0.129611
0.12965
0.129717
0.129814
0.129941
0.130099
0.130284
0.13049
0.130713
0.130952
0.131204
0.131469
0.131744
0.132028
0.13232
0.132618
0.13292
0.133226
0.133534
0.133843
0.134151
0.134457
0.134759
0.135058
0.135351
0.135638
0.135918
0.13619
0.136453
0.136707
0.136951
0.137184
0.137406
0.137617
0.137816
0.138004
0.138179
0.138341
0.138492
0.138629
0.138754
0.138867
0.138967
0.139055
0.139131
0.139194
0.139246
0.139286
0.139314
0.139331
0.139337
0.139332
0.139317
0.139291
0.139255
0.139984
0.139933
0.139861
0.139766
0.139648
0.139506
0.139343
0.139162
0.138973
0.138784
0.138596
0.13841
0.138226
0.138045
0.137867
0.137691
0.137519
0.13735
0.137184
0.13702
0.13686
0.136702
0.136546
0.136392
0.13624
0.136089
0.135939
0.135789
0.135639
0.135488
0.135336
0.135183
0.135028
0.134871
0.134711
0.134547
0.134381
0.13421
0.134036
0.133857
0.133673
0.133486
0.133294
0.133097
0.132897
0.132693
0.132487
0.132278
0.132067
0.131856
0.131646
0.131437
0.131232
0.131032
0.130838
0.130653
0.130478
0.130316
0.130167
0.130035
0.129922
0.129828
0.129757
0.12971
0.12969
0.129696
0.129732
0.129797
0.129892
0.130018
0.130176
0.130362
0.13057
0.130797
0.131039
0.131296
0.131565
0.131845
0.132135
0.132434
0.132738
0.133048
0.133362
0.133678
0.133995
0.134312
0.134627
0.134939
0.135247
0.13555
0.135847
0.136136
0.136418
0.136691
0.136954
0.137207
0.137449
0.13768
0.137899
0.138106
0.138301
0.138483
0.138652
0.138808
0.138951
0.13908
0.139197
0.1393
0.139391
0.139468
0.139532
0.139584
0.139623
0.13965
0.139665
0.139668
0.139659
0.139639
0.139607
0.139565
0.139982
0.139927
0.139848
0.139745
0.139617
0.139465
0.139292
0.139105
0.138916
0.138729
0.138544
0.138361
0.138182
0.138006
0.137834
0.137665
0.1375
0.137339
0.137181
0.137027
0.136876
0.136728
0.136582
0.136438
0.136295
0.136154
0.136013
0.135873
0.135732
0.13559
0.135447
0.135303
0.135156
0.135006
0.134853
0.134697
0.134537
0.134372
0.134203
0.134028
0.133849
0.133665
0.133476
0.133282
0.133083
0.13288
0.132673
0.132463
0.132251
0.132038
0.131825
0.131613
0.131404
0.131199
0.131
0.13081
0.130629
0.130461
0.130306
0.130168
0.130047
0.129947
0.12987
0.129817
0.12979
0.129792
0.129823
0.129884
0.129976
0.1301
0.130256
0.130443
0.130652
0.130881
0.131126
0.131386
0.131659
0.131944
0.132239
0.132543
0.132854
0.133171
0.133492
0.133816
0.134141
0.134467
0.13479
0.135112
0.135429
0.135741
0.136048
0.136347
0.136638
0.13692
0.137193
0.137455
0.137707
0.137946
0.138174
0.138389
0.138591
0.13878
0.138956
0.139118
0.139266
0.139401
0.139522
0.139629
0.139722
0.139801
0.139867
0.139919
0.139958
0.139984
0.139997
0.139997
0.139984
0.13996
0.139923
0.139874
0.13998
0.139919
0.139833
0.139721
0.139582
0.13942
0.139239
0.139051
0.138864
0.138679
0.138498
0.13832
0.138147
0.137977
0.137812
0.137651
0.137494
0.137342
0.137194
0.13705
0.136909
0.136771
0.136635
0.136502
0.13637
0.136239
0.136108
0.135978
0.135847
0.135715
0.135582
0.135447
0.135308
0.135167
0.135022
0.134873
0.13472
0.134561
0.134398
0.134228
0.134054
0.133873
0.133687
0.133494
0.133297
0.133094
0.132887
0.132677
0.132463
0.132247
0.13203
0.131814
0.1316
0.13139
0.131186
0.130989
0.130801
0.130626
0.130464
0.130318
0.13019
0.130083
0.129998
0.129937
0.129904
0.129898
0.129923
0.129979
0.130067
0.130187
0.13034
0.130526
0.130735
0.130965
0.131212
0.131474
0.131751
0.132039
0.132339
0.132648
0.132965
0.133288
0.133616
0.133947
0.13428
0.134613
0.134946
0.135276
0.135602
0.135924
0.13624
0.136548
0.136849
0.137141
0.137423
0.137694
0.137955
0.138203
0.138439
0.138663
0.138873
0.139069
0.139252
0.13942
0.139574
0.139714
0.13984
0.13995
0.140047
0.140129
0.140196
0.140249
0.140289
0.140314
0.140325
0.140323
0.140307
0.140278
0.140237
0.140182
0.139977
0.13991
0.139815
0.139693
0.139544
0.139372
0.139187
0.139
0.138816
0.138636
0.13846
0.138288
0.13812
0.137958
0.137801
0.137649
0.137502
0.13736
0.137223
0.137089
0.136959
0.136832
0.136708
0.136586
0.136465
0.136346
0.136226
0.136107
0.135987
0.135866
0.135743
0.135617
0.135488
0.135356
0.135219
0.135078
0.134932
0.13478
0.134622
0.134458
0.134288
0.134111
0.133928
0.133738
0.133542
0.13334
0.133132
0.13292
0.132703
0.132484
0.132264
0.132043
0.131823
0.131606
0.131395
0.13119
0.130995
0.130811
0.130641
0.130486
0.13035
0.130234
0.13014
0.130071
0.130029
0.130016
0.130034
0.130083
0.130165
0.13028
0.130429
0.130611
0.13082
0.131049
0.131297
0.131561
0.131839
0.132131
0.132435
0.132748
0.13307
0.133398
0.133732
0.13407
0.134411
0.134752
0.135092
0.13543
0.135766
0.136096
0.136421
0.136739
0.137049
0.13735
0.137642
0.137922
0.138192
0.138449
0.138694
0.138926
0.139144
0.139348
0.139537
0.139713
0.139873
0.140018
0.140149
0.140264
0.140364
0.140449
0.140518
0.140573
0.140613
0.140638
0.140648
0.140644
0.140626
0.140593
0.140547
0.140487
0.139975
0.1399
0.139795
0.139662
0.139503
0.139323
0.139138
0.138955
0.138775
0.1386
0.138429
0.138264
0.138104
0.137951
0.137803
0.137662
0.137525
0.137395
0.137268
0.137147
0.137029
0.136914
0.136802
0.136692
0.136584
0.136476
0.136369
0.136262
0.136154
0.136044
0.135931
0.135816
0.135697
0.135574
0.135446
0.135312
0.135173
0.135027
0.134875
0.134716
0.13455
0.134376
0.134196
0.134008
0.133814
0.133612
0.133405
0.133191
0.132973
0.132751
0.132526
0.132299
0.132073
0.131849
0.131629
0.131416
0.131212
0.131018
0.130838
0.130674
0.130528
0.130402
0.130298
0.13022
0.130168
0.130146
0.130154
0.130195
0.130269
0.130378
0.130521
0.130699
0.130905
0.131133
0.131381
0.131645
0.131925
0.132219
0.132525
0.132842
0.133168
0.133502
0.133841
0.134185
0.134532
0.13488
0.135228
0.135574
0.135918
0.136257
0.136591
0.136918
0.137237
0.137547
0.137848
0.138138
0.138416
0.138683
0.138936
0.139176
0.139402
0.139614
0.139811
0.139993
0.14016
0.140312
0.140447
0.140567
0.140671
0.140759
0.140832
0.140888
0.140929
0.140955
0.140965
0.140959
0.140939
0.140904
0.140853
0.140789
0.139971
0.139887
0.139773
0.139629
0.13946
0.139277
0.139095
0.138916
0.138741
0.138572
0.138408
0.138251
0.1381
0.137957
0.13782
0.13769
0.137565
0.137446
0.137333
0.137224
0.137119
0.137017
0.136918
0.136822
0.136727
0.136633
0.136539
0.136444
0.136348
0.136249
0.136147
0.136041
0.13593
0.135814
0.135693
0.135565
0.135431
0.135291
0.135143
0.134988
0.134826
0.134656
0.134479
0.134294
0.134101
0.133901
0.133695
0.133482
0.133263
0.133039
0.132811
0.132581
0.132349
0.132118
0.131889
0.131666
0.131451
0.131247
0.131056
0.130881
0.130723
0.130586
0.130472
0.130382
0.13032
0.130287
0.130285
0.130316
0.130382
0.130482
0.130618
0.130789
0.130992
0.131218
0.131464
0.131728
0.132008
0.132303
0.132611
0.13293
0.13326
0.133597
0.133942
0.134291
0.134644
0.134998
0.135353
0.135707
0.136058
0.136405
0.136748
0.137083
0.137411
0.137731
0.13804
0.138339
0.138627
0.138902
0.139165
0.139413
0.139648
0.139868
0.140072
0.140262
0.140435
0.140593
0.140734
0.140859
0.140968
0.14106
0.141136
0.141195
0.141238
0.141264
0.141274
0.141268
0.141246
0.141208
0.141155
0.141086
0.139967
0.139874
0.139748
0.139592
0.139417
0.139236
0.139058
0.138884
0.138715
0.138553
0.138397
0.138249
0.138109
0.137977
0.137852
0.137734
0.137623
0.137517
0.137417
0.137322
0.137231
0.137144
0.137059
0.136977
0.136897
0.136816
0.136734
0.13665
0.136563
0.136473
0.136379
0.13628
0.136176
0.136066
0.13595
0.135828
0.135699
0.135563
0.13542
0.135269
0.13511
0.134944
0.134769
0.134587
0.134396
0.134199
0.133993
0.133781
0.133563
0.133339
0.13311
0.132877
0.132642
0.132406
0.132171
0.13194
0.131714
0.131498
0.131294
0.131106
0.130936
0.130787
0.13066
0.130559
0.130484
0.13044
0.130426
0.130447
0.130502
0.130592
0.130719
0.130882
0.131079
0.131302
0.131545
0.131808
0.132087
0.132383
0.132691
0.133013
0.133345
0.133685
0.134033
0.134387
0.134745
0.135105
0.135467
0.135827
0.136186
0.136541
0.136891
0.137235
0.137572
0.1379
0.138218
0.138526
0.138823
0.139107
0.139378
0.139635
0.139878
0.140106
0.140319
0.140516
0.140697
0.140861
0.141008
0.141139
0.141253
0.141349
0.141429
0.141491
0.141536
0.141564
0.141575
0.141569
0.141546
0.141507
0.141451
0.141378
0.139963
0.139858
0.13972
0.139555
0.139377
0.1392
0.139027
0.138859
0.138697
0.138544
0.138398
0.138261
0.138133
0.138013
0.137901
0.137796
0.137699
0.137608
0.137522
0.137443
0.137367
0.137295
0.137226
0.137158
0.137089
0.137018
0.136946
0.13687
0.136791
0.136708
0.13662
0.136527
0.136429
0.136324
0.136214
0.136096
0.135972
0.13584
0.1357
0.135553
0.135398
0.135234
0.135063
0.134883
0.134695
0.134499
0.134296
0.134085
0.133868
0.133644
0.133415
0.133181
0.132944
0.132706
0.132466
0.132229
0.131995
0.131768
0.131552
0.131351
0.131167
0.131004
0.130864
0.130749
0.130662
0.130604
0.130578
0.130586
0.130629
0.130709
0.130825
0.130979
0.131169
0.131386
0.131626
0.131886
0.132164
0.132458
0.132767
0.133089
0.133422
0.133765
0.134116
0.134474
0.134836
0.135202
0.135569
0.135935
0.136301
0.136663
0.13702
0.137372
0.137717
0.138054
0.138381
0.138698
0.139003
0.139296
0.139576
0.139842
0.140093
0.14033
0.140551
0.140755
0.140943
0.141115
0.141269
0.141406
0.141525
0.141626
0.14171
0.141776
0.141824
0.141854
0.141867
0.141861
0.141838
0.141798
0.14174
0.141665
0.139957
0.13984
0.13969
0.139519
0.139343
0.13917
0.139003
0.138842
0.13869
0.138546
0.138412
0.138287
0.138172
0.138065
0.137967
0.137878
0.137795
0.13772
0.137651
0.137587
0.137528
0.13747
0.137412
0.137354
0.137294
0.137232
0.137166
0.137098
0.137025
0.136948
0.136866
0.136779
0.136685
0.136586
0.13648
0.136367
0.136246
0.136118
0.135982
0.135839
0.135687
0.135526
0.135357
0.13518
0.134995
0.134801
0.134599
0.13439
0.134174
0.133951
0.133722
0.133488
0.133251
0.13301
0.132768
0.132527
0.132288
0.132053
0.131827
0.131612
0.131414
0.131237
0.131082
0.130953
0.130852
0.13078
0.13074
0.130735
0.130765
0.130832
0.130936
0.131079
0.131259
0.131471
0.131706
0.131962
0.132237
0.132529
0.132837
0.133159
0.133493
0.133837
0.134191
0.134551
0.134917
0.135287
0.135658
0.136031
0.136402
0.136771
0.137135
0.137495
0.137847
0.138192
0.138528
0.138853
0.139167
0.139469
0.139757
0.140032
0.140292
0.140537
0.140766
0.140979
0.141175
0.141353
0.141514
0.141658
0.141783
0.14189
0.141979
0.142049
0.142101
0.142134
0.142148
0.142144
0.142122
0.142081
0.142022
0.141945
0.139951
0.139821
0.13966
0.139487
0.139315
0.139148
0.138988
0.138835
0.138693
0.138561
0.138439
0.138328
0.138227
0.138135
0.138053
0.137979
0.137914
0.137856
0.137803
0.137753
0.137705
0.137657
0.137609
0.137559
0.137506
0.137451
0.137393
0.13733
0.137263
0.137192
0.137115
0.137032
0.136944
0.136849
0.136747
0.136638
0.136521
0.136397
0.136265
0.136124
0.135975
0.135818
0.135652
0.135477
0.135294
0.135102
0.134903
0.134695
0.13448
0.134258
0.13403
0.133796
0.133558
0.133317
0.133073
0.132829
0.132586
0.132346
0.132113
0.131888
0.131677
0.131484
0.131314
0.13117
0.131053
0.130967
0.130912
0.130892
0.130908
0.130961
0.131052
0.131183
0.131352
0.131555
0.131784
0.132035
0.132307
0.132596
0.132902
0.133223
0.133556
0.133901
0.134256
0.134618
0.134987
0.13536
0.135736
0.136113
0.13649
0.136864
0.137236
0.137602
0.137962
0.138314
0.138658
0.138991
0.139314
0.139624
0.139921
0.140205
0.140474
0.140727
0.140964
0.141185
0.141389
0.141576
0.141744
0.141894
0.142026
0.142139
0.142234
0.142309
0.142365
0.142401
0.142419
0.142417
0.142396
0.142356
0.142297
0.142218
0.139944
0.1398
0.139632
0.139461
0.139294
0.139133
0.138981
0.138839
0.138709
0.138589
0.138481
0.138385
0.138299
0.138224
0.138158
0.138103
0.138054
0.138011
0.137971
0.137932
0.137893
0.137853
0.137812
0.137769
0.137723
0.137674
0.137622
0.137565
0.137504
0.137437
0.137365
0.137288
0.137203
0.137113
0.137015
0.136909
0.136797
0.136676
0.136547
0.136409
0.136263
0.136109
0.135945
0.135773
0.135592
0.135402
0.135205
0.134999
0.134785
0.134564
0.134337
0.134104
0.133866
0.133624
0.133379
0.133133
0.132887
0.132644
0.132404
0.132172
0.131951
0.131744
0.131559
0.131399
0.131266
0.131164
0.131094
0.131058
0.131059
0.131097
0.131174
0.13129
0.131446
0.13164
0.131862
0.132107
0.132374
0.132659
0.132962
0.13328
0.133612
0.133957
0.134312
0.134675
0.135046
0.135422
0.135801
0.136182
0.136563
0.136943
0.137321
0.137693
0.13806
0.13842
0.138771
0.139112
0.139443
0.139762
0.140068
0.14036
0.140637
0.140899
0.141145
0.141375
0.141587
0.141781
0.141957
0.142115
0.142254
0.142374
0.142474
0.142555
0.142616
0.142657
0.142678
0.142679
0.14266
0.142621
0.142562
0.142484
0.139936
0.139779
0.139609
0.139441
0.13928
0.139127
0.138985
0.138855
0.138737
0.138632
0.138539
0.138459
0.13839
0.138332
0.138285
0.138246
0.138211
0.138178
0.138147
0.138117
0.138086
0.138053
0.138019
0.137983
0.137943
0.1379
0.137853
0.137802
0.137745
0.137684
0.137616
0.137543
0.137463
0.137376
0.137282
0.137181
0.137071
0.136954
0.136828
0.136693
0.13655
0.136398
0.136237
0.136067
0.135888
0.135701
0.135505
0.1353
0.135088
0.134869
0.134642
0.13441
0.134172
0.13393
0.133684
0.133437
0.133189
0.132943
0.132699
0.132461
0.132232
0.132014
0.131814
0.131638
0.13149
0.131371
0.131285
0.131233
0.131217
0.131239
0.131301
0.131402
0.131544
0.131726
0.131939
0.132177
0.132438
0.132718
0.133017
0.133332
0.133662
0.134005
0.134359
0.134723
0.135094
0.135472
0.135854
0.136238
0.136624
0.137008
0.13739
0.137769
0.138142
0.138508
0.138867
0.139216
0.139554
0.139881
0.140196
0.140496
0.140782
0.141053
0.141308
0.141546
0.141767
0.141969
0.142154
0.142319
0.142465
0.142592
0.142699
0.142786
0.142852
0.142899
0.142924
0.142929
0.142913
0.142876
0.142819
0.142741
0.139927
0.13976
0.139592
0.139428
0.139274
0.13913
0.139
0.138883
0.138779
0.13869
0.138614
0.138551
0.138501
0.138461
0.138429
0.138401
0.138376
0.138352
0.138329
0.138306
0.138282
0.138256
0.138229
0.138198
0.138165
0.138127
0.138085
0.138039
0.137988
0.137931
0.137868
0.137799
0.137723
0.13764
0.137549
0.137451
0.137345
0.13723
0.137107
0.136976
0.136835
0.136686
0.136527
0.13636
0.136183
0.135997
0.135803
0.1356
0.135389
0.135171
0.134946
0.134714
0.134476
0.134234
0.133988
0.13374
0.13349
0.133241
0.132995
0.132752
0.132517
0.132291
0.132079
0.131888
0.131723
0.131588
0.131485
0.131416
0.131383
0.131388
0.131433
0.131519
0.131645
0.131812
0.132015
0.132245
0.132499
0.132773
0.133067
0.133378
0.133704
0.134045
0.134398
0.134761
0.135132
0.135511
0.135894
0.136281
0.13667
0.137058
0.137445
0.137829
0.138208
0.13858
0.138946
0.139302
0.139648
0.139983
0.140305
0.140614
0.140909
0.141188
0.141452
0.141699
0.141928
0.142139
0.142332
0.142506
0.14266
0.142794
0.142908
0.143002
0.143075
0.143126
0.143157
0.143166
0.143154
0.143121
0.143066
0.142989
0.139918
0.139747
0.13958
0.139422
0.139276
0.139144
0.139026
0.138924
0.138836
0.138763
0.138706
0.138662
0.138629
0.138602
0.138581
0.138562
0.138545
0.13853
0.138514
0.138498
0.138481
0.138461
0.13844
0.138415
0.138387
0.138355
0.138319
0.138277
0.13823
0.138178
0.138119
0.138054
0.137982
0.137902
0.137815
0.137721
0.137618
0.137506
0.137386
0.137257
0.137119
0.136972
0.136816
0.13665
0.136475
0.136292
0.136099
0.135898
0.135688
0.135471
0.135247
0.135016
0.134779
0.134536
0.13429
0.134041
0.133791
0.13354
0.13329
0.133044
0.132803
0.132571
0.13235
0.132146
0.131965
0.131813
0.131693
0.131606
0.131556
0.131544
0.131572
0.13164
0.131749
0.1319
0.132091
0.132312
0.132557
0.132824
0.133112
0.133418
0.13374
0.134077
0.134428
0.134789
0.13516
0.135538
0.135923
0.136311
0.136702
0.137094
0.137485
0.137873
0.138257
0.138635
0.139007
0.13937
0.139723
0.140066
0.140396
0.140713
0.141016
0.141304
0.141577
0.141832
0.14207
0.14229
0.142492
0.142674
0.142836
0.142979
0.143101
0.143201
0.143281
0.143339
0.143376
0.143391
0.143383
0.143353
0.143301
0.143227
0.139912
0.139739
0.139575
0.139424
0.139288
0.139168
0.139065
0.138978
0.138908
0.138854
0.138816
0.138788
0.138766
0.13875
0.138738
0.138727
0.138718
0.13871
0.138701
0.138692
0.138681
0.138668
0.138652
0.138633
0.13861
0.138584
0.138552
0.138515
0.138473
0.138425
0.13837
0.138309
0.13824
0.138164
0.138081
0.137989
0.137889
0.13778
0.137663
0.137537
0.137401
0.137256
0.137102
0.136938
0.136766
0.136584
0.136393
0.136193
0.135985
0.135769
0.135546
0.135315
0.135079
0.134837
0.13459
0.134341
0.134089
0.133836
0.133585
0.133335
0.133091
0.132853
0.132625
0.13241
0.132214
0.132045
0.131908
0.131804
0.131736
0.131706
0.131715
0.131766
0.131858
0.131992
0.132167
0.132377
0.132613
0.132872
0.133153
0.133453
0.13377
0.134103
0.13445
0.134808
0.135178
0.135555
0.13594
0.136329
0.136721
0.137116
0.137509
0.137901
0.13829
0.138673
0.139051
0.13942
0.13978
0.14013
0.140468
0.140793
0.141104
0.141401
0.141682
0.141946
0.142193
0.142422
0.142633
0.142824
0.142995
0.143146
0.143276
0.143384
0.143472
0.143537
0.14358
0.143601
0.143599
0.143574
0.143526
0.143455
0.139908
0.139735
0.139576
0.139433
0.13931
0.139204
0.139117
0.139048
0.138997
0.138962
0.138938
0.138921
0.138909
0.138902
0.138897
0.138894
0.138893
0.138891
0.13889
0.138887
0.138882
0.138875
0.138865
0.138851
0.138834
0.138812
0.138786
0.138753
0.138716
0.138671
0.138621
0.138563
0.138498
0.138426
0.138345
0.138257
0.138159
0.138053
0.137939
0.137815
0.137681
0.137539
0.137386
0.137225
0.137054
0.136874
0.136684
0.136486
0.136279
0.136064
0.135842
0.135612
0.135376
0.135134
0.134888
0.134638
0.134385
0.134131
0.133878
0.133626
0.133377
0.133135
0.1329
0.132677
0.13247
0.132285
0.13213
0.132009
0.131923
0.131874
0.131865
0.131896
0.13197
0.132086
0.132244
0.132441
0.132667
0.132917
0.13319
0.133483
0.133794
0.134121
0.134464
0.134819
0.135185
0.135561
0.135945
0.136334
0.136727
0.137123
0.137519
0.137914
0.138307
0.138695
0.139077
0.139452
0.139819
0.140175
0.14052
0.140853
0.141173
0.141478
0.141767
0.142041
0.142297
0.142535
0.142754
0.142954
0.143134
0.143294
0.143433
0.14355
0.143645
0.143718
0.143769
0.143796
0.1438
0.143781
0.143738
0.143671
0.139907
0.139735
0.139583
0.139452
0.139342
0.139252
0.139182
0.139133
0.1391
0.139079
0.139065
0.139057
0.139055
0.139055
0.139058
0.139063
0.139068
0.139074
0.139079
0.139082
0.139084
0.139082
0.139078
0.13907
0.139058
0.139041
0.139019
0.138991
0.138958
0.138918
0.138871
0.138817
0.138755
0.138686
0.138609
0.138523
0.138428
0.138325
0.138213
0.138091
0.13796
0.137819
0.137669
0.137509
0.13734
0.137161
0.136974
0.136777
0.136571
0.136357
0.136136
0.135907
0.135671
0.13543
0.135183
0.134933
0.13468
0.134425
0.134169
0.133915
0.133663
0.133416
0.133177
0.132947
0.13273
0.132532
0.13236
0.13222
0.132116
0.132048
0.13202
0.132032
0.132086
0.132183
0.132323
0.132505
0.132719
0.132959
0.133223
0.133508
0.133812
0.134133
0.13447
0.134821
0.135184
0.135557
0.135939
0.136327
0.136721
0.137117
0.137515
0.137912
0.138308
0.1387
0.139086
0.139467
0.139839
0.140202
0.140554
0.140894
0.141222
0.141535
0.141833
0.142115
0.14238
0.142627
0.142856
0.143065
0.143255
0.143424
0.143571
0.143697
0.143801
0.143883
0.143941
0.143976
0.143987
0.143975
0.143937
0.143875
0.139906
0.139739
0.139597
0.139479
0.139384
0.139312
0.139262
0.13923
0.13921
0.139199
0.139195
0.139196
0.139201
0.13921
0.13922
0.139232
0.139245
0.139257
0.139268
0.139278
0.139286
0.13929
0.139292
0.139289
0.139282
0.13927
0.139252
0.139229
0.1392
0.139164
0.13912
0.13907
0.139012
0.138946
0.138871
0.138788
0.138696
0.138595
0.138485
0.138366
0.138237
0.138098
0.13795
0.137792
0.137624
0.137447
0.13726
0.137065
0.136861
0.136648
0.136427
0.136199
0.135964
0.135723
0.135476
0.135226