/*--------------------------------*- C++ -*----------------------------------*\
  =========                 |
  \\      /  F ield         | OpenFOAM: The Open Source CFD Toolbox
   \\    /   O peration     | Website:  https://openfoam.org
    \\  /    A nd           | Version:  8
     \\/     M anipulation  |
\*---------------------------------------------------------------------------*/
FoamFile
{
    version     2.0;
    format      ascii;
    class       volScalarField;
    location    "29";
    object      p;
}
// * * * * * * * * * * * * * * * * * * * * * * * * * * * * * * * * * * * * * //

dimensions      [0 2 -2 0 0 0 0];

internalField   nonuniform List<scalar> 
277560
(
-0.0192391
-0.000694366
0.00133314
0.0023493
0.00488795
0.00731721
0.0098807
0.0126755
0.0156999
0.0189773
0.022529
0.0263701
0.0305133
0.0349681
0.0397418
0.0448386
0.0502611
0.0560094
0.062082
0.0684754
0.075185
0.0822042
0.0895257
0.0971404
0.105039
0.11321
0.121642
0.130322
0.139239
0.148377
0.157723
0.167263
0.17698
0.18686
0.196888
0.207047
0.217321
0.227695
0.238152
0.248676
0.25925
0.26986
0.280487
0.291117
0.301733
0.312319
0.32286
0.333341
0.343744
0.354056
0.364261
0.374344
0.38429
0.394086
0.403717
0.41317
0.42243
0.431486
0.440324
0.448932
0.4573
0.465416
0.47327
0.480853
0.488157
0.495173
0.501895
0.508318
0.514437
0.520249
0.525752
0.530946
0.535832
0.540413
0.544692
0.548673
0.552362
0.555764
0.558885
0.561732
0.564314
0.566636
0.56871
0.570542
0.572144
0.573523
0.574692
0.575659
0.576435
0.577031
0.577457
0.577724
0.577841
0.57782
0.57767
0.5774
0.577021
0.57654
0.575969
0.575315
0.574586
0.573791
0.572937
0.57203
0.571078
0.570085
0.569057
0.567998
0.566915
0.565809
0.564684
0.563541
0.562383
0.561212
0.560031
0.558832
0.557596
0.556418
0.555685
0.554948
-0.0180087
-0.00178253
0.0013851
0.00233045
0.00477856
0.00721587
0.00975873
0.0125301
0.0155328
0.0187879
0.0223167
0.0261347
0.0302544
0.0346855
0.0394349
0.0445072
0.0499047
0.0556276
0.0616744
0.0680416
0.0747243
0.0817163
0.0890099
0.0965964
0.104466
0.112607
0.121009
0.12966
0.138545
0.147651
0.156965
0.166471
0.176155
0.186001
0.195993
0.206116
0.216355
0.226691
0.23711
0.247596
0.258131
0.2687
0.279288
0.289876
0.300451
0.310995
0.321493
0.33193
0.34229
0.352557
0.362717
0.372754
0.382655
0.392404
0.401989
0.411394
0.420607
0.429615
0.438405
0.446965
0.455284
0.463351
0.471156
0.478689
0.485943
0.49291
0.499582
0.505955
0.512024
0.517786
0.523238
0.528381
0.533217
0.537746
0.541974
0.545903
0.549541
0.552891
0.555961
0.558757
0.561286
0.563556
0.565576
0.567355
0.568903
0.570228
0.571341
0.572253
0.572973
0.573513
0.573882
0.574092
0.574152
0.574073
0.573865
0.573537
0.573101
0.572563
0.571935
0.571224
0.570439
0.569586
0.568675
0.567711
0.566702
0.565652
0.564568
0.563453
0.562314
0.561153
0.559973
0.558776
0.557564
0.55634
0.555107
0.553855
0.552567
0.551345
0.550574
0.549768
-0.0179189
-0.00210334
0.00135843
0.00221431
0.00461287
0.00702589
0.00953005
0.0122624
0.0152263
0.0184418
0.0219304
0.0257077
0.029786
0.0341752
0.038882
0.043911
0.0492646
0.0549429
0.0609443
0.0672654
0.0739013
0.0808458
0.088091
0.0956282
0.103448
0.111538
0.119888
0.128486
0.137317
0.146369
0.155627
0.165076
0.174702
0.184489
0.194422
0.204484
0.21466
0.224933
0.235288
0.245708
0.256178
0.26668
0.277199
0.287719
0.298224
0.308697
0.319124
0.329489
0.339776
0.349969
0.360055
0.370018
0.379844
0.389518
0.399027
0.408356
0.417493
0.426423
0.435136
0.443619
0.451861
0.45985
0.467578
0.475034
0.48221
0.489098
0.495693
0.501988
0.507978
0.513661
0.519034
0.524098
0.528852
0.533302
0.53745
0.541301
0.544859
0.548131
0.551122
0.553838
0.556288
0.558479
0.56042
0.56212
0.563588
0.564834
0.565869
0.566702
0.567344
0.567806
0.568099
0.568232
0.568217
0.568064
0.567782
0.567383
0.566875
0.566269
0.565573
0.564796
0.563946
0.563032
0.562061
0.56104
0.559975
0.558873
0.557738
0.556577
0.555393
0.554191
0.552975
0.551746
0.550506
0.549259
0.548006
0.54674
0.545442
0.544214
0.543448
0.542672
-0.0179787
-0.00220542
0.00124896
0.00202936
0.00437612
0.00673745
0.00918443
0.0118594
0.0147653
0.0179219
0.0213508
0.0250676
0.0290846
0.0334114
0.038055
0.0430198
0.0483082
0.0539204
0.0598547
0.0661077
0.0726745
0.0795485
0.0867221
0.0941864
0.101932
0.109947
0.11822
0.126738
0.13549
0.14446
0.153634
0.162999
0.172538
0.182236
0.192079
0.202049
0.212132
0.22231
0.232569
0.242891
0.25326
0.263661
0.274077
0.284493
0.294891
0.305258
0.315576
0.325831
0.336006
0.346088
0.356061
0.365909
0.37562
0.385177
0.394568
0.403779
0.412796
0.421607
0.430199
0.43856
0.446679
0.454546
0.462149
0.46948
0.476531
0.483293
0.48976
0.495927
0.501788
0.50734
0.512581
0.51751
0.52213
0.526445
0.530458
0.534174
0.537596
0.540731
0.543585
0.546165
0.548476
0.55053
0.552332
0.553893
0.555222
0.55633
0.557225
0.557919
0.558423
0.558746
0.5589
0.558896
0.558743
0.558454
0.558036
0.557503
0.556861
0.556122
0.555294
0.554387
0.553408
0.552367
0.551268
0.550122
0.548932
0.547707
0.546451
0.54517
0.543868
0.542549
0.541218
0.539876
0.538526
0.537171
0.535811
0.53444
0.533037
0.531709
0.530853
0.529988
-0.0180125
-0.00227271
0.00107897
0.00178729
0.00406597
0.00635321
0.00872509
0.0113245
0.0141539
0.0172329
0.0205833
0.0242205
0.0281568
0.0324018
0.0369626
0.0418435
0.0470469
0.0525729
0.0584196
0.0645836
0.0710599
0.0778418
0.0849217
0.0922904
0.0999381
0.107854
0.116026
0.124441
0.133087
0.14195
0.151015
0.160268
0.169693
0.179276
0.189
0.19885
0.20881
0.218864
0.228996
0.239189
0.249428
0.259696
0.269977
0.280256
0.290516
0.300743
0.310919
0.32103
0.331061
0.340996
0.35082
0.360519
0.370079
0.379484
0.388722
0.397779
0.40664
0.415295
0.423729
0.431932
0.439892
0.447598
0.45504
0.462209
0.469096
0.475693
0.481995
0.487995
0.493688
0.49907
0.504139
0.508895
0.513342
0.517483
0.521322
0.524863
0.528112
0.531072
0.533752
0.536156
0.538293
0.540171
0.541798
0.543185
0.54434
0.545273
0.545996
0.546517
0.546849
0.547002
0.546988
0.546815
0.546497
0.546043
0.545464
0.54477
0.543972
0.543078
0.542099
0.541042
0.539918
0.538734
0.537497
0.536215
0.534895
0.533543
0.532164
0.530765
0.52935
0.527922
0.526488
0.525048
0.523607
0.522167
0.52073
0.519286
0.517817
0.516428
0.515528
0.514644
-0.0180483
-0.00232877
0.000865245
0.00149122
0.00368472
0.00587797
0.00815718
0.0106635
0.0133985
0.016382
0.0196358
0.0231753
0.0270126
0.0311576
0.0356171
0.0403956
0.045495
0.0509154
0.0566549
0.0627098
0.069075
0.0757438
0.0827084
0.0899597
0.0974876
0.105281
0.113329
0.121617
0.130134
0.138864
0.147795
0.15691
0.166196
0.175636
0.185216
0.194918
0.204728
0.214629
0.224605
0.23464
0.244719
0.254823
0.26494
0.27505
0.285141
0.295194
0.305197
0.315131
0.324983
0.334738
0.34438
0.353895
0.363269
0.372487
0.381537
0.390403
0.399073
0.407534
0.415774
0.423781
0.431544
0.439051
0.446293
0.45326
0.459945
0.466338
0.472433
0.478225
0.483709
0.488879
0.493735
0.498275
0.502506
0.50643
0.510052
0.513375
0.516405
0.519146
0.521606
0.523789
0.525706
0.527363
0.52877
0.529935
0.530869
0.531582
0.532084
0.532386
0.5325
0.532434
0.532203
0.531815
0.531282
0.530615
0.529825
0.528921
0.527915
0.526815
0.525633
0.524375
0.523052
0.521671
0.520241
0.518768
0.51726
0.515723
0.514163
0.512584
0.510993
0.509394
0.50779
0.506185
0.504582
0.502984
0.501395
0.499802
0.498187
0.496657
0.495634
0.494639
-0.0180931
-0.00238091
0.000613971
0.00114289
0.00323467
0.0053154
0.00748486
0.00988096
0.0125043
0.0153752
0.0185152
0.0219396
0.0256608
0.0296883
0.034029
0.0386869
0.043664
0.04896
0.0545731
0.0604993
0.0667335
0.0732688
0.0800975
0.0872103
0.0945971
0.102247
0.110147
0.118286
0.12665
0.135226
0.143998
0.152952
0.162073
0.171346
0.180754
0.190283
0.199915
0.209636
0.219429
0.229278
0.239167
0.24908
0.259001
0.268914
0.278804
0.288655
0.298451
0.308178
0.31782
0.327362
0.336789
0.346088
0.355242
0.36424
0.373066
0.381708
0.390152
0.398385
0.406395
0.414171
0.4217
0.428973
0.435978
0.442708
0.449152
0.455304
0.461155
0.466702
0.471937
0.476858
0.481461
0.485749
0.489724
0.493393
0.496758
0.499825
0.502596
0.50508
0.50728
0.509205
0.510862
0.512259
0.513406
0.514312
0.514987
0.515442
0.515686
0.515732
0.515589
0.51527
0.514785
0.514147
0.513365
0.512452
0.511418
0.510274
0.50903
0.507696
0.506282
0.504798
0.503251
0.501652
0.500008
0.498326
0.496613
0.494877
0.493123
0.491357
0.489584
0.487809
0.486035
0.484267
0.482507
0.480761
0.479029
0.477303
0.475561
0.473914
0.472795
0.471733
-0.0181433
-0.00243683
0.000327413
0.000744374
0.00271816
0.00466892
0.00671211
0.00898151
0.0114767
0.0142185
0.0172281
0.0205211
0.0241096
0.0280029
0.0322075
0.0367274
0.0415642
0.0467177
0.0521858
0.0579646
0.0640487
0.0704312
0.0771042
0.0840584
0.0912836
0.0987685
0.106501
0.114469
0.122659
0.131056
0.139647
0.148416
0.157349
0.166429
0.175643
0.184972
0.194402
0.203917
0.2135
0.223137
0.232809
0.242502
0.2522
0.261887
0.271548
0.281166
0.290727
0.300216
0.309617
0.318915
0.328097
0.337147
0.346051
0.354795
0.363366
0.37175
0.379935
0.387907
0.395654
0.403164
0.410426
0.417429
0.424164
0.43062
0.436788
0.442662
0.448235
0.453499
0.45845
0.463085
0.467399
0.471396
0.47508
0.478455
0.481526
0.484297
0.486773
0.488959
0.490862
0.492488
0.493847
0.494945
0.495793
0.4964
0.496777
0.496933
0.49688
0.496629
0.496191
0.495577
0.4948
0.49387
0.492799
0.491599
0.49028
0.488854
0.48733
0.48572
0.484033
0.482278
0.480466
0.478604
0.476701
0.474764
0.472802
0.470819
0.468824
0.466821
0.464817
0.462815
0.46082
0.458835
0.456865
0.454912
0.45298
0.451059
0.449127
0.447299
0.446024
0.444825
-0.0181962
-0.00250197
6.83954e-06
0.000297503
0.00213735
0.00394166
0.00584271
0.00796955
0.0103209
0.0129177
0.0157815
0.0189273
0.0223671
0.0261098
0.0301616
0.0345265
0.0392059
0.0441995
0.049505
0.0551184
0.0610341
0.0672453
0.0737438
0.0805203
0.0875643
0.0948647
0.102409
0.110185
0.118179
0.126377
0.134765
0.143327
0.152049
0.160915
0.169909
0.179016
0.188219
0.197503
0.206852
0.216249
0.22568
0.235127
0.244575
0.254008
0.263412
0.27277
0.282067
0.291289
0.30042
0.309445
0.318351
0.327123
0.335746
0.344206
0.352491
0.360587
0.368481
0.376159
0.383611
0.390823
0.397786
0.404487
0.410917
0.417066
0.422926
0.428489
0.433748
0.438696
0.443329
0.447642
0.451634
0.455305
0.458662
0.461709
0.464451
0.466891
0.469035
0.470888
0.472457
0.47375
0.474773
0.475537
0.47605
0.476322
0.476364
0.476186
0.4758
0.475216
0.474448
0.473505
0.4724
0.471145
0.469751
0.46823
0.466594
0.464853
0.46302
0.461102
0.459113
0.45706
0.454954
0.452804
0.450618
0.448403
0.446169
0.443921
0.441667
0.439411
0.437161
0.434921
0.432695
0.430486
0.4283
0.426139
0.424008
0.421894
0.419778
0.417773
0.416351
0.415039
-0.0182502
-0.00257947
-0.000346663
-0.000195911
0.00149456
0.00313681
0.00488052
0.00684961
0.00904194
0.011479
0.0141819
0.0171653
0.0204407
0.0240169
0.0279
0.0320937
0.0365994
0.0414164
0.0465425
0.0519733
0.0577034
0.0637256
0.0700316
0.076612
0.0834564
0.0905533
0.0978905
0.105455
0.113234
0.121212
0.129376
0.13771
0.1462
0.154829
0.163582
0.172443
0.181397
0.190426
0.199516
0.208651
0.217814
0.226989
0.236162
0.245316
0.254437
0.263508
0.272515
0.281442
0.290276
0.299
0.307602
0.316066
0.32438
0.332528
0.340497
0.348274
0.355847
0.363202
0.370328
0.377213
0.383844
0.390213
0.396307
0.402119
0.407638
0.412858
0.417771
0.422371
0.426654
0.430615
0.434251
0.437564
0.440561
0.443247
0.445625
0.447701
0.44948
0.450966
0.452168
0.453092
0.453747
0.454141
0.454285
0.454188
0.45386
0.453314
0.45256
0.451609
0.450475
0.449168
0.4477
0.446085
0.444333
0.442456
0.440467
0.438377
0.436197
0.433937
0.431609
0.429222
0.426786
0.42431
0.421804
0.419275
0.41673
0.414179
0.411626
0.409079
0.406543
0.404023
0.401524
0.39905
0.396605
0.394192
0.391815
0.389464
0.387115
0.384889
0.383273
0.381798
-0.0183045
-0.00267093
-0.000732178
-0.000734202
0.00079197
0.00225735
0.00382921
0.00562609
0.00764518
0.00990817
0.0124356
0.0152417
0.0183378
0.0217324
0.0254316
0.0294386
0.0337548
0.0383795
0.04331
0.048542
0.0540699
0.0598862
0.0659827
0.0723498
0.0789767
0.0858521
0.0929636
0.100298
0.107842
0.115582
0.123502
0.131588
0.139825
0.148197
0.156687
0.165282
0.173964
0.182717
0.191526
0.200374
0.209247
0.218128
0.227001
0.235851
0.244663
0.253422
0.262113
0.27072
0.27923
0.287627
0.295898
0.304029
0.312005
0.319813
0.327439
0.33487
0.342094
0.349098
0.355869
0.362396
0.368668
0.374675
0.380404
0.385849
0.390998
0.395846
0.400383
0.404606
0.408508
0.412086
0.415336
0.418262
0.420868
0.423162
0.425146
0.426827
0.428208
0.429297
0.430099
0.430624
0.430877
0.430871
0.430613
0.430115
0.429387
0.42844
0.427286
0.425937
0.424404
0.422702
0.42084
0.418833
0.416692
0.41443
0.412057
0.409588
0.407031
0.4044
0.401705
0.398956
0.396163
0.393336
0.390484
0.387616
0.384739
0.381862
0.37899
0.376132
0.373292
0.370477
0.367691
0.364938
0.362222
0.359549
0.35692
0.354326
0.351742
0.349291
0.347485
0.345858
-0.0183584
-0.00277717
-0.00114876
-0.00131568
3.18846e-05
0.00130632
0.00269253
0.0043035
0.00613572
0.00821077
0.0105486
0.0131632
0.0160657
0.0192643
0.0227649
0.0265705
0.0306824
0.0350996
0.0398193
0.044837
0.0501469
0.0557414
0.0616121
0.0677492
0.0741419
0.0807787
0.0876471
0.0947341
0.102026
0.109508
0.117166
0.124986
0.13295
0.141045
0.149254
0.157561
0.165951
0.174407
0.182913
0.191454
0.200014
0.208578
0.217129
0.225652
0.234133
0.242555
0.250906
0.259168
0.267329
0.275375
0.283289
0.29106
0.298673
0.306115
0.313372
0.320431
0.327279
0.333905
0.340295
0.346438
0.352324
0.35794
0.363278
0.368328
0.37308
0.377528
0.381663
0.38548
0.388974
0.392141
0.394978
0.397487
0.399675
0.401547
0.403109
0.404365
0.405321
0.405982
0.406356
0.406451
0.406276
0.405838
0.40515
0.404221
0.403062
0.401684
0.400101
0.398322
0.396363
0.394234
0.391949
0.389519
0.386959
0.384279
0.381494
0.378614
0.375651
0.372618
0.369525
0.366383
0.363202
0.359992
0.356763
0.353524
0.350283
0.347047
0.343825
0.340622
0.337446
0.334301
0.331194
0.328127
0.325107
0.322137
0.31922
0.316347
0.313491
0.310778
0.308746
0.306929
-0.0184115
-0.00289841
-0.00159543
-0.00193866
-0.000783464
0.000286673
0.00147414
0.00288619
0.00451839
0.00639214
0.00852697
0.0109365
0.0136317
0.0166206
0.0199086
0.0234989
0.0273922
0.0315876
0.0360819
0.0408706
0.0459475
0.051305
0.0569344
0.0628259
0.0689685
0.0753506
0.0819595
0.0887822
0.0958047
0.103013
0.110392
0.117926
0.125601
0.1334
0.141309
0.14931
0.157388
0.165527
0.173711
0.181925
0.190152
0.198377
0.206584
0.214759
0.222886
0.23095
0.238937
0.246832
0.254621
0.26229
0.269825
0.277212
0.284438
0.291489
0.298352
0.305014
0.311462
0.317684
0.323669
0.329403
0.334876
0.340078
0.344999
0.349628
0.353958
0.35798
0.361687
0.365073
0.368133
0.370864
0.373262
0.375329
0.377072
0.378497
0.37961
0.380415
0.380918
0.381126
0.381045
0.380684
0.380051
0.379156
0.37801
0.376622
0.375006
0.37317
0.37113
0.368896
0.366481
0.363899
0.361162
0.358284
0.355277
0.352153
0.348927
0.34561
0.342215
0.338753
0.335236
0.331675
0.328082
0.324465
0.320835
0.317201
0.313573
0.309956
0.306362
0.302795
0.299263
0.29577
0.292325
0.288929
0.285589
0.282309
0.279093
0.27593
0.272792
0.269811
0.267549
0.265543
-0.0184635
-0.00303454
-0.00207113
-0.00260145
-0.00165177
-0.000798565
0.000177848
0.00137848
0.00279798
0.00445761
0.00637656
0.00856815
0.011043
0.013809
0.0168713
0.0202329
0.0238943
0.0278541
0.0321093
0.0366549
0.0414846
0.0465907
0.0519643
0.0575954
0.0634729
0.0695851
0.0759192
0.0824619
0.0891994
0.0961171
0.1032
0.110433
0.117802
0.125289
0.132879
0.140557
0.148305
0.156109
0.163953
0.171819
0.179694
0.187561
0.195405
0.203211
0.210963
0.218648
0.22625
0.233756
0.241151
0.248421
0.255554
0.262534
0.26935
0.275988
0.282434
0.288676
0.294701
0.300497
0.306051
0.311353
0.316392
0.321156
0.325635
0.329821
0.333704
0.337277
0.340533
0.343464
0.346068
0.348339
0.350275
0.351877
0.353151
0.354105
0.354745
0.355075
0.355102
0.354831
0.354271
0.353429
0.352315
0.350938
0.349309
0.347439
0.345339
0.343021
0.340498
0.337783
0.334888
0.331827
0.328613
0.32526
0.321781
0.318188
0.314495
0.310716
0.306861
0.302945
0.298978
0.294972
0.290938
0.286887
0.282829
0.278775
0.274731
0.270708
0.266713
0.262754
0.258837
0.25497
0.251156
0.247403
0.243714
0.240095
0.236549
0.233067
0.229617
0.226337
0.223815
0.221592
-0.0185142
-0.0031852
-0.00257476
-0.00330232
-0.00257075
-0.00194636
-0.00119273
-0.000215575
0.000979062
0.0024124
0.00410322
0.00606455
0.00830675
0.0108374
0.0136616
0.0167817
0.0201983
0.0239097
0.0279126
0.0322018
0.0367709
0.0416121
0.0467161
0.052073
0.0576714
0.0634995
0.0695444
0.0757927
0.0822303
0.0888427
0.0956148
0.102531
0.109577
0.116735
0.123991
0.131328
0.13873
0.146182
0.153666
0.161169
0.168673
0.176163
0.183625
0.191043
0.198402
0.205688
0.212886
0.219982
0.226962
0.233814
0.240523
0.247076
0.25346
0.259663
0.265671
0.271472
0.277052
0.2824
0.287504
0.292353
0.296934
0.301239
0.305256
0.308977
0.312393
0.315495
0.318278
0.320734
0.322859
0.32465
0.326103
0.327219
0.328003
0.328465
0.328609
0.328443
0.327971
0.3272
0.326139
0.324795
0.323177
0.321296
0.319162
0.316786
0.314181
0.311358
0.30833
0.305111
0.301714
0.298151
0.294438
0.290587
0.286612
0.282527
0.278345
0.274079
0.269743
0.265349
0.260909
0.256436
0.25194
0.247433
0.242925
0.238427
0.233948
0.229496
0.225081
0.22071
0.21639
0.212128
0.20793
0.203802
0.199748
0.195774
0.191885
0.188069
0.184296
0.180706
0.177914
0.17547
-0.0185636
-0.00334991
-0.00310512
-0.00403952
-0.00353803
-0.00315361
-0.00263401
-0.00189191
-0.000933697
0.000261764
0.00171283
0.00343223
0.00543006
0.00771364
0.0102877
0.0131544
0.016314
0.0197647
0.0235029
0.0275233
0.0318193
0.0363827
0.0412044
0.0462741
0.0515804
0.0571111
0.0628533
0.0687932
0.0749168
0.0812092
0.0876554
0.0942399
0.100947
0.107761
0.114667
0.121647
0.128686
0.135769
0.142878
0.149999
0.157116
0.164213
0.171275
0.178288
0.185236
0.192105
0.198881
0.20555
0.212098
0.218511
0.224778
0.230884
0.236818
0.242566
0.248116
0.253455
0.258572
0.263453
0.268087
0.272462
0.276568
0.280394
0.283929
0.287166
0.290094
0.292708
0.294998
0.29696
0.298588
0.299879
0.30083
0.301441
0.301717
0.301666
0.301297
0.300614
0.299625
0.298335
0.296753
0.294886
0.292745
0.29034
0.287682
0.284781
0.28165
0.278302
0.27475
0.271006
0.267086
0.263001
0.258767
0.254398
0.249906
0.245308
0.240615
0.235842
0.231002
0.226109
0.221174
0.216211
0.211231
0.206245
0.201265
0.1963
0.191362
0.186459
0.1816
0.176793
0.172046
0.167365
0.162758
0.15823
0.153787
0.149434
0.145176
0.141001
0.136879
0.132953
0.129869
0.127179
-0.0186116
-0.00352802
-0.00366101
-0.00481126
-0.00455114
-0.00441731
-0.00414259
-0.00364659
-0.00293579
-0.0019892
-0.000788894
0.000677536
0.00241989
0.00444516
0.00675775
0.0093597
0.0122509
0.0154294
0.0188913
0.0226312
0.0266422
0.0309161
0.0354435
0.0402138
0.0452153
0.0504357
0.0558619
0.0614798
0.0672753
0.0732336
0.0793393
0.0855772
0.0919315
0.0983866
0.104926
0.111535
0.118196
0.124894
0.131613
0.138337
0.145051
0.151739
0.158386
0.164977
0.171498
0.177935
0.184272
0.190497
0.196596
0.202555
0.208363
0.214005
0.21947
0.224745
0.229819
0.234679
0.239314
0.243711
0.247858
0.251743
0.255355
0.258684
0.261721
0.264456
0.26688
0.268987
0.270768
0.272219
0.273333
0.274108
0.274541
0.27463
0.274381
0.273801
0.272901
0.271686
0.270162
0.268335
0.266215
0.263809
0.261129
0.258182
0.254982
0.251538
0.247865
0.243974
0.239879
0.235593
0.231132
0.226507
0.221734
0.216827
0.211802
0.20667
0.201449
0.196149
0.190787
0.185375
0.179927
0.174454
0.168971
0.163487
0.158015
0.152566
0.14715
0.141776
0.136455
0.131193
0.126001
0.120884
0.115851
0.110906
0.106057
0.101309
0.0966672
0.0921196
0.0876342
0.0833587
0.0799709
0.077029
-0.0186581
-0.00371883
-0.00424116
-0.00561568
-0.0056076
-0.00573456
-0.00571507
-0.00547563
-0.00502266
-0.00433534
-0.00339622
-0.00219323
-0.000716899
0.00103945
0.00307995
0.00540638
0.00801844
0.0109139
0.0140886
0.0175371
0.0212522
0.0252253
0.0294466
0.0339054
0.0385898
0.0434871
0.0485841
0.0538669
0.0593211
0.0649317
0.0706837
0.0765614
0.0825494
0.0886316
0.0947922
0.101015
0.107284
0.113584
0.119898
0.126211
0.132508
0.138772
0.14499
0.151146
0.157225
0.163214
0.169099
0.174865
0.180499
0.185989
0.191321
0.196484
0.201465
0.206252
0.210833
0.215198
0.219334
0.223229
0.226873
0.230252
0.233356
0.236174
0.238697
0.240915
0.24282
0.244405
0.245662
0.246586
0.247172
0.247416
0.247316
0.24687
0.246081
0.24496
0.243514
0.241751
0.239677
0.2373
0.234627
0.231668
0.228431
0.224929
0.221171
0.217171
0.21294
0.208491
0.203838
0.198995
0.193976
0.188795
0.183468
0.178008
0.172431
0.166751
0.160983
0.15514
0.149238
0.143291
0.13731
0.131311
0.125305
0.119305
0.113323
0.10737
0.101456
0.0955929
0.0897888
0.0840539
0.0783956
0.0728229
0.0673421
0.0619607
0.0566838
0.0515194
0.0464723
0.0415307
0.0366598
0.0320141
0.0283011
0.0250873
-0.0187032
-0.00392158
-0.00484428
-0.00645079
-0.00670502
-0.00710257
-0.00734813
-0.00737519
-0.0071899
-0.00677165
-0.00610358
-0.00517394
-0.00397361
-0.00249617
-0.000737777
0.00130312
0.00362596
0.00622827
0.00910574
0.0122524
0.0156606
0.0193216
0.0232253
0.0273607
0.0317158
0.036278
0.0410338
0.0459693
0.05107
0.0563209
0.0617069
0.0672124
0.0728215
0.0785186
0.0842875
0.0901124
0.0959771
0.101866
0.107762
0.113652
0.119518
0.125346
0.131121
0.136828
0.142452
0.14798
0.153398
0.158692
0.163848
0.168855
0.173699
0.178368
0.182851
0.187135
0.19121
0.195064
0.198686
0.202065
0.20519
0.20805
0.210632
0.212926
0.214921
0.216609
0.217982
0.219032
0.219752
0.220137
0.220182
0.219883
0.219237
0.218244
0.216904
0.215228
0.213224
0.210901
0.208266
0.205325
0.202087
0.198562
0.194758
0.190687
0.18636
0.18179
0.176988
0.171968
0.166744
0.161331
0.155741
0.149992
0.144096
0.138069
0.131927
0.125684
0.119355
0.112955
0.106498
0.0999998
0.0934725
0.0869311
0.0803875
0.0738558
0.067347
0.0608741
0.054447
0.0480778
0.0417752
0.0355502
0.0294102
0.0233652
0.0174212
0.0115869
0.00586746
0.000271514
-0.00519583
-0.0105461
-0.0158163
-0.0208462
-0.0248963
-0.0283923
-0.0187469
-0.00413545
-0.00546894
-0.00731464
-0.00784113
-0.00851854
-0.00903839
-0.00934134
-0.00943305
-0.00929315
-0.00890545
-0.00825855
-0.00734357
-0.00615442
-0.00468749
-0.00294149
-0.000917268
0.00138229
0.00395243
0.00678673
0.00987737
0.0132153
0.0167902
0.0205912
0.024606
0.028822
0.0332257
0.0378029
0.0425391
0.0474193
0.0524282
0.0575501
0.0627693
0.0680698
0.0734358
0.0788511
0.0842997
0.0897658
0.0952335
0.100687
0.106112
0.111491
0.116812
0.122058
0.127216
0.132271
0.13721
0.142019
0.146686
0.151197
0.15554
0.159704
0.163676
0.167445
0.171001
0.174331
0.177426
0.180276
0.182869
0.185195
0.187243
0.189
0.190457
0.191604
0.192433
0.192937
0.193109
0.192944
0.192437
0.191584
0.190383
0.188832
0.186933
0.184692
0.182121
0.179227
0.17602
0.172506
0.168693
0.164591
0.16021
0.15556
0.150654
0.145503
0.14012
0.134519
0.128714
0.122718
0.116549
0.110218
0.103743
0.0971374
0.0904184
0.0835999
0.0766984
0.0697277
0.0627041
0.0556409
0.0485538
0.0414555
0.034361
0.0272821
0.0202329
0.0132241
0.00626907
-0.000622683
-0.007439
-0.0141714
-0.0208089
-0.0273443
-0.0337678
-0.0400733
-0.0462524
-0.0522986
-0.0582038
-0.0639819
-0.0696692
-0.0751029
-0.0795076
-0.0833037
-0.0187893
-0.00435957
-0.00611368
-0.00820538
-0.00901372
-0.00997975
-0.0107826
-0.0113703
-0.0117478
-0.011895
-0.0117965
-0.0114411
-0.0108203
-0.00992813
-0.00876138
-0.00731915
-0.00560278
-0.00361564
-0.00136286
0.00114893
0.00391175
0.00691642
0.0101527
0.0136092
0.0172739
0.0211337
0.0251752
0.0293842
0.0337459
0.0382452
0.0428668
0.047595
0.0524139
0.0573078
0.0622604
0.0672559
0.0722781
0.0773111
0.0823393
0.0873471
0.092319
0.09724
0.102095
0.10687
0.111551
0.116122
0.120572
0.124886
0.129052
0.133057
0.136889
0.140537
0.143988
0.147231
0.150256
0.153052
0.15561
0.157918
0.159967
0.161747
0.163248
0.164459
0.165367
0.165964
0.16624
0.166189
0.165804
0.16508
0.164012
0.162597
0.160832
0.158715
0.156248
0.153435
0.150288
0.146817
0.14303
0.138935
0.134539
0.129853
0.124886
0.11965
0.114156
0.108416
0.102444
0.0962539
0.0898588
0.0832739
0.0765138
0.0695942
0.06253
0.0553374
0.0480315
0.0406285
0.0331436
0.0255927
0.0179905
0.0103528
0.00269372
-0.0049717
-0.0126301
-0.020267
-0.0278702
-0.035426
-0.0429232
-0.0503491
-0.0576938
-0.0649455
-0.0720956
-0.0791335
-0.0860516
-0.092841
-0.0994948
-0.106004
-0.112362
-0.11858
-0.124699
-0.130549
-0.135322
-0.139427
-0.0188304
-0.00459291
-0.00677704
-0.00912127
-0.0102206
-0.0114834
-0.0125775
-0.0134583
-0.0141299
-0.0145725
-0.0147714
-0.0147157
-0.0143972
-0.0138102
-0.0129521
-0.0118225
-0.0104233
-0.00875801
-0.00683201
-0.00465203
-0.0022262
0.000436147
0.00332457
0.00642764
0.00973304
0.0132277
0.016898
0.0207295
0.0247074
0.0288167
0.0330419
0.0373671
0.0417767
0.0462544
0.0507845
0.0553508
0.0599372
0.064528
0.0691074
0.0736598
0.0781701
0.082623
0.0870039
0.0912983
0.0954919
0.099571
0.103522
0.107332
0.110988
0.114478
0.11779
0.120911
0.123832
0.12654
0.129026
0.131279
0.133289
0.135046
0.136542
0.137766
0.138709
0.139362
0.139713
0.139752
0.139467
0.138854
0.137904
0.136614
0.134979
0.132995
0.130659
0.127971
0.12493
0.12154
0.117812
0.113757
0.109384
0.104701
0.0997168
0.0944407
0.0888824
0.083054
0.0769663
0.0706329
0.0640658
0.05728
0.0502887
0.0431079
0.0357514
0.028236
0.0205761
0.0127889
0.00488905
-0.00310622
-0.0111822
-0.0193219
-0.0275108
-0.0357322
-0.0439723
-0.0522149
-0.0604468
-0.0686526
-0.0768201
-0.0849346
-0.0929852
-0.100958
-0.108843
-0.116627
-0.124303
-0.131857
-0.139284
-0.146571
-0.153714
-0.160702
-0.167527
-0.174202
-0.180768
-0.18705
-0.192206
-0.196637
-0.0188701
-0.00483441
-0.00745775
-0.0100606
-0.0114596
-0.0130269
-0.01442
-0.0156017
-0.0165753
-0.0173209
-0.0178249
-0.0180766
-0.018068
-0.0177944
-0.0172534
-0.0164453
-0.0153719
-0.0140371
-0.0124463
-0.0106065
-0.00852591
-0.00621414
-0.00368179
-0.00094046
0.00199741
0.00511861
0.00840929
0.0118551
0.015441
0.019152
0.0229724
0.0268864
0.0308781
0.0349317
0.0390308
0.0431597
0.0473022
0.0514424
0.0555648
0.0596538
0.0636941
0.0676709
0.0715693
0.0753751
0.079074
0.0826525
0.0860971
0.089395
0.0925334
0.0955003
0.0982835
0.100872
0.103254
0.10542
0.107359
0.10906
0.110515
0.111715
0.112649
0.113309
0.113687
0.113773
0.113558
0.11303
0.112179
0.110997
0.109477
0.107616
0.105407
0.102849
0.0999379
0.0966731
0.0930546
0.0890847
0.0847722
0.0801296
0.075167
0.0698929
0.0643161
0.0584459
0.0522929
0.045868
0.0391835
0.0322517
0.0250862
0.0177006
0.0101098
0.00232823
-0.00562829
-0.0137445
-0.0220042
-0.0303915
-0.0388899
-0.0474836
-0.0561557
-0.0648908
-0.0736722
-0.0824847
-0.0913122
-0.10014
-0.108953
-0.117736
-0.126476
-0.135159
-0.143771
-0.152301
-0.160736
-0.169064
-0.177275
-0.185358
-0.193303
-0.201101
-0.208744
-0.216222
-0.223526
-0.23067
-0.237695
-0.244422
-0.249973
-0.25474
-0.0189087
-0.00508307
-0.00815461
-0.0110217
-0.0127285
-0.0146075
-0.0163068
-0.017797
-0.0190797
-0.0201356
-0.0209519
-0.0215182
-0.0218274
-0.0218752
-0.0216596
-0.0211808
-0.0204411
-0.0194445
-0.0181965
-0.0167044
-0.0149767
-0.013023
-0.0108543
-0.0084822
-0.00591937
-0.00317915
-0.000275505
0.00277706
0.00596359
0.00926875
0.0126769
0.0161723
0.0197389
0.0233607
0.0270218
0.030706
0.0343972
0.0380798
0.041738
0.0453564
0.0489199
0.0524134
0.0558226
0.0591328
0.0623303
0.0654014
0.068333
0.071112
0.0737263
0.0761636
0.0784123
0.0804611
0.0822992
0.083916
0.0853017
0.0864461
0.0873404
0.0879751
0.088342
0.088432
0.0882376
0.0877499
0.0869608
0.0858602
0.0844374
0.0826824
0.0805888
0.0781513
0.0753665
0.0722303
0.0687409
0.0648964
0.0606978
0.0561458
0.0512478
0.0460155
0.0404615
0.034594
0.0284229
0.0219568
0.0152072
0.00818426
0.000901097
-0.0066307
-0.0143966
-0.0223836
-0.0305762
-0.0389603
-0.0475192
-0.0562385
-0.0651007
-0.0740908
-0.083191
-0.0923861
-0.101658
-0.110993
-0.120371
-0.129779
-0.139199
-0.148618
-0.158017
-0.167385
-0.176704
-0.185962
-0.195144
-0.204239
-0.213233
-0.222114
-0.23087
-0.239491
-0.247966
-0.256286
-0.26444
-0.272421
-0.280217
-0.287842
-0.295339
-0.302524
-0.308484
-0.3136
-0.0189458
-0.00533804
-0.00886646
-0.0120029
-0.0140252
-0.0162227
-0.0182351
-0.0200405
-0.0216392
-0.0230121
-0.0241476
-0.025036
-0.0256706
-0.0260473
-0.0261643
-0.0260221
-0.0256231
-0.0249716
-0.0240734
-0.0229359
-0.0215678
-0.0199792
-0.0181808
-0.0161848
-0.0140038
-0.0116513
-0.00914136
-0.00648868
-0.00370825
-0.000815496
0.00217391
0.0052441
0.00837909
0.0115629
0.0147794
0.0180125
0.0212464
0.024465
0.027653
0.0307948
0.0338753
0.0368799
0.0397938
0.0426029
0.0452933
0.0478515
0.0502645
0.0525195
0.0546044
0.0565069
0.058216
0.0597202
0.0610092
0.0620725
0.0629003
0.0634831
0.0638119
0.0638779
0.0636729
0.0631885
0.0624172
0.0613511
0.0599827
0.0583034
0.0563036
0.0539725
0.0513019
0.0482864
0.0449225
0.0412069
0.0371371
0.032712
0.0279318
0.0227977
0.0173144
0.011493
0.00534685
-0.00111372
-0.00787967
-0.0149412
-0.0222879
-0.0299082
-0.0377905
-0.0459215
-0.0542882
-0.0628761
-0.0716709
-0.0806571
-0.0898193
-0.0991414
-0.108607
-0.1182
-0.127904
-0.137701
-0.147576
-0.15751
-0.167489
-0.177494
-0.187511
-0.197523
-0.207514
-0.217469
-0.227373
-0.237211
-0.24697
-0.256635
-0.266194
-0.275634
-0.284944
-0.29411
-0.303124
-0.311974
-0.32065
-0.329142
-0.33744
-0.345556
-0.353535
-0.361189
-0.367569
-0.373043
-0.0189817
-0.00559853
-0.0095921
-0.0130025
-0.0153477
-0.0178699
-0.0202017
-0.0223289
-0.0242499
-0.0259464
-0.0274082
-0.0286258
-0.0295926
-0.0303049
-0.0307611
-0.0309619
-0.03091
-0.0306099
-0.0300677
-0.029291
-0.0282889
-0.0270713
-0.0256495
-0.0240356
-0.0222425
-0.0202837
-0.0181735
-0.0159266
-0.0135581
-0.0110836
-0.0085187
-0.00587936
-0.00318155
-0.000441466
0.00232505
0.00510178
0.00787286
0.0106224
0.013335
0.0159951
0.0185879
0.0210985
0.0235126
0.0258159
0.0279947
0.0300356
0.0319258
0.0336526
0.0352039
0.0365681
0.0377336
0.0386898
0.0394259
0.0399323
0.040199
0.040217
0.0399772
0.0394715
0.0386916
0.03763
0.0362789
0.0346315
0.0326804
0.0304187
0.0278376
0.0249275
0.0216784
0.018084
0.0141401
0.00984432
0.00519399
0.000188309
-0.00517312
-0.0108884
-0.0169551
-0.0233634
-0.0300999
-0.0371522
-0.0445113
-0.0521666
-0.0601084
-0.0683245
-0.0768038
-0.0855323
-0.0944977