/*--------------------------------*- C++ -*----------------------------------*\
  =========                 |
  \\      /  F ield         | OpenFOAM: The Open Source CFD Toolbox
   \\    /   O peration     | Website:  https://openfoam.org
    \\  /    A nd           | Version:  8
     \\/     M anipulation  |
\*---------------------------------------------------------------------------*/
FoamFile
{
    version     2.0;
    format      ascii;
    class       volScalarField;
    location    "9.5";
    object      p;
}
// * * * * * * * * * * * * * * * * * * * * * * * * * * * * * * * * * * * * * //

dimensions      [0 2 -2 0 0 0 0];

internalField   nonuniform List<scalar> 
262620
(
-1.35612
-1.35633
-1.35701
-1.35803
-1.35937
-1.36101
-1.36294
-1.36515
-1.36761
-1.37032
-1.37324
-1.37637
-1.37969
-1.38319
-1.38685
-1.39066
-1.3946
-1.39868
-1.40286
-1.40715
-1.41153
-1.41599
-1.42052
-1.42511
-1.42976
-1.43446
-1.43919
-1.44396
-1.44875
-1.45356
-1.45838
-1.4632
-1.46803
-1.47285
-1.47766
-1.48246
-1.48725
-1.49201
-1.49675
-1.50146
-1.50613
-1.51078
-1.51539
-1.51996
-1.52449
-1.52897
-1.53342
-1.53781
-1.54216
-1.54646
-1.55071
-1.55491
-1.55906
-1.56315
-1.5672
-1.57119
-1.57512
-1.579
-1.58282
-1.58659
-1.59031
-1.59397
-1.59757
-1.60112
-1.60462
-1.60806
-1.61144
-1.61477
-1.61805
-1.62127
-1.62445
-1.62756
-1.63063
-1.63364
-1.63661
-1.63952
-1.64238
-1.6452
-1.64796
-1.65068
-1.65334
-1.65596
-1.65854
-1.66107
-1.66355
-1.66599
-1.66838
-1.67073
-1.67304
-1.67531
-1.67754
-1.67972
-1.68186
-1.68397
-1.68604
-1.68806
-1.69006
-1.69201
-1.69393
-1.69581
-1.69766
-1.69947
-1.70125
-1.70299
-1.70471
-1.70639
-1.70804
-1.70966
-1.71124
-1.7128
-1.71433
-1.71583
-1.71731
-1.71875
-1.72017
-1.72156
-1.72292
-1.72426
-1.72558
-1.72687
-1.35599
-1.3562
-1.35687
-1.35789
-1.35923
-1.36087
-1.3628
-1.36501
-1.36747
-1.37017
-1.37309
-1.37622
-1.37954
-1.38304
-1.3867
-1.39051
-1.39446
-1.39853
-1.40272
-1.40701
-1.41139
-1.41585
-1.42038
-1.42498
-1.42963
-1.43433
-1.43906
-1.44383
-1.44862
-1.45343
-1.45825
-1.46308
-1.46791
-1.47273
-1.47755
-1.48235
-1.48714
-1.4919
-1.49664
-1.50135
-1.50604
-1.51068
-1.51529
-1.51987
-1.5244
-1.52889
-1.53333
-1.53773
-1.54209
-1.54639
-1.55064
-1.55484
-1.559
-1.56309
-1.56714
-1.57113
-1.57507
-1.57895
-1.58278
-1.58655
-1.59027
-1.59393
-1.59754
-1.60109
-1.60459
-1.60803
-1.61142
-1.61475
-1.61803
-1.62126
-1.62443
-1.62756
-1.63062
-1.63364
-1.63661
-1.63952
-1.64239
-1.6452
-1.64797
-1.65069
-1.65336
-1.65598
-1.65856
-1.66109
-1.66358
-1.66602
-1.66842
-1.67077
-1.67308
-1.67535
-1.67758
-1.67977
-1.68191
-1.68402
-1.68609
-1.68812
-1.69011
-1.69207
-1.69399
-1.69587
-1.69772
-1.69954
-1.70132
-1.70307
-1.70478
-1.70646
-1.70812
-1.70974
-1.71133
-1.71289
-1.71442
-1.71592
-1.71739
-1.71884
-1.72026
-1.72165
-1.72302
-1.72436
-1.72567
-1.72697
-1.35575
-1.35597
-1.35663
-1.35765
-1.35898
-1.36062
-1.36255
-1.36476
-1.36722
-1.36992
-1.37284
-1.37597
-1.37929
-1.38279
-1.38645
-1.39026
-1.39421
-1.39828
-1.40247
-1.40676
-1.41114
-1.41561
-1.42014
-1.42474
-1.4294
-1.4341
-1.43884
-1.44361
-1.4484
-1.45321
-1.45804
-1.46287
-1.4677
-1.47253
-1.47735
-1.48216
-1.48695
-1.49172
-1.49646
-1.50118
-1.50587
-1.51052
-1.51514
-1.51971
-1.52425
-1.52875
-1.5332
-1.5376
-1.54196
-1.54627
-1.55052
-1.55473
-1.55889
-1.56299
-1.56704
-1.57104
-1.57498
-1.57887
-1.5827
-1.58648
-1.5902
-1.59387
-1.59748
-1.60104
-1.60454
-1.60799
-1.61138
-1.61472
-1.61801
-1.62124
-1.62442
-1.62754
-1.63062
-1.63364
-1.63661
-1.63953
-1.6424
-1.64522
-1.64799
-1.65071
-1.65339
-1.65601
-1.65859
-1.66113
-1.66362
-1.66606
-1.66846
-1.67082
-1.67314
-1.67541
-1.67764
-1.67983
-1.68198
-1.68409
-1.68616
-1.6882
-1.69019
-1.69215
-1.69408
-1.69596
-1.69782
-1.69963
-1.70142
-1.70317
-1.70489
-1.70657
-1.70823
-1.70985
-1.71144
-1.71301
-1.71454
-1.71604
-1.71752
-1.71897
-1.72039
-1.72179
-1.72316
-1.7245
-1.72582
-1.72711
-1.35541
-1.35561
-1.35628
-1.35729
-1.35861
-1.36025
-1.36218
-1.36438
-1.36684
-1.36954
-1.37246
-1.37559
-1.37891
-1.38241
-1.38607
-1.38988
-1.39383
-1.39791
-1.4021
-1.40639
-1.41078
-1.41524
-1.41978
-1.42439
-1.42904
-1.43375
-1.43849
-1.44327
-1.44807
-1.45289
-1.45772
-1.46256
-1.4674
-1.47223
-1.47706
-1.48187
-1.48667
-1.49144
-1.49619
-1.50092
-1.50561
-1.51027
-1.5149
-1.51948
-1.52403
-1.52853
-1.53299
-1.5374
-1.54176
-1.54608
-1.55034
-1.55456
-1.55872
-1.56283
-1.56689
-1.5709
-1.57485
-1.57874
-1.58258
-1.58637
-1.5901
-1.59377
-1.59739
-1.60096
-1.60447
-1.60792
-1.61132
-1.61467
-1.61796
-1.6212
-1.62439
-1.62752
-1.6306
-1.63363
-1.63661
-1.63953
-1.64241
-1.64524
-1.64802
-1.65074
-1.65343
-1.65606
-1.65865
-1.66119
-1.66368
-1.66614
-1.66854
-1.67091
-1.67323
-1.67551
-1.67774
-1.67994
-1.6821
-1.68421
-1.68629
-1.68833
-1.69033
-1.6923
-1.69422
-1.69612
-1.69797
-1.6998
-1.70159
-1.70334
-1.70506
-1.70675
-1.70841
-1.71004
-1.71164
-1.71321
-1.71474
-1.71625
-1.71773
-1.71919
-1.72061
-1.72201
-1.72339
-1.72473
-1.72605
-1.72735
-1.35495
-1.35515
-1.3558
-1.35681
-1.35813
-1.35976
-1.36169
-1.36389
-1.36635
-1.36904
-1.37196
-1.37509
-1.37841
-1.38191
-1.38557
-1.38938
-1.39334
-1.39741
-1.40161
-1.4059
-1.41029
-1.41476
-1.41931
-1.42392
-1.42858
-1.43329
-1.43804
-1.44282
-1.44763
-1.45246
-1.4573
-1.46214
-1.46699
-1.47183
-1.47667
-1.48149
-1.48629
-1.49108
-1.49584
-1.50057
-1.50528
-1.50994
-1.51458
-1.51917
-1.52373
-1.52824
-1.53271
-1.53713
-1.54151
-1.54583
-1.55011
-1.55433
-1.55851
-1.56263
-1.5667
-1.57071
-1.57467
-1.57858
-1.58243
-1.58622
-1.58996
-1.59365
-1.59728
-1.60085
-1.60437
-1.60784
-1.61125
-1.61461
-1.61791
-1.62116
-1.62435
-1.62749
-1.63058
-1.63362
-1.63661
-1.63954
-1.64243
-1.64526
-1.64805
-1.65079
-1.65348
-1.65612
-1.65872
-1.66126
-1.66377
-1.66623
-1.66864
-1.67101
-1.67334
-1.67563
-1.67787
-1.68008
-1.68224
-1.68436
-1.68645
-1.68849
-1.6905
-1.69247
-1.69441
-1.69631
-1.69817
-1.7
-1.7018
-1.70356
-1.70529
-1.70698
-1.70865
-1.71028
-1.71188
-1.71346
-1.715
-1.71652
-1.718
-1.71946
-1.72089
-1.7223
-1.72367
-1.72503
-1.72635
-1.72765
-1.35438
-1.35457
-1.35522
-1.35622
-1.35753
-1.35916
-1.36108
-1.36328
-1.36573
-1.36842
-1.37134
-1.37447
-1.37779
-1.38129
-1.38495
-1.38877
-1.39272
-1.3968
-1.401
-1.4053
-1.40969
-1.41417
-1.41872
-1.42333
-1.42801
-1.43272
-1.43748
-1.44227
-1.44709
-1.45192
-1.45677
-1.46163
-1.46648
-1.47134
-1.47618
-1.48101
-1.48583
-1.49063
-1.4954
-1.50014
-1.50486
-1.50954
-1.51419
-1.51879
-1.52336
-1.52788
-1.53237
-1.5368
-1.54119
-1.54553
-1.54982
-1.55405
-1.55824
-1.56237
-1.56646
-1.57048
-1.57446
-1.57837
-1.58224
-1.58605
-1.5898
-1.5935
-1.59714
-1.60073
-1.60426
-1.60773
-1.61116
-1.61452
-1.61784
-1.6211
-1.62431
-1.62746
-1.63056
-1.63361
-1.63661
-1.63955
-1.64245
-1.6453
-1.64809
-1.65084
-1.65354
-1.65619
-1.6588
-1.66136
-1.66387
-1.66634
-1.66877
-1.67115
-1.67349
-1.67578
-1.67804
-1.68025
-1.68242
-1.68455
-1.68665
-1.6887
-1.69072
-1.6927
-1.69464
-1.69655
-1.69842
-1.70026
-1.70206
-1.70383
-1.70557
-1.70727
-1.70895
-1.71059
-1.7122
-1.71378
-1.71533
-1.71685
-1.71834
-1.71981
-1.72124
-1.72266
-1.72404
-1.7254
-1.72673
-1.72804
-1.3537
-1.35388
-1.35452
-1.35551
-1.35682
-1.35844
-1.36036
-1.36255
-1.365
-1.36769
-1.3706
-1.37373
-1.37705
-1.38055
-1.38421
-1.38803
-1.39199
-1.39607
-1.40028
-1.40458
-1.40898
-1.41346
-1.41802
-1.42264
-1.42732
-1.43205
-1.43682
-1.44162
-1.44644
-1.45129
-1.45615
-1.46101
-1.46588
-1.47075
-1.47561
-1.48045
-1.48528
-1.49009
-1.49488
-1.49964
-1.50436
-1.50906
-1.51372
-1.51834
-1.52292
-1.52746
-1.53196
-1.53641
-1.54081
-1.54516
-1.54947
-1.55372
-1.55792
-1.56207
-1.56617
-1.57021
-1.5742
-1.57813
-1.58201
-1.58583
-1.5896
-1.59331
-1.59697
-1.60057
-1.60412
-1.60761
-1.61105
-1.61443
-1.61776
-1.62103
-1.62425
-1.62742
-1.63053
-1.6336
-1.63661
-1.63957
-1.64248
-1.64534
-1.64815
-1.65091
-1.65362
-1.65628
-1.6589
-1.66147
-1.664
-1.66648
-1.66892
-1.67131
-1.67366
-1.67597
-1.67823
-1.68045
-1.68264
-1.68478
-1.68688
-1.68895
-1.69098
-1.69297
-1.69492
-1.69684
-1.69872
-1.70056
-1.70238
-1.70416
-1.7059
-1.70761
-1.7093
-1.71094
-1.71256
-1.71415
-1.71571
-1.71724
-1.71874
-1.72022
-1.72166
-1.72308
-1.72447
-1.72584
-1.72718
-1.72849
-1.35292
-1.35309
-1.35372
-1.3547
-1.356
-1.35761
-1.35952
-1.36171
-1.36415
-1.36684
-1.36975
-1.37288
-1.3762
-1.3797
-1.38336
-1.38718
-1.39114
-1.39523
-1.39944
-1.40375
-1.40816
-1.41265
-1.41721
-1.42184
-1.42653
-1.43127
-1.43605
-1.44086
-1.4457
-1.45055
-1.45543
-1.46031
-1.46519
-1.47007
-1.47494
-1.4798
-1.48465
-1.48947
-1.49427
-1.49905
-1.50379
-1.5085
-1.51318
-1.51782
-1.52242
-1.52697
-1.53149
-1.53595
-1.54037
-1.54474
-1.54906
-1.55334
-1.55755
-1.56172
-1.56583
-1.56989
-1.5739
-1.57785
-1.58175
-1.58559
-1.58937
-1.5931
-1.59677
-1.60039
-1.60396
-1.60746
-1.61092
-1.61432
-1.61766
-1.62095
-1.62419
-1.62737
-1.6305
-1.63358
-1.63661
-1.63958
-1.64251
-1.64538
-1.64821
-1.65098
-1.65371
-1.65639
-1.65902
-1.66161
-1.66415
-1.66664
-1.66909
-1.6715
-1.67386
-1.67618
-1.67846
-1.68069
-1.68289
-1.68504
-1.68716
-1.68924
-1.69128
-1.69328
-1.69524
-1.69717
-1.69906
-1.70092
-1.70274
-1.70453
-1.70629
-1.70801
-1.7097
-1.71136
-1.71299
-1.71459
-1.71616
-1.7177
-1.71921
-1.72069
-1.72214
-1.72357
-1.72497
-1.72635
-1.72769
-1.72901
-1.35204
-1.35219
-1.35281
-1.35378
-1.35507
-1.35667
-1.35857
-1.36075
-1.36319
-1.36588
-1.36879
-1.37191
-1.37523
-1.37873
-1.3824
-1.38622
-1.39019
-1.39428
-1.39849
-1.40281
-1.40722
-1.41172
-1.4163
-1.42094
-1.42564
-1.43039
-1.43518
-1.44
-1.44485
-1.44972
-1.45461
-1.4595
-1.4644
-1.4693
-1.47419
-1.47906
-1.48393
-1.48877
-1.49359
-1.49838
-1.50314
-1.50787
-1.51257
-1.51723
-1.52184
-1.52642
-1.53095
-1.53544
-1.53988
-1.54427
-1.54861
-1.5529
-1.55714
-1.56132
-1.56546
-1.56954
-1.57356
-1.57753
-1.58145
-1.58531
-1.58911
-1.59286
-1.59655
-1.60019
-1.60377
-1.6073
-1.61077
-1.61419
-1.61755
-1.62086
-1.62412
-1.62732
-1.63047
-1.63356
-1.63661
-1.6396
-1.64254
-1.64543
-1.64827
-1.65107
-1.65381
-1.6565
-1.65915
-1.66175
-1.66431
-1.66682
-1.66929
-1.67171
-1.67408
-1.67642
-1.67871
-1.68096
-1.68317
-1.68534
-1.68747
-1.68956
-1.69161
-1.69363
-1.6956
-1.69755
-1.69945
-1.70132
-1.70316
-1.70496
-1.70673
-1.70846
-1.71016
-1.71183
-1.71347
-1.71508
-1.71666
-1.71821
-1.71973
-1.72123
-1.72269
-1.72413
-1.72554
-1.72692
-1.72828
-1.7296
-1.35105
-1.35119
-1.35179
-1.35275
-1.35403
-1.35562
-1.35752
-1.35969
-1.36212
-1.3648
-1.36771
-1.37083
-1.37415
-1.37765
-1.38133
-1.38515
-1.38912
-1.39322
-1.39744
-1.40176
-1.40619
-1.41069
-1.41528
-1.41993
-1.42464
-1.4294
-1.43421
-1.43904
-1.44391
-1.4488
-1.4537
-1.45861
-1.46352
-1.46844
-1.47335
-1.47824
-1.48312
-1.48798
-1.49282
-1.49764
-1.50242
-1.50717
-1.51189
-1.51656
-1.5212
-1.5258
-1.53035
-1.53486
-1.53932
-1.54374
-1.5481
-1.55241
-1.55667
-1.56088
-1.56504
-1.56914
-1.57318
-1.57718
-1.58111
-1.585
-1.58882
-1.59259
-1.59631
-1.59997
-1.60357
-1.60712
-1.61061
-1.61405
-1.61743
-1.62076
-1.62404
-1.62726
-1.63043
-1.63354
-1.63661
-1.63962
-1.64258
-1.64549
-1.64835
-1.65116
-1.65392
-1.65664
-1.6593
-1.66192
-1.66449
-1.66702
-1.6695
-1.67194
-1.67434
-1.67669
-1.67899
-1.68126
-1.68349
-1.68567
-1.68782
-1.68992
-1.69199
-1.69402
-1.69601
-1.69797
-1.69989
-1.70177
-1.70362
-1.70543
-1.70721
-1.70896
-1.71068
-1.71236
-1.71401
-1.71563
-1.71723
-1.71879
-1.72032
-1.72182
-1.7233
-1.72475
-1.72617
-1.72757
-1.72893
-1.73027
-1.34997
-1.35009
-1.35067
-1.35162
-1.35289
-1.35447
-1.35636
-1.35852
-1.36095
-1.36362
-1.36653
-1.36965
-1.37297
-1.37647
-1.38014
-1.38397
-1.38795
-1.39205
-1.39628
-1.40061
-1.40504
-1.40956
-1.41416
-1.41882
-1.42354
-1.42832
-1.43314
-1.43799
-1.44287
-1.44778
-1.4527
-1.45763
-1.46256
-1.46749
-1.47242
-1.47734
-1.48224
-1.48712
-1.49198
-1.49682
-1.50162
-1.50639
-1.51113
-1.51584
-1.5205
-1.52512
-1.5297
-1.53423
-1.53871
-1.54315
-1.54754
-1.55187
-1.55616
-1.56039
-1.56457
-1.5687
-1.57277
-1.57679
-1.58075
-1.58465
-1.5885
-1.5923
-1.59604
-1.59972
-1.60334
-1.60692
-1.61043
-1.61389
-1.6173
-1.62065
-1.62395
-1.62719
-1.63038
-1.63352
-1.63661
-1.63964
-1.64262
-1.64555
-1.64843
-1.65126
-1.65405
-1.65678
-1.65947
-1.6621
-1.6647
-1.66724
-1.66974
-1.6722
-1.67461
-1.67698
-1.67931
-1.68159
-1.68383
-1.68604
-1.6882
-1.69032
-1.6924
-1.69445
-1.69646
-1.69843
-1.70036
-1.70226
-1.70413
-1.70596
-1.70775
-1.70951
-1.71124
-1.71294
-1.71461
-1.71624
-1.71785
-1.71942
-1.72097
-1.72248
-1.72397
-1.72543
-1.72687
-1.72827
-1.72965
-1.731
-1.34878
-1.34889
-1.34946
-1.35039
-1.35164
-1.35321
-1.35509
-1.35725
-1.35967
-1.36234
-1.36524
-1.36836
-1.37167
-1.37518
-1.37885
-1.38269
-1.38667
-1.39078
-1.39501
-1.39935
-1.40379
-1.40832
-1.41293
-1.41761
-1.42235
-1.42714
-1.43197
-1.43684
-1.44174
-1.44666
-1.4516
-1.45655
-1.46151
-1.46646
-1.47141
-1.47635
-1.48127
-1.48618
-1.49106
-1.49592
-1.50075
-1.50555
-1.51031
-1.51504
-1.51973
-1.52438
-1.52898
-1.53354
-1.53805
-1.54251
-1.54693
-1.55129
-1.5556
-1.55986
-1.56407
-1.56822
-1.57232
-1.57636
-1.58035
-1.58428
-1.58815
-1.59197
-1.59574
-1.59945
-1.6031
-1.6067
-1.61024
-1.61372
-1.61715
-1.62053
-1.62385
-1.62712
-1.63034
-1.6335
-1.63661
-1.63966
-1.64267
-1.64562
-1.64852
-1.65138
-1.65418
-1.65694
-1.65965
-1.66231
-1.66492
-1.66749
-1.67001
-1.67248
-1.67492
-1.6773
-1.67965
-1.68195
-1.68422
-1.68644
-1.68862
-1.69076
-1.69286
-1.69492
-1.69695
-1.69894
-1.70089
-1.7028
-1.70468
-1.70653
-1.70834
-1.71012
-1.71186
-1.71358
-1.71526
-1.71691
-1.71853
-1.72012
-1.72168
-1.72321
-1.72471
-1.72618
-1.72763
-1.72905
-1.73044
-1.7318
-1.34751
-1.34759
-1.34814
-1.34906
-1.35029
-1.35185
-1.35372
-1.35587
-1.35828
-1.36095
-1.36384
-1.36696
-1.37028
-1.37378
-1.37746
-1.3813
-1.38528
-1.3894
-1.39364
-1.39799
-1.40244
-1.40698
-1.41161
-1.4163
-1.42105
-1.42586
-1.43071
-1.4356
-1.44052
-1.44546
-1.45042
-1.45539
-1.46037
-1.46534
-1.47031
-1.47528
-1.48023
-1.48516
-1.49007
-1.49495
-1.49981
-1.50463
-1.50943
-1.51418
-1.5189
-1.52357
-1.5282
-1.53279
-1.53733
-1.54182
-1.54626
-1.55065
-1.555
-1.55928
-1.56352
-1.5677
-1.57182
-1.5759
-1.57991
-1.58387
-1.58778
-1.59163
-1.59542
-1.59915
-1.60283
-1.60646
-1.61003
-1.61354
-1.617
-1.6204
-1.62375
-1.62704
-1.63028
-1.63347
-1.6366
-1.63969
-1.64272
-1.6457
-1.64862
-1.6515
-1.65433
-1.65711
-1.65984
-1.66252
-1.66516
-1.66775
-1.67029
-1.67279
-1.67524
-1.67765
-1.68002
-1.68234
-1.68463
-1.68687
-1.68907
-1.69123
-1.69335
-1.69543
-1.69748
-1.69948
-1.70145
-1.70339
-1.70529
-1.70715
-1.70898
-1.71077
-1.71253
-1.71426
-1.71596
-1.71763
-1.71926
-1.72087
-1.72244
-1.72399
-1.7255
-1.72699
-1.72845
-1.72989
-1.73129
-1.73266
-1.34613
-1.34619
-1.34673
-1.34763
-1.34885
-1.3504
-1.35225
-1.35439
-1.35679
-1.35945
-1.36235
-1.36546
-1.36878
-1.37228
-1.37596
-1.3798
-1.38379
-1.38792
-1.39217
-1.39653
-1.40099
-1.40555
-1.41018
-1.41489
-1.41966
-1.42448
-1.42935
-1.43426
-1.4392
-1.44416
-1.44915
-1.45414
-1.45914
-1.46414
-1.46914
-1.47413
-1.4791
-1.48406
-1.489
-1.49391
-1.4988
-1.50365
-1.50847
-1.51326
-1.518
-1.52271
-1.52737
-1.53198
-1.53655
-1.54108
-1.54555
-1.54997
-1.55434
-1.55866
-1.56293
-1.56714
-1.5713
-1.5754
-1.57945
-1.58344
-1.58737
-1.59125
-1.59507
-1.59884
-1.60255
-1.6062
-1.6098
-1.61334
-1.61683
-1.62026
-1.62364
-1.62696
-1.63023
-1.63344
-1.6366
-1.63971
-1.64277
-1.64578
-1.64873
-1.65163
-1.65449
-1.65729
-1.66005
-1.66276
-1.66542
-1.66803
-1.6706
-1.67312
-1.6756
-1.67803
-1.68042
-1.68277
-1.68507
-1.68733
-1.68956
-1.69174
-1.69388
-1.69598
-1.69805
-1.70007
-1.70206
-1.70402
-1.70593
-1.70782
-1.70966
-1.71148
-1.71326
-1.715
-1.71672
-1.7184
-1.72005
-1.72168
-1.72327
-1.72483
-1.72636
-1.72787
-1.72934
-1.73079
-1.73221
-1.73359
-1.34467
-1.34471
-1.34522
-1.3461
-1.34731
-1.34884
-1.35068
-1.35281
-1.35521
-1.35786
-1.36075
-1.36386
-1.36717
-1.37068
-1.37436
-1.37821
-1.3822
-1.38634
-1.3906
-1.39497
-1.39944
-1.40401
-1.40866
-1.41338
-1.41817
-1.42301
-1.4279
-1.43283
-1.43779
-1.44278
-1.44779
-1.4528
-1.45783
-1.46286
-1.46788
-1.4729
-1.4779
-1.48289
-1.48786
-1.4928
-1.49772
-1.5026
-1.50745
-1.51227
-1.51704
-1.52178
-1.52647
-1.53112
-1.53573
-1.54028
-1.54479
-1.54924
-1.55365
-1.558
-1.5623
-1.56654
-1.57073
-1.57487
-1.57895
-1.58297
-1.58694
-1.59085
-1.5947
-1.5985
-1.60224
-1.60593
-1.60956
-1.61313
-1.61665
-1.62011
-1.62352
-1.62687
-1.63017
-1.63341
-1.6366
-1.63974
-1.64283
-1.64586
-1.64884
-1.65178
-1.65466
-1.65749
-1.66027
-1.66301
-1.66569
-1.66833
-1.67093
-1.67347
-1.67597
-1.67843
-1.68085
-1.68322
-1.68555
-1.68783
-1.69008
-1.69228
-1.69444
-1.69657
-1.69866
-1.7007
-1.70272
-1.70469
-1.70663
-1.70853
-1.7104
-1.71223
-1.71403
-1.7158
-1.71753
-1.71923
-1.7209
-1.72254
-1.72415
-1.72573
-1.72728
-1.7288
-1.73029
-1.73176
-1.73319
-1.73459
-1.34311
-1.34313
-1.34362
-1.34448
-1.34567
-1.34718
-1.34901
-1.35113
-1.35352
-1.35616
-1.35905
-1.36216
-1.36547
-1.36898
-1.37266
-1.37651
-1.38052
-1.38466
-1.38893
-1.39331
-1.3978
-1.40238
-1.40705
-1.41179
-1.41659
-1.42145
-1.42636
-1.43131
-1.4363
-1.44131
-1.44634
-1.45139
-1.45644
-1.46149
-1.46655
-1.47159
-1.47663
-1.48164
-1.48664
-1.49162
-1.49657
-1.50148
-1.50637
-1.51122
-1.51603
-1.5208
-1.52553
-1.53021
-1.53485
-1.53944
-1.54398
-1.54847
-1.55291
-1.55729
-1.56163
-1.56591
-1.57013
-1.5743
-1.57842
-1.58247
-1.58648
-1.59042
-1.59431
-1.59814
-1.60192
-1.60564
-1.6093
-1.61291
-1.61646
-1.61995
-1.62339
-1.62678
-1.63011
-1.63338
-1.6366
-1.63977
-1.64289
-1.64595
-1.64896
-1.65193
-1.65484
-1.6577
-1.66051
-1.66327
-1.66599
-1.66865
-1.67127
-1.67385
-1.67638
-1.67886
-1.6813
-1.6837
-1.68605
-1.68836
-1.69063
-1.69286
-1.69505
-1.6972
-1.6993
-1.70138
-1.70341
-1.70541
-1.70737
-1.70929
-1.71118
-1.71303
-1.71485
-1.71664
-1.71839
-1.72011
-1.7218
-1.72346
-1.72509
-1.72669
-1.72825
-1.72979
-1.7313
-1.73279
-1.73424
-1.73565
-1.34147
-1.34145
-1.34193
-1.34276
-1.34393
-1.34544
-1.34725
-1.34936
-1.35174
-1.35437
-1.35725
-1.36036
-1.36367
-1.36718
-1.37087
-1.37472
-1.37873
-1.38288
-1.38716
-1.39155
-1.39606
-1.40065
-1.40534
-1.41009
-1.41492
-1.4198
-1.42473
-1.42971
-1.43472
-1.43975
-1.44481
-1.44988
-1.45497
-1.46005
-1.46513
-1.47021
-1.47528
-1.48033
-1.48536
-1.49036
-1.49535
-1.5003
-1.50522
-1.5101
-1.51495
-1.51976
-1.52452
-1.52924
-1.53391
-1.53854
-1.54312
-1.54765
-1.55212
-1.55655
-1.56092
-1.56523
-1.5695
-1.5737
-1.57785
-1.58195
-1.58599
-1.58997
-1.59389
-1.59776
-1.60157
-1.60533
-1.60903
-1.61267
-1.61625
-1.61978
-1.62326
-1.62667
-1.63004
-1.63335
-1.6366
-1.6398
-1.64295
-1.64605
-1.64909
-1.65209
-1.65503
-1.65792
-1.66076
-1.66355
-1.6663
-1.66899
-1.67164
-1.67425
-1.6768
-1.67932
-1.68178
-1.68421
-1.68659
-1.68892
-1.69122
-1.69347
-1.69569
-1.69786
-1.69999
-1.70209
-1.70415
-1.70617
-1.70815
-1.71009
-1.71201
-1.71388
-1.71572
-1.71753
-1.71931
-1.72105
-1.72276
-1.72444
-1.72608
-1.7277
-1.72929
-1.73085
-1.73238
-1.73388
-1.73535
-1.73677
-1.33974
-1.33969
-1.34014
-1.34096
-1.34211
-1.34359
-1.34539
-1.34749
-1.34986
-1.35249
-1.35536
-1.35846
-1.36177
-1.36528
-1.36897
-1.37283
-1.37685
-1.38101
-1.3853
-1.3897
-1.39422
-1.39883
-1.40353
-1.40831
-1.41315
-1.41806
-1.42302
-1.42801
-1.43305
-1.43811
-1.4432
-1.4483
-1.45341
-1.45853
-1.46364
-1.46875
-1.47385
-1.47893
-1.484
-1.48904
-1.49406
-1.49905
-1.50401
-1.50893
-1.51381
-1.51866
-1.52346
-1.52822
-1.53293
-1.5376
-1.54221
-1.54678
-1.55129
-1.55576
-1.56017
-1.56452
-1.56882
-1.57307
-1.57726
-1.58139
-1.58547
-1.58949
-1.59345
-1.59736
-1.60121
-1.605
-1.60874
-1.61242
-1.61604
-1.6196
-1.62311
-1.62657
-1.62997
-1.63331
-1.6366
-1.63984
-1.64302
-1.64615
-1.64923
-1.65225
-1.65523
-1.65815
-1.66103
-1.66385
-1.66663
-1.66935
-1.67203
-1.67467
-1.67725
-1.6798
-1.68229
-1.68474
-1.68715
-1.68952
-1.69184
-1.69412
-1.69636
-1.69856
-1.70072
-1.70284
-1.70492
-1.70697
-1.70898
-1.71095
-1.71288
-1.71478
-1.71665
-1.71848
-1.72027
-1.72204
-1.72377
-1.72547
-1.72714
-1.72877
-1.73038
-1.73196
-1.73351
-1.73503
-1.73652
-1.73796
-1.33792
-1.33785
-1.33827
-1.33906
-1.34019
-1.34166
-1.34344
-1.34552
-1.34788
-1.3505
-1.35337
-1.35647
-1.35978
-1.36329
-1.36698
-1.37085
-1.37487
-1.37904
-1.38334
-1.38776
-1.39229
-1.39692
-1.40164
-1.40644
-1.4113
-1.41623
-1.42121
-1.42623
-1.4313
-1.43639
-1.4415
-1.44663
-1.45178
-1.45693
-1.46207
-1.46722
-1.47235
-1.47747
-1.48257
-1.48765
-1.49271
-1.49774
-1.50273
-1.50769
-1.51261
-1.5175
-1.52234
-1.52714
-1.53189
-1.5366
-1.54126
-1.54587
-1.55042
-1.55493
-1.55938
-1.56377
-1.56812
-1.5724
-1.57663
-1.58081
-1.58493
-1.58899
-1.59299
-1.59694
-1.60083
-1.60466
-1.60843
-1.61215
-1.61581
-1.61942
-1.62296
-1.62646
-1.62989
-1.63328
-1.6366
-1.63987
-1.64309
-1.64626
-1.64937
-1.65243
-1.65544
-1.6584
-1.66131
-1.66417
-1.66697
-1.66973
-1.67245
-1.67511
-1.67773
-1.6803
-1.68283
-1.68531
-1.68775
-1.69014
-1.69249
-1.6948
-1.69707
-1.6993
-1.70149
-1.70363
-1.70574
-1.70781
-1.70985
-1.71184
-1.7138
-1.71573
-1.71762
-1.71947
-1.72129
-1.72308
-1.72483
-1.72655
-1.72824
-1.7299
-1.73153
-1.73313
-1.7347
-1.73624
-1.73775
-1.73921
-1.33602
-1.33591
-1.33631
-1.33708
-1.33819
-1.33963
-1.3414
-1.34347
-1.34581
-1.34843
-1.35129
-1.35438
-1.35769
-1.3612
-1.3649
-1.36877
-1.3728
-1.37698
-1.38129
-1.38572
-1.39027
-1.39492
-1.39965
-1.40447
-1.40936
-1.41431
-1.41932
-1.42437
-1.42946
-1.43458
-1.43972
-1.44489
-1.45006
-1.45525
-1.46043
-1.46561
-1.47078
-1.47594
-1.48108
-1.4862
-1.49129
-1.49636
-1.50139
-1.5064
-1.51136
-1.51629
-1.52117
-1.52601
-1.53081
-1.53556
-1.54026
-1.54491
-1.54951
-1.55406
-1.55855
-1.56299
-1.56737
-1.5717
-1.57598
-1.5802
-1.58436
-1.58846
-1.5925
-1.59649
-1.60042
-1.6043
-1.60811
-1.61187
-1.61557
-1.61922
-1.62281
-1.62634
-1.62982
-1.63324
-1.6366
-1.63991
-1.64317
-1.64637
-1.64952
-1.65262
-1.65566
-1.65866
-1.6616
-1.66449
-1.66734
-1.67013
-1.67288
-1.67558
-1.67823
-1.68083
-1.68339
-1.6859
-1.68837
-1.6908
-1.69318
-1.69552
-1.69782
-1.70007
-1.70229
-1.70446
-1.7066
-1.7087
-1.71076
-1.71278
-1.71477
-1.71672
-1.71863
-1.72051
-1.72236
-1.72417
-1.72595
-1.72769
-1.72941
-1.73109
-1.73274
-1.73436
-1.73596
-1.73752
-1.73905
-1.74052
-1.33403
-1.3339
-1.33426
-1.33501
-1.33609
-1.33752
-1.33927
-1.34132
-1.34366
-1.34626
-1.34911
-1.3522
-1.35551
-1.35902
-1.36272
-1.3666
-1.37064
-1.37483
-1.37915
-1.3836
-1.38816
-1.39282
-1.39758
-1.40242
-1.40733
-1.41231
-1.41734
-1.42242
-1.42754
-1.43269
-1.43787
-1.44306
-1.44827
-1.45349
-1.45871
-1.46393
-1.46914
-1.47433
-1.47951
-1.48467
-1.48981
-1.49492
-1.49999
-1.50504
-1.51005
-1.51502
-1.51995
-1.52483
-1.52967
-1.53447
-1.53921
-1.54391
-1.54855
-1.55314
-1.55768
-1.56217
-1.5666
-1.57097
-1.57529
-1.57955
-1.58376
-1.58791
-1.592
-1.59603
-1.6
-1.60392
-1.60778
-1.61158
-1.61532
-1.61901
-1.62264
-1.62622
-1.62973
-1.63319
-1.6366
-1.63995
-1.64325
-1.64649
-1.64968
-1.65281
-1.6559
-1.65893
-1.66191
-1.66484
-1.66772
-1.67055
-1.67333
-1.67606
-1.67875
-1.68139
-1.68398
-1.68652
-1.68903
-1.69148
-1.6939
-1.69627
-1.6986
-1.70088
-1.70313
-1.70534
-1.7075
-1.70963
-1.71172
-1.71377
-1.71578
-1.71776
-1.7197
-1.72161
-1.72348
-1.72531
-1.72712
-1.72889
-1.73063
-1.73233
-1.73401
-1.73565
-1.73727
-1.73885
-1.7404
-1.7419
-1.33196
-1.33179
-1.33213
-1.33285
-1.33391
-1.33532
-1.33705
-1.33909
-1.34141
-1.344
-1.34685
-1.34993
-1.35324
-1.35675
-1.36046
-1.36434
-1.36838
-1.37258
-1.37692
-1.38138
-1.38596
-1.39064
-1.39542
-1.40028
-1.40522
-1.41022
-1.41528
-1.42038
-1.42553
-1.43072
-1.43593
-1.44116
-1.44641
-1.45166
-1.45692
-1.46217
-1.46742
-1.47266
-1.47788
-1.48308
-1.48826
-1.49341
-1.49853
-1.50362
-1.50868
-1.51369
-1.51867
-1.5236
-1.52849
-1.53333
-1.53812
-1.54286
-1.54755
-1.55219
-1.55678
-1.56131
-1.56579
-1.57021
-1.57457
-1.57888
-1.58313
-1.58733
-1.59146
-1.59554
-1.59956
-1.60353
-1.60743
-1.61128
-1.61506
-1.6188
-1.62247
-1.62609
-1.62965
-1.63315
-1.6366
-1.63999
-1.64333
-1.64661
-1.64984
-1.65302
-1.65614
-1.65921
-1.66223
-1.6652
-1.66812
-1.67098
-1.6738
-1.67657
-1.67929
-1.68197
-1.68459
-1.68717
-1.68971
-1.6922
-1.69465
-1.69705
-1.69941
-1.70173
-1.70401
-1.70625
-1.70844
-1.7106
-1.71272
-1.7148
-1.71684
-1.71885
-1.72081
-1.72275
-1.72465
-1.72651
-1.72834
-1.73014
-1.7319
-1.73363
-1.73533
-1.737
-1.73864
-1.74025
-1.74182
-1.74333
-1.32981
-1.32961
-1.32992
-1.33061
-1.33164
-1.33303
-1.33474
-1.33676
-1.33907
-1.34166
-1.3445
-1.34758
-1.35088
-1.35439
-1.3581
-1.36199
-1.36604
-1.37025
-1.3746
-1.37907
-1.38367
-1.38837
-1.39317
-1.39805
-1.40301
-1.40804
-1.41313
-1.41827
-1.42345
-1.42867
-1.43391
-1.43918
-1.44446
-1.44975
-1.45505
-1.46035
-1.46564
-1.47092
-1.47618
-1.48143
-1.48665
-1.49185
-1.49701
-1.50215
-1.50725
-1.51231
-1.51733
-1.52231
-1.52725
-1.53214
-1.53698
-1.54177
-1.54651
-1.5512
-1.55583
-1.56042
-1.56494
-1.56941
-1.57383
-1.57818
-1.58248
-1.58673
-1.59091
-1.59504
-1.5991
-1.60311
-1.60707
-1.61096
-1.61479
-1.61857
-1.62229
-1.62595
-1.62956
-1.63311
-1.6366
-1.64003
-1.64342
-1.64674
-1.65001
-1.65323
-1.65639
-1.65951
-1.66257
-1.66557
-1.66853
-1.67144
-1.67429
-1.6771
-1.67986
-1.68257
-1.68523
-1.68785
-1.69042
-1.69295
-1.69543
-1.69787
-1.70026
-1.70261
-1.70493
-1.70719
-1.70942
-1.71161
-1.71376
-1.71587
-1.71794
-1.71998
-1.72198
-1.72394
-1.72586
-1.72776
-1.72961
-1.73144
-1.73323
-1.73498
-1.73671
-1.7384
-1.74007
-1.7417
-1.7433
-1.74483
-1.32758
-1.32734
-1.32762
-1.32828
-1.32929
-1.33065
-1.33235
-1.33435
-1.33665
-1.33922
-1.34205
-1.34513
-1.34843
-1.35194
-1.35565
-1.35955
-1.36361
-1.36783
-1.37219
-1.37668
-1.38129
-1.38602
-1.39083
-1.39574
-1.40073
-1.40579
-1.4109
-1.41607
-1.42128
-1.42654
-1.43182
-1.43712
-1.44244
-1.44777
-1.45311
-1.45845
-1.46378
-1.4691
-1.47441
-1.47971
-1.48497
-1.49022
-1.49543
-1.50062
-1.50577
-1.51088
-1.51595
-1.52098
-1.52596
-1.5309
-1.53579
-1.54064
-1.54543
-1.55017
-1.55485
-1.55949
-1.56406
-1.56858
-1.57305
-1.57746
-1.58181
-1.5861
-1.59033
-1.59451
-1.59863
-1.60269
-1.60669
-1.61063
-1.61451
-1.61834
-1.6221
-1.62581
-1.62946
-1.63306
-1.6366
-1.64008
-1.6435
-1.64687
-1.65019
-1.65345
-1.65666
-1.65981
-1.66291
-1.66596
-1.66896
-1.67191
-1.6748
-1.67765
-1.68045
-1.6832
-1.6859
-1.68855
-1.69116
-1.69373
-1.69624
-1.69872
-1.70115
-1.70353
-1.70588
-1.70818
-1.71044
-1.71266
-1.71484
-1.71699
-1.71909
-1.72116
-1.72318
-1.72518
-1.72713
-1.72905
-1.73094
-1.73279
-1.73461
-1.73639
-1.73815
-1.73987
-1.74156
-1.74322
-1.74483
-1.74639
-1.32527
-1.325
-1.32525
-1.32587
-1.32686
-1.3282
-1.32987
-1.33186
-1.33414
-1.3367
-1.33952
-1.34259
-1.34589
-1.34941
-1.35312
-1.35702
-1.36109
-1.36532
-1.36969
-1.3742
-1.37883
-1.38357
-1.38842
-1.39335
-1.39836
-1.40345
-1.40859
-1.41379
-1.41904
-1.42433
-1.42964
-1.43499
-1.44035
-1.44572
-1.4511
-1.45648
-1.46186
-1.46723
-1.47258
-1.47792
-1.48324
-1.48853
-1.49379
-1.49903
-1.50423
-1.50939
-1.51451
-1.51959
-1.52463
-1.52962
-1.53456
-1.53946
-1.5443
-1.5491
-1.55383
-1.55852
-1.56315
-1.56772
-1.57224
-1.5767
-1.5811
-1.58545
-1.58973
-1.59396
-1.59813
-1.60224
-1.60629
-1.61028
-1.61422
-1.61809
-1.62191
-1.62566
-1.62937
-1.63301
-1.63659
-1.64012
-1.64359
-1.64701
-1.65037
-1.65368
-1.65693
-1.66013
-1.66327
-1.66637
-1.66941
-1.6724
-1.67533
-1.67822
-1.68106
-1.68385
-1.68659
-1.68929
-1.69193
-1.69453
-1.69709
-1.6996
-1.70207
-1.70449
-1.70687
-1.70921
-1.7115
-1.71376
-1.71597
-1.71815
-1.72028
-1.72238
-1.72444
-1.72646
-1.72845
-1.7304
-1.73232
-1.7342
-1.73604
-1.73786
-1.73964
-1.74138
-1.7431
-1.74479
-1.74643
-1.74801
-1.32289
-1.32258
-1.32279
-1.32339
-1.32434
-1.32566
-1.32731
-1.32928
-1.33155
-1.33409
-1.33691
-1.33997
-1.34327
-1.34678
-1.3505
-1.3544
-1.35848
-1.36272
-1.36711
-1.37164
-1.37628
-1.38105
-1.38591
-1.39087
-1.39591
-1.40102
-1.4062
-1.41144
-1.41672
-1.42204
-1.42739
-1.43278
-1.43818
-1.44359
-1.44902
-1.45444
-1.45986
-1.46528
-1.47068
-1.47607
-1.48144
-1.48678
-1.49209
-1.49738
-1.50263
-1.50785
-1.51302
-1.51816
-1.52325
-1.52829
-1.53329
-1.53824
-1.54314
-1.54798
-1.55278
-1.55752
-1.5622
-1.56683
-1.5714
-1.57592
-1.58037
-1.58477
-1.58911
-1.59339
-1.59761
-1.60178
-1.60588
-1.60993
-1.61391
-1.61784
-1.6217
-1.62551
-1.62926
-1.63296
-1.63659
-1.64017
-1.64369
-1.64715
-1.65056
-1.65392
-1.65721
-1.66046
-1.66365
-1.66679
-1.66987
-1.6729
-1.67588
-1.67881
-1.6817
-1.68453
-1.68731
-1.69004
-1.69273
-1.69537
-1.69797
-1.70051
-1.70302
-1.70548
-1.70789
-1.71027
-1.7126
-1.71489
-1.71714
-1.71935
-1.72152
-1.72365
-1.72574
-1.7278
-1.72982
-1.7318
-1.73374
-1.73565
-1.73753
-1.73937
-1.74118
-1.74296
-1.7447
-1.74642
-1.74809
-1.74969
-1.32043
-1.32008
-1.32025
-1.32082
-1.32175
-1.32304
-1.32467
-1.32662
-1.32887
-1.3314
-1.33421
-1.33727
-1.34056
-1.34407
-1.34779
-1.3517
-1.35579
-1.36004
-1.36444
-1.36899
-1.37365
-1.37844
-1.38333
-1.38831
-1.39338
-1.39852
-1.40373
-1.409
-1.41432
-1.41968
-1.42507
-1.43049
-1.43594
-1.44139
-1.44686
-1.45233
-1.4578
-1.46327
-1.46872
-1.47416
-1.47957
-1.48497
-1.49034
-1.49567
-1.50098
-1.50625
-1.51148
-1.51667
-1.52181
-1.52692
-1.53197
-1.53698
-1.54193
-1.54683
-1.55168
-1.55648
-1.56122
-1.56591
-1.57053
-1.57511
-1.57962
-1.58407
-1.58847
-1.5928
-1.59708
-1.6013
-1.60546
-1.60955
-1.61359
-1.61757
-1.62149
-1.62535
-1.62916
-1.6329
-1.63659
-1.64021
-1.64379
-1.6473
-1.65076
-1.65416
-1.65751
-1.6608
-1.66403
-1.66722
-1.67035
-1.67343
-1.67645
-1.67943
-1.68235
-1.68523
-1.68805
-1.69083
-1.69356
-1.69624
-1.69887
-1.70146
-1.704
-1.7065
-1.70896
-1.71137
-1.71374
-1.71607
-1.71835
-1.7206
-1.7228
-1.72497
-1.72709
-1.72918
-1.73123
-1.73325
-1.73522
-1.73717
-1.73907
-1.74095
-1.74279
-1.74459
-1.74637
-1.74811
-1.74981
-1.75143
-1.3179
-1.3175
-1.31764
-1.31817
-1.31907
-1.32033
-1.32194
-1.32387
-1.32611
-1.32863
-1.33143
-1.33448
-1.33777
-1.34128
-1.345
-1.34892
-1.35302
-1.35728
-1.36169
-1.36625
-1.37094
-1.37574
-1.38066
-1.38567
-1.39076
-1.39594
-1.40118
-1.40648
-1.41184
-1.41723
-1.42267
-1.42813
-1.43362
-1.43912
-1.44464
-1.45016
-1.45567
-1.46119
-1.46669
-1.47218
-1.47765
-1.4831
-1.48852
-1.49391
-1.49927
-1.5046
-1.50988
-1.51513
-1.52033
-1.52549
-1.53061
-1.53567
-1.54068
-1.54564
-1.55055
-1.55541
-1.56021