/*--------------------------------*- C++ -*----------------------------------*\
  =========                 |
  \\      /  F ield         | OpenFOAM: The Open Source CFD Toolbox
   \\    /   O peration     | Website:  https://openfoam.org
    \\  /    A nd           | Version:  9
     \\/     M anipulation  |
\*---------------------------------------------------------------------------*/
FoamFile
{
    format      ascii;
    class       surfaceScalarField;
    location    "0.0475";
    object      phi;
}
// * * * * * * * * * * * * * * * * * * * * * * * * * * * * * * * * * * * * * //

dimensions      [1 0 -1 0 0 0 0];

internalField   nonuniform List<scalar> 
19161
(
-0.0390825
-0.0260823
-0.0410718
-0.0260848
-0.0430591
-0.0260872
-0.0450444
-0.0260896
-0.0470279
-0.0260919
-0.0490097
-0.026094
-0.0509899
-0.0260962
-0.0529686
-0.0260982
-0.0549459
-0.0261003
-0.0569219
-0.0261022
-0.0588967
-0.0261041
-0.0608705
-0.026106
-0.0628433
-0.0261079
-0.0648152
-0.0261097
-0.0667863
-0.0261114
-0.0687567
-0.0261131
-0.0707266
-0.0261148
-0.072696
-0.0261164
-0.074665
-0.0261179
-0.0766337
-0.0261194
-0.0786022
-0.0261209
-0.0805706
-0.0261223
-0.082539
-0.0261236
-0.0845074
-0.0261249
-0.0864761
-0.0261262
-0.088445
-0.0261274
-0.0904143
-0.0261286
-0.0923841
-0.0261297
-0.0943544
-0.0261308
-0.0963255
-0.0261319
-0.0982973
-0.026133
-0.10027
-0.026134
-0.102244
-0.0261351
-0.104219
-0.0261361
-0.106194
-0.0261371
-0.108171
-0.0261381
-0.11015
-0.0261391
-0.112129
-0.0261403
-0.0261411
-0.114112
-0.0365653
-0.0242267
-0.0384196
-0.0242304
-0.0402729
-0.024234
-0.0421251
-0.0242373
-0.0439764
-0.0242406
-0.0458269
-0.0242436
-0.0476765
-0.0242465
-0.0495255
-0.0242493
-0.0513739
-0.0242519
-0.0532217
-0.0242544
-0.055069
-0.0242568
-0.0569159
-0.0242591
-0.0587625
-0.0242613
-0.0606088
-0.0242634
-0.0624548
-0.0242654
-0.0643007
-0.0242672
-0.0661465
-0.024269
-0.0679923
-0.0242707
-0.069838
-0.0242722
-0.0716837
-0.0242737
-0.0735296
-0.024275
-0.0753756
-0.0242763
-0.0772218
-0.0242774
-0.0790683
-0.0242785
-0.0809151
-0.0242794
-0.0827622
-0.0242803
-0.0846098
-0.024281
-0.0864578
-0.0242817
-0.0883064
-0.0242823
-0.0901555
-0.0242828
-0.0920053
-0.0242832
-0.0938558
-0.0242835
-0.0957071
-0.0242838
-0.0975591
-0.024284
-0.099412
-0.0242842
-0.101266
-0.0242844
-0.10312
-0.0242846
-0.104976
-0.0242848
-0.0242856
-0.106831
-0.0340908
-0.0225043
-0.0358122
-0.022509
-0.0375328
-0.0225134
-0.0392526
-0.0225175
-0.0409718
-0.0225213
-0.0426905
-0.022525
-0.0444086
-0.0225283
-0.0461264
-0.0225315
-0.0478438
-0.0225345
-0.049561
-0.0225373
-0.0512779
-0.0225399
-0.0529947
-0.0225423
-0.0547115
-0.0225445
-0.0564282
-0.0225466
-0.058145
-0.0225486
-0.0598619
-0.0225503
-0.061579
-0.0225519
-0.0632963
-0.0225534
-0.0650138
-0.0225547
-0.0667317
-0.0225558
-0.0684499
-0.0225568
-0.0701686
-0.0225576
-0.0718877
-0.0225583
-0.0736073
-0.0225589
-0.0753274
-0.0225593
-0.0770481
-0.0225596
-0.0787693
-0.0225597
-0.0804913
-0.0225597
-0.0822139
-0.0225596
-0.0839373
-0.0225594
-0.0856614
-0.022559
-0.0873863
-0.0225586
-0.0891121
-0.022558
-0.0908388
-0.0225574
-0.0925664
-0.0225566
-0.0942949
-0.0225558
-0.0960245
-0.022555
-0.0977553
-0.0225541
-0.022553
-0.0994878
-0.0319696
-0.0209036
-0.0335697
-0.0209089
-0.0351693
-0.0209138
-0.0367684
-0.0209184
-0.0383671
-0.0209226
-0.0399655
-0.0209265
-0.0415637
-0.0209302
-0.0431617
-0.0209335
-0.0447596
-0.0209366
-0.0463574
-0.0209394
-0.0479552
-0.020942
-0.0495532
-0.0209444
-0.0511512
-0.0209465
-0.0527494
-0.0209484
-0.0543479
-0.0209501
-0.0559467
-0.0209516
-0.0575457
-0.0209528
-0.0591452
-0.0209539
-0.0607451
-0.0209548
-0.0623455
-0.0209555
-0.0639463
-0.020956
-0.0655477
-0.0209563
-0.0671496
-0.0209564
-0.0687521
-0.0209564
-0.0703552
-0.0209562
-0.071959
-0.0209558
-0.0735635
-0.0209553
-0.0751686
-0.0209546
-0.0767744
-0.0209538
-0.078381
-0.0209528
-0.0799883
-0.0209518
-0.0815963
-0.0209506
-0.0832051
-0.0209492
-0.0848146
-0.0209478
-0.086425
-0.0209463
-0.0880362
-0.0209447
-0.0896482
-0.0209429
-0.0912612
-0.0209412
-0.0209394
-0.0928748
-0.0300208
-0.0194176
-0.0315065
-0.0194233
-0.0329917
-0.0194286
-0.0344767
-0.0194334
-0.0359615
-0.0194378
-0.0374461
-0.0194419
-0.0389307
-0.0194456
-0.0404152
-0.019449
-0.0418997
-0.0194521
-0.0433844
-0.0194548
-0.0448692
-0.0194572
-0.0463542
-0.0194594
-0.0478394
-0.0194612
-0.049325
-0.0194628
-0.0508109
-0.0194642
-0.0522973
-0.0194652
-0.053784
-0.019466
-0.0552713
-0.0194666
-0.0567592
-0.0194669
-0.0582476
-0.019467
-0.0597366
-0.0194669
-0.0612263
-0.0194666
-0.0627166
-0.0194661
-0.0642076
-0.0194653
-0.0656994
-0.0194644
-0.0671919
-0.0194633
-0.0686852
-0.019462
-0.0701793
-0.0194605
-0.0716741
-0.0194589
-0.0731699
-0.0194571
-0.0746664
-0.0194552
-0.0761638
-0.0194532
-0.077662
-0.019451
-0.0791612
-0.0194487
-0.0806612
-0.0194463
-0.082162
-0.0194438
-0.0836638
-0.0194412
-0.0851664
-0.0194385
-0.0194358
-0.0866701
-0.0282741
-0.0180379
-0.0296537
-0.0180438
-0.031033
-0.0180492
-0.0324122
-0.0180542
-0.0337914
-0.0180587
-0.0351705
-0.0180628
-0.0365496
-0.0180665
-0.0379288
-0.0180698
-0.0393082
-0.0180727
-0.0406877
-0.0180753
-0.0420675
-0.0180775
-0.0434476
-0.0180793
-0.044828
-0.0180808
-0.0462088
-0.018082
-0.04759
-0.0180829
-0.0489717
-0.0180835
-0.0503539
-0.0180838
-0.0517366
-0.0180839
-0.05312
-0.0180836
-0.0545039
-0.0180831
-0.0558886
-0.0180823
-0.0572739
-0.0180813
-0.0586599
-0.0180801
-0.0600466
-0.0180786
-0.0614341
-0.0180769
-0.0628224
-0.018075
-0.0642115
-0.0180729
-0.0656013
-0.0180707
-0.0669921
-0.0180682
-0.0683836
-0.0180656
-0.069776
-0.0180628
-0.0711692
-0.0180599
-0.0725633
-0.0180569
-0.0739583
-0.0180537
-0.0753541
-0.0180504
-0.0767508
-0.0180471
-0.0781484
-0.0180436
-0.0795468
-0.0180401
-0.0180365
-0.0809461
-0.0266772
-0.0167572
-0.0279577
-0.0167632
-0.0292382
-0.0167687
-0.0305187
-0.0167737
-0.0317992
-0.0167782
-0.0330798
-0.0167822
-0.0343605
-0.0167858
-0.0356413
-0.0167889
-0.0369224
-0.0167917
-0.0382037
-0.016794
-0.0394853
-0.0167958
-0.0407672
-0.0167974
-0.0420496
-0.0167985
-0.0433324
-0.0167993
-0.0446156
-0.0167997
-0.0458994
-0.0167998
-0.0471837
-0.0167995
-0.0484687
-0.0167989
-0.0497542
-0.0167981
-0.0510404
-0.0167969
-0.0523273
-0.0167954
-0.0536149
-0.0167937
-0.0549033
-0.0167917
-0.0561924
-0.0167895
-0.0574823
-0.016787
-0.0587731
-0.0167843
-0.0600646
-0.0167814
-0.061357
-0.0167783
-0.0626502
-0.016775
-0.0639443
-0.0167715
-0.0652393
-0.0167679
-0.0665352
-0.0167641
-0.0678319
-0.0167602
-0.0691295
-0.0167561
-0.070428
-0.016752
-0.0717273
-0.0167477
-0.0730276
-0.0167434
-0.0743287
-0.016739
-0.0167345
-0.0756307
-0.0252226
-0.0155685
-0.0264113
-0.0155745
-0.0276
-0.01558
-0.0287888
-0.0155849
-0.0299776
-0.0155893
-0.0311666
-0.0155932
-0.0323558
-0.0155966
-0.0335452
-0.0155995
-0.0347349
-0.015602
-0.0359248
-0.015604
-0.0371151
-0.0156055
-0.0383058
-0.0156067
-0.0394969
-0.0156074
-0.0406885
-0.0156077
-0.0418806
-0.0156076
-0.0430732
-0.0156071
-0.0442664
-0.0156063
-0.0454602
-0.0156051
-0.0466546
-0.0156036
-0.0478497
-0.0156018
-0.0490454
-0.0155996
-0.0502419
-0.0155972
-0.0514392
-0.0155945
-0.0526372
-0.0155915
-0.053836
-0.0155882
-0.0550356
-0.0155847
-0.056236
-0.015581
-0.0574373
-0.015577
-0.0586394
-0.0155729
-0.0598423
-0.0155685
-0.0610462
-0.015564
-0.0622509
-0.0155594
-0.0634565
-0.0155546
-0.0646629
-0.0155497
-0.0658703
-0.0155446
-0.0670785
-0.0155395
-0.0682876
-0.0155343
-0.0694975
-0.015529
-0.0155237
-0.0707083
-0.023888
-0.0249912
-0.0144712
-0.0260946
-0.0144766
-0.027198
-0.0144815
-0.0283016
-0.0144857
-0.0294055
-0.0144894
-0.0305095
-0.0144926
-0.0316138
-0.0144953
-0.0327184
-0.0144974
-0.0338233
-0.0144991
-0.0349286
-0.0145002
-0.0360344
-0.0145009
-0.0371406
-0.0145012
-0.0382472
-0.014501
-0.0393544
-0.0145004
-0.0404621
-0.0144994
-0.0415704
-0.014498
-0.0426793
-0.0144962
-0.0437889
-0.0144941
-0.0448991
-0.0144916
-0.04601
-0.0144887
-0.0471216
-0.0144856
-0.048234
-0.0144821
-0.0493471
-0.0144783
-0.050461
-0.0144743
-0.0515757
-0.01447
-0.0526912
-0.0144655
-0.0538075
-0.0144607
-0.0549247
-0.0144557
-0.0560427
-0.0144505
-0.0571616
-0.0144452
-0.0582813
-0.0144396
-0.059402
-0.014434
-0.0605234
-0.0144282
-0.0616458
-0.0144223
-0.062769
-0.0144163
-0.063893
-0.0144102
-0.0650179
-0.0144041
-0.0143979
-0.0661437
-0.0236859
-0.0134473
-0.02471
-0.0134526
-0.0257342
-0.0134572
-0.0267586
-0.0134613
-0.0277833
-0.0134648
-0.0288082
-0.0134677
-0.0298335
-0.01347
-0.030859
-0.0134718
-0.0318849
-0.0134731
-0.0329113
-0.0134739
-0.033938
-0.0134742
-0.0349653
-0.013474
-0.035993
-0.0134733
-0.0370212
-0.0134722
-0.03805
-0.0134706
-0.0390794
-0.0134687
-0.0401093
-0.0134663
-0.0411399
-0.0134635
-0.0421712
-0.0134603
-0.0432031
-0.0134568
-0.0442357
-0.013453
-0.045269
-0.0134488
-0.0463031
-0.0134443
-0.0473379
-0.0134395
-0.0483736
-0.0134344
-0.04941
-0.013429
-0.0504472
-0.0134235
-0.0514852
-0.0134177
-0.052524
-0.0134117
-0.0535637
-0.0134055
-0.0546042
-0.0133991
-0.0556456
-0.0133926
-0.0566878
-0.013386
-0.0577309
-0.0133792
-0.0587748
-0.0133724
-0.0598196
-0.0133655
-0.0608652
-0.0133585
-0.0133515
-0.0619117
-0.0224818
-0.0124971
-0.0234322
-0.0125022
-0.0243828
-0.0125066
-0.0253336
-0.0125104
-0.0262848
-0.0125137
-0.0272362
-0.0125163
-0.0281879
-0.0125183
-0.02914
-0.0125197
-0.0300925
-0.0125206
-0.0310454
-0.012521
-0.0319987
-0.0125208
-0.0329526
-0.0125202
-0.0339069
-0.012519
-0.0348617
-0.0125174
-0.035817
-0.0125153
-0.036773
-0.0125127
-0.0377295
-0.0125097
-0.0386867
-0.0125063
-0.0396446
-0.0125025
-0.040603
-0.0124983
-0.0415622
-0.0124938
-0.0425221
-0.0124889
-0.0434827
-0.0124836
-0.0444441
-0.0124781
-0.0454062
-0.0124723
-0.0463691
-0.0124662
-0.0473327
-0.0124598
-0.0482972
-0.0124532
-0.0492624
-0.0124464
-0.0502284
-0.0124394
-0.0511953
-0.0124323
-0.0521629
-0.0124249
-0.0531314
-0.0124175
-0.0541007
-0.0124099
-0.0550708
-0.0124023
-0.0560417
-0.0123946
-0.0570134
-0.0123868
-0.0123789
-0.057986
-0.0213689
-0.0116153
-0.0222509
-0.0116202
-0.0231331
-0.0116244
-0.0240156
-0.0116279
-0.0248984
-0.0116309
-0.0257815
-0.0116331
-0.026665
-0.0116348
-0.0275488
-0.0116359
-0.0284331
-0.0116364
-0.0293178
-0.0116363
-0.0302029
-0.0116357
-0.0310885
-0.0116346
-0.0319746
-0.0116329
-0.0328612
-0.0116307
-0.0337484
-0.0116281
-0.0346361
-0.011625
-0.0355245
-0.0116214
-0.0364134
-0.0116174
-0.037303
-0.0116129
-0.0381933
-0.0116081
-0.0390842
-0.0116029
-0.0399758
-0.0115973
-0.0408681
-0.0115913
-0.0417611
-0.0115851
-0.0426549
-0.0115785
-0.0435494
-0.0115717
-0.0444446
-0.0115646
-0.0453406
-0.0115572
-0.0462374
-0.0115496
-0.047135
-0.0115419
-0.0480333
-0.0115339
-0.0489324
-0.0115258
-0.0498323
-0.0115176
-0.050733
-0.0115092
-0.0516345
-0.0115008
-0.0525367
-0.0114923
-0.0534397
-0.0114838
-0.0114751
-0.0543435
-0.0203378
-0.010797
-0.0211563
-0.0108017
-0.021975
-0.0108056
-0.0227941
-0.0108089
-0.0236134
-0.0108115
-0.0244331
-0.0108134
-0.0252532
-0.0108148
-0.0260736
-0.0108154
-0.0268945
-0.0108155
-0.0277158
-0.010815
-0.0285375
-0.010814
-0.0293597
-0.0108123
-0.0301825
-0.0108102
-0.0310057
-0.0108075
-0.0318295
-0.0108043
-0.0326539
-0.0108006
-0.0334789
-0.0107964
-0.0343045
-0.0107918
-0.0351307
-0.0107867
-0.0359575
-0.0107812
-0.036785
-0.0107754
-0.0376132
-0.0107691
-0.038442
-0.0107625
-0.0392715
-0.0107555
-0.0401018
-0.0107483
-0.0409327
-0.0107407
-0.0417644
-0.0107329
-0.0425968
-0.0107248
-0.04343
-0.0107165
-0.0442639
-0.010708
-0.0450985
-0.0106993
-0.0459339
-0.0106904
-0.0467701
-0.0106814
-0.047607
-0.0106723
-0.0484446
-0.0106632
-0.049283
-0.0106539
-0.0501222
-0.0106446
-0.0106353
-0.0509621
-0.0193808
-0.0100378
-0.0201403
-0.0100422
-0.0209001
-0.0100459
-0.0216602
-0.0100488
-0.0224206
-0.0100511
-0.0231814
-0.0100527
-0.0239426
-0.0100536
-0.0247041
-0.0100539
-0.0254661
-0.0100536
-0.0262285
-0.0100526
-0.0269914
-0.0100511
-0.0277548
-0.010049
-0.0285187
-0.0100463
-0.0292831
-0.0100431
-0.030048
-0.0100393
-0.0308135
-0.0100351
-0.0315796
-0.0100303
-0.0323463
-0.0100251
-0.0331136
-0.0100194
-0.0338815
-0.0100133
-0.0346501
-0.0100068
-0.0354193
-0.0099999
-0.0361891
-0.00999262
-0.0369597
-0.009985
-0.0377309
-0.00997705
-0.0385029
-0.00996879
-0.0392755
-0.00996026
-0.0400488
-0.00995147
-0.0408228
-0.00994246
-0.0415976
-0.00993323
-0.0423731
-0.00992382
-0.0431493
-0.00991424
-0.0439262
-0.00990454
-0.0447038
-0.00989472
-0.0454821
-0.00988482
-0.0462612
-0.00987485
-0.047041
-0.00986485
-0.00985478
-0.0478214
-0.0184909
-0.00933337
-0.0191956
-0.00933746
-0.0199006
-0.00934081
-0.020606
-0.00934345
-0.0213117
-0.00934537
-0.0220178
-0.00934659
-0.0227242
-0.00934714
-0.0234311
-0.00934702
-0.0241384
-0.00934626
-0.0248461
-0.00934486
-0.0255543
-0.00934286
-0.026263
-0.00934027
-0.0269723
-0.00933709
-0.027682
-0.00933335
-0.0283923
-0.00932906
-0.0291031
-0.00932425
-0.0298145
-0.00931893
-0.0305264
-0.00931312
-0.031239
-0.00930685
-0.0319522
-0.00930013
-0.032666
-0.00929299
-0.0333805
-0.00928545
-0.0340956
-0.00927753
-0.0348113
-0.00926925
-0.0355277
-0.00926064
-0.0362448
-0.00925172
-0.0369625
-0.00924251
-0.037681
-0.00923304
-0.0384001
-0.00922334
-0.0391199
-0.00921342
-0.0398404
-0.00920332
-0.0405616
-0.00919306
-0.0412834
-0.00918266
-0.042006
-0.00917216
-0.0427292
-0.00916157
-0.0434532
-0.00915092
-0.0441778
-0.00914024
-0.0091295
-0.0449031
-0.0176618
-0.00867979
-0.0183157
-0.00868358
-0.0189699
-0.00868662
-0.0196244
-0.00868891
-0.0202793
-0.00869048
-0.0209346
-0.00869133
-0.0215902
-0.00869148
-0.0222463
-0.00869095
-0.0229028
-0.00868975
-0.0235598
-0.00868791
-0.0242172
-0.00868543
-0.0248751
-0.00868234
-0.0255335
-0.00867866
-0.0261925
-0.0086744
-0.026852
-0.00866958
-0.027512
-0.00866422
-0.0281726
-0.00865834
-0.0288337
-0.00865196
-0.0294955
-0.0086451
-0.0301578
-0.00863779
-0.0308208
-0.00863004
-0.0314844
-0.00862188
-0.0321486
-0.00861333
-0.0328134
-0.00860441
-0.0334789
-0.00859516
-0.034145
-0.00858559
-0.0348118
-0.00857573
-0.0354792
-0.00856561
-0.0361473
-0.00855524
-0.0368161
-0.00854467
-0.0374855
-0.0085339
-0.0381556
-0.00852298
-0.0388263
-0.00851192
-0.0394977
-0.00850075
-0.0401698
-0.00848951
-0.0408425
-0.00847821
-0.0415159
-0.00846688
-0.0084555
-0.0421899
-0.0168882
-0.0174949
-0.00807694
-0.0181018
-0.00807964
-0.0187092
-0.00808158
-0.0193169
-0.00808278
-0.0199249
-0.00808325
-0.0205334
-0.008083
-0.0211423
-0.00808205
-0.0217517
-0.00808042
-0.0223614
-0.00807812
-0.0229717
-0.00807517
-0.0235825
-0.00807159
-0.0241937
-0.0080674
-0.0248055
-0.00806263
-0.0254178
-0.00805728
-0.0260306
-0.00805138
-0.026644
-0.00804495
-0.027258
-0.008038
-0.0278725
-0.00803057
-0.0284876
-0.00802267
-0.0291033
-0.00801432
-0.0297197
-0.00800556
-0.0303366
-0.0079964
-0.0309541
-0.00798687
-0.0315723
-0.00797699
-0.0321911
-0.00796679
-0.0328105
-0.0079563
-0.0334306
-0.00794554
-0.0340513
-0.00793454
-0.0346726
-0.00792333
-0.0352946
-0.00791193
-0.0359172
-0.00790037
-0.0365405
-0.00788867
-0.0371644
-0.00787687
-0.0377889
-0.007865
-0.038414
-0.00785308
-0.0390398
-0.00784113
-0.00782913
-0.0396661
-0.016728
-0.00751415
-0.0172912
-0.00751651
-0.0178546
-0.0075181
-0.0184185
-0.00751892
-0.0189828
-0.00751899
-0.0195474
-0.00751834
-0.0201125
-0.00751697
-0.020678
-0.0075149
-0.021244
-0.00751214
-0.0218104
-0.00750873
-0.0223774
-0.00750467
-0.0229448
-0.00749998
-0.0235127
-0.00749469
-0.0240812
-0.00748881
-0.0246502
-0.00748237
-0.0252198
-0.00747539
-0.0257899
-0.00746789
-0.0263606
-0.00745989
-0.0269318
-0.00745142
-0.0275037
-0.00744249
-0.0280761
-0.00743314
-0.0286491
-0.00742338
-0.0292227
-0.00741325
-0.0297969
-0.00740277
-0.0303718
-0.00739196
-0.0309472
-0.00738086
-0.0315233
-0.00736948
-0.0321
-0.00735787
-0.0326772
-0.00734604
-0.0332552
-0.00733402
-0.0338337
-0.00732184
-0.0344128
-0.00730954
-0.0349925
-0.00729713
-0.0355729
-0.00728465
-0.0361538
-0.00727213
-0.0367354
-0.00725959
-0.00724702
-0.0373175
-0.0160105
-0.00699212
-0.0165329
-0.00699412
-0.0170557
-0.00699533
-0.0175789
-0.00699577
-0.0181024
-0.00699544
-0.0186264
-0.00699438
-0.0191508
-0.00699258
-0.0196756
-0.00699007
-0.0202009
-0.00698686
-0.0207266
-0.00698298
-0.0212528
-0.00697844
-0.0217796
-0.00697326
-0.0223068
-0.00696746
-0.0228345
-0.00696106
-0.0233628
-0.00695409
-0.0238916
-0.00694656
-0.024421
-0.00693851
-0.024951
-0.00692995
-0.0254815
-0.00692091
-0.0260125
-0.00691142
-0.0265442
-0.00690149
-0.0270764
-0.00689115
-0.0276092
-0.00688043
-0.0281426
-0.00686936
-0.0286766
-0.00685796
-0.0292112
-0.00684627
-0.0297464
-0.0068343
-0.0302822
-0.00682209
-0.0308186
-0.00680966
-0.0313556
-0.00679705
-0.0318931
-0.00678428
-0.0324313
-0.00677138
-0.03297
-0.00675839
-0.0335093
-0.00674533
-0.0340492
-0.00673224
-0.0345897
-0.00671913
-0.006706
-0.0351307
-0.0153383
-0.00650793
-0.0158228
-0.00650956
-0.0163077
-0.0065104
-0.0167931
-0.00651044
-0.0172788
-0.00650971
-0.017765
-0.00650822
-0.0182515
-0.00650599
-0.0187386
-0.00650304
-0.0192261
-0.00649938
-0.019714
-0.00649502
-0.0202024
-0.00649
-0.0206914
-0.00648433
-0.0211808
-0.00647803
-0.0216707
-0.00647112
-0.0221612
-0.00646363
-0.0226522
-0.00645558
-0.0231437
-0.00644698
-0.0236358
-0.00643788
-0.0241284
-0.00642828
-0.0246216
-0.00641822
-0.0251154
-0.00640772
-0.0256097
-0.00639681
-0.0261046
-0.00638551
-0.0266001
-0.00637387
-0.0270962
-0.00636189
-0.0275928
-0.00634962
-0.0280901
-0.00633707
-0.0285879
-0.00632428
-0.0290863
-0.00631128
-0.0295852
-0.00629809
-0.0300847
-0.00628475
-0.0305848
-0.00627129
-0.0310855
-0.00625773
-0.0315867
-0.00624412
-0.0320885
-0.00623047
-0.0325908
-0.00621681
-0.00620315
-0.0330936
-0.0147073
-0.0060589
-0.0151567
-0.00606016
-0.0156065
-0.0060606
-0.0160567
-0.00606025
-0.0165073
-0.0060591
-0.0169584
-0.00605719
-0.0174098
-0.00605453
-0.0178617
-0.00605112
-0.0183141
-0.006047
-0.018767
-0.00604218
-0.0192203
-0.00603668
-0.0196741
-0.00603052
-0.0201284
-0.00602372
-0.0205832
-0.0060163
-0.0210386
-0.00600829
-0.0214944
-0.00599972
-0.0219508
-0.00599059
-0.0224077
-0.00598095
-0.0228652
-0.00597081
-0.0233232
-0.0059602
-0.0237818
-0.00594915
-0.0242409
-0.00593768
-0.0247006
-0.00592582
-0.0251609
-0.00591361
-0.0256217
-0.00590107
-0.0260831
-0.00588822
-0.0265451
-0.00587511
-0.0270076
-0.00586175
-0.0274707
-0.00584819
-0.0279344
-0.00583444
-0.0283986
-0.00582055
-0.0288633
-0.00580654
-0.0293286
-0.00579244
-0.0297944
-0.00577828
-0.0302608
-0.0057641
-0.0307277
-0.00574992
-0.00573575
-0.0311951
-0.0141143
-0.014531
-0.00564342
-0.0149482
-0.00564346
-0.0153657
-0.0056427
-0.0157837
-0.00564113
-0.0162021
-0.00563879
-0.0166209
-0.00563568
-0.0170402
-0.00563183
-0.01746
-0.00562724
-0.0178802
-0.00562195
-0.0183009
-0.00561597
-0.0187221
-0.00560932
-0.0191438
-0.00560202
-0.0195661
-0.0055941
-0.0199888
-0.00558558
-0.020412
-0.00557648
-0.0208358
-0.00556683
-0.0212601
-0.00555665
-0.0216849
-0.00554598
-0.0221103
-0.00553483
-0.0225362
-0.00552323
-0.0229626
-0.00551122
-0.0233896
-0.00549882
-0.0238172
-0.00548606
-0.0242453
-0.00547296
-0.0246739
-0.00545957
-0.0251031
-0.00544591
-0.0255329
-0.005432
-0.0259632
-0.00541789
-0.026394
-0.0054036
-0.0268254
-0.00538917
-0.0272573
-0.00537462
-0.0276898
-0.00535999
-0.0281228
-0.0053453
-0.0285562
-0.00533061
-0.0289902
-0.00531592
-0.00530127
-0.0294247
-0.0139423
-0.00525703
-0.0143291
-0.00525666
-0.0147164
-0.00525547
-0.015104
-0.00525348
-0.0154921
-0.0052507
-0.0158806
-0.00524714
-0.0162696
-0.00524283
-0.0166591
-0.00523778
-0.0170491
-0.00523201
-0.0174395
-0.00522554
-0.0178304
-0.0052184
-0.0182218
-0.00521061
-0.0186137
-0.00520218
-0.0190061
-0.00519315
-0.0193991
-0.00518354
-0.0197925
-0.00517337
-0.0201865
-0.00516267
-0.020581
-0.00515146
-0.0209761
-0.00513978
-0.0213717
-0.00512765
-0.0217678
-0.0051151
-0.0221644
-0.00510216
-0.0225616
-0.00508886
-0.0229594
-0.00507523
-0.0233576
-0.0050613
-0.0237565
-0.0050471
-0.0241558
-0.00503267
-0.0245557
-0.00501803
-0.024956
-0.00500321
-0.025357
-0.00498825
-0.0257584
-0.00497319
-0.0261603
-0.00495805
-0.0265628
-0.00494286
-0.0269657
-0.00492767
-0.0273691
-0.00491249
-0.00489736
-0.027773
-0.0133875
-0.00489883
-0.0137461
-0.00489804
-0.0141052
-0.00489642
-0.0144647
-0.00489399
-0.0148246
-0.00489076
-0.015185
-0.00488675
-0.0155459
-0.00488197
-0.0159072
-0.00487645
-0.016269
-0.0048702
-0.0166313
-0.00486325
-0.0169941
-0.00485562
-0.0173573
-0.00484733
-0.0177211
-0.0048384
-0.0180854
-0.00482886
-0.0184502
-0.00481873
-0.0188156
-0.00480804
-0.0191814
-0.00479682
-0.0195478
-0.00478509
-0.0199147
-0.00477288
-0.0202821
-0.00476023
-0.0206501
-0.00474715
-0.0210185
-0.00473368
-0.0213875
-0.00471985
-0.0217571
-0.00470569
-0.0221271
-0.00469124
-0.0224977
-0.00467652
-0.0228688
-0.00466156
-0.0232405
-0.0046464
-0.0236126
-0.00463107
-0.0239852
-0.00461561
-0.0243584
-0.00460005
-0.024732
-0.00458441
-0.0251062
-0.00456874
-0.0254808
-0.00455306
-0.0258558
-0.00453742
-0.00452183
-0.0262314
-0.0128637
-0.00456682
-0.0131961
-0.0045656
-0.013529
-0.00456354
-0.0138623
-0.00456066
-0.0141961
-0.00455697
-0.0145304
-0.0045525
-0.0148651
-0.00454725
-0.0152003
-0.00454125
-0.015536
-0.00453452
-0.0158721
-0.00452708
-0.0162088
-0.00451895
-0.016546
-0.00451016
-0.0168836
-0.00450073
-0.0172218
-0.00449068
-0.0175605
-0.00448004
-0.0178997
-0.00446883
-0.0182395
-0.00445709
-0.0185797
-0.00444484
-0.0189205
-0.00443211
-0.0192618
-0.00441893
-0.0196036
-0.00440533
-0.0199459
-0.00439135
-0.0202888
-0.004377
-0.0206321
-0.00436232
-0.020976
-0.00434735
-0.0213204
-0.00433211
-0.0216653
-0.00431665
-0.0220108
-0.00430099
-0.0223567
-0.00428516
-0.0227031
-0.0042692
-0.02305
-0.00425315
-0.0233974
-0.00423703
-0.0237452
-0.00422089
-0.0240935
-0.00420475
-0.0244423
-0.00418865
-0.00417262
-0.0247915
-0.0123682
-0.0126763
-0.00425748
-0.0129849
-0.00425496
-0.0132939
-0.00425162
-0.0136034
-0.00424747
-0.0139134
-0.00424252
-0.0142238
-0.00423679
-0.0145348
-0.00423031
-0.0148462
-0.00422309
-0.0151581
-0.00421515
-0.0154706
-0.00420653
-0.0157835
-0.00419723
-0.0160969
-0.00418729
-0.0164109
-0.00417673
-0.0167253
-0.00416558
-0.0170403
-0.00415386
-0.0173558
-0.0041416
-0.0176718
-0.00412884
-0.0179883
-0.00411559
-0.0183054
-0.00410189
-0.0186229
-0.00408778
-0.018941
-0.00407327
-0.0192596
-0.00405841
-0.0195787
-0.00404322
-0.0198983
-0.00402774
-0.0202184
-0.004012
-0.020539
-0.00399604
-0.0208601
-0.00397988
-0.0211817
-0.00396357
-0.0215038
-0.00394713
-0.0218263
-0.0039306
-0.0221493
-0.00391402
-0.0224728
-0.00389741
-0.0227967
-0.00388082
-0.0231211
-0.00386428
-0.00384782
-0.0234459
-0.012184
-0.00397192
-0.01247
-0.00396894
-0.0127565
-0.00396513
-0.0130435
-0.0039605
-0.013331
-0.00395507
-0.0136189
-0.00394885
-0.0139073
-0.00394188
-0.0141963
-0.00393416
-0.0144857
-0.00392573
-0.0147756
-0.0039166
-0.015066
-0.0039068
-0.015357
-0.00389635
-0.0156484
-0.00388527
-0.0159404
-0.00387361
-0.0162329
-0.00386137
-0.0165259
-0.0038486
-0.0168194
-0.00383532
-0.0171135
-0.00382156
-0.017408
-0.00380735
-0.0177031
-0.00379272
-0.0179986
-0.0037777
-0.0182947
-0.00376233
-0.0185913
-0.00374664
-0.0188884
-0.00373066
-0.019186
-0.00371442
-0.019484
-0.00369797
-0.0197826
-0.00368132
-0.0200816
-0.00366453
-0.0203812
-0.00364762
-0.0206811
-0.00363063
-0.0209816
-0.00361359
-0.0212824
-0.00359653
-0.0215838
-0.0035795
-0.0218855
-0.00356254
-0.00354565
-0.0221877
-0.0117169
-0.00370731
-0.011982
-0.00370386
-0.0122476
-0.00369956
-0.0125136
-0.00369444
-0.0127802
-0.00368852
-0.0130472
-0.00368181
-0.0133148
-0.00367433
-0.0135828
-0.00366611
-0.0138514
-0.00365717
-0.0141205
-0.00364753
-0.01439
-0.00363722
-0.0146601
-0.00362626
-0.0149307
-0.00361467
-0.0152018
-0.00360249
-0.0154735
-0.00358974
-0.0157456
-0.00357645
-0.0160183
-0.00356265
-0.0162915
-0.00354838
-0.0165652
-0.00353365
-0.0168394
-0.00351851
-0.0171141
-0.00350299
-0.0173893
-0.00348712
-0.017665
-0.00347092
-0.0179412
-0.00345445
-0.0182179
-0.00343772
-0.0184951
-0.00342078
-0.0187728
-0.00340366
-0.0190509
-0.0033864
-0.0193295
-0.00336902
-0.0196085
-0.00335158
-0.019888
-0.00333409
-0.020168
-0.0033166
-0.0204483
-0.00329914
-0.0207291
-0.00328176
-0.00326447
-0.0210103
-0.0112728
-0.00346213
-0.0115185
-0.00345819
-0.0117646
-0.0034534
-0.0120113
-0.00344778
-0.0122585
-0.00344135
-0.0125061
-0.00343414
-0.0127543
-0.00342615
-0.013003
-0.00341742
-0.0132522
-0.00340797
-0.0135019
-0.00339781
-0.0137522
-0.00338698
-0.0140029
-0.0033755
-0.0142542
-0.0033634
-0.014506
-0.0033507
-0.0147583
-0.00333743
-0.0150111
-0.00332363
-0.0152644
-0.00330931
-0.0155183
-0.00329452
-0.0157727
-0.00327929
-0.0160275
-0.00326364
-0.0162829
-0.00324761
-0.0165388
-0.00323124
-0.0167952
-0.00321455
-0.017052
-0.00319758
-0.0173094
-0.00318037
-0.0175672
-0.00316295
-0.0178255
-0.00314536
-0.0180843
-0.00312763
-0.0183435
-0.0031098
-0.0186032
-0.00309191
-0.0188633
-0.00307399
-0.0191238
-0.00305607
-0.0193848
-0.00303819
-0.0196461
-0.0030204
-0.00300272
-0.0199079
-0.0108496
-0.0110772
-0.00323051
-0.0113054
-0.00322522
-0.0115341
-0.00321909
-0.0117633
-0.00321215
-0.011993
-0.00320442
-0.0122233
-0.00319592
-0.012454
-0.00318667
-0.0126853
-0.0031767
-0.0129171
-0.00316602
-0.0131494
-0.00315467
-0.0133822
-0.00314266
-0.0136156
-0.00313004
-0.0138495
-0.00311682
-0.0140839
-0.00310303
-0.0143188
-0.0030887
-0.0145542
-0.00307387
-0.0147902
-0.00305857
-0.0150267
-0.00304282
-0.0152636
-0.00302667
-0.0155011
-0.00301014
-0.0157391
-0.00299326
-0.0159775
-0.00297608
-0.0162165
-0.00295863
-0.0164559
-0.00294094
-0.0166958
-0.00292305
-0.0169362
-0.00290499
-0.017177
-0.0028868
-0.0174183
-0.00286853
-0.01766
-0.00285019
-0.0179022
-0.00283184
-0.0181447
-0.0028135
-0.0183877
-0.00279522
-0.0186311
-0.00277703
-0.00275897
-0.0188748
-0.0106564
-0.0030195
-0.0108679
-0.00301369
-0.01108
-0.00300704
-0.0112925
-0.00299959
-0.0115056
-0.00299133
-0.0117192
-0.00298231
-0.0119334
-0.00297253
-0.012148
-0.00296203
-0.0123632
-0.00295082
-0.012579
-0.00293894
-0.0127952
-0.00292641
-0.013012
-0.00291326
-0.0132293
-0.00289951
-0.0134471
-0.0028852
-0.0136655
-0.00287036
-0.0138843
-0.00285501
-0.0141037
-0.00283919
-0.0143236
-0.00282293
-0.014544
-0.00280627
-0.0147649
-0.00278924
-0.0149863
-0.00277187
-0.0152082
-0.0027542
-0.0154306
-0.00273626
-0.0156534
-0.00271809
-0.0158767
-0.00269973
-0.0161005
-0.00268121
-0.0163247
-0.00266257
-0.0165494
-0.00264385
-0.0167745
-0.00262508
-0.017
-0.00260631
-0.017226
-0.00258756
-0.0174523
-0.00256887
-0.0176791
-0.0025503
-0.00253185
-0.0179062
-0.0102542
-0.0104503
-0.00281758
-0.0106469
-0.0028104
-0.0108441
-0.00280241
-0.0110418
-0.00279363
-0.01124
-0.00278407
-0.0114388
-0.00277376
-0.0116381
-0.00276272
-0.0118379
-0.00275099
-0.0120383
-0.00273857
-0.0122392
-0.00272551
-0.0124407
-0.00271183
-0.0126426
-0.00269755
-0.0128451
-0.00268271
-0.0130481
-0.00266735
-0.0132516
-0.00265148
-0.0134557
-0.00263514
-0.0136602
-0.00261837
-0.0138653
-0.0026012
-0.0140709
-0.00258367
-0.0142769
-0.0025658
-0.0144835
-0.00254764
-0.0146905
-0.00252922
-0.014898
-0.00251058
-0.015106
-0.00249175
-0.0153145
-0.00247278
-0.0155233
-0.00245369
-0.0157327
-0.00243453
-0.0159424
-0.00241533
-0.0161526
-0.00239614
-0.0163631
-0.00237698
-0.0165741
-0.0023579
-0.0167855
-0.00233894
-0.00232013
-0.0169972
-0.0100508
-0.00263571
-0.0102332
-0.002628
-0.0104162
-0.00261947
-0.0105997
-0.00261015
-0.0107837
-0.00260005
-0.0109683
-0.0025892
-0.0111533
-0.00257763
-0.011339
-0.00256535
-0.0115252
-0.0025524
-0.0117119
-0.0025388
-0.0118991
-0.00252458
-0.0120869
-0.00250977
-0.0122752
-0.00249441
-0.012464
-0.00247851
-0.0126534
-0.00246212
-0.0128433
-0.00244527
-0.0130336
-0.00242799
-0.0132245
-0.00241031
-0.0134159
-0.00239228
-0.0136078
-0.00237391
-0.0138002
-0.00235527
-0.0139931
-0.00233637
-0.0141864
-0.00231725
-0.0143802
-0.00229796
-0.0145744
-0.00227853
-0.0147691
-0.002259
-0.0149643
-0.0022394
-0.0151598
-0.00221978
-0.0153558
-0.00220017
-0.0155521
-0.00218061
-0.0157489
-0.00216115
-0.015946
-0.00214181
-0.00212263
-0.0161435
-0.00966813
-0.002467
-0.00983739
-0.00245874
-0.0100072
-0.00244967
-0.0101775
-0.0024398
-0.0103484
-0.00242916
-0.0105199
-0.00241777
-0.0106918
-0.00240565
-0.0108643
-0.00239283
-0.0110374
-0.00237934
-0.011211
-0.0023652
-0.0113851
-0.00235044
-0.0115598
-0.0023351
-0.011735
-0.0023192
-0.0119108
-0.00230278
-0.012087
-0.00228587
-0.0122638
-0.0022685
-0.0124411
-0.0022507
-0.0126189
-0.00223252
-0.0127972
-0.00221398
-0.012976
-0.00219512
-0.0131552
-0.00217598
-0.013335
-0.0021566
-0.0135152
-0.00213702
-0.0136959
-0.00211726
-0.0138771
-0.00209738
-0.0140587
-0.0020774
-0.0142407
-0.00205737
-0.0144231
-0.00203733
-0.014606
-0.00201731
-0.0147893
-0.00199736
-0.0149729
-0.00197751
-0.0151569
-0.0019578
-0.00193827
-0.0153413
-0.00930083
-0.00945795
-0.00230162
-0.00961562
-0.002292
-0.00977385
-0.00228158
-0.00993262
-0.00227039
-0.0100919
-0.00225845
-0.0102518
-0.00224578
-0.0104122
-0.00223241
-0.0105732
-0.00221838
-0.0107347
-0.0022037
-0.0108967
-0.0021884
-0.0110593
-0.00217252
-0.0112224
-0.00215609
-0.011386
-0.00213914
-0.0115502
-0.0021217
-0.0117149
-0.00210381
-0.0118801
-0.0020855
-0.0120458
-0.00206681
-0.012212
-0.00204777
-0.0123787
-0.00202842
-0.0125459
-0.00200879
-0.0127136
-0.00198893
-0.0128817
-0.00196888
-0.0130503
-0.00194866
-0.0132194
-0.00192832
-0.0133889
-0.00190791
-0.0135588
-0.00188745
-0.0137292
-0.00186698
-0.0138999
-0.00184656
-0.0140711
-0.00182621
-0.0142426
-0.00180598
-0.0144145
-0.0017859
-0.00176601
-0.0145868
-0.00909372
-0.00215567
-0.00924022
-0.0021455
-0.00938727
-0.00213453
-0.00953487
-0.00212279
-0.00968302
-0.0021103
-0.00983173
-0.00209708
-0.00998098
-0.00208316
-0.0101308
-0.00206858
-0.0102811
-0.00205335
-0.010432
-0.00203752
-0.0105834
-0.0020211
-0.0107354
-0.00200413
-0.0108879
-0.00198665
-0.0110409
-0.00196869
-0.0111944
-0.00195028
-0.0113485
-0.00193145
-0.011503
-0.00191225
-0.0116581
-0.00189271
-0.0118136
-0.00187286
-0.0119697
-0.00185275
-0.0121262
-0.00183241
-0.0122832
-0.00181188
-0.0124407
-0.00179121
-0.0125986
-0.00177042
-0.0127569
-0.00174956