/*--------------------------------*- C++ -*----------------------------------*\
  =========                 |
  \\      /  F ield         | OpenFOAM: The Open Source CFD Toolbox
   \\    /   O peration     | Website:  https://openfoam.org
    \\  /    A nd           | Version:  9
     \\/     M anipulation  |
\*---------------------------------------------------------------------------*/
FoamFile
{
    format      ascii;
    class       volScalarField;
    location    "0.0475";
    object      rho;
}
// * * * * * * * * * * * * * * * * * * * * * * * * * * * * * * * * * * * * * //

dimensions      [1 -3 0 0 0 0 0];

internalField   nonuniform List<scalar> 
9689
(
1.16639
1.16639
1.16639
1.16639
1.16639
1.16639
1.16639
1.16639
1.16639
1.16639
1.16639
1.16638
1.16638
1.16638
1.16638
1.16638
1.16638
1.16638
1.16638
1.16638
1.16638
1.16638
1.16638
1.16638
1.16638
1.16637
1.16637
1.16637
1.16637
1.16637
1.16637
1.16637
1.16637
1.16637
1.16637
1.16637
1.16637
1.16637
1.16637
1.1664
1.1664
1.16639
1.16639
1.16639
1.16639
1.16639
1.16639
1.16639
1.16639
1.16639
1.16639
1.16639
1.16639
1.16639
1.16639
1.16639
1.16639
1.16639
1.16639
1.16639
1.16639
1.16639
1.16639
1.16639
1.16639
1.16638
1.16638
1.16638
1.16638
1.16638
1.16638
1.16638
1.16638
1.16638
1.16638
1.16638
1.16638
1.16638
1.16639
1.16639
1.16639
1.16639
1.16639
1.16638
1.16638
1.16638
1.16638
1.16638
1.16638
1.16638
1.16638
1.16637
1.16637
1.16637
1.16637
1.16637
1.16637
1.16637
1.16637
1.16637
1.16636
1.16636
1.16636
1.16636
1.16636
1.16636
1.16636
1.16636
1.16636
1.16636
1.16635
1.16635
1.16635
1.16635
1.16635
1.16635
1.16635
1.16639
1.16639
1.16639
1.16638
1.16638
1.16638
1.16638
1.16638
1.16638
1.16638
1.16637
1.16637
1.16637
1.16637
1.16637
1.16637
1.16637
1.16636
1.16636
1.16636
1.16636
1.16636
1.16636
1.16636
1.16636
1.16635
1.16635
1.16635
1.16635
1.16635
1.16635
1.16635
1.16635
1.16635
1.16634
1.16634
1.16634
1.16634
1.16634
1.16638
1.16638
1.16638
1.16638
1.16638
1.16638
1.16637
1.16637
1.16637
1.16637
1.16637
1.16636
1.16636
1.16636
1.16636
1.16636
1.16636
1.16635
1.16635
1.16635
1.16635
1.16635
1.16635
1.16634
1.16634
1.16634
1.16634
1.16634
1.16634
1.16633
1.16633
1.16633
1.16633
1.16633
1.16633
1.16633
1.16632
1.16632
1.16632
1.16638
1.16638
1.16638
1.16638
1.16637
1.16637
1.16637
1.16637
1.16636
1.16636
1.16636
1.16636
1.16636
1.16635
1.16635
1.16635
1.16635
1.16635
1.16634
1.16634
1.16634
1.16634
1.16634
1.16633
1.16633
1.16633
1.16633
1.16633
1.16633
1.16632
1.16632
1.16632
1.16632
1.16632
1.16632
1.16631
1.16631
1.16631
1.16631
1.16638
1.16638
1.16637
1.16637
1.16637
1.16637
1.16636
1.16636
1.16636
1.16636
1.16635
1.16635
1.16635
1.16635
1.16634
1.16634
1.16634
1.16634
1.16634
1.16633
1.16633
1.16633
1.16633
1.16632
1.16632
1.16632
1.16632
1.16632
1.16631
1.16631
1.16631
1.16631
1.16631
1.1663
1.1663
1.1663
1.1663
1.1663
1.16629
1.16638
1.16637
1.16637
1.16637
1.16637
1.16636
1.16636
1.16636
1.16635
1.16635
1.16635
1.16635
1.16634
1.16634
1.16634
1.16634
1.16633
1.16633
1.16633
1.16632
1.16632
1.16632
1.16632
1.16631
1.16631
1.16631
1.16631
1.16631
1.1663
1.1663
1.1663
1.1663
1.16629
1.16629
1.16629
1.16629
1.16629
1.16628
1.16628
1.16637
1.16637
1.16637
1.16636
1.16636
1.16636
1.16636
1.16635
1.16635
1.16635
1.16634
1.16634
1.16634
1.16633
1.16633
1.16633
1.16633
1.16632
1.16632
1.16632
1.16631
1.16631
1.16631
1.16631
1.1663
1.1663
1.1663
1.16629
1.16629
1.16629
1.16629
1.16628
1.16628
1.16628
1.16628
1.16627
1.16627
1.16627
1.16627
1.16637
1.16636
1.16636
1.16636
1.16635
1.16635
1.16635
1.16634
1.16634
1.16634
1.16633
1.16633
1.16633
1.16632
1.16632
1.16632
1.16631
1.16631
1.16631
1.1663
1.1663
1.1663
1.1663
1.16629
1.16629
1.16629
1.16628
1.16628
1.16628
1.16627
1.16627
1.16627
1.16627
1.16626
1.16626
1.16626
1.16626
1.16625
1.16636
1.16636
1.16636
1.16635
1.16635
1.16635
1.16634
1.16634
1.16634
1.16633
1.16633
1.16632
1.16632
1.16632
1.16631
1.16631
1.16631
1.1663
1.1663
1.1663
1.16629
1.16629
1.16629
1.16628
1.16628
1.16628
1.16627
1.16627
1.16627
1.16626
1.16626
1.16626
1.16625
1.16625
1.16625
1.16624
1.16624
1.16624
1.16636
1.16636
1.16635
1.16635
1.16635
1.16634
1.16634
1.16633
1.16633
1.16633
1.16632
1.16632
1.16631
1.16631
1.16631
1.1663
1.1663
1.16629
1.16629
1.16629
1.16628
1.16628
1.16628
1.16627
1.16627
1.16626
1.16626
1.16626
1.16625
1.16625
1.16625
1.16624
1.16624
1.16624
1.16623
1.16623
1.16623
1.16622
1.16636
1.16635
1.16635
1.16635
1.16634
1.16634
1.16633
1.16633
1.16632
1.16632
1.16632
1.16631
1.16631
1.1663
1.1663
1.16629
1.16629
1.16629
1.16628
1.16628
1.16627
1.16627
1.16627
1.16626
1.16626
1.16625
1.16625
1.16625
1.16624
1.16624
1.16623
1.16623
1.16623
1.16622
1.16622
1.16622
1.16621
1.16621
1.16635
1.16635
1.16635
1.16634
1.16634
1.16633
1.16633
1.16632
1.16632
1.16631
1.16631
1.1663
1.1663
1.16629
1.16629
1.16629
1.16628
1.16628
1.16627
1.16627
1.16626
1.16626
1.16625
1.16625
1.16625
1.16624
1.16624
1.16623
1.16623
1.16623
1.16622
1.16622
1.16621
1.16621
1.16621
1.1662
1.1662
1.16619
1.16635
1.16635
1.16634
1.16634
1.16633
1.16633
1.16632
1.16632
1.16631
1.16631
1.1663
1.1663
1.16629
1.16629
1.16628
1.16628
1.16627
1.16627
1.16626
1.16626
1.16625
1.16625
1.16624
1.16624
1.16623
1.16623
1.16622
1.16622
1.16622
1.16621
1.16621
1.1662
1.1662
1.16619
1.16619
1.16619
1.16618
1.16618
1.16635
1.16634
1.16634
1.16633
1.16633
1.16632
1.16631
1.16631
1.1663
1.1663
1.16629
1.16629
1.16628
1.16628
1.16627
1.16627
1.16626
1.16626
1.16625
1.16625
1.16624
1.16624
1.16623
1.16623
1.16622
1.16622
1.16621
1.16621
1.1662
1.1662
1.16619
1.16619
1.16618
1.16618
1.16617
1.16617
1.16617
1.16616
1.16634
1.16634
1.16633
1.16632
1.16632
1.16631
1.16631
1.1663
1.1663
1.16629
1.16629
1.16628
1.16627
1.16627
1.16626
1.16626
1.16625
1.16625
1.16624
1.16623
1.16623
1.16622
1.16622
1.16621
1.16621
1.1662
1.1662
1.16619
1.16619
1.16618
1.16618
1.16617
1.16617
1.16616
1.16616
1.16615
1.16615
1.16614
1.16633
1.16632
1.16632
1.16631
1.16631
1.1663
1.16629
1.16629
1.16628
1.16628
1.16627
1.16626
1.16626
1.16625
1.16625
1.16624
1.16623
1.16623
1.16622
1.16622
1.16621
1.1662
1.1662
1.16619
1.16619
1.16618
1.16618
1.16617
1.16617
1.16616
1.16616
1.16615
1.16614
1.16614
1.16613
1.16613
1.16612
1.16632
1.16632
1.16631
1.16631
1.1663
1.16629
1.16629
1.16628
1.16627
1.16627
1.16626
1.16625
1.16625
1.16624
1.16623
1.16623
1.16622
1.16621
1.16621
1.1662
1.1662
1.16619
1.16618
1.16618
1.16617
1.16617
1.16616
1.16615
1.16615
1.16614
1.16614
1.16613
1.16613
1.16612
1.16612
1.16611
1.1661
1.16632
1.16631
1.1663
1.1663
1.16629
1.16628
1.16628
1.16627
1.16626
1.16626
1.16625
1.16624
1.16623
1.16623
1.16622
1.16621
1.16621
1.1662
1.16619
1.16619
1.16618
1.16617
1.16617
1.16616
1.16615
1.16615
1.16614
1.16614
1.16613
1.16612
1.16612
1.16611
1.16611
1.1661
1.16609
1.16609
1.16608
1.16631
1.1663
1.16629
1.16629
1.16628
1.16627
1.16626
1.16626
1.16625
1.16624
1.16624
1.16623
1.16622
1.16621
1.16621
1.1662
1.16619
1.16618
1.16618
1.16617
1.16616
1.16616
1.16615
1.16614
1.16614
1.16613
1.16612
1.16612
1.16611
1.1661
1.1661
1.16609
1.16608
1.16608
1.16607
1.16607
1.16606
1.1663
1.16629
1.16628
1.16628
1.16627
1.16626
1.16625
1.16624
1.16624
1.16623
1.16622
1.16621
1.16621
1.1662
1.16619
1.16618
1.16617
1.16617
1.16616
1.16615
1.16614
1.16614
1.16613
1.16612
1.16612
1.16611
1.1661
1.16609
1.16609
1.16608
1.16607
1.16607
1.16606
1.16605
1.16605
1.16604
1.16603
1.16628
1.16627
1.16626
1.16625
1.16625
1.16624
1.16623
1.16622
1.16621
1.1662
1.1662
1.16619
1.16618
1.16617
1.16616
1.16616
1.16615
1.16614
1.16613
1.16612
1.16612
1.16611
1.1661
1.16609
1.16609
1.16608
1.16607
1.16606
1.16606
1.16605
1.16604
1.16603
1.16603
1.16602
1.16601
1.16601
1.16627
1.16626
1.16625
1.16624
1.16623
1.16622
1.16621
1.1662
1.1662
1.16619
1.16618
1.16617
1.16616
1.16615
1.16614
1.16613
1.16613
1.16612
1.16611
1.1661
1.16609
1.16608
1.16608
1.16607
1.16606
1.16605
1.16604
1.16604
1.16603
1.16602
1.16601
1.16601
1.166
1.16599
1.16598
1.16598
1.16625
1.16624
1.16623
1.16622
1.16621
1.1662
1.16619
1.16618
1.16618
1.16617
1.16616
1.16615
1.16614
1.16613
1.16612
1.16611
1.1661
1.16609
1.16608
1.16607
1.16607
1.16606
1.16605
1.16604
1.16603
1.16602
1.16601
1.16601
1.166
1.16599
1.16598
1.16597
1.16597
1.16596
1.16595
1.16594
1.16623
1.16622
1.16621
1.1662
1.16619
1.16618
1.16617
1.16616
1.16615
1.16614
1.16613
1.16612
1.16611
1.1661
1.16609
1.16608
1.16607
1.16607
1.16606
1.16605
1.16604
1.16603
1.16602
1.16601
1.166
1.16599
1.16598
1.16597
1.16597
1.16596
1.16595
1.16594
1.16593
1.16592
1.16592
1.16591
1.1662
1.16619
1.16618
1.16617
1.16616
1.16615
1.16614
1.16613
1.16612
1.16611
1.1661
1.16608
1.16607
1.16606
1.16605
1.16604
1.16603
1.16602
1.16601
1.166
1.16599
1.16599
1.16598
1.16597
1.16596
1.16595
1.16594
1.16593
1.16592
1.16591
1.1659
1.16589
1.16589
1.16588
1.16587
1.16617
1.16616
1.16615
1.16614
1.16613
1.16612
1.16611
1.1661
1.16609
1.16608
1.16606
1.16605
1.16604
1.16603
1.16602
1.16601
1.166
1.16599
1.16598
1.16597
1.16596
1.16595
1.16594
1.16593
1.16592
1.16591
1.1659
1.16589
1.16588
1.16587
1.16586
1.16585
1.16584
1.16583
1.16583
1.16614
1.16613
1.16612
1.16611
1.1661
1.16609
1.16608
1.16606
1.16605
1.16604
1.16603
1.16602
1.16601
1.16599
1.16598
1.16597
1.16596
1.16595
1.16594
1.16593
1.16592
1.16591
1.1659
1.16589
1.16587
1.16586
1.16585
1.16584
1.16583
1.16582
1.16581
1.16581
1.1658
1.16579
1.16578
1.16611
1.1661
1.16609
1.16608
1.16606
1.16605
1.16604
1.16603
1.16601
1.166
1.16599
1.16598
1.16597
1.16595
1.16594
1.16593
1.16592
1.16591
1.16589
1.16588
1.16587
1.16586
1.16585
1.16584
1.16583
1.16582
1.16581
1.16579
1.16578
1.16577
1.16576
1.16575
1.16574
1.16573
1.16572
1.16606
1.16605
1.16604
1.16602
1.16601
1.166
1.16598
1.16597
1.16596
1.16595
1.16593
1.16592
1.16591
1.16589
1.16588
1.16587
1.16586
1.16585
1.16583
1.16582
1.16581
1.1658
1.16579
1.16577
1.16576
1.16575
1.16574
1.16573
1.16572
1.16571
1.1657
1.16569
1.16568
1.16567
1.16602
1.166
1.16599
1.16598
1.16596
1.16595
1.16594
1.16592
1.16591
1.1659
1.16588
1.16587
1.16586
1.16584
1.16583
1.16582
1.1658
1.16579
1.16578
1.16576
1.16575
1.16574
1.16573
1.16572
1.1657
1.16569
1.16568
1.16567
1.16566
1.16564
1.16563
1.16562
1.16561
1.1656
1.16595
1.16594
1.16593
1.16591
1.1659
1.16588
1.16587
1.16585
1.16584
1.16583
1.16581
1.1658
1.16578
1.16577
1.16576
1.16574
1.16573
1.16572
1.1657
1.16569
1.16568
1.16566
1.16565
1.16564
1.16562
1.16561
1.1656
1.16559
1.16558
1.16556
1.16555
1.16554
1.16553
1.1659
1.16588
1.16587
1.16585
1.16584
1.16582
1.16581
1.16579
1.16578
1.16576
1.16575
1.16573
1.16572
1.16571
1.16569
1.16568
1.16566
1.16565
1.16563
1.16562
1.16561
1.16559
1.16558
1.16557
1.16555
1.16554
1.16553
1.16551
1.1655
1.16549
1.16548
1.16546
1.16545
1.16584
1.16582
1.16581
1.16579
1.16577
1.16576
1.16574
1.16573
1.16571
1.1657
1.16568
1.16566
1.16565
1.16563
1.16562
1.1656
1.16559
1.16557
1.16556
1.16554
1.16553
1.16551
1.1655
1.16549
1.16547
1.16546
1.16544
1.16543
1.16542
1.1654
1.16539
1.16538
1.16536
1.16575
1.16574
1.16572
1.1657
1.16569
1.16567
1.16565
1.16564
1.16562
1.1656
1.16559
1.16557
1.16555
1.16554
1.16552
1.16551
1.16549
1.16547
1.16546
1.16544
1.16543
1.16541
1.1654
1.16538
1.16537
1.16535
1.16534
1.16532
1.16531
1.1653
1.16528
1.16527
1.16568
1.16566
1.16564
1.16562
1.16561
1.16559
1.16557
1.16555
1.16554
1.16552
1.1655
1.16548
1.16547
1.16545
1.16543
1.16542
1.1654
1.16538
1.16537
1.16535
1.16533
1.16532
1.1653
1.16528
1.16527
1.16525
1.16524
1.16522
1.16521
1.16519
1.16518
1.16516
1.16557
1.16556
1.16554
1.16552
1.1655
1.16548
1.16546
1.16544
1.16543
1.16541
1.16539
1.16537
1.16535
1.16533
1.16532
1.1653
1.16528
1.16526
1.16525
1.16523
1.16521
1.16519
1.16518
1.16516
1.16514
1.16513
1.16511
1.1651
1.16508
1.16507
1.16505
1.16548
1.16546
1.16544
1.16542
1.1654
1.16538
1.16536
1.16534
1.16532
1.1653
1.16529
1.16527
1.16525
1.16523
1.16521
1.16519
1.16517
1.16515
1.16513
1.16511
1.1651
1.16508
1.16506
1.16504
1.16502
1.16501
1.16499
1.16497
1.16496
1.16494
1.16492
1.16536
1.16534
1.16532
1.1653
1.16528
1.16525
1.16523
1.16521
1.16519
1.16517
1.16515
1.16513
1.16511
1.16509
1.16507
1.16505
1.16503
1.16501
1.16499
1.16497
1.16495
1.16493
1.16491
1.16489
1.16487
1.16486
1.16484
1.16482
1.1648
1.16478
1.16525
1.16522
1.1652
1.16518
1.16516
1.16514
1.16511
1.16509
1.16507
1.16505
1.16502
1.165
1.16498
1.16496
1.16494
1.16492
1.16489
1.16487
1.16485
1.16483
1.16481
1.16479
1.16477
1.16475
1.16473
1.16471
1.16469
1.16467
1.16465
1.16463
1.1651
1.16508
1.16505
1.16503
1.16501
1.16498
1.16496
1.16494
1.16491
1.16489
1.16486
1.16484
1.16482
1.16479
1.16477
1.16475
1.16472
1.1647
1.16468
1.16466
1.16463
1.16461
1.16459
1.16457
1.16455
1.16453
1.16451
1.16448
1.16446
1.16497
1.16494
1.16492
1.16489
1.16487
1.16484
1.16481
1.16479
1.16476
1.16474
1.16471
1.16469
1.16466
1.16464
1.16461
1.16459
1.16456
1.16454
1.16451
1.16449
1.16446
1.16444
1.16442
1.16439
1.16437
1.16435
1.16433
1.1643
1.16428
1.1648
1.16477
1.16474
1.16471
1.16469
1.16466
1.16463
1.1646
1.16458
1.16455
1.16452
1.16449
1.16447
1.16444
1.16441
1.16438
1.16436
1.16433
1.1643
1.16428
1.16425
1.16423
1.1642
1.16418
1.16415
1.16413
1.1641
1.16407
1.16461
1.16458
1.16455
1.16452
1.16449
1.16446
1.16443
1.1644
1.16437
1.16434
1.16431
1.16428
1.16425
1.16422
1.16419
1.16416
1.16413
1.1641
1.16407
1.16405
1.16402
1.16399
1.16396
1.16393
1.16391
1.16388
1.16385
1.16443
1.1644
1.16437
1.16434
1.1643
1.16427
1.16424
1.16421
1.16417
1.16414
1.16411
1.16408
1.16404
1.16401
1.16398
1.16395
1.16391
1.16388
1.16385
1.16382
1.16379
1.16376
1.16373
1.1637
1.16367
1.16363
1.1636
1.16421
1.16417
1.16414
1.1641
1.16407
1.16403
1.164
1.16396
1.16393
1.16389
1.16385
1.16382
1.16378
1.16375
1.16371
1.16368
1.16364
1.16361
1.16357
1.16354
1.1635
1.16347
1.16344
1.1634
1.16336
1.16332
1.164
1.16396
1.16393
1.16389
1.16385
1.16381
1.16377
1.16373
1.16369
1.16365
1.16361
1.16357
1.16353
1.16349
1.16346
1.16342
1.16338
1.16334
1.1633
1.16326
1.16322
1.16319
1.16315
1.16311
1.16307
1.16302
1.16374
1.16369
1.16365
1.16361
1.16357
1.16352
1.16348
1.16344
1.16339
1.16335
1.16331
1.16326
1.16322
1.16318
1.16313
1.16309
1.16305
1.163
1.16296
1.16292
1.16287
1.16283
1.16279
1.16274
1.16269
1.16344
1.1634
1.16335
1.1633
1.16325
1.16321
1.16316
1.16311
1.16306
1.16301
1.16296
1.16292
1.16287
1.16282
1.16277
1.16272
1.16268
1.16263
1.16258
1.16253
1.16249
1.16244
1.16238
1.16232
1.16317
1.16312
1.16307
1.16301
1.16296
1.16291
1.16285
1.1628
1.16275
1.16269
1.16264
1.16259
1.16253
1.16248
1.16242
1.16237
1.16232
1.16226
1.16221
1.16215
1.1621
1.16205
1.16198
1.16191
1.16282
1.16276
1.1627
1.16264
1.16258
1.16252
1.16246
1.1624
1.16234
1.16228
1.16222
1.16216
1.1621
1.16204
1.16198
1.16192
1.16186
1.1618
1.16173
1.16167
1.16162
1.16154
1.16146
1.16243
1.16236
1.16229
1.16223
1.16216
1.1621
1.16203
1.16196
1.16189
1.16183
1.16176
1.16169
1.16162
1.16155
1.16148
1.16141
1.16134
1.16127
1.1612
1.16114
1.16105
1.16096
1.16199
1.16191
1.16184
1.16177
1.16169
1.16162
1.16154
1.16147
1.16139
1.16131
1.16124
1.16116
1.16108
1.161
1.16092
1.16084
1.16076
1.16069
1.16061
1.16051
1.1604
1.16158
1.1615
1.16142
1.16133
1.16125
1.16117
1.16108
1.161
1.16091
1.16082
1.16074
1.16065
1.16056
1.16047
1.16038
1.16029
1.1602
1.16011
1.16003
1.15991
1.15979
1.16105
1.16095
1.16086
1.16077
1.16067
1.16058
1.16048
1.16038
1.16028
1.16019
1.16009
1.15999
1.15989
1.15979
1.15968
1.15957
1.15947
1.15938
1.15924
1.15911
1.16045
1.16034
1.16024
1.16013
1.16002
1.15991
1.1598
1.15969
1.15958
1.15947
1.15936
1.15924
1.15913
1.15901
1.15889
1.15877
1.15866
1.1585
1.15836
1.15977
1.15965
1.15953
1.15941
1.15929
1.15916
1.15904
1.15891
1.15879
1.15866
1.15853
1.1584
1.15826
1.15813
1.158
1.15787
1.15769
1.15753
1.15901
1.15887
1.15874
1.1586
1.15846
1.15832
1.15818
1.15804
1.15789
1.15775
1.1576
1.15745
1.15729
1.15715
1.15701
1.1568
1.15662
1.1583
1.15815
1.158
1.15784
1.15769
1.15753
1.15738
1.15721
1.15705
1.15689
1.15672
1.15655
1.15638
1.15622
1.15606
1.15582
1.15564
1.15736
1.15719
1.15702
1.15684
1.15667
1.15649
1.15631
1.15613
1.15594
1.15576
1.15557
1.15538
1.1552
1.15502
1.15476
1.15457
1.1563
1.15611
1.15591
1.15572
1.15552
1.15532
1.15512
1.15492
1.15472
1.15451
1.1543
1.15411
1.1539
1.15361
1.15343
1.15511
1.1549
1.15468
1.15447
1.15425
1.15403
1.15381
1.15359
1.15336
1.15313
1.15293
1.15271
1.15239
1.15222
1.15379
1.15356
1.15332
1.15308
1.15285
1.15261
1.15237
1.15213
1.15189
1.15168
1.15143
1.15109
1.15095
1.15234
1.15209
1.15183
1.15158
1.15133
1.15108
1.15082
1.15057
1.15036
1.1501
1.14975
1.14965
1.15077
1.1505
1.15024
1.14998
1.14972
1.14946
1.14921
1.14901
1.14874
1.14839
1.14837
1.14909
1.14882
1.14856
1.1483
1.14805
1.14782
1.14762
1.14734
1.14705
1.14711
1.1471
1.14685
1.14662
1.14642
1.14622
1.14597
1.14581
1.14592
1.14538
1.14519
1.14502
1.14485
1.14469
1.14473
1.14488
1.14379
1.14368
1.1436
1.14364
1.14381
1.14405
1.14261
1.1428
1.14314
1.14351
1.14327
1.16637
1.16637
1.16637
1.16637
1.16637
1.16637
1.16637
1.16637
1.16637
1.16637
1.16637
1.16637
1.16637
1.16637
1.16637
1.16638
1.16638
1.16638
1.16638
1.16638
1.16638
1.16638
1.16638
1.16638
1.16638
1.16638
1.16638
1.16638
1.16638
1.16638
1.16635
1.16635
1.16635
1.16635
1.16635
1.16635
1.16635
1.16635
1.16635
1.16635
1.16635
1.16635
1.16635
1.16635
1.16635
1.16634
1.16634
1.16634
1.16634
1.16634
1.16634
1.16634
1.16634
1.16634
1.16634
1.16634
1.16634
1.16634
1.16634
1.16634
1.16632
1.16632
1.16632
1.16632
1.16632
1.16632
1.16632
1.16632
1.16632
1.16632
1.16632
1.16632
1.16632
1.16632
1.16632
1.16631
1.16631
1.16631
1.16631
1.16631
1.16631
1.16631
1.16631
1.16631
1.16631
1.16631
1.16631
1.16631
1.16631
1.16631
1.16629
1.16629
1.16629
1.16629
1.16629
1.16629
1.16629
1.16629
1.16629
1.16629
1.16629
1.16629
1.16629
1.16629
1.16629
1.16628
1.16628
1.16628
1.16628
1.16628
1.16628
1.16628
1.16628
1.16628
1.16628
1.16628
1.16628
1.16628
1.16628
1.16628
1.16627
1.16627
1.16627
1.16627
1.16627
1.16627
1.16627
1.16627
1.16627
1.16627
1.16627
1.16627
1.16627
1.16627
1.16627
1.16625
1.16625
1.16625
1.16625
1.16625
1.16625
1.16625
1.16625
1.16625
1.16625
1.16625
1.16625
1.16625
1.16625
1.16625
1.16624
1.16624
1.16624
1.16624
1.16624
1.16624
1.16624
1.16624
1.16624
1.16624
1.16624
1.16624
1.16624
1.16624
1.16624
1.16622
1.16622
1.16622
1.16622
1.16622
1.16622
1.16622
1.16622
1.16622
1.16622
1.16622
1.16622
1.16622
1.16622
1.16622
1.16621
1.16621
1.16621
1.16621
1.16621
1.16621
1.16621
1.16621
1.16621
1.16621
1.16621
1.16621
1.16621
1.16621
1.16621
1.16619
1.16619
1.16619
1.16619
1.16619
1.16619
1.16619
1.16619
1.16619
1.16619
1.16619
1.16619
1.16619
1.16619
1.16619
1.16618
1.16618
1.16618
1.16618
1.16618
1.16618
1.16618
1.16618
1.16618
1.16618
1.16618
1.16618
1.16618
1.16618
1.16618
1.16616
1.16616
1.16616
1.16616
1.16616
1.16616
1.16616
1.16616
1.16616
1.16616
1.16616
1.16616
1.16616
1.16616
1.16616
1.16614
1.16614
1.16614
1.16614
1.16614
1.16614
1.16614
1.16614
1.16614
1.16614
1.16614
1.16614
1.16614
1.16614
1.16614
1.16612
1.16612
1.16612
1.16612
1.16612
1.16612
1.16612
1.16612
1.16612
1.16612
1.16612
1.16612
1.16612
1.16612
1.16612
1.1661
1.1661
1.1661
1.1661
1.1661
1.1661
1.1661
1.1661
1.1661
1.1661
1.1661
1.1661
1.1661
1.1661
1.1661
1.16608
1.16608
1.16608
1.16608
1.16608
1.16608
1.16608
1.16608
1.16608
1.16608
1.16608
1.16608
1.16608
1.16608
1.16608
1.16606
1.16606
1.16606
1.16606
1.16606
1.16606
1.16606
1.16606
1.16606
1.16606
1.16606
1.16606
1.16606
1.16606
1.16606
1.16603
1.16603
1.16603
1.16603
1.16603
1.16603
1.16603
1.16603
1.16603
1.16603
1.16603
1.16603
1.16603
1.16603
1.16603
1.166
1.166
1.166
1.166
1.166
1.166
1.166
1.166
1.166
1.166
1.166
1.166
1.166
1.166
1.166
1.16597
1.16597
1.16597
1.16597
1.16597
1.16597
1.16597
1.16597
1.16597
1.16597
1.16597
1.16597
1.16597
1.16597
1.16597
1.16594
1.16594
1.16594
1.16594
1.16594
1.16594
1.16594
1.16594
1.16594
1.16594
1.16594
1.16594
1.16594
1.16594
1.16594
1.16591
1.1659
1.1659
1.1659
1.1659
1.1659
1.1659
1.1659
1.1659
1.1659
1.1659
1.1659
1.1659
1.1659
1.1659
1.16587
1.16586
1.16586
1.16586
1.16586
1.16586
1.16586
1.16586
1.16586
1.16586
1.16586
1.16586
1.16586
1.16586
1.16586
1.16582
1.16582
1.16582
1.16582
1.16582
1.16582
1.16582
1.16582
1.16582
1.16582
1.16582
1.16582
1.16582
1.16582
1.16582
1.16577
1.16577
1.16577
1.16577
1.16577
1.16577
1.16577
1.16577
1.16577
1.16577
1.16577
1.16577
1.16577
1.16577
1.16577
1.16572
1.16572
1.16572
1.16572
1.16572
1.16572
1.16572
1.16572
1.16572
1.16572
1.16572
1.16572
1.16572
1.16572
1.16572
1.16566
1.16566
1.16566
1.16566
1.16566
1.16566
1.16566
1.16566
1.16566
1.16566
1.16566
1.16566
1.16566
1.16566
1.16566
1.1656
1.1656
1.1656
1.1656
1.1656
1.1656
1.16559
1.16559
1.16559
1.16559
1.16559
1.16559
1.16559
1.16559
1.16559
1.16553
1.16552
1.16552
1.16552
1.16552
1.16552
1.16552
1.16552
1.16552
1.16552
1.16552
1.16552
1.16552
1.16552
1.16552
1.16545
1.16545
1.16545
1.16545
1.16545
1.16544
1.16544
1.16544
1.16544
1.16544
1.16544
1.16544
1.16544
1.16544
1.16544
1.16536
1.16536
1.16536
1.16536
1.16536
1.16536
1.16536
1.16536
1.16536
1.16536
1.16536
1.16536
1.16536
1.16536
1.16536
1.16527
1.16526
1.16526
1.16526
1.16526
1.16526
1.16526
1.16526
1.16526
1.16526
1.16526
1.16526
1.16526
1.16526
1.16526
1.16516
1.16516
1.16516
1.16516
1.16516
1.16516
1.16516
1.16516
1.16516
1.16516
1.16516
1.16516
1.16516
1.16515
1.16516
1.16505
1.16504
1.16504
1.16504
1.16504
1.16504
1.16504
1.16504
1.16504
1.16504
1.16504
1.16504
1.16504
1.16504
1.16504
1.16492
1.16492
1.16492
1.16492
1.16492
1.16492
1.16491
1.16491
1.16491
1.16491
1.16491
1.16491
1.16491
1.16491
1.16491
1.16478
1.16478
1.16478
1.16478
1.16478
1.16478
1.16478
1.16477
1.16477
1.16477
1.16477
1.16477
1.16477
1.16477
1.16477
1.16463
1.16462
1.16462
1.16462
1.16462
1.16462
1.16462
1.16462
1.16462
1.16462
1.16462
1.16462
1.16462
1.16462
1.16462
1.16446
1.16446
1.16445
1.16445
1.16445
1.16445
1.16445
1.16445
1.16445
1.16445
1.16445
1.16445
1.16445
1.16445
1.16445
1.16427
1.16427
1.16427
1.16427
1.16427
1.16427
1.16427
1.16427
1.16427
1.16427
1.16427
1.16427
1.16426
1.16426
1.16426
1.16407
1.16407
1.16407
1.16406
1.16406
1.16406
1.16406
1.16406
1.16406
1.16406
1.16406
1.16406
1.16406
1.16406
1.16406
1.16385
1.16384
1.16384
1.16384
1.16384
1.16384
1.16384
1.16384
1.16384
1.16384
1.16384
1.16384
1.16384
1.16384
1.16384
1.1636
1.16359
1.16359
1.16359
1.16359
1.16359
1.16359
1.16359
1.16359
1.16359
1.16359
1.16359
1.16359
1.16359
1.16359
1.16333
1.16332
1.16332
1.16332
1.16332
1.16332
1.16332
1.16332
1.16332
1.16332
1.16332
1.16332
1.16332
1.16332
1.16332
1.16303
1.16302
1.16302
1.16302
1.16302
1.16302
1.16302
1.16302
1.16302
1.16302
1.16302
1.16302
1.16302
1.16302
1.16302
1.1627
1.16269
1.16269
1.16269
1.16269
1.16269
1.16269
1.16269
1.16269
1.16268
1.16268
1.16268
1.16268
1.16268
1.16268
1.16233
1.16232
1.16232
1.16232
1.16232
1.16232
1.16232
1.16232
1.16232
1.16232
1.16232
1.16232
1.16232
1.16232
1.16232
1.16193
1.16191
1.16191
1.16191
1.16191
1.16191
1.16191
1.16191
1.16191
1.16191
1.16191
1.16191
1.16191
1.16191
1.16192
1.16148
1.16146
1.16146
1.16146
1.16146
1.16147
1.16147
1.16147
1.16147
1.16147
1.16147
1.16147
1.16147
1.16147
1.16147
1.16098
1.16097
1.16096
1.16097
1.16097
1.16097
1.16097
1.16097
1.16097
1.16097
1.16097
1.16097
1.16097
1.16097
1.16098
1.16043
1.16041
1.16041
1.16042
1.16042
1.16042
1.16042
1.16042
1.16042
1.16042
1.16042
1.16043
1.16043
1.16043
1.16043
1.15982
1.1598
1.1598
1.15981
1.15981
1.15981
1.15981
1.15981
1.15982
1.15982
1.15982
1.15982
1.15982
1.15983
1.15983
1.15915
1.15913
1.15913
1.15913
1.15914
1.15914
1.15914
1.15915
1.15915
1.15915
1.15916
1.15916
1.15916
1.15916
1.15917
1.15841
1.15838
1.15838
1.15839
1.1584
1.1584
1.15841
1.15841
1.15841
1.15842
1.15842
1.15843
1.15843
1.15844
1.15844
1.15759
1.15756
1.15757
1.15758
1.15758
1.15759
1.1576
1.1576
1.15761
1.15761
1.15762
1.15763
1.15763
1.15764
1.15765
1.15669
1.15667
1.15667
1.15669
1.15669
1.1567
1.15671
1.15672
1.15673
1.15673
1.15674
1.15675
1.15676
1.15676
1.15678
1.15571
1.15569
1.1557
1.15571
1.15573
1.15574
1.15575
1.15576
1.15577
1.15578
1.15579
1.1558
1.15581
1.15582
1.15583
1.15466
1.15463
1.15464
1.15466
1.15468
1.15469
1.15471
1.15472
1.15473
1.15475
1.15476
1.15477
1.15478
1.1548
1.15481
1.15352
1.15349
1.15351
1.15353
1.15355
1.15357
1.15359
1.15361
1.15362
1.15364
1.15366
1.15367
1.15369
1.15371
1.15373
1.15231
1.15228
1.15231
1.15234
1.15236
1.15238
1.15241
1.15243
1.15245
1.15247
1.15249
1.15252
1.15254
1.15256
1.15258
1.15104
1.15101
1.15105
1.15108
1.15111
1.15114
1.15117
1.1512
1.15123
1.15125
1.15128
1.15131
1.15134
1.15136
1.15139
1.14973
1.14971
1.14976
1.1498
1.14984
1.14987
1.14991
1.14995
1.14998
1.15002
1.15005
1.15008
1.15012
1.15015
1.15019
1.14844
1.14842
1.14847
1.14852
1.14856
1.1486
1.14865
1.14869
1.14873
1.14877
1.14881
1.14885
1.14889
1.14893
1.14897
1.14716
1.14715
1.14722
1.14728
1.14733
1.14739
1.14744
1.14749
1.14754
1.14759
1.14764
1.14769
1.14774
1.14779
1.14783
1.14595
1.14598
1.14605
1.14611
1.14618
1.14624
1.1463
1.14636
1.14642
1.14648
1.14653
1.14659
1.14665
1.1467
1.14676
1.1449
1.14496
1.14503
1.14511
1.14518
1.14525
1.14531
1.14538
1.14545
1.14551
1.14558
1.14564
1.1457
1.14577
1.14583
1.14405
1.14412
1.14421
1.14428
1.14436
1.14443
1.14451
1.14458
1.14465
1.14472
1.14479
1.14486
1.14493
1.14499
1.14506
1.14348
1.14357
1.14365
1.14373
1.14381
1.14388
1.14396
1.14403
1.1441
1.14418
1.14425
1.14432
1.14439
1.14446
1.14453
1.14322
1.14331
1.14338
1.14346
1.14353
1.1436
1.14366
1.14373
1.1438
1.14387
1.14394
1.144
1.14407
1.14414
1.1442
1.14376
1.14381
1.14386
1.14391
1.14397
1.14402
1.14407
1.14413
1.14418
1.14459
1.14462
1.14465
1.16637
1.16637
1.16637
1.16637
1.16637
1.16638
1.16638
1.16638
1.16638
1.16638
1.16635
1.16635
1.16635
1.16635
1.16635
1.16634
1.16634
1.16634
1.16634
1.16634
1.16632
1.16632
1.16632
1.16632
1.16632
1.16631
1.16631
1.16631
1.16631
1.16631
1.16629
1.16629
1.16629
1.16629
1.16629
1.16628
1.16628
1.16628
1.16628
1.16628
1.16627
1.16627
1.16627
1.16627
1.16627
1.16625
1.16625
1.16625
1.16625
1.16625
1.16624
1.16624
1.16624
1.16624
1.16624
1.16622
1.16622
1.16622
1.16622
1.16622
1.16621
1.16621
1.16621
1.16621
1.16621
1.16619
1.16619
1.16619
1.16619
1.16619
1.16618
1.16618
1.16618
1.16617
1.16618
1.16616
1.16616
1.16616
1.16616
1.16616
1.16614
1.16614
1.16614
1.16614
1.16614
1.16612
1.16612
1.16612
1.16612
1.16612
1.1661
1.1661
1.1661
1.1661
1.1661
1.16608
1.16608
1.16608
1.16608
1.16608
1.16606
1.16605
1.16605
1.16605
1.16605
1.16603
1.16603
1.16603
1.16603
1.16603
1.166
1.166
1.166
1.166
1.166
1.16597
1.16597
1.16597
1.16597
1.16597
1.16594
1.16594
1.16594
1.16594
1.16594
1.1659
1.1659
1.1659
1.1659
1.1659
1.16586
1.16586
1.16586
1.16586
1.16586
1.16582
1.16582
1.16582
1.16582
1.16582
1.16577
1.16577
1.16577
1.16577
1.16577
1.16572
1.16572
1.16571
1.16571
1.16571
1.16566
1.16566
1.16566
1.16565
1.16565
1.16559
1.16559
1.16559
1.16559
1.16559
1.16552
1.16552
1.16552
1.16552
1.16552
1.16544
1.16544
1.16544
1.16544
1.16544
1.16536
1.16535
1.16535
1.16535
1.16535
1.16526
1.16526
1.16526
1.16526
1.16525
1.16515
1.16515
1.16515
1.16515
1.16515
1.16504
1.16504
1.16504
1.16503
1.16503
1.16491
1.16491
1.16491
1.16491
1.16491
1.16477
1.16477
1.16477
1.16477
1.16477
1.16462
1.16462
1.16461
1.16461
1.16461
1.16445
1.16445
1.16445
1.16444
1.16444
1.16426
1.16426
1.16426
1.16426
1.16426
1.16406
1.16406
1.16406
1.16405
1.16405
1.16383
1.16383
1.16383
1.16383
1.16383
1.16359
1.16359
1.16358
1.16358
1.16358
1.16332
1.16331
1.16331
1.16331
1.16331
1.16302
1.16301
1.16301
1.16301
1.16301
1.16268
1.16268
1.16268
1.16268
1.16268
1.16232
1.16232
1.16232
1.16232
1.16232
1.16192
1.16192
1.16191
1.16192
1.16192
1.16147
1.16147
1.16147
1.16147
1.16148
1.16098
1.16098
1.16098
1.16098
1.16099
1.16044
1.16044
1.16044
1.16044
1.16046
1.15984
1.15984
1.15985
1.15985
1.15987
1.15918
1.15919
1.15919
1.1592
1.15922
1.15846
1.15846
1.15848
1.15849
1.15851
1.15766
1.15768
1.15769
1.15771
1.15774
1.15679
1.15682
1.15684
1.15687
1.1569
1.15585
1.15589
1.15592
1.15595
1.156
1.15484
1.15489
1.15493
1.15498
1.15503
1.15377
1.15382
1.15388
1.15394
1.15401
1.15263
1.15271
1.15279
1.15286
1.15294
1.15145
1.15155
1.15165
1.15175
1.15185
1.15027
1.15039
1.15051
1.15063
1.15075
1.14907
1.14923
1.14937
1.14952
1.14966
1.14795
1.14812
1.14829
1.14846
1.14864
1.14689
1.1471
1.14729
1.14749
1.14769
1.14598
1.1462
1.14642
1.14664
1.14685
1.14522
1.14547
1.1457
1.14594
1.14617
1.14469
1.14495
1.14519
1.14543
1.14567
1.14436
1.14461
1.14485
1.14508
1.14531
1.14432
1.14454
1.14475
1.14496
1.14516
1.14471
1.14483
1.14497
1.14511
1.14526
1.14529
1.14537
1.14543
1.14548
1.14583
1.14568
1.14553
1.14631
1.14608
1.16637
1.16637
1.16637
1.16637
1.16637
1.16637
1.16637
1.16637
1.16637
1.16637
1.16637
1.16637
1.16637
1.16637
1.16637
1.16637
1.16637
1.16637
1.16637
1.16637
1.16637
1.16637
1.16637
1.16637
1.16637
1.16637
1.16637
1.16637
1.16637
1.16637
1.16637
1.16637
1.16637
1.16637
1.16637
1.16637
1.16637
1.16637
1.16637
1.16637
1.16637
1.16637
1.16637
1.16637
1.16637
1.16637
1.16637
1.16637
1.16637
1.16637
1.16637
1.16637
1.16637
1.16637
1.16637
1.16637
1.16637
1.16638
1.16638
1.16638
1.16638
1.16638
1.16638
1.16638
1.16638
1.16638
1.16638
1.16638
1.16638
1.16639
1.16639
1.16639
1.16639
1.16639
1.16639
1.16639
1.16638
1.16636
1.16636
1.16636
1.16638
1.16638
1.16638
1.16638
1.16638
1.16638
1.16638
1.16638
1.16638
1.16638
1.16638
1.16638
1.16638
1.16638
1.16638
1.16638
1.16638
1.16638
1.16638
1.16638
1.16638
1.16638
1.16638
1.16638
1.16638
1.16638
1.16638
1.16638
1.16638
1.16638
1.16638
1.16638
1.16638
1.16638
1.16638
1.16638
1.16638
1.16638
1.16638
1.16638
1.16638
1.16638
1.16638
1.16638
1.16638
1.16638
1.16638
1.16638
1.16638
1.16638
1.16638
1.16638
1.16638
1.16637
1.16637
1.16637
1.16637
1.16637
1.16637
1.16637
1.16637
1.16637
1.16637
1.16637
1.16637
1.16637
1.16638
1.16638
1.16638
1.16638
1.16638
1.16638
1.16638
1.16639
1.16639
1.16639
1.16638
1.16637
1.16636
1.16636
1.16635
1.16635
1.16635
1.16635
1.16635
1.16635
1.16635
1.16635
1.16635
1.16635
1.16635
1.16635
1.16635
1.16635
1.16635
1.16635
1.16635
1.16635
1.16635
1.16635
1.16635
1.16635
1.16635
1.16635
1.16635
1.16635
1.16635
1.16635
1.16635
1.16635
1.16635
1.16635
1.16635
1.16635
1.16635
1.16635