/*--------------------------------*- C++ -*----------------------------------*\
  =========                 |
  \\      /  F ield         | OpenFOAM: The Open Source CFD Toolbox
   \\    /   O peration     | Website:  https://openfoam.org
    \\  /    A nd           | Version:  9
     \\/     M anipulation  |
\*---------------------------------------------------------------------------*/
FoamFile
{
    format      ascii;
    class       volVectorField;
    location    "0.0475";
    object      U;
}
// * * * * * * * * * * * * * * * * * * * * * * * * * * * * * * * * * * * * * //

dimensions      [0 1 -1 0 0 0 0];

internalField   nonuniform List<vector> 
6098
(
(24.6577 -4.05618 0)
(24.6585 -4.05263 0)
(24.6592 -4.04861 3.50254e-15)
(24.6598 -4.04408 -3.40707e-15)
(24.6604 -4.03904 -6.63382e-15)
(24.6611 -4.03351 1.29288e-14)
(24.6618 -4.02748 -6.30374e-15)
(24.6627 -4.02099 -7.50824e-19)
(24.6636 -4.01403 0)
(24.6647 -4.00661 0)
(24.6658 -3.99876 0)
(24.6671 -3.99049 0)
(24.6686 -3.98182 1.09719e-14)
(24.6701 -3.97269 -2.14801e-14)
(24.6718 -3.96302 1.05163e-14)
(24.6735 -3.95289 1.0302e-14)
(24.6754 -3.94239 -1.00947e-14)
(24.6774 -3.93154 -1.20819e-18)
(24.6795 -3.92036 1.18486e-18)
(24.6817 -3.90885 0)
(24.6841 -3.89703 0)
(24.6866 -3.88492 0)
(24.6892 -3.87255 1.80126e-14)
(24.6918 -3.85993 -1.76913e-14)
(24.6946 -3.84703 -1.73782e-14)
(24.6975 -3.83374 3.41563e-14)
(24.7002 -3.82011 -3.35746e-14)
(24.7031 -3.80693 3.30084e-14)
(24.707 -3.79597 -1.47773e-14)
(24.6949 -4.12741 -9.89544e-16)
(24.7012 -4.12551 0)
(24.7079 -4.12313 4.56495e-19)
(24.715 -4.12028 3.63969e-15)
(24.722 -4.11696 3.54604e-15)
(24.7289 -4.11317 -6.91043e-15)
(24.7358 -4.10893 0)
(24.7427 -4.10423 8.03174e-19)
(24.7495 -4.09909 -6.4256e-15)
(24.7563 -4.0935 6.28174e-15)
(24.763 -4.08748 0)
(24.7698 -4.08103 -1.20079e-14)
(24.7765 -4.07415 1.17477e-14)
(24.7831 -4.06686 -1.15024e-14)
(24.7898 -4.05915 1.16812e-20)
(24.7963 -4.05104 1.10417e-14)
(24.8029 -4.04253 1.32074e-18)
(24.8093 -4.03363 1.29501e-18)
(24.8158 -4.02436 -3.81049e-18)
(24.8221 -4.01472 0)
(24.8284 -4.00462 -1.00195e-14)
(24.8346 -3.9941 2.95094e-14)
(24.8407 -3.98326 -1.9319e-14)
(24.8467 -3.9721 1.89765e-14)
(24.8527 -3.96058 -1.8645e-14)
(24.8585 -3.9487 2.2368e-18)
(24.8642 -3.93657 1.80126e-14)
(24.8698 -3.9245 -3.54216e-14)
(24.8755 -3.91271 1.11717e-20)
(24.6969 -4.16998 0)
(24.7062 -4.16871 2.05956e-15)
(24.7152 -4.16693 -2.00478e-15)
(24.724 -4.16469 3.906e-15)
(24.7326 -4.16202 -3.808e-15)
(24.7412 -4.15891 -1.81133e-18)
(24.7497 -4.15538 0)
(24.7582 -4.15142 7.06815e-15)
(24.7666 -4.14705 -6.90159e-15)
(24.775 -4.14228 -4.78908e-23)
(24.7833 -4.1371 3.22271e-18)
(24.7916 -4.13152 -6.45747e-15)
(24.7998 -4.12555 6.32381e-15)
(24.808 -4.11921 0)
(24.8161 -4.11248 0)
(24.8243 -4.10539 -2.9014e-18)
(24.8323 -4.09794 -2.84436e-18)
(24.8403 -4.09013 0)
(24.8482 -4.08199 2.73638e-18)
(24.856 -4.07351 5.37028e-18)
(24.8637 -4.0647 5.2714e-18)
(24.8713 -4.05558 0)
(24.8789 -4.04617 0)
(24.8864 -4.03646 0)
(24.8937 -4.02639 -2.45361e-18)
(24.901 -4.01589 0)
(24.9082 -4.005 0)
(24.9154 -3.99392 1.90974e-14)
(24.9227 -3.98308 -1.68855e-14)
(24.7046 -4.25793 -5.64714e-16)
(24.7173 -4.25747 2.14558e-18)
(24.7298 -4.25652 -2.13979e-15)
(24.7422 -4.25511 2.08356e-15)
(24.7544 -4.25323 1.98365e-18)
(24.7665 -4.25089 1.93515e-18)
(24.7785 -4.2481 -3.86494e-15)
(24.7903 -4.24486 3.77876e-15)
(24.8021 -4.24117 -7.38942e-15)
(24.8137 -4.23705 7.21471e-15)
(24.8253 -4.2325 -3.44961e-18)
(24.8368 -4.22752 -6.91431e-15)
(24.8481 -4.22213 6.76999e-15)
(24.8594 -4.21633 0)
(24.8706 -4.21012 -6.49803e-15)
(24.8817 -4.20352 1.27394e-14)
(24.8927 -4.19653 -1.87383e-14)
(24.9035 -4.18916 1.22478e-14)
(24.9143 -4.18141 0)
(24.9249 -4.1733 -1.15247e-17)
(24.9353 -4.16484 -1.15921e-14)
(24.9456 -4.15603 1.13786e-14)
(24.9557 -4.14688 0)
(24.9656 -4.13741 -5.36245e-18)
(24.9753 -4.12763 0)
(24.9848 -4.11755 5.18078e-18)
(24.9941 -4.1072 -1.04326e-14)
(25.0032 -4.09657 5.03098e-18)
(25.012 -4.0856 1.80234e-14)
(24.7006 -4.3575 1.17331e-18)
(24.7159 -4.35762 -1.14196e-18)
(24.7309 -4.35724 -2.22461e-18)
(24.7457 -4.35638 -2.22263e-15)
(24.7603 -4.35504 2.16797e-15)
(24.7748 -4.35324 -4.12877e-18)
(24.7891 -4.35098 4.12902e-15)
(24.8033 -4.34826 -3.95565e-18)
(24.8173 -4.34508 -3.94474e-15)
(24.8312 -4.34147 7.71723e-15)
(24.845 -4.33742 -7.54863e-15)
(24.8587 -4.33294 7.39409e-15)
(24.8722 -4.32803 -7.24222e-15)
(24.8857 -4.32271 7.09617e-15)
(24.899 -4.31698 -2.47284e-20)
(24.9121 -4.31085 -6.81364e-15)
(24.9252 -4.30433 -6.68974e-15)
(24.9381 -4.29743 6.57019e-15)
(24.9509 -4.29015 6.44208e-15)
(24.9635 -4.28249 -1.89734e-14)
(24.976 -4.27448 2.48488e-14)
(24.9883 -4.26612 -1.2207e-14)
(25.0005 -4.25741 5.85327e-18)
(25.0125 -4.24837 5.75238e-18)
(25.0243 -4.23899 1.15857e-14)
(25.0359 -4.22931 -2.27764e-14)
(25.0474 -4.21933 1.12019e-14)
(25.0586 -4.20896 1.10073e-14)
(25.0696 -4.19822 -9.60674e-15)
(24.6943 -4.48167 -1.24492e-18)
(24.7124 -4.48239 1.24277e-15)
(24.7303 -4.48259 -1.20773e-15)
(24.748 -4.48228 2.30513e-18)
(24.7655 -4.48147 -4.49937e-18)
(24.7828 -4.48016 4.50362e-15)
(24.7999 -4.47836 -4.40477e-15)
(24.8168 -4.47607 4.19707e-18)
(24.8336 -4.47331 -4.10516e-18)
(24.8502 -4.47007 4.01726e-18)
(24.8667 -4.46637 -3.93294e-18)
(24.883 -4.4622 0)
(24.8992 -4.45758 0)
(24.9152 -4.45251 0)
(24.9311 -4.44701 7.4214e-15)
(24.9467 -4.44107 -7.28636e-15)
(24.9622 -4.43472 0)
(24.9776 -4.42794 0)
(24.9927 -4.42077 6.8881e-15)
(25.0077 -4.4132 -1.35215e-14)
(25.0224 -4.40524 6.64398e-15)
(25.037 -4.39691 1.27492e-17)
(25.0513 -4.38822 -6.26453e-18)
(25.0654 -4.37917 -6.3054e-15)
(25.0793 -4.36978 1.85855e-14)
(25.093 -4.36006 -1.21922e-14)
(25.1065 -4.35004 -1.19976e-14)
(25.1196 -4.33966 2.3594e-14)
(25.1326 -4.32888 -1.02202e-14)
(24.6813 -4.62306 -6.73798e-16)
(24.7021 -4.62435 6.57973e-16)
(24.7227 -4.62509 0)
(24.743 -4.6253 2.50503e-15)
(24.763 -4.62498 -2.44379e-15)
(24.7829 -4.62413 2.39003e-15)
(24.8026 -4.62277 -2.33645e-15)
(24.8221 -4.6209 4.4633e-18)
(24.8414 -4.61853 4.79963e-23)
(24.8605 -4.61565 -4.27577e-18)
(24.8795 -4.61229 -4.28821e-15)
(24.8983 -4.60843 4.20978e-15)
(24.9169 -4.60411 -4.1182e-15)
(24.9353 -4.5993 -7.86648e-18)
(24.9536 -4.59404 3.97602e-15)
(24.9716 -4.58832 7.76412e-15)
(24.9895 -4.58216 -3.64226e-20)
(25.0071 -4.57555 -1.49761e-14)
(25.0246 -4.56852 7.36035e-15)
(25.0418 -4.56107 0)
(25.0588 -4.55321 7.08905e-15)
(25.0756 -4.54496 -1.39534e-14)
(25.0922 -4.53631 6.85428e-15)
(25.1085 -4.52728 0)
(25.1245 -4.51788 6.47124e-18)
(25.1404 -4.50813 0)
(25.156 -4.49806 6.41133e-15)
(25.1713 -4.48758 -6.30818e-15)
(25.1863 -4.47668 5.42708e-15)
(24.6639 -4.78468 3.55518e-16)
(24.6876 -4.78656 -1.35973e-18)
(24.7109 -4.78787 1.36149e-15)
(24.734 -4.7886 -1.32695e-15)
(24.7569 -4.78877 0)
(24.7795 -4.78838 4.95094e-18)
(24.8019 -4.78744 4.67275e-23)
(24.8241 -4.78595 -4.73849e-18)
(24.8461 -4.78393 4.63889e-18)
(24.8679 -4.78138 -4.64779e-15)
(24.8895 -4.7783 2.65149e-20)
(24.9109 -4.77471 4.4592e-15)
(24.9321 -4.7706 4.38083e-15)
(24.9531 -4.76599 1.67605e-17)
(24.9739 -4.76088 -8.43186e-15)
(24.9945 -4.75529 -8.05857e-18)
(25.0149 -4.74921 8.12421e-15)
(25.035 -4.74266 -3.98897e-15)
(25.0549 -4.73565 7.82093e-15)
(25.0745 -4.72819 -4.01451e-20)
(25.0939 -4.7203 -7.56591e-15)
(25.113 -4.71197 0)
(25.1318 -4.70324 0)
(25.1504 -4.69409 0)
(25.1687 -4.68455 0)
(25.1867 -4.67464 0)
(25.2044 -4.66439 6.84378e-15)
(25.2218 -4.65372 -6.7347e-15)
(25.2389 -4.64259 5.7538e-15)
(24.6409 -4.96507 -1.47205e-18)
(24.6674 -4.96757 -7.35575e-16)
(24.6936 -4.96945 7.15541e-16)
(24.7195 -4.97073 -2.1394e-23)
(24.7452 -4.9714 -2.68053e-18)
(24.7706 -4.97148 -5.24376e-18)
(24.7957 -4.97098 2.6375e-15)
(24.8206 -4.96989 -2.57207e-15)
(24.8454 -4.96823 2.51911e-15)
(24.8699 -4.96601 -2.46825e-15)
(24.8941 -4.96324 -4.7252e-18)
(24.9182 -4.9599 -4.74441e-15)
(24.9421 -4.95602 2.99148e-20)
(24.9657 -4.9516 4.55707e-15)
(24.9891 -4.94665 4.46381e-15)
(25.0122 -4.94118 -8.79042e-15)
(25.0351 -4.9352 4.32035e-15)
(25.0578 -4.92872 0)
(25.0802 -4.92175 8.14336e-18)
(25.1023 -4.91431 4.09729e-15)
(25.1241 -4.90639 -4.02738e-15)
(25.1456 -4.89801 -7.73322e-18)
(25.1669 -4.88919 0)
(25.1878 -4.87993 0)
(25.2085 -4.87024 0)
(25.2288 -4.86016 7.41216e-15)
(25.2488 -4.8497 7.08486e-18)
(25.2685 -4.83879 -1.435e-14)
(25.2877 -4.82737 1.21752e-14)
(24.6126 -5.16527 2.0103e-16)
(24.6422 -5.16842 1.51609e-18)
(24.6714 -5.17091 0)
(24.7002 -5.17275 -2.89713e-18)
(24.7288 -5.17395 2.56372e-23)
(24.7571 -5.17451 -1.41445e-15)
(24.7852 -5.17444 1.38484e-15)
(24.813 -5.17376 5.3191e-18)
(24.8406 -5.17246 0)
(24.8679 -5.17056 5.1087e-18)
(24.895 -5.16807 1.00188e-17)
(24.9218 -5.16498 2.52068e-15)
(24.9484 -5.16131 -2.45883e-15)
(24.9748 -5.15708 -4.84549e-15)
(25.0009 -5.15227 9.32477e-18)
(25.0268 -5.14692 4.67162e-15)
(25.0523 -5.14102 0)
(25.0776 -5.13458 0)
(25.1026 -5.12763 4.43923e-15)
(25.1273 -5.12016 -4.35501e-15)
(25.1517 -5.11219 0)
(25.1758 -5.10373 -4.19371e-15)
(25.1996 -5.09479 4.14885e-15)
(25.223 -5.08538 7.95534e-18)
(25.2461 -5.07552 0)
(25.2688 -5.06523 0)
(25.2912 -5.05454 -7.57991e-18)
(25.3132 -5.04338 -1.49218e-17)
(25.3348 -5.03166 1.6651e-22)
(24.5786 -5.38552 -5.27235e-24)
(24.6113 -5.38936 -1.16322e-23)
(24.6436 -5.39249 0)
(24.6756 -5.39493 -3.05798e-18)
(24.7073 -5.39668 1.53244e-15)
(24.7387 -5.39775 -1.50053e-15)
(24.7698 -5.39815 0)
(24.8006 -5.39789 -1.44591e-15)
(24.8311 -5.39697 1.41186e-15)
(24.8614 -5.39541 -7.49262e-23)
(24.8914 -5.39321 -1.06097e-17)
(24.9212 -5.39039 -5.20527e-18)
(24.9507 -5.38695 -1.02181e-17)
(24.9799 -5.3829 -2.56816e-15)
(25.0089 -5.37824 2.52206e-15)
(25.0376 -5.373 2.47737e-15)
(25.0659 -5.36718 -2.42457e-15)
(25.094 -5.36078 0)
(25.1217 -5.35383 -1.91969e-22)
(25.1491 -5.34633 -9.02954e-18)
(25.1762 -5.3383 0)
(25.203 -5.32974 -8.73265e-18)
(25.2293 -5.32068 -4.39804e-15)
(25.2553 -5.31111 -8.42141e-18)
(25.281 -5.30105 4.25766e-15)
(25.3062 -5.29054 8.18362e-18)
(25.3311 -5.27961 4.12415e-15)
(25.3556 -5.26817 -4.05193e-15)
(25.3796 -5.25613 3.40435e-15)
(24.5747 -5.63124 -4.32656e-16)
(24.6104 -5.63505 8.43384e-16)
(24.6457 -5.63812 -8.22382e-16)
(24.6806 -5.64045 3.15832e-18)
(24.7153 -5.64205 -1.59038e-15)
(24.7496 -5.64294 1.5465e-15)
(24.7836 -5.64312 -1.51609e-15)
(24.8173 -5.6426 1.49262e-15)
(24.8508 -5.64139 -5.71965e-18)
(24.8839 -5.6395 -2.86236e-15)
(24.9167 -5.63694 2.4906e-20)
(24.9493 -5.63373 2.76932e-15)
(24.9816 -5.62986 -5.31178e-18)
(25.0135 -5.62536 -2.6611e-15)
(25.0451 -5.62023 5.24977e-15)
(25.0764 -5.61447 -2.58969e-15)
(25.1074 -5.60811 9.90463e-18)
(25.138 -5.60116 -1.94755e-17)
(25.1683 -5.59362 9.5754e-18)
(25.1981 -5.58551 0)
(25.2277 -5.57684 4.75204e-15)
(25.2568 -5.56764 -4.67512e-15)
(25.2855 -5.55789 0)
(25.3138 -5.54763 0)
(25.3417 -5.53687 -4.4555e-15)
(25.3692 -5.52567 3.15253e-20)
(25.3963 -5.51394 4.30932e-15)
(25.4228 -5.50155 0)
(24.5322 -5.8949 0)
(24.5714 -5.89942 8.8831e-16)
(24.6102 -5.90315 -1.74019e-15)
(24.6487 -5.90609 8.49244e-16)
(24.6868 -5.90825 0)
(24.7245 -5.90965 6.40149e-18)
(24.7619 -5.91029 -6.27849e-18)
(24.799 -5.91018 1.583e-15)
(24.8358 -5.90934 -1.52205e-20)
(24.8722 -5.90777 -1.52492e-15)
(24.9084 -5.90548 0)
(24.9442 -5.90249 -5.72162e-18)
(24.9796 -5.89881 5.62069e-18)
(25.0147 -5.89446 -1.10453e-17)
(25.0495 -5.88944 0)
(25.0839 -5.88375 0)
(25.1179 -5.87742 -2.69592e-15)
(25.1516 -5.87046 5.28127e-15)
(25.1848 -5.86287 -5.19402e-15)
(25.2177 -5.85468 2.55452e-15)
(25.2501 -5.84589 -2.52289e-15)
(25.2821 -5.83652 2.47268e-15)
(25.3137 -5.82659 2.43323e-15)
(25.3448 -5.8161 -2.39475e-15)
(25.3755 -5.80509 0)
(25.4057 -5.7936 0)
(25.4354 -5.78156 0)
(25.4646 -5.76881 -3.77377e-15)
(24.4837 -6.18135 2.38631e-16)
(24.5267 -6.18661 0)
(24.5692 -6.19102 0)
(24.6114 -6.19459 3.50992e-18)
(24.6532 -6.19734 -3.44209e-18)
(24.6946 -6.19927 -8.67781e-16)
(24.7357 -6.20038 8.41551e-16)
(24.7763 -6.20071 -6.50354e-18)
(24.8167 -6.20024 -1.62803e-15)
(24.8566 -6.199 3.20981e-15)
(24.8962 -6.197 -1.57014e-15)
(24.9355 -6.19424 -1.54851e-15)
(24.9744 -6.19074 1.52158e-15)
(25.0128 -6.18652 0)
(25.0509 -6.18159 2.93409e-15)
(25.0886 -6.17596 -2.9147e-20)
(25.1259 -6.16965 -2.84211e-15)
(25.1627 -6.16267 1.09185e-17)
(25.1992 -6.15503 1.07394e-17)
(25.2351 -6.14674 0)
(25.2707 -6.13782 -2.67147e-15)
(25.3057 -6.12829 5.23707e-15)
(25.3403 -6.11815 -2.57698e-15)
(25.3744 -6.10742 0)
(25.408 -6.09613 0)
(25.4411 -6.08434 2.45777e-15)
(25.4736 -6.07198 -9.47245e-18)
(25.5055 -6.05885 -1.61929e-20)
(24.4292 -6.49168 0)
(24.4761 -6.4977 1.92207e-18)
(24.5227 -6.50281 -3.76966e-18)
(24.5688 -6.50703 0)
(24.6146 -6.51037 9.28799e-16)
(24.6599 -6.51284 -1.81954e-15)
(24.7048 -6.51445 9.08799e-16)
(24.7493 -6.51521 0)
(24.7935 -6.51513 -1.73233e-15)
(24.8372 -6.51423 1.69498e-15)
(24.8805 -6.51252 -6.50488e-18)
(24.9235 -6.51 1.64911e-15)
(24.966 -6.5067 -3.21649e-15)
(25.008 -6.50262 1.58092e-15)
(25.0497 -6.49778 -1.54823e-15)
(25.0909 -6.49219 1.52243e-15)
(25.1316 -6.48587 -5.87148e-18)
(25.1719 -6.47885 -2.95694e-15)
(25.2116 -6.47113 2.89751e-15)
(25.2509 -6.46273 -2.87306e-15)
(25.2897 -6.45366 2.82702e-15)
(25.328 -6.44395 -2.77115e-15)
(25.3657 -6.4336 2.71666e-15)
(25.403 -6.42261 0)
(25.4396 -6.41103 0)
(25.4757 -6.39893 0)
(25.5113 -6.38623 1.00041e-17)
(25.5461 -6.3727 2.0893e-15)
(24.3687 -6.82704 0)
(24.4199 -6.83383 -3.22391e-23)
(24.4708 -6.83966 3.96846e-18)
(24.5211 -6.84453 4.98525e-16)
(24.5711 -6.84848 -1.46433e-15)
(24.6206 -6.85149 9.57278e-16)
(24.6696 -6.8536 -7.37336e-18)
(24.7183 -6.8548 7.24216e-18)
(24.7664 -6.85512 9.10682e-16)
(24.8142 -6.85456 -8.87822e-16)
(24.8615 -6.85313 0)
(24.9083 -6.85086 -6.75254e-18)
(24.9547 -6.84775 -1.69933e-15)
(25.0006 -6.84381 1.66428e-15)
(25.0461 -6.83908 0)
(25.091 -6.83354 6.31192e-18)
(25.1354 -6.82724 1.59553e-15)
(25.1793 -6.82017 -1.56347e-15)
(25.2227 -6.81236 -1.53817e-15)
(25.2655 -6.80382 1.52529e-15)
(25.3077 -6.79457 0)
(25.3494 -6.78464 1.46561e-15)
(25.3905 -6.77403 1.4537e-15)
(25.4311 -6.76276 -2.83954e-15)
(25.471 -6.75087 -1.0918e-17)
(25.5103 -6.73843 1.07478e-17)
(25.549 -6.72538 -2.71933e-15)
(25.5869 -6.71145 4.40272e-15)
(24.3024 -7.18864 1.38721e-16)
(24.3583 -7.19619 -4.25495e-18)
(24.4136 -7.20273 -2.08862e-18)
(24.4685 -7.20826 -5.29142e-16)
(24.5229 -7.2128 5.19699e-16)
(24.5769 -7.21637 1.01704e-15)
(24.6304 -7.21897 -9.99222e-16)
(24.6834 -7.22061 9.70365e-16)
(24.7359 -7.22131 -9.61134e-16)
(24.7879 -7.22109 9.37272e-16)
(24.8395 -7.21996 -1.8572e-15)
(24.8905 -7.21792 1.23669e-20)
(24.941 -7.215 1.78831e-15)
(24.991 -7.21121 -8.75864e-16)
(25.0405 -7.20657 1.74316e-15)
(25.0894 -7.20109 -3.41589e-15)
(25.1377 -7.19479 1.68015e-15)
(25.1855 -7.18768 -1.65294e-15)
(25.2327 -7.17979 1.6327e-15)
(25.2793 -7.17113 0)
(25.3252 -7.16172 1.57477e-15)
(25.3705 -7.15158 -1.84858e-20)
(25.4152 -7.14072 -1.78903e-20)
(25.4592 -7.12916 -5.88143e-18)
(25.5026 -7.11692 -1.47192e-15)
(25.5453 -7.10411 -1.46591e-15)
(25.5873 -7.09066 1.44305e-15)
(25.6285 -7.07628 -9.02361e-18)
(24.2915 -7.58596 -5.70748e-16)
(24.3517 -7.5932 2.83627e-16)
(24.4114 -7.59939 4.32026e-18)
(24.4706 -7.60452 -4.24518e-18)
(24.5293 -7.60863 0)
(24.5875 -7.61171 4.10051e-18)
(24.6452 -7.61379 0)
(24.7023 -7.61488 0)
(24.7589 -7.61499 0)
(24.815 -7.61413 -7.66094e-18)
(24.8705 -7.61233 0)
(24.9254 -7.60959 7.40925e-18)
(24.9798 -7.60594 9.32777e-16)
(25.0335 -7.60139 -7.18146e-18)
(25.0867 -7.59595 -9.0263e-16)
(25.1392 -7.58965 0)
(25.1911 -7.5825 6.82575e-18)
(25.2424 -7.57453 -2.87548e-22)
(25.2929 -7.56574 0)
(25.3428 -7.55616 0)
(25.392 -7.54581 0)
(25.4405 -7.5347 -6.29894e-18)
(25.4882 -7.52285 -1.57468e-15)
(25.5352 -7.51028 3.13023e-15)
(25.5815 -7.49711 -1.54349e-15)
(25.6271 -7.4833 -1.51331e-15)
(25.6717 -7.46849 2.43353e-15)
(24.2198 -8.00429 -2.355e-18)
(24.2853 -8.01224 2.96283e-16)
(24.3502 -8.01907 -2.91251e-16)
(24.4145 -8.0248 4.47379e-18)
(24.4783 -8.02944 0)
(24.5415 -8.03301 -5.49291e-16)
(24.6041 -8.03552 4.26201e-18)
(24.6662 -8.03698 5.35377e-16)
(24.7277 -8.03742 8.22673e-18)
(24.7885 -8.03684 1.04378e-15)
(24.8488 -8.03527 -1.02668e-15)
(24.9085 -8.03272 1.00989e-15)
(24.9675 -8.0292 -1.53529e-20)
(25.0258 -8.02474 -9.69808e-16)
(25.0835 -8.01935 -7.45407e-18)
(25.1405 -8.01305 7.33413e-18)
(25.1968 -8.00585 -7.2168e-18)
(25.2524 -7.99779 -7.10132e-18)
(25.3072 -7.98887 8.87444e-16)
(25.3613 -7.97912 -8.80189e-16)
(25.4146 -7.96857 0)
(25.4671 -7.95721 1.33189e-17)
(25.5188 -7.94507 -6.5539e-18)
(25.5698 -7.93218 6.44958e-18)
(25.6199 -7.91865 1.2695e-17)
(25.6692 -7.90449 6.24669e-18)
(25.7174 -7.88927 -4.98881e-18)
(24.1438 -8.45226 7.97212e-23)
(24.2148 -8.46093 0)
(24.2853 -8.46842 0)
(24.3551 -8.47474 -4.71605e-18)
(24.4243 -8.47992 0)
(24.4928 -8.48398 -4.56333e-18)
(24.5608 -8.48692 5.6561e-16)
(24.6281 -8.48876 -1.13052e-15)
(24.6948 -8.48953 5.43057e-16)
(24.7608 -8.48923 0)
(24.8262 -8.48789 1.68195e-17)
(24.8909 -8.48553 -1.06735e-15)
(24.9548 -8.48215 1.75436e-20)
(25.0181 -8.47778 1.0253e-15)
(25.0806 -8.47245 7.88177e-18)
(25.1424 -8.46615 -4.08349e-22)
(25.2033 -8.45893 7.63116e-18)
(25.2635 -8.45079 -7.50925e-18)
(25.3229 -8.44175 4.16248e-22)
(25.3814 -8.43185 0)
(25.4391 -8.42109 0)
(25.496 -8.40951 8.94246e-16)
(25.5519 -8.3971 -8.86905e-16)
(25.607 -8.38389 8.72715e-16)
(25.6612 -8.37002 -8.65474e-16)
(25.7144 -8.35552 -6.60176e-18)
(25.7666 -8.33992 0)
(24.0634 -8.93086 -1.6436e-16)
(24.1406 -8.94029 -1.64304e-16)
(24.217 -8.94846 3.23389e-16)
(24.2928 -8.95541 0)
(24.3678 -8.96115 0)
(24.4422 -8.96571 6.16429e-16)
(24.5158 -8.9691 -6.01912e-16)
(24.5888 -8.97134 6.01662e-16)
(24.661 -8.97245 9.1686e-18)
(24.7325 -8.97245 -5.73633e-16)
(24.8033 -8.97136 -8.88973e-18)
(24.8734 -8.9692 0)
(24.9426 -8.96598 5.42326e-16)
(25.0111 -8.96172 -1.63495e-15)
(25.0788 -8.95645 1.06705e-15)
(25.1456 -8.95019 -8.20363e-18)
(25.2116 -8.94295 -1.03329e-15)
(25.2767 -8.93475 1.02476e-15)
(25.3409 -8.92562 7.81712e-18)
(25.4042 -8.91559 0)
(25.4666 -8.90466 0)
(25.528 -8.89287 9.60668e-16)
(25.5885 -8.88021 -9.37901e-16)
(25.6479 -8.86672 -9.3718e-16)
(25.7064 -8.85252 9.07857e-16)
(25.764 -8.83773 -6.9773e-18)
(25.8203 -8.8218 0)
(24.0627 -9.45118 2.70483e-18)
(24.1457 -9.46012 2.66327e-18)
(24.2278 -9.46776 3.35662e-16)
(24.3092 -9.47412 -3.25334e-16)
(24.3898 -9.47923 0)
(24.4696 -9.48312 -5.00541e-18)
(24.5487 -9.48579 -6.40612e-16)
(24.6269 -9.48729 6.20939e-16)
(24.7043 -9.48762 -9.55028e-18)
(24.7809 -9.48681 -6.01623e-16)
(24.8567 -9.48488 4.63786e-18)
(24.9316 -9.48185 6.01045e-16)
(25.0057 -9.47774 8.96303e-18)
(25.0789 -9.47257 5.64531e-16)
(25.1511 -9.46637 -1.05112e-20)
(25.2224 -9.45915 -5.55293e-16)
(25.2928 -9.45094 -8.40634e-18)
(25.3622 -9.44175 1.05884e-15)
(25.4306 -9.43161 -1.03373e-15)
(25.498 -9.42056 0)
(25.5643 -9.4086 -6.05975e-22)
(25.6296 -9.39573 9.99914e-16)
(25.6937 -9.38199 -9.60771e-16)
(25.7569 -9.36752 0)
(25.8189 -9.35249 9.59021e-16)
(25.8796 -9.33629 -7.44803e-16)
(23.9808 -9.99432 -1.85294e-16)
(24.071 -10.0042 3.56683e-16)
(24.1603 -10.0126 1.74303e-16)
(24.2486 -10.0197 -3.59775e-16)
(24.336 -10.0255 -5.36922e-18)
(24.4226 -10.0299 5.2887e-18)
(24.5082 -10.0331 1.04169e-17)
(24.5929 -10.0351 -1.02582e-17)
(24.6767 -10.0358 5.05061e-18)
(24.7596 -10.0354 -6.36478e-16)
(24.8416 -10.0337 -9.77731e-18)
(24.9226 -10.031 -9.6254e-18)
(25.0027 -10.0271 6.07191e-16)
(25.0818 -10.0221 -9.33768e-18)
(25.1599 -10.016 5.79004e-16)
(25.2369 -10.0088 -5.78877e-16)
(25.3129 -10.0006 -5.60739e-16)
(25.3879 -9.99146 1.12981e-15)
(25.4617 -9.98129 -5.60125e-16)
(25.5344 -9.97016 8.47737e-18)
(25.606 -9.95809 -8.34016e-18)
(25.6764 -9.94509 -8.20369e-18)
(25.7456 -9.93115 -1.03274e-15)
(25.8137 -9.91647 1.01565e-15)
(25.8806 -9.90128 -1.56048e-17)
(25.9461 -9.8849 6.13304e-18)
(23.8942 -10.5702 -1.95344e-16)
(23.9925 -10.5812 4.68302e-21)
(24.0896 -10.5906 1.89809e-16)
(24.1857 -10.5986 5.75616e-18)
(24.2806 -10.6052 5.67259e-18)
(24.3746 -10.6105 3.5772e-16)
(24.4675 -10.6143 -3.52456e-16)
(24.5593 -10.6169 1.08503e-17)
(24.6501 -10.6182 3.41997e-16)
(24.7399 -10.6182 -7.87881e-21)
(24.8287 -10.6169 -3.26501e-16)
(24.9163 -10.6145 6.4804e-16)
(25.0029 -10.6109 -6.43031e-16)
(25.0884 -10.6062 9.89081e-18)
(25.1728 -10.6003 -6.08433e-16)
(25.256 -10.5933 1.22159e-15)
(25.3381 -10.5853 -6.0343e-16)
(25.419 -10.5762 -9.27767e-18)
(25.4988 -10.566 0)
(25.5772 -10.5549 -1.79578e-17)
(25.6545 -10.5428 -5.65226e-16)
(25.7304 -10.5298 1.11179e-15)
(25.8051 -10.5157 -1.14254e-20)
(25.8784 -10.5009 -1.06652e-15)
(25.9505 -10.4857 5.36623e-16)
(26.0211 -10.4693 -6.47032e-18)
(23.909 -11.1915 -2.03195e-16)
(24.0149 -11.2023 3.08274e-18)
(24.1195 -11.2115 3.03979e-18)
(24.2229 -11.2192 0)
(24.3251 -11.2254 0)
(24.4261 -11.2302 -5.8248e-18)
(24.5259 -11.2335 -5.74042e-18)
(24.6245 -11.2355 0)
(24.7219 -11.2362 5.57198e-18)
(24.8181 -11.2355 -5.48839e-18)
(24.913 -11.2336 1.08108e-17)
(25.0068 -11.2305 0)
(25.0993 -11.2262 0)
(25.1906 -11.2206 -1.03165e-17)
(25.2806 -11.214 1.01539e-17)
(25.3694 -11.2062 0)
(25.4568 -11.1973 0)
(25.5429 -11.1873 4.83596e-18)
(25.6276 -11.1764 9.51468e-18)
(25.711 -11.1644 0)
(25.7929 -11.1514 5.9345e-16)
(25.8734 -11.1374 -1.16691e-15)
(25.9525 -11.1226 5.60188e-16)
(26.0302 -11.1074 -4.36912e-18)
(26.1063 -11.0911 3.41496e-18)
(23.8188 -11.8354 3.29985e-18)
(23.9346 -11.8478 -3.25593e-18)
(24.0489 -11.8586 -3.21211e-18)
(24.1617 -11.8677 -2.02766e-16)
(24.2732 -11.8753 1.9998e-16)
(24.3832 -11.8813 0)
(24.4919 -11.8858 0)
(24.5992 -11.8888 3.83252e-16)
(24.7051 -11.8904 -3.83611e-16)
(24.8096 -11.8906 5.81514e-18)
(24.9128 -11.8895 -1.14562e-17)
(25.0145 -11.887 0)
(25.1149 -11.8833 0)
(25.2138 -11.8783 5.4691e-18)
(25.3113 -11.8722 -3.44503e-16)
(25.4074 -11.8648 6.78061e-16)
(25.502 -11.8563 -3.33582e-16)
(25.5951 -11.8468 3.17891e-16)
(25.6867 -11.8361 -9.68236e-16)
(25.7768 -11.8244 6.34745e-16)
(25.8653 -11.8116 -6.33777e-16)
(25.9522 -11.7978 6.13389e-16)
(26.0375 -11.7831 0)
(26.1215 -11.7683 6.25802e-22)
(26.2036 -11.7523 -3.60813e-18)
(23.8466 -12.5273 2.16706e-16)
(23.9717 -12.5402 -1.08641e-16)
(24.0952 -12.5512 2.1441e-16)
(24.2171 -12.5605 -4.23092e-16)
(24.3373 -12.5682 2.08681e-16)
(24.456 -12.5742 -1.99374e-16)
(24.5731 -12.5786 1.96597e-16)
(24.6886 -12.5815 0)
(24.8025 -12.5829 3.88192e-16)
(24.9149 -12.5829 6.06068e-18)
(25.0257 -12.5815 -7.71586e-16)
(25.1348 -12.5787 3.77012e-16)
(25.2424 -12.5746 -3.712e-16)
(25.3483 -12.5692 7.25094e-16)
(25.4526 -12.5626 -3.59608e-16)
(25.5553 -12.5548 -3.53808e-16)
(25.6562 -12.5458 3.53475e-16)
(25.7555 -12.5357 -3.4226e-16)
(25.8531 -12.5246 3.41773e-16)
(25.9489 -12.5123 3.35937e-16)
(26.0429 -12.4989 -7.9925e-21)
(26.1352 -12.4846 -6.38684e-16)
(26.2259 -12.4702 3.18557e-16)
(26.3147 -12.4549 0)
(23.7484 -13.2407 -1.09073e-16)
(23.8857 -13.2562 1.14881e-16)
(24.0211 -13.2697 0)
(24.1547 -13.2813 0)
(24.2865 -13.2912 0)
(24.4164 -13.2992 -8.77883e-22)
(24.5446 -13.3055 8.84542e-22)
(24.6709 -13.3102 -6.62378e-18)
(24.7955 -13.3133 -2.08978e-16)
(24.9183 -13.3148 4.11955e-16)
(25.0392 -13.3148 -1.96621e-16)
(25.1584 -13.3134 -6.24732e-18)
(25.2757 -13.3106 0)
(25.3912 -13.3064 3.93713e-16)
(25.5049 -13.3009 -5.97225e-18)
(25.6166 -13.2941 -3.75387e-16)
(25.7265 -13.286 -3.63452e-16)
(25.8344 -13.2768 1.03293e-20)
(25.9405 -13.2665 3.51333e-16)
(26.0445 -13.255 0)
(26.1466 -13.2423 0)
(26.2466 -13.2287 5.2875e-18)
(26.345 -13.2153 -3.3228e-16)
(26.4413 -13.2009 2.58117e-16)
(23.6374 -13.9878 -3.84565e-18)
(23.7882 -14.0066 1.21542e-16)
(23.937 -14.0232 -2.40054e-16)
(24.0837 -14.0378 1.18505e-16)
(24.2284 -14.0505 -2.37593e-16)
(24.371 -14.0611 2.27261e-16)
(24.5116 -14.07 1.06014e-21)
(24.6502 -14.077 7.0212e-18)
(24.7868 -14.0823 2.28459e-16)
(24.9213 -14.0859 -2.18403e-16)
(25.0539 -14.0878 0)
(25.1844 -14.0883 6.62756e-18)
(25.3128 -14.0872 0)
(25.4391 -14.0846 1.99226e-16)
(25.5634 -14.0806 -1.96097e-16)
(25.6855 -14.0753 -3.92096e-16)
(25.8055 -14.0687 -1.22305e-17)
(25.9234 -14.0608 7.70396e-16)
(26.0391 -14.0518 -3.78603e-16)
(26.1525 -14.0415 -5.81153e-18)
(26.2637 -14.0299 5.70788e-18)
(26.3726 -14.0174 -5.60512e-18)
(26.4797 -14.0052 0)
(26.5846 -13.9924 4.26558e-18)
(23.6767 -14.7916 1.28691e-16)
(23.8403 -14.8121 1.27114e-16)
(24.0016 -14.8303 -2.51069e-16)
(24.1607 -14.8464 1.27818e-16)
(24.3175 -14.8603 -3.82336e-18)
(24.4721 -14.8723 1.13181e-17)
(24.6244 -14.8823 0)
(24.7745 -14.8904 -7.34067e-18)
(24.9224 -14.8966 2.31624e-16)
(25.068 -14.9012 -8.58092e-21)
(25.2112 -14.904 -8.36998e-21)
(25.3522 -14.9052 -2.21601e-16)
(25.4909 -14.9048 0)
(25.6272 -14.903 6.71114e-18)
(25.7612 -14.8996 -2.11328e-16)
(25.8927 -14.8949 4.22197e-16)
(26.0219 -14.8889 -7.02183e-21)
(26.1485 -14.8816 -2.00813e-16)
(26.2727 -14.873 6.16473e-18)
(26.3943 -14.863 3.81294e-16)
(26.5134 -14.852 -1.24106e-20)
(26.6305 -14.8417 -3.72955e-16)
(26.7452 -14.831 -9.026e-18)
(23.5491 -15.6117 2.95171e-21)
(23.7289 -15.6366 7.15833e-17)
(23.9063 -15.6592 -1.33089e-16)
(24.0813 -15.6794 1.31429e-16)
(24.2539 -15.6973 1.29744e-16)
(24.4241 -15.7131 -4.00743e-18)
(24.5918 -15.7267 -1.26346e-16)
(24.757 -15.7382 7.78943e-18)
(24.9197 -15.7478 0)
(25.08 -15.7555 2.34679e-16)
(25.2377 -15.7614 -9.78737e-21)
(25.3928 -15.7655 -4.62937e-16)
(25.5454 -15.7679 9.2931e-21)
(25.6954 -15.7687 7.45272e-21)
(25.8427 -15.7679 2.1722e-16)
(25.9874 -15.7657 0)
(26.1293 -15.762 0)
(26.2685 -15.757 -2.12982e-16)
(26.405 -15.7507 2.09172e-16)
(26.5385 -15.7428 0)
(26.6692 -15.7339 6.2937e-18)
(26.7977 -15.7261 0)
(26.9236 -15.718 1.57544e-16)
(23.6016 -16.4981 -7.5962e-17)
(23.7966 -16.5257 7.50427e-17)
(23.9891 -16.5507 -1.3514e-16)
(24.1791 -16.5732 1.33432e-16)
(24.3664 -16.5934 -1.40188e-16)
(24.5511 -16.6113 1.3414e-16)
(24.7331 -16.6269 0)
(24.9124 -16.6404 -1.30464e-16)
(25.089 -16.6519 1.36644e-16)
(25.2629 -16.6614 0)
(25.4339 -16.669 -1.56014e-17)
(25.6021 -16.6747 -2.4577e-16)
(25.7674 -16.6788 2.41885e-16)
(25.9298 -16.6811 0)
(26.0892 -16.6819 0)
(26.2457 -16.6812 0)
(26.3991 -16.6791 0)
(26.5494 -16.6756 6.92861e-18)
(26.6965 -16.6704 -2.17584e-16)
(26.8404 -16.664 2.06717e-16)
(26.982 -16.6593 -3.26713e-18)
(27.1208 -16.6547 -1.59052e-16)
(23.4579 -17.3986 7.59775e-17)
(23.6722 -17.4318 -8.44463e-17)
(23.8839 -17.4622 -8.33984e-17)
(24.0929 -17.4899 4.57897e-18)
(24.2991 -17.5151 7.22483e-17)
(24.5025 -17.5378 -1.42565e-16)
(24.703 -17.5582 1.45022e-16)
(24.9007 -17.5762 1.42984e-16)
(25.0954 -17.5919 -1.36667e-16)
(25.2871 -17.6056 0)
(25.4758 -17.6172 8.28871e-18)
(25.6614 -17.6268 -1.30532e-16)
(25.8439 -17.6346 -8.02219e-18)
(26.0232 -17.6406 1.26321e-16)
(26.1992 -17.6449 0)
(26.3719 -17.6477 3.81157e-18)
(26.5413 -17.649 -2.39566e-16)
(26.7073 -17.6488 2.2409e-16)
(26.8697 -17.6467 2.30577e-16)
(27.0285 -17.6435 -2.26008e-16)
(27.1849 -17.6426 3.45935e-18)
(27.3384 -17.6425 -2.66993e-18)
(23.534 -18.3806 1.26213e-21)
(23.7667 -18.417 4.9331e-18)
(23.9965 -18.4505 8.27857e-17)
(24.2235 -18.4812 -7.69049e-17)
(24.4475 -18.5093 7.58738e-17)
(24.6684 -18.5347 -7.9514e-17)
(24.8863 -18.5577 -4.61173e-18)
(25.1011 -18.5782 0)
(25.3126 -18.5964 0)
(25.5209 -18.6125 -4.40677e-18)
(25.7258 -18.6264 1.38803e-16)
(25.9273 -18.6384 -1.36544e-16)
(26.1254 -18.6484 -1.34237e-16)
(26.3199 -18.6567 7.13287e-21)
(26.5109 -18.6633 1.25494e-16)
(26.6982 -18.6685 0)
(26.8817 -18.672 3.89745e-18)
(27.0612 -18.6734 0)
(27.2368 -18.6736 -3.74042e-18)
(27.41 -18.6773 -3.66092e-18)
(27.5803 -18.6829 -1.80678e-16)
(23.6396 -19.4192 8.418e-17)
(23.8925 -19.459 -8.8305e-17)
(24.1423 -19.4958 -7.68878e-17)
(24.3891 -19.5296 -5.05088e-18)
(24.6326 -19.5606 7.97922e-17)
(24.8729 -19.5888 7.86484e-17)
(25.1099 -19.6145 -7.74973e-17)
(25.3434 -19.6376 7.63182e-17)
(25.5734 -19.6584 -7.04338e-17)
(25.7999 -19.677 -1.47826e-16)
(26.0226 -19.6933 2.90733e-16)
(26.2416 -19.7077 -1.42866e-16)
(26.4568 -19.7202 0)
(26.6681 -19.7309 0)
(26.8754 -19.7401 0)
(27.0786 -19.7477 0)
(27.2773 -19.7528 0)
(27.4717 -19.7567 3.96722e-18)
(27.6637 -19.7655 1.67101e-21)
(27.853 -19.7774 -9.55953e-17)
(23.5059 -20.4742 9.00045e-17)
(23.7843 -20.5207 4.44174e-17)
(24.0596 -20.5639 -8.76707e-17)
(24.3316 -20.6038 5.40539e-18)
(24.6004 -20.6407 -9.05837e-17)
(24.8657 -20.6746 7.87784e-17)
(25.1275 -20.7056 8.79413e-17)
(25.3856 -20.734 5.08662e-18)
(25.64 -20.7597 -5.72384e-21)
(25.8906 -20.783 -7.88823e-17)
(26.1372 -20.804 0)
(26.3797 -20.8228 -7.61629e-17)
(26.6181 -20.8396 7.01002e-17)
(26.8523 -20.8545 1.51272e-16)
(27.0821 -20.8679 -1.438e-16)
(27.3074 -20.8796 0)
(27.5278 -20.8885 -4.3062e-18)
(27.7434 -20.8962 0)
(27.9567 -20.9105 4.11509e-18)
(28.1675 -20.9296 0)
(23.6767 -21.6419 0)
(23.9803 -21.6918 -4.69744e-17)
(24.2807 -21.7382 4.63303e-17)
(24.5776 -21.7812 5.70974e-18)
(24.8709 -21.8208 2.36004e-21)
(25.1606 -21.8574 8.3091e-17)
(25.4464 -21.891 -9.27039e-17)
(25.7283 -21.9217 0)
(26.006 -21.9498 8.96552e-17)
(26.2796 -21.9753 -1.71003e-16)
(26.5488 -21.9985 8.14099e-17)
(26.8135 -22.0195 -7.48752e-17)
(27.0737 -22.0385 7.3413e-17)
(27.3292 -22.056 -7.67036e-17)
(27.5797 -22.0716 7.50784e-17)
(27.8249 -22.0841 2.47261e-21)
(28.0649 -22.0953 1.43419e-16)
(28.3027 -22.1154 -1.24206e-20)
(28.538 -22.1425 -4.92354e-21)
(23.9119 -22.8867 -5.04956e-17)
(24.2441 -22.9395 0)
(24.5727 -22.9885 0)
(24.8977 -23.0339 -4.22972e-17)
(25.2188 -23.0758 4.76021e-17)
(25.5359 -23.1143 9.36761e-17)
(25.8488 -23.1497 -1.84257e-16)
(26.1574 -23.1821 -1.13092e-17)
(26.4616 -23.2118 9.44881e-17)
(26.7612 -23.2389 0)
(27.056 -23.2636 0)
(27.3459 -23.2861 -8.909e-17)
(27.6307 -23.3071 1.64178e-16)
(27.9103 -23.3263 -7.1853e-21)
(28.1841 -23.342 -6.86371e-17)
(28.452 -23.3562 -7.65462e-17)
(28.7176 -23.3821 7.86126e-21)
(28.9813 -23.4167 5.74394e-17)
(23.8633 -24.1575 -6.80404e-18)
(24.2318 -24.2168 0)
(24.5967 -24.2717 6.61095e-18)
(24.9577 -24.3225 6.51141e-18)
(25.3148 -24.3693 -6.40969e-18)
(25.6678 -24.4124 5.67653e-17)
(26.0164 -24.4519 -5.25517e-21)
(26.3604 -24.488 -4.26527e-17)
(26.6998 -24.5211 1.01689e-16)
(27.0343 -24.5512 -9.39024e-17)
(27.3637 -24.5787 0)
(27.6879 -24.6036 1.12662e-17)
(28.0068 -24.6274 0)
(28.3208 -24.6518 0)
(28.6288 -24.6723 -1.05163e-17)