/*--------------------------------*- C++ -*----------------------------------*\
  =========                 |
  \\      /  F ield         | OpenFOAM: The Open Source CFD Toolbox
   \\    /   O peration     | Website:  https://openfoam.org
    \\  /    A nd           | Version:  10
     \\/     M anipulation  |
\*---------------------------------------------------------------------------*/
FoamFile
{
    format      ascii;
    class       volScalarField;
    location    "0.003";
    object      nuTilda;
}
// * * * * * * * * * * * * * * * * * * * * * * * * * * * * * * * * * * * * * //

dimensions      [0 2 -1 0 0 0 0];

internalField   nonuniform List<scalar> 
8910
(
1.81771e-05
1.81919e-05
1.82046e-05
1.82282e-05
1.82467e-05
1.83555e-05
2.92617e-05
2.95432e-05
2.99963e-05
3.04691e-05
3.09547e-05
3.14848e-05
3.20236e-05
3.26139e-05
3.32397e-05
3.38935e-05
3.46231e-05
3.53605e-05
3.61748e-05
3.69885e-05
3.78044e-05
3.86542e-05
3.9408e-05
4.01533e-05
4.08342e-05
4.15712e-05
4.24863e-05
4.33215e-05
4.43386e-05
4.30302e-05
4.10005e-05
3.84688e-05
3.55812e-05
3.14017e-05
2.43599e-05
2.27448e-05
8.59735e-05
8.5463e-05
8.49278e-05
8.44281e-05
8.3953e-05
8.36991e-05
8.59438e-05
8.57445e-05
8.57352e-05
8.58017e-05
8.59296e-05
8.6214e-05
8.65466e-05
8.70536e-05
8.75823e-05
8.81309e-05
8.88089e-05
8.95024e-05
9.03059e-05
9.07987e-05
9.1068e-05
9.11428e-05
9.06361e-05
8.96331e-05
8.831e-05
8.67555e-05
8.59791e-05
8.42784e-05
8.62244e-05
8.96315e-05
9.29918e-05
9.70973e-05
0.000102092
0.000107862
0.000116003
0.000113307
0.000193728
0.000192612
0.000191434
0.000190335
0.00018927
0.000188335
0.00018858
0.000188076
0.000187948
0.000187974
0.000188155
0.00018868
0.000189321
0.00019037
0.000191449
0.000192594
0.000193993
0.000195444
0.00019696
0.000197716
0.000198033
0.000197965
0.000196754
0.000194487
0.000191977
0.000188956
0.000189345
0.000184349
0.000188737
0.000196523
0.000204075
0.000212832
0.000222971
0.000232618
0.000245421
0.000242875
0.000252024
0.000250392
0.000248678
0.000247086
0.000245541
0.000244096
0.000243367
0.000242605
0.000242374
0.000242361
0.000242575
0.000243283
0.000244172
0.000245685
0.000247291
0.000249039
0.000251182
0.000253585
0.000256269
0.000257993
0.00025934
0.000260617
0.000260795
0.000259791
0.000260098
0.000264125
0.000275274
0.000287858
0.000303153
0.000320124
0.000336863
0.000354567
0.000371693
0.000388328
0.000407268
0.000406117
0.000298789
0.000296641
0.000294383
0.000292312
0.000290296
0.000288386
0.000287139
0.000286105
0.000285811
0.000285805
0.000286076
0.000287047
0.000288233
0.000290363
0.000292708
0.000295282
0.000298489
0.000302312
0.000307075
0.000310794
0.000314507
0.000319446
0.00032454
0.000329838
0.000343493
0.000362349
0.00038482
0.000410182
0.000437214
0.000466445
0.000494838
0.0005243
0.000550343
0.000575096
0.000600658
0.000601688
0.00033849
0.000335857
0.000333061
0.000330543
0.000328079
0.00032569
0.000324091
0.000322746
0.000322434
0.00032249
0.000322808
0.000324138
0.000325611
0.000328524
0.000331844
0.000335422
0.000339978
0.000345594
0.000353534
0.000360392
0.000367835
0.000379756
0.000396653
0.000417251
0.000443368
0.000474807
0.000509879
0.000549217
0.000590421
0.000635216
0.000678364
0.000721874
0.00075903
0.000793058
0.000825678
0.000829592
0.000372861
0.000369801
0.000366465
0.000363563
0.000360855
0.00035822
0.000356535
0.000355135
0.000355058
0.000355474
0.000356227
0.000358331
0.000360577
0.000364788
0.00036988
0.000375491
0.00038238
0.000391758
0.000406407
0.000422377
0.000441487
0.000464277
0.000491664
0.000523354
0.00056011
0.000602706
0.000649898
0.000704001
0.000762142
0.000826211
0.00088766
0.000947931
0.000998447
0.00104296
0.00108306
0.00109047
0.000409337
0.00040604
0.000402964
0.00039955
0.000396687
0.000394142
0.000391777
0.000390489
0.000389665
0.000390422
0.000391944
0.000394238
0.000398346
0.00040316
0.00041074
0.000421127
0.000434584
0.000450332
0.000468997
0.000491531
0.000516256
0.000545123
0.000577336
0.000614662
0.000656541
0.000703967
0.000757892
0.000817431
0.000885458
0.000958784
0.00104025
0.00112298
0.00120315
0.00126963
0.00132594
0.00137393
0.00138537
0.000446928
0.000444328
0.00044187
0.000439112
0.000436922
0.000435202
0.000434042
0.000434005
0.000435064
0.000437979
0.000442437
0.000449178
0.000459013
0.000471711
0.000487286
0.000505208
0.000526384
0.000549893
0.000576731
0.000607132
0.000640465
0.00067869
0.000720364
0.000767993
0.000820507
0.000879417
0.000945552
0.00101819
0.00110042
0.00118875
0.00128683
0.00138785
0.00148812
0.00157381
0.00164339
0.00169969
0.00171565
0.000495596
0.000494499
0.000493313
0.000491909
0.000491049
0.000490937
0.000492078
0.000494591
0.000499449
0.0005071
0.00051798
0.000532703
0.000549998
0.000569955
0.000592381
0.000617084
0.000645537
0.000676509
0.00071141
0.000750177
0.0007926
0.000840757
0.000892755
0.000951682
0.00101602
0.00108777
0.00116755
0.00125459
0.00135203
0.00145602
0.00157078
0.00168874
0.00180674
0.00191233
0.00199693
0.00206196
0.00208287
0.000558016
0.000558882
0.000559499
0.000559862
0.000561002
0.00056351
0.00056825
0.000575282
0.000586387
0.000601386
0.000619455
0.000641065
0.000664789
0.000691254
0.000720212
0.000751687
0.000787567
0.0008264
0.000869879
0.000917908
0.000970333
0.00102956
0.00109328
0.00116493
0.00124276
0.00132912
0.00142445
0.00152771
0.00164196
0.00176288
0.00189511
0.00202938
0.00216383
0.00228633
0.00238839
0.00246254
0.00248878
0.00063197
0.000635253
0.000638443
0.000641135
0.000645373
0.000652158
0.000662481
0.000676422
0.000694756
0.000716478
0.000740658
0.000768386
0.000798313
0.000831279
0.000867038
0.000905743
0.000949587
0.000997052
0.0010499
0.00110832
0.00117193
0.00124368
0.00132089
0.00140698
0.00150028
0.00160338
0.00171657
0.00183829
0.00197139
0.002111
0.00226225
0.00241233
0.00256267
0.00270074
0.00281974
0.00290335
0.00293523
0.000714255
0.000720781
0.00072793
0.000733953
0.000743128
0.000756764
0.00077462
0.000795626
0.000820022
0.000847674
0.00087762
0.000911368
0.000947775
0.000987678
0.00103146
0.0010786
0.00113166
0.00118894
0.00125241
0.0013223
0.00139819
0.00148338
0.00157487
0.00167729
0.00178831
0.00191049
0.0020442
0.00218708
0.00234145
0.00250184
0.00267315
0.00283976
0.0030058
0.00315854
0.00329299
0.00338645
0.00342425
0.000795291
0.00080271
0.000813799
0.000827485
0.00084254
0.000860846
0.000882294
0.000907213
0.000934913
0.000965706
0.000999834
0.00103649
0.00107747
0.00112156
0.00116972
0.00122247
0.00127913
0.00134254
0.0014108
0.0014861
0.00156863
0.00165802
0.00175786
0.00186494
0.00198461
0.0021139
0.00225549
0.0024098
0.00257476
0.00275329
0.00293699
0.00312954
0.00331378
0.00349552
0.00366215
0.00381014
0.00391401
0.00395793
0.000900719
0.000916282
0.000934829
0.000955701
0.000978605
0.00100457
0.0010331
0.00106487
0.00109935
0.00113699
0.00117823
0.00122242
0.00127154
0.00132426
0.00138166
0.00144431
0.00151151
0.0015864
0.0016668
0.00175518
0.0018517
0.00195599
0.00207199
0.00219615
0.00233443
0.00248322
0.00264519
0.00282086
0.003008
0.00320993
0.00341821
0.0036335
0.00383652
0.00403407
0.0042139
0.00437305
0.00448833
0.0045385
0.00103699
0.00105951
0.00108474
0.00111235
0.0011423
0.00117529
0.00121067
0.00124931
0.00129081
0.00133576
0.00138472
0.00143707
0.00149507
0.00155723
0.00162476
0.00169833
0.00177712
0.00186465
0.00195848
0.00206135
0.00217342
0.00229425
0.00242819
0.00257125
0.00272993
0.00290002
0.0030839
0.00328223
0.00349225
0.00371765
0.00395005
0.00418686
0.00441017
0.00462379
0.00481644
0.00498626
0.00511185
0.00516824
0.00120192
0.00123059
0.00126199
0.00129598
0.00133259
0.00137241
0.00141472
0.00146038
0.0015092
0.00156188
0.00161916
0.00168028
0.00174784
0.00182024
0.00189884
0.00198444
0.00207596
0.00217744
0.00228611
0.00240505
0.00253445
0.00267372
0.00282769
0.00299177
0.00317303
0.00336681
0.0035745
0.00379738
0.00403146
0.00428083
0.00453613
0.00479299
0.00503697
0.00526708
0.00547227
0.00565215
0.005787
0.00584952
0.00136081
0.00139296
0.00142732
0.00146458
0.00150478
0.00154794
0.00159474
0.00164433
0.0016982
0.00175575
0.00181764
0.00188465
0.00195605
0.00203482
0.00211903
0.00221029
0.00230944
0.0024153
0.00253237
0.00265747
0.00279409
0.00294228
0.00310141
0.00327666
0.00346283
0.00366749
0.00388529
0.0041191
0.00436907
0.00462873
0.00490318
0.00518023
0.00545636
0.00571894
0.00596639
0.00618384
0.00637313
0.00651629
0.00658477
0.00157131
0.00161008
0.00165122
0.00169551
0.0017431
0.00179403
0.00184905
0.00190725
0.00197053
0.00203791
0.00211016
0.00218799
0.00227087
0.00236213
0.00245947
0.00256478
0.00267894
0.00280063
0.00293488
0.00307802
0.003234
0.00340266
0.00358335
0.00378151
0.00399129
0.00422062
0.00446368
0.00472355
0.0049994
0.00528672
0.00558838
0.00588583
0.00618057
0.00646028
0.00672427
0.00695363
0.0071517
0.00730227
0.00737645
0.00181364
0.00185979
0.00190847
0.00196048
0.00201623
0.00207573
0.00213983
0.00220751
0.00228101
0.0023591
0.00244268
0.00253219
0.00262763
0.00273246
0.00284418
0.0029649
0.00309553
0.00323464
0.00338769
0.00355066
0.00372785
0.00391894
0.00412322
0.00434632
0.00458172
0.00483737
0.00510725
0.00539385
0.00569618
0.00601002
0.00633724
0.00665584
0.00696876
0.00726438
0.00754312
0.00778415
0.00799037
0.00814751
0.00822708
0.00204078
0.00209093
0.00214493
0.00220166
0.00226165
0.00232608
0.00239473
0.00246851
0.0025463
0.00263065
0.00272029
0.00281633
0.00291974
0.00302963
0.00314995
0.00327791
0.00341593
0.00356486
0.00372327
0.00389696
0.00408153
0.00428162
0.00449662
0.00472586
0.00497506
0.00523715
0.00552113
0.00581999
0.00613442
0.00646404
0.006804
0.00715361
0.00749295
0.00782376
0.00813415
0.0084251
0.00867805
0.00889171
0.00905462
0.0091392
0.00234617
0.00240393
0.00246599
0.0025314
0.00260144
0.00267617
0.00275564
0.00284077
0.00293029
0.00302715
0.00312998
0.0032402
0.00335885
0.00348471
0.0036221
0.00376796
0.003925
0.00409398
0.0042735
0.00446966
0.00467766
0.00490245
0.00514312
0.00539895
0.00567577
0.00596562
0.00627806
0.00660483
0.00694861
0.00730696
0.00767373
0.00804194
0.00839929
0.00874838
0.00907262
0.00937473
0.00963808
0.00985834
0.0100262
0.0101154
0.00262877
0.0026925
0.00275922
0.00283075
0.00290628
0.00298731
0.00307346
0.00316494
0.00326265
0.00336499
0.00347556
0.00359282
0.00371849
0.00385364
0.00399682
0.00415276
0.00431814
0.00449589
0.00468675
0.00488923
0.00510982
0.00534328
0.00559481
0.00586321
0.00614757
0.00645402
0.00677284
0.00711456
0.00747008
0.00784227
0.00822763
0.00861902
0.00900583
0.00938025
0.00974534
0.0100826
0.0103947
0.0106669
0.0108928
0.0110649
0.0111583
0.00301193
0.00308535
0.00316173
0.00324351
0.00332991
0.00342257
0.00352096
0.00362535
0.00373685
0.00385414
0.00398048
0.00411414
0.00425728
0.00441091
0.00457345
0.00475
0.00493694
0.00513742
0.00535215
0.00557954
0.00582643
0.00608707
0.00636689
0.0066643
0.00697786
0.00731355
0.00766291
0.00803522
0.00842047
0.00882082
0.00923268
0.00964298
0.0100485
0.0104386
0.0108167
0.0111667
0.0114876
0.0117671
0.0119979
0.0121734
0.0122704
0.00344311
0.00352708
0.00361506
0.00370885
0.00380787
0.00391392
0.00402634
0.00414551
0.0042727
0.00440652
0.00455024
0.00470169
0.00486394
0.00503774
0.00522139
0.00542038
0.00563074
0.00585589
0.00609642
0.00635069
0.00662579
0.00691549
0.0072254
0.00755349
0.00789734
0.00826351
0.00864353
0.00904571
0.00945959
0.00988805
0.0103228
0.0107504
0.0111729
0.0115774
0.011967
0.0123278
0.0126559
0.0129414
0.0131759
0.0133542
0.0134544
0.00383954
0.0039305
0.0040267
0.00412751
0.0042343
0.00434706
0.00446766
0.00459535
0.00473059
0.00487482
0.00502654
0.00518921
0.00536126
0.00554497
0.00574118
0.00594818
0.00617184
0.00640777
0.00665967
0.00692793
0.00721089
0.00751582
0.0078359
0.00817685
0.0085355
0.00891098
0.0093089
0.00972028
0.010152
0.0105936
0.0110479
0.0115009
0.0119446
0.0123808
0.0127992
0.0131988
0.0135682
0.0139021
0.0141921
0.0144296
0.0146099
0.0147128
0.00427766
0.0043756
0.00447905
0.00458845
0.00470319
0.00482497
0.00495353
0.0050908
0.00523586
0.00538928
0.00555267
0.00572441
0.00590792
0.00610226
0.00630925
0.00652976
0.00676208
0.00701235
0.00727582
0.0075564
0.00785427
0.00816772
0.00850411
0.00885614
0.00922952
0.00961972
0.0100269
0.010456
0.0108971
0.0113586
0.0118266
0.0123013
0.0127695
0.0132287
0.0136771
0.0141067
0.0145142
0.0148901
0.0152286
0.0155218
0.0157613
0.0159429
0.016048
0.00486745
0.00497918
0.00509701
0.00522152
0.00535204
0.00548987
0.00563568
0.00579107
0.005955
0.00612805
0.00631228
0.00650608
0.00671357
0.00693257
0.00716519
0.00741229
0.00767218
0.00795123
0.00824426
0.00855537
0.00888445
0.00922978
0.00959868
0.00998332
0.0103887
0.0108112
0.0112506
0.0117107
0.0121807
0.0126687
0.013162
0.0136511
0.0141329
0.0146054
0.0150637
0.0155016
0.0159153
0.0162956
0.0166375
0.0169329
0.0171735
0.0173556
0.0174624
0.00541024
0.00553072
0.00565735
0.0057906
0.00593146
0.00607937
0.00623645
0.00640185
0.00657765
0.0067627
0.00695738
0.00716474
0.0073828
0.00761596
0.00786147
0.00812165
0.00839732
0.00868672
0.00899646
0.00932088
0.00966423
0.0100261
0.0104047
0.0108072
0.0112257
0.0116635
0.0121179
0.0125882
0.0130772
0.0135755
0.0140883
0.0145962
0.0150997
0.0155936
0.0160764
0.0165424
0.0169854
0.0174042
0.0177863
0.0181313
0.0184276
0.0186684
0.0188504
0.0189583
0.00613912
0.00627601
0.00641956
0.00656999
0.0067292
0.00689643
0.00707385
0.00726031
0.00745823
0.00766643
0.00788608
0.00811922
0.00836402
0.00862512
0.0088994
0.00918938
0.00949575
0.00981669
0.010159
0.0105164
0.0108934
0.011289
0.0117013
0.0121374
0.0125882
0.0130586
0.0135445
0.0140451
0.0145614
0.015084
0.015615
0.0161347
0.0166491
0.0171534
0.0176429
0.0181158
0.0185627
0.0189839
0.019367
0.0197124
0.0200082
0.0202482
0.0204294
0.0205378
0.0068102
0.00695651
0.00711111
0.00727321
0.00744384
0.00762396
0.00781288
0.0080125
0.00822231
0.00844463
0.00867811
0.00892441
0.00918516
0.00945847
0.00974929
0.0100542
0.0103758
0.0107147
0.011069
0.0114454
0.0118373
0.0122491
0.0126796
0.0131263
0.0135961
0.0140802
0.0145818
0.0150972
0.015625
0.0161671
0.0167082
0.017249
0.01778
0.0183033
0.0188151
0.0193095
0.0197862
0.0202347
0.0206563
0.0210386
0.0213826
0.0216766
0.0219148
0.0220945
0.022203
0.00754945
0.00770816
0.00787306
0.00804743
0.00822997
0.00842217
0.00862483
0.00883745
0.0090626
0.00929857
0.00954792
0.00980879
0.010084
0.0103746
0.0106784
0.0110009
0.0113385
0.0116937
0.0120667
0.0124558
0.0128678
0.0132951
0.0137423
0.0142081
0.0146884
0.0151905
0.015705
0.0162367
0.0167803
0.0173324
0.0178927
0.0184446
0.0189943
0.0195336
0.0200632
0.0205794
0.0210767
0.0215544
0.0220026
0.0224225
0.0228024
0.0231435
0.0234344
0.02367
0.0238476
0.0239555
0.00836319
0.00853302
0.00871216
0.00889917
0.00909597
0.00930093
0.00951675
0.00974404
0.00998246
0.0102348
0.0104988
0.0107776
0.0110697
0.0113766
0.0116992
0.0120353
0.0123918
0.0127638
0.0131541
0.0135627
0.0139877
0.0144362
0.0148986
0.0153803
0.0158788
0.0163919
0.0169255
0.01747
0.0180286
0.0185961
0.0191675
0.0197354
0.0202943
0.0208515
0.0213952
0.0219293
0.0224462
0.0229448
0.0234211
0.023867
0.0242836
0.0246596
0.0249963
0.0252831
0.0255153
0.02569
0.0257969
0.00925919
0.00944199
0.00963305
0.00983464
0.0100453
0.0102667
0.0104978
0.0107395
0.0109937
0.0112601
0.0115417
0.0118361
0.0121466
0.0124714
0.0128116
0.0131687
0.0135406
0.0139329
0.0143409
0.0147674
0.015212
0.0156727
0.0161559
0.016653
0.0171687
0.0176997
0.0182445
0.0188065
0.0193766
0.0199589
0.0205432
0.0211212
0.021696
0.0222606
0.022822
0.0233681
0.0239031
0.0244185
0.0249147
0.0253861
0.0258288
0.0262404
0.026611
0.0269421
0.0272238
0.0274517
0.027623
0.0277283
0.0104421
0.0106473
0.0108618
0.011088
0.0113244
0.0115728
0.0118321
0.0121033
0.0123865
0.0126831
0.0129962
0.0133232
0.0136674
0.0140266
0.0144021
0.0147952
0.0152036
0.0156327
0.0160773
0.0165405
0.0170214
0.0175178
0.0180359
0.0185669
0.0191154
0.019676
0.020248
0.0208356
0.0214286
0.0220244
0.0226141
0.0231966
0.0237748
0.0243431
0.0249048
0.0254513
0.025984
0.0264958
0.0269871
0.0274524
0.027889
0.0282935
0.0286573
0.0289816
0.0292572
0.0294801
0.0296473
0.0297506
0.0115395
0.0117609
0.0119922
0.0122319
0.0124853
0.0127499
0.0130277
0.0133173
0.0136199
0.0139357
0.0142643
0.014611
0.0149728
0.0153525
0.0157479
0.0161601
0.0165902
0.0170359
0.0175022
0.0179838
0.0184837
0.0190004
0.0195315
0.0200834
0.0206451
0.0212218
0.0218095
0.0224066
0.0230142
0.0236152
0.0242153
0.0248074
0.0253937
0.0259735
0.026542
0.0271013
0.027644
0.0281706
0.0286771
0.0291615
0.0296188
0.0300471
0.030443
0.0307986
0.0311149
0.0313838
0.031601
0.0317634
0.0318641
0.0127425
0.0129812
0.0132295
0.0134885
0.0137567
0.0140399
0.0143353
0.0146448
0.014967
0.0153029
0.0156529
0.0160163
0.0163991
0.0167974
0.0172142
0.017647
0.0180968
0.0185644
0.0190476
0.019551
0.020069
0.0206046
0.0211559
0.0217186
0.0222993
0.022889
0.0234914
0.0241027
0.0247138
0.0253265
0.02593
0.0265313
0.0271252
0.027711
0.0282899
0.0288551
0.0294092
0.0299453
0.030464
0.030962
0.031437
0.0318842
0.0323024
0.0326881
0.0330343
0.0333419
0.0336032
0.033815
0.0339711
0.0340686
0.0138174
0.0140614
0.0143172
0.0145843
0.0148619
0.015151
0.0154504
0.0157659
0.0160944
0.0164378
0.0167945
0.0171658
0.0175517
0.0179522
0.0183727
0.0188088
0.0192637
0.0197344
0.020222
0.020727
0.021247
0.0217865
0.0223391
0.0229078
0.0234883
0.0240795
0.0246871
0.0253016
0.0259218
0.0265395
0.0271537
0.0277672
0.0283725
0.0289736
0.0295656
0.030148
0.0307214
0.0312789
0.0318258
0.0323528
0.0328612
0.0333483
0.0338117
0.0342472
0.0346536
0.0350278
0.0353634
0.035661
0.0359136
0.0361181
0.0362686
0.0363627
0.0152432
0.0155051
0.0157792
0.0160652
0.0163631
0.0166722
0.0169938
0.017327
0.0176772
0.0180409
0.0184201
0.0188131
0.0192211
0.0196439
0.0200839
0.0205431
0.0210177
0.0215107
0.0220191
0.0225438
0.023085
0.0236402
0.0242138
0.0247969
0.0253935
0.0260006
0.0266164
0.0272444
0.0278678
0.0284908
0.0291101
0.0297241
0.0303373
0.0309399
0.0315379
0.0321239
0.0327002
0.0332652
0.0338127
0.0343485
0.0348635
0.0353593
0.0358334
0.0362835
0.0367056
0.037099
0.0374605
0.0377843
0.038071
0.038314
0.0385105
0.038655
0.0387453
0.0168017
0.0170838
0.0173765
0.0176825
0.0180009
0.0183316
0.0186741
0.0190299
0.0194003
0.0197873
0.0201878
0.0206042
0.0210347
0.021481
0.0219428
0.0224221
0.0229199
0.0234325
0.0239628
0.0245075
0.0250676
0.0256424
0.0262295
0.0268311
0.0274409
0.0280626
0.0286907
0.0293167
0.0299465
0.0305716
0.0311948
0.031813
0.0324244
0.0330333
0.0336301
0.0342206
0.0347975
0.0353636
0.0359164
0.0364512
0.0369728
0.0374727
0.0379549
0.0384143
0.0388496
0.039257
0.0396361
0.039984
0.0402953
0.0405701
0.0408028
0.0409907
0.041129
0.0412143
0.0185021
0.0188049
0.0191184
0.0194453
0.0197854
0.020138
0.0205034
0.0208811
0.0212751
0.0216836
0.0221083
0.0225465
0.0230005
0.0234686
0.0239543
0.0244566
0.0249745
0.0255099
0.0260588
0.0266245
0.0272033
0.027796
0.0283994
0.0290118
0.0296373
0.0302658
0.0308972
0.0315267
0.032154
0.0327843
0.0334075
0.0340284
0.0346413
0.0352473
0.0358474
0.0364354
0.0370142
0.0375795
0.0381319
0.0386692
0.0391896
0.0396954
0.0401791
0.0406448
0.0410877
0.0415065
0.041898
0.0422618
0.0425954
0.0428942
0.0431556
0.0433771
0.043556
0.0436878
0.043767
0.0203548
0.0206789
0.0210142
0.0213632
0.0217256
0.022101
0.0224895
0.0228912
0.0233081
0.0237409
0.0241875
0.0246503
0.0251265
0.0256185
0.0261266
0.0266513
0.0271914
0.0277458
0.0283162
0.0288988
0.0294965
0.0301052
0.0307229
0.0313481
0.0319753
0.0326078
0.0332396
0.0338712
0.0345004
0.0351272
0.0357535
0.0363723
0.0369858
0.037591
0.0381872
0.0387754
0.0393504
0.0399147
0.0404645
0.0410004
0.0415204
0.0420233
0.0425111
0.0429767
0.0434241
0.0438487
0.0442498
0.0446242
0.0449715
0.0452896
0.0455741
0.0458227
0.046033
0.0462026
0.0463275
0.0464003
0.0220337
0.0223687
0.0227153
0.0230731
0.0234451
0.0238306
0.024229
0.0246403
0.0250669
0.0255084
0.0259643
0.0264353
0.0269199
0.0274199
0.0279349
0.0284665
0.0290126
0.0295737
0.0301487
0.0307362
0.0313382
0.0319498
0.0325725
0.0331977
0.0338253
0.034456
0.0350876
0.0357212
0.036352
0.0369826
0.0376084
0.0382298
0.0388483
0.0394576
0.0400599
0.0406522
0.0412335
0.0418072
0.042366
0.0429127
0.0434442
0.0439611
0.0444617
0.0449451
0.0454132
0.0458599
0.0462866
0.0466916
0.047074
0.0474312
0.0477604
0.048062
0.048332
0.0485682
0.0487661
0.0489257
0.0490434
0.0491097
0.0241954
0.0245528
0.0249224
0.0253036
0.025699
0.0261083
0.0265308
0.0269661
0.0274168
0.0278822
0.028362
0.0288557
0.0293637
0.0298865
0.0304256
0.0309779
0.0315452
0.0321253
0.0327193
0.0333247
0.0339378
0.0345598
0.0351848
0.0358135
0.0364427
0.0370741
0.0377071
0.0383372
0.0389686
0.0395958
0.0402196
0.0408376
0.0414482
0.0420553
0.0426505
0.0432385
0.0438144
0.0443782
0.0449332
0.0454724
0.0459989
0.0465096
0.0470054
0.0474845
0.0479465
0.0483931
0.0488184
0.0492241
0.0496087
0.0499714
0.0503097
0.0506211
0.050906
0.0511608
0.0513836
0.0515706
0.0517195
0.0518296
0.0518894
0.026168
0.0265353
0.026915
0.0273068
0.0277126
0.028132
0.0285649
0.0290108
0.0294715
0.0299465
0.0304354
0.030938
0.0314542
0.0319855
0.0325321
0.0330915
0.0336658
0.0342498
0.034846
0.03545
0.0360641
0.0366857
0.0373105
0.0379404
0.0385691
0.0392003
0.0398309
0.0404624
0.0410914
0.0417166
0.0423415
0.0429589
0.0435719
0.0441762
0.0447729
0.0453637
0.045941
0.0465098
0.0470649
0.0476086
0.0481419
0.0486584
0.0491631
0.0496512
0.050124
0.0505802
0.0510192
0.0514428
0.0518458
0.0522297
0.0525931
0.0529354
0.0532545
0.0535484
0.0538152
0.0540538
0.0542623
0.0544371
0.0545763
0.0546791
0.0547324
0.0286692
0.0290606
0.0294638
0.0298784
0.0303075
0.0307501
0.0312058
0.0316766
0.0321616
0.03266
0.0331716
0.0336958
0.0342344
0.0347874
0.0353528
0.0359304
0.036516
0.0371118
0.0377141
0.0383275
0.0389484
0.0395759
0.040205
0.0408352
0.0414659
0.0420945
0.0427243
0.0433519
0.0439767
0.0445981
0.0452132
0.0458254
0.0464281
0.0470247
0.0476111
0.0481886
0.048758
0.0493149
0.0498616
0.0503939
0.0509144
0.0514238
0.0519167
0.052396
0.0528593
0.0533077
0.0537401
0.0541543
0.0545538
0.0549339
0.0552959
0.0556367
0.0559577
0.0562566
0.0565319
0.0567819
0.0570037
0.0571975
0.0573599
0.0574893
0.0575847
0.0576318
0.0309469
0.0313509
0.0317662
0.0321928
0.032633
0.0330861
0.0335524
0.0340313
0.0345253
0.0350325
0.0355517
0.0360816
0.0366243
0.0371789
0.0377443
0.038323
0.0389128
0.0395125
0.0401158
0.0407289
0.0413486
0.0419762
0.0426069
0.0432379
0.0438685
0.0444962
0.0451234
0.0457478
0.0463698
0.0469866
0.0475997
0.0482062
0.0488058
0.0493995
0.0499837
0.0505592
0.0511249
0.0516799
0.0522256
0.0527581
0.0532797
0.0537865
0.0542811
0.0547641
0.0552309
0.0556838
0.056121
0.0565437
0.0569507
0.0573401
0.0577151
0.0580715
0.0584107
0.0587299
0.0590287
0.059307
0.0595632
0.0597958
0.0600022
0.060181
0.0603308
0.0604502
0.0605382
0.0605791
0.0333683
0.0337839
0.0342116
0.0346507
0.0350995
0.0355614
0.0360354
0.0365208
0.0370196
0.0375336
0.0380613
0.0385999
0.039149
0.0397077
0.0402754
0.040855
0.0414455
0.0420457
0.0426526
0.043266
0.0438848
0.0445111
0.0451406
0.0457734
0.0464029
0.0470308
0.0476545
0.0482746
0.048893
0.0495052
0.0501142
0.0507155
0.0513109
0.0518981
0.0524769
0.0530484
0.0536094
0.0541607
0.0547012
0.0552303
0.0557493
0.0562549
0.056749
0.0572282
0.0576951
0.0581502
0.0585893
0.0590149
0.0594252
0.0598215
0.0602026
0.0605672
0.0609165
0.0612484
0.061564
0.0618609
0.0621388
0.0623959
0.0626327
0.0628475
0.063038
0.0632032
0.0633401
0.0634494
0.0635301
0.063565
0.0363615
0.0367963
0.0372458
0.0377081
0.0381797
0.0386614
0.0391535
0.0396575
0.0401761
0.0407078
0.0412504
0.0418037
0.0423675
0.0429413
0.0435234
0.0441149
0.0447152
0.0453226
0.0459351
0.046553
0.0471765
0.0478034
0.0484341
0.0490642
0.0496915
0.0503123
0.0509289
0.0515413
0.0521472
0.0527488
0.0533438
0.0539327
0.0545134
0.0550857
0.0556498
0.0562035
0.0567502
0.057285
0.0578091
0.0583217
0.0588225
0.0593128
0.0597895
0.0602547
0.0607056
0.0611428
0.0615687
0.0619795
0.0623775
0.0627597
0.0631285
0.063483
0.0638219
0.0641464
0.0644532
0.0647449
0.065019
0.0652756
0.0655133
0.0657309
0.0659269
0.0661009
0.0662516
0.0663765
0.0664762
0.0665497
0.0665789
0.0390892
0.0395316
0.0399876
0.0404574
0.0409397
0.0414294
0.0419273
0.0424371
0.0429602
0.0434956
0.0440422
0.0445984
0.0451645
0.0457404
0.0463236
0.0469153
0.0475147
0.048121
0.0487313
0.0493463
0.049966
0.0505889
0.0512145
0.0518398
0.0524647
0.0530849
0.0536982
0.0543043
0.0549056
0.0554995
0.0560868
0.0566674
0.0572399
0.0578045
0.0583599
0.0589057
0.0594424
0.0599682
0.060486
0.0609914
0.0614858
0.0619684
0.0624392
0.0628996
0.0633453
0.0637799
0.0642008
0.0646087
0.0650045
0.0653862
0.0657559
0.066111
0.0664524
0.0667793
0.0670919
0.0673912
0.0676742
0.0679421
0.0681926
0.0684273
0.0686446
0.0688434
0.0690228
0.069181
0.0693167
0.0694295
0.0695196
0.0695862
0.0696099
0.0419664
0.0424151
0.0428748
0.0433495
0.0438373
0.0443358
0.0448401
0.0453542
0.0458804
0.0464185
0.0469676
0.0475249
0.0480917
0.0486677
0.0492499
0.0498397
0.0504364
0.0510392
0.0516463
0.0522569
0.052871
0.0534883
0.0541076
0.0547271
0.0553456
0.0559605
0.0565716
0.0571729
0.0577676
0.0583535
0.0589326
0.0595027
0.0600648
0.0606205
0.0611664
0.0617031
0.0622297
0.0627461
0.063253
0.0637489
0.0642348
0.0647088
0.0651721
0.0656224
0.0660614
0.0664902
0.0669051
0.0673079
0.067698
0.0680759
0.0684423
0.0687943
0.0691352
0.0694622
0.0697766
0.0700776
0.0703643
0.0706375
0.070896
0.0711405
0.0713695
0.0715828
0.071779
0.0719587
0.0721206
0.0722631
0.0723852
0.0724867
0.0725677
0.0726274
0.0726459
0.0449801
0.0454347
0.0459008
0.0463796
0.0468707
0.0473728
0.0478835
0.0484015
0.0489297
0.0494684
0.0500173
0.0505744
0.0511397
0.0517129
0.0522932
0.0528794
0.0534716
0.0540694
0.0546713
0.0552761
0.0558817
0.0564906
0.0571013
0.0577124
0.0583225
0.0589296
0.0595328
0.0601299
0.0607186
0.0612959
0.0618652
0.0624261
0.0629781
0.0635218
0.0640558
0.064582
0.0650975
0.0656031
0.0660982
0.0665829
0.0670576
0.067521
0.0679743
0.0684159
0.0688467
0.0692651
0.0696712
0.0700677
0.0704511
0.0708232
0.0711821
0.0715298
0.0718668
0.0721904
0.0725026
0.0728009
0.0730878
0.0733624
0.0736237
0.0738727
0.0741073
0.0743281
0.074535
0.0747278
0.0749053
0.0750668
0.0752116
0.075338
0.0754467
0.0755372
0.0756097
0.0756615
0.0756754
0.0481213
0.0485834
0.0490568
0.0495397
0.0500336
0.0505379
0.0510509
0.0515703
0.0520987
0.0526366
0.0531839
0.0537388
0.0542999
0.0548685
0.0554439
0.0560245
0.0566089
0.0571984
0.0577918
0.0583875
0.0589837
0.0595823
0.060182
0.0607821
0.061381
0.0619773
0.0625698
0.0631567
0.0637373
0.0643098
0.0648722
0.0654222
0.0659633
0.066495
0.0670172
0.0675303
0.0680333
0.0685262
0.0690087
0.0694814
0.0699437
0.0703957
0.0708365
0.0712667
0.0716873
0.0720956
0.0724925
0.0728782
0.0732526
0.0736169
0.0739681
0.0743093
0.0746385
0.0749565
0.0752639
0.0755581
0.0758421
0.0761139
0.0763742
0.0766224
0.0768577
0.0770821
0.0772936
0.0774928
0.0776785
0.0778504
0.0780077
0.0781509
0.0782792
0.0783911
0.0784875
0.0785678
0.0786323
0.0786762
0.078687
0.0513922
0.0518584
0.0523346
0.0528193
0.0533141
0.0538185
0.0543312
0.0548492
0.0553752
0.0559099
0.0564531
0.0570035
0.0575601
0.0581204
0.0586876
0.0592599
0.0598361
0.0604141
0.060996
0.0615804
0.0621657
0.0627502
0.0633361
0.0639223
0.0645073
0.0650899
0.0656687
0.0662425
0.0668103
0.0673709
0.0679237
0.0684672
0.0689998
0.0695198
0.0700305
0.0705297
0.0710196
0.0714986
0.0719678
0.0724269
0.0728758
0.0733152
0.0737429
0.0741611
0.0745686
0.0749649
0.075351
0.0757259
0.0760906
0.0764438
0.0767855
0.0771182
0.0774393
0.0777499
0.0780486
0.0783372
0.0786162
0.0788835
0.0791404
0.0793853
0.0796188
0.0798419
0.0800536
0.0802547
0.0804435
0.0806204
0.0807844
0.0809365
0.081076
0.0812019
0.0813137
0.0814116
0.081496
0.0815666
0.0816231
0.0816597
0.0816692
0.0547786
0.0552461
0.055722
0.0562065
0.0566991
0.0572004
0.0577096
0.0582254
0.0587456
0.0592739
0.0598099
0.0603525
0.0609005
0.0614518
0.0620088
0.0625698
0.0631339
0.0636993
0.0642677
0.0648378
0.0654082
0.0659776
0.0665476
0.0671174
0.0676858
0.0682518
0.0688141
0.0693718
0.0699237
0.070469
0.0710068
0.0715363
0.0720572
0.0725683
0.0730682
0.0735556
0.0740332
0.0744993
0.0749559
0.0754019
0.0758366
0.0762622
0.0766768
0.077081
0.0774749
0.0778587
0.0782315
0.0785943
0.078948
0.0792902
0.0796221
0.0799439
0.0802555
0.080558
0.0808489
0.0811296
0.0814001
0.0816608
0.081912
0.0821519
0.0823814
0.0826006
0.0828098
0.083009
0.0831972
0.083375
0.083541
0.083697
0.0838418
0.0839753
0.0840967
0.0842055
0.0843023
0.0843872
0.0844606
0.084522
0.0845713
0.0846011
0.0846095
0.0582684
0.0587341
0.0592083
0.0596899
0.060177
0.0606722
0.0611729
0.061681
0.0621939
0.0627138
0.06324
0.0637723
0.0643088
0.0648484
0.0653925
0.06594
0.0664902
0.0670414
0.0675926
0.0681456
0.0686991
0.0692517
0.069802
0.0703523
0.0709013
0.071448
0.071991
0.0725296
0.0730626
0.0735895
0.0741093
0.0746215
0.0751254
0.0756205
0.0761065
0.0765825
0.0770494
0.077504
0.0779476
0.0783806
0.0788031
0.0792143
0.0796156
0.0800069
0.0803868
0.0807578
0.0811181
0.0814681
0.0818087
0.0821394
0.0824608
0.0827712
0.0830727
0.0833644
0.0836463
0.0839191
0.0841809
0.0844341
0.0846775
0.0849113
0.085136
0.08535
0.0855543
0.0857489
0.0859343
0.08611
0.0862754
0.086431
0.0865767
0.0867127
0.0868384
0.0869534
0.0870572
0.0871504
0.0872337
0.0873069
0.0873702
0.0874233
0.087466
0.0874896
0.0874969
0.0618425
0.0623018
0.0627696
0.0632444
0.0637244
0.0642111
0.0647027
0.0652007
0.0657033
0.0662119
0.0667262
0.0672456
0.0677689
0.0682949
0.0688221
0.0693529
0.0698857
0.0704191
0.0709519
0.0714857
0.0720194
0.0725517
0.0730815
0.0736106
0.074138
0.0746629
0.0751843
0.0757013
0.0762129
0.0767186
0.0772177
0.0777096
0.0781938
0.0786698
0.0791372
0.0795957
0.0800451
0.0804847
0.0809153
0.0813356
0.0817468
0.0821462
0.0825347
0.0829133
0.0832818
0.0836402
0.0839874
0.0843259
0.0846542
0.0849726
0.0852819
0.0855818
0.0858728
0.0861534
0.0864256
0.0866886
0.0869422
0.0871873
0.087422
0.0876486
0.087866
0.0880743
0.0882741
0.0884638
0.0886445
0.0888161
0.088979
0.089133
0.0892775
0.0894129
0.0895383
0.0896549
0.0897619
0.0898593
0.0899475
0.0900269
0.0900981
0.0901608
0.0902152
0.0902608
0.0902975
0.0903156
0.0903218
0.0654784
0.06593
0.0663894
0.0668552
0.0673266