/*--------------------------------*- C++ -*----------------------------------*\
  =========                 |
  \\      /  F ield         | OpenFOAM: The Open Source CFD Toolbox
   \\    /   O peration     | Website:  https://openfoam.org
    \\  /    A nd           | Version:  10
     \\/     M anipulation  |
\*---------------------------------------------------------------------------*/
FoamFile
{
    format      ascii;
    class       volScalarField;
    location    "0.003";
    object      p;
}
// * * * * * * * * * * * * * * * * * * * * * * * * * * * * * * * * * * * * * //

dimensions      [1 -1 -2 0 0 0 0];

internalField   nonuniform List<scalar> 
8910
(
99628.6
99626.6
99624.4
99622.3
99620.2
99618
99616.1
99614
99612.1
99610.2
99608.4
99606.8
99605.2
99604
99602.8
99602
99601.7
99601.3
99602
99602.8
99604.5
99607.3
99610.5
99615.8
99621.8
99631.5
99643.3
99661.2
99683.1
99709.1
99742.3
99782.4
99827
99880.2
99959.6
99994.6
99628.6
99626.6
99624.4
99622.3
99620.2
99618.1
99616.1
99614
99612.2
99610.3
99608.5
99606.9
99605.4
99604.2
99603.1
99602.3
99602.1
99601.9
99602.7
99603.7
99605.6
99608.6
99612.2
99617.9
99624.5
99635
99647.9
99667
99689.9
99717.6
99752.2
99792.9
99838
99892
99965.8
100003
99628.7
99626.6
99624.5
99622.4
99620.3
99618.2
99616.3
99614.3
99612.4
99610.6
99608.9
99607.4
99605.9
99604.9
99603.9
99603.3
99603.2
99603.3
99604.4
99605.6
99608
99611.4
99615.6
99622
99629.7
99641.1
99655.2
99675.2
99698.3
99727.4
99762.8
99803.8
99849.3
99904
99971.5
100012
99628.8
99626.7
99624.6
99622.6
99620.5
99618.5
99616.6
99614.6
99612.8
99611.1
99609.4
99608
99606.7
99605.7
99605
99604.6
99604.7
99605
99606.3
99608
99610.8
99614.7
99619.5
99626.7
99635.3
99647.5
99662.9
99684.1
99708.3
99738.4
99774.2
99815.4
99860.8
99915.3
99977.6
100020
99628.9
99626.9
99624.8
99622.8
99620.8
99618.8
99616.9
99615
99613.3
99611.6
99610.1
99608.8
99607.6
99606.8
99606.2
99606
99606.3
99606.9
99608.6
99610.6
99613.9
99618.3
99623.9
99631.8
99641.5
99654.8
99671.6
99693.8
99719.1
99749.8
99785.7
99827.1
99872.5
99926.3
99984.1
100027
99629.1
99627.1
99625
99623.1
99621.1
99619.1
99617.3
99615.5
99613.9
99612.3
99610.8
99609.7
99608.6
99608
99607.6
99607.6
99608.2
99609.2
99611.2
99613.7
99617.5
99622.5
99628.9
99637.8
99648.7
99663.2
99681.1
99703.8
99729.9
99761.4
99797.8
99839.2
99884.5
99937
99990.8
100034
99629.3
99627.4
99625.3
99623.4
99621.5
99619.6
99617.9
99616.1
99614.6
99613.1
99611.8
99610.7
99609.9
99609.4
99609.2
99609.6
99610.5
99611.8
99614.2
99617.2
99621.7
99627.5
99634.8
99644.6
99656.5
99671.9
99690.8
99714.4
99741.4
99773.6
99810.3
99851.6
99896.5
99947.4
99997.6
100041
99631.6
99629.6
99627.7
99625.7
99623.8
99622
99620.2
99618.5
99616.8
99615.4
99614
99612.9
99612
99611.3
99611.1
99611.2
99611.8
99613
99614.8
99617.7
99621.4
99626.6
99633.2
99641.4
99652
99664.8
99681.2
99701.2
99725.7
99753.6
99786.4
99823.2
99864.3
99908.4
99957.5
100004
100047
99632
99630
99628.1
99626.2
99624.3
99622.5
99620.8
99619.3
99617.7
99616.4
99615.2
99614.2
99613.5
99613
99613.1
99613.4
99614.4
99616
99618.3
99621.8
99626.2
99632.1
99639.3
99648.3
99659.8
99673.7
99691.2
99712.4
99737.7
99766.4
99799.5
99836.3
99877
99920.1
99967.2
100011
100053
99632.3
99630.4
99628.6
99626.7
99625
99623.3
99621.6
99620.2
99618.7
99617.6
99616.5
99615.7
99615.2
99615
99615.3
99616
99617.4
99619.5
99622.4
99626.5
99631.5
99638
99645.9
99655.9
99668.3
99683.4
99702
99724.2
99750.3
99779.7
99813
99849.7
99889.7
99931.7
99976.6
100018
100058
99632.8
99631
99629.2
99627.4
99625.7
99624.1
99622.6
99621.2
99620
99618.9
99618
99617.5
99617.2
99617.3
99617.9
99619
99620.9
99623.6
99627
99631.6
99637.2
99644.4
99653.2
99664.2
99677.6
99693.9
99713.6
99736.7
99763.4
99793.3
99826.7
99863.2
99902.3
99942.9
99985.6
100024
100063
99633.4
99631.6
99629.9
99628.2
99626.6
99625.1
99623.7
99622.5
99621.4
99620.5
99619.8
99619.5
99619.5
99620
99621
99622.6
99625
99628
99632
99637.1
99643.4
99651.5
99661.2
99673.2
99687.8
99705.2
99725.9
99749.9
99777.1
99807.4
99840.7
99876.7
99914.8
99953.9
99994.2
100030
100068
99634
99632.3
99630.7
99629.1
99627.6
99626.2
99625
99623.9
99622.9
99622.3
99621.9
99621.8
99622.2
99623.1
99624.5
99626.5
99629.3
99632.8
99637.4
99643.2
99650.4
99659.3
99670
99683.1
99698.7
99717.3
99738.9
99763.6
99791.3
99821.7
99854.7
99890.2
99927
99964.4
100002
100036
100072
99636.5
99634.8
99633.2
99631.6
99630.2
99628.8
99627.5
99626.4
99625.5
99624.8
99624.4
99624.3
99624.7
99625.4
99626.6
99628.4
99630.8
99634
99638.2
99643.4
99650
99658
99667.9
99679.6
99693.8
99710.5
99730.1
99752.6
99777.9
99805.8
99836.2
99868.8
99903.5
99938.8
99974.5
100010
100042
100076
99637.3
99635.7
99634.2
99632.7
99631.4
99630.1
99629
99628.1
99627.5
99627
99626.9
99627.2
99627.8
99628.8
99630.4
99632.6
99635.5
99639.3
99644.1
99650.2
99657.5
99666.5
99677.3
99690.1
99705.4
99723.2
99743.7
99766.9
99792.7
99820.7
99850.9
99882.9
99916.4
99950.3
99984
100017
100047
100079
99638.3
99636.7
99635.3
99634
99632.7
99631.7
99630.8
99630.2
99629.8
99629.6
99629.8
99630.2
99631.2
99632.6
99634.6
99637.3
99640.8
99645.3
99650.8
99657.6
99665.9
99675.8
99687.6
99701.5
99717.9
99736.6
99758
99781.8
99807.9
99835.8
99865.5
99896.9
99929.1
99961.2
99993.1
100024
100052
100082
99639.3
99637.9
99636.6
99635.5
99634.4
99633.6
99633
99632.6
99632.4
99632.4
99632.9
99633.7
99635
99636.8
99639.3
99642.6
99646.7
99651.9
99658.2
99665.9
99675.1
99686
99698.9
99713.9
99731.3
99750.9
99773
99797.1
99823.3
99850.9
99880.1
99910.6
99941.3
99971.7
100002
100031
100057
100084
99641.9
99640.6
99639.3
99638.2
99637.3
99636.5
99635.8
99635.4
99635.2
99635.2
99635.5
99636.3
99637.5
99639.2
99641.6
99644.6
99648.5
99653.3
99659.3
99666.4
99675.1
99685.2
99697.2
99711.1
99727.1
99745.4
99765.8
99788.5
99812.8
99838.9
99866.1
99894.6
99924
99953
99981.6
100010
100036
100061
100086
99643.3
99642.1
99641
99640.1
99639.3
99638.7
99638.3
99638
99638
99638.4
99639.1
99640.2
99641.8
99644.1
99646.9
99650.6
99655.2
99660.8
99667.5
99675.6
99685.2
99696.3
99709.4
99724.3
99741.3
99760.4
99781.4
99804.4
99828.8
99854.6
99881.1
99908.8
99936.6
99964
99990.8
100017
100042
100064
100088
99644.9
99643.9
99643
99642.2
99641.6
99641.2
99641
99641
99641.3
99642
99643
99644.6
99646.7
99649.5
99653
99657.3
99662.6
99669
99676.7
99685.7
99696.3
99708.5
99722.6
99738.4
99756.3
99776.1
99797.6
99820.9
99845
99870.2
99895.7
99922.5
99948.7
99974.4
99999.3
100023
100047
100067
100089
99647.8
99646.8
99645.9
99645.2
99644.6
99644.2
99643.9
99644
99644.3
99645
99646
99647.6
99649.6
99652.3
99655.7
99659.8
99664.9
99671
99678.3
99686.9
99696.9
99708.5
99721.7
99736.7
99753.5
99772.1
99792.5
99814.3
99837.4
99861
99885.4
99910.1
99935.5
99960.1
99984
100007
100029
100051
100070
100090
99649.7
99648.9
99648.2
99647.6
99647.2
99647
99647.1
99647.4
99648.1
99649.2
99650.7
99652.7
99655.3
99658.6
99662.6
99667.5
99673.4
99680.4
99688.6
99698.2
99709.2
99721.8
99735.9
99751.9
99769.4
99788.7
99809.4
99831.1
99853.8
99876.8
99900.1
99924
99947.8
99970.7
99992.9
100014
100035
100054
100072
100091
99652.7
99651.9
99651.2
99650.7
99650.4
99650.2
99650.3
99650.7
99651.4
99652.5
99654
99656
99658.5
99661.7
99665.7
99670.5
99676.2
99682.9
99690.8
99700
99710.5
99722.5
99736.1
99751.2
99767.9
99786.2
99805.7
99826.4
99847.9
99870
99892.1
99914.5
99937.1
99959.2
99980.5
100001
100021
100040
100058
100074
100091
99655
99654.3
99653.9
99653.6
99653.5
99653.6
99654.1
99654.8
99655.9
99657.4
99659.4
99662
99665.1
99669
99673.7
99679.3
99685.8
99693.5
99702.3
99712.5
99724.1
99737
99751.5
99767.4
99784.9
99803.4
99823.1
99843.6
99864.5
99885.9
99906.9
99928.3
99949.4
99969.9
99989.5
100008
100026
100044
100060
100075
100091
99657.5
99657.1
99656.9
99656.9
99657.1
99657.5
99658.3
99659.5
99661
99663.1
99665.6
99668.8
99672.7
99677.3
99682.7
99689.2
99696.7
99705.3
99715.1
99726.2
99738.7
99752.6
99768
99784.5
99802.3
99820.9
99840.5
99860.6
99880.8
99901.2
99921
99941.2
99960.7
99979.6
99997.6
100015
100031
100047
100062
100076
100090
99660.8
99660.5
99660.3
99660.3
99660.6
99661.2
99662
99663.3
99664.9
99666.9
99669.5
99672.7
99676.6
99681.2
99686.6
99692.9
99700.3
99708.7
99718.3
99729
99741.1
99754.5
99769.3
99785.3
99802.1
99820.1
99838.6
99857.8
99877.2
99896.5
99915.7
99934.5
99953.2
99971.1
99988.5
100005
100021
100036
100050
100064
100077
100090
99664.2
99664
99663.9
99664
99664.3
99665
99665.9
99667.2
99668.9
99671
99673.7
99676.9
99680.8
99685.4
99690.8
99697.1
99704.3
99712.6
99722
99732.5
99744.2
99757.3
99771.5
99786.8
99803.1
99820.1
99838
99856.1
99874.7
99893.2
99911.5
99929.5
99947.1
99964.1
99980.5
99996.4
100011
100026
100039
100053
100065
100077
100089
99667.5
99667.5
99667.7
99668.2
99668.9
99669.9
99671.3
99673.1
99675.4
99678.1
99681.4
99685.3
99690
99695.4
99701.7
99708.8
99717
99726.2
99736.5
99748
99760.7
99774.4
99789.2
99804.8
99821.3
99838.2
99855.7
99873.3
99891
99908.5
99925.6
99942.5
99958.5
99974.1
99989
100003
100017
100030
100042
100054
100066
100076
100087
99671.3
99671.4
99671.7
99672.2
99673
99674.2
99675.7
99677.6
99679.9
99682.8
99686.2
99690.2
99694.9
99700.4
99706.7
99713.8
99721.9
99731
99741.2
99752.4
99764.8
99778.1
99792.4
99807.4
99823.2
99839.6
99856.1
99873.1
99889.8
99906.6
99922.8
99938.8
99954.3
99968.8
99983
99996.5
100010
100022
100034
100045
100056
100066
100076
100086
99675.3
99675.8
99676.4
99677.4
99678.7
99680.3
99682.3
99684.8
99687.7
99691.3
99695.4
99700.2
99705.7
99712.1
99719.2
99727.3
99736.3
99746.3
99757.5
99769.5
99782.5
99796.2
99810.8
99826
99841.6
99857.6
99873.6
99889.8
99905.5
99921.1
99936.2
99950.9
99964.9
99978.1
99990.9
100003
100015
100026
100037
100047
100057
100066
100075
100084
99679.5
99680.1
99680.9
99681.9
99683.4
99685.1
99687.3
99689.9
99693
99696.7
99700.9
99705.9
99711.5
99717.9
99725.1
99733.2
99742.2
99752.1
99763.1
99774.9
99787.5
99800.9
99814.9
99829.5
99844.5
99859.8
99875.2
99890.4
99905.6
99920.2
99934.6
99948.6
99961.8
99974.4
99986.3
99997.8
100009
100019
100029
100039
100048
100057
100066
100074
100082
99683.9
99684.6
99685.5
99686.8
99688.3
99690.3
99692.6
99695.4
99698.6
99702.5
99706.9
99711.9
99717.7
99724.2
99731.4
99739.6
99748.5
99758.5
99769.2
99780.8
99793.1
99806.1
99819.7
99833.7
99848.1
99862.7
99877.4
99892
99906.2
99920.3
99933.7
99947
99959.6
99971.5
99982.8
99993.4
100004
100014
100023
100032
100041
100049
100057
100065
100072
100080
99688.5
99689.3
99690.4
99691.8
99693.6
99695.7
99698.2
99701.2
99704.6
99708.6
99713.2
99718.4
99724.3
99730.9
99738.3
99746.4
99755.4
99765.4
99776
99787.3
99799.3
99811.9
99825.1
99838.6
99852.3
99866.3
99880.2
99894.1
99907.7
99920.8
99933.8
99946.2
99958.1
99969.4
99980.1
99990.2
99999.6
100009
100018
100026
100034
100042
100050
100057
100064
100071
100078
99693.4
99694.4
99695.7
99697.2
99699.2
99701.5
99704.2
99707.3
99711
99715.2
99720
99725.4
99731.4
99738.1
99745.6
99753.8
99762.9
99772.7
99783.2
99794.3
99806
99818.3
99831
99844
99857.2
99870.4
99883.8
99896.8
99909.7
99922.2
99934.2
99946.1
99957.2
99967.9
99978
99987.5
99996.5
100005
100013
100021
100029
100036
100043
100050
100057
100063
100069
100076
99699.7
99701.2
99703
99705.1
99707.6
99710.5
99713.9
99717.8
99722.2
99727.2
99732.8
99739
99745.8
99753.4
99761.7
99770.8
99780.6
99790.9
99801.8
99813.3
99825.1
99837.4
99849.8
99862.5
99875.2
99887.6
99900.2
99912.2
99924.1
99935.5
99946.5
99957.1
99967
99976.5
99985.4
99993.9
100002
100009
100017
100024
100031
100037
100044
100050
100056
100062
100067
100073
99705.4
99707.1
99709.1
99711.4
99714.2
99717.3
99720.9
99725
99729.7
99734.8
99740.6
99747
99754
99761.7
99770.2
99779.2
99788.8
99799
99809.7
99820.9
99832.4
99844.1
99856.2
99868.2
99880.2
99892.2
99903.7
99915.3
99926.3
99937
99947.5
99957.3
99966.7
99975.4
99983.9
99991.8
99999.3
100006
100013
100020
100026
100032
100038
100044
100049
100055
100060
100065
100071
99711.4
99713.3
99715.5
99718.1
99721.1
99724.5
99728.4
99732.7
99737.6
99743
99749
99755.5
99762.7
99770.6
99779.1
99788
99797.6
99807.6
99818.1
99828.9
99840
99851.3
99862.7
99874.2
99885.6
99896.8
99907.9
99918.5
99929.1
99939
99948.8
99958
99966.6
99975
99982.7
99990.2
99997.2
100004
100010
100016
100022
100027
100033
100038
100044
100049
100054
100059
100063
100068
99716
99717.9
99720
99722.5
99725.3
99728.5
99732.2
99736.3
99740.9
99746
99751.6
99757.8
99764.5
99771.9
99779.8
99788.3
99797.3
99806.7
99816.5
99826.7
99837.2
99847.9
99858.7
99869.6
99880.4
99891.3
99901.8
99912.2
99922.3
99931.8
99941.4
99950.4
99959
99967.1
99974.7
99982.1
99988.9
99995.5
100002
100008
100013
100018
100024
100029
100034
100038
100043
100048
100052
100057
100061
100065
99722.7
99724.7
99727.1
99729.8
99732.9
99736.4
99740.4
99744.7
99749.6
99754.9
99760.7
99767.1
99774
99781.5
99789.5
99797.9
99806.8
99816.1
99825.7
99835.6
99845.6
99856
99866.3
99876.6
99886.9
99896.9
99907
99916.6
99926
99935.1
99943.8
99952.3
99960.2
99967.7
99974.9
99981.7
99988.1
99994.1
100000
100005
100011
100015
100020
100025
100029
100034
100038
100043
100047
100051
100055
100059
100063
99729.7
99732
99734.7
99737.7
99741.1
99744.8
99749
99753.6
99758.7
99764.3
99770.3
99776.8
99784
99791.5
99799.5
99807.9
99816.6
99825.7
99835
99844.6
99854.3
99864.1
99874
99883.7
99893.4
99902.9
99912.1
99921.2
99929.9
99938.4
99946.6
99954.2
99961.7
99968.6
99975.3
99981.6
99987.5
99993.2
99998.5
100004
100008
100013
100017
100021
100026
100030
100034
100038
100042
100046
100049
100053
100056
100060
99737.3
99739.8
99742.8
99746
99749.7
99753.7
99758.2
99763
99768.3
99774.1
99780.3
99787.1
99794.3
99801.8
99809.7
99818
99826.6
99835.4
99844.5
99853.7
99863
99872.3
99881.5
99890.8
99899.9
99908.7
99917.4
99925.7
99933.9
99941.7
99949.3
99956.4
99963.2
99969.7
99975.8
99981.7
99987.2
99992.4
99997.4
100002
100007
100011
100015
100019
100022
100026
100030
100034
100037
100041
100044
100048
100051
100054
100058
99745.3
99748.1
99751.3
99754.9
99758.8
99763.1
99767.8
99772.9
99778.4
99784.4
99790.8
99797.6
99804.8
99812.3
99820.2
99828.3
99836.7
99845.3
99854
99862.8
99871.6
99880.4
99889.2
99897.7
99906.3
99914.5
99922.5
99930.3
99937.8
99945.1
99952
99958.6
99964.9
99970.8
99976.5
99981.9
99987
99991.8
99996.4
100001
100005
100009
100013
100016
100020
100023
100027
100030
100033
100036
100040
100043
100046
100049
100052
100055
99751
99753.8
99756.9
99760.4
99764.2
99768.4
99772.9
99777.9
99783.2
99788.9
99795
99801.6
99808.4
99815.6
99823
99830.7
99838.7
99846.8
99855
99863.4
99871.7
99880.1
99888.4
99896.6
99904.7
99912.4
99920.2
99927.6
99934.7
99941.8
99948.3
99954.8
99960.8
99966.6
99972.1
99977.2
99982.3
99986.9
99991.4
99995.7
99999.7
100004
100007
100011
100014
100017
100020
100023
100027
100030
100033
100035
100038
100041
100044
100047
100050
100052
99759.7
99762.8
99766.2
99769.9
99774
99778.4
99783.2
99788.3
99793.8
99799.7
99806
99812.5
99819.3
99826.4
99833.8
99841.3
99849
99856.8
99864.7
99872.6
99880.5
99888.3
99896.1
99903.8
99911.2
99918.5
99925.5
99932.5
99939.1
99945.5
99951.6
99957.3
99963
99968.2
99973.3
99978.1
99982.6
99987
99991.1
99995
99998.8
100002
100006
100009
100012
100015
100018
100021
100023
100026
100029
100032
100034
100037
100040
100042
100045
100047
100050
99765.9
99769
99772.3
99776
99780
99784.3
99788.9
99793.9
99799.2
99804.8
99810.8
99817.1
99823.6
99830.3
99837.3
99844.5
99851.7
99859.1
99866.6
99874.1
99881.6
99889
99896.4
99903.5
99910.7
99917.5
99924.2
99930.8
99937.1
99943.2
99949
99954.6
99960
99965
99969.9
99974.5
99978.9
99983.2
99987.1
99991
99994.5
99998
100001
100004
100007
100010
100013
100016
100018
100021
100023
100026
100028
100031
100033
100036
100038
100041
100043
100045
100048
99775.3
99778.7
99782.3
99786.2
99790.4
99794.9
99799.7
99804.8
99810.2
99816
99822
99828.2
99834.7
99841.3
99848.1
99854.9
99862
99869
99876.1
99883.1
99890.2
99897.1
99903.9
99910.7
99917.1
99923.5
99929.7
99935.7
99941.5
99947.1
99952.4
99957.5
99962.4
99967.1
99971.5
99975.8
99979.8
99983.6
99987.3
99990.8
99994.1
99997.3
100000
100003
100006
100009
100011
100014
100016
100018
100021
100023
100025
100028
100030
100032
100034
100037
100039
100041
100043
100045
99782
99785.2
99788.8
99792.6
99796.7
99801.1
99805.8
99810.7
99816
99821.5
99827.2
99833.2
99839.3
99845.6
99852
99858.6
99865.2
99871.8
99878.5
99885.2
99891.8
99898.4
99904.8
99911.1
99917.3
99923.3
99929.1
99934.9
99940.4
99945.6
99950.7
99955.5
99960.3
99964.7
99968.9
99973
99976.8
99980.6
99984.1
99987.5
99990.7
99993.7
99996.7
99999.5
100002
100005
100007
100010
100012
100014
100016
100018
100021
100023
100025
100027
100029
100031
100033
100035
100037
100039
100041
100043
99788.8
99792
99795.5
99799.3
99803.3
99807.6
99812.1
99816.9
99821.9
99827.2
99832.7
99838.4
99844.2
99850.2
99856.3
99862.5
99868.8
99875
99881.4
99887.6
99893.9
99900
99906.1
99912
99917.9
99923.6
99929
99934.5
99939.6
99944.7
99949.5
99954.1
99958.5
99962.7
99966.8
99970.7
99974.4
99978
99981.3
99984.6
99987.7
99990.6
99993.5
99996.1
99998.8
100001
100004
100006
100008
100010
100012
100014
100016
100018
100020
100022
100024
100026
100028
100030
100032
100033
100035
100037
100039
100041
99798.9
99802.4
99806.1
99810
99814.2
99818.6
99823.2
99828
99833.1
99838.4
99843.8
99849.4
99855.1
99860.8
99866.7
99872.6
99878.5
99884.5
99890.4
99896.2
99902
99907.8
99913.3
99918.8
99924.2
99929.4
99934.5
99939.3
99944.1
99948.6
99953
99957.2
99961.2
99965.1
99968.8
99972.4
99975.7
99979
99982.1
99985
99987.9
99990.6
99993.2
99995.7
99998
100000
100003
100005
100007
100009
100011
100012
100014
100016
100018
100020
100022
100023
100025
100027
100028
100030
100032
100033
100035
100037
100038
99806
99809.4
99813
99816.9
99820.9
99825.2
99829.6
99834.3
99839.2
99844.2
99849.4
99854.7
99860.1
99865.5
99871.1
99876.6
99882.2
99887.8
99893.4
99898.9
99904.3
99909.7
99914.9
99920.1
99925.1
99930
99934.8
99939.4
99943.8
99948.1
99952.3
99956.2
99960.1
99963.7
99967.2
99970.6
99973.8
99977
99979.9
99982.7
99985.5
99988
99990.6
99992.9
99995.2
99997.5
99999.5
100002
100004
100005
100007
100009
100011
100012
100014
100016
100018
100019
100021
100022
100024
100026
100027
100029
100030
100032
100033
100035
100036
99813.2
99816.6
99820.1
99823.8
99827.8
99831.9
99836.2
99840.7
99845.3
99850.1
99855.1
99860.1
99865.2
99870.4
99875.6
99880.8
99886.1
99891.3
99896.5
99901.7
99906.8
99911.8
99916.7
99921.6
99926.2
99930.9
99935.4
99939.7
99943.9
99947.9
99951.8
99955.6
99959.2
99962.6
99966
99969.2
99972.3
99975.2
99978
99980.8
99983.3
99985.8
99988.2
99990.5
99992.7
99994.8
99996.9
99998.8
100001
100003
100004
100006
100008
100009
100011
100012
100014
100016
100017
100019
100020
100022
100023
100024
100026
100027
100029
100030
100032
100033
100034
99820.5
99823.8
99827.2
99830.9
99834.7
99838.6
99842.8
99847.1
99851.5
99856.1
99860.8
99865.5
99870.4
99875.2
99880.2
99885.1
99890
99894.9
99899.8
99904.7
99909.4
99914.1
99918.7
99923.2
99927.7
99932
99936.2
99940.2
99944.2
99948
99951.6
99955.2
99958.6
99961.8
99965
99968
99971
99973.7
99976.4
99979
99981.5
99983.9
99986.2
99988.4
99990.5
99992.5
99994.5
99996.3
99998.1
99999.9
100002
100003
100005
100006
100008
100009
100011
100012
100014
100015
100016
100018
100019
100021
100022
100023
100024
100026
100027
100028
100030
100031
100032
99827.8
99831
99834.4
99837.9
99841.6
99845.4
99849.4
99853.5
99857.7
99862.1
99866.5
99871
99875.5
99880.1
99884.8
99889.4
99894
99898.6
99903.2
99907.7
99912.2
99916.6
99920.9
99925.1
99929.2
99933.3
99937.2
99941
99944.7
99948.2
99951.7
99955
99958.2
99961.3
99964.3
99967.1
99969.9
99972.5
99975.1
99977.5
99979.9
99982.2
99984.3
99986.5
99988.5
99990.4
99992.3
99994.1
99995.8
99997.5
99999.1
100001
100002
100004
100005
100007
100008
100009
100011
100012
100013
100015
100016
100017
100018
100020
100021
100022
100023
100024
100026
100027
100028
100029
100030
99835.2
99838.3
99841.5
99844.9
99848.5
99852.1
99855.9
99859.8
99863.9
99868
99872.2
99876.4
99880.7
99885
99889.4
99893.7
99898
99902.3
99906.6
99910.8
99915
99919.1
99923.1
99927.1
99930.9
99934.7
99938.3
99941.9
99945.3
99948.7
99951.9
99955
99958
99960.9
99963.7
99966.4
99969.1
99971.5
99974
99976.3
99978.5
99980.7
99982.8
99984.8
99986.7
99988.6
99990.3
99992.1
99993.7
99995.3
99996.9
99998.4
99999.9
100001
100003
100004
100005
100007
100008
100009
100010
100012
100013
100014
100015
100016
100017
100019
100020
100021
100022
100023
100024
100025
100026
100028
100029
99842.5
99845.5
99848.6
99851.9
99855.3
99858.8
99862.4
99866.1
99870
99873.9
99877.8
99881.8
99885.8
99889.9
99893.9
99898
99902
99906.1
99910
99914
99917.8
99921.7
99925.4
99929.1
99932.7
99936.2
99939.6
99942.9
99946.1
99949.3
99952.3
99955.2
99958
99960.8
99963.4
99965.9
99968.4
99970.8
99973.1
99975.2
99977.4
99979.4
99981.4
99983.3
99985.1
99986.9
99988.6
99990.3
99991.8
99993.4
99994.9
99996.3
99997.7
99999.1
100000
100002
100003
100004
100005
100007
100008
100009
100010
100011
100012
100013
100015
100016
100017
100018
100019
100020
100021
100022
100023
100024
100025
100026
100027
99849.7
99852.6
99855.6
99858.8
99862
99865.3
99868.8
99872.3
99875.9
99879.6
99883.3
99887.1
99890.8
99894.6
99898.4
99902.2
99906
99909.7
99913.4
99917.1
99920.7
99924.3
99927.8
99931.2
99934.5
99937.8
99941
99944
99947
99950
99952.8
99955.5
99958.2
99960.7
99963.2
99965.6
99967.9
99970.2
99972.3
99974.4
99976.4
99978.3
99980.2
99982
99983.8
99985.4
99987.1
99988.7
99990.2
99991.7
99993.1
99994.5
99995.8
99997.1
99998.4
99999.6
100001
100002
100003
100004
100005
100007
100008
100009
100010
100011
100012
100013
100014
100015
100016
100017
100018
100019
100020
100021
100021
100022
100023
100024
100025
99856.8
99859.6
99862.5
99865.5
99868.6
99871.8
99875
99878.4
99881.8
99885.2
99888.7
99892.2
99895.8
99899.3
99902.8
99906.4
99909.9
99913.3
99916.8
99920.2
99923.6
99926.9
99930.1
99933.3
99936.4
99939.4
99942.4
99945.3
99948.1
99950.8
99953.4
99956
99958.4
99960.9
99963.2
99965.4
99967.6
99969.7
99971.7
99973.7
99975.6
99977.4
99979.2
99980.9
99982.6
99984.2
99985.7
99987.2
99988.7
99990.1
99991.4
99992.8
99994
99995.3
99996.5
99997.7
99998.9
100000
100001
100002
100003
100004
100005
100006
100007
100008
100009
100010
100011
100012
100013
100014
100015
100016
100017
100018
100018
100019
100020
100021
100022
100023
100024
99863.9
99866.5
99869.3
99872.1
99875.1
99878.1
99881.1
99884.3
99887.5
99890.7
99894
99897.2
99900.5
99903.8
99907.1
99910.4
99913.7
99916.9
99920.1
99923.3
99926.4
99929.4
99932.5
99935.4
99938.3
99941.1
99943.8
99946.5
99949.1
99951.7
99954.1
99956.5
99958.8
99961.1
99963.2
99965.4
99967.4
99969.4
99971.3
99973.1
99974.9
99976.7
99978.3
99980
99981.5
99983.1
99984.5
99986
99987.4
99988.7
99990
99991.3
99992.5
99993.7
99994.8
99996
99997.1
99998.2
99999.3
100000
100001
100002
100003
100004
100005
100006
100007
100008
100009
100010
100011
100011
100012
100013
100014
100015
100016
100016
100017
100018
100019
100020
100021
100021
100022
99868.3
99870.7
99873.3
99875.9
99878.6
99881.3
99884.2
99887.1
99890
99893
99896
99899
99902.1
99905.2
99908.2
99911.3
99914.3
99917.4
99920.3
99923.3
99926.3
99929.1
99932
99934.8
99937.5
99940.2
99942.8
99945.3
99947.8
99950.3
99952.6
99954.9
99957.1
99959.3
99961.4
99963.4
99965.4
99967.3
99969.2
99971
99972.7
99974.4
99976.1
99977.6
99979.2
99980.7
99982.1
99983.5
99984.9
99986.2
99987.4
99988.7
99989.9
99991.1
99992.2
99993.3
99994.4
99995.5
99996.6
99997.6
99998.6
99999.6
100001
100001
100002
100003
100004
100005
100006
100007
100008
100008
100009
100010
100011
100012
100012
100013
100014
100015
100015
100016
100017
100018
100018
100019
100020
100021
99875.1
99877.4
99879.8
99882.3
99884.8
99887.4
99890.1
99892.8
99895.5
99898.3
99901.1
99904
99906.8
99909.6
99912.5
99915.3
99918.1
99920.9
99923.7
99926.5
99929.2
99931.9
99934.5
99937.1
99939.6
99942.1
99944.5
99946.9
99949.2
99951.4
99953.6
99955.7
99957.8
99959.8
99961.8
99963.7
99965.6
99967.4
99969.1
99970.8
99972.4
99974
99975.6
99977.1
99978.5
99979.9
99981.3
99982.6
99983.9
99985.2
99986.4
99987.6
99988.7
99989.8
99990.9
99992
99993.1
99994.1
99995.1
99996.1
99997
99998
99998.9
99999.8
100001
100002
100002
100003
100004
100005
100006
100006
100007
100008
100009
100009
100010
100011
100012
100012
100013
100014
100014
100015
100016
100017
100017
100018
100019
100019
99881.8
99884
99886.2
99888.5
99890.9
99893.3
99895.8
99898.3
99900.9
99903.5
99906.1
99908.7
99911.3
99914
99916.6
99919.2
99921.8
99924.4
99927
99929.5
99932
99934.5
99936.9
99939.3
99941.7
99943.9
99946.2
99948.4
99950.5
99952.6
99954.7
99956.6
99958.6
99960.5
99962.3
99964.1
99965.8
99967.5
99969.1
99970.7
99972.3
99973.7
99975.2
99976.6
99978
99979.3
99980.6
99981.9
99983.1
99984.3
99985.4
99986.6
99987.7
99988.8
99989.8
99990.8
99991.8
99992.8
99993.8
99994.7
99995.6
99996.5
99997.4
99998.3
99999.1
99999.9
100001
100002
100002
100003
100004
100005
100005
100006
100007
100007
100008
100009
100009
100010
100011
100011
100012
100013
100013
100014
100015
100015
100016
100017
100017
100018
99888.3
99890.3
99892.4
99894.6
99896.8
99899
99901.3
99903.7
99906.1
99908.4
99910.9
99913.3
99915.7
99918.1
99920.6
99923
99925.4
99927.8
99930.2
99932.5
99934.8
99937.1
99939.3
99941.5
99943.7
99945.8
99947.9
99949.9
99951.9
99953.8
99955.7
99957.6
99959.4
99961.1
99962.9
99964.5
99966.1
99967.7
99969.2
99970.7
99972.2
99973.6
99974.9
99976.3
99977.6
99978.8
99980
99981.2
99982.4
99983.5
99984.7
99985.7
99986.8
99987.8
99988.8
99989.8
99990.8
99991.7
99992.6
99993.5
99994.4
99995.2
99996.1
99996.9
99997.7
99998.5
99999.2
100000
100001
100001
100002
100003
100004
100004
100005
100006
100006
100007
100008
100008
100009
100009
100010
100011
100011
100012
100013
100013
100014
100014
100015
100016
100016
100017
99892.7
99894.5
99896.4
99898.4
99900.4
99902.4
99904.5
99906.7
99908.8
99911
99913.2
99915.4
99917.7
99919.9
99922.2
99924.4
99926.6
99928.9
99931.1
99933.2
99935.4
99937.5
99939.6
99941.7
99943.7
99945.7
99947.7
99949.6
99951.5
99953.3
99955.1
99956.9
99958.6
99960.2
99961.9
99963.5
99965
99966.5
99968
99969.4
99970.8
99972.2
99973.5
99974.8
99976
99977.3
99978.5
99979.6
99980.8
99981.9
99982.9
99984
99985
99986
99987
99988
99988.9
99989.8
99990.7
99991.6
99992.4
99993.2
99994
99994.8
99995.6
99996.4
99997.1
99997.9
99998.6
99999.3
100000
100001
100001
100002
100003
100003
100004
100005
100005
100006
100006
100007
100008
100008
100009
100009
100010
100010
100011
100012
100012
100013
100013
100014
100015
100015
100016
99898.9
99900.6
99902.3
99904.1
99906
99907.9
99909.8
99911.8
99913.8
99915.8
99917.8
99919.9
99921.9
99924
99926
99928.1
99930.2
99932.2
99934.2
99936.2
99938.2
99940.1
99942.1
99944
99945.8
99947.7
99949.5
99951.3
99953
99954.7
99956.4
99958
99959.6
99961.1
99962.6
99964.1
99965.6
99967
99968.4
99969.7
99971
99972.3
99973.5
99974.8
99975.9
99977.1
99978.2
99979.3
99980.4
99981.4
99982.5
99983.5
99984.4
99985.4
99986.3
99987.2
99988.1
99989
99989.8
99990.6
99991.4
99992.2
99993
99993.8
99994.5
99995.2
99995.9
99996.6
99997.3
99998
99998.7
99999.3
100000
100001
100001
100002
100002
100003
100004
100004
100005
100005
100006
100006
100007
100008
100008
100009
100009
100010
100010
100011
100011
100012
100012
100013
100014
100014
100015
99904.9
99906.4
99908.1
99909.7
99911.4
99913.2
99914.9
99916.7
99918.5
99920.4
99922.3
99924.1
99926
99927.9
99929.8
99931.7
99933.6
99935.4
99937.3
99939.1
99940.9
99942.7
99944.5
99946.2
99948
99949.6
99951.3
99952.9
99954.5
99956.1
99957.7
99959.2
99960.6
99962.1
99963.5
99964.9
99966.2
99967.5
99968.8
99970.1
99971.3
99972.5
99973.7
99974.8
99975.9
99977
99978.1
99979.1
99980.1
99981.1
99982.1
99983
99983.9
99984.8
99985.7
99986.6
99987.4
99988.2
99989
99989.8
99990.6
99991.3
99992.1
99992.8
99993.5
99994.2
99994.9
99995.5
99996.2
99996.8
99997.5
99998.1
99998.7
99999.3
99999.9
100000
100001
100002
100002
100003
100003
100004
100004
100005
100005
100006
100006
100007
100007
100008
100009
100009
100010
100010
100011
100011
100012
100012
100013
100013
100014
99909.5
99910.8
99912.1
99913.6
99915.1
99916.6
99918.2
99919.8
99921.5
99923.1
99924.8
99926.5
99928.2
99930
99931.7
99933.4
99935.1
99936.9
99938.6
99940.3
99941.9
99943.6
99945.2
99946.9
99948.5
99950
99951.6
99953.1
99954.6
99956.1
99957.6
99959
99960.4
99961.8
99963.1
99964.4
99965.7
99966.9
99968.2
99969.4
99970.5
99971.7
99972.8
99973.9
99975
99976
99977
99978
99979
99980
99980.9
99981.8
99982.7
99983.5
99984.4
99985.2
99986
99986.8
99987.6
99988.4
99989.1
99989.8
99990.6
99991.3
99991.9
99992.6
99993.3
99993.9
99994.6
99995.2
99995.8
99996.4
99997
99997.6
99998.2
99998.7
99999.3
99999.8
100000
100001
100001
100002
100002
100003
100003
100004
100004
100005
100005
100006
100006
100007
100007
100008
100008
100009
100009
100010
100010
100011
100011
100012
100012
100013
99914.4
99915.5
99916.6
99917.7
99919
99920.3
99921.6
99923.1
99924.5
99926
99927.6
99929.1
99930.6
99932.2
99933.8
99935.3
99936.9
99938.5
99940
99941.6
99943.1
99944.7
99946.2
99947.7
99949.2
99950.7
99952.1
99953.5
99954.9
99956.3
99957.7
99959
99960.3
99961.6
99962.9
99964.1
99965.3
99966.5
99967.7
99968.8
99970
99971.1
99972.1
99973.2
99974.2
99975.2
99976.2
99977.1
99978.1
99979
99979.9
99980.7
99981.6
99982.4
99983.2
99984
99984.8
99985.6
99986.3
99987.1
99987.8
99988.5
99989.2
99989.9
99990.5
99991.2
99991.8
99992.5
99993.1
99993.7
99994.3
99994.9
99995.4
99996
99996.6
99997.1
99997.7
99998.2
99998.7
99999.2
99999.7
100000
100001
100001
100002
100002
100003
100003
100004
100004
100005
100005
100005
100006
100006
100007
100007
100008
100008
100009
100009
100009
100010
100010
100011
100011
100012
99920.3
99921.2
99922.2
99923.2
99924.2
99925.4
99926.5
99927.8
99929.1
99930.4
99931.8
99933.2
99934.6
99936
99937.4
99938.8
99940.3
99941.7
99943.1
99944.5
99945.9
99947.3
99948.7
99950.1
99951.5
99952.8
99954.1
99955.4
99956.7
99958
99959.2
99960.5
99961.7
99962.9
99964
99965.2
99966.3
99967.4
99968.5
99969.6
99970.6
99971.6
99972.6
99973.6
99974.5
99975.5
99976.4
99977.3
99978.2
99979
99979.9
99980.7
99981.5
99982.3
99983
99983.8
99984.5
99985.3
99986
99986.7
99987.3
99988
99988.7
99989.3
99989.9
99990.6
99991.2
99991.8
99992.4
99992.9
99993.5
99994.1
99994.6
99995.1
99995.7
99996.2
99996.7
99997.2
99997.7
99998.2
99998.7
99999.2
99999.7
100000
100001
100001