/*--------------------------------*- C++ -*----------------------------------*\
  =========                 |
  \\      /  F ield         | OpenFOAM: The Open Source CFD Toolbox
   \\    /   O peration     | Website:  https://openfoam.org
    \\  /    A nd           | Version:  8
     \\/     M anipulation  |
\*---------------------------------------------------------------------------*/
FoamFile
{
    version     2.0;
    format      ascii;
    class       volScalarField;
    location    "9.5";
    object      nut;
}
// * * * * * * * * * * * * * * * * * * * * * * * * * * * * * * * * * * * * * //

dimensions      [0 2 -1 0 0 0 0];

internalField   nonuniform List<scalar> 
173000
(
7.0099e-05
7.66739e-05
8.23117e-05
8.70962e-05
9.12006e-05
9.47381e-05
9.77995e-05
0.000100455
0.000102759
0.000104757
0.000106486
0.000107978
0.000109265
0.000110376
0.000111343
0.000112202
0.000112989
0.000113741
0.000114482
0.000115216
0.000115923
0.000116566
0.000117109
0.000117525
0.000117792
0.000117899
0.000117899
0.000117819
0.00011766
0.000117424
0.000117113
0.000116727
0.000116268
0.000115738
0.000115137
0.000114466
0.000113726
0.000112916
0.000112039
0.000111093
0.000110079
0.000108997
0.000107846
0.000106628
0.00010534
0.000103983
0.000102556
0.000101058
9.94872e-05
9.78428e-05
9.61227e-05
9.43251e-05
9.24473e-05
9.04865e-05
8.84392e-05
8.63012e-05
8.40676e-05
8.17325e-05
7.92888e-05
7.67277e-05
7.40384e-05
7.12072e-05
6.8216e-05
6.50405e-05
6.16461e-05
5.79815e-05
5.39687e-05
4.94935e-05
4.44071e-05
3.85757e-05
3.20296e-05
2.51999e-05
1.89846e-05
1.42475e-05
1.11359e-05
9.29862e-06
8.49097e-06
8.33959e-06
8.32097e-06
8.34142e-06
8.35612e-06
8.36792e-06
8.37639e-06
8.3815e-06
8.3832e-06
8.38149e-06
8.37634e-06
8.36777e-06
8.35578e-06
8.34039e-06
8.32163e-06
8.29956e-06
8.27422e-06
8.24569e-06
8.21405e-06
8.17925e-06
8.14086e-06
8.09798e-06
8.04818e-06
7.98109e-06
0.000147455
0.000148136
0.000148581
0.000148719
0.000148608
0.000148268
0.000147718
0.000146967
0.000146024
0.000144894
0.000143587
0.000142113
0.000140488
0.000138742
0.000136919
0.000135096
0.000133391
0.000131975
0.000131061
0.000130844
0.000131376
0.000132494
0.000133945
0.000135557
0.000137244
0.000138977
0.000140698
0.000142385
0.000144042
0.000145668
0.000147267
0.000148837
0.000150381
0.000151898
0.000153391
0.000154858
0.000156302
0.000157721
0.000159118
0.000160493
0.000161845
0.000163175
0.000164484
0.000165772
0.000167038
0.000168284
0.000169509
0.000170714
0.000171899
0.000173064
0.000174209
0.000175335
0.000176442
0.00017753
0.000178599
0.000179649
0.000180681
0.000181695
0.000182691
0.00018367
0.000184633
0.000185579
0.00018651
0.000187427
0.000188334
0.000189234
0.000190133
0.00019104
0.000191966
0.000192919
0.000193902
0.000194896
0.000195866
0.000196767
0.000197575
0.000198287
0.00019891
0.000199473
0.000200009
0.000200522
0.000201013
0.00020148
0.000201923
0.000202341
0.000202734
0.000203102
0.000203444
0.000203761
0.000204053
0.000204318
0.000204558
0.000204772
0.000204961
0.000205124
0.000205262
0.000205375
0.000205461
0.000205518
0.000205536
0.000205487
0.000199417
0.000203598
0.000208983
0.000214237
0.000219351
0.00022433
0.000229186
0.000233933
0.000238584
0.000243151
0.000247645
0.000252077
0.000256455
0.000260789
0.000265085
0.000269349
0.000273583
0.000277787
0.000281955
0.000286076
0.000290138
0.000294125
0.000298028
0.000301839
0.000305577
0.00030925
0.000312866
0.000316426
0.000319931
0.000323384
0.000326785
0.000330136
0.000333437
0.000336689
0.000339894
0.00034305
0.00034616
0.000349223
0.000352239
0.000355209
0.000358134
0.000361013
0.000363847
0.000366635
0.000369377
0.000372074
0.000374724
0.000377327
0.000379885
0.000382396
0.000384861
0.000387279
0.000389651
0.000391976
0.000394254
0.000396485
0.000398669
0.000400806
0.000402896
0.000404939
0.000406934
0.000408881
0.000410782
0.000412635
0.000414442
0.000416203
0.000417919
0.000419591
0.000421218
0.000422801
0.000424337
0.000425823
0.000427253
0.000428625
0.000429941
0.000431204
0.000432416
0.000433582
0.000434701
0.000435774
0.000436798
0.000437774
0.000438701
0.000439577
0.000440403
0.000441178
0.000441902
0.000442575
0.000443197
0.000443767
0.000444286
0.000444754
0.00044517
0.000445536
0.00044585
0.000446113
0.000446324
0.000446482
0.000446586
0.000446626
0.000318075
0.00032877
0.000339061
0.000348885
0.000358309
0.000367376
0.00037613
0.000384604
0.000392829
0.00040083
0.000408628
0.000416241
0.000423684
0.00043097
0.000438108
0.000445108
0.000451976
0.000458719
0.000465341
0.000471848
0.000478243
0.00048453
0.000490713
0.000496799
0.000502792
0.000508695
0.00051451
0.000520239
0.000525883
0.000531445
0.000536926
0.000542327
0.000547649
0.000552893
0.000558061
0.000563153
0.000568168
0.000573109
0.000577975
0.000582766
0.000587484
0.000592129
0.000596701
0.0006012
0.000605626
0.000609979
0.000614256
0.000618459
0.000622587
0.00062664
0.000630618
0.00063452
0.000638348
0.0006421
0.000645776
0.000649376
0.0006529
0.000656348
0.000659719
0.000663014
0.000666232
0.000669374
0.000672438
0.000675426
0.000678338
0.000681173
0.000683933
0.000686618
0.000689227
0.000691761
0.000694215
0.000696589
0.000698878
0.000701081
0.000703199
0.000705235
0.000707191
0.00070907
0.000710872
0.000712596
0.000714241
0.000715806
0.000717292
0.000718697
0.00072002
0.000721262
0.000722422
0.000723501
0.000724497
0.000725411
0.000726243
0.000726993
0.000727661
0.000728246
0.00072875
0.000729171
0.000729509
0.000729764
0.000729931
0.000730008
0.000468925
0.000483805
0.000498011
0.000511624
0.000524717
0.00053735
0.000549572
0.000561429
0.000572957
0.000584188
0.000595149
0.000605862
0.000616346
0.000626617
0.00063669
0.000646576
0.000656284
0.000665826
0.000675207
0.000684436
0.000693519
0.000702461
0.000711268
0.000719945
0.000728496
0.000736922
0.000745225
0.000753407
0.000761468
0.000769413
0.000777242
0.000784957
0.00079256
0.000800051
0.000807433
0.000814704
0.000821868
0.000828923
0.00083587
0.000842711
0.000849445
0.000856074
0.000862597
0.000869016
0.000875334
0.000881547
0.000887652
0.00089365
0.000899541
0.000905324
0.000910999
0.000916566
0.000922025
0.000927376
0.000932618
0.000937751
0.000942775
0.00094769
0.000952496
0.000957192
0.000961778
0.000966254
0.00097062
0.000974875
0.000979021
0.000983057
0.000986983
0.0009908
0.000994506
0.000998102
0.00100158
0.00100495
0.0010082
0.00101133
0.00101435
0.00101724
0.00102003
0.00102269
0.00102525
0.00102769
0.00103002
0.00103224
0.00103434
0.00103633
0.0010382
0.00103996
0.0010416
0.00104312
0.00104453
0.00104582
0.00104699
0.00104805
0.00104899
0.00104981
0.00105052
0.00105111
0.00105158
0.00105193
0.00105217
0.00105228
0.000640677
0.000659612
0.000677792
0.000695312
0.000712241
0.000728638
0.000744556
0.000760039
0.000775128
0.000789856
0.000804254
0.000818347
0.000832157
0.000845704
0.000859001
0.000872062
0.000884898
0.000897522
0.000909942
0.000922166
0.000934202
0.000946055
0.000957733
0.000969241
0.000980585
0.000991769
0.00100279
0.00101366
0.00102436
0.00103491
0.00104531
0.00105555
0.00106564
0.00107559
0.00108539
0.00109504
0.00110455
0.00111392
0.00112314
0.00113221
0.00114115
0.00114994
0.00115859
0.0011671
0.00117547
0.0011837
0.00119178
0.00119972
0.00120752
0.00121518
0.00122269
0.00123006
0.00123729
0.00124437
0.00125131
0.0012581
0.00126475
0.00127126
0.00127762
0.00128384
0.00128991
0.00129583
0.00130161
0.00130724
0.00131273
0.00131806
0.00132326
0.0013283
0.0013332
0.00133795
0.00134256
0.00134701
0.0013513
0.00135544
0.00135943
0.00136327
0.00136695
0.00137048
0.00137386
0.0013771
0.00138018
0.0013831
0.00138588
0.0013885
0.00139098
0.00139329
0.00139546
0.00139747
0.00139933
0.00140103
0.00140258
0.00140397
0.00140521
0.00140629
0.00140722
0.001408
0.00140862
0.00140908
0.00140939
0.00140954
0.00083159
0.000854762
0.000877113
0.00089875
0.000919736
0.000940128
0.000959977
0.000979328
0.000998221
0.00101669
0.00103477
0.00105249
0.00106986
0.00108692
0.00110369
0.00112016
0.00113637
0.0011523
0.00116799
0.00118343
0.00119864
0.00121362
0.00122838
0.00124293
0.00125726
0.00127139
0.00128531
0.00129903
0.00131255
0.00132588
0.00133901
0.00135196
0.00136471
0.00137728
0.00138967
0.00140187
0.00141388
0.00142571
0.00143737
0.00144884
0.00146013
0.00147124
0.00148217
0.00149292
0.00150349
0.00151388
0.00152409
0.00153412
0.00154397
0.00155364
0.00156313
0.00157243
0.00158156
0.00159051
0.00159927
0.00160785
0.00161625
0.00162446
0.0016325
0.00164035
0.00164801
0.00165549
0.00166279
0.0016699
0.00167682
0.00168356
0.00169012
0.00169648
0.00170267
0.00170866
0.00171446
0.00172008
0.0017255
0.00173073
0.00173576
0.00174061
0.00174526
0.00174972
0.00175398
0.00175806
0.00176195
0.00176564
0.00176914
0.00177245
0.00177557
0.00177849
0.00178122
0.00178376
0.0017861
0.00178824
0.00179019
0.00179195
0.00179351
0.00179488
0.00179605
0.00179702
0.0017978
0.00179838
0.00179877
0.00179896
0.00104112
0.0010687
0.00109539
0.00112132
0.00114654
0.00117112
0.00119509
0.00121852
0.00124142
0.00126384
0.0012858
0.00130735
0.00132849
0.00134926
0.00136967
0.00138974
0.00140949
0.00142892
0.00144805
0.00146689
0.00148545
0.00150373
0.00152175
0.0015395
0.001557
0.00157425
0.00159125
0.001608
0.00162452
0.0016408
0.00165684
0.00167265
0.00168824
0.00170359
0.00171872
0.00173362
0.0017483
0.00176276
0.001777
0.00179101
0.0018048
0.00181837
0.00183173
0.00184486
0.00185777
0.00187046
0.00188294
0.00189519
0.00190722
0.00191903
0.00193062
0.00194199
0.00195314
0.00196406
0.00197476
0.00198524
0.0019955
0.00200553
0.00201534
0.00202493
0.00203428
0.00204342
0.00205233
0.00206101
0.00206946
0.00207769
0.00208569
0.00209346
0.002101
0.00210832
0.0021154
0.00212225
0.00212886
0.00213525
0.00214139
0.0021473
0.00215298
0.00215843
0.00216364
0.00216861
0.00217336
0.00217786
0.00218214
0.00218617
0.00218997
0.00219354
0.00219686
0.00219995
0.00220281
0.00220542
0.0022078
0.00220994
0.00221184
0.00221351
0.00221493
0.00221612
0.00221707
0.00221778
0.00221825
0.00221849
0.0012689
0.00130101
0.00133218
0.00136255
0.00139217
0.00142108
0.00144934
0.00147698
0.00150405
0.00153057
0.00155658
0.00158212
0.0016072
0.00163185
0.00165609
0.00167993
0.00170339
0.0017265
0.00174925
0.00177166
0.00179373
0.00181549
0.00183693
0.00185807
0.0018789
0.00189943
0.00191968
0.00193963
0.0019593
0.00197869
0.0019978
0.00201664
0.0020352
0.00205349
0.00207152
0.00208927
0.00210676
0.00212398
0.00214094
0.00215764
0.00217407
0.00219024
0.00220615
0.00222179
0.00223717
0.00225229
0.00226715
0.00228174
0.00229607
0.00231014
0.00232394
0.00233748
0.00235076
0.00236377
0.00237651
0.002389
0.00240121
0.00241316
0.00242484
0.00243625
0.00244739
0.00245826
0.00246887
0.0024792
0.00248927
0.00249906
0.00250858
0.00251783
0.00252681
0.00253551
0.00254394
0.00255209
0.00255996
0.00256756
0.00257487
0.00258191
0.00258867
0.00259515
0.00260135
0.00260727
0.00261291
0.00261827
0.00262335
0.00262816
0.00263268
0.00263691
0.00264087
0.00264455
0.00264794
0.00265105
0.00265387
0.00265642
0.00265868
0.00266065
0.00266235
0.00266376
0.00266489
0.00266573
0.00266629
0.00266657
0.00151466
0.00155141
0.00158718
0.0016221
0.00165623
0.0016896
0.00172228
0.00175428
0.00178566
0.00181644
0.00184666
0.00187634
0.00190552
0.00193421
0.00196243
0.00199021
0.00201756
0.0020445
0.00207103
0.00209717
0.00212293
0.00214832
0.00217335
0.00219802
0.00222234
0.00224632
0.00226995
0.00229326
0.00231623
0.00233888
0.0023612
0.0023832
0.00240489
0.00242626
0.00244731
0.00246805
0.00248848
0.0025086
0.00252841
0.00254792
0.00256711
0.002586
0.00260458
0.00262285
0.00264082
0.00265848
0.00267583
0.00269287
0.00270961
0.00272604
0.00274216
0.00275798
0.00277348
0.00278867
0.00280356
0.00281813
0.00283239
0.00284634
0.00285997
0.0028733
0.00288631
0.002899
0.00291138
0.00292345
0.00293519
0.00294662
0.00295774
0.00296853
0.002979
0.00298916
0.00299899
0.0030085
0.00301768
0.00302655
0.00303508
0.00304329
0.00305118
0.00305874
0.00306598
0.00307288
0.00307947
0.00308572
0.00309165
0.00309725
0.00310252
0.00310746
0.00311207
0.00311635
0.00312031
0.00312393
0.00312723
0.00313019
0.00313282
0.00313513
0.0031371
0.00313874
0.00314005
0.00314104
0.00314169
0.00314202
0.00177823
0.00181972
0.00186019
0.00189977
0.00193852
0.00197648
0.0020137
0.0020502
0.00208602
0.0021212
0.00215577
0.00218975
0.00222317
0.00225605
0.00228841
0.00232028
0.00235166
0.00238258
0.00241304
0.00244306
0.00247265
0.00250182
0.00253058
0.00255893
0.00258688
0.00261444
0.00264161
0.0026684
0.00269482
0.00272085
0.00274652
0.00277182
0.00279676
0.00282133
0.00284554
0.00286939
0.00289288
0.00291602
0.0029388
0.00296123
0.0029833
0.00300502
0.00302638
0.00304739
0.00306805
0.00308835
0.0031083
0.0031279
0.00314714
0.00316603
0.00318456
0.00320274
0.00322056
0.00323803
0.00325513
0.00327188
0.00328827
0.00330431
0.00331998
0.00333529
0.00335024
0.00336483
0.00337905
0.00339291
0.00340641
0.00341954
0.00343231
0.00344471
0.00345674
0.0034684
0.00347969
0.00349061
0.00350116
0.00351134
0.00352115
0.00353058
0.00353963
0.00354832
0.00355662
0.00356456
0.00357211
0.00357929
0.0035861
0.00359252
0.00359857
0.00360425
0.00360954
0.00361445
0.00361899
0.00362315
0.00362692
0.00363032
0.00363334
0.00363598
0.00363824
0.00364013
0.00364163
0.00364276
0.00364351
0.00364388
0.00205953
0.00210587
0.00215114
0.00219549
0.00223898
0.00228165
0.00232352
0.00236465
0.00240504
0.00244475
0.00248379
0.0025222
0.00256
0.0025972
0.00263384
0.00266993
0.00270548
0.00274051
0.00277504
0.00280908
0.00284263
0.00287571
0.00290833
0.0029405
0.00297221
0.00300348
0.00303432
0.00306472
0.0030947
0.00312425
0.00315339
0.0031821
0.00321041
0.0032383
0.00326578
0.00329286
0.00331952
0.00334579
0.00337165
0.0033971
0.00342216
0.00344681
0.00347106
0.0034949
0.00351835
0.00354139
0.00356404
0.00358628
0.00360811
0.00362955
0.00365058
0.00367121
0.00369143
0.00371124
0.00373065
0.00374966
0.00376825
0.00378644
0.00380422
0.00382159
0.00383855
0.00385509
0.00387123
0.00388695
0.00390226
0.00391715
0.00393162
0.00394568
0.00395933
0.00397255
0.00398535
0.00399773
0.00400969
0.00402123
0.00403235
0.00404304
0.00405331
0.00406315
0.00407256
0.00408155
0.00409012
0.00409825
0.00410596
0.00411325
0.0041201
0.00412652
0.00413252
0.00413809
0.00414322
0.00414793
0.00415221
0.00415605
0.00415947
0.00416246
0.00416501
0.00416714
0.00416884
0.00417012
0.00417096
0.00417139
0.00235852
0.0024098
0.00245998
0.00250921
0.00255755
0.00260502
0.00265167
0.00269752
0.00274261
0.00278696
0.0028306
0.00287355
0.00291585
0.0029575
0.00299853
0.00303897
0.00307881
0.00311809
0.00315681
0.00319498
0.00323262
0.00326974
0.00330634
0.00334244
0.00337803
0.00341313
0.00344775
0.00348188
0.00351554
0.00354872
0.00358143
0.00361368
0.00364546
0.00367678
0.00370764
0.00373804
0.00376798
0.00379747
0.00382651
0.00385509
0.00388323
0.00391091
0.00393813
0.00396491
0.00399123
0.0040171
0.00404253
0.00406749
0.00409201
0.00411607
0.00413968
0.00416283
0.00418553
0.00420778
0.00422956
0.00425089
0.00427176
0.00429217
0.00431213
0.00433162
0.00435065
0.00436922
0.00438732
0.00440496
0.00442213
0.00443884
0.00445508
0.00447085
0.00448616
0.00450099
0.00451535
0.00452924
0.00454265
0.00455559
0.00456806
0.00458005
0.00459156
0.0046026
0.00461316
0.00462324
0.00463284
0.00464196
0.00465061
0.00465877
0.00466645
0.00467365
0.00468037
0.00468661
0.00469236
0.00469764
0.00470243
0.00470674
0.00471056
0.00471391
0.00471677
0.00471915
0.00472106
0.00472248
0.00472343
0.0047239
0.00267522
0.00273154
0.00278672
0.00284091
0.00289419
0.00294657
0.00299808
0.00304877
0.00309865
0.00314775
0.00319609
0.0032437
0.0032906
0.00333681
0.00338236
0.00342725
0.0034715
0.00351513
0.00355815
0.00360058
0.00364241
0.00368368
0.00372438
0.00376451
0.0038041
0.00384314
0.00388165
0.00391961
0.00395705
0.00399397
0.00403036
0.00406623
0.00410159
0.00413644
0.00417077
0.0042046
0.00423792
0.00427073
0.00430304
0.00433484
0.00436614
0.00439694
0.00442723
0.00445702
0.0044863
0.00451509
0.00454337
0.00457114
0.00459841
0.00462518
0.00465144
0.00467719
0.00470244
0.00472718
0.00475141
0.00477514
0.00479835
0.00482105
0.00484324
0.00486491
0.00488607
0.00490672
0.00492685
0.00494646
0.00496555
0.00498413
0.00500218
0.00501972
0.00503673
0.00505322
0.00506918
0.00508462
0.00509953
0.00511391
0.00512776
0.00514109
0.00515389
0.00516615
0.00517788
0.00518909
0.00519976
0.00520989
0.00521949
0.00522856
0.0052371
0.0052451
0.00525256
0.00525949
0.00526588
0.00527173
0.00527705
0.00528183
0.00528608
0.00528979
0.00529297
0.00529562
0.00529773
0.0052993
0.00530036
0.00530088
0.00300968
0.00307111
0.00313137
0.00319062
0.00324892
0.0033063
0.00336278
0.00341838
0.00347315
0.00352709
0.00358023
0.0036326
0.00368421
0.00373508
0.00378523
0.00383468
0.00388344
0.00393153
0.00397896
0.00402574
0.00407188
0.00411739
0.00416229
0.00420657
0.00425025
0.00429333
0.00433582
0.00437772
0.00441904
0.00445979
0.00449996
0.00453956
0.00457859
0.00461705
0.00465495
0.00469229
0.00472907
0.0047653
0.00480096
0.00483607
0.00487062
0.00490461
0.00493805
0.00497093
0.00500326
0.00503503
0.00506624
0.0050969
0.005127
0.00515654
0.00518552
0.00521394
0.00524181
0.00526911
0.00529585
0.00532203
0.00534764
0.00537269
0.00539717
0.00542108
0.00544443
0.00546721
0.00548942
0.00551105
0.00553212
0.00555261
0.00557253
0.00559187
0.00561063
0.00562881
0.00564642
0.00566345
0.00567989
0.00569575
0.00571103
0.00572573
0.00573984
0.00575336
0.0057663
0.00577865
0.00579042
0.00580159
0.00581218
0.00582218
0.00583158
0.0058404
0.00584863
0.00585626
0.00586331
0.00586976
0.00587562
0.00588089
0.00588557
0.00588966
0.00589316
0.00589607
0.0058984
0.00590013
0.00590129
0.00590187
0.00336196
0.00342858
0.00349401
0.0035584
0.0036218
0.00368426
0.00374578
0.0038064
0.00386613
0.003925
0.00398303
0.00404024
0.00409665
0.00415227
0.00420713
0.00426123
0.00431459
0.00436724
0.00441916
0.00447039
0.00452093
0.00457079
0.00461997
0.0046685
0.00471636
0.00476357
0.00481014
0.00485607
0.00490137
0.00494603
0.00499006
0.00503347
0.00507626
0.00511843
0.00515999
0.00520093
0.00524125
0.00528096
0.00532006
0.00535855
0.00539643
0.0054337
0.00547035
0.0055064
0.00554184
0.00557667
0.00561089
0.00564449
0.00567749
0.00570987
0.00574164
0.00577279
0.00580333
0.00583326
0.00586257
0.00589126
0.00591933
0.00594678
0.00597361
0.00599982
0.0060254
0.00605036
0.0060747
0.00609841
0.00612149
0.00614394
0.00616576
0.00618695
0.0062075
0.00622743
0.00624671
0.00626537
0.00628338
0.00630076
0.00631749
0.00633359
0.00634905
0.00636386
0.00637803
0.00639156
0.00640444
0.00641668
0.00642828
0.00643922
0.00644952
0.00645918
0.00646819
0.00647655
0.00648426
0.00649132
0.00649774
0.00650351
0.00650863
0.00651311
0.00651694
0.00652012
0.00652266
0.00652457
0.00652583
0.00652646
0.00373215
0.00380405
0.00387472
0.00394432
0.00401291
0.00408051
0.00414716
0.00421286
0.00427764
0.00434153
0.00440453
0.00446666
0.00452795
0.00458841
0.00464805
0.00470689
0.00476495
0.00482223
0.00487874
0.00493451
0.00498953
0.00504382
0.00509738
0.00515023
0.00520236
0.00525379
0.00530453
0.00535457
0.00540392
0.00545258
0.00550056
0.00554787
0.00559449
0.00564045
0.00568573
0.00573034
0.00577428
0.00581756
0.00586017
0.00590211
0.00594339
0.005984
0.00602395
0.00606324
0.00610185
0.00613981
0.00617709
0.00621371
0.00624966
0.00628495
0.00631956
0.00635351
0.00638678
0.00641939
0.00645132
0.00648257
0.00651315
0.00654306
0.00657229
0.00660084
0.00662871
0.0066559
0.0066824
0.00670823
0.00673337
0.00675782
0.00678158
0.00680466
0.00682705
0.00684874
0.00686975
0.00689006
0.00690968
0.0069286
0.00694682
0.00696435
0.00698118
0.00699731
0.00701274
0.00702747
0.0070415
0.00705482
0.00706744
0.00707936
0.00709057
0.00710108
0.00711089
0.00711999
0.00712838
0.00713607
0.00714306
0.00714933
0.00715491
0.00715978
0.00716395
0.00716741
0.00717018
0.00717225
0.00717363
0.00717431
0.00412038
0.00419762
0.00427361
0.00434849
0.00442233
0.00449516
0.00456699
0.00463786
0.00470776
0.00477673
0.00484477
0.00491191
0.00497816
0.00504353
0.00510803
0.00517169
0.00523451
0.00529651
0.00535769
0.00541807
0.00547766
0.00553645
0.00559447
0.00565172
0.00570821
0.00576394
0.00581891
0.00587314
0.00592662
0.00597936
0.00603136
0.00608263
0.00613317
0.00618298
0.00623207
0.00628042
0.00632805
0.00637496
0.00642115
0.00646662
0.00651136
0.00655538
0.00659868
0.00664126
0.00668312
0.00672426
0.00676467
0.00680436
0.00684333
0.00688157
0.00691909
0.00695588
0.00699194
0.00702727
0.00706188
0.00709575
0.00712889
0.00716129
0.00719297
0.0072239
0.0072541
0.00728356
0.00731228
0.00734026
0.0073675
0.00739399
0.00741974
0.00744474
0.00746899
0.00749249
0.00751525
0.00753725
0.0075585
0.007579
0.00759874
0.00761772
0.00763595
0.00765342
0.00767013
0.00768609
0.00770128
0.00771571
0.00772938
0.00774229
0.00775443
0.00776581
0.00777643
0.00778628
0.00779537
0.0078037
0.00781126
0.00781806
0.00782409
0.00782937
0.00783388
0.00783763
0.00784063
0.00784287
0.00784436
0.0078451
0.00452676
0.00460941
0.00469078
0.00477101
0.00485017
0.00492829
0.00500538
0.00508147
0.00515657
0.00523069
0.00530384
0.00537605
0.00544732
0.00551768
0.00558712
0.00565566
0.00572332
0.00579011
0.00585603
0.0059211
0.00598532
0.0060487
0.00611125
0.00617297
0.00623388
0.00629397
0.00635326
0.00641174
0.00646942
0.00652631
0.00658241
0.00663771
0.00669223
0.00674596
0.00679891
0.00685108
0.00690246
0.00695307
0.00700289
0.00705194
0.00710021
0.0071477
0.00719442
0.00724035
0.00728551
0.00732988
0.00737348
0.00741629
0.00745833
0.00749958
0.00754004
0.00757973
0.00761862
0.00765673
0.00769406
0.00773059
0.00776633
0.00780128
0.00783544
0.0078688
0.00790137
0.00793314
0.00796411
0.00799428
0.00802365
0.00805222
0.00807998
0.00810694
0.00813309
0.00815843
0.00818296
0.00820669
0.0082296
0.00825169
0.00827298
0.00829344
0.0083131
0.00833193
0.00834995
0.00836714
0.00838352
0.00839908
0.00841381
0.00842772
0.00844081
0.00845308
0.00846453
0.00847515
0.00848494
0.00849392
0.00850207
0.00850939
0.0085159
0.00852158
0.00852645
0.00853049
0.00853372
0.00853614
0.00853775
0.00853855
0.00495142
0.00503954
0.00512635
0.005212
0.00529655
0.00538002
0.00546244
0.00554381
0.00562416
0.00570349
0.00578182
0.00585917
0.00593553
0.00601093
0.00608537
0.00615887
0.00623143
0.00630307
0.0063738
0.00644361
0.00651253
0.00658056
0.00664771
0.00671397
0.00677936
0.00684389
0.00690755
0.00697035
0.0070323
0.0070934
0.00715364
0.00721305
0.0072716
0.00732932
0.00738619
0.00744223
0.00749742
0.00755178
0.00760531
0.00765799
0.00770984
0.00776086
0.00781103
0.00786038
0.00790888
0.00795654
0.00800337
0.00804936
0.00809451
0.00813881
0.00818228
0.0082249
0.00826667
0.0083076
0.00834769
0.00838692
0.00842531
0.00846284
0.00849952
0.00853535
0.00857032
0.00860443
0.00863769
0.00867009
0.00870162
0.0087323
0.00876211
0.00879105
0.00881913
0.00884633
0.00887267
0.00889814
0.00892274
0.00894646
0.00896931
0.00899128
0.00901238
0.00903259
0.00905193
0.00907039
0.00908797
0.00910467
0.00912049
0.00913542
0.00914947
0.00916264
0.00917492
0.00918632
0.00919684
0.00920647
0.00921522
0.00922308
0.00923007
0.00923617
0.00924139
0.00924573
0.0092492
0.00925179
0.00925352
0.00925438
0.00539449
0.00548815
0.00558047
0.0056716
0.00576159
0.00585047
0.00593826
0.00602498
0.00611064
0.00619525
0.00627881
0.00636134
0.00644285
0.00652335
0.00660285
0.00668136
0.00675889
0.00683544
0.00691103
0.00698566
0.00705934
0.00713207
0.00720387
0.00727473
0.00734467
0.00741369
0.00748178
0.00754896
0.00761523
0.00768059
0.00774505
0.0078086
0.00787125
0.00793301
0.00799386
0.00805382
0.00811288
0.00817104
0.00822831
0.00828469
0.00834017
0.00839475
0.00844844
0.00850124
0.00855313
0.00860413
0.00865424
0.00870344
0.00875174
0.00879915
0.00884565
0.00889125
0.00893594
0.00897973
0.00902261
0.00906459
0.00910565
0.0091458
0.00918504
0.00922337
0.00926077
0.00929727
0.00933284
0.00936749
0.00940122
0.00943403
0.00946591
0.00949687
0.0095269
0.009556
0.00958417
0.0096114
0.00963771
0.00966308
0.00968751
0.00971101
0.00973357
0.00975519
0.00977587
0.00979561
0.00981441
0.00983226
0.00984918
0.00986515
0.00988017
0.00989425
0.00990738
0.00991957
0.00993082
0.00994112
0.00995047
0.00995888
0.00996635
0.00997287
0.00997846
0.0099831
0.00998681
0.00998958
0.00999143
0.00999235
0.00585612
0.00595537
0.00605325
0.00614991
0.0062454
0.00633975
0.00643298
0.0065251
0.00661612
0.00670605
0.00679489
0.00688267
0.00696938
0.00705504
0.00713965
0.00722322
0.00730576
0.00738728
0.00746779
0.00754728
0.00762577
0.00770327
0.00777977
0.00785528
0.00792982
0.00800337
0.00807595
0.00814757
0.00821821
0.00828789
0.0083566
0.00842436
0.00849115
0.00855699
0.00862187
0.0086858
0.00874877
0.00881078
0.00887184
0.00893195
0.00899111
0.00904931
0.00910655
0.00916284
0.00921817
0.00927255
0.00932597
0.00937843
0.00942993
0.00948047
0.00953004
0.00957865
0.0096263
0.00967298
0.0097187
0.00976344
0.00980722
0.00985002
0.00989184
0.0099327
0.00997257
0.0100115
0.0100494
0.0100863
0.0101223
0.0101572
0.0101912
0.0102242
0.0102562
0.0102872
0.0103172
0.0103463
0.0103743
0.0104013
0.0104274
0.0104524
0.0104765
0.0104995
0.0105215
0.0105426
0.0105626
0.0105816
0.0105997
0.0106167
0.0106327
0.0106477
0.0106617
0.0106747
0.0106867
0.0106976
0.0107076
0.0107166
0.0107245
0.0107315
0.0107374
0.0107424
0.0107463
0.0107493
0.0107512
0.0107522
0.00633643
0.00644133
0.00654484
0.00664709
0.00674813
0.00684799
0.00694671
0.00704427
0.0071407
0.007236
0.00733018
0.00742325
0.00751521
0.00760607
0.00769584
0.00778452
0.00787212
0.00795866
0.00804412
0.00812853
0.00821188
0.00829418
0.00837543
0.00845565
0.00853482
0.00861297
0.00869008
0.00876617
0.00884123
0.00891527
0.00898828
0.00906028
0.00913127
0.00920123
0.00927018
0.00933812
0.00940504
0.00947095
0.00953585
0.00959973
0.00966259
0.00972445
0.00978528
0.00984511
0.00990391
0.0099617
0.0100185
0.0100742
0.0101289
0.0101827
0.0102353
0.010287
0.0103376
0.0103872
0.0104358
0.0104834
0.0105299
0.0105753
0.0106198
0.0106632
0.0107056
0.0107469
0.0107872
0.0108264
0.0108646
0.0109018
0.0109379
0.0109729
0.0110069
0.0110398
0.0110717
0.0111026
0.0111324
0.0111611
0.0111887
0.0112153
0.0112409
0.0112653
0.0112888
0.0113111
0.0113324
0.0113526
0.0113717
0.0113898
0.0114068
0.0114227
0.0114376
0.0114514
0.0114641
0.0114758
0.0114864
0.0114959
0.0115043
0.0115117
0.0115181
0.0115233
0.0115275
0.0115307
0.0115327
0.0115338
0.00683558
0.00694618
0.00705536
0.00716324
0.00726988
0.00737531
0.00747955
0.00758261
0.0076845
0.00778521
0.00788477
0.00798317
0.00808042
0.00817652
0.00827149
0.00836533
0.00845804
0.00854962
0.0086401
0.00872945
0.0088177
0.00890485
0.0089909
0.00907585
0.00915971
0.00924249
0.00932417
0.00940477
0.00948429
0.00956273
0.00964009
0.00971637
0.00979158
0.00986571
0.00993877
0.0100108
0.0100817
0.0101515
0.0102203
0.010288
0.0103546
0.0104201
0.0104846
0.010548
0.0106103
0.0106715
0.0107316
0.0107907
0.0108487
0.0109056
0.0109614
0.0110162
0.0110698
0.0111224
0.0111738
0.0112242
0.0112735
0.0113216
0.0113687
0.0114147
0.0114596
0.0115034
0.011546
0.0115876
0.0116281
0.0116674
0.0117056
0.0117428
0.0117788
0.0118137
0.0118475
0.0118801
0.0119117
0.0119421
0.0119714
0.0119995
0.0120266
0.0120525
0.0120773
0.012101
0.0121235
0.0121449
0.0121652
0.0121843
0.0122023
0.0122192
0.0122349
0.0122496
0.012263
0.0122754
0.0122866
0.0122967
0.0123056
0.0123135
0.0123201
0.0123257
0.0123302
0.0123335
0.0123357
0.0123368
0.0073537
0.00747005
0.00758494
0.00769851
0.00781079
0.00792183
0.00803164
0.00814023
0.00824761
0.00835378
0.00845875
0.00856253
0.0086651
0.00876649
0.0088667
0.00896573
0.00906358
0.00916025
0.00925577
0.00935011
0.0094433
0.00953533
0.00962621
0.00971594
0.00980452
0.00989195
0.00997824
0.0100634
0.0101474
0.0102303
0.010312
0.0103926
0.0104721
0.0105504
0.0106276
0.0107037
0.0107786
0.0108524
0.0109251
0.0109966
0.011067
0.0111362
0.0112043
0.0112713
0.0113372
0.0114019
0.0114654
0.0115278
0.0115891
0.0116492
0.0117082
0.011766
0.0118227
0.0118782
0.0119326
0.0119858
0.0120379
0.0120888
0.0121385
0.0121871
0.0122345
0.0122808
0.0123258
0.0123697
0.0124125
0.012454
0.0124944
0.0125337
0.0125717
0.0126086
0.0126442
0.0126787
0.012712
0.0127442
0.0127751
0.0128049
0.0128334
0.0128608
0.012887
0.012912
0.0129358
0.0129584
0.0129798
0.013
0.013019
0.0130369
0.0130535
0.0130689
0.0130832
0.0130962
0.013108
0.0131187
0.0131282
0.0131364
0.0131435
0.0131494
0.0131541
0.0131576
0.0131599
0.0131611
0.00789091
0.00801305
0.00813371
0.008253
0.00837097
0.00848766
0.00860308
0.00871724
0.00883015
0.00894181
0.00905223
0.00916141
0.00926935
0.00937606
0.00948153
0.00958578
0.0096888
0.00979061
0.00989119
0.00999056
0.0100887
0.0101857
0.0102814
0.0103759
0.0104693
0.0105614
0.0106523
0.010742
0.0108306
0.0109179
0.011004
0.011089
0.0111727
0.0112553
0.0113367
0.0114168
0.0114958
0.0115736
0.0116502
0.0117255
0.0117997
0.0118727
0.0119445
0.0120151
0.0120845
0.0121527
0.0122197
0.0122855
0.01235
0.0124134
0.0124756
0.0125365
0.0125962
0.0126548
0.0127121
0.0127681
0.012823
0.0128766
0.012929
0.0129802
0.0130302
0.0130789
0.0131264
0.0131727
0.0132177
0.0132615
0.0133041
0.0133454
0.0133855
0.0134243
0.0134619
0.0134982
0.0135333
0.0135672
0.0135998
0.0136311
0.0136612
0.0136901
0.0137176
0.013744
0.013769
0.0137929
0.0138154
0.0138367
0.0138568
0.0138755
0.0138931
0.0139093
0.0139243
0.0139381
0.0139505
0.0139618
0.0139717
0.0139804
0.0139879
0.0139941
0.013999
0.0140027
0.0140052
0.0140064
0.00844734
0.00857533
0.00870179
0.00882684
0.00895054
0.00907291
0.00919397
0.00931374
0.00943221
0.0095494
0.0096653
0.00977991
0.00989324
0.0100053
0.0101161
0.0102256
0.0103338
0.0104407
0.0105464
0.0106508
0.010754
0.0108559
0.0109565
0.0110558
0.011154
0.0112508
0.0113464
0.0114407
0.0115338
0.0116256
0.0117162
0.0118055
0.0118935
0.0119803
0.0120659
0.0121502
0.0122332
0.012315
0.0123955
0.0124748
0.0125528
0.0126296
0.0127051
0.0127793
0.0128523
0.0129239
0.0129944
0.0130635
0.0131314
0.0131981
0.0132634
0.0133275
0.0133903
0.0134518
0.013512
0.013571
0.0136287
0.0136851
0.0137402
0.013794
0.0138465
0.0138977
0.0139476
0.0139963
0.0140436
0.0140897
0.0141344
0.0141778
0.0142199
0.0142608
0.0143003
0.0143385
0.0143754
0.0144109
0.0144452
0.0144781