/*--------------------------------*- C++ -*----------------------------------*\
  =========                 |
  \\      /  F ield         | OpenFOAM: The Open Source CFD Toolbox
   \\    /   O peration     | Website:  https://openfoam.org
    \\  /    A nd           | Version:  8
     \\/     M anipulation  |
\*---------------------------------------------------------------------------*/
FoamFile
{
    version     2.0;
    format      ascii;
    class       volScalarField;
    location    "9.5";
    object      nuTilda;
}
// * * * * * * * * * * * * * * * * * * * * * * * * * * * * * * * * * * * * * //

dimensions      [0 2 -1 0 0 0 0];

internalField   nonuniform List<scalar> 
173000
(
9.73192e-05
0.000102304
0.000106619
0.000110316
0.000113516
0.000116296
0.000118719
0.000120834
0.000122679
0.000124286
0.000125683
0.000126893
0.000127939
0.000128845
0.000129635
0.000130338
0.000130985
0.000131602
0.000132211
0.000132816
0.0001334
0.000133932
0.000134382
0.000134726
0.000134947
0.000135036
0.000135036
0.00013497
0.000134838
0.000134642
0.000134384
0.000134065
0.000133686
0.000133248
0.000132752
0.000132199
0.000131589
0.000130924
0.000130205
0.00012943
0.000128602
0.000127721
0.000126786
0.000125798
0.000124757
0.000123663
0.000122516
0.000121316
0.000120062
0.000118753
0.00011739
0.00011597
0.000114493
0.000112957
0.00011136
0.000109699
0.000107972
0.000106174
0.0001043
0.000102345
0.0001003
9.81563e-05
9.58992e-05
9.35102e-05
9.09619e-05
8.82132e-05
8.52003e-05
8.18263e-05
7.7956e-05
7.3437e-05
6.81878e-05
6.23716e-05
5.65526e-05
5.15254e-05
4.77482e-05
4.52408e-05
4.40487e-05
4.3818e-05
4.37894e-05
4.38208e-05
4.38433e-05
4.38613e-05
4.38743e-05
4.38821e-05
4.38847e-05
4.38821e-05
4.38742e-05
4.38611e-05
4.38427e-05
4.38192e-05
4.37904e-05
4.37565e-05
4.37176e-05
4.36736e-05
4.36247e-05
4.35709e-05
4.35113e-05
4.34445e-05
4.33667e-05
4.32615e-05
0.000160273
0.000160871
0.000161262
0.000161383
0.000161285
0.000160987
0.000160504
0.000159846
0.00015902
0.000158034
0.000156894
0.000155611
0.000154202
0.000152691
0.000151119
0.000149552
0.000148091
0.000146881
0.000146102
0.000145917
0.00014637
0.000147324
0.000148565
0.000149948
0.000151399
0.000152894
0.000154384
0.000155848
0.00015729
0.00015871
0.000160109
0.000161487
0.000162845
0.000164183
0.000165501
0.000166801
0.000168082
0.000169345
0.00017059
0.000171817
0.000173027
0.00017422
0.000175395
0.000176553
0.000177694
0.000178818
0.000179925
0.000181016
0.000182089
0.000183147
0.000184188
0.000185212
0.000186221
0.000187213
0.00018819
0.00018915
0.000190095
0.000191024
0.000191939
0.000192838
0.000193722
0.000194593
0.00019545
0.000196296
0.000197133
0.000197964
0.000198795
0.000199634
0.000200491
0.000201375
0.000202286
0.000203209
0.00020411
0.000204948
0.0002057
0.000206363
0.000206943
0.000207468
0.000207967
0.000208446
0.000208904
0.000209341
0.000209754
0.000210145
0.000210512
0.000210856
0.000211176
0.000211473
0.000211745
0.000211994
0.000212218
0.000212419
0.000212596
0.000212748
0.000212878
0.000212983
0.000213064
0.000213117
0.000213134
0.000213088
0.000207416
0.00021132
0.000216367
0.000221311
0.00022614
0.000230856
0.000235469
0.00023999
0.000244431
0.000248801
0.000253111
0.000257369
0.000261583
0.000265761
0.00026991
0.000274034
0.000278134
0.00028221
0.000286257
0.000290263
0.000294215
0.000298099
0.000301904
0.000305623
0.000309274
0.000312864
0.000316401
0.000319886
0.000323319
0.000326703
0.000330038
0.000333326
0.000336567
0.000339762
0.000342911
0.000346014
0.000349073
0.000352086
0.000355056
0.000357981
0.000360862
0.000363699
0.000366492
0.000369241
0.000371946
0.000374607
0.000377222
0.000379793
0.000382318
0.000384798
0.000387233
0.000389622
0.000391966
0.000394265
0.000396517
0.000398724
0.000400884
0.000402998
0.000405066
0.000407087
0.000409062
0.000410989
0.000412871
0.000414706
0.000416495
0.000418239
0.000419939
0.000421595
0.000423207
0.000424775
0.000426297
0.00042777
0.000429187
0.000430548
0.000431852
0.000433103
0.000434306
0.000435461
0.000436571
0.000437635
0.000438651
0.000439619
0.000440537
0.000441406
0.000442226
0.000442994
0.000443713
0.00044438
0.000444997
0.000445563
0.000446077
0.000446541
0.000446955
0.000447317
0.000447629
0.00044789
0.000448099
0.000448256
0.00044836
0.000448399
0.000321501
0.000331986
0.000342092
0.000351755
0.000361034
0.000369973
0.00037861
0.000386979
0.000395108
0.000403021
0.000410738
0.000418277
0.000425651
0.000432872
0.00043995
0.000446893
0.000453708
0.000460401
0.000466977
0.000473439
0.000479792
0.00048604
0.000492186
0.000498237
0.000504196
0.000510067
0.000515852
0.000521552
0.000527168
0.000532703
0.000538159
0.000543535
0.000548834
0.000554057
0.000559203
0.000564274
0.000569271
0.000574192
0.00057904
0.000583815
0.000588516
0.000593144
0.000597701
0.000602185
0.000606597
0.000610936
0.0006152
0.000619391
0.000623506
0.000627547
0.000631514
0.000635406
0.000639222
0.000642964
0.00064663
0.000650221
0.000653736
0.000657175
0.000660539
0.000663825
0.000667036
0.00067017
0.000673227
0.000676208
0.000679113
0.000681942
0.000684696
0.000687375
0.000689978
0.000692506
0.000694956
0.000697324
0.000699608
0.000701807
0.000703921
0.000705952
0.000707904
0.00070978
0.000711578
0.000713298
0.00071494
0.000716503
0.000717985
0.000719387
0.000720708
0.000721948
0.000723106
0.000724183
0.000725177
0.000726089
0.00072692
0.000727668
0.000728335
0.000728919
0.000729422
0.000729842
0.00073018
0.000730434
0.000730601
0.000730678
0.000470536
0.00048532
0.000499441
0.000512981
0.000526008
0.000538581
0.00055075
0.000562558
0.000574042
0.000585232
0.000596154
0.000606832
0.000617284
0.000627525
0.000637569
0.000647428
0.000657112
0.00066663
0.00067599
0.000685198
0.000694261
0.000703184
0.000711974
0.000720634
0.000729168
0.000737579
0.000745868
0.000754036
0.000762084
0.000770016
0.000777833
0.000785537
0.000793128
0.000800609
0.00080798
0.000815243
0.000822396
0.000829443
0.000836382
0.000843214
0.00084994
0.000856561
0.000863077
0.00086949
0.0008758
0.000882007
0.000888106
0.000894098
0.000899983
0.00090576
0.00091143
0.000916991
0.000922445
0.000927791
0.000933029
0.000938157
0.000943177
0.000948088
0.00095289
0.000957582
0.000962164
0.000966637
0.000970999
0.000975252
0.000979394
0.000983427
0.00098735
0.000991164
0.000994868
0.000998461
0.00100194
0.00100531
0.00100855
0.00101168
0.00101469
0.00101759
0.00102037
0.00102304
0.00102559
0.00102803
0.00103036
0.00103258
0.00103468
0.00103666
0.00103853
0.00104029
0.00104193
0.00104345
0.00104485
0.00104614
0.00104732
0.00104837
0.00104931
0.00105014
0.00105084
0.00105143
0.0010519
0.00105226
0.00105249
0.0010526
0.000641546
0.000660432
0.000678568
0.00069605
0.000712944
0.00072931
0.000745199
0.000760657
0.000775722
0.000790428
0.000804806
0.00081888
0.000832673
0.000846203
0.000859485
0.000872531
0.000885355
0.000897966
0.000910373
0.000922586
0.000934611
0.000946455
0.000958123
0.000969622
0.000980957
0.000992133
0.00100315
0.001014
0.0010247
0.00103524
0.00104563
0.00105587
0.00106596
0.0010759
0.00108569
0.00109534
0.00110484
0.0011142
0.00112342
0.00113249
0.00114142
0.00115021
0.00115886
0.00116736
0.00117573
0.00118395
0.00119203
0.00119997
0.00120776
0.00121542
0.00122293
0.00123029
0.00123752
0.0012446
0.00125154
0.00125833
0.00126498
0.00127148
0.00127784
0.00128405
0.00129012
0.00129604
0.00130182
0.00130745
0.00131293
0.00131827
0.00132346
0.00132851
0.0013334
0.00133815
0.00134275
0.0013472
0.0013515
0.00135564
0.00135963
0.00136346
0.00136714
0.00137067
0.00137405
0.00137728
0.00138036
0.00138329
0.00138607
0.00138869
0.00139116
0.00139348
0.00139564
0.00139765
0.00139951
0.00140121
0.00140276
0.00140415
0.00140539
0.00140648
0.00140741
0.00140818
0.0014088
0.00140926
0.00140957
0.00140972
0.000832106
0.000855251
0.000877577
0.000899192
0.000920159
0.000940532
0.000960365
0.000979701
0.00099858
0.00101704
0.0010351
0.00105281
0.00107018
0.00108723
0.00110398
0.00112045
0.00113664
0.00115257
0.00116825
0.00118369
0.00119889
0.00121387
0.00122862
0.00124316
0.00125749
0.00127161
0.00128553
0.00129924
0.00131276
0.00132608
0.00133921
0.00135215
0.00136491
0.00137747
0.00138985
0.00140205
0.00141406
0.00142589
0.00143754
0.00144901
0.00146029
0.0014714
0.00148233
0.00149308
0.00150364
0.00151403
0.00152424
0.00153427
0.00154412
0.00155378
0.00156327
0.00157258
0.0015817
0.00159065
0.00159941
0.00160799
0.00161639
0.0016246
0.00163263
0.00164048
0.00164814
0.00165562
0.00166292
0.00167003
0.00167695
0.00168369
0.00169024
0.00169661
0.00170279
0.00170878
0.00171458
0.0017202
0.00172562
0.00173085
0.00173588
0.00174072
0.00174537
0.00174983
0.0017541
0.00175818
0.00176206
0.00176576
0.00176926
0.00177257
0.00177568
0.00177861
0.00178133
0.00178387
0.00178621
0.00178835
0.0017903
0.00179206
0.00179362
0.00179499
0.00179616
0.00179713
0.00179791
0.0017985
0.00179888
0.00179907
0.00104145
0.00106901
0.00109568
0.0011216
0.00114681
0.00117138
0.00119534
0.00121876
0.00124165
0.00126406
0.00128602
0.00130755
0.00132869
0.00134946
0.00136986
0.00138993
0.00140967
0.0014291
0.00144822
0.00146706
0.00148561
0.00150389
0.0015219
0.00153965
0.00155715
0.00157439
0.00159139
0.00160814
0.00162465
0.00164093
0.00165697
0.00167278
0.00168836
0.00170371
0.00171884
0.00173374
0.00174842
0.00176288
0.00177711
0.00179112
0.00180491
0.00181848
0.00183183
0.00184496
0.00185787
0.00187057
0.00188304
0.00189529
0.00190732
0.00191913
0.00193072
0.00194208
0.00195323
0.00196415
0.00197486
0.00198533
0.00199559
0.00200562
0.00201543
0.00202501
0.00203437
0.0020435
0.00205241
0.00206109
0.00206955
0.00207777
0.00208577
0.00209354
0.00210108
0.0021084
0.00211548
0.00212233
0.00212894
0.00213532
0.00214147
0.00214738
0.00215306
0.0021585
0.00216371
0.00216869
0.00217343
0.00217794
0.00218221
0.00218625
0.00219005
0.00219361
0.00219694
0.00220003
0.00220288
0.0022055
0.00220787
0.00221001
0.00221192
0.00221358
0.00221501
0.00221619
0.00221714
0.00221785
0.00221833
0.00221856
0.00126913
0.00130122
0.00133238
0.00136274
0.00139235
0.00142126
0.00144951
0.00147714
0.0015042
0.00153072
0.00155673
0.00158226
0.00160734
0.00163198
0.00165622
0.00168006
0.00170352
0.00172662
0.00174936
0.00177177
0.00179385
0.0018156
0.00183704
0.00185817
0.001879
0.00189953
0.00191977
0.00193973
0.0019594
0.00197878
0.00199789
0.00201673
0.00203529
0.00205358
0.0020716
0.00208935
0.00210684
0.00212406
0.00214102
0.00215772
0.00217415
0.00219031
0.00220622
0.00222186
0.00223724
0.00225236
0.00226722
0.00228181
0.00229614
0.0023102
0.00232401
0.00233755
0.00235082
0.00236383
0.00237658
0.00238906
0.00240127
0.00241322
0.0024249
0.00243631
0.00244745
0.00245832
0.00246893
0.00247926
0.00248933
0.00249912
0.00250864
0.00251789
0.00252687
0.00253557
0.00254399
0.00255214
0.00256002
0.00256761
0.00257493
0.00258196
0.00258872
0.0025952
0.0026014
0.00260732
0.00261296
0.00261832
0.00262341
0.00262821
0.00263273
0.00263697
0.00264092
0.0026446
0.00264799
0.0026511
0.00265392
0.00265647
0.00265873
0.0026607
0.0026624
0.00266381
0.00266494
0.00266578
0.00266634
0.00266662
0.00151482
0.00155156
0.00158732
0.00162224
0.00165636
0.00168973
0.0017224
0.0017544
0.00178577
0.00181655
0.00184676
0.00187644
0.00190562
0.0019343
0.00196253
0.0019903
0.00201765
0.00204458
0.00207111
0.00209725
0.00212301
0.0021484
0.00217342
0.00219809
0.00222241
0.00224639
0.00227002
0.00229333
0.0023163
0.00233894
0.00236126
0.00238327
0.00240495
0.00242632
0.00244737
0.00246811
0.00248854
0.00250866
0.00252847
0.00254797
0.00256716
0.00258605
0.00260463
0.0026229
0.00264087
0.00265853
0.00267588
0.00269292
0.00270966
0.00272609
0.00274221
0.00275802
0.00277352
0.00278872
0.0028036
0.00281817
0.00283243
0.00284638
0.00286002
0.00287334
0.00288635
0.00289904
0.00291142
0.00292349
0.00293523
0.00294666
0.00295778
0.00296857
0.00297904
0.0029892
0.00299903
0.00300854
0.00301772
0.00302659
0.00303512
0.00304333
0.00305122
0.00305878
0.00306601
0.00307292
0.0030795
0.00308576
0.00309168
0.00309728
0.00310255
0.0031075
0.00311211
0.00311639
0.00312034
0.00312397
0.00312726
0.00313023
0.00313286
0.00313516
0.00313713
0.00313878
0.00314009
0.00314107
0.00314173
0.00314206
0.00177834
0.00181983
0.00186029
0.00189987
0.00193861
0.00197657
0.00201379
0.00205028
0.00208611
0.00212128
0.00215585
0.00218982
0.00222324
0.00225612
0.00228848
0.00232034
0.00235173
0.00238264
0.0024131
0.00244312
0.00247271
0.00250188
0.00253063
0.00255898
0.00258693
0.00261449
0.00264166
0.00266845
0.00269487
0.0027209
0.00274657
0.00277187
0.0027968
0.00282137
0.00284558
0.00286943
0.00289293
0.00291606
0.00293884
0.00296127
0.00298334
0.00300506
0.00302642
0.00304743
0.00306809
0.00308839
0.00310834
0.00312794
0.00314718
0.00316607
0.0031846
0.00320278
0.0032206
0.00323806
0.00325517
0.00327192
0.00328831
0.00330434
0.00332001
0.00333532
0.00335027
0.00336486
0.00337908
0.00339294
0.00340644
0.00341957
0.00343234
0.00344474
0.00345677
0.00346843
0.00347972
0.00349064
0.00350119
0.00351137
0.00352118
0.00353061
0.00353966
0.00354835
0.00355665
0.00356458
0.00357214
0.00357932
0.00358613
0.00359255
0.0035986
0.00360427
0.00360957
0.00361448
0.00361902
0.00362317
0.00362695
0.00363035
0.00363337
0.00363601
0.00363827
0.00364015
0.00364166
0.00364278
0.00364353
0.00364391
0.00205961
0.00210595
0.00215122
0.00219557
0.00223905
0.00228172
0.00232359
0.00236471
0.00240511
0.00244481
0.00248385
0.00252226
0.00256005
0.00259726
0.00263389
0.00266998
0.00270553
0.00274056
0.00277509
0.00280912
0.00284268
0.00287576
0.00290838
0.00294054
0.00297225
0.00300352
0.00303436
0.00306476
0.00309474
0.00312429
0.00315342
0.00318214
0.00321044
0.00323833
0.00326582
0.00329289
0.00331956
0.00334582
0.00337168
0.00339713
0.00342219
0.00344684
0.00347109
0.00349493
0.00351838
0.00354142
0.00356407
0.0035863
0.00360814
0.00362958
0.00365061
0.00367123
0.00369145
0.00371127
0.00373068
0.00374968
0.00376828
0.00378647
0.00380425
0.00382161
0.00383857
0.00385512
0.00387125
0.00388697
0.00390228
0.00391717
0.00393165
0.00394571
0.00395935
0.00397257
0.00398537
0.00399776
0.00400972
0.00402126
0.00403237
0.00404306
0.00405333
0.00406317
0.00407259
0.00408158
0.00409014
0.00409828
0.00410599
0.00411327
0.00412012
0.00412655
0.00413254
0.00413811
0.00414324
0.00414795
0.00415223
0.00415607
0.00415949
0.00416248
0.00416503
0.00416716
0.00416886
0.00417014
0.00417098
0.00417141
0.00235858
0.00240987
0.00246004
0.00250927
0.0025576
0.00260507
0.00265172
0.00269757
0.00274266
0.002787
0.00283064
0.0028736
0.00291589
0.00295754
0.00299857
0.003039
0.00307885
0.00311812
0.00315684
0.00319502
0.00323266
0.00326977
0.00330637
0.00334247
0.00337806
0.00341317
0.00344778
0.00348191
0.00351557
0.00354875
0.00358146
0.0036137
0.00364548
0.0036768
0.00370766
0.00373806
0.00376801
0.0037975
0.00382654
0.00385512
0.00388325
0.00391093
0.00393816
0.00396493
0.00399125
0.00401713
0.00404255
0.00406752
0.00409203
0.00411609
0.0041397
0.00416285
0.00418555
0.0042078
0.00422958
0.00425091
0.00427178
0.00429219
0.00431215
0.00433164
0.00435067
0.00436923
0.00438734
0.00440498
0.00442215
0.00443886
0.0044551
0.00447087
0.00448617
0.00450101
0.00451537
0.00452925
0.00454267
0.00455561
0.00456808
0.00458007
0.00459158
0.00460262
0.00461318
0.00462326
0.00463286
0.00464198
0.00465062
0.00465879
0.00466647
0.00467367
0.00468039
0.00468662
0.00469238
0.00469765
0.00470244
0.00470675
0.00471058
0.00471392
0.00471679
0.00471917
0.00472107
0.0047225
0.00472344
0.00472391
0.00267527
0.00273159
0.00278676
0.00284096
0.00289423
0.00294661
0.00299812
0.00304881
0.00309869
0.00314778
0.00319612
0.00324373
0.00329063
0.00333685
0.00338239
0.00342728
0.00347153
0.00351516
0.00355818
0.0036006
0.00364244
0.00368371
0.0037244
0.00376454
0.00380413
0.00384317
0.00388167
0.00391964
0.00395708
0.00399399
0.00403038
0.00406626
0.00410161
0.00413646
0.0041708
0.00420462
0.00423794
0.00427075
0.00430306
0.00433486
0.00436616
0.00439695
0.00442725
0.00445704
0.00448632
0.0045151
0.00454338
0.00457116
0.00459843
0.0046252
0.00465146
0.00467721
0.00470246
0.0047272
0.00475143
0.00477515
0.00479836
0.00482106
0.00484325
0.00486493
0.00488609
0.00490673
0.00492686
0.00494647
0.00496557
0.00498414
0.0050022
0.00501973
0.00503674
0.00505323
0.00506919
0.00508463
0.00509954
0.00511392
0.00512778
0.0051411
0.0051539
0.00516616
0.0051779
0.0051891
0.00519977
0.00520991
0.00521951
0.00522858
0.00523711
0.00524511
0.00525257
0.0052595
0.00526589
0.00527175
0.00527706
0.00528185
0.0052861
0.00528981
0.00529298
0.00529563
0.00529774
0.00529932
0.00530037
0.00530089
0.00300972
0.00307115
0.00313141
0.00319066
0.00324896
0.00330633
0.00336281
0.00341842
0.00347318
0.00352712
0.00358026
0.00363262
0.00368423
0.0037351
0.00378525
0.0038347
0.00388346
0.00393155
0.00397898
0.00402576
0.0040719
0.00411741
0.00416231
0.00420659
0.00425027
0.00429335
0.00433584
0.00437774
0.00441906
0.00445981
0.00449998
0.00453957
0.0045786
0.00461707
0.00465497
0.00469231
0.00472909
0.00476531
0.00480098
0.00483608
0.00487063
0.00490462
0.00493806
0.00497094
0.00500327
0.00503504
0.00506625
0.00509691
0.00512701
0.00515655
0.00518553
0.00521396
0.00524182
0.00526912
0.00529586
0.00532204
0.00534765
0.0053727
0.00539718
0.0054211
0.00544444
0.00546722
0.00548943
0.00551107
0.00553213
0.00555262
0.00557254
0.00559188
0.00561064
0.00562883
0.00564643
0.00566346
0.0056799
0.00569576
0.00571104
0.00572574
0.00573985
0.00575337
0.00576631
0.00577866
0.00579043
0.0058016
0.00581219
0.00582219
0.00583159
0.00584041
0.00584864
0.00585627
0.00586332
0.00586977
0.00587563
0.0058809
0.00588558
0.00588967
0.00589317
0.00589608
0.00589841
0.00590014
0.0059013
0.00590188
0.00336199
0.00342861
0.00349404
0.00355843
0.00362183
0.00368428
0.0037458
0.00380642
0.00386615
0.00392503
0.00398306
0.00404027
0.00409667
0.00415229
0.00420715
0.00426125
0.00431461
0.00436725
0.00441918
0.00447041
0.00452095
0.00457081
0.00461999
0.00466851
0.00471638
0.00476359
0.00481016
0.00485609
0.00490138
0.00494604
0.00499008
0.00503349
0.00507628
0.00511845
0.00516
0.00520094
0.00524126
0.00528097
0.00532007
0.00535856
0.00539644
0.00543371
0.00547037
0.00550641
0.00554185
0.00557668
0.0056109
0.0056445
0.0056775
0.00570988
0.00574165
0.00577281
0.00580335
0.00583327
0.00586258
0.00589127
0.00591934
0.00594679
0.00597362
0.00599983
0.00602541
0.00605037
0.00607471
0.00609842
0.0061215
0.00614395
0.00616577
0.00618696
0.00620751
0.00622744
0.00624672
0.00626538
0.00628339
0.00630077
0.0063175
0.0063336
0.00634906
0.00636387
0.00637804
0.00639157
0.00640445
0.00641669
0.00642828
0.00643923
0.00644953
0.00645919
0.00646819
0.00647655
0.00648427
0.00649133
0.00649775
0.00650352
0.00650864
0.00651311
0.00651694
0.00652013
0.00652267
0.00652458
0.00652584
0.00652647
0.00373218
0.00380408
0.00387475
0.00394435
0.00401293
0.00408053
0.00414718
0.00421288
0.00427766
0.00434155
0.00440455
0.00446668
0.00452797
0.00458843
0.00464807
0.00470691
0.00476496
0.00482224
0.00487876
0.00493452
0.00498954
0.00504383
0.00509739
0.00515024
0.00520238
0.00525381
0.00530454
0.00535458
0.00540393
0.00545259
0.00550057
0.00554788
0.0055945
0.00564046
0.00568574
0.00573035
0.00577429
0.00581757
0.00586018
0.00590212
0.0059434
0.00598401
0.00602396
0.00606325
0.00610186
0.00613981
0.0061771
0.00621372
0.00624967
0.00628496
0.00631957
0.00635352
0.00638679
0.00641939
0.00645132
0.00648258
0.00651316
0.00654307
0.0065723
0.00660085
0.00662872
0.0066559
0.00668241
0.00670823
0.00673337
0.00675783
0.00678159
0.00680467
0.00682706
0.00684875
0.00686976
0.00689007
0.00690969
0.00692861
0.00694683
0.00696436
0.00698119
0.00699732
0.00701275
0.00702748
0.0070415
0.00705483
0.00706745
0.00707937
0.00709058
0.00710109
0.0071109
0.00712
0.00712839
0.00713608
0.00714306
0.00714934
0.00715492
0.00715979
0.00716395
0.00716742
0.00717019
0.00717226
0.00717363
0.00717432
0.0041204
0.00419764
0.00427363
0.00434851
0.00442235
0.00449518
0.00456701
0.00463787
0.00470778
0.00477674
0.00484479
0.00491193
0.00497817
0.00504354
0.00510805
0.0051717
0.00523453
0.00529652
0.0053577
0.00541808
0.00547767
0.00553647
0.00559449
0.00565174
0.00570822
0.00576395
0.00581892
0.00587315
0.00592663
0.00597937
0.00603137
0.00608264
0.00613318
0.00618299
0.00623207
0.00628043
0.00632806
0.00637497
0.00642116
0.00646663
0.00651137
0.00655539
0.00659869
0.00664127
0.00668313
0.00672427
0.00676468
0.00680437
0.00684334
0.00688158
0.0069191
0.00695588
0.00699195
0.00702728
0.00706188
0.00709576
0.0071289
0.0071613
0.00719297
0.00722391
0.00725411
0.00728357
0.00731229
0.00734027
0.0073675
0.007394
0.00741974
0.00744474
0.007469
0.0074925
0.00751525
0.00753726
0.00755851
0.007579
0.00759874
0.00761773
0.00763596
0.00765343
0.00767014
0.00768609
0.00770128
0.00771572
0.00772938
0.00774229
0.00775444
0.00776582
0.00777643
0.00778629
0.00779538
0.0078037
0.00781126
0.00781806
0.0078241
0.00782937
0.00783389
0.00783764
0.00784064
0.00784288
0.00784437
0.00784511
0.00452678
0.00460942
0.00469079
0.00477103
0.00485019
0.0049283
0.0050054
0.00508149
0.00515658
0.0052307
0.00530386
0.00537606
0.00544734
0.00551769
0.00558713
0.00565568
0.00572334
0.00579012
0.00585604
0.00592111
0.00598533
0.00604871
0.00611126
0.00617298
0.00623389
0.00629398
0.00635327
0.00641175
0.00646943
0.00652632
0.00658241
0.00663772
0.00669224
0.00674597
0.00679892
0.00685108
0.00690247
0.00695308
0.0070029
0.00705195
0.00710022
0.00714771
0.00719442
0.00724036
0.00728551
0.00732989
0.00737348
0.0074163
0.00745833
0.00749958
0.00754005
0.00757973
0.00761863
0.00765674
0.00769406
0.00773059
0.00776634
0.00780129
0.00783545
0.00786881
0.00790138
0.00793314
0.00796412
0.00799429
0.00802366
0.00805222
0.00807999
0.00810694
0.00813309
0.00815844
0.00818297
0.00820669
0.0082296
0.0082517
0.00827298
0.00829345
0.0083131
0.00833194
0.00834995
0.00836715
0.00838352
0.00839908
0.00841382
0.00842773
0.00844082
0.00845309
0.00846453
0.00847515
0.00848495
0.00849392
0.00850207
0.0085094
0.00851591
0.00852159
0.00852645
0.0085305
0.00853373
0.00853614
0.00853775
0.00853855
0.00495143
0.00503955
0.00512637
0.00521202
0.00529656
0.00538003
0.00546245
0.00554382
0.00562417
0.0057035
0.00578183
0.00585918
0.00593554
0.00601094
0.00608538
0.00615888
0.00623144
0.00630308
0.00637381
0.00644362
0.00651254
0.00658057
0.00664771
0.00671398
0.00677937
0.0068439
0.00690756
0.00697036
0.00703231
0.0070934
0.00715365
0.00721305
0.00727161
0.00732932
0.0073862
0.00744223
0.00749743
0.00755179
0.00760531
0.007658
0.00770985
0.00776086
0.00781104
0.00786038
0.00790888
0.00795655
0.00800338
0.00804936
0.00809451
0.00813882
0.00818228
0.0082249
0.00826668
0.00830761
0.00834769
0.00838693
0.00842531
0.00846284
0.00849953
0.00853535
0.00857032
0.00860444
0.0086377
0.00867009
0.00870163
0.0087323
0.00876211
0.00879105
0.00881913
0.00884634
0.00887268
0.00889815
0.00892274
0.00894646
0.00896931
0.00899128
0.00901238
0.0090326
0.00905194
0.0090704
0.00908798
0.00910468
0.00912049
0.00913543
0.00914948
0.00916264
0.00917493
0.00918633
0.00919684
0.00920648
0.00921522
0.00922309
0.00923007
0.00923617
0.00924139
0.00924574
0.0092492
0.0092518
0.00925352
0.00925438
0.0053945
0.00548816
0.00558048
0.00567161
0.0057616
0.00585048
0.00593827
0.00602499
0.00611065
0.00619525
0.00627882
0.00636135
0.00644286
0.00652336
0.00660286
0.00668137
0.0067589
0.00683545
0.00691104
0.00698567
0.00705935
0.00713208
0.00720388
0.00727474
0.00734468
0.00741369
0.00748179
0.00754897
0.00761524
0.0076806
0.00774506
0.00780861
0.00787126
0.00793301
0.00799387
0.00805382
0.00811288
0.00817105
0.00822832
0.00828469
0.00834017
0.00839476
0.00844845
0.00850124
0.00855314
0.00860414
0.00865424
0.00870345
0.00875175
0.00879915
0.00884565
0.00889125
0.00893595
0.00897974
0.00902262
0.00906459
0.00910565
0.00914581
0.00918505
0.00922337
0.00926078
0.00929727
0.00933284
0.0093675
0.00940123
0.00943403
0.00946592
0.00949687
0.0095269
0.009556
0.00958417
0.00961141
0.00963771
0.00966308
0.00968752
0.00971101
0.00973357
0.00975519
0.00977587
0.00979561
0.00981441
0.00983227
0.00984918
0.00986515
0.00988017
0.00989425
0.00990739
0.00991958
0.00993082
0.00994112
0.00995048
0.00995889
0.00996635
0.00997288
0.00997846
0.0099831
0.00998681
0.00998959
0.00999143
0.00999235
0.00585613
0.00595538
0.00605326
0.00614992
0.00624541
0.00633976
0.00643299
0.00652511
0.00661613
0.00670605
0.0067949
0.00688268
0.00696939
0.00705505
0.00713966
0.00722323
0.00730577
0.00738729
0.00746779
0.00754729
0.00762578
0.00770327
0.00777977
0.00785529
0.00792982
0.00800338
0.00807596
0.00814757
0.00821821
0.00828789
0.00835661
0.00842436
0.00849116
0.00855699
0.00862187
0.0086858
0.00874877
0.00881079
0.00887185
0.00893196
0.00899111
0.00904931
0.00910655
0.00916284
0.00921818
0.00927255
0.00932597
0.00937843
0.00942993
0.00948047
0.00953005
0.00957866
0.00962631
0.00967299
0.0097187
0.00976345
0.00980722
0.00985002
0.00989185
0.0099327
0.00997258
0.0100115
0.0100494
0.0100863
0.0101223
0.0101572
0.0101912
0.0102242
0.0102562
0.0102872
0.0103173
0.0103463
0.0103743
0.0104013
0.0104274
0.0104524
0.0104765
0.0104995
0.0105215
0.0105426
0.0105626
0.0105816
0.0105997
0.0106167
0.0106327
0.0106477
0.0106617
0.0106747
0.0106867
0.0106976
0.0107076
0.0107166
0.0107245
0.0107315
0.0107374
0.0107424
0.0107463
0.0107493
0.0107512
0.0107522
0.00633644
0.00644134
0.00654485
0.00664709
0.00674814
0.006848
0.00694671
0.00704428
0.00714071
0.00723601
0.00733019
0.00742325
0.00751521
0.00760607
0.00769584
0.00778452
0.00787213
0.00795866
0.00804413
0.00812853
0.00821188
0.00829418
0.00837544
0.00845565
0.00853483
0.00861297
0.00869008
0.00876617
0.00884123
0.00891527
0.00898829
0.00906029
0.00913127
0.00920124
0.00927019
0.00933812
0.00940505
0.00947095
0.00953585
0.00959973
0.0096626
0.00972445
0.00978529
0.00984511
0.00990391
0.0099617
0.0100185
0.0100742
0.0101289
0.0101827
0.0102353
0.010287
0.0103376
0.0103872
0.0104358
0.0104834
0.0105299
0.0105753
0.0106198
0.0106632
0.0107056
0.0107469
0.0107872
0.0108264
0.0108646
0.0109018
0.0109379
0.0109729
0.0110069
0.0110399
0.0110717
0.0111026
0.0111324
0.0111611
0.0111887
0.0112153
0.0112409
0.0112653
0.0112888
0.0113111
0.0113324
0.0113526
0.0113717
0.0113898
0.0114068
0.0114227
0.0114376
0.0114514
0.0114641
0.0114758
0.0114864
0.0114959
0.0115043
0.0115117
0.0115181
0.0115233
0.0115275
0.0115307
0.0115327
0.0115338
0.00683559
0.00694619
0.00705537
0.00716325
0.00726989
0.00737532
0.00747956
0.00758262
0.0076845
0.00778522
0.00788477
0.00798317
0.00808042
0.00817653
0.0082715
0.00836533
0.00845804
0.00854963
0.0086401
0.00872946
0.00881771
0.00890486
0.00899091
0.00907586
0.00915972
0.00924249
0.00932417
0.00940478
0.00948429
0.00956273
0.00964009
0.00971638
0.00979158
0.00986572
0.00993878
0.0100108
0.0100817
0.0101515
0.0102203
0.010288
0.0103546
0.0104201
0.0104846
0.010548
0.0106103
0.0106715
0.0107316
0.0107907
0.0108487
0.0109056
0.0109614
0.0110162
0.0110698
0.0111224
0.0111738
0.0112242
0.0112735
0.0113216
0.0113687
0.0114147
0.0114596
0.0115034
0.011546
0.0115876
0.0116281
0.0116674
0.0117057
0.0117428
0.0117788
0.0118137
0.0118475
0.0118801
0.0119117
0.0119421
0.0119714
0.0119995
0.0120266
0.0120525
0.0120773
0.012101
0.0121235
0.0121449
0.0121652
0.0121843
0.0122023
0.0122192
0.0122349
0.0122496
0.012263
0.0122754
0.0122866
0.0122967
0.0123056
0.0123135
0.0123202
0.0123257
0.0123302
0.0123335
0.0123357
0.0123368
0.0073537
0.00747005
0.00758495
0.00769851
0.0078108
0.00792184
0.00803165
0.00814024
0.00824762
0.00835379
0.00845876
0.00856253
0.00866511
0.0087665
0.0088667
0.00896573
0.00906358
0.00916026
0.00925577
0.00935012
0.0094433
0.00953534
0.00962621
0.00971594
0.00980452
0.00989195
0.00997825
0.0100634
0.0101474
0.0102303
0.010312
0.0103926
0.0104721
0.0105504
0.0106276
0.0107037
0.0107786
0.0108524
0.0109251
0.0109966
0.011067
0.0111362
0.0112043
0.0112713
0.0113372
0.0114019
0.0114654
0.0115278
0.0115891
0.0116492
0.0117082
0.011766
0.0118227
0.0118782
0.0119326
0.0119858
0.0120379
0.0120888
0.0121385
0.0121871
0.0122345
0.0122808
0.0123258
0.0123697
0.0124125
0.0124541
0.0124944
0.0125337
0.0125717
0.0126086
0.0126442
0.0126787
0.012712
0.0127442
0.0127751
0.0128049
0.0128334
0.0128608
0.012887
0.012912
0.0129358
0.0129584
0.0129798
0.013
0.013019
0.0130369
0.0130535
0.0130689
0.0130832
0.0130962
0.0131081
0.0131187
0.0131282
0.0131364
0.0131435
0.0131494
0.0131541
0.0131576
0.0131599
0.0131611
0.00789091
0.00801306
0.00813372
0.00825301
0.00837098
0.00848766
0.00860308
0.00871725
0.00883016
0.00894182
0.00905224
0.00916142
0.00926936
0.00937606
0.00948154
0.00958579
0.00968881
0.00979061
0.00989119
0.00999056
0.0100887
0.0101857
0.0102814
0.0103759
0.0104693
0.0105614
0.0106523
0.010742
0.0108306
0.0109179
0.011004
0.011089
0.0111727
0.0112553
0.0113367
0.0114168
0.0114958
0.0115736
0.0116502
0.0117256
0.0117997
0.0118727
0.0119445
0.0120151
0.0120845
0.0121527
0.0122197
0.0122855
0.01235
0.0124134
0.0124756
0.0125365
0.0125962
0.0126548
0.0127121
0.0127681
0.012823
0.0128766
0.012929
0.0129802
0.0130302
0.0130789
0.0131264
0.0131727
0.0132177
0.0132615
0.0133041
0.0133454
0.0133855
0.0134243
0.0134619
0.0134982
0.0135333
0.0135672
0.0135998
0.0136311
0.0136612
0.0136901
0.0137176
0.013744
0.0137691
0.0137929
0.0138154
0.0138367
0.0138568
0.0138755
0.0138931
0.0139093
0.0139243
0.0139381
0.0139505
0.0139618
0.0139717
0.0139804
0.0139879
0.0139941
0.013999
0.0140027
0.0140052
0.0140064
0.00844734
0.00857533
0.00870179
0.00882684
0.00895054
0.00907291
0.00919398
0.00931374
0.00943222
0.0095494
0.0096653
0.00977991
0.00989325
0.0100053
0.0101161
0.0102256
0.0103338
0.0104407
0.0105464
0.0106508
0.010754
0.0108559
0.0109565
0.0110559
0.011154
0.0112508
0.0113464
0.0114407
0.0115338
0.0116256
0.0117162
0.0118055
0.0118935
0.0119804
0.0120659
0.0121502
0.0122332
0.012315
0.0123955
0.0124748
0.0125528
0.0126296
0.0127051
0.0127793
0.0128523
0.012924
0.0129944
0.0130635
0.0131314
0.0131981
0.0132634
0.0133275
0.0133903
0.0134518
0.013512
0.013571
0.0136287
0.0136851
0.0137402
0.013794
0.0138465
0.0138977
0.0139477
0.0139963
0.0140436
0.0140897
0.0141344
0.0141778
0.0142199
0.0142608
0.0143003
0.0143385
0.0143754
0.0144109
0.0144452
0.0144781
0.0145098