/*--------------------------------*- C++ -*----------------------------------*\
  =========                 |
  \\      /  F ield         | OpenFOAM: The Open Source CFD Toolbox
   \\    /   O peration     | Website:  https://openfoam.org
    \\  /    A nd           | Version:  8
     \\/     M anipulation  |
\*---------------------------------------------------------------------------*/
FoamFile
{
    version     2.0;
    format      ascii;
    class       volScalarField;
    location    "9.5";
    object      p;
}
// * * * * * * * * * * * * * * * * * * * * * * * * * * * * * * * * * * * * * //

dimensions      [0 2 -2 0 0 0 0];

internalField   nonuniform List<scalar> 
173000
(
-13.5806
-14.1493
-14.6644
-15.1316
-15.5503
-15.922
-16.248
-16.5301
-16.77
-16.9695
-17.1299
-17.2528
-17.3394
-17.3909
-17.4084
-17.3929
-17.3456
-17.2674
-17.1598
-17.0242
-16.8618
-16.6739
-16.462
-16.228
-15.973
-15.6948
-15.3913
-15.0639
-14.7147
-14.3446
-13.9545
-13.5453
-13.1178
-12.6728
-12.2109
-11.7331
-11.2401
-10.7326
-10.2115
-9.67758
-9.13156
-8.57426
-8.00649
-7.42904
-6.84271
-6.24832
-5.64667
-5.03856
-4.4248
-3.80621
-3.18359
-2.55775
-1.9295
-1.29964
-0.668973
-0.0383018
0.591574
1.21987
1.84578
2.46853
3.08735
3.70145
4.31007
4.91247
5.50793
6.09577
6.67539
7.24637
7.8085
8.36191
8.90681
9.44288
9.96862
10.4816
10.9797
11.462
11.9278
12.3768
12.8091
13.2249
13.6239
14.0057
14.3699
14.7161
15.044
15.3531
15.6432
15.9138
16.1647
16.3957
16.6063
16.7964
16.9658
17.1142
17.2414
17.3473
17.4317
17.4944
17.535
17.5537
-13.1961
-13.6985
-14.1494
-14.5549
-14.917
-15.2371
-15.5162
-15.7559
-15.9574
-16.1221
-16.2513
-16.3464
-16.4084
-16.4386
-16.4381
-16.4078
-16.3487
-16.2616
-16.1473
-16.0066
-15.84
-15.6484
-15.4323
-15.1923
-14.9296
-14.6463
-14.3434
-14.0202
-13.6767
-13.3136
-12.9316
-12.5315
-12.114
-11.6799
-11.23
-10.7648
-10.2854
-9.79221
-9.28616
-8.76797
-8.23839
-7.69816
-7.14807
-6.58885
-6.02129
-5.44615
-4.86419
-4.27618
-3.68289
-3.0851
-2.48355
-1.87903
-1.27229
-0.664091
-0.0551888
0.553667
1.16173
1.76827
2.37255
2.97385
3.57147
4.16469
4.75282
5.33517
5.91104
6.4797
7.04039
7.59219
8.13404
8.66475
9.1832
9.68881
10.1819
10.6632
11.133
11.5907
12.0355
12.4665
12.8829
13.2837
13.6685
14.0369
14.3885
14.7228
15.0396
15.3385
15.619
15.881
16.1241
16.3481
16.5527
16.7376
16.9028
17.0479
17.1729
17.2775
17.3619
17.4257
17.4691
17.4921
-12.959
-13.4193
-13.8452
-14.2335
-14.5833
-14.8949
-15.1685
-15.4051
-15.6053
-15.7703
-15.9009
-15.9982
-16.0631
-16.0966
-16.0997
-16.0731
-16.0179
-15.9349
-15.825
-15.6888
-15.5272
-15.341
-15.1308
-14.8969
-14.6395
-14.3595
-14.0584
-13.737
-13.3958
-13.0353
-12.6563
-12.2594
-11.8454
-11.4151
-10.9691
-10.5082
-10.0332
-9.54464
-9.04344
-8.53028
-8.00592
-7.4711
-6.92659
-6.37313
-5.81148
-5.24241
-4.66668
-4.08505
-3.49828
-2.90714
-2.31239
-1.7148
-1.11512
-0.514103
0.0874864
0.688901
1.2894
1.88823
2.48467
3.07798
3.66746
4.25239
4.83209
5.40588
5.97313
6.53321
7.08555
7.62957
8.16467
8.69011
9.20496
9.70824
10.1993
10.6777
11.1434
11.5959
12.0346
12.4592
12.869
13.2634
13.642
14.0043
14.3499
14.6784
14.9895
15.2829
15.5582
15.815
16.0532
16.2725
16.4726
16.6533
16.8144
16.9557
17.0772
17.1786
17.2599
17.321
17.3619
17.3829
-12.6324
-13.0372
-13.4159
-13.7639
-14.0791
-14.3607
-14.6082
-14.822
-15.0024
-15.1501
-15.2658
-15.3503
-15.4043
-15.4287
-15.4242
-15.3916
-15.3317
-15.2451
-15.1327
-14.9951
-14.8331
-14.6474
-14.4389
-14.2084
-13.9561
-13.6828
-13.389
-13.0754
-12.7426
-12.3911
-12.0217
-11.635
-11.2317
-10.8125
-10.3782
-9.9293
-9.46665
-8.99093
-8.50285
-8.00315
-7.49253
-6.97173
-6.44148
-5.9025
-5.35554
-4.80132
-4.2406
-3.67409
-3.10256
-2.52673
-1.94735
-1.36515
-0.780872
-0.195248
0.390991
0.977117
1.56241
2.14614
2.72762
3.30612
3.88095
4.45141
5.01683
5.57653
6.12983
6.67608
7.21461
7.74477
8.26591
8.77738
9.27853
9.76873
10.2475
10.7143
11.1689
11.6106
12.039
12.4536
12.8537
13.2388
13.6086
13.9625
14.3002
14.6212
14.9253
15.212
15.4811
15.7322
15.9651
16.1794
16.3751
16.5517
16.7092
16.8474
16.966
17.065
17.1442
17.2035
17.243
17.2627
-12.3315
-12.6945
-13.038
-13.3564
-13.6468
-13.9074
-14.1375
-14.3366
-14.5048
-14.6424
-14.7498
-14.8276
-14.8762
-14.8965
-14.889
-14.8544
-14.7934
-14.7066
-14.5947
-14.4583
-14.298
-14.1145
-13.9083
-13.6804
-13.4312
-13.1616
-12.872
-12.5632
-12.2357
-11.8901
-11.527
-11.1471
-10.7511
-10.3396
-9.91334
-9.47299
-9.01923
-8.55276
-8.07428
-7.58448
-7.08408
-6.57378
-6.05429
-5.52634
-4.99063
-4.44788
-3.89883
-3.34418
-2.78466
-2.221
-1.65392
-1.08414
-0.512369
0.0606653
0.634252
1.20768
1.78025
2.35125
2.91999
3.48579
4.04795
4.60582
5.15872
5.70601
6.24702
6.78114
7.3077
7.82608
8.33562
8.83568
9.3256
9.8048
10.2728
10.7291
11.1734
11.6051
12.0237
12.4287
12.8196
13.1958
13.5571
13.9028
14.2327
14.5464
14.8435
15.1236
15.3865
15.6318
15.8593
16.0688
16.26
16.4326
16.5865
16.7215
16.8375
16.9342
17.0117
17.0698
17.1085
17.1278
-12.0238
-12.3483
-12.6571
-12.9448
-13.2085
-13.4458
-13.6557
-13.8375
-13.9907
-14.1156
-14.2122
-14.2809
-14.3221
-14.3364
-14.3241
-14.286
-14.2225
-14.1343
-14.022
-13.8861
-13.7273
-13.5462
-13.3433
-13.1193
-12.8748
-12.6102
-12.3264
-12.0238
-11.7031
-11.3648
-11.0095
-10.6379
-10.2507
-9.84837
-9.43169
-9.0013
-8.55785
-8.10204
-7.63452
-7.15599
-6.66713
-6.16863
-5.66118
-5.14548
-4.62223
-4.09213
-3.55588
-3.01418
-2.46774
-1.91726
-1.36345
-0.80701
-0.24864
0.310959
0.871091
1.43107
1.99019
2.54779
3.10317
3.65567
4.20463
4.74938
5.28927
5.82366
6.35192
6.87343
7.38754
7.89366
8.39115
8.8794
9.3578
9.82578
10.2828
10.7285
11.1624
11.5839
11.9926
12.3881
12.7697
13.1371
13.4898
13.8274
14.1495
14.4557
14.7458
15.0193
15.276
15.5155
15.7377
15.9422
16.1288
16.2974
16.4477
16.5795
16.6927
16.7873
16.8629
16.9197
16.9576
16.9765
-11.7186
-12.0094
-12.287
-12.5468
-12.7855
-13.0011
-13.1919
-13.3571
-13.4962
-13.6089
-13.6953
-13.7554
-13.7896
-13.7981
-13.7815
-13.7401
-13.6745
-13.5851
-13.4725
-13.3372
-13.1797
-13.0006
-12.8005
-12.58
-12.3395
-12.0798
-11.8013
-11.5046
-11.1902
-10.8589
-10.5111
-10.1474
-9.76857
-9.37512
-8.9677
-8.54696
-8.11354
-7.6681
-7.21129
-6.74378
-6.26623
-5.77931
-5.28369
-4.78006
-4.26909
-3.75145
-3.22785
-2.69896
-2.16546
-1.62805
-1.0874
-0.54421
0.000846096
0.547085
1.09383
1.6404
2.18613
2.73036
3.27241
3.81165
4.3474
4.87905
5.40594
5.92745
6.44297
6.95187
7.45355
7.94741
8.43285
8.90928
9.37612
9.83284
10.2789
10.7139
11.1373
11.5486
11.9475
12.3333
12.7057
13.0641
13.4083
13.7377
14.052
14.3508
14.6338
14.9007
15.1512
15.3849
15.6017
15.8013
15.9834
16.1479
16.2945
16.4231
16.5336
16.6259
16.6997
16.7552
16.7921
16.8106
-11.4155
-11.6762
-11.9255
-12.1592
-12.3744
-12.5689
-12.7412
-12.8902
-13.0151
-13.1156
-13.1916
-13.2429
-13.2698
-13.2725
-13.2512
-13.2064
-13.1384
-13.0476
-12.9346
-12.7997
-12.6435
-12.4665
-12.2693
-12.0522
-11.8159
-11.5609
-11.2878
-10.997
-10.6891
-10.3648
-10.0245
-9.66888
-9.29847
-8.91391
-8.51581
-8.10477
-7.68143
-7.24641
-6.80036
-6.34391
-5.87771
-5.40241
-4.91866
-4.42713
-3.92847
-3.42334
-2.91242
-2.39636
-1.87584
-1.35152
-0.824062
-0.294143
0.237577
0.770434
1.30377
1.83692
2.36924
2.90008
3.42879
3.95474
4.47728
4.99581
5.50969
6.01831
6.52107
7.01737
7.50662
7.98823
8.46162
8.92624
9.38152
9.82694
10.262
10.6862
11.0991
11.5003
11.8892
12.2655
12.6286
12.9781
13.3137
13.6349
13.9414
14.2328
14.5088
14.769
15.0133
15.2412
15.4526
15.6472
15.8248
15.9852
16.1282
16.2536
16.3614
16.4514
16.5234
16.5775
16.6136
16.6316
-11.1144
-11.3482
-11.5716
-11.7813
-11.9745
-12.1491
-12.3036
-12.4368
-12.5479
-12.6365
-12.7021
-12.7447
-12.7643
-12.7611
-12.7351
-12.6867
-12.6163
-12.5241
-12.4105
-12.276
-12.121
-11.946
-11.7514
-11.5377
-11.3055
-11.0552
-10.7874
-10.5025
-10.2011
-9.88367
-9.55085
-9.20317
-8.84118
-8.46548
-8.07664
-7.67527
-7.26197
-6.83735
-6.40202
-5.95661
-5.50173
-5.03803
-4.56614
-4.08669
-3.60033
-3.10769
-2.60944
-2.1062
-1.59864
-1.08739
-0.57312
-0.0564628
0.461931
0.981417
1.50135
2.0211
2.54001
3.05747
3.57285
4.08551
4.59485
5.10026
5.60114
6.09687
6.58689
7.0706
7.54743
8.0168
8.47817
8.93099
9.37471
9.80884
10.2329
10.6463
11.0488
11.4398
11.8188
12.1854
12.5393
12.8799
13.207
13.52
13.8187
14.1026
14.3716
14.6252
14.8632
15.0854
15.2914
15.4811
15.6541
15.8104
15.9498
16.0721
16.1771
16.2648
16.335
16.3877
16.4229
16.4405
-10.8156
-11.0251
-11.225
-11.4125
-11.5851
-11.7409
-11.8785
-11.9965
-12.0943
-12.1711
-12.2266
-12.2606
-12.273
-12.2638
-12.2331
-12.1811
-12.1081
-12.0143
-11.9001
-11.7659
-11.612
-11.4388
-11.2469
-11.0365
-10.8083
-10.5626
-10.3
-10.0209
-9.7259
-9.41541
-9.09001
-8.75022
-8.3966
-8.0297
-7.65009
-7.25834
-6.85504
-6.44077
-6.01612
-5.5817
-5.13812
-4.68598
-4.2259
-3.7585
-3.2844
-2.80422
-2.3186
-1.82815
-1.33352
-0.835325
-0.334201
0.169224
0.67432
1.18046
1.68702
2.19338
2.69892
3.20303
3.70509
4.2045
4.70067
5.19299
5.68088
6.16376
6.64105
7.1122
7.57663
8.0338
8.48317
8.92421
9.35641
9.77925
10.1923
10.595
10.987
11.3678
11.7369
12.094
12.4386
12.7704
13.0889
13.3937
13.6846
13.9612
14.2231
14.4701
14.702
14.9183
15.1189
15.3037
15.4722
15.6245
15.7602
15.8793
15.9816
16.067
16.1354
16.1868
16.221
16.2382
-10.5194
-10.7067
-10.8852
-11.0522
-11.2057
-11.3439
-11.4653
-11.5689
-11.6538
-11.7193
-11.7649
-11.7904
-11.7956
-11.7804
-11.745
-11.6894
-11.6138
-11.5184
-11.4035
-11.2694
-11.1165
-10.9452
-10.7558
-10.5487
-10.3244
-10.0832
-9.82578
-9.55244
-9.2637
-8.96005
-8.642
-8.31005
-7.96473
-7.60657
-7.23612
-6.85393
-6.46056
-6.05658
-5.64256
-5.21908
-4.78673
-4.3461
-3.89778
-3.44238
-2.98049
-2.51272
-2.03968
-1.56197
-1.08022
-0.595028
-0.107007
0.383231
0.875076
1.36792
1.86115
2.35417
2.84638
3.33717
3.82597
4.31217
4.79519
5.27446
5.74941
6.21947
6.68409
7.14271
7.59479
8.0398
8.47721
8.90651
9.3272
9.7388
10.1408
10.5328
10.9144
11.285
11.6443
11.9919
12.3273
12.6502
12.9602
13.2569
13.54
13.8092
14.0641
14.3045
14.5302
14.7407
14.936
15.1158
15.2799
15.4281
15.5602
15.6761
15.7757
15.8588
15.9254
15.9754
16.0088
16.0255
-10.2258
-10.393
-10.5517
-10.6999
-10.8356
-10.9573
-11.0636
-11.1534
-11.2259
-11.2805
-11.3165
-11.3337
-11.3319
-11.3109
-11.2708
-11.2115
-11.1333
-11.0362
-10.9206
-10.7867
-10.6347
-10.4651
-10.2781
-10.0742
-9.85369
-9.61705
-9.36467
-9.09699
-8.81448
-8.5176
-8.20681
-7.88262
-7.54553
-7.19604
-6.83468
-6.46198
-6.07847
-5.68471
-5.28125
-4.86864
-4.44745
-4.01826
-3.58163
-3.13816
-2.68841
-2.23299
-1.77246
-1.30744
-0.838501
-0.366246
0.108735
0.585848
1.0645
1.54411
2.02407
2.50381
2.98274
3.46029
3.93587
4.40891
4.87885
5.34513
5.80719
6.26449
6.71648
7.16263
7.60241
8.03531
8.46081
8.87843
9.28766
9.68805
10.0791
10.4605
10.8316
11.1921
11.5416
11.8797
12.206
12.52
12.8215
13.1101
13.3855
13.6473
13.8953
14.1292
14.3486
14.5534
14.7434
14.9183
15.0778
15.222
15.3505
15.4632
15.5601
15.641
15.7058
15.7544
15.7869
15.8031
-9.93507
-10.0838
-10.2244
-10.3552
-10.4744
-10.5806
-10.6726
-10.7495
-10.8102
-10.8543
-10.8811
-10.8903
-10.8816
-10.8549
-10.8102
-10.7473
-10.6665
-10.5678
-10.4514
-10.3175
-10.1664
-9.99846
-9.81388
-9.61305
-9.39631
-9.16406
-8.91669
-8.6546
-8.37824
-8.08804
-7.78445
-7.46794
-7.13898
-6.79808
-6.44573
-6.08243
-5.70871
-5.32508
-4.93209
-4.53027
-4.12017
-3.70233
-3.27732
-2.84569
-2.40801
-1.96484
-1.51676
-1.06434
-0.608138
-0.148743
0.313275
0.777341
1.24288
1.70932
2.17609
2.64263
3.10836
3.57272
4.03516
4.49512
4.95205
5.40541
5.85465
6.29925
6.73869
7.17243
7.59998
8.02083
8.43449
8.84048
9.23832
9.62756
10.0077
10.3784
10.7392
11.0897
11.4295
11.7581
12.0752
12.3805
12.6736
12.9541
13.2218
13.4763
13.7173
13.9447
14.158
14.3571
14.5417
14.7117
14.8668
15.0069
15.1319
15.2415
15.3356
15.4143
15.4773
15.5246
15.5561
15.5719
-9.64729
-9.77903
-9.90303
-10.0177
-10.1216
-10.2134
-10.2921
-10.3566
-10.4063
-10.4403
-10.4583
-10.4598
-10.4445
-10.4123
-10.363
-10.2967
-10.2133
-10.1129
-9.99572
-9.86191
-9.71169
-9.54532
-9.36307
-9.16526
-8.95222
-8.72429
-8.48184
-8.22527
-7.95497
-7.67136
-7.37488
-7.06596
-6.74507
-6.41266
-6.06922
-5.71524
-5.3512
-4.97762
-4.59501
-4.20389
-3.80477
-3.3982
-2.98471
-2.56484
-2.13913
-1.70813
-1.2724
-0.832476
-0.388925
0.0577021
0.506848
0.957956
1.41047
1.86384
2.31751
2.77092
3.22354
3.67481
4.12419
4.57115
5.01516
5.45568
5.89219
6.32418
6.75114
7.17256
7.58795
7.99683
8.39872
8.79315
9.17967
9.55782
9.92718
10.2873
10.6378
10.9783
11.3083
11.6276
11.9357
12.2322
12.5169
12.7894
13.0495
13.2967
13.5308
13.7517
13.9589
14.1523
14.3317
14.4968
14.6475
14.7836
14.905
15.0114
15.1029
15.1793
15.2405
15.2865
15.3171
15.3325
-9.36266
-9.47877
-9.58742
-9.68723
-9.77692
-9.85535
-9.92152
-9.97454
-10.0137
-10.0383
-10.0478
-10.0419
-10.0203
-9.98278
-9.92915
-9.85939
-9.77349
-9.67151
-9.55357
-9.41981
-9.27041
-9.10561
-8.92565
-8.73081
-8.52138
-8.29771
-8.06012
-7.80898
-7.54466
-7.26757
-6.9781
-6.67669
-6.36375
-6.03975
-5.70513
-5.36036
-5.00591
-4.64228
-4.26994
-3.88941
-3.50118
-3.10577
-2.70369
-2.29547
-1.88163
-1.46269
-1.0392
-0.611681
-0.180671
0.253293
0.689671
1.12793
1.56752
2.00792
2.44859
2.88899
3.32859
3.76687
4.2033
4.63736
5.06853
5.49631
5.92019
6.33966
6.75423
7.16343
7.56676
7.96376
8.35396
8.73692
9.11219
9.47934
9.83794
10.1876
10.5279
10.8584
11.1788
11.4888
11.7879
12.0758
12.3522
12.6167
12.8691
13.1091
13.3364
13.5508
13.752
13.9397
14.1139
14.2742
14.4205
14.5526
14.6704
14.7738
14.8626
14.9368
14.9962
15.0408
15.0706
15.0855
-9.08133
-9.18304
-9.27752
-9.3636
-9.44013
-9.5061
-9.5606
-9.60281
-9.63205
-9.64771
-9.6493
-9.63642
-9.60877
-9.56612
-9.50832
-9.43528
-9.34699
-9.24347
-9.1248
-8.9911
-8.84253
-8.67927
-8.50156
-8.30964
-8.10379
-7.8843
-7.6515
-7.40571
-7.1473
-6.87663
-6.59409
-6.30008
-5.99501
-5.67931
-5.3534
-5.01774
-4.67277
-4.31897
-3.9568
-3.58675
-3.2093
-2.82493
-2.43415
-2.03747
-1.63537
-1.22838
-0.817015
-0.401778
0.016809
0.438227
0.861956
1.28748
1.71427
2.14181
2.5696
2.9971
3.4238
3.8492
4.27279
4.69406
5.11252
5.52767
5.93901
6.34607
6.74837
7.14544
7.53681
7.92203
8.30065
8.67223
9.03635
9.39258
9.74052
10.0798
10.4099
10.7306
11.0415
11.3422
11.6324
11.9117
12.1798
12.4365
12.6814
12.9142
13.1347
13.3427
13.5379
13.72
13.889
14.0445
14.1864
14.3146
14.4289
14.5292
14.6154
14.6873
14.745
14.7883
14.8171
14.8316
-8.80346
-8.89187
-8.97327
-9.04665
-9.11099
-9.16538
-9.20901
-9.24114
-9.26111
-9.26837
-9.26244
-9.24294
-9.20956
-9.16207
-9.10031
-9.02417
-8.93361
-8.82863
-8.7093
-8.57569
-8.42795
-8.26624
-8.09075
-7.90172
-7.69939
-7.48403
-7.25594
-7.01544
-6.76285
-6.49852
-6.22281
-5.93611
-5.6388
-5.33129
-5.01399
-4.68732
-4.35173
-4.00764
-3.65552
-3.29583
-2.92902
-2.55558
-2.17598
-1.79069
-1.40022
-1.00505
-0.605679
-0.202596
0.203697
0.612698
1.02391
1.43682
1.85094
2.26576
2.68079
3.09552
3.50945
3.9221
4.33298
4.74159
5.14745
5.55009
5.94902
6.3438
6.73394
7.119
7.49852
7.87207
8.23922
8.59953
8.9526
9.29802
9.63539
9.96433
10.2845
10.5954
10.8968
11.1884
11.4697
11.7405
12.0005
12.2493
12.4867
12.7125
12.9263
13.1279
13.3171
13.4937
13.6575
13.8083
13.9459
14.0702
14.181
14.2782
14.3618
14.4315
14.4874
14.5294
14.5574
14.5714
-8.52923
-8.60534
-8.67465
-8.73628
-8.78934
-8.833
-8.86652
-8.88924
-8.90056
-8.89995
-8.88697
-8.86124
-8.82247
-8.77043
-8.70493
-8.62587
-8.53317
-8.42685
-8.30692
-8.17346
-8.02658
-7.86641
-7.69314
-7.50697
-7.30812
-7.09684
-6.87341
-6.63811
-6.39126
-6.13319
-5.86422
-5.58473
-5.29508
-4.99565
-4.68684
-4.36906
-4.0427
-3.70821
-3.36601
-3.01655
-2.66026
-2.29761
-1.92904
-1.55503
-1.17605
-0.792554
-0.405035
-0.0139644
0.380176
0.776904
1.17574
1.57619
1.97778
2.38002
2.78243
3.18452
3.58583
3.98587
4.38417
4.78025
5.17366
5.56392
5.95058
6.3332
6.71131
7.08449
7.45229
7.8143
8.17009
8.51926
8.8614
9.19612
9.52303
9.84176
10.152
10.4533
10.7453
11.0278
11.3004
11.5628
11.8147
12.0558
12.2858
12.5045
12.7117
12.907
13.0904
13.2615
13.4201
13.5662
13.6996
13.82
13.9273
14.0216
14.1025
14.1701
14.2243
14.2649
14.2921
14.3056
-8.25879
-8.32352
-8.38166
-8.43244
-8.47505
-8.50876
-8.53292
-8.5469
-8.55015
-8.54221
-8.52263
-8.49109
-8.44727
-8.39095
-8.32196
-8.24017
-8.14551
-8.03796
-7.91753
-7.78428
-7.6383
-7.4797
-7.30864
-7.12531
-6.92991
-6.72267
-6.50383
-6.27368
-6.03249
-5.78058
-5.51826
-5.24588
-4.96378
-4.67233
-4.37189
-4.06286
-3.74563
-3.4206
-3.08819
-2.74881
-2.4029
-2.05089
-1.69322
-1.33034
-0.96269
-0.590729
-0.214914
0.164295
0.546435
0.931041
1.31765
1.70579
2.095
2.48481
2.87476
3.26438
3.65321
4.04079
4.42666
4.81037
5.19147
5.5695
5.94404
6.31463
6.68086
7.0423
7.39852
7.74912
8.09369
8.43184
8.76317
9.08731
9.40389
9.71254
10.0129
10.3047
10.5875
10.861
11.125
11.379
11.6229
11.8564
12.0791
12.2909
12.4915
12.6806
12.8581
13.0238
13.1774
13.3189
13.448
13.5646
13.6685
13.7597
13.8381
13.9036
13.956
13.9954
14.0217
14.0348
-7.99231
-8.04652
-8.09432
-8.13507
-8.16803
-8.19254
-8.20801
-8.21389
-8.20967
-8.1949
-8.1692
-8.13223
-8.08371
-8.02343
-7.9512
-7.86689
-7.77044
-7.6618
-7.54098
-7.40802
-7.26298
-7.10598
-6.93715
-6.75665
-6.56467
-6.36142
-6.14713
-5.92205
-5.68645
-5.44062
-5.18486
-4.91949
-4.64483
-4.36123
-4.06905
-3.76864
-3.4604
-3.1447
-2.82193
-2.49251
-2.15683
-1.81532
-1.46839
-1.11647
-0.760004
-0.399414
-0.0351437
0.332365
0.702667
1.07532
1.44986
1.82586
2.20286
2.58041
2.95806
3.33536
3.71188
4.08716
4.46077
4.83226
5.20121
5.56717
5.92974
6.28848
6.64297
6.99282
7.3376
7.67694
8.01043
8.3377
8.65836
8.97206
9.27843
9.57713
9.86781
10.1501
10.4238
10.6885
10.9439
11.1898
11.4258
11.6517
11.8672
12.0721
12.2662
12.4492
12.621
12.7813
12.9299
13.0668
13.1917
13.3045
13.4051
13.4934
13.5692
13.6326
13.6833
13.7214
13.7468
13.7595
-7.72994
-7.77442
-7.81268
-7.84416
-7.8682
-7.88421
-7.89166
-7.89004
-7.8789
-7.85782
-7.82644
-7.78445
-7.73159
-7.66764
-7.59244
-7.50584
-7.40777
-7.2982
-7.1771
-7.04451
-6.90049
-6.74512
-6.57853
-6.40087
-6.21229
-6.013
-5.80321
-5.58314
-5.35306
-5.11323
-4.86392
-4.60545
-4.33813
-4.06227
-3.77821
-3.48631
-3.18692
-2.8804
-2.56714
-2.24751
-1.92191
-1.59074
-1.25439
-0.913282
-0.567825
-0.218439
0.134457
0.490437
0.849074
1.20994
1.5726
1.93663
2.30159
2.66705
3.03258
3.39774
3.76212
4.12528
4.48679
4.84624
5.20321
5.55728
5.90804
6.25508
6.59801
6.93642
7.26993
7.59816
7.92073
8.23726
8.5474
8.8508
9.14711
9.43598
9.7171
9.99015
10.2548
10.5108
10.7578
10.9955
11.2237
11.4422
11.6506
11.8488
12.0364
12.2134
12.3795
12.5345
12.6783
12.8106
12.9314
13.0405
13.1377
13.2231
13.2964
13.3577
13.4067
13.4436
13.4681
13.4804
-7.47184
-7.50732
-7.53676
-7.5597
-7.57551
-7.58368
-7.58373
-7.5752
-7.55767
-7.53077
-7.49416
-7.44755
-7.3907
-7.32339
-7.24547
-7.15681
-7.05733
-6.94697
-6.82572
-6.6936
-6.55066
-6.39698
-6.23266
-6.05783
-5.87264
-5.67728
-5.47194
-5.25683
-5.0322
-4.79828
-4.55534
-4.30367
-4.04357
-3.77533
-3.49927
-3.21573
-2.92505
-2.62758
-2.32366
-2.01368
-1.698
-1.377
-1.05107
-0.720595
-0.385979
-0.0476195
0.294079
0.638711
0.985864
1.33513
1.68609
2.03833
2.39143
2.74499
3.09859
3.4518
3.80422
4.15544
4.50505
4.85264
5.19781
5.54015
5.87928
6.21481
6.54634
6.87349
7.1959
7.51318
7.82498
8.13095
8.43073
8.72398
9.01036
9.28956
9.56126
9.82515
10.0809
10.3283
10.567
10.7968
11.0173
11.2284
11.4298
11.6213
11.8027
11.9737
12.1342
12.284
12.4229
12.5508
12.6675
12.7729
12.8669
12.9494
13.0203
13.0794
13.1268
13.1624
13.1862
13.1981
-7.21817
-7.24533
-7.26663
-7.28168
-7.28992
-7.29088
-7.28411
-7.26922
-7.24582
-7.21357
-7.17216
-7.12132
-7.06082
-6.99047
-6.9101
-6.81961
-6.7189
-6.60792
-6.48666
-6.35512
-6.21334
-6.06139
-5.89937
-5.72739
-5.54559
-5.35414
-5.15321
-4.943
-4.72374
-4.49565
-4.25899
-4.01402
-3.76102
-3.50028
-3.2321
-2.95679
-2.67467
-2.38609
-2.09137
-1.79087
-1.48494
-1.17394
-0.85825
-0.538236
-0.21428
0.113236
0.443924
0.777395
1.11325
1.45111
1.79056
2.13121
2.47266
2.81451
3.15636
3.49781
3.83848
4.17795
4.51584
4.85177
5.18533
5.51614
5.84383
6.16802
6.48834
6.80441
7.11589
7.4224
7.72361
8.01918
8.30875
8.59201
8.86864
9.13832
9.40075
9.65563
9.90267
10.1416
10.3721
10.594
10.807
11.0109
11.2054
11.3903
11.5655
11.7306
11.8856
12.0303
12.1644
12.2879
12.4007
12.5025
12.5932
12.6729
12.7413
12.7984
12.8442
12.8786
12.9016
12.913
-6.96906
-6.98854
-7.00234
-7.01013
-7.0114
-7.00572
-6.99271
-6.97198
-6.9432
-6.90605
-6.86026
-6.80557
-6.74177
-6.66867
-6.58613
-6.49403
-6.3923
-6.28087
-6.15973
-6.02888
-5.88835
-5.7382
-5.57851
-5.40939
-5.23098
-5.0434
-4.84685
-4.64149
-4.42753
-4.2052
-3.97473
-3.73635
-3.49035
-3.23698
-2.97654
-2.70932
-2.43563
-2.15577
-1.87009
-1.5789
-1.28255
-0.981387
-0.675756
-0.366017
-0.0525327
0.264331
0.584202
0.906708
1.23147
1.55812
1.88626
2.21552
2.54551
2.87586
3.20618
3.53608
3.86518
4.19312
4.5195
4.84395
5.1661
5.48558
5.80203
6.11508
6.42437
6.72956
7.03029
7.32622
7.61702
7.90236
8.1819
8.45535
8.72238
8.9827
9.23601
9.48203
9.72048
9.95109
10.1736
10.3878
10.5934
10.7901
10.9778
11.1563
11.3254
11.4848
11.6343
11.7739
11.9034
12.0226
12.1314
12.2296
12.3172
12.3941
12.4601
12.5153
12.5595
12.5926
12.6148
12.6258
-6.72464
-6.73704
-6.74394
-6.74505
-6.73992
-6.72817
-6.70942
-6.68336
-6.64968
-6.60807
-6.5583
-6.50012
-6.43335
-6.3578
-6.27335
-6.17989
-6.07733
-5.96562
-5.84474
-5.71468
-5.57549
-5.4272
-5.26989
-5.10366
-4.92862
-4.74492
-4.5527
-4.35214
-4.14343
-3.92677
-3.70239
-3.47051
-3.23138
-2.98527
-2.73243
-2.47316
-2.20774
-1.93647
-1.65965
-1.37761
-1.09067
-0.799147
-0.50339
-0.203735
0.0994717
0.40588
0.715135
1.02688
1.34075
1.6564
1.97344
2.29152
2.61027
2.92933
3.24832
3.56688
3.88464
4.20124
4.51632
4.82952
5.14047
5.44882
5.75423
6.05634
6.35482
6.64931
6.93949
7.22503
7.50561
7.7809
8.0506
8.3144
8.57201
8.82314
9.0675
9.30482
9.53483
9.75728
9.97191
10.1785
10.3768
10.5666
10.7476
10.9198
11.0828
11.2365
11.3808
11.5155
11.6403
11.7553
11.8602
11.9549
12.0394
12.1135
12.1772
12.2304
12.273
12.305
12.3264
12.3371
-6.48506
-6.49092
-6.49147
-6.48647
-6.47548
-6.45816
-6.43419
-6.40327
-6.36512
-6.31947
-6.2661
-6.2048
-6.13537
-6.05768
-5.97157
-5.87697
-5.77378
-5.66196
-5.54148
-5.41234
-5.27457
-5.12821
-4.97332
-4.81
-4.63835
-4.45849
-4.27058
-4.07477
-3.87124
-3.66018
-3.4418
-3.21631
-2.98395
-2.74496
-2.4996
-2.24813
-1.99083
-1.72797
-1.45986
-1.18679
-0.909072
-0.627016
-0.340942
-0.0511762
0.241952
0.538108
0.836953
1.13815
1.44134
1.7462
2.05236
2.35948
2.66721
2.97519
3.28307
3.59051
3.89715
4.20264
4.50664
4.80879
5.10876
5.4062
5.70078
5.99217
6.28003
6.56404
6.84387
7.11922
7.38976
7.65521
7.91525
8.1696
8.41796
8.66007
8.89565
9.12444
9.34617
9.56061
9.76751
9.96664
10.1578
10.3407
10.5153
10.6812
10.8383
10.9865
11.1256
11.2553
11.3757
11.4865
11.5876
11.6789
11.7603
11.8318
11.8932
11.9444
11.9855
12.0164
12.0369
12.0472
-6.25041
-6.25027
-6.245
-6.23439
-6.21804
-6.19564
-6.16692
-6.13159
-6.0894
-6.04011
-5.98352
-5.91942
-5.84766
-5.76809
-5.68059
-5.58507
-5.48145
-5.36968
-5.24975
-5.12164
-4.98538
-4.84102
-4.6886
-4.52821
-4.35995
-4.18393
-4.00029
-3.80919
-3.61077
-3.40524
-3.19276
-2.97356
-2.74785
-2.51587
-2.27784
-2.03403
-1.78469
-1.53009
-1.27051
-1.00624
-0.737562
-0.464778
-0.188193
0.091884
0.375138
0.66125
0.949898
1.24075
1.53349
1.82778
2.12328
2.41966
2.71659
3.01373
3.31073
3.60728
3.90302
4.19762
4.49076
4.7821
5.07131
5.35806
5.64204
5.92292
6.20038
6.47411
6.74381
7.00916
7.26989
7.52568
7.77626
8.02134
8.26065
8.49392
8.7209
8.94132
9.15495
9.36154
9.56086
9.75269
9.93683
10.1131
10.2812
10.441
10.5924
10.7351
10.8691
10.9941
11.11
11.2167
11.3141
11.4021
11.4805
11.5493
11.6085
11.6578
11.6974
11.7271
11.7469
11.7568
-6.02082
-6.01517
-6.00456
-5.98883
-5.96759
-5.94059
-5.90755
-5.86823
-5.8224
-5.76985
-5.71039
-5.64383
-5.57003
-5.48886
-5.40021
-5.30398
-5.20012
-5.08858
-4.96933
-4.84237
-4.70771
-4.56541
-4.4155
-4.25807
-4.09321
-3.92102
-3.74163
-3.55518
-3.36182
-3.16173
-2.95507
-2.74206
-2.52289
-2.29778
-2.06695
-1.83065
-1.58912
-1.34261
-1.09139
-0.835734
-0.57591
-0.312206
-0.0449103
0.225682
0.499271
0.775552
1.05422
1.33496
1.61746
1.90141
2.18647
2.47235
2.75871
3.04523
3.33159
3.61747
3.90255
4.18651
4.46902
4.74978
5.02846
5.30475
5.57834
5.84893
6.11622
6.37989
6.63967
6.89525
7.14636
7.39271
7.63402
7.87003
8.10048
8.3251
8.54366
8.7559
8.96158
9.16049
9.35239
9.53709
9.71436
9.88402
10.0459
10.1997
10.3455
10.4829
10.6118
10.7322
10.8438
10.9465
11.0402
11.1249
11.2004
11.2667
11.3236
11.3711
11.4092
11.4378
11.4569
11.4664
-5.79638
-5.78568
-5.7702
-5.74979
-5.72412
-5.69294
-5.656
-5.6131
-5.56401
-5.50856
-5.44656
-5.37785
-5.30231
-5.2198
-5.13022
-5.03351
-4.92959
-4.81842
-4.69999
-4.57429
-4.44133
-4.30116
-4.15381
-3.99937
-3.83791
-3.66953
-3.49436
-3.31252
-3.12416
-2.92943
-2.72851
-2.52158
-2.30883
-2.09046
-1.8667
-1.63776
-1.40388
-1.1653
-0.922267
-0.675039
-0.423881
-0.169059
0.0891486
0.350463
0.614599
0.881268
1.15017
1.42102
1.69352
1.96735
2.24222
2.51782
2.79385
3.07
3.34595
3.62141
3.89606
4.16961
4.44173
4.71214
4.98053
5.24659
5.51004
5.77057
6.02791
6.28175
6.53183
6.77786
7.01956
7.25667
7.48893
7.71607
7.93785
8.15402
8.36434
8.56857
8.7665
8.95789
9.14255
9.32025
9.49082
9.65406
9.80978
9.95783
10.098
10.2302
10.3543
10.47
10.5774
10.6762
10.7664
10.8479
10.9205
10.9842
11.039
11.0847
11.1213
11.1489
11.1672
11.1764
-5.57718
-5.56187
-5.54194
-5.51729
-5.4876
-5.45264
-5.41221
-5.36609
-5.31411
-5.25609
-5.19188
-5.12132
-5.04429
-4.96069
-4.87043
-4.77343
-4.66963
-4.559
-4.44152
-4.31719
-4.18601
-4.04803
-3.90329
-3.75186
-3.59381
-3.42923
-3.25825
-3.08098
-2.89755
-2.70811
-2.51283
-2.31188
-2.10543
-1.89369
-1.67685
-1.45513
-1.22874
-0.997913
-0.76289
-0.52391
-0.281225
-0.0350888
0.214236
0.466484
0.721383
0.978659
1.23803
1.49922
1.76193
2.02589
2.2908
2.55637
2.82231
3.08832
3.35411
3.61939
3.88386
4.14724
4.40922
4.66952
4.92785
5.18393
5.43746
5.68818
5.9358
6.18004
6.42065
6.65734
6.88986
7.11795
7.34136
7.55985
7.77316
7.98107
8.18335
8.37976
8.57011
8.75416
8.93173
9.10262
9.26663
9.4236
9.57333
9.71568
9.85048
9.97759
10.0969
10.2082
10.3114
10.4064
10.4931
10.5714
10.6413
10.7025
10.7552
10.7991
10.8344
10.8608
10.8784
10.8873
-5.36329
-5.34377
-5.31981
-5.29133
-5.25801
-5.21966
-5.17609
-5.12712
-5.07259
-5.01232
-4.94619
-4.87406
-4.79582
-4.71137
-4.62063
-4.52353
-4.42003
-4.31008
-4.19368
-4.07082
-3.94151
-3.80579
-3.6637
-3.5153
-3.36066
-3.19988
-3.03305
-2.8603
-2.68175
-2.49753
-2.3078
-2.11272
-1.91246
-1.70721
-1.49715
-1.28249
-1.06344
-0.840201
-0.613009
-0.382092
-0.147686
0.0899657
0.330615
0.574009
0.819889
1.06799
1.31806
1.56981
1.82299
2.07731
2.3325
2.58828
2.84437
3.10049
3.35637
3.61172
3.86626
4.11971
4.37179
4.62224
4.87076
5.11709
5.36096
5.6021
5.84023
6.07511
6.30647
6.53406
6.75762
6.97691
7.1917
7.40173
7.60679
7.80664
8.00106
8.18985
8.3728
8.5497
8.72035
8.88458
9.0422
9.19304
9.33694
9.47373
9.60326
9.7254
9.84001
9.94697
10.0462
10.1375
10.2208
10.296
10.3631
10.422
10.4726
10.5148
10.5486
10.574
10.591
10.5995
-5.15479
-5.13144
-5.10383
-5.07188
-5.03531
-4.99393
-4.94758
-4.89609
-4.83931
-4.77711
-4.70935
-4.63591
-4.5567
-4.47162
-4.38061
-4.28361
-4.18056
-4.07144
-3.95623
-3.83494
-3.70758
-3.57418
-3.43478
-3.28943
-3.13822
-2.98121
-2.81852
-2.65024
-2.47649
-2.29741
-2.11314
-1.92384
-1.72965
-1.53076
-1.32735
-1.1196
-0.907718
-0.6919
-0.472361
-0.249318
-0.0229972
0.206372
0.438554
0.673309
0.910391
1.14955
1.39054
1.6331
1.87697
2.12189
2.3676
2.61384
2.86033
3.10682
3.35303
3.5987
3.84356
4.08734
4.32978
4.57061
4.80958
5.04641
5.28086
5.51265
5.74155
5.9673
6.18966
6.40837
6.6232
6.83391
7.04028
7.24208
7.43909
7.63109
7.81786
7.99922
8.17495
8.34487
8.50879
8.66654
8.81793
8.9628
9.101
9.23237
9.35677
9.47407
9.58414
9.68685
9.78209
9.86977
9.94978
10.022
10.0865
10.143
10.1916
10.2321
10.2646
10.289
10.3053
10.3134
-4.95172
-4.92491
-4.89401
-4.85895
-4.81946
-4.77539
-4.72658
-4.67289
-4.61417
-4.55031
-4.48119
-4.4067
-4.32675
-4.24126
-4.15017
-4.05343
-3.95099
-3.84283
-3.72894
-3.60932
-3.48398
-3.35295
-3.21627
-3.074
-2.92621
-2.77297
-2.61437
-2.45051
-2.28152
-2.1075
-1.9286
-1.74496
-1.55673
-1.36408
-1.16717
-0.966184
-0.76131
-0.552739
-0.340672
-0.125316
0.093116
0.314406
0.538331
0.764663
0.993169
1.22361
1.45575
1.68935
1.92416
2.15993
2.39641
2.63335
2.87049
3.10759
3.34439
3.58063
3.81607
4.05043
4.28348
4.51496
4.74462
4.9722
5.19747
5.42018
5.64009
5.85695
6.07053
6.2806
6.48693
6.6893
6.88748
7.08126
7.27043
7.45478
7.63411
7.80823
7.97694
8.14006
8.29743
8.44885
8.59417
8.73324
8.86589
8.99199
9.11139
9.22398
9.32962
9.4282
9.51961
9.60376
9.68055
9.7499
9.81173
9.86599
9.9126
9.95151
9.9827
10.0061
10.0217
10.0296
-4.75412
-4.72419
-4.69034
-4.65249
-4.61042
-4.56398
-4.51302
-4.45741
-4.39704
-4.33179
-4.26156
-4.18625
-4.10578
-4.02008
-3.9291
-3.83278
-3.7311
-3.62403
-3.51155
-3.39369
-3.27044
-3.14184
-3.00792
-2.86875
-2.72437
-2.57487
-2.42034
-2.26086
-2.09655
-1.92752
-1.75389
-1.57582
-1.39343
-1.20688
-1.01633
-0.821958
-0.623932
-0.422437
-0.217663
-0.00980493
0.200935
0.41435
0.630228
0.848354
1.06851
1.29046
1.51399
1.73886
1.96485
2.19171
2.41921
2.6471
2.87515
3.10312
3.33076
3.55783
3.78409
4.0093
4.23321
4.45559
4.6762
4.89479
5.11113
5.325
5.53616
5.74437
5.94942
6.15109
6.34915
6.5434
6.73361
6.91959
7.10114
7.27805
7.45014
7.61722
7.7791
7.93562
8.0866
8.23188
8.37131
8.50472
8.63198
8.75295
8.86749
8.97549
9.07682
9.17138
9.25907
9.33978
9.41344
9.47996
9.53927
9.59131
9.63601
9.67334
9.70325
9.72571
9.7407
9.74819
-4.56203
-4.5293
-4.49281
-4.4525
-4.40815
-4.35962
-4.3068
-4.24956
-4.18779
-4.1214
-4.0503
-3.97439
-3.8936
-3.80789
-3.71718
-3.62144
-3.52065
-3.41478
-3.30383
-3.1878
-3.0667
-2.94058
-2.80945
-2.67338
-2.53243
-2.38665
-2.23615
-2.081
-1.9213
-1.75718
-1.58874
-1.41612
-1.23945
-1.05888
-0.874552
-0.686637
-0.495298
-0.300708
-0.103046
0.0975023
0.300746
0.50649
0.714533
0.924671
1.13669
1.35039
1.56554
1.78193
1.99933
2.21753
2.43629
2.65539
2.8746
3.09369
3.31243
3.53059
3.74794
3.96424
4.17928
4.39281
4.60462
4.81447
5.02215
5.22742
5.43007
5.62989
5.82665
6.02016
6.21018
6.39654
6.57901
6.75742
6.93156
7.10124
7.26629
7.42653
7.58178