/*--------------------------------*- C++ -*----------------------------------*\
  =========                 |
  \\      /  F ield         | OpenFOAM: The Open Source CFD Toolbox
   \\    /   O peration     | Website:  https://openfoam.org
    \\  /    A nd           | Version:  8
     \\/     M anipulation  |
\*---------------------------------------------------------------------------*/
FoamFile
{
    version     2.0;
    format      ascii;
    class       surfaceScalarField;
    location    "9.5";
    object      phi;
}
// * * * * * * * * * * * * * * * * * * * * * * * * * * * * * * * * * * * * * //

dimensions      [0 3 -1 0 0 0 0];

internalField   nonuniform List<scalar> 
344850
(
-0.000482909
2.8111e-05
0.000454799
-0.00050793
2.50203e-05
-0.000530303
2.23727e-05
-0.000550295
1.99921e-05
-0.000568222
1.79274e-05
-0.000584355
1.61328e-05
-0.000598924
1.45692e-05
-0.000612123
1.31986e-05
-0.000624112
1.19891e-05
-0.000635025
1.09137e-05
-0.000644975
9.94966e-06
-0.000654053
9.07816e-06
-0.000662336
8.28284e-06
-0.000669885
7.54924e-06
-0.000676749
6.86413e-06
-0.000682964
6.21491e-06
-0.000688554
5.58938e-06
-0.000693529
4.975e-06
-0.000697888
4.35948e-06
-0.00070162
3.73134e-06
-0.000704701
3.08196e-06
-0.000707108
2.4062e-06
-0.00070881
1.7022e-06
-0.000709789
9.78807e-07
-0.000710061
2.72803e-07
-0.000709743
-3.18187e-07
-0.000708974
-7.68834e-07
-0.000707819
-1.15552e-06
-0.000706297
-1.52225e-06
-0.00070442
-1.87651e-06
-0.000702198
-2.22179e-06
-0.000699639
-2.55939e-06
-0.000696749
-2.88993e-06
-0.000693535
-3.21408e-06
-0.000690003
-3.53221e-06
-0.000686158
-3.84457e-06
-0.000682007
-4.15145e-06
-0.000677554
-4.45297e-06
-0.000672804
-4.7494e-06
-0.000667763
-5.04096e-06
-0.000662436
-5.32762e-06
-0.000656826
-5.6096e-06
-0.000650939
-5.88704e-06
-0.000644779
-6.15999e-06
-0.000638351
-6.42841e-06
-0.000631658
-6.69259e-06
-0.000624706
-6.95236e-06
-0.000617498
-7.20794e-06
-0.000610039
-7.45932e-06
-0.000602332
-7.70647e-06
-0.000594383
-7.94937e-06
-0.000586194
-8.18819e-06
-0.000577772
-8.42284e-06
-0.000569118
-8.65324e-06
-0.000560239
-8.87933e-06
-0.000551138
-9.10117e-06
-0.000541819
-9.31853e-06
-0.000532288
-9.53131e-06
-0.000522549
-9.73915e-06
-0.000512607
-9.94198e-06
-0.000502468
-1.01393e-05
-0.000492137
-1.03305e-05
-0.000481622
-1.05151e-05
-0.00047093
-1.06924e-05
-0.000460068
-1.0862e-05
-0.000449043
-1.10243e-05
-0.000437862
-1.11811e-05
-0.000426525
-1.13371e-05
-0.000415025
-1.14997e-05
-0.000403348
-1.16769e-05
-0.000391476
-1.18725e-05
-0.000379399
-1.20767e-05
-0.000367135
-1.22646e-05
-0.000354723
-1.24118e-05
-0.000342202
-1.25212e-05
-0.000329586
-1.26158e-05
-0.000316879
-1.27075e-05
-0.000304079
-1.27995e-05
-0.000291176
-1.29033e-05
-0.000278158
-1.30174e-05
-0.000265026
-1.31322e-05
-0.000251781
-1.3245e-05
-0.000238427
-1.33537e-05
-0.00022497
-1.34579e-05
-0.000211413
-1.35571e-05
-0.000197761
-1.36513e-05
-0.000184021
-1.37403e-05
-0.000170197
-1.3824e-05
-0.000156295
-1.39024e-05
-0.000142319
-1.39755e-05
-0.000128276
-1.40432e-05
-0.00011417
-1.41058e-05
-0.000100007
-1.41634e-05
-8.57903e-05
-1.42164e-05
-7.15249e-05
-1.42654e-05
-5.7215e-05
-1.43099e-05
-4.2869e-05
-1.43461e-05
-2.85036e-05
-1.43654e-05
-1.41468e-05
-1.43568e-05
-1.41473e-05
5.42739e-10
-0.000724831
4.54641e-05
0.000707478
-0.000739575
3.97639e-05
-0.00075231
3.51078e-05
-0.000763464
3.11459e-05
-0.000773282
2.77455e-05
-0.000781943
2.47939e-05
-0.000789581
2.22074e-05
-0.000796299
1.99171e-05
-0.000802179
1.78682e-05
-0.000807282
1.60168e-05
-0.00081166
1.43276e-05
-0.000815354
1.27721e-05
-0.000818398
1.1327e-05
-0.000820822
9.97363e-06
-0.000822654
8.6964e-06
-0.000823922
7.48287e-06
-0.000824656
6.32314e-06
-0.000824891
5.20961e-06
-0.000824668
4.13699e-06
-0.000824039
3.10164e-06
-0.000823058
2.10154e-06
-0.000821788
1.13596e-06
-0.000820292
2.0665e-07
-0.000818637
-6.76788e-07
-0.000816856
-1.50791e-06
-0.000814873
-2.30126e-06
-0.000812565
-3.07637e-06
-0.000809892
-3.82915e-06
-0.000806857
-4.55718e-06
-0.000803468
-5.26526e-06
-0.000799733
-5.95652e-06
-0.00079566
-6.63287e-06
-0.000791254
-7.29545e-06
-0.000786523
-7.94515e-06
-0.000781473
-8.58286e-06
-0.000776108
-9.20879e-06
-0.000770436
-9.82362e-06
-0.000764462
-1.04278e-05
-0.00075819
-1.10214e-05
-0.000751626
-1.16048e-05
-0.000744775
-1.21783e-05
-0.000737643
-1.27421e-05
-0.000730233
-1.32963e-05
-0.000722552
-1.38411e-05
-0.000714604
-1.43769e-05
-0.000706393
-1.49032e-05
-0.000697925
-1.54207e-05
-0.000689204
-1.59291e-05
-0.000680234
-1.64285e-05
-0.000671022
-1.69192e-05
-0.00066157
-1.7401e-05
-0.000651884
-1.78739e-05
-0.000641969
-1.8338e-05
-0.000631829
-1.87934e-05
-0.000621468
-1.92398e-05
-0.000610892
-1.96772e-05
-0.000600105
-2.01058e-05
-0.000589111
-2.05252e-05
-0.000577915
-2.09355e-05
-0.00056652
-2.13365e-05
-0.000554932
-2.17281e-05
-0.000543152
-2.21101e-05
-0.000531184
-2.24825e-05
-0.000519032
-2.28453e-05
-0.000506695
-2.31982e-05
-0.000494178
-2.35418e-05
-0.000481482
-2.38767e-05
-0.000468615
-2.42047e-05
-0.000455586
-2.45283e-05
-0.000442412
-2.48516e-05
-0.000429107
-2.51768e-05
-0.000415683
-2.55013e-05
-0.000402134
-2.58132e-05
-0.000388446
-2.60994e-05
-0.00037461
-2.63575e-05
-0.000360629
-2.65966e-05
-0.000346513
-2.68235e-05
-0.00033227
-2.70424e-05
-0.000317914
-2.72593e-05
-0.000303457
-2.74751e-05
-0.000288902
-2.76863e-05
-0.000274257
-2.78908e-05
-0.000259523
-2.80871e-05
-0.000244707
-2.82742e-05
-0.000229812
-2.8452e-05
-0.000214843
-2.862e-05
-0.000199805
-2.87781e-05
-0.000184703
-2.89261e-05
-0.000169542
-2.9064e-05
-0.000154326
-2.91916e-05
-0.00013906
-2.93092e-05
-0.000123749
-2.94166e-05
-0.000108398
-2.95142e-05
-9.30123e-05
-2.96022e-05
-7.75965e-05
-2.96811e-05
-6.21556e-05
-2.97508e-05
-4.66919e-05
-2.98097e-05
-3.1202e-05
-2.98553e-05
-1.56819e-05
-2.98769e-05
-2.98296e-05
4.23956e-10
-0.00079651
5.64258e-05
0.000785548
-0.000806539
4.97931e-05
-0.000815602
4.41704e-05
-0.000823785
3.93289e-05
-0.000831155
3.51157e-05
-0.000837769
3.14077e-05
-0.000843673
2.81114e-05
-0.000848908
2.51523e-05
-0.000853511
2.24711e-05
-0.000857514
2.00202e-05
-0.000860948
1.77617e-05
-0.000863841
1.56645e-05
-0.000866218
1.37038e-05
-0.000868103
1.18589e-05
-0.00086952
1.01135e-05
-0.000870491
8.45424e-06
-0.000871038
6.8701e-06
-0.000871181
5.35247e-06
-0.000870939
3.89442e-06
-0.000870327
2.49025e-06
-0.000869361
1.13494e-06
-0.000868049
-1.75355e-07
-0.000866398
-1.4443e-06
-0.000864399
-2.67567e-06
-0.000862038
-3.8694e-06
-0.000859308
-5.03163e-06
-0.000856217
-6.16657e-06
-0.000852774
-7.27229e-06
-0.000848982
-8.34947e-06
-0.000844846
-9.40112e-06
-0.000840373
-1.04297e-05
-0.000835569
-1.14369e-05
-0.00083044
-1.24243e-05
-0.000824992
-1.33928e-05
-0.000819232
-1.43437e-05
-0.000813163
-1.52773e-05
-0.000806792
-1.61945e-05
-0.000800124
-1.70956e-05
-0.000793164
-1.79813e-05
-0.000785918
-1.88517e-05
-0.000778389
-1.97073e-05
-0.000770582
-2.05484e-05
-0.000762503
-2.13751e-05
-0.000754157
-2.21877e-05
-0.000745547
-2.29865e-05
-0.000736679
-2.37714e-05
-0.000727557
-2.45427e-05
-0.000718186
-2.53005e-05
-0.000708569
-2.60447e-05
-0.000698713
-2.67756e-05
-0.000688621
-2.74932e-05
-0.000678297
-2.81974e-05
-0.000667747
-2.88882e-05
-0.000656975
-2.95658e-05
-0.000645984
-3.02301e-05
-0.000634781
-3.0881e-05
-0.000623368
-3.15184e-05
-0.000611751
-3.21423e-05
-0.000599934
-3.27527e-05
-0.000587921
-3.33494e-05
-0.000575717
-3.39322e-05
-0.000563326
-3.45013e-05
-0.000550752
-3.50562e-05
-0.000538
-3.55972e-05
-0.000525074
-3.61243e-05
-0.000511977
-3.66382e-05
-0.000498714
-3.71397e-05
-0.000485289
-3.76303e-05
-0.000471705
-3.81124e-05
-0.000457969
-3.85873e-05
-0.00044409
-3.90554e-05
-0.000430079
-3.95129e-05
-0.00041594
-3.99522e-05
-0.000401672
-4.03666e-05
-0.000387274
-4.07555e-05
-0.000372748
-4.11229e-05
-0.000358098
-4.14734e-05
-0.00034333
-4.18104e-05
-0.000328452
-4.21376e-05
-0.000313472
-4.24556e-05
-0.000298395
-4.2763e-05
-0.000283227
-4.30584e-05
-0.000267974
-4.33408e-05
-0.000252638
-4.36095e-05
-0.000237226
-4.38642e-05
-0.000221742
-4.41043e-05
-0.00020619
-4.43298e-05
-0.000190576
-4.45404e-05
-0.000174904
-4.47361e-05
-0.000159179
-4.49167e-05
-0.000143406
-4.50823e-05
-0.000127589
-4.5233e-05
-0.000111734
-4.53689e-05
-9.58463e-05
-4.54902e-05
-7.99302e-05
-4.55973e-05
-6.39909e-05
-4.56901e-05
-4.80323e-05
-4.57683e-05
-3.20564e-05
-4.58313e-05
-1.6058e-05
-4.58754e-05
-4.58879e-05
3.62248e-10
-0.000834904
6.56458e-05
0.000825684
-0.000843553
5.84419e-05
-0.000851575
5.21918e-05
-0.00085895
4.67043e-05
-0.000865678
4.18439e-05
-0.000871771
3.75006e-05
-0.000877246
3.35863e-05
-0.000882123
3.00294e-05
-0.000886424
2.67719e-05
-0.00089017
2.37663e-05
-0.000893382
2.09739e-05
-0.000896081
1.83629e-05
-0.000898284
1.59071e-05
-0.00090001
1.3585e-05
-0.000901275
1.13785e-05
-0.000902094
9.27307e-06
-0.00090248
7.25625e-06
-0.000902446
5.31803e-06
-0.000902001
3.45003e-06
-0.000901156
1.64518e-06
-0.000899919
-1.02179e-07
-0.000898298
-1.79702e-06
-0.000896298
-3.44383e-06
-0.000893925
-5.0484e-06
-0.000891183
-6.61216e-06
-0.000888075
-8.1394e-06
-0.00088461
-9.6318e-06
-0.000880793
-1.10893e-05
-0.000876629
-1.2513e-05
-0.000872124
-1.39059e-05
-0.000867284
-1.52696e-05
-0.000862115
-1.66063e-05
-0.000856622
-1.79174e-05
-0.00085081
-1.92042e-05
-0.000844686
-2.04677e-05
-0.000838255
-2.17089e-05
-0.000831521
-2.29284e-05
-0.00082449
-2.41269e-05
-0.000817166
-2.53049e-05
-0.000809555
-2.64629e-05
-0.000801661
-2.76013e-05
-0.000793489
-2.87204e-05
-0.000785043
-2.98206e-05
-0.000776329
-3.0902e-05
-0.00076735
-3.1965e-05
-0.000758112
-3.30095e-05
-0.000748619
-3.40359e-05
-0.000738875
-3.50443e-05
-0.000728885
-3.60347e-05
-0.000718654
-3.70073e-05
-0.000708185
-3.79619e-05
-0.000697483
-3.88989e-05
-0.000686554
-3.9818e-05
-0.0006754
-4.07195e-05
-0.000664027
-4.1603e-05
-0.000652439
-4.24688e-05
-0.000640641
-4.33168e-05
-0.000628636
-4.41468e-05
-0.00061643
-4.49588e-05
-0.000604027
-4.57527e-05
-0.000591431
-4.65286e-05
-0.000578646
-4.7286e-05
-0.000565677
-4.80253e-05
-0.000552528
-4.87463e-05
-0.000539203
-4.94491e-05
-0.000525707
-5.01343e-05
-0.000512044
-5.08025e-05
-0.00049822
-5.14549e-05
-0.000484239
-5.20926e-05
-0.00047011
-5.27167e-05
-0.000455839
-5.33268e-05
-0.000441431
-5.39201e-05
-0.000426892
-5.44916e-05
-0.000412221
-5.50371e-05
-0.000397421
-5.5556e-05
-0.000382493
-5.60505e-05
-0.000367444
-5.65233e-05
-0.000352277
-5.69774e-05
-0.000336999
-5.74149e-05
-0.000321618
-5.78366e-05
-0.000306139
-5.82418e-05
-0.000290568
-5.86298e-05
-0.000274909
-5.89998e-05
-0.000259167
-5.93513e-05
-0.000243348
-5.96839e-05
-0.000227455
-5.99971e-05
-0.000211494
-6.02909e-05
-0.000195469
-6.0565e-05
-0.000179386
-6.08193e-05
-0.000163249
-6.10537e-05
-0.000147063
-6.12682e-05
-0.000130833
-6.14629e-05
-0.000114564
-6.16378e-05
-9.82611e-05
-6.17931e-05
-8.19294e-05
-6.1929e-05
-6.55739e-05
-6.20456e-05
-4.91995e-05
-6.21426e-05
-3.28112e-05
-6.22196e-05
-1.64122e-05
-6.22744e-05
-6.23004e-05
3.21744e-10
-0.000865404
7.40021e-05
0.000857047
-0.000873387
6.64248e-05
-0.000880875
5.96807e-05
-0.000887818
5.3647e-05
-0.000894191
4.82168e-05
-0.000899988
4.32976e-05
-0.000905213
3.88111e-05
-0.000909875
3.46916e-05
-0.000913987
3.08842e-05
-0.000917564
2.73432e-05
-0.000920621
2.40304e-05
-0.000923172
2.09141e-05
-0.000925232
1.79677e-05
-0.000926816
1.51689e-05
-0.000927937
1.24992e-05
-0.000928606
9.9428e-06
-0.000928837
7.48678e-06
-0.000928639
5.11998e-06
-0.000928022
2.83319e-06
-0.000926995
6.18505e-07
-0.000925567
-1.53069e-06
-0.000923743
-3.62076e-06
-0.000921531
-5.6559e-06
-0.000918939
-7.64069e-06
-0.000915973
-9.57809e-06
-0.000912641
-1.14715e-05
-0.000908949
-1.33233e-05
-0.000904904
-1.51344e-05
-0.00090051
-1.69067e-05
-0.000895774
-1.86426e-05
-0.0008907
-2.03438e-05
-0.000885293
-2.20125e-05
-0.000879561
-2.36501e-05
-0.000873507
-2.5258e-05
-0.000867137
-2.68376e-05
-0.000860456
-2.83895e-05
-0.00085347
-2.99148e-05
-0.000846183
-3.14141e-05
-0.0008386
-3.28881e-05
-0.000830725
-3.43373e-05
-0.000822564
-3.57622e-05
-0.000814122
-3.7163e-05
-0.000805402
-3.85404e-05
-0.00079641
-3.98943e-05
-0.00078715
-4.12251e-05
-0.000777626
-4.25332e-05
-0.000767843
-4.38185e-05
-0.000757807
-4.50812e-05
-0.00074752
-4.63215e-05
-0.000736988
-4.75394e-05
-0.000726214
-4.8735e-05
-0.000715205
-4.99083e-05
-0.000703963
-5.10595e-05
-0.000692495
-5.21883e-05
-0.000680803
-5.32948e-05
-0.000668893
-5.4379e-05
-0.000656769
-5.54409e-05
-0.000644435
-5.64804e-05
-0.000631896
-5.74973e-05
-0.000619157
-5.84917e-05
-0.000606222
-5.94635e-05
-0.000593096
-6.04125e-05
-0.000579782
-6.13388e-05
-0.000566286
-6.22425e-05
-0.000552612
-6.31235e-05
-0.000538764
-6.39824e-05
-0.000524747
-6.48196e-05
-0.000510566
-6.56356e-05
-0.000496227
-6.64315e-05
-0.000481736
-6.72073e-05
-0.000467101
-6.79627e-05
-0.000452325
-6.86955e-05
-0.000437414
-6.94027e-05
-0.00042237
-7.00814e-05
-0.000407194
-7.07313e-05
-0.000391891
-7.13534e-05
-0.000376465
-7.19495e-05
-0.000360921
-7.25214e-05
-0.000345265
-7.30708e-05
-0.000329504
-7.35982e-05
-0.000313642
-7.41035e-05
-0.000297685
-7.45862e-05
-0.000281639
-7.50457e-05
-0.000265509
-7.54818e-05
-0.000249299
-7.58939e-05
-0.000233014
-7.62818e-05
-0.00021666
-7.66452e-05
-0.000200241
-7.69841e-05
-0.000183762
-7.72981e-05
-0.000167228
-7.75874e-05
-0.000150645
-7.78517e-05
-0.000134017
-7.80912e-05
-0.000117348
-7.83058e-05
-0.000100646
-7.84958e-05
-8.39139e-05
-7.8661e-05
-6.71579e-05
-7.88016e-05
-5.03833e-05
-7.89172e-05
-3.35957e-05
-7.90072e-05
-1.68003e-05
-7.90698e-05
-7.9101e-05
2.9002e-10
-0.000893761
8.18081e-05
0.000885955
-0.00090125
7.39136e-05
-0.000908318
6.67483e-05
-0.000914905
6.02342e-05
-0.000920978
5.42898e-05
-0.00092652
4.884e-05
-0.000931527
4.38173e-05
-0.000935998
3.91634e-05
-0.000939942
3.48277e-05
-0.000943366
3.07673e-05
-0.000946281
2.69458e-05
-0.000948699
2.33319e-05
-0.000950631
1.98994e-05
-0.000952088
1.66261e-05
-0.000953082
1.34929e-05
-0.000953623
1.0484e-05
-0.000953722
7.5856e-06
-0.000953388
4.7862e-06
-0.000952631
2.07608e-06
-0.000951459
-5.53059e-07
-0.000949882
-3.10853e-06
-0.000947905
-5.59693e-06
-0.000945538
-8.02315e-06
-0.000942787
-1.03916e-05
-0.000939659
-1.27059e-05
-0.000936162
-1.49694e-05
-0.0009323
-1.71846e-05
-0.000928081
-1.93536e-05
-0.00092351
-2.14784e-05
-0.000918591
-2.35613e-05
-0.00091333
-2.56043e-05
-0.000907733
-2.76093e-05
-0.000901806
-2.9578e-05
-0.000895552
-3.15119e-05
-0.000888977
-3.3412e-05
-0.000882087
-3.52796e-05
-0.000874886
-3.71156e-05
-0.00086738
-3.89207e-05
-0.000859572
-4.06957e-05
-0.000851468
-4.2441e-05
-0.000843073
-4.41574e-05
-0.000834391
-4.5845e-05
-0.000825427
-4.75045e-05
-0.000816185
-4.9136e-05
-0.000806671
-5.07397e-05
-0.000796888
-5.23161e-05
-0.000786841
-5.38652e-05
-0.000776535
-5.53871e-05
-0.000765975
-5.68822e-05
-0.000755164
-5.83502e-05
-0.000744108
-5.97914e-05
-0.00073281
-6.12058e-05
-0.000721276
-6.25934e-05
-0.00070951
-6.39542e-05
-0.000697517
-6.52881e-05
-0.000685301
-6.65952e-05
-0.000672866
-6.78753e-05
-0.000660218
-6.91284e-05
-0.000647361
-7.03544e-05
-0.0006343
-7.15534e-05
-0.000621038
-7.2725e-05
-0.000607581
-7.38693e-05
-0.000593933
-7.49865e-05
-0.0005801
-7.60763e-05
-0.000566084
-7.71389e-05
-0.000551892
-7.81746e-05
-0.000537528
-7.91836e-05
-0.000522997
-8.01664e-05
-0.000508306
-8.11233e-05
-0.000493459
-8.20543e-05
-0.000478462
-8.2959e-05
-0.000463322
-8.38357e-05
-0.000448042
-8.46825e-05
-0.000432626
-8.54975e-05
-0.000417077
-8.62805e-05
-0.000401399
-8.70318e-05
-0.000385595
-8.77526e-05
-0.000369673
-8.84442e-05
-0.000353636
-8.91074e-05
-0.000337492
-8.97429e-05
-0.000321244
-9.03506e-05
-0.0003049
-9.09303e-05
-0.000288465
-9.14816e-05
-0.000271942
-9.20042e-05
-0.000255338
-9.24978e-05
-0.000238658
-9.2962e-05
-0.000221906
-9.33968e-05
-0.000205089
-9.38018e-05
-0.00018821
-9.4177e-05
-0.000171275
-9.45222e-05
-0.000154289
-9.48375e-05
-0.000137258
-9.51227e-05
-0.000120186
-9.53778e-05
-0.000103079
-9.5603e-05
-8.59416e-05
-9.57981e-05
-6.87802e-05
-9.5963e-05
-5.16e-05
-9.60974e-05
-3.44066e-05
-9.62006e-05
-1.72053e-05
-9.62711e-05
-9.63066e-05
2.62348e-10
-0.000921519
8.9166e-05
0.000914161
-0.000928594
8.09894e-05
-0.000935297
7.3451e-05
-0.000941568
6.65054e-05
-0.00094737
6.00915e-05
-0.000952679
5.41492e-05
-0.000957484
4.86222e-05
-0.00096178
4.34595e-05
-0.000965568
3.86158e-05
-0.000968853
3.40518e-05
-0.00097164
2.97331e-05
-0.000973939
2.56301e-05
-0.000975756
2.17173e-05
-0.000977103
1.79729e-05
-0.000977989
1.43781e-05
-0.000978421
1.09168e-05
-0.000978411
7.57509e-06
-0.000977966
4.34137e-06
-0.000977095
1.20526e-06
-0.000975807
-1.8416e-06
-0.000974108
-4.80726e-06
-0.000972007
-7.69787e-06
-0.000969511
-1.05191e-05
-0.000966627
-1.32755e-05
-0.000963362
-1.59711e-05
-0.000959722
-1.86095e-05
-0.000955713
-2.11934e-05
-0.000951341
-2.37255e-05
-0.000946612
-2.6208e-05
-0.00094153
-2.86432e-05
-0.000936101
-3.10333e-05
-0.00093033
-3.33801e-05
-0.000924222
-3.56855e-05
-0.000917784
-3.79507e-05
-0.000911018
-4.01772e-05
-0.000903932
-4.23663e-05
-0.000896529
-4.45187e-05
-0.000888814
-4.66354e-05
-0.000880793
-4.8717e-05
-0.000872469
-5.07644e-05
-0.000863849
-5.27779e-05
-0.000854936
-5.4758e-05
-0.000845735
-5.67053e-05
-0.000836251
-5.862e-05
-0.000826488
-6.05023e-05
-0.000816452
-6.23526e-05
-0.000806146
-6.4171e-05
-0.000795575
-6.59577e-05
-0.000784745
-6.77128e-05
-0.000773659
-6.94362e-05
-0.000762322
-7.11283e-05
-0.000750739
-7.27889e-05
-0.000738914
-7.44182e-05
-0.000726852
-7.60158e-05
-0.000714558
-7.75821e-05
-0.000702037
-7.91168e-05
-0.000689292
-8.062e-05
-0.000676329
-8.20914e-05
-0.000663152
-8.35311e-05
-0.000649767
-8.49391e-05
-0.000636177
-8.6315e-05
-0.000622387
-8.7659e-05
-0.000608403
-8.89709e-05
-0.000594228
-9.02509e-05
-0.000579868
-9.14988e-05
-0.000565328
-9.27149e-05
-0.000550612
-9.38994e-05
-0.000535726
-9.50523e-05
-0.000520675
-9.61739e-05
-0.000505466
-9.7264e-05
-0.000490103
-9.8322e-05
-0.000474591
-9.93469e-05
-0.000458937
-0.000100337
-0.000443142
-0.000101292
-0.000427212
-0.000102211
-0.000411151
-0.000103093
-0.000394962
-0.000103941
-0.000378652
-0.000104754
-0.000362226
-0.000105534
-0.000345689
-0.00010628
-0.000329048
-0.000106992
-0.000312307
-0.000107671
-0.000295472
-0.000108317
-0.000278548
-0.000108928
-0.000261541
-0.000109505
-0.000244455
-0.000110048
-0.000227296
-0.000110555
-0.00021007
-0.000111028
-0.000192781
-0.000111466
-0.000175435
-0.000111869
-0.000158036
-0.000112236
-0.000140591
-0.000112568
-0.000123105
-0.000112864
-0.000105582
-0.000113125
-8.80293e-05
-0.000113351
-7.04514e-05
-0.000113541
-5.28542e-05
-0.000113695
-3.52432e-05
-0.000113812
-1.76237e-05
-0.000113891
-0.00011393
2.37179e-10
-0.000949374
9.61568e-05
0.000942383
-0.0009561
8.77162e-05
-0.000962486
7.98368e-05
-0.000968476
7.24955e-05
-0.000974032
6.56469e-05
-0.000979126
5.92437e-05
-0.000983743
5.32395e-05
-0.000987874
4.75907e-05
-0.000991516
4.22576e-05
-0.000994669
3.72045e-05
-0.000997336
3.24e-05
-0.000999522
2.78163e-05
-0.00100123
2.34291e-05
-0.00100248
1.92175e-05
-0.00100326
1.51631e-05
-0.0010036
1.125e-05
-0.00100349
7.46443e-06
-0.00100294
3.7946e-06
-0.00100196
2.30304e-07
-0.00100057
-3.23755e-06
-0.000998759
-6.61667e-06
-0.000996543
-9.91373e-06
-0.000993928
-1.31344e-05
-0.000990919
-1.62837e-05
-0.000987525
-1.93657e-05
-0.00098375
-2.23844e-05
-0.0009796
-2.53428e-05
-0.000975082
-2.82438e-05
-0.0009702
-3.10898e-05
-0.00096496
-3.38832e-05
-0.000959367
-3.66263e-05
-0.000953426
-3.9321e-05
-0.000947143
-4.1969e-05
-0.000940522
-4.45719e-05
-0.000933568
-4.7131e-05
-0.000926287
-4.96476e-05
-0.000918683
-5.21226e-05
-0.000910761
-5.45571e-05
-0.000902526
-5.69517e-05
-0.000893983
-5.93073e-05
-0.000885137
-6.16241e-05
-0.000875992
-6.3903e-05
-0.000866553
-6.61442e-05
-0.000856825
-6.8348e-05
-0.000846813
-7.0515e-05
-0.00083652
-7.26451e-05
-0.000825953
-7.47386e-05
-0.000815114
-7.67958e-05
-0.00080401
-7.88167e-05
-0.000792645
-8.08013e-05
-0.000781024
-8.27498e-05
-0.000769151
-8.46622e-05
-0.00075703
-8.65384e-05
-0.000744668
-8.83785e-05
-0.000732068
-9.01823e-05
-0.000719235
-9.19498e-05
-0.000706174
-9.36811e-05
-0.000692889
-9.53758e-05
-0.000679386
-9.70341e-05
-0.00066567
-9.86557e-05
-0.000651744
-0.000100241
-0.000637614
-0.000101789
-0.000623285
-0.0001033
-0.000608762
-0.000104774
-0.000594049
-0.000106212
-0.000579152
-0.000107612
-0.000564076
-0.000108976
-0.000548825
-0.000110303
-0.000533406
-0.000111593
-0.000517824
-0.000112846
-0.000502084
-0.000114062
-0.000486193
-0.000115239
-0.000470153
-0.000116377
-0.000453971
-0.000117474
-0.000437649
-0.000118532
-0.000421194
-0.000119549
-0.00040461
-0.000120526
-0.000387901
-0.000121463
-0.000371074
-0.000122361
-0.000354134
-0.00012322
-0.000337086
-0.00012404
-0.000319936
-0.000124821
-0.00030269
-0.000125563
-0.000285353
-0.000126265
-0.000267931
-0.000126928
-0.000250428
-0.00012755
-0.000232851
-0.000128133
-0.000215203
-0.000128675
-0.000197492
-0.000129177
-0.000179722
-0.000129638
-0.000161899
-0.000130059
-0.000144028
-0.000130439
-0.000126115
-0.000130778
-0.000108164
-0.000131076
-9.01826e-05
-0.000131333
-7.21754e-05
-0.000131548
-5.41481e-05
-0.000131722
-3.61064e-05
-0.000131853
-1.80554e-05
-0.000131942
-0.000131986
2.14084e-10
-0.000977711
0.00010284
0.000971027
-0.000984138
9.41439e-05
-0.000990246
8.59441e-05
-0.000995983
7.82324e-05
-0.00100131
7.09756e-05
-0.0010062
6.41367e-05
-0.00101064
5.7678e-05
-0.00101462
5.15628e-05
-0.00101811
4.57566e-05
-0.00102114
4.02279e-05
-0.00102369
3.4948e-05
-0.00102576
2.98916e-05
-0.00102737
2.50358e-05
-0.00102851
2.03607e-05
-0.0010292
1.58488e-05
-0.00102943
1.14846e-05
-0.00102922
7.25467e-06
-0.00102857
3.1473e-06
-0.0010275
-8.47785e-07
-0.00102599
-4.7396e-06
-0.00102407
-8.53597e-06
-0.00102174
-1.22438e-05
-0.00101901
-1.58687e-05
-0.00101588
-1.94159e-05
-0.00101235
-2.28899e-05
-0.00100844
-2.62947e-05
-0.00100415
-2.96335e-05
-0.000999487
-3.29095e-05
-0.000994452
-3.61251e-05
-0.000989052
-3.92831e-05
-0.000983293
-4.23854e-05
-0.00097718
-4.54343e-05
-0.000970717
-4.84313e-05
-0.000963911
-5.13783e-05
-0.000956765
-5.42764e-05
-0.000949286
-5.71271e-05
-0.000941477
-5.99314e-05
-0.000933344
-6.26902e-05
-0.000924892
-6.54042e-05
-0.000916124
-6.80744e-05
-0.000907047
-7.07011e-05
-0.000897665
-7.3285e-05
-0.000887983
-7.58264e-05
-0.000878005
-7.83259e-05
-0.000867737
-8.07835e-05
-0.000857182
-8.31997e-05
-0.000846346
-8.55746e-05
-0.000835234
-8.79082e-05
-0.000823849
-9.02009e-05
-0.000812198
-9.24525e-05
-0.000800285
-9.46634e-05
-0.000788114
-9.68331e-05
-0.00077569
-9.8962e-05
-0.000763018
-0.00010105
-0.000750104
-0.000103097
-0.000736951
-0.000105103
-0.000723565
-0.000107067
-0.00070995
-0.00010899
-0.000696112
-0.000110872
-0.000682055
-0.000112713
-0.000667785
-0.000114511
-0.000653305
-0.000116268
-0.000638622
-0.000117983
-0.00062374
-0.000119656
-0.000608664
-0.000121288
-0.000593399
-0.000122877
-0.000577951
-0.000124424
-0.000562325
-0.000125929
-0.000546527
-0.000127392
-0.000530561
-0.000128812
-0.000514433
-0.000130189
-0.00049815
-0.000131523
-0.000481714
-0.000132812
-0.000465132
-0.000134056
-0.000448409
-0.000135256
-0.000431548
-0.00013641
-0.000414555
-0.000137518
-0.000397436
-0.000138582
-0.000380195
-0.000139601
-0.000362839
-0.000140576
-0.000345372
-0.000141506
-0.000327802
-0.000142391
-0.000310132
-0.000143232
-0.00029237
-0.000144028
-0.000274519
-0.000144778
-0.000256586
-0.000145483
-0.000238577
-0.000146142
-0.000220496
-0.000146756
-0.00020235
-0.000147324
-0.000184143
-0.000147845
-0.000165882
-0.00014832
-0.000147572
-0.000148749
-0.000129218
-0.000149132
-0.000110827
-0.000149467
-9.24034e-05
-0.000149756
-7.39533e-05
-0.000149998
-5.54825e-05
-0.000150193
-3.69965e-05
-0.000150339
-1.85006e-05
-0.000150438
-0.000150487
1.93038e-10
-0.00100676
0.00010926
0.00100034
-0.00101293
0.00010031
-0.00101879
9.18026e-05
-0.00102429
8.37381e-05
-0.00102941
7.60927e-05
-0.00103411
6.88379e-05
-0.00103837
6.19433e-05
-0.00104219
5.53781e-05
-0.00104555
4.9113e-05
-0.00104844
4.31204e-05
-0.00105087
3.73747e-05
-0.00105283
3.18528e-05
-0.00105432
2.65336e-05
-0.00105536
2.13988e-05
-0.00105595
1.64313e-05
-0.00105608
1.16167e-05
-0.00105576
6.94185e-06
-0.00105501
2.39535e-06
-0.00105383
-2.03294e-06
-0.00105221
-6.35193e-06
-0.00105018
-1.05694e-05
-0.00104773
-1.46922e-05
-0.00104488
-1.87262e-05
-0.00104161
-2.26767e-05
-0.00103796
-2.65483e-05
-0.00103391
-3.0345e-05
-0.00102947
-3.40704e-05
-0.00102465
-3.77274e-05
-0.00101946
-4.13191e-05
-0.00101389
-4.48479e-05
-0.00100796
-4.8316e-05
-0.00100167
-5.17256e-05
-0.000995023
-5.50783e-05
-0.000988026
-5.8376e-05
-0.000980682
-6.16199e-05
-0.000972998
-6.48114e-05
-0.000964978
-6.79515e-05
-0.000956627
-7.10413e-05
-0.000947949
-7.40815e-05
-0.000938951
-7.70729e-05
-0.000929636
-8.00162e-05
-0.000920009
-8.29116e-05
-0.000910076
-8.57599e-05
-0.00089984
-8.85614e-05
-0.000889307
-9.13163e-05
-0.000878482
-9.40248e-05
-0.00086737
-9.66872e-05
-0.000855974
-9.93037e-05
-0.000844301
-0.000101874
-0.000832355
-0.000104399
-0.00082014
-0.000106878
-0.000807662
-0.000109311
-0.000794925
-0.000111699
-0.000781935
-0.00011404
-0.000768697
-0.000116336
-0.000755214
-0.000118585
-0.000741493
-0.000120788
-0.000727538
-0.000122945
-0.000713354
-0.000125056
-0.000698947
-0.00012712
-0.00068432
-0.000129138
-0.00066948
-0.000131108
-0.000654431
-0.000133032
-0.000639179
-0.000134908
-0.000623729
-0.000136738
-0.000608086
-0.00013852
-0.000592254
-0.000140255
-0.000576241
-0.000141942
-0.000560051
-0.000143582
-0.00054369
-0.000145173
-0.000527162
-0.000146716
-0.000510475
-0.00014821
-0.000493632
-0.000149655
-0.000476638
-0.00015105
-0.0004595
-0.000152394
-0.000442221
-0.000153688
-0.000424807
-0.000154932
-0.000407264
-0.000156125
-0.000389597
-0.000157268
-0.000371812
-0.000158361
-0.000353914
-0.000159404
-0.000335909
-0.000160396
-0.000317803
-0.000161338
-0.000299602
-0.000162229
-0.00028131
-0.00016307
-0.000262934
-0.000163859
-0.00024448
-0.000164597
-0.000225952
-0.000165283
-0.000207357
-0.000165918
-0.000188701
-0.000166502
-0.000169988
-0.000167033
-0.000151225
-0.000167512
-0.000132418
-0.000167939
-0.000113572
-0.000168313
-9.46925e-05
-0.000168635
-7.5786e-05
-0.000168905
-5.68579e-05
-0.000169121
-3.79139e-05
-0.000169283
-1.89594e-05
-0.000169392
-0.000169446
1.74139e-10
-0.00103667
0.000115449
0.00103048
-0.0010426
0.000106244
-0.00104823
9.74354e-05
-0.00105352
8.90295e-05
-0.00105844
8.10097e-05
-0.00106296
7.33541e-05
-0.00106705
6.60381e-05
-0.00107071
5.90366e-05
-0.00107392
5.23246e-05
-0.00107668
4.58782e-05
-0.00107898
3.9675e-05
-0.00108082
3.36941e-05
-0.00108221
2.79165e-05
-0.00108313
2.23248e-05
-0.0010836
1.69038e-05
-0.00108363
1.16392e-05
-0.0010832
6.51887e-06
-0.00108234
1.53164e-06
-0.00108104
-3.33225e-06
-0.00107931
-8.08159e-06
-0.00107716
-1.2724e-05
-0.00107458
-1.72662e-05
-0.00107159
-2.17142e-05
-0.0010682
-2.60733e-05
-0.0010644
-3.0348e-05
-0.0010602
-3.45425e-05
-0.00105561
-3.86605e-05
-0.00105063
-4.2705e-05
-0.00104527
-4.66791e-05
-0.00103954
-5.05853e-05
-0.00103343
-5.44257e-05
-0.00102695
-5.82026e-05
-0.00102011
-6.19178e-05
-0.00101291
-6.55729e-05
-0.00100536
-6.91693e-05
-0.000997465
-7.27085e-05
-0.000989226
-7.61913e-05
-0.000980648
-7.96189e-05
-0.000971738
-8.29921e-05
-0.000962499
-8.63115e-05
-0.000952937
-8.9578e-05
-0.000943057
-9.27919e-05
-0.000932863
-9.59536e-05
-0.000922361
-9.90637e-05
-0.000911555
-0.000102122
-0.00090045
-0.00010513
-0.000889051
-0.000108086
-0.000877363
-0.000110992
-0.000865391
-0.000113847
-0.000853139
-0.00011665
-0.000840613
-0.000119404
-0.000827818
-0.000122106
-0.000814758
-0.000124758
-0.000801439
-0.000127359
-0.000787866
-0.000129909
-0.000774043
-0.000132408
-0.000759976
-0.000134856
-0.000745669
-0.000137252
-0.000731128
-0.000139597
-0.000716359
-0.00014189
-0.000701365
-0.000144131
-0.000686153
-0.00014632
-0.000670728
-0.000148458
-0.000655094
-0.000150542
-0.000639257
-0.000152575
-0.000623223
-0.000154554
-0.000606997
-0.000156481
-0.000590584
-0.000158355
-0.00057399
-0.000160176
-0.00055722
-0.000161943
-0.00054028
-0.000163656
-0.000523176
-0.000165315
-0.000505913
-0.000166918
-0.000488495
-0.000168467
-0.000470929
-0.00016996
-0.00045322
-0.000171398
-0.000435373
-0.000172779
-0.000417393
-0.000174105
-0.000399287
-0.000175375
-0.000381059
-0.000176589
-0.000362716
-0.000177747
-0.000344264
-0.000178849
-0.000325708
-0.000179894
-0.000307054
-0.000180883
-0.000288308
-0.000181816
-0.000269475
-0.000182692
-0.000250562
-0.00018351
-0.000231574
-0.000184272
-0.000212517
-0.000184975
-0.000193396
-0.000185622
-0.000174219
-0.000186211
-0.000154989
-0.000186741
-0.000135714
-0.000187214
-0.0001164
-0.000187628
-9.70509e-05
-0.000187984
-7.76739e-05
-0.000188282
-5.82747e-05
-0.00018852
-3.88588e-05
-0.000188699
-1.9432e-05
-0.000188819
-0.000188879
1.57543e-10
-0.00106753
0.000121432
0.00106155
-0.00107325
0.000111968
-0.00107868
0.00010286
-0.00108377
9.41199e-05
-0.00108849
8.57354e-05
-0.00109283
7.76899e-05
-0.00109675
6.99639e-05
-0.00110025
6.25369e-05
-0.00110332
5.53878e-05
-0.00110594
4.84962e-05
-0.0011081
4.18425e-05
-0.00110982
3.54082e-05
-0.00111108
2.91762e-05
-0.00111188
2.31307e-05
-0.00111224
1.72574e-05
-0.00111214
1.15434e-05
-0.0011116
5.97681e-06
-0.00111061
5.47233e-07
-0.00110919
-4.7547e-06
-0.00110734
-9.93757e-06
-0.00110505
-1.50086e-05
-0.00110234
-1.99747e-05
-0.00109922
-2.48414e-05
-0.00109567
-2.96143e-05
-0.00109172
-3.42978e-05
-0.00108737
-3.8896e-05
-0.00108262
-4.34127e-05
-0.00107747
-4.7851e-05
-0.00107194
-5.22139e-05
-0.00106602
-5.65039e-05
-0.00105972
-6.07234e-05
-0.00105305
-6.48744e-05
-0.00104601
-6.89587e-05
-0.0010386
-7.29781e-05
-0.00103084
-7.6934e-05
-0.00102272
-8.08276e-05
-0.00101425
-8.466e-05
-0.00100544
-8.84324e-05
-0.000996285
-9.21454e-05
-0.000986796
-9.57998e-05
-0.000976978
-9.93963e-05
-0.000966835
-0.000102935
-0.000956371
-0.000106417
-0.000945592
-0.000109843
-0.000934502
-0.000113212
-0.000923107
-0.000116525
-0.000911411
-0.000119782