# Forces      
# CofR        : (0.000000e+00 0.000000e+00 0.000000e+00)
# Time        forces(pressure viscous porous)	moments(pressure viscous porous)
0.023088      	((9.911869e+02 2.082566e+02 -1.656019e-19) (3.444609e-01 -1.027011e+00 -3.076025e-20) (0.000000e+00 0.000000e+00 0.000000e+00)) ((-1.364904e-21 6.379602e-21 3.345339e+00) (-5.457990e-23 2.011469e-21 -1.426747e-01) (0.000000e+00 0.000000e+00 0.000000e+00))
