/*--------------------------------*- C++ -*----------------------------------*\
  =========                 |
  \\      /  F ield         | OpenFOAM: The Open Source CFD Toolbox
   \\    /   O peration     | Website:  https://openfoam.org
    \\  /    A nd           | Version:  8
     \\/     M anipulation  |
\*---------------------------------------------------------------------------*/
FoamFile
{
    version     2.0;
    format      ascii;
    class       volScalarField;
    location    "3.4";
    object      p;
}
// * * * * * * * * * * * * * * * * * * * * * * * * * * * * * * * * * * * * * //

dimensions      [0 2 -2 0 0 0 0];

internalField   nonuniform List<scalar> 
262620
(
-1.29194
-1.29214
-1.29278
-1.29374
-1.29499
-1.29654
-1.29836
-1.30043
-1.30275
-1.30529
-1.30804
-1.31099
-1.31411
-1.3174
-1.32085
-1.32444
-1.32815
-1.33199
-1.33593
-1.33997
-1.34409
-1.34829
-1.35257
-1.3569
-1.36128
-1.36571
-1.37017
-1.37467
-1.37918
-1.38372
-1.38827
-1.39282
-1.39738
-1.40194
-1.40648
-1.41102
-1.41554
-1.42004
-1.42452
-1.42897
-1.4334
-1.43779
-1.44216
-1.44648
-1.45077
-1.45502
-1.45923
-1.4634
-1.46752
-1.4716
-1.47563
-1.47962
-1.48356
-1.48745
-1.49129
-1.49508
-1.49882
-1.50251
-1.50614
-1.50973
-1.51327
-1.51675
-1.52019
-1.52357
-1.52691
-1.53019
-1.53342
-1.5366
-1.53973
-1.54281
-1.54585
-1.54883
-1.55177
-1.55465
-1.55749
-1.56029
-1.56303
-1.56573
-1.56839
-1.571
-1.57357
-1.57609
-1.57857
-1.58101
-1.5834
-1.58576
-1.58807
-1.59034
-1.59258
-1.59477
-1.59693
-1.59905
-1.60113
-1.60318
-1.60519
-1.60717
-1.60911
-1.61102
-1.61289
-1.61473
-1.61654
-1.61832
-1.62007
-1.62178
-1.62347
-1.62513
-1.62676
-1.62836
-1.62994
-1.63148
-1.633
-1.6345
-1.63597
-1.63741
-1.63883
-1.64023
-1.6416
-1.64295
-1.64428
-1.64558
-1.29181
-1.29202
-1.29265
-1.29361
-1.29486
-1.2964
-1.29822
-1.3003
-1.30262
-1.30516
-1.30791
-1.31085
-1.31397
-1.31727
-1.32071
-1.3243
-1.32802
-1.33185
-1.33579
-1.33983
-1.34396
-1.34816
-1.35244
-1.35677
-1.36115
-1.36558
-1.37005
-1.37454
-1.37906
-1.3836
-1.38815
-1.39271
-1.39727
-1.40183
-1.40637
-1.41091
-1.41543
-1.41994
-1.42442
-1.42888
-1.4333
-1.4377
-1.44207
-1.4464
-1.45069
-1.45494
-1.45915
-1.46332
-1.46745
-1.47153
-1.47556
-1.47955
-1.48349
-1.48739
-1.49123
-1.49502
-1.49876
-1.50246
-1.5061
-1.50969
-1.51323
-1.51672
-1.52015
-1.52354
-1.52688
-1.53016
-1.53339
-1.53658
-1.53971
-1.5428
-1.54583
-1.54882
-1.55176
-1.55465
-1.55749
-1.56029
-1.56304
-1.56574
-1.5684
-1.57101
-1.57358
-1.5761
-1.57859
-1.58103
-1.58342
-1.58578
-1.5881
-1.59037
-1.59261
-1.59481
-1.59697
-1.59909
-1.60117
-1.60322
-1.60524
-1.60721
-1.60916
-1.61107
-1.61294
-1.61479
-1.6166
-1.61838
-1.62013
-1.62185
-1.62354
-1.6252
-1.62683
-1.62843
-1.63001
-1.63156
-1.63308
-1.63458
-1.63605
-1.63749
-1.63892
-1.64031
-1.64169
-1.64304
-1.64437
-1.64567
-1.29159
-1.29179
-1.29242
-1.29338
-1.29463
-1.29617
-1.29799
-1.30006
-1.30238
-1.30492
-1.30767
-1.31061
-1.31374
-1.31703
-1.32047
-1.32406
-1.32778
-1.33162
-1.33556
-1.3396
-1.34373
-1.34793
-1.35221
-1.35654
-1.36093
-1.36536
-1.36983
-1.37433
-1.37885
-1.3834
-1.38795
-1.39251
-1.39707
-1.40163
-1.40619
-1.41073
-1.41525
-1.41976
-1.42425
-1.42871
-1.43314
-1.43754
-1.44191
-1.44625
-1.45054
-1.4548
-1.45902
-1.46319
-1.46732
-1.47141
-1.47545
-1.47944
-1.48339
-1.48728
-1.49113
-1.49493
-1.49868
-1.50237
-1.50602
-1.50962
-1.51316
-1.51665
-1.52009
-1.52349
-1.52683
-1.53012
-1.53335
-1.53654
-1.53968
-1.54277
-1.54581
-1.5488
-1.55174
-1.55464
-1.55748
-1.56028
-1.56304
-1.56574
-1.56841
-1.57102
-1.5736
-1.57612
-1.57861
-1.58105
-1.58346
-1.58582
-1.58813
-1.59041
-1.59265
-1.59486
-1.59702
-1.59914
-1.60123
-1.60328
-1.6053
-1.60728
-1.60923
-1.61114
-1.61302
-1.61487
-1.61668
-1.61847
-1.62022
-1.62194
-1.62363
-1.62529
-1.62693
-1.62853
-1.63011
-1.63166
-1.63319
-1.63469
-1.63616
-1.63761
-1.63904
-1.64044
-1.64181
-1.64317
-1.6445
-1.64581
-1.29127
-1.29146
-1.29208
-1.29304
-1.29428
-1.29582
-1.29764
-1.29971
-1.30202
-1.30456
-1.30731
-1.31025
-1.31338
-1.31667
-1.32012
-1.32371
-1.32743
-1.33126
-1.33521
-1.33925
-1.34338
-1.34759
-1.35187
-1.35621
-1.3606
-1.36503
-1.36951
-1.37401
-1.37854
-1.38309
-1.38764
-1.39221
-1.39678
-1.40134
-1.4059
-1.41045
-1.41498
-1.4195
-1.42399
-1.42846
-1.4329
-1.4373
-1.44168
-1.44602
-1.45032
-1.45459
-1.45881
-1.46299
-1.46713
-1.47123
-1.47527
-1.47927
-1.48322
-1.48713
-1.49098
-1.49479
-1.49854
-1.50225
-1.5059
-1.5095
-1.51305
-1.51655
-1.52
-1.5234
-1.52675
-1.53004
-1.53329
-1.53648
-1.53963
-1.54273
-1.54577
-1.54877
-1.55172
-1.55462
-1.55747
-1.56028
-1.56304
-1.56575
-1.56842
-1.57104
-1.57362
-1.57616
-1.57865
-1.5811
-1.58351
-1.58587
-1.5882
-1.59048
-1.59273
-1.59494
-1.5971
-1.59923
-1.60133
-1.60339
-1.60541
-1.60739
-1.60935
-1.61126
-1.61315
-1.615
-1.61682
-1.61861
-1.62036
-1.62209
-1.62379
-1.62546
-1.62709
-1.62871
-1.63029
-1.63184
-1.63337
-1.63488
-1.63635
-1.63781
-1.63924
-1.64064
-1.64202
-1.64338
-1.64472
-1.64602
-1.29083
-1.29102
-1.29164
-1.29259
-1.29383
-1.29536
-1.29718
-1.29925
-1.30156
-1.30409
-1.30684
-1.30978
-1.31291
-1.3162
-1.31965
-1.32324
-1.32696
-1.3308
-1.33474
-1.33879
-1.34292
-1.34714
-1.35142
-1.35576
-1.36016
-1.3646
-1.36908
-1.37359
-1.37812
-1.38267
-1.38724
-1.39181
-1.39639
-1.40096
-1.40553
-1.41008
-1.41463
-1.41915
-1.42365
-1.42812
-1.43257
-1.43699
-1.44137
-1.44572
-1.45004
-1.45431
-1.45854
-1.46273
-1.46688
-1.47098
-1.47504
-1.47905
-1.48301
-1.48692
-1.49079
-1.4946
-1.49837
-1.50208
-1.50574
-1.50935
-1.51291
-1.51642
-1.51988
-1.52329
-1.52665
-1.52995
-1.53321
-1.53641
-1.53956
-1.54267
-1.54572
-1.54873
-1.55169
-1.5546
-1.55746
-1.56027
-1.56304
-1.56576
-1.56844
-1.57107
-1.57366
-1.5762
-1.5787
-1.58116
-1.58357
-1.58594
-1.58828
-1.59057
-1.59282
-1.59504
-1.59721
-1.59935
-1.60145
-1.60351
-1.60554
-1.60754
-1.60949
-1.61142
-1.61331
-1.61517
-1.61699
-1.61879
-1.62055
-1.62228
-1.62399
-1.62566
-1.6273
-1.62892
-1.63051
-1.63207
-1.6336
-1.63511
-1.6366
-1.63805
-1.63949
-1.6409
-1.64228
-1.64365
-1.64499
-1.6463
-1.2903
-1.29048
-1.29109
-1.29203
-1.29327
-1.2948
-1.2966
-1.29867
-1.30098
-1.30351
-1.30625
-1.3092
-1.31232
-1.31561
-1.31906
-1.32265
-1.32638
-1.33022
-1.33417
-1.33822
-1.34236
-1.34658
-1.35086
-1.35521
-1.35961
-1.36406
-1.36855
-1.37306
-1.37761
-1.38217
-1.38674
-1.39132
-1.39591
-1.40049
-1.40507
-1.40963
-1.41418
-1.41871
-1.42322
-1.42771
-1.43217
-1.4366
-1.44099
-1.44535
-1.44968
-1.45396
-1.45821
-1.46241
-1.46657
-1.47068
-1.47475
-1.47877
-1.48274
-1.48667
-1.49055
-1.49437
-1.49815
-1.50187
-1.50555
-1.50917
-1.51274
-1.51626
-1.51973
-1.52315
-1.52652
-1.52984
-1.5331
-1.53632
-1.53948
-1.5426
-1.54566
-1.54868
-1.55165
-1.55457
-1.55744
-1.56026
-1.56304
-1.56577
-1.56846
-1.5711
-1.5737
-1.57625
-1.57876
-1.58123
-1.58365
-1.58604
-1.58838
-1.59068
-1.59294
-1.59516
-1.59735
-1.59949
-1.6016
-1.60368
-1.60571
-1.60771
-1.60968
-1.61161
-1.61351
-1.61538
-1.61721
-1.61901
-1.62078
-1.62252
-1.62423
-1.62592
-1.62757
-1.62919
-1.63079
-1.63235
-1.6339
-1.63541
-1.6369
-1.63837
-1.63981
-1.64122
-1.64261
-1.64398
-1.64533
-1.64664
-1.28966
-1.28983
-1.29043
-1.29137
-1.2926
-1.29412
-1.29592
-1.29798
-1.30029
-1.30282
-1.30556
-1.3085
-1.31162
-1.31492
-1.31837
-1.32196
-1.32569
-1.32953
-1.33349
-1.33754
-1.34168
-1.34591
-1.3502
-1.35456
-1.35897
-1.36342
-1.36791
-1.37244
-1.37699
-1.38156
-1.38615
-1.39074
-1.39533
-1.39993
-1.40451
-1.40909
-1.41365
-1.4182
-1.42272
-1.42722
-1.43169
-1.43613
-1.44054
-1.44492
-1.44925
-1.45355
-1.45781
-1.46203
-1.4662
-1.47033
-1.47441
-1.47844
-1.48243
-1.48637
-1.49026
-1.4941
-1.49789
-1.50163
-1.50531
-1.50895
-1.51254
-1.51607
-1.51955
-1.52299
-1.52637
-1.5297
-1.53298
-1.53621
-1.53938
-1.54251
-1.54559
-1.54862
-1.5516
-1.55453
-1.55742
-1.56026
-1.56305
-1.56579
-1.56849
-1.57114
-1.57375
-1.57631
-1.57884
-1.58131
-1.58375
-1.58614
-1.5885
-1.59081
-1.59308
-1.59531
-1.59751
-1.59967
-1.60179
-1.60387
-1.60591
-1.60793
-1.6099
-1.61184
-1.61375
-1.61563
-1.61747
-1.61928
-1.62106
-1.62281
-1.62453
-1.62622
-1.62788
-1.62951
-1.63111
-1.63269
-1.63424
-1.63576
-1.63726
-1.63873
-1.64018
-1.6416
-1.643
-1.64438
-1.64573
-1.64706
-1.28893
-1.28909
-1.28968
-1.2906
-1.29182
-1.29334
-1.29513
-1.29719
-1.29949
-1.30202
-1.30476
-1.3077
-1.31082
-1.31411
-1.31756
-1.32116
-1.32489
-1.32874
-1.3327
-1.33676
-1.34091
-1.34514
-1.34944
-1.3538
-1.35822
-1.36268
-1.36718
-1.37172
-1.37628
-1.38086
-1.38546
-1.39006
-1.39467
-1.39928
-1.40388
-1.40847
-1.41304
-1.4176
-1.42214
-1.42665
-1.43114
-1.4356
-1.44002
-1.44441
-1.44876
-1.45308
-1.45735
-1.46158
-1.46577
-1.46991
-1.47401
-1.47806
-1.48206
-1.48602
-1.48992
-1.49378
-1.49759
-1.50134
-1.50504
-1.5087
-1.5123
-1.51585
-1.51935
-1.5228
-1.52619
-1.52954
-1.53283
-1.53608
-1.53927
-1.54241
-1.54551
-1.54855
-1.55155
-1.55449
-1.55739
-1.56024
-1.56305
-1.56581
-1.56852
-1.57119
-1.57381
-1.57639
-1.57892
-1.58141
-1.58386
-1.58627
-1.58863
-1.59096
-1.59324
-1.59549
-1.5977
-1.59986
-1.602
-1.60409
-1.60615
-1.60817
-1.61016
-1.61211
-1.61403
-1.61592
-1.61777
-1.61959
-1.62138
-1.62314
-1.62487
-1.62657
-1.62824
-1.62988
-1.63149
-1.63308
-1.63464
-1.63617
-1.63768
-1.63916
-1.64061
-1.64205
-1.64345
-1.64484
-1.6462
-1.64753
-1.2881
-1.28824
-1.28882
-1.28973
-1.29095
-1.29245
-1.29424
-1.29629
-1.29859
-1.30111
-1.30385
-1.30679
-1.30991
-1.3132
-1.31666
-1.32025
-1.32399
-1.32784
-1.3318
-1.33587
-1.34002
-1.34426
-1.34857
-1.35294
-1.35737
-1.36184
-1.36636
-1.3709
-1.37548
-1.38007
-1.38468
-1.3893
-1.39392
-1.39854
-1.40316
-1.40776
-1.41235
-1.41693
-1.42148
-1.42601
-1.43051
-1.43499
-1.43943
-1.44383
-1.4482
-1.45254
-1.45683
-1.46108
-1.46528
-1.46944
-1.47356
-1.47763
-1.48165
-1.48562
-1.48955
-1.49342
-1.49724
-1.50102
-1.50474
-1.50841
-1.51203
-1.5156
-1.51912
-1.52258
-1.52599
-1.52936
-1.53267
-1.53593
-1.53914
-1.5423
-1.54541
-1.54847
-1.55149
-1.55445
-1.55736
-1.56023
-1.56305
-1.56583
-1.56855
-1.57124
-1.57387
-1.57647
-1.57902
-1.58152
-1.58399
-1.58641
-1.58879
-1.59113
-1.59343
-1.59569
-1.59791
-1.60009
-1.60223
-1.60434
-1.60641
-1.60845
-1.61045
-1.61241
-1.61434
-1.61624
-1.61811
-1.61994
-1.62174
-1.62351
-1.62525
-1.62696
-1.62865
-1.6303
-1.63192
-1.63352
-1.63509
-1.63663
-1.63815
-1.63964
-1.64111
-1.64255
-1.64397
-1.64536
-1.64673
-1.64807
-1.28717
-1.2873
-1.28787
-1.28877
-1.28997
-1.29147
-1.29325
-1.29529
-1.29758
-1.3001
-1.30284
-1.30577
-1.3089
-1.31219
-1.31564
-1.31924
-1.32298
-1.32684
-1.33081
-1.33488
-1.33904
-1.34329
-1.3476
-1.35199
-1.35642
-1.36091
-1.36543
-1.36999
-1.37458
-1.37919
-1.38381
-1.38845
-1.39308
-1.39772
-1.40235
-1.40697
-1.41158
-1.41617
-1.42075
-1.42529
-1.42981
-1.43431
-1.43877
-1.44319
-1.44758
-1.45193
-1.45624
-1.46051
-1.46474
-1.46892
-1.47306
-1.47715
-1.48119
-1.48518
-1.48913
-1.49302
-1.49686
-1.50066
-1.5044
-1.50809
-1.51173
-1.51532
-1.51885
-1.52234
-1.52577
-1.52916
-1.53249
-1.53577
-1.539
-1.54218
-1.54531
-1.54839
-1.55142
-1.5544
-1.55733
-1.56022
-1.56306
-1.56585
-1.56859
-1.57129
-1.57395
-1.57656
-1.57912
-1.58165
-1.58413
-1.58656
-1.58896
-1.59132
-1.59363
-1.5959
-1.59814
-1.60034
-1.6025
-1.60462
-1.60671
-1.60876
-1.61077
-1.61275
-1.6147
-1.61661
-1.61849
-1.62033
-1.62215
-1.62393
-1.62568
-1.62741
-1.6291
-1.63077
-1.6324
-1.63401
-1.63559
-1.63715
-1.63868
-1.64018
-1.64166
-1.64311
-1.64454
-1.64594
-1.64733
-1.64867
-1.28615
-1.28626
-1.28682
-1.2877
-1.2889
-1.29038
-1.29216
-1.29419
-1.29648
-1.29899
-1.30172
-1.30466
-1.30778
-1.31107
-1.31453
-1.31813
-1.32187
-1.32573
-1.32971
-1.33379
-1.33796
-1.34221
-1.34654
-1.35093
-1.35538
-1.35988
-1.36442
-1.36899
-1.37359
-1.37822
-1.38286
-1.38751
-1.39216
-1.39681
-1.40146
-1.4061
-1.41073
-1.41534
-1.41994
-1.4245
-1.42904
-1.43356
-1.43804
-1.44249
-1.4469
-1.45127
-1.4556
-1.45989
-1.46414
-1.46835
-1.4725
-1.47661
-1.48068
-1.48469
-1.48866
-1.49258
-1.49644
-1.50026
-1.50402
-1.50774
-1.5114
-1.51501
-1.51857
-1.52207
-1.52553
-1.52893
-1.53229
-1.53559
-1.53884
-1.54204
-1.54519
-1.54829
-1.55134
-1.55434
-1.5573
-1.5602
-1.56306
-1.56587
-1.56864
-1.57135
-1.57403
-1.57666
-1.57924
-1.58178
-1.58428
-1.58674
-1.58915
-1.59152
-1.59385
-1.59615
-1.5984
-1.60061
-1.60279
-1.60493
-1.60703
-1.6091
-1.61113
-1.61312
-1.61508
-1.61701
-1.6189
-1.62076
-1.62259
-1.62439
-1.62616
-1.6279
-1.6296
-1.63128
-1.63293
-1.63455
-1.63615
-1.63771
-1.63926
-1.64077
-1.64226
-1.64373
-1.64517
-1.64658
-1.64798
-1.64933
-1.28504
-1.28513
-1.28567
-1.28655
-1.28772
-1.2892
-1.29097
-1.29299
-1.29527
-1.29778
-1.30051
-1.30344
-1.30656
-1.30985
-1.31331
-1.31692
-1.32066
-1.32453
-1.32851
-1.3326
-1.33678
-1.34104
-1.34538
-1.34978
-1.35425
-1.35876
-1.36331
-1.3679
-1.37252
-1.37716
-1.38181
-1.38648
-1.39115
-1.39583
-1.4005
-1.40516
-1.40981
-1.41444
-1.41905
-1.42364
-1.42821
-1.43274
-1.43724
-1.44171
-1.44615
-1.45054
-1.4549
-1.45922
-1.46349
-1.46772
-1.4719
-1.47603
-1.48012
-1.48416
-1.48815
-1.49209
-1.49598
-1.49982
-1.50361
-1.50735
-1.51104
-1.51467
-1.51825
-1.52178
-1.52526
-1.52869
-1.53207
-1.53539
-1.53866
-1.54189
-1.54506
-1.54818
-1.55126
-1.55428
-1.55726
-1.56018
-1.56306
-1.5659
-1.56868
-1.57142
-1.57412
-1.57677
-1.57937
-1.58193
-1.58445
-1.58692
-1.58936
-1.59175
-1.5941
-1.59641
-1.59868
-1.60091
-1.60311
-1.60527
-1.60738
-1.60947
-1.61151
-1.61353
-1.6155
-1.61745
-1.61936
-1.62124
-1.62308
-1.62489
-1.62668
-1.62843
-1.63015
-1.63184
-1.63351
-1.63514
-1.63675
-1.63833
-1.63989
-1.64142
-1.64292
-1.6444
-1.64585
-1.64729
-1.64869
-1.65006
-1.28384
-1.28391
-1.28443
-1.28529
-1.28646
-1.28792
-1.28968
-1.2917
-1.29397
-1.29647
-1.2992
-1.30212
-1.30524
-1.30854
-1.312
-1.31561
-1.31935
-1.32323
-1.32722
-1.33131
-1.3355
-1.33978
-1.34412
-1.34854
-1.35302
-1.35754
-1.36211
-1.36672
-1.37135
-1.37601
-1.38069
-1.38537
-1.39006
-1.39476
-1.39945
-1.40413
-1.4088
-1.41346
-1.41809
-1.42271
-1.4273
-1.43186
-1.43638
-1.44088
-1.44534
-1.44976
-1.45414
-1.45848
-1.46278
-1.46704
-1.47124
-1.47541
-1.47952
-1.48359
-1.4876
-1.49157
-1.49549
-1.49935
-1.50317
-1.50693
-1.51064
-1.5143
-1.51791
-1.52147
-1.52497
-1.52843
-1.53183
-1.53518
-1.53848
-1.54172
-1.54492
-1.54807
-1.55117
-1.55421
-1.55721
-1.56017
-1.56307
-1.56592
-1.56873
-1.5715
-1.57421
-1.57688
-1.57951
-1.58209
-1.58463
-1.58713
-1.58958
-1.59199
-1.59437
-1.5967
-1.59899
-1.60124
-1.60345
-1.60563
-1.60777
-1.60987
-1.61194
-1.61397
-1.61596
-1.61792
-1.61985
-1.62174
-1.62361
-1.62544
-1.62724
-1.62901
-1.63074
-1.63245
-1.63413
-1.63579
-1.63741
-1.63901
-1.64058
-1.64212
-1.64364
-1.64513
-1.6466
-1.64804
-1.64946
-1.65084
-1.28255
-1.2826
-1.28311
-1.28395
-1.2851
-1.28655
-1.28829
-1.2903
-1.29257
-1.29507
-1.29778
-1.30071
-1.30383
-1.30712
-1.31058
-1.3142
-1.31795
-1.32183
-1.32583
-1.32993
-1.33413
-1.33841
-1.34278
-1.34721
-1.3517
-1.35624
-1.36082
-1.36545
-1.3701
-1.37478
-1.37947
-1.38418
-1.38889
-1.39361
-1.39832
-1.40303
-1.40773
-1.41241
-1.41707
-1.42171
-1.42632
-1.4309
-1.43546
-1.43998
-1.44447
-1.44892
-1.45333
-1.4577
-1.46202
-1.4663
-1.47054
-1.47473
-1.47887
-1.48297
-1.48701
-1.49101
-1.49495
-1.49885
-1.50269
-1.50648
-1.51022
-1.51391
-1.51755
-1.52113
-1.52466
-1.52814
-1.53157
-1.53495
-1.53827
-1.54155
-1.54477
-1.54795
-1.55107
-1.55414
-1.55717
-1.56014
-1.56307
-1.56595
-1.56879
-1.57157
-1.57431
-1.57701
-1.57966
-1.58227
-1.58483
-1.58735
-1.58982
-1.59226
-1.59465
-1.597
-1.59932
-1.60159
-1.60382
-1.60602
-1.60818
-1.6103
-1.61239
-1.61444
-1.61645
-1.61843
-1.62038
-1.62229
-1.62417
-1.62602
-1.62784
-1.62963
-1.63138
-1.63311
-1.63481
-1.63647
-1.63811
-1.63973
-1.64131
-1.64287
-1.64441
-1.64592
-1.6474
-1.64886
-1.65029
-1.65168
-1.28117
-1.2812
-1.28169
-1.28251
-1.28365
-1.28509
-1.28682
-1.28882
-1.29107
-1.29356
-1.29628
-1.2992
-1.30232
-1.30561
-1.30908
-1.31269
-1.31645
-1.32034
-1.32434
-1.32845
-1.33266
-1.33696
-1.34134
-1.34578
-1.35029
-1.35485
-1.35945
-1.36409
-1.36876
-1.37346
-1.37818
-1.38291
-1.38764
-1.39238
-1.39712
-1.40185
-1.40657
-1.41128
-1.41597
-1.42063
-1.42527
-1.42989
-1.43447
-1.43902
-1.44354
-1.44802
-1.45246
-1.45685
-1.46121
-1.46552
-1.46979
-1.47401
-1.47818
-1.48231
-1.48638
-1.49041
-1.49438
-1.49831
-1.50218
-1.506
-1.50977
-1.51349
-1.51716
-1.52077
-1.52433
-1.52784
-1.5313
-1.5347
-1.53806
-1.54136
-1.54461
-1.54781
-1.55097
-1.55407
-1.55712
-1.56012
-1.56308
-1.56598
-1.56884
-1.57166
-1.57442
-1.57714
-1.57982
-1.58245
-1.58504
-1.58758
-1.59008
-1.59254
-1.59496
-1.59733
-1.59967
-1.60196
-1.60422
-1.60644
-1.60862
-1.61076
-1.61287
-1.61494
-1.61698
-1.61898
-1.62095
-1.62288
-1.62478
-1.62665
-1.62848
-1.63029
-1.63206
-1.63381
-1.63552
-1.63721
-1.63887
-1.6405
-1.6421
-1.64368
-1.64523
-1.64676
-1.64826
-1.64973
-1.65118
-1.65259
-1.27971
-1.27972
-1.28018
-1.28099
-1.28211
-1.28353
-1.28525
-1.28724
-1.28948
-1.29197
-1.29468
-1.2976
-1.30071
-1.30401
-1.30748
-1.31109
-1.31486
-1.31875
-1.32276
-1.32689
-1.33111
-1.33542
-1.33981
-1.34427
-1.34879
-1.35336
-1.35799
-1.36265
-1.36734
-1.37206
-1.3768
-1.38155
-1.38631
-1.39108
-1.39584
-1.4006
-1.40535
-1.41008
-1.4148
-1.41949
-1.42416
-1.42881
-1.43342
-1.438
-1.44255
-1.44706
-1.45153
-1.45596
-1.46035
-1.46469
-1.46899
-1.47324
-1.47744
-1.4816
-1.48571
-1.48977
-1.49377
-1.49773
-1.50164
-1.50549
-1.50929
-1.51304
-1.51674
-1.52038
-1.52398
-1.52752
-1.53101
-1.53444
-1.53783
-1.54116
-1.54444
-1.54767
-1.55085
-1.55399
-1.55707
-1.5601
-1.56308
-1.56602
-1.5689
-1.57175
-1.57454
-1.57729
-1.57999
-1.58265
-1.58526
-1.58783
-1.59036
-1.59284
-1.59528
-1.59768
-1.60004
-1.60236
-1.60464
-1.60689
-1.60909
-1.61126
-1.61339
-1.61548
-1.61754
-1.61956
-1.62155
-1.6235
-1.62542
-1.62731
-1.62917
-1.631
-1.63279
-1.63456
-1.63629
-1.638
-1.63967
-1.64132
-1.64294
-1.64454
-1.64611
-1.64765
-1.64917
-1.65066
-1.65213
-1.65355
-1.27816
-1.27815
-1.27859
-1.27938
-1.28048
-1.28189
-1.28359
-1.28557
-1.2878
-1.29028
-1.29299
-1.2959
-1.29902
-1.30231
-1.30578
-1.3094
-1.31317
-1.31707
-1.32109
-1.32523
-1.32946
-1.33378
-1.33819
-1.34266
-1.3472
-1.3518
-1.35644
-1.36112
-1.36584
-1.37058
-1.37534
-1.38012
-1.38491
-1.3897
-1.39449
-1.39928
-1.40405
-1.40881
-1.41356
-1.41829
-1.42299
-1.42766
-1.43231
-1.43692
-1.4415
-1.44604
-1.45055
-1.45501
-1.45943
-1.46381
-1.46814
-1.47243
-1.47666
-1.48086
-1.485
-1.48909
-1.49313
-1.49712
-1.50106
-1.50495
-1.50878
-1.51257
-1.5163
-1.51998
-1.5236
-1.52717
-1.5307
-1.53416
-1.53758
-1.54095
-1.54426
-1.54752
-1.55074
-1.5539
-1.55701
-1.56007
-1.56309
-1.56605
-1.56897
-1.57184
-1.57466
-1.57744
-1.58017
-1.58285
-1.5855
-1.58809
-1.59065
-1.59316
-1.59563
-1.59805
-1.60044
-1.60278
-1.60509
-1.60736
-1.60959
-1.61178
-1.61393
-1.61605
-1.61813
-1.62018
-1.62219
-1.62416
-1.62611
-1.62802
-1.6299
-1.63174
-1.63356
-1.63535
-1.6371
-1.63883
-1.64052
-1.64219
-1.64383
-1.64545
-1.64704
-1.6486
-1.65013
-1.65164
-1.65313
-1.65456
-1.27653
-1.27649
-1.27691
-1.27768
-1.27876
-1.28015
-1.28184
-1.28381
-1.28604
-1.28851
-1.2912
-1.29412
-1.29723
-1.30053
-1.30399
-1.30762
-1.3114
-1.3153
-1.31934
-1.32348
-1.32772
-1.33206
-1.33648
-1.34097
-1.34553
-1.35014
-1.35481
-1.35951
-1.36425
-1.36902
-1.3738
-1.37861
-1.38342
-1.38824
-1.39306
-1.39788
-1.40268
-1.40748
-1.41225
-1.41701
-1.42175
-1.42645
-1.43113
-1.43578
-1.44039
-1.44497
-1.44951
-1.45401
-1.45846
-1.46288
-1.46724
-1.47157
-1.47584
-1.48007
-1.48425
-1.48837
-1.49245
-1.49648
-1.50045
-1.50437
-1.50825
-1.51206
-1.51583
-1.51954
-1.5232
-1.52681
-1.53037
-1.53387
-1.53732
-1.54072
-1.54407
-1.54737
-1.55061
-1.55381
-1.55695
-1.56005
-1.56309
-1.56609
-1.56904
-1.57194
-1.57479
-1.5776
-1.58036
-1.58307
-1.58574
-1.58837
-1.59095
-1.59349
-1.59599
-1.59844
-1.60086
-1.60323
-1.60556
-1.60786
-1.61011
-1.61233
-1.61451
-1.61665
-1.61875
-1.62083
-1.62286
-1.62486
-1.62683
-1.62876
-1.63066
-1.63253
-1.63437
-1.63618
-1.63796
-1.6397
-1.64142
-1.64311
-1.64477
-1.64641
-1.64802
-1.6496
-1.65115
-1.65268
-1.65419
-1.65564
-1.27482
-1.27476
-1.27515
-1.2759
-1.27696
-1.27833
-1.28001
-1.28196
-1.28418
-1.28664
-1.28933
-1.29224
-1.29535
-1.29865
-1.30212
-1.30575
-1.30953
-1.31345
-1.31749
-1.32164
-1.3259
-1.33025
-1.33469
-1.3392
-1.34377
-1.34841
-1.35309
-1.35782
-1.36258
-1.36737
-1.37219
-1.37702
-1.38186
-1.38671
-1.39156
-1.39641
-1.40124
-1.40607
-1.41088
-1.41567
-1.42044
-1.42518
-1.4299
-1.43458
-1.43923
-1.44384
-1.44842
-1.45295
-1.45745
-1.4619
-1.4663
-1.47066
-1.47497
-1.47924
-1.48345
-1.48762
-1.49173
-1.4958
-1.49981
-1.50377
-1.50768
-1.51154
-1.51534
-1.51909
-1.52279
-1.52643
-1.53002
-1.53356
-1.53705
-1.54049
-1.54387
-1.5472
-1.55048
-1.55371
-1.55689
-1.56002
-1.5631
-1.56613
-1.56911
-1.57204
-1.57493
-1.57777
-1.58056
-1.5833
-1.58601
-1.58866
-1.59127
-1.59384
-1.59637
-1.59885
-1.6013
-1.6037
-1.60606
-1.60838
-1.61066
-1.61291
-1.61511
-1.61728
-1.61941
-1.62151
-1.62357
-1.6256
-1.62759
-1.62955
-1.63147
-1.63337
-1.63523
-1.63706
-1.63886
-1.64063
-1.64237
-1.64408
-1.64576
-1.64742
-1.64905
-1.65065
-1.65223
-1.65378
-1.6553
-1.65677
-1.27303
-1.27294
-1.27331
-1.27403
-1.27507
-1.27643
-1.27809
-1.28003
-1.28223
-1.28469
-1.28737
-1.29028
-1.29338
-1.29668
-1.30015
-1.30379
-1.30758
-1.3115
-1.31555
-1.31972
-1.32399
-1.32836
-1.33281
-1.33734
-1.34193
-1.34659
-1.35129
-1.35605
-1.36083
-1.36565
-1.37049
-1.37535
-1.38023
-1.38511
-1.38999
-1.39487
-1.39974
-1.4046
-1.40944
-1.41427
-1.41907
-1.42385
-1.4286
-1.43332
-1.43801
-1.44266
-1.44727
-1.45185
-1.45638
-1.46087
-1.46531
-1.46971
-1.47406
-1.47837
-1.48262
-1.48683
-1.49098
-1.49509
-1.49914
-1.50314
-1.50709
-1.51098
-1.51482
-1.51861
-1.52235
-1.52603
-1.52966
-1.53324
-1.53676
-1.54024
-1.54366
-1.54702
-1.55034
-1.55361
-1.55682
-1.55999
-1.5631
-1.56617
-1.56918
-1.57215
-1.57507
-1.57794
-1.58077
-1.58355
-1.58628
-1.58897
-1.59161
-1.59421
-1.59677
-1.59928
-1.60176
-1.60419
-1.60658
-1.60893
-1.61124
-1.61351
-1.61575
-1.61794
-1.6201
-1.62223
-1.62431
-1.62637
-1.62839
-1.63037
-1.63232
-1.63424
-1.63613
-1.63798
-1.6398
-1.6416
-1.64336
-1.6451
-1.6468
-1.64848
-1.65013
-1.65176
-1.65335
-1.65493
-1.65647
-1.65795
-1.27117
-1.27104
-1.27139
-1.27208
-1.2731
-1.27444
-1.27608
-1.27801
-1.2802
-1.28265
-1.28533
-1.28823
-1.29133
-1.29463
-1.2981
-1.30174
-1.30554
-1.30947
-1.31353
-1.31771
-1.32199
-1.32637
-1.33084
-1.33539
-1.34001
-1.34469
-1.34942
-1.35419
-1.35901
-1.36385
-1.36872
-1.37361
-1.37852
-1.38343
-1.38834
-1.39325
-1.39816
-1.40306
-1.40794
-1.4128
-1.41764
-1.42246
-1.42725
-1.43201
-1.43673
-1.44142
-1.44608
-1.45069
-1.45526
-1.45979
-1.46428
-1.46872
-1.47311
-1.47746
-1.48175
-1.486
-1.4902
-1.49434
-1.49844
-1.50248
-1.50647
-1.5104
-1.51428
-1.51811
-1.52189
-1.52561
-1.52928
-1.5329
-1.53646
-1.53998
-1.54343
-1.54684
-1.5502
-1.5535
-1.55675
-1.55995
-1.5631
-1.56621
-1.56926
-1.57226
-1.57522
-1.57812
-1.58099
-1.5838
-1.58657
-1.58929
-1.59197
-1.5946
-1.59719
-1.59974
-1.60224
-1.6047
-1.60712
-1.60951
-1.61185
-1.61415
-1.61641
-1.61864
-1.62083
-1.62298
-1.62509
-1.62717
-1.62922
-1.63123
-1.63321
-1.63515
-1.63706
-1.63894
-1.64079
-1.64261
-1.6444
-1.64616
-1.64789
-1.64959
-1.65127
-1.65291
-1.65453
-1.65613
-1.65769
-1.6592
-1.26922
-1.26906
-1.26938
-1.27005
-1.27105
-1.27237
-1.274
-1.27591
-1.27809
-1.28052
-1.28319
-1.28609
-1.28919
-1.29249
-1.29597
-1.29961
-1.30341
-1.30735
-1.31142
-1.31561
-1.31991
-1.32431
-1.3288
-1.33336
-1.338
-1.3427
-1.34746
-1.35226
-1.3571
-1.36198
-1.36688
-1.3718
-1.37673
-1.38168
-1.38662
-1.39157
-1.39651
-1.40145
-1.40637
-1.41127
-1.41615
-1.421
-1.42583
-1.43063
-1.4354
-1.44013
-1.44483
-1.44948
-1.4541
-1.45867
-1.4632
-1.46768
-1.47212
-1.47651
-1.48085
-1.48514
-1.48938
-1.49356
-1.4977
-1.50178
-1.50582
-1.50979
-1.51372
-1.51759
-1.52141
-1.52518
-1.52889
-1.53255
-1.53615
-1.5397
-1.5432
-1.54665
-1.55004
-1.55339
-1.55668
-1.55992
-1.56311
-1.56625
-1.56934
-1.57238
-1.57537
-1.57832
-1.58121
-1.58406
-1.58687
-1.58962
-1.59234
-1.595
-1.59763
-1.60021
-1.60274
-1.60524
-1.60769
-1.61011
-1.61248
-1.61481
-1.61711
-1.61936
-1.62158
-1.62376
-1.62591
-1.62802
-1.63009
-1.63213
-1.63413
-1.63611
-1.63805
-1.63995
-1.64183
-1.64367
-1.64549
-1.64727
-1.64903
-1.65075
-1.65245
-1.65412
-1.65577
-1.65738
-1.65897
-1.66049
-1.2672
-1.26701
-1.2673
-1.26795
-1.26892
-1.27022
-1.27183
-1.27372
-1.27589
-1.27831
-1.28098
-1.28387
-1.28697
-1.29026
-1.29374
-1.29739
-1.3012
-1.30515
-1.30923
-1.31343
-1.31775
-1.32216
-1.32667
-1.33126
-1.33592
-1.34064
-1.34542
-1.35025
-1.35512
-1.36002
-1.36495
-1.36991
-1.37488
-1.37985
-1.38484
-1.38982
-1.3948
-1.39977
-1.40473
-1.40967
-1.41459
-1.41949
-1.42436
-1.4292
-1.43401
-1.43879
-1.44353
-1.44823
-1.45289
-1.4575
-1.46208
-1.4666
-1.47108
-1.47552
-1.4799
-1.48424
-1.48852
-1.49275
-1.49693
-1.50106
-1.50514
-1.50916
-1.51313
-1.51705
-1.52091
-1.52472
-1.52847
-1.53218
-1.53582
-1.53942
-1.54296
-1.54645
-1.54989
-1.55327
-1.5566
-1.55988
-1.56311
-1.56629
-1.56942
-1.5725
-1.57553
-1.57852
-1.58145
-1.58434
-1.58718
-1.58997
-1.59272
-1.59542
-1.59808
-1.6007
-1.60327
-1.6058
-1.60829
-1.61073
-1.61314
-1.6155
-1.61783
-1.62012
-1.62237
-1.62458
-1.62675
-1.62889
-1.631
-1.63307
-1.6351
-1.6371
-1.63907
-1.641
-1.64291
-1.64478
-1.64662
-1.64843
-1.65021
-1.65196
-1.65369
-1.65538
-1.65705
-1.65869
-1.6603
-1.66185
-1.26511
-1.26488
-1.26514
-1.26576
-1.26671
-1.26799
-1.26957
-1.27145
-1.27361
-1.27602
-1.27868
-1.28156
-1.28466
-1.28796
-1.29144
-1.29509
-1.2989
-1.30286
-1.30695
-1.31117
-1.3155
-1.31993
-1.32446
-1.32907
-1.33375
-1.3385
-1.34331
-1.34816
-1.35306
-1.35799
-1.36296
-1.36794
-1.37295
-1.37796
-1.38298
-1.388
-1.39302
-1.39803
-1.40303
-1.40801
-1.41298
-1.41792
-1.42283
-1.42772
-1.43257
-1.43739
-1.44217
-1.44692
-1.45162
-1.45629
-1.46091
-1.46548
-1.47001
-1.47449
-1.47892
-1.4833
-1.48763
-1.49191
-1.49614
-1.50031
-1.50443
-1.5085
-1.51252
-1.51648
-1.52039
-1.52424
-1.52804
-1.53179
-1.53548
-1.53912
-1.54271
-1.54624
-1.54972
-1.55315
-1.55652
-1.55984
-1.56312
-1.56634
-1.56951
-1.57263
-1.5757
-1.57872
-1.5817
-1.58462
-1.5875
-1.59033
-1.59312
-1.59586
-1.59856
-1.60121
-1.60381
-1.60638
-1.6089
-1.61138
-1.61382
-1.61622
-1.61858
-1.6209
-1.62319
-1.62543
-1.62764
-1.62981
-1.63194
-1.63404
-1.6361
-1.63813
-1.64013
-1.6421
-1.64403
-1.64593
-1.64779
-1.64963
-1.65144
-1.65322
-1.65497
-1.65669
-1.65839
-1.66006
-1.66169
-1.66325
-1.26294
-1.26268
-1.26291
-1.2635
-1.26442
-1.26568
-1.26724
-1.26911
-1.27125
-1.27365
-1.2763
-1.27918
-1.28227
-1.28557
-1.28905
-1.29271
-1.29653
-1.30049
-1.3046
-1.30883
-1.31317
-1.31762
-1.32217
-1.3268
-1.33151
-1.33628
-1.34111
-1.346
-1.35093
-1.35589
-1.36089
-1.36591
-1.37095
-1.376
-1.38106
-1.38612
-1.39118
-1.39623
-1.40127
-1.40629
-1.4113
-1.41628
-1.42124
-1.42617
-1.43107
-1.43594
-1.44077
-1.44556
-1.45031
-1.45502
-1.45969
-1.46431
-1.46889
-1.47342
-1.4779
-1.48233
-1.48671
-1.49103
-1.49531
-1.49953
-1.5037
-1.50782
-1.51188
-1.51589
-1.51985
-1.52375
-1.5276
-1.53139
-1.53513
-1.53881
-1.54244
-1.54602
-1.54955
-1.55302
-1.55644
-1.5598
-1.56312
-1.56638
-1.5696
-1.57276
-1.57587
-1.57894
-1.58195
-1.58492
-1.58784
-1.59071
-1.59353
-1.59631
-1.59905
-1.60174
-1.60438
-1.60698
-1.60954
-1.61206
-1.61453
-1.61697
-1.61936
-1.62172
-1.62403
-1.62631
-1.62855
-1.63075
-1.63292
-1.63505
-1.63715
-1.63921
-1.64124
-1.64323
-1.64519
-1.64712
-1.64902
-1.65088
-1.65272
-1.65453
-1.6563
-1.65805
-1.65977
-1.66147
-1.66313
-1.66472
-1.2607
-1.2604
-1.2606
-1.26116
-1.26206
-1.26329
-1.26484
-1.26668
-1.26881
-1.2712
-1.27384
-1.27671
-1.2798
-1.2831
-1.28658
-1.29024
-1.29407
-1.29804
-1.30216
-1.3064
-1.31077
-1.31523
-1.3198
-1.32445
-1.32918
-1.33398
-1.33884
-1.34376
-1.34872
-1.35372
-1.35875
-1.3638
-1.36888
-1.37397
-1.37906
-1.38417
-1.38926
-1.39436
-1.39944
-1.40451
-1.40956
-1.41459
-1.4196
-1.42457
-1.42952
-1.43443
-1.43931
-1.44415
-1.44896
-1.45372
-1.45843
-1.4631
-1.46773
-1.47231
-1.47684
-1.48132
-1.48575
-1.49012
-1.49445
-1.49872
-1.50294
-1.50711
-1.51122
-1.51528
-1.51929
-1.52324
-1.52713
-1.53097
-1.53476
-1.53849
-1.54217
-1.5458
-1.54937
-1.55288
-1.55635
-1.55976
-1.56312
-1.56643
-1.56969
-1.57289
-1.57605
-1.57916
-1.58221
-1.58522
-1.58818
-1.5911
-1.59396
-1.59678
-1.59955
-1.60228
-1.60497
-1.60761
-1.6102
-1.61276
-1.61527
-1.61774
-1.62017
-1.62256
-1.62491
-1.62723
-1.6295
-1.63174
-1.63394
-1.6361
-1.63823
-1.64032
-1.64238
-1.64441
-1.6464
-1.64836
-1.65028
-1.65218
-1.65405
-1.65588
-1.65769
-1.65946
-1.66121
-1.66294
-1.66462
-1.66623
-1.25839
-1.25805
-1.25822
-1.25875
-1.25962
-1.26082
-1.26235
-1.26418
-1.26629
-1.26867
-1.2713
-1.27416
-1.27725
-1.28054
-1.28403
-1.2877
-1.29153
-1.29551
-1.29964
-1.3039
-1.30828
-1.31277
-1.31735
-1.32203
-1.32678
-1.33161
-1.3365
-1.34144
-1.34643
-1.35147
-1.35653
-1.36162
-1.36674
-1.37187
-1.377
-1.38215
-1.38729
-1.39242
-1.39755
-1.40267
-1.40776
-1.41284
-1.41789
-1.42292
-1.42792
-1.43288
-1.43781
-1.4427
-1.44755
-1.45236
-1.45713
-1.46185
-1.46653
-1.47116
-1.47574
-1.48027
-1.48475
-1.48918
-1.49356
-1.49789
-1.50216
-1.50638
-1.51054
-1.51465
-1.5187
-1.5227
-1.52665
-1.53054
-1.53438
-1.53816
-1.54189
-1.54556
-1.54918
-1.55275
-1.55626
-1.55972
-1.56312
-1.56648
-1.56978
-1.57303
-1.57623
-1.57939
-1.58249
-1.58554
-1.58854
-1.5915
-1.5944
-1.59727
-1.60008
-1.60285
-1.60557
-1.60825
-1.61089
-1.61348
-1.61603
-1.61854
-1.62101
-1.62344
-1.62582
-1.62817
-1.63048
-1.63275
-1.63499
-1.63719
-1.63935
-1.64147
-1.64357
-1.64562
-1.64765
-1.64964
-1.6516
-1.65352
-1.65542
-1.65728
-1.65912
-1.66093
-1.6627
-1.66446
-1.66617
-1.6678
-1.256
-1.25563
-1.25576
-1.25626
-1.2571
-1.25828
-1.25979
-1.2616
-1.26369
-1.26606
-1.26868
-1.27154
-1.27462
-1.27791
-1.2814
-1.28507
-1.28891
-1.29291
-1.29705
-1.30132
-1.30571
-1.31022
-1.31483
-1.31953
-1.32431
-1.32916
-1.33408
-1.33905
-1.34408
-1.34914
-1.35425
-1.35938
-1.36453
-1.3697
-1.37488
-1.38006
-1.38525
-1.39043
-1.3956
-1.40076
-1.40591
-1.41103
-1.41613
-1.42121
-1.42626
-1.43127
-1.43625
-1.44119
-1.4461
-1.45096
-1.45578
-1.46056
-1.46529
-1.46997
-1.47461
-1.47919
-1.48373