/*--------------------------------*- C++ -*----------------------------------*\
  =========                 |
  \\      /  F ield         | OpenFOAM: The Open Source CFD Toolbox
   \\    /   O peration     | Website:  https://openfoam.org
    \\  /    A nd           | Version:  8
     \\/     M anipulation  |
\*---------------------------------------------------------------------------*/
FoamFile
{
    version     2.0;
    format      ascii;
    class       volScalarField;
    location    "0.3";
    object      p;
}
// * * * * * * * * * * * * * * * * * * * * * * * * * * * * * * * * * * * * * //

dimensions      [0 2 -2 0 0 0 0];

internalField   nonuniform List<scalar> 
112642
(
-0.984957
-0.95782
-0.931708
-0.906972
-0.884167
-0.862757
-0.842289
-0.822463
-0.803117
-0.784165
-0.765548
-0.747223
-0.729185
-0.711415
-0.693906
-0.676633
-0.659593
-0.64279
-0.62621
-0.60985
-0.593697
-0.577763
-0.562028
-0.546497
-0.531157
-0.516018
-0.501062
-0.48629
-0.471702
-0.457291
-0.44306
-0.429
-0.415106
-0.401381
-0.387813
-0.374406
-0.361155
-0.348055
-0.335108
-0.322311
-0.309661
-0.297156
-0.284789
-0.272561
-0.260471
-0.248516
-0.236695
-0.225004
-0.213437
-0.201999
-0.190686
-0.179498
-0.16843
-0.157484
-0.146653
-0.135939
-0.125334
-0.11484
-0.10445
-0.0941634
-0.083978
-0.0738887
-0.0638933
-0.0539918
-0.0441819
-0.034462
-0.0248298
-0.0152873
-0.00583065
0.00354114
0.0128273
0.0220311
0.0311533
0.0401942
0.049156
0.058039
0.0668477
0.0755781
0.0842365
0.0928218
0.101338
0.109784
0.118161
0.12647
0.134716
0.142899
0.151015
0.159072
0.167068
0.175004
0.182883
0.190702
0.198467
0.206177
0.213833
0.221435
0.228985
0.236485
0.243935
0.251334
0.258687
0.265988
0.273243
0.280448
0.287607
0.294719
0.301786
0.308808
0.315786
0.322719
0.329612
0.33646
0.343267
0.350032
0.356752
0.363434
0.370074
0.376673
0.383233
0.389755
0.396244
0.402698
0.409122
0.415517
0.421888
0.428233
0.434556
0.440857
0.447137
0.453396
0.459635
0.465853
0.472051
0.478226
0.484383
0.490517
0.496631
0.502724
0.508798
0.51485
0.520882
0.526895
0.532888
0.538861
0.544817
0.550751
0.556668
0.562565
0.568444
0.574305
0.580149
0.585978
0.591793
0.597591
0.603376
0.609149
0.614911
0.620662
0.626402
0.63213
0.63785
0.643562
0.649269
0.654972
0.660671
0.666369
0.672067
0.677763
0.683463
0.689164
0.694869
0.700579
0.706294
0.712014
0.71774
0.723472
0.729216
0.734967
0.740734
0.74651
0.752307
0.758116
0.763945
0.769793
0.775666
0.78156
0.787475
0.793421
0.799396
0.805406
0.811447
0.817529
0.823674
0.82991
0.836307
0.842994
0.85015
0.857944
0.866033
0.874151
-1.00123
-0.974289
-0.948063
-0.922747
-0.899267
-0.877186
-0.856227
-0.836053
-0.816436
-0.797252
-0.778433
-0.759927
-0.741714
-0.723764
-0.70608
-0.688648
-0.671444
-0.654475
-0.63773
-0.621199
-0.604891
-0.588782
-0.572885
-0.557185
-0.541681
-0.52637
-0.511247
-0.496302
-0.481545
-0.466968
-0.452561
-0.43833
-0.424266
-0.410371
-0.396636
-0.383059
-0.36964
-0.356374
-0.34326
-0.330297
-0.31748
-0.304811
-0.292284
-0.279893
-0.267639
-0.255524
-0.243543
-0.231693
-0.219971
-0.208374
-0.196905
-0.18556
-0.174338
-0.163237
-0.152251
-0.141382
-0.130626
-0.119979
-0.10944
-0.0990057
-0.0886727
-0.0784394
-0.0683027
-0.0582606
-0.0483124
-0.0384541
-0.0286884
-0.0190109
-0.00942196
8.2396e-05
0.00949899
0.0188323
0.0280824
0.0372516
0.0463386
0.055348
0.0642794
0.0731345
0.0819134
0.0906212
0.0992556
0.107821
0.116314
0.124742
0.133102
0.141398
0.149628
0.157796
0.165902
0.173948
0.181934
0.189861
0.197731
0.205547
0.213305
0.221011
0.228663
0.236262
0.243811
0.251308
0.258758
0.266154
0.273503
0.280802
0.288053
0.295256
0.302412
0.309524
0.316588
0.323609
0.330585
0.337517
0.344406
0.351251
0.358053
0.364814
0.371532
0.378211
0.384848
0.39145
0.398015
0.404548
0.411048
0.417519
0.423964
0.430383
0.436777
0.443149
0.449498
0.455825
0.462129
0.468412
0.474672
0.48091
0.487126
0.493322
0.499494
0.505646
0.511775
0.517883
0.523971
0.530038
0.536084
0.54211
0.548116
0.554102
0.560068
0.566013
0.57194
0.577849
0.58374
0.589616
0.595474
0.601317
0.607145
0.612961
0.618764
0.624555
0.630333
0.636099
0.641857
0.647606
0.653349
0.659086
0.664819
0.67055
0.676278
0.682005
0.687733
0.693462
0.699195
0.704928
0.710665
0.716408
0.722153
0.727905
0.733665
0.739434
0.745212
0.751004
0.756807
0.762627
0.768463
0.774317
0.780192
0.786085
0.792004
0.797951
0.803923
0.809929
0.815968
0.822059
0.828225
0.834519
0.841032
0.847911
0.855243
0.863134
0.87109
0.878942
-1.01643
-0.989855
-0.963759
-0.937884
-0.913679
-0.890855
-0.869364
-0.848755
-0.828825
-0.809393
-0.790356
-0.771662
-0.753264
-0.735151
-0.717302
-0.699705
-0.682343
-0.66522
-0.648319
-0.631638
-0.615165
-0.598908
-0.582849
-0.566995
-0.551332
-0.535869
-0.520589
-0.505488
-0.490573
-0.475836
-0.461275
-0.446885
-0.432665
-0.418612
-0.404721
-0.39099
-0.377416
-0.363999
-0.350732
-0.337615
-0.324647
-0.311826
-0.299151
-0.286612
-0.274211
-0.261946
-0.249818
-0.237821
-0.225956
-0.214216
-0.202604
-0.191114
-0.179748
-0.168503
-0.157376
-0.146366
-0.135468
-0.124682
-0.114004
-0.103432
-0.0929651
-0.0825964
-0.0723282
-0.0621568
-0.0520789
-0.0420954
-0.0322026
-0.0224012
-0.0126894
-0.00306409
0.00647487
0.0159258
0.0252945
0.0345818
0.0437868
0.05291
0.0619566
0.0709255
0.0798172
0.0886357
0.0973809
0.106056
0.114657
0.123192
0.131657
0.140059
0.148392
0.156662
0.164871
0.173016
0.181103
0.189127
0.197096
0.205006
0.21286
0.220659
0.228404
0.236094
0.243734
0.25132
0.258858
0.266341
0.273776
0.281159
0.288494
0.295779
0.303016
0.310206
0.31735
0.324446
0.331499
0.338504
0.345467
0.352384
0.359256
0.366088
0.372876
0.379624
0.38633
0.393001
0.399635
0.406235
0.412802
0.41934
0.42585
0.432332
0.438789
0.445222
0.451629
0.458011
0.464372
0.470709
0.477022
0.483311
0.489579
0.495823
0.502044
0.508242
0.514418
0.520573
0.526705
0.532815
0.538904
0.544972
0.551019
0.557044
0.563048
0.569033
0.574998
0.580945
0.586872
0.592783
0.598676
0.604554
0.610416
0.616265
0.6221
0.627921
0.633727
0.639524
0.64531
0.651089
0.656859
0.662622
0.668381
0.674136
0.679889
0.685639
0.69139
0.697141
0.702893
0.708646
0.714403
0.720164
0.725927
0.731694
0.737471
0.743253
0.749048
0.754852
0.760671
0.766502
0.772349
0.778212
0.784097
0.790001
0.79593
0.801883
0.807868
0.813883
0.819942
0.826063
0.832285
0.838686
0.845352
0.852458
0.85998
0.867953
0.875648
0.883089
-1.03078
-1.00475
-0.979014
-0.952708
-0.927819
-0.904256
-0.882113
-0.861006
-0.840709
-0.820982
-0.80172
-0.782817
-0.764237
-0.745952
-0.727935
-0.710179
-0.692666
-0.675385
-0.658333
-0.641501
-0.624885
-0.608472
-0.592266
-0.576262
-0.560453
-0.544838
-0.529408
-0.51416
-0.499095
-0.484208
-0.469495
-0.45496
-0.440591
-0.426386
-0.412348
-0.398475
-0.384753
-0.371192
-0.357783
-0.344523
-0.331411
-0.318448
-0.305627
-0.292952
-0.280411
-0.268006
-0.255739
-0.243607
-0.231602
-0.219726
-0.207977
-0.196353
-0.18485
-0.17347
-0.162212
-0.151066
-0.140035
-0.129118
-0.118309
-0.107608
-0.0970119
-0.0865167
-0.0761225
-0.0658271
-0.0556265
-0.0455222
-0.0355085
-0.0255888
-0.0157584
-0.0060181
0.00363627
0.0132037
0.0226842
0.0320839
0.0414009
0.0506345
0.05979
0.0688677
0.0778664
0.0867919
0.0956412
0.10442
0.113124
0.121761
0.130327
0.138828
0.14726
0.155628
0.163931
0.172173
0.180352
0.18847
0.19653
0.204531
0.212475
0.220362
0.228193
0.235971
0.243695
0.251366
0.258985
0.266551
0.274065
0.281528
0.28894
0.296302
0.303614
0.310879
0.318095
0.325263
0.332385
0.33946
0.346489
0.353473
0.360412
0.367307
0.374159
0.38097
0.387739
0.394472
0.401167
0.407828
0.414454
0.421051
0.427618
0.434156
0.440668
0.447154
0.453612
0.460046
0.466455
0.472839
0.479199
0.485533
0.491845
0.498132
0.504395
0.510634
0.516851
0.523044
0.529213
0.535361
0.541486
0.547588
0.553669
0.559728
0.565764
0.57178
0.577777
0.583753
0.589711
0.59565
0.601572
0.607476
0.613365
0.61924
0.6251
0.630943
0.636775
0.642595
0.648405
0.654206
0.659996
0.66578
0.671561
0.677335
0.683106
0.688878
0.694647
0.700414
0.706184
0.711954
0.717727
0.723503
0.729282
0.735066
0.740857
0.746656
0.752465
0.758286
0.764118
0.769965
0.775827
0.781707
0.787606
0.793526
0.799472
0.805443
0.811445
0.817487
0.823577
0.829757
0.836069
0.842615
0.849485
0.856817
0.8645
0.872469
0.879773
0.886676
-1.04475
-1.01956
-0.994228
-0.967825
-0.942429
-0.918128
-0.895318
-0.873649
-0.852919
-0.832859
-0.813329
-0.794207
-0.775434
-0.756965
-0.738783
-0.720859
-0.703189
-0.685753
-0.668548
-0.65156
-0.634792
-0.61823
-0.601876
-0.585721
-0.569762
-0.553989
-0.538409
-0.523012
-0.507798
-0.492759
-0.477896
-0.463208
-0.448688
-0.434336
-0.420149
-0.406125
-0.392258
-0.378546
-0.364991
-0.351586
-0.338332
-0.325222
-0.312255
-0.299436
-0.286754
-0.274209
-0.2618
-0.249524
-0.237379
-0.225366
-0.213476
-0.201715
-0.190074
-0.178555
-0.167158
-0.155878
-0.144711
-0.133657
-0.122715
-0.11188
-0.101153
-0.0905289
-0.0800048
-0.0695805
-0.059254
-0.0490249
-0.0388884
-0.028844
-0.0188928
-0.00903222
0.000741093
0.0104274
0.0200258
0.0295403
0.0389716
0.0483206
0.0575879
0.0667763
0.0758875
0.0849207
0.0938783
0.102764
0.111576
0.120316
0.128986
0.137589
0.146122
0.154591
0.162993
0.171332
0.179608
0.187822
0.195975
0.20407
0.212105
0.220083
0.228004
0.23587
0.243682
0.251439
0.259143
0.266793
0.27439
0.281934
0.289426
0.296866
0.304256
0.311596
0.318886
0.326128
0.333322
0.340468
0.347566
0.354619
0.361625
0.368587
0.375504
0.382379
0.389213
0.396009
0.402765
0.409486
0.416175
0.42283
0.429454
0.436049
0.442616
0.449155
0.455666
0.462152
0.468611
0.475042
0.481449
0.487831
0.494187
0.500517
0.506823
0.513104
0.519361
0.525593
0.5318
0.537986
0.544146
0.550285
0.5564
0.562492
0.56856
0.574609
0.580637
0.586642
0.59263
0.598596
0.604546
0.610478
0.616394
0.622294
0.628177
0.634045
0.639902
0.645746
0.651576
0.657398
0.66321
0.669016
0.674816
0.680609
0.6864
0.692188
0.697974
0.703759
0.709545
0.715331
0.721118
0.726908
0.732702
0.738503
0.744308
0.750121
0.755944
0.761779
0.767626
0.773489
0.779365
0.785261
0.791174
0.797112
0.803072
0.809063
0.815087
0.821157
0.827295
0.833548
0.839976
0.846692
0.853767
0.861299
0.869041
0.876825
0.88369
0.889943
-1.05872
-1.03428
-1.00937
-0.983177
-0.957486
-0.932594
-0.909103
-0.886824
-0.865599
-0.845169
-0.825332
-0.805964
-0.786976
-0.768323
-0.749956
-0.731867
-0.714032
-0.696434
-0.679073
-0.661938
-0.645011
-0.628293
-0.611784
-0.595478
-0.579365
-0.563438
-0.547704
-0.532153
-0.516786
-0.501596
-0.48658
-0.471735
-0.457062
-0.442556
-0.428216
-0.414039
-0.400021
-0.386156
-0.37245
-0.358894
-0.345492
-0.332234
-0.319117
-0.306149
-0.293321
-0.280628
-0.268074
-0.255651
-0.243361
-0.231204
-0.219173
-0.207267
-0.195483
-0.183821
-0.17228
-0.160859
-0.149551
-0.138357
-0.127276
-0.116303
-0.105437
-0.094677
-0.0840184
-0.0734623
-0.0630033
-0.052643
-0.0423782
-0.0322071
-0.022128
-0.012142
-0.00224466
0.0075645
0.017286
0.0269194
0.0364715
0.0459372
0.0553239
0.0646271
0.0738536
0.0830009
0.0920715
0.101067
0.10999
0.118839
0.127617
0.136327
0.144965
0.153538
0.162043
0.170484
0.17886
0.187174
0.195425
0.203617
0.211748
0.21982
0.227835
0.235792
0.243695
0.251542
0.259335
0.267071
0.274755
0.282383
0.289958
0.29748
0.30495
0.312369
0.319737
0.327056
0.334323
0.341543
0.348714
0.355838
0.362913
0.369944
0.37693
0.383871
0.390772
0.397632
0.404454
0.411239
0.41799
0.424705
0.431391
0.438043
0.444668
0.451261
0.457827
0.464366
0.470876
0.477358
0.483815
0.490244
0.496645
0.503021
0.509372
0.515695
0.521994
0.528267
0.534515
0.540739
0.546937
0.553112
0.559263
0.565388
0.571491
0.577573
0.583633
0.589669
0.595686
0.601681
0.60766
0.613621
0.619562
0.625488
0.631397
0.63729
0.643171
0.649037
0.65489
0.660734
0.666568
0.672396
0.678215
0.684029
0.689837
0.695644
0.701447
0.707249
0.713049
0.718849
0.72465
0.730454
0.736261
0.742076
0.747895
0.75372
0.759557
0.765406
0.771268
0.777141
0.783031
0.788941
0.794869
0.80082
0.806798
0.812806
0.818855
0.824962
0.83116
0.837502
0.844069
0.850966
0.858233
0.86588
0.873558
0.880997
0.887393
0.893033
-1.07258
-1.04873
-1.02439
-0.998554
-0.972755
-0.947429
-0.923316
-0.900407
-0.878649
-0.857777
-0.837605
-0.81796
-0.798744
-0.779881
-0.761333
-0.743067
-0.725062
-0.707309
-0.689783
-0.672489
-0.655409
-0.638538
-0.62187
-0.605412
-0.589141
-0.573063
-0.557173
-0.541469
-0.525945
-0.510599
-0.495426
-0.48043
-0.4656
-0.450938
-0.436443
-0.422111
-0.407938
-0.39392
-0.38006
-0.366354
-0.352794
-0.339387
-0.32612
-0.313001
-0.300022
-0.28718
-0.274475
-0.261906
-0.249469
-0.237161
-0.22498
-0.212928
-0.201
-0.189192
-0.177505
-0.165939
-0.154487
-0.14315
-0.131925
-0.120812
-0.109803
-0.0989042
-0.0881073
-0.0774149
-0.0668197
-0.056325
-0.0459275
-0.0356252
-0.0254164
-0.0153012
-0.00527588
0.00465816
0.0145055
0.0242636
0.0339371
0.0435254
0.0530318
0.0624549
0.0717986
0.0810633
0.0902493
0.099359
0.108395
0.117356
0.126245
0.135063
0.14381
0.15249
0.1611
0.169646
0.178124
0.18654
0.194892
0.203181
0.211412
0.219579
0.227691
0.235742
0.243738
0.251676
0.25956
0.267386
0.275157
0.282871
0.290532
0.298135
0.305689
0.313188
0.320635
0.328031
0.335375
0.34267
0.349913
0.357109
0.364257
0.371358
0.378412
0.385422
0.392391
0.399317
0.406204
0.413054
0.419867
0.426645
0.433391
0.440103
0.446785
0.453435
0.460056
0.466647
0.47321
0.479743
0.486248
0.492725
0.499173
0.505595
0.51199
0.518357
0.524698
0.531011
0.537301
0.543562
0.549799
0.556009
0.562196
0.568355
0.574493
0.580607
0.586696
0.592764
0.598811
0.604837
0.610844
0.61683
0.622799
0.62875
0.634683
0.6406
0.646505
0.652392
0.65827
0.664135
0.66999
0.675838
0.681677
0.687509
0.693336
0.699159
0.704978
0.710794
0.716609
0.722424
0.728239
0.734055
0.739875
0.7457
0.751532
0.757369
0.763218
0.769079
0.774951
0.780836
0.78674
0.79266
0.798602
0.804569
0.810563
0.816594
0.822673
0.828828
0.835097
0.841555
0.848275
0.855352
0.862767
0.870432
0.877929
0.88493
0.890805
0.895899
-1.08608
-1.06289
-1.03911
-1.01379
-0.988102
-0.9625
-0.937848
-0.914334
-0.892005
-0.870652
-0.850093
-0.830144
-0.810677
-0.791594
-0.772847
-0.754401
-0.736225
-0.718297
-0.700615
-0.683158
-0.665925
-0.648894
-0.632078
-0.615458
-0.599037
-0.5828
-0.566757
-0.550896
-0.535216
-0.519714
-0.504387
-0.489231
-0.474249
-0.45943
-0.444776
-0.430287
-0.415961
-0.40179
-0.387773
-0.373911
-0.360199
-0.346637
-0.33322
-0.319944
-0.306814
-0.293822
-0.280964
-0.268244
-0.255658
-0.243199
-0.230867
-0.218664
-0.206588
-0.194634
-0.182797
-0.171084
-0.159486
-0.148002
-0.136629
-0.125373
-0.114222
-0.103179
-0.0922427
-0.0814085
-0.0706777
-0.0600452
-0.0495109
-0.0390749
-0.0287326
-0.018486
-0.00833151
0.00173299
0.0117067
0.0215921
0.0313905
0.0411035
0.0507315
0.060277
0.0697406
0.0791236
0.0884293
0.0976545
0.106806
0.115881
0.124881
0.133811
0.142668
0.151456
0.160173
0.168825
0.177408
0.185928
0.194382
0.202772
0.211101
0.219368
0.227575
0.235723
0.243812
0.251844
0.25982
0.267736
0.275596
0.283397
0.291143
0.298832
0.306468
0.314048
0.321575
0.329049
0.33647
0.343841
0.351158
0.358427
0.365646
0.372818
0.379941
0.38702
0.394057
0.401049
0.408003
0.414916
0.421793
0.428633
0.435439
0.442211
0.44895
0.455656
0.462331
0.468976
0.47559
0.482173
0.488728
0.495252
0.501748
0.508216
0.514653
0.521064
0.527446
0.533801
0.540129
0.546428
0.552702
0.55895
0.565169
0.571363
0.577534
0.583678
0.589798
0.595896
0.601974
0.608029
0.614061
0.620073
0.626068
0.632043
0.637999
0.643941
0.649867
0.655777
0.661675
0.667561
0.673437
0.679303
0.685159
0.69101
0.696855
0.702694
0.708528
0.714359
0.720188
0.726015
0.731843
0.737671
0.743502
0.749341
0.755181
0.761031
0.766889
0.772761
0.778642
0.78454
0.790454
0.796389
0.802345
0.808325
0.814339
0.820397
0.826514
0.832728
0.839092
0.845682
0.852564
0.859796
0.867297
0.874879
0.882077
0.888569
0.893925
0.898481
-1.09932
-1.07675
-1.05355
-1.02881
-1.0034
-0.977729
-0.952688
-0.928612
-0.905706
-0.883837
-0.862853
-0.84256
-0.822803
-0.803486
-0.784536
-0.765896
-0.74754
-0.729447
-0.711591
-0.693979
-0.67658
-0.659404
-0.642424
-0.625649
-0.609072
-0.59268
-0.57648
-0.560462
-0.544628
-0.528967
-0.513482
-0.49817
-0.483026
-0.468053
-0.453243
-0.438593
-0.424109
-0.409783
-0.39561
-0.381591
-0.36772
-0.354005
-0.340431
-0.327003
-0.313717
-0.30057
-0.287558
-0.274686
-0.261944
-0.249333
-0.236849
-0.224496
-0.212265
-0.200161
-0.188171
-0.176305
-0.164558
-0.152926
-0.141405
-0.13
-0.118704
-0.107515
-0.0964339
-0.0854571
-0.0745842
-0.0638126
-0.05314
-0.0425664
-0.0320878
-0.0217058
-0.0114184
-0.00122184
0.00888282
0.0188984
0.0288241
0.038664
0.0484174
0.0580872
0.0676747
0.0771783
0.0866048
0.0959487
0.105217
0.114409
0.123524
0.132567
0.141537
0.150435
0.159263
0.168021
0.176712
0.185337
0.193894
0.202388
0.210817
0.219185
0.22749
0.235734
0.243919
0.252046
0.260114
0.268123
0.276073
0.283963
0.291795
0.299571
0.307289
0.314952
0.322559
0.330113
0.337612
0.345057
0.352451
0.359793
0.367084
0.374328
0.381521
0.38867
0.395774
0.402833
0.409853
0.416831
0.423772
0.430675
0.43754
0.444371
0.451167
0.457931
0.464661
0.471358
0.478023
0.484657
0.491261
0.497833
0.504376
0.510887
0.517369
0.523823
0.530246
0.536642
0.543008
0.549345
0.555656
0.561938
0.568192
0.57442
0.580624
0.586799
0.592951
0.599078
0.605183
0.611265
0.617324
0.623362
0.629381
0.63538
0.64136
0.647323
0.65327
0.659201
0.665121
0.671026
0.676921
0.682804
0.688679
0.694548
0.700408
0.706261
0.712111
0.717956
0.723798
0.729639
0.735477
0.741318
0.747161
0.753009
0.75886
0.76472
0.77059
0.776468
0.782361
0.788267
0.794195
0.80014
0.80611
0.812108
0.818142
0.824231
0.830399
0.836689
0.843162
0.849893
0.85693
0.864277
0.871774
0.879157
0.885963
0.891909
0.896744
0.9008
-1.11224
-1.09026
-1.0677
-1.04358
-1.01863
-0.993024
-0.96776
-0.943218
-0.919759
-0.897357
-0.875915
-0.855231
-0.835166
-0.815593
-0.796415
-0.777569
-0.759035
-0.740762
-0.722744
-0.704959
-0.687404
-0.670066
-0.652931
-0.635998
-0.619262
-0.602717
-0.586357
-0.570183
-0.554188
-0.538373
-0.522726
-0.507256
-0.491952
-0.476819
-0.461853
-0.447042
-0.432397
-0.417912
-0.403579
-0.389402
-0.375375
-0.361498
-0.347767
-0.334182
-0.320741
-0.307433
-0.294268
-0.281235
-0.268338
-0.255569
-0.242932
-0.230421
-0.218037
-0.205776
-0.193634
-0.181612
-0.169711
-0.157927
-0.146256
-0.134698
-0.123253
-0.111915
-0.100687
-0.0895625
-0.0785452
-0.0676293
-0.0568156
-0.0461015
-0.0354843
-0.0249627
-0.0145388
-0.00420831
0.00603159
0.0161785
0.0262365
0.0362052
0.0460878
0.055885
0.0655967
0.0752269
0.0847738
0.0942415
0.103629
0.112939
0.122173
0.131331
0.140415
0.149427
0.158366
0.167235
0.176034
0.184766
0.19343
0.202027
0.21056
0.219029
0.227434
0.235779
0.24406
0.252284
0.260446
0.268549
0.276589
0.28457
0.292491
0.300353
0.308156
0.315902
0.323592
0.331225
0.338802
0.346325
0.353794
0.361211
0.368576
0.37589
0.383156
0.390374
0.397546
0.404674
0.411759
0.418803
0.425807
0.432772
0.439699
0.446589
0.453443
0.460262
0.467047
0.473797
0.480514
0.4872
0.493852
0.500472
0.507059
0.513616
0.520142
0.526638
0.533103
0.539539
0.545943
0.552319
0.558666
0.564982
0.57127
0.577533
0.583768
0.589975
0.596156
0.602313
0.608445
0.614554
0.620639
0.626703
0.632744
0.638768
0.644769
0.650754
0.656722
0.662674
0.668612
0.674537
0.68045
0.686351
0.692243
0.698129
0.704003
0.709872
0.715736
0.721594
0.72745
0.733301
0.739153
0.745004
0.750858
0.756715
0.762578
0.768447
0.774326
0.780214
0.786115
0.792034
0.797971
0.803929
0.80991
0.815928
0.82199
0.828117
0.834347
0.840729
0.847321
0.854193
0.861356
0.868753
0.876146
0.883236
0.889564
0.894953
0.899271
0.902875
-1.1249
-1.10342
-1.08153
-1.05807
-1.03363
-1.00834
-0.982993
-0.958113
-0.934158
-0.911231
-0.88929
-0.8682
-0.847793
-0.827925
-0.808507
-0.78945
-0.770714
-0.752265
-0.734074
-0.716119
-0.6984
-0.680898
-0.663606
-0.646513
-0.629621
-0.612914
-0.596397
-0.580062
-0.563909
-0.547932
-0.532129
-0.516497
-0.501033
-0.485738
-0.470612
-0.455641
-0.440831
-0.426183
-0.411693
-0.397354
-0.38317
-0.369128
-0.355237
-0.341492
-0.327888
-0.314421
-0.301094
-0.287903
-0.274846
-0.261918
-0.249121
-0.236451
-0.223906
-0.211487
-0.199191
-0.18701
-0.174952
-0.163011
-0.151186
-0.139472
-0.127874
-0.116384
-0.105005
-0.0937332
-0.0825651
-0.0715016
-0.0605425
-0.0496835
-0.0389254
-0.0282624
-0.0176968
-0.00722831
0.00314759
0.0134308
0.0236226
0.0337255
0.0437396
0.053666
0.0635073
0.0732638
0.0829373
0.0925294
0.10204
0.111471
0.120825
0.130102
0.139303
0.148431
0.157483
0.166465
0.175376
0.184216
0.192988
0.201694
0.21033
0.218903
0.227411
0.235855
0.244237
0.252558
0.260817
0.269014
0.277148
0.28522
0.29323
0.30118
0.309069
0.316901
0.324672
0.332387
0.340044
0.347645
0.35519
0.362683
0.370121
0.377509
0.384846
0.392134
0.399376
0.406572
0.413724
0.420834
0.427901
0.434928
0.441916
0.448866
0.455778
0.462654
0.469493
0.476296
0.483065
0.489801
0.496501
0.503168
0.509802
0.516405
0.522975
0.529512
0.536018
0.542493
0.548936
0.55535
0.561731
0.568083
0.574406
0.580702
0.586967
0.593204
0.599416
0.605601
0.611761
0.617897
0.624007
0.630095
0.636161
0.642206
0.648231
0.654236
0.660224
0.666198
0.672153
0.678096
0.684025
0.689944
0.695854
0.701755
0.707643
0.713526
0.719402
0.725274
0.731141
0.737005
0.742867
0.748729
0.754593
0.760461
0.766332
0.772211
0.778098
0.783997
0.789908
0.795837
0.801784
0.807753
0.813752
0.819792
0.825885
0.832064
0.838366
0.844847
0.851568
0.858565
0.865809
0.873173
0.880367
0.887054
0.892869
0.897692
0.901528
0.904746
-1.13725
-1.1163
-1.09501
-1.07222
-1.04841
-1.02352
-0.998288
-0.973211
-0.948853
-0.925427
-0.903001
-0.881465
-0.860675
-0.840497
-0.820808
-0.801527
-0.782582
-0.763944
-0.74557
-0.72745
-0.709559
-0.691897
-0.674438
-0.657185
-0.640131
-0.623268
-0.60659
-0.590095
-0.573782
-0.557644
-0.541679
-0.525888
-0.510263
-0.494803
-0.479512
-0.464382
-0.44941
-0.434599
-0.419945
-0.405444
-0.391092
-0.376892
-0.362836
-0.348927
-0.335157
-0.321527
-0.308036
-0.294681
-0.281461
-0.268371
-0.255412
-0.24258
-0.229871
-0.21729
-0.204833
-0.192492
-0.180274
-0.168172
-0.156189
-0.144319
-0.132562
-0.120919
-0.109384
-0.0979597
-0.0866403
-0.075427
-0.0643167
-0.053311
-0.0424066
-0.0315997
-0.0208913
-0.0102793
0.000236196
0.0106583
0.0209889
0.0312261
0.0413758
0.0514356
0.0614088
0.0712952
0.0810972
0.0908175
0.100453
0.11001
0.119485
0.128884
0.138204
0.147448
0.156619
0.165715
0.174738
0.183692
0.192573
0.201387
0.210131
0.218809
0.22742
0.235967
0.24445
0.25287
0.261227
0.269521
0.277749
0.285915
0.294015
0.302055
0.31003
0.317948
0.325802
0.3336
0.341337
0.349017
0.356641
0.364208
0.371721
0.379183
0.386591
0.393952
0.401262
0.408528
0.415746
0.422921
0.430053
0.437143
0.444193
0.451201
0.458171
0.465103
0.471996
0.478853
0.485674
0.492459
0.499208
0.505922
0.512603
0.519249
0.525863
0.532441
0.538988
0.545501
0.551983
0.558432
0.564849
0.571237
0.577593
0.58392
0.590216
0.596484
0.602726
0.608939
0.615125
0.621286
0.627422
0.633534
0.639623
0.645691
0.651738
0.657764
0.663773
0.669763
0.675738
0.681698
0.687645
0.69358
0.699504
0.705417
0.71132
0.717217
0.723106
0.728988
0.734867
0.740742
0.746614
0.752487
0.758361
0.764237
0.770118
0.776006
0.781904
0.78781
0.793733
0.79967
0.805629
0.811612
0.817632
0.823697
0.829832
0.836071
0.842459
0.849049
0.855886
0.86298
0.870241
0.877481
0.884375
0.890594
0.895861
0.900141
0.903559
0.906456
-1.14943
-1.12892
-1.10816
-1.08603
-1.0629
-1.03853
-1.01356
-0.988443
-0.963798
-0.939938
-0.917031
-0.895031
-0.873847
-0.853323
-0.833351
-0.813818
-0.794653
-0.775808
-0.757253
-0.738954
-0.720896
-0.703062
-0.685442
-0.668027
-0.650811
-0.633785
-0.616948
-0.600293
-0.583818
-0.567518
-0.551389
-0.535434
-0.519649
-0.504026
-0.488567
-0.473273
-0.45814
-0.443165
-0.428343
-0.413674
-0.399158
-0.38479
-0.370569
-0.356492
-0.342555
-0.328758
-0.315102
-0.301579
-0.288193
-0.274935
-0.261811
-0.24881
-0.235941
-0.223192
-0.210569
-0.198066
-0.185683
-0.173419
-0.161274
-0.149242
-0.137326
-0.125523
-0.11383
-0.102248
-0.090775
-0.0794083
-0.0681457
-0.0569868
-0.0459325
-0.0349793
-0.024123
-0.0133658
-0.00270574
0.007859
0.0183297
0.0287075
0.0389948
0.0491904
0.0592992
0.0693191
0.0792525
0.0891029
0.0988665
0.108551
0.118152
0.127673
0.137117
0.146481
0.15577
0.164985
0.174122
0.183191
0.192184
0.201108
0.209962
0.218747
0.227464
0.236116
0.2447
0.253222
0.261679
0.270071
0.278394
0.286654
0.294846
0.302976
0.311041
0.319044
0.326984
0.334865
0.342683
0.350443
0.358145
0.365788
0.373378
0.380912
0.388394
0.395827
0.403207
0.410541
0.417827
0.425068
0.432265
0.439417
0.446527
0.453596
0.460623
0.467611
0.474559
0.481469
0.488342
0.495176
0.501973
0.508735
0.515461
0.522151
0.528806
0.535426
0.542013
0.548565
0.555084
0.56157
0.568022
0.574443
0.580833
0.587191
0.593518
0.599817
0.606085
0.612327
0.618539
0.624727
0.630887
0.637023
0.643134
0.649224
0.655292
0.661339
0.667366
0.673375
0.679368
0.685345
0.691309
0.697258
0.703195
0.709122
0.71504
0.720949
0.726848
0.732741
0.738631
0.744515
0.750398
0.756279
0.762161
0.768047
0.773936
0.779833
0.785738
0.791655
0.797586
0.803534
0.809505
0.815507
0.82155
0.82765
0.833833
0.840143
0.846621
0.853321
0.860257
0.867399
0.874601
0.881624
0.888129
0.893832
0.898549
0.902327
0.905405
0.908068
-1.16147
-1.14127
-1.12098
-1.09949
-1.07704
-1.0533
-1.02871
-1.00372
-0.97892
-0.954711
-0.93136
-0.908913
-0.887302
-0.866417
-0.846123
-0.826321
-0.806923
-0.787871
-0.769118
-0.750636
-0.7324
-0.714398
-0.696614
-0.679033
-0.661653
-0.644465
-0.627465
-0.610647
-0.594009
-0.577549
-0.56126
-0.545135
-0.529186
-0.513397
-0.497776
-0.482315
-0.467015
-0.451872
-0.436882
-0.422046
-0.40736
-0.392823
-0.378433
-0.364185
-0.35008
-0.336113
-0.322286
-0.308595
-0.295039
-0.28161
-0.268315
-0.255146
-0.242106
-0.22919
-0.216397
-0.203727
-0.191178
-0.178749
-0.166437
-0.15424
-0.142161
-0.130194
-0.118341
-0.106599
-0.0949657
-0.0834421
-0.0720242
-0.0607109
-0.049502
-0.0383958
-0.0273911
-0.0164839
-0.00567613
0.00503447
0.0156498
0.0261704
0.036599
0.0469336
0.0571812
0.0673363
0.0774054
0.0873887
0.0972846
0.107098
0.116828
0.126475
0.136044
0.145531
0.154943
0.164274
0.173532
0.182715
0.191824
0.20086
0.209825
0.218719
0.227545
0.236302
0.24499
0.253615
0.262173
0.270665
0.279086
0.28744
0.295727
0.303947
0.312102
0.320193
0.328219
0.336182
0.344084
0.351923
0.359704
0.367425
0.375091
0.3827
0.390256
0.397759
0.405211
0.412614
0.419968
0.427274
0.434536
0.44175
0.448921
0.456049
0.463135
0.470178
0.477181
0.484144
0.491067
0.49795
0.504796
0.511605
0.518375
0.525108
0.531806
0.538467
0.545093
0.551684
0.558239
0.564761
0.571247
0.577701
0.584122
0.590511
0.596869
0.603196
0.609493
0.615761
0.622
0.628213
0.634397
0.640556
0.64669
0.652801
0.658889
0.664956
0.671002
0.677029
0.683039
0.689033
0.695012
0.700976
0.706927
0.712866
0.718795
0.724715
0.730625
0.736532
0.742429
0.748322
0.754213
0.760103
0.765994
0.771887
0.777784
0.78369
0.789602
0.795527
0.801468
0.807428
0.813415
0.819436
0.825506
0.831647
0.837891
0.844278
0.850854
0.857647
0.86465
0.871779
0.878838
0.885552
0.891609
0.89676
0.900954
0.904291
0.907111
0.909647
-1.17338
-1.15345
-1.13355
-1.11262
-1.09082
-1.06773
-1.04369
-1.01896
-0.994148
-0.969702
-0.945974
-0.923094
-0.901058
-0.879783
-0.859158
-0.83906
-0.819409
-0.800132
-0.781182
-0.762511
-0.744091
-0.725912
-0.707958
-0.69021
-0.672667
-0.655316
-0.638152
-0.62117
-0.60437
-0.587744
-0.57129
-0.555007
-0.538886
-0.522934
-0.507142
-0.491516
-0.476046
-0.460731
-0.445573
-0.430568
-0.415707
-0.401001
-0.386438
-0.372018
-0.357738
-0.3436
-0.3296
-0.315735
-0.302005
-0.288404
-0.274936
-0.261595
-0.248379
-0.235293
-0.222327
-0.209485
-0.196766
-0.184165
-0.171686
-0.159322
-0.147074
-0.134941
-0.122923
-0.111016
-0.0992197
-0.0875348
-0.0759568
-0.0644858
-0.0531186
-0.041857
-0.0306984
-0.0196395
-0.00867968
0.00218032
0.0129437
0.0236093
0.0341848
0.0446619
0.0550501
0.0653461
0.0755539
0.0856712
0.0957046
0.105648
0.115511
0.125287
0.134983
0.144597
0.154131
0.163587
0.172964
0.182265
0.19149
0.200643
0.20972
0.218726
0.227661
0.236527
0.245321
0.254051
0.26271
0.271304
0.279823
0.288275
0.296657
0.30497
0.313215
0.321395
0.329507
0.337556
0.345539
0.353461
0.361322
0.369122
0.376864
0.384548
0.392179
0.399753
0.407277
0.414748
0.42217
0.429543
0.436868
0.444145
0.451379
0.458565
0.465708
0.472807
0.479865
0.48688
0.493852
0.500785
0.507679
0.514533
0.521348
0.528124
0.534864
0.541565
0.548229
0.554858
0.56145
0.568006
0.574525
0.581012
0.587465
0.593885
0.600272
0.606627
0.612953
0.619247
0.62551
0.631748
0.637955
0.644136
0.650291
0.656423
0.662532
0.668618
0.674683
0.680726
0.686755
0.692764
0.698757
0.704735
0.7107
0.716651
0.722592
0.728522
0.734445
0.740357
0.746264
0.752165
0.758063
0.763961
0.769859
0.775759
0.781663
0.787575
0.793495
0.799429
0.805382
0.811354
0.817355
0.823399
0.829504
0.835695
0.842003
0.848473
0.855138
0.862005
0.869026
0.87607
0.882901
0.889229
0.894777
0.899386
0.903107
0.906083
0.908744
0.911242
-1.1853
-1.1655
-1.14587
-1.12544
-1.10425
-1.08186
-1.0584
-1.03407
-1.00939
-0.984838
-0.96082
-0.937537
-0.915095
-0.893424
-0.872436
-0.852037
-0.832115
-0.812601
-0.79343
-0.774563
-0.755961
-0.737605
-0.719476
-0.701561
-0.683848
-0.666335
-0.649006
-0.631861
-0.614895
-0.598101
-0.581484
-0.565033
-0.54875
-0.532627
-0.516668
-0.500869
-0.485232
-0.469744
-0.454412
-0.439234
-0.4242
-0.409316
-0.39458
-0.379984
-0.36553
-0.351214
-0.337039
-0.322995
-0.30909
-0.295312
-0.281667
-0.268151
-0.25476
-0.241497
-0.228356
-0.215339
-0.202444
-0.18967
-0.177017
-0.164482
-0.152063
-0.13976
-0.127572
-0.115498
-0.103538
-0.0916844
-0.0799431
-0.0683094
-0.0567828
-0.0453608
-0.034043
-0.0228295
-0.0117148
-0.000700514
0.0102139
0.0210303
0.0317522
0.0423787
0.0529096
0.06335
0.0736988
0.0839548
0.094127
0.104207
0.114202
0.124112
0.133938
0.143681
0.15334
0.162922
0.172421
0.181844
0.191189
0.200458
0.209651
0.218771
0.227817
0.236791
0.245695
0.254531
0.263294
0.27199
0.280611
0.28916
0.297637
0.306045
0.314382
0.322651
0.330852
0.338986
0.347053
0.355059
0.362999
0.370878
0.378697
0.386458
0.394162
0.401809
0.409405
0.416945
0.424435
0.431874
0.439262
0.446604
0.453897
0.461143
0.468342
0.475498
0.482609
0.489675
0.496699
0.503681
0.510621
0.51752
0.524378
0.531199
0.537978