/*--------------------------------*- C++ -*---------------------------------*\ 
| ========                 |                                                 | 
| \      /  F ield         | OpenFOAM: The Open Source CFD Toolbox           | 
|  \    /   O peration     | Version:  v1812                                 | 
|   \  /    A nd           | Web:      www.OpenFOAM.com                      | 
|    \/     M anipulation  |                                                 | 
\*--------------------------------------------------------------------------*/ 
FoamFile
{
    version     2.0;
    format      ascii;
    class       volVectorField;
    location    "/home/james/dafoam/myRuns/bezier_coanda_opt/0.00000000001/";
    object      sens_CL_shapey;
}
// * * * * * * * * * * * * * * * * * * * * * * * * * * * * * * * * * * * * * //

dimensions      [0 0 0 0 0 0 0];
internalField   uniform (0 0 0);
boundaryField
{
    allWalls
    {
        type  wall;
        value nonuniform List<vector>
188
(
(0.000027 0.001273 0.000161)
(-0.012424 0.006141 0.000174)
(-0.029209 0.018094 0.000173)
(-0.038628 0.028660 0.000172)
(-0.039847 0.038380 0.000172)
(-0.023169 0.026085 0.000171)
(-0.005110 0.010959 0.000171)
(-0.012386 0.025185 0.000171)
(-0.013088 0.028328 0.000170)
(-0.010593 0.026231 0.000170)
(-0.011013 0.031935 0.000170)
(-0.009569 0.032434 0.000169)
(-0.008160 0.032294 0.000265)
(-0.007604 0.034222 0.000361)
(-0.007034 0.036183 0.000363)
(-0.006840 0.040778 0.000365)
(-0.006347 0.044194 0.000367)
(-0.005632 0.046788 0.000369)
(-0.005099 0.051482 0.000806)
(-0.004423 0.056614 0.001319)
(-0.003582 0.062120 0.001474)
(-0.002608 0.069921 0.001631)
(-0.001369 0.080982 0.001787)
(0.000401 0.094736 0.001932)
(0.003164 0.117472 0.002104)
(0.005930 0.125256 0.001633)
(0.008554 0.123532 0.001062)
(0.011232 0.128566 0.000796)
(0.013457 0.129039 0.000429)
(0.015704 0.131785 0.000308)
(0.017871 0.134750 0.000170)
(0.019925 0.137573 0.000012)
(0.021851 0.140444 -0.000132)
(0.023614 0.143020 -0.000194)
(0.025240 0.145301 -0.000190)
(0.026718 0.147217 -0.000223)
(0.027979 0.148643 -0.000236)
(0.029015 0.149378 -0.000256)
(0.029849 0.149462 -0.000263)
(0.030461 0.148881 -0.000264)
(0.030837 0.147407 -0.000239)
(0.030844 0.144554 -0.000211)
(0.030533 0.140875 -0.000227)
(0.030228 0.137367 -0.000217)
(0.029571 0.132139 -0.000183)
(0.027350 0.120159 -0.000174)
(0.025154 0.107772 -0.000191)
(0.027650 0.117887 -0.000162)
(0.029380 0.124179 -0.000110)
(0.009870 0.020752 -0.000110)
(-0.008509 0.038964 -0.000110)
(-0.004941 0.010371 -0.000110)
(-0.008770 0.033246 -0.000146)
(-0.007908 0.030640 -0.000127)
(-0.009976 0.038524 -0.000069)
(-0.008004 0.031726 -0.000087)
(-0.006567 0.026503 -0.000080)
(-0.007819 0.031588 -0.000048)
(-0.008742 0.035417 -0.000062)
(-0.008882 0.036580 -0.000069)
(-0.009021 0.038063 -0.000045)
(-0.009312 0.040611 -0.000020)
(-0.009582 0.043589 0.000007)
(-0.009723 0.046569 0.000036)
(-0.009743 0.049564 0.000065)
(-0.009625 0.052599 0.000095)
(-0.009370 0.055546 0.000125)
(-0.008983 0.058419 0.000181)
(-0.008438 0.061230 0.000231)
(-0.007740 0.063880 0.000248)
(-0.006903 0.066306 0.000244)
(-0.005960 0.069266 0.000245)
(-0.004788 0.070745 0.000249)
(-0.003413 0.068469 0.000173)
(-0.002029 0.072014 0.000131)
(-0.000704 0.081022 0.000126)
(0.000638 0.073495 -0.000019)
(0.001578 0.054575 -0.000142)
(0.002141 0.046154 -0.000156)
(0.002926 0.046145 -0.000161)
(0.003332 0.041693 -0.000161)
(0.003727 0.037621 -0.000156)
(0.004038 0.034458 0.000097)
(0.004373 0.031148 0.000346)
(0.004783 0.029386 0.000346)
(0.005104 0.027306 0.000346)
(0.006581 0.030906 0.000346)
(0.005704 0.025025 0.000346)
(0.005223 0.020156 0.000232)
(0.005775 0.019521 0.000120)
(0.008067 0.021337 0.000124)
(0.009510 0.019968 0.000127)
(0.006850 0.007955 0.000130)
(0.004459 -0.002241 0.000133)
(-0.004400 -0.018553 0.000136)
(-0.001458 -0.014655 0.000139)
(0.017931 0.014016 0.000141)
(0.018648 0.030980 0.000144)
(0.005950 0.015406 0.000146)
(0.005186 -0.001654 0.000147)
(-0.001534 0.040094 -0.000110)
(0.003506 0.159792 -0.000110)
(0.001946 0.126946 -0.000110)
(0.003477 0.128485 -0.000110)
(0.006294 0.208977 -0.000110)
(0.008311 0.253869 -0.000110)
(0.009602 0.276022 -0.000110)
(0.012483 0.349481 -0.000110)
(0.017944 0.497709 -0.000110)
(0.023021 0.634582 -0.000089)
(0.023344 0.546111 -0.000067)
(0.037412 0.724144 -0.000067)
(0.156640 3.382901 -0.000067)
(0.359329 7.750593 -0.000067)
(-9.442192 -15.542988 -0.000067)
(162.044646 -231.635845 -0.000067)
(-8.531684 -7.526711 -0.000067)
(-8.080122 -4.212281 -0.000067)
(-13.363709 -18.631221 -0.000067)
(-145.369312 216.511894 -0.000067)
(6.303889 73.359928 -0.000032)
(4.235208 31.446126 0.000003)
(0.958490 9.795411 0.000003)
(0.202922 -0.182757 0.000003)
(1.923621 5.586229 0.000003)
(-0.397760 -0.404098 0.000003)
(-0.414442 -0.781742 0.000003)
(-0.393304 -0.361610 0.000003)
(0.008734 -0.168920 0.000003)
(1.136284 1.655350 0.000003)
(0.841427 1.095278 0.000003)
(1.719574 1.918652 0.000003)
(2.583966 2.509359 0.000003)
(5.196093 4.181796 0.000003)
(7.436932 5.382935 0.000003)
(5.616556 3.810358 0.000003)
(7.556698 4.288300 0.000003)
(12.409130 4.467576 0.000003)
(-1.706872 -3.926384 0.000003)
(-59.070998 -15.915457 0.000003)
(-66.371965 -8.347049 0.000003)
(-5.716095 2.406709 0.000003)
(28.991658 -2.002277 0.000003)
(28.216773 -3.690506 0.000003)
(13.899110 -1.904662 0.000003)
(4.847688 -0.632752 0.000003)
(1.012536 -0.746097 0.000003)
(0.861253 -0.983921 0.000003)
(1.418500 -1.414561 0.000003)
(1.509458 -1.126949 0.000003)
(-0.115246 -0.132251 0.000003)
(-0.017777 0.132742 0.000003)
(0.275514 0.012578 0.000003)
(0.160355 -0.004151 0.000003)
(0.079150 -0.008815 0.000003)
(0.030223 -0.011049 0.000003)
(-0.008845 -0.000835 0.000003)
(-0.024520 0.008088 0.000003)
(-0.025428 0.012093 0.000003)
(-0.023795 0.014985 0.000003)
(-0.021140 0.017591 0.000003)
(-0.017391 0.019478 0.000003)
(-0.014673 0.021920 0.000003)
(-0.013459 0.027066 0.000003)
(-0.013248 0.031421 0.000003)
(-0.011634 0.024289 0.000003)
(-0.003796 0.000973 0.000003)
(0.000729 -0.022710 -0.000032)
(-15.011703 -0.015105 -0.000067)
(15.011413 0.006370 -0.000067)
(0.000939 0.001066 -0.000067)
(0.006358 -0.006957 -0.000067)
(0.068639 -0.446036 -0.000067)
(0.056147 -0.309402 -0.000067)
(-0.012155 0.219396 -0.000067)
(-0.004880 0.091652 -0.000067)
(-0.000923 0.002653 -0.000067)
(-0.000973 0.016707 -0.000067)
(-0.001407 0.033567 -0.000089)
(-0.001131 0.027829 -0.000110)
(-0.001007 0.023947 -0.000110)
(-0.000989 0.024608 -0.000110)
(-0.000868 0.022403 -0.000110)
(-0.000998 0.024841 -0.000110)
(-0.000974 0.022799 -0.000110)
(0.000251 0.014528 -0.000110)
(0.001363 0.018000 -0.000110)
(-0.008644 0.059795 -0.000110)
)
;
    }
}
