/*--------------------------------*- C++ -*---------------------------------*\ 
| ========                 |                                                 | 
| \      /  F ield         | OpenFOAM: The Open Source CFD Toolbox           | 
|  \    /   O peration     | Version:  v1812                                 | 
|   \  /    A nd           | Web:      www.OpenFOAM.com                      | 
|    \/     M anipulation  |                                                 | 
\*--------------------------------------------------------------------------*/ 
FoamFile
{
    version     2.0;
    format      ascii;
    class       volVectorField;
    location    "/home/james/dafoam/myRuns/bezier_coanda_opt/0.00000000001/";
    object      sens_CL_shapey;
}
// * * * * * * * * * * * * * * * * * * * * * * * * * * * * * * * * * * * * * //

dimensions      [0 0 0 0 0 0 0];
internalField   uniform (0 0 0);
boundaryField
{
    allWalls
    {
        type  wall;
        value nonuniform List<vector>
188
(
(0.014827 0.005027 0.000150)
(-0.036212 0.022817 0.000150)
(-0.067742 0.050436 0.000149)
(-0.063617 0.057383 0.000149)
(-0.032174 0.036958 0.000149)
(-0.009049 0.016190 0.000149)
(0.001456 0.007938 0.000149)
(-0.008530 0.022969 0.000149)
(-0.010196 0.026474 0.000149)
(-0.009860 0.027537 0.000149)
(-0.010444 0.030831 0.000149)
(-0.008321 0.029036 0.000281)
(-0.007400 0.029836 0.000413)
(-0.006999 0.033226 0.000413)
(-0.006634 0.035620 0.000413)
(-0.006152 0.039562 0.000413)
(-0.006018 0.045598 0.000413)
(-0.005102 0.048315 0.000413)
(-0.004356 0.053216 0.000811)
(-0.003343 0.059213 0.001265)
(-0.002174 0.065543 0.001378)
(-0.000708 0.070704 0.001488)
(0.001010 0.083641 0.001589)
(0.003204 0.101205 0.001512)
(0.005764 0.116344 0.001332)
(0.008063 0.123853 0.001154)
(0.009550 0.122695 0.000895)
(0.010325 0.116613 0.000650)
(0.011386 0.116002 0.000409)
(0.013839 0.131205 0.000248)
(0.015579 0.140130 0.000162)
(0.014943 0.126461 -0.000172)
(0.016495 0.131504 -0.000433)
(0.018430 0.141867 -0.000292)
(0.018758 0.138962 -0.000253)
(0.019857 0.142257 -0.000317)
(0.020668 0.144291 -0.000251)
(0.021385 0.145955 -0.000204)
(0.021983 0.146737 -0.000198)
(0.022502 0.147264 -0.000189)
(0.022889 0.147167 -0.000178)
(0.023065 0.145954 -0.000166)
(0.023193 0.144684 -0.000151)
(0.023420 0.144196 -0.000141)
(0.023119 0.140381 -0.000135)
(0.021046 0.126253 -0.000126)
(0.019843 0.117142 -0.000105)
(0.026171 0.155830 -0.000096)
(0.033565 0.198559 -0.000104)
(0.001605 -0.028188 -0.000104)
(-0.012923 0.099771 -0.000104)
(0.003663 -0.025903 -0.000104)
(-0.003810 0.019334 -0.000090)
(-0.007198 0.043454 0.000027)
(-0.007015 0.042218 0.000026)
(-0.006876 0.042010 -0.000080)
(-0.007380 0.045442 -0.000032)
(-0.007785 0.048537 -0.000033)
(-0.008058 0.051229 0.000013)
(-0.008239 0.053519 0.000109)
(-0.008471 0.055665 0.000080)
(-0.008650 0.057646 -0.000019)
(-0.008671 0.059386 0.000008)
(-0.008632 0.060921 0.000106)
(-0.008571 0.062250 0.000108)
(-0.008491 0.063375 0.000134)
(-0.008361 0.064382 0.000034)
(-0.008085 0.065245 0.000017)
(-0.007784 0.066297 0.000126)
(-0.007424 0.065981 0.000130)
(-0.007418 0.070246 0.000230)
(-0.007464 0.076265 0.000253)
(-0.006392 0.070443 0.000188)
(-0.005186 0.064403 0.000204)
(-0.004918 0.073636 0.000209)
(-0.003960 0.075391 0.000064)
(-0.002294 0.068359 -0.000094)
(-0.000920 0.060701 -0.000116)
(0.000291 0.049485 -0.000123)
(0.001318 0.046094 -0.000119)
(0.001973 0.040182 -0.000107)
(0.002910 0.037462 -0.000089)
(0.003914 0.037795 0.000167)
(0.004200 0.032317 0.000413)
(0.004456 0.028467 0.000413)
(0.004981 0.027037 0.000413)
(0.005857 0.027663 0.000413)
(0.005440 0.023248 0.000246)
(0.005545 0.020587 0.000082)
(0.005917 0.019035 0.000087)
(0.007312 0.019126 0.000092)
(0.008572 0.018490 0.000096)
(0.007296 0.011369 0.000100)
(0.006057 0.004970 0.000104)
(0.000457 -0.006708 0.000108)
(0.001175 -0.007356 0.000112)
(0.010967 0.008153 0.000115)
(0.010015 0.016448 0.000118)
(0.016444 0.001713 0.000121)
(0.041080 -0.008624 0.000136)
(-0.008146 -0.005423 -0.000104)
(0.011947 0.250952 -0.000104)
(0.005661 0.183573 -0.000104)
(0.004218 0.151489 -0.000104)
(0.007149 0.228887 -0.000104)
(0.009475 0.280995 -0.000104)
(0.011018 0.317469 -0.000104)
(0.013958 0.397100 -0.000104)
(0.019372 0.548950 -0.000104)
(0.024450 0.693197 -0.000084)
(0.025187 0.642316 -0.000065)
(0.039464 0.911557 -0.000065)
(0.151551 3.537562 -0.000065)
(0.329953 7.556068 -0.000065)
(-8.576891 -13.162803 -0.000065)
(184.567882 -248.197110 -0.000065)
(-8.860445 -8.054035 -0.000065)
(-9.305145 -4.987608 -0.000065)
(-13.220721 -15.732334 -0.000065)
(-166.836923 228.987657 -0.000065)
(6.930565 80.570506 -0.000032)
(5.004254 35.103818 0.000001)
(1.051703 10.790416 0.000001)
(-0.522530 -2.273476 0.000001)
(2.321246 6.785400 0.000001)
(-0.147932 0.801053 0.000001)
(-0.826261 -1.679949 0.000001)
(-0.481418 -0.547700 0.000001)
(0.064200 -0.283181 0.000001)
(1.588163 2.240976 0.000001)
(1.702431 2.046907 0.000001)
(3.683103 3.908401 0.000001)
(3.391814 3.360181 0.000001)
(7.312206 5.842446 0.000001)
(12.550142 9.031063 0.000001)
(10.460716 6.288661 0.000001)
(2.901468 0.655843 0.000001)
(16.122426 2.075267 0.000001)
(-51.298911 -19.789737 0.000001)
(-110.640397 -25.603658 0.000001)
(-31.601979 0.441236 0.000001)
(33.257982 3.634793 0.000001)
(46.281356 0.765145 0.000001)
(30.936988 -0.756053 0.000001)
(7.419462 -0.812433 0.000001)
(0.019800 -0.605771 0.000001)
(1.334238 -1.169839 0.000001)
(2.872959 -1.668984 0.000001)
(1.775591 -1.199625 0.000001)
(-0.020387 0.187140 0.000001)
(0.154466 0.388857 0.000001)
(0.549561 0.135142 0.000001)
(0.199813 0.106515 0.000001)
(0.021266 0.062299 0.000001)
(-0.085630 0.042270 0.000001)
(-0.128479 0.052792 0.000001)
(-0.128651 0.080193 0.000001)
(-0.119976 0.106043 0.000001)
(-0.097150 0.101925 0.000001)
(-0.063640 0.071611 0.000001)
(-0.040014 0.050477 0.000001)
(-0.030211 0.045539 0.000001)
(-0.021610 0.039452 0.000001)
(-0.016058 0.040818 0.000001)
(-0.018733 0.056323 0.000001)
(-0.005566 -0.016105 0.000001)
(0.022262 -0.138551 0.000001)
(0.019191 -0.149470 -0.000032)
(-14.996143 -0.063215 -0.000065)
(15.006321 0.006982 -0.000065)
(0.017714 -0.008616 -0.000065)
(0.060443 -0.037593 -0.000065)
(0.197759 -1.369074 -0.000065)
(0.136116 -0.850579 -0.000065)
(-0.027491 0.697072 -0.000065)
(-0.006897 0.160922 -0.000065)
(-0.002199 0.029804 -0.000065)
(-0.004972 0.136911 -0.000065)
(-0.004109 0.120695 -0.000084)
(-0.001962 0.067143 -0.000104)
(-0.000917 0.030010 -0.000104)
(-0.001592 0.043643 -0.000104)
(-0.001669 0.051687 -0.000104)
(-0.001730 0.045596 -0.000104)
(-0.002223 0.048261 -0.000104)
(0.001011 0.011701 -0.000104)
(0.006486 -0.029992 -0.000104)
(-0.012775 0.109958 -0.000104)
)
;
    }
}
