/*--------------------------------*- C++ -*---------------------------------*\ 
| ========                 |                                                 | 
| \      /  F ield         | OpenFOAM: The Open Source CFD Toolbox           | 
|  \    /   O peration     | Version:  v1812                                 | 
|   \  /    A nd           | Web:      www.OpenFOAM.com                      | 
|    \/     M anipulation  |                                                 | 
\*--------------------------------------------------------------------------*/ 
FoamFile
{
    version     2.0;
    format      ascii;
    class       volVectorField;
    location    "/home/james/dafoam/myRuns/bezier_coanda_opt/0.00000000001/";
    object      sens_CL_shapey;
}
// * * * * * * * * * * * * * * * * * * * * * * * * * * * * * * * * * * * * * //

dimensions      [0 0 0 0 0 0 0];
internalField   uniform (0 0 0);
boundaryField
{
    allWalls
    {
        type  wall;
        value nonuniform List<vector>
188
(
(0.024400 -0.001858 0.000164)
(-0.001893 0.006136 0.000177)
(-0.044771 0.031958 0.000177)
(-0.080207 0.062170 0.000177)
(-0.060984 0.057098 0.000177)
(-0.023445 0.030956 0.000177)
(-0.007795 0.024598 0.000177)
(-0.010254 0.027489 0.000178)
(-0.008685 0.024266 0.000178)
(-0.008310 0.023504 0.000179)
(-0.008590 0.028730 0.000179)
(-0.007540 0.029124 0.000180)
(-0.006036 0.027849 0.000278)
(-0.006344 0.031813 0.000375)
(-0.006071 0.034592 0.000375)
(-0.006210 0.040587 0.000375)
(-0.005810 0.044580 0.000375)
(-0.005130 0.047050 0.000375)
(-0.004603 0.052081 0.000815)
(-0.003987 0.058191 0.001333)
(-0.003078 0.063215 0.001490)
(-0.002110 0.071161 0.001650)
(-0.000847 0.086707 0.001807)
(0.000781 0.094795 0.001953)
(0.003635 0.117797 0.001754)
(0.006789 0.139091 0.001324)
(0.008793 0.129879 0.000990)
(0.011068 0.130484 0.000677)
(0.013664 0.137453 0.000468)
(0.015725 0.139832 0.000266)
(0.017674 0.142548 0.000064)
(0.019589 0.145793 -0.000054)
(0.021373 0.148755 -0.000347)
(0.023038 0.151636 -0.000386)
(0.024533 0.154069 -0.000333)
(0.025929 0.156436 -0.000367)
(0.027215 0.158462 -0.000256)
(0.028240 0.159418 -0.000265)
(0.029007 0.159601 -0.000261)
(0.029592 0.159227 -0.000260)
(0.029978 0.158166 -0.000245)
(0.030052 0.155807 -0.000203)
(0.029928 0.152819 -0.000211)
(0.029919 0.150695 -0.000180)
(0.029155 0.144832 -0.000170)
(0.025647 0.125916 -0.000179)
(0.023940 0.115955 -0.000169)
(0.033608 0.164845 -0.000158)
(0.042964 0.212997 -0.000119)
(-0.002624 -0.062040 -0.000119)
(-0.010086 0.051221 -0.000119)
(0.000116 -0.008199 -0.000119)
(-0.007722 0.030727 -0.000031)
(-0.008252 0.034208 0.000014)
(-0.007523 0.031584 -0.000030)
(-0.007558 0.032250 -0.000062)
(-0.008108 0.034785 -0.000059)
(-0.008521 0.037075 -0.000022)
(-0.008938 0.039628 0.000011)
(-0.009253 0.042114 0.000043)
(-0.009504 0.044564 0.000024)
(-0.009685 0.047121 0.000026)
(-0.009775 0.049704 0.000049)
(-0.009765 0.052233 0.000054)
(-0.009686 0.054626 0.000055)
(-0.009484 0.056901 0.000061)
(-0.009121 0.059102 0.000071)
(-0.008662 0.061197 0.000098)
(-0.008090 0.063235 0.000144)
(-0.007402 0.065184 0.000168)
(-0.006603 0.067050 0.000165)
(-0.005716 0.069105 0.000159)
(-0.004713 0.070599 0.000182)
(-0.003458 0.066604 0.000203)
(-0.002383 0.077799 0.000188)
(-0.001267 0.074325 0.000135)
(0.000249 0.064169 0.000003)
(0.001229 0.060383 -0.000102)
(0.001752 0.046496 -0.000124)
(0.002364 0.044302 -0.000138)
(0.002774 0.040114 -0.000144)
(0.003214 0.036841 -0.000147)
(0.003544 0.033745 0.000114)
(0.003815 0.030215 0.000375)
(0.004414 0.029618 0.000375)
(0.004308 0.025450 0.000375)
(0.005151 0.026271 0.000375)
(0.005975 0.027572 0.000375)
(0.005575 0.022887 0.000246)
(0.005041 0.017880 0.000118)
(0.007164 0.019941 0.000122)
(0.008177 0.017932 0.000126)
(0.006496 0.008723 0.000130)
(0.004927 0.001080 0.000133)
(-0.003462 -0.015351 0.000136)
(-0.001639 -0.013548 0.000140)
(0.014453 0.010669 0.000143)
(0.014883 0.023207 0.000145)
(0.014783 0.005940 0.000148)
(0.033477 -0.008835 0.000150)
(-0.014874 -0.041203 -0.000119)
(0.014915 0.263754 -0.000119)
(0.006588 0.188981 -0.000119)
(0.003537 0.142318 -0.000119)
(0.006609 0.223597 -0.000119)
(0.009339 0.283148 -0.000119)
(0.011015 0.321799 -0.000119)
(0.014046 0.404310 -0.000119)
(0.019558 0.559884 -0.000119)
(0.024738 0.710746 -0.000096)
(0.025732 0.674832 -0.000073)
(0.040332 0.975383 -0.000073)
(0.154658 3.674248 -0.000073)
(0.333906 7.741820 -0.000073)
(-9.097776 -13.769449 -0.000073)
(205.650613 -269.049272 -0.000073)
(-8.884499 -8.577256 -0.000073)
(-9.811778 -5.232877 -0.000073)
(-14.002672 -16.214347 -0.000073)
(-186.993510 247.241944 -0.000073)
(7.521473 88.883236 -0.000036)
(5.581702 38.512304 0.000001)
(1.246604 11.873799 0.000001)
(-0.434837 -2.308644 0.000001)
(2.517086 7.101607 0.000001)
(-0.216377 0.514409 0.000001)
(-0.921314 -1.876820 0.000001)
(-0.520760 -0.537840 0.000001)
(-0.043300 -0.366148 0.000001)
(1.503879 2.159532 0.000001)
(1.737948 2.103424 0.000001)
(3.525864 3.760426 0.000001)
(2.616715 2.683582 0.000001)
(4.681439 3.838481 0.000001)
(13.791326 9.567806 0.000001)
(12.433194 7.443659 0.000001)
(-9.954729 -5.053906 0.000001)
(-6.266038 -5.367750 0.000001)
(-19.403062 -9.093011 0.000001)
(-61.245464 -10.391540 0.000001)
(-46.863613 0.441087 0.000001)
(-1.249527 -0.257962 0.000001)
(36.449256 -2.861382 0.000001)
(35.133380 -3.167663 0.000001)
(12.859066 -1.696620 0.000001)
(3.787318 -0.702102 0.000001)
(1.017911 -1.034845 0.000001)
(1.131138 -1.152949 0.000001)
(1.647407 -1.466768 0.000001)
(1.775156 -0.794618 0.000001)
(-0.079635 0.180831 0.000001)
(0.088375 0.313213 0.000001)
(0.296365 0.141116 0.000001)
(0.189613 0.068661 0.000001)
(0.091897 0.042496 0.000001)
(0.015167 0.032874 0.000001)
(-0.015656 0.030336 0.000001)
(-0.029950 0.037797 0.000001)
(-0.034045 0.043842 0.000001)
(-0.030171 0.043332 0.000001)
(-0.024997 0.039740 0.000001)
(-0.019806 0.035633 0.000001)
(-0.015964 0.033630 0.000001)
(-0.013861 0.034319 0.000001)
(-0.012330 0.031901 0.000001)
(-0.007414 0.005778 0.000001)
(0.004619 -0.038356 0.000001)
(0.006695 -0.058995 -0.000036)
(-15.007145 -0.029290 -0.000073)
(15.009350 0.008431 -0.000073)
(0.005081 -0.000068 -0.000073)
(0.019425 -0.017020 -0.000073)
(0.104490 -0.697741 -0.000073)
(0.081161 -0.480418 -0.000073)
(-0.015681 0.334113 -0.000073)
(-0.006048 0.137068 -0.000073)
(-0.000842 0.004660 -0.000073)
(-0.001323 0.022751 -0.000073)
(-0.001789 0.045340 -0.000096)
(-0.001413 0.035652 -0.000119)
(-0.001189 0.028782 -0.000119)
(-0.001131 0.028740 -0.000119)
(-0.000932 0.025077 -0.000119)
(-0.001205 0.028610 -0.000119)
(-0.001378 0.026961 -0.000119)
(0.000921 0.006816 -0.000119)
(0.003927 0.002413 -0.000119)
(-0.011064 0.074008 -0.000119)
)
;
    }
}
