/*--------------------------------*- C++ -*----------------------------------*\
  =========                 |
  \\      /  F ield         | OpenFOAM: The Open Source CFD Toolbox
   \\    /   O peration     | Website:  https://openfoam.org
    \\  /    A nd           | Version:  8
     \\/     M anipulation  |
\*---------------------------------------------------------------------------*/
FoamFile
{
    version     2.0;
    format      ascii;
    class       volScalarField;
    location    "7.6";
    object      p;
}
// * * * * * * * * * * * * * * * * * * * * * * * * * * * * * * * * * * * * * //

dimensions      [0 2 -2 0 0 0 0];

internalField   nonuniform List<scalar> 
262620
(
-1.35575
-1.35597
-1.35664
-1.35766
-1.359
-1.36064
-1.36258
-1.36478
-1.36725
-1.36995
-1.37287
-1.376
-1.37932
-1.38282
-1.38648
-1.39029
-1.39423
-1.3983
-1.40249
-1.40678
-1.41115
-1.41561
-1.42015
-1.42474
-1.42939
-1.43409
-1.43882
-1.44358
-1.44837
-1.45318
-1.458
-1.46283
-1.46765
-1.47247
-1.47729
-1.48209
-1.48687
-1.49163
-1.49637
-1.50108
-1.50575
-1.5104
-1.51501
-1.51958
-1.5241
-1.52859
-1.53303
-1.53743
-1.54178
-1.54608
-1.55033
-1.55453
-1.55867
-1.56277
-1.56681
-1.5708
-1.57473
-1.57861
-1.58243
-1.5862
-1.58992
-1.59358
-1.59718
-1.60073
-1.60422
-1.60766
-1.61105
-1.61438
-1.61766
-1.62088
-1.62405
-1.62717
-1.63024
-1.63325
-1.63621
-1.63912
-1.64199
-1.6448
-1.64756
-1.65028
-1.65295
-1.65557
-1.65814
-1.66067
-1.66315
-1.66559
-1.66798
-1.67033
-1.67264
-1.67491
-1.67713
-1.67932
-1.68146
-1.68357
-1.68563
-1.68766
-1.68965
-1.69161
-1.69352
-1.69541
-1.69725
-1.69906
-1.70084
-1.70259
-1.7043
-1.70598
-1.70763
-1.70925
-1.71084
-1.7124
-1.71393
-1.71543
-1.7169
-1.71834
-1.71976
-1.72115
-1.72252
-1.72385
-1.72517
-1.72646
-1.35562
-1.35584
-1.35651
-1.35753
-1.35886
-1.3605
-1.36244
-1.36464
-1.3671
-1.3698
-1.37273
-1.37585
-1.37917
-1.38267
-1.38633
-1.39014
-1.39409
-1.39816
-1.40235
-1.40664
-1.41101
-1.41548
-1.42001
-1.42461
-1.42926
-1.43395
-1.43869
-1.44345
-1.44825
-1.45306
-1.45788
-1.4627
-1.46753
-1.47236
-1.47717
-1.48197
-1.48676
-1.49152
-1.49626
-1.50097
-1.50565
-1.5103
-1.51491
-1.51948
-1.52402
-1.52851
-1.53295
-1.53735
-1.5417
-1.546
-1.55026
-1.55446
-1.55861
-1.56271
-1.56675
-1.57074
-1.57468
-1.57856
-1.58239
-1.58616
-1.58988
-1.59354
-1.59715
-1.6007
-1.6042
-1.60764
-1.61103
-1.61436
-1.61764
-1.62087
-1.62404
-1.62716
-1.63023
-1.63325
-1.63621
-1.63913
-1.64199
-1.64481
-1.64757
-1.65029
-1.65296
-1.65559
-1.65816
-1.66069
-1.66318
-1.66562
-1.66802
-1.67037
-1.67268
-1.67495
-1.67718
-1.67936
-1.68151
-1.68362
-1.68569
-1.68772
-1.68971
-1.69167
-1.69359
-1.69547
-1.69732
-1.69913
-1.70091
-1.70266
-1.70438
-1.70606
-1.70771
-1.70933
-1.71092
-1.71248
-1.71401
-1.71551
-1.71699
-1.71843
-1.71985
-1.72124
-1.72261
-1.72395
-1.72527
-1.72656
-1.35539
-1.3556
-1.35627
-1.35728
-1.35861
-1.36025
-1.36219
-1.36439
-1.36685
-1.36955
-1.37247
-1.3756
-1.37892
-1.38242
-1.38608
-1.38989
-1.39384
-1.39791
-1.4021
-1.40639
-1.41077
-1.41523
-1.41977
-1.42437
-1.42902
-1.43372
-1.43846
-1.44323
-1.44803
-1.45284
-1.45766
-1.4625
-1.46733
-1.47216
-1.47698
-1.48178
-1.48657
-1.49134
-1.49608
-1.5008
-1.50549
-1.51014
-1.51475
-1.51933
-1.52387
-1.52836
-1.53281
-1.53722
-1.54157
-1.54588
-1.55014
-1.55435
-1.5585
-1.56261
-1.56665
-1.57065
-1.57459
-1.57848
-1.58231
-1.58609
-1.58981
-1.59348
-1.59709
-1.60065
-1.60415
-1.6076
-1.61099
-1.61433
-1.61761
-1.62084
-1.62402
-1.62715
-1.63022
-1.63324
-1.63621
-1.63913
-1.642
-1.64482
-1.64759
-1.65031
-1.65299
-1.65561
-1.6582
-1.66073
-1.66322
-1.66566
-1.66806
-1.67042
-1.67274
-1.67501
-1.67724
-1.67943
-1.68158
-1.68369
-1.68576
-1.6878
-1.68979
-1.69175
-1.69367
-1.69556
-1.69741
-1.69923
-1.70101
-1.70276
-1.70448
-1.70617
-1.70782
-1.70944
-1.71104
-1.7126
-1.71413
-1.71564
-1.71711
-1.71856
-1.71998
-1.72138
-1.72275
-1.72409
-1.72541
-1.7267
-1.35504
-1.35525
-1.35591
-1.35692
-1.35825
-1.35988
-1.36181
-1.36402
-1.36647
-1.36917
-1.37209
-1.37522
-1.37854
-1.38204
-1.3857
-1.38951
-1.39346
-1.39754
-1.40173
-1.40602
-1.4104
-1.41487
-1.41941
-1.42401
-1.42867
-1.43337
-1.43812
-1.44289
-1.44769
-1.45251
-1.45734
-1.46218
-1.46702
-1.47185
-1.47668
-1.48149
-1.48629
-1.49106
-1.49581
-1.50054
-1.50523
-1.50989
-1.51451
-1.5191
-1.52364
-1.52814
-1.5326
-1.53701
-1.54138
-1.54569
-1.54996
-1.55417
-1.55834
-1.56245
-1.56651
-1.57051
-1.57446
-1.57835
-1.58219
-1.58598
-1.58971
-1.59338
-1.597
-1.60057
-1.60408
-1.60753
-1.61093
-1.61428
-1.61757
-1.62081
-1.62399
-1.62713
-1.63021
-1.63324
-1.63621
-1.63914
-1.64201
-1.64484
-1.64762
-1.65035
-1.65303
-1.65566
-1.65825
-1.66079
-1.66329
-1.66574
-1.66814
-1.67051
-1.67283
-1.67511
-1.67734
-1.67954
-1.68169
-1.68381
-1.68589
-1.68793
-1.68993
-1.69189
-1.69382
-1.69571
-1.69757
-1.69939
-1.70118
-1.70294
-1.70466
-1.70635
-1.70801
-1.70964
-1.71123
-1.7128
-1.71434
-1.71585
-1.71733
-1.71878
-1.72021
-1.7216
-1.72298
-1.72432
-1.72564
-1.72694
-1.35458
-1.35478
-1.35544
-1.35644
-1.35776
-1.3594
-1.36132
-1.36352
-1.36598
-1.36867
-1.37159
-1.37472
-1.37804
-1.38154
-1.3852
-1.38901
-1.39297
-1.39704
-1.40124
-1.40553
-1.40992
-1.41439
-1.41894
-1.42354
-1.42821
-1.43292
-1.43767
-1.44245
-1.44726
-1.45208
-1.45692
-1.46176
-1.46661
-1.47145
-1.47629
-1.48111
-1.48592
-1.4907
-1.49546
-1.50019
-1.50489
-1.50956
-1.5142
-1.51879
-1.52335
-1.52786
-1.53233
-1.53675
-1.54112
-1.54545
-1.54972
-1.55395
-1.55812
-1.56224
-1.56631
-1.57032
-1.57428
-1.57819
-1.58204
-1.58584
-1.58958
-1.59326
-1.59689
-1.60046
-1.60398
-1.60745
-1.61086
-1.61421
-1.61751
-1.62076
-1.62396
-1.6271
-1.63019
-1.63323
-1.63621
-1.63915
-1.64203
-1.64487
-1.64765
-1.65039
-1.65308
-1.65572
-1.65832
-1.66087
-1.66337
-1.66583
-1.66824
-1.67061
-1.67294
-1.67523
-1.67747
-1.67968
-1.68184
-1.68396
-1.68605
-1.68809
-1.6901
-1.69207
-1.69401
-1.6959
-1.69777
-1.6996
-1.70139
-1.70315
-1.70488
-1.70658
-1.70824
-1.70988
-1.71148
-1.71305
-1.71459
-1.71611
-1.7176
-1.71905
-1.72048
-1.72189
-1.72327
-1.72462
-1.72594
-1.72724
-1.35401
-1.3542
-1.35485
-1.35585
-1.35716
-1.35879
-1.36071
-1.36291
-1.36536
-1.36805
-1.37097
-1.3741
-1.37742
-1.38092
-1.38458
-1.3884
-1.39235
-1.39643
-1.40063
-1.40493
-1.40932
-1.4138
-1.41835
-1.42296
-1.42763
-1.43235
-1.43711
-1.4419
-1.44671
-1.45155
-1.45639
-1.46125
-1.46611
-1.47096
-1.4758
-1.48064
-1.48545
-1.49025
-1.49502
-1.49976
-1.50448
-1.50916
-1.5138
-1.51841
-1.52298
-1.5275
-1.53198
-1.53642
-1.5408
-1.54514
-1.54943
-1.55367
-1.55785
-1.56199
-1.56607
-1.5701
-1.57407
-1.57799
-1.58185
-1.58566
-1.58941
-1.59311
-1.59675
-1.60033
-1.60387
-1.60734
-1.61076
-1.61413
-1.61745
-1.62071
-1.62391
-1.62706
-1.63017
-1.63321
-1.63621
-1.63916
-1.64205
-1.6449
-1.6477
-1.65045
-1.65314
-1.6558
-1.6584
-1.66096
-1.66348
-1.66594
-1.66837
-1.67075
-1.67309
-1.67538
-1.67764
-1.67985
-1.68202
-1.68415
-1.68625
-1.6883
-1.69032
-1.6923
-1.69424
-1.69615
-1.69802
-1.69986
-1.70166
-1.70343
-1.70516
-1.70687
-1.70854
-1.71018
-1.71179
-1.71337
-1.71492
-1.71644
-1.71793
-1.7194
-1.72084
-1.72225
-1.72363
-1.72499
-1.72632
-1.72763
-1.35333
-1.35352
-1.35415
-1.35515
-1.35645
-1.35807
-1.35999
-1.36218
-1.36463
-1.36732
-1.37023
-1.37336
-1.37668
-1.38018
-1.38384
-1.38766
-1.39162
-1.3957
-1.3999
-1.40421
-1.40861
-1.41309
-1.41765
-1.42227
-1.42695
-1.43168
-1.43644
-1.44124
-1.44607
-1.45091
-1.45577
-1.46064
-1.46551
-1.47037
-1.47523
-1.48007
-1.4849
-1.48971
-1.4945
-1.49926
-1.50398
-1.50868
-1.51334
-1.51796
-1.52254
-1.52708
-1.53157
-1.53602
-1.54043
-1.54478
-1.54908
-1.55334
-1.55754
-1.56169
-1.56578
-1.56982
-1.57381
-1.57774
-1.58162
-1.58544
-1.58921
-1.59292
-1.59658
-1.60018
-1.60373
-1.60722
-1.61065
-1.61404
-1.61736
-1.62064
-1.62386
-1.62702
-1.63014
-1.6332
-1.63621
-1.63917
-1.64208
-1.64494
-1.64775
-1.65051
-1.65322
-1.65589
-1.6585
-1.66108
-1.6636
-1.66608
-1.66852
-1.67091
-1.67326
-1.67557
-1.67783
-1.68005
-1.68224
-1.68438
-1.68648
-1.68855
-1.69057
-1.69256
-1.69452
-1.69643
-1.69831
-1.70016
-1.70197
-1.70375
-1.7055
-1.70721
-1.70889
-1.71054
-1.71216
-1.71375
-1.7153
-1.71683
-1.71833
-1.71981
-1.72125
-1.72267
-1.72406
-1.72543
-1.72677
-1.72808
-1.35255
-1.35272
-1.35335
-1.35433
-1.35563
-1.35724
-1.35915
-1.36134
-1.36378
-1.36647
-1.36938
-1.37251
-1.37583
-1.37933
-1.38299
-1.38681
-1.39077
-1.39486
-1.39907
-1.40338
-1.40779
-1.41228
-1.41684
-1.42147
-1.42616
-1.4309
-1.43567
-1.44048
-1.44532
-1.45018
-1.45505
-1.45993
-1.46481
-1.46969
-1.47456
-1.47942
-1.48427
-1.48909
-1.49389
-1.49867
-1.50341
-1.50812
-1.5128
-1.51744
-1.52203
-1.52659
-1.5311
-1.53557
-1.53999
-1.54436
-1.54868
-1.55295
-1.55717
-1.56133
-1.56545
-1.56951
-1.57351
-1.57746
-1.58136
-1.5852
-1.58898
-1.59271
-1.59638
-1.6
-1.60357
-1.60707
-1.61053
-1.61392
-1.61727
-1.62056
-1.62379
-1.62698
-1.63011
-1.63319
-1.63621
-1.63919
-1.64211
-1.64498
-1.64781
-1.65058
-1.65331
-1.65599
-1.65862
-1.66121
-1.66375
-1.66624
-1.66869
-1.6711
-1.67346
-1.67578
-1.67806
-1.68029
-1.68249
-1.68464
-1.68676
-1.68883
-1.69087
-1.69287
-1.69484
-1.69677
-1.69866
-1.70052
-1.70234
-1.70413
-1.70588
-1.70761
-1.7093
-1.71096
-1.71258
-1.71418
-1.71575
-1.71729
-1.7188
-1.72028
-1.72174
-1.72316
-1.72456
-1.72594
-1.72728
-1.7286
-1.35167
-1.35182
-1.35244
-1.35341
-1.3547
-1.3563
-1.35821
-1.36038
-1.36282
-1.36551
-1.36842
-1.37154
-1.37486
-1.37836
-1.38203
-1.38585
-1.38982
-1.39391
-1.39812
-1.40244
-1.40685
-1.41135
-1.41593
-1.42057
-1.42527
-1.43001
-1.4348
-1.43963
-1.44448
-1.44935
-1.45423
-1.45913
-1.46403
-1.46892
-1.47381
-1.47869
-1.48355
-1.48839
-1.49321
-1.498
-1.50276
-1.50749
-1.51219
-1.51684
-1.52146
-1.52604
-1.53057
-1.53505
-1.53949
-1.54388
-1.54822
-1.55251
-1.55675
-1.56094
-1.56507
-1.56915
-1.57317
-1.57714
-1.58106
-1.58492
-1.58872
-1.59247
-1.59616
-1.5998
-1.60338
-1.60691
-1.61038
-1.6138
-1.61716
-1.62047
-1.62372
-1.62692
-1.63007
-1.63317
-1.63621
-1.6392
-1.64214
-1.64504
-1.64788
-1.65067
-1.65341
-1.65611
-1.65876
-1.66136
-1.66391
-1.66642
-1.66889
-1.67131
-1.67368
-1.67602
-1.67831
-1.68056
-1.68277
-1.68494
-1.68707
-1.68916
-1.69121
-1.69322
-1.6952
-1.69714
-1.69905
-1.70092
-1.70275
-1.70455
-1.70632
-1.70805
-1.70976
-1.71143
-1.71307
-1.71468
-1.71626
-1.71781
-1.71933
-1.72082
-1.72228
-1.72372
-1.72513
-1.72651
-1.72787
-1.7292
-1.35068
-1.35082
-1.35143
-1.35238
-1.35366
-1.35526
-1.35715
-1.35932
-1.36176
-1.36444
-1.36734
-1.37047
-1.37378
-1.37729
-1.38096
-1.38478
-1.38875
-1.39285
-1.39707
-1.40139
-1.40581
-1.41032
-1.41491
-1.41956
-1.42427
-1.42903
-1.43383
-1.43867
-1.44353
-1.44842
-1.45332
-1.45823
-1.46315
-1.46806
-1.47297
-1.47786
-1.48274
-1.4876
-1.49244
-1.49726
-1.50204
-1.50679
-1.5115
-1.51618
-1.52082
-1.52542
-1.52997
-1.53448
-1.53894
-1.54335
-1.54771
-1.55203
-1.55629
-1.56049
-1.56465
-1.56875
-1.5728
-1.57679
-1.58073
-1.58461
-1.58843
-1.5922
-1.59592
-1.59958
-1.60318
-1.60673
-1.61022
-1.61366
-1.61704
-1.62037
-1.62364
-1.62686
-1.63003
-1.63315
-1.63621
-1.63922
-1.64218
-1.64509
-1.64795
-1.65076
-1.65352
-1.65624
-1.6589
-1.66152
-1.6641
-1.66662
-1.6691
-1.67154
-1.67394
-1.67629
-1.67859
-1.68086
-1.68309
-1.68527
-1.68741
-1.68952
-1.69159
-1.69362
-1.69561
-1.69756
-1.69948
-1.70137
-1.70321
-1.70503
-1.70681
-1.70856
-1.71027
-1.71196
-1.71361
-1.71523
-1.71682
-1.71838
-1.71991
-1.72142
-1.72289
-1.72434
-1.72576
-1.72716
-1.72852
-1.72986
-1.3496
-1.34972
-1.35031
-1.35125
-1.35252
-1.3541
-1.35599
-1.35815
-1.36058
-1.36326
-1.36616
-1.36928
-1.3726
-1.3761
-1.37977
-1.3836
-1.38758
-1.39168
-1.39591
-1.40024
-1.40467
-1.40919
-1.41378
-1.41845
-1.42317
-1.42794
-1.43276
-1.43762
-1.4425
-1.4474
-1.45232
-1.45725
-1.46218
-1.46711
-1.47204
-1.47696
-1.48186
-1.48674
-1.4916
-1.49644
-1.50124
-1.50601
-1.51075
-1.51545
-1.52012
-1.52474
-1.52931
-1.53384
-1.53833
-1.54277
-1.54715
-1.55149
-1.55577
-1.56001
-1.56419
-1.56831
-1.57238
-1.5764
-1.58036
-1.58426
-1.58811
-1.59191
-1.59565
-1.59933
-1.60295
-1.60653
-1.61004
-1.6135
-1.61691
-1.62026
-1.62356
-1.6268
-1.62999
-1.63313
-1.63621
-1.63924
-1.64223
-1.64516
-1.64804
-1.65087
-1.65365
-1.65638
-1.65907
-1.66171
-1.6643
-1.66684
-1.66935
-1.6718
-1.67421
-1.67658
-1.67891
-1.68119
-1.68343
-1.68564
-1.6878
-1.68992
-1.692
-1.69405
-1.69606
-1.69803
-1.69996
-1.70186
-1.70372
-1.70555
-1.70735
-1.70911
-1.71084
-1.71254
-1.7142
-1.71584
-1.71744
-1.71902
-1.72056
-1.72208
-1.72357
-1.72503
-1.72646
-1.72787
-1.72924
-1.73059
-1.34842
-1.34852
-1.34909
-1.35002
-1.35127
-1.35285
-1.35472
-1.35688
-1.3593
-1.36197
-1.36487
-1.36799
-1.37131
-1.37481
-1.37848
-1.38232
-1.3863
-1.39041
-1.39464
-1.39898
-1.40342
-1.40795
-1.41256
-1.41724
-1.42197
-1.42676
-1.4316
-1.43647
-1.44137
-1.44629
-1.45123
-1.45618
-1.46113
-1.46608
-1.47103
-1.47597
-1.48089
-1.4858
-1.49068
-1.49554
-1.50037
-1.50517
-1.50993
-1.51466
-1.51935
-1.52399
-1.5286
-1.53315
-1.53766
-1.54213
-1.54654
-1.5509
-1.55522
-1.55947
-1.56368
-1.56783
-1.57193
-1.57597
-1.57996
-1.58389
-1.58777
-1.59158
-1.59535
-1.59906
-1.60271
-1.60631
-1.60985
-1.61333
-1.61676
-1.62014
-1.62346
-1.62673
-1.62994
-1.6331
-1.63621
-1.63927
-1.64227
-1.64522
-1.64813
-1.65098
-1.65379
-1.65654
-1.65925
-1.66191
-1.66452
-1.66709
-1.66961
-1.67208
-1.67452
-1.6769
-1.67925
-1.68155
-1.68381
-1.68603
-1.68821
-1.69036
-1.69246
-1.69452
-1.69654
-1.69853
-1.70048
-1.7024
-1.70428
-1.70612
-1.70794
-1.70971
-1.71146
-1.71317
-1.71485
-1.7165
-1.71812
-1.71971
-1.72127
-1.7228
-1.7243
-1.72577
-1.72722
-1.72864
-1.73003
-1.73139
-1.34714
-1.34722
-1.34778
-1.34869
-1.34993
-1.35149
-1.35335
-1.3555
-1.35792
-1.36058
-1.36348
-1.36659
-1.36991
-1.37341
-1.37709
-1.38093
-1.38491
-1.38903
-1.39327
-1.39762
-1.40207
-1.40661
-1.41123
-1.41592
-1.42068
-1.42548
-1.43033
-1.43522
-1.44014
-1.44508
-1.45004
-1.45501
-1.45999
-1.46497
-1.46994
-1.4749
-1.47985
-1.48478
-1.48969
-1.49457
-1.49943
-1.50425
-1.50905
-1.5138
-1.51851
-1.52319
-1.52782
-1.53241
-1.53695
-1.54144
-1.54588
-1.55027
-1.55461
-1.5589
-1.56313
-1.56731
-1.57144
-1.57551
-1.57952
-1.58348
-1.58739
-1.59124
-1.59503
-1.59876
-1.60244
-1.60607
-1.60964
-1.61315
-1.61661
-1.62001
-1.62336
-1.62665
-1.62989
-1.63308
-1.63621
-1.63929
-1.64232
-1.6453
-1.64823
-1.6511
-1.65393
-1.65671
-1.65944
-1.66212
-1.66476
-1.66735
-1.66989
-1.67239
-1.67484
-1.67725
-1.67962
-1.68194
-1.68423
-1.68647
-1.68867
-1.69083
-1.69295
-1.69503
-1.69707
-1.69908
-1.70105
-1.70298
-1.70488
-1.70674
-1.70857
-1.71037
-1.71213
-1.71386
-1.71556
-1.71722
-1.71886
-1.72046
-1.72203
-1.72358
-1.7251
-1.72659
-1.72805
-1.72948
-1.73088
-1.73225
-1.34577
-1.34583
-1.34636
-1.34726
-1.34848
-1.35003
-1.35188
-1.35402
-1.35643
-1.35909
-1.36198
-1.36509
-1.36841
-1.37191
-1.37559
-1.37943
-1.38342
-1.38755
-1.3918
-1.39616
-1.40062
-1.40518
-1.40981
-1.41452
-1.41929
-1.42411
-1.42898
-1.43389
-1.43883
-1.44379
-1.44877
-1.45376
-1.45876
-1.46377
-1.46876
-1.47375
-1.47873
-1.48368
-1.48862
-1.49353
-1.49842
-1.50327
-1.50809
-1.51287
-1.51762
-1.52232
-1.52698
-1.5316
-1.53617
-1.54069
-1.54517
-1.54959
-1.55396
-1.55828
-1.56254
-1.56675
-1.57091
-1.57501
-1.57906
-1.58305
-1.58698
-1.59086
-1.59468
-1.59845
-1.60216
-1.60581
-1.60941
-1.61295
-1.61644
-1.61987
-1.62324
-1.62657
-1.62983
-1.63305
-1.63621
-1.63932
-1.64238
-1.64538
-1.64833
-1.65124
-1.65409
-1.6569
-1.65965
-1.66236
-1.66502
-1.66763
-1.6702
-1.67272
-1.6752
-1.67763
-1.68002
-1.68237
-1.68467
-1.68693
-1.68915
-1.69134
-1.69348
-1.69558
-1.69764
-1.69967
-1.70166
-1.70361
-1.70553
-1.70741
-1.70926
-1.71107
-1.71285
-1.7146
-1.71631
-1.718
-1.71965
-1.72127
-1.72286
-1.72442
-1.72595
-1.72746
-1.72893
-1.73038
-1.7318
-1.73318
-1.3443
-1.34434
-1.34486
-1.34573
-1.34694
-1.34847
-1.35031
-1.35244
-1.35484
-1.35749
-1.36038
-1.36349
-1.36681
-1.37031
-1.37399
-1.37784
-1.38184
-1.38597
-1.39023
-1.3946
-1.39907
-1.40364
-1.40829
-1.41301
-1.4178
-1.42264
-1.42753
-1.43246
-1.43742
-1.44241
-1.44741
-1.45243
-1.45746
-1.46248
-1.46751
-1.47252
-1.47753
-1.48251
-1.48748
-1.49242
-1.49734
-1.50222
-1.50707
-1.51189
-1.51666
-1.5214
-1.52609
-1.53074
-1.53534
-1.5399
-1.5444
-1.54886
-1.55326
-1.55761
-1.56191
-1.56616
-1.57035
-1.57448
-1.57856
-1.58258
-1.58655
-1.59046
-1.59431
-1.59811
-1.60185
-1.60554
-1.60917
-1.61274
-1.61626
-1.61972
-1.62313
-1.62648
-1.62978
-1.63302
-1.63621
-1.63935
-1.64243
-1.64547
-1.64845
-1.65138
-1.65426
-1.65709
-1.65987
-1.66261
-1.66529
-1.66793
-1.67053
-1.67307
-1.67558
-1.67803
-1.68045
-1.68282
-1.68514
-1.68743
-1.68967
-1.69188
-1.69404
-1.69617
-1.69825
-1.7003
-1.70231
-1.70429
-1.70622
-1.70813
-1.70999
-1.71183
-1.71362
-1.71539
-1.71712
-1.71882
-1.72049
-1.72213
-1.72374
-1.72532
-1.72687
-1.72839
-1.72988
-1.73135
-1.73278
-1.73418
-1.34275
-1.34276
-1.34325
-1.34411
-1.3453
-1.34682
-1.34865
-1.35076
-1.35315
-1.3558
-1.35868
-1.36179
-1.3651
-1.36861
-1.3723
-1.37615
-1.38015
-1.38429
-1.38856
-1.39294
-1.39743
-1.40201
-1.40667
-1.41141
-1.41622
-1.42108
-1.42599
-1.43094
-1.43593
-1.44094
-1.44597
-1.45101
-1.45606
-1.46112
-1.46617
-1.47122
-1.47625
-1.48127
-1.48626
-1.49124
-1.49619
-1.5011
-1.50599
-1.51084
-1.51565
-1.52042
-1.52514
-1.52983
-1.53446
-1.53905
-1.54359
-1.54808
-1.55252
-1.55691
-1.56124
-1.56552
-1.56975
-1.57391
-1.57803
-1.58209
-1.58609
-1.59003
-1.59392
-1.59775
-1.60153
-1.60525
-1.60891
-1.61251
-1.61606
-1.61956
-1.623
-1.62638
-1.62971
-1.63299
-1.63621
-1.63938
-1.64249
-1.64556
-1.64857
-1.65153
-1.65444
-1.6573
-1.66011
-1.66287
-1.66559
-1.66826
-1.67088
-1.67345
-1.67598
-1.67846
-1.6809
-1.6833
-1.68565
-1.68796
-1.69023
-1.69246
-1.69465
-1.69679
-1.6989
-1.70097
-1.70301
-1.705
-1.70696
-1.70889
-1.71077
-1.71263
-1.71445
-1.71623
-1.71799
-1.71971
-1.7214
-1.72305
-1.72468
-1.72628
-1.72785
-1.72939
-1.7309
-1.73238
-1.73383
-1.73524
-1.3411
-1.34109
-1.34156
-1.3424
-1.34357
-1.34507
-1.34688
-1.34899
-1.35137
-1.35401
-1.35688
-1.35999
-1.3633
-1.36681
-1.3705
-1.37435
-1.37836
-1.38251
-1.38679
-1.39118
-1.39569
-1.40028
-1.40496
-1.40972
-1.41455
-1.41943
-1.42436
-1.42933
-1.43434
-1.43938
-1.44444
-1.44951
-1.45459
-1.45967
-1.46476
-1.46983
-1.4749
-1.47995
-1.48498
-1.48999
-1.49497
-1.49992
-1.50484
-1.50972
-1.51457
-1.51937
-1.52414
-1.52886
-1.53353
-1.53816
-1.54273
-1.54726
-1.55174
-1.55616
-1.56053
-1.56485
-1.56911
-1.57332
-1.57747
-1.58156
-1.5856
-1.58958
-1.5935
-1.59737
-1.60118
-1.60494
-1.60863
-1.61228
-1.61586
-1.61939
-1.62286
-1.62628
-1.62965
-1.63295
-1.63621
-1.63941
-1.64256
-1.64565
-1.6487
-1.65169
-1.65463
-1.65752
-1.66036
-1.66316
-1.6659
-1.6686
-1.67125
-1.67385
-1.6764
-1.67892
-1.68138
-1.68381
-1.68619
-1.68852
-1.69082
-1.69307
-1.69528
-1.69746
-1.69959
-1.70169
-1.70374
-1.70576
-1.70774
-1.70969
-1.7116
-1.71348
-1.71532
-1.71713
-1.7189
-1.72064
-1.72235
-1.72403
-1.72568
-1.72729
-1.72888
-1.73044
-1.73197
-1.73347
-1.73494
-1.73636
-1.33937
-1.33933
-1.33978
-1.34059
-1.34174
-1.34323
-1.34503
-1.34712
-1.34949
-1.35212
-1.35499
-1.35809
-1.3614
-1.36491
-1.3686
-1.37246
-1.37648
-1.38064
-1.38493
-1.38933
-1.39385
-1.39846
-1.40316
-1.40794
-1.41278
-1.41769
-1.42264
-1.42764
-1.43268
-1.43774
-1.44282
-1.44792
-1.45304
-1.45815
-1.46327
-1.46837
-1.47347
-1.47856
-1.48362
-1.48866
-1.49368
-1.49867
-1.50363
-1.50855
-1.51343
-1.51827
-1.52308
-1.52783
-1.53255
-1.53721
-1.54183
-1.54639
-1.55091
-1.55537
-1.55978
-1.56414
-1.56844
-1.57268
-1.57687
-1.58101
-1.58508
-1.5891
-1.59306
-1.59697
-1.60082
-1.60461
-1.60835
-1.61202
-1.61565
-1.61921
-1.62272
-1.62618
-1.62957
-1.63292
-1.63621
-1.63944
-1.64263
-1.64576
-1.64883
-1.65186
-1.65483
-1.65776
-1.66063
-1.66345
-1.66623
-1.66896
-1.67164
-1.67427
-1.67686
-1.6794
-1.68189
-1.68434
-1.68675
-1.68912
-1.69144
-1.69372
-1.69596
-1.69816
-1.70032
-1.70244
-1.70452
-1.70656
-1.70857
-1.71054
-1.71248
-1.71438
-1.71624
-1.71807
-1.71987
-1.72163
-1.72336
-1.72506
-1.72673
-1.72837
-1.72998
-1.73155
-1.7331
-1.73462
-1.73611
-1.73755
-1.33755
-1.33748
-1.3379
-1.3387
-1.33983
-1.34129
-1.34308
-1.34516
-1.34752
-1.35014
-1.353
-1.3561
-1.35941
-1.36292
-1.36662
-1.37048
-1.3745
-1.37867
-1.38297
-1.38739
-1.39192
-1.39655
-1.40127
-1.40606
-1.41093
-1.41586
-1.42084
-1.42586
-1.43092
-1.43601
-1.44113
-1.44626
-1.4514
-1.45655
-1.4617
-1.46684
-1.47197
-1.47709
-1.4822
-1.48728
-1.49233
-1.49736
-1.50235
-1.50731
-1.51223
-1.51712
-1.52196
-1.52676
-1.53151
-1.53622
-1.54087
-1.54548
-1.55004
-1.55454
-1.55899
-1.56339
-1.56773
-1.57202
-1.57625
-1.58042
-1.58454
-1.5886
-1.5926
-1.59655
-1.60044
-1.60427
-1.60804
-1.61176
-1.61542
-1.61902
-1.62257
-1.62606
-1.6295
-1.63288
-1.63621
-1.63948
-1.6427
-1.64586
-1.64898
-1.65204
-1.65505
-1.658
-1.66091
-1.66377
-1.66658
-1.66934
-1.67205
-1.67471
-1.67733
-1.6799
-1.68243
-1.68491
-1.68735
-1.68974
-1.69209
-1.6944
-1.69667
-1.6989
-1.70108
-1.70323
-1.70534
-1.70741
-1.70944
-1.71144
-1.7134
-1.71532
-1.71721
-1.71906
-1.72088
-1.72267
-1.72443
-1.72615
-1.72784
-1.7295
-1.73113
-1.73273
-1.7343
-1.73584
-1.73734
-1.7388
-1.33565
-1.33555
-1.33594
-1.33671
-1.33782
-1.33927
-1.34103
-1.3431
-1.34545
-1.34806
-1.35092
-1.35401
-1.35732
-1.36083
-1.36453
-1.3684
-1.37243
-1.37661
-1.38092
-1.38536
-1.3899
-1.39455
-1.39928
-1.4041
-1.40899
-1.41394
-1.41894
-1.424
-1.42908
-1.43421
-1.43935
-1.44451
-1.44969
-1.45487
-1.46005
-1.46523
-1.4704
-1.47556
-1.4807
-1.48582
-1.49091
-1.49598
-1.50101
-1.50602
-1.51098
-1.51591
-1.52079
-1.52563
-1.53043
-1.53517
-1.53987
-1.54453
-1.54912
-1.55367
-1.55816
-1.5626
-1.56699
-1.57132
-1.57559
-1.57981
-1.58397
-1.58807
-1.59212
-1.5961
-1.60003
-1.60391
-1.60772
-1.61148
-1.61518
-1.61883
-1.62242
-1.62595
-1.62942
-1.63284
-1.63621
-1.63952
-1.64277
-1.64598
-1.64913
-1.65222
-1.65527
-1.65826
-1.66121
-1.6641
-1.66694
-1.66973
-1.67248
-1.67518
-1.67783
-1.68043
-1.68299
-1.6855
-1.68797
-1.6904
-1.69278
-1.69512
-1.69742
-1.69967
-1.70189
-1.70406
-1.7062
-1.7083
-1.71036
-1.71238
-1.71437
-1.71631
-1.71823
-1.72011
-1.72195
-1.72376
-1.72554
-1.72729
-1.729
-1.73068
-1.73234
-1.73396
-1.73555
-1.73711
-1.73864
-1.74011
-1.33366
-1.33353
-1.3339
-1.33464
-1.33573
-1.33715
-1.3389
-1.34095
-1.34329
-1.34589
-1.34875
-1.35184
-1.35514
-1.35866
-1.36236
-1.36623
-1.37027
-1.37446
-1.37878
-1.38323
-1.38779
-1.39245
-1.39721
-1.40205
-1.40696
-1.41194
-1.41697
-1.42205
-1.42716
-1.43232
-1.43749
-1.44269
-1.4479
-1.45312
-1.45833
-1.46355
-1.46876
-1.47396
-1.47914
-1.48429
-1.48943
-1.49454
-1.49962
-1.50466
-1.50967
-1.51464
-1.51956
-1.52445
-1.52929
-1.53408
-1.53883
-1.54352
-1.54817
-1.55276
-1.5573
-1.56178
-1.56621
-1.57059
-1.5749
-1.57917
-1.58337
-1.58752
-1.59161
-1.59564
-1.59961
-1.60353
-1.60739
-1.61119
-1.61493
-1.61862
-1.62225
-1.62582
-1.62934
-1.6328
-1.63621
-1.63956
-1.64285
-1.6461
-1.64928
-1.65242
-1.6555
-1.65853
-1.66151
-1.66444
-1.66732
-1.67015
-1.67293
-1.67566
-1.67835
-1.68099
-1.68358
-1.68613
-1.68863
-1.69108
-1.6935
-1.69587
-1.6982
-1.70048
-1.70273
-1.70493
-1.7071
-1.70923
-1.71131
-1.71336
-1.71538
-1.71735
-1.7193
-1.7212
-1.72307
-1.72491
-1.72671
-1.72848
-1.73022
-1.73193
-1.7336
-1.73525
-1.73686
-1.73845
-1.73999
-1.74149
-1.33159
-1.33143
-1.33177
-1.33248
-1.33355
-1.33495
-1.33668
-1.33872
-1.34104
-1.34364
-1.34648
-1.34957
-1.35287
-1.35639
-1.36009
-1.36397
-1.36802
-1.37221
-1.37655
-1.38101
-1.38559
-1.39027
-1.39505
-1.39991
-1.40484
-1.40985
-1.4149
-1.42001
-1.42516
-1.43034
-1.43555
-1.44079
-1.44603
-1.45128
-1.45654
-1.4618
-1.46705
-1.47228
-1.4775
-1.4827
-1.48788
-1.49303
-1.49816
-1.50324
-1.5083
-1.51331
-1.51829
-1.52322
-1.5281
-1.53294
-1.53774
-1.54248
-1.54717
-1.55181
-1.55639
-1.56093
-1.5654
-1.56982
-1.57419
-1.5785
-1.58275
-1.58694
-1.59108
-1.59515
-1.59917
-1.60314
-1.60704
-1.61089
-1.61467
-1.6184
-1.62208
-1.6257
-1.62925
-1.63276
-1.63621
-1.6396
-1.64294
-1.64622
-1.64945
-1.65262
-1.65575
-1.65882
-1.66183
-1.6648
-1.66772
-1.67059
-1.6734
-1.67617
-1.67889
-1.68157
-1.68419
-1.68677
-1.68931
-1.6918
-1.69425
-1.69665
-1.69901
-1.70133
-1.70361
-1.70584
-1.70804
-1.7102
-1.71231
-1.71439
-1.71644
-1.71844
-1.72041
-1.72234
-1.72424
-1.7261
-1.72793
-1.72973
-1.73149
-1.73322
-1.73492
-1.73659
-1.73823
-1.73984
-1.74141
-1.74292
-1.32945
-1.32924
-1.32955
-1.33024
-1.33128
-1.33266
-1.33438
-1.3364
-1.33871
-1.34129
-1.34413
-1.34721
-1.35051
-1.35403
-1.35773
-1.36162
-1.36567
-1.36988
-1.37423
-1.37871
-1.3833
-1.388
-1.3928
-1.39768
-1.40264
-1.40767
-1.41276
-1.4179
-1.42308
-1.42829
-1.43354
-1.4388
-1.44409
-1.44938
-1.45468
-1.45997
-1.46526
-1.47054
-1.4758
-1.48105
-1.48627
-1.49147
-1.49664
-1.50177
-1.50687
-1.51193
-1.51695
-1.52193
-1.52687
-1.53176
-1.5366
-1.54139
-1.54613
-1.55082
-1.55545
-1.56003
-1.56456
-1.56903
-1.57344
-1.5778
-1.5821
-1.58634
-1.59052
-1.59465
-1.59872
-1.60272
-1.60668
-1.61057
-1.6144
-1.61818
-1.6219
-1.62556
-1.62917
-1.63271
-1.63621
-1.63964
-1.64302
-1.64635
-1.64962
-1.65284
-1.656
-1.65911
-1.66217
-1.66518
-1.66813
-1.67104
-1.6739
-1.6767
-1.67946
-1.68217
-1.68483
-1.68745
-1.69002
-1.69255
-1.69503
-1.69747
-1.69986
-1.70221
-1.70452
-1.70679
-1.70902
-1.71121
-1.71336
-1.71547
-1.71754
-1.71957
-1.72157
-1.72353
-1.72546
-1.72735
-1.72921
-1.73103
-1.73282
-1.73458
-1.7363
-1.738
-1.73966
-1.74129
-1.74289
-1.74442
-1.32722
-1.32698
-1.32726
-1.32792
-1.32893
-1.33029
-1.33198
-1.33399
-1.33628
-1.33886
-1.34169
-1.34476
-1.34806
-1.35158
-1.35529
-1.35918
-1.36324
-1.36746
-1.37182
-1.37631
-1.38092
-1.38565
-1.39047
-1.39537
-1.40036
-1.40541
-1.41053
-1.4157
-1.42091
-1.42616
-1.43144
-1.43675
-1.44207
-1.4474
-1.45274
-1.45807
-1.46341
-1.46873
-1.47404
-1.47933
-1.4846
-1.48984
-1.49506
-1.50024
-1.50539
-1.5105
-1.51557
-1.5206
-1.52558
-1.53052
-1.53541
-1.54025
-1.54504
-1.54978
-1.55447
-1.5591
-1.56368
-1.5682
-1.57266
-1.57707
-1.58142
-1.58571
-1.58995
-1.59412
-1.59824
-1.6023
-1.6063
-1.61024
-1.61412
-1.61794
-1.62171
-1.62542
-1.62907
-1.63267
-1.6362
-1.63968
-1.64311
-1.64648
-1.6498
-1.65306
-1.65626
-1.65942
-1.66252
-1.66557
-1.66856
-1.67151
-1.67441
-1.67725
-1.68005
-1.6828
-1.6855
-1.68816
-1.69076
-1.69333
-1.69584
-1.69832
-1.70075
-1.70313
-1.70548
-1.70778
-1.71004
-1.71226
-1.71444
-1.71658
-1.71869
-1.72075
-1.72278
-1.72477
-1.72673
-1.72865
-1.73053
-1.73238
-1.7342
-1.73599
-1.73774
-1.73946
-1.74115
-1.74281
-1.74443
-1.74598
-1.32491
-1.32464
-1.32488
-1.32551
-1.32649
-1.32783
-1.32951
-1.33149
-1.33377
-1.33634
-1.33916
-1.34223
-1.34553
-1.34904
-1.35275
-1.35665
-1.36072
-1.36495
-1.36932
-1.37383
-1.37846
-1.3832
-1.38805
-1.39298
-1.39799
-1.40307
-1.40822
-1.41342
-1.41867
-1.42395
-1.42927
-1.43461
-1.43997
-1.44535
-1.45072
-1.4561
-1.46148
-1.46685
-1.4722
-1.47754
-1.48286
-1.48815
-1.49342
-1.49865
-1.50385
-1.50901
-1.51413
-1.51921
-1.52425
-1.52924
-1.53418
-1.53908
-1.54392
-1.54871
-1.55345
-1.55814
-1.56276
-1.56734
-1.57186
-1.57631
-1.58072
-1.58506
-1.58935
-1.59357
-1.59774
-1.60185
-1.6059
-1.60989
-1.61383
-1.6177
-1.62152
-1.62527
-1.62897
-1.63262
-1.6362
-1.63973
-1.6432
-1.64662
-1.64998
-1.65328
-1.65654
-1.65973
-1.66288
-1.66597
-1.66901
-1.672
-1.67494
-1.67782
-1.68066
-1.68345
-1.68619
-1.68889
-1.69153
-1.69413
-1.69669
-1.6992
-1.70167
-1.70409
-1.70647
-1.7088
-1.7111
-1.71335
-1.71557
-1.71774
-1.71988
-1.72198
-1.72404
-1.72606
-1.72805
-1.73
-1.73191
-1.73379
-1.73564
-1.73745
-1.73923
-1.74098
-1.74269
-1.74438
-1.74602
-1.7476
-1.32253
-1.32221
-1.32242
-1.32302
-1.32398
-1.32529
-1.32694
-1.32891
-1.33118
-1.33373
-1.33654
-1.33961
-1.3429
-1.34642
-1.35013
-1.35404
-1.35812
-1.36235
-1.36674
-1.37127
-1.37592
-1.38068
-1.38554
-1.3905
-1.39554
-1.40065
-1.40583
-1.41106
-1.41635
-1.42167
-1.42702
-1.4324
-1.4378
-1.44322
-1.44864
-1.45407
-1.45949
-1.4649
-1.47031
-1.47569
-1.48106
-1.4864
-1.49172
-1.497
-1.50225
-1.50747
-1.51264
-1.51777
-1.52287
-1.52791
-1.53291
-1.53786
-1.54275
-1.5476
-1.55239
-1.55713
-1.56182
-1.56645
-1.57102
-1.57553
-1.57999
-1.58439
-1.58872
-1.59301
-1.59723
-1.60139
-1.60549
-1.60954
-1.61352
-1.61745
-1.62131
-1.62512
-1.62887
-1.63256
-1.6362
-1.63978
-1.6433
-1.64676
-1.65017
-1.65352
-1.65682
-1.66006
-1.66325
-1.66639
-1.66947
-1.67251
-1.67549
-1.67842
-1.6813
-1.68413
-1.68691
-1.68965
-1.69233
-1.69497
-1.69757
-1.70011
-1.70262
-1.70508
-1.70749
-1.70987
-1.7122
-1.71449
-1.71674
-1.71895
-1.72112
-1.72325
-1.72534
-1.72739
-1.72941
-1.73139
-1.73334
-1.73525
-1.73713
-1.73897
-1.74078
-1.74255
-1.7443
-1.74601
-1.74768
-1.74928
-1.32007
-1.31971
-1.31989
-1.32046
-1.32138
-1.32267
-1.3243
-1.32625
-1.3285
-1.33104
-1.33385
-1.3369
-1.3402
-1.34371
-1.34743
-1.35134
-1.35542
-1.35967
-1.36408
-1.36862
-1.37328
-1.37807
-1.38296
-1.38794
-1.39301
-1.39815
-1.40336
-1.40863
-1.41394
-1.4193
-1.4247
-1.43012
-1.43556
-1.44102
-1.44649
-1.45196
-1.45743
-1.46289
-1.46834
-1.47378
-1.4792
-1.48459
-1.48996
-1.4953
-1.5006
-1.50587
-1.5111
-1.51629
-1.52143
-1.52653
-1.53159
-1.53659
-1.54155
-1.54645
-1.5513
-1.5561
-1.56084
-1.56552
-1.57015
-1.57472
-1.57923
-1.58369
-1.58808
-1.59242
-1.59669
-1.60091
-1.60507
-1.60917
-1.6132
-1.61718
-1.6211
-1.62496
-1.62877
-1.63251
-1.63619
-1.63982
-1.64339
-1.64691
-1.65036
-1.65377
-1.65711
-1.6604
-1.66364
-1.66682
-1.66995
-1.67303
-1.67606
-1.67903
-1.68196
-1.68483
-1.68765
-1.69043
-1.69316
-1.69584
-1.69847
-1.70106
-1.7036
-1.7061
-1.70856
-1.71097
-1.71334
-1.71566
-1.71795
-1.72019
-1.7224
-1.72456
-1.72669
-1.72878
-1.73083
-1.73284
-1.73482
-1.73676
-1.73867
-1.74054
-1.74238
-1.74418
-1.74596
-1.7477
-1.7494
-1.75102
-1.31753
-1.31714
-1.31728
-1.31781
-1.31871
-1.31997
-1.32158
-1.32351
-1.32574
-1.32827
-1.33106
-1.33411
-1.3374
-1.34092
-1.34464
-1.34855
-1.35265
-1.35691
-1.36133
-1.36588
-1.37057
-1.37538
-1.38029
-1.3853
-1.39039
-1.39557
-1.40081
-1.40611
-1.41147
-1.41686
-1.4223
-1.42776
-1.43325
-1.43875
-1.44426
-1.44978
-1.4553
-1.46081
-1.46631
-1.4718
-1.47727
-1.48272
-1.48814
-1.49353
-1.49889
-1.50422
-1.50951
-1.51475
-1.51995
-1.52511
-1.53022
-1.53529
-1.5403
-1.54526
-1.55017
-1.55502