/*--------------------------------*- C++ -*---------------------------------*\ 
| ========                 |                                                 | 
| \      /  F ield         | OpenFOAM: The Open Source CFD Toolbox           | 
|  \    /   O peration     | Version:  v1812                                 | 
|   \  /    A nd           | Web:      www.OpenFOAM.com                      | 
|    \/     M anipulation  |                                                 | 
\*--------------------------------------------------------------------------*/ 
FoamFile
{
    version     2.0;
    format      ascii;
    class       volVectorField;
    location    "/home/james/dafoam/myRuns/bezier_coanda_opt/0.00000000001/";
    object      sens_CL_shapey;
}
// * * * * * * * * * * * * * * * * * * * * * * * * * * * * * * * * * * * * * //

dimensions      [0 0 0 0 0 0 0];
internalField   uniform (0 0 0);
boundaryField
{
    allWalls
    {
        type  wall;
        value nonuniform List<vector>
188
(
(-0.003146 0.005222 0.000240)
(-0.013309 0.005665 0.000252)
(-0.040981 0.025744 0.000250)
(-0.073750 0.046086 0.000249)
(-0.065748 0.052289 0.000248)
(-0.041350 0.041603 0.000246)
(-0.011223 0.022054 0.000245)
(-0.012055 0.026561 0.000244)
(-0.014181 0.031014 0.000242)
(-0.012670 0.030220 0.000241)
(-0.011861 0.032474 0.000240)
(-0.009911 0.031355 0.000239)
(-0.007825 0.028361 0.000430)
(-0.008348 0.033367 0.000626)
(-0.008778 0.038456 0.000635)
(-0.008637 0.043129 0.000645)
(-0.008503 0.048146 0.000656)
(-0.007706 0.050511 0.000666)
(-0.007316 0.056914 0.001265)
(-0.006649 0.062986 0.001982)
(-0.005686 0.069136 0.002235)
(-0.004805 0.082425 0.002497)
(-0.003129 0.084881 0.002761)
(-0.000917 0.108829 0.003017)
(0.002344 0.148466 0.002663)
(0.006727 0.154840 0.002012)
(0.011060 0.155769 0.001636)
(0.015536 0.162502 0.001256)
(0.019805 0.167536 0.000933)
(0.023987 0.172580 0.000664)
(0.028133 0.178172 0.000446)
(0.031937 0.182333 0.000228)
(0.035519 0.186178 0.000038)
(0.038807 0.189488 -0.000185)
(0.041643 0.191483 -0.000330)
(0.044273 0.192297 -0.000308)
(0.046412 0.191899 -0.000285)
(0.047739 0.190108 -0.000278)
(0.048409 0.186564 -0.000285)
(0.048545 0.181810 -0.000233)
(0.048187 0.175972 -0.000178)
(0.046874 0.167386 -0.000178)
(0.044405 0.155433 -0.000217)
(0.042209 0.145283 -0.000217)
(0.042372 0.143829 -0.000178)
(0.039996 0.134187 -0.000178)
(0.026550 0.089108 -0.000190)
(0.027389 0.096411 -0.000192)
(0.044783 0.167683 -0.000182)
(-0.000565 -0.050869 -0.000182)
(0.000214 -0.006774 -0.000182)
(-0.002030 0.003865 -0.000182)
(-0.002711 0.004727 -0.000157)
(-0.003656 0.008824 -0.000076)
(-0.006027 0.015845 -0.000099)
(-0.008924 0.023595 -0.000178)
(-0.012092 0.033252 -0.000178)
(-0.014286 0.042076 -0.000178)
(-0.015745 0.050456 -0.000178)
(-0.015642 0.054714 -0.000178)
(-0.010262 0.041278 -0.000089)
(0.000910 0.007061 0.000041)
(0.010128 -0.029352 0.000094)
(0.011796 -0.045524 0.000118)
(0.008046 -0.037901 0.000145)
(0.001588 -0.013748 0.000182)
(-0.003247 0.009397 0.000211)
(-0.005648 0.024746 0.000232)
(-0.007085 0.038000 0.000262)
(-0.007706 0.049169 0.000312)
(-0.007547 0.057827 0.000376)
(-0.006780 0.064143 0.000433)
(-0.005587 0.069350 0.000519)
(-0.004064 0.074545 0.000579)
(-0.002245 0.076597 0.000580)
(-0.000282 0.082991 0.000584)
(0.001272 0.073309 0.000412)
(0.002192 0.050792 0.000203)
(0.003271 0.048383 0.000145)
(0.004039 0.046855 0.000099)
(0.004193 0.039421 0.000063)
(0.004473 0.035532 0.000034)
(0.005045 0.033785 0.000289)
(0.004624 0.027210 0.000555)
(0.004788 0.024234 0.000555)
(0.006078 0.027479 0.000555)
(0.005395 0.022479 0.000555)
(0.004521 0.017365 0.000555)
(0.004035 0.014427 0.000380)
(0.005851 0.016399 0.000206)
(0.007319 0.016625 0.000209)
(0.006811 0.009463 0.000212)
(0.005775 0.001771 0.000214)
(0.003634 -0.004438 0.000216)
(0.006268 0.000448 0.000219)
(0.009948 0.013250 0.000221)
(0.003961 0.008995 0.000223)
(0.006394 -0.005962 0.000225)
(0.027147 -0.001709 0.000227)
(0.031299 0.004989 0.000228)
(-0.020130 -0.073370 -0.000182)
(0.010496 0.166648 -0.000182)
(0.006392 0.161104 -0.000182)
(0.003913 0.145835 -0.000182)
(0.005118 0.184632 -0.000182)
(0.007092 0.243313 -0.000182)
(0.008701 0.290303 -0.000182)
(0.011179 0.371367 -0.000182)
(0.015426 0.516096 -0.000182)
(0.018998 0.668231 -0.000146)
(0.020601 0.740937 -0.000109)
(0.028610 1.165453 -0.000109)
(0.125006 3.458866 -0.000109)
(0.129178 5.935555 -0.000109)
(-5.895651 -23.723095 -0.000109)
(143.849568 -260.655181 -0.000109)
(-15.666614 -13.319695 -0.000109)
(-16.074745 -7.150172 -0.000109)
(-13.408356 -21.484680 -0.000109)
(-119.965046 248.997788 -0.000109)
(7.916112 92.495419 -0.000050)
(7.298764 42.909262 0.000009)
(2.481614 22.517396 0.000009)
(-1.149726 -3.067265 0.000009)
(1.237857 3.767818 0.000009)
(-0.057161 0.249167 0.000009)
(-1.462772 -3.009734 0.000009)
(-1.024490 -1.623329 0.000009)
(-0.589367 -0.747529 0.000009)
(0.267038 -0.036650 0.000009)
(2.238322 2.533791 0.000009)
(6.209271 6.333061 0.000009)
(12.826827 11.805105 0.000009)
(21.163589 17.141775 0.000009)
(29.780002 21.110688 0.000009)
(35.536358 22.297088 0.000009)
(31.939963 18.727539 0.000009)
(73.039190 29.769343 0.000009)
(-40.055484 -13.948580 0.000009)
(-200.269701 -59.368813 0.000009)
(-155.034205 -30.182516 0.000009)
(-73.738851 -5.833706 0.000009)
(36.526309 1.741980 0.000009)
(74.246540 -1.943847 0.000009)
(48.304754 -6.213349 0.000009)
(44.066878 -6.228480 0.000009)
(15.956919 -3.604942 0.000009)
(2.002146 -2.902142 0.000009)
(2.632631 -3.304102 0.000009)
(6.765648 -4.200419 0.000009)
(5.005367 -2.716263 0.000009)
(0.248620 0.589218 0.000009)
(1.049050 0.756984 0.000009)
(1.899195 0.051101 0.000009)
(1.317327 -0.110920 0.000009)
(0.828192 -0.171336 0.000009)
(0.567347 -0.216696 0.000009)
(0.381957 -0.223387 0.000009)
(0.219990 -0.154797 0.000009)
(0.074871 -0.043254 0.000009)
(0.010539 0.005028 0.000009)
(-0.020188 0.032773 0.000009)
(-0.033985 0.051080 0.000009)
(-0.034838 0.055376 0.000009)
(-0.029780 0.050767 0.000009)
(-0.023045 0.040692 0.000009)
(-0.016369 0.027238 0.000009)
(-0.010257 0.016624 -0.000050)
(-93.374957 0.009009 -0.000109)
(93.368785 0.001894 -0.000109)
(-0.002449 0.003476 -0.000109)
(-0.002697 0.003516 -0.000109)
(-0.026443 0.059572 -0.000109)
(-0.032782 0.090878 -0.000109)
(-0.010606 0.048099 -0.000109)
(-0.005475 0.026438 -0.000109)
(-0.003902 0.019082 -0.000109)
(-0.002903 0.014377 -0.000109)
(-0.002209 0.012291 -0.000146)
(-0.001757 0.010762 -0.000182)
(-0.001497 0.009765 -0.000182)
(-0.001278 0.008363 -0.000182)
(-0.001111 0.006964 -0.000182)
(-0.000981 0.005912 -0.000182)
(-0.000667 0.004129 -0.000182)
(-0.000405 0.004437 -0.000182)
(-0.000201 0.005329 -0.000182)
(0.000908 -0.006251 -0.000182)
)
;
    }
}
