/*--------------------------------*- C++ -*---------------------------------*\ 
| ========                 |                                                 | 
| \      /  F ield         | OpenFOAM: The Open Source CFD Toolbox           | 
|  \    /   O peration     | Version:  v1812                                 | 
|   \  /    A nd           | Web:      www.OpenFOAM.com                      | 
|    \/     M anipulation  |                                                 | 
\*--------------------------------------------------------------------------*/ 
FoamFile
{
    version     2.0;
    format      ascii;
    class       volVectorField;
    location    "/home/james/dafoam/myRuns/bezier_coanda_opt/0.00000000001/";
    object      sens_CL_shapey;
}
// * * * * * * * * * * * * * * * * * * * * * * * * * * * * * * * * * * * * * //

dimensions      [0 0 0 0 0 0 0];
internalField   uniform (0 0 0);
boundaryField
{
    allWalls
    {
        type  wall;
        value nonuniform List<vector>
188
(
(-0.007240 0.004610 0.000232)
(-0.017818 0.006548 0.000243)
(-0.038099 0.022571 0.000242)
(-0.061426 0.038594 0.000241)
(-0.053883 0.042032 0.000239)
(-0.032418 0.032401 0.000238)
(-0.009878 0.019334 0.000237)
(-0.014810 0.029090 0.000236)
(-0.015709 0.031449 0.000234)
(-0.012619 0.029360 0.000233)
(-0.012591 0.033106 0.000232)
(-0.010248 0.031499 0.000231)
(-0.008714 0.030328 0.000417)
(-0.008789 0.034335 0.000608)
(-0.008980 0.038893 0.000617)
(-0.008621 0.042731 0.000627)
(-0.008384 0.047322 0.000637)
(-0.007620 0.049871 0.000646)
(-0.007180 0.055827 0.001231)
(-0.006496 0.061532 0.001929)
(-0.005560 0.067496 0.002173)
(-0.004665 0.079645 0.002427)
(-0.003079 0.083733 0.002683)
(-0.000968 0.105826 0.002930)
(0.002215 0.142113 0.002604)
(0.006419 0.149389 0.001992)
(0.010444 0.148448 0.001629)
(0.014647 0.154114 0.001258)
(0.018704 0.159239 0.000941)
(0.022611 0.163624 0.000678)
(0.026494 0.168759 0.000463)
(0.030072 0.172669 0.000245)
(0.033454 0.176368 0.000058)
(0.036539 0.179425 -0.000236)
(0.039229 0.181402 -0.000439)
(0.041741 0.182450 -0.000386)
(0.043789 0.182332 -0.000262)
(0.045088 0.180829 -0.000208)
(0.045800 0.177771 -0.000254)
(0.046009 0.173545 -0.000210)
(0.045741 0.168240 -0.000142)
(0.044640 0.160541 -0.000142)
(0.042524 0.149876 -0.000193)
(0.040482 0.140216 -0.000193)
(0.040241 0.137228 -0.000164)
(0.038031 0.127875 -0.000164)
(0.026795 0.089133 -0.000165)
(0.026683 0.091764 -0.000171)
(0.039438 0.144798 -0.000174)
(0.002903 -0.030051 -0.000174)
(0.000308 -0.007213 -0.000174)
(-0.001960 0.003794 -0.000174)
(-0.002506 0.004551 -0.000123)
(-0.003448 0.008574 -0.000118)
(-0.005960 0.015562 -0.000164)
(-0.008987 0.023775 0.000000)
(-0.012107 0.033181 0.000000)
(-0.014777 0.043412 -0.000164)
(-0.015959 0.050608 -0.000164)
(-0.016193 0.055973 -0.000164)
(-0.012026 0.046824 -0.000075)
(0.000139 0.010045 0.000092)
(0.010571 -0.029960 0.000176)
(0.012550 -0.047767 0.000185)
(0.008802 -0.040757 0.000198)
(0.002217 -0.016609 0.000209)
(-0.002814 0.007003 0.000224)
(-0.005375 0.022903 0.000245)
(-0.006928 0.036654 0.000262)
(-0.007645 0.048313 0.000319)
(-0.007548 0.057362 0.000395)
(-0.006808 0.063909 0.000452)
(-0.005629 0.069312 0.000514)
(-0.004108 0.074763 0.000572)
(-0.002279 0.076797 0.000568)
(-0.000295 0.083634 0.000563)
(0.001275 0.074205 0.000402)
(0.002199 0.051152 0.000185)
(0.003323 0.048981 0.000130)
(0.004117 0.047598 0.000088)
(0.004261 0.039853 0.000055)
(0.004569 0.036046 0.000030)
(0.005168 0.034356 0.000279)
(0.004740 0.027648 0.000538)
(0.004901 0.024583 0.000538)
(0.006289 0.028156 0.000538)
(0.005567 0.023001 0.000539)
(0.004594 0.017505 0.000539)
(0.004157 0.014697 0.000369)
(0.006110 0.016868 0.000199)
(0.007663 0.017082 0.000202)
(0.007148 0.009557 0.000204)
(0.005986 0.001380 0.000207)
(0.003858 -0.004773 0.000209)
(0.006929 0.001028 0.000211)
(0.010889 0.014926 0.000213)
(0.004375 0.011892 0.000215)
(0.003331 -0.002892 0.000217)
(0.017982 -0.001416 0.000219)
(0.020589 0.003587 0.000220)
(-0.014850 -0.045207 -0.000174)
(0.007173 0.147463 -0.000174)
(0.004641 0.141960 -0.000174)
(0.003595 0.137325 -0.000174)
(0.005057 0.181769 -0.000174)
(0.006945 0.232663 -0.000174)
(0.008593 0.275718 -0.000174)
(0.011155 0.352316 -0.000174)
(0.015538 0.490825 -0.000174)
(0.019510 0.637822 -0.000139)
(0.021156 0.676347 -0.000103)
(0.030480 1.023719 -0.000103)
(0.131247 3.305383 -0.000103)
(0.169131 6.087523 -0.000103)
(-6.531756 -23.440026 -0.000103)
(121.033940 -246.138860 -0.000103)
(-15.523212 -12.515872 -0.000103)
(-14.841115 -6.596577 -0.000103)
(-13.378428 -22.019090 -0.000103)
(-98.245821 236.567961 -0.000103)
(7.264505 84.711566 -0.000047)
(6.514174 39.414714 0.000010)
(2.226001 20.592268 0.000010)
(-0.999937 -2.635862 0.000010)
(1.183745 3.608257 0.000010)
(-0.028028 0.293817 0.000010)
(-1.319268 -2.688088 0.000010)
(-0.903229 -1.405821 0.000010)
(-0.534671 -0.655056 0.000010)
(0.227701 -0.044627 0.000010)
(1.987117 2.263885 0.000010)
(5.625543 5.738224 0.000010)
(11.800702 10.854542 0.000010)
(19.206895 15.573175 0.000010)
(27.276510 19.333734 0.000010)
(34.163073 21.365831 0.000010)
(31.818636 18.559877 0.000010)
(69.510800 28.345941 0.000010)
(-36.409432 -13.109382 0.000010)
(-181.942760 -54.522785 0.000010)
(-139.646145 -27.285017 0.000010)
(-70.535368 -6.285453 0.000010)
(30.351692 0.923124 0.000010)
(66.996587 -1.769829 0.000010)
(43.367474 -5.918499 0.000010)
(39.203446 -6.272337 0.000010)
(13.615585 -3.766851 0.000010)
(1.081927 -2.647107 0.000010)
(2.073957 -3.025212 0.000010)
(6.692023 -4.105490 0.000010)
(4.830664 -2.578257 0.000010)
(0.357288 0.550775 0.000010)
(1.111613 0.691703 0.000010)
(1.854245 0.033015 0.000010)
(1.278937 -0.118791 0.000010)
(0.810861 -0.177477 0.000010)
(0.563270 -0.221707 0.000010)
(0.382575 -0.226724 0.000010)
(0.219753 -0.157540 0.000010)
(0.076825 -0.049864 0.000010)
(0.012963 -0.002576 0.000010)
(-0.017945 0.025476 0.000010)
(-0.032037 0.044420 0.000010)
(-0.033386 0.049869 0.000010)
(-0.028824 0.046627 0.000010)
(-0.022474 0.037868 0.000010)
(-0.016047 0.025514 0.000010)
(-0.010161 0.015516 -0.000047)
(-93.374864 0.008291 -0.000103)
(93.368664 0.001715 -0.000103)
(-0.002409 0.003155 -0.000103)
(-0.002809 0.003305 -0.000103)
(-0.026210 0.057369 -0.000103)
(-0.032441 0.088092 -0.000103)
(-0.010672 0.047535 -0.000103)
(-0.005481 0.026553 -0.000103)
(-0.003858 0.019254 -0.000103)
(-0.002844 0.014525 -0.000103)
(-0.002176 0.012330 -0.000139)
(-0.001748 0.010741 -0.000174)
(-0.001473 0.009728 -0.000174)
(-0.001245 0.008177 -0.000174)
(-0.001076 0.006747 -0.000174)
(-0.000948 0.005786 -0.000174)
(-0.000631 0.003976 -0.000174)
(-0.000365 0.004273 -0.000174)
(-0.000156 0.005196 -0.000174)
(0.000980 -0.006734 -0.000174)
)
;
    }
}
