/*--------------------------------*- C++ -*---------------------------------*\ 
| ========                 |                                                 | 
| \      /  F ield         | OpenFOAM: The Open Source CFD Toolbox           | 
|  \    /   O peration     | Version:  v1812                                 | 
|   \  /    A nd           | Web:      www.OpenFOAM.com                      | 
|    \/     M anipulation  |                                                 | 
\*--------------------------------------------------------------------------*/ 
FoamFile
{
    version     2.0;
    format      ascii;
    class       volVectorField;
    location    "/home/james/dafoam/myRuns/bezier_coanda_opt/0.00000000001/";
    object      sens_CL_shapey;
}
// * * * * * * * * * * * * * * * * * * * * * * * * * * * * * * * * * * * * * //

dimensions      [0 0 0 0 0 0 0];
internalField   uniform (0 0 0);
boundaryField
{
    allWalls
    {
        type  wall;
        value nonuniform List<vector>
188
(
(-0.022762 0.007198 0.000194)
(-0.038877 0.015880 0.000193)
(-0.043570 0.028369 0.000193)
(-0.032431 0.026345 0.000193)
(-0.012718 0.016016 0.000192)
(-0.015115 0.025165 0.000192)
(-0.015236 0.027155 0.000191)
(-0.011841 0.024081 0.000191)
(-0.012756 0.028896 0.000191)
(-0.012198 0.031993 0.000190)
(-0.009879 0.029793 0.000190)
(-0.008614 0.030439 0.000359)
(-0.008858 0.035191 0.000528)
(-0.007949 0.036287 0.000528)
(-0.007497 0.039723 0.000528)
(-0.006898 0.043032 0.000528)
(-0.006016 0.045442 0.000528)
(-0.005205 0.048872 0.000528)
(-0.004303 0.053434 0.000972)
(-0.003278 0.058393 0.001479)
(-0.002108 0.063823 0.001606)
(-0.000731 0.071550 0.001731)
(0.000960 0.083728 0.001850)
(0.002985 0.099108 0.001821)
(0.005423 0.114443 0.001696)
(0.007687 0.122123 0.001527)
(0.009304 0.122664 0.001242)
(0.009993 0.115857 0.000959)
(0.010977 0.112095 0.000768)
(0.011503 0.108226 0.000572)
(0.012796 0.114811 0.000367)
(0.015291 0.128840 -0.000015)
(0.016033 0.126576 -0.000313)
(0.016756 0.128052 -0.000164)
(0.017978 0.132633 -0.000135)
(0.018323 0.129794 -0.000229)
(0.018637 0.129595 -0.000170)
(0.021764 0.149714 -0.000133)
(0.022683 0.152993 -0.000141)
(0.021051 0.138416 -0.000167)
(0.021035 0.135529 -0.000183)
(0.020986 0.132853 -0.000169)
(0.020963 0.130802 -0.000144)
(0.020910 0.128757 -0.000132)
(0.020734 0.125916 -0.000132)
(0.019858 0.118950 -0.000121)
(0.018765 0.110006 -0.000103)
(0.019651 0.114538 -0.000108)
(0.021110 0.120270 -0.000126)
(0.010400 0.048218 -0.000126)
(-0.004110 0.036120 -0.000126)
(-0.002221 0.012842 -0.000126)
(-0.003587 0.021927 -0.000098)
(-0.003059 0.020099 0.000056)
(-0.003314 0.021355 0.000053)
(-0.003115 0.020152 -0.000080)
(-0.003197 0.020520 -0.000029)
(-0.003439 0.022220 -0.000033)
(-0.003617 0.024463 0.000035)
(-0.003770 0.026722 0.000158)
(-0.004174 0.028694 0.000121)
(-0.004545 0.030664 -0.000010)
(-0.004844 0.034345 0.000028)
(-0.005298 0.039276 0.000164)
(-0.005756 0.043617 0.000171)
(-0.006183 0.047097 0.000224)
(-0.006490 0.050032 0.000080)
(-0.006443 0.052874 0.000049)
(-0.006260 0.055045 0.000221)
(-0.006543 0.058157 0.000283)
(-0.006101 0.056199 0.000477)
(-0.007187 0.073557 0.000540)
(-0.006618 0.070119 0.000493)
(-0.004700 0.056449 0.000555)
(-0.004722 0.066606 0.000596)
(-0.003776 0.072009 0.000450)
(-0.002401 0.069050 0.000266)
(-0.000797 0.057631 0.000221)
(0.000341 0.050175 0.000192)
(0.001293 0.043421 0.000174)
(0.002044 0.038832 0.000166)
(0.002804 0.035257 0.000165)
(0.003819 0.035531 0.000347)
(0.004038 0.030568 0.000528)
(0.004300 0.026812 0.000528)
(0.004941 0.026438 0.000528)
(0.005127 0.023730 0.000528)
(0.004844 0.020309 0.000324)
(0.003798 0.014082 0.000122)
(0.006101 0.018015 0.000128)
(0.007723 0.019360 0.000133)
(0.006885 0.012441 0.000138)
(0.006953 0.008167 0.000143)
(0.004139 -0.000990 0.000148)
(0.005633 -0.000246 0.000152)
(0.010355 0.011416 0.000156)
(0.006932 0.016881 0.000160)
(0.001383 0.006328 0.000164)
(0.004430 -0.002207 0.000167)
(0.001825 0.001057 0.000181)
(0.002304 0.067252 -0.000126)
(0.003550 0.154881 -0.000126)
(0.002711 0.135178 -0.000126)
(0.004766 0.154542 -0.000126)
(0.006982 0.213321 -0.000126)
(0.008398 0.245700 -0.000126)
(0.009857 0.278899 -0.000126)
(0.012636 0.348076 -0.000126)
(0.017856 0.488105 -0.000126)
(0.023092 0.629883 -0.000102)
(0.024191 0.562850 -0.000078)
(0.037643 0.720418 -0.000078)
(0.153439 3.170187 -0.000078)
(0.313627 7.131521 -0.000078)
(-8.595460 -19.870373 -0.000078)
(101.316816 -241.199805 -0.000078)
(-14.521705 -10.442355 -0.000078)
(-12.029154 -5.487505 -0.000078)
(-14.250779 -21.436535 -0.000078)
(-80.519104 229.190834 -0.000078)
(6.152426 77.974732 -0.000035)
(5.194660 35.790804 0.000008)
(1.869598 16.908582 0.000008)
(-0.300505 -1.060897 0.000008)
(1.215281 3.808129 0.000008)
(0.190257 0.562403 0.000008)
(-0.709444 -1.426132 0.000008)
(-0.527091 -0.842737 0.000008)
(0.293781 0.645855 0.000008)
(0.911059 1.089516 0.000008)
(2.769411 3.298951 0.000008)
(5.498364 5.778313 0.000008)
(10.115792 9.408191 0.000008)
(20.557865 16.609294 0.000008)
(28.335430 20.389087 0.000008)
(20.036887 12.933257 0.000008)
(38.233156 17.758152 0.000008)
(-6.445955 -1.968920 0.000008)
(-125.554373 -43.905353 0.000008)
(-120.087621 -32.937793 0.000008)
(-40.348089 -3.396778 0.000008)
(31.752902 4.660810 0.000008)
(52.852532 1.693449 0.000008)
(32.889351 -2.953279 0.000008)
(24.621864 -4.183836 0.000008)
(4.807293 -3.437609 0.000008)
(-0.333940 -2.218655 0.000008)
(1.894057 -2.330478 0.000008)
(3.881453 -3.341206 0.000008)
(1.977330 -2.281033 0.000008)
(-1.049177 -0.181588 0.000008)
(0.302292 0.045733 0.000008)
(0.949703 -0.085461 0.000008)
(0.619571 -0.059967 0.000008)
(0.398954 -0.092899 0.000008)
(0.253279 -0.103161 0.000008)
(0.138272 -0.076701 0.000008)
(0.057509 -0.040449 0.000008)
(0.017505 -0.017451 0.000008)
(0.000864 -0.006528 0.000008)
(-0.005765 -0.000965 0.000008)
(-0.009480 0.005261 0.000008)
(-0.011998 0.010819 0.000008)
(-0.011840 0.011866 0.000008)
(-0.011278 0.013167 0.000008)
(-0.010728 0.016216 0.000008)
(-0.009233 0.018971 0.000008)
(-0.006090 0.013797 -0.000035)
(-93.376931 0.005281 -0.000078)
(93.374084 0.000196 -0.000078)
(-0.002714 0.005530 -0.000078)
(0.004676 0.007875 -0.000078)
(0.025015 -0.118353 -0.000078)
(0.011211 -0.073621 -0.000078)
(-0.009079 0.065999 -0.000078)
(-0.003485 0.018883 -0.000078)
(-0.001632 0.007545 -0.000078)
(-0.001451 0.020591 -0.000078)
(-0.001193 0.024104 -0.000102)
(-0.000853 0.017547 -0.000126)
(-0.000674 0.012378 -0.000126)
(-0.000436 0.007988 -0.000126)
(-0.000491 0.009126 -0.000126)
(-0.000801 0.015797 -0.000126)
(-0.000671 0.016491 -0.000126)
(-0.000334 0.013329 -0.000126)
(-0.000103 0.016360 -0.000126)
(-0.004198 0.046734 -0.000126)
)
;
    }
}
