/*--------------------------------*- C++ -*---------------------------------*\ 
| ========                 |                                                 | 
| \      /  F ield         | OpenFOAM: The Open Source CFD Toolbox           | 
|  \    /   O peration     | Version:  v1812                                 | 
|   \  /    A nd           | Web:      www.OpenFOAM.com                      | 
|    \/     M anipulation  |                                                 | 
\*--------------------------------------------------------------------------*/ 
FoamFile
{
    version     2.0;
    format      ascii;
    class       volVectorField;
    location    "/home/james/dafoam/myRuns/bezier_coanda_opt/0.00000000001/";
    object      sens_CL_shapey;
}
// * * * * * * * * * * * * * * * * * * * * * * * * * * * * * * * * * * * * * //

dimensions      [0 0 0 0 0 0 0];
internalField   uniform (0 0 0);
boundaryField
{
    allWalls
    {
        type  wall;
        value nonuniform List<vector>
188
(
(-0.013171 0.003304 0.000216)
(-0.023658 0.007707 0.000228)
(-0.034109 0.018226 0.000227)
(-0.042477 0.028178 0.000226)
(-0.034454 0.028399 0.000224)
(-0.019933 0.021049 0.000223)
(-0.012485 0.020192 0.000222)
(-0.013326 0.024037 0.000220)
(-0.012573 0.025496 0.000219)
(-0.013441 0.030654 0.000218)
(-0.013259 0.035225 0.000216)
(-0.010910 0.033242 0.000215)
(-0.009581 0.033868 0.000381)
(-0.008992 0.035412 0.000552)
(-0.008734 0.039757 0.000558)
(-0.008609 0.044295 0.000564)
(-0.007448 0.044899 0.000571)
(-0.006964 0.048837 0.000578)
(-0.006308 0.053351 0.001120)
(-0.005643 0.058565 0.001764)
(-0.004750 0.064052 0.001977)
(-0.003817 0.073552 0.002199)
(-0.002471 0.083853 0.002421)
(-0.000538 0.099278 0.002636)
(0.002594 0.126150 0.002430)
(0.006182 0.137946 0.001941)
(0.009363 0.133399 0.001555)
(0.012762 0.137413 0.001166)
(0.015998 0.141498 0.000859)
(0.019013 0.144254 0.000606)
(0.022016 0.148137 0.000353)
(0.024797 0.151280 0.000190)
(0.027422 0.154336 0.000024)
(0.029796 0.156792 -0.000274)
(0.031903 0.158613 -0.000423)
(0.033732 0.159766 -0.000375)
(0.035257 0.160211 -0.000288)
(0.036408 0.159629 -0.000230)
(0.037165 0.157936 -0.000236)
(0.037567 0.155341 -0.000242)
(0.037615 0.151828 -0.000241)
(0.037131 0.146691 -0.000228)
(0.035981 0.139461 -0.000213)
(0.034693 0.132129 -0.000133)
(0.034182 0.127874 -0.000048)
(0.032655 0.119990 -0.000098)
(0.026138 0.093570 -0.000153)
(0.025259 0.090489 -0.000150)
(0.030234 0.112314 -0.000154)
(0.009926 0.013378 -0.000154)
(-0.000487 -0.002752 -0.000154)
(-0.002849 0.007079 -0.000154)
(-0.003713 0.009634 -0.000032)
(-0.005353 0.015375 0.000025)
(-0.007668 0.021699 -0.000037)
(-0.010107 0.029244 -0.000031)
(-0.011955 0.036421 -0.000022)
(-0.013687 0.044627 -0.000011)
(-0.013910 0.049208 0.000029)
(-0.012040 0.046430 0.000062)
(-0.003657 0.020867 0.000064)
(0.006749 -0.017608 0.000064)
(0.008784 -0.032446 0.000063)
(0.006649 -0.029328 0.000067)
(0.003051 -0.017236 0.000072)
(-0.001267 0.001830 0.000189)
(-0.004464 0.019339 0.000337)
(-0.006183 0.032261 0.000359)
(-0.007106 0.043171 0.000371)
(-0.007333 0.051951 0.000497)
(-0.007012 0.059181 0.000540)
(-0.006220 0.064597 0.000497)
(-0.005077 0.069111 0.000523)
(-0.003671 0.073988 0.000666)
(-0.002002 0.075570 0.000652)
(-0.000203 0.084135 0.000466)
(0.001048 0.072179 0.000319)
(0.001905 0.049184 0.000185)
(0.003216 0.052193 0.000137)
(0.003200 0.043117 0.000100)
(0.003681 0.038304 0.000073)
(0.004633 0.040237 0.000052)
(0.004889 0.034478 0.000273)
(0.004486 0.027823 0.000502)
(0.004667 0.024740 0.000502)
(0.006331 0.029903 0.000502)
(0.005470 0.023902 0.000502)
(0.004737 0.018719 0.000503)
(0.003693 0.014152 0.000341)
(0.006160 0.017262 0.000180)
(0.008476 0.019487 0.000183)
(0.007175 0.009670 0.000186)
(0.006566 0.001998 0.000188)
(0.003940 -0.005184 0.000190)
(0.006713 0.000081 0.000193)
(0.012494 0.016936 0.000195)
(0.006197 0.018321 0.000197)
(-0.001373 0.003416 0.000199)
(0.001855 -0.001496 0.000200)
(0.001693 0.001059 0.000202)
(-0.004931 0.010890 -0.000154)
(0.001055 0.119346 -0.000154)
(0.001512 0.114582 -0.000154)
(0.003370 0.133811 -0.000154)
(0.005225 0.185048 -0.000154)
(0.006733 0.219410 -0.000154)
(0.008505 0.259625 -0.000154)
(0.011246 0.329909 -0.000154)
(0.015891 0.461578 -0.000154)
(0.020400 0.602472 -0.000123)
(0.021702 0.577960 -0.000092)
(0.032745 0.797828 -0.000092)
(0.142275 3.125101 -0.000092)
(0.233804 6.487003 -0.000092)
(-7.439790 -22.033212 -0.000092)
(96.089196 -234.601005 -0.000092)
(-15.823936 -11.172403 -0.000092)
(-13.534743 -5.789539 -0.000092)
(-13.684358 -21.905562 -0.000092)
(-74.200831 226.410965 -0.000092)
(6.282522 74.857393 -0.000041)
(5.428599 35.563271 0.000011)
(1.764336 18.964370 0.000011)
(-1.124523 -2.765038 0.000011)
(1.160668 3.491948 0.000011)
(0.087086 0.616829 0.000011)
(-1.097417 -2.233676 0.000011)
(-0.644514 -0.942577 0.000011)
(-0.418848 -0.447258 0.000011)
(0.301848 0.169119 0.000011)
(1.572617 1.904136 0.000011)
(3.118897 3.242869 0.000011)
(8.313010 7.590550 0.000011)
(20.688676 16.453546 0.000011)
(27.477769 19.607737 0.000011)
(34.851701 21.317138 0.000011)
(40.333855 22.537485 0.000011)
(69.617199 27.401002 0.000011)
(-69.695951 -28.306014 0.000011)
(-205.477776 -65.106796 0.000011)
(-110.243040 -19.125133 0.000011)
(-25.825830 4.358236 0.000011)
(48.382382 6.044221 0.000011)
(65.800281 0.029263 0.000011)
(39.243845 -4.703981 0.000011)
(28.284270 -5.102685 0.000011)
(4.505213 -3.168654 0.000011)
(0.419714 -2.733723 0.000011)
(2.492905 -3.033385 0.000011)
(2.586779 -3.483644 0.000011)
(1.395070 -2.260774 0.000011)
(-1.202510 -0.149314 0.000011)
(0.445506 -0.117523 0.000011)
(1.068260 -0.278070 0.000011)
(0.780100 -0.242792 0.000011)
(0.551810 -0.238163 0.000011)
(0.393880 -0.222701 0.000011)
(0.251678 -0.177527 0.000011)
(0.125497 -0.101926 0.000011)
(0.043227 -0.040595 0.000011)
(-0.000874 -0.001410 0.000011)
(-0.020984 0.021129 0.000011)
(-0.027115 0.031445 0.000011)
(-0.026211 0.033741 0.000011)
(-0.022408 0.031169 0.000011)
(-0.017818 0.025275 0.000011)
(-0.013514 0.017512 0.000011)
(-0.009348 0.011168 -0.000041)
(-93.375760 0.005951 -0.000092)
(93.369787 0.001204 -0.000092)
(-0.001908 0.002370 -0.000092)
(-0.001740 0.002525 -0.000092)
(-0.018736 0.036744 -0.000092)
(-0.026359 0.059124 -0.000092)
(-0.011632 0.035887 -0.000092)
(-0.005723 0.023244 -0.000092)
(-0.003746 0.019226 -0.000092)
(-0.002574 0.016120 -0.000092)
(-0.001792 0.014547 -0.000123)
(-0.001345 0.013332 -0.000154)
(-0.001157 0.012169 -0.000154)
(-0.001030 0.010978 -0.000154)
(-0.000952 0.009807 -0.000154)
(-0.000895 0.008694 -0.000154)
(-0.000595 0.007458 -0.000154)
(-0.000260 0.006792 -0.000154)
(-0.000080 0.007460 -0.000154)
(0.000674 -0.002074 -0.000154)
)
;
    }
}
