/*--------------------------------*- C++ -*---------------------------------*\ 
| ========                 |                                                 | 
| \      /  F ield         | OpenFOAM: The Open Source CFD Toolbox           | 
|  \    /   O peration     | Version:  v1812                                 | 
|   \  /    A nd           | Web:      www.OpenFOAM.com                      | 
|    \/     M anipulation  |                                                 | 
\*--------------------------------------------------------------------------*/ 
FoamFile
{
    version     2.0;
    format      ascii;
    class       volVectorField;
    location    "/home/james/dafoam/myRuns/bezier_coanda_opt/0.00000000001/";
    object      sens_CL_shapey;
}
// * * * * * * * * * * * * * * * * * * * * * * * * * * * * * * * * * * * * * //

dimensions      [0 0 0 0 0 0 0];
internalField   uniform (0 0 0);
boundaryField
{
    allWalls
    {
        type  wall;
        value nonuniform List<vector>
188
(
(-0.008102 0.004408 0.000124)
(-0.018751 0.006716 0.000032)
(-0.037255 0.021733 0.000032)
(-0.058157 0.036651 0.000124)
(-0.051090 0.039921 0.000124)
(-0.030642 0.030588 0.000133)
(-0.009968 0.018907 0.000133)
(-0.014784 0.028447 0.000124)
(-0.015657 0.031034 0.000294)
(-0.012934 0.029719 0.000511)
(-0.012717 0.033167 0.000613)
(-0.010415 0.031717 0.000667)
(-0.008927 0.030785 0.000734)
(-0.008921 0.034617 0.000875)
(-0.009030 0.038984 0.001034)
(-0.008629 0.042660 0.001212)
(-0.008358 0.047113 0.001673)
(-0.007606 0.049718 0.001961)
(-0.007151 0.055548 0.001926)
(-0.006465 0.061181 0.002243)
(-0.005534 0.067085 0.002504)
(-0.004635 0.078907 0.002629)
(-0.003072 0.083362 0.002986)
(-0.000887 0.105205 0.002566)
(0.002380 0.140881 0.001924)
(0.006514 0.147883 0.001809)
(0.010476 0.146576 0.001534)
(0.014624 0.152274 0.001236)
(0.018613 0.157235 0.000974)
(0.022458 0.161526 0.000391)
(0.026269 0.166494 -0.000074)
(0.029795 0.170355 -0.000081)
(0.033131 0.174018 -0.000087)
(0.036171 0.177025 -0.000093)
(0.038830 0.179012 -0.000097)
(0.041123 0.179992 -0.000062)
(0.042954 0.179822 -0.000024)
(0.044247 0.178404 -0.000025)
(0.044970 0.175465 -0.000025)
(0.045196 0.171351 -0.000025)
(0.044954 0.166168 -0.000025)
(0.043900 0.158678 0.000048)
(0.041863 0.148327 0.000121)
(0.039861 0.138788 0.000121)
(0.039520 0.135414 0.000121)
(0.037353 0.126135 0.000121)
(0.026671 0.089002 0.000121)
(0.026386 0.090407 -0.000026)
(0.038034 0.138738 -0.000173)
(0.003820 -0.024600 -0.000173)
(0.000335 -0.007310 -0.000173)
(-0.001943 0.003789 -0.000173)
(-0.002585 0.004460 -0.000026)
(-0.003621 0.008408 0.000121)
(-0.006142 0.015404 0.000121)
(-0.009193 0.023667 0.000121)
(-0.012345 0.033147 0.000121)
(-0.015042 0.043446 0.000121)
(-0.016252 0.050778 0.000048)
(-0.016553 0.056439 -0.000025)
(-0.012380 0.047741 -0.000025)
(-0.000107 0.010712 -0.000025)
(0.010461 -0.030159 -0.000025)
(0.012549 -0.048492 -0.000025)
(0.009010 -0.041569 -0.000063)
(0.002578 -0.017264 -0.000100)
(-0.002511 0.006491 -0.000097)
(-0.005113 0.022536 -0.000094)
(-0.006699 0.036420 -0.000091)
(-0.007443 0.048196 -0.000088)
(-0.007364 0.057344 0.000081)
(-0.006630 0.063958 0.000270)
(-0.005450 0.069413 0.000313)
(-0.003927 0.074921 0.000356)
(-0.002090 0.076951 0.000386)
(-0.000099 0.083901 0.000375)
(0.001367 0.074476 0.000385)
(0.002193 0.051234 0.000344)
(0.003330 0.049131 0.000187)
(0.004131 0.047787 0.000110)
(0.004274 0.039966 0.000095)
(0.004590 0.036179 0.000029)
(0.005196 0.034504 -0.000006)
(0.004761 0.027753 -0.000013)
(0.004922 0.024667 0.000015)
(0.006335 0.028331 0.000049)
(0.005599 0.023125 0.000039)
(0.004606 0.017552 0.000031)
(0.004174 0.014755 -0.000030)
(0.006169 0.016982 -0.000035)
(0.007750 0.017214 0.000016)
(0.007227 0.009568 0.000069)
(0.006043 0.001282 0.000012)
(0.003912 -0.004861 -0.000101)
(0.007095 0.001168 0.000010)
(0.011137 0.015367 0.000124)
(0.004471 0.012659 0.000124)
(0.002489 -0.002120 0.000005)
(0.015526 -0.001378 0.000005)
(0.017802 0.003216 0.000124)
(-0.013465 -0.037867 -0.000173)
(0.006300 0.142367 -0.000173)
(0.004182 0.136958 -0.000173)
(0.003507 0.135136 -0.000173)
(0.005033 0.181031 -0.000173)
(0.006895 0.229926 -0.000173)
(0.008551 0.271987 -0.000173)
(0.011132 0.347465 -0.000173)
(0.015545 0.484436 -0.000173)
(0.019615 0.630205 -0.000138)
(0.021266 0.659967 -0.000104)
(0.030892 0.987571 -0.000104)
(0.132702 3.267487 -0.000104)
(0.179251 6.130798 -0.000104)
(-6.698163 -23.357213 -0.000104)
(115.605438 -242.756210 -0.000104)
(-15.479778 -12.312830 -0.000104)
(-14.531595 -6.459609 -0.000104)
(-13.380590 -22.150419 -0.000104)
(-93.087948 233.657776 -0.000104)
(7.106445 82.865164 -0.000046)
(6.323775 38.578943 0.000011)
(2.164134 20.124330 0.000011)
(-0.961835 -2.527296 0.000011)
(1.171530 3.572494 0.000011)
(-0.019090 0.308287 0.000011)
(-1.282013 -2.604550 0.000011)
(-0.872032 -1.350347 0.000011)
(-0.518564 -0.627492 0.000011)
(0.220819 -0.041644 0.000011)
(1.926865 2.200463 0.000011)
(5.473947 5.584929 0.000011)
(11.522951 10.599052 0.000011)
(18.689445 15.158663 0.000011)
(26.603018 18.856601 0.000011)
(33.690354 21.055792 0.000011)
(31.621961 18.424382 0.000011)
(68.380433 27.890143 0.000011)
(-35.419136 -12.848474 0.000011)
(-177.057478 -53.189120 0.000011)
(-135.609338 -26.503768 0.000011)
(-69.309824 -6.286811 0.000011)
(28.981085 0.785642 0.000011)
(65.070312 -1.724187 0.000011)
(42.068640 -5.836614 0.000011)
(37.899746 -6.288137 0.000011)
(12.888392 -3.829289 0.000011)
(0.843463 -2.644975 0.000011)
(1.944795 -2.982424 0.000011)
(6.551059 -4.047636 0.000011)
(4.767878 -2.541299 0.000011)
(0.393425 0.533052 0.000011)
(1.126993 0.673447 0.000011)
(1.841361 0.028179 0.000011)
(1.269554 -0.121770 0.000011)
(0.806506 -0.180126 0.000011)
(0.560465 -0.223056 0.000011)
(0.380719 -0.227175 0.000011)
(0.219149 -0.158354 0.000011)
(0.077505 -0.051652 0.000011)
(0.013953 -0.004458 0.000011)
(-0.016988 0.023754 0.000011)
(-0.031205 0.042894 0.000011)
(-0.032742 0.048636 0.000011)
(-0.028367 0.045725 0.000011)
(-0.022164 0.037276 0.000011)
(-0.015839 0.025177 0.000011)
(-0.010031 0.015316 -0.000046)
(-93.374773 0.008162 -0.000104)
(93.368649 0.001679 -0.000104)
(-0.002380 0.003090 -0.000104)
(-0.002807 0.003265 -0.000104)
(-0.025976 0.056928 -0.000104)
(-0.032091 0.087589 -0.000104)
(-0.010524 0.047537 -0.000104)
(-0.005394 0.026681 -0.000104)
(-0.003790 0.019373 -0.000104)
(-0.002790 0.014626 -0.000104)
(-0.002138 0.012401 -0.000138)
(-0.001724 0.010799 -0.000173)
(-0.001453 0.009786 -0.000173)
(-0.001226 0.008185 -0.000173)
(-0.001058 0.006721 -0.000173)
(-0.000932 0.005760 -0.000173)
(-0.000614 0.003932 -0.000173)
(-0.000347 0.004242 -0.000173)
(-0.000139 0.005197 -0.000173)
(0.001005 -0.006831 -0.000173)
)
;
    }
}
