/*--------------------------------*- C++ -*---------------------------------*\ 
| ========                 |                                                 | 
| \      /  F ield         | OpenFOAM: The Open Source CFD Toolbox           | 
|  \    /   O peration     | Version:  v1812                                 | 
|   \  /    A nd           | Web:      www.OpenFOAM.com                      | 
|    \/     M anipulation  |                                                 | 
\*--------------------------------------------------------------------------*/ 
FoamFile
{
    version     2.0;
    format      ascii;
    class       volVectorField;
    location    "/home/james/dafoam/myRuns/bezier_coanda_opt/0.00000000001/";
    object      sens_CL_shapey;
}
// * * * * * * * * * * * * * * * * * * * * * * * * * * * * * * * * * * * * * //

dimensions      [0 0 0 0 0 0 0];
internalField   uniform (0 0 0);
boundaryField
{
    allWalls
    {
        type  wall;
        value nonuniform List<vector>
188
(
(-0.006677 0.004745 0.000127)
(-0.017179 0.006428 0.000034)
(-0.038626 0.023111 0.000034)
(-0.063590 0.039881 0.000127)
(-0.055707 0.043398 0.000127)
(-0.033576 0.033581 0.000136)
(-0.009839 0.019637 0.000136)
(-0.014821 0.029513 0.000127)
(-0.015737 0.031721 0.000298)
(-0.012410 0.029121 0.000517)
(-0.012507 0.033065 0.000620)
(-0.010148 0.031372 0.000676)
(-0.008586 0.030037 0.000745)
(-0.008713 0.034153 0.000888)
(-0.008956 0.038839 0.001049)
(-0.008621 0.042778 0.001227)
(-0.008409 0.047472 0.001694)
(-0.007638 0.049979 0.001984)
(-0.007207 0.056014 0.001948)
(-0.006524 0.061776 0.002270)
(-0.005584 0.067763 0.002532)
(-0.004694 0.080118 0.002655)
(-0.003096 0.083964 0.003017)
(-0.000854 0.106283 0.002637)
(0.002454 0.143036 0.002032)
(0.006700 0.150488 0.001913)
(0.010765 0.149795 0.001634)
(0.015004 0.155448 0.001331)
(0.019103 0.160682 0.001066)
(0.023048 0.165130 0.000477)
(0.026972 0.170349 0.000008)
(0.030585 0.174285 0.000001)
(0.034003 0.178017 -0.000005)
(0.037124 0.181117 -0.000010)
(0.039841 0.183102 -0.000015)
(0.042155 0.184090 -0.000069)
(0.043995 0.183903 -0.000121)
(0.045291 0.182334 -0.000121)
(0.045996 0.179193 -0.000121)
(0.046199 0.174888 -0.000121)
(0.045920 0.169488 -0.000121)
(0.044786 0.161652 -0.000046)
(0.042603 0.150761 0.000028)
(0.040534 0.141014 0.000028)
(0.040370 0.138318 0.000028)
(0.038136 0.128925 0.000028)
(0.026531 0.089104 0.000028)
(0.026703 0.092589 -0.000074)
(0.040361 0.148776 -0.000176)
(0.002302 -0.033630 -0.000176)
(0.000287 -0.007138 -0.000176)
(-0.001979 0.003795 -0.000176)
(-0.002630 0.004528 -0.000074)
(-0.003681 0.008526 0.000028)
(-0.006189 0.015498 0.000028)
(-0.009204 0.023652 0.000028)
(-0.012305 0.033012 0.000028)
(-0.014955 0.043230 0.000028)
(-0.016108 0.050355 -0.000046)
(-0.016285 0.055533 -0.000121)
(-0.011931 0.046166 -0.000121)
(0.000151 0.009561 -0.000121)
(0.010280 -0.029936 -0.000121)
(0.012176 -0.047362 -0.000121)
(0.008649 -0.040186 -0.000070)
(0.002320 -0.016041 -0.000017)
(-0.002677 0.007469 -0.000014)
(-0.005209 0.023271 -0.000011)
(-0.006744 0.036937 -0.000009)
(-0.007448 0.048496 -0.000006)
(-0.007340 0.057475 0.000164)
(-0.006592 0.063995 0.000354)
(-0.005407 0.069353 0.000398)
(-0.003883 0.074753 0.000443)
(-0.002052 0.076786 0.000475)
(-0.000070 0.083544 0.000466)
(0.001378 0.074065 0.000434)
(0.002189 0.051091 0.000350)
(0.003308 0.048882 0.000190)
(0.004098 0.047475 0.000113)
(0.004245 0.039784 0.000101)
(0.004552 0.035966 0.000033)
(0.005145 0.034262 -0.000003)
(0.004715 0.027576 -0.000009)
(0.004877 0.024527 0.000018)
(0.006247 0.028037 0.000051)
(0.005531 0.022911 0.000041)
(0.004574 0.017482 0.000033)
(0.004133 0.014659 -0.000028)
(0.006064 0.016788 -0.000033)
(0.007602 0.016994 0.000017)
(0.007098 0.009538 0.000071)
(0.005952 0.001436 0.000016)
(0.003823 -0.004719 -0.000100)
(0.006822 0.000933 0.000012)
(0.010728 0.014635 0.000127)
(0.004315 0.011386 0.000127)
(0.003890 -0.003409 0.000006)
(0.019599 -0.001448 0.000006)
(0.022417 0.003835 0.000127)
(-0.015761 -0.050036 -0.000176)
(0.007746 0.150805 -0.000176)
(0.004943 0.145253 -0.000176)
(0.003652 0.138773 -0.000176)
(0.005072 0.182259 -0.000176)
(0.006976 0.234473 -0.000176)
(0.008618 0.278187 -0.000176)
(0.011167 0.355529 -0.000176)
(0.015529 0.495058 -0.000176)
(0.019435 0.642877 -0.000141)
(0.021076 0.687194 -0.000106)
(0.030194 1.047624 -0.000106)
(0.130261 3.330561 -0.000106)
(0.162426 6.059363 -0.000106)
(-6.421832 -23.493007 -0.000106)
(124.668125 -248.411174 -0.000106)
(-15.551076 -12.650232 -0.000106)
(-15.046565 -6.687679 -0.000106)
(-13.377971 -21.931129 -0.000106)
(-101.700033 238.520853 -0.000106)
(7.369878 85.947801 -0.000048)
(6.641141 39.973582 0.000011)
(2.267233 20.904475 0.000011)
(-1.025270 -2.708092 0.000011)
(1.191979 3.632397 0.000011)
(-0.033792 0.284567 0.000011)
(-1.343877 -2.743293 0.000011)
(-0.923830 -1.442514 0.000011)
(-0.545020 -0.672743 0.000011)
(0.232644 -0.045959 0.000011)
(2.027419 2.306471 0.000011)
(5.725655 5.839598 0.000011)
(11.982927 11.022347 0.000011)
(19.547483 15.846051 0.000011)
(27.718561 19.646989 0.000011)
(34.463105 21.563413 0.000011)
(31.931299 18.639767 0.000011)
(70.233123 28.636932 0.000011)
(-37.067886 -13.281131 0.000011)
(-185.160203 -55.397680 0.000011)
(-142.299825 -27.795025 0.000011)
(-71.288268 -6.267874 0.000011)
(31.289433 1.024617 0.000011)
(68.259639 -1.799628 0.000011)
(44.214936 -5.972499 0.000011)
(40.050496 -6.264993 0.000011)
(14.088110 -3.731185 0.000011)
(1.234369 -2.651055 0.000011)
(2.157014 -3.053689 0.000011)
(6.783981 -4.143637 0.000011)
(4.871609 -2.602972 0.000011)
(0.333279 0.562112 0.000011)
(1.101117 0.703621 0.000011)
(1.862536 0.036134 0.000011)
(1.285011 -0.116860 0.000011)
(0.813667 -0.175737 0.000011)
(0.565087 -0.220816 0.000011)
(0.383782 -0.226424 0.000011)
(0.220144 -0.157001 0.000011)
(0.076373 -0.048684 0.000011)
(0.012309 -0.001334 0.000011)
(-0.018576 0.026610 0.000011)
(-0.032585 0.045425 0.000011)
(-0.033809 0.050680 0.000011)
(-0.029126 0.047220 0.000011)
(-0.022679 0.038258 0.000011)
(-0.016185 0.025737 0.000011)
(-0.010247 0.015649 -0.000048)
(-93.374924 0.008378 -0.000106)
(93.368673 0.001740 -0.000106)
(-0.002429 0.003199 -0.000106)
(-0.002810 0.003332 -0.000106)
(-0.026359 0.057662 -0.000106)
(-0.032664 0.088436 -0.000106)
(-0.010766 0.047554 -0.000106)
(-0.005537 0.026495 -0.000106)
(-0.003903 0.019207 -0.000106)
(-0.002880 0.014497 -0.000106)
(-0.002202 0.012332 -0.000141)
(-0.001766 0.010758 -0.000176)
(-0.001490 0.009746 -0.000176)
(-0.001259 0.008212 -0.000176)
(-0.001085 0.006756 -0.000176)
(-0.000950 0.005716 -0.000176)
(-0.000629 0.003870 -0.000176)
(-0.000367 0.004241 -0.000176)
(-0.000165 0.005254 -0.000176)
(0.000966 -0.006624 -0.000176)
)
;
    }
}
