/*--------------------------------*- C++ -*---------------------------------*\ 
| ========                 |                                                 | 
| \      /  F ield         | OpenFOAM: The Open Source CFD Toolbox           | 
|  \    /   O peration     | Version:  v1812                                 | 
|   \  /    A nd           | Web:      www.OpenFOAM.com                      | 
|    \/     M anipulation  |                                                 | 
\*--------------------------------------------------------------------------*/ 
FoamFile
{
    version     2.0;
    format      ascii;
    class       volVectorField;
    location    "/home/james/dafoam/myRuns/bezier_coanda_opt/0.00000000001/";
    object      sens_CL_shapey;
}
// * * * * * * * * * * * * * * * * * * * * * * * * * * * * * * * * * * * * * //

dimensions      [0 0 0 0 0 0 0];
internalField   uniform (0 0 0);
boundaryField
{
    allWalls
    {
        type  wall;
        value nonuniform List<vector>
188
(
(-0.006135 0.004840 0.000235)
(-0.016550 0.006305 0.000246)
(-0.038982 0.023533 0.000245)
(-0.065372 0.040942 0.000243)
(-0.057255 0.044520 0.000242)
(-0.034608 0.034594 0.000241)
(-0.009878 0.019951 0.000240)
(-0.014895 0.029951 0.000238)
(-0.015802 0.031991 0.000237)
(-0.012239 0.028923 0.000236)
(-0.012466 0.033085 0.000235)
(-0.010070 0.031287 0.000233)
(-0.008461 0.029763 0.000421)
(-0.008625 0.033948 0.000613)
(-0.008927 0.038781 0.000622)
(-0.008625 0.042854 0.000632)
(-0.008426 0.047591 0.000642)
(-0.007642 0.050043 0.000652)
(-0.007228 0.056196 0.001241)
(-0.006546 0.061991 0.001947)
(-0.005601 0.068011 0.002194)
(-0.004712 0.080566 0.002450)
(-0.003099 0.084191 0.002708)
(-0.000949 0.106665 0.002959)
(0.002261 0.143790 0.002623)
(0.006552 0.151408 0.001998)
(0.010656 0.150938 0.001630)
(0.014931 0.156574 0.001255)
(0.019073 0.161914 0.000936)
(0.023061 0.166424 0.000670)
(0.027034 0.171750 0.000453)
(0.030686 0.175736 0.000244)
(0.034134 0.179491 0.000063)
(0.037283 0.182620 -0.000239)
(0.040021 0.184606 -0.000447)
(0.042564 0.185620 -0.000393)
(0.044636 0.185461 -0.000268)
(0.045943 0.183859 -0.000219)
(0.046640 0.180642 -0.000270)
(0.046828 0.176254 -0.000222)
(0.046531 0.170780 -0.000146)
(0.045369 0.162817 -0.000146)
(0.043137 0.151726 -0.000209)
(0.041039 0.141886 -0.000209)
(0.040927 0.139391 -0.000171)
(0.038662 0.129941 -0.000171)
(0.026719 0.089164 -0.000184)
(0.026922 0.093287 -0.000188)
(0.041169 0.152151 -0.000177)
(0.001790 -0.036784 -0.000177)
(0.000286 -0.007040 -0.000177)
(-0.001977 0.003833 -0.000177)
(-0.002529 0.004619 -0.000140)
(-0.003484 0.008666 -0.000136)
(-0.005989 0.015644 -0.000171)
(-0.008986 0.023771 -0.000002)
(-0.012061 0.033080 -0.000002)
(-0.014694 0.043266 -0.000171)
(-0.015829 0.050289 -0.000171)
(-0.016073 0.055164 -0.000177)
(-0.011597 0.045388 -0.000091)
(0.000546 0.008949 0.000087)
(0.010467 -0.029909 0.000175)
(0.012274 -0.046917 0.000184)
(0.008512 -0.039637 0.000196)
(0.001994 -0.015577 0.000205)
(-0.002959 0.007833 0.000220)
(-0.005464 0.023543 0.000241)
(-0.006974 0.037109 0.000258)
(-0.007655 0.048586 0.000311)
(-0.007537 0.057497 0.000385)
(-0.006787 0.063961 0.000443)
(-0.005600 0.069298 0.000522)
(-0.004077 0.074657 0.000582)
(-0.002250 0.076699 0.000582)
(-0.000273 0.083392 0.000579)
(0.001280 0.073895 0.000404)
(0.002196 0.051029 0.000192)
(0.003306 0.048785 0.000136)
(0.004091 0.047354 0.000092)
(0.004238 0.039709 0.000058)
(0.004537 0.035880 0.000032)
(0.005127 0.034171 0.000282)
(0.004701 0.027506 0.000543)
(0.004864 0.024474 0.000543)
(0.006218 0.027930 0.000543)
(0.005513 0.022843 0.000543)
(0.004571 0.017469 0.000544)
(0.004116 0.014609 0.000372)
(0.006023 0.016712 0.000202)
(0.007548 0.016928 0.000204)
(0.007046 0.009541 0.000207)
(0.005912 0.001499 0.000209)
(0.003787 -0.004669 0.000211)
(0.006700 0.000819 0.000214)
(0.010554 0.014392 0.000216)
(0.004265 0.011028 0.000218)
(0.004376 -0.003823 0.000220)
(0.020965 -0.001488 0.000222)
(0.023957 0.004041 0.000223)
(-0.016544 -0.054283 -0.000177)
(0.008250 0.153643 -0.000177)
(0.005213 0.148117 -0.000177)
(0.003700 0.140059 -0.000177)
(0.005076 0.182694 -0.000177)
(0.006996 0.236100 -0.000177)
(0.008637 0.280431 -0.000177)
(0.011178 0.358480 -0.000177)
(0.015525 0.499019 -0.000177)
(0.019380 0.647722 -0.000141)
(0.021032 0.697237 -0.000105)
(0.029958 1.069401 -0.000105)
(0.129358 3.355434 -0.000105)
(0.156373 6.040736 -0.000105)
(-6.333814 -23.538821 -0.000105)
(128.425988 -250.872627 -0.000105)
(-15.570067 -12.776182 -0.000105)
(-15.236037 -6.774356 -0.000105)
(-13.392669 -21.856264 -0.000105)
(-105.283282 240.625299 -0.000105)
(7.476075 87.241299 -0.000048)
(6.768285 40.548372 0.000010)
(2.309333 21.213217 0.000010)
(-1.046582 -2.771389 0.000010)
(1.201861 3.661583 0.000010)
(-0.036543 0.281039 0.000010)
(-1.364365 -2.788832 0.000010)
(-0.941754 -1.474880 0.000010)
(-0.552307 -0.684744 0.000010)
(0.241257 -0.041083 0.000010)
(2.069462 2.352627 0.000010)
(5.811601 5.927980 0.000010)
(12.123402 11.153995 0.000010)
(19.827153 16.070271 0.000010)
(28.065714 19.894207 0.000010)
(34.557506 21.637120 0.000010)
(31.799554 18.580754 0.000010)
(70.561215 28.771178 0.000010)
(-37.502444 -13.339290 0.000010)
(-187.685910 -56.022674 0.000010)
(-144.560148 -28.218808 0.000010)
(-71.534723 -6.146668 0.000010)
(32.340877 1.182084 0.000010)
(69.358928 -1.822025 0.000010)
(45.061397 -5.996391 0.000010)
(40.865469 -6.207451 0.000010)
(14.161638 -3.656340 0.000010)
(1.468989 -2.843446 0.000010)
(2.350230 -3.194704 0.000010)
(6.428274 -4.055188 0.000010)
(4.844480 -2.606489 0.000010)
(0.347049 0.552331 0.000010)
(1.096462 0.712674 0.000010)
(1.868174 0.041240 0.000010)
(1.294588 -0.117381 0.000010)
(0.818295 -0.178057 0.000010)
(0.561077 -0.220405 0.000010)
(0.377791 -0.224797 0.000010)
(0.218686 -0.157069 0.000010)
(0.076713 -0.048026 0.000010)
(0.013104 0.000033 0.000010)
(-0.017749 0.028229 0.000010)
(-0.031885 0.047074 0.000010)
(-0.033226 0.052153 0.000010)
(-0.028638 0.048414 0.000010)
(-0.022269 0.039145 0.000010)
(-0.015841 0.026345 0.000010)
(-0.009944 0.016071 -0.000048)
(-93.374747 0.008644 -0.000105)
(93.368734 0.001795 -0.000105)
(-0.002387 0.003296 -0.000105)
(-0.002716 0.003402 -0.000105)
(-0.025963 0.058394 -0.000105)
(-0.032069 0.089476 -0.000105)
(-0.010353 0.047992 -0.000105)
(-0.005325 0.026687 -0.000105)
(-0.003777 0.019332 -0.000105)
(-0.002798 0.014590 -0.000105)
(-0.002139 0.012422 -0.000141)
(-0.001717 0.010833 -0.000177)
(-0.001459 0.009796 -0.000177)
(-0.001241 0.008280 -0.000177)
(-0.001076 0.006825 -0.000177)
(-0.000947 0.005765 -0.000177)
(-0.000626 0.003933 -0.000177)
(-0.000359 0.004297 -0.000177)
(-0.000157 0.005286 -0.000177)
(0.000969 -0.006527 -0.000177)
)
;
    }
}
