/*--------------------------------*- C++ -*---------------------------------*\ 
| ========                 |                                                 | 
| \      /  F ield         | OpenFOAM: The Open Source CFD Toolbox           | 
|  \    /   O peration     | Version:  v1812                                 | 
|   \  /    A nd           | Web:      www.OpenFOAM.com                      | 
|    \/     M anipulation  |                                                 | 
\*--------------------------------------------------------------------------*/ 
FoamFile
{
    version     2.0;
    format      ascii;
    class       volVectorField;
    location    "/home/james/dafoam/myRuns/bezier_coanda_opt/0.00000000001/";
    object      sens_CL_shapey;
}
// * * * * * * * * * * * * * * * * * * * * * * * * * * * * * * * * * * * * * //

dimensions      [0 0 0 0 0 0 0];
internalField   uniform (0 0 0);
boundaryField
{
    allWalls
    {
        type  wall;
        value nonuniform List<vector>
188
(
(-0.005860 0.004901 0.000127)
(-0.016235 0.006246 0.000033)
(-0.039226 0.023787 0.000033)
(-0.066378 0.041538 0.000127)
(-0.058106 0.045153 0.000127)
(-0.035174 0.035164 0.000136)
(-0.009867 0.020099 0.000136)
(-0.014898 0.030154 0.000127)
(-0.015818 0.032124 0.000300)
(-0.012138 0.028809 0.000522)
(-0.012433 0.033079 0.000626)
(-0.010025 0.031228 0.000681)
(-0.008404 0.029626 0.000749)
(-0.008593 0.033864 0.000893)
(-0.008917 0.038756 0.001055)
(-0.008628 0.042885 0.001235)
(-0.008440 0.047662 0.001705)
(-0.007654 0.050096 0.001997)
(-0.007244 0.056291 0.001962)
(-0.006560 0.062107 0.002285)
(-0.005615 0.068141 0.002550)
(-0.004729 0.080788 0.002674)
(-0.003111 0.084296 0.003037)
(-0.000841 0.106894 0.002652)
(0.002487 0.144256 0.002040)
(0.006797 0.151959 0.001919)
(0.010920 0.151606 0.001637)
(0.015212 0.157238 0.001333)
(0.019375 0.162637 0.001065)
(0.023380 0.167178 0.000476)
(0.027370 0.172535 0.000006)
(0.031037 0.176530 -0.000000)
(0.034504 0.180301 -0.000006)
(0.037673 0.183454 -0.000012)
(0.040427 0.185454 -0.000016)
(0.042767 0.186423 -0.000073)
(0.044624 0.186192 -0.000127)
(0.045926 0.184552 -0.000127)
(0.046622 0.181299 -0.000127)
(0.046811 0.176879 -0.000127)
(0.046514 0.171362 -0.000127)
(0.045327 0.163303 -0.000052)
(0.043062 0.152110 0.000024)
(0.040955 0.142247 0.000024)
(0.040877 0.139882 0.000024)
(0.038601 0.130411 0.000024)
(0.026484 0.089125 0.000024)
(0.026875 0.093657 -0.000077)
(0.041603 0.154022 -0.000178)
(0.001507 -0.038473 -0.000178)
(0.000278 -0.007011 -0.000178)
(-0.001983 0.003834 -0.000178)
(-0.002641 0.004610 -0.000077)
(-0.003705 0.008643 0.000024)
(-0.006211 0.015616 0.000024)
(-0.009206 0.023704 0.000024)
(-0.012272 0.032988 0.000024)
(-0.014897 0.043173 0.000024)
(-0.016013 0.050158 -0.000052)
(-0.016102 0.054988 -0.000127)
(-0.011594 0.045070 -0.000127)
(0.000385 0.008654 -0.000127)
(0.010215 -0.029933 -0.000127)
(0.011983 -0.046770 -0.000127)
(0.008440 -0.039380 -0.000074)
(0.002154 -0.015280 -0.000018)
(-0.002781 0.008072 -0.000016)
(-0.005270 0.023726 -0.000013)
(-0.006775 0.037262 -0.000010)
(-0.007454 0.048696 -0.000008)
(-0.007330 0.057572 0.000160)
(-0.006574 0.064023 0.000349)
(-0.005387 0.069339 0.000394)
(-0.003863 0.074674 0.000440)
(-0.002036 0.076707 0.000473)
(-0.000059 0.083368 0.000465)
(0.001382 0.073836 0.000436)
(0.002187 0.050996 0.000355)
(0.003296 0.048738 0.000195)
(0.004079 0.047298 0.000118)
(0.004229 0.039681 0.000104)
(0.004528 0.035843 0.000036)
(0.005115 0.034128 -0.000000)
(0.004686 0.027474 -0.000007)
(0.004849 0.024443 0.000021)
(0.006194 0.027876 0.000055)
(0.005492 0.022802 0.000044)
(0.004556 0.017455 0.000036)
(0.004103 0.014594 -0.000027)
(0.005999 0.016674 -0.000032)
(0.007518 0.016886 0.000019)
(0.007024 0.009532 0.000072)
(0.005899 0.001527 0.000014)
(0.003770 -0.004645 -0.000102)
(0.006652 0.000772 0.000011)
(0.010485 0.014253 0.000127)
(0.004240 0.010785 0.000127)
(0.004639 -0.004074 0.000005)
(0.021724 -0.001509 0.000005)
(0.024812 0.004159 0.000127)
(-0.016974 -0.056566 -0.000178)
(0.008519 0.155212 -0.000178)
(0.005355 0.149673 -0.000178)
(0.003726 0.140747 -0.000178)
(0.005082 0.182927 -0.000178)
(0.007010 0.236960 -0.000178)
(0.008647 0.281606 -0.000178)
(0.011182 0.360011 -0.000178)
(0.015519 0.501043 -0.000178)
(0.019341 0.650146 -0.000142)
(0.020989 0.702416 -0.000107)
(0.029813 1.080798 -0.000107)
(0.128872 3.367586 -0.000107)
(0.153173 6.027817 -0.000107)
(-6.281694 -23.562541 -0.000107)
(130.207543 -251.995031 -0.000107)
(-15.582407 -12.840462 -0.000107)
(-15.334725 -6.818348 -0.000107)
(-13.393547 -21.813439 -0.000107)
(-106.977943 241.587910 -0.000107)
(7.527315 87.847923 -0.000048)
(6.830033 40.821711 0.000010)
(2.329396 21.364982 0.000010)
(-1.058706 -2.806086 0.000010)
(1.205969 3.673668 0.000010)
(-0.039125 0.276972 0.000010)
(-1.376065 -2.815081 0.000010)
(-0.951586 -1.492453 0.000010)
(-0.556957 -0.692646 0.000010)
(0.243993 -0.041101 0.000010)
(2.089103 2.373543 0.000010)
(5.859048 5.976166 0.000010)
(12.208529 11.232585 0.000010)
(19.987521 16.198800 0.000010)
(28.272610 20.040919 0.000010)
(34.686775 21.723175 0.000010)
(31.834342 18.608273 0.000010)
(70.878987 28.899111 0.000010)
(-37.812973 -13.417215 0.000010)
(-189.199294 -56.429768 0.000010)
(-145.811298 -28.456094 0.000010)
(-71.840254 -6.122808 0.000010)
(32.815436 1.240197 0.000010)
(69.949419 -1.836124 0.000010)
(45.454714 -6.021899 0.000010)
(41.255822 -6.206841 0.000010)
(14.378340 -3.644786 0.000010)
(1.536495 -2.848474 0.000010)
(2.388095 -3.208957 0.000010)
(6.469638 -4.072929 0.000010)
(4.863158 -2.618525 0.000010)
(0.335572 0.557252 0.000010)
(1.091139 0.718186 0.000010)
(1.871918 0.042650 0.000010)
(1.297394 -0.116509 0.000010)
(0.819585 -0.177251 0.000010)
(0.561897 -0.219981 0.000010)
(0.378327 -0.224643 0.000010)
(0.218863 -0.156810 0.000010)
(0.076502 -0.047461 0.000010)
(0.012801 0.000628 0.000010)
(-0.018039 0.028773 0.000010)
(-0.032137 0.047556 0.000010)
(-0.033420 0.052543 0.000010)
(-0.028775 0.048699 0.000010)
(-0.022362 0.039334 0.000010)
(-0.015903 0.026454 0.000010)
(-0.009982 0.016138 -0.000048)
(-93.374773 0.008688 -0.000107)
(93.368739 0.001806 -0.000107)
(-0.002395 0.003318 -0.000107)
(-0.002715 0.003416 -0.000107)
(-0.026025 0.058538 -0.000107)
(-0.032160 0.089649 -0.000107)
(-0.010386 0.048009 -0.000107)
(-0.005344 0.026662 -0.000107)
(-0.003793 0.019307 -0.000107)
(-0.002811 0.014569 -0.000107)
(-0.002148 0.012410 -0.000142)
(-0.001722 0.010825 -0.000178)
(-0.001464 0.009789 -0.000178)
(-0.001246 0.008286 -0.000178)
(-0.001081 0.006836 -0.000178)
(-0.000952 0.005774 -0.000178)
(-0.000630 0.003947 -0.000178)
(-0.000364 0.004305 -0.000178)
(-0.000162 0.005284 -0.000178)
(0.000962 -0.006498 -0.000178)
)
;
    }
}
