/*--------------------------------*- C++ -*---------------------------------*\ 
| ========                 |                                                 | 
| \      /  F ield         | OpenFOAM: The Open Source CFD Toolbox           | 
|  \    /   O peration     | Version:  v1812                                 | 
|   \  /    A nd           | Web:      www.OpenFOAM.com                      | 
|    \/     M anipulation  |                                                 | 
\*--------------------------------------------------------------------------*/ 
FoamFile
{
    version     2.0;
    format      ascii;
    class       volVectorField;
    location    "/home/james/dafoam/myRuns/bezier_coanda_opt/0.00000000001/";
    object      sens_CL_shapey;
}
// * * * * * * * * * * * * * * * * * * * * * * * * * * * * * * * * * * * * * //

dimensions      [0 0 0 0 0 0 0];
internalField   uniform (0 0 0);
boundaryField
{
    allWalls
    {
        type  wall;
        value nonuniform List<vector>
188
(
(-0.005093 0.005065 0.000238)
(-0.015314 0.006075 0.000249)
(-0.039891 0.024510 0.000248)
(-0.069258 0.043247 0.000246)
(-0.060631 0.047041 0.000245)
(-0.036813 0.036796 0.000244)
(-0.009848 0.020550 0.000242)
(-0.014985 0.030815 0.000241)
(-0.015873 0.032508 0.000240)
(-0.011865 0.028511 0.000239)
(-0.012335 0.033060 0.000237)
(-0.009877 0.031044 0.000236)
(-0.008206 0.029206 0.000424)
(-0.008468 0.033595 0.000617)
(-0.008871 0.038670 0.000626)
(-0.008620 0.042945 0.000636)
(-0.008465 0.047863 0.000646)
(-0.007667 0.050241 0.000656)
(-0.007270 0.056542 0.001252)
(-0.006591 0.062439 0.001964)
(-0.005639 0.068521 0.002213)
(-0.004756 0.081474 0.002472)
(-0.003116 0.084637 0.002733)
(-0.000946 0.107538 0.002986)
(0.002272 0.145534 0.002643)
(0.006647 0.153493 0.002007)
(0.010828 0.153487 0.001635)
(0.015170 0.159079 0.001258)
(0.019396 0.164635 0.000937)
(0.023461 0.169265 0.000669)
(0.027520 0.174775 0.000453)
(0.031239 0.178822 0.000236)
(0.034750 0.182626 0.000048)
(0.037959 0.185823 -0.000176)
(0.040743 0.187823 -0.000323)
(0.043349 0.188713 -0.000300)
(0.045470 0.188386 -0.000277)
(0.046783 0.186682 -0.000270)
(0.047468 0.183315 -0.000277)
(0.047632 0.178759 -0.000226)
(0.047307 0.173111 -0.000172)
(0.046076 0.164867 -0.000172)
(0.043735 0.153377 -0.000212)
(0.041596 0.143401 -0.000212)
(0.041617 0.141410 -0.000172)
(0.039304 0.131877 -0.000172)
(0.026665 0.089096 -0.000185)
(0.027160 0.094748 -0.000189)
(0.042860 0.159423 -0.000179)
(0.000690 -0.043359 -0.000179)
(0.000254 -0.006929 -0.000179)
(-0.002000 0.003840 -0.000179)
(-0.002677 0.004636 -0.000155)
(-0.003614 0.008688 -0.000071)
(-0.005979 0.015681 -0.000091)
(-0.008937 0.023621 -0.000172)
(-0.012072 0.033131 -0.000172)
(-0.014491 0.042649 -0.000172)
(-0.015660 0.050060 -0.000172)
(-0.015770 0.055142 -0.000172)
(-0.011130 0.044309 -0.000084)
(0.000612 0.008339 0.000047)
(0.010419 -0.030055 0.000100)
(0.012152 -0.046655 0.000124)
(0.008323 -0.038957 0.000150)
(0.001802 -0.014750 0.000188)
(-0.003097 0.008535 0.000217)
(-0.005561 0.024108 0.000236)
(-0.007041 0.037550 0.000265)
(-0.007696 0.048892 0.000317)
(-0.007561 0.057699 0.000383)
(-0.006803 0.064096 0.000441)
(-0.005614 0.069374 0.000525)
(-0.004091 0.074664 0.000585)
(-0.002269 0.076708 0.000585)
(-0.000298 0.083264 0.000585)
(0.001267 0.073656 0.000410)
(0.002194 0.050920 0.000198)
(0.003291 0.048605 0.000141)
(0.004068 0.047127 0.000097)
(0.004218 0.039581 0.000062)
(0.004508 0.035720 0.000035)
(0.005091 0.033998 0.000285)
(0.004666 0.027373 0.000546)
(0.004830 0.024362 0.000546)
(0.006156 0.027730 0.000546)
(0.005458 0.022674 0.000546)
(0.004551 0.017429 0.000547)
(0.004077 0.014522 0.000375)
(0.005949 0.016580 0.000204)
(0.007449 0.016808 0.000207)
(0.006935 0.009503 0.000209)
(0.005853 0.001632 0.000212)
(0.003724 -0.004554 0.000214)
(0.006517 0.000661 0.000216)
(0.010298 0.013856 0.000218)
(0.004160 0.010054 0.000221)
(0.005414 -0.004821 0.000222)
(0.023913 -0.001565 0.000224)
(0.027238 0.004495 0.000226)
(-0.018217 -0.063177 -0.000179)
(0.009300 0.159740 -0.000179)
(0.005765 0.154178 -0.000179)
(0.003802 0.142747 -0.000179)
(0.005100 0.183603 -0.000179)
(0.007047 0.239458 -0.000179)
(0.008675 0.285022 -0.000179)
(0.011188 0.364467 -0.000179)
(0.015493 0.506939 -0.000179)
(0.019220 0.657218 -0.000143)
(0.020854 0.717493 -0.000107)
(0.029370 1.113947 -0.000107)
(0.127417 3.403148 -0.000107)
(0.143832 5.991018 -0.000107)
(-6.130528 -23.629378 -0.000107)
(135.460367 -255.317502 -0.000107)
(-15.617281 -13.027872 -0.000107)
(-15.623057 -6.947204 -0.000107)
(-13.397778 -21.687642 -0.000107)
(-111.976129 244.434932 -0.000107)
(7.677821 89.637156 -0.000049)
(7.011379 41.626814 0.000010)
(2.388313 21.810837 0.000010)
(-1.094126 -2.907574 0.000010)
(1.218173 3.709623 0.000010)
(-0.046418 0.265598 0.000010)
(-1.410076 -2.891407 0.000010)
(-0.980192 -1.543674 0.000010)
(-0.570103 -0.714937 0.000010)
(0.252438 -0.040340 0.000010)
(2.146791 2.435199 0.000010)
(5.996694 6.116156 0.000010)
(12.453842 11.459340 0.000010)
(20.451442 16.570677 0.000010)
(28.869481 20.464293 0.000010)
(35.044425 21.962632 0.000010)
(31.910157 18.674151 0.000010)
(71.769177 29.257502 0.000010)
(-38.708000 -13.636996 0.000010)
(-193.573642 -57.600137 0.000010)
(-149.436326 -29.139496 0.000010)
(-72.662472 -6.033577 0.000010)
(34.229835 1.421711 0.000010)
(71.651330 -1.877404 0.000010)
(46.584798 -6.096192 0.000010)
(42.373709 -6.209462 0.000010)
(15.000420 -3.619179 0.000010)
(1.727066 -2.866721 0.000010)
(2.494204 -3.249757 0.000010)
(6.587642 -4.123683 0.000010)
(4.917985 -2.654550 0.000010)
(0.302775 0.570572 0.000010)
(1.075207 0.733891 0.000010)
(1.882514 0.046598 0.000010)
(1.305296 -0.113992 0.000010)
(0.823154 -0.174882 0.000010)
(0.564191 -0.218732 0.000010)
(0.379840 -0.224190 0.000010)
(0.219356 -0.156055 0.000010)
(0.075882 -0.045825 0.000010)
(0.011921 0.002349 0.000010)
(-0.018881 0.030344 0.000010)
(-0.032864 0.048946 0.000010)
(-0.033980 0.053664 0.000010)
(-0.029172 0.049522 0.000010)
(-0.022631 0.039877 0.000010)
(-0.016085 0.026770 0.000010)
(-0.010090 0.016333 -0.000049)
(-93.374847 0.008815 -0.000107)
(93.368756 0.001841 -0.000107)
(-0.002417 0.003380 -0.000107)
(-0.002710 0.003456 -0.000107)
(-0.026200 0.058955 -0.000107)
(-0.032419 0.090151 -0.000107)
(-0.010479 0.048061 -0.000107)
(-0.005399 0.026591 -0.000107)
(-0.003838 0.019237 -0.000107)
(-0.002849 0.014512 -0.000107)
(-0.002173 0.012377 -0.000143)
(-0.001737 0.010807 -0.000179)
(-0.001478 0.009776 -0.000179)
(-0.001259 0.008308 -0.000179)
(-0.001092 0.006872 -0.000179)
(-0.000962 0.005807 -0.000179)
(-0.000643 0.003995 -0.000179)
(-0.000378 0.004336 -0.000179)
(-0.000176 0.005286 -0.000179)
(0.000942 -0.006415 -0.000179)
)
;
    }
}
