/*--------------------------------*- C++ -*---------------------------------*\ 
| ========                 |                                                 | 
| \      /  F ield         | OpenFOAM: The Open Source CFD Toolbox           | 
|  \    /   O peration     | Version:  v1812                                 | 
|   \  /    A nd           | Web:      www.OpenFOAM.com                      | 
|    \/     M anipulation  |                                                 | 
\*--------------------------------------------------------------------------*/ 
FoamFile
{
    version     2.0;
    format      ascii;
    class       volVectorField;
    location    "/home/james/dafoam/myRuns/bezier_coanda_opt/0.00000000001/";
    object      sens_CL_shapey;
}
// * * * * * * * * * * * * * * * * * * * * * * * * * * * * * * * * * * * * * //

dimensions      [0 0 0 0 0 0 0];
internalField   uniform (0 0 0);
boundaryField
{
    allWalls
    {
        type  wall;
        value nonuniform List<vector>
188
(
(-0.001534 0.005398 0.000244)
(-0.011688 0.005341 0.000255)
(-0.041978 0.026818 0.000254)
(-0.077960 0.048608 0.000252)
(-0.069639 0.055266 0.000251)
(-0.043970 0.044160 0.000250)
(-0.011417 0.022890 0.000248)
(-0.012042 0.027254 0.000247)
(-0.014101 0.031386 0.000246)
(-0.012382 0.029981 0.000244)
(-0.011722 0.032469 0.000243)
(-0.009736 0.031175 0.000242)
(-0.007531 0.027715 0.000437)
(-0.008166 0.032945 0.000636)
(-0.008713 0.038323 0.000645)
(-0.008638 0.043251 0.000655)
(-0.008549 0.048452 0.000665)
(-0.007736 0.050741 0.000674)
(-0.007366 0.057309 0.001275)
(-0.006703 0.063505 0.001996)
(-0.005732 0.069725 0.002252)
(-0.004856 0.083440 0.002517)
(-0.003150 0.085420 0.002785)
(-0.000895 0.109727 0.003044)
(0.002400 0.150332 0.002682)
(0.006876 0.157102 0.002021)
(0.011296 0.158489 0.001641)
(0.015860 0.165295 0.001258)
(0.020235 0.170638 0.000932)
(0.024496 0.175746 0.000663)
(0.028715 0.181375 0.000445)
(0.032603 0.185644 0.000222)
(0.036272 0.189637 0.000028)
(0.039632 0.193025 -0.000195)
(0.042522 0.195037 -0.000340)
(0.045186 0.195821 -0.000318)
(0.047344 0.195351 -0.000295)
(0.048670 0.193416 -0.000287)
(0.049327 0.189712 -0.000293)
(0.049442 0.184786 -0.000239)
(0.049036 0.178702 -0.000183)
(0.047648 0.169803 -0.000183)
(0.045064 0.157434 -0.000222)
(0.042813 0.147120 -0.000222)
(0.043108 0.146166 -0.000183)
(0.040663 0.136392 -0.000183)
(0.026433 0.089092 -0.000194)
(0.027587 0.097926 -0.000195)
(0.046602 0.175482 -0.000185)
(-0.001745 -0.057970 -0.000185)
(0.000180 -0.006647 -0.000185)
(-0.002071 0.003919 -0.000185)
(-0.002766 0.004862 -0.000159)
(-0.003761 0.009122 -0.000082)
(-0.006121 0.016172 -0.000107)
(-0.008957 0.023769 -0.000183)
(-0.012107 0.033369 -0.000183)
(-0.014037 0.041309 -0.000183)
(-0.015697 0.050512 -0.000183)
(-0.015703 0.055291 -0.000183)
(-0.009870 0.040129 -0.000095)
(0.001189 0.005905 0.000034)
(0.010091 -0.029585 0.000085)
(0.011636 -0.045162 0.000109)
(0.007885 -0.037354 0.000135)
(0.001480 -0.013258 0.000174)
(-0.003298 0.009745 0.000203)
(-0.005664 0.024972 0.000223)
(-0.007080 0.038138 0.000253)
(-0.007684 0.049205 0.000307)
(-0.007514 0.057778 0.000374)
(-0.006744 0.064068 0.000431)
(-0.005554 0.069255 0.000515)
(-0.004033 0.074392 0.000575)
(-0.002221 0.076478 0.000578)
(-0.000267 0.082733 0.000585)
(0.001276 0.072972 0.000416)
(0.002188 0.050662 0.000206)
(0.003254 0.048191 0.000146)
(0.004014 0.046622 0.000099)
(0.004171 0.039293 0.000062)
(0.004442 0.035368 0.000032)
(0.005003 0.033597 0.000293)
(0.004585 0.027067 0.000566)
(0.004749 0.024114 0.000566)
(0.006009 0.027259 0.000566)
(0.005336 0.022305 0.000566)
(0.004490 0.017302 0.000567)
(0.003998 0.014350 0.000387)
(0.005764 0.016247 0.000209)
(0.007201 0.016463 0.000212)
(0.006704 0.009434 0.000214)
(0.005712 0.001897 0.000217)
(0.003553 -0.004359 0.000219)
(0.006046 0.000230 0.000222)
(0.009648 0.012698 0.000224)
(0.003805 0.008019 0.000226)
(0.007360 -0.007051 0.000228)
(0.030189 -0.001863 0.000230)
(0.034993 0.005463 0.000231)
(-0.021940 -0.083047 -0.000185)
(0.011627 0.173155 -0.000185)
(0.006984 0.167688 -0.000185)
(0.004014 0.148798 -0.000185)
(0.005128 0.185617 -0.000185)
(0.007121 0.246998 -0.000185)
(0.008711 0.295367 -0.000185)
(0.011151 0.377998 -0.000185)
(0.015337 0.524912 -0.000185)
(0.018757 0.678861 -0.000148)
(0.020324 0.763483 -0.000111)
(0.027813 1.214923 -0.000111)
(0.122563 3.512957 -0.000111)
(0.115031 5.884190 -0.000111)
(-5.672712 -23.807467 -0.000111)
(152.060024 -265.920714 -0.000111)
(-15.712584 -13.600370 -0.000111)
(-16.510903 -7.346988 -0.000111)
(-13.423708 -21.287029 -0.000111)
(-127.786091 253.495399 -0.000111)
(8.147879 95.293635 -0.000051)
(7.578120 44.163036 0.000009)
(2.572201 23.206760 0.000009)
(-1.203810 -3.222383 0.000009)
(1.257507 3.825889 0.000009)
(-0.066627 0.235388 0.000009)
(-1.513268 -3.123200 0.000009)
(-1.067277 -1.700351 0.000009)
(-0.607323 -0.777583 0.000009)
(0.281836 -0.031698 0.000009)
(2.325995 2.628543 0.000009)
(6.409947 6.538145 0.000009)
(13.176556 12.129817 0.000009)
(21.833613 17.679272 0.000009)
(30.634492 21.717423 0.000009)
(35.968865 22.594226 0.000009)
(31.919908 18.751123 0.000009)
(74.181327 30.230728 0.000009)
(-41.297518 -14.221011 0.000009)
(-206.560168 -61.014301 0.000009)
(-160.332421 -31.158782 0.000009)
(-74.622124 -5.597720 0.000009)
(38.777148 2.076032 0.000009)
(76.668825 -2.008434 0.000009)
(49.899388 -6.325646 0.000009)
(45.620655 -6.262140 0.000009)
(16.822181 -3.618775 0.000009)
(2.235373 -2.952277 0.000009)
(2.768533 -3.369111 0.000009)
(6.936712 -4.279749 0.000009)
(5.084152 -2.774325 0.000009)
(0.199329 0.606526 0.000009)
(1.024392 0.780222 0.000009)
(1.915754 0.057027 0.000009)
(1.330499 -0.106813 0.000009)
(0.835039 -0.166996 0.000009)
(0.572378 -0.213676 0.000009)
(0.385916 -0.221428 0.000009)
(0.222478 -0.152398 0.000009)
(0.075633 -0.039643 0.000009)
(0.010799 0.008535 0.000009)
(-0.020052 0.035815 0.000009)
(-0.033890 0.053638 0.000009)
(-0.034704 0.057357 0.000009)
(-0.029597 0.052170 0.000009)
(-0.022838 0.041593 0.000009)
(-0.016173 0.027759 0.000009)
(-0.010052 0.016953 -0.000051)
(-93.374841 0.009227 -0.000111)
(93.368852 0.001952 -0.000111)
(-0.002418 0.003579 -0.000111)
(-0.002605 0.003587 -0.000111)
(-0.026127 0.060208 -0.000111)
(-0.032393 0.091621 -0.000111)
(-0.010409 0.048156 -0.000111)
(-0.005426 0.026309 -0.000111)
(-0.003905 0.018942 -0.000111)
(-0.002922 0.014264 -0.000111)
(-0.002228 0.012237 -0.000148)
(-0.001774 0.010774 -0.000185)
(-0.001518 0.009831 -0.000185)
(-0.001301 0.008505 -0.000185)
(-0.001133 0.007146 -0.000185)
(-0.001001 0.006095 -0.000185)
(-0.000685 0.004319 -0.000185)
(-0.000423 0.004586 -0.000185)
(-0.000218 0.005422 -0.000185)
(0.000884 -0.006099 -0.000185)
)
;
    }
}
