/*--------------------------------*- C++ -*---------------------------------*\ 
| ========                 |                                                 | 
| \      /  F ield         | OpenFOAM: The Open Source CFD Toolbox           | 
|  \    /   O peration     | Version:  v1812                                 | 
|   \  /    A nd           | Web:      www.OpenFOAM.com                      | 
|    \/     M anipulation  |                                                 | 
\*--------------------------------------------------------------------------*/ 
FoamFile
{
    version     2.0;
    format      ascii;
    class       volVectorField;
    location    "/home/james/dafoam/myRuns/bezier_coanda_opt/0.00000000001/";
    object      sens_CL_shapey;
}
// * * * * * * * * * * * * * * * * * * * * * * * * * * * * * * * * * * * * * //

dimensions      [0 0 0 0 0 0 0];
internalField   uniform (0 0 0);
boundaryField
{
    allWalls
    {
        type  wall;
        value nonuniform List<vector>
188
(
(-0.002598 0.005327 0.000242)
(-0.012646 0.005535 0.000253)
(-0.041389 0.026212 0.000252)
(-0.075611 0.047188 0.000250)
(-0.067472 0.053616 0.000249)
(-0.042550 0.042785 0.000248)
(-0.011290 0.022413 0.000247)
(-0.012025 0.026850 0.000245)
(-0.014153 0.031198 0.000244)
(-0.012537 0.030111 0.000243)
(-0.011794 0.032468 0.000241)
(-0.009827 0.031262 0.000240)
(-0.007692 0.028072 0.000432)
(-0.008271 0.033195 0.000630)
(-0.008750 0.038403 0.000638)
(-0.008637 0.043187 0.000648)
(-0.008522 0.048282 0.000658)
(-0.007719 0.050617 0.000667)
(-0.007338 0.057094 0.001269)
(-0.006673 0.063220 0.001989)
(-0.005706 0.069397 0.002243)
(-0.004828 0.082887 0.002507)
(-0.003138 0.085111 0.002773)
(-0.000907 0.109251 0.003030)
(0.002368 0.149297 0.002670)
(0.006793 0.155827 0.002011)
(0.011164 0.156985 0.001634)
(0.015682 0.163774 0.001253)
(0.020005 0.169001 0.000929)
(0.024215 0.174018 0.000661)
(0.028380 0.179539 0.000443)
(0.032225 0.183771 0.000224)
(0.035852 0.187724 0.000034)
(0.039169 0.191052 -0.000189)
(0.042034 0.193082 -0.000333)
(0.044680 0.193887 -0.000310)
(0.046823 0.193439 -0.000287)
(0.048153 0.191597 -0.000281)
(0.048816 0.187977 -0.000289)
(0.048941 0.183140 -0.000236)
(0.048568 0.177215 -0.000180)
(0.047226 0.168503 -0.000180)
(0.044697 0.156331 -0.000219)
(0.042471 0.146087 -0.000219)
(0.042701 0.144892 -0.000180)
(0.040300 0.135209 -0.000180)
(0.026503 0.089126 -0.000192)
(0.027489 0.097135 -0.000193)
(0.045615 0.171246 -0.000183)
(-0.001094 -0.054075 -0.000183)
(0.000201 -0.006710 -0.000183)
(-0.002050 0.003914 -0.000183)
(-0.002735 0.004804 -0.000158)
(-0.003689 0.008931 -0.000076)
(-0.006066 0.015972 -0.000100)
(-0.008958 0.023704 -0.000180)
(-0.012116 0.033339 -0.000180)
(-0.014302 0.042163 -0.000180)
(-0.015735 0.050455 -0.000180)
(-0.015574 0.054499 -0.000180)
(-0.010103 0.040750 -0.000092)
(0.001049 0.006526 0.000040)
(0.010150 -0.029569 0.000094)
(0.011769 -0.045526 0.000118)
(0.008010 -0.037804 0.000144)
(0.001561 -0.013626 0.000180)
(-0.003257 0.009484 0.000209)
(-0.005645 0.024784 0.000231)
(-0.007075 0.038009 0.000260)
(-0.007692 0.049152 0.000310)
(-0.007530 0.057777 0.000374)
(-0.006763 0.064086 0.000430)
(-0.005572 0.069290 0.000516)
(-0.004050 0.074465 0.000575)
(-0.002235 0.076541 0.000578)
(-0.000276 0.082873 0.000583)
(0.001273 0.073158 0.000413)
(0.002189 0.050734 0.000205)
(0.003264 0.048301 0.000146)
(0.004029 0.046760 0.000100)
(0.004184 0.039371 0.000063)
(0.004459 0.035459 0.000034)
(0.005028 0.033706 0.000291)
(0.004607 0.027148 0.000559)
(0.004771 0.024179 0.000559)
(0.006049 0.027387 0.000559)
(0.005369 0.022401 0.000560)
(0.004506 0.017333 0.000561)
(0.004019 0.014394 0.000384)
(0.005814 0.016337 0.000208)
(0.007267 0.016553 0.000210)
(0.006766 0.009449 0.000213)
(0.005747 0.001818 0.000215)
(0.003598 -0.004415 0.000218)
(0.006173 0.000349 0.000220)
(0.009819 0.013010 0.000222)
(0.003902 0.008560 0.000224)
(0.006879 -0.006447 0.000226)
(0.028586 -0.001761 0.000228)
(0.032923 0.005212 0.000230)
(-0.020946 -0.077729 -0.000183)
(0.011012 0.169631 -0.000183)
(0.006665 0.164103 -0.000183)
(0.003966 0.147195 -0.000183)
(0.005132 0.185104 -0.000183)
(0.007115 0.244991 -0.000183)
(0.008717 0.292609 -0.000183)
(0.011180 0.374379 -0.000183)
(0.015403 0.520080 -0.000183)
(0.018913 0.673019 -0.000147)
(0.020509 0.751074 -0.000110)
(0.028300 1.187705 -0.000110)
(0.124009 3.483107 -0.000110)
(0.122958 5.911933 -0.000110)
(-5.796545 -23.766023 -0.000110)
(147.418381 -262.937062 -0.000110)
(-15.690089 -13.444944 -0.000110)
(-16.268396 -7.237035 -0.000110)
(-13.414233 -21.400448 -0.000110)
(-123.361042 250.953105 -0.000110)
(8.017773 93.711471 -0.000051)
(7.421076 43.456077 0.000009)
(2.521292 22.820053 0.000009)
(-1.173765 -3.135923 0.000009)
(1.246432 3.792958 0.000009)
(-0.061562 0.242702 0.000009)
(-1.485293 -3.060327 0.000009)
(-1.043527 -1.657459 0.000009)
(-0.598074 -0.762232 0.000009)
(0.272846 -0.035838 0.000009)
(2.276396 2.574564 0.000009)
(6.299133 6.424504 0.000009)
(12.986537 11.952840 0.000009)
(21.465310 17.383743 0.000009)
(30.168372 21.386180 0.000009)
(35.762612 22.449302 0.000009)
(31.978147 18.764268 0.000009)
(73.608109 29.999244 0.000009)
(-40.623043 -14.082312 0.000009)
(-203.110886 -60.123343 0.000009)
(-157.401574 -30.621739 0.000009)
(-74.212858 -5.750136 0.000009)
(37.484416 1.877524 0.000009)
(75.336810 -1.972060 0.000009)
(49.022327 -6.266768 0.000009)
(44.762854 -6.248532 0.000009)
(16.332205 -3.612541 0.000009)
(2.101487 -2.925555 0.000009)
(2.691926 -3.335172 0.000009)
(6.843916 -4.238111 0.000009)
(5.043760 -2.742767 0.000009)
(0.228933 0.597892 0.000009)
(1.040907 0.768238 0.000009)
(1.909127 0.054487 0.000009)
(1.325283 -0.108359 0.000009)
(0.833056 -0.168631 0.000009)
(0.571210 -0.214486 0.000009)
(0.385220 -0.221611 0.000009)
(0.222488 -0.152838 0.000009)
(0.076464 -0.040811 0.000009)
(0.011774 0.007291 0.000009)
(-0.019164 0.034688 0.000009)
(-0.033139 0.052649 0.000009)
(-0.034121 0.056575 0.000009)
(-0.029169 0.051616 0.000009)
(-0.022530 0.041249 0.000009)
(-0.015947 0.027580 0.000009)
(-0.009901 0.016854 -0.000051)
(-93.374740 0.009161 -0.000110)
(93.368841 0.001930 -0.000110)
(-0.002392 0.003538 -0.000110)
(-0.002600 0.003566 -0.000110)
(-0.025915 0.059974 -0.000110)
(-0.032062 0.091374 -0.000110)
(-0.010248 0.048201 -0.000110)
(-0.005335 0.026404 -0.000110)
(-0.003842 0.019019 -0.000110)
(-0.002875 0.014322 -0.000110)
(-0.002201 0.012267 -0.000147)
(-0.001760 0.010782 -0.000183)
(-0.001503 0.009831 -0.000183)
(-0.001287 0.008481 -0.000183)
(-0.001119 0.007109 -0.000183)
(-0.000988 0.006054 -0.000183)
(-0.000673 0.004264 -0.000183)
(-0.000411 0.004545 -0.000183)
(-0.000207 0.005405 -0.000183)
(0.000901 -0.006174 -0.000183)
)
;
    }
}
