/*--------------------------------*- C++ -*---------------------------------*\ 
| ========                 |                                                 | 
| \      /  F ield         | OpenFOAM: The Open Source CFD Toolbox           | 
|  \    /   O peration     | Version:  v1812                                 | 
|   \  /    A nd           | Web:      www.OpenFOAM.com                      | 
|    \/     M anipulation  |                                                 | 
\*--------------------------------------------------------------------------*/ 
FoamFile
{
    version     2.0;
    format      ascii;
    class       volVectorField;
    location    "/home/james/dafoam/myRuns/bezier_coanda_opt/0.00000000001/";
    object      sens_CL_shapey;
}
// * * * * * * * * * * * * * * * * * * * * * * * * * * * * * * * * * * * * * //

dimensions      [0 0 0 0 0 0 0];
internalField   uniform (0 0 0);
boundaryField
{
    allWalls
    {
        type  wall;
        value nonuniform List<vector>
188
(
(-0.010914 0.003875 0.000224)
(-0.021731 0.007308 0.000235)
(-0.034771 0.019278 0.000234)
(-0.048228 0.030766 0.000232)
(-0.042654 0.033542 0.000231)
(-0.025145 0.024864 0.000229)
(-0.010254 0.017654 0.000228)
(-0.014862 0.026698 0.000226)
(-0.015495 0.029793 0.000225)
(-0.013942 0.030925 0.000223)
(-0.013102 0.033390 0.000221)
(-0.010888 0.032329 0.000220)
(-0.009490 0.032009 0.000400)
(-0.009307 0.035582 0.000586)
(-0.009030 0.038609 0.000594)
(-0.008754 0.043037 0.000604)
(-0.008383 0.046907 0.000613)
(-0.007480 0.048979 0.000622)
(-0.007060 0.054719 0.001196)
(-0.006327 0.060013 0.001880)
(-0.005456 0.065953 0.002116)
(-0.004507 0.076643 0.002361)
(-0.003033 0.082371 0.002608)
(-0.001042 0.103143 0.002848)
(0.002029 0.137028 0.002513)
(0.005971 0.143067 0.001901)
(0.009755 0.140777 0.001548)
(0.013743 0.146520 0.001189)
(0.017538 0.151000 0.000883)
(0.021203 0.155001 0.000630)
(0.024816 0.159560 0.000371)
(0.028180 0.163257 0.000148)
(0.031366 0.166794 0.000010)
(0.034258 0.169632 -0.000120)
(0.036806 0.171589 -0.000183)
(0.039270 0.172650 -0.000169)
(0.041305 0.172617 -0.000215)
(0.042588 0.171424 -0.000265)
(0.043335 0.168825 -0.000264)
(0.043604 0.165076 -0.000190)
(0.043417 0.160262 -0.000111)
(0.042508 0.153403 -0.000183)
(0.040734 0.144011 -0.000245)
(0.038851 0.134828 -0.000232)
(0.038196 0.130258 -0.000229)
(0.036151 0.121193 -0.000215)
(0.027117 0.088881 -0.000192)
(0.025880 0.086416 -0.000170)
(0.033805 0.120508 -0.000165)
(0.006591 -0.008153 -0.000165)
(0.000421 -0.007599 -0.000165)
(-0.001877 0.003742 -0.000165)
(-0.002539 0.004274 -0.000140)
(-0.003423 0.008101 -0.000077)
(-0.005817 0.015137 -0.000060)
(-0.008893 0.023466 -0.000076)
(-0.012152 0.033208 -0.000065)
(-0.014970 0.043783 -0.000051)
(-0.016248 0.051250 -0.000033)
(-0.016810 0.057810 -0.000021)
(-0.013040 0.050689 0.000020)
(-0.000442 0.013073 0.000026)
(0.010942 -0.030261 -0.000003)
(0.013391 -0.050238 0.000005)
(0.009627 -0.043867 0.000014)
(0.002804 -0.019358 0.000167)
(-0.002452 0.004849 0.000177)
(-0.005172 0.021328 0.000184)
(-0.006841 0.035576 0.000438)
(-0.007655 0.047720 0.000498)
(-0.007623 0.057173 0.000478)
(-0.006912 0.063946 0.000536)
(-0.005739 0.069530 0.000732)
(-0.004217 0.075220 0.000784)
(-0.002372 0.077237 0.000775)
(-0.000369 0.084461 0.000749)
(0.001253 0.075431 0.000409)
(0.002187 0.051252 0.000171)
(0.003293 0.048579 0.000119)
(0.004282 0.049126 0.000080)
(0.004410 0.041043 0.000051)
(0.004611 0.036097 0.000029)
(0.005295 0.034953 0.000268)
(0.004847 0.028043 0.000517)
(0.005004 0.024882 0.000517)
(0.006498 0.028823 0.000518)
(0.005727 0.023488 0.000518)
(0.004671 0.017663 0.000519)
(0.004259 0.014931 0.000354)
(0.006362 0.017315 0.000191)
(0.008012 0.017565 0.000193)
(0.007452 0.009586 0.000196)
(0.006188 0.000978 0.000198)
(0.004083 -0.005087 0.000200)
(0.007611 0.001657 0.000202)
(0.011814 0.016765 0.000204)
(0.004547 0.014981 0.000206)
(-0.000115 0.000073 0.000208)
(0.008539 -0.001310 0.000210)
(0.009643 0.002186 0.000211)
(-0.009297 -0.015781 -0.000165)
(0.003676 0.127023 -0.000165)
(0.002800 0.121977 -0.000165)
(0.003244 0.128644 -0.000165)
(0.004957 0.178854 -0.000165)
(0.006731 0.221759 -0.000165)
(0.008411 0.260880 -0.000165)
(0.011046 0.333045 -0.000165)
(0.015540 0.465472 -0.000165)
(0.019893 0.607619 -0.000132)
(0.021535 0.611221 -0.000098)
(0.032007 0.880053 -0.000098)
(0.136876 3.155867 -0.000098)
(0.209242 6.261800 -0.000098)
(-7.187089 -23.102784 -0.000098)
(99.695589 -232.889701 -0.000098)
(-15.354060 -11.711453 -0.000098)
(-13.625618 -6.058027 -0.000098)
(-13.392527 -22.533912 -0.000098)
(-77.969282 225.166489 -0.000098)
(6.640468 77.442265 -0.000043)
(5.762854 36.127004 0.000011)
(1.980661 18.754763 0.000011)
(-0.852924 -2.215029 0.000011)
(1.135623 3.467218 0.000011)
(0.007327 0.351845 0.000011)
(-1.172543 -2.359617 0.000011)
(-0.778920 -1.184992 0.000011)
(-0.468636 -0.542245 0.000011)
(0.203471 -0.028032 0.000011)
(1.753132 2.018562 0.000011)
(5.032233 5.138965 0.000011)
(10.708217 9.850218 0.000011)
(17.171307 13.942817 0.000011)
(24.619578 17.451668 0.000011)
(32.274128 20.128284 0.000011)
(31.002078 18.003185 0.000011)
(64.943270 26.492176 0.000011)
(-32.874991 -12.232778 0.000011)
(-162.924599 -49.352484 0.000011)
(-123.503135 -24.116197 0.000011)
(-65.128189 -6.132546 0.000011)
(25.319375 0.480385 0.000011)
(59.303717 -1.562455 0.000011)
(38.085000 -5.548176 0.000011)
(33.995038 -6.330259 0.000011)
(10.762249 -4.053513 0.000011)
(0.176197 -2.670069 0.000011)
(1.579144 -2.872929 0.000011)
(6.102377 -3.866355 0.000011)
(4.566252 -2.428403 0.000011)
(0.490590 0.471226 0.000011)
(1.153752 0.607594 0.000011)
(1.760497 0.018036 0.000011)
(1.227376 -0.134224 0.000011)
(0.815552 -0.203729 0.000011)
(0.546934 -0.223212 0.000011)
(0.367561 -0.225669 0.000011)
(0.215276 -0.162304 0.000011)
(0.078340 -0.057609 0.000011)
(0.016218 -0.010280 0.000011)
(-0.014360 0.018270 0.000011)
(-0.028762 0.037958 0.000011)
(-0.030785 0.044490 0.000011)
(-0.026967 0.042578 0.000011)
(-0.021186 0.035063 0.000011)
(-0.015157 0.023984 0.000011)
(-0.009704 0.015061 -0.000043)
(-93.374544 0.007991 -0.000098)
(93.368532 0.001584 -0.000098)
(-0.002225 0.002837 -0.000098)
(-0.003066 0.003433 -0.000098)
(-0.026503 0.056362 -0.000098)
(-0.031918 0.086611 -0.000098)
(-0.010083 0.047654 -0.000098)
(-0.005125 0.027043 -0.000098)
(-0.003578 0.019676 -0.000098)
(-0.002619 0.014862 -0.000098)
(-0.002012 0.012541 -0.000132)
(-0.001636 0.010898 -0.000165)
(-0.001381 0.009907 -0.000165)
(-0.001162 0.008171 -0.000165)
(-0.001000 0.006595 -0.000165)
(-0.000882 0.005662 -0.000165)
(-0.000563 0.003795 -0.000165)
(-0.000293 0.004143 -0.000165)
(-0.000086 0.005183 -0.000165)
(0.001080 -0.007115 -0.000165)
)
;
    }
}
