/*--------------------------------*- C++ -*---------------------------------*\ 
| ========                 |                                                 | 
| \      /  F ield         | OpenFOAM: The Open Source CFD Toolbox           | 
|  \    /   O peration     | Version:  v1812                                 | 
|   \  /    A nd           | Web:      www.OpenFOAM.com                      | 
|    \/     M anipulation  |                                                 | 
\*--------------------------------------------------------------------------*/ 
FoamFile
{
    version     2.0;
    format      ascii;
    class       volVectorField;
    location    "/home/james/dafoam/myRuns/bezier_coanda_opt/0.00000000001/";
    object      sens_CL_shapey;
}
// * * * * * * * * * * * * * * * * * * * * * * * * * * * * * * * * * * * * * //

dimensions      [0 0 0 0 0 0 0];
internalField   uniform (0 0 0);
boundaryField
{
    allWalls
    {
        type  wall;
        value nonuniform List<vector>
188
(
(-0.011340 0.003767 0.000223)
(-0.022160 0.007383 0.000234)
(-0.034282 0.018833 0.000232)
(-0.046551 0.029775 0.000231)
(-0.041262 0.032481 0.000230)
(-0.024281 0.023970 0.000228)
(-0.010354 0.017505 0.000227)
(-0.014866 0.026402 0.000225)
(-0.015452 0.029562 0.000223)
(-0.014107 0.031131 0.000222)
(-0.013173 0.033444 0.000220)
(-0.010964 0.032430 0.000219)
(-0.009589 0.032235 0.000398)
(-0.009366 0.035716 0.000583)
(-0.009053 0.038669 0.000592)
(-0.008751 0.042985 0.000601)
(-0.008363 0.046787 0.000610)
(-0.007471 0.048914 0.000619)
(-0.007041 0.054578 0.001192)
(-0.006309 0.059839 0.001874)
(-0.005440 0.065750 0.002109)
(-0.004490 0.076286 0.002353)
(-0.003025 0.082189 0.002599)
(-0.001050 0.102816 0.002837)
(0.002011 0.136370 0.002507)
(0.005920 0.142273 0.001900)
(0.009674 0.139807 0.001548)
(0.013634 0.145563 0.001190)
(0.017396 0.149961 0.000885)
(0.021031 0.153915 0.000631)
(0.024610 0.158400 0.000374)
(0.027947 0.162073 0.000152)
(0.031107 0.165587 0.000014)
(0.033975 0.168398 -0.000116)
(0.036506 0.170358 -0.000180)
(0.038958 0.171426 -0.000166)
(0.040986 0.171413 -0.000211)
(0.042267 0.170265 -0.000261)
(0.043018 0.167720 -0.000261)
(0.043294 0.164031 -0.000188)
(0.043120 0.159287 -0.000109)
(0.042234 0.152527 -0.000181)
(0.040502 0.143292 -0.000243)
(0.038638 0.134173 -0.000231)
(0.037934 0.129408 -0.000228)
(0.035910 0.120380 -0.000215)
(0.027150 0.088870 -0.000191)
(0.025774 0.085752 -0.000169)
(0.033097 0.117456 -0.000164)
(0.007060 -0.005379 -0.000164)
(0.000437 -0.007653 -0.000164)
(-0.001865 0.003737 -0.000164)
(-0.002527 0.004245 -0.000140)
(-0.003406 0.008052 -0.000076)
(-0.005802 0.015090 -0.000059)
(-0.008887 0.023457 -0.000076)
(-0.012165 0.033237 -0.000065)
(-0.014999 0.043831 -0.000050)
(-0.016296 0.051371 -0.000032)
(-0.016901 0.058104 -0.000019)
(-0.013208 0.051255 0.000022)
(-0.000558 0.013542 0.000028)
(0.010981 -0.030255 -0.000001)
(0.013504 -0.050561 0.000007)
(0.009750 -0.044323 0.000016)
(0.002901 -0.019794 0.000169)
(-0.002387 0.004492 0.000179)
(-0.005132 0.021052 0.000185)
(-0.006819 0.035375 0.000439)
(-0.007648 0.047594 0.000499)
(-0.007627 0.057113 0.000478)
(-0.006918 0.063908 0.000537)
(-0.005748 0.069530 0.000733)
(-0.004228 0.075254 0.000785)
(-0.002381 0.077297 0.000779)
(-0.000377 0.084495 0.000753)
(0.001253 0.075549 0.000407)
(0.002207 0.051613 0.000169)
(0.003292 0.048537 0.000118)
(0.004268 0.048914 0.000079)
(0.004425 0.041183 0.000050)
(0.004629 0.036209 0.000029)
(0.005322 0.035079 0.000267)
(0.004861 0.028090 0.000515)
(0.005005 0.024851 0.000515)
(0.006528 0.028921 0.000515)
(0.005757 0.023584 0.000515)
(0.004687 0.017698 0.000516)
(0.004267 0.014946 0.000352)
(0.006392 0.017373 0.000190)
(0.008057 0.017641 0.000192)
(0.007493 0.009601 0.000195)
(0.006217 0.000930 0.000197)
(0.004118 -0.005126 0.000199)
(0.007705 0.001745 0.000201)
(0.011932 0.016995 0.000203)
(0.004587 0.015358 0.000205)
(-0.000543 0.000438 0.000207)
(0.007272 -0.001304 0.000209)
(0.008202 0.001997 0.000210)
(-0.008596 -0.012063 -0.000164)
(0.003234 0.124453 -0.000164)
(0.002567 0.119480 -0.000164)
(0.003201 0.127583 -0.000164)
(0.004945 0.178508 -0.000164)
(0.006704 0.220402 -0.000164)
(0.008388 0.259047 -0.000164)
(0.011031 0.330668 -0.000164)
(0.015539 0.462341 -0.000164)
(0.019938 0.603890 -0.000131)
(0.021576 0.603149 -0.000097)
(0.032182 0.862254 -0.000097)
(0.137567 3.137454 -0.000097)
(0.214194 6.283405 -0.000097)
(-7.266549 -23.060090 -0.000097)
(97.054589 -231.245025 -0.000097)
(-15.333194 -11.611461 -0.000097)
(-13.476639 -5.991445 -0.000097)
(-13.393853 -22.596165 -0.000097)
(-75.459113 223.750993 -0.000097)
(6.563025 76.539113 -0.000043)
(5.669802 35.719946 0.000011)
(1.949993 18.529291 0.000011)
(-0.835700 -2.165148 0.000011)
(1.129669 3.449515 0.000011)
(0.011730 0.359310 0.000011)
(-1.154451 -2.319228 0.000011)
(-0.763224 -1.157088 0.000011)
(-0.460200 -0.527961 0.000011)
(0.201087 -0.025173 0.000011)
(1.725207 1.989380 0.000011)
(4.960822 5.066842 0.000011)
(10.576138 9.728746 0.000011)
(16.923511 13.744359 0.000011)
(24.295083 17.221752 0.000011)
(32.045821 19.978353 0.000011)
(30.907091 17.937638 0.000011)
(64.368818 26.255862 0.000011)
(-32.545799 -12.170687 0.000011)
(-160.663238 -48.747521 0.000011)
(-121.455125 -23.703449 0.000011)
(-64.323365 -6.074262 0.000011)
(24.797278 0.451877 0.000011)
(58.366452 -1.532817 0.000011)
(37.422754 -5.508772 0.000011)
(33.308927 -6.348467 0.000011)
(10.362939 -4.097563 0.000011)
(0.039183 -2.674475 0.000011)
(1.508122 -2.851773 0.000011)
(6.029367 -3.837202 0.000011)
(4.534959 -2.409711 0.000011)
(0.508870 0.462495 0.000011)
(1.161650 0.598550 0.000011)
(1.754170 0.015610 0.000011)
(1.222990 -0.135950 0.000011)
(0.811700 -0.203599 0.000011)
(0.545886 -0.224525 0.000011)
(0.368201 -0.227497 0.000011)
(0.214224 -0.161755 0.000011)
(0.078487 -0.058259 0.000011)
(0.016790 -0.011352 0.000011)
(-0.013890 0.017418 0.000011)
(-0.028358 0.037208 0.000011)
(-0.030470 0.043876 0.000011)
(-0.026745 0.042132 0.000011)
(-0.021038 0.034774 0.000011)
(-0.015059 0.023818 0.000011)
(-0.009641 0.014955 -0.000043)
(-93.374493 0.007923 -0.000097)
(93.368520 0.001566 -0.000097)
(-0.002211 0.002805 -0.000097)
(-0.003055 0.003402 -0.000097)
(-0.026362 0.056148 -0.000097)
(-0.031726 0.086386 -0.000097)
(-0.010004 0.047671 -0.000097)
(-0.005077 0.027116 -0.000097)
(-0.003541 0.019738 -0.000097)
(-0.002590 0.014921 -0.000097)
(-0.001992 0.012622 -0.000131)
(-0.001620 0.010901 -0.000164)
(-0.001365 0.009783 -0.000164)
(-0.001154 0.008241 -0.000164)
(-0.000994 0.006705 -0.000164)
(-0.000872 0.005600 -0.000164)
(-0.000556 0.003747 -0.000164)
(-0.000287 0.004115 -0.000164)
(-0.000078 0.005179 -0.000164)
(0.001092 -0.007169 -0.000164)
)
;
    }
}
