/*--------------------------------*- C++ -*---------------------------------*\ 
| ========                 |                                                 | 
| \      /  F ield         | OpenFOAM: The Open Source CFD Toolbox           | 
|  \    /   O peration     | Version:  v1812                                 | 
|   \  /    A nd           | Web:      www.OpenFOAM.com                      | 
|    \/     M anipulation  |                                                 | 
\*--------------------------------------------------------------------------*/ 
FoamFile
{
    version     2.0;
    format      ascii;
    class       volVectorField;
    location    "/home/james/dafoam/myRuns/bezier_coanda_opt/0.00000000001/";
    object      sens_CL_shapey;
}
// * * * * * * * * * * * * * * * * * * * * * * * * * * * * * * * * * * * * * //

dimensions      [0 0 0 0 0 0 0];
internalField   uniform (0 0 0);
boundaryField
{
    allWalls
    {
        type  wall;
        value nonuniform List<vector>
188
(
(-0.008666 0.004267 0.000180)
(-0.019365 0.006826 0.000045)
(-0.036679 0.021169 0.000045)
(-0.055959 0.035345 0.000180)
(-0.049247 0.038526 0.000180)
(-0.029470 0.029383 0.000144)
(-0.010039 0.018637 0.000144)
(-0.014793 0.028053 0.000180)
(-0.015623 0.030759 0.000180)
(-0.013142 0.029962 0.000302)
(-0.012803 0.033217 0.000478)
(-0.010518 0.031855 0.000595)
(-0.009060 0.031082 0.000726)
(-0.009002 0.034795 0.000873)
(-0.009059 0.039034 0.001038)
(-0.008635 0.042616 0.001222)
(-0.008339 0.046974 0.001611)
(-0.007592 0.049611 0.001834)
(-0.007129 0.055368 0.001931)
(-0.006442 0.060946 0.002221)
(-0.005513 0.066813 0.002487)
(-0.004613 0.078433 0.002762)
(-0.003064 0.083124 0.003011)
(-0.000897 0.104769 0.002524)
(0.002357 0.140004 0.001923)
(0.006448 0.146827 0.001809)
(0.010369 0.145278 0.001536)
(0.014482 0.150994 0.001239)
(0.018428 0.155845 0.000979)
(0.022233 0.160076 0.000398)
(0.026000 0.164951 -0.000066)
(0.029490 0.168772 -0.000073)
(0.032793 0.172410 -0.000079)
(0.035801 0.175383 -0.000085)
(0.038436 0.177360 -0.000090)
(0.040714 0.178364 -0.000058)
(0.042536 0.178223 -0.000024)
(0.043824 0.176847 -0.000024)
(0.044555 0.173993 -0.000024)
(0.044791 0.169959 -0.000024)
(0.044560 0.164851 -0.000024)
(0.043539 0.157503 0.000048)
(0.041562 0.147370 0.000120)
(0.039585 0.137909 0.000120)
(0.039172 0.134262 0.000120)
(0.037032 0.125030 0.000120)
(0.026718 0.088973 0.000120)
(0.026251 0.089525 -0.000026)
(0.037099 0.134701 -0.000171)
(0.004431 -0.020977 -0.000171)
(0.000354 -0.007377 -0.000171)
(-0.001928 0.003773 -0.000171)
(-0.002569 0.004414 -0.000026)
(-0.003597 0.008323 0.000120)
(-0.006137 0.015356 0.000120)
(-0.009170 0.023542 0.000120)
(-0.012358 0.033130 0.000120)
(-0.015117 0.043634 0.000120)
(-0.016307 0.050781 0.000048)
(-0.016668 0.056587 -0.000024)
(-0.012583 0.048326 -0.000024)
(-0.000205 0.011109 -0.000024)
(0.010545 -0.030318 -0.000024)
(0.012699 -0.048971 -0.000024)
(0.009150 -0.042108 -0.000059)
(0.002675 -0.017700 -0.000093)
(-0.002456 0.006190 -0.000090)
(-0.005086 0.022342 -0.000087)
(-0.006688 0.036294 -0.000084)
(-0.007445 0.048143 -0.000081)
(-0.007378 0.057378 0.000088)
(-0.006646 0.064020 0.000277)
(-0.005464 0.069480 0.000319)
(-0.003940 0.075027 0.000362)
(-0.002099 0.077032 0.000391)
(-0.000104 0.084052 0.000380)
(0.001367 0.074656 0.000268)
(0.002194 0.051294 0.000232)
(0.003339 0.049230 0.000245)
(0.004143 0.047907 0.000166)
(0.004284 0.040031 0.000104)
(0.004605 0.036260 0.000051)
(0.005214 0.034593 -0.000028)
(0.004777 0.027824 -0.000088)
(0.004941 0.024729 -0.000039)
(0.006370 0.028437 0.000018)
(0.005629 0.023207 0.000021)
(0.004625 0.017585 0.000024)
(0.004194 0.014790 0.000028)
(0.006211 0.017050 0.000032)
(0.007812 0.017294 0.000036)
(0.007277 0.009579 0.000040)
(0.006075 0.001226 0.000043)
(0.003952 -0.004902 -0.000041)
(0.007207 0.001276 0.000027)
(0.011296 0.015655 0.000180)
(0.004531 0.013153 0.000180)
(0.001930 -0.001619 0.000019)
(0.013887 -0.001360 0.000019)
(0.015938 0.002966 0.000180)
(-0.012544 -0.032991 -0.000171)
(0.005721 0.138970 -0.000171)
(0.003876 0.133632 -0.000171)
(0.003449 0.133683 -0.000171)
(0.005017 0.180536 -0.000171)
(0.006860 0.228105 -0.000171)
(0.008522 0.269508 -0.000171)
(0.011115 0.344244 -0.000171)
(0.015546 0.480198 -0.000171)
(0.019680 0.625157 -0.000137)
(0.021332 0.649112 -0.000103)
(0.031153 0.963631 -0.000103)
(0.133645 3.242466 -0.000103)
(0.185933 6.159652 -0.000103)
(-6.807963 -23.300478 -0.000103)
(112.049678 -240.544241 -0.000103)
(-15.450073 -12.178453 -0.000103)
(-14.327474 -6.369392 -0.000103)
(-13.382490 -22.235729 -0.000103)
(-89.710630 231.752557 -0.000103)
(7.002525 81.655442 -0.000046)
(6.198675 38.030847 0.000011)
(2.123445 19.817024 0.000011)
(-0.936803 -2.455993 0.000011)
(1.163554 3.549155 0.000011)
(-0.013073 0.318094 0.000011)
(-1.257358 -2.549299 0.000011)
(-0.851359 -1.313644 0.000011)
(-0.507643 -0.608795 0.000011)
(0.216627 -0.039095 0.000011)
(1.887460 2.159122 0.000011)
(5.373704 5.483675 0.000011)
(11.338221 10.429277 0.000011)
(18.346195 14.883723 0.000011)
(26.155086 18.539330 0.000011)
(33.367288 20.844565 0.000011)
(31.477297 18.326628 0.000011)
(67.610788 27.579328 0.000011)
(-34.774720 -12.678440 0.000011)
(-173.822199 -52.303627 0.000011)
(-132.923590 -25.980439 0.000011)
(-68.443229 -6.271638 0.000011)
(28.107105 0.704944 0.000011)
(63.788202 -1.693341 0.000011)
(41.199455 -5.782182 0.000011)
(37.023884 -6.301104 0.000011)
(12.399539 -3.875250 0.000011)
(0.681200 -2.645649 0.000011)
(1.857369 -2.954175 0.000011)
(6.456547 -4.009109 0.000011)
(4.725737 -2.516948 0.000011)
(0.417167 0.521033 0.000011)
(1.136827 0.661226 0.000011)
(1.832557 0.024915 0.000011)
(1.263170 -0.123766 0.000011)
(0.803513 -0.181877 0.000011)
(0.558540 -0.223936 0.000011)
(0.379446 -0.227457 0.000011)
(0.218723 -0.158881 0.000011)
(0.077943 -0.052830 0.000011)
(0.014603 -0.005704 0.000011)
(-0.016356 0.022613 0.000011)
(-0.030654 0.041880 0.000011)
(-0.032316 0.047816 0.000011)
(-0.028063 0.045124 0.000011)
(-0.021958 0.036881 0.000011)
(-0.015702 0.024951 0.000011)
(-0.009945 0.015181 -0.000046)
(-93.374711 0.008075 -0.000103)
(93.368640 0.001655 -0.000103)
(-0.002360 0.003046 -0.000103)
(-0.002804 0.003238 -0.000103)
(-0.025818 0.056631 -0.000103)
(-0.031854 0.087246 -0.000103)
(-0.010423 0.047530 -0.000103)
(-0.005334 0.026757 -0.000103)
(-0.003745 0.019442 -0.000103)
(-0.002753 0.014683 -0.000103)
(-0.002112 0.012435 -0.000137)
(-0.001707 0.010825 -0.000171)
(-0.001439 0.009813 -0.000171)
(-0.001213 0.008180 -0.000171)
(-0.001046 0.006695 -0.000171)
(-0.000921 0.005737 -0.000171)
(-0.000602 0.003898 -0.000171)
(-0.000334 0.004216 -0.000171)
(-0.000127 0.005188 -0.000171)
(0.001022 -0.006897 -0.000171)
)
;
    }
}
