/*--------------------------------*- C++ -*---------------------------------*\ 
| ========                 |                                                 | 
| \      /  F ield         | OpenFOAM: The Open Source CFD Toolbox           | 
|  \    /   O peration     | Version:  v1812                                 | 
|   \  /    A nd           | Web:      www.OpenFOAM.com                      | 
|    \/     M anipulation  |                                                 | 
\*--------------------------------------------------------------------------*/ 
FoamFile
{
    version     2.0;
    format      ascii;
    class       volVectorField;
    location    "/home/james/dafoam/myRuns/bezier_coanda_opt/0.00000000001/";
    object      sens_CL_shapey;
}
// * * * * * * * * * * * * * * * * * * * * * * * * * * * * * * * * * * * * * //

dimensions      [0 0 0 0 0 0 0];
internalField   uniform (0 0 0);
boundaryField
{
    allWalls
    {
        type  wall;
        value nonuniform List<vector>
188
(
(-0.004814 0.005694 0.000246)
(-0.017792 0.006911 0.000260)
(-0.050556 0.030491 0.000259)
(-0.088077 0.056899 0.000257)
(-0.044108 0.034093 0.000255)
(-0.020557 0.030434 0.000253)
(-0.023584 0.042084 0.000252)
(-0.013838 0.030874 0.000250)
(-0.011346 0.027565 0.000248)
(-0.008903 0.024615 0.000246)
(-0.008617 0.027709 0.000245)
(-0.008361 0.029701 0.000243)
(-0.007764 0.031184 0.000400)
(-0.007888 0.034670 0.000561)
(-0.007806 0.038975 0.000566)
(-0.007839 0.044268 0.000571)
(-0.007046 0.046273 0.000576)
(-0.006487 0.050072 0.000581)
(-0.005813 0.054154 0.001116)
(-0.005088 0.059160 0.001754)
(-0.004354 0.066816 0.001969)
(-0.003390 0.077075 0.002191)
(-0.001975 0.086105 0.002412)
(0.000086 0.108547 0.002624)
(0.002998 0.130742 0.002468)
(0.006654 0.139918 0.002082)
(0.010254 0.146535 0.001647)
(0.013376 0.147782 0.001145)
(0.016426 0.150452 0.000791)
(0.019466 0.154591 0.000502)
(0.022300 0.158080 0.000272)
(0.024982 0.161408 0.000093)
(0.027461 0.164420 -0.000311)
(0.029705 0.166878 -0.000382)
(0.031721 0.168852 -0.000320)
(0.033447 0.170095 -0.000482)
(0.034903 0.170679 -0.000377)
(0.036004 0.170164 -0.000290)
(0.036730 0.168535 -0.000283)
(0.037144 0.166096 -0.000287)
(0.037253 0.162844 -0.000281)
(0.036830 0.157802 -0.000267)
(0.035792 0.150728 -0.000263)
(0.034867 0.144651 -0.000247)
(0.034590 0.141479 -0.000219)
(0.032310 0.130550 -0.000203)
(0.025583 0.102621 -0.000208)
(0.030736 0.125678 -0.000192)
(0.041645 0.176305 -0.000164)
(0.001059 -0.037171 -0.000164)
(-0.001580 0.002487 -0.000164)
(-0.004017 0.010697 -0.000164)
(-0.005125 0.014986 -0.000014)
(-0.006544 0.020041 0.000032)
(-0.008479 0.026490 0.000023)
(-0.010104 0.032453 0.000007)
(-0.011417 0.038440 -0.000078)
(-0.011160 0.040368 -0.000047)
(-0.010071 0.039084 0.000023)
(-0.004271 0.021229 0.000085)
(0.003603 -0.007937 0.000080)
(0.005619 -0.020183 0.000077)
(0.004708 -0.020441 0.000075)
(0.002641 -0.014234 0.000101)
(-0.000813 0.000761 0.000146)
(-0.003917 0.016861 0.000122)
(-0.005639 0.028466 0.000083)
(-0.006680 0.038502 0.000160)
(-0.007172 0.047160 0.000265)
(-0.007133 0.054128 0.000377)
(-0.006674 0.059889 0.000504)
(-0.005863 0.064366 0.000584)
(-0.004787 0.068287 0.000634)
(-0.003487 0.072105 0.000622)
(-0.001981 0.074315 0.000600)
(-0.000384 0.081842 0.000572)
(0.000758 0.068324 0.000395)
(0.001675 0.048554 0.000218)
(0.002669 0.049080 0.000162)
(0.003184 0.044824 0.000118)
(0.003579 0.039952 0.000083)
(0.003807 0.035324 0.000055)
(0.004102 0.031626 0.000287)
(0.004364 0.028878 0.000530)
(0.004496 0.025788 0.000529)
(0.005305 0.026685 0.000528)
(0.004964 0.022821 0.000527)
(0.004507 0.018800 0.000527)
(0.004549 0.017275 0.000362)
(0.004759 0.014727 0.000199)
(0.006439 0.015254 0.000203)
(0.007215 0.011853 0.000207)
(0.006087 0.003393 0.000210)
(0.003316 -0.004817 0.000214)
(0.005448 -0.001460 0.000217)
(0.010907 0.013277 0.000221)
(0.005126 0.012887 0.000224)
(0.005117 -0.003183 0.000227)
(0.024789 -0.003209 0.000229)
(0.029642 0.004013 0.000231)
(-0.015255 -0.044635 -0.000164)
(0.008682 0.182655 -0.000164)
(0.005504 0.166154 -0.000164)
(0.004241 0.151180 -0.000164)
(0.005697 0.199467 -0.000164)
(0.007727 0.253326 -0.000164)
(0.009523 0.298568 -0.000164)
(0.012292 0.379173 -0.000164)
(0.016956 0.523398 -0.000164)
(0.020883 0.672536 -0.000132)
(0.022106 0.710910 -0.000099)
(0.031554 1.088775 -0.000099)
(0.136520 3.442999 -0.000099)
(0.159150 6.080254 -0.000099)
(-5.391682 -22.407593 -0.000099)
(127.894983 -256.178642 -0.000099)
(-17.555651 -12.763069 -0.000099)
(-17.020594 -7.071977 -0.000099)
(-13.604199 -20.433354 -0.000099)
(-102.962165 246.256523 -0.000099)
(7.132234 83.686124 -0.000046)
(6.501043 40.660440 0.000007)
(1.938370 22.999018 0.000007)
(-1.963069 -4.786378 0.000007)
(1.131703 3.407720 0.000007)
(-0.179576 0.266971 0.000007)
(-1.695965 -3.585917 0.000007)
(-1.040583 -1.660210 0.000007)
(-0.217083 -0.304986 0.000007)
(0.709880 0.631409 0.000007)
(2.795527 3.130252 0.000007)
(8.091603 8.239379 0.000007)
(15.635421 14.350680 0.000007)
(26.612863 21.441104 0.000007)
(33.918135 24.208705 0.000007)
(37.700242 23.408701 0.000007)
(46.687313 26.074237 0.000007)
(83.141628 34.849039 0.000007)
(-107.172358 -39.728239 0.000007)
(-261.040535 -84.487168 0.000007)
(-151.388591 -30.761704 0.000007)
(-46.577381 0.070152 0.000007)
(92.485746 12.061324 0.000007)
(106.771093 3.603323 0.000007)
(49.432824 -4.468344 0.000007)
(33.092767 -4.436797 0.000007)
(3.209876 -2.943370 0.000007)
(1.133265 -3.167924 0.000007)
(2.981168 -3.058346 0.000007)
(3.325395 -3.734986 0.000007)
(3.514348 -2.379085 0.000007)
(-1.051414 0.268922 0.000007)
(0.375447 0.299791 0.000007)
(1.131908 -0.096416 0.000007)
(0.871059 -0.176329 0.000007)
(0.601614 -0.196426 0.000007)
(0.409961 -0.174046 0.000007)
(0.241765 -0.120453 0.000007)
(0.107618 -0.052216 0.000007)
(0.030191 -0.009776 0.000007)
(-0.008166 0.013817 0.000007)
(-0.024040 0.025717 0.000007)
(-0.027945 0.029700 0.000007)
(-0.026512 0.029206 0.000007)
(-0.023035 0.026035 0.000007)
(-0.019079 0.020872 0.000007)
(-0.015426 0.014691 0.000007)
(-0.011383 0.009651 -0.000046)
(-93.377927 0.005121 -0.000099)
(93.370406 0.001138 -0.000099)
(-0.002436 0.002552 -0.000099)
(-0.001389 0.002340 -0.000099)
(-0.019579 0.025222 -0.000099)
(-0.030697 0.043827 -0.000099)
(-0.015629 0.029874 -0.000099)
(-0.007609 0.020674 -0.000099)
(-0.004862 0.018473 -0.000099)
(-0.003326 0.016236 -0.000099)
(-0.002254 0.015136 -0.000132)
(-0.001615 0.014243 -0.000164)
(-0.001406 0.013258 -0.000164)
(-0.001296 0.012502 -0.000164)
(-0.001225 0.012113 -0.000164)
(-0.001151 0.011491 -0.000164)
(-0.000872 0.010800 -0.000164)
(-0.000563 0.010532 -0.000164)
(-0.000304 0.010335 -0.000164)
(0.000030 0.003315 -0.000164)
)
;
    }
}
