/*--------------------------------*- C++ -*---------------------------------*\ 
| ========                 |                                                 | 
| \      /  F ield         | OpenFOAM: The Open Source CFD Toolbox           | 
|  \    /   O peration     | Version:  v1812                                 | 
|   \  /    A nd           | Web:      www.OpenFOAM.com                      | 
|    \/     M anipulation  |                                                 | 
\*--------------------------------------------------------------------------*/ 
FoamFile
{
    version     2.0;
    format      ascii;
    class       volVectorField;
    location    "/home/james/dafoam/myRuns/bezier_coanda_opt/0.00000000001/";
    object      sens_CL_shapey;
}
// * * * * * * * * * * * * * * * * * * * * * * * * * * * * * * * * * * * * * //

dimensions      [0 0 0 0 0 0 0];
internalField   uniform (0 0 0);
boundaryField
{
    allWalls
    {
        type  wall;
        value nonuniform List<vector>
188
(
(-0.010686 0.003935 0.000224)
(-0.021500 0.007268 0.000236)
(-0.035029 0.019516 0.000234)
(-0.049140 0.031307 0.000233)
(-0.043406 0.034114 0.000231)
(-0.025612 0.025349 0.000230)
(-0.010209 0.017744 0.000228)
(-0.014856 0.026854 0.000227)
(-0.015513 0.029910 0.000225)
(-0.013855 0.030818 0.000224)
(-0.013067 0.033368 0.000222)
(-0.010845 0.032272 0.000220)
(-0.009433 0.031880 0.000401)
(-0.009276 0.035511 0.000587)
(-0.009018 0.038584 0.000596)
(-0.008755 0.043060 0.000605)
(-0.008393 0.046969 0.000615)
(-0.007485 0.049019 0.000624)
(-0.007069 0.054794 0.001199)
(-0.006337 0.060105 0.001884)
(-0.005464 0.066063 0.002120)
(-0.004517 0.076837 0.002365)
(-0.003037 0.082469 0.002613)
(-0.001038 0.103320 0.002853)
(0.002039 0.137384 0.002517)
(0.005999 0.143496 0.001903)
(0.009800 0.141302 0.001549)
(0.013802 0.147038 0.001189)
(0.017615 0.151561 0.000883)
(0.021295 0.155587 0.000629)
(0.024928 0.160189 0.000370)
(0.028305 0.163897 0.000146)
(0.031504 0.167442 0.000008)
(0.034411 0.170302 -0.000122)
(0.036966 0.172252 -0.000185)
(0.039438 0.173312 -0.000171)
(0.041478 0.173271 -0.000216)
(0.042758 0.172044 -0.000267)
(0.043505 0.169423 -0.000266)
(0.043770 0.165643 -0.000192)
(0.043578 0.160792 -0.000112)
(0.042657 0.153879 -0.000185)
(0.040859 0.144398 -0.000246)
(0.038963 0.135180 -0.000233)
(0.038337 0.130720 -0.000230)
(0.036281 0.121637 -0.000216)
(0.027099 0.088890 -0.000192)
(0.025939 0.086779 -0.000171)
(0.034189 0.122162 -0.000166)
(0.006338 -0.009651 -0.000166)
(0.000413 -0.007571 -0.000166)
(-0.001882 0.003744 -0.000166)
(-0.002545 0.004288 -0.000141)
(-0.003431 0.008126 -0.000077)
(-0.005824 0.015160 -0.000061)
(-0.008895 0.023469 -0.000077)
(-0.012145 0.033190 -0.000066)
(-0.014955 0.043756 -0.000052)
(-0.016223 0.051183 -0.000034)
(-0.016761 0.057655 -0.000022)
(-0.012953 0.050395 0.000019)
(-0.000383 0.012828 0.000025)
(0.010918 -0.030254 -0.000004)
(0.013329 -0.050053 0.000003)
(0.009564 -0.043629 0.000013)
(0.002755 -0.019137 0.000166)
(-0.002486 0.005038 0.000176)
(-0.005193 0.021472 0.000183)
(-0.006852 0.035677 0.000437)
(-0.007659 0.047786 0.000497)
(-0.007622 0.057209 0.000477)
(-0.006907 0.063957 0.000535)
(-0.005734 0.069534 0.000731)
(-0.004212 0.075202 0.000784)
(-0.002368 0.077214 0.000774)
(-0.000366 0.084412 0.000748)
(0.001254 0.075365 0.000410)
(0.002186 0.051230 0.000172)
(0.003290 0.048542 0.000120)
(0.004276 0.049070 0.000080)
(0.004405 0.041009 0.000051)
(0.004604 0.036061 0.000029)
(0.005287 0.034915 0.000269)
(0.004840 0.028015 0.000519)
(0.004996 0.024858 0.000519)
(0.006483 0.028775 0.000519)
(0.005715 0.023451 0.000519)
(0.004667 0.017655 0.000520)
(0.004252 0.014916 0.000355)
(0.006342 0.017278 0.000191)
(0.007988 0.017531 0.000194)
(0.007430 0.009583 0.000196)
(0.006174 0.001006 0.000198)
(0.004066 -0.005066 0.000201)
(0.007560 0.001609 0.000203)
(0.011749 0.016639 0.000205)
(0.004524 0.014775 0.000207)
(0.000117 -0.000126 0.000209)
(0.009225 -0.001313 0.000211)
(0.010425 0.002289 0.000212)
(-0.009676 -0.017789 -0.000166)
(0.003915 0.128416 -0.000166)
(0.002925 0.123331 -0.000166)
(0.003267 0.129223 -0.000166)
(0.004963 0.179045 -0.000166)
(0.006746 0.222495 -0.000166)
(0.008424 0.261876 -0.000166)
(0.011054 0.334337 -0.000166)
(0.015542 0.467174 -0.000166)
(0.019870 0.609643 -0.000132)
(0.021513 0.615601 -0.000098)
(0.031912 0.889715 -0.000098)
(0.136506 3.165863 -0.000098)
(0.206557 6.249996 -0.000098)
(-7.143580 -23.126153 -0.000098)
(101.121032 -233.775460 -0.000098)
(-15.365682 -11.765670 -0.000098)
(-13.706740 -6.094134 -0.000098)
(-13.391588 -22.500101 -0.000098)
(-79.323670 225.929298 -0.000098)
(6.682305 77.929003 -0.000044)
(5.813149 36.346816 0.000011)
(1.997181 18.877051 0.000011)
(-0.862453 -2.242489 0.000011)
(1.138820 3.476678 0.000011)
(0.004899 0.347759 0.000011)
(-1.182407 -2.381657 0.000011)
(-0.787400 -1.200052 0.000011)
(-0.473212 -0.550020 0.000011)
(0.204813 -0.029541 0.000011)
(1.768416 2.034522 0.000011)
(5.071499 5.178599 0.000011)
(10.780982 9.917092 0.000011)
(17.307232 14.051675 0.000011)
(24.797608 17.577781 0.000011)
(32.402128 20.212090 0.000011)
(31.058682 18.041597 0.000011)
(65.259080 26.621425 0.000011)
(-33.076681 -12.276758 0.000011)
(-164.176882 -49.690450 0.000011)
(-124.609407 -24.337668 0.000011)
(-65.550039 -6.159787 0.000011)
(25.617129 0.498892 0.000011)
(59.816634 -1.577539 0.000011)
(38.443847 -5.569620 0.000011)
(34.364977 -6.321062 0.000011)
(10.975210 -4.030158 0.000011)
(0.249057 -2.667855 0.000011)
(1.617219 -2.884352 0.000011)
(6.141762 -3.882090 0.000011)
(4.583319 -2.438402 0.000011)
(0.480787 0.476031 0.000011)
(1.149551 0.612534 0.000011)
(1.763898 0.019391 0.000011)
(1.229946 -0.133435 0.000011)
(0.816892 -0.203083 0.000011)
(0.547697 -0.222824 0.000011)
(0.368050 -0.225536 0.000011)
(0.215443 -0.162090 0.000011)
(0.078157 -0.057125 0.000011)
(0.015951 -0.009768 0.000011)
(-0.014617 0.018736 0.000011)
(-0.028985 0.038371 0.000011)
(-0.030957 0.044821 0.000011)
(-0.027089 0.042819 0.000011)
(-0.021268 0.035221 0.000011)
(-0.015210 0.024074 0.000011)
(-0.009738 0.015118 -0.000044)
(-93.374571 0.008028 -0.000098)
(93.368537 0.001594 -0.000098)
(-0.002233 0.002854 -0.000098)
(-0.003073 0.003450 -0.000098)
(-0.026580 0.056482 -0.000098)
(-0.032023 0.086738 -0.000098)
(-0.010126 0.047647 -0.000098)
(-0.005151 0.027005 -0.000098)
(-0.003598 0.019643 -0.000098)
(-0.002635 0.014836 -0.000098)
(-0.002023 0.012525 -0.000132)
(-0.001644 0.010888 -0.000166)
(-0.001388 0.009895 -0.000166)
(-0.001167 0.008170 -0.000166)
(-0.001006 0.006605 -0.000166)
(-0.000887 0.005670 -0.000166)
(-0.000568 0.003806 -0.000166)
(-0.000298 0.004150 -0.000166)
(-0.000090 0.005182 -0.000166)
(0.001073 -0.007087 -0.000166)
)
;
    }
}
