/*--------------------------------*- C++ -*---------------------------------*\ 
| ========                 |                                                 | 
| \      /  F ield         | OpenFOAM: The Open Source CFD Toolbox           | 
|  \    /   O peration     | Version:  v1812                                 | 
|   \  /    A nd           | Web:      www.OpenFOAM.com                      | 
|    \/     M anipulation  |                                                 | 
\*--------------------------------------------------------------------------*/ 
FoamFile
{
    version     2.0;
    format      ascii;
    class       volVectorField;
    location    "/home/james/dafoam/myRuns/bezier_coanda_opt/0.00000000001/";
    object      sens_CL_shapey;
}
// * * * * * * * * * * * * * * * * * * * * * * * * * * * * * * * * * * * * * //

dimensions      [0 0 0 0 0 0 0];
internalField   uniform (0 0 0);
boundaryField
{
    allWalls
    {
        type  wall;
        value nonuniform List<vector>
188
(
(-0.013998 0.002836 0.000133)
(-0.024700 0.007815 0.000106)
(-0.032118 0.016494 0.000106)
(-0.036658 0.024458 0.000133)
(-0.030042 0.024421 0.000133)
(-0.017245 0.017471 0.000133)
(-0.012827 0.019216 0.000205)
(-0.014013 0.023722 0.000205)
(-0.013159 0.025578 0.000133)
(-0.014499 0.032078 0.000301)
(-0.013654 0.035136 0.000514)
(-0.011169 0.033247 0.000605)
(-0.010174 0.035002 0.000716)
(-0.008932 0.034099 0.000845)
(-0.009112 0.040583 0.000955)
(-0.009116 0.045594 0.001107)
(-0.007434 0.043902 0.001302)
(-0.007116 0.048719 0.001485)
(-0.006433 0.053036 0.001603)
(-0.005785 0.058344 0.001814)
(-0.004879 0.063653 0.002116)
(-0.003941 0.072840 0.002176)
(-0.002613 0.083435 0.002187)
(-0.000723 0.098399 0.001978)
(0.002401 0.125322 0.001718)
(0.006016 0.137400 0.001633)
(0.009215 0.132128 0.001398)
(0.012614 0.135722 0.001139)
(0.015899 0.139835 0.000911)
(0.018986 0.142841 0.000379)
(0.022042 0.146692 -0.000049)
(0.024883 0.149873 -0.000053)
(0.027577 0.153000 -0.000057)
(0.030025 0.155547 -0.000061)
(0.032166 0.157262 -0.000064)
(0.034091 0.158342 -0.000009)
(0.035706 0.158716 0.000047)
(0.036875 0.158080 0.000047)
(0.037646 0.156345 0.000047)
(0.038037 0.153641 0.000047)
(0.038055 0.149983 0.000047)
(0.037537 0.144756 0.000107)
(0.036375 0.137555 0.000168)
(0.034989 0.129904 0.000168)
(0.034224 0.124682 0.000168)
(0.032644 0.116639 0.000168)
(0.026509 0.091935 0.000168)
(0.024798 0.085667 0.000008)
(0.027884 0.099620 -0.000151)
(0.010950 0.018678 -0.000151)
(-0.000213 -0.004120 -0.000151)
(-0.002585 0.006084 -0.000151)
(-0.003359 0.007998 0.000008)
(-0.004780 0.013142 0.000168)
(-0.007314 0.020046 0.000168)
(-0.009714 0.026934 0.000168)
(-0.012346 0.036397 0.000168)
(-0.014063 0.044279 0.000168)
(-0.015270 0.052127 0.000107)
(-0.013100 0.048107 0.000047)
(-0.003406 0.018436 0.000047)
(0.005104 -0.010304 0.000047)
(0.007915 -0.026579 0.000047)
(0.007983 -0.033528 0.000047)
(0.004724 -0.024417 -0.000012)
(-0.000417 -0.002889 -0.000069)
(-0.004219 0.016965 -0.000068)
(-0.006089 0.030392 -0.000066)
(-0.007128 0.041811 -0.000064)
(-0.007464 0.051271 -0.000062)
(-0.007203 0.059025 0.000098)
(-0.006417 0.064704 0.000275)
(-0.005253 0.069425 0.000312)
(-0.003814 0.074535 0.000348)
(-0.002096 0.076190 0.000369)
(-0.000234 0.084848 0.000350)
(0.001095 0.073016 0.000297)
(0.001980 0.049527 0.000272)
(0.003424 0.053598 0.000215)
(0.003066 0.041498 0.000139)
(0.003621 0.037253 0.000104)
(0.004974 0.042582 0.000071)
(0.004992 0.034457 0.000051)
(0.004588 0.027792 0.000060)
(0.004828 0.025110 0.000078)
(0.006374 0.029736 0.000078)
(0.005597 0.024136 0.000080)
(0.004916 0.019253 0.000082)
(0.003998 0.014882 0.000086)
(0.006258 0.017262 0.000089)
(0.008565 0.019046 0.000093)
(0.007558 0.009791 0.000097)
(0.006573 0.001568 0.000100)
(0.003978 -0.005154 0.000069)
(0.007039 0.000774 0.000084)
(0.012772 0.017623 0.000133)
(0.006142 0.019027 0.000133)
(-0.002771 0.004308 0.000085)
(-0.001918 -0.001351 0.000085)
(-0.002444 0.000501 0.000133)
(-0.003170 0.019545 -0.000151)
(-0.000346 0.110253 -0.000151)
(0.000837 0.105610 -0.000151)
(0.003095 0.125329 -0.000151)
(0.004992 0.181011 -0.000151)
(0.006512 0.213905 -0.000151)
(0.008259 0.251428 -0.000151)
(0.011002 0.320881 -0.000151)
(0.015562 0.448428 -0.000151)
(0.020058 0.586894 -0.000121)
(0.021314 0.555818 -0.000090)
(0.032198 0.758245 -0.000090)
(0.141376 3.056431 -0.000090)
(0.232030 6.408545 -0.000090)
(-7.161650 -22.848055 -0.000090)
(79.984708 -220.162045 -0.000090)
(-15.747720 -11.094190 -0.000090)
(-13.328068 -5.722951 -0.000090)
(-13.291510 -22.738022 -0.000090)
(-58.652380 214.701779 -0.000090)
(6.022938 69.538749 -0.000040)
(5.069519 33.155042 0.000011)
(1.653716 17.784823 0.000011)
(-1.065404 -2.613131 0.000011)
(1.065091 3.210458 0.000011)
(-0.011818 0.376200 0.000011)
(-1.133369 -2.309107 0.000011)
(-0.608190 -0.865716 0.000011)
(-0.322305 -0.330977 0.000011)
(0.400295 0.263404 0.000011)
(2.023753 2.329721 0.000011)
(5.637634 5.739178 0.000011)
(11.299750 10.377321 0.000011)
(18.142558 14.681230 0.000011)
(25.615950 18.154466 0.000011)
(33.248857 20.566681 0.000011)
(33.408069 19.122281 0.000011)
(61.843143 24.536336 0.000011)
(-64.876122 -26.136688 0.000011)
(-184.805588 -58.692510 0.000011)
(-101.979337 -17.909613 0.000011)
(-32.686471 1.624229 0.000011)
(41.850575 4.708251 0.000011)
(61.630338 -0.352406 0.000011)
(37.652159 -4.724413 0.000011)
(27.906242 -5.251176 0.000011)
(5.644258 -3.247355 0.000011)
(-0.210371 -2.168072 0.000011)
(1.954650 -2.668732 0.000011)
(3.725596 -3.757733 0.000011)
(1.545426 -2.359145 0.000011)
(-1.235924 -0.136597 0.000011)
(0.440652 -0.127003 0.000011)
(1.078621 -0.298379 0.000011)
(0.776217 -0.255149 0.000011)
(0.548347 -0.249049 0.000011)
(0.389785 -0.233124 0.000011)
(0.253744 -0.194265 0.000011)
(0.131495 -0.120480 0.000011)
(0.044100 -0.050519 0.000011)
(-0.001213 -0.008430 0.000011)
(-0.022177 0.016256 0.000011)
(-0.029332 0.029379 0.000011)
(-0.028705 0.033552 0.000011)
(-0.024649 0.031956 0.000011)
(-0.019597 0.026378 0.000011)
(-0.014689 0.018207 0.000011)
(-0.010094 0.011406 -0.000040)
(-93.375877 0.006084 -0.000090)
(93.369371 0.001227 -0.000090)
(-0.002058 0.002392 -0.000090)
(-0.002096 0.002538 -0.000090)
(-0.020755 0.040183 -0.000090)
(-0.028239 0.064202 -0.000090)
(-0.011770 0.038378 -0.000090)
(-0.005712 0.024356 -0.000090)
(-0.003701 0.019606 -0.000090)
(-0.002524 0.016127 -0.000090)
(-0.001738 0.014322 -0.000121)
(-0.001291 0.012956 -0.000151)
(-0.001109 0.011675 -0.000151)
(-0.000992 0.010537 -0.000151)
(-0.000920 0.009333 -0.000151)
(-0.000846 0.007788 -0.000151)
(-0.000543 0.006859 -0.000151)
(-0.000233 0.006731 -0.000151)
(-0.000035 0.006850 -0.000151)
(0.000838 -0.003643 -0.000151)
)
;
    }
}
