/*--------------------------------*- C++ -*---------------------------------*\ 
| ========                 |                                                 | 
| \      /  F ield         | OpenFOAM: The Open Source CFD Toolbox           | 
|  \    /   O peration     | Version:  v1812                                 | 
|   \  /    A nd           | Web:      www.OpenFOAM.com                      | 
|    \/     M anipulation  |                                                 | 
\*--------------------------------------------------------------------------*/ 
FoamFile
{
    version     2.0;
    format      ascii;
    class       volVectorField;
    location    "/home/james/dafoam/myRuns/bezier_coanda_opt/0.00000000001/";
    object      sens_CL_shapey;
}
// * * * * * * * * * * * * * * * * * * * * * * * * * * * * * * * * * * * * * //

dimensions      [0 0 0 0 0 0 0];
internalField   uniform (0 0 0);
boundaryField
{
    allWalls
    {
        type  wall;
        value nonuniform List<vector>
188
(
(0.007549 0.007186 0.000261)
(-0.012023 0.006034 0.000275)
(-0.071237 0.044139 0.000273)
(-0.125637 0.081629 0.000272)
(-0.057923 0.046825 0.000271)
(-0.025413 0.042338 0.000270)
(-0.026145 0.053754 0.000268)
(-0.011370 0.032277 0.000267)
(-0.006171 0.021207 0.000266)
(-0.005488 0.020348 0.000264)
(-0.006537 0.025178 0.000263)
(-0.006126 0.025896 0.000262)
(-0.006452 0.029112 0.000411)
(-0.006900 0.033282 0.000563)
(-0.007233 0.039037 0.000565)
(-0.007278 0.044263 0.000568)
(-0.006544 0.046290 0.000570)
(-0.006086 0.050953 0.000573)
(-0.005529 0.056302 0.001107)
(-0.004727 0.060621 0.001741)
(-0.003852 0.066529 0.001946)
(-0.002983 0.079805 0.002157)
(-0.001588 0.089440 0.002368)
(0.000598 0.111960 0.002567)
(0.003480 0.135801 0.002538)
(0.007132 0.145764 0.001961)
(0.010496 0.150968 0.001886)
(0.013565 0.152452 0.001532)
(0.016624 0.157459 0.000669)
(0.019411 0.160486 0.000546)
(0.022122 0.164283 0.000358)
(0.024639 0.167559 0.000097)
(0.027015 0.170896 -0.000004)
(0.029124 0.173433 -0.000089)
(0.030964 0.175180 -0.000312)
(0.032663 0.176882 -0.000468)
(0.034137 0.177996 -0.000386)
(0.035209 0.177680 -0.000340)
(0.035959 0.176451 -0.000365)
(0.036350 0.174067 -0.000382)
(0.036454 0.170874 -0.000351)
(0.036194 0.166517 -0.000312)
(0.035697 0.161618 -0.000354)
(0.035318 0.157691 -0.000345)
(0.033500 0.147717 -0.000288)
(0.028139 0.123441 -0.000278)
(0.027261 0.120221 -0.000327)
(0.041224 0.183653 -0.000278)
(0.048264 0.220872 -0.000174)
(-0.009135 -0.096824 -0.000174)
(-0.002608 0.007884 -0.000174)
(-0.004862 0.014039 -0.000174)
(-0.005791 0.018979 -0.000095)
(-0.007311 0.024730 -0.000017)
(-0.008643 0.029098 -0.000019)
(-0.009973 0.034017 -0.000134)
(-0.010744 0.039678 -0.000197)
(-0.008688 0.033913 -0.000138)
(-0.003636 0.016666 -0.000074)
(0.000710 0.002136 -0.000015)
(0.002693 -0.007801 -0.000010)
(0.003736 -0.015076 -0.000004)
(0.003008 -0.014397 0.000004)
(0.000566 -0.004757 0.000020)
(-0.002466 0.009512 0.000031)
(-0.004648 0.021900 0.000077)
(-0.005871 0.031469 0.000150)
(-0.006648 0.040189 0.000125)
(-0.006950 0.047616 0.000201)
(-0.006822 0.053710 0.000354)
(-0.006356 0.058839 0.000491)
(-0.005598 0.062971 0.000536)
(-0.004610 0.066603 0.000486)
(-0.003420 0.070174 0.000520)
(-0.002041 0.072520 0.000534)
(-0.000588 0.079493 0.000505)
(0.000511 0.065945 0.000389)
(0.001461 0.047897 0.000269)
(0.002303 0.047114 0.000214)
(0.002954 0.044408 0.000169)
(0.003343 0.040156 0.000133)
(0.003454 0.034005 0.000104)
(0.003755 0.030884 0.000317)
(0.004138 0.028863 0.000544)
(0.004064 0.024901 0.000543)
(0.004045 0.021820 0.000543)
(0.005225 0.024343 0.000543)
(0.005026 0.021730 0.000542)
(0.003983 0.015703 0.000377)
(0.004297 0.014066 0.000213)
(0.005727 0.014450 0.000217)
(0.006594 0.012073 0.000221)
(0.005932 0.004731 0.000224)
(0.002941 -0.004655 0.000228)
(0.004507 -0.003146 0.000232)
(0.009844 0.010735 0.000235)
(0.003966 0.008785 0.000238)
(0.009283 -0.009037 0.000241)
(0.042264 -0.005605 0.000244)
(0.054168 0.006024 0.000246)
(-0.022007 -0.083614 -0.000174)
(0.015651 0.250014 -0.000174)
(0.008685 0.205542 -0.000174)
(0.004660 0.160190 -0.000174)
(0.006356 0.217151 -0.000174)
(0.008758 0.280527 -0.000174)
(0.010623 0.332426 -0.000174)
(0.013485 0.421482 -0.000174)
(0.018211 0.573624 -0.000174)
(0.022028 0.731325 -0.000140)
(0.023567 0.813986 -0.000105)
(0.032923 1.300144 -0.000105)
(0.134545 3.683764 -0.000105)
(0.124973 5.930878 -0.000105)
(-4.422347 -21.821581 -0.000105)
(159.573447 -282.837775 -0.000105)
(-19.444688 -13.935135 -0.000105)
(-19.568829 -8.100147 -0.000105)
(-14.036586 -18.917845 -0.000105)
(-132.057044 269.561190 -0.000105)
(7.781129 92.846420 -0.000049)
(7.421641 45.616870 0.000007)
(2.144670 25.821411 0.000007)
(-2.372157 -5.909936 0.000007)
(1.199553 3.598617 0.000007)
(-0.256132 0.152876 0.000007)
(-1.831857 -3.989715 0.000007)
(-0.899038 -1.450937 0.000007)
(0.113045 0.153253 0.000007)
(1.540954 1.637354 0.000007)
(4.772524 5.361959 0.000007)
(11.225257 11.472682 0.000007)
(18.751533 17.350847 0.000007)
(33.788412 27.146433 0.000007)
(41.387954 29.779293 0.000007)
(28.307985 18.173857 0.000007)
(44.788301 23.606389 0.000007)
(53.501903 25.328894 0.000007)
(-118.625181 -42.424387 0.000007)
(-290.781686 -90.086908 0.000007)
(-162.501829 -35.387620 0.000007)
(5.975578 9.719859 0.000007)
(94.061611 8.747177 0.000007)
(108.090104 2.525490 0.000007)
(56.646766 -3.934760 0.000007)
(32.515964 -3.339423 0.000007)
(4.013083 -2.506169 0.000007)
(4.291309 -3.370259 0.000007)
(3.800322 -3.090912 0.000007)
(2.801754 -3.891326 0.000007)
(3.295128 -2.306245 0.000007)
(-0.799158 0.465608 0.000007)
(0.397858 0.468026 0.000007)
(1.117256 -0.036803 0.000007)
(0.846208 -0.146213 0.000007)
(0.569132 -0.180129 0.000007)
(0.364285 -0.157007 0.000007)
(0.176818 -0.085792 0.000007)
(0.061829 -0.024210 0.000007)
(0.001366 0.015043 0.000007)
(-0.023699 0.033621 0.000007)
(-0.030133 0.038755 0.000007)
(-0.028929 0.037757 0.000007)
(-0.025125 0.033937 0.000007)
(-0.020844 0.028987 0.000007)
(-0.016826 0.022972 0.000007)
(-0.013154 0.016173 0.000007)
(-0.009572 0.011004 -0.000049)
(-93.377482 0.006057 -0.000105)
(93.371162 0.001363 -0.000105)
(-0.002436 0.003435 -0.000105)
(0.000297 0.002382 -0.000105)
(-0.014835 0.021118 -0.000105)
(-0.025853 0.040034 -0.000105)
(-0.012971 0.029917 -0.000105)
(-0.006548 0.021229 -0.000105)
(-0.004367 0.019150 -0.000105)
(-0.003080 0.017251 -0.000105)
(-0.002148 0.015716 -0.000140)
(-0.001623 0.014392 -0.000174)
(-0.001459 0.013835 -0.000174)
(-0.001327 0.013696 -0.000174)
(-0.001221 0.013453 -0.000174)
(-0.001169 0.013382 -0.000174)
(-0.000959 0.013584 -0.000174)
(-0.000717 0.013080 -0.000174)
(-0.000516 0.012938 -0.000174)
(-0.000579 0.008814 -0.000174)
)
;
    }
}
