/*--------------------------------*- C++ -*---------------------------------*\ 
| ========                 |                                                 | 
| \      /  F ield         | OpenFOAM: The Open Source CFD Toolbox           | 
|  \    /   O peration     | Version:  v1812                                 | 
|   \  /    A nd           | Web:      www.OpenFOAM.com                      | 
|    \/     M anipulation  |                                                 | 
\*--------------------------------------------------------------------------*/ 
FoamFile
{
    version     2.0;
    format      ascii;
    class       volVectorField;
    location    "/home/james/dafoam/myRuns/bezier_coanda_opt/0.00000000001/";
    object      sens_CL_shapey;
}
// * * * * * * * * * * * * * * * * * * * * * * * * * * * * * * * * * * * * * //

dimensions      [0 0 0 0 0 0 0];
internalField   uniform (0 0 0);
boundaryField
{
    allWalls
    {
        type  wall;
        value nonuniform List<vector>
188
(
(-0.014044 0.002800 0.000213)
(-0.024860 0.007820 0.000225)
(-0.031695 0.016098 0.000223)
(-0.036025 0.023902 0.000222)
(-0.029614 0.023699 0.000221)
(-0.016958 0.016944 0.000220)
(-0.012318 0.017987 0.000219)
(-0.014359 0.023804 0.000218)
(-0.014243 0.026898 0.000217)
(-0.015149 0.033122 0.000216)
(-0.013680 0.034460 0.000215)
(-0.010863 0.032012 0.000214)
(-0.010513 0.035557 0.000384)
(-0.009075 0.034092 0.000556)
(-0.009242 0.040467 0.000563)
(-0.009286 0.045683 0.000570)
(-0.007603 0.044062 0.000577)
(-0.007255 0.048690 0.000584)
(-0.006588 0.053101 0.001138)
(-0.005949 0.058510 0.001796)
(-0.005031 0.063815 0.002015)
(-0.004088 0.072868 0.002244)
(-0.002745 0.083030 0.002474)
(-0.000803 0.098520 0.002696)
(0.002460 0.128561 0.002522)
(0.005932 0.136742 0.002048)
(0.009271 0.130589 0.001635)
(0.012951 0.137660 0.000795)
(0.016232 0.140491 0.000620)
(0.019456 0.143931 0.000764)
(0.022606 0.147778 0.000401)
(0.025554 0.151085 0.000249)
(0.028331 0.154202 0.000096)
(0.030850 0.156709 -0.000217)
(0.033079 0.158512 -0.000437)
(0.035021 0.159674 -0.000383)
(0.036626 0.160033 -0.000331)
(0.037819 0.159279 -0.000278)
(0.038591 0.157395 -0.000257)
(0.038965 0.154518 -0.000251)
(0.038935 0.150613 -0.000228)
(0.038354 0.145117 -0.000205)
(0.037107 0.137615 -0.000227)
(0.035598 0.129580 -0.000205)
(0.034711 0.123953 -0.000138)
(0.033033 0.115655 -0.000050)
(0.026697 0.090716 -0.000101)
(0.024766 0.083608 -0.000192)
(0.027721 0.096927 -0.000154)
(0.010858 0.017438 -0.000154)
(0.000068 -0.005279 -0.000154)
(-0.002348 0.005528 -0.000154)
(-0.003120 0.006928 -0.000008)
(-0.004514 0.011778 0.000074)
(-0.007266 0.019435 0.000010)
(-0.010024 0.027333 0.000064)
(-0.012752 0.036634 0.000066)
(-0.014734 0.045272 0.000018)
(-0.016133 0.053409 0.000025)
(-0.014887 0.053091 0.000065)
(-0.006875 0.030282 0.000047)
(0.003438 -0.003026 0.000046)
(0.009420 -0.030070 0.000099)
(0.010254 -0.041881 0.000102)
(0.006885 -0.033631 0.000106)
(0.001172 -0.010584 0.000153)
(-0.003240 0.011369 0.000227)
(-0.005438 0.026020 0.000286)
(-0.006730 0.038577 0.000345)
(-0.007266 0.049127 0.000401)
(-0.007119 0.057662 0.000454)
(-0.006386 0.063888 0.000499)
(-0.005240 0.069060 0.000568)
(-0.003789 0.074547 0.000629)
(-0.002036 0.076376 0.000582)
(-0.000123 0.085446 0.000474)
(0.001178 0.073249 0.000315)
(0.002064 0.049849 0.000178)
(0.003415 0.052588 0.000130)
(0.003549 0.044650 0.000093)
(0.003950 0.039066 0.000066)
(0.004832 0.040031 0.000046)
(0.005140 0.034905 0.000269)
(0.004710 0.028038 0.000499)
(0.004905 0.025074 0.000500)
(0.006485 0.029675 0.000500)
(0.005718 0.024181 0.000501)
(0.004868 0.018798 0.000502)
(0.004113 0.014968 0.000340)
(0.006301 0.017278 0.000180)
(0.008512 0.018752 0.000182)
(0.007695 0.009898 0.000185)
(0.006555 0.001256 0.000187)
(0.003994 -0.005505 0.000190)
(0.007313 0.000875 0.000192)
(0.012975 0.018046 0.000194)
(0.005816 0.019134 0.000196)
(-0.003297 0.004180 0.000198)
(-0.002143 -0.001308 0.000200)
(-0.002604 0.000495 0.000201)
(-0.003175 0.018361 -0.000154)
(-0.000383 0.107649 -0.000154)
(0.000793 0.103375 -0.000154)
(0.003022 0.123227 -0.000154)
(0.004923 0.178763 -0.000154)
(0.006464 0.211704 -0.000154)
(0.008210 0.248759 -0.000154)
(0.010937 0.317531 -0.000154)
(0.015476 0.444007 -0.000154)
(0.020047 0.581747 -0.000123)
(0.021474 0.551133 -0.000092)
(0.032475 0.749892 -0.000092)
(0.141000 3.029725 -0.000092)
(0.233930 6.381326 -0.000092)
(-7.351385 -22.987815 -0.000092)
(75.838162 -216.876924 -0.000092)
(-15.602101 -11.020149 -0.000092)
(-12.978260 -5.625337 -0.000092)
(-13.242662 -22.955265 -0.000092)
(-54.820283 211.884936 -0.000092)
(5.958440 68.489535 -0.000040)
(4.973046 32.537329 0.000012)
(1.655719 17.285993 0.000012)
(-0.944848 -2.331258 0.000012)
(1.057905 3.197435 0.000012)
(-0.003020 0.367536 0.000012)
(-1.094611 -2.210611 0.000012)
(-0.617358 -0.883523 0.000012)
(-0.362562 -0.392053 0.000012)
(0.319611 0.154411 0.000012)
(1.861486 2.142937 0.000012)
(5.311338 5.401617 0.000012)
(10.855920 9.961685 0.000012)
(17.339188 14.038949 0.000012)
(24.881801 17.630574 0.000012)
(33.442722 20.692564 0.000012)
(33.360955 19.131441 0.000012)
(62.584896 24.859537 0.000012)
(-55.502815 -22.525349 0.000012)
(-173.914669 -55.056785 0.000012)
(-103.808541 -18.741479 0.000012)
(-41.918500 -0.814604 0.000012)
(34.370031 3.242385 0.000012)
(58.695456 -0.790255 0.000012)
(37.666251 -4.886329 0.000012)
(28.522476 -5.644838 0.000012)
(6.300039 -3.597683 0.000012)
(-0.803888 -2.171454 0.000012)
(1.312168 -2.458616 0.000012)
(4.575400 -3.855679 0.000012)
(2.604456 -2.474188 0.000012)
(-0.780544 0.160512 0.000012)
(0.634832 0.126013 0.000012)
(1.300899 -0.237484 0.000012)
(0.900252 -0.233738 0.000012)
(0.617143 -0.243298 0.000012)
(0.433773 -0.237247 0.000012)
(0.283327 -0.202268 0.000012)
(0.157456 -0.133689 0.000012)
(0.059499 -0.057217 0.000012)
(0.008182 -0.012243 0.000012)
(-0.016920 0.015096 0.000012)
(-0.026881 0.030868 0.000012)
(-0.027433 0.036179 0.000012)
(-0.023728 0.034836 0.000012)
(-0.018694 0.028969 0.000012)
(-0.013653 0.020159 0.000012)
(-0.009065 0.012787 -0.000040)
(-93.374906 0.006819 -0.000092)
(93.369156 0.001338 -0.000092)
(-0.001974 0.002508 -0.000092)
(-0.002317 0.002866 -0.000092)
(-0.022066 0.045866 -0.000092)
(-0.027912 0.072810 -0.000092)
(-0.009702 0.043165 -0.000092)
(-0.004628 0.026582 -0.000092)
(-0.003061 0.020547 -0.000092)
(-0.002124 0.016408 -0.000092)
(-0.001540 0.014265 -0.000123)
(-0.001217 0.012695 -0.000154)
(-0.001049 0.011264 -0.000154)
(-0.000940 0.010018 -0.000154)
(-0.000873 0.008967 -0.000154)
(-0.000784 0.007376 -0.000154)
(-0.000482 0.005828 -0.000154)
(-0.000205 0.006093 -0.000154)
(-0.000015 0.006862 -0.000154)
(0.001004 -0.004678 -0.000154)
)
;
    }
}
