/*--------------------------------*- C++ -*----------------------------------*\
  =========                 |
  \\      /  F ield         | OpenFOAM: The Open Source CFD Toolbox
   \\    /   O peration     | Website:  https://openfoam.org
    \\  /    A nd           | Version:  8
     \\/     M anipulation  |
\*---------------------------------------------------------------------------*/
FoamFile
{
    version     2.0;
    format      ascii;
    class       volScalarField;
    location    "0.7";
    object      nuTilda;
}
// * * * * * * * * * * * * * * * * * * * * * * * * * * * * * * * * * * * * * //

dimensions      [0 2 -1 0 0 0 0];

internalField   nonuniform List<scalar> 
277560
(
0.139717
0.139213
0.138773
0.13839
0.138058
0.137774
0.137532
0.137327
0.137155
0.137012
0.136896
0.136802
0.136728
0.136672
0.13663
0.136602
0.136586
0.13658
0.136582
0.136592
0.136609
0.136631
0.136658
0.13669
0.136725
0.136763
0.136804
0.136848
0.136894
0.136941
0.13699
0.13704
0.137092
0.137144
0.137197
0.13725
0.137304
0.137358
0.137413
0.137467
0.137522
0.137576
0.13763
0.137684
0.137738
0.137791
0.137844
0.137896
0.137948
0.137999
0.13805
0.1381
0.138149
0.138198
0.138245
0.138292
0.138339
0.138384
0.138429
0.138472
0.138515
0.138557
0.138599
0.138639
0.138678
0.138717
0.138755
0.138792
0.138828
0.138863
0.138897
0.13893
0.138963
0.138995
0.139025
0.139055
0.139085
0.139113
0.139141
0.139168
0.139194
0.139219
0.139243
0.139267
0.13929
0.139312
0.139334
0.139354
0.139374
0.139393
0.139412
0.139429
0.139446
0.139462
0.139477
0.139492
0.139505
0.139518
0.13953
0.139541
0.139551
0.13956
0.139568
0.139575
0.139581
0.139586
0.139589
0.139592
0.139593
0.139593
0.139591
0.139588
0.139584
0.139578
0.13957
0.139561
0.13955
0.139537
0.139522
0.139506
0.139716
0.139213
0.138773
0.13839
0.138059
0.137775
0.137533
0.137328
0.137157
0.137015
0.136898
0.136805
0.136731
0.136675
0.136634
0.136606
0.13659
0.136583
0.136586
0.136596
0.136612
0.136634
0.136661
0.136693
0.136728
0.136766
0.136807
0.13685
0.136896
0.136943
0.136992
0.137042
0.137093
0.137145
0.137197
0.137251
0.137304
0.137358
0.137412
0.137467
0.137521
0.137575
0.137629
0.137683
0.137736
0.13779
0.137842
0.137894
0.137946
0.137997
0.138048
0.138097
0.138147
0.138195
0.138243
0.13829
0.138336
0.138381
0.138426
0.138469
0.138512
0.138554
0.138595
0.138636
0.138675
0.138714
0.138751
0.138788
0.138824
0.138859
0.138893
0.138927
0.138959
0.138991
0.139022
0.139052
0.139081
0.139109
0.139137
0.139164
0.13919
0.139215
0.13924
0.139263
0.139286
0.139309
0.13933
0.139351
0.139371
0.13939
0.139408
0.139426
0.139443
0.139459
0.139474
0.139488
0.139502
0.139515
0.139527
0.139538
0.139548
0.139557
0.139565
0.139572
0.139578
0.139583
0.139586
0.139589
0.13959
0.13959
0.139588
0.139585
0.139581
0.139575
0.139567
0.139558
0.139547
0.139534
0.139519
0.139503
0.139716
0.139211
0.138771
0.138388
0.138057
0.137773
0.137531
0.137327
0.137155
0.137013
0.136897
0.136804
0.13673
0.136674
0.136633
0.136605
0.136589
0.136582
0.136585
0.136594
0.136611
0.136632
0.136659
0.13669
0.136725
0.136763
0.136804
0.136847
0.136892
0.136939
0.136987
0.137037
0.137088
0.137139
0.137192
0.137245
0.137298
0.137352
0.137406
0.13746
0.137514
0.137568
0.137622
0.137675
0.137728
0.137781
0.137834
0.137886
0.137937
0.137988
0.138039
0.138089
0.138138
0.138186
0.138234
0.13828
0.138327
0.138372
0.138416
0.13846
0.138503
0.138545
0.138586
0.138626
0.138666
0.138704
0.138742
0.138779
0.138815
0.13885
0.138884
0.138918
0.13895
0.138982
0.139013
0.139043
0.139072
0.139101
0.139129
0.139156
0.139182
0.139207
0.139232
0.139256
0.139279
0.139301
0.139322
0.139343
0.139363
0.139383
0.139401
0.139419
0.139436
0.139452
0.139467
0.139482
0.139496
0.139508
0.13952
0.139531
0.139542
0.139551
0.139559
0.139566
0.139572
0.139577
0.139581
0.139583
0.139584
0.139584
0.139582
0.13958
0.139575
0.139569
0.139561
0.139552
0.139541
0.139528
0.139513
0.139496
0.139715
0.139209
0.138767
0.138384
0.138053
0.137769
0.137527
0.137322
0.137151
0.137009
0.136893
0.1368
0.136726
0.13667
0.136629
0.136601
0.136584
0.136578
0.13658
0.136589
0.136605
0.136626
0.136653
0.136683
0.136718
0.136755
0.136796
0.136838
0.136883
0.13693
0.136978
0.137027
0.137077
0.137129
0.137181
0.137233
0.137286
0.13734
0.137393
0.137447
0.137501
0.137555
0.137608
0.137662
0.137715
0.137768
0.13782
0.137872
0.137923
0.137974
0.138025
0.138074
0.138123
0.138172
0.138219
0.138266
0.138312
0.138358
0.138402
0.138446
0.138489
0.138531
0.138572
0.138612
0.138652
0.138691
0.138728
0.138765
0.138802
0.138837
0.138871
0.138905
0.138938
0.13897
0.139001
0.139031
0.13906
0.139089
0.139117
0.139144
0.13917
0.139196
0.139221
0.139245
0.139268
0.13929
0.139312
0.139333
0.139353
0.139373
0.139391
0.139409
0.139427
0.139443
0.139458
0.139473
0.139487
0.1395
0.139512
0.139523
0.139533
0.139543
0.139551
0.139558
0.139564
0.139569
0.139573
0.139575
0.139577
0.139577
0.139575
0.139572
0.139567
0.139561
0.139553
0.139544
0.139533
0.13952
0.139504
0.139488
0.139713
0.139206
0.138763
0.138379
0.138047
0.137763
0.137521
0.137316
0.137145
0.137003
0.136887
0.136793
0.13672
0.136663
0.136622
0.136593
0.136577
0.13657
0.136571
0.13658
0.136596
0.136617
0.136643
0.136673
0.136707
0.136744
0.136784
0.136826
0.13687
0.136916
0.136964
0.137013
0.137063
0.137113
0.137165
0.137217
0.13727
0.137323
0.137377
0.13743
0.137484
0.137537
0.137591
0.137644
0.137697
0.137749
0.137802
0.137854
0.137905
0.137956
0.138006
0.138056
0.138105
0.138153
0.138201
0.138248
0.138294
0.138339
0.138384
0.138428
0.138471
0.138513
0.138554
0.138595
0.138635
0.138674
0.138712
0.138749
0.138785
0.138821
0.138855
0.138889
0.138922
0.138954
0.138986
0.139016
0.139046
0.139075
0.139103
0.13913
0.139157
0.139183
0.139208
0.139232
0.139255
0.139278
0.1393
0.139321
0.139342
0.139361
0.13938
0.139398
0.139416
0.139432
0.139448
0.139463
0.139477
0.13949
0.139502
0.139514
0.139524
0.139534
0.139542
0.139549
0.139555
0.13956
0.139564
0.139567
0.139568
0.139568
0.139566
0.139563
0.139559
0.139552
0.139545
0.139535
0.139523
0.13951
0.139495
0.139477
0.139712
0.139202
0.138758
0.138372
0.13804
0.137755
0.137513
0.137308
0.137136
0.136994
0.136878
0.136784
0.13671
0.136654
0.136612
0.136583
0.136566
0.136559
0.13656
0.136568
0.136583
0.136604
0.136629
0.136659
0.136692
0.136729
0.136768
0.13681
0.136854
0.136899
0.136946
0.136995
0.137044
0.137095
0.137146
0.137198
0.13725
0.137303
0.137356
0.137409
0.137462
0.137516
0.137569
0.137622
0.137675
0.137727
0.13778
0.137831
0.137883
0.137934
0.137984
0.138034
0.138083
0.138131
0.138179
0.138226
0.138272
0.138318
0.138363
0.138407
0.13845
0.138492
0.138534
0.138575
0.138615
0.138654
0.138692
0.138729
0.138766
0.138802
0.138837
0.138871
0.138904
0.138937
0.138968
0.138999
0.139029
0.139058
0.139087
0.139115
0.139141
0.139167
0.139193
0.139217
0.139241
0.139264
0.139286
0.139308
0.139329
0.139349
0.139368
0.139386
0.139404
0.139421
0.139437
0.139452
0.139466
0.139479
0.139492
0.139503
0.139514
0.139524
0.139532
0.13954
0.139546
0.139551
0.139555
0.139557
0.139559
0.139559
0.139557
0.139554
0.139549
0.139543
0.139535
0.139525
0.139513
0.1395
0.139484
0.139466
0.13971
0.139198
0.138752
0.138365
0.138032
0.137746
0.137503
0.137298
0.137126
0.136984
0.136867
0.136773
0.136699
0.136642
0.1366
0.136571
0.136553
0.136545
0.136546
0.136554
0.136568
0.136588
0.136613
0.136642
0.136675
0.136711
0.13675
0.136791
0.136834
0.136879
0.136926
0.136973
0.137022
0.137072
0.137123
0.137175
0.137227
0.137279
0.137332
0.137385
0.137438
0.137491
0.137544
0.137597
0.13765
0.137702
0.137755
0.137806
0.137858
0.137908
0.137959
0.138009
0.138058
0.138106
0.138154
0.138202
0.138248
0.138294
0.138339
0.138383
0.138427
0.138469
0.138511
0.138552
0.138592
0.138632
0.13867
0.138708
0.138745
0.138781
0.138817
0.138851
0.138885
0.138918
0.13895
0.138981
0.139011
0.139041
0.13907
0.139098
0.139125
0.139151
0.139177
0.139202
0.139226
0.139249
0.139272
0.139294
0.139315
0.139335
0.139355
0.139373
0.139391
0.139408
0.139425
0.13944
0.139455
0.139468
0.139481
0.139493
0.139503
0.139513
0.139522
0.139529
0.139536
0.139541
0.139545
0.139548
0.139549
0.139549
0.139547
0.139544
0.139539
0.139533
0.139524
0.139514
0.139502
0.139489
0.139473
0.139455
0.139709
0.139194
0.138746
0.138357
0.138023
0.137736
0.137493
0.137287
0.137115
0.136972
0.136855
0.136761
0.136686
0.136629
0.136586
0.136557
0.136539
0.13653
0.13653
0.136538
0.136551
0.136571
0.136595
0.136623
0.136656
0.136691
0.136729
0.136769
0.136812
0.136856
0.136902
0.13695
0.136998
0.137048
0.137098
0.137149
0.137201
0.137253
0.137306
0.137358
0.137411
0.137464
0.137517
0.13757
0.137622
0.137675
0.137727
0.137779
0.13783
0.137881
0.137931
0.137981
0.138031
0.138079
0.138127
0.138175
0.138222
0.138268
0.138313
0.138358
0.138401
0.138444
0.138487
0.138528
0.138569
0.138608
0.138647
0.138685
0.138723
0.138759
0.138795
0.13883
0.138864
0.138897
0.13893
0.138961
0.138992
0.139022
0.139051
0.13908
0.139107
0.139134
0.13916
0.139186
0.13921
0.139234
0.139257
0.139279
0.1393
0.139321
0.139341
0.13936
0.139378
0.139396
0.139412
0.139428
0.139443
0.139456
0.139469
0.139481
0.139492
0.139502
0.139511
0.139519
0.139525
0.139531
0.139535
0.139537
0.139539
0.139539
0.139537
0.139534
0.139529
0.139522
0.139514
0.139503
0.139491
0.139477
0.139461
0.139442
0.139707
0.139189
0.138739
0.138349
0.138013
0.137726
0.137481
0.137275
0.137102
0.136959
0.136842
0.136747
0.136672
0.136614
0.136571
0.136541
0.136522
0.136513
0.136513
0.13652
0.136533
0.136551
0.136575
0.136603
0.136634
0.136669
0.136706
0.136746
0.136788
0.136831
0.136877
0.136924
0.136972
0.137021
0.137071
0.137121
0.137173
0.137225
0.137277
0.137329
0.137382
0.137435
0.137487
0.13754
0.137593
0.137645
0.137697
0.137749
0.1378
0.137851
0.137902
0.137952
0.138002
0.138051
0.138099
0.138147
0.138194
0.13824
0.138286
0.13833
0.138375
0.138418
0.138461
0.138502
0.138543
0.138584
0.138623
0.138661
0.138699
0.138736
0.138772
0.138808
0.138842
0.138876
0.138909
0.138941
0.138972
0.139002
0.139032
0.139061
0.139089
0.139116
0.139143
0.139169
0.139193
0.139218
0.139241
0.139264
0.139285
0.139306
0.139327
0.139346
0.139365
0.139382
0.139399
0.139415
0.13943
0.139444
0.139457
0.13947
0.139481
0.139491
0.1395
0.139508
0.139515
0.13952
0.139524
0.139527
0.139528
0.139528
0.139526
0.139523
0.139518
0.139511
0.139503
0.139492
0.13948
0.139465
0.139449
0.13943
0.139705
0.139185
0.138732
0.13834
0.138003
0.137714
0.137469
0.137262
0.137089
0.136945
0.136827
0.136732
0.136657
0.136598
0.136555
0.136524
0.136505
0.136495
0.136494
0.1365
0.136512
0.13653
0.136553
0.13658
0.136611
0.136645
0.136681
0.13672
0.136762
0.136805
0.13685
0.136896
0.136944
0.136992
0.137042
0.137092
0.137143
0.137194
0.137246
0.137298
0.137351
0.137403
0.137456
0.137509
0.137561
0.137614
0.137666
0.137718
0.137769
0.13782
0.137871
0.137921
0.137971
0.13802
0.138069
0.138117
0.138164
0.138211
0.138257
0.138302
0.138347
0.13839
0.138433
0.138476
0.138517
0.138558
0.138597
0.138636
0.138675
0.138712
0.138749
0.138784
0.138819
0.138854
0.138887
0.138919
0.138951
0.138982
0.139012
0.139042
0.13907
0.139098
0.139125
0.139151
0.139176
0.139201
0.139225
0.139248
0.13927
0.139291
0.139312
0.139332
0.13935
0.139369
0.139386
0.139402
0.139417
0.139432
0.139445
0.139458
0.139469
0.139479
0.139489
0.139497
0.139504
0.139509
0.139513
0.139516
0.139517
0.139517
0.139516
0.139512
0.139507
0.1395
0.139491
0.139481
0.139468
0.139453
0.139436
0.139417
0.139703
0.13918
0.138724
0.138331
0.137992
0.137702
0.137456
0.137248
0.137075
0.13693
0.136812
0.136716
0.13664
0.136581
0.136537
0.136506
0.136486
0.136476
0.136474
0.136479
0.136491
0.136508
0.13653
0.136556
0.136586
0.136619
0.136655
0.136694
0.136734
0.136777
0.136821
0.136867
0.136914
0.136962
0.137011
0.137061
0.137111
0.137162
0.137214
0.137266
0.137318
0.137371
0.137423
0.137476
0.137528
0.137581
0.137633
0.137685
0.137737
0.137788
0.137839
0.137889
0.137939
0.137989
0.138038
0.138086
0.138134
0.138181
0.138227
0.138273
0.138317
0.138362
0.138405
0.138448
0.13849
0.138531
0.138571
0.138611
0.138649
0.138687
0.138724
0.138761
0.138796
0.138831
0.138864
0.138897
0.13893
0.138961
0.138992
0.139022
0.139051
0.139079
0.139106
0.139133
0.139159
0.139184
0.139208
0.139231
0.139254
0.139276
0.139297
0.139317
0.139336
0.139354
0.139372
0.139389
0.139404
0.139419
0.139433
0.139445
0.139457
0.139468
0.139477
0.139485
0.139492
0.139498
0.139502
0.139505
0.139506
0.139506
0.139505
0.139501
0.139496
0.139489
0.13948
0.139469
0.139456
0.139441
0.139423
0.139404
0.139701
0.139175
0.138717
0.138321
0.137981
0.13769
0.137443
0.137234
0.13706
0.136915
0.136796
0.1367
0.136623
0.136564
0.136519
0.136487
0.136467
0.136456
0.136453
0.136458
0.136468
0.136485
0.136506
0.136532
0.136561
0.136593
0.136628
0.136666
0.136706
0.136748
0.136791
0.136836
0.136883
0.13693
0.136979
0.137028
0.137079
0.137129
0.137181
0.137232
0.137285
0.137337
0.137389
0.137442
0.137494
0.137547
0.137599
0.137651
0.137703
0.137754
0.137805
0.137856
0.137906
0.137956
0.138005
0.138054
0.138102
0.138149
0.138196
0.138242
0.138287
0.138332
0.138376
0.138419
0.138461
0.138503
0.138544
0.138584
0.138623
0.138661
0.138699
0.138736
0.138772
0.138807
0.138841
0.138875
0.138908
0.13894
0.138971
0.139001
0.13903
0.139059
0.139087
0.139114
0.13914
0.139166
0.139191
0.139214
0.139238
0.13926
0.139281
0.139302
0.139321
0.13934
0.139358
0.139375
0.139391
0.139406
0.13942
0.139433
0.139445
0.139455
0.139465
0.139473
0.139481
0.139486
0.139491
0.139494
0.139495
0.139495
0.139493
0.13949
0.139484
0.139477
0.139468
0.139457
0.139443
0.139428
0.13941
0.13939
0.139699
0.139169
0.138709
0.138311
0.13797
0.137677
0.137429
0.13722
0.137045
0.136899
0.13678
0.136683
0.136606
0.136546
0.1365
0.136468
0.136447
0.136435
0.136431
0.136435
0.136445
0.136461
0.136481
0.136506
0.136534
0.136566
0.1366
0.136637
0.136676
0.136717
0.13676
0.136805
0.136851
0.136898
0.136946
0.136995
0.137045
0.137095
0.137146
0.137198
0.13725
0.137302
0.137354
0.137407
0.137459
0.137512
0.137564
0.137616
0.137668
0.13772
0.137771
0.137822
0.137872
0.137922
0.137972
0.138021
0.138069
0.138117
0.138164
0.138211
0.138257
0.138302
0.138346
0.13839
0.138433
0.138475
0.138516
0.138556
0.138596
0.138635
0.138673
0.138711
0.138747
0.138783
0.138818
0.138852
0.138885
0.138917
0.138949
0.13898
0.13901
0.139039
0.139068
0.139095
0.139122
0.139148
0.139173
0.139197
0.139221
0.139243
0.139265
0.139286
0.139306
0.139325
0.139343
0.139361
0.139377
0.139392
0.139407
0.13942
0.139432
0.139443
0.139453
0.139461
0.139469
0.139475
0.139479
0.139482
0.139484
0.139483
0.139482
0.139478
0.139472
0.139465
0.139456
0.139444
0.139431
0.139415
0.139396
0.139376
0.139697
0.139164
0.138701
0.138301
0.137958
0.137665
0.137415
0.137205
0.137029
0.136883
0.136763
0.136666
0.136588
0.136527
0.136481
0.136448
0.136426
0.136414
0.136409
0.136412
0.136422
0.136436
0.136456
0.13648
0.136507
0.136538
0.136571
0.136608
0.136646
0.136687
0.136729
0.136773
0.136818
0.136865
0.136912
0.136961
0.13701
0.13706
0.137111
0.137162
0.137214
0.137266
0.137318
0.137371
0.137423
0.137476
0.137528
0.13758
0.137632
0.137684
0.137736
0.137787
0.137838
0.137888
0.137938
0.137987
0.138036
0.138084
0.138132
0.138179
0.138225
0.138271
0.138315
0.13836
0.138403
0.138446
0.138487
0.138528
0.138569
0.138608
0.138647
0.138685
0.138722
0.138758
0.138793
0.138828
0.138862
0.138895
0.138927
0.138958
0.138989
0.139019
0.139047
0.139076
0.139103
0.139129
0.139155
0.13918
0.139203
0.139227
0.139249
0.13927
0.13929
0.13931
0.139329
0.139346
0.139363
0.139379
0.139393
0.139407
0.139419
0.13943
0.13944
0.139449
0.139456
0.139463
0.139467
0.13947
0.139472
0.139471
0.13947
0.139466
0.13946
0.139453
0.139443
0.139431
0.139417
0.139401
0.139382
0.139361
0.139695
0.139159
0.138693
0.138291
0.137946
0.137652
0.137402
0.137191
0.137014
0.136867
0.136746
0.136648
0.13657
0.136509
0.136462
0.136428
0.136405
0.136392
0.136387
0.136389
0.136397
0.136411
0.13643
0.136453
0.136479
0.136509
0.136542
0.136578
0.136615
0.136655
0.136697
0.13674
0.136785
0.136831
0.136878
0.136926
0.136975
0.137025
0.137075
0.137126
0.137178
0.137229
0.137282
0.137334
0.137386
0.137439
0.137491
0.137544
0.137596
0.137648
0.1377
0.137751
0.137802
0.137853
0.137903
0.137953
0.138002
0.138051
0.138099
0.138146
0.138193
0.138239
0.138284
0.138329
0.138373
0.138416
0.138458
0.1385
0.138541
0.138581
0.13862
0.138658
0.138696
0.138733
0.138769
0.138804
0.138838
0.138872
0.138904
0.138936
0.138967
0.138998
0.139027
0.139056
0.139083
0.13911
0.139136
0.139161
0.139186
0.139209
0.139232
0.139254
0.139275
0.139294
0.139313
0.139331
0.139348
0.139364
0.139379
0.139393
0.139406
0.139417
0.139427
0.139436
0.139444
0.13945
0.139455
0.139458
0.139459
0.139459
0.139457
0.139454
0.139448
0.13944
0.13943
0.139418
0.139404
0.139387
0.139368
0.139347
0.139693
0.139153
0.138685
0.138281
0.137935
0.137639
0.137387
0.137176
0.136998
0.136851
0.13673
0.136631
0.136552
0.13649
0.136443
0.136408
0.136384
0.13637
0.136364
0.136366
0.136373
0.136386
0.136404
0.136426
0.136452
0.136481
0.136513
0.136547
0.136584
0.136623
0.136664
0.136706
0.136751
0.136796
0.136843
0.13689
0.136939
0.136988
0.137039
0.137089
0.137141
0.137192
0.137244
0.137297
0.137349
0.137402
0.137454
0.137507
0.137559
0.137611
0.137663
0.137715
0.137766
0.137817
0.137868
0.137918
0.137967
0.138016
0.138065
0.138113
0.13816
0.138206
0.138252
0.138297
0.138342
0.138385
0.138428
0.138471
0.138512
0.138553
0.138592
0.138631
0.138669
0.138707
0.138743
0.138779
0.138814
0.138848
0.138881
0.138914
0.138945
0.138976
0.139006
0.139035
0.139063
0.139091
0.139117
0.139143
0.139168
0.139192
0.139215
0.139237
0.139258
0.139279
0.139298
0.139316
0.139334
0.13935
0.139365
0.139379
0.139392
0.139404
0.139414
0.139423
0.139431
0.139437
0.139442
0.139445
0.139447
0.139447
0.139445
0.139441
0.139435
0.139427
0.139417
0.139405
0.13939
0.139373
0.139354
0.139332
0.139691
0.139148
0.138677
0.138271
0.137923
0.137626
0.137373
0.137161
0.136983
0.136835
0.136713
0.136614
0.136534
0.136471
0.136423
0.136388
0.136363
0.136348
0.136342
0.136342
0.136349
0.136361
0.136377
0.136399
0.136423
0.136451
0.136483
0.136516
0.136552
0.136591
0.136631
0.136673
0.136716
0.136761
0.136807
0.136854
0.136903
0.136952
0.137001
0.137052
0.137103
0.137155
0.137206
0.137259
0.137311
0.137364
0.137416
0.137469
0.137521
0.137574
0.137626
0.137678
0.13773
0.137781
0.137832
0.137882
0.137932
0.137982
0.13803
0.138079
0.138126
0.138173
0.13822
0.138265
0.13831
0.138355
0.138398
0.138441
0.138483
0.138524
0.138564
0.138604
0.138642
0.13868
0.138717
0.138754
0.138789
0.138824
0.138858
0.138891
0.138923
0.138954
0.138984
0.139014
0.139043
0.139071
0.139098
0.139124
0.139149
0.139174
0.139197
0.13922
0.139241
0.139262
0.139282
0.139301
0.139318
0.139335
0.13935
0.139365
0.139378
0.13939
0.139401
0.13941
0.139418
0.139424
0.139429
0.139432
0.139434
0.139434
0.139432
0.139428
0.139422
0.139414
0.139403
0.139391
0.139376
0.139358
0.139339
0.139316
0.139689
0.139143
0.138669
0.138261
0.137911
0.137613
0.137359
0.137146
0.136967
0.136818
0.136696
0.136596
0.136516
0.136453
0.136404
0.136368
0.136342
0.136327
0.136319
0.136318
0.136324
0.136335
0.136351
0.136371
0.136395
0.136422
0.136452
0.136485
0.136521
0.136558
0.136598
0.136639
0.136682
0.136726
0.136771
0.136818
0.136866
0.136914
0.136964
0.137014
0.137065
0.137116
0.137168
0.13722
0.137273
0.137325
0.137378
0.137431
0.137483
0.137536
0.137588
0.13764
0.137692
0.137744
0.137795
0.137846
0.137896
0.137946
0.137995
0.138044
0.138092
0.13814
0.138187
0.138233
0.138278
0.138323
0.138367
0.13841
0.138453
0.138495
0.138535
0.138576
0.138615
0.138653
0.138691
0.138728
0.138764
0.138799
0.138833
0.138867
0.1389
0.138932
0.138963
0.138993
0.139022
0.13905
0.139078
0.139105
0.13913
0.139155
0.139179
0.139202
0.139224
0.139245
0.139266
0.139285
0.139303
0.13932
0.139336
0.13935
0.139364
0.139376
0.139387
0.139396
0.139404
0.139411
0.139416
0.139419
0.139421
0.139421
0.139419
0.139415
0.139408
0.1394
0.13939
0.139377
0.139361
0.139343
0.139323
0.1393
0.139687
0.139137
0.138661
0.138251
0.137899
0.1376
0.137346
0.137131
0.136952
0.136803
0.136679
0.136579
0.136498
0.136434
0.136385
0.136348
0.136322
0.136305
0.136296
0.136295
0.1363
0.13631
0.136325
0.136344
0.136367
0.136393
0.136422
0.136454
0.136489
0.136525
0.136564
0.136605
0.136647
0.13669
0.136735
0.136781
0.136829
0.136877
0.136926
0.136976
0.137027
0.137078
0.137129
0.137181
0.137234
0.137286
0.137339
0.137392
0.137444
0.137497
0.13755
0.137602
0.137654
0.137706
0.137758
0.137809
0.13786
0.13791
0.13796
0.138009
0.138058
0.138106
0.138153
0.1382
0.138246
0.138291
0.138336
0.138379
0.138422
0.138465
0.138506
0.138547
0.138587
0.138626
0.138664
0.138702
0.138738
0.138774
0.138809
0.138843
0.138876
0.138909
0.13894
0.138971
0.139001
0.13903
0.139058
0.139085
0.139111
0.139136
0.139161
0.139184
0.139207
0.139228
0.139249
0.139268
0.139287
0.139304
0.13932
0.139335
0.139349
0.139361
0.139373
0.139382
0.139391
0.139397
0.139402
0.139406
0.139407
0.139407
0.139405
0.139401
0.139395
0.139386
0.139375
0.139362
0.139346
0.139328
0.139307
0.139284
0.139685
0.139132
0.138653
0.138241
0.137888
0.137587
0.137332
0.137117
0.136937
0.136787
0.136663
0.136562
0.136481
0.136416
0.136366
0.136328
0.136301
0.136284
0.136274
0.136272
0.136275
0.136285
0.136299
0.136317
0.136339
0.136364
0.136392
0.136423
0.136457
0.136493
0.13653
0.13657
0.136612
0.136655
0.136699
0.136745
0.136791
0.136839
0.136888
0.136938
0.136988
0.137039
0.13709
0.137142
0.137194
0.137247
0.1373
0.137352
0.137405
0.137458
0.137511
0.137564
0.137616
0.137668
0.13772
0.137772
0.137823
0.137873
0.137924
0.137973
0.138022
0.138071
0.138119
0.138166
0.138212
0.138258
0.138303
0.138348
0.138391
0.138434
0.138476
0.138518
0.138558
0.138598
0.138637
0.138675
0.138712
0.138748
0.138784
0.138818
0.138852
0.138885
0.138917
0.138948
0.138979
0.139008
0.139037
0.139064
0.139091
0.139117
0.139142
0.139166
0.139189
0.139211
0.139232
0.139252
0.13927
0.139288
0.139305
0.13932
0.139334
0.139347
0.139358
0.139368
0.139376
0.139383
0.139388
0.139392
0.139393
0.139393
0.139391
0.139387
0.13938
0.139372
0.139361
0.139347
0.139331
0.139312
0.139291
0.139267
0.139683
0.139126
0.138645
0.138231
0.137876
0.137574
0.137318
0.137103
0.136922
0.136771
0.136647
0.136546
0.136463
0.136398
0.136347
0.136309
0.136281
0.136262
0.136252
0.136249
0.136251
0.13626
0.136272
0.13629
0.13631
0.136335
0.136362
0.136392
0.136425
0.13646
0.136497
0.136536
0.136577
0.136619
0.136663
0.136708
0.136754
0.136801
0.13685
0.136899
0.136949
0.137
0.137051
0.137103
0.137155
0.137207
0.13726
0.137313
0.137366
0.137419
0.137472
0.137525
0.137577
0.13763
0.137682
0.137734
0.137785
0.137836
0.137887
0.137937
0.137987
0.138035
0.138084
0.138132
0.138179
0.138225
0.138271
0.138316
0.13836
0.138403
0.138446
0.138488
0.138529
0.138569
0.138609
0.138647
0.138685
0.138722
0.138758
0.138793
0.138828
0.138861
0.138894
0.138925
0.138956
0.138986
0.139015
0.139044
0.139071
0.139097
0.139123
0.139147
0.13917
0.139193
0.139214
0.139235
0.139254
0.139272
0.139289
0.139304
0.139318
0.139331
0.139343
0.139353
0.139362
0.139369
0.139374
0.139378
0.139379
0.139379
0.139377
0.139372
0.139366
0.139357
0.139346
0.139332
0.139315
0.139296
0.139274
0.13925
0.139681
0.139121
0.138637
0.138221
0.137865
0.137562
0.137305
0.137089
0.136907
0.136756
0.136631
0.136529
0.136447
0.136381
0.136329
0.13629
0.136261
0.136242
0.13623
0.136226
0.136228
0.136235
0.136247
0.136263
0.136283
0.136306
0.136332
0.136361
0.136393
0.136427
0.136463
0.136501
0.136541
0.136583
0.136626
0.13667
0.136716
0.136763
0.136811
0.13686
0.13691
0.13696
0.137011
0.137063
0.137115
0.137167
0.13722
0.137273
0.137326
0.137379
0.137432
0.137485
0.137538
0.137591
0.137643
0.137695
0.137747
0.137799
0.13785
0.1379
0.13795
0.138
0.138048
0.138097
0.138144
0.138191
0.138237
0.138283
0.138328
0.138372
0.138415
0.138457
0.138499
0.13854
0.13858
0.138619
0.138657
0.138695
0.138732
0.138767
0.138802
0.138837
0.13887
0.138902
0.138934
0.138964
0.138994
0.139022
0.13905
0.139077
0.139103
0.139128
0.139152
0.139175
0.139196
0.139217
0.139237
0.139255
0.139272
0.139288
0.139303
0.139316
0.139328
0.139338
0.139347
0.139354
0.139359
0.139363
0.139365
0.139364
0.139362
0.139358
0.139351
0.139342
0.13933
0.139316
0.139299
0.13928
0.139257
0.139232
0.139678
0.139116
0.138629
0.138212
0.137854
0.13755
0.137292
0.137075
0.136893
0.136741
0.136616
0.136513
0.13643
0.136364
0.136311
0.136271
0.136242
0.136221
0.136209
0.136204
0.136204
0.13621
0.136221
0.136236
0.136255
0.136277
0.136302
0.136331
0.136361
0.136394
0.13643
0.136467
0.136506
0.136547
0.136589
0.136633
0.136678
0.136725
0.136772
0.136821
0.13687
0.13692
0.136971
0.137022
0.137074
0.137127
0.137179
0.137232
0.137285
0.137338
0.137392
0.137445
0.137498
0.137551
0.137604
0.137656
0.137709
0.13776
0.137812
0.137863
0.137913
0.137963
0.138012
0.138061
0.138109
0.138157
0.138204
0.13825
0.138295
0.13834
0.138383
0.138426
0.138469
0.13851
0.138551
0.138591
0.138629
0.138668
0.138705
0.138741
0.138777
0.138811
0.138845
0.138878
0.13891
0.138941
0.138971
0.139001
0.139029
0.139056
0.139083
0.139108
0.139132
0.139156
0.139178
0.139199
0.139219
0.139238
0.139255
0.139272
0.139286
0.1393
0.139312
0.139323
0.139332
0.139339
0.139344
0.139348
0.13935
0.139349
0.139347
0.139342
0.139336
0.139326
0.139314
0.1393
0.139283
0.139263
0.13924
0.139214
0.139676
0.13911
0.138622
0.138202
0.137843
0.137538
0.137279
0.137062
0.136879
0.136727
0.136601
0.136498
0.136414
0.136347
0.136294
0.136253
0.136223
0.136201
0.136188
0.136182
0.136181
0.136186
0.136196
0.13621
0.136228
0.136249
0.136273
0.1363
0.13633
0.136362
0.136396
0.136433
0.136471
0.136511
0.136553
0.136596
0.136641
0.136686
0.136733
0.136781
0.13683
0.13688
0.136931
0.136982
0.137034
0.137086
0.137138
0.137191
0.137244
0.137298
0.137351
0.137405
0.137458
0.137511
0.137564
0.137617
0.137669
0.137722
0.137773
0.137825
0.137876
0.137926
0.137976
0.138025
0.138074
0.138122
0.138169
0.138216
0.138262
0.138307
0.138351
0.138395
0.138438
0.13848
0.138521
0.138561
0.138601
0.13864
0.138678
0.138715
0.138751
0.138786
0.13882
0.138854
0.138886
0.138918
0.138949
0.138979
0.139007
0.139035
0.139062
0.139088
0.139113
0.139136
0.139159
0.139181
0.139201
0.13922
0.139238
0.139255
0.13927
0.139284
0.139296
0.139307
0.139316
0.139323
0.139329
0.139333
0.139334
0.139334
0.139332
0.139327
0.13932
0.13931
0.139298
0.139283
0.139266
0.139245
0.139222
0.139195
0.139674
0.139105
0.138614
0.138193
0.137832
0.137526
0.137267
0.137049
0.136866
0.136713
0.136587
0.136483
0.136399
0.136331
0.136277
0.136235
0.136204
0.136182
0.136168
0.13616
0.136159
0.136163
0.136171
0.136184
0.136201
0.136221
0.136244
0.13627
0.136299
0.13633
0.136363
0.136399
0.136436
0.136475
0.136516
0.136559
0.136603
0.136648
0.136694
0.136742
0.13679
0.13684
0.13689
0.136941
0.136993
0.137045
0.137097
0.13715
0.137203
0.137257
0.13731
0.137364
0.137417
0.137471
0.137524
0.137577
0.13763
0.137682
0.137735
0.137786
0.137838
0.137888
0.137939
0.137989
0.138038
0.138086
0.138134
0.138181
0.138228
0.138273
0.138318
0.138363
0.138406
0.138449
0.138491
0.138532
0.138572
0.138611
0.13865
0.138687
0.138724
0.13876
0.138795
0.138829
0.138862
0.138894
0.138925
0.138956
0.138985
0.139014
0.139041
0.139067
0.139093
0.139117
0.13914
0.139162
0.139183
0.139202
0.13922
0.139237
0.139253
0.139267
0.139279
0.13929
0.1393
0.139307
0.139313
0.139317
0.139319
0.139318
0.139316
0.139311
0.139304
0.139294
0.139282
0.139266
0.139248
0.139227
0.139203
0.139176
0.139672
0.1391
0.138607
0.138183
0.137822
0.137515
0.137255
0.137036
0.136853
0.1367
0.136573
0.136469
0.136384
0.136315
0.136261
0.136218
0.136186
0.136163
0.136148
0.136139
0.136137
0.136139
0.136147
0.136159
0.136174
0.136193
0.136215
0.13624
0.136267
0.136298
0.13633
0.136365
0.136401
0.13644
0.13648
0.136522
0.136565
0.136609
0.136655
0.136702
0.13675
0.1368
0.136849
0.1369
0.136951
0.137003
0.137056
0.137109
0.137162
0.137215
0.137269
0.137322
0.137376
0.13743
0.137483
0.137537
0.13759
0.137643
0.137695
0.137747
0.137799
0.13785
0.137901
0.137951
0.138001
0.13805
0.138098
0.138146
0.138193
0.138239
0.138285
0.13833
0.138374
0.138417
0.13846
0.138501
0.138542
0.138582
0.138621
0.138659
0.138697
0.138733
0.138769
0.138803
0.138837
0.13887
0.138902
0.138933
0.138962
0.138991
0.139019
0.139046
0.139072
0.139097
0.13912
0.139143
0.139164
0.139184
0.139202
0.13922
0.139235
0.13925
0.139263
0.139274
0.139283
0.139291
0.139297
0.139301
0.139303
0.139302
0.1393
0.139295
0.139287
0.139277
0.139265
0.139249
0.139231
0.139209
0.139184
0.139157
0.13967
0.139095
0.138599
0.138174
0.137812
0.137503
0.137243
0.137024
0.13684
0.136687
0.13656
0.136455
0.13637
0.1363
0.136245
0.136202
0.136169
0.136145
0.136129
0.136119
0.136115
0.136117
0.136123
0.136133
0.136148
0.136165
0.136186
0.13621
0.136237
0.136266
0.136297
0.136331
0.136366
0.136404
0.136443
0.136484
0.136527
0.136571
0.136616
0.136663
0.13671
0.136759
0.136809
0.136859
0.13691
0.136962
0.137014
0.137067
0.13712
0.137173
0.137227
0.137281
0.137334
0.137388
0.137442
0.137496
0.137549
0.137602
0.137655
0.137708
0.13776
0.137812
0.137863
0.137914
0.137964
0.138013
0.138062
0.13811
0.138158
0.138205
0.138251
0.138297
0.138341
0.138385
0.138428
0.13847
0.138512
0.138552
0.138592
0.138631
0.138669
0.138706
0.138742
0.138777
0.138812
0.138845
0.138877
0.138909
0.138939
0.138969
0.138997
0.139025
0.139051
0.139076
0.1391
0.139123
0.139144
0.139165
0.139184
0.139201
0.139218
0.139232
0.139245
0.139257
0.139266
0.139274
0.13928
0.139284
0.139286
0.139286
0.139283
0.139278
0.13927
0.13926
0.139247
0.139231
0.139212
0.13919
0.139165
0.139137
0.139668
0.13909
0.138592
0.138165
0.137801
0.137493
0.137232
0.137012
0.136828
0.136674
0.136547
0.136442
0.136356
0.136286
0.13623
0.136186
0.136152
0.136127
0.13611
0.136099
0.136094
0.136095
0.1361
0.136109
0.136122
0.136138
0.136158
0.136181
0.136206
0.136234
0.136265
0.136297
0.136332
0.136369
0.136407
0.136447
0.136489
0.136532
0.136577
0.136623
0.13667
0.136718
0.136767
0.136817
0.136868
0.13692
0.136972
0.137024
0.137078
0.137131
0.137185
0.137238
0.137292
0.137346
0.1374
0.137454
0.137508