/*--------------------------------*- C++ -*----------------------------------*\
  =========                 |
  \\      /  F ield         | OpenFOAM: The Open Source CFD Toolbox
   \\    /   O peration     | Website:  https://openfoam.org
    \\  /    A nd           | Version:  8
     \\/     M anipulation  |
\*---------------------------------------------------------------------------*/
FoamFile
{
    version     2.0;
    format      ascii;
    class       volScalarField;
    location    "1.4";
    object      nuTilda;
}
// * * * * * * * * * * * * * * * * * * * * * * * * * * * * * * * * * * * * * //

dimensions      [0 2 -1 0 0 0 0];

internalField   nonuniform List<scalar> 
10000
(
1.862e+38
1.21362e+38
7.9074e+37
5.15108e+37
3.35517e+37
2.18527e+37
1.42325e+37
9.26943e+36
6.03699e+36
3.93175e+36
2.56065e+36
1.66769e+36
1.08612e+36
7.07365e+35
4.60689e+35
3.00035e+35
1.95405e+35
1.27263e+35
8.28829e+34
5.39795e+34
3.51555e+34
2.28959e+34
1.49115e+34
9.71149e+33
6.32485e+33
4.11921e+33
2.68274e+33
1.7472e+33
1.13791e+33
7.41091e+32
4.82654e+32
3.1434e+32
2.04722e+32
1.3333e+32
8.68345e+31
5.65531e+31
3.68316e+31
2.39875e+31
1.56225e+31
1.01745e+31
6.6264e+30
4.31561e+30
2.81065e+30
1.8305e+30
1.19216e+30
7.76424e+29
5.05666e+29
3.29327e+29
2.14482e+29
1.39687e+29
9.09746e+28
5.92495e+28
3.85877e+28
2.51312e+28
1.63673e+28
1.06596e+28
6.94234e+27
4.52137e+27
2.94465e+27
1.91778e+27
1.249e+27
8.13443e+26
5.29775e+26
3.45029e+26
2.24709e+26
1.46347e+26
9.53121e+25
6.20744e+25
4.04275e+25
2.63294e+25
1.71477e+25
1.11678e+25
7.27333e+24
4.73694e+24
3.08505e+24
2.00921e+24
1.30855e+24
8.52226e+23
5.55033e+23
3.61479e+23
2.35422e+23
1.53325e+23
9.98564e+22
6.50339e+22
4.2355e+22
2.75847e+22
1.79652e+22
1.17003e+22
7.62011e+21
4.96286e+21
3.2323e+21
2.10469e+21
1.36883e+21
8.91714e+20
6.02016e+20
4.63644e+20
4.3388e+20
4.64594e+20
5.24183e+20
5.96659e+20
1.21362e+38
7.91002e+37
5.15377e+37
3.35726e+37
2.18675e+37
1.42425e+37
9.27603e+36
6.04131e+36
3.93457e+36
2.56249e+36
1.66889e+36
1.08691e+36
7.07874e+35
4.61021e+35
3.00251e+35
1.95546e+35
1.27354e+35
8.29425e+34
5.40184e+34
3.51808e+34
2.29124e+34
1.49222e+34
9.71848e+33
6.3294e+33
4.12218e+33
2.68467e+33
1.74846e+33
1.13873e+33
7.41624e+32
4.83001e+32
3.14566e+32
2.04869e+32
1.33426e+32
8.68971e+31
5.65939e+31
3.68582e+31
2.40048e+31
1.56337e+31
1.01818e+31
6.63118e+30
4.31872e+30
2.81267e+30
1.83182e+30
1.19302e+30
7.76983e+29
5.0603e+29
3.29564e+29
2.14637e+29
1.39788e+29
9.10401e+28
5.92921e+28
3.86155e+28
2.51493e+28
1.63791e+28
1.06673e+28
6.94734e+27
4.52462e+27
2.94677e+27
1.91916e+27
1.2499e+27
8.14028e+26
5.30156e+26
3.45277e+26
2.2487e+26
1.46452e+26
9.53807e+25
6.21191e+25
4.04566e+25
2.63483e+25
1.716e+25
1.11759e+25
7.27857e+24
4.74035e+24
3.08727e+24
2.01066e+24
1.30949e+24
8.52839e+23
5.55433e+23
3.61739e+23
2.35592e+23
1.53435e+23
9.99283e+22
6.50808e+22
4.23855e+22
2.76046e+22
1.79782e+22
1.17087e+22
7.62559e+21
4.96636e+21
3.23451e+21
2.10663e+21
1.37175e+21
8.9218e+20
5.81036e+20
3.91411e+20
2.99873e+20
2.79221e+20
2.98267e+20
3.36289e+20
3.82799e+20
7.9074e+37
5.15377e+37
3.35787e+37
2.18734e+37
1.4247e+37
9.27911e+36
6.04335e+36
3.93591e+36
2.56336e+36
1.66945e+36
1.08727e+36
7.08111e+35
4.61174e+35
3.00351e+35
1.95611e+35
1.27397e+35
8.29701e+34
5.40364e+34
3.51925e+34
2.292e+34
1.49272e+34
9.72172e+33
6.33151e+33
4.12355e+33
2.68556e+33
1.74904e+33
1.13911e+33
7.41871e+32
4.83162e+32
3.14671e+32
2.04937e+32
1.33471e+32
8.6926e+31
5.66127e+31
3.68704e+31
2.40128e+31
1.56389e+31
1.01852e+31
6.63338e+30
4.32015e+30
2.81361e+30
1.83243e+30
1.19342e+30
7.77242e+29
5.06198e+29
3.29674e+29
2.14708e+29
1.39834e+29
9.10704e+28
5.93119e+28
3.86283e+28
2.51576e+28
1.63845e+28
1.06708e+28
6.94965e+27
4.52613e+27
2.94775e+27
1.9198e+27
1.25032e+27
8.14299e+26
5.30332e+26
3.45392e+26
2.24945e+26
1.46501e+26
9.54125e+25
6.21397e+25
4.047e+25
2.63571e+25
1.71657e+25
1.11796e+25
7.28099e+24
4.74193e+24
3.0883e+24
2.01133e+24
1.30993e+24
8.53123e+23
5.55617e+23
3.6186e+23
2.3567e+23
1.53486e+23
9.99615e+22
6.51024e+22
4.23996e+22
2.76138e+22
1.79841e+22
1.17126e+22
7.62813e+21
4.96801e+21
3.23554e+21
2.10725e+21
1.37245e+21
8.93699e+20
5.81285e+20
3.78466e+20
2.54421e+20
1.93915e+20
1.79642e+20
1.91427e+20
2.1569e+20
2.4555e+20
5.15108e+37
3.35726e+37
2.18734e+37
1.42482e+37
9.28023e+36
6.04414e+36
3.93641e+36
2.56367e+36
1.66964e+36
1.08739e+36
7.08188e+35
4.61223e+35
3.00382e+35
1.95631e+35
1.2741e+35
8.29786e+34
5.40418e+34
3.51961e+34
2.29223e+34
1.49287e+34
9.7227e+33
6.33215e+33
4.12397e+33
2.68584e+33
1.74922e+33
1.13922e+33
7.41946e+32
4.83211e+32
3.14703e+32
2.04958e+32
1.33484e+32
8.69347e+31
5.66184e+31
3.68741e+31
2.40152e+31
1.56405e+31
1.01863e+31
6.63405e+30
4.32059e+30
2.81389e+30
1.83262e+30
1.19354e+30
7.7732e+29
5.06249e+29
3.29707e+29
2.1473e+29
1.39848e+29
9.10796e+28
5.93178e+28
3.86322e+28
2.51602e+28
1.63862e+28
1.06719e+28
6.95035e+27
4.52659e+27
2.94805e+27
1.91999e+27
1.25044e+27
8.14381e+26
5.30386e+26
3.45427e+26
2.24968e+26
1.46516e+26
9.54221e+25
6.2146e+25
4.04741e+25
2.63598e+25
1.71675e+25
1.11807e+25
7.28173e+24
4.7424e+24
3.08861e+24
2.01153e+24
1.31006e+24
8.53209e+23
5.55674e+23
3.61896e+23
2.35694e+23
1.53501e+23
9.99716e+22
6.5109e+22
4.24038e+22
2.76165e+22
1.7986e+22
1.17138e+22
7.6289e+21
4.96851e+21
3.23586e+21
2.10744e+21
1.37254e+21
8.93934e+20
5.82113e+20
3.78639e+20
2.46469e+20
1.65361e+20
1.25396e+20
1.1557e+20
1.22843e+20
1.38323e+20
1.57489e+20
3.35517e+37
2.18675e+37
1.4247e+37
9.28023e+36
6.04432e+36
3.93654e+36
2.56374e+36
1.66967e+36
1.08739e+36
7.08182e+35
4.61216e+35
3.00376e+35
1.95627e+35
1.27406e+35
8.29763e+34
5.40403e+34
3.5195e+34
2.29216e+34
1.49283e+34
9.7224e+33
6.33195e+33
4.12384e+33
2.68575e+33
1.74916e+33
1.13919e+33
7.41923e+32
4.83196e+32
3.14693e+32
2.04952e+32
1.3348e+32
8.69321e+31
5.66167e+31
3.6873e+31
2.40145e+31
1.564e+31
1.01859e+31
6.63385e+30
4.32046e+30
2.8138e+30
1.83256e+30
1.1935e+30
7.77296e+29
5.06233e+29
3.29697e+29
2.14723e+29
1.39844e+29
9.10768e+28
5.9316e+28
3.8631e+28
2.51594e+28
1.63857e+28
1.06716e+28
6.95013e+27
4.52645e+27
2.94796e+27
1.91993e+27
1.2504e+27
8.14356e+26
5.3037e+26
3.45416e+26
2.24961e+26
1.46511e+26
9.54191e+25
6.21441e+25
4.04729e+25
2.6359e+25
1.71669e+25
1.11804e+25
7.2815e+24
4.74226e+24
3.08851e+24
2.01147e+24
1.31002e+24
8.53183e+23
5.55656e+23
3.61885e+23
2.35687e+23
1.53497e+23
9.99685e+22
6.5107e+22
4.24025e+22
2.76157e+22
1.79854e+22
1.17134e+22
7.62867e+21
4.96836e+21
3.23577e+21
2.10737e+21
1.37248e+21
8.93871e+20
5.82178e+20
3.7911e+20
2.46606e+20
1.60492e+20
1.07476e+20
8.10967e+19
7.43557e+19
7.88319e+19
8.87035e+19
1.00999e+20
2.18527e+37
1.42425e+37
9.27911e+36
6.04414e+36
3.93654e+36
2.56374e+36
1.66964e+36
1.08736e+36
7.08148e+35
4.61188e+35
3.00354e+35
1.9561e+35
1.27395e+35
8.29685e+34
5.40351e+34
3.51916e+34
2.29193e+34
1.49268e+34
9.72141e+33
6.33131e+33
4.12342e+33
2.68548e+33
1.74898e+33
1.13907e+33
7.41847e+32
4.83146e+32
3.14661e+32
2.04931e+32
1.33466e+32
8.69231e+31
5.66108e+31
3.68692e+31
2.4012e+31
1.56384e+31
1.01849e+31
6.63316e+30
4.32001e+30
2.81351e+30
1.83237e+30
1.19338e+30
7.77216e+29
5.06181e+29
3.29663e+29
2.14701e+29
1.3983e+29
9.10674e+28
5.93099e+28
3.86271e+28
2.51568e+28
1.6384e+28
1.06705e+28
6.94942e+27
4.52598e+27
2.94766e+27
1.91973e+27
1.25027e+27
8.14272e+26
5.30315e+26
3.45381e+26
2.24938e+26
1.46496e+26
9.54093e+25
6.21377e+25
4.04687e+25
2.63562e+25
1.71652e+25
1.11792e+25
7.28075e+24
4.74177e+24
3.0882e+24
2.01126e+24
1.30989e+24
8.53095e+23
5.55599e+23
3.61848e+23
2.35662e+23
1.53481e+23
9.99582e+22
6.51003e+22
4.23982e+22
2.76129e+22
1.79836e+22
1.17122e+22
7.62788e+21
4.96785e+21
3.23543e+21
2.10716e+21
1.37234e+21
8.93768e+20
5.82095e+20
3.79119e+20
2.46883e+20
1.60601e+20
1.04501e+20
6.98572e+19
5.24549e+19
4.78451e+19
5.05916e+19
5.68833e+19
6.47667e+19
1.42325e+37
9.27603e+36
6.04335e+36
3.93641e+36
2.56374e+36
1.66964e+36
1.08734e+36
7.08121e+35
4.6116e+35
3.00331e+35
1.95592e+35
1.27381e+35
8.29589e+34
5.40284e+34
3.5187e+34
2.29163e+34
1.49247e+34
9.72008e+33
6.33043e+33
4.12285e+33
2.6851e+33
1.74874e+33
1.13891e+33
7.41742e+32
4.83078e+32
3.14617e+32
2.04902e+32
1.33447e+32
8.69109e+31
5.66029e+31
3.6864e+31
2.40086e+31
1.56362e+31
1.01835e+31
6.63223e+30
4.3194e+30
2.81312e+30
1.83211e+30
1.19321e+30
7.77107e+29
5.0611e+29
3.29617e+29
2.14671e+29
1.3981e+29
9.10546e+28
5.93016e+28
3.86216e+28
2.51533e+28
1.63817e+28
1.0669e+28
6.94844e+27
4.52534e+27
2.94724e+27
1.91946e+27
1.2501e+27
8.14158e+26
5.3024e+26
3.45332e+26
2.24906e+26
1.46476e+26
9.53959e+25
6.21289e+25
4.0463e+25
2.63525e+25
1.71627e+25
1.11777e+25
7.27973e+24
4.7411e+24
3.08776e+24
2.01098e+24
1.3097e+24
8.52975e+23
5.55521e+23
3.61797e+23
2.35629e+23
1.53459e+23
9.99442e+22
6.50911e+22
4.23922e+22
2.7609e+22
1.7981e+22
1.17106e+22
7.62681e+21
4.96715e+21
3.23498e+21
2.10686e+21
1.37214e+21
8.93642e+20
5.82006e+20
3.7905e+20
2.46876e+20
1.60768e+20
1.04587e+20
6.80428e+19
4.5409e+19
3.39346e+19
3.07911e+19
3.24705e+19
3.64784e+19
4.15306e+19
9.26943e+36
6.04131e+36
3.93591e+36
2.56367e+36
1.66967e+36
1.08736e+36
7.08121e+35
4.61149e+35
3.00316e+35
1.95578e+35
1.2737e+35
8.29499e+34
5.40218e+34
3.51824e+34
2.29131e+34
1.49226e+34
9.71863e+33
6.32946e+33
4.12221e+33
2.68468e+33
1.74846e+33
1.13873e+33
7.41624e+32
4.83001e+32
3.14566e+32
2.04869e+32
1.33426e+32
8.6897e+31
5.65938e+31
3.68581e+31
2.40048e+31
1.56337e+31
1.01818e+31
6.63117e+30
4.31871e+30
2.81267e+30
1.83182e+30
1.19302e+30
7.76982e+29
5.06029e+29
3.29564e+29
2.14637e+29
1.39787e+29
9.104e+28
5.92921e+28
3.86154e+28
2.51492e+28
1.63791e+28
1.06673e+28
6.94733e+27
4.52462e+27
2.94677e+27
1.91916e+27
1.2499e+27
8.14027e+26
5.30155e+26
3.45277e+26
2.2487e+26
1.46452e+26
9.53806e+25
6.2119e+25
4.04565e+25
2.63483e+25
1.716e+25
1.11759e+25
7.27856e+24
4.74034e+24
3.08727e+24
2.01066e+24
1.30949e+24
8.52838e+23
5.55432e+23
3.61739e+23
2.35591e+23
1.53435e+23
9.99281e+22
6.50807e+22
4.23854e+22
2.76045e+22
1.79781e+22
1.17087e+22
7.62559e+21
4.96635e+21
3.23446e+21
2.10652e+21
1.37192e+21
8.935e+20
5.81913e+20
3.78985e+20
2.46826e+20
1.60758e+20
1.04689e+20
6.81077e+19
4.43038e+19
2.95194e+19
2.19572e+19
1.98189e+19
2.08419e+19
2.33936e+19
2.663e+19
6.03699e+36
3.93457e+36
2.56336e+36
1.66964e+36
1.08739e+36
7.08148e+35
4.6116e+35
3.00316e+35
1.95573e+35
1.27363e+35
8.29436e+34
5.40166e+34
3.51784e+34
2.29102e+34
1.49205e+34
9.7172e+33
6.3285e+33
4.12156e+33
2.68425e+33
1.74818e+33
1.13854e+33
7.41501e+32
4.8292e+32
3.14513e+32
2.04834e+32
1.33403e+32
8.68822e+31
5.65842e+31
3.68518e+31
2.40007e+31
1.5631e+31
1.01801e+31
6.63004e+30
4.31798e+30
2.81219e+30
1.83151e+30
1.19281e+30
7.7685e+29
5.05943e+29
3.29508e+29
2.146e+29
1.39764e+29
9.10245e+28
5.9282e+28
3.86089e+28
2.5145e+28
1.63763e+28
1.06655e+28
6.94614e+27
4.52385e+27
2.94627e+27
1.91883e+27
1.24969e+27
8.13889e+26
5.30065e+26
3.45218e+26
2.24832e+26
1.46427e+26
9.53644e+25
6.21084e+25
4.04496e+25
2.63438e+25
1.71571e+25
1.1174e+25
7.27732e+24
4.73954e+24
3.08674e+24
2.01032e+24
1.30927e+24
8.52693e+23
5.55338e+23
3.61677e+23
2.35551e+23
1.53409e+23
9.99112e+22
6.50696e+22
4.23782e+22
2.75998e+22
1.79751e+22
1.17067e+22
7.62429e+21
4.96551e+21
3.23391e+21
2.10616e+21
1.37169e+21
8.93348e+20
5.81815e+20
3.78921e+20
2.46782e+20
1.60724e+20
1.0468e+20
6.81702e+19
4.43517e+19
2.88471e+19
1.91915e+19
1.42099e+19
1.27586e+19
1.33789e+19
1.50027e+19
1.70753e+19
3.93175e+36
2.56249e+36
1.66945e+36
1.08739e+36
7.08182e+35
4.61188e+35
3.00331e+35
1.95578e+35
1.27363e+35
8.29413e+34
5.40137e+34
3.51757e+34
2.29079e+34
1.49188e+34
9.71595e+33
6.32761e+33
4.12094e+33
2.68383e+33
1.7479e+33
1.13835e+33
7.41377e+32
4.82838e+32
3.14459e+32
2.04799e+32
1.3338e+32
8.68672e+31
5.65744e+31
3.68454e+31
2.39965e+31
1.56283e+31
1.01783e+31
6.62888e+30
4.31722e+30
2.8117e+30
1.83119e+30
1.19261e+30
7.76714e+29
5.05855e+29
3.2945e+29
2.14563e+29
1.39739e+29
9.10086e+28
5.92716e+28
3.86021e+28
2.51406e+28
1.63734e+28
1.06636e+28
6.94493e+27
4.52306e+27
2.94575e+27
1.9185e+27
1.24947e+27
8.13747e+26
5.29973e+26
3.45158e+26
2.24793e+26
1.46402e+26
9.53477e+25
6.20976e+25
4.04426e+25
2.63392e+25
1.71541e+25
1.1172e+25
7.27605e+24
4.73871e+24
3.0862e+24
2.00996e+24
1.30904e+24
8.52544e+23
5.55241e+23
3.61614e+23
2.3551e+23
1.53382e+23
9.98937e+22
6.50582e+22
4.23708e+22
2.7595e+22
1.79719e+22
1.17047e+22
7.62296e+21
4.96464e+21
3.23334e+21
2.1058e+21
1.37145e+21
8.93192e+20
5.81713e+20
3.78855e+20
2.46739e+20
1.60695e+20
1.04657e+20
6.81632e+19
4.43902e+19
2.88816e+19
1.87831e+19
1.24781e+19
9.19771e+18
8.21468e+18
8.58895e+18
9.62175e+18
1.09487e+19
2.56065e+36
1.66889e+36
1.08727e+36
7.08188e+35
4.61216e+35
3.00354e+35
1.95592e+35
1.2737e+35
8.29436e+34
5.40137e+34
3.51747e+34
2.29067e+34
1.49177e+34
9.71502e+33
6.3269e+33
4.12042e+33
2.68346e+33
1.74764e+33
1.13818e+33
7.41258e+32
4.82759e+32
3.14407e+32
2.04764e+32
1.33357e+32
8.68521e+31
5.65645e+31
3.6839e+31
2.39923e+31
1.56256e+31
1.01765e+31
6.62771e+30
4.31646e+30
2.8112e+30
1.83086e+30
1.1924e+30
7.76577e+29
5.05765e+29
3.29392e+29
2.14525e+29
1.39715e+29
9.09925e+28
5.92611e+28
3.85953e+28
2.51361e+28
1.63705e+28
1.06617e+28
6.9437e+27
4.52226e+27
2.94523e+27
1.91816e+27
1.24925e+27
8.13603e+26
5.29879e+26
3.45097e+26
2.24753e+26
1.46376e+26
9.53309e+25
6.20866e+25
4.04354e+25
2.63346e+25
1.7151e+25
1.117e+25
7.27476e+24
4.73787e+24
3.08566e+24
2.00961e+24
1.30881e+24
8.52393e+23
5.55142e+23
3.6155e+23
2.35468e+23
1.53355e+23
9.9876e+22
6.50467e+22
4.23633e+22
2.75901e+22
1.79688e+22
1.17026e+22
7.62161e+21
4.96376e+21
3.23277e+21
2.10542e+21
1.37121e+21
8.93034e+20
5.8161e+20
3.78788e+20
2.46695e+20
1.60666e+20
1.04638e+20
6.81485e+19
4.43851e+19
2.89054e+19
1.88075e+19
1.22303e+19
8.11374e+18
5.9545e+18
5.28985e+18
5.51431e+18
6.1709e+18
7.02025e+18
1.66769e+36
1.08691e+36
7.08111e+35
4.61223e+35
3.00376e+35
1.9561e+35
1.27381e+35
8.29499e+34
5.40166e+34
3.51757e+34
2.29067e+34
1.49173e+34
9.71452e+33
6.32643e+33
4.12003e+33
2.68316e+33
1.74742e+33
1.13802e+33
7.41149e+32
4.82684e+32
3.14356e+32
2.04731e+32
1.33335e+32
8.68373e+31
5.65547e+31
3.68326e+31
2.39881e+31
1.56228e+31
1.01747e+31
6.62654e+30
4.3157e+30
2.8107e+30
1.83054e+30
1.19218e+30
7.76439e+29
5.05675e+29
3.29333e+29
2.14487e+29
1.3969e+29
9.09763e+28
5.92506e+28
3.85884e+28
2.51317e+28
1.63676e+28
1.06598e+28
6.94247e+27
4.52145e+27
2.94471e+27
1.91781e+27
1.24902e+27
8.13458e+26
5.29785e+26
3.45035e+26
2.24713e+26
1.4635e+26
9.53139e+25
6.20755e+25
4.04282e+25
2.63299e+25
1.7148e+25
1.11681e+25
7.27347e+24
4.73703e+24
3.08511e+24
2.00925e+24
1.30857e+24
8.52242e+23
5.55044e+23
3.61486e+23
2.35427e+23
1.53327e+23
9.98583e+22
6.50352e+22
4.23558e+22
2.75852e+22
1.79656e+22
1.17005e+22
7.62025e+21
4.96288e+21
3.2322e+21
2.10505e+21
1.37096e+21
8.92875e+20
5.81507e+20
3.78721e+20
2.46651e+20
1.60638e+20
1.04619e+20
6.81358e+19
4.43755e+19
2.89017e+19
1.88221e+19
1.22472e+19
7.96361e+18
5.27629e+18
3.85554e+18
3.40691e+18
3.54057e+18
3.95779e+18
4.50138e+18
1.08612e+36
7.07874e+35
4.61174e+35
3.00382e+35
1.95627e+35
1.27395e+35
8.29589e+34
5.40218e+34
3.51784e+34
2.29079e+34
1.49177e+34
9.71452e+33
6.32627e+33
4.11983e+33
2.68297e+33
1.74726e+33
1.1379e+33
7.41059e+32
4.8262e+32
3.14311e+32
2.04699e+32
1.33314e+32
8.68231e+31
5.65453e+31
3.68263e+31
2.39839e+31
1.56201e+31
1.01729e+31
6.62537e+30
4.31493e+30
2.8102e+30
1.83021e+30
1.19197e+30
7.76301e+29
5.05585e+29
3.29275e+29
2.14448e+29
1.39665e+29
9.09601e+28
5.924e+28
3.85815e+28
2.51272e+28
1.63647e+28
1.06579e+28
6.94123e+27
4.52065e+27
2.94418e+27
1.91747e+27
1.2488e+27
8.13313e+26
5.2969e+26
3.44974e+26
2.24673e+26
1.46324e+26
9.52969e+25
6.20645e+25
4.0421e+25
2.63252e+25
1.71449e+25
1.11661e+25
7.27217e+24
4.73618e+24
3.08456e+24
2.00889e+24
1.30834e+24
8.5209e+23
5.54944e+23
3.61421e+23
2.35385e+23
1.533e+23
9.98404e+22
6.50236e+22
4.23482e+22
2.75803e+22
1.79624e+22
1.16984e+22
7.61889e+21
4.96199e+21
3.23162e+21
2.10467e+21
1.37072e+21
8.92716e+20
5.81403e+20
3.78653e+20
2.46607e+20
1.60609e+20
1.04601e+20
6.81237e+19
4.43672e+19
2.88954e+19
1.88196e+19
1.22563e+19
7.97528e+18
5.18546e+18
3.43138e+18
2.49688e+18
2.19452e+18
2.27345e+18
2.53845e+18
2.88629e+18
7.07365e+35
4.61021e+35
3.00351e+35
1.95631e+35
1.27406e+35
8.29685e+34
5.40284e+34
3.51824e+34
2.29102e+34
1.49188e+34
9.71502e+33
6.32643e+33
4.11983e+33
2.6829e+33
1.74718e+33
1.13782e+33
7.40993e+32
4.82569e+32
3.14274e+32
2.04673e+32
1.33295e+32
8.68101e+31
5.65364e+31
3.68204e+31
2.398e+31
1.56175e+31
1.01712e+31
6.62423e+30
4.31418e+30
2.80971e+30
1.82989e+30
1.19176e+30
7.76163e+29
5.05495e+29
3.29216e+29
2.1441e+29
1.3964e+29
9.09439e+28
5.92295e+28
3.85746e+28
2.51227e+28
1.63618e+28
1.0656e+28
6.93999e+27
4.51984e+27
2.94366e+27
1.91713e+27
1.24858e+27
8.13167e+26
5.29595e+26
3.44912e+26
2.24633e+26
1.46298e+26
9.52799e+25
6.20534e+25
4.04138e+25
2.63205e+25
1.71419e+25
1.11641e+25
7.27087e+24
4.73534e+24
3.084e+24
2.00853e+24
1.30811e+24
8.51938e+23
5.54845e+23
3.61357e+23
2.35343e+23
1.53273e+23
9.98226e+22
6.50119e+22
4.23406e+22
2.75754e+22
1.79592e+22
1.16963e+22
7.61753e+21
4.96111e+21
3.23104e+21
2.1043e+21
1.37048e+21
8.92556e+20
5.81299e+20
3.78586e+20
2.46563e+20
1.6058e+20
1.04582e+20
6.81116e+19
4.43593e+19
2.88901e+19
1.88155e+19
1.22545e+19
7.98083e+18
5.19341e+18
3.37652e+18
2.23172e+18
1.61726e+18
1.41377e+18
1.45991e+18
1.62814e+18
1.85071e+18
4.60689e+35
3.00251e+35
1.95611e+35
1.2741e+35
8.29763e+34
5.40351e+34
3.5187e+34
2.29131e+34
1.49205e+34
9.71595e+33
6.3269e+33
4.12003e+33
2.68297e+33
1.74718e+33
1.13779e+33
7.40958e+32
4.82536e+32
3.14246e+32
2.04651e+32
1.33279e+32
8.67989e+31
5.65286e+31
3.68149e+31
2.39763e+31
1.5615e+31
1.01695e+31
6.62311e+30
4.31344e+30
2.80923e+30
1.82957e+30
1.19155e+30
7.76026e+29
5.05406e+29
3.29158e+29
2.14372e+29
1.39615e+29
9.09277e+28
5.92189e+28
3.85678e+28
2.51182e+28
1.63589e+28
1.06541e+28
6.93875e+27
4.51903e+27
2.94313e+27
1.91679e+27
1.24836e+27
8.13022e+26
5.29501e+26
3.4485e+26
2.24592e+26
1.46271e+26
9.52628e+25
6.20423e+25
4.04066e+25
2.63158e+25
1.71388e+25
1.11621e+25
7.26957e+24
4.73449e+24
3.08345e+24
2.00818e+24
1.30787e+24
8.51785e+23
5.54746e+23
3.61292e+23
2.353e+23
1.53245e+23
9.98048e+22
6.50003e+22
4.23331e+22
2.75705e+22
1.79559e+22
1.16943e+22
7.61617e+21
4.96022e+21
3.23047e+21
2.10392e+21
1.37023e+21
8.92397e+20
5.81195e+20
3.78518e+20
2.46519e+20
1.60552e+20
1.04563e+20
6.80994e+19
4.43514e+19
2.88849e+19
1.8812e+19
1.22519e+19
7.97962e+18
5.19682e+18
3.38188e+18
2.19864e+18
1.45158e+18
1.04769e+18
9.10924e+17
9.37558e+17
1.04431e+18
1.1867e+18
3.00035e+35
1.95546e+35
1.27397e+35
8.29786e+34
5.40403e+34
3.51916e+34
2.29163e+34
1.49226e+34
9.7172e+33
6.32761e+33
4.12042e+33
2.68316e+33
1.74726e+33
1.13782e+33
7.40958e+32
4.82525e+32
3.14232e+32
2.04638e+32
1.33268e+32
8.67901e+31
5.65221e+31
3.68102e+31
2.3973e+31
1.56127e+31
1.0168e+31
6.62206e+30
4.31274e+30
2.80876e+30
1.82926e+30
1.19135e+30
7.75892e+29
5.05317e+29
3.291e+29
2.14334e+29
1.3959e+29
9.09115e+28
5.92084e+28
3.85609e+28
2.51137e+28
1.63559e+28
1.06522e+28
6.93751e+27
4.51823e+27
2.94261e+27
1.91644e+27
1.24813e+27
8.12877e+26
5.29406e+26
3.44789e+26
2.24552e+26
1.46245e+26
9.52458e+25
6.20312e+25
4.03994e+25
2.63111e+25
1.71357e+25
1.11601e+25
7.26827e+24
4.73364e+24
3.0829e+24
2.00782e+24
1.30764e+24
8.51633e+23
5.54647e+23
3.61228e+23
2.35258e+23
1.53218e+23
9.97869e+22
6.49887e+22
4.23255e+22
2.75655e+22
1.79527e+22
1.16922e+22
7.61481e+21
4.95933e+21
3.22989e+21
2.10355e+21
1.36999e+21
8.92237e+20
5.81091e+20
3.7845e+20
2.46475e+20
1.60523e+20
1.04545e+20
6.80872e+19
4.43435e+19
2.88798e+19
1.88087e+19
1.22496e+19
7.9779e+18
5.19599e+18
3.38397e+18
2.20223e+18
1.43167e+18
9.44213e+17
6.7882e+17
5.8701e+17
6.02141e+17
6.69845e+17
7.60931e+17
1.95405e+35
1.27354e+35
8.29701e+34
5.40418e+34
3.5195e+34
2.29193e+34
1.49247e+34
9.71863e+33
6.3285e+33
4.12094e+33
2.68346e+33
1.74742e+33
1.1379e+33
7.40993e+32
4.82536e+32
3.14232e+32
2.04633e+32
1.33262e+32
8.67846e+31
5.65174e+31
3.68066e+31
2.39703e+31
1.56107e+31
1.01666e+31
6.62111e+30
4.31209e+30
2.80832e+30
1.82897e+30
1.19115e+30
7.75761e+29
5.05231e+29
3.29043e+29
2.14297e+29
1.39566e+29
9.08955e+28
5.91979e+28
3.85541e+28
2.51093e+28
1.6353e+28
1.06503e+28
6.93627e+27
4.51742e+27
2.94208e+27
1.9161e+27
1.24791e+27
8.12732e+26
5.29312e+26
3.44727e+26
2.24512e+26
1.46219e+26
9.52288e+25
6.20201e+25
4.03921e+25
2.63064e+25
1.71327e+25
1.11581e+25
7.26698e+24
4.7328e+24
3.08235e+24
2.00746e+24
1.30741e+24
8.51481e+23
5.54548e+23
3.61163e+23
2.35216e+23
1.5319e+23
9.97691e+22
6.49771e+22
4.23179e+22
2.75606e+22
1.79495e+22
1.16901e+22
7.61345e+21
4.95845e+21
3.22931e+21
2.10317e+21
1.36974e+21
8.92078e+20
5.80988e+20
3.78383e+20
2.46431e+20
1.60494e+20
1.04526e+20
6.80751e+19
4.43356e+19
2.88746e+19
1.88053e+19
1.22474e+19
7.97643e+18
5.19488e+18
3.38341e+18
2.20351e+18
1.43406e+18
9.32254e+17
6.14223e+17
4.39888e+17
3.78329e+17
3.86748e+17
4.29666e+17
4.87929e+17
1.27263e+35
8.29425e+34
5.40364e+34
3.51961e+34
2.29216e+34
1.49268e+34
9.72008e+33
6.32946e+33
4.12156e+33
2.68383e+33
1.74764e+33
1.13802e+33
7.41059e+32
4.82569e+32
3.14246e+32
2.04638e+32
1.33262e+32
8.67827e+31
5.6515e+31
3.68043e+31
2.39684e+31
1.56092e+31
1.01655e+31
6.6203e+30
4.31152e+30
2.80792e+30
1.82869e+30
1.19096e+30
7.75636e+29
5.05148e+29
3.28988e+29
2.1426e+29
1.39542e+29
9.08797e+28
5.91875e+28
3.85473e+28
2.51048e+28
1.63501e+28
1.06484e+28
6.93504e+27
4.51661e+27
2.94156e+27
1.91576e+27
1.24769e+27
8.12587e+26
5.29217e+26
3.44666e+26
2.24472e+26
1.46193e+26
9.52118e+25
6.2009e+25
4.03849e+25
2.63017e+25
1.71296e+25
1.11561e+25
7.26568e+24
4.73195e+24
3.0818e+24
2.0071e+24
1.30717e+24
8.51329e+23
5.54449e+23
3.61099e+23
2.35174e+23
1.53163e+23
9.97513e+22
6.49655e+22
4.23104e+22
2.75557e+22
1.79463e+22
1.1688e+22
7.61209e+21
4.95756e+21
3.22873e+21
2.10279e+21
1.3695e+21
8.91918e+20
5.80884e+20
3.78315e+20
2.46387e+20
1.60466e+20
1.04507e+20
6.80629e+19
4.43276e+19
2.88695e+19
1.8802e+19
1.22452e+19
7.97501e+18
5.19392e+18
3.38269e+18
2.20313e+18
1.43484e+18
9.33838e+17
6.07055e+17
3.99585e+17
2.851e+17
2.43869e+17
2.48421e+17
2.75613e+17
3.12877e+17
8.28829e+34
5.40184e+34
3.51925e+34
2.29223e+34
1.49283e+34
9.72141e+33
6.33043e+33
4.12221e+33
2.68425e+33
1.7479e+33
1.13818e+33
7.41149e+32
4.8262e+32
3.14274e+32
2.04651e+32
1.33268e+32
8.67846e+31
5.6515e+31
3.68035e+31
2.39673e+31
1.56083e+31
1.01647e+31
6.61968e+30
4.31105e+30
2.80758e+30
1.82845e+30
1.1908e+30
7.75522e+29
5.0507e+29
3.28935e+29
2.14225e+29
1.39518e+29
9.08643e+28
5.91774e+28
3.85406e+28
2.51004e+28
1.63473e+28
1.06465e+28
6.93381e+27
4.51581e+27
2.94103e+27
1.91542e+27
1.24746e+27
8.12442e+26
5.29123e+26
3.44604e+26
2.24432e+26
1.46167e+26
9.51948e+25
6.19979e+25
4.03777e+25
2.6297e+25
1.71266e+25
1.11541e+25
7.26438e+24
4.73111e+24
3.08125e+24
2.00674e+24
1.30694e+24
8.51177e+23
5.5435e+23
3.61034e+23
2.35132e+23
1.53136e+23
9.97334e+22
6.49539e+22
4.23028e+22
2.75508e+22
1.79431e+22
1.16859e+22
7.61073e+21
4.95668e+21
3.22816e+21
2.10242e+21
1.36925e+21
8.91759e+20
5.8078e+20
3.78247e+20
2.46343e+20
1.60437e+20
1.04489e+20
6.80507e+19
4.43197e+19
2.88643e+19
1.87986e+19
1.22431e+19
7.97359e+18
5.193e+18
3.38206e+18
2.20266e+18
1.43458e+18
9.34312e+17
6.081e+17
3.95298e+17
2.59966e+17
1.84806e+17
1.57219e+17
1.59581e+17
1.768e+17
2.00631e+17
5.39795e+34
3.51808e+34
2.292e+34
1.49287e+34
9.7224e+33
6.33131e+33
4.12285e+33
2.68468e+33
1.74818e+33
1.13835e+33
7.41258e+32
4.82684e+32
3.14311e+32
2.04673e+32
1.33279e+32
8.67901e+31
5.65174e+31
3.68043e+31
2.39673e+31
1.56079e+31
1.01643e+31
6.61928e+30
4.31072e+30
2.80732e+30
1.82826e+30
1.19066e+30
7.75422e+29
5.05e+29
3.28887e+29
2.14193e+29
1.39496e+29
9.08496e+28
5.91676e+28
3.85341e+28
2.50962e+28
1.63444e+28
1.06447e+28
6.9326e+27
4.51502e+27
2.94051e+27
1.91508e+27
1.24724e+27
8.12297e+26
5.29028e+26
3.44543e+26
2.24392e+26
1.46141e+26
9.51778e+25
6.19869e+25
4.03705e+25
2.62923e+25
1.71235e+25
1.11521e+25
7.26308e+24
4.73026e+24
3.0807e+24
2.00638e+24
1.30671e+24
8.51024e+23
5.54251e+23
3.60969e+23
2.3509e+23
1.53108e+23
9.97156e+22
6.49423e+22
4.22953e+22
2.75458e+22
1.79399e+22
1.16838e+22
7.60937e+21
4.95579e+21
3.22758e+21
2.10204e+21
1.36901e+21
8.91599e+20
5.80676e+20
3.7818e+20
2.46299e+20
1.60408e+20
1.0447e+20
6.80386e+19
4.43118e+19
2.88592e+19
1.87952e+19
1.22409e+19
7.97217e+18
5.19207e+18
3.38146e+18
2.20226e+18
1.43428e+18
9.34141e+17
6.08387e+17
3.95984e+17
2.57409e+17
1.6914e+17
1.19811e+17
1.01371e+17
1.02519e+17
1.13417e+17
1.28656e+17
3.51555e+34
2.29124e+34
1.49272e+34
9.7227e+33
6.33195e+33
4.12342e+33
2.6851e+33
1.74846e+33
1.13854e+33
7.41377e+32
4.82759e+32
3.14356e+32
2.04699e+32
1.33295e+32
8.67989e+31
5.65221e+31
3.68066e+31
2.39684e+31
1.56083e+31
1.01643e+31
6.61915e+30
4.31055e+30
2.80716e+30
1.82812e+30
1.19055e+30
7.75341e+29
5.04941e+29
3.28846e+29
2.14163e+29
1.39476e+29
9.08359e+28
5.91583e+28
3.85279e+28
2.5092e+28
1.63417e+28
1.06429e+28
6.93141e+27
4.51423e+27
2.94e+27
1.91474e+27
1.24702e+27
8.12153e+26
5.28935e+26
3.44481e+26
2.24352e+26
1.46115e+26
9.51608e+25
6.19758e+25
4.03633e+25
2.62876e+25
1.71204e+25
1.11501e+25
7.26178e+24
4.72942e+24
3.08015e+24
2.00602e+24
1.30647e+24
8.50872e+23
5.54152e+23
3.60905e+23
2.35048e+23
1.53081e+23
9.96978e+22
6.49307e+22
4.22877e+22
2.75409e+22
1.79367e+22
1.16817e+22
7.60801e+21
4.9549e+21
3.227e+21
2.10167e+21
1.36876e+21
8.9144e+20
5.80572e+20
3.78112e+20
2.46255e+20
1.6038e+20
1.04451e+20
6.80264e+19
4.43039e+19
2.8854e+19
1.87919e+19
1.22387e+19
7.97074e+18
5.19114e+18
3.38086e+18
2.20187e+18
1.43402e+18
9.33944e+17
6.08273e+17
3.96158e+17
2.57857e+17
1.6762e+17
1.10053e+17
7.76858e+16
6.53712e+16
6.58655e+16
7.2759e+16
8.25031e+16
2.28959e+34
1.49222e+34
9.72172e+33
6.33215e+33
4.12384e+33
2.68548e+33
1.74874e+33
1.13873e+33
7.41501e+32
4.82838e+32
3.14407e+32
2.04731e+32
1.33314e+32
8.68101e+31
5.65286e+31
3.68102e+31
2.39703e+31
1.56092e+31
1.01647e+31
6.61928e+30
4.31055e+30
2.8071e+30
1.82805e+30
1.19048e+30
7.75284e+29
5.04897e+29
3.28812e+29
2.14139e+29
1.39459e+29
9.08237e+28
5.91499e+28
3.85221e+28
2.50881e+28
1.63391e+28
1.06411e+28
6.93025e+27
4.51347e+27
2.9395e+27
1.91441e+27
1.24681e+27
8.12011e+26
5.28841e+26
3.44421e+26
2.24312e+26
1.46089e+26
9.51439e+25
6.19648e+25
4.03561e+25
2.62829e+25
1.71174e+25
1.11481e+25
7.26049e+24
4.72857e+24
3.0796e+24
2.00566e+24
1.30624e+24
8.5072e+23
5.54053e+23
3.6084e+23
2.35006e+23
1.53054e+23
9.968e+22
6.49191e+22
4.22801e+22
2.7536e+22
1.79335e+22
1.16796e+22
7.60665e+21
4.95402e+21
3.22643e+21
2.10129e+21
1.36852e+21
8.91281e+20
5.80469e+20
3.78045e+20
2.46211e+20
1.60351e+20
1.04433e+20
6.80143e+19
4.4296e+19
2.88488e+19
1.87885e+19
1.22365e+19
7.96932e+18
5.19022e+18
3.38026e+18
2.20148e+18
1.43376e+18
9.33774e+17
6.08145e+17
3.96081e+17
2.57962e+17
1.67911e+17
1.09151e+17
7.16109e+16
5.03784e+16
4.21613e+16
4.23194e+16
4.66775e+16
5.29078e+16
1.49115e+34
9.71848e+33
6.33151e+33
4.12397e+33
2.68575e+33
1.74898e+33
1.13891e+33
7.41624e+32
4.8292e+32
3.14459e+32
2.04764e+32
1.33335e+32
8.68231e+31
5.65364e+31
3.68149e+31
2.3973e+31
1.56107e+31
1.01655e+31
6.61968e+30
4.31072e+30
2.80716e+30
1.82805e+30
1.19046e+30
7.75254e+29
5.04868e+29
3.28788e+29
2.1412e+29
1.39445e+29
9.08134e+28
5.91426e+28
3.8517e+28
2.50846e+28
1.63367e+28
1.06395e+28
6.92915e+27
4.51274e+27
2.93901e+27
1.91409e+27
1.24659e+27
8.11871e+26
5.28749e+26
3.4436e+26
2.24273e+26
1.46063e+26
9.5127e+25
6.19538e+25
4.03489e+25
2.62782e+25
1.71143e+25
1.11461e+25
7.25919e+24
4.72773e+24
3.07905e+24
2.00531e+24
1.30601e+24
8.50568e+23
5.53954e+23
3.60776e+23
2.34964e+23
1.53026e+23
9.96622e+22
6.49075e+22
4.22726e+22
2.75311e+22
1.79303e+22
1.16775e+22
7.60529e+21
4.95313e+21
3.22585e+21
2.10091e+21
1.36827e+21
8.91121e+20
5.80365e+20
3.77977e+20
2.46167e+20
1.60322e+20
1.04414e+20
6.80021e+19
4.4288e+19
2.88437e+19
1.87852e+19
1.22343e+19
7.96789e+18
5.18929e+18
3.37965e+18
2.20108e+18
1.43351e+18
9.33608e+17
6.08035e+17
3.95999e+17
2.57911e+17
1.67974e+17
1.0934e+17
7.10779e+16
4.65992e+16
3.2674e+16
2.71952e+16
2.7192e+16
2.99457e+16
3.39292e+16
9.71149e+33
6.3294e+33
4.12355e+33
2.68584e+33
1.74916e+33
1.13907e+33
7.41742e+32
4.83001e+32
3.14513e+32
2.04799e+32
1.33357e+32
8.68373e+31
5.65453e+31
3.68204e+31
2.39763e+31
1.56127e+31
1.01666e+31
6.6203e+30
4.31105e+30
2.80732e+30
1.82812e+30
1.19048e+30
7.75254e+29
5.04859e+29
3.28776e+29
2.14108e+29
1.39435e+29
9.08056e+28
5.91367e+28
3.85127e+28
2.50815e+28
1.63345e+28
1.0638e+28
6.92813e+27
4.51205e+27
2.93855e+27
1.91378e+27
1.24639e+27
8.11735e+26
5.28659e+26
3.44301e+26
2.24234e+26
1.46037e+26
9.51103e+25
6.19429e+25
4.03418e+25
2.62736e+25
1.71113e+25
1.11441e+25
7.2579e+24
4.72688e+24
3.0785e+24
2.00495e+24
1.30577e+24
8.50416e+23
5.53855e+23
3.60712e+23
2.34922e+23
1.52999e+23
9.96444e+22
6.48959e+22
4.2265e+22
2.75261e+22
1.79271e+22
1.16755e+22
7.60393e+21
4.95225e+21
3.22527e+21
2.10054e+21
1.36803e+21
8.90962e+20
5.80261e+20
3.77909e+20
2.46123e+20
1.60294e+20
1.04395e+20
6.79899e+19
4.42801e+19
2.88385e+19
1.87818e+19
1.22321e+19
7.96647e+18
5.18836e+18
3.37905e+18
2.20069e+18
1.43325e+18
9.33441e+17
6.07927e+17
3.95927e+17
2.57858e+17
1.67941e+17
1.09378e+17
7.12e+16
4.62853e+16
3.03248e+16
2.11939e+16
1.75432e+16
1.74724e+16
1.92113e+16
2.17583e+16
6.32485e+33
4.12218e+33
2.68556e+33
1.74922e+33
1.13919e+33
7.41847e+32
4.83078e+32
3.14566e+32
2.04834e+32
1.3338e+32
8.68521e+31
5.65547e+31
3.68263e+31
2.398e+31
1.5615e+31
1.0168e+31
6.62111e+30
4.31152e+30
2.80758e+30
1.82826e+30
1.19055e+30
7.75284e+29
5.04868e+29
3.28776e+29
2.14104e+29
1.3943e+29
9.08007e+28
5.91326e+28
3.85095e+28
2.50791e+28
1.63327e+28
1.06367e+28
6.92723e+27
4.51142e+27
2.93812e+27
1.91349e+27
1.24619e+27
8.11604e+26
5.28573e+26
3.44244e+26
2.24196e+26
1.46012e+26
9.50939e+25
6.19321e+25
4.03347e+25
2.62689e+25
1.71083e+25
1.11422e+25
7.25661e+24
4.72604e+24
3.07795e+24
2.00459e+24
1.30554e+24
8.50265e+23
5.53756e+23
3.60647e+23
2.3488e+23
1.52972e+23
9.96266e+22
6.48843e+22
4.22575e+22
2.75212e+22
1.79239e+22
1.16734e+22