/*--------------------------------*- C++ -*----------------------------------*\
  =========                 |
  \\      /  F ield         | OpenFOAM: The Open Source CFD Toolbox
   \\    /   O peration     | Website:  https://openfoam.org
    \\  /    A nd           | Version:  9
     \\/     M anipulation  |
\*---------------------------------------------------------------------------*/
FoamFile
{
    format      ascii;
    class       volScalarField;
    location    "0.005";
    object      nuTilda;
}
// * * * * * * * * * * * * * * * * * * * * * * * * * * * * * * * * * * * * * //

dimensions      [0 2 -1 0 0 0 0];

internalField   nonuniform List<scalar> 
36675
(
0.000856396
0.000145662
6.66485e-05
4.36808e-05
3.34072e-05
2.76921e-05
2.52702e-05
2.49925e-05
2.43243e-05
2.32216e-05
2.70955e-05
3.10607e-05
2.18748e-05
3.23265e-05
3.30694e-05
0.00241898
0.000666478
0.000337523
0.000225783
0.000173178
0.00014289
0.000130928
0.000130816
0.000126206
0.000117966
0.000109773
0.000102606
9.48035e-05
9.04103e-05
8.69247e-05
0.0037974
0.00123603
0.000639324
0.000417511
0.000308808
0.00024406
0.000201045
0.00018092
0.000163173
0.000146426
0.000131975
0.000120235
0.000111701
0.00010488
0.000101647
0.00500209
0.00183781
0.00095209
0.000611361
0.000441005
0.000338063
0.000266382
0.000218623
0.000185147
0.000160373
0.000141731
0.000128575
0.000123142
0.000119211
0.000116188
0.00602622
0.00241022
0.0012538
0.000794807
0.00056108
0.000417458
0.000324396
0.000262556
0.000220361
0.000190596
0.000168821
0.000152574
0.000143849
0.000136302
0.000129307
0.006855
0.00291094
0.00152635
0.000956697
0.000661483
0.000488523
0.000379717
0.000308165
0.00025949
0.000224804
0.000198665
0.000177315
0.00016077
0.000147799
0.000137581
0.00746181
0.00330275
0.0017516
0.00108455
0.000744414
0.000549268
0.000427843
0.00034796
0.000293225
0.000253195
0.000221723
0.000196704
0.000177006
0.000161458
0.000148995
0.00779501
0.0035272
0.00187077
0.00114751
0.000785516
0.000580567
0.000453038
0.000368232
0.000309509
0.000265873
0.000232227
0.000206006
0.000185284
0.000168277
0.000154234
0.00768294
0.00345543
0.0018356
0.00112343
0.000767492
0.000567815
0.000443155
0.00035978
0.000301749
0.000259395
0.000226434
0.000200736
0.000180428
0.000164068
0.00015038
0.0073469
0.00325194
0.00173082
0.00105826
0.00072054
0.000531664
0.000416011
0.000337774
0.000282696
0.000242517
0.000212136
0.000188445
0.00016962
0.000154648
0.000141437
0.00674831
0.00290771
0.00156115
0.00095858
0.000649136
0.000475825
0.000370574
0.000301864
0.000253735
0.000216936
0.000189049
0.000167445
0.000150655
0.000137123
0.000126177
0.00588968
0.00240275
0.00129596
0.000813217
0.00055159
0.000400654
0.000308005
0.000248509
0.000208603
0.000180041
0.00015883
0.000140557
0.000125607
0.000115248
0.000109523
0.00474341
0.00174955
0.000943044
0.000604741
0.000426363
0.000315164
0.000240444
0.000190855
0.00015794
0.000134642
0.000117906
0.000105247
9.57012e-05
9.11284e-05
8.35638e-05
0.00324273
0.00102543
0.000536793
0.000352593
0.000259467
0.000202299
0.00016325
0.000138196
0.00012579
0.00011069
9.69747e-05
8.52502e-05
7.5613e-05
6.63304e-05
6.80096e-05
0.00126102
0.000244387
0.000112541
7.19038e-05
5.26732e-05
4.12679e-05
3.35984e-05
2.8485e-05
2.56557e-05
2.30794e-05
2.11343e-05
2.04849e-05
2.80293e-05
3.04568e-05
3.22585e-05
3.33848e-05
3.75333e-05
3.89961e-05
3.86761e-05
3.80934e-05
3.57303e-05
3.163e-05
2.84251e-05
2.61722e-05
2.42952e-05
2.26381e-05
2.09857e-05
1.92721e-05
1.7804e-05
1.65893e-05
8.67817e-05
8.98111e-05
9.27506e-05
9.45993e-05
9.51617e-05
9.42801e-05
9.1639e-05
8.30115e-05
7.44624e-05
6.67724e-05
5.96473e-05
5.29545e-05
4.69302e-05
4.15226e-05
3.6521e-05
0.000103448
0.000106216
0.000108466
0.000110319
0.000111315
0.000111161
0.000109674
0.000105951
9.94682e-05
9.2691e-05
8.55088e-05
7.80594e-05
7.0295e-05
6.23571e-05
5.43704e-05
0.000116454
0.000116707
0.000117932
0.00011857
0.000118757
0.000118304
0.000117117
0.000114635
0.000110241
0.000105291
9.96429e-05
9.32737e-05
8.59529e-05
7.78869e-05
6.94109e-05
0.00012608
0.000125403
0.000124244
0.000123485
0.000122523
0.000121202
0.000119362
0.000116886
0.00011372
0.000110245
0.000106149
0.000101213
9.52749e-05
8.8281e-05
8.04438e-05
0.000133752
0.00013077
0.000128088
0.000125685
0.000122986
0.000120381
0.000117715
0.000114959
0.000112374
0.000109726
0.000106884
0.000103557
9.93732e-05
9.39146e-05
8.73256e-05
0.000141596
0.000135184
0.000129846
0.000124841
0.000120464
0.000116508
0.000112991
0.000109975
0.000107489
0.000105369
0.000103434
0.00010148
9.89076e-05
9.53499e-05
9.05392e-05
0.000143891
0.000135095
0.000127672
0.000121211
0.000115626
0.000110733
0.000106568
0.000103136
0.000100357
9.82422e-05
9.6727e-05
9.56384e-05
9.45042e-05
9.28999e-05
9.02275e-05
0.000139271
0.000129685
0.000121472
0.000114348
0.000108142
0.000102772
9.82304e-05
9.44955e-05
9.1555e-05
8.94601e-05
8.81731e-05
8.74667e-05
8.71377e-05
8.69046e-05
8.62516e-05
0.000129875
0.000119882
0.000111309
0.000104059
9.79737e-05
9.28809e-05
8.86177e-05
8.50217e-05
8.21127e-05
8.0005e-05
7.85669e-05
7.78809e-05
7.7927e-05
7.85695e-05
7.9247e-05
0.000115505
0.000106373
9.88882e-05
9.2824e-05
8.78955e-05
8.37856e-05
8.01814e-05
7.64936e-05
7.30878e-05
7.04207e-05
6.86169e-05
6.7756e-05
6.78723e-05
6.89045e-05
7.02075e-05
9.96331e-05
9.24349e-05
8.74915e-05
8.38697e-05
8.08539e-05
7.79378e-05
7.45394e-05
6.99101e-05
6.56602e-05
6.23818e-05
6.00797e-05
5.86971e-05
5.83298e-05
5.87996e-05
5.97155e-05
7.71304e-05
7.57845e-05
7.52491e-05
7.46618e-05
7.37743e-05
7.24474e-05
7.03379e-05
6.76362e-05
6.42202e-05
6.063e-05
5.69628e-05
5.31358e-05
5.01192e-05
4.84552e-05
4.79022e-05
6.84852e-05
6.85963e-05
6.89119e-05
6.86666e-05
6.79169e-05
6.66645e-05
6.32702e-05
6.0674e-05
5.74759e-05
5.38465e-05
4.99067e-05
4.55429e-05
3.92114e-05
3.55612e-05
3.31913e-05
3.46502e-05
3.45581e-05
3.36966e-05
3.25691e-05
3.13752e-05
2.97169e-05
1.67679e-05
1.5477e-05
1.51358e-05
1.46615e-05
1.40781e-05
1.34854e-05
1.26582e-05
1.63922e-05
1.28352e-05
1.64198e-05
1.59481e-05
1.55536e-05
1.5256e-05
1.51631e-05
1.52348e-05
1.5367e-05
1.5554e-05
1.55952e-05
1.56862e-05
1.62765e-05
1.72751e-05
1.90442e-05
2.21552e-05
2.69536e-05
3.52659e-05
3.34597e-05
3.15319e-05
2.98457e-05
2.90884e-05
2.85395e-05
2.79918e-05
2.73895e-05
2.66165e-05
2.57144e-05
2.52311e-05
2.53042e-05
2.63916e-05
2.96565e-05
3.54802e-05
5.16999e-05
4.90925e-05
4.68153e-05
4.47749e-05
4.25079e-05
4.01845e-05
3.7836e-05
3.54812e-05
3.3128e-05
3.07626e-05
2.85669e-05
2.64943e-05
2.52301e-05
2.74743e-05
3.21702e-05
6.65524e-05
6.34623e-05
6.04218e-05
5.75194e-05
5.48213e-05
5.21836e-05
4.93621e-05
4.6393e-05
4.33158e-05
4.01257e-05
3.69736e-05
3.3698e-05
3.0998e-05
2.90212e-05
3.27807e-05
7.77063e-05
7.46743e-05
7.14805e-05
6.82216e-05
6.50208e-05
6.19918e-05
5.9027e-05
5.58267e-05
5.24181e-05
4.87979e-05
4.50882e-05
4.11924e-05
3.76496e-05
3.40256e-05
3.49201e-05
8.46804e-05
8.1963e-05
7.89991e-05
7.58405e-05
7.25698e-05
6.93091e-05
6.6146e-05
6.2906e-05
5.93693e-05
5.55321e-05
5.1482e-05
4.72022e-05
4.30968e-05
3.88328e-05
3.69047e-05
8.80386e-05
8.55299e-05
8.29364e-05
8.01075e-05
7.7061e-05
7.3868e-05
7.06202e-05
6.73593e-05
6.37939e-05
5.98543e-05
5.55977e-05
5.1094e-05
4.66113e-05
4.21673e-05
3.84173e-05
8.80772e-05
8.58502e-05
8.35214e-05
8.10237e-05
7.82834e-05
7.53102e-05
7.21432e-05
6.88331e-05
6.52809e-05
6.1305e-05
5.69536e-05
5.23769e-05
4.77106e-05
4.33604e-05
3.81872e-05
8.43997e-05
8.24996e-05
8.04796e-05
7.82689e-05
7.58245e-05
7.31046e-05
7.00846e-05
6.67664e-05
6.3143e-05
5.91897e-05
5.49023e-05
5.04516e-05
4.58689e-05
4.17899e-05
3.59635e-05
7.75098e-05
7.57521e-05
7.38931e-05
7.18745e-05
6.96499e-05
6.71727e-05
6.44003e-05
6.13012e-05
5.78723e-05
5.41345e-05
5.0101e-05
4.59605e-05
4.17141e-05
3.80477e-05
3.25648e-05
6.85472e-05
6.68212e-05
6.50123e-05
6.30658e-05
6.0943e-05
5.86135e-05
5.60445e-05
5.32034e-05
5.00828e-05
4.67133e-05
4.31252e-05
3.94965e-05
3.58783e-05
3.29322e-05
2.88622e-05
5.79845e-05
5.6209e-05
5.43593e-05
5.23893e-05
5.02814e-05
4.8034e-05
4.56402e-05
4.30932e-05
4.0391e-05
3.75666e-05
3.46696e-05
3.18414e-05
2.93168e-05
2.79317e-05
2.59803e-05
4.59173e-05
4.39338e-05
4.19363e-05
3.98997e-05
3.78315e-05
3.57559e-05
3.37201e-05
3.17393e-05
2.98156e-05
2.79655e-05
2.62622e-05
2.47938e-05
2.4443e-05
2.6699e-05
2.54704e-05
3.11942e-05
2.91268e-05
2.72039e-05
2.54254e-05
2.38149e-05
2.30496e-05
2.28029e-05
2.27354e-05
2.27269e-05
2.27317e-05
2.29983e-05
2.36743e-05
2.55694e-05
2.88375e-05
2.95627e-05
1.32145e-05
1.31555e-05
1.33889e-05
1.36105e-05
1.37649e-05
1.39219e-05
1.41218e-05
1.43516e-05
1.44864e-05
1.44649e-05
1.51644e-05
1.65417e-05
1.90521e-05
2.18101e-05
2.65618e-05
0.0140494
0.0140496
0.0140499
0.0140501
0.0140503
0.0140505
0.0140507
0.0140508
0.014051
0.0140512
0.0140513
0.0140515
0.0140516
0.0140518
0.0140519
0.0140521
0.0140522
0.0140523
0.0140524
0.0140526
0.0140527
0.0140528
0.0140529
0.014053
0.0140531
0.0140532
0.0140533
0.0140534
0.0140535
0.0140536
0.0140537
0.0140538
0.0140539
0.014054
0.0140541
0.0140542
0.0140542
0.0140543
0.0140544
0.0140545
0.0140546
0.0140546
0.0140547
0.0140548
0.0140549
0.0140549
0.014055
0.0140551
0.0140552
0.0140552
0.0140553
0.0140554
0.0140555
0.0140556
0.0140556
0.0140557
0.0140558
0.0140559
0.014056
0.0140561
0.0140561
0.0140562
0.0140563
0.0140564
0.0140565
0.0140566
0.0140566
0.0140567
0.0140568
0.0140569
0.014057
0.0140571
0.0140571
0.0140572
0.0140573
0.0140574
0.0140574
0.0140575
0.0140576
0.0140576
0.0140577
0.0140577
0.0140577
0.0140577
0.0140577
0.0140577
0.0140577
0.0140577
0.0140577
0.0140577
0.0140577
0.0140577
0.0140577
0.0140577
0.0140577
0.0140577
0.0140577
0.0140577
0.0140577
0.0140577
0.0140577
0.0140577
0.0140578
0.0140578
0.0140578
0.0140579
0.014058
0.0140581
0.0140582
0.0140583
0.0140584
0.0140585
0.0140587
0.0140588
0.014059
0.0140591
0.0140593
0.0140594
0.0140596
0.0140597
0.0140599
0.0140601
0.0140602
0.0140604
0.0140606
0.0140608
0.0140609
0.0140611
0.0140612
0.0140613
0.0140488
0.0140495
0.0140502
0.0140508
0.0140514
0.0140518
0.0140521
0.0140523
0.0140525
0.0140526
0.0140526
0.0140526
0.0140527
0.0140528
0.0140531
0.0140533
0.0140537
0.0140541
0.0140544
0.0140548
0.0140552
0.0140556
0.0140559
0.0140563
0.0140567
0.0140571
0.0140575
0.0140579
0.0140582
0.0140586
0.014059
0.0140594
0.0140598
0.0140603
0.0140607
0.0140611
0.0140615
0.014062
0.0140624
0.0140629
0.0140634
0.0140639
0.0140644
0.0140649
0.0140654
0.014066
0.0140665
0.0140671
0.0140677
0.0140683
0.014069
0.0140697
0.0140704
0.0140711
0.0140719
0.0140726
0.0140733
0.014074
0.0140747
0.0140754
0.0140761
0.0140767
0.0140774
0.014078
0.0140787
0.0140793
0.0140799
0.0140805
0.0140811
0.0140817
0.0140823
0.0140828
0.0140834
0.014084
0.0140845
0.0140851
0.0140856
0.0140861
0.0140866
0.0140871
0.0140877
0.0140882
0.0140886
0.0140891
0.0140896
0.0140901
0.0140906
0.014091
0.0140915
0.0140919
0.0140924
0.0140928
0.0140933
0.0140937
0.0140941
0.0140945
0.0140949
0.0140954
0.0140958
0.0140962
0.0140966
0.014097
0.0140974
0.0140977
0.0140981
0.0140985
0.0140989
0.0140992
0.0140995
0.0140999
0.0141002
0.0141005
0.0141008
0.0141011
0.0141014
0.0141016
0.0141019
0.0141021
0.0141024
0.0141026
0.0141029
0.0141031
0.0141033
0.0141035
0.0141037
0.014104
0.0141042
0.0141043
0.0141045
0.0141046
0.0140467
0.0140466
0.0140465
0.0140463
0.0140461
0.0140459
0.0140456
0.0140453
0.014045
0.0140448
0.0140445
0.0140444
0.0140444
0.0140443
0.0140443
0.0140442
0.014044
0.0140438
0.0140435
0.0140433
0.0140431
0.0140429
0.0140428
0.0140427
0.0140426
0.0140425
0.0140424
0.0140423
0.0140422
0.0140422
0.0140421
0.014042
0.014042
0.014042
0.0140419
0.0140419
0.0140419
0.0140419
0.0140419
0.014042
0.014042
0.0140421
0.0140421
0.0140422
0.0140423
0.0140424
0.0140425
0.0140427
0.0140429
0.014043
0.0140433
0.0140435
0.0140438
0.0140441
0.0140444
0.0140447
0.0140449
0.0140452
0.0140455
0.0140458
0.0140461
0.0140464
0.0140467
0.014047
0.0140473
0.0140476
0.0140479
0.0140482
0.0140485
0.0140488
0.0140491
0.0140494
0.0140497
0.01405
0.0140503
0.0140506
0.0140509
0.0140512
0.0140515
0.0140517
0.014052
0.0140523
0.0140526
0.0140529
0.0140532
0.0140535
0.0140538
0.0140541
0.0140544
0.0140547
0.014055
0.0140553
0.0140556
0.0140558
0.0140561
0.0140564
0.0140567
0.0140569
0.0140572
0.0140575
0.0140578
0.014058
0.0140583
0.0140585
0.0140588
0.0140591
0.0140593
0.0140596
0.0140598
0.0140601
0.0140603
0.0140606
0.0140608
0.014061
0.0140613
0.0140615
0.0140617
0.014062
0.0140622
0.0140624
0.0140626
0.0140629
0.0140631
0.0140633
0.0140635
0.0140637
0.0140639
0.0140642
0.0140643
0.0140644
0.0140046
0.0140046
0.0140046
0.0140046
0.0140046
0.0140046
0.0140046
0.0140047
0.0140047
0.0140047
0.0140047
0.0140047
0.0140047
0.0140048
0.014005
0.0140052
0.0140055
0.0140058
0.0140062
0.0140066
0.0140071
0.0140076
0.0140081
0.0140086
0.0140092
0.0140097
0.0140102
0.0140108
0.0140113
0.0140118
0.0140123
0.0140129
0.0140134
0.0140139
0.0140144
0.0140149
0.0140153
0.0140158
0.0140163
0.0140168
0.0140172
0.0140177
0.0140181
0.0140186
0.014019
0.0140195
0.0140199
0.0140203
0.0140207
0.0140211
0.0140216
0.0140219
0.0140223
0.0140227
0.0140231
0.0140234
0.0140238
0.0140242
0.0140245
0.0140248
0.0140252
0.0140255
0.0140258
0.0140261
0.0140264
0.0140266
0.0140269
0.0140272
0.0140274
0.0140277
0.0140279
0.0140281
0.0140283
0.0140285
0.0140287
0.0140289
0.014029
0.0140292
0.0140293
0.0140294
0.0140295
0.0140296
0.0140297
0.0140297
0.0140297
0.0140298
0.0140297
0.0140297
0.0140296
0.0140294
0.0140292
0.0140289
0.0140286
0.0140283
0.0140281
0.0140278
0.0140276
0.0140273
0.014027
0.0140268
0.0140265
0.0140263
0.014026
0.0140258
0.0140255
0.0140253
0.014025
0.0140248
0.0140245
0.0140243
0.0140241
0.0140238
0.0140236
0.0140233
0.0140231
0.0140229
0.0140227
0.0140225
0.0140225
0.0140224
0.0140223
0.0140223
0.0140223
0.0140223
0.0140222
0.0140222
0.0140222
0.0140222
0.0140223
0.0140223
0.0139968
0.013997
0.0139971
0.0139973
0.0139974
0.0139976
0.0139977
0.0139978
0.013998
0.0139981
0.0139982
0.0139983
0.0139984
0.0139984
0.0139984
0.0139984
0.0139983
0.0139982
0.0139979
0.0139977
0.0139976
0.0139975
0.0139975
0.0139976
0.0139976
0.0139977
0.0139978
0.0139979
0.013998
0.0139982
0.0139983
0.0139985
0.0139987
0.013999
0.0139992
0.0139995
0.0139997
0.0139999
0.0140001
0.0140004
0.0140006
0.0140008
0.014001
0.0140012
0.0140014
0.0140015
0.0140017
0.0140019
0.0140021
0.0140023
0.0140024
0.0140026
0.0140027
0.0140029
0.014003
0.0140032
0.0140033
0.0140034
0.0140036
0.0140037
0.0140038
0.0140039
0.0140041
0.0140042
0.0140043
0.0140044
0.0140045
0.0140046
0.0140047
0.0140047
0.0140048
0.0140049
0.014005
0.0140051
0.0140051
0.0140052
0.0140053
0.0140054
0.0140054
0.0140055
0.0140056
0.0140056
0.0140057
0.0140058
0.0140058
0.0140059
0.014006
0.014006
0.0140061
0.0140062
0.0140063
0.0140063
0.0140064
0.0140065
0.0140065
0.0140066
0.0140067
0.0140067
0.0140068
0.0140069
0.0140069
0.014007
0.0140071
0.0140071
0.0140072
0.0140073
0.0140073
0.0140074
0.0140075
0.0140075
0.0140076
0.0140077
0.0140077
0.0140078
0.0140079
0.0140079
0.014008
0.0140081
0.0140081
0.0140082
0.0140083
0.0140083
0.0140084
0.0140085
0.0140085
0.0140086
0.0140087
0.0140088
0.0140089
0.0140091
0.0139777
0.0139778
0.0139779
0.0139779
0.013978
0.0139781
0.0139781
0.0139782
0.0139782
0.0139783
0.0139784
0.0139784
0.0139784
0.0139783
0.013978
0.0139777
0.0139775
0.0139775
0.0139775
0.0139776
0.0139776
0.0139777
0.0139778
0.013978
0.0139781
0.0139783
0.0139785
0.0139787
0.0139789
0.0139792
0.0139794
0.0139797
0.01398
0.0139803
0.0139806
0.0139809
0.0139812
0.0139815
0.0139818
0.013982
0.0139823
0.0139826
0.0139828
0.013983
0.0139833
0.0139835
0.0139837
0.0139839
0.0139841
0.0139842
0.0139844
0.0139846
0.0139847
0.0139848
0.0139849
0.013985
0.0139851
0.0139852
0.0139852
0.0139853
0.0139853
0.0139853
0.0139852
0.0139852
0.0139851
0.013985
0.0139848
0.0139844
0.013984
0.0139836
0.0139833
0.0139829
0.0139825
0.0139821
0.0139818
0.0139814
0.013981
0.0139807
0.0139803
0.01398
0.0139796
0.0139793
0.0139789
0.0139786
0.0139782
0.0139779
0.0139776
0.0139772
0.0139769
0.0139766
0.0139763
0.0139759
0.0139756
0.0139753
0.013975
0.0139747
0.0139744
0.0139741
0.0139738
0.0139735
0.0139732
0.0139729
0.0139726
0.0139723
0.013972
0.0139718
0.0139715
0.0139712
0.013971
0.0139707
0.0139704
0.0139702
0.0139699
0.0139697
0.0139694
0.0139692
0.0139689
0.0139687
0.0139685
0.0139683
0.0139683
0.0139684
0.0139684
0.0139685
0.0139686
0.0139688
0.0139689
0.0139691
0.0139693
0.0139695
0.0139629
0.0139631
0.0139634
0.0139636
0.0139637
0.0139639
0.0139641
0.0139643
0.0139644
0.0139645
0.0139647
0.0139648
0.0139649
0.013965
0.013965
0.0139651
0.0139651
0.0139651
0.0139651
0.0139651
0.013965
0.0139648
0.0139645
0.0139642
0.013964
0.0139637
0.0139634
0.0139631
0.0139629
0.0139626
0.0139624
0.0139621
0.0139618
0.0139616
0.0139613
0.0139611
0.0139608
0.0139606
0.0139603
0.0139601
0.0139598
0.0139596
0.0139593
0.0139591
0.0139588
0.0139586
0.0139584
0.0139581
0.0139579
0.0139576
0.0139574
0.0139571
0.0139569
0.0139566
0.0139564
0.0139561
0.0139559
0.0139556
0.0139554
0.0139551
0.0139549
0.0139547
0.0139544
0.0139543
0.0139542
0.0139543
0.0139544
0.0139544
0.0139546
0.0139547
0.0139548
0.0139549
0.0139551
0.0139553
0.0139554
0.0139556
0.0139558
0.013956
0.0139562
0.0139564
0.0139566
0.0139568
0.013957
0.0139572
0.0139574
0.0139577
0.0139579
0.0139581
0.0139584
0.0139586
0.0139588
0.0139591
0.0139593
0.0139595
0.0139598
0.01396
0.0139603
0.0139605
0.0139607
0.013961
0.0139612
0.0139615
0.0139617
0.013962
0.0139622
0.0139625
0.0139627
0.013963
0.0139632
0.0139635
0.0139637
0.013964
0.0139642
0.0139645
0.0139647
0.013965
0.0139652
0.0139655
0.0139657
0.013966
0.0139662
0.0139665
0.0139667
0.013967
0.0139672
0.0139675
0.0139677
0.013968
0.0139683
0.0139686
0.013959
0.0139592
0.0139594
0.0139597
0.0139599
0.0139602
0.0139605
0.0139607
0.013961
0.0139613
0.0139616
0.0139619
0.0139621
0.0139624
0.0139627
0.0139629
0.0139632
0.0139634
0.0139637
0.0139639
0.0139641
0.0139643
0.0139645
0.0139647
0.0139649
0.0139651
0.0139652
0.0139654
0.0139655
0.0139656
0.0139657
0.0139658
0.0139658
0.0139659
0.0139659
0.0139659
0.0139659
0.0139658
0.0139657
0.0139655
0.0139653
0.0139648
0.0139644
0.013964
0.0139636
0.0139633
0.013963
0.0139626
0.0139623
0.0139619
0.0139616
0.0139613
0.013961
0.0139607
0.0139603
0.01396
0.0139597
0.0139594
0.0139591
0.0139588
0.0139585
0.0139582
0.0139579
0.0139576
0.0139573
0.013957
0.0139567
0.0139565
0.0139562
0.0139559
0.0139556
0.0139553
0.0139551
0.0139548
0.0139545
0.0139543
0.013954
0.0139538
0.0139535
0.0139533
0.013953
0.0139528
0.0139526
0.0139524
0.0139521
0.0139519
0.0139517
0.0139515
0.0139513
0.0139511
0.0139509
0.0139507
0.0139505
0.0139503
0.01395
0.0139496
0.0139492
0.0139489
0.0139487
0.0139487
0.0139486
0.0139486
0.0139486
0.0139487
0.0139487
0.0139488
0.0139489
0.013949
0.0139491
0.0139492
0.0139493
0.0139495
0.0139496
0.0139498
0.01395
0.0139501
0.0139503
0.0139505
0.0139507
0.0139509
0.0139511
0.0139513
0.0139515
0.0139517
0.0139519
0.0139521
0.0139523
0.0139526
0.0139528
0.0139531
0.0139601
0.0139602
0.0139603
0.0139604
0.0139605
0.0139606
0.0139607
0.0139607
0.0139607
0.0139608
0.0139607
0.0139607
0.0139606
0.0139605
0.0139604
0.0139601
0.0139596
0.0139591
0.0139586
0.0139581
0.0139577
0.0139572
0.0139568
0.0139563
0.0139559
0.0139554
0.013955
0.0139546
0.0139541
0.0139537
0.0139532
0.0139528
0.0139524
0.0139519
0.0139515
0.013951
0.0139506
0.0139502
0.0139497
0.0139493
0.0139488
0.0139484
0.0139479
0.0139475
0.013947
0.0139466
0.0139461
0.0139456
0.0139452
0.0139447
0.0139443
0.0139438
0.0139434
0.0139429
0.0139424
0.013942
0.0139415
0.013941
0.0139406
0.0139401
0.0139396
0.0139392
0.0139387
0.0139382
0.0139378
0.0139373
0.0139368
0.0139363
0.0139359
0.0139354
0.0139349
0.0139345
0.013934
0.0139338
0.0139337
0.0139336
0.0139335
0.0139335
0.0139334
0.0139334
0.0139334
0.0139335
0.0139335
0.0139335
0.0139336
0.0139336
0.0139337
0.0139338
0.0139339
0.013934
0.0139341
0.0139342
0.0139343
0.0139344
0.0139345
0.0139346
0.0139348
0.0139349
0.013935
0.0139352
0.0139353
0.0139355
0.0139356
0.0139357
0.0139359
0.013936
0.0139362
0.0139363
0.0139365
0.0139367
0.0139368
0.013937
0.0139371
0.0139373
0.0139374
0.0139376
0.0139377
0.0139378
0.0139379
0.0139379
0.0139379
0.0139379
0.0139379
0.0139379
0.0139378
0.0139377
0.0139376
0.0139375
0.0139374
0.0139374
0.0139396
0.0139391
0.0139387
0.0139382
0.0139378
0.0139373
0.0139369
0.0139364
0.013936
0.0139355
0.0139351
0.0139347
0.0139342
0.0139338
0.0139334
0.0139329
0.0139325
0.0139324
0.0139323
0.0139324
0.0139325
0.0139326
0.0139326
0.0139327
0.0139327
0.0139327
0.0139327
0.0139326
0.0139325
0.0139324
0.0139322
0.0139318
0.0139312
0.0139306
0.0139301
0.0139296
0.0139291
0.0139287
0.0139282
0.0139278
0.0139273
0.0139269
0.0139264
0.0139259
0.0139255
0.013925
0.0139246
0.0139241
0.0139236
0.0139232
0.0139227
0.0139222
0.0139218
0.0139213
0.0139208
0.0139204
0.0139199
0.0139194
0.0139189
0.0139185
0.013918
0.0139175
0.013917
0.0139165
0.0139161
0.0139156
0.0139151
0.0139146
0.0139141
0.0139136
0.0139131
0.0139126
0.0139121
0.0139116
0.0139112
0.0139107
0.0139102
0.0139097
0.0139093
0.0139088
0.0139084
0.013908
0.0139075
0.0139068
0.0139062
0.0139057
0.0139054
0.0139052
0.013905
0.0139049
0.0139048
0.0139048
0.0139047
0.0139047
0.0139047
0.0139047
0.0139047
0.0139047
0.0139047
0.0139047
0.0139047
0.0139048
0.0139048
0.0139048
0.0139049
0.0139049
0.0139049
0.013905
0.013905
0.0139051
0.0139051
0.0139052
0.0139052
0.0139052
0.0139052
0.0139053
0.0139053
0.0139053
0.0139052
0.0139051
0.013905
0.0139049
0.0139047
0.0139045
0.0139043
0.0139041
0.0139038
0.0139035
0.0139032
0.0139031
0.0139192
0.0139186
0.0139181
0.0139175
0.0139169
0.0139164
0.0139158
0.0139152
0.0139147
0.0139141
0.0139135
0.0139129
0.0139124
0.0139118
0.0139112
0.0139107
0.0139102
0.01391
0.01391
0.01391
0.01391
0.01391
0.0139099
0.0139097
0.0139095
0.013909
0.0139083
0.0139077
0.0139071
0.0139065
0.0139059
0.0139052
0.0139046
0.013904
0.0139034
0.0139027
0.0139021
0.0139015
0.0139009
0.0139002
0.0138996
0.013899
0.0138983
0.0138977
0.013897
0.0138964
0.0138958
0.0138951
0.0138945
0.0138938
0.0138932
0.0138926
0.0138919
0.0138913
0.0138906
0.01389
0.0138893
0.0138887
0.013888
0.0138873
0.0138867
0.013886
0.0138854
0.0138847
0.013884
0.0138834
0.0138827
0.013882
0.0138814
0.0138807
0.01388
0.0138794
0.0138787
0.013878
0.0138774
0.0138769
0.0138767
0.0138765
0.0138764
0.0138763
0.0138762
0.0138762
0.0138762
0.0138762
0.0138762
0.0138762
0.0138762
0.0138762
0.0138762
0.0138761
0.013876
0.0138758
0.0138756
0.0138753
0.0138748
0.0138742
0.0138734
0.0138727
0.0138719
0.0138711
0.0138704
0.0138696
0.0138689
0.0138681
0.0138674
0.0138666
0.0138658
0.0138651
0.0138643
0.0138636
0.0138628
0.013862
0.0138613
0.0138605
0.0138597
0.013859
0.0138582
0.0138574
0.0138567
0.0138559
0.0138551
0.0138543
0.0138536
0.0138528
0.013852
0.0138512
0.0138505
0.0138497
0.013849
0.0138484
0.0138992
0.0138985
0.0138979
0.0138972
0.0138965
0.0138959
0.0138952
0.0138946
0.0138939
0.0138932
0.0138926
0.0138919
0.0138912
0.0138906
0.0138899
0.0138892
0.0138886
0.0138879
0.0138872
0.0138865
0.0138859
0.0138852
0.0138845
0.0138839
0.0138832
0.0138825
0.0138818
0.0138811
0.0138805
0.0138798
0.0138791
0.0138784
0.0138777
0.013877
0.0138763
0.0138757
0.013875
0.0138743
0.0138736
0.0138729
0.0138722
0.0138715
0.0138708
0.0138701
0.0138694
0.0138686
0.0138679
0.0138672
0.0138665
0.0138658
0.0138651
0.0138644
0.0138636
0.0138629
0.0138622
0.0138615
0.0138607
0.01386
0.0138593
0.0138585
0.0138578
0.013857
0.0138563
0.0138556
0.0138548
0.0138541
0.0138533
0.0138526
0.0138518
0.0138511
0.0138503
0.0138496
0.0138488
0.013848
0.0138473
0.0138465
0.0138457
0.013845
0.0138442
0.0138435
0.0138428
0.0138425
0.0138422
0.0138421
0.0138419
0.0138418
0.0138418
0.0138417
0.0138416
0.0138414
0.0138412
0.013841
0.0138407
0.0138403
0.0138397
0.0138389
0.013838
0.0138371
0.0138362
0.0138353
0.0138344
0.0138335
0.0138327
0.0138318
0.0138309
0.01383
0.0138291
0.0138282
0.0138273
0.0138264
0.0138255
0.0138246
0.0138237
0.0138228
0.0138218
0.0138209
0.01382
0.0138191
0.0138182
0.0138173
0.0138164
0.0138154
0.0138145
0.0138136
0.0138127
0.0138117
0.0138108
0.0138099
0.013809
0.0138083
0.0138798
0.0138791
0.0138783
0.0138775
0.0138768
0.013876
0.0138753
0.0138745
0.0138737
0.013873
0.0138722
0.0138714
0.0138707
0.0138699
0.0138691
0.0138683
0.0138675
0.0138668
0.013866
0.0138652
0.0138644
0.0138636
0.0138628
0.0138621
0.0138613
0.0138605
0.0138597
0.0138589
0.0138581
0.0138573
0.0138565
0.0138557
0.0138549
0.0138541
0.0138532
0.0138524
0.0138516
0.0138508
0.01385
0.0138492
0.0138483
0.0138475
0.0138467
0.0138459
0.013845
0.0138442
0.0138434
0.0138425
0.0138417
0.0138409
0.01384
0.0138392
0.0138383
0.0138375
0.0138366
0.0138358
0.0138349
0.0138341
0.0138332
0.0138324
0.0138315
0.0138306
0.0138298
0.0138289
0.013828
0.0138272
0.0138263
0.0138254
0.0138245
0.0138236
0.0138228
0.0138219
0.013821
0.0138201
0.0138192
0.0138183
0.0138174
0.0138165
0.0138156
0.0138147
0.0138138
0.0138129
0.013812
0.0138111
0.0138101
0.0138092
0.0138083
0.0138074
0.0138065
0.0138056
0.0138047
0.0138037
0.0138028
0.0138019
0.013801
0.0138001
0.0137991
0.0137982
0.0137973
0.0137963
0.0137954
0.0137944
0.0137935
0.0137925
0.0137916
0.0137906
0.0137897
0.0137887
0.0137877
0.0137868
0.0137858
0.0137848
0.0137839
0.0137829
0.0137819
0.0137809
0.0137799
0.0137789
0.0137779
0.0137769
0.0137759
0.0137749
0.0137739
0.0137729
0.0137719
0.0137709
0.0137699
0.0137689
0.0137679
0.0137671
0.0138611
0.0138603
0.0138594
0.0138585
0.0138576
0.0138568
0.0138559
0.013855
0.0138541
0.0138532
0.0138523
0.0138515
0.0138506
0.0138497
0.0138488
0.0138479
0.013847
0.0138461
0.0138452
0.0138443
0.0138434
0.0138425
0.0138416
0.0138407
0.0138398
0.0138388
0.0138379
0.013837
0.0138361
0.0138352
0.0138342
0.0138333
0.0138324
0.0138315
0.0138305
0.0138296
0.0138287
0.0138277
0.0138268
0.0138258
0.0138249
0.0138239
0.013823
0.013822
0.0138211
0.0138201
0.0138192
0.0138182
0.0138172
0.0138163
0.0138153
0.0138143
0.0138134
0.0138124
0.0138114
0.0138104
0.0138094
0.0138084
0.0138075
0.0138065
0.0138055
0.0138045
0.0138035
0.0138025
0.0138015
0.0138005
0.0137994
0.0137984
0.0137974
0.0137964
0.0137954
0.0137943
0.0137933
0.0137923
0.0137913
0.0137902
0.0137892
0.0137881
0.0137871
0.013786
0.013785
0.0137839
0.0137829
0.0137818
0.0137808
0.0137797
0.0137786
0.0137775
0.0137765
0.0137754
0.0137743
0.0137732
0.0137721
0.013771
0.01377
0.0137689
0.0137678
0.0137667
0.0137655
0.0137644
0.0137633
0.0137622
0.0137611
0.01376
0.0137588
0.0137577
0.0137566
0.0137554
0.0137543
0.0137532
0.013752
0.0137509
0.0137497
0.0137486
0.0137474
0.0137462
0.0137451
0.0137439
0.0137427
0.0137416
0.0137404
0.0137392
0.013738
0.0137368
0.0137356
0.0137344
0.0137332
0.013732
0.0137309
0.0137299
0.0138428
0.0138418
0.0138408
0.0138398
0.0138388
0.0138378
0.0138368
0.0138358
0.0138348
0.0138338
0.0138327
0.0138317
0.0138307
0.0138297
0.0138286
0.0138276
0.0138266
0.0138256
0.0138245
0.0138235
0.0138224
0.0138214
0.0138204
0.0138193
0.0138183
0.0138172
0.0138161
0.0138151
0.013814
0.013813
0.0138119
0.0138108
0.0138098
0.0138087
0.0138076
0.0138065
0.0138054
0.0138044
0.0138033
0.0138022
0.0138011
0.0138
0.0137989
0.0137978
0.0137967
0.0137956
0.0137945
0.0137934
0.0137922
0.0137911
0.01379
0.0137889
0.0137878
0.0137866
0.0137855
0.0137843
0.0137832
0.0137821
0.0137809
0.0137798
0.0137786
0.0137775
0.0137763
0.0137751
0.013774
0.0137728
0.0137716
0.0137704
0.0137693
0.0137681
0.0137669
0.0137657
0.0137645
0.0137633
0.0137621
0.0137609
0.0137597
0.0137585
0.0137572
0.013756
0.0137548
0.0137536
0.0137523
0.0137511
0.0137499
0.0137486
0.0137474
0.0137461
0.0137449
0.0137436
0.0137423
0.0137411
0.0137398
0.0137385
0.0137373
0.013736
0.0137347
0.0137334
0.0137321
0.0137308
0.0137295
0.0137282
0.0137269
0.0137256
0.0137242
0.0137229
0.0137216
0.0137203
0.0137189
0.0137176
0.0137162
0.0137149
0.0137135
0.0137122
0.0137108
0.0137094
0.0137081
0.0137067
0.0137053
0.0137039
0.0137025
0.0137011
0.0136997
0.0136983
0.0136969
0.0136955
0.0136941
0.0136927
0.0136914
0.0136902
0.0138245
0.0138233
0.0138222
0.013821
0.0138199
0.0138187
0.0138175
0.0138164
0.0138152
0.013814
0.0138129
0.0138117
0.0138105
0.0138094
0.0138082
0.013807
0.0138058
0.0138046
0.0138034
0.0138022
0.013801
0.0137998
0.0137986
0.0137974
0.0137962
0.013795
0.0137938
0.0137926
0.0137914
0.0137901
0.0137889
0.0137877
0.0137864
0.0137852
0.013784
0.0137827
0.0137815
0.0137802
0.013779
0.0137777
0.0137765
0.0137752
0.0137739
0.0137727
0.0137714
0.0137701
0.0137688
0.0137675
0.0137663
0.013765
0.0137637
0.0137624
0.0137611
0.0137598
0.0137584
0.0137571
0.0137558
0.0137545
0.0137531
0.0137518
0.0137505
0.0137491
0.0137478
0.0137464
0.0137451
0.0137437
0.0137424
0.013741
0.0137396
0.0137382
0.0137369
0.0137355
0.0137341
0.0137327
0.0137313
0.0137299
0.0137285
0.0137271
0.0137257
0.0137242
0.0137228
0.0137214
0.0137199
0.0137185
0.013717
0.0137156
0.0137141
0.0137127
0.0137112
0.0137097
0.0137083
0.0137068
0.0137053
0.0137038
0.0137023
0.0137008
0.0136993
0.0136978
0.0136962
0.0136947
0.0136932
0.0136916
0.0136901
0.0136886
0.013687
0.0136854
0.0136839
0.0136823
0.0136807
0.0136792
0.0136776
0.013676
0.0136744
0.0136728
0.0136712
0.0136696
0.0136679
0.0136663
0.0136647
0.013663
0.0136614
0.0136597
0.0136581
0.0136564
0.0136548
0.0136531
0.0136514
0.0136497
0.0136481
0.0136468
0.0138056
0.0138043
0.013803
0.0138016
0.0138003
0.013799
0.0137976
0.0137963
0.013795
0.0137936
0.0137923
0.0137909
0.0137896
0.0137882
0.0137869
0.0137855
0.0137842
0.0137828
0.0137814
0.01378
0.0137787
0.0137773
0.0137759
0.0137745
0.0137731
0.0137717
0.0137703
0.0137689
0.0137675
0.0137661
0.0137647
0.0137633
0.0137618
0.0137604
0.013759
0.0137576
0.0137561
0.0137547
0.0137532
0.0137518
0.0137503
0.0137488
0.0137474
0.0137459
0.0137444
0.013743
0.0137415
0.01374
0.0137385
0.013737
0.0137355
0.013734
0.0137325
0.0137309
0.0137294
0.0137279
0.0137263
0.0137248
0.0137233
0.0137217
0.0137202
0.0137186
0.013717
0.0137155
0.0137139
0.0137123
0.0137107
0.0137091
0.0137075
0.0137059
0.0137043
0.0137027
0.013701
0.0136994
0.0136978
0.0136961