/*--------------------------------*- C++ -*----------------------------------*\
  =========                 |
  \\      /  F ield         | OpenFOAM: The Open Source CFD Toolbox
   \\    /   O peration     | Website:  https://openfoam.org
    \\  /    A nd           | Version:  9
     \\/     M anipulation  |
\*---------------------------------------------------------------------------*/
FoamFile
{
    format      ascii;
    class       volVectorField;
    location    "0.005";
    object      U;
}
// * * * * * * * * * * * * * * * * * * * * * * * * * * * * * * * * * * * * * //

dimensions      [0 1 -1 0 0 0 0];

internalField   nonuniform List<vector> 
36675
(
(4.17335 -0.0156411 1.86291e-17)
(4.05365 0.0188248 -6.92424e-17)
(3.87918 0.0328383 0)
(3.69813 0.0392142 0)
(3.52103 0.0464644 0)
(3.34634 0.0528459 0)
(3.18738 0.0546915 -1.33016e-15)
(3.06208 0.0540939 1.36708e-15)
(2.95311 0.0559009 0)
(2.843 0.0606597 0)
(2.72348 0.0653942 0)
(2.58954 0.067352 0)
(2.4202 0.0644221 0)
(2.17013 0.0613285 0)
(1.64282 0.0012191 0)
(4.20729 0.0172483 0)
(4.19345 0.0294286 0)
(4.17031 0.0319667 -2.01051e-16)
(4.14167 0.0330787 2.69709e-16)
(4.11145 0.0337303 -6.49385e-16)
(4.08024 0.0331804 7.43041e-16)
(4.04106 0.0309158 0)
(3.9905 0.0277536 -8.32066e-16)
(3.93642 0.0264995 8.66929e-16)
(3.88332 0.0272526 0)
(3.83002 0.0294526 0)
(3.77337 0.0345486 0)
(3.70211 0.0462008 -2.08652e-15)
(3.62011 0.0824432 2.09684e-15)
(3.3502 0.130472 -2.02548e-15)
(4.21185 0.0147371 -5.82836e-18)
(4.22417 0.0262804 -1.73568e-17)
(4.23655 0.0306756 6.15879e-17)
(4.2448 0.0324313 0)
(4.25129 0.0338595 0)
(4.2564 0.0344295 0)
(4.25709 0.0343036 0)
(4.24719 0.033778 0)
(4.23037 0.0337281 0)
(4.21151 0.0349569 -1.45767e-15)
(4.19229 0.0380225 1.56131e-15)
(4.1731 0.0451796 0)
(4.14768 0.0559471 0)
(4.12229 0.0890804 0)
(4.03283 0.14876 0)
(4.21337 0.0117166 0)
(4.23454 0.0223117 2.50045e-17)
(4.2607 0.0271723 -4.51386e-17)
(4.28424 0.0289485 0)
(4.30639 0.0303482 0)
(4.3269 0.0313262 4.09973e-16)
(4.34515 0.0322973 -4.81572e-16)
(4.35814 0.0327059 0)
(4.3663 0.032912 0)
(4.37148 0.0336831 1.31448e-15)
(4.37487 0.0356747 -1.41728e-15)
(4.37744 0.0413469 1.50035e-15)
(4.37633 0.050226 -3.06726e-15)
(4.37205 0.0774095 1.53112e-15)
(4.3436 0.133733 -1.45745e-15)
(4.21382 0.00895404 4.00222e-18)
(4.23815 0.0175876 -9.98887e-18)
(4.27019 0.0217648 0)
(4.30094 0.0234608 0)
(4.33091 0.0248653 0)
(4.35953 0.0259326 0)
(4.38647 0.0269917 4.23387e-16)
(4.41075 0.0274995 -4.8651e-16)
(4.43217 0.0279623 -5.43584e-16)
(4.45105 0.0287924 5.94887e-16)
(4.46768 0.0304094 -1.2814e-15)
(4.48281 0.0352598 1.3586e-15)
(4.49519 0.0434637 0)
(4.50504 0.0625946 1.41799e-15)
(4.50415 0.110724 -1.38457e-15)
(4.21382 0.00629234 3.64067e-18)
(4.23892 0.0124734 -8.594e-18)
(4.27329 0.0155914 0)
(4.30748 0.0172635 -9.43458e-17)
(4.34129 0.0187241 1.27569e-16)
(4.37412 0.0198868 0)
(4.40542 0.0208992 0)
(4.43483 0.0214821 0)
(4.46226 0.0221201 0)
(4.48758 0.0230241 0)
(4.51068 0.0245123 0)
(4.53222 0.0285639 0)
(4.55224 0.0356062 0)
(4.57156 0.0496881 0)
(4.58739 0.084635 0)
(4.21367 0.00357397 0)
(4.23851 0.0071612 0)
(4.27328 0.00915499 0)
(4.30892 0.0106293 8.71572e-17)
(4.34476 0.0121246 1.1921e-16)
(4.37968 0.0134434 -3.02065e-16)
(4.41293 0.0144593 -3.62391e-16)
(4.44432 0.0151054 4.17559e-16)
(4.47394 0.0158465 0)
(4.50181 0.0168273 1.02127e-15)
(4.52796 0.0181792 -1.10337e-15)
(4.55272 0.0213599 0)
(4.57659 0.0269699 0)
(4.60051 0.0372691 0)
(4.62473 0.0603688 -1.32516e-15)
(4.21349 0.000887087 3.42007e-18)
(4.23759 0.00169979 -7.63688e-18)
(4.27172 0.00260075 -5.53072e-17)
(4.30746 0.00375435 8.53616e-17)
(4.34407 0.00520008 2.34503e-16)
(4.38006 0.00670168 -5.94346e-16)
(4.41436 0.00775804 3.56344e-16)
(4.44683 0.00855938 0)
(4.47763 0.00944792 -4.59265e-16)
(4.50674 0.0105271 5.0349e-16)
(4.53421 0.0118564 -1.08955e-15)
(4.56024 0.0144297 2.05195e-21)
(4.58547 0.0188002 1.23207e-15)
(4.61091 0.0260242 0)
(4.63796 0.0414763 0)
(4.21334 -0.00172942 3.53608e-18)
(4.23645 -0.00375307 -7.91862e-18)
(4.26931 -0.00390925 5.72124e-17)
(4.30378 -0.00319944 -1.76858e-16)
(4.33968 -0.00189555 3.64437e-16)
(4.37533 -0.000241955 -3.07234e-16)
(4.40946 0.000900679 0)
(4.44194 0.00190794 4.2293e-16)
(4.47295 0.00296695 -4.72895e-16)
(4.50247 0.00416366 1.03632e-15)
(4.53057 0.00551868 -1.1203e-15)
(4.55733 0.0077055 0)
(4.58318 0.0110909 0)
(4.60905 0.0160494 0)
(4.63587 0.0255939 -1.38115e-15)
(4.21323 -0.00424979 3.79057e-18)
(4.23509 -0.00894621 -8.63491e-18)
(4.26606 -0.0102331 0)
(4.29819 -0.00995717 0)
(4.33141 -0.0088474 2.61615e-16)
(4.36455 -0.00714906 -3.29987e-16)
(4.39649 -0.00589278 0)
(4.4271 -0.00472453 0)
(4.45645 -0.00353142 0)
(4.48458 -0.00223101 0)
(4.51157 -0.00083419 0)
(4.53749 0.001124 0)
(4.56258 0.00382174 0)
(4.58759 0.00729954 0)
(4.61343 0.0124779 0)
(4.21313 -0.00663111 0)
(4.23327 -0.0137838 0)
(4.2614 -0.0161921 7.0293e-17)
(4.28972 -0.0162606 -1.06818e-16)
(4.31871 -0.0152815 0)
(4.34772 -0.0135929 0)
(4.37592 -0.0122235 0)
(4.40322 -0.0109241 0)
(4.42954 -0.00960275 -5.52649e-16)
(4.45487 -0.00820488 6.03715e-16)
(4.47938 -0.00677557 -1.30082e-15)
(4.50325 -0.00488658 1.38903e-15)
(4.52655 -0.00256458 0)
(4.54971 0.000250315 0)
(4.57266 0.00222694 1.60462e-15)
(4.21292 -0.00894172 4.89675e-18)
(4.2303 -0.0181176 -1.21811e-17)
(4.25369 -0.0213114 0)
(4.27583 -0.0216091 0)
(4.29798 -0.02072 0)
(4.32013 -0.0191565 0)
(4.34195 -0.0177171 0)
(4.36354 -0.0162644 0)
(4.38437 -0.0147835 0)
(4.40453 -0.013283 0)
(4.42433 -0.0118055 0)
(4.44404 -0.00996589 0)
(4.4637 -0.00776762 0)
(4.48284 -0.00579732 0)
(4.50177 -0.00512919 1.80557e-15)
(4.21237 -0.0113471 6.10084e-18)
(4.22433 -0.0216224 1.66537e-17)
(4.23808 -0.0249577 -5.74656e-17)
(4.2495 -0.025189 -1.64208e-16)
(4.26003 -0.0243238 2.12541e-16)
(4.27013 -0.0230317 0)
(4.28009 -0.0216519 0)
(4.29016 -0.0199063 0)
(4.2984 -0.0181033 0)
(4.30647 -0.0164853 0)
(4.31536 -0.0149594 0)
(4.32519 -0.0127954 0)
(4.33565 -0.0105026 0)
(4.34651 -0.00693354 0)
(4.35614 -0.00594071 0)
(4.21059 -0.0130631 0)
(4.20787 -0.0237369 -5.4763e-17)
(4.19903 -0.0253125 9.29197e-17)
(4.18726 -0.0253467 0)
(4.1741 -0.0246228 0)
(4.15951 -0.0238981 7.27249e-16)
(4.14363 -0.0231311 -8.25101e-16)
(4.12622 -0.0224826 0)
(4.10377 -0.0222146 -9.70484e-16)
(4.08038 -0.0222305 1.03864e-15)
(4.05751 -0.0225662 -2.21014e-15)
(4.03533 -0.0226036 2.33464e-15)
(4.01356 -0.0223847 0)
(3.99504 -0.0221948 0)
(3.96837 -0.0244241 2.56631e-15)
(4.19154 0.00556659 0)
(4.12837 -0.0112143 0)
(4.03073 -0.0128414 0)
(3.92288 -0.00968355 0)
(3.81249 -0.00488314 1.12031e-15)
(3.69913 -0.000412141 -1.22612e-15)
(3.58076 0.00498082 -1.32144e-15)
(3.45836 0.01167 1.40468e-15)
(3.33912 0.0177252 0)
(3.21477 0.0232073 0)
(3.0828 0.0289721 0)
(2.94339 0.0356958 0)
(2.79711 0.0438472 3.56413e-15)
(2.64439 0.0550021 -3.72375e-15)
(2.51343 0.062961 -3.83201e-15)
(1.32685 -0.0540258 5.53725e-15)
(1.38505 -0.0200211 -1.05918e-14)
(1.58256 0.136897 2.85564e-15)
(1.80529 0.394232 0)
(2.01081 0.6992 -1.98936e-15)
(2.21177 1.07038 0)
(2.45373 1.51333 0)
(2.72166 2.0093 0)
(3.00364 2.53545 -1.22081e-20)
(3.2899 3.08342 -3.85731e-16)
(3.57651 3.67537 3.89935e-16)
(3.89864 4.32707 0)
(4.29382 5.04957 -2.1224e-16)
(4.85937 5.85618 -2.27594e-16)
(5.69948 6.67489 -4.91826e-16)
(3.17782 0.211539 2.67927e-15)
(3.17387 0.313918 -3.86493e-15)
(3.23742 0.486121 4.85071e-15)
(3.32916 0.710538 -1.16416e-15)
(3.42892 0.982827 1.13718e-15)
(3.53528 1.31416 -1.13105e-15)
(3.6761 1.71125 0)
(3.85744 2.18022 0)
(4.07348 2.71605 0)
(4.32614 3.32968 0)
(4.61375 4.03697 0)
(4.9392 4.8618 0)
(5.33494 5.82373 0)
(5.90533 6.96037 -4.45329e-16)
(6.73114 8.20804 4.82383e-16)
(3.97053 0.223087 5.12398e-16)
(3.96874 0.320724 2.00298e-15)
(3.9961 0.476571 -1.9393e-15)
(4.0398 0.682661 9.55037e-16)
(4.09558 0.940291 -1.91317e-15)
(4.16895 1.25606 1.94162e-15)
(4.27841 1.64315 -4.97646e-16)
(4.43934 2.10047 5.18713e-16)
(4.65198 2.62269 0)
(4.92224 3.21677 5.5682e-16)
(5.26465 3.898 2.78057e-16)
(5.68503 4.69405 2.81133e-16)
(6.18901 5.63649 -4.32725e-16)
(6.8687 6.73869 8.31879e-16)
(7.8181 7.96694 -3.99804e-16)
(4.33007 0.204486 1.35381e-15)
(4.34494 0.295399 1.77784e-15)
(4.37596 0.426774 -8.73898e-16)
(4.41744 0.601744 -8.74322e-16)
(4.47173 0.828435 8.87582e-16)
(4.54863 1.11383 0)
(4.66233 1.47107 -9.44087e-16)
(4.83017 1.89546 4.94498e-16)
(5.06053 2.38725 -5.2354e-16)
(5.36116 2.95716 -1.04477e-15)
(5.74421 3.61952 0)
(6.23619 4.39164 -3.8523e-16)
(6.85302 5.30148 7.76132e-16)
(7.63543 6.37727 -6.65474e-16)
(8.66078 7.63846 5.53926e-16)
(4.51187 0.17686 2.10489e-15)
(4.53531 0.257397 -2.49003e-15)
(4.57187 0.367675 -1.08967e-21)
(4.61998 0.516213 0)
(4.68311 0.713257 0)
(4.77121 0.966982 8.86409e-16)
(4.89836 1.28685 -9.27006e-16)
(5.08101 1.67164 1.4634e-15)
(5.33249 2.12506 -5.16806e-16)
(5.66494 2.65911 1.01688e-15)
(6.09424 3.28908 -2.47819e-16)
(6.64641 4.03267 1.21623e-16)
(7.3616 4.91425 -4.80779e-16)
(8.29352 5.94799 4.22662e-16)
(9.41499 7.23164 -3.07874e-16)
(4.60728 0.141056 4.00904e-16)
(4.63582 0.214763 7.95666e-16)
(4.67583 0.312609 8.02949e-16)
(4.72897 0.440822 -1.63954e-15)
(4.80059 0.609375 0)
(4.89961 0.828981 -4.61182e-21)
(5.03997 1.10671 -9.29746e-16)
(5.23771 1.44798 -1.47342e-15)
(5.5089 1.85905 1.04157e-15)
(5.87023 2.34788 -5.08126e-16)
(6.34094 2.93129 0)
(6.95039 3.63275 -4.74309e-16)
(7.7398 4.47785 -1.15277e-16)
(8.80878 5.45783 -1.13302e-16)
(10.1013 6.68662 2.81508e-17)
(4.65269 0.103989 1.33653e-15)
(4.68639 0.16991 0)
(4.72938 0.255977 0)
(4.7859 0.36652 0)
(4.86264 0.511297 0)
(4.96864 0.699438 8.97304e-16)
(5.11761 0.939087 0)
(5.32712 1.23464 1.50739e-15)
(5.61387 1.5922 -1.5997e-20)
(5.99828 2.02247 -2.59623e-16)
(6.50546 2.5471 -2.48196e-16)
(7.16809 3.19281 3.55895e-16)
(8.02719 3.98511 2.27163e-16)
(9.18784 4.93252 3.83346e-16)
(10.676 6.07336 -5.30281e-17)
(4.67014 0.0715514 -3.70584e-16)
(4.70857 0.126971 -7.66379e-16)
(4.75376 0.200289 0)
(4.81136 0.2948 8.31502e-16)
(4.8897 0.418203 -8.7361e-16)
(4.99838 0.576906 -5.44515e-21)
(5.14973 0.776739 -1.4715e-15)
(5.36205 1.02386 1.17003e-20)
(5.65614 1.32619 1.60174e-20)
(6.05584 1.69889 9.41892e-21)
(6.59115 2.16056 0)
(7.29985 2.7367 1.21544e-16)
(8.23479 3.45964 5.42704e-21)
(9.47107 4.34883 -1.08658e-16)
(11.134 5.42876 2.05529e-16)
(4.66877 0.0473765 3.33749e-15)
(4.70967 0.0905448 -7.77532e-16)
(4.75606 0.149455 2.44852e-15)
(4.81317 0.228015 -1.71804e-15)
(4.88981 0.330667 0)
(4.99643 0.461618 1.93295e-15)
(5.14622 0.626725 -1.03108e-15)
(5.35728 0.835556 -1.1017e-15)
(5.65177 1.09406 0)
(6.05712 1.41304 0)
(6.60938 1.81014 2.70344e-16)
(7.35026 2.30983 -3.81024e-16)
(8.34836 2.94636 -2.37078e-16)
(9.66943 3.73784 1.65687e-16)
(11.4876 4.7584 -5.11754e-17)
(4.64561 0.0287223 -1.91183e-16)
(4.68741 0.0628594 0)
(4.73434 0.109135 -8.54868e-16)
(4.79006 0.172743 -9.04576e-16)
(4.86316 0.257601 1.92227e-15)
(4.96474 0.366393 5.81401e-21)
(5.10868 0.503847 5.47974e-16)
(5.31368 0.677001 2.96141e-21)
(5.60302 0.891104 -6.27121e-16)
(6.00739 1.15531 0)
(6.56829 1.48763 5.76471e-16)
(7.33168 1.90936 0)
(8.37968 2.45341 2.49862e-16)
(9.77658 3.13562 2.29767e-16)
(11.7451 4.04093 -2.09093e-16)
(4.60071 0.0138177 -1.62772e-15)
(4.63878 0.0412113 0)
(4.68209 0.0764372 -2.28436e-15)
(4.73317 0.125996 2.90157e-15)
(4.79858 0.19469 -1.02825e-15)
(4.88952 0.283302 -1.0975e-15)
(5.02142 0.395311 0)
(5.21484 0.536435 6.30495e-16)
(5.49441 0.711434 1.34618e-15)
(5.89389 0.927648 0)
(6.45885 1.20065 -6.20866e-16)
(7.23882 1.54751 -1.45218e-16)
(8.32826 1.99713 2.26022e-20)
(9.78722 2.56738 -1.2189e-16)
(11.8998 3.33061 0)
(4.52369 0.00307152 -1.79092e-15)
(4.55293 0.0251077 -1.8886e-15)
(4.58427 0.0525381 2.47838e-15)
(4.62016 0.0911172 -1.56742e-15)
(4.66674 0.144556 1.10946e-15)
(4.73612 0.214221 0)
(4.84654 0.302862 -6.35256e-16)
(5.02115 0.41351 6.83647e-16)
(5.28712 0.548221 -7.22237e-16)
(5.67957 0.71521 0)
(6.24898 0.92759 3.37526e-16)
(7.04704 1.19765 -1.58345e-16)
(8.18123 1.54431 -5.8332e-16)
(9.70347 1.98363 2.63933e-16)
(11.9647 2.57804 -1.17145e-16)
(4.35908 0.00173086 0)
(4.36042 0.0181339 2.65094e-16)
(4.35827 0.0384717 0)
(4.35624 0.0686102 1.16132e-15)
(4.36489 0.108549 -1.23392e-15)
(4.4005 0.161812 -1.31931e-15)
(4.48401 0.230594 1.41551e-15)
(4.63874 0.316823 0)
(4.89443 0.420725 7.82574e-16)
(5.28632 0.551775 -1.15698e-15)
(5.86568 0.718355 3.71965e-16)
(6.68375 0.93426 -3.50476e-16)
(7.86181 1.20571 1.61959e-16)
(9.44709 1.55113 7.2914e-17)
(11.8524 1.97124 3.21918e-17)
(3.90665 -0.0135375 -2.43869e-15)
(3.83064 -0.00173084 -3.1836e-16)
(3.75421 0.0127707 0)
(3.69056 0.032563 -7.12866e-16)
(3.65599 0.0582701 0)
(3.66656 0.0923228 1.63434e-15)
(3.7399 0.133651 -2.62302e-15)
(3.89888 0.182129 9.16506e-16)
(4.16856 0.238544 0)
(4.58348 0.309241 4.57639e-16)
(5.20195 0.396624 -4.42176e-16)
(6.07544 0.503772 2.07982e-16)
(7.33204 0.628486 0)
(9.01443 0.800449 -1.69186e-16)
(11.601 0.978338 -7.3926e-17)
(2.31414 0.0863757 3.65138e-15)
(2.13587 0.10679 0)
(2.01654 0.126391 -4.29101e-15)
(1.94796 0.14917 2.30472e-15)
(1.92729 0.175125 2.45352e-15)
(1.95852 0.212462 0)
(2.04999 0.26518 1.33421e-15)
(2.21128 0.332167 -1.33208e-15)
(2.46045 0.419538 -1.30344e-15)
(2.83738 0.529169 1.24955e-15)
(3.4095 0.664603 0)
(4.21741 0.808765 0)
(5.50798 0.962748 0)
(6.91421 1.10925 1.06729e-16)
(10.0774 1.10025 4.61139e-17)
(7.03575 7.4671 0)
(8.95877 8.36452 0)
(11.0259 9.23182 0)
(13.389 9.95817 -8.94659e-16)
(16.1965 10.5632 8.75842e-16)
(19.6118 11.0832 -6.43197e-16)
(23.8517 11.5115 4.18921e-16)
(29.1362 11.8075 2.04321e-16)
(35.8384 11.8942 0)
(44.1037 11.683 -1.89093e-16)
(54.6255 11.0974 3.61349e-16)
(66.1009 9.72217 -8.52553e-17)
(81.2216 7.59566 -7.97841e-17)
(85.6188 4.74765 0)
(93.4844 0.378174 1.42157e-17)
(8.08841 9.41027 0)
(9.99966 10.5447 0)
(12.2778 11.686 1.27889e-17)
(15.0187 12.7343 3.90526e-16)
(18.3991 13.7059 -1.97866e-16)
(22.5993 14.663 1.92217e-16)
(27.8974 15.6172 1.46441e-18)
(34.6558 16.5347 0)
(43.4676 17.3888 -1.78084e-16)
(54.8201 17.975 -1.70999e-16)
(70.0127 18.0649 -1.62812e-16)
(88.3592 17.3936 3.12518e-19)
(113.731 15.6216 7.00349e-17)
(133.111 12.6095 0)
(161.422 2.91465 6.93787e-21)
(9.33768 8.97963 2.30565e-17)
(11.3293 9.83939 1.62237e-16)
(13.7072 10.6876 0)
(16.5044 11.4903 5.7068e-18)
(19.927 12.2595 -1.87136e-16)
(24.1733 13.0369 -1.79445e-16)
(29.5309 13.8168 3.36742e-19)
(36.3807 14.5612 1.73261e-16)
(45.319 15.2119 1.69549e-16)
(56.9433 15.7063 1.64107e-16)
(72.5276 15.8678 -7.83494e-17)
(91.8721 15.3268 7.29352e-17)
(118.345 13.4067 -6.75779e-17)
(142.279 11.5806 1.12435e-19)
(173.795 0.756873 -1.00587e-17)
(10.1686 8.64906 0)
(12.0464 9.48817 -1.4968e-16)
(14.3198 10.3152 -2.14722e-17)
(17.0121 11.1095 0)
(20.348 11.8724 0)
(24.5412 12.6285 -1.33726e-18)
(29.8673 13.3761 -1.6923e-16)
(36.7038 14.0788 -1.15328e-20)
(45.6383 14.6939 0)
(57.2715 15.0989 -1.59268e-16)
(72.9384 15.1048 3.02545e-19)
(92.2884 14.4774 -2.85678e-19)
(119.008 12.6832 6.59011e-17)
(142.483 10.8704 0)
(178.034 -0.0888109 4.75226e-18)
(10.9605 8.17031 0)
(12.8108 8.89108 1.99672e-17)
(15.0788 9.5799 1.31177e-16)
(17.7697 10.2353 1.73263e-16)
(21.1 10.8724 1.64063e-16)
(25.2873 11.51 1.63762e-16)
(30.5979 12.1494 -3.16731e-19)
(37.4052 12.7566 -1.59841e-16)
(46.3005 13.2815 0)
(57.8698 13.6256 1.52735e-16)
(73.4724 13.6069 8.92145e-21)
(92.6097 13.0313 7.03513e-17)
(119.597 11.3475 -3.22744e-17)
(141.173 9.68702 1.11359e-19)
(183.397 -1.05984 -4.51368e-18)
(11.7003 7.57324 -5.57382e-17)
(13.5073 8.22838 3.80854e-17)
(15.7333 8.84778 -3.28375e-16)
(18.3839 9.44612 -3.07779e-16)
(21.6719 10.042 -3.22537e-16)
(25.8249 10.6367 2.46336e-18)
(31.1084 11.2266 -1.56039e-16)
(37.8921 11.7781 1.53999e-16)
(46.7646 12.2406 1.50671e-16)
(58.3011 12.5262 -7.34991e-17)
(73.8679 12.4595 7.02781e-17)
(92.8671 11.8632 -6.82375e-17)
(120.014 10.2567 3.12461e-17)
(140.227 8.57064 0)
(186.423 -2.14368 0)
(12.351 6.9117 1.44615e-16)
(14.1164 7.50077 1.8537e-17)
(16.3089 8.03883 -9.42215e-18)
(18.941 8.55625 1.42843e-16)
(22.2126 9.0764 1.55867e-16)
(26.3539 9.59034 -2.39833e-18)
(31.6277 10.0958 1.52151e-16)
(38.3978 10.5683 -1.49885e-16)
(47.2496 10.9596 -1.46535e-16)
(58.7543 11.1859 2.83595e-19)
(74.2729 11.0861 -4.20132e-21)
(93.1695 10.5166 -2.61537e-19)
(120.287 9.01912 1.15464e-19)
(139.981 7.35866 -1.14004e-19)
(186.716 -3.25661 0)
(12.9073 6.19567 -1.25532e-16)
(14.6439 6.70581 -7.10205e-21)
(16.8056 7.16919 1.21424e-16)
(19.4229 7.61828 9.44004e-18)
(22.6805 8.07832 0)
(26.8075 8.53531 0)
(32.0713 8.97866 2.93344e-19)
(38.8336 9.38152 -2.89664e-19)
(47.6734 9.70607 -7.23641e-17)
(59.1584 9.87418 7.04185e-17)
(74.6396 9.74181 -2.60949e-19)
(93.4594 9.19138 -3.2404e-17)
(120.512 7.79803 -3.00955e-17)
(139.866 6.17571 1.164e-19)
(186.884 -4.09312 0)
(13.354 5.43211 0)
(15.0757 5.86263 1.66602e-16)
(17.2137 6.26151 -1.88243e-17)
(19.8206 6.64765 0)
(23.0748 7.03776 0)
(27.1978 7.4238 -7.62632e-17)
(32.4557 7.80376 -2.94867e-19)
(39.215 8.1376 2.91202e-19)
(48.052 8.38704 7.3058e-17)
(59.5266 8.49234 -2.63272e-21)
(74.98 8.32982 3.36381e-17)
(93.7314 7.80049 6.51243e-17)
(120.734 6.53547 2.98087e-17)
(139.7 4.98088 0)
(187.254 -4.7736 0)
(13.6937 4.62144 7.40422e-17)
(15.4078 4.98754 -1.323e-16)
(17.5281 5.33635 -9.61176e-18)
(20.1253 5.66699 -1.45442e-17)
(23.3782 5.98747 2.43757e-18)
(27.5075 6.29668 8.01501e-17)
(32.7751 6.58521 -7.67579e-17)
(39.5357 6.85222 -2.96863e-19)
(48.3736 7.03274 -7.42041e-17)
(59.8459 7.07376 7.20727e-17)
(75.2821 6.88667 2.62932e-19)
(93.9734 6.38364 -3.33401e-17)
(120.949 5.26747 -1.15773e-19)
(139.467 3.79669 -1.45762e-17)
(187.822 -5.15641 2.08703e-18)
(13.9217 3.8334 -5.72707e-17)
(15.6333 4.15027 -7.29495e-21)
(17.7412 4.45672 -1.97703e-17)
(20.3287 4.73772 7.97658e-17)
(23.5798 4.99688 8.00138e-17)
(27.7122 5.23361 0)
(32.9974 5.4213 -2.06887e-22)
(39.7765 5.60431 0)
(48.6246 5.72838 7.61093e-17)
(60.1056 5.71019 -7.34963e-17)
(75.5399 5.49459 -3.55402e-17)
(94.1895 5.01041 -3.35674e-17)
(121.157 4.04123 0)
(139.249 2.64442 1.4524e-17)
(188.61 -5.16449 -2.17134e-18)
(14.0675 2.96908 5.93367e-17)
(15.7846 3.20916 4.02227e-17)
(17.8912 3.43821 -3.05906e-17)
(20.4737 3.6533 -7.18707e-17)
(23.7219 3.85769 -8.22171e-17)
(27.8576 4.02801 -1.27809e-18)
(33.1561 4.14757 8.23321e-17)
(39.9632 4.2247 1.55343e-19)
(48.8323 4.27101 -1.52253e-19)
(60.3297 4.20429 2.92012e-19)
(75.7772 3.9827 -1.79418e-17)
(94.4216 3.54954 3.36644e-17)
(121.385 2.76292 -1.56981e-17)
(139.323 1.46713 1.69862e-19)
(188.74 -4.82696 -3.72066e-20)
(14.0294 2.28155 5.31257e-21)
(15.7568 2.50412 2.08246e-17)
(17.8756 2.70814 2.09906e-17)
(20.4743 2.88103 4.73663e-17)
(23.7323 3.05348 -5.26257e-18)
(27.8755 3.19648 0)
(33.1907 3.26183 -3.21863e-19)
(40.0356 3.21227 3.1679e-19)
(48.9538 3.1645 0)
(60.5024 3.02887 2.95156e-19)
(75.9926 2.74091 3.62182e-17)
(94.6239 2.27888 -2.68902e-19)
(121.48 1.60508 2.35833e-17)
(138.709 0.46372 0)
(187.864 -3.72929 1.33781e-18)
(13.9002 1.03436 -4.2973e-17)
(15.6464 1.11031 2.15605e-17)
(17.7607 1.17633 -7.55684e-17)
(20.3609 1.22888 -3.2326e-17)
(23.6257 1.30156 0)
(27.7567 1.38002 -1.32653e-18)
(33.0347 1.43559 1.30828e-18)
(39.8304 1.42035 2.04928e-17)
(48.6441 1.34377 0)
(59.9277 1.2348 0)
(74.844 1.08204 -2.77825e-17)
(92.3842 0.794189 8.76308e-18)
(117.137 0.468316 -4.24644e-18)
(129.942 -0.433085 2.04061e-18)
(175.259 -1.88924 -1.75748e-18)
(11.8061 1.0501 -2.45681e-17)
(13.5963 1.07896 -9.08644e-21)
(15.6236 1.10347 -5.54311e-21)
(18.0325 1.1245 -2.36742e-17)
(20.9889 1.13722 2.92492e-18)
(24.6289 1.12251 -2.88788e-18)
(29.1236 1.06328 3.54961e-19)
(34.6953 0.90414 -2.27475e-17)
(41.6469 0.488655 0)
(50.1531 -0.115979 0)
(60.3797 -0.852627 1.07939e-17)
(71.0484 -1.62996 -1.07549e-17)
(84.1545 -2.2104 -5.18927e-18)
(83.8312 -2.29821 -2.33917e-18)
(104.425 -1.30515 0)
(26.4127 -2.46709 -6.77102e-29)
(26.3804 -2.44806 0)
(26.3407 -2.42973 0)
(26.3087 -2.41212 0)
(26.2805 -2.39523 0)
(26.2526 -2.37902 0)
(26.225 -2.36346 0)
(26.198 -2.34854 0)
(26.1718 -2.33423 0)
(26.1463 -2.32052 0)
(26.1215 -2.30738 0)
(26.0973 -2.29481 0)
(26.0738 -2.28279 0)
(26.0509 -2.2713 0)
(26.0286 -2.26032 0)
(26.0068 -2.24984 0)
(25.9857 -2.23984 0)
(25.965 -2.23032 0)
(25.945 -2.22125 0)
(25.9254 -2.21262 0)
(25.9063 -2.20443 0)
(25.8877 -2.19665 0)
(25.8696 -2.18927 0)
(25.8519 -2.18229 0)
(25.8347 -2.17569 0)
(25.8179 -2.16945 0)
(25.8015 -2.16357 0)
(25.7855 -2.15804 0)
(25.77 -2.15285 0)
(25.7548 -2.14798 0)
(25.7399 -2.14343 0)
(25.7255 -2.13919 0)
(25.7114 -2.13524 0)
(25.6976 -2.13158 0)
(25.6841 -2.12821 0)
(25.671 -2.1251 0)
(25.6582 -2.12226 0)
(25.6457 -2.11967 0)
(25.6334 -2.11733 0)
(25.6215 -2.11523 0)
(25.6098 -2.11337 0)
(25.5984 -2.11173 0)
(25.5873 -2.1103 0)
(25.5764 -2.10909 0)
(25.5657 -2.10809 0)
(25.5553 -2.10729 0)
(25.5451 -2.10668 0)
(25.5351 -2.10626 0)
(25.5254 -2.10601 0)
(25.5159 -2.10595 0)
(25.5065 -2.10606 0)
(25.4974 -2.10633 0)
(25.4885 -2.10676 0)
(25.4797 -2.10735 0)
(25.4711 -2.10808 0)
(25.4627 -2.10897 0)
(25.4545 -2.10999 0)
(25.4465 -2.11115 0)
(25.4386 -2.11244 0)
(25.4309 -2.11386 0)
(25.4233 -2.1154 0)
(25.4159 -2.11707 0)
(25.4087 -2.11885 0)
(25.4016 -2.12074 0)
(25.3946 -2.12275 0)
(25.3878 -2.12486 0)
(25.3811 -2.12707 0)
(25.3745 -2.12939 0)
(25.3681 -2.13179 0)
(25.3618 -2.1343 0)
(25.3556 -2.13689 0)
(25.3495 -2.13957 0)
(25.3435 -2.14234 0)
(25.3377 -2.14519 0)
(25.332 -2.14811 0)
(25.3263 -2.15112 0)
(25.3208 -2.1542 0)
(25.3154 -2.15735 0)
(25.31 -2.16057 0)
(25.3048 -2.16385 0)
(25.2997 -2.16721 0)
(25.2946 -2.17062 0)
(25.2896 -2.1741 0)
(25.2848 -2.17763 0)
(25.28 -2.18122 0)
(25.2753 -2.18487 0)
(25.2706 -2.18857 0)
(25.2661 -2.19232 0)
(25.2616 -2.19612 0)
(25.2572 -2.19997 0)
(25.2529 -2.20386 0)
(25.2486 -2.2078 0)
(25.2444 -2.21178 0)
(25.2403 -2.21581 0)
(25.2363 -2.21987 0)
(25.2323 -2.22397 0)
(25.2284 -2.2281 0)
(25.2245 -2.23228 0)
(25.2207 -2.23648 0)
(25.217 -2.24072 0)
(25.2133 -2.24499 0)
(25.2096 -2.24929 0)
(25.2061 -2.25362 0)
(25.2026 -2.25798 0)
(25.1991 -2.26237 0)
(25.1957 -2.26678 0)
(25.1923 -2.27121 0)
(25.189 -2.27567 0)
(25.1857 -2.28015 0)
(25.1825 -2.28466 0)
(25.1793 -2.28918 0)
(25.1762 -2.29373 0)
(25.1731 -2.29829 0)
(25.1701 -2.30287 0)
(25.1671 -2.30747 0)
(25.1642 -2.31209 0)
(25.1613 -2.31672 0)
(25.1584 -2.32136 0)
(25.1556 -2.32602 0)
(25.1528 -2.33069 0)
(25.15 -2.33538 0)
(25.1473 -2.34007 0)
(25.1446 -2.34478 0)
(25.142 -2.3495 0)
(25.1394 -2.35422 0)
(25.1368 -2.35896 0)
(25.1343 -2.3637 0)
(25.1318 -2.36845 0)
(25.1293 -2.37317 0)
(25.1264 -2.37758 0)
(24.6707 -0.674936 0)
(24.6579 -0.708867 0)
(24.6466 -0.738443 0)
(24.6363 -0.766788 0)
(24.6263 -0.794404 0)
(24.6166 -0.821364 0)
(24.6073 -0.847679 0)
(24.5984 -0.873367 0)
(24.5898 -0.89845 0)
(24.5815 -0.922947 0)
(24.5736 -0.946878 0)
(24.566 -0.970261 0)
(24.5587 -0.993104 0)
(24.5517 -1.01542 0)
(24.545 -1.03724 0)
(24.5386 -1.05859 0)
(24.5324 -1.0795 0)
(24.5265 -1.10004 0)
(24.5209 -1.12021 0)
(24.5154 -1.13995 0)
(24.5102 -1.15928 0)
(24.5052 -1.17821 0)
(24.5005 -1.19675 0)
(24.4959 -1.21491 0)
(24.4916 -1.23271 0)
(24.4874 -1.25016 0)
(24.4834 -1.26726 0)
(24.4796 -1.28403 0)
(24.476 -1.30048 0)
(24.4726 -1.31662 0)
(24.4693 -1.33246 0)
(24.4661 -1.348 0)
(24.4631 -1.36326 0)
(24.4603 -1.37825 0)
(24.4576 -1.39297 0)
(24.455 -1.40743 0)
(24.4525 -1.42164 0)
(24.4502 -1.4356 0)
(24.448 -1.44933 0)
(24.4459 -1.46283 0)
(24.4439 -1.47611 0)
(24.4421 -1.48917 0)
(24.4403 -1.50202 0)
(24.4386 -1.51467 0)
(24.4371 -1.52711 0)
(24.4356 -1.53936 0)
(24.4342 -1.55142 0)
(24.4329 -1.5633 0)
(24.4316 -1.57499 0)
(24.4305 -1.58651 0)
(24.4294 -1.59786 0)
(24.4284 -1.60903 0)
(24.4274 -1.62004 0)
(24.4266 -1.63091 0)
(24.4257 -1.64186 0)
(24.425 -1.65272 0)
(24.4243 -1.66345 0)
(24.4237 -1.67406 0)
(24.4231 -1.68454 0)
(24.4226 -1.6949 0)
(24.4221 -1.70515 0)
(24.4217 -1.71528 0)
(24.4214 -1.7253 0)
(24.4211 -1.73521 0)
(24.4208 -1.74502 0)
(24.4206 -1.75473 0)
(24.4204 -1.76433 0)
(24.4202 -1.77385 0)
(24.4201 -1.78326 0)
(24.42 -1.79259 0)
(24.42 -1.80183 0)
(24.42 -1.81099 0)
(24.42 -1.82006 0)
(24.4201 -1.82905 0)
(24.4202 -1.83796 0)
(24.4203 -1.84679 0)
(24.4205 -1.85555 0)
(24.4206 -1.86424 0)
(24.4208 -1.87285 0)
(24.4211 -1.88139 0)
(24.4213 -1.88987 0)
(24.4216 -1.89828 0)
(24.4219 -1.90663 0)
(24.4222 -1.91492 0)
(24.4225 -1.92314 0)
(24.4229 -1.9313 0)
(24.4233 -1.93941 0)
(24.4236 -1.94746 0)
(24.4241 -1.95545 0)
(24.4245 -1.96339 0)
(24.4249 -1.97128 0)
(24.4254 -1.97912 0)
(24.4258 -1.9869 0)
(24.4263 -1.99464 0)
(24.4268 -2.00232 0)
(24.4273 -2.00996 0)
(24.4278 -2.01756 0)
(24.4283 -2.0251 0)
(24.4289 -2.03261 0)
(24.4294 -2.04007 0)
(24.43 -2.04748 0)
(24.4305 -2.05486 0)
(24.4311 -2.06219 0)
(24.4317 -2.06948 0)
(24.4323 -2.07674 0)
(24.4329 -2.08398 0)
(24.4334 -2.0912 0)
(24.4341 -2.09839 0)
(24.4347 -2.10554 0)
(24.4353 -2.11265 0)
(24.4359 -2.11972 0)
(24.4365 -2.12675 0)
(24.4372 -2.13375 0)
(24.4378 -2.1407 0)
(24.4384 -2.14762 0)
(24.4391 -2.15451 0)
(24.4397 -2.16136 0)
(24.4404 -2.16817 0)
(24.441 -2.17495 0)
(24.4417 -2.18169 0)
(24.4423 -2.1884 0)
(24.443 -2.19508 0)
(24.4436 -2.20173 0)
(24.4443 -2.20834 0)
(24.4449 -2.21493 0)
(24.4456 -2.22148 0)
(24.4463 -2.228 0)
(24.4469 -2.23449 0)
(24.4476 -2.24095 0)
(24.4484 -2.24739 0)
(24.4164 -1.77953 -5.11625e-30)
(24.4269 -1.78558 0)
(24.436 -1.79162 0)
(24.444 -1.79757 0)
(24.4517 -1.80342 0)
(24.459 -1.80917 0)
(24.4661 -1.81483 0)
(24.4728 -1.82039 0)
(24.4791 -1.82588 0)
(24.4852 -1.8313 0)
(24.491 -1.83669 0)
(24.4964 -1.84208 0)
(24.5014 -1.84735 0)
(24.5066 -1.85249 0)
(24.5113 -1.85756 0)
(24.5156 -1.86252 0)
(24.5198 -1.86738 0)
(24.524 -1.87223 0)
(24.5276 -1.87712 0)
(24.5312 -1.88196 0)
(24.5346 -1.88676 0)
(24.5378 -1.89153 0)
(24.5408 -1.89626 0)
(24.5436 -1.90096 0)
(24.5463 -1.90563 0)
(24.5488 -1.91027 0)
(24.5512 -1.91488 0)
(24.5534 -1.91947 0)
(24.5555 -1.92404 0)
(24.5575 -1.92859 0)
(24.5593 -1.93312 0)
(24.561 -1.93764 0)
(24.5626 -1.94214 0)
(24.5641 -1.94664 0)
(24.5655 -1.95112 0)
(24.5668 -1.95559 0)
(24.568 -1.96005 0)
(24.5691 -1.96451 0)
(24.5701 -1.96895 0)
(24.571 -1.9734 0)
(24.5719 -1.97783 0)
(24.5727 -1.98227 0)
(24.5734 -1.98669 0)
(24.5741 -1.99112 0)
(24.5747 -1.99553 0)
(24.5752 -1.99995 0)
(24.5757 -2.00435 0)
(24.5761 -2.00875 0)
(24.5765 -2.01315 0)
(24.5768 -2.01753 0)
(24.5771 -2.02191 0)
(24.5774 -2.02627 0)
(24.5776 -2.03064 0)
(24.5778 -2.03516 0)
(24.578 -2.03971 0)
(24.5781 -2.04428 0)
(24.5782 -2.04886 0)
(24.5783 -2.05344 0)
(24.5783 -2.05803 0)
(24.5783 -2.06263 0)
(24.5783 -2.06724 0)
(24.5783 -2.07186 0)
(24.5782 -2.07649 0)
(24.5782 -2.08113 0)
(24.5781 -2.08577 0)
(24.578 -2.09043 0)
(24.5778 -2.09509 0)
(24.5777 -2.09977 0)
(24.5776 -2.10445 0)
(24.5774 -2.10915 0)
(24.5772 -2.11385 0)
(24.577 -2.11856 0)
(24.5769 -2.12328 0)
(24.5767 -2.12801 0)
(24.5765 -2.13275 0)
(24.5763 -2.1375 0)
(24.576 -2.14226 0)
(24.5758 -2.14703 0)
(24.5756 -2.15181 0)
(24.5754 -2.15659 0)
(24.5752 -2.16139 0)
(24.575 -2.16619 0)
(24.5747 -2.171 0)
(24.5745 -2.17582 0)
(24.5743 -2.18065 0)
(24.5741 -2.18548 0)
(24.5739 -2.19032 0)
(24.5737 -2.19517 0)
(24.5735 -2.20003 0)
(24.5733 -2.20489 0)
(24.573 -2.20976 0)
(24.5729 -2.21463 0)
(24.5727 -2.21951 0)
(24.5725 -2.2244 0)
(24.5723 -2.22929 0)
(24.5722 -2.23419 0)
(24.572 -2.23909 0)
(24.5719 -2.24399 0)
(24.5717 -2.2489 0)
(24.5716 -2.25381 0)
(24.5715 -2.25873 0)
(24.5714 -2.26365 0)
(24.5713 -2.26857 0)
(24.5712 -2.2735 0)
(24.5711 -2.27843 0)
(24.5711 -2.28336 0)
(24.571 -2.28829 0)
(24.571 -2.29323 0)
(24.571 -2.29816 0)
(24.571 -2.3031 0)
(24.571 -2.30804 0)
(24.571 -2.31298 0)
(24.571 -2.31792 0)
(24.571 -2.32286 0)
(24.5711 -2.3278 0)
(24.5711 -2.33274 0)
(24.5712 -2.33768 0)
(24.5713 -2.34262 0)
(24.5714 -2.34756 0)
(24.5715 -2.3525 0)
(24.5716 -2.35743 0)
(24.5718 -2.36237 0)
(24.5719 -2.3673 0)
(24.5721 -2.37223 0)
(24.5722 -2.37716 0)
(24.5724 -2.38209 0)
(24.5726 -2.38701 0)
(24.5729 -2.39194 0)
(24.5731 -2.39685 0)
(24.5733 -2.40246 0)
(24.5375 -1.20841 5.43636e-30)
(24.5327 -1.21598 0)
(24.5272 -1.22343 0)
(24.5222 -1.23096 0)
(24.5175 -1.23862 0)
(24.5127 -1.24641 0)
(24.508 -1.2543 0)
(24.5034 -1.2623 0)
(24.4988 -1.2704 0)
(24.4943 -1.2786 0)
(24.4898 -1.28695 0)
(24.4854 -1.29547 0)
(24.4811 -1.30411 0)
(24.4767 -1.31282 0)
(24.4725 -1.32159 0)
(24.4683 -1.33041 0)
(24.4642 -1.33928 0)
(24.4602 -1.34819 0)
(24.4562 -1.35712 0)
(24.4522 -1.36609 0)
(24.4484 -1.37509 0)
(24.4445 -1.38411 0)
(24.4408 -1.39312 0)
(24.4371 -1.4021 0)
(24.4335 -1.41108 0)
(24.4299 -1.42007 0)
(24.4264 -1.42907 0)
(24.423 -1.4381 0)
(24.4196 -1.44713 0)
(24.4163 -1.45618 0)
(24.413 -1.46523 0)
(24.4098 -1.47429 0)
(24.4067 -1.48335 0)
(24.4036 -1.49242 0)
(24.4006 -1.50148 0)
(24.3976 -1.51055 0)
(24.3947 -1.51961 0)
(24.3918 -1.52866 0)
(24.3891 -1.53772 0)
(24.3863 -1.54676 0)
(24.3836 -1.55579 0)
(24.381 -1.56482 0)
(24.3784 -1.57383 0)
(24.3759 -1.58283 0)
(24.3735 -1.59182 0)
(24.371 -1.60079 0)
(24.3687 -1.60975 0)
(24.3664 -1.61869 0)
(24.3641 -1.62761 0)
(24.3619 -1.63652 0)
(24.3598 -1.64541 0)
(24.3577 -1.65428 0)
(24.3557 -1.66313 0)
(24.3537 -1.67196 0)
(24.3517 -1.68078 0)
(24.3498 -1.68957 0)
(24.348 -1.69834 0)
(24.3462 -1.70708 0)
(24.3444 -1.71581 0)
(24.3427 -1.72451 0)
(24.341 -1.73319 0)
(24.3394 -1.74185 0)
(24.3378 -1.75048 0)
(24.3363 -1.75909 0)
(24.3348 -1.76767 0)
(24.3334 -1.77623 0)
(24.3319 -1.78476 0)
(24.3306 -1.79327 0)
(24.3292 -1.80175 0)
(24.328 -1.8102 0)
(24.3267 -1.81863 0)
(24.3255 -1.82703 0)
(24.3243 -1.8354 0)
(24.3232 -1.84374 0)
(24.3221 -1.85206 0)
(24.321 -1.86035 0)
(24.32 -1.86861 0)
(24.319 -1.87684 0)
(24.3181 -1.88504 0)
(24.3172 -1.89321 0)
(24.3163 -1.90135 0)
(24.3155 -1.90946 0)
(24.3147 -1.91754 0)
(24.3139 -1.92558 0)
(24.3131 -1.9336 0)
(24.3124 -1.94158 0)
(24.3118 -1.94952 0)
(24.3111 -1.95744 0)
(24.3105 -1.96531 0)
(24.3099 -1.97316 0)
(24.3094 -1.98104 0)
(24.3089 -1.98896 0)
(24.3084 -1.99688 0)
(24.3079 -2.00477 0)
(24.3075 -2.01263 0)
(24.3071 -2.02047 0)
(24.3067 -2.02828 0)
(24.3064 -2.03606 0)
(24.306 -2.04382 0)
(24.3058 -2.05155 0)
(24.3055 -2.05925 0)
(24.3052 -2.06693 0)
(24.305 -2.07458 0)
(24.3048 -2.08221 0)