/*--------------------------------*- C++ -*----------------------------------*\
  =========                 |
  \\      /  F ield         | OpenFOAM: The Open Source CFD Toolbox
   \\    /   O peration     | Website:  https://openfoam.org
    \\  /    A nd           | Version:  8
     \\/     M anipulation  |
\*---------------------------------------------------------------------------*/
FoamFile
{
    version     2.0;
    format      ascii;
    class       volScalarField;
    location    "3.2";
    object      p;
}
// * * * * * * * * * * * * * * * * * * * * * * * * * * * * * * * * * * * * * //

dimensions      [0 2 -2 0 0 0 0];

internalField   nonuniform List<scalar> 
10000
(
-6.32943e+79
-8.1562e+79
-2.76912e+79
1.90596e+79
4.33914e+79
4.91834e+79
4.4116e+79
3.45622e+79
2.45254e+79
1.59841e+79
9.57718e+78
5.20946e+78
2.47723e+78
9.14817e+77
1.15739e+77
-2.27353e+77
-3.23721e+77
-3.0362e+77
-2.4089e+77
-1.72847e+77
-1.15223e+77
-7.22415e+76
-4.28129e+76
-2.39806e+76
-1.26302e+76
-6.17641e+75
-2.72821e+75
-1.01618e+75
-2.45971e+74
4.91651e+73
1.26399e+74
1.17617e+74
8.45245e+73
5.22195e+73
2.83339e+73
1.31728e+73
4.66526e+72
4.92274e+71
-1.1749e+72
-1.55956e+72
-1.38814e+72
-1.04598e+72
-7.10625e+71
-4.45809e+71
-2.60379e+71
-1.41281e+71
-7.02368e+70
-3.08288e+70
-1.07038e+70
-1.50442e+69
1.9753e+69
2.74831e+69
2.42889e+69
1.80481e+69
1.21108e+69
7.55315e+68
4.44312e+68
2.48912e+68
1.34132e+68
7.06178e+67
3.7363e+67
2.07812e+67
1.27743e+67
8.86238e+66
6.75654e+66
5.391e+66
4.32833e+66
3.42122e+66
2.63727e+66
1.97676e+66
1.44079e+66
1.0223e+66
7.07201e+65
4.77623e+65
3.1531e+65
2.03648e+65
1.28764e+65
7.97237e+64
4.83346e+64
2.86816e+64
1.66446e+64
9.433e+63
5.21031e+63
2.79651e+63
1.45241e+63
7.25416e+62
3.45212e+62
1.54196e+62
6.2971e+61
2.22608e+61
5.83207e+60
2.71149e+59
-9.26117e+59
-6.93548e+59
-2.11642e+59
1.38365e+59
2.98874e+59
3.14349e+59
2.33941e+59
9.28058e+58
-2.01042e+79
-3.29997e+79
-1.53366e+79
6.7685e+78
2.14457e+79
2.71807e+79
2.64186e+79
2.2201e+79
1.68657e+79
1.18203e+79
7.70786e+78
4.67916e+78
2.62311e+78
1.32773e+78
5.72016e+77
1.69326e+77
-1.95887e+76
-8.9579e+76
-1.00131e+77
-8.5685e+76
-6.43075e+76
-4.42924e+76
-2.85515e+76
-1.73851e+76
-1.00327e+76
-5.48243e+75
-2.8212e+75
-1.35045e+75
-5.86134e+74
-2.17158e+74
-5.59695e+73
3.84984e+72
1.8916e+73
1.72078e+73
1.12343e+73
5.77025e+72
2.0693e+72
1.50774e+70
-8.88225e+71
-1.11883e+72
-1.02091e+72
-8.03982e+71
-5.77267e+71
-3.8716e+71
-2.45488e+71
-1.48066e+71
-8.51446e+70
-4.66495e+70
-2.42592e+70
-1.18792e+70
-5.39678e+69
-2.2093e+69
-7.62303e+68
-1.7633e+68
1.75025e+67
5.34445e+67
3.86981e+67
1.65926e+67
7.74584e+65
-7.11602e+66
-9.27616e+66
-8.30564e+66
-6.13323e+66
-3.87561e+66
-2.04056e+66
-7.59573e+65
2.09238e+64
4.23908e+65
5.756e+65
5.79848e+65
5.10118e+65
4.13455e+65
3.16303e+65
2.31519e+65
1.63432e+65
1.11866e+65
7.45001e+64
4.83949e+64
3.07092e+64
1.90556e+64
1.15668e+64
6.86851e+63
3.98769e+63
2.26151e+63
1.25086e+63
6.73367e+62
3.51773e+62
1.77675e+62
8.63473e+61
4.0143e+61
1.77402e+61
7.42124e+60
2.95966e+60
1.17708e+60
5.28999e+59
3.11425e+59
2.29991e+59
1.75708e+59
1.13868e+59
4.293e+58
-7.5972e+78
-1.45323e+79
-7.89891e+78
2.67479e+78
1.09339e+79
1.50409e+79
1.5559e+79
1.38178e+79
1.10713e+79
8.19406e+78
5.67038e+78
3.68879e+78
2.25664e+78
1.2914e+78
6.81767e+77
3.21471e+77
1.23967e+77
2.57668e+76
-1.61226e+76
-2.87507e+76
-2.7972e+76
-2.23322e+76
-1.59771e+76
-1.05866e+76
-6.59611e+75
-3.89086e+75
-2.17725e+75
-1.15348e+75
-5.74902e+74
-2.66085e+74
-1.11463e+74
-3.99063e+73
-1.02283e+73
-1.19597e+70
2.15536e+72
1.61303e+72
5.81119e+71
-1.98419e+71
-6.02805e+71
-7.18714e+71
-6.67207e+71
-5.43472e+71
-4.06291e+71
-2.84973e+71
-1.89879e+71
-1.21091e+71
-7.42651e+70
-4.39365e+70
-2.51267e+70
-1.39127e+70
-7.47139e+69
-3.90238e+69
-1.99293e+69
-1.00543e+69
-5.10141e+68
-2.67475e+68
-1.49362e+68
-9.04915e+67
-5.90795e+67
-4.04587e+67
-2.81708e+67
-1.94697e+67
-1.31473e+67
-8.58743e+66
-5.38227e+66
-3.2086e+66
-1.79437e+66
-9.16883e+65
-4.01756e+65
-1.2006e+65
1.90067e+64
7.59587e+64
8.92574e+64
8.19121e+64
6.68832e+64
5.08136e+64
3.6684e+64
2.54507e+64
1.70862e+64
1.1146e+64
7.08481e+63
4.39506e+63
2.66342e+63
1.57706e+63
9.12212e+62
5.15033e+62
2.83488e+62
1.51856e+62
7.89894e+61
3.97932e+61
1.93624e+61
9.07989e+60
4.10431e+60
1.80027e+60
7.82656e+59
3.52895e+59
1.74919e+59
9.59404e+58
5.04732e+58
1.67741e+58
-2.97281e+78
-6.58573e+78
-4.13094e+78
9.22299e+77
5.45955e+78
8.15037e+78
8.93897e+78
8.35052e+78
7.01433e+78
5.43952e+78
3.95053e+78
2.70864e+78
1.75997e+78
1.08421e+78
6.31231e+77
3.44411e+77
1.72976e+77
7.67682e+76
2.67535e+76
3.36667e+75
-5.7346e+75
-7.86467e+75
-7.05813e+75
-5.36095e+75
-3.68676e+75
-2.35849e+75
-1.42077e+75
-8.10162e+74
-4.37532e+74
-2.23025e+74
-1.06431e+74
-4.68303e+73
-1.84703e+73
-6.16749e+72
-1.51714e+72
-1.62965e+71
-1.898e+70
-1.86114e+71
-3.39236e+71
-4.01863e+71
-3.87449e+71
-3.29828e+71
-2.57671e+71
-1.88728e+71
-1.31286e+71
-8.74761e+70
-5.61509e+70
-3.48704e+70
-2.10195e+70
-1.23343e+70
-7.0672e+69
-3.9682e+69
-2.19435e+69
-1.20337e+69
-6.60752e+68
-3.67647e+68
-2.09978e+68
-1.24357e+68
-7.66504e+67
-4.89421e+67
-3.20249e+67
-2.11948e+67
-1.40174e+67
-9.17409e+66
-5.89801e+66
-3.70265e+66
-2.25758e+66
-1.32868e+66
-7.48488e+65
-3.97999e+65
-1.94567e+65
-8.21748e+64
-2.41059e+64
2.98329e+63
1.33531e+64
1.53913e+64
1.37747e+64
1.09601e+64
8.11511e+63
5.7108e+63
3.86247e+63
2.52745e+63
1.60637e+63
9.94038e+62
5.99645e+62
3.52807e+62
2.02408e+62
1.13143e+62
6.15367e+61
3.25013e+61
1.66273e+61
8.21346e+60
3.90328e+60
1.77771e+60
7.73673e+59
3.2199e+59
1.29366e+59
5.09059e+58
1.83791e+58
4.07986e+57
-1.32979e+78
-3.30435e+78
-2.39126e+78
8.99149e+76
2.59777e+78
4.301e+78
5.01445e+78
4.9177e+78
4.31418e+78
3.4864e+78
2.63819e+78
1.88746e+78
1.28408e+78
8.3315e+77
5.15887e+77
3.04306e+77
1.70152e+77
8.92777e+76
4.307e+76
1.82473e+76
5.90992e+75
4.36422e+74
-1.53233e+75
-1.88312e+75
-1.60543e+75
-1.17137e+75
-7.76192e+74
-4.78282e+74
-2.76878e+74
-1.51038e+74
-7.74752e+73
-3.70913e+73
-1.63302e+73
-6.43422e+72
-2.1542e+72
-5.53493e+71
-1.01231e+71
-6.33729e+70
-1.25256e+71
-1.75344e+71
-1.89726e+71
-1.75561e+71
-1.46387e+71
-1.13191e+71
-8.25772e+70
-5.74683e+70
-3.84422e+70
-2.48514e+70
-1.55915e+70
-9.52654e+69
-5.68765e+69
-3.32959e+69
-1.91907e+69
-1.0946e+69
-6.21855e+68
-3.5464e+68
-2.04774e+68
-1.2068e+68
-7.29818e+67
-4.53461e+67
-2.88478e+67
-1.86615e+67
-1.2173e+67
-7.94204e+66
-5.14629e+66
-3.29318e+66
-2.0715e+66
-1.27574e+66
-7.66133e+65
-4.46576e+65
-2.51054e+65
-1.34795e+65
-6.79441e+64
-3.10537e+64
-1.17538e+64
-2.40518e+63
1.57502e+63
2.83426e+63
2.84269e+63
2.37119e+63
1.79568e+63
1.27678e+63
8.66534e+62
5.66339e+62
3.58302e+62
2.20062e+62
1.31408e+62
7.63173e+61
4.30864e+61
2.36131e+61
1.25329e+61
6.41919e+60
3.15619e+60
1.47802e+60
6.51137e+59
2.64408e+59
9.53144e+58
2.80069e+58
4.53595e+57
-9.30149e+56
-6.93392e+77
-1.87249e+78
-1.56784e+78
-3.17058e+77
1.0913e+78
2.16108e+78
2.71982e+78
2.81131e+78
2.57507e+78
2.16355e+78
1.69898e+78
1.26119e+78
8.91294e+77
6.02334e+77
3.90212e+77
2.42541e+77
1.44528e+77
8.23403e+76
4.46035e+76
2.27372e+76
1.06935e+76
4.44261e+75
1.43799e+75
1.48273e+74
-2.99304e+74
-3.74597e+74
-3.12861e+74
-2.2116e+74
-1.40842e+74
-8.26815e+73
-4.50609e+73
-2.2734e+73
-1.04746e+73
-4.26895e+72
-1.42133e+72
-2.86619e+71
5.91632e+70
9.26097e+70
3.53947e+70
-2.40813e+70
-6.02986e+70
-7.32778e+70
-7.05975e+70
-5.9966e+70
-4.68711e+70
-3.4468e+70
-2.41607e+70
-1.62824e+70
-1.06134e+70
-6.72257e+69
-4.15381e+69
-2.51287e+69
-1.49396e+69
-8.76608e+68
-5.10204e+68
-2.96289e+68
-1.72819e+68
-1.01928e+68
-6.11383e+67
-3.74269e+67
-2.33919e+67
-1.48844e+67
-9.59245e+66
-6.2221e+66
-4.03679e+66
-2.60505e+66
-1.66441e+66
-1.04885e+66
-6.49765e+65
-3.94526e+65
-2.34038e+65
-1.35113e+65
-7.55146e+64
-4.05323e+64
-2.06171e+64
-9.68893e+63
-3.9693e+63
-1.16538e+63
7.30972e+61
5.17469e+62
5.90698e+62
5.14151e+62
3.95681e+62
2.82578e+62
1.91313e+62
1.24161e+62
7.7702e+61
4.70401e+61
2.75809e+61
1.56589e+61
8.59383e+60
4.5441e+60
2.30188e+60
1.10666e+60
4.96821e+59
2.02075e+59
6.97838e+58
1.68408e+58
-3.13474e+56
-2.27279e+57
-4.1739e+77
-1.18171e+78
-1.12374e+78
-4.81374e+77
3.23439e+77
9.9569e+77
1.40635e+78
1.55032e+78
1.48857e+78
1.30088e+78
1.05861e+78
8.12938e+77
5.94178e+77
4.15639e+77
2.79287e+77
1.80664e+77
1.12628e+77
6.76632e+76
3.91249e+76
2.17152e+76
1.15119e+76
5.78017e+75
2.7073e+75
1.14785e+75
4.09384e+74
9.25142e+73
-2.23975e+73
-4.943e+73
-4.39966e+73
-3.05346e+73
-1.8287e+73
-9.65786e+72
-4.41878e+72
-1.60988e+72
-3.00941e+71
1.89404e+71
2.89018e+71
2.36149e+71
1.47505e+71
7.07695e+70
1.88646e+70
-1.01268e+70
-2.26965e+70
-2.53064e+70
-2.28405e+70
-1.84307e+70
-1.38228e+70
-9.82549e+69
-6.69668e+69
-4.40973e+69
-2.8213e+69
-1.76165e+69
-1.07797e+69
-6.49035e+68
-3.86201e+68
-2.2823e+68
-1.34687e+68
-7.98334e+67
-4.77935e+67
-2.90276e+67
-1.79306e+67
-1.12642e+67
-7.17894e+66
-4.62202e+66
-2.99097e+66
-1.93542e+66
-1.24658e+66
-7.96055e+65
-5.02377e+65
-3.12451e+65
-1.91043e+65
-1.14555e+65
-6.71816e+64
-3.84036e+64
-2.12985e+64
-1.13808e+64
-5.7929e+63
-2.75152e+63
-1.16673e+63
-3.88821e+62
-4.02608e+61
9.13789e+61
1.21506e+62
1.09826e+62
8.53707e+61
6.08494e+61
4.08358e+61
2.61314e+61
1.60485e+61
9.48493e+60
5.39592e+60
2.94812e+60
1.53908e+60
7.60406e+59
3.49392e+59
1.44298e+59
4.95719e+58
1.09363e+58
-1.37517e+57
-2.14901e+57
-2.7638e+77
-7.98726e+77
-8.37429e+77
-5.05111e+77
-3.85785e+76
3.85213e+77
6.76434e+77
8.16713e+77
8.30049e+77
7.57354e+77
6.39147e+77
5.07301e+77
3.82603e+77
2.76067e+77
1.91447e+77
1.28007e+77
8.26914e+76
5.16746e+76
3.12532e+76
1.82905e+76
1.03479e+76
5.64897e+75
2.96679e+75
1.49215e+75
7.13781e+74
3.21268e+74
1.33726e+74
4.99241e+73
1.57336e+73
3.59043e+72
2.94658e+71
-1.25173e+70
3.5217e+71
6.38791e+71
7.1468e+71
6.38547e+71
4.95294e+71
3.45165e+71
2.18804e+71
1.2566e+71
6.36502e+70
2.60513e+70
5.49362e+69
-4.25236e+69
-7.74848e+69
-8.01623e+69
-6.87951e+69
-5.34005e+69
-3.88073e+69
-2.68771e+69
-1.79287e+69
-1.16029e+69
-7.32519e+68
-4.53272e+68
-2.76134e+68
-1.66379e+68
-9.96329e+67
-5.96047e+67
-3.58082e+67
-2.17051e+67
-1.33217e+67
-8.29397e+66
-5.23635e+66
-3.34497e+66
-2.15416e+66
-1.39264e+66
-8.99901e+65
-5.78969e+65
-3.69615e+65
-2.33487e+65
-1.45599e+65
-8.94428e+64
-5.40212e+64
-3.20131e+64
-1.85695e+64
-1.05116e+64
-5.78254e+63
-3.07235e+63
-1.56126e+63
-7.45818e+62
-3.23505e+62
-1.16493e+62
-2.3031e+61
1.34749e+61
2.3352e+61
2.21633e+61
1.73958e+61
1.23288e+61
8.15029e+60
5.09968e+60
3.03886e+60
1.7267e+60
9.32502e+59
4.74538e+59
2.23562e+59
9.4046e+58
3.24417e+58
6.74347e+57
-1.43304e+57
-1.65191e+57
-1.91635e+77
-5.57038e+77
-6.26004e+77
-4.54964e+77
-1.81934e+77
8.54293e+76
2.86974e+77
4.03618e+77
4.43078e+77
4.2558e+77
3.73784e+77
3.06935e+77
2.3875e+77
1.77388e+77
1.2661e+77
8.71542e+76
5.80265e+76
3.7441e+76
2.34459e+76
1.42617e+76
8.4312e+75
4.84502e+75
2.70623e+75
1.46899e+75
7.74819e+74
3.97265e+74
1.98302e+74
9.67817e+73
4.6605e+73
2.2533e+73
1.12409e+73
5.97717e+72
3.45983e+72
2.16815e+72
1.4292e+72
9.58321e+71
6.3676e+71
4.12218e+71
2.57091e+71
1.53049e+71
8.59859e+70
4.47369e+70
2.071e+70
7.62266e+69
1.11791e+69
-1.6617e+69
-2.49146e+69
-2.40896e+69
-1.98094e+69
-1.48921e+69
-1.05512e+69
-7.15924e+68
-4.69893e+68
-3.00433e+68
-1.88182e+68
-1.16055e+68
-7.0815e+67
-4.29618e+67
-2.60421e+67
-1.58466e+67
-9.71895e+66
-6.02497e+66
-3.77995e+66
-2.39873e+66
-1.53657e+66
-9.90437e+65
-6.40086e+65
-4.13232e+65
-2.65617e+65
-1.69497e+65
-1.0712e+65
-6.69095e+64
-4.12346e+64
-2.50316e+64
-1.49445e+64
-8.75949e+63
-5.03019e+63
-2.82258e+63
-1.54202e+63
-8.15931e+62
-4.14792e+62
-1.99898e+62
-8.90514e+61
-3.46498e+61
-9.77671e+60
3.40833e+59
3.54891e+60
3.83155e+60
3.10042e+60
2.19242e+60
1.42009e+60
8.57475e+59
4.84868e+59
2.55381e+59
1.2311e+59
5.21083e+58
1.73564e+58
2.72013e+57
-1.67117e+57
-1.29069e+57
-1.34574e+77
-3.91023e+77
-4.6149e+77
-3.75113e+77
-2.14597e+77
-4.60886e+76
9.07458e+76
1.80248e+77
2.23275e+77
2.29496e+77
2.11285e+77
1.80084e+77
1.44622e+77
1.10618e+77
8.11509e+76
5.73834e+76
3.9249e+76
2.6036e+76
1.67833e+76
1.05296e+76
6.43724e+75
3.8387e+75
2.23497e+75
1.27173e+75
7.08127e+74
3.86547e+74
2.07435e+74
1.09898e+74
5.78505e+73
3.0526e+73
1.63278e+73
8.95588e+72
5.0827e+72
2.99224e+72
1.8183e+72
1.12827e+72
7.05758e+71
4.39609e+71
2.69878e+71
1.61871e+71
9.40947e+70
5.25258e+70
2.77973e+70
1.36372e+70
5.91134e+69
1.95861e+69
1.21697e+68
-5.95095e+68
-7.63771e+68
-6.96584e+68
-5.52427e+68
-4.04555e+68
-2.80953e+68
-1.87784e+68
-1.21946e+68
-7.74878e+67
-4.84594e+67
-2.99849e+67
-1.84485e+67
-1.13398e+67
-6.99299e+66
-4.34129e+66
-2.7191e+66
-1.7196e+66
-1.09728e+66
-7.05142e+65
-4.55112e+65
-2.94116e+65
-1.89733e+65
-1.21838e+65
-7.76925e+64
-4.90962e+64
-3.06928e+64
-1.89547e+64
-1.15483e+64
-6.93273e+63
-4.09559e+63
-2.3776e+63
-1.35405e+63
-7.54858e+62
-4.10779e+62
-2.17347e+62
-1.11188e+62
-5.45161e+61
-2.52526e+61
-1.07551e+61
-3.96032e+60
-1.02286e+60
8.27142e+58
3.83634e+59
3.73819e+59
2.74415e+59
1.72952e+59
9.63617e+58
4.67824e+58
1.83588e+58
4.15881e+57
-1.45596e+57
-2.41636e+57
-1.18575e+57
-9.40339e+76
-2.72725e+77
-3.33407e+77
-2.91312e+77
-1.96865e+77
-9.10391e+76
3.71124e+74
6.5625e+76
1.03192e+77
1.17379e+77
1.14851e+77
1.02256e+77
8.50448e+76
6.70387e+76
5.05481e+76
3.66804e+76
2.57292e+76
1.75014e+76
1.15737e+76
7.45545e+75
4.68601e+75
2.87794e+75
1.72947e+75
1.01839e+75
5.88566e+74
3.34525e+74
1.87476e+74
1.03955e+74
5.72869e+73
3.15497e+73
1.74752e+73
9.79839e+72
5.59101e+72
3.25588e+72
1.93384e+72
1.16695e+72
7.10928e+71
4.34078e+71
2.63694e+71
1.58305e+71
9.33337e+70
5.37124e+70
2.9965e+70
1.60607e+70
8.15597e+69
3.82607e+69
1.56558e+69
4.61955e+68
-2.30289e+67
-1.95884e+68
-2.24293e+68
-1.95153e+68
-1.50393e+68
-1.07977e+68
-7.39677e+67
-4.90106e+67
-3.17033e+67
-2.01616e+67
-1.26799e+67
-7.92679e+66
-4.94823e+66
-3.09606e+66
-1.94722e+66
-1.23304e+66
-7.86454e+65
-5.0484e+65
-3.25595e+65
-2.10493e+65
-1.36062e+65
-8.77164e+64
-5.62713e+64
-3.58495e+64
-2.26437e+64
-1.41599e+64
-8.7562e+63
-5.34883e+63
-3.22468e+63
-1.9169e+63
-1.1225e+63
-6.46832e+62
-3.66348e+62
-2.03643e+62
-1.10904e+62
-5.9044e+61
-3.06428e+61
-1.54473e+61
-7.52799e+60
-3.52461e+60
-1.57204e+60
-6.6064e+59
-2.58052e+59
-9.28762e+58
-3.18197e+58
-1.26712e+58
-8.16061e+57
-7.44324e+57
-6.83749e+57
-5.49849e+57
-3.50085e+57
-1.29562e+57
-6.49016e+76
-1.87965e+77
-2.35904e+77
-2.16634e+77
-1.61187e+77
-9.50289e+76
-3.48184e+76
1.11216e+76
4.06958e+76
5.56448e+76
5.94578e+76
5.59616e+76
4.84765e+76
3.94953e+76
3.0642e+76
2.28205e+76
1.64032e+76
1.14254e+76
7.73478e+75
5.10174e+75
3.28501e+75
2.06858e+75
1.27593e+75
7.72171e+74
4.5929e+74
2.69038e+74
1.55566e+74
8.90479e+73
5.0632e+73
2.87101e+73
1.63058e+73
9.31586e+72
5.37398e+72
3.13766e+72
1.8553e+72
1.10941e+72
6.68751e+71
4.04605e+71
2.44498e+71
1.4684e+71
8.72333e+70
5.10273e+70
2.92558e+70
1.63563e+70
8.86038e+69
4.60832e+69
2.26728e+69
1.02571e+69
3.99001e+68
1.04175e+68
-1.93202e+67
-5.96614e+67
-6.32451e+67
-5.32144e+67
-4.02145e+67
-2.85344e+67
-1.94282e+67
-1.28603e+67
-8.35022e+66
-5.35486e+66
-3.4101e+66
-2.16617e+66
-1.37721e+66
-8.78464e+65
-5.62833e+65
-3.62271e+65
-2.34059e+65
-1.51571e+65
-9.81921e+64
-6.35082e+64
-4.09269e+64
-2.62325e+64
-1.66969e+64
-1.05398e+64
-6.59086e+63
-4.07919e+63
-2.49682e+63
-1.5104e+63
-9.02448e+62
-5.32266e+62
-3.09715e+62
-1.77695e+62
-1.00466e+62
-5.59414e+61
-3.06618e+61
-1.65358e+61
-8.77335e+60
-4.58092e+60
-2.3569e+60
-1.19805e+60
-6.04703e+59
-3.05525e+59
-1.56381e+59
-8.22716e+58
-4.50844e+58
-2.58456e+58
-1.53006e+58
-8.97859e+57
-4.65264e+57
-1.50855e+57
-4.41102e+76
-1.27753e+77
-1.6368e+77
-1.55844e+77
-1.23433e+77
-8.23023e+76
-4.31277e+76
-1.16332e+76
1.02766e+76
2.31392e+76
2.87475e+76
2.92602e+76
2.66789e+76
2.25833e+76
1.80775e+76
1.38332e+76
1.01916e+76
7.26504e+75
5.02952e+75
3.39106e+75
2.23203e+75
1.43709e+75
9.0676e+74
5.61675e+74
3.42182e+74
2.0542e+74
1.21784e+74
7.14765e+73
4.16465e+73
2.41646e+73
1.40085e+73
8.1399e+72
4.7544e+72
2.79714e+72
1.65909e+72
9.91746e+71
5.96463e+71
3.59981e+71
2.173e+71
1.30733e+71
7.81084e+70
4.61835e+70
2.69321e+70
1.54364e+70
8.66288e+69
4.73842e+69
2.5106e+69
1.27673e+69
6.13518e+68
2.70251e+68
1.01259e+68
2.3931e+67
-7.34385e+66
-1.6891e+67
-1.71655e+67
-1.41858e+67
-1.06311e+67
-7.52633e+66
-5.13891e+66
-3.42652e+66
-2.25029e+66
-1.46451e+66
-9.48876e+65
-6.14023e+65
-3.97661e+65
-2.57991e+65
-1.67678e+65
-1.09097e+65
-7.09748e+64
-4.60998e+64
-2.98493e+64
-1.92377e+64
-1.23248e+64
-7.83977e+63
-4.94653e+63
-3.09327e+63
-1.91591e+63
-1.17472e+63
-7.12718e+62
-4.27725e+62
-2.53838e+62
-1.48936e+62
-8.63835e+61
-4.9526e+61
-2.807e+61
-1.57321e+61
-8.72375e+60
-4.79082e+60
-2.60933e+60
-1.41249e+60
-7.62061e+59
-4.11237e+59
-2.22856e+59
-1.21771e+59
-6.7278e+58
-3.75799e+58
-2.10675e+58
-1.15501e+58
-5.60157e+57
-1.7214e+57
-2.95178e+76
-8.56631e+76
-1.11627e+77
-1.0926e+77
-9.04239e+76
-6.49942e+76
-3.9776e+76
-1.86137e+76
-3.02551e+75
7.0254e+75
1.24231e+76
1.4376e+76
1.40689e+76
1.24903e+76
1.03654e+76
8.17084e+75
6.17722e+75
4.50799e+75
3.19012e+75
2.19678e+75
1.47606e+75
9.70008e+74
6.24709e+74
3.95049e+74
2.45751e+74
1.50681e+74
9.12477e+73
5.4696e+73
3.25315e+73
1.92484e+73
1.13602e+73
6.7052e+72
3.96707e+72
2.35683e+72
1.40741e+72
8.44859e+71
5.09393e+71
3.07974e+71
1.86296e+71
1.12462e+71
6.75696e+70
4.02965e+70
2.37914e+70
1.38705e+70
7.96444e+69
4.4915e+69
2.47962e+69
1.33449e+69
6.9607e+68
3.48717e+68
1.65228e+68
7.18103e+67
2.65405e+67
6.12819e+66
-2.00654e+66
-4.44636e+66
-4.49288e+66
-3.71491e+66
-2.79702e+66
-1.99699e+66
-1.37977e+66
-9.3375e+65
-6.23752e+65
-4.13455e+65
-2.72867e+65
-1.79671e+65
-1.18145e+65
-7.75939e+64
-5.08752e+64
-3.32731e+64
-2.16836e+64
-1.40657e+64
-9.07243e+63
-5.81331e+63
-3.6975e+63
-2.33291e+63
-1.45934e+63
-9.04711e+62
-5.55678e+62
-3.38069e+62
-2.03704e+62
-1.2156e+62
-7.18446e+61
-4.20612e+61
-2.43994e+61
-1.40306e+61
-8.00319e+60
-4.53232e+60
-2.5513e+60
-1.42955e+60
-7.98678e+59
-4.45691e+59
-2.48841e+59
-1.39167e+59
-7.79712e+58
-4.36661e+58
-2.42614e+58
-1.30643e+58
-6.19803e+57
-1.86637e+57
-1.94588e+76
-5.66987e+76
-7.49875e+76
-7.50321e+76
-6.41652e+76
-4.85291e+76
-3.24434e+76
-1.84516e+76
-7.67547e+75
-2.62415e+74
4.20715e+75
6.39674e+75
7.00339e+75
6.63371e+75
5.75643e+75
4.69544e+75
3.65166e+75
2.73133e+75
1.97659e+75
1.38983e+75
9.52703e+74
6.38342e+74
4.19046e+74
2.70064e+74
1.71212e+74
1.06979e+74
6.60139e+73
4.03121e+73
2.44151e+73
1.46988e+73
8.81683e+72
5.28081e+72
3.16452e+72
1.90024e+72
1.14454e+72
6.91694e+71
4.19259e+71
2.54618e+71
1.5469e+71
9.38405e+70
5.67253e+70
3.40968e+70
2.03379e+70
1.20142e+70
7.01524e+69
4.0412e+69
2.292e+69
1.27691e+69
6.96833e+68
3.71123e+68
1.91871e+68
9.55039e+67
4.51164e+67
1.967e+67
7.39441e+66
1.85512e+66
-3.79591e+65
-1.08288e+66
-1.13782e+66
-9.61734e+65
-7.37941e+65
-5.36847e+65
-3.78179e+65
-2.61014e+65
-1.77769e+65
-1.19993e+65
-8.04813e+64
-5.37089e+64
-3.56814e+64
-2.35967e+64
-1.5528e+64
-1.01621e+64
-6.60985e+63
-4.27047e+63
-2.73909e+63
-1.74332e+63
-1.10062e+63
-6.89077e+62
-4.2775e+62
-2.63243e+62
-1.60608e+62
-9.71507e+61
-5.8272e+61
-3.46669e+61
-2.0463e+61
-1.19903e+61
-6.97862e+60
-4.03764e+60
-2.32435e+60
-1.33274e+60
-7.61937e+59
-4.34764e+59
-2.47765e+59
-1.41033e+59
-8.0101e+58
-4.52489e+58
-2.52167e+58
-1.35487e+58
-6.39008e+57
-1.91042e+57
-1.26493e+76
-3.71018e+76
-4.97325e+76
-5.06829e+76
-4.44655e+76
-3.49001e+76
-2.47181e+76
-1.55831e+76
-8.29097e+75
-3.02663e+75
3.93422e+74
2.33054e+75
3.18902e+75
3.33873e+75
3.07613e+75
2.61689e+75
2.10236e+75
1.61555e+75
1.19694e+75
8.59782e+74
6.01177e+74
4.10502e+74
2.74442e+74
1.80061e+74
1.16176e+74
7.38636e+73
4.63671e+73
2.87964e+73
1.77295e+73
1.08441e+73
6.60268e+72
4.00986e+72
2.43318e+72
1.47732e+72
8.98335e+71
5.47338e+71
3.3409e+71
2.04164e+71
1.24774e+71
7.61534e+70
4.63434e+70
2.80738e+70
1.69012e+70
1.00961e+70
5.97531e+69
3.49878e+69
2.02403e+69
1.15515e+69
6.49389e+68
3.58939e+68
1.94624e+68
1.03197e+68
5.32695e+67
2.6578e+67
1.26626e+67
5.62705e+66
2.21005e+66
6.42418e+65
-1.29495e+64
-2.39799e+65
-2.79519e+65
-2.47719e+65
-1.96404e+65
-1.46799e+65
-1.05888e+65
-7.46308e+64
-5.17584e+64
-3.54683e+64
-2.40721e+64
-1.62023e+64
-1.08214e+64
-7.17362e+63
-4.71976e+63
-3.08162e+63
-1.99632e+63
-1.28295e+63
-8.17812e+62
-5.17047e+62
-3.24205e+62
-2.01625e+62
-1.24376e+62
-7.61151e+61
-4.62215e+61
-2.78608e+61
-1.66759e+61
-9.91626e+60
-5.86169e+60
-3.44679e+60
-2.0177e+60
-1.17678e+60
-6.84316e+59
-3.97002e+59
-2.29827e+59
-1.32705e+59
-7.63069e+58
-4.35295e+58
-2.44236e+58
-1.31671e+58
-6.21291e+57
-1.85626e+57
-8.11902e+75
-2.40221e+76
-3.26195e+76
-3.37725e+76
-3.02519e+76
-2.44279e+76
-1.80251e+76
-1.21221e+76
-7.26765e+75
-3.62944e+75
-1.1368e+75
4.03128e+74
1.22403e+75
1.54837e+75
1.56212e+75
1.40535e+75
1.1749e+75
9.31258e+74
7.08024e+74
5.20157e+74
3.71198e+74
2.58299e+74
1.75812e+74
1.17352e+74
7.69941e+73
4.97577e+73
3.17391e+73
2.00223e+73
1.25167e+73
7.76904e+72
4.79716e+72
2.95198e+72
1.81324e+72
1.1132e+72
6.83714e+71
4.20303e+71
2.58614e+71
1.59205e+71
9.79796e+70
6.02172e+70
3.69124e+70
2.25379e+70
1.36889e+70
8.26013e+69
4.94591e+69
2.93541e+69
1.72507e+69
1.00286e+69
5.76163e+68
3.26807e+68
1.82803e+68
1.00701e+68
5.45342e+67
2.89611e+67
1.50268e+67
7.57367e+66
3.6713e+66
1.68034e+66
6.97627e+65
2.34544e+65
3.1524e+64
-4.61929e+64
-6.68676e+64
-6.39041e+64
-5.29557e+64
-4.0842e+64
-3.018e+64
-2.16758e+64
-1.52526e+64
-1.05636e+64
-7.22109e+63
-4.88016e+63
-3.26414e+63
-2.16209e+63
-1.41884e+63
-9.22709e+62
-5.94791e+62
-3.80107e+62
-2.40866e+62
-1.51376e+62
-9.43749e+61
-5.83829e+61
-3.58499e+61
-2.18586e+61
-1.32399e+61
-7.97057e+60
-4.77189e+60
-2.84292e+60
-1.68657e+60
-9.97007e+59
-5.87623e+59
-3.45436e+59
-2.02532e+59
-1.18351e+59
-6.87992e+58
-3.96225e+58
-2.24029e+58
-1.21452e+58
-5.75052e+57
-1.71968e+57
-5.14906e+75
-1.5412e+76
-2.11945e+76
-2.22562e+76
-2.02864e+76
-1.67566e+76
-1.27518e+76
-8.96851e+75
-5.77744e+75
-3.31244e+75
-1.55483e+75
-4.02943e+74
2.76813e+74
6.17854e+74
7.35216e+74
7.18943e+74
6.33498e+74
5.21512e+74
4.08425e+74
3.07575e+74
2.24272e+74
1.5913e+74
1.10277e+74
7.48694e+73
4.99242e+73
3.27734e+73
2.12249e+73
1.35888e+73
8.61734e+72
5.42331e+72
3.39342e+72
2.11466e+72
1.31438e+72
8.15872e+71
5.06209e+71
3.14106e+71
1.94943e+71
1.2098e+71
7.50305e+70
4.64642e+70
2.87023e+70
1.76672e+70
1.08241e+70
6.5938e+69
3.99001e+69
2.39621e+69
1.42706e+69
8.42217e+68
4.92256e+68
2.84762e+68
1.62946e+68
9.21715e+67
5.15015e+67
2.83982e+67
1.54327e+67
8.24934e+66
4.32456e+66
2.2127e+66
1.09617e+66
5.18119e+65
2.26805e+65
8.53188e+64
2.03828e+64
-6.61045e+63
-1.55795e+64
-1.65653e+64
-1.44531e+64
-1.15078e+64
-8.68897e+63
-6.3349e+63
-4.50296e+63
-3.13852e+63
-2.15243e+63
-1.45586e+63
-9.72627e+62
-6.42533e+62
-4.20054e+62
-2.71929e+62
-1.74409e+62
-1.10879e+62
-6.99008e+61
-4.3718e+61
-2.71374e+61
-1.67269e+61
-1.02427e+61
-6.23465e+60
-3.77446e+60
-2.27414e+60
-1.3645e+60
-8.15809e+59
-4.86262e+59
-2.89025e+59
-1.71286e+59
-1.01127e+59
-5.93587e+58
-3.44905e+58
-1.96554e+58
-1.07237e+58
-5.10055e+57
-1.53043e+57
-3.23112e+75
-9.80344e+75
-1.36576e+76
-1.45292e+76
-1.34447e+76
-1.13143e+76
-8.82159e+75
-6.41314e+75
-4.33669e+75
-2.69202e+75
-1.48186e+75
-6.5393e+74
-1.32086e+74
1.62965e+74
3.02093e+74
3.4229e+74
3.25907e+74
2.8199e+74
2.28981e+74
1.77413e+74
1.32474e+74
9.59568e+73
6.77477e+73
4.67896e+73
3.17068e+73
2.11348e+73
1.389e+73
9.01937e+72
5.79842e+72
3.69758e+72
2.34313e+72
1.47792e+72
9.29235e+71
5.83081e+71
3.65475e+71
2.28949e+71
1.43372e+71
8.97344e+70
5.61095e+70
3.50267e+70
2.1812e+70
1.35371e+70
8.36562e+69
5.14308e+69
3.14306e+69
1.90795e+69
1.14973e+69
6.87395e+68
4.07574e+68
2.39571e+68
1.39557e+68
8.05439e+67
4.60412e+67
2.60583e+67
1.45956e+67
8.08507e+66
4.42457e+66
2.38828e+66
1.26822e+66
6.59788e+65
3.33959e+65
1.6248e+65
7.42183e+64
3.0176e+64
9.19425e+63
-4.74075e+61
-3.5213e+63
-4.31253e+63
-3.97518e+63
-3.25943e+63
-2.5049e+63
-1.84603e+63
-1.32043e+63
-9.23053e+62
-6.33403e+62
-4.27877e+62
-2.85123e+62
-1.87694e+62
-1.22201e+62
-7.87576e+61
-5.02859e+61
-3.18291e+61
-1.99854e+61
-1.24557e+61
-7.71022e+60
-4.74318e+60
-2.90175e+60
-1.7665e+60
-1.07081e+60
-6.46704e+59
-3.89309e+59
-2.33654e+59
-1.39785e+59
-8.32853e+58
-4.93152e+58
-2.88936e+58
-1.65927e+58
-9.11616e+57
-4.3623e+57
-1.31376e+57
-2.00641e+75
-6.18906e+75
-8.73723e+75
-9.40982e+75
-8.82455e+75
-7.5448e+75
-5.99948e+75
-4.47494e+75
-3.13465e+75
-2.05031e+75
-1.23181e+75
-6.53004e+74
-2.70837e+74
-3.82598e+73
8.79994e+73
1.43822e+74
1.56558e+74
1.45679e+74
1.24038e+74
9.94974e+73
7.63528e+73
5.6583e+73
4.07475e+73
2.86472e+73
1.97313e+73
1.33544e+73
8.9039e+72
5.86185e+72
3.81846e+72
2.4661e+72
1.58188e+72
1.0095e+72
6.41838e+71
4.07055e+71
2.57731e+71
1.63014e+71
1.03019e+71
6.50464e+70
4.1019e+70
2.58208e+70
1.62132e+70
1.01473e+70
6.32516e+69
3.92378e+69
2.42071e+69
1.48431e+69
9.04121e+68
5.46851e+68
3.28328e+68
1.95634e+68
1.15665e+68
6.78481e+67
3.94835e+67
2.27932e+67
1.30517e+67
7.41165e+66
4.17264e+66
2.32755e+66
1.28518e+66
7.01328e+65
3.77323e+65
1.99358e+65
1.02793e+65
5.11756e+64
2.41265e+64
1.03346e+64
3.58449e+63
4.93125e+62
-7.54958e+62
-1.11866e+63
-1.09151e+63
-9.19082e+62
-7.16359e+62
-5.31964e+62
-3.81851e+62
-2.67177e+62
-1.83161e+62
-1.23458e+62
-8.20159e+61
-5.37988e+61
-3.48931e+61
-2.2403e+61
-1.42523e+61
-8.99211e+60
-5.63087e+60
-3.50239e+60
-2.16542e+60
-1.33177e+60
-8.15286e+59
-4.97119e+59
-3.02049e+59
-1.82922e+59
-1.10391e+59
-6.63284e+58
-3.95959e+58
-2.33837e+58
-1.35348e+58
-7.49387e+57
-3.61409e+57
-1.09684e+57
-1.23455e+75
-3.87856e+75
-5.55234e+75
-6.05093e+75
-5.74417e+75
-4.97899e+75
-4.02495e+75
-3.06464e+75
-2.2055e+75
-1.49748e+75
-9.51571e+74
-5.55218e+74
-2.84204e+74
-1.10769e+74
-8.55112e+72
4.48189e+73
6.68771e+73
7.04234e+73
6.42387e+73
5.39245e+73
4.27872e+73
3.25545e+73
2.39647e+73
1.71712e+73
1.203e+73
8.26921e+72
5.59365e+72
3.73286e+72
2.46327e+72
1.61058e+72
1.04542e+72
6.74752e+71
4.33708e+71
2.77941e+71
1.77754e+71
1.13512e+71
7.24025e+70
4.61248e+70
2.93413e+70
1.86284e+70
1.17969e+70
7.44654e+69
4.68213e+69
2.93047e+69
1.82465e+69
1.12963e+69
6.95061e+68
4.24905e+68
2.58012e+68
1.55596e+68
9.3183e+67
5.54179e+67
3.27308e+67
1.91994e+67
1.11859e+67
6.47342e+66
3.721e+66
2.12415e+66
1.20381e+66
6.7688e+65
3.77209e+65
2.08003e+65
1.13208e+65
6.05863e+64
3.16947e+64
1.6054e+64
7.74216e+63
3.43774e+63
1.2908e+63
2.81971e+62
-1.44205e+62
-2.84937e+62
-2.95841e+62
-2.55492e+62
-2.01595e+62
-1.50578e+62
-1.08332e+62
-7.57971e+61
-5.18895e+61
-3.48941e+61
-2.31159e+61
-1.51165e+61
-9.77472e+60
-6.25802e+60
-3.97153e+60
-2.50093e+60
-1.56415e+60
-9.72417e+59
-6.01416e+59
-3.70286e+59
-2.27079e+59
-1.38742e+59
-8.44429e+58
-5.11531e+58
-3.078e+58
-1.8322e+58
-1.0694e+58
-5.9819e+57
-2.92582e+57
-8.9956e+56
-7.52244e+74
-2.41422e+75
-3.50652e+75
-3.86625e+75
-3.71193e+75
-3.25709e+75
-2.67034e+75
-2.06822e+75
-1.52069e+75
-1.0621e+75
-7.02025e+74
-4.3488e+74
-2.47141e+74
-1.22465e+74
-4.48788e+73
-4.83326e+71
2.18438e+73
3.04427e+73
3.11812e+73
2.79557e+73
2.31742e+73
1.82106e+73
1.37507e+73
1.00635e+73
7.18002e+72
5.0163e+72
3.44361e+72
2.32973e+72
1.55715e+72
1.03058e+72
6.76718e+71
4.4166e+71
2.86921e+71
1.85774e+71
1.19991e+71
7.73635e+70
4.98053e+70
3.20178e+70
2.05483e+70
1.31603e+70
8.40652e+69
5.35268e+69
3.39508e+69
2.14389e+69
1.34705e+69
8.41776e+68
5.22969e+68
3.22928e+68
1.98152e+68
1.20815e+68
7.31904e+67
4.40584e+67
2.63564e+67
1.56709e+67
9.2623e+66
5.44294e+66
3.18045e+66
1.84803e+66
1.06774e+66
6.13282e+65
3.50021e+65
1.98348e+65
1.11469e+65
6.20161e+64
3.40717e+64
1.84166e+64
9.74049e+63
4.99754e+63
2.45153e+63
1.1182e+63
4.4434e+62
1.21732e+62
-1.89873e+61
-6.94368e+61
-7.79587e+61
-6.92728e+61
-5.53691e+61
-4.16091e+61
-3.00061e+61
-2.1001e+61
-1.43628e+61
-9.6425e+60
-6.37481e+60
-4.16023e+60
-2.68495e+60
-1.71632e+60
-1.08806e+60
-6.84868e+59
-4.28428e+59
-2.66589e+59
-1.65112e+59
-1.01825e+59
-6.25223e+58
-3.8194e+58
-2.31706e+58
-1.39092e+58
-8.20186e+57
-4.65904e+57
-2.33889e+57
-7.3674e+56
-4.54448e+74
-1.4923e+75
-2.20112e+75
-2.45522e+75
-2.3827e+75
-2.11404e+75
-1.7548e+75
-1.3789e+75
-1.03187e+75
-7.36902e+74
-5.0163e+74
-3.23861e+74
-1.96126e+74
-1.08842e+74
-5.23536e+73
-1.80783e+73
1.00574e+72
1.02658e+73
1.358e+73
1.35917e+73
1.20049e+73
9.84231e+72
7.6683e+72
5.7519e+72
4.1885e+72
2.97796e+72
2.07635e+72
1.42456e+72
9.646e+71
6.46182e+71
4.2921e+71
2.832e+71
1.85926e+71
1.21607e+71
7.93222e+70
5.1633e+70
3.35525e+70
2.17672e+70
1.4096e+70
9.1083e+69
5.86978e+69
3.77046e+69
2.41275e+69
1.53718e+69
9.74605e+68
6.1465e+68
3.85467e+68
2.40324e+68
1.48935e+68
9.17399e+67
5.61685e+67
3.41849e+67
2.06847e+67
1.24457e+67
7.44793e+66
4.43398e+66
2.62653e+66
1.54835e+66
9.08419e+65
5.30427e+65
3.08182e+65
1.78104e+65
1.02319e+65
5.83798e+64
3.30387e+64
1.85123e+64
1.02444e+64
5.57958e+63
2.97584e+63
1.54246e+63
7.67299e+62
3.58047e+62
1.49047e+62
4.74784e+61
1.95208e+60
-1.54563e+61
-1.95966e+61
-1.81013e+61
-1.47202e+61
-1.11554e+61
-8.0777e+60
-5.66289e+60
-3.87429e+60
-2.6e+60
-1.71779e+60
-1.12028e+60
-7.22713e+59
-4.61967e+59
-2.9301e+59
-1.84616e+59
-1.15657e+59
-7.20809e+58
-4.46952e+58
-2.75566e+58
-1.68679e+58
-1.02222e+58
-6.10271e+57
-3.54345e+57
-1.84583e+57
-5.96906e+56
-2.71838e+74
-9.16202e+74
-1.37334e+75
-1.54997e+75
-1.51983e+75
-1.36248e+75
-1.14353e+75
-9.09955e+74
-6.9111e+74
-5.02582e+74
-3.50074e+74
-2.33023e+74
-1.47343e+74
-8.7442e+73
-4.75054e+73
-2.22491e+73
-7.2721e+72
8.59505e+71
4.67392e+72
5.94099e+72
5.83317e+72
5.08633e+72
4.12998e+72
3.19372e+72
2.38183e+72
1.72718e+72
1.22468e+72
8.52827e+71
5.85232e+71
3.96913e+71
2.66686e+71
1.77896e+71
1.18014e+71
7.79711e+70
5.13584e+70
3.37523e+70
2.21394e+70
1.44965e+70
9.47357e+69
6.17716e+69
4.01671e+69
2.60339e+69
1.68091e+69
1.0806e+69
6.91342e+68
4.4001e+68
2.78505e+68
1.75276e+68
1.09665e+68
6.82125e+67
4.21815e+67
2.59357e+67
1.58584e+67
9.64507e+66
5.83626e+66
3.5145e+66
2.10665e+66
1.25725e+66
7.47165e+65
4.42196e+65
2.6062e+65
1.52942e+65
8.93376e+64
5.19169e+64
2.99939e+64
1.72094e+64