/*--------------------------------*- C++ -*---------------------------------*\ 
| ========                 |                                                 | 
| \      /  F ield         | OpenFOAM: The Open Source CFD Toolbox           | 
|  \    /   O peration     | Version:  v1812                                 | 
|   \  /    A nd           | Web:      www.OpenFOAM.com                      | 
|    \/     M anipulation  |                                                 | 
\*--------------------------------------------------------------------------*/ 
FoamFile
{
    version     2.0;
    format      ascii;
    class       volVectorField;
    location    "/home/james/dafoam/myRuns/bezier_coanda_opt/0.00000000001/";
    object      sens_CL_shapey;
}
// * * * * * * * * * * * * * * * * * * * * * * * * * * * * * * * * * * * * * //

dimensions      [0 0 0 0 0 0 0];
internalField   uniform (0 0 0);
boundaryField
{
    allWalls
    {
        type  wall;
        value nonuniform List<vector>
268
(
(-0.058386 0.007631 0.000289)
(-0.114108 0.034869 0.000018)
(-0.053799 0.021240 0.000084)
(-0.011441 0.021767 0.000158)
(-0.073204 0.062765 0.000239)
(-0.046743 0.049976 0.000436)
(-0.007819 0.004716 0.000590)
(-0.010440 0.014608 0.000590)
(-0.048256 0.066943 0.000590)
(-0.048735 0.072619 0.000590)
(-0.045717 0.078206 0.000590)
(-0.046252 0.090091 0.000780)
(-0.044892 0.101674 0.001146)
(-0.040382 0.102101 0.000956)
(-0.034680 0.099736 0.000589)
(-0.033161 0.105577 0.000588)
(-0.029877 0.107500 0.000588)
(-0.027966 0.110836 0.001452)
(-0.024092 0.107236 0.002520)
(-0.022690 0.112659 0.002774)
(-0.021364 0.117383 0.002965)
(-0.019462 0.120143 0.003258)
(-0.017493 0.124894 0.003751)
(-0.015805 0.129432 0.004086)
(-0.014524 0.136607 0.004261)
(-0.013028 0.146621 0.004634)
(-0.010664 0.152415 0.005344)
(-0.008717 0.162336 0.005748)
(-0.007149 0.176466 0.005544)
(-0.004773 0.186878 0.005631)
(-0.001082 0.206169 0.006871)
(0.002535 0.225761 0.007195)
(0.007077 0.253556 0.007063)
(0.012700 0.281795 0.006334)
(0.018704 0.310606 0.005022)
(0.024510 0.335133 0.004871)
(0.027617 0.324693 0.004440)
(0.031116 0.329302 0.003948)
(0.033647 0.332630 0.003495)
(0.034991 0.326267 0.003083)
(0.029913 0.264336 0.002711)
(0.025928 0.219246 0.002375)
(0.033431 0.283681 0.001394)
(0.038293 0.323731 0.000572)
(0.038251 0.319379 0.000572)
(0.038891 0.320802 0.000572)
(0.040372 0.329120 0.000572)
(0.041428 0.334347 0.000572)
(0.041077 0.328880 0.000572)
(0.041496 0.329645 0.000572)
(0.042366 0.333015 0.000106)
(0.044157 0.334615 -0.000360)
(0.045839 0.336811 -0.000360)
(0.046504 0.340156 -0.000360)
(0.046877 0.341287 -0.000360)
(0.046977 0.340419 -0.000360)
(0.047751 0.344644 -0.000360)
(0.048343 0.347604 -0.000360)
(0.047735 0.341513 -0.000360)
(0.047480 0.338387 -0.000211)
(0.047291 0.337254 -0.000062)
(0.046777 0.333646 -0.000062)
(0.047650 0.339238 -0.000062)
(0.053012 0.376640 -0.000062)
(0.055376 0.391866 -0.000062)
(0.053051 0.370245 -0.000062)
(0.047900 0.321711 -0.000062)
(0.029373 0.188663 -0.000376)
(0.019399 0.131262 -0.000691)
(0.055060 0.425761 -0.000691)
(-0.007115 0.060623 -0.000691)
(-0.009122 0.050701 -0.000691)
(-0.008657 0.052529 -0.000376)
(-0.007476 0.048665 -0.000062)
(-0.007424 0.047314 -0.000062)
(-0.007194 0.046191 -0.000062)
(-0.007829 0.049936 -0.000062)
(-0.006773 0.047041 -0.000062)
(-0.006214 0.044491 -0.000062)
(-0.006182 0.044725 -0.000062)
(-0.006524 0.046528 -0.000062)
(-0.007846 0.053690 -0.000211)
(-0.010243 0.067151 -0.000360)
(-0.011906 0.077479 -0.000360)
(-0.012711 0.082754 -0.000360)
(-0.013712 0.089484 -0.000360)
(-0.014875 0.097641 -0.000360)
(-0.015873 0.105330 -0.000360)
(-0.016718 0.112649 -0.000360)
(-0.018783 0.119710 0.000106)
(-0.020685 0.126406 0.000572)
(-0.021088 0.132834 0.000572)
(-0.021306 0.138729 0.000572)
(-0.021353 0.144164 0.000572)
(-0.021237 0.149218 0.000572)
(-0.020944 0.153838 0.000572)
(-0.020492 0.158181 0.000572)
(-0.019897 0.162488 0.000572)
(-0.019156 0.166826 0.001079)
(-0.018223 0.170845 0.001649)
(-0.017076 0.174577 0.001777)
(-0.015751 0.178549 0.001905)
(-0.014239 0.182905 0.002034)
(-0.012487 0.187920 0.002163)
(-0.010266 0.188319 0.002244)
(-0.008108 0.199342 0.002188)
(-0.004784 0.178532 0.001795)
(-0.001743 0.157006 0.001674)
(-0.000288 0.139301 0.001745)
(0.001854 0.112046 0.001531)
(0.003766 0.123396 0.001322)
(0.004897 0.123935 0.001114)
(0.005636 0.104145 0.000830)
(0.006556 0.092432 0.000592)
(0.008085 0.097743 0.000602)
(0.008251 0.087112 0.000543)
(0.008095 0.071129 0.000415)
(0.009618 0.074507 0.000373)
(0.010025 0.072447 0.000351)
(0.010544 0.067686 0.000322)
(0.011320 0.063379 0.000286)
(0.009029 0.047970 0.000243)
(0.011749 0.051677 0.000400)
(0.016371 0.062992 0.000588)
(0.016096 0.056411 0.000588)
(0.016069 0.050118 0.000589)
(0.017332 0.047685 0.000589)
(0.016072 0.039559 0.000326)
(0.013938 0.028915 0.000054)
(0.012036 0.018438 0.000039)
(0.011986 0.012102 0.000026)
(0.013574 0.011493 0.000014)
(0.020289 0.022260 0.000004)
(0.026023 0.038190 -0.000006)
(0.015942 0.040434 -0.000015)
(-0.003050 0.025592 0.000285)
(-0.024426 0.003576 0.000276)
(-0.053589 -0.012667 -0.000201)
(-0.093227 -0.020792 -0.000210)
(-0.087229 -0.010510 0.000267)
(0.040240 0.538385 -0.000691)
(-0.007726 0.352264 -0.000691)
(0.003593 0.450214 -0.000691)
(0.023461 0.731180 -0.000691)
(0.031864 0.877762 -0.000691)
(0.034681 0.955465 -0.000691)
(0.039946 1.101318 -0.000691)
(0.050347 1.355828 -0.000691)
(0.073916 1.998972 -0.000691)
(0.102813 2.785206 -0.000691)
(0.106562 2.274822 -0.000691)
(0.144160 1.542304 -0.000691)
(0.719733 12.077314 -0.000691)
(2.226434 39.556568 -0.000691)
(-94.413634 -83.100881 -0.000337)
(745.080412 -1126.486527 0.000017)
(-79.389268 -12.952805 0.000017)
(-6.299206 -10.188946 0.000017)
(-80.863196 -117.245494 0.000017)
(-659.232063 879.292047 0.000017)
(-68.217844 493.945584 0.000017)
(13.777286 230.184367 0.000017)
(14.975741 134.380785 0.000017)
(7.182310 59.950183 0.000017)
(4.475408 22.743653 0.000017)
(5.499503 27.127110 0.000017)
(2.188436 8.416527 0.000017)
(1.624644 6.355545 0.000017)
(0.613579 2.218651 0.000017)
(2.946293 8.023679 0.000017)
(0.493339 1.781377 0.000036)
(-0.929838 -2.036825 0.000055)
(0.045610 0.209961 0.000055)
(-0.477589 -0.811238 0.000055)
(-0.146880 0.017671 0.000055)
(-1.879023 -2.795749 0.000055)
(-1.294019 -2.216459 0.000055)
(2.304170 3.014609 0.000055)
(2.707798 3.534089 0.000055)
(1.917722 2.381821 0.000055)
(1.855842 2.202851 0.000055)
(1.664524 1.908821 0.000055)
(1.813539 1.956499 0.000055)
(2.361548 2.348608 0.000055)
(3.643427 3.249739 0.000055)
(5.743574 4.648882 0.000055)
(7.279399 5.477455 0.000055)
(10.427907 7.159970 0.000055)
(19.408601 12.164667 0.000055)
(25.187770 14.810705 0.000055)
(27.988856 15.046146 0.000055)
(40.753604 19.688121 0.000055)
(53.571637 23.488183 0.000055)
(45.748684 18.575769 0.000055)
(23.900947 11.423217 0.000055)
(39.153625 13.468505 0.000055)
(32.251893 8.653050 0.000055)
(38.834383 8.179254 0.000055)
(47.397050 8.921667 0.000055)
(56.555208 4.471700 0.000055)
(24.333747 -10.743628 0.000055)
(-262.107394 -40.637338 0.000055)
(-506.578485 -26.214809 0.000055)
(-344.175682 0.553503 0.000055)
(-73.422432 0.812370 0.000055)
(42.537897 -4.541718 0.000055)
(127.316620 -17.504813 0.000055)
(158.725310 -28.933733 0.000055)
(106.969897 -25.877326 0.000055)
(62.524382 -16.423713 0.000055)
(46.541068 -12.882328 0.000055)
(28.250395 -9.436877 0.000055)
(12.022570 -5.018350 0.000055)
(5.817508 -3.902603 0.000055)
(6.261747 -3.968167 0.000055)
(6.798948 -4.106304 0.000055)
(5.097991 -3.738587 0.000055)
(5.834749 -3.784183 0.000055)
(6.482543 -3.424981 0.000055)
(4.849366 -2.035572 0.000055)
(4.185874 -1.435679 0.000055)
(3.028994 -0.785238 0.000055)
(2.185691 -0.448899 0.000055)
(1.918618 -0.629246 0.000055)
(1.518456 -0.705867 0.000055)
(1.032848 -0.623726 0.000055)
(0.702215 -0.552111 0.000055)
(0.507551 -0.505354 0.000055)
(0.355045 -0.434712 0.000055)
(0.221702 -0.344184 0.000055)
(0.119764 -0.261734 0.000055)
(0.049248 -0.195826 0.000055)
(0.001630 -0.142286 0.000055)
(-0.028936 -0.099181 0.000055)
(-0.046666 -0.065612 0.000055)
(-0.055450 -0.039985 0.000055)
(-0.059120 -0.018939 0.000055)
(-0.064926 -0.013364 0.000036)
(-0.069816 0.000492 0.000017)
(-0.063258 0.016026 0.000017)
(-0.052031 0.014655 0.000017)
(-0.045268 0.023530 0.000017)
(-0.039874 0.034151 0.000017)
(-0.033486 0.036089 0.000017)
(-0.027233 0.032030 0.000017)
(-0.021701 0.026439 0.000017)
(-0.016766 0.020387 0.000017)
(-0.012579 0.015067 0.000017)
(-159.896044 0.012148 0.000017)
(159.895881 0.013636 0.000017)
(-0.002235 0.021971 0.000017)
(0.017234 0.021911 0.000017)
(0.014004 -0.151185 0.000017)
(-0.037480 -0.071800 -0.000337)
(-0.042229 0.116110 -0.000691)
(-0.019029 0.060763 -0.000691)
(-0.011237 0.071702 -0.000691)
(-0.007024 0.067878 -0.000691)
(-0.004773 0.055008 -0.000691)
(-0.003746 0.054056 -0.000691)
(-0.002912 0.052212 -0.000691)
(-0.002320 0.048519 -0.000691)
(-0.001635 0.040049 -0.000691)
(-0.001227 0.033860 -0.000691)
(-0.001424 0.037506 -0.000691)
(-0.001502 0.042342 -0.000691)
(-0.001384 0.048151 -0.000691)
(-0.004335 0.066326 -0.000691)
)
;
    }
}
