/*--------------------------------*- C++ -*---------------------------------*\ 
| ========                 |                                                 | 
| \      /  F ield         | OpenFOAM: The Open Source CFD Toolbox           | 
|  \    /   O peration     | Version:  v1812                                 | 
|   \  /    A nd           | Web:      www.OpenFOAM.com                      | 
|    \/     M anipulation  |                                                 | 
\*--------------------------------------------------------------------------*/ 
FoamFile
{
    version     2.0;
    format      ascii;
    class       volVectorField;
    location    "/home/james/dafoam/myRuns/bezier_coanda_opt/0.00000000001/";
    object      sens_CL_shapey;
}
// * * * * * * * * * * * * * * * * * * * * * * * * * * * * * * * * * * * * * //

dimensions      [0 0 0 0 0 0 0];
internalField   uniform (0 0 0);
boundaryField
{
    allWalls
    {
        type  wall;
        value nonuniform List<vector>
268
(
(-0.074507 0.006964 0.000059)
(-0.067112 0.014050 -0.000252)
(-0.137018 0.058070 0.000092)
(-0.166367 0.080179 0.000403)
(-0.169761 0.109488 0.000403)
(-0.069282 0.029520 0.000269)
(0.024492 -0.017157 0.000269)
(-0.088386 0.124855 0.000387)
(-0.087996 0.132162 0.000387)
(-0.061250 0.108938 0.000403)
(-0.054079 0.104448 0.000403)
(-0.034337 0.075283 0.000693)
(-0.035270 0.082780 0.001079)
(-0.030964 0.077002 0.001279)
(-0.031300 0.086061 0.000893)
(-0.030853 0.091639 0.001263)
(-0.026646 0.089223 0.002250)
(-0.025184 0.092270 0.002521)
(-0.026360 0.107547 0.002635)
(-0.025634 0.113653 0.002741)
(-0.023213 0.115776 0.003246)
(-0.022783 0.125438 0.003544)
(-0.021004 0.130535 0.003863)
(-0.019662 0.137191 0.004475)
(-0.017677 0.142470 0.004937)
(-0.016455 0.154670 0.005428)
(-0.014584 0.166295 0.005461)
(-0.012423 0.175614 0.005965)
(-0.010028 0.190797 0.006948)
(-0.007189 0.195286 0.006774)
(-0.003844 0.226677 0.006505)
(-0.000160 0.251300 0.006807)
(0.005719 0.275134 0.008282)
(0.012437 0.326985 0.007543)
(0.020178 0.359392 0.005469)
(0.027780 0.377195 0.005247)
(0.034447 0.381630 0.004715)
(0.037102 0.362551 0.004121)
(0.041147 0.364563 0.003578)
(0.044748 0.373271 0.003087)
(0.046903 0.371627 0.002646)
(0.049032 0.374532 0.002255)
(0.048722 0.358929 0.001157)
(0.040891 0.291941 0.000243)
(0.039820 0.278484 0.000243)
(0.051476 0.359349 0.000243)
(0.055264 0.383061 0.000243)
(0.054954 0.377457 0.000243)
(0.055532 0.377988 0.000243)
(0.056937 0.384274 0.000243)
(0.058691 0.387393 -0.000057)
(0.061979 0.394121 -0.000366)
(0.063907 0.397797 -0.000376)
(0.063521 0.393396 -0.000376)
(0.063819 0.393389 -0.000376)
(0.064624 0.396600 -0.000376)
(0.064157 0.391377 -0.000376)
(0.062875 0.381344 -0.000376)
(0.063280 0.384119 -0.000376)
(0.065749 0.400754 -0.000201)
(0.066233 0.403223 -0.000025)
(0.071537 0.434379 -0.000025)
(0.074361 0.450241 -0.000025)
(0.068778 0.413658 -0.000025)
(0.064321 0.383592 -0.000025)
(0.057283 0.337250 -0.000025)
(0.053140 0.311266 -0.000025)
(0.066342 0.410754 -0.000412)
(0.078866 0.486398 -0.000798)
(0.009587 -0.034671 -0.000798)
(0.001315 -0.014161 -0.000798)
(-0.002110 0.007299 -0.000798)
(-0.002898 0.008793 -0.000412)
(-0.001823 0.009329 -0.000025)
(-0.003383 0.014984 -0.000025)
(-0.006180 0.022850 -0.000025)
(-0.008956 0.030702 -0.000025)
(-0.012127 0.040170 -0.000025)
(-0.015240 0.050623 -0.000025)
(-0.019126 0.065392 -0.000025)
(-0.023002 0.080976 -0.000025)
(-0.026916 0.097492 -0.000201)
(-0.026152 0.098207 -0.000376)
(-0.021858 0.088334 -0.000376)
(-0.010869 0.061668 -0.000376)
(0.004890 0.004889 -0.000376)
(0.006618 -0.011875 -0.000376)
(-0.005376 0.032564 -0.000376)
(-0.012993 0.061550 -0.000376)
(-0.014565 0.060406 -0.000067)
(-0.018280 0.070797 0.000243)
(-0.021744 0.090504 0.000243)
(-0.024080 0.107799 0.000243)
(-0.025257 0.122126 0.000243)
(-0.025731 0.135261 0.000243)
(-0.025469 0.146813 0.000243)
(-0.024627 0.157367 0.000243)
(-0.023121 0.165924 0.000243)
(-0.021080 0.172783 0.000761)
(-0.018721 0.178701 0.001339)
(-0.016140 0.183866 0.001461)
(-0.013486 0.189613 0.001586)
(-0.010659 0.192826 0.001717)
(-0.007734 0.189451 0.001852)
(-0.004787 0.191519 0.001950)
(-0.002068 0.200876 0.001925)
(0.001668 0.198437 0.001817)
(0.003812 0.150648 0.001684)
(0.005001 0.125745 0.001512)
(0.007135 0.136882 0.001314)
(0.008327 0.128622 0.001160)
(0.007571 0.102572 0.000930)
(0.009241 0.103831 0.000801)
(0.010291 0.102424 0.000684)
(0.009159 0.079313 0.000600)
(0.010495 0.081054 0.000648)
(0.010674 0.074296 0.000298)
(0.011265 0.071317 0.000242)
(0.011238 0.066457 0.000324)
(0.009861 0.054131 0.000280)
(0.010299 0.051868 0.000397)
(0.013079 0.057779 0.000359)
(0.014626 0.058074 0.000329)
(0.015280 0.054761 0.000297)
(0.015759 0.050024 0.000264)
(0.016675 0.047030 0.000327)
(0.016173 0.040924 0.000301)
(0.014491 0.031210 0.000191)
(0.013553 0.024154 0.000174)
(0.011140 0.013188 0.000159)
(0.009910 0.005951 0.000277)
(0.011530 0.006492 0.000403)
(0.019574 0.019599 0.000403)
(0.023063 0.033635 0.000403)
(0.010341 0.026614 0.000403)
(-0.000890 0.000773 0.000403)
(0.005827 -0.012042 0.000403)
(0.034467 0.002451 0.000235)
(0.059743 0.013748 0.000062)
(0.002639 0.008465 0.000230)
(-0.013036 0.134095 -0.000798)
(0.025822 0.795556 -0.000798)
(0.018054 0.690067 -0.000798)
(0.022403 0.710201 -0.000798)
(0.031295 0.943383 -0.000798)
(0.038745 1.134421 -0.000798)
(0.044815 1.308747 -0.000798)
(0.055388 1.626023 -0.000798)
(0.078470 2.324537 -0.000798)
(0.106141 3.223027 -0.000798)
(0.111806 3.149186 -0.000798)
(0.136815 3.148144 -0.000798)
(0.673008 13.717936 -0.000798)
(1.940545 38.702787 -0.000798)
(-103.749212 -90.726489 -0.000406)
(1081.043053 -1342.219033 -0.000015)
(-74.479953 -16.369188 -0.000015)
(-2.360915 -15.089401 -0.000015)
(-84.020482 -125.757727 -0.000015)
(-988.570662 1006.654987 -0.000015)
(-80.065365 675.054522 -0.000015)
(20.101822 305.854810 -0.000015)
(20.280007 174.385350 -0.000015)
(9.610041 77.764698 -0.000015)
(5.742302 28.857723 -0.000015)
(6.900981 34.512171 -0.000015)
(2.504954 9.961125 -0.000015)
(1.611655 6.859295 -0.000015)
(0.224073 1.347731 -0.000015)
(3.471559 9.604786 -0.000015)
(0.235902 1.421257 0.000021)
(-1.889728 -4.154103 0.000057)
(-0.673691 -1.324339 0.000057)
(-1.273435 -2.376841 0.000057)
(-0.579573 -0.754124 0.000057)
(-3.250141 -4.970494 0.000057)
(-2.684710 -4.520987 0.000057)
(2.759506 3.438431 0.000057)
(3.412034 4.345197 0.000057)
(2.237120 2.698410 0.000057)
(2.138990 2.486932 0.000057)
(2.002201 2.254442 0.000057)
(2.071960 2.231371 0.000057)
(2.646445 2.636252 0.000057)
(4.548561 4.028467 0.000057)
(7.545838 6.068332 0.000057)
(9.285292 6.964266 0.000057)
(13.166855 8.985915 0.000057)
(26.209453 16.314626 0.000057)
(34.367580 20.110518 0.000057)
(34.284691 18.456893 0.000057)
(45.414688 21.971522 0.000057)
(67.211239 29.246435 0.000057)
(83.174978 32.373280 0.000057)
(52.963462 22.063279 0.000057)
(-55.140176 -12.811808 0.000057)
(-27.435457 -12.156085 0.000057)
(38.677356 7.218753 0.000057)
(-0.941486 0.807515 0.000057)
(-10.628313 -0.312645 0.000057)
(1.650410 0.384752 0.000057)
(-74.403848 -12.199786 0.000057)
(-342.156272 -12.207959 0.000057)
(-510.198971 13.044774 0.000057)
(-317.880499 8.220598 0.000057)
(-2.490580 -7.563806 0.000057)
(124.176219 -14.094797 0.000057)
(174.248149 -30.934026 0.000057)
(207.733733 -39.709782 0.000057)
(136.427245 -31.854677 0.000057)
(71.335803 -21.454805 0.000057)
(49.703294 -16.192993 0.000057)
(28.430155 -11.493609 0.000057)
(10.226882 -6.348496 0.000057)
(6.228576 -5.486256 0.000057)
(8.009492 -5.824628 0.000057)
(6.488196 -5.057046 0.000057)
(5.364059 -4.689960 0.000057)
(6.668850 -4.695560 0.000057)
(5.963087 -3.395074 0.000057)
(4.503209 -1.993900 0.000057)
(3.550270 -1.205396 0.000057)
(2.390428 -0.501077 0.000057)
(2.331884 -0.797695 0.000057)
(2.008528 -0.979844 0.000057)
(1.396325 -0.872572 0.000057)
(0.950713 -0.765131 0.000057)
(0.702007 -0.706530 0.000057)
(0.548107 -0.653194 0.000057)
(0.429166 -0.588651 0.000057)
(0.332135 -0.528397 0.000057)
(0.229815 -0.442585 0.000057)
(0.121711 -0.327006 0.000057)
(0.042202 -0.229950 0.000057)
(-0.012877 -0.151258 0.000057)
(-0.050203 -0.086645 0.000057)
(-0.074153 -0.033968 0.000057)
(-0.093165 0.001088 0.000021)
(-0.102872 0.029082 -0.000015)
(-0.100535 0.058000 -0.000015)
(-0.094400 0.078090 -0.000015)
(-0.085525 0.089724 -0.000015)
(-0.075012 0.093875 -0.000015)
(-0.063576 0.089408 -0.000015)
(-0.051626 0.074349 -0.000015)
(-0.040311 0.054444 -0.000015)
(-0.030414 0.037591 -0.000015)
(-0.022930 0.026774 -0.000015)
(-159.878413 0.018350 -0.000015)
(159.865794 0.013504 -0.000015)
(-0.011771 0.024357 -0.000015)
(0.023720 0.012727 -0.000015)
(-0.065536 0.110487 -0.000015)
(-0.146580 0.241994 -0.000406)
(-0.059497 0.162497 -0.000798)
(-0.020544 0.069170 -0.000798)
(-0.013944 0.052893 -0.000798)
(-0.010311 0.030531 -0.000798)
(-0.007716 0.028017 -0.000798)
(-0.005630 0.019499 -0.000798)
(-0.004164 0.014329 -0.000798)
(-0.003387 0.017807 -0.000798)
(-0.002284 0.013429 -0.000798)
(-0.001504 0.011113 -0.000798)
(-0.001098 0.007624 -0.000798)
(-0.000764 0.006927 -0.000798)
(-0.000345 0.008504 -0.000798)
(0.001391 -0.012269 -0.000798)
)
;
    }
}
