/*--------------------------------*- C++ -*---------------------------------*\ 
| ========                 |                                                 | 
| \      /  F ield         | OpenFOAM: The Open Source CFD Toolbox           | 
|  \    /   O peration     | Version:  v1812                                 | 
|   \  /    A nd           | Web:      www.OpenFOAM.com                      | 
|    \/     M anipulation  |                                                 | 
\*--------------------------------------------------------------------------*/ 
FoamFile
{
    version     2.0;
    format      ascii;
    class       volVectorField;
    location    "/home/james/dafoam/myRuns/bezier_coanda_opt/0.00000000001/";
    object      sens_CL_shapey;
}
// * * * * * * * * * * * * * * * * * * * * * * * * * * * * * * * * * * * * * //

dimensions      [0 0 0 0 0 0 0];
internalField   uniform (0 0 0);
boundaryField
{
    allWalls
    {
        type  wall;
        value nonuniform List<vector>
268
(
(-0.081930 0.007200 0.000085)
(-0.055286 0.009045 -0.000242)
(-0.162129 0.069283 -0.000024)
(-0.214653 0.098277 0.000303)
(-0.223870 0.142465 0.000303)
(-0.084582 0.027809 0.000159)
(0.053676 -0.044350 0.000159)
(-0.113779 0.162875 0.000280)
(-0.109826 0.168061 0.000280)
(-0.066510 0.125550 0.000303)
(-0.057606 0.117844 0.000303)
(-0.030088 0.072987 0.000594)
(-0.030739 0.077410 0.000983)
(-0.025888 0.067225 0.001188)
(-0.027863 0.078791 0.001639)
(-0.029496 0.088589 0.002101)
(-0.024071 0.081337 0.002352)
(-0.022498 0.083249 0.002632)
(-0.026210 0.107654 0.002709)
(-0.025984 0.115020 0.002788)
(-0.023096 0.115179 0.003350)
(-0.023126 0.126830 0.003680)
(-0.021375 0.132268 0.003903)
(-0.020106 0.139292 0.004433)
(-0.018054 0.144363 0.004898)
(-0.016958 0.157813 0.005390)
(-0.015164 0.171255 0.005605)
(-0.012844 0.178764 0.006243)
(-0.010393 0.194494 0.007181)
(-0.007655 0.203429 0.007646)
(-0.004132 0.230658 0.007534)
(-0.000402 0.251925 0.007396)
(0.005694 0.285384 0.008524)
(0.012756 0.343795 0.007457)
(0.021161 0.378949 0.005431)
(0.028826 0.392048 0.005198)
(0.036013 0.395985 0.004657)
(0.038856 0.376694 0.004056)
(0.042986 0.376548 0.003507)
(0.046912 0.386919 0.003010)
(0.049144 0.384369 0.002565)
(0.051783 0.390722 0.002171)
(0.054659 0.398682 0.001054)
(0.046094 0.326887 0.000120)
(0.040218 0.275751 0.000120)
(0.051815 0.353718 0.000120)
(0.058436 0.397541 0.000120)
(0.059164 0.398992 0.000120)
(0.059148 0.395300 0.000120)
(0.060226 0.399253 0.000120)
(0.062583 0.405860 -0.000123)
(0.065093 0.407939 -0.000376)
(0.067249 0.413144 -0.000386)
(0.068415 0.418427 -0.000386)
(0.067645 0.411488 -0.000386)
(0.068599 0.415362 -0.000386)
(0.067816 0.408152 -0.000386)
(0.066688 0.399165 -0.000386)
(0.067708 0.405613 -0.000386)
(0.069503 0.417791 -0.000194)
(0.070866 0.425692 -0.000002)
(0.077905 0.467049 -0.000002)
(0.077938 0.465191 -0.000002)
(0.070327 0.416405 -0.000002)
(0.066713 0.392134 -0.000002)
(0.057323 0.333479 -0.000002)
(0.053500 0.314159 -0.000002)
(0.079551 0.496496 -0.000417)
(0.102149 0.628799 -0.000831)
(-0.010461 -0.204495 -0.000831)
(0.001628 -0.016101 -0.000831)
(-0.002041 0.007330 -0.000831)
(-0.002264 0.007139 -0.000417)
(-0.001048 0.006931 -0.000002)
(-0.002690 0.012698 -0.000002)
(-0.005238 0.019628 -0.000002)
(-0.008202 0.027921 -0.000002)
(-0.011382 0.037330 -0.000002)
(-0.014657 0.047937 -0.000002)
(-0.017926 0.059989 -0.000002)
(-0.022677 0.078172 -0.000002)
(-0.025804 0.090514 -0.000194)
(-0.030107 0.109641 -0.000386)
(-0.026784 0.100087 -0.000386)
(-0.010846 0.052784 -0.000386)
(0.001585 0.017049 -0.000386)
(0.003986 0.009194 -0.000386)
(-0.004731 0.038911 -0.000386)
(-0.010742 0.052793 -0.000386)
(-0.011565 0.046013 -0.000133)
(-0.015915 0.058336 0.000120)
(-0.020437 0.081857 0.000120)
(-0.023242 0.100631 0.000120)
(-0.024681 0.115806 0.000120)
(-0.025502 0.130499 0.000120)
(-0.025471 0.143299 0.000120)
(-0.024769 0.154869 0.000120)
(-0.023317 0.164200 0.000120)
(-0.021274 0.171696 0.000665)
(-0.018860 0.178090 0.001268)
(-0.016220 0.184039 0.001387)
(-0.013456 0.190040 0.001510)
(-0.010601 0.196102 0.001638)
(-0.007504 0.187931 0.001772)
(-0.004648 0.163787 0.001870)
(-0.001196 0.206646 0.001852)
(0.002891 0.231373 0.002002)
(0.003845 0.144220 0.001915)
(0.004988 0.116108 0.001667)
(0.007506 0.137452 0.001501)
(0.008546 0.126987 0.001308)
(0.007870 0.102412 0.000964)
(0.009445 0.103327 0.000549)
(0.010292 0.100258 0.000438)
(0.009333 0.078984 0.000576)
(0.010649 0.080545 0.000731)
(0.010964 0.074943 0.000208)
(0.010996 0.068798 0.000149)
(0.009819 0.057849 0.000512)
(0.011002 0.058581 0.000465)
(0.011480 0.057020 0.000464)
(0.012259 0.053495 0.000361)
(0.014336 0.056552 0.000328)
(0.014917 0.053130 0.000354)
(0.015167 0.048037 0.000317)
(0.016214 0.045561 0.000303)
(0.015801 0.040024 0.000186)
(0.013799 0.029571 0.000054)
(0.013150 0.023216 0.000026)
(0.010620 0.012280 0.000000)
(0.009435 0.005347 0.000145)
(0.011111 0.006176 0.000303)
(0.018725 0.018392 0.000303)
(0.021307 0.030486 0.000303)
(0.008469 0.019669 0.000303)
(0.001576 -0.008433 0.000303)
(0.019014 -0.016835 0.000303)
(0.069164 0.008805 0.000303)
(0.117945 0.026345 0.000065)
(0.033910 0.015228 0.000065)
(-0.035058 -0.021864 -0.000831)
(0.041482 0.964046 -0.000831)
(0.025144 0.796270 -0.000831)
(0.023229 0.732335 -0.000831)
(0.031861 0.969091 -0.000831)
(0.040371 1.192334 -0.000831)
(0.046779 1.390489 -0.000831)
(0.057364 1.730573 -0.000831)
(0.080031 2.447861 -0.000831)
(0.106740 3.381911 -0.000831)
(0.112808 3.491731 -0.000831)
(0.131138 3.806997 -0.000831)
(0.642444 14.245139 -0.000831)
(1.778774 37.720704 -0.000831)
(-106.140382 -92.662667 -0.000428)
(1191.298187 -1404.979137 -0.000025)
(-71.727556 -17.159959 -0.000025)
(-0.632842 -16.521818 -0.000025)
(-83.924258 -127.193358 -0.000025)
(-1097.402018 1040.283682 -0.000025)
(-83.507449 734.368047 -0.000025)
(22.230684 330.424979 -0.000025)
(22.028320 187.263978 -0.000025)
(10.411168 83.502649 -0.000025)
(6.174988 30.958972 -0.000025)
(7.371175 37.092481 -0.000025)
(2.589230 10.485071 -0.000025)
(1.585415 6.990654 -0.000025)
(0.072400 1.012857 -0.000025)
(3.617602 10.055874 -0.000025)
(0.155827 1.310561 0.000016)
(-2.182478 -4.792563 0.000057)
(-0.917495 -1.823137 0.000057)
(-1.530499 -2.866709 0.000057)
(-0.714162 -0.977150 0.000057)
(-3.748907 -5.760809 0.000057)
(-3.221794 -5.414942 0.000057)
(2.905402 3.536339 0.000057)
(3.664845 4.607885 0.000057)
(2.376271 2.807604 0.000057)
(2.279607 2.604193 0.000057)
(2.104475 2.330238 0.000057)
(2.203024 2.337152 0.000057)
(2.830179 2.785258 0.000057)
(4.886226 4.294949 0.000057)
(8.154058 6.522595 0.000057)
(10.070736 7.519335 0.000057)
(14.267951 9.702321 0.000057)
(28.489503 17.691528 0.000057)
(37.585110 21.944072 0.000057)
(37.527833 20.161556 0.000057)
(49.626538 23.962844 0.000057)
(73.570571 31.973209 0.000057)
(90.703809 35.258977 0.000057)
(58.905428 24.376378 0.000057)
(-58.770227 -13.475772 0.000057)
(-31.234441 -13.600955 0.000057)
(39.974844 7.275618 0.000057)
(-1.056653 0.909049 0.000057)
(-12.118949 -0.273998 0.000057)
(5.071245 0.851258 0.000057)
(-72.606436 -13.259721 0.000057)
(-386.824634 -16.660110 0.000057)
(-584.763395 12.696361 0.000057)
(-361.652099 10.953592 0.000057)
(-9.401499 -7.281927 0.000057)
(137.689643 -14.718793 0.000057)
(202.122191 -33.745889 0.000057)
(235.790943 -44.154646 0.000057)
(153.259349 -35.275034 0.000057)
(83.172502 -23.242035 0.000057)
(59.556205 -17.054472 0.000057)
(35.612014 -11.509431 0.000057)
(14.851549 -5.858611 0.000057)
(9.458981 -5.297384 0.000057)
(10.209896 -5.839251 0.000057)
(7.933735 -5.195278 0.000057)
(6.442031 -5.046878 0.000057)
(7.331930 -5.038328 0.000057)
(6.164117 -3.544245 0.000057)
(4.635545 -2.105212 0.000057)
(3.696090 -1.288846 0.000057)
(2.436469 -0.488949 0.000057)
(2.407596 -0.791977 0.000057)
(2.099882 -0.990298 0.000057)
(1.464599 -0.881317 0.000057)
(0.993683 -0.770599 0.000057)
(0.736058 -0.715265 0.000057)
(0.579141 -0.664261 0.000057)
(0.456920 -0.599477 0.000057)
(0.350517 -0.530693 0.000057)
(0.251230 -0.454638 0.000057)
(0.148207 -0.351440 0.000057)
(0.055969 -0.238956 0.000057)
(-0.007476 -0.149960 0.000057)
(-0.047366 -0.083704 0.000057)
(-0.074396 -0.027585 0.000057)
(-0.096676 0.010057 0.000016)
(-0.108661 0.039750 -0.000025)
(-0.107211 0.070686 -0.000025)
(-0.101494 0.092255 -0.000025)
(-0.092553 0.104589 -0.000025)
(-0.081610 0.108797 -0.000025)
(-0.069399 0.103350 -0.000025)
(-0.056402 0.086158 -0.000025)
(-0.043953 0.062763 -0.000025)
(-0.033078 0.042516 -0.000025)
(-0.025113 0.030082 -0.000025)
(-159.877335 0.020367 -0.000025)
(159.863797 0.014842 -0.000025)
(-0.013366 0.027109 -0.000025)
(0.028872 0.011463 -0.000025)
(-0.069762 0.127744 -0.000025)
(-0.166832 0.275394 -0.000428)
(-0.072306 0.177382 -0.000831)
(-0.025797 0.072625 -0.000831)
(-0.016676 0.054423 -0.000831)
(-0.011870 0.027341 -0.000831)
(-0.008753 0.026398 -0.000831)
(-0.006344 0.018965 -0.000831)
(-0.004506 0.009566 -0.000831)
(-0.003621 0.013389 -0.000831)
(-0.002398 0.010491 -0.000831)
(-0.001491 0.008354 -0.000831)
(-0.001073 0.004865 -0.000831)
(-0.000785 0.005127 -0.000831)
(-0.000390 0.007366 -0.000831)
(0.001600 -0.014499 -0.000831)
)
;
    }
}
