/*--------------------------------*- C++ -*---------------------------------*\ 
| ========                 |                                                 | 
| \      /  F ield         | OpenFOAM: The Open Source CFD Toolbox           | 
|  \    /   O peration     | Version:  v1812                                 | 
|   \  /    A nd           | Web:      www.OpenFOAM.com                      | 
|    \/     M anipulation  |                                                 | 
\*--------------------------------------------------------------------------*/ 
FoamFile
{
    version     2.0;
    format      ascii;
    class       volVectorField;
    location    "/home/james/dafoam/myRuns/bezier_coanda_opt/0.00000000001/";
    object      sens_CL_shapey;
}
// * * * * * * * * * * * * * * * * * * * * * * * * * * * * * * * * * * * * * //

dimensions      [0 0 0 0 0 0 0];
internalField   uniform (0 0 0);
boundaryField
{
    allWalls
    {
        type  wall;
        value nonuniform List<vector>
268
(
(-0.037595 0.004753 0.000745)
(-0.098075 0.027502 0.000748)
(-0.132130 0.047090 0.000750)
(-0.125395 0.068878 0.000751)
(-0.144419 0.095178 0.000753)
(-0.077650 0.044051 0.000755)
(-0.010339 0.003590 0.000758)
(-0.028509 0.052621 0.000760)
(-0.072632 0.108940 0.000763)
(-0.067485 0.107592 0.000766)
(-0.050612 0.092025 0.000770)
(-0.042089 0.082677 0.000774)
(-0.035918 0.078697 0.000778)
(-0.037776 0.088621 0.000782)
(-0.035041 0.090472 0.000787)
(-0.034418 0.098055 0.000792)
(-0.028443 0.089377 0.000797)
(-0.026583 0.092809 0.001270)
(-0.028376 0.107527 0.001742)
(-0.026466 0.110505 0.001749)
(-0.025694 0.118775 0.001756)
(-0.024408 0.124743 0.001763)
(-0.022661 0.129182 0.001771)
(-0.021248 0.135822 0.001778)
(-0.019566 0.141950 0.001785)
(-0.018058 0.150129 0.003256)
(-0.016602 0.163899 0.004931)
(-0.014757 0.176019 0.005356)
(-0.012526 0.188013 0.005796)
(-0.009758 0.197506 0.006245)
(-0.006685 0.222586 0.006697)
(-0.003003 0.245489 0.007144)
(0.002316 0.271711 0.007574)
(0.008983 0.324456 0.007975)
(0.016795 0.361425 0.006898)
(0.024883 0.375204 0.005378)
(0.031903 0.373359 0.004783)
(0.038966 0.382592 0.004124)
(0.041988 0.368350 0.003522)
(0.047199 0.367405 0.002909)
(0.051248 0.376131 0.002425)
(0.052217 0.373842 0.002069)
(0.055934 0.380605 0.001400)
(0.059213 0.382573 0.000454)
(0.061452 0.387494 0.000150)
(0.063976 0.394137 0.000022)
(0.052352 0.310851 -0.000323)
(0.045370 0.260963 -0.000398)
(0.059440 0.347159 -0.000503)
(0.066501 0.391312 -0.000563)
(0.067574 0.394899 -0.000534)
(0.069017 0.394113 -0.000505)
(0.070510 0.393670 -0.000480)
(0.071377 0.395954 -0.000524)
(0.071626 0.392157 -0.000526)
(0.071626 0.389698 -0.000529)
(0.071342 0.386540 -0.000501)
(0.072707 0.394767 -0.000490)
(0.083851 0.457353 -0.000459)
(0.088375 0.480230 -0.000335)
(0.078911 0.427298 -0.000408)
(0.072516 0.389299 -0.000390)
(0.070465 0.375585 -0.000273)
(0.069645 0.369073 -0.000347)
(0.067645 0.353269 -0.000293)
(0.062073 0.317184 -0.000142)
(0.057453 0.289861 -0.000112)
(0.065748 0.349277 -0.000457)
(0.073414 0.392934 -0.000814)
(0.019357 0.023420 -0.000814)
(0.005150 -0.037912 -0.000814)
(-0.001724 0.005808 -0.000814)
(-0.000322 -0.000512 -0.000334)
(0.002609 -0.008429 0.000026)
(0.001112 -0.004520 -0.000092)
(-0.000166 -0.001244 -0.000139)
(-0.002491 0.004591 -0.000129)
(-0.005546 0.012642 -0.000136)
(-0.009621 0.023867 -0.000206)
(-0.014754 0.038773 -0.000213)
(-0.020957 0.056695 -0.000221)
(-0.027940 0.076715 -0.000228)
(-0.035889 0.101651 -0.000067)
(-0.043633 0.129067 -0.000073)
(-0.054368 0.169071 -0.000247)
(-0.052573 0.168351 0.000013)
(-0.031362 0.118248 0.000315)
(0.002809 0.031446 0.000397)
(0.025818 -0.052124 0.000490)
(0.012614 -0.032476 0.000132)
(-0.001110 0.000272 0.000232)
(-0.001734 -0.003253 0.000784)
(-0.006864 0.017440 0.000879)
(-0.013983 0.051678 0.000980)
(-0.018773 0.081272 0.001084)
(-0.021574 0.106459 0.001192)
(-0.024089 0.128750 0.001235)
(-0.025213 0.147636 0.001279)
(-0.023664 0.161701 0.001389)
(-0.021258 0.174191 0.001493)
(-0.018224 0.184727 0.001590)
(-0.014804 0.196247 0.001679)
(-0.011124 0.206480 0.001761)
(-0.007148 0.197394 0.001836)
(-0.003762 0.170897 0.001859)
(0.000028 0.187228 0.001752)
(0.006747 0.250519 0.001534)
(0.007711 0.185240 0.001337)
(0.007060 0.119387 0.001198)
(0.010028 0.142194 0.001076)
(0.010577 0.126492 0.000968)
(0.010623 0.110525 0.000872)
(0.010878 0.100140 0.000787)
(0.011726 0.096400 0.000711)
(0.011972 0.088180 0.001153)
(0.012715 0.084425 0.001630)
(0.012516 0.076902 0.001631)
(0.010506 0.059851 0.001633)
(0.012196 0.063418 0.001635)
(0.012813 0.063561 0.001637)
(0.012916 0.057318 0.001639)
(0.015284 0.061606 0.001642)
(0.015400 0.057267 0.001644)
(0.016577 0.053795 0.001118)
(0.017851 0.051180 0.000597)
(0.017761 0.045508 0.000608)
(0.017030 0.037578 0.000619)
(0.016719 0.030655 0.000631)
(0.014201 0.019939 0.000642)
(0.010843 0.007197 0.000653)
(0.009950 0.002111 0.000663)
(0.014317 0.008514 0.000673)
(0.023567 0.025422 0.000683)
(0.023004 0.038593 0.000693)
(0.006858 0.027753 0.000702)
(-0.006144 0.001216 0.000710)
(-0.003946 -0.008376 0.000719)
(0.009538 -0.000929 0.000727)
(0.022426 0.004660 0.000734)
(-0.010935 0.003033 0.000740)
(-0.005935 0.180944 -0.000814)
(0.015377 0.677499 -0.000814)
(0.012395 0.609391 -0.000814)
(0.020819 0.675497 -0.000814)
(0.029798 0.901801 -0.000814)
(0.036722 1.074972 -0.000814)
(0.042820 1.238360 -0.000814)
(0.053372 1.540179 -0.000814)
(0.076320 2.216560 -0.000814)
(0.104099 3.087350 -0.000814)
(0.110130 2.947695 -0.000814)
(0.137080 2.794088 -0.000814)
(0.678055 13.178736 -0.000814)
(1.965999 38.339249 -0.000814)
(-101.212268 -85.220882 -0.000413)
(997.853826 -1288.054523 -0.000012)
(-76.881722 -12.787412 -0.000012)
(-3.620433 -11.806167 -0.000012)
(-82.559818 -118.603245 -0.000012)
(-906.040808 969.314342 -0.000012)
(-77.751308 626.011023 -0.000012)
(18.819812 292.835355 -0.000012)
(18.371229 162.068418 -0.000012)
(8.354067 67.797125 -0.000012)
(5.446071 28.528463 -0.000012)
(6.520772 33.280700 -0.000012)
(2.493794 10.493972 -0.000012)
(1.461950 6.201169 -0.000012)
(0.310689 1.531189 -0.000012)
(3.283765 9.041800 -0.000012)
(0.234126 1.427358 0.000025)
(-1.648037 -3.564161 0.000062)
(-0.486805 -0.829097 0.000062)
(-1.140009 -2.063849 0.000062)
(-0.475719 -0.524803 0.000062)
(-2.918723 -4.430710 0.000062)
(-2.573032 -4.277675 0.000062)
(2.450098 3.020900 0.000062)
(3.263557 4.162473 0.000062)
(2.088580 2.513680 0.000062)
(2.020062 2.345069 0.000062)
(1.858887 2.086249 0.000062)
(1.893646 2.038891 0.000062)
(2.325136 2.326700 0.000062)
(3.887715 3.466608 0.000062)
(6.475625 5.224059 0.000062)
(8.189329 6.156686 0.000062)
(11.291913 7.753010 0.000062)
(22.267248 13.883869 0.000062)
(31.326464 18.283220 0.000062)
(32.698385 17.608179 0.000062)
(40.328527 19.619768 0.000062)
(55.383968 24.341119 0.000062)
(74.071099 28.854828 0.000062)
(88.028942 32.956162 0.000062)
(-3.679003 2.919497 0.000062)
(-84.500364 -24.600661 0.000062)
(33.233796 4.144625 0.000062)
(63.051444 14.223785 0.000062)
(-1.327186 1.383774 0.000062)
(39.484786 5.365720 0.000062)
(-9.150302 -8.808266 0.000062)
(-337.249022 -25.457705 0.000062)
(-568.785549 2.479263 0.000062)
(-346.630460 15.902671 0.000062)
(-47.962286 -1.857847 0.000062)
(82.512712 -11.305832 0.000062)
(171.241853 -28.643992 0.000062)
(201.270684 -42.050769 0.000062)
(133.646477 -35.535655 0.000062)
(76.633343 -22.288379 0.000062)
(55.618855 -16.923918 0.000062)
(33.046474 -11.973719 0.000062)
(14.432906 -6.373768 0.000062)
(7.197004 -4.917315 0.000062)
(7.321654 -5.078993 0.000062)
(7.456843 -5.076422 0.000062)
(5.339938 -4.325857 0.000062)
(6.524982 -4.496760 0.000062)
(7.114520 -4.045055 0.000062)
(4.989657 -2.275346 0.000062)
(4.200621 -1.511418 0.000062)
(3.122243 -0.831208 0.000062)
(2.424559 -0.582915 0.000062)
(2.144123 -0.814575 0.000062)
(1.679854 -0.914129 0.000062)
(1.165511 -0.848218 0.000062)
(0.849025 -0.801563 0.000062)
(0.653799 -0.742070 0.000062)
(0.480944 -0.628530 0.000062)
(0.410716 -0.610908 0.000062)
(0.359666 -0.602511 0.000062)
(0.270198 -0.532462 0.000062)
(0.177285 -0.432926 0.000062)
(0.084083 -0.306858 0.000062)
(0.027276 -0.221088 0.000062)
(-0.006667 -0.162522 0.000062)
(-0.047971 -0.096748 0.000025)
(-0.085947 -0.016667 -0.000012)
(-0.097039 0.043654 -0.000012)
(-0.096491 0.076691 -0.000012)
(-0.093310 0.107273 -0.000012)
(-0.087284 0.129373 -0.000012)
(-0.075644 0.129408 -0.000012)
(-0.063225 0.123062 -0.000012)
(-0.049730 0.099052 -0.000012)
(-0.035568 0.064601 -0.000012)
(-0.024596 0.042507 -0.000012)
(-159.860765 0.027258 -0.000012)
(159.850385 0.020859 -0.000012)
(-0.021910 0.042299 -0.000012)
(0.047566 0.011964 -0.000012)
(0.005505 0.128350 -0.000012)
(-0.124420 0.378724 -0.000413)
(-0.073811 0.308257 -0.000814)
(-0.019236 0.141773 -0.000814)
(-0.012216 0.101087 -0.000814)
(-0.009034 0.034029 -0.000814)
(-0.007344 0.030097 -0.000814)
(-0.005776 0.024089 -0.000814)
(-0.003515 -0.006914 -0.000814)
(-0.002791 -0.004271 -0.000814)
(-0.001622 -0.008482 -0.000814)
(-0.000792 -0.011879 -0.000814)
(-0.000466 -0.015354 -0.000814)
(-0.000583 -0.008483 -0.000814)
(-0.000273 0.000015 -0.000814)
(0.004807 -0.038229 -0.000814)
)
;
    }
}
