/*--------------------------------*- C++ -*---------------------------------*\ 
| ========                 |                                                 | 
| \      /  F ield         | OpenFOAM: The Open Source CFD Toolbox           | 
|  \    /   O peration     | Version:  v1812                                 | 
|   \  /    A nd           | Web:      www.OpenFOAM.com                      | 
|    \/     M anipulation  |                                                 | 
\*--------------------------------------------------------------------------*/ 
FoamFile
{
    version     2.0;
    format      ascii;
    class       volVectorField;
    location    "/home/james/dafoam/myRuns/bezier_coanda_opt/0.00000000001/";
    object      sens_CL_shapey;
}
// * * * * * * * * * * * * * * * * * * * * * * * * * * * * * * * * * * * * * //

dimensions      [0 0 0 0 0 0 0];
internalField   uniform (0 0 0);
boundaryField
{
    allWalls
    {
        type  wall;
        value nonuniform List<vector>
268
(
(-0.033198 -0.019842 0.000602)
(0.042414 0.004294 0.000302)
(-0.235655 0.084453 0.000519)
(-0.385892 0.193979 0.000816)
(-0.419780 0.244445 0.000734)
(-0.057376 -0.024716 0.000697)
(0.103633 -0.094580 0.000775)
(-0.215743 0.324855 0.000874)
(-0.170886 0.264129 0.000872)
(-0.061417 0.150905 0.000806)
(-0.074017 0.169435 0.000804)
(-0.008401 0.053021 0.001127)
(-0.019993 0.068962 0.001499)
(-0.006667 0.031744 0.001646)
(-0.015828 0.054690 0.001271)
(-0.020898 0.068442 0.000797)
(-0.017921 0.066704 0.000795)
(-0.017392 0.069050 0.001624)
(-0.023466 0.103456 0.002608)
(-0.025808 0.120516 0.002929)
(-0.021658 0.114123 0.003273)
(-0.022417 0.129982 0.003642)
(-0.020947 0.137885 0.004146)
(-0.019542 0.144842 0.004673)
(-0.017550 0.151392 0.005113)
(-0.016550 0.167763 0.005468)
(-0.014397 0.178962 0.005844)
(-0.012214 0.191512 0.006345)
(-0.009805 0.212183 0.006857)
(-0.006446 0.209617 0.006686)
(-0.002637 0.247310 0.006378)
(0.001049 0.267001 0.006591)
(0.008153 0.305881 0.007882)
(0.016913 0.386060 0.007333)
(0.027126 0.429646 0.005560)
(0.034719 0.436269 0.005292)
(0.038031 0.397430 0.004728)
(0.043641 0.407924 0.004112)
(0.047278 0.411557 0.003553)
(0.049911 0.411071 0.003050)
(0.051652 0.408461 0.002603)
(0.051712 0.393363 0.002209)
(0.047261 0.348299 0.001070)
(0.047618 0.345257 0.000114)
(0.055973 0.405099 0.000114)
(0.058349 0.418965 0.000114)
(0.058825 0.418394 0.000114)
(0.060725 0.428226 0.000114)
(0.062106 0.434388 0.000114)
(0.064151 0.445355 0.000114)
(0.066097 0.455435 -0.000305)
(0.066039 0.447105 -0.000724)
(0.067436 0.449321 -0.000724)
(0.068737 0.456237 -0.000724)
(0.069202 0.457493 -0.000724)
(0.070404 0.463723 -0.000724)
(0.071074 0.466038 -0.000724)
(0.070121 0.457217 -0.000724)
(0.068707 0.446608 -0.000724)
(0.071168 0.463696 -0.000502)
(0.071229 0.465676 -0.000279)
(0.067043 0.436484 -0.000279)
(0.075345 0.488799 -0.000279)
(0.081350 0.527205 -0.000279)
(0.070903 0.456440 -0.000279)
(0.052672 0.338470 -0.000279)
(0.049885 0.335844 -0.000279)
(0.107866 0.754394 -0.000593)
(0.156718 1.051687 -0.000907)
(-0.061333 -0.655496 -0.000907)
(-0.001757 0.001240 -0.000907)
(-0.004747 0.014273 -0.000907)
(-0.005535 0.018642 -0.000593)
(-0.005991 0.023943 -0.000279)
(-0.007819 0.029817 -0.000279)
(-0.010035 0.036520 -0.000279)
(-0.012379 0.044271 -0.000279)
(-0.015246 0.054929 -0.000279)
(-0.017690 0.064534 -0.000279)
(-0.019639 0.073703 -0.000279)
(-0.018838 0.074126 -0.000279)
(-0.017514 0.071750 -0.000502)
(-0.011143 0.054874 -0.000724)
(-0.001649 0.020899 -0.000724)
(0.002030 0.000261 -0.000724)
(-0.000187 0.004735 -0.000724)
(-0.008149 0.037139 -0.000724)
(-0.012932 0.059627 -0.000724)
(-0.013628 0.063824 -0.000724)
(-0.016195 0.074171 -0.000305)
(-0.019438 0.089366 0.000114)
(-0.021213 0.103159 0.000114)
(-0.022335 0.115547 0.000114)
(-0.022932 0.126909 0.000114)
(-0.022983 0.137076 0.000114)
(-0.022597 0.146488 0.000114)
(-0.021655 0.154109 0.000114)
(-0.020306 0.160844 0.000114)
(-0.018638 0.166874 0.000662)
(-0.016705 0.171836 0.001273)
(-0.014593 0.176117 0.001402)
(-0.012367 0.180252 0.001538)
(-0.010082 0.185466 0.001682)
(-0.007633 0.188631 0.001835)
(-0.005075 0.183659 0.001959)
(-0.002432 0.190230 0.001972)
(0.000232 0.187088 0.001841)
(0.002112 0.144596 0.001664)
(0.003521 0.121153 0.001516)
(0.005184 0.125474 0.001335)
(0.006680 0.121880 0.001323)
(0.007114 0.106728 0.001178)
(0.007382 0.094675 0.000977)
(0.008750 0.095074 0.001031)
(0.008924 0.085215 0.000823)
(0.008624 0.073768 0.000558)
(0.009611 0.072245 0.000645)
(0.010092 0.068999 0.000569)
(0.009745 0.061771 0.000503)
(0.009014 0.052712 0.000440)
(0.009243 0.049873 0.000208)
(0.011308 0.053578 0.000338)
(0.012145 0.051265 0.000612)
(0.012989 0.049506 0.000733)
(0.012824 0.044927 0.000740)
(0.013134 0.041067 0.000746)
(0.014253 0.039708 0.000536)
(0.012233 0.029489 0.000248)
(0.011721 0.023450 0.000224)
(0.008779 0.012402 0.000263)
(0.008599 0.006657 0.000242)
(0.009171 0.005490 0.000317)
(0.014067 0.011987 0.000397)
(0.016811 0.020475 0.000387)
(0.004231 0.002505 0.000592)
(0.006818 -0.032942 0.000804)
(0.058837 -0.035758 0.000808)
(0.201856 0.033805 0.000580)
(0.298172 0.077240 0.000346)
(-0.012461 0.030348 0.000581)
(-0.088155 -0.424385 -0.000907)
(0.084296 1.485987 -0.000907)
(0.045792 1.118146 -0.000907)
(0.025611 0.783871 -0.000907)
(0.034014 1.073184 -0.000907)
(0.046637 1.406855 -0.000907)
(0.053536 1.651897 -0.000907)
(0.064061 2.063736 -0.000907)
(0.086040 2.846972 -0.000907)
(0.110712 3.896098 -0.000907)
(0.117600 4.491235 -0.000907)
(0.119725 5.678308 -0.000907)
(0.572304 16.076310 -0.000907)
(1.400504 36.107616 -0.000907)
(-115.366062 -102.110470 -0.000479)
(1534.358602 -1620.584734 -0.000052)
(-67.323364 -21.764626 -0.000052)
(3.482002 -22.677374 -0.000052)
(-86.535544 -137.367868 -0.000052)
(-1433.406303 1167.824176 -0.000052)
(-96.289782 918.980614 -0.000052)
(28.798980 407.697783 -0.000052)
(27.622847 228.943225 -0.000052)
(12.951017 102.236242 -0.000052)
(7.497943 37.160760 -0.000052)
(8.785036 44.475799 -0.000052)
(2.839963 11.817574 -0.000052)
(1.541511 7.637466 -0.000052)
(-0.375116 0.132526 -0.000052)
(4.141269 11.695227 -0.000052)
(-0.131668 0.867663 0.000003)
(-3.175097 -7.008371 0.000059)
(-1.691012 -3.484273 0.000059)
(-2.327929 -4.434222 0.000059)
(-1.077601 -1.618977 0.000059)
(-5.357377 -8.304992 0.000059)
(-4.652598 -7.841632 0.000059)
(3.622412 4.288378 0.000059)
(4.456984 5.490649 0.000059)
(2.914385 3.347398 0.000059)
(2.805039 3.132622 0.000059)
(2.625600 2.846158 0.000059)
(2.793937 2.912967 0.000059)
(3.711808 3.589108 0.000059)
(6.771138 5.863076 0.000059)
(11.429277 9.055362 0.000059)
(13.763959 10.198189 0.000059)
(19.627283 13.228005 0.000059)
(39.970191 24.710524 0.000059)
(51.375933 29.932571 0.000059)
(49.742929 26.613405 0.000059)
(65.377490 31.426869 0.000059)
(96.441904 41.687008 0.000059)
(119.567304 46.220865 0.000059)
(66.558264 28.674324 0.000059)
(-90.877224 -22.472987 0.000059)
(-77.335826 -28.217927 0.000059)
(26.509332 2.692975 0.000059)
(-21.723941 -2.150426 0.000059)
(-59.097952 -8.790750 0.000059)
(-57.975125 -8.878269 0.000059)
(-193.900092 -24.030325 0.000059)
(-489.409587 -3.246350 0.000059)
(-663.268329 30.580859 0.000059)
(-393.875296 8.056613 0.000059)
(66.555164 -10.190510 0.000059)
(260.097165 -21.247735 0.000059)
(284.278013 -42.796926 0.000059)
(281.227685 -47.990806 0.000059)
(194.467881 -39.015155 0.000059)
(102.774469 -27.285205 0.000059)
(71.081664 -19.368736 0.000059)
(39.401383 -12.446974 0.000059)
(14.619746 -6.656502 0.000059)
(9.995184 -6.284706 0.000059)
(12.498868 -7.401819 0.000059)
(9.174499 -6.411419 0.000059)
(6.195105 -5.336463 0.000059)
(7.804700 -5.442272 0.000059)
(7.416234 -4.239571 0.000059)
(5.211528 -2.336071 0.000059)
(3.631155 -1.119242 0.000059)
(2.287577 -0.244395 0.000059)
(2.387977 -0.693440 0.000059)
(2.065265 -0.941522 0.000059)
(1.348289 -0.805439 0.000059)
(0.859891 -0.687323 0.000059)
(0.625606 -0.643857 0.000059)
(0.488855 -0.599646 0.000059)
(0.359713 -0.515922 0.000059)
(0.228326 -0.406997 0.000059)
(0.113451 -0.300054 0.000059)
(0.022593 -0.203841 0.000059)
(-0.042607 -0.122661 0.000059)
(-0.084501 -0.058232 0.000059)
(-0.109154 -0.007377 0.000059)
(-0.121582 0.032267 0.000059)
(-0.131073 0.052083 0.000003)
(-0.132300 0.065463 -0.000052)
(-0.121762 0.082730 -0.000052)
(-0.109423 0.092863 -0.000052)
(-0.095962 0.095883 -0.000052)
(-0.082471 0.093889 -0.000052)
(-0.069067 0.084177 -0.000052)
(-0.055782 0.065445 -0.000052)
(-0.044497 0.047560 -0.000052)
(-0.035374 0.034067 -0.000052)
(-0.028305 0.024783 -0.000052)
(-159.889553 0.017463 -0.000052)
(159.873427 0.014250 -0.000052)
(-0.012028 0.025141 -0.000052)
(0.019808 0.015555 -0.000052)
(-0.087551 0.084414 -0.000052)
(-0.178991 0.181137 -0.000479)
(-0.082654 0.118115 -0.000907)
(-0.034871 0.049224 -0.000907)
(-0.022376 0.043385 -0.000907)
(-0.015138 0.032178 -0.000907)
(-0.010751 0.029908 -0.000907)
(-0.007982 0.028233 -0.000907)
(-0.006106 0.026782 -0.000907)
(-0.004817 0.025674 -0.000907)
(-0.003315 0.024058 -0.000907)
(-0.002302 0.022454 -0.000907)
(-0.002072 0.020235 -0.000907)
(-0.001695 0.018012 -0.000907)
(-0.001168 0.018635 -0.000907)
(-0.000328 0.004614 -0.000907)
)
;
    }
}
