/*--------------------------------*- C++ -*---------------------------------*\ 
| ========                 |                                                 | 
| \      /  F ield         | OpenFOAM: The Open Source CFD Toolbox           | 
|  \    /   O peration     | Version:  v1812                                 | 
|   \  /    A nd           | Web:      www.OpenFOAM.com                      | 
|    \/     M anipulation  |                                                 | 
\*--------------------------------------------------------------------------*/ 
FoamFile
{
    version     2.0;
    format      ascii;
    class       volVectorField;
    location    "/home/james/dafoam/myRuns/bezier_coanda_opt/0.00000000001/";
    object      sens_CL_shapey;
}
// * * * * * * * * * * * * * * * * * * * * * * * * * * * * * * * * * * * * * //

dimensions      [0 0 0 0 0 0 0];
internalField   uniform (0 0 0);
boundaryField
{
    allWalls
    {
        type  wall;
        value nonuniform List<vector>
268
(
(-0.046197 0.011952 0.000125)
(-0.296486 0.093404 -0.000128)
(-0.381475 0.149977 0.000158)
(-0.293987 0.176799 0.000411)
(-0.044396 -0.027301 0.000411)
(0.084454 -0.055419 0.000411)
(-0.138288 0.203989 0.000411)
(-0.117797 0.191594 0.000411)
(-0.057115 0.116173 0.000411)
(-0.056781 0.128291 0.000411)
(-0.029064 0.074513 0.000411)
(-0.018037 0.056919 0.000735)
(-0.025792 0.068140 0.001149)
(-0.019201 0.056358 0.001337)
(-0.025310 0.074253 0.001539)
(-0.018974 0.064085 0.001949)
(-0.022238 0.081681 0.002341)
(-0.021923 0.088707 0.002524)
(-0.023674 0.105754 0.002647)
(-0.023489 0.117082 0.002858)
(-0.021140 0.117614 0.003160)
(-0.019407 0.121498 0.003294)
(-0.018288 0.128864 0.003674)
(-0.016747 0.135901 0.004036)
(-0.015126 0.143193 0.004231)
(-0.013461 0.157454 0.004630)
(-0.011334 0.166035 0.005043)
(-0.008829 0.173186 0.005255)
(-0.006664 0.191191 0.005684)
(-0.003896 0.206737 0.005982)
(-0.000765 0.228090 0.006401)
(0.002782 0.246743 0.007142)
(0.007248 0.277775 0.007848)
(0.012677 0.322715 0.006724)
(0.018194 0.359735 0.005108)
(0.022731 0.373714 0.004939)
(0.026642 0.374540 0.004479)
(0.026500 0.328618 0.003956)
(0.024838 0.274668 0.003474)
(0.030718 0.323012 0.003034)
(0.037321 0.378640 0.002636)
(0.039097 0.377091 0.001378)
(0.041181 0.379047 0.000309)
(0.043119 0.380970 0.000309)
(0.044870 0.381658 0.000309)
(0.047510 0.390578 0.000309)
(0.049840 0.397217 0.000309)
(0.052031 0.403139 0.000309)
(0.053889 0.406996 0.000309)
(0.055509 0.409580 0.000309)
(0.058674 0.416193 -0.000132)
(0.061444 0.420298 -0.000574)
(0.063034 0.423726 -0.000574)
(0.064203 0.424683 -0.000574)
(0.065661 0.427788 -0.000574)
(0.066656 0.428116 -0.000574)
(0.067305 0.426500 -0.000574)
(0.068301 0.428155 -0.000574)
(0.079066 0.492923 -0.000574)
(0.081251 0.503539 -0.000377)
(0.072084 0.441618 -0.000181)
(0.071284 0.432276 -0.000181)
(0.070889 0.425311 -0.000181)
(0.071049 0.421819 -0.000181)
(0.068781 0.403133 -0.000181)
(0.058412 0.338151 -0.000181)
(0.054818 0.321128 -0.000181)
(0.088014 0.541030 -0.000486)
(0.116654 0.700984 -0.000792)
(-0.021544 -0.306816 -0.000792)
(-0.007751 0.073335 -0.000792)
(-0.007537 0.045342 -0.000792)
(-0.007471 0.050315 -0.000486)
(-0.005440 0.043359 -0.000181)
(-0.005356 0.040771 -0.000181)
(-0.004372 0.034861 -0.000181)
(-0.004888 0.038001 -0.000181)
(-0.004497 0.038210 -0.000181)
(-0.003917 0.034899 -0.000181)
(-0.004324 0.037497 -0.000181)
(-0.006214 0.049465 -0.000181)
(-0.007608 0.058403 -0.000377)
(-0.007977 0.060940 -0.000574)
(-0.008574 0.064993 -0.000574)
(-0.009467 0.071145 -0.000574)
(-0.010386 0.077755 -0.000574)
(-0.011257 0.084358 -0.000574)
(-0.012037 0.090647 -0.000574)
(-0.013734 0.097256 -0.000573)
(-0.015480 0.103905 -0.000132)
(-0.016196 0.110245 0.000309)
(-0.016706 0.116339 0.000309)
(-0.017105 0.122095 0.000309)
(-0.017421 0.127774 0.000309)
(-0.017646 0.133311 0.000309)
(-0.017678 0.137896 0.000309)
(-0.017650 0.142686 0.000309)
(-0.017550 0.147582 0.000806)
(-0.017266 0.151714 0.001371)
(-0.016941 0.156627 0.001511)
(-0.016208 0.158352 0.001654)
(-0.016340 0.172100 0.001799)
(-0.016491 0.188408 0.001944)
(-0.013780 0.170171 0.002090)
(-0.011539 0.161836 0.002185)
(-0.010902 0.183245 0.002136)
(-0.007980 0.171718 0.001972)
(-0.004579 0.154714 0.002140)
(-0.002408 0.149984 0.002242)
(-0.000359 0.126711 0.001601)
(0.001511 0.115843 0.001339)
(0.003081 0.106941 0.001160)
(0.004731 0.099491 0.000688)
(0.006438 0.098832 0.000675)
(0.007589 0.091703 0.000721)
(0.008634 0.087513 0.000504)
(0.008624 0.075207 0.000467)
(0.009721 0.072838 0.000395)
(0.010110 0.068102 0.000417)
(0.009196 0.054917 0.000679)
(0.009895 0.053740 0.000344)
(0.012235 0.057314 0.000350)
(0.013577 0.056104 0.000696)
(0.014346 0.053295 0.000704)
(0.014695 0.049378 0.000419)
(0.014944 0.044830 0.000113)
(0.015112 0.040570 0.000414)
(0.013308 0.030700 0.000738)
(0.013086 0.025512 0.000746)
(0.010052 0.014375 0.000580)
(0.010091 0.009263 0.000411)
(0.011527 0.009389 0.000411)
(0.016534 0.016667 0.000411)
(0.018639 0.025817 0.000068)
(0.005730 0.012262 0.000068)
(0.001336 -0.018724 0.000411)
(0.031686 -0.030611 0.000411)
(0.124671 0.011932 -0.000201)
(0.221036 0.046311 -0.000509)
(0.102872 0.024717 0.000103)
(-0.047907 -0.107979 -0.000792)
(0.050042 1.064510 -0.000792)
(0.028773 0.855332 -0.000792)
(0.024127 0.745527 -0.000792)
(0.033001 0.989861 -0.000792)
(0.042322 1.232231 -0.000792)
(0.049010 1.440926 -0.000792)
(0.059865 1.794465 -0.000792)
(0.082837 2.527920 -0.000792)
(0.109519 3.481804 -0.000792)
(0.115358 3.652093 -0.000792)
(0.130425 4.091901 -0.000792)
(0.632512 14.573136 -0.000792)
(1.708697 37.477550 -0.000792)
(-108.597627 -89.090535 -0.000410)
(1272.244922 -1467.830043 -0.000027)
(-75.101933 -14.002260 -0.000027)
(-1.381929 -14.390109 -0.000027)
(-85.420796 -122.330736 -0.000027)
(-1173.330756 1076.578090 -0.000027)
(-88.677556 770.903084 -0.000027)
(23.035013 347.072457 -0.000027)
(22.802324 194.752267 -0.000027)
(10.697219 85.992095 -0.000027)
(6.299056 32.750786 -0.000027)
(7.541028 39.781198 -0.000027)
(2.302644 10.628639 -0.000027)
(1.347493 6.564826 -0.000027)
(-0.126427 0.677668 -0.000027)
(3.501004 9.789487 -0.000027)
(0.050396 1.178927 0.000015)
(-2.383477 -5.126372 0.000057)
(-1.076034 -1.981216 0.000057)
(-1.658044 -2.999657 0.000057)
(-0.855090 -1.109599 0.000057)
(-3.996372 -6.121097 0.000057)
(-3.267955 -5.485607 0.000057)
(3.084085 3.767392 0.000057)
(3.800851 4.786014 0.000057)
(2.546193 3.003679 0.000057)
(2.546304 2.915175 0.000057)
(2.454832 2.700054 0.000057)
(2.665450 2.802369 0.000057)
(3.466852 3.360018 0.000057)
(6.188750 5.368755 0.000057)
(10.185564 8.080383 0.000057)
(12.174771 9.024628 0.000057)
(17.195095 11.595331 0.000057)
(34.293400 21.228328 0.000057)
(43.677693 25.481244 0.000057)
(42.400310 22.717931 0.000057)
(55.657433 26.804342 0.000057)
(81.524874 35.269074 0.000057)
(102.605289 39.794072 0.000057)
(47.700328 21.579953 0.000057)
(-75.403166 -18.828920 0.000057)
(-13.281587 -6.857124 0.000057)
(78.257524 18.001522 0.000057)
(-13.377131 -4.639579 0.000057)
(-61.067340 -18.788213 0.000057)
(-185.492292 -43.429147 0.000057)
(-378.876298 -47.725689 0.000057)
(-369.364065 19.989076 0.000057)
(-383.958523 35.987616 0.000057)
(-185.958725 -2.094440 0.000057)
(109.499511 -8.692815 0.000057)
(214.785563 -24.676121 0.000057)
(258.766426 -45.038689 0.000057)
(164.426756 -39.524087 0.000057)
(99.956322 -23.972643 0.000057)
(71.954131 -17.644776 0.000057)
(43.672264 -12.052234 0.000057)
(20.541021 -5.955744 0.000057)
(10.930866 -4.882955 0.000057)
(10.292573 -5.261419 0.000057)
(10.307225 -5.511479 0.000057)
(6.884468 -4.750246 0.000057)
(5.369695 -3.861459 0.000057)
(7.732653 -4.434715 0.000057)
(7.282273 -3.579831 0.000057)
(4.973934 -1.929870 0.000057)
(3.087951 -0.701376 0.000057)
(1.798146 0.043716 0.000057)
(1.920023 -0.416806 0.000057)
(1.676013 -0.664493 0.000057)
(1.080704 -0.556985 0.000057)
(0.675079 -0.472383 0.000057)
(0.465567 -0.446326 0.000057)
(0.306013 -0.388091 0.000057)
(0.162982 -0.296546 0.000057)
(0.057466 -0.213007 0.000057)
(-0.009916 -0.149767 0.000057)
(-0.051534 -0.100425 0.000057)
(-0.075668 -0.061550 0.000057)
(-0.086981 -0.032629 0.000057)
(-0.090429 -0.010132 0.000057)
(-0.087690 0.004435 0.000057)
(-0.093947 0.015782 0.000015)
(-0.093849 0.020492 -0.000027)
(-0.078059 0.021144 -0.000027)
(-0.067744 0.031176 -0.000027)
(-0.059221 0.041365 -0.000027)
(-0.051013 0.047546 -0.000027)
(-0.043746 0.049772 -0.000027)
(-0.036721 0.046062 -0.000027)
(-0.029445 0.038007 -0.000027)
(-0.022439 0.027888 -0.000027)
(-0.016865 0.019614 -0.000027)
(-159.904165 0.014792 -0.000027)
(159.902491 0.016703 -0.000027)
(-0.002541 0.027719 -0.000027)
(0.021276 0.031730 -0.000027)
(0.018491 -0.204459 -0.000027)
(-0.045972 -0.104003 -0.000410)
(-0.053510 0.148207 -0.000792)
(-0.023412 0.066888 -0.000792)
(-0.012897 0.070570 -0.000792)
(-0.007858 0.065080 -0.000792)
(-0.005651 0.056717 -0.000792)
(-0.004506 0.058107 -0.000792)
(-0.003476 0.055663 -0.000792)
(-0.002821 0.050933 -0.000792)
(-0.002076 0.048142 -0.000792)
(-0.001281 0.036089 -0.000792)
(-0.001288 0.029788 -0.000792)
(-0.001709 0.040406 -0.000792)
(-0.001670 0.051826 -0.000792)
(-0.006491 0.088026 -0.000792)
)
;
    }
}
