/*--------------------------------*- C++ -*---------------------------------*\ 
| ========                 |                                                 | 
| \      /  F ield         | OpenFOAM: The Open Source CFD Toolbox           | 
|  \    /   O peration     | Version:  v1812                                 | 
|   \  /    A nd           | Web:      www.OpenFOAM.com                      | 
|    \/     M anipulation  |                                                 | 
\*--------------------------------------------------------------------------*/ 
FoamFile
{
    version     2.0;
    format      ascii;
    class       volVectorField;
    location    "/home/james/dafoam/myRuns/bezier_coanda_opt/0.00000000001/";
    object      sens_CL_shapey;
}
// * * * * * * * * * * * * * * * * * * * * * * * * * * * * * * * * * * * * * //

dimensions      [0 0 0 0 0 0 0];
internalField   uniform (0 0 0);
boundaryField
{
    allWalls
    {
        type  wall;
        value nonuniform List<vector>
268
(
(-0.017038 0.002971 0.000039)
(-0.103974 0.031145 -0.000286)
(-0.157819 0.053175 0.000073)
(-0.152989 0.083523 0.000398)
(-0.184170 0.118676 0.000398)
(-0.087588 0.044922 0.000398)
(-0.003994 -0.005094 0.000398)
(-0.032150 0.064340 0.000376)
(-0.084787 0.131218 0.000228)
(-0.073160 0.121921 0.000250)
(-0.051239 0.098995 0.000398)
(-0.039799 0.082888 0.000691)
(-0.032455 0.075038 0.001082)
(-0.034184 0.082541 0.001388)
(-0.032055 0.084963 0.001611)
(-0.033157 0.096027 0.001845)
(-0.026629 0.084996 0.002084)
(-0.024458 0.087043 0.002278)
(-0.027639 0.107481 0.002552)
(-0.026363 0.112537 0.002888)
(-0.025001 0.118672 0.003384)
(-0.023979 0.125772 0.003643)
(-0.022250 0.130217 0.003990)
(-0.020927 0.137548 0.004373)
(-0.019277 0.144462 0.004617)
(-0.017741 0.153291 0.005319)
(-0.015853 0.162764 0.005759)
(-0.014022 0.176181 0.006330)
(-0.012069 0.193996 0.007238)
(-0.009130 0.200695 0.007818)
(-0.005937 0.226721 0.008417)
(-0.002211 0.246383 0.008301)
(0.003412 0.276074 0.008054)
(0.010178 0.334464 0.007053)
(0.018206 0.369126 0.005877)
(0.026717 0.386996 0.005631)
(0.033401 0.381685 0.005063)
(0.040106 0.388948 0.004431)
(0.042452 0.371084 0.003854)
(0.046724 0.374367 0.003331)
(0.050554 0.383427 0.002862)
(0.052797 0.381268 0.002448)
(0.055814 0.389556 0.001322)
(0.057396 0.388659 0.000390)
(0.060939 0.401893 0.000389)
(0.049425 0.317954 0.000387)
(0.043132 0.270016 0.000386)
(0.056688 0.352929 0.000385)
(0.064178 0.398267 0.000384)
(0.065164 0.401089 0.000382)
(0.067070 0.403078 -0.000093)
(0.069237 0.400747 -0.000567)
(0.070991 0.402384 -0.000568)
(0.071746 0.404226 -0.000568)
(0.071739 0.401663 -0.000568)
(0.071579 0.398211 -0.000568)
(0.070978 0.392786 -0.000568)
(0.071490 0.395415 -0.000568)
(0.074350 0.412279 -0.000568)
(0.084909 0.471506 -0.000376)
(0.085345 0.472076 -0.000184)
(0.074546 0.408360 -0.000184)
(0.072621 0.395199 -0.000184)
(0.072161 0.390394 -0.000184)
(0.069036 0.370335 -0.000184)
(0.061036 0.323006 -0.000184)
(0.056659 0.298911 -0.000184)
(0.073129 0.409413 -0.000505)
(0.087356 0.488889 -0.000825)
(0.005962 -0.076543 -0.000825)
(0.004088 -0.030135 -0.000825)
(-0.000909 0.005145 -0.000825)
(-0.000138 -0.000012 -0.000505)
(0.002368 -0.005400 -0.000184)
(0.001250 -0.001211 -0.000184)
(-0.000387 0.003011 -0.000184)
(-0.002982 0.009649 -0.000184)
(-0.006313 0.018750 -0.000184)
(-0.010485 0.030776 -0.000184)
(-0.015436 0.045363 -0.000184)
(-0.020950 0.061883 -0.000184)
(-0.026367 0.079472 -0.000376)
(-0.032949 0.102644 -0.000568)
(-0.041856 0.135019 -0.000568)
(-0.043125 0.144641 -0.000568)
(-0.041485 0.147774 -0.000568)
(-0.017871 0.094715 -0.000568)
(0.020131 -0.030044 -0.000568)
(0.025469 -0.078726 -0.000568)
(0.003840 -0.019130 -0.000089)
(-0.011925 0.033430 0.000391)
(-0.013626 0.040295 0.000393)
(-0.016792 0.056410 0.000396)
(-0.021233 0.081826 0.000398)
(-0.024278 0.105392 0.000400)
(-0.025904 0.126160 0.000402)
(-0.026100 0.143266 0.000404)
(-0.025179 0.157461 0.000405)
(-0.023260 0.168805 0.000940)
(-0.020616 0.178019 0.001532)
(-0.017578 0.187154 0.001649)
(-0.014327 0.197421 0.001768)
(-0.010785 0.204452 0.001891)
(-0.007044 0.195297 0.002020)
(-0.003796 0.171507 0.002112)
(-0.000180 0.189065 0.002084)
(0.005546 0.237480 0.002023)
(0.006590 0.173049 0.001697)
(0.006850 0.123308 0.001286)
(0.010061 0.148477 0.001268)
(0.010074 0.125126 0.001258)
(0.009895 0.106431 0.000889)
(0.010428 0.099721 0.000550)
(0.010887 0.092719 0.000448)
(0.011584 0.087531 0.000544)
(0.012339 0.083910 0.000644)
(0.011918 0.074778 0.000477)
(0.010533 0.061026 0.000405)
(0.011664 0.062015 0.000352)
(0.012625 0.063131 0.000295)
(0.012672 0.057233 0.000316)
(0.014473 0.059064 0.000212)
(0.015105 0.056083 0.000171)
(0.015668 0.051898 0.000191)
(0.016392 0.048799 0.000156)
(0.017717 0.046943 0.000080)
(0.016815 0.039438 0.000010)
(0.015074 0.029047 -0.000011)
(0.013780 0.020782 0.000007)
(0.010880 0.009032 0.000217)
(0.009658 0.003003 0.000398)
(0.013082 0.007595 0.000398)
(0.021634 0.022723 0.000398)
(0.021965 0.035070 0.000398)
(0.007056 0.023733 0.000398)
(-0.002915 -0.002997 0.000398)
(0.005776 -0.010896 0.000398)
(0.030998 0.002692 0.000398)
(0.055636 0.011653 0.000110)
(0.009404 0.006295 0.000110)
(-0.019416 0.091656 -0.000825)
(0.026881 0.794294 -0.000825)
(0.017954 0.685537 -0.000825)
(0.021954 0.697331 -0.000825)
(0.030729 0.926541 -0.000825)
(0.038300 1.120659 -0.000825)
(0.044557 1.299207 -0.000825)
(0.055128 1.616948 -0.000825)
(0.077898 2.309541 -0.000825)
(0.105126 3.206268 -0.000825)
(0.111139 3.176333 -0.000825)
(0.133948 3.224490 -0.000825)
(0.661597 13.606078 -0.000825)
(1.878834 37.975261 -0.000825)
(-103.180104 -87.738626 -0.000422)
(1077.907100 -1335.649292 -0.000018)
(-74.738119 -14.100940 -0.000018)
(-2.385030 -13.361013 -0.000018)
(-82.965225 -121.306366 -0.000018)
(-985.215695 996.424668 -0.000018)
(-80.107671 670.123391 -0.000018)
(20.474454 311.419873 -0.000018)
(19.680910 171.742865 -0.000018)
(8.948306 72.018266 -0.000018)
(5.782000 30.006341 -0.000018)
(6.865695 34.858825 -0.000018)
(2.610546 10.902727 -0.000018)
(1.479145 6.394206 -0.000018)
(0.226791 1.353051 -0.000018)
(3.428140 9.468456 -0.000018)
(0.177485 1.335047 0.000021)
(-1.863144 -4.054524 0.000059)
(-0.649390 -1.187571 0.000059)
(-1.315037 -2.414126 0.000059)
(-0.570053 -0.694931 0.000059)
(-3.265810 -4.986009 0.000059)
(-2.873273 -4.792967 0.000059)
(2.603092 3.176499 0.000059)
(3.431594 4.344741 0.000059)
(2.193375 2.611510 0.000059)
(2.116365 2.434387 0.000059)
(1.937298 2.156870 0.000059)
(1.995464 2.131267 0.000059)
(2.485064 2.467367 0.000059)
(4.199965 3.721854 0.000059)
(7.025985 5.645100 0.000059)
(8.826040 6.614459 0.000059)
(12.217535 8.358828 0.000059)
(24.243506 15.088061 0.000059)
(33.721006 19.664221 0.000059)
(34.933556 18.780175 0.000059)
(43.153334 20.958429 0.000059)
(59.101684 25.927387 0.000059)
(79.197474 30.785848 0.000059)
(92.944676 34.886728 0.000059)
(-9.294402 1.417352 0.000059)
(-98.507486 -28.922290 0.000059)
(31.976980 3.585014 0.000059)
(63.273886 14.792675 0.000059)
(-9.073791 0.152036 0.000059)
(34.398484 4.721989 0.000059)
(-21.587279 -10.145068 0.000059)
(-365.773141 -25.554162 0.000059)
(-598.579197 4.488890 0.000059)
(-355.749967 16.630991 0.000059)
(-36.841054 -2.471710 0.000059)
(98.559728 -12.339262 0.000059)
(187.334891 -30.262948 0.000059)
(217.916857 -43.322541 0.000059)
(144.633644 -36.340823 0.000059)
(81.580696 -22.947404 0.000059)
(58.328505 -17.311557 0.000059)
(34.425681 -12.201516 0.000059)
(14.730196 -6.430599 0.000059)
(7.912810 -5.200990 0.000059)
(7.953142 -5.274736 0.000059)
(7.380271 -5.012377 0.000059)
(5.844980 -4.563847 0.000059)
(7.435414 -4.899958 0.000059)
(7.357804 -4.066123 0.000059)
(4.736853 -2.005652 0.000059)
(4.216493 -1.436834 0.000059)
(3.225219 -0.849042 0.000059)
(2.443601 -0.574929 0.000059)
(2.123915 -0.801777 0.000059)
(1.650838 -0.904512 0.000059)
(1.138230 -0.839686 0.000059)
(0.819549 -0.787251 0.000059)
(0.630070 -0.732576 0.000059)
(0.443374 -0.597707 0.000059)
(0.417567 -0.642673 0.000059)
(0.335441 -0.583816 0.000059)
(0.185742 -0.423429 0.000059)
(0.165804 -0.436439 0.000059)
(0.074498 -0.308186 0.000059)
(0.006310 -0.201743 0.000059)
(-0.035407 -0.116897 0.000059)
(-0.092283 -0.012277 0.000021)
(-0.104453 0.009522 -0.000018)
(-0.104515 0.046032 -0.000018)
(-0.106850 0.093211 -0.000018)
(-0.097467 0.103901 -0.000018)
(-0.086811 0.112092 -0.000018)
(-0.077901 0.126952 -0.000018)
(-0.064299 0.114651 -0.000018)
(-0.049728 0.086197 -0.000018)
(-0.036284 0.057867 -0.000018)
(-0.025592 0.038529 -0.000018)
(-159.866135 0.025337 -0.000018)
(159.855078 0.019172 -0.000018)
(-0.018456 0.037307 -0.000018)
(0.043223 0.010552 -0.000018)
(-0.028380 0.140707 -0.000018)
(-0.148459 0.362685 -0.000422)
(-0.073077 0.270241 -0.000825)
(-0.021477 0.120011 -0.000825)
(-0.013250 0.086112 -0.000825)
(-0.009344 0.029501 -0.000825)
(-0.007187 0.025235 -0.000825)
(-0.005469 0.022372 -0.000825)
(-0.003363 -0.001569 -0.000825)
(-0.002561 -0.000261 -0.000825)
(-0.001454 -0.003631 -0.000825)
(-0.000681 -0.006429 -0.000825)
(-0.000395 -0.009555 -0.000825)
(-0.000422 -0.004928 -0.000825)
(-0.000153 0.001071 -0.000825)
(0.003487 -0.030477 -0.000825)
)
;
    }
}
