/*--------------------------------*- C++ -*---------------------------------*\ 
| ========                 |                                                 | 
| \      /  F ield         | OpenFOAM: The Open Source CFD Toolbox           | 
|  \    /   O peration     | Version:  v1812                                 | 
|   \  /    A nd           | Web:      www.OpenFOAM.com                      | 
|    \/     M anipulation  |                                                 | 
\*--------------------------------------------------------------------------*/ 
FoamFile
{
    version     2.0;
    format      ascii;
    class       volVectorField;
    location    "/home/james/dafoam/myRuns/bezier_coanda_opt/0.00000000001/";
    object      sens_CL_shapey;
}
// * * * * * * * * * * * * * * * * * * * * * * * * * * * * * * * * * * * * * //

dimensions      [0 0 0 0 0 0 0];
internalField   uniform (0 0 0);
boundaryField
{
    allWalls
    {
        type  wall;
        value nonuniform List<vector>
268
(
(0.004458 0.000965 0.000197)
(-0.109165 0.034567 0.000013)
(-0.184208 0.059708 0.000228)
(-0.182803 0.099511 0.000412)
(-0.225781 0.143828 0.000412)
(-0.096673 0.044727 0.000412)
(0.004452 -0.016034 0.000412)
(-0.035245 0.075895 0.000238)
(-0.096742 0.153949 -0.000219)
(-0.078901 0.137060 -0.000045)
(-0.051707 0.105919 0.000412)
(-0.037550 0.083509 0.000566)
(-0.029161 0.072000 0.000821)
(-0.030328 0.076032 0.001288)
(-0.028759 0.078862 0.001518)
(-0.032117 0.094978 0.001660)
(-0.024561 0.079749 0.002058)
(-0.022381 0.081744 0.002208)
(-0.027551 0.109508 0.002475)
(-0.026095 0.113444 0.002820)
(-0.024030 0.116179 0.003312)
(-0.023521 0.125920 0.003684)
(-0.022168 0.132625 0.003921)
(-0.020676 0.139106 0.004409)
(-0.018994 0.146263 0.004898)
(-0.017418 0.155031 0.005416)
(-0.015482 0.165193 0.005660)
(-0.013594 0.178571 0.006312)
(-0.011558 0.196959 0.007261)
(-0.008566 0.202768 0.007786)
(-0.005228 0.230533 0.008340)
(-0.001499 0.249522 0.008143)
(0.004313 0.278136 0.007783)
(0.011474 0.344250 0.006828)
(0.019907 0.383389 0.005718)
(0.027856 0.393430 0.005465)
(0.034968 0.392248 0.004898)
(0.039088 0.379182 0.004271)
(0.043626 0.380028 0.003699)
(0.047633 0.386491 0.003182)
(0.050333 0.385597 0.002718)
(0.053367 0.392155 0.002309)
(0.055261 0.392561 0.001198)
(0.058492 0.403540 0.000278)
(0.048623 0.326309 0.000277)
(0.042557 0.277329 0.000277)
(0.055240 0.357852 0.000277)
(0.062454 0.403116 0.000276)
(0.063581 0.406696 0.000276)
(0.064046 0.406173 0.000275)
(0.064520 0.399774 -0.000119)
(0.067180 0.401399 -0.000514)
(0.070119 0.410753 -0.000514)
(0.071767 0.418215 -0.000514)
(0.071272 0.412901 -0.000514)
(0.071666 0.412840 -0.000514)
(0.070853 0.405583 -0.000514)
(0.070131 0.400287 -0.000514)
(0.071741 0.410378 -0.000514)
(0.073860 0.422644 -0.000324)
(0.082687 0.473301 -0.000133)
(0.081697 0.465662 -0.000133)
(0.072654 0.410486 -0.000133)
(0.072012 0.404662 -0.000133)
(0.069012 0.384880 -0.000133)
(0.059315 0.326949 -0.000133)
(0.055248 0.306486 -0.000133)
(0.079613 0.469606 -0.000484)
(0.100436 0.587184 -0.000836)
(-0.007173 -0.177345 -0.000836)
(0.002706 -0.023261 -0.000836)
(-0.001165 0.005108 -0.000836)
(-0.000895 0.001998 -0.000484)
(0.000897 -0.000794 -0.000133)
(-0.000381 0.003988 -0.000133)
(-0.002330 0.009180 -0.000133)
(-0.004994 0.016510 -0.000133)
(-0.008265 0.025986 -0.000133)
(-0.012096 0.037075 -0.000133)
(-0.016452 0.050053 -0.000133)
(-0.020762 0.064283 -0.000133)
(-0.025474 0.081073 -0.000324)
(-0.030987 0.101443 -0.000514)
(-0.037622 0.128898 -0.000514)
(-0.033938 0.119709 -0.000514)
(-0.016139 0.071292 -0.000514)
(0.002519 0.020126 -0.000514)
(0.009366 -0.007261 -0.000514)
(-0.000877 0.021987 -0.000514)
(-0.010869 0.043498 -0.000118)
(-0.012593 0.038629 0.000278)
(-0.016017 0.054160 0.000279)
(-0.021013 0.080168 0.000280)
(-0.024146 0.101774 0.000280)
(-0.025710 0.119484 0.000281)
(-0.026366 0.135927 0.000282)
(-0.026078 0.150488 0.000282)
(-0.024770 0.162077 0.000283)
(-0.022679 0.171469 0.000814)
(-0.020023 0.178982 0.001404)
(-0.017074 0.186216 0.001524)
(-0.013999 0.194560 0.001647)
(-0.010717 0.200694 0.001776)
(-0.007234 0.191779 0.001911)
(-0.004157 0.166844 0.002012)
(-0.000187 0.210513 0.001995)
(0.003973 0.227168 0.002011)
(0.004960 0.145987 0.001873)
(0.006429 0.127646 0.001570)
(0.008757 0.140497 0.001435)
(0.009804 0.128799 0.001315)
(0.009734 0.110812 0.000930)
(0.009594 0.096293 0.000565)
(0.010255 0.091606 0.000442)
(0.010958 0.086352 0.000562)
(0.011396 0.080909 0.000696)
(0.011473 0.074323 0.000597)
(0.011646 0.069144 0.000524)
(0.009977 0.055858 0.000464)
(0.011166 0.057146 0.000406)
(0.012751 0.059807 0.000365)
(0.013534 0.056481 0.000315)
(0.014646 0.055501 0.000273)
(0.015450 0.052473 0.000239)
(0.015392 0.047242 0.000204)
(0.016864 0.045686 0.000173)
(0.016561 0.040453 0.000148)
(0.013919 0.028082 0.000127)
(0.013466 0.021664 0.000099)
(0.010799 0.010550 0.000248)
(0.009540 0.004042 0.000412)
(0.012180 0.007068 0.000412)
(0.019920 0.020417 0.000412)
(0.020919 0.031700 0.000412)
(0.007114 0.019616 0.000412)
(0.000039 -0.007629 0.000412)
(0.015267 -0.014183 0.000412)
(0.052982 0.006109 0.000412)
(0.089446 0.019115 0.000177)
(0.030444 0.009802 0.000177)
(-0.032721 0.000753 -0.000836)
(0.037680 0.912531 -0.000836)
(0.022870 0.760775 -0.000836)
(0.022413 0.716852 -0.000836)
(0.031010 0.950414 -0.000836)
(0.039210 1.165548 -0.000836)
(0.045544 1.358502 -0.000836)
(0.056052 1.691635 -0.000836)
(0.078591 2.399842 -0.000836)
(0.105258 3.322063 -0.000836)
(0.111272 3.399853 -0.000836)
(0.130306 3.645497 -0.000836)
(0.644380 14.022050 -0.000836)
(1.793690 37.630721 -0.000836)
(-105.031491 -90.119507 -0.000430)
(1163.938064 -1386.113677 -0.000025)
(-72.018362 -15.633533 -0.000025)
(-1.068711 -15.085491 -0.000025)
(-83.308225 -123.982335 -0.000025)
(-1070.632162 1024.809903 -0.000025)
(-82.405476 717.922701 -0.000025)
(22.268301 331.394477 -0.000025)
(21.076240 182.027939 -0.000025)
(9.583447 76.521649 -0.000025)
(6.129176 31.522899 -0.000025)
(7.214866 36.422105 -0.000025)
(2.731504 11.308458 -0.000025)
(1.497347 6.600579 -0.000025)
(0.137905 1.169029 -0.000025)
(3.583160 9.928175 -0.000025)
(0.114168 1.229886 0.000017)
(-2.103536 -4.604910 0.000059)
(-0.822245 -1.576036 0.000059)
(-1.501441 -2.792680 0.000059)
(-0.680873 -0.899422 0.000059)
(-3.612178 -5.543084 0.000059)
(-3.137820 -5.254040 0.000059)
(2.776257 3.369169 0.000059)
(3.601481 4.536075 0.000059)
(2.304319 2.724432 0.000059)
(2.215457 2.532873 0.000059)
(2.020766 2.239351 0.000059)
(2.115301 2.245928 0.000059)
(2.693012 2.655790 0.000059)
(4.583196 4.040097 0.000059)
(7.653064 6.131169 0.000059)
(9.547667 7.137125 0.000059)
(13.452546 9.165978 0.000059)
(26.767898 16.631253 0.000059)
(35.955156 20.982423 0.000059)
(36.244523 19.487054 0.000059)
(47.703443 23.050074 0.000059)
(70.866546 30.835888 0.000059)
(86.954481 33.840757 0.000059)
(60.245080 24.520093 0.000059)
(-48.123997 -10.244029 0.000059)
(-25.119124 -11.312552 0.000059)
(39.398648 7.090420 0.000059)
(4.790886 1.763437 0.000059)
(-4.022231 1.262581 0.000059)
(18.078406 2.577157 0.000059)
(-47.361308 -11.830795 0.000059)
(-382.896319 -21.664066 0.000059)
(-600.242825 8.897897 0.000059)
(-370.016706 14.528817 0.000059)
(-27.373423 -4.772385 0.000059)
(125.875220 -13.873181 0.000059)
(202.092871 -32.237988 0.000059)
(232.744530 -43.835060 0.000059)
(152.649727 -35.894121 0.000059)
(83.946231 -23.357529 0.000059)
(59.738551 -17.699264 0.000059)
(34.944496 -12.307260 0.000059)
(14.217927 -6.361191 0.000059)
(8.236197 -5.320295 0.000059)
(9.079281 -5.613458 0.000059)
(7.866240 -5.136583 0.000059)
(7.132085 -5.148501 0.000059)
(7.869266 -4.944034 0.000059)
(6.522415 -3.354960 0.000059)
(5.204244 -2.084491 0.000059)
(4.179314 -1.228845 0.000059)
(2.731798 -0.384694 0.000059)
(2.640979 -0.721885 0.000059)
(2.284400 -0.968165 0.000059)
(1.598432 -0.900649 0.000059)
(1.073256 -0.811097 0.000059)
(0.779248 -0.765663 0.000059)
(0.604615 -0.719535 0.000059)
(0.461122 -0.635669 0.000059)
(0.345241 -0.553669 0.000059)
(0.286348 -0.534603 0.000059)
(0.201175 -0.459514 0.000059)
(0.115755 -0.367430 0.000059)
(0.039830 -0.259025 0.000059)
(-0.043580 -0.113357 0.000059)
(-0.076207 -0.045748 0.000059)
(-0.096665 -0.018500 0.000017)
(-0.112539 0.014965 -0.000025)
(-0.114207 0.058215 -0.000025)
(-0.110117 0.088577 -0.000025)
(-0.102893 0.112533 -0.000025)
(-0.092024 0.122311 -0.000025)
(-0.077682 0.114404 -0.000025)
(-0.063782 0.101427 -0.000025)
(-0.049962 0.077567 -0.000025)
(-0.036918 0.050978 -0.000025)
(-0.027242 0.034831 -0.000025)
(-159.871627 0.023427 -0.000025)
(159.859085 0.018061 -0.000025)
(-0.015985 0.033203 -0.000025)
(0.038317 0.010010 -0.000025)
(-0.056849 0.143191 -0.000025)
(-0.173380 0.332053 -0.000430)
(-0.081019 0.223745 -0.000836)
(-0.028167 0.091224 -0.000836)
(-0.017844 0.065379 -0.000836)
(-0.012722 0.022411 -0.000836)
(-0.009549 0.019661 -0.000836)
(-0.007132 0.016411 -0.000836)
(-0.004875 0.000079 -0.000836)
(-0.003849 0.002431 -0.000836)
(-0.002548 -0.000262 -0.000836)
(-0.001592 -0.002461 -0.000836)
(-0.001135 -0.005342 -0.000836)
(-0.000923 -0.002538 -0.000836)
(-0.000568 0.001679 -0.000836)
(0.002207 -0.023803 -0.000836)
)
;
    }
}
