/*--------------------------------*- C++ -*---------------------------------*\ 
| ========                 |                                                 | 
| \      /  F ield         | OpenFOAM: The Open Source CFD Toolbox           | 
|  \    /   O peration     | Version:  v1812                                 | 
|   \  /    A nd           | Web:      www.OpenFOAM.com                      | 
|    \/     M anipulation  |                                                 | 
\*--------------------------------------------------------------------------*/ 
FoamFile
{
    version     2.0;
    format      ascii;
    class       volVectorField;
    location    "/home/james/dafoam/myRuns/bezier_coanda_opt/0.00000000001/";
    object      sens_CL_shapey;
}
// * * * * * * * * * * * * * * * * * * * * * * * * * * * * * * * * * * * * * //

dimensions      [0 0 0 0 0 0 0];
internalField   uniform (0 0 0);
boundaryField
{
    allWalls
    {
        type  wall;
        value nonuniform List<vector>
268
(
(-0.083743 0.008231 -0.000124)
(-0.080359 0.016988 -0.000328)
(-0.070398 0.033015 -0.000092)
(-0.060151 0.034438 0.000112)
(-0.046369 0.038714 0.000112)
(-0.054139 0.042997 0.000112)
(-0.026677 0.024657 0.000112)
(-0.019868 0.023816 0.000201)
(-0.038640 0.048605 0.000447)
(-0.053759 0.072647 0.000665)
(-0.050454 0.075853 0.000419)
(-0.047200 0.079948 0.000560)
(-0.046295 0.089002 0.001091)
(-0.046618 0.101543 0.001625)
(-0.042986 0.103690 0.001797)
(-0.038747 0.104721 0.001990)
(-0.033508 0.099710 0.002221)
(-0.031390 0.104196 0.002145)
(-0.031089 0.112318 0.002403)
(-0.026195 0.103667 0.002726)
(-0.026995 0.119183 0.003371)
(-0.026282 0.128072 0.003747)
(-0.022609 0.122524 0.003917)
(-0.021717 0.131886 0.004142)
(-0.020391 0.138959 0.004359)
(-0.018767 0.146168 0.004768)
(-0.017437 0.157995 0.005523)
(-0.015506 0.168353 0.006349)
(-0.013478 0.179552 0.006474)
(-0.011086 0.192632 0.006545)
(-0.008262 0.210945 0.006993)
(-0.004683 0.239386 0.008038)
(0.000161 0.266701 0.008971)
(0.006164 0.299014 0.007613)
(0.013120 0.331697 0.006152)
(0.021556 0.351266 0.005917)
(0.028809 0.352184 0.005336)
(0.035178 0.351243 0.004682)
(0.042414 0.367777 0.004077)
(0.044664 0.351938 0.003529)
(0.048108 0.349950 0.003037)
(0.051831 0.356800 0.002597)
(0.054043 0.354941 0.001486)
(0.056685 0.359345 0.000579)
(0.058529 0.360001 0.000572)
(0.060555 0.363653 0.000565)
(0.062011 0.364723 0.000558)
(0.063659 0.367987 0.000551)
(0.064689 0.368217 0.000544)
(0.067117 0.376495 0.000537)
(0.063805 0.347365 0.000043)
(0.061362 0.317579 -0.000449)
(0.069678 0.353179 -0.000449)
(0.073830 0.373128 -0.000449)
(0.081179 0.409237 -0.000449)
(0.082890 0.416078 -0.000449)
(0.074869 0.372867 -0.000449)
(0.075823 0.376957 -0.000449)
(0.076649 0.379144 -0.000449)
(0.075800 0.371723 -0.000278)
(0.074763 0.363960 -0.000106)
(0.073146 0.353807 -0.000106)
(0.071597 0.343727 -0.000106)
(0.070028 0.333433 -0.000106)
(0.068714 0.323855 -0.000106)
(0.067625 0.312819 -0.000106)
(0.061724 0.274187 -0.000106)
(0.046561 0.203266 -0.000448)
(0.035757 0.155378 -0.000789)
(0.058451 0.284566 -0.000789)
(0.009662 -0.064730 -0.000789)
(-0.003347 0.013747 -0.000789)
(-0.000497 0.000668 -0.000448)
(0.005291 -0.015673 -0.000106)
(0.003784 -0.010817 -0.000106)
(0.003669 -0.010035 -0.000106)
(0.002095 -0.006429 -0.000106)
(-0.000480 -0.000070 -0.000106)
(-0.004453 0.009605 -0.000106)
(-0.009829 0.023533 -0.000106)
(-0.015996 0.040438 -0.000106)
(-0.024826 0.065184 -0.000278)
(-0.036420 0.096682 -0.000449)
(-0.049423 0.131375 -0.000449)
(-0.063711 0.175281 -0.000449)
(-0.081683 0.239382 -0.000449)
(-0.084102 0.258130 -0.000449)
(-0.064313 0.223584 -0.000449)
(0.001866 0.064691 -0.000449)
(0.061596 -0.142887 0.000058)
(0.044818 -0.147544 0.000570)
(0.020251 -0.091490 0.000579)
(0.015539 -0.089565 0.000588)
(0.006551 -0.057635 0.000597)
(-0.005360 -0.005642 0.000605)
(-0.013985 0.040624 0.000613)
(-0.019569 0.080297 0.000621)
(-0.022310 0.112272 0.000628)
(-0.022718 0.137452 0.001052)
(-0.021617 0.161083 0.001529)
(-0.019091 0.180476 0.001639)
(-0.015783 0.203677 0.001749)
(-0.011535 0.210953 0.001862)
(-0.007063 0.133695 0.001979)
(-0.002178 0.169141 0.002056)
(0.003191 0.259026 0.002011)
(0.009047 0.255452 0.002034)
(0.009949 0.191889 0.001965)
(0.010236 0.145606 0.001406)
(0.012266 0.149575 0.000927)
(0.011456 0.120408 0.000792)
(0.012405 0.115206 0.000676)
(0.013130 0.108197 0.000706)
(0.013386 0.098171 0.000773)
(0.013724 0.091021 0.000747)
(0.014397 0.086807 0.000726)
(0.012889 0.073177 0.000467)
(0.011226 0.058532 0.000456)
(0.015211 0.072776 0.000453)
(0.014516 0.067778 0.000448)
(0.014226 0.057867 0.000686)
(0.017338 0.065917 0.000685)
(0.017066 0.060821 0.000685)
(0.016740 0.052229 0.000686)
(0.020020 0.055028 0.000687)
(0.020286 0.050465 0.000285)
(0.018050 0.037132 -0.000134)
(0.019184 0.032007 0.000274)
(0.015424 0.017348 0.000404)
(0.011445 0.003236 0.000112)
(0.010703 -0.000780 0.000112)
(0.017832 0.011301 0.000112)
(0.028518 0.033554 0.000112)
(0.025053 0.048762 0.000112)
(0.004756 0.037675 0.000112)
(-0.015942 0.010376 0.000112)
(-0.029352 -0.004326 0.000112)
(-0.045039 -0.011233 0.000112)
(-0.064901 -0.012241 -0.000143)
(-0.061773 -0.004617 -0.000143)
(0.032591 0.412140 -0.000789)
(-0.016311 0.377585 -0.000789)
(-0.002095 0.415529 -0.000789)
(0.018672 0.627692 -0.000789)
(0.028426 0.849159 -0.000789)
(0.034016 0.969276 -0.000789)
(0.040081 1.095207 -0.000789)
(0.050853 1.357865 -0.000789)
(0.074498 1.994355 -0.000789)
(0.103970 2.802871 -0.000789)
(0.110464 2.387987 -0.000789)
(0.148114 1.714585 -0.000789)
(0.724612 12.111845 -0.000789)
(2.190394 39.343263 -0.000789)
(-96.301798 -79.066201 -0.000395)
(807.447516 -1171.840689 -0.000000)
(-80.315114 -9.736645 -0.000000)
(-6.216726 -7.935545 -0.000000)
(-81.417254 -111.955056 -0.000000)
(-718.907048 901.291493 -0.000000)
(-70.999931 523.005094 -0.000000)
(14.981171 248.900956 -0.000000)
(15.240593 138.796574 -0.000000)
(6.962109 57.725083 -0.000000)
(4.662110 25.120495 -0.000000)
(5.688507 29.531870 -0.000000)
(2.205817 9.566959 -0.000000)
(1.441017 5.843526 -0.000000)
(0.526875 2.034909 -0.000000)
(2.935601 8.002053 -0.000000)
(0.405862 1.722361 0.000033)
(-1.087554 -2.294618 0.000066)
(-0.037868 0.161790 0.000066)
(-0.676576 -1.130016 0.000066)
(-0.300247 -0.187415 0.000066)
(-1.964435 -2.912351 0.000066)
(-1.705696 -2.801246 0.000066)
(2.014812 2.560265 0.000066)
(2.791648 3.636216 0.000066)
(1.778155 2.201481 0.000066)
(1.732004 2.058567 0.000066)
(1.577219 1.807578 0.000066)
(1.597044 1.748641 0.000066)
(1.883368 1.919658 0.000066)
(2.883719 2.628338 0.000066)
(4.635009 3.798418 0.000066)
(6.108962 4.642043 0.000066)
(8.452617 5.873907 0.000066)
(15.922697 10.004008 0.000066)
(22.822618 13.376675 0.000066)
(24.603989 13.335668 0.000066)
(32.203927 15.719744 0.000066)
(47.777887 21.027924 0.000066)
(58.897095 23.237357 0.000066)
(50.098445 19.521822 0.000066)
(-3.791452 2.124937 0.000066)
(18.215419 4.103938 0.000066)
(64.676016 15.344912 0.000066)
(50.958828 10.028593 0.000066)
(40.092740 6.065848 0.000066)
(56.432520 4.419176 0.000066)
(25.151159 -8.925078 0.000066)
(-266.897454 -29.815672 0.000066)
(-534.755230 -9.254144 0.000066)
(-370.846654 12.161409 0.000066)
(-78.634282 3.264362 0.000066)
(41.440458 -5.396046 0.000066)
(127.641259 -21.856962 0.000066)
(167.074443 -37.266681 0.000066)
(115.456633 -32.586244 0.000066)
(71.030289 -20.746334 0.000066)
(51.162387 -16.158657 0.000066)
(30.881504 -11.670130 0.000066)
(14.897046 -6.634712 0.000066)
(5.729499 -4.318851 0.000066)
(5.696727 -4.346552 0.000066)
(8.035212 -5.059922 0.000066)
(5.836456 -4.265461 0.000066)
(3.883361 -2.968690 0.000066)
(6.793835 -4.027982 0.000066)
(6.937467 -3.506440 0.000066)
(3.907711 -1.360079 0.000066)
(3.218726 -0.932419 0.000066)
(2.395607 -0.541073 0.000066)
(2.116922 -0.740499 0.000066)
(1.720215 -0.894545 0.000066)
(1.217887 -0.860575 0.000066)
(0.883798 -0.814304 0.000066)
(0.708027 -0.791526 0.000066)
(0.567143 -0.725539 0.000066)
(0.421247 -0.610947 0.000066)
(0.369469 -0.610484 0.000066)
(0.346227 -0.642003 0.000066)
(0.238486 -0.527951 0.000066)
(0.135093 -0.393934 0.000066)
(0.073908 -0.307099 0.000066)
(0.029343 -0.232715 0.000066)
(-0.017052 -0.160842 0.000033)
(-0.049866 -0.099701 -0.000000)
(-0.064510 -0.037393 -0.000000)
(-0.080652 0.039628 -0.000000)
(-0.087383 0.096810 -0.000000)
(-0.084821 0.129752 -0.000000)
(-0.077861 0.147008 -0.000000)
(-0.066592 0.141452 -0.000000)
(-0.053329 0.116677 -0.000000)
(-0.037631 0.080167 -0.000000)
(-0.023788 0.050719 -0.000000)
(-159.848412 0.030733 -0.000000)
(159.837713 0.023018 -0.000000)
(-0.032872 0.054739 -0.000000)
(0.053664 0.020750 -0.000000)
(0.096433 0.044055 -0.000000)
(-0.054592 0.356113 -0.000395)
(-0.072591 0.406691 -0.000789)
(-0.007975 0.217097 -0.000789)
(-0.003448 0.162513 -0.000789)
(-0.002619 0.067845 -0.000789)
(-0.003014 0.059281 -0.000789)
(-0.002334 0.037459 -0.000789)
(-0.000411 -0.012783 -0.000789)
(-0.000654 -0.005829 -0.000789)
(0.000129 -0.014412 -0.000789)
(0.000638 -0.020747 -0.000789)
(0.000774 -0.026186 -0.000789)
(-0.000016 -0.011083 -0.000789)
(0.000334 0.004356 -0.000789)
(0.009705 -0.065570 -0.000789)
)
;
    }
}
