/*--------------------------------*- C++ -*---------------------------------*\ 
| ========                 |                                                 | 
| \      /  F ield         | OpenFOAM: The Open Source CFD Toolbox           | 
|  \    /   O peration     | Version:  v1812                                 | 
|   \  /    A nd           | Web:      www.OpenFOAM.com                      | 
|    \/     M anipulation  |                                                 | 
\*--------------------------------------------------------------------------*/ 
FoamFile
{
    version     2.0;
    format      ascii;
    class       volVectorField;
    location    "/home/james/dafoam/myRuns/bezier_coanda_opt/0.00000000001/";
    object      sens_CL_shapey;
}
// * * * * * * * * * * * * * * * * * * * * * * * * * * * * * * * * * * * * * //

dimensions      [0 0 0 0 0 0 0];
internalField   uniform (0 0 0);
boundaryField
{
    allWalls
    {
        type  wall;
        value nonuniform List<vector>
268
(
(-0.110337 0.007742 0.000586)
(0.017852 -0.020135 0.000002)
(-0.254042 0.121030 0.000079)
(-0.441227 0.192604 0.000179)
(-0.424892 0.283790 0.000274)
(-0.171901 0.055453 0.000378)
(0.181127 -0.171587 0.000809)
(-0.179539 0.288957 0.001184)
(-0.215474 0.348858 0.001183)
(-0.048145 0.129678 0.001182)
(-0.063336 0.168321 0.001181)
(-0.011924 0.056763 0.001257)
(-0.006110 0.047538 0.001489)
(-0.011372 0.038733 0.001699)
(-0.004865 0.032469 0.001466)
(-0.023883 0.075900 0.001177)
(-0.012332 0.053785 0.001853)
(-0.020186 0.080352 0.001853)
(-0.020797 0.098273 0.001176)
(-0.026140 0.126929 0.001176)
(-0.020150 0.112806 0.002229)
(-0.021542 0.131697 0.003462)
(-0.019097 0.134511 0.004169)
(-0.018455 0.145692 0.004565)
(-0.016311 0.151242 0.004649)
(-0.015252 0.169825 0.005087)
(-0.012769 0.178849 0.005544)
(-0.010538 0.191338 0.006016)
(-0.008055 0.212846 0.006498)
(-0.004626 0.208372 0.007226)
(-0.000477 0.249162 0.007936)
(0.003249 0.266554 0.008680)
(0.010298 0.303359 0.008889)
(0.020014 0.400279 0.006933)
(0.027169 0.405973 0.005257)
(0.035917 0.429716 0.004998)
(0.037988 0.398311 0.004467)
(0.041583 0.393591 0.003890)
(0.045295 0.408547 0.003366)
(0.047522 0.407864 0.002896)
(0.042364 0.349464 0.002479)
(0.038896 0.307871 0.002112)
(0.047461 0.377159 0.001037)
(0.050610 0.401365 0.000134)
(0.051285 0.403369 0.000134)
(0.052539 0.409493 0.000134)
(0.053701 0.415484 0.000134)
(0.056389 0.432734 0.000134)
(0.058403 0.445531 0.000134)
(0.056834 0.431236 0.000134)
(0.058384 0.440226 -0.000302)
(0.059874 0.444055 -0.000738)
(0.061252 0.447868 -0.000738)
(0.062037 0.452367 -0.000738)
(0.062512 0.454317 -0.000738)
(0.063170 0.457357 -0.000738)
(0.064036 0.461732 -0.000738)
(0.064275 0.462003 -0.000738)
(0.064570 0.463553 -0.000738)
(0.066024 0.473702 -0.000512)
(0.065867 0.471764 -0.000285)
(0.063709 0.453948 -0.000285)
(0.062470 0.445125 -0.000285)
(0.067629 0.482622 -0.000285)
(0.073167 0.520470 -0.000285)
(0.057647 0.409359 -0.000285)
(0.047618 0.351042 -0.000285)
(0.096375 0.743478 -0.000589)
(0.144016 1.067326 -0.000894)
(-0.053734 -0.626655 -0.000894)
(-0.003970 0.019096 -0.000894)
(-0.007057 0.025919 -0.000894)
(-0.007969 0.032970 -0.000589)
(-0.008690 0.039120 -0.000285)
(-0.010935 0.046032 -0.000285)
(-0.013704 0.054312 -0.000285)
(-0.015474 0.061197 -0.000285)
(-0.016638 0.069599 -0.000285)
(-0.015241 0.067204 -0.000285)
(-0.013096 0.059480 -0.000285)
(-0.009498 0.049981 -0.000285)
(-0.003248 0.026096 -0.000512)
(0.001279 0.003022 -0.000738)
(0.001173 0.004325 -0.000738)
(-0.004879 0.029272 -0.000738)
(-0.009405 0.046748 -0.000738)
(-0.009727 0.049100 -0.000738)
(-0.010607 0.054220 -0.000738)
(-0.012836 0.066857 -0.000738)
(-0.015590 0.079848 -0.000302)
(-0.017817 0.091443 0.000134)
(-0.018948 0.102497 0.000134)
(-0.019787 0.113362 0.000134)
(-0.020242 0.123469 0.000134)
(-0.020292 0.132623 0.000134)
(-0.019957 0.140765 0.000134)
(-0.019281 0.148034 0.000134)
(-0.018283 0.154441 0.000134)
(-0.017024 0.160219 0.000630)
(-0.015558 0.165277 0.001185)
(-0.013930 0.169868 0.001307)
(-0.012161 0.174178 0.001437)
(-0.010327 0.179521 0.001575)
(-0.008227 0.181531 0.001721)
(-0.006046 0.181187 0.001842)
(-0.003747 0.186751 0.001865)
(-0.001178 0.179030 0.001776)
(0.001005 0.143851 0.001929)
(0.002762 0.126381 0.002152)
(0.004138 0.125198 0.001929)
(0.005227 0.116520 0.001345)
(0.006171 0.109029 0.000921)
(0.006750 0.097599 0.000794)
(0.007751 0.093288 0.000984)
(0.008074 0.085242 0.001170)
(0.008011 0.074661 0.000775)
(0.008855 0.072372 0.000408)
(0.009174 0.067833 0.000335)
(0.009289 0.063206 0.000501)
(0.009569 0.059068 0.000443)
(0.008537 0.048736 0.000628)
(0.009164 0.046959 0.000782)
(0.011432 0.050808 0.000790)
(0.012578 0.049970 0.001092)
(0.013154 0.048270 0.001100)
(0.012208 0.040509 0.001108)
(0.013904 0.040298 0.001116)
(0.012513 0.032606 0.000664)
(0.010738 0.022515 0.000191)
(0.008701 0.013099 0.000157)
(0.008114 0.006000 0.000099)
(0.008794 0.004553 0.000045)
(0.013700 0.011344 0.000045)
(0.017271 0.020450 0.000023)
(0.004988 0.004139 -0.000021)
(0.006334 -0.033009 -0.000040)
(0.052732 -0.044477 -0.000058)
(0.178928 0.017560 -0.000075)
(0.329775 0.073752 -0.000075)
(0.173992 0.042857 0.000563)
(-0.078479 -0.402291 -0.000894)
(0.082329 1.521840 -0.000894)
(0.046293 1.154985 -0.000894)
(0.027009 0.821554 -0.000894)
(0.035608 1.109066 -0.000894)
(0.048294 1.447199 -0.000894)
(0.055464 1.700571 -0.000894)
(0.066422 2.122099 -0.000894)
(0.088912 2.920469 -0.000894)
(0.114097 3.987442 -0.000894)
(0.121309 4.603097 -0.000894)
(0.123811 5.841352 -0.000894)
(0.578141 16.385139 -0.000894)
(1.406031 36.535629 -0.000894)
(-117.443541 -106.635422 -0.000477)
(1539.542920 -1635.653158 -0.000060)
(-72.314551 -23.760244 -0.000060)
(2.835013 -24.652818 -0.000060)
(-88.269976 -143.223846 -0.000060)
(-1435.257708 1185.329602 -0.000060)
(-99.437517 919.570036 -0.000060)
(28.869542 409.272993 -0.000060)
(28.003152 231.730646 -0.000060)
(13.073988 103.599093 -0.000060)
(7.566532 37.275431 -0.000060)
(8.865537 44.754477 -0.000060)
(2.809193 11.623363 -0.000060)
(1.540516 7.815277 -0.000060)
(-0.404782 0.139192 -0.000060)
(4.192118 11.875974 -0.000060)
(-0.177879 0.738588 -0.000002)
(-3.211608 -7.130239 0.000056)
(-1.719806 -3.579138 0.000056)
(-2.313481 -4.417994 0.000056)
(-0.964191 -1.420742 0.000056)
(-5.511366 -8.528317 0.000056)
(-4.621022 -7.831373 0.000056)
(3.934097 4.721100 0.000056)
(4.620800 5.699782 0.000056)
(3.193907 3.691708 0.000056)
(3.140468 3.527250 0.000056)
(3.141383 3.402308 0.000056)
(3.326593 3.462142 0.000056)
(4.412863 4.236219 0.000056)
(8.311915 7.143062 0.000056)
(13.811072 10.896694 0.000056)
(16.087017 11.873637 0.000056)
(23.031426 15.437565 0.000056)
(47.275178 29.153205 0.000056)
(59.525967 34.649375 0.000056)
(55.702344 29.758456 0.000056)
(72.348549 34.669276 0.000056)
(106.824234 45.960224 0.000056)
(137.030216 52.872932 0.000056)
(56.350879 26.356298 0.000056)
(-132.873933 -36.223564 0.000056)
(-86.108125 -32.603148 0.000056)
(27.853307 4.151809 0.000056)
(-56.454391 -8.602671 0.000056)
(-96.653512 -19.661081 0.000056)
(-229.563798 -44.799452 0.000056)
(-422.924282 -46.441422 0.000056)
(-360.410311 40.430727 0.000056)
(-402.261233 55.369998 0.000056)
(-243.040763 -6.540737 0.000056)
(108.680154 -15.690492 0.000056)
(256.876101 -29.388338 0.000056)
(313.641614 -52.481347 0.000056)
(225.724205 -47.685478 0.000056)
(147.379467 -31.207617 0.000056)
(89.494509 -22.544992 0.000056)
(54.990893 -15.156525 0.000056)
(27.332303 -7.804742 0.000056)
(11.407632 -5.451562 0.000056)
(11.028075 -6.216026 0.000056)
(14.194418 -7.443133 0.000056)
(8.626408 -5.721029 0.000056)
(4.981225 -4.019443 0.000056)
(8.044070 -4.915062 0.000056)
(7.941034 -4.086485 0.000056)
(5.277613 -2.146188 0.000056)
(3.481623 -0.930244 0.000056)
(1.952102 0.023452 0.000056)
(2.092877 -0.483427 0.000056)
(1.861436 -0.803678 0.000056)
(1.192887 -0.689033 0.000056)
(0.724157 -0.574920 0.000056)
(0.510166 -0.547451 0.000056)
(0.382801 -0.512171 0.000056)
(0.252217 -0.423779 0.000056)
(0.127320 -0.312532 0.000056)
(0.031705 -0.213186 0.000056)
(-0.032111 -0.134258 0.000056)
(-0.072652 -0.070882 0.000056)
(-0.096650 -0.020229 0.000056)
(-0.108016 0.017837 0.000056)
(-0.110374 0.044774 0.000056)
(-0.114203 0.053001 -0.000002)
(-0.112494 0.057449 -0.000060)
(-0.100085 0.069330 -0.000060)
(-0.087311 0.075368 -0.000060)
(-0.075117 0.078214 -0.000060)
(-0.063211 0.075118 -0.000060)
(-0.051215 0.063637 -0.000060)
(-0.040988 0.051152 -0.000060)
(-0.032669 0.039593 -0.000060)
(-0.025507 0.029124 -0.000060)
(-0.019835 0.022302 -0.000060)
(-159.889082 0.016806 -0.000060)
(159.882336 0.014834 -0.000060)
(-0.006429 0.025151 -0.000060)
(0.019221 0.019825 -0.000060)
(-0.052982 0.036772 -0.000060)
(-0.126957 0.109669 -0.000477)
(-0.066646 0.103905 -0.000894)
(-0.030811 0.055951 -0.000894)
(-0.019915 0.052147 -0.000894)
(-0.013359 0.045343 -0.000894)
(-0.009440 0.042458 -0.000894)
(-0.007054 0.041002 -0.000894)
(-0.005442 0.039271 -0.000894)
(-0.004369 0.037708 -0.000894)
(-0.003098 0.036406 -0.000894)
(-0.002261 0.034893 -0.000894)
(-0.002187 0.033632 -0.000894)
(-0.002001 0.031580 -0.000894)
(-0.001491 0.031616 -0.000894)
(-0.001543 0.024749 -0.000894)
)
;
    }
}
