/*--------------------------------*- C++ -*---------------------------------*\ 
| ========                 |                                                 | 
| \      /  F ield         | OpenFOAM: The Open Source CFD Toolbox           | 
|  \    /   O peration     | Version:  v1812                                 | 
|   \  /    A nd           | Web:      www.OpenFOAM.com                      | 
|    \/     M anipulation  |                                                 | 
\*--------------------------------------------------------------------------*/ 
FoamFile
{
    version     2.0;
    format      ascii;
    class       volVectorField;
    location    "/home/james/dafoam/myRuns/bezier_coanda_opt/0.00000000001/";
    object      sens_CL_shapey;
}
// * * * * * * * * * * * * * * * * * * * * * * * * * * * * * * * * * * * * * //

dimensions      [0 0 0 0 0 0 0];
internalField   uniform (0 0 0);
boundaryField
{
    allWalls
    {
        type  wall;
        value nonuniform List<vector>
268
(
(-0.057130 0.006315 0.000063)
(-0.091141 0.023242 -0.000058)
(-0.106152 0.041095 0.000094)
(-0.097181 0.054013 0.000216)
(-0.102676 0.070822 0.000216)
(-0.067416 0.043235 0.000216)
(-0.017656 0.013211 0.000216)
(-0.025296 0.040971 0.000369)
(-0.059390 0.084563 0.000587)
(-0.061838 0.092673 0.000433)
(-0.050034 0.084482 0.000216)
(-0.044445 0.081852 0.000511)
(-0.040177 0.082812 0.001046)
(-0.041530 0.094189 0.001672)
(-0.038425 0.096208 0.001880)
(-0.036148 0.100584 0.002076)
(-0.030647 0.094061 0.002145)
(-0.028805 0.098455 0.002157)
(-0.029075 0.108257 0.002430)
(-0.026337 0.108267 0.002747)
(-0.026115 0.119182 0.003446)
(-0.024664 0.124390 0.003578)
(-0.022728 0.127715 0.004265)
(-0.021353 0.134388 0.004655)
(-0.019745 0.140480 0.004366)
(-0.018259 0.148519 0.004803)
(-0.016805 0.161288 0.005637)
(-0.014925 0.172939 0.006419)
(-0.012739 0.184426 0.006527)
(-0.010182 0.195454 0.006710)
(-0.007195 0.217783 0.007197)
(-0.003557 0.243504 0.008349)
(0.001553 0.269087 0.008789)
(0.007848 0.312667 0.007170)
(0.015436 0.349620 0.006021)
(0.023542 0.363925 0.005780)
(0.030876 0.365207 0.005208)
(0.038148 0.375545 0.004567)
(0.041485 0.362252 0.003979)
(0.045388 0.360109 0.003447)
(0.049473 0.367672 0.002970)
(0.051850 0.365209 0.002545)
(0.054676 0.370119 0.001424)
(0.056788 0.371840 0.000501)
(0.059254 0.377685 0.000497)
(0.060854 0.379121 0.000492)
(0.063437 0.387092 0.000488)
(0.059836 0.359010 0.000484)
(0.049699 0.293228 0.000479)
(0.049805 0.288625 0.000475)
(0.060593 0.342421 -0.000004)
(0.069298 0.378338 -0.000481)
(0.072186 0.386254 -0.000481)
(0.073041 0.388623 -0.000481)
(0.073296 0.387640 -0.000481)
(0.073068 0.384107 -0.000481)
(0.073052 0.383011 -0.000481)
(0.083556 0.440886 -0.000481)
(0.090530 0.478716 -0.000481)
(0.082073 0.429761 -0.000308)
(0.075697 0.391717 -0.000135)
(0.072394 0.371339 -0.000135)
(0.070805 0.360534 -0.000135)
(0.069750 0.352684 -0.000135)
(0.067857 0.339979 -0.000135)
(0.063898 0.314821 -0.000135)
(0.058848 0.282995 -0.000135)
(0.057691 0.287609 -0.000470)
(0.057942 0.293472 -0.000805)
(0.034698 0.132655 -0.000805)
(0.006744 -0.046663 -0.000805)
(-0.001929 0.008617 -0.000805)
(-0.000573 0.000534 -0.000470)
(0.003732 -0.010498 -0.000135)
(0.002880 -0.006904 -0.000135)
(0.001949 -0.004398 -0.000135)
(-0.000037 0.000322 -0.000135)
(-0.002827 0.007372 -0.000135)
(-0.006776 0.017785 -0.000135)
(-0.011980 0.032399 -0.000135)
(-0.018184 0.050457 -0.000135)
(-0.026202 0.073034 -0.000308)
(-0.035064 0.097548 -0.000481)
(-0.046309 0.132427 -0.000481)
(-0.056318 0.168694 -0.000481)
(-0.067209 0.214824 -0.000481)
(-0.057903 0.191148 -0.000481)
(-0.006286 0.053086 -0.000481)
(0.031722 -0.054164 -0.000481)
(0.031470 -0.098965 0.000004)
(0.016102 -0.077238 0.000493)
(0.000748 -0.023537 0.000498)
(-0.006100 0.001642 0.000504)
(-0.012103 0.028964 0.000510)
(-0.017678 0.059838 0.000515)
(-0.021917 0.090371 0.000520)
(-0.024437 0.118032 0.000525)
(-0.024973 0.140135 0.000529)
(-0.023752 0.156545 0.001002)
(-0.021546 0.171815 0.001527)
(-0.018561 0.185079 0.001634)
(-0.014962 0.197821 0.001742)
(-0.011050 0.209241 0.001853)
(-0.006830 0.199384 0.001968)
(-0.003273 0.173248 0.002047)
(0.000979 0.196613 0.002011)
(0.007383 0.245078 0.001568)
(0.008515 0.183296 0.001072)
(0.008331 0.130814 0.000877)
(0.011212 0.147721 0.000720)
(0.011463 0.129266 0.000585)
(0.011230 0.110383 0.000469)
(0.011635 0.101990 0.000368)
(0.012502 0.097553 0.000529)
(0.012772 0.089141 0.000725)
(0.013572 0.085560 0.000704)
(0.013473 0.079285 0.000508)
(0.010049 0.055502 0.000496)
(0.012837 0.064062 0.000449)
(0.014377 0.068908 0.000443)
(0.013677 0.057788 0.000657)
(0.016237 0.063037 0.000654)
(0.016233 0.058577 0.000653)
(0.016995 0.054020 0.000651)
(0.018571 0.052434 0.000650)
(0.018606 0.047226 0.000341)
(0.017213 0.037234 0.000023)
(0.017668 0.031309 0.000334)
(0.014606 0.019157 0.000653)
(0.010843 0.005291 0.000434)
(0.010541 0.001569 0.000216)
(0.015708 0.009800 0.000216)
(0.025458 0.028441 0.000216)
(0.023857 0.042525 0.000216)
(0.006549 0.031652 0.000216)
(-0.009759 0.004869 0.000216)
(-0.014864 -0.006561 0.000216)
(-0.013991 -0.005270 0.000216)
(-0.014586 -0.002693 0.000043)
(-0.032494 -0.000249 0.000043)
(0.009467 0.278769 -0.000805)
(0.002792 0.555779 -0.000805)
(0.006512 0.530401 -0.000805)
(0.019853 0.654753 -0.000805)
(0.029133 0.879109 -0.000805)
(0.035433 1.030235 -0.000805)
(0.041364 1.177789 -0.000805)
(0.051894 1.463701 -0.000805)
(0.075075 2.124367 -0.000805)
(0.103425 2.969101 -0.000805)
(0.109296 2.709493 -0.000805)
(0.140585 2.334341 -0.000805)
(0.696753 12.746283 -0.000805)
(2.064402 38.838293 -0.000805)
(-99.292627 -82.893137 -0.000405)
(916.314005 -1240.274863 -0.000004)
(-79.078624 -11.564054 -0.000004)
(-4.880066 -10.290509 -0.000004)
(-82.261373 -116.229014 -0.000004)
(-825.393824 942.514962 -0.000004)
(-75.321356 581.299437 -0.000004)
(17.147390 273.992571 -0.000004)
(17.046884 152.292377 -0.000004)
(7.754644 63.548963 -0.000004)
(5.106895 27.020869 -0.000004)
(6.170202 31.648084 -0.000004)
(2.379446 10.079724 -0.000004)
(1.450949 6.030922 -0.000004)
(0.400601 1.730576 -0.000004)
(3.142514 8.626271 -0.000004)
(0.292346 1.523681 0.000029)
(-1.432039 -3.072865 0.000063)
(-0.321028 -0.467436 0.000063)
(-0.961632 -1.710027 0.000063)
(-0.379743 -0.354963 0.000063)
(-2.563708 -3.863459 0.000063)
(-2.253556 -3.731276 0.000063)
(2.300964 2.877359 0.000063)
(3.088008 3.975440 0.000063)
(1.976728 2.412457 0.000063)
(1.912471 2.246632 0.000063)
(1.768954 2.006961 0.000063)
(1.778555 1.935911 0.000063)
(2.151959 2.176251 0.000063)
(3.553048 3.194405 0.000063)
(5.891760 4.778803 0.000063)
(7.513735 5.671569 0.000063)
(10.324520 7.119097 0.000063)
(20.203714 12.625892 0.000063)
(28.773593 16.810126 0.000063)
(30.320650 16.356257 0.000063)
(37.362556 18.209891 0.000063)
(51.435451 22.649620 0.000063)
(68.663811 26.810519 0.000063)
(82.778763 30.895243 0.000063)
(2.224141 4.476109 0.000063)
(-71.306342 -20.685671 0.000063)
(33.244388 4.476360 0.000063)
(63.236306 14.062831 0.000063)
(7.135571 2.755158 0.000063)
(45.512456 6.050680 0.000063)
(4.950336 -7.417592 0.000063)
(-308.651216 -25.812694 0.000063)
(-538.723256 -0.042024 0.000063)
(-337.373167 15.133955 0.000063)
(-61.330529 -1.153843 0.000063)
(65.138715 -9.865025 0.000063)
(155.870031 -26.319787 0.000063)
(186.772048 -40.101749 0.000063)
(124.664850 -34.291069 0.000063)
(72.681349 -21.402780 0.000063)
(52.834314 -16.444407 0.000063)
(31.468222 -11.766226 0.000063)
(13.987619 -6.401673 0.000063)
(6.282044 -4.774952 0.000063)
(6.186371 -4.892742 0.000063)
(6.889038 -5.065632 0.000063)
(4.875937 -4.304131 0.000063)
(5.758510 -4.368456 0.000063)
(6.668493 -4.084411 0.000063)
(4.762839 -2.363474 0.000063)
(4.002443 -1.571404 0.000063)
(3.102032 -0.958221 0.000063)
(2.318347 -0.585265 0.000063)
(2.071583 -0.803230 0.000063)
(1.664666 -0.932072 0.000063)
(1.158926 -0.870146 0.000063)
(0.837166 -0.818057 0.000063)
(0.648078 -0.765317 0.000063)
(0.476317 -0.651109 0.000063)
(0.407937 -0.634215 0.000063)
(0.365734 -0.635694 0.000063)
(0.278222 -0.567851 0.000063)
(0.188212 -0.472933 0.000063)
(0.096447 -0.349769 0.000063)
(0.037608 -0.260084 0.000063)
(-0.002621 -0.188260 0.000063)
(-0.037800 -0.135842 0.000029)
(-0.073251 -0.059824 -0.000004)
(-0.090249 0.012408 -0.000004)
(-0.094116 0.057924 -0.000004)
(-0.096867 0.106809 -0.000004)
(-0.089902 0.124124 -0.000004)
(-0.079498 0.130580 -0.000004)
(-0.068436 0.130453 -0.000004)
(-0.054052 0.102607 -0.000004)
(-0.039089 0.068516 -0.000004)
(-0.027020 0.044121 -0.000004)
(-159.858030 0.027156 -0.000004)
(159.844192 0.020545 -0.000004)
(-0.027473 0.045457 -0.000004)
(0.048117 0.014158 -0.000004)
(0.026840 0.097336 -0.000004)
(-0.117192 0.369798 -0.000405)
(-0.084483 0.342375 -0.000805)
(-0.020907 0.166144 -0.000805)
(-0.012124 0.120118 -0.000805)
(-0.008898 0.043576 -0.000805)
(-0.007382 0.038993 -0.000805)
(-0.005691 0.027844 -0.000805)
(-0.003193 -0.010783 -0.000805)
(-0.002614 -0.006160 -0.000805)
(-0.001372 -0.011472 -0.000805)
(-0.000499 -0.015508 -0.000805)
(-0.000196 -0.019442 -0.000805)
(-0.000518 -0.009600 -0.000805)
(-0.000288 0.001910 -0.000805)
(0.006020 -0.046595 -0.000805)
)
;
    }
}
