/*--------------------------------*- C++ -*---------------------------------*\ 
| ========                 |                                                 | 
| \      /  F ield         | OpenFOAM: The Open Source CFD Toolbox           | 
|  \    /   O peration     | Version:  v1812                                 | 
|   \  /    A nd           | Web:      www.OpenFOAM.com                      | 
|    \/     M anipulation  |                                                 | 
\*--------------------------------------------------------------------------*/ 
FoamFile
{
    version     2.0;
    format      ascii;
    class       volVectorField;
    location    "/home/james/dafoam/myRuns/bezier_coanda_opt/0.00000000001/";
    object      sens_CL_shapey;
}
// * * * * * * * * * * * * * * * * * * * * * * * * * * * * * * * * * * * * * //

dimensions      [0 0 0 0 0 0 0];
internalField   uniform (0 0 0);
boundaryField
{
    allWalls
    {
        type  wall;
        value nonuniform List<vector>
268
(
(-0.048016 -0.008080 0.000437)
(-0.012837 0.012298 0.000207)
(-0.175836 0.065041 0.000349)
(-0.257183 0.131400 0.000580)
(-0.275878 0.163260 0.000568)
(-0.051999 -0.000867 0.000597)
(0.050155 -0.042906 0.000610)
(-0.144029 0.212243 0.000705)
(-0.120617 0.183056 0.000705)
(-0.058949 0.123479 0.000580)
(-0.063720 0.133212 0.000580)
(-0.022870 0.065021 0.000954)
(-0.029569 0.078345 0.001408)
(-0.020676 0.058387 0.001591)
(-0.024988 0.073550 0.001137)
(-0.026368 0.081504 0.000580)
(-0.023189 0.080767 0.001452)
(-0.022019 0.083415 0.002441)
(-0.025013 0.105717 0.002684)
(-0.025501 0.116449 0.002946)
(-0.022468 0.115217 0.003228)
(-0.022408 0.127044 0.003530)
(-0.020809 0.133569 0.004106)
(-0.019369 0.140118 0.004748)
(-0.017454 0.146377 0.005209)
(-0.016277 0.160079 0.005287)
(-0.014234 0.170561 0.005328)
(-0.012121 0.182060 0.005735)
(-0.009785 0.199936 0.006149)
(-0.006705 0.202006 0.006263)
(-0.003185 0.234162 0.006306)
(0.000557 0.256288 0.006553)
(0.006842 0.287869 0.006737)
(0.014566 0.349088 0.006161)
(0.023564 0.386881 0.005503)
(0.030720 0.396193 0.005265)
(0.037305 0.397235 0.004726)
(0.039564 0.376950 0.004130)
(0.043382 0.377845 0.003585)
(0.047114 0.389889 0.003094)
(0.048877 0.385946 0.002654)
(0.052438 0.400525 0.002266)
(0.044516 0.327904 0.001170)
(0.039682 0.282351 0.000257)
(0.049789 0.353423 0.000257)
(0.055897 0.396619 0.000257)
(0.055708 0.391493 0.000257)
(0.056618 0.394454 0.000257)
(0.057868 0.399698 0.000257)
(0.059110 0.405304 0.000257)
(0.060964 0.414132 -0.000152)
(0.063608 0.422582 -0.000562)
(0.063435 0.413284 -0.000562)
(0.064186 0.416382 -0.000562)
(0.064948 0.419625 -0.000562)
(0.065672 0.422598 -0.000562)
(0.066194 0.423945 -0.000562)
(0.064943 0.413305 -0.000562)
(0.064222 0.407744 -0.000562)
(0.066630 0.424966 -0.000364)
(0.066683 0.425993 -0.000166)
(0.065298 0.414910 -0.000166)
(0.074245 0.470692 -0.000166)
(0.075476 0.477099 -0.000166)
(0.064922 0.406800 -0.000166)
(0.054062 0.336309 -0.000166)
(0.051014 0.323010 -0.000166)
(0.082639 0.550902 -0.000503)
(0.110197 0.716308 -0.000840)
(-0.019395 -0.282575 -0.000840)
(-0.000185 -0.006394 -0.000840)
(-0.003560 0.010600 -0.000840)
(-0.004351 0.013531 -0.000503)
(-0.004442 0.017426 -0.000166)
(-0.006371 0.023641 -0.000166)
(-0.008937 0.030948 -0.000166)
(-0.011496 0.039066 -0.000166)
(-0.014117 0.048525 -0.000166)
(-0.017472 0.061618 -0.000166)
(-0.020221 0.072412 -0.000166)
(-0.023502 0.087080 -0.000166)
(-0.022451 0.086205 -0.000364)
(-0.018021 0.073149 -0.000562)
(-0.010479 0.055090 -0.000562)
(0.001292 0.011583 -0.000562)
(0.003053 0.002454 -0.000562)
(-0.007312 0.043857 -0.000562)
(-0.013292 0.062293 -0.000562)
(-0.011818 0.054586 -0.000562)
(-0.014509 0.063379 -0.000153)
(-0.019230 0.083457 0.000257)
(-0.021689 0.100092 0.000257)
(-0.023007 0.113391 0.000257)
(-0.023747 0.125750 0.000257)
(-0.023953 0.137373 0.000257)
(-0.023600 0.147878 0.000257)
(-0.022609 0.156430 0.000257)
(-0.021152 0.163851 0.000257)
(-0.019306 0.170211 0.000765)
(-0.017182 0.175565 0.001335)
(-0.014858 0.179949 0.001459)
(-0.012495 0.185373 0.001588)
(-0.009972 0.188631 0.001723)
(-0.007304 0.184413 0.001864)
(-0.004614 0.187663 0.001971)
(-0.002148 0.194487 0.001960)
(0.001098 0.192853 0.001944)
(0.003281 0.154715 0.001819)
(0.003999 0.120613 0.001542)
(0.005903 0.130598 0.001348)
(0.007289 0.125813 0.001203)
(0.007442 0.106593 0.001085)
(0.008402 0.102534 0.000992)
(0.008811 0.093124 0.000848)
(0.008914 0.081904 0.000844)
(0.009795 0.080374 0.000904)
(0.009830 0.071892 0.000689)
(0.010503 0.069637 0.000635)
(0.010573 0.065164 0.000578)
(0.009410 0.053572 0.000535)
(0.009729 0.051109 0.000658)
(0.012251 0.056283 0.000455)
(0.013528 0.055320 0.000423)
(0.014187 0.052390 0.000578)
(0.014736 0.048982 0.000580)
(0.015063 0.044604 0.000580)
(0.015096 0.039965 0.000363)
(0.013400 0.030482 0.000006)
(0.012857 0.024332 -0.000011)
(0.009691 0.012549 0.000105)
(0.009219 0.006320 0.000209)
(0.010772 0.006688 0.000316)
(0.017141 0.016108 0.000445)
(0.020725 0.028048 0.000580)
(0.008080 0.016979 0.000580)
(0.002671 -0.011937 0.000580)
(0.028298 -0.020951 0.000580)
(0.107197 0.016979 0.000421)
(0.157236 0.040952 0.000259)
(-0.028983 0.015974 0.000417)
(-0.043421 -0.089563 -0.000840)
(0.049910 1.073794 -0.000840)
(0.029516 0.865020 -0.000840)
(0.023961 0.746808 -0.000840)
(0.032619 0.997182 -0.000840)
(0.042006 1.242959 -0.000840)
(0.048453 1.448760 -0.000840)
(0.059035 1.803786 -0.000840)
(0.081712 2.537084 -0.000840)
(0.108216 3.496236 -0.000840)
(0.114400 3.691455 -0.000840)
(0.130260 4.169838 -0.000840)
(0.632742 14.670982 -0.000840)
(1.724172 37.664127 -0.000840)
(-108.282164 -95.768034 -0.000434)
(1267.753415 -1454.690158 -0.000029)
(-70.557749 -19.005774 -0.000029)
(0.245804 -18.493998 -0.000029)
(-84.876628 -131.038357 -0.000029)
(-1172.502520 1071.208893 -0.000029)
(-86.219671 776.688512 -0.000029)
(23.778004 348.007637 -0.000029)
(23.342445 196.926740 -0.000029)
(11.013132 87.954667 -0.000029)
(6.478119 32.252748 -0.000029)
(7.676190 38.491393 -0.000029)
(2.660323 10.725107 -0.000029)
(1.601557 7.241396 -0.000029)
(-0.014025 0.873068 -0.000029)
(3.760744 10.498802 -0.000029)
(0.092438 1.202164 0.000015)
(-2.415674 -5.334032 0.000058)
(-1.080772 -2.203355 0.000058)
(-1.699907 -3.217755 0.000058)
(-0.796223 -1.136814 0.000058)
(-4.088829 -6.302991 0.000058)
(-3.444737 -5.811252 0.000058)
(3.111184 3.789365 0.000058)
(3.823492 4.794712 0.000058)
(2.501794 2.950870 0.000058)
(2.393365 2.730905 0.000058)
(2.230541 2.469084 0.000058)
(2.348898 2.490454 0.000058)
(3.069098 3.013058 0.000058)
(5.403303 4.732703 0.000058)
(9.031336 7.210227 0.000058)
(10.998520 8.200245 0.000058)
(15.676287 10.631495 0.000058)
(31.516404 19.552999 0.000058)
(40.733033 23.790233 0.000058)
(40.038961 21.488729 0.000058)
(53.124615 25.619730 0.000058)
(78.678183 34.121680 0.000058)
(97.642728 37.883843 0.000058)
(57.156564 24.281843 0.000058)
(-76.863620 -18.902381 0.000058)
(-41.351968 -17.271076 0.000058)
(38.879377 6.952575 0.000058)
(-14.289713 -1.511697 0.000058)
(-28.496205 -3.369853 0.000058)
(-22.457276 -3.250711 0.000058)
(-122.104491 -16.646196 0.000058)
(-397.464118 -8.282512 0.000058)
(-561.176169 20.425427 0.000058)
(-338.785738 8.299980 0.000058)
(28.225314 -9.541225 0.000058)
(162.212865 -17.028259 0.000058)
(205.519388 -35.475655 0.000058)
(239.147793 -43.188107 0.000058)
(158.771112 -34.170642 0.000058)
(86.003246 -23.734614 0.000058)
(59.617034 -17.317528 0.000058)
(32.963133 -11.632752 0.000058)
(12.112952 -6.323957 0.000058)
(7.781371 -5.706541 0.000058)
(10.028142 -6.447836 0.000058)
(7.801547 -5.609522 0.000058)
(5.860051 -4.950406 0.000058)
(7.239556 -5.008407 0.000058)
(6.590220 -3.735788 0.000058)
(4.801847 -2.127958 0.000058)
(3.595141 -1.176881 0.000058)
(2.354286 -0.397975 0.000058)
(2.346668 -0.747297 0.000058)
(2.021171 -0.954474 0.000058)
(1.369679 -0.837146 0.000058)
(0.912568 -0.728551 0.000058)
(0.671861 -0.676433 0.000058)
(0.528334 -0.630692 0.000058)
(0.403084 -0.556883 0.000058)
(0.276494 -0.456641 0.000058)
(0.163443 -0.352904 0.000058)
(0.070805 -0.254914 0.000058)
(0.001781 -0.169864 0.000058)
(-0.045758 -0.099821 0.000058)
(-0.076153 -0.043564 0.000058)
(-0.094042 0.001513 0.000058)
(-0.108148 0.028047 0.000015)
(-0.113547 0.047854 -0.000029)
(-0.107113 0.070154 -0.000029)
(-0.098011 0.084689 -0.000029)
(-0.087086 0.091581 -0.000029)
(-0.075472 0.092572 -0.000029)
(-0.063468 0.085490 -0.000029)
(-0.051116 0.068642 -0.000029)
(-0.040009 0.050422 -0.000029)
(-0.030874 0.036084 -0.000029)
(-0.024363 0.026330 -0.000029)
(-159.883668 0.018181 -0.000029)
(159.870159 0.013847 -0.000029)
(-0.011296 0.024424 -0.000029)
(0.021449 0.015335 -0.000029)
(-0.074577 0.097821 -0.000029)
(-0.160266 0.209287 -0.000434)
(-0.070811 0.138295 -0.000840)
(-0.026835 0.058182 -0.000840)
(-0.017534 0.047350 -0.000840)
(-0.012325 0.031395 -0.000840)
(-0.008805 0.027571 -0.000840)
(-0.006490 0.024292 -0.000840)
(-0.004919 0.021955 -0.000840)
(-0.003853 0.020614 -0.000840)
(-0.002736 0.019771 -0.000840)
(-0.001872 0.016954 -0.000840)
(-0.001529 0.013759 -0.000840)
(-0.001242 0.013820 -0.000840)
(-0.000702 0.013995 -0.000840)
(0.000793 -0.003953 -0.000840)
)
;
    }
}
