/*--------------------------------*- C++ -*----------------------------------*\
  =========                 |
  \\      /  F ield         | OpenFOAM: The Open Source CFD Toolbox
   \\    /   O peration     | Website:  https://openfoam.org
    \\  /    A nd           | Version:  8
     \\/     M anipulation  |
\*---------------------------------------------------------------------------*/
FoamFile
{
    version     2.0;
    format      ascii;
    class       volScalarField;
    location    "41";
    object      nuTilda;
}
// * * * * * * * * * * * * * * * * * * * * * * * * * * * * * * * * * * * * * //

dimensions      [0 2 -1 0 0 0 0];

internalField   nonuniform List<scalar> 
277560
(
0.140009
0.140037
0.140072
0.14011
0.140148
0.140188
0.140227
0.140267
0.140306
0.140345
0.140383
0.14042
0.140456
0.140492
0.140527
0.140561
0.140595
0.140627
0.140659
0.14069
0.140721
0.140751
0.140781
0.14081
0.140839
0.140867
0.140894
0.14092
0.140945
0.140969
0.140991
0.141011
0.14103
0.141048
0.141064
0.141078
0.141091
0.141102
0.141111
0.141119
0.141125
0.141129
0.141132
0.141133
0.141132
0.141129
0.141125
0.14112
0.141112
0.141104
0.141093
0.141081
0.141068
0.141053
0.141036
0.141018
0.140999
0.140978
0.140955
0.140931
0.140905
0.140878
0.14085
0.14082
0.140788
0.140755
0.14072
0.140684
0.140646
0.140606
0.140565
0.140522
0.140478
0.140432
0.140384
0.140335
0.140285
0.140232
0.140179
0.140124
0.140067
0.14001
0.139951
0.139891
0.13983
0.139769
0.139707
0.139644
0.139581
0.139518
0.139454
0.139391
0.139328
0.139265
0.139203
0.139142
0.139081
0.139022
0.138964
0.138907
0.138851
0.138798
0.138746
0.138695
0.138647
0.138601
0.138558
0.138516
0.138477
0.138441
0.138407
0.138376
0.138347
0.13832
0.138296
0.138275
0.138256
0.13824
0.138225
0.138213
0.140017
0.140052
0.14009
0.14013
0.140171
0.140212
0.140254
0.140295
0.140336
0.140377
0.140417
0.140456
0.140495
0.140533
0.14057
0.140607
0.140643
0.140678
0.140713
0.140747
0.14078
0.140813
0.140845
0.140876
0.140907
0.140936
0.140964
0.140992
0.141017
0.141042
0.141065
0.141086
0.141106
0.141124
0.14114
0.141155
0.141168
0.14118
0.14119
0.141198
0.141204
0.141209
0.141212
0.141213
0.141213
0.141211
0.141207
0.141202
0.141195
0.141186
0.141176
0.141165
0.141151
0.141137
0.14112
0.141103
0.141083
0.141062
0.14104
0.141016
0.140991
0.140964
0.140935
0.140905
0.140874
0.140841
0.140806
0.140769
0.140731
0.140691
0.14065
0.140606
0.140561
0.140515
0.140466
0.140416
0.140365
0.140311
0.140256
0.1402
0.140142
0.140082
0.140022
0.13996
0.139897
0.139833
0.139769
0.139704
0.139639
0.139573
0.139508
0.139442
0.139377
0.139313
0.139249
0.139187
0.139125
0.139064
0.139005
0.138947
0.138891
0.138837
0.138785
0.138734
0.138686
0.13864
0.138597
0.138556
0.138518
0.138482
0.138449
0.138419
0.138392
0.138367
0.138346
0.138327
0.138311
0.138298
0.138288
0.13828
0.140022
0.140065
0.140108
0.140153
0.140198
0.140243
0.140287
0.140332
0.140376
0.14042
0.140463
0.140505
0.140547
0.140588
0.140628
0.140668
0.140707
0.140745
0.140782
0.140819
0.140855
0.14089
0.140924
0.140958
0.14099
0.141021
0.141051
0.141079
0.141106
0.141131
0.141155
0.141178
0.141198
0.141217
0.141235
0.14125
0.141264
0.141277
0.141287
0.141296
0.141304
0.141309
0.141313
0.141315
0.141315
0.141314
0.141311
0.141306
0.1413
0.141292
0.141283
0.141272
0.14126
0.141246
0.14123
0.141213
0.141194
0.141174
0.141153
0.14113
0.141105
0.141079
0.141051
0.141022
0.140991
0.140958
0.140924
0.140888
0.140851
0.140811
0.14077
0.140727
0.140683
0.140636
0.140588
0.140538
0.140486
0.140432
0.140377
0.140319
0.14026
0.1402
0.140138
0.140074
0.14001
0.139944
0.139877
0.13981
0.139741
0.139673
0.139605
0.139537
0.139469
0.139402
0.139336
0.13927
0.139207
0.139144
0.139083
0.139024
0.138966
0.138911
0.138858
0.138807
0.138758
0.138713
0.13867
0.138629
0.138592
0.138558
0.138527
0.138499
0.138474
0.138453
0.138435
0.13842
0.138409
0.138401
0.138397
0.138396
0.140026
0.140077
0.140128
0.140178
0.140228
0.140278
0.140327
0.140376
0.140424
0.140472
0.140518
0.140564
0.14061
0.140654
0.140698
0.140741
0.140783
0.140824
0.140865
0.140904
0.140943
0.14098
0.141017
0.141052
0.141086
0.141119
0.14115
0.14118
0.141209
0.141235
0.141261
0.141284
0.141306
0.141326
0.141345
0.141362
0.141377
0.14139
0.141402
0.141412
0.14142
0.141427
0.141431
0.141434
0.141436
0.141436
0.141434
0.14143
0.141425
0.141418
0.14141
0.1414
0.141389
0.141376
0.141361
0.141345
0.141328
0.141309
0.141289
0.141267
0.141243
0.141218
0.141192
0.141164
0.141134
0.141103
0.14107
0.141035
0.140998
0.14096
0.14092
0.140878
0.140834
0.140789
0.140741
0.140692
0.14064
0.140587
0.140532
0.140475
0.140416
0.140355
0.140293
0.140229
0.140163
0.140096
0.140028
0.139958
0.139888
0.139817
0.139746
0.139674
0.139603
0.139532
0.139462
0.139393
0.139326
0.139261
0.139197
0.139135
0.139075
0.139018
0.138964
0.138912
0.138863
0.138817
0.138774
0.138734
0.138698
0.138665
0.138636
0.138611
0.138589
0.138571
0.138557
0.138547
0.138541
0.138539
0.138542
0.138548
0.140031
0.14009
0.140148
0.140205
0.140262
0.140317
0.140372
0.140425
0.140478
0.14053
0.140582
0.140632
0.140681
0.14073
0.140777
0.140824
0.140869
0.140914
0.140957
0.141
0.141041
0.141081
0.14112
0.141157
0.141194
0.141228
0.141261
0.141293
0.141323
0.141351
0.141378
0.141403
0.141426
0.141448
0.141468
0.141486
0.141503
0.141517
0.14153
0.141541
0.141551
0.141558
0.141564
0.141569
0.141571
0.141572
0.141572
0.141569
0.141565
0.14156
0.141553
0.141544
0.141534
0.141523
0.141509
0.141495
0.141479
0.141461
0.141442
0.141422
0.1414
0.141376
0.141351
0.141324
0.141296
0.141266
0.141234
0.1412
0.141165
0.141128
0.14109
0.141049
0.141006
0.140962
0.140915
0.140867
0.140817
0.140764
0.14071
0.140653
0.140595
0.140535
0.140473
0.140409
0.140343
0.140275
0.140207
0.140136
0.140065
0.139993
0.139919
0.139846
0.139772
0.139698
0.139624
0.139552
0.139481
0.139411
0.139344
0.139278
0.139216
0.139156
0.1391
0.139046
0.138996
0.138949
0.138906
0.138867
0.138831
0.1388
0.138773
0.138749
0.138731
0.138716
0.138706
0.138701
0.1387
0.138704
0.138713
0.138726
0.140035
0.140103
0.140169
0.140234
0.140297
0.140359
0.140419
0.140479
0.140537
0.140594
0.14065
0.140705
0.140759
0.140812
0.140863
0.140913
0.140963
0.141011
0.141057
0.141103
0.141147
0.14119
0.141231
0.141271
0.141309
0.141346
0.141381
0.141415
0.141446
0.141476
0.141505
0.141532
0.141556
0.14158
0.141601
0.141621
0.141638
0.141654
0.141669
0.141681
0.141692
0.141701
0.141708
0.141714
0.141718
0.14172
0.141721
0.14172
0.141717
0.141713
0.141707
0.1417
0.141692
0.141681
0.14167
0.141656
0.141642
0.141625
0.141608
0.141589
0.141568
0.141546
0.141522
0.141497
0.14147
0.141441
0.141411
0.141378
0.141345
0.141309
0.141271
0.141232
0.141191
0.141147
0.141102
0.141054
0.141005
0.140954
0.1409
0.140844
0.140787
0.140727
0.140665
0.140602
0.140536
0.140469
0.1404
0.14033
0.140258
0.140185
0.140112
0.140037
0.139962
0.139886
0.139811
0.139736
0.139662
0.139589
0.139518
0.139449
0.139383
0.13932
0.139261
0.139205
0.139153
0.139105
0.139062
0.139022
0.138987
0.138957
0.138931
0.13891
0.138894
0.138883
0.138876
0.138875
0.13888
0.138889
0.138903
0.138923
0.140039
0.140116
0.14019
0.140263
0.140333
0.140402
0.140469
0.140535
0.140599
0.140661
0.140723
0.140782
0.140841
0.140898
0.140954
0.141008
0.141061
0.141113
0.141163
0.141211
0.141258
0.141304
0.141348
0.14139
0.141431
0.14147
0.141507
0.141542
0.141576
0.141608
0.141638
0.141667
0.141693
0.141718
0.141741
0.141762
0.141781
0.141799
0.141815
0.141829
0.141841
0.141851
0.14186
0.141867
0.141872
0.141876
0.141878
0.141878
0.141877
0.141874
0.14187
0.141864
0.141857
0.141848
0.141837
0.141826
0.141812
0.141797
0.141781
0.141763
0.141744
0.141723
0.1417
0.141676
0.141651
0.141623
0.141594
0.141563
0.14153
0.141496
0.14146
0.141421
0.141381
0.141339
0.141294
0.141248
0.141199
0.141149
0.141096
0.141041
0.140984
0.140925
0.140864
0.140801
0.140736
0.140669
0.140601
0.140531
0.140459
0.140386
0.140312
0.140237
0.140162
0.140086
0.140009
0.139933
0.139858
0.139784
0.13971
0.139639
0.13957
0.139505
0.139442
0.139384
0.13933
0.13928
0.139235
0.139195
0.13916
0.13913
0.139106
0.139087
0.139073
0.139064
0.139062
0.139065
0.139074
0.139088
0.139108
0.139135
0.140044
0.140129
0.140212
0.140292
0.14037
0.140446
0.14052
0.140592
0.140662
0.14073
0.140797
0.140862
0.140925
0.140987
0.141047
0.141105
0.141162
0.141217
0.141271
0.141323
0.141373
0.141421
0.141468
0.141513
0.141556
0.141597
0.141636
0.141674
0.14171
0.141744
0.141776
0.141806
0.141834
0.14186
0.141885
0.141908
0.141929
0.141948
0.141965
0.14198
0.141994
0.142006
0.142016
0.142024
0.142031
0.142036
0.142039
0.142041
0.142041
0.14204
0.142037
0.142032
0.142026
0.142019
0.14201
0.141999
0.141987
0.141973
0.141958
0.141942
0.141923
0.141904
0.141882
0.141859
0.141835
0.141808
0.14178
0.141751
0.141719
0.141685
0.14165
0.141612
0.141573
0.141532
0.141488
0.141442
0.141395
0.141345
0.141293
0.141239
0.141182
0.141124
0.141064
0.141001
0.140937
0.14087
0.140802
0.140733
0.140661
0.140589
0.140515
0.14044
0.140364
0.140288
0.140212
0.140136
0.14006
0.139985
0.139911
0.139838
0.139768
0.139701
0.139636
0.139576
0.139519
0.139468
0.139422
0.139381
0.139346
0.139316
0.139292
0.139274
0.139263
0.139257
0.139257
0.139264
0.139277
0.139296
0.139322
0.139354
0.140048
0.140142
0.140233
0.140321
0.140407
0.14049
0.140571
0.140649
0.140726
0.1408
0.140872
0.140942
0.14101
0.141077
0.141141
0.141204
0.141264
0.141323
0.14138
0.141435
0.141489
0.14154
0.141589
0.141637
0.141682
0.141726
0.141767
0.141807
0.141845
0.141881
0.141915
0.141947
0.141977
0.142005
0.142031
0.142055
0.142077
0.142098
0.142117
0.142134
0.142149
0.142162
0.142173
0.142183
0.142191
0.142198
0.142202
0.142205
0.142207
0.142207
0.142205
0.142202
0.142197
0.14219
0.142183
0.142173
0.142162
0.14215
0.142136
0.14212
0.142103
0.142085
0.142064
0.142042
0.142019
0.141993
0.141966
0.141937
0.141906
0.141874
0.141839
0.141802
0.141764
0.141723
0.14168
0.141635
0.141588
0.141539
0.141488
0.141434
0.141378
0.14132
0.141261
0.141199
0.141135
0.141069
0.141001
0.140932
0.140861
0.140789
0.140715
0.140641
0.140565
0.14049
0.140413
0.140337
0.140261
0.140186
0.140112
0.140039
0.139969
0.1399
0.139835
0.139773
0.139715
0.139662
0.139615
0.139573
0.139537
0.139508
0.139485
0.139468
0.139458
0.139455
0.139458
0.139468
0.139485
0.139509
0.13954
0.139578
0.140052
0.140155
0.140254
0.14035
0.140443
0.140534
0.140621
0.140706
0.140789
0.140869
0.140946
0.141022
0.141095
0.141166
0.141235
0.141302
0.141366
0.141429
0.141489
0.141548
0.141604
0.141658
0.14171
0.14176
0.141808
0.141854
0.141898
0.14194
0.141979
0.142017
0.142053
0.142087
0.142118
0.142148
0.142176
0.142202
0.142226
0.142248
0.142268
0.142286
0.142303
0.142317
0.14233
0.142341
0.142351
0.142358
0.142364
0.142368
0.142371
0.142372
0.142372
0.14237
0.142366
0.142361
0.142354
0.142346
0.142336
0.142324
0.142311
0.142297
0.142281
0.142263
0.142244
0.142223
0.1422
0.142175
0.142149
0.142121
0.14209
0.142058
0.142024
0.141988
0.14195
0.14191
0.141868
0.141824
0.141777
0.141729
0.141678
0.141625
0.14157
0.141512
0.141453
0.141391
0.141328
0.141262
0.141195
0.141126
0.141056
0.140984
0.140911
0.140837
0.140762
0.140686
0.140611
0.140535
0.140459
0.140384
0.14031
0.140238
0.140167
0.140098
0.140033
0.13997
0.139912
0.139858
0.13981
0.139767
0.139731
0.139701
0.139679
0.139663
0.139655
0.139654
0.13966
0.139673
0.139694
0.139722
0.139758
0.139801
0.140056
0.140167
0.140274
0.140378
0.140479
0.140576
0.140671
0.140762
0.14085
0.140936
0.141019
0.1411
0.141178
0.141254
0.141327
0.141398
0.141466
0.141532
0.141596
0.141658
0.141717
0.141774
0.141829
0.141881
0.141932
0.14198
0.142026
0.14207
0.142112
0.142151
0.142189
0.142224
0.142258
0.142289
0.142319
0.142346
0.142371
0.142395
0.142416
0.142436
0.142454
0.14247
0.142484
0.142496
0.142507
0.142516
0.142523
0.142528
0.142532
0.142534
0.142535
0.142534
0.142531
0.142527
0.142521
0.142514
0.142505
0.142495
0.142483
0.142469
0.142454
0.142437
0.142418
0.142398
0.142376
0.142352
0.142326
0.142299
0.142269
0.142238
0.142204
0.142169
0.142131
0.142092
0.14205
0.142006
0.14196
0.141912
0.141862
0.141809
0.141754
0.141697
0.141638
0.141577
0.141514
0.141449
0.141383
0.141314
0.141244
0.141173
0.1411
0.141026
0.140952
0.140877
0.140801
0.140726
0.140651
0.140576
0.140502
0.14043
0.140359
0.140291
0.140225
0.140163
0.140104
0.14005
0.140001
0.139958
0.139922
0.139892
0.13987
0.139856
0.139849
0.13985
0.139859
0.139875
0.1399
0.139932
0.139973
0.140021
0.140061
0.140179
0.140294
0.140405
0.140513
0.140617
0.140718
0.140816
0.14091
0.141001
0.14109
0.141175
0.141258
0.141338
0.141416
0.14149
0.141563
0.141632
0.141699
0.141764
0.141826
0.141886
0.141944
0.141999
0.142052
0.142102
0.14215
0.142196
0.14224
0.142281
0.142321
0.142358
0.142393
0.142426
0.142457
0.142485
0.142512
0.142537
0.14256
0.142581
0.1426
0.142617
0.142633
0.142646
0.142658
0.142668
0.142676
0.142683
0.142688
0.142691
0.142693
0.142693
0.142691
0.142688
0.142683
0.142677
0.142669
0.142659
0.142648
0.142635
0.14262
0.142604
0.142586
0.142566
0.142545
0.142522
0.142497
0.14247
0.142441
0.14241
0.142377
0.142342
0.142305
0.142266
0.142225
0.142181
0.142136
0.142088
0.142038
0.141986
0.141932
0.141875
0.141816
0.141756
0.141693
0.141628
0.141562
0.141494
0.141424
0.141353
0.141281
0.141208
0.141134
0.141059
0.140984
0.140909
0.140834
0.14076
0.140686
0.140614
0.140544
0.140476
0.14041
0.140348
0.140289
0.140235
0.140186
0.140143
0.140106
0.140077
0.140056
0.140043
0.140037
0.14004
0.140051
0.140071
0.140099
0.140136
0.140181
0.140235
0.140064
0.140191
0.140313
0.140431
0.140546
0.140656
0.140763
0.140867
0.140967
0.141064
0.141157
0.141248
0.141335
0.141419
0.141501
0.141579
0.141655
0.141728
0.141799
0.141866
0.141931
0.141994
0.142054
0.142111
0.142166
0.142219
0.142269
0.142317
0.142362
0.142406
0.142447
0.142485
0.142522
0.142556
0.142589
0.142619
0.142647
0.142673
0.142697
0.14272
0.14274
0.142758
0.142775
0.142789
0.142802
0.142813
0.142823
0.14283
0.142836
0.142841
0.142843
0.142844
0.142843
0.142841
0.142837
0.142832
0.142824
0.142815
0.142805
0.142793
0.142779
0.142763
0.142746
0.142727
0.142706
0.142684
0.142659
0.142633
0.142604
0.142574
0.142541
0.142507
0.14247
0.142432
0.142391
0.142348
0.142303
0.142255
0.142206
0.142154
0.1421
0.142044
0.141986
0.141925
0.141863
0.141799
0.141733
0.141665
0.141596
0.141525
0.141453
0.14138
0.141306
0.141232
0.141157
0.141083
0.141008
0.140934
0.140861
0.140789
0.140719
0.140651
0.140586
0.140524
0.140465
0.140411
0.140362
0.140318
0.140282
0.140253
0.140233
0.140221
0.140217
0.140222
0.140236
0.140258
0.14029
0.140331
0.140381
0.14044
0.140068
0.140202
0.140331
0.140456
0.140577
0.140693
0.140806
0.140916
0.141021
0.141123
0.141221
0.141316
0.141408
0.141496
0.141581
0.141663
0.141743
0.141819
0.141892
0.141963
0.14203
0.142095
0.142158
0.142217
0.142274
0.142329
0.142381
0.142431
0.142478
0.142523
0.142565
0.142606
0.142644
0.14268
0.142713
0.142745
0.142774
0.142802
0.142827
0.14285
0.142872
0.142891
0.142909
0.142925
0.142938
0.142951
0.142961
0.142969
0.142976
0.142982
0.142985
0.142987
0.142987
0.142985
0.142982
0.142978
0.142971
0.142963
0.142953
0.142942
0.142928
0.142914
0.142897
0.142878
0.142858
0.142836
0.142812
0.142786
0.142758
0.142728
0.142696
0.142662
0.142626
0.142588
0.142548
0.142505
0.14246
0.142413
0.142364
0.142313
0.142259
0.142203
0.142145
0.142085
0.142023
0.141959
0.141894
0.141826
0.141757
0.141687
0.141615
0.141543
0.141469
0.141395
0.141321
0.141246
0.141172
0.141098
0.141026
0.140954
0.140884
0.140816
0.140751
0.140689
0.14063
0.140576
0.140527
0.140484
0.140447
0.140419
0.140399
0.140388
0.140386
0.140393
0.14041
0.140436
0.140471
0.140515
0.14057
0.140634
0.140072
0.140212
0.140347
0.140479
0.140606
0.140728
0.140847
0.140961
0.141071
0.141178
0.141281
0.14138
0.141476
0.141568
0.141657
0.141742
0.141824
0.141904
0.14198
0.142053
0.142123
0.14219
0.142255
0.142316
0.142376
0.142432
0.142486
0.142537
0.142586
0.142632
0.142676
0.142718
0.142757
0.142794
0.142829
0.142862
0.142893
0.142921
0.142948
0.142972
0.142994
0.143015
0.143034
0.14305
0.143065
0.143078
0.143089
0.143099
0.143107
0.143113
0.143117
0.14312
0.143121
0.14312
0.143118
0.143113
0.143108
0.1431
0.143091
0.14308
0.143068
0.143053
0.143037
0.143019
0.143
0.142978
0.142955
0.142929
0.142902
0.142872
0.142841
0.142807
0.142772
0.142734
0.142694
0.142652
0.142607
0.142561
0.142512
0.142461
0.142408
0.142352
0.142295
0.142235
0.142174
0.14211
0.142045
0.141978
0.141909
0.141839
0.141767
0.141695
0.141622
0.141548
0.141474
0.141399
0.141325
0.141252
0.141179
0.141107
0.141038
0.14097
0.140904
0.140842
0.140784
0.140729
0.14068
0.140637
0.140601
0.140573
0.140554
0.140544
0.140544
0.140553
0.140572
0.140601
0.14064
0.140688
0.140747
0.140817
0.140075
0.140221
0.140363
0.1405
0.140632
0.14076
0.140884
0.141003
0.141118
0.141229
0.141336
0.141439
0.141538
0.141634
0.141726
0.141815
0.1419
0.141982
0.14206
0.142136
0.142208
0.142277
0.142344
0.142408
0.142468
0.142526
0.142582
0.142635
0.142685
0.142733
0.142778
0.142821
0.142862
0.1429
0.142936
0.14297
0.143001
0.143031
0.143058
0.143084
0.143107
0.143129
0.143148
0.143166
0.143181
0.143195
0.143208
0.143218
0.143226
0.143233
0.143238
0.143242
0.143243
0.143243
0.143242
0.143238
0.143233
0.143227
0.143218
0.143208
0.143196
0.143182
0.143167
0.143149
0.14313
0.143109
0.143086
0.143061
0.143034
0.143005
0.142974
0.142941
0.142906
0.142869
0.142829
0.142787
0.142744
0.142697
0.142649
0.142598
0.142546
0.142491
0.142433
0.142374
0.142313
0.14225
0.142185
0.142118
0.14205
0.14198
0.141909
0.141837
0.141763
0.14169
0.141616
0.141541
0.141467
0.141394
0.141321
0.141249
0.141179
0.141111
0.141046
0.140984
0.140925
0.14087
0.140821
0.140778
0.140742
0.140714
0.140696
0.140688
0.140689
0.1407
0.140722
0.140753
0.140795
0.140848
0.140912
0.140986
0.140078
0.14023
0.140377
0.14052
0.140657
0.14079
0.140918
0.141042
0.141161
0.141276
0.141386
0.141493
0.141596
0.141694
0.141789
0.141881
0.141968
0.142052
0.142133
0.142211
0.142285
0.142357
0.142425
0.14249
0.142552
0.142612
0.142669
0.142723
0.142775
0.142823
0.14287
0.142914
0.142956
0.142995
0.143032
0.143067
0.143099
0.14313
0.143158
0.143184
0.143209
0.143231
0.143251
0.14327
0.143286
0.143301
0.143314
0.143325
0.143335
0.143342
0.143348
0.143352
0.143354
0.143355
0.143354
0.143351
0.143347
0.143341
0.143333
0.143323
0.143312
0.143299
0.143284
0.143267
0.143249
0.143228
0.143206
0.143181
0.143155
0.143126
0.143096
0.143063
0.143029
0.142992
0.142953
0.142912
0.142868
0.142823
0.142775
0.142724
0.142672
0.142618
0.142561
0.142502
0.142441
0.142378
0.142314
0.142247
0.142179
0.14211
0.142039
0.141967
0.141894
0.14182
0.141746
0.141672
0.141598
0.141524
0.141451
0.141379
0.141309
0.141241
0.141175
0.141112
0.141053
0.140998
0.140949
0.140905
0.140869
0.140843
0.140825
0.140818
0.140821
0.140834
0.140858
0.140892
0.140938
0.140994
0.141062
0.141141
0.14008
0.140238
0.14039
0.140537
0.14068
0.140817
0.140949
0.141077
0.141199
0.141318
0.141432
0.141541
0.141647
0.141748
0.141846
0.14194
0.142029
0.142116
0.142199
0.142278
0.142354
0.142427
0.142497
0.142563
0.142627
0.142688
0.142746
0.142801
0.142854
0.142904
0.142951
0.142996
0.143039
0.143079
0.143117
0.143153
0.143186
0.143217
0.143246
0.143274
0.143299
0.143322
0.143343
0.143362
0.143379
0.143395
0.143408
0.14342
0.14343
0.143439
0.143445
0.14345
0.143453
0.143454
0.143454
0.143452
0.143448
0.143443
0.143435
0.143426
0.143416
0.143403
0.143389
0.143373
0.143355
0.143335
0.143313
0.143289
0.143263
0.143235
0.143205
0.143173
0.143139
0.143103
0.143064
0.143024
0.142981
0.142936
0.142888
0.142839
0.142787
0.142733
0.142676
0.142618
0.142558
0.142495
0.142431
0.142365
0.142297
0.142228
0.142157
0.142085
0.142012
0.141939
0.141865
0.14179
0.141716
0.141642
0.141569
0.141497
0.141426
0.141358
0.141291
0.141228
0.141168
0.141113
0.141063
0.141019
0.140984
0.140957
0.140941
0.140934
0.140939
0.140954
0.14098
0.141017
0.141065
0.141125
0.141197
0.141281
0.140083
0.140245
0.140402
0.140553
0.1407
0.140841
0.140977
0.141108
0.141234
0.141355
0.141472
0.141584
0.141692
0.141796
0.141896
0.141991
0.142083
0.142171
0.142256
0.142337
0.142414
0.142488
0.142559
0.142627
0.142692
0.142754
0.142813
0.142869
0.142923
0.142973
0.143022
0.143067
0.143111
0.143152
0.14319
0.143227
0.143261
0.143293
0.143323
0.143351
0.143376
0.1434
0.143422
0.143442
0.14346
0.143476
0.14349
0.143503
0.143513
0.143522
0.14353
0.143535
0.143539
0.143541
0.143541
0.14354
0.143536
0.143532
0.143525
0.143517
0.143506
0.143494
0.143481
0.143465
0.143448
0.143428
0.143407
0.143384
0.143359
0.143331
0.143302
0.143271
0.143237
0.143201
0.143164
0.143123
0.143081
0.143037
0.14299
0.142941
0.142889
0.142836
0.14278
0.142722
0.142662
0.1426
0.142536
0.14247
0.142403
0.142334
0.142263
0.142192
0.142119
0.142045
0.141971
0.141897
0.141822
0.141748
0.141675
0.141602
0.141531
0.141462
0.141395
0.141331
0.14127
0.141214
0.141164
0.14112
0.141084
0.141058
0.141042
0.141037
0.141042
0.141059
0.141087
0.141127
0.141178
0.141242
0.141318
0.141407
0.140085
0.140252
0.140412
0.140567
0.140717
0.140862
0.141001
0.141135
0.141263
0.141387
0.141507
0.141621
0.141731
0.141837
0.141938
0.142036
0.142129
0.142219
0.142304
0.142386
0.142465
0.14254
0.142612
0.142681
0.142747
0.142809
0.142869
0.142926
0.14298
0.143032
0.143081
0.143127
0.143171
0.143213
0.143252
0.143289
0.143323
0.143356
0.143386
0.143415
0.143441
0.143466
0.143488
0.143508
0.143527
0.143544
0.143559
0.143572
0.143583
0.143593
0.1436
0.143607
0.143611
0.143614
0.143614
0.143614
0.143611
0.143607
0.143601
0.143593
0.143584
0.143572
0.143559
0.143544
0.143527
0.143509
0.143488
0.143465
0.143441
0.143414
0.143386
0.143355
0.143322
0.143287
0.14325
0.14321
0.143168
0.143125
0.143078
0.14303
0.142979
0.142926
0.142871
0.142814
0.142754
0.142692
0.142629
0.142564
0.142496
0.142428
0.142357
0.142286
0.142213
0.142139
0.142065
0.14199
0.141916
0.141841
0.141767
0.141694
0.141622
0.141552
0.141485
0.14142
0.141359
0.141302
0.14125
0.141206
0.14117
0.141144
0.141129
0.141124
0.141131
0.14115
0.14118
0.141222
0.141277
0.141344
0.141423
0.141516
0.140087
0.140257
0.140421
0.14058
0.140732
0.14088
0.141021
0.141158
0.141289
0.141415
0.141536
0.141652
0.141764
0.141871
0.141974
0.142073
0.142167
0.142258
0.142344
0.142427
0.142507
0.142583
0.142655
0.142725
0.142791
0.142854
0.142914
0.142972
0.143026
0.143078
0.143128
0.143175
0.143219
0.143261
0.143301
0.143338
0.143373
0.143406
0.143437
0.143466
0.143493
0.143518
0.143541
0.143562
0.143581
0.143598
0.143614
0.143627
0.143639
0.143649
0.143658
0.143664
0.143669
0.143672
0.143674
0.143674
0.143672
0.143668
0.143663
0.143656
0.143647
0.143636
0.143624
0.143609
0.143593
0.143575
0.143555
0.143533
0.143509
0.143483
0.143455
0.143425
0.143393
0.143359
0.143322
0.143284
0.143243
0.143199
0.143154
0.143106
0.143056
0.143003
0.142949
0.142892
0.142833
0.142772
0.142709
0.142644
0.142577
0.142509
0.142438
0.142367
0.142294
0.142221
0.142146
0.142071
0.141996
0.141921
0.141847
0.141773
0.1417
0.14163
0.141561
0.141495
0.141433
0.141375
0.141323
0.141278
0.141242
0.141216
0.141202
0.141198
0.141206
0.141226
0.141258
0.141302
0.14136
0.14143
0.141513
0.14161
0.140089
0.140262
0.140429
0.14059
0.140745
0.140894
0.141038
0.141177
0.141309
0.141437
0.14156
0.141677
0.14179
0.141898
0.142002
0.142102
0.142197
0.142288
0.142375
0.142459
0.142539
0.142615
0.142688
0.142758
0.142825
0.142888
0.142949
0.143006
0.143061
0.143114
0.143163
0.14321
0.143255
0.143297
0.143337
0.143375
0.14341
0.143444
0.143475
0.143504
0.143532
0.143557
0.14358
0.143602
0.143621
0.143639
0.143655
0.143669
0.143681
0.143692
0.143701
0.143708
0.143714
0.143717
0.143719
0.14372
0.143719
0.143716
0.143711
0.143704
0.143696
0.143686
0.143674
0.143661
0.143645
0.143628
0.143608
0.143587
0.143564
0.143539
0.143512
0.143482
0.143451
0.143417
0.143381
0.143343
0.143303
0.143261
0.143216
0.143169
0.143119
0.143067
0.143014
0.142957
0.142899
0.142838
0.142776
0.142711
0.142645
0.142576
0.142507
0.142435
0.142363
0.142289
0.142214
0.142139
0.142064
0.141988
0.141913
0.141838
0.141765
0.141693
0.141624
0.141557
0.141494
0.141435
0.141382
0.141336
0.1413
0.141274
0.14126
0.141257
0.141266
0.141287
0.141321
0.141368
0.141427
0.141501
0.141587
0.141687
0.14009
0.140266
0.140435
0.140598
0.140755
0.140906
0.141052
0.141191
0.141326
0.141454
0.141578
0.141696
0.14181
0.141919
0.142023
0.142123
0.142219
0.14231
0.142398
0.142481
0.142561
0.142638
0.142711
0.142781
0.142848
0.142911
0.142972
0.143029
0.143084
0.143137
0.143187
0.143234
0.143279
0.143321
0.143361
0.143399
0.143435
0.143468
0.1435
0.143529
0.143557
0.143582
0.143606
0.143628
0.143648
0.143666
0.143682
0.143697
0.143709
0.143721
0.14373
0.143738
0.143744
0.143748
0.143751
0.143752
0.143751
0.143748
0.143744
0.143738
0.143731
0.143721
0.14371
0.143697
0.143683
0.143666
0.143647
0.143627
0.143604
0.14358
0.143554
0.143525
0.143494
0.143461
0.143426
0.143389
0.14335
0.143308
0.143264
0.143218
0.143169
0.143118
0.143065
0.143009
0.142951
0.142891
0.142829
0.142765
0.142699
0.142631
0.142561
0.14249
0.142417
0.142344
0.142269
0.142193
0.142117
0.142041
0.141965
0.14189
0.141816
0.141743
0.141672
0.141604
0.14154
0.14148
0.141426
0.141379
0.141343
0.141318
0.141303
0.141301
0.141311
0.141334
0.141369
0.141418
0.141481
0.141557
0.141646
0.141749
0.140091
0.140269
0.14044
0.140604
0.140763
0.140915
0.141062
0.141202
0.141337
0.141467
0.141591
0.141709
0.141823
0.141932
0.142037
0.142137
0.142232
0.142324
0.142411
0.142495
0.142574
0.142651
0.142724
0.142793
0.14286
0.142923
0.142984
0.143041
0.143096
0.143148
0.143198
0.143245
0.14329
0.143332
0.143372
0.14341
0.143446
0.14348
0.143511
0.143541
0.143568
0.143594
0.143618
0.14364
0.14366
0.143679
0.143695
0.14371
0.143724
0.143735
0.143745
0.143753
0.14376
0.143764
0.143768
0.143769
0.143769
0.143767
0.143763
0.143758
0.143751
0.143742
0.143732
0.14372
0.143706
0.14369
0.143672
0.143652
0.14363
0.143607
0.143581
0.143553
0.143523
0.143491
0.143457
0.143421
0.143382
0.143341
0.143298
0.143252
0.143204
0.143154
0.143102
0.143047
0.14299
0.14293
0.142869
0.142805
0.142739
0.142672
0.142602
0.142531
0.142458
0.142385
0.142309
0.142234
0.142157
0.14208
0.142004
0.141927
0.141852
0.141778
0.141706
0.141637
0.141572
0.14151
0.141455
0.141408
0.141372
0.141346
0.141333
0.141331
0.141342
0.141366
0.141403
0.141455
0.14152
0.141598
0.141691
0.141798
0.140092
0.140271
0.140443
0.140609
0.140768
0.140921
0.141068
0.141209
0.141344
0.141474
0.141598
0.141716
0.14183
0.141939
0.142043
0.142142
0.142238
0.142329
0.142415
0.142499
0.142578
0.142654
0.142726
0.142795
0.142861
0.142924
0.142984
0.143042
0.143096
0.143148
0.143197
0.143244
0.143289
0.143331
0.143371
0.143409
0.143444
0.143478
0.143509
0.143539
0.143567
0.143593
0.143617
0.143639
0.143659
0.143678
0.143695
0.14371
0.143723
0.143735
0.143746
0.143754
0.143761
0.143766
0.14377
0.143772
0.143772
0.143771
0.143768
0.143763
0.143757
0.143749
0.143739
0.143727
0.143714
0.143699
0.143682
0.143663
0.143642
0.143619
0.143594
0.143567
0.143538
0.143507
0.143474
0.143438
0.1434
0.14336
0.143318
0.143273
0.143226
0.143176
0.143125
0.14307
0.143014
0.142955
0.142894
0.142831
0.142766
0.142698
0.142629
0.142558
0.142485
0.142411
0.142336
0.14226
0.142183
0.142105
0.142028
0.141951
0.141874
0.141799
0.141726
0.141655
0.141588
0.141526
0.14147
0.141422
0.141386
0.14136
0.141347
0.141346
0.141358
0.141384
0.141423
0.141476
0.141544
0.141626
0.141722
0.141831
0.140092
0.140272
0.140445
0.140611
0.140771
0.140924
0.141071
0.141212
0.141347
0.141476
0.141599
0.141717
0.14183
0.141939
0.142042
0.142141
0.142235
0.142325
0.142411
0.142493
0.142572
0.142647
0.142719
0.142787
0.142853
0.142915
0.142974
0.143031
0.143085
0.143136
0.143185
0.143231
0.143275
0.143317
0.143357
0.143394
0.14343
0.143463
0.143495
0.143524
0.143552
0.143578
0.143602
0.143624
0.143644
0.143663
0.14368
0.143696
0.143709
0.143721
0.143732
0.143741
0.143748
0.143754
0.143758
0.14376
0.143761
0.14376
0.143758
0.143754
0.143748
0.143741
0.143731
0.143721
0.143708
0.143693
0.143677
0.143659
0.143639
0.143617
0.143592
0.143566
0.143538
0.143508
0.143475
0.143441
0.143404
0.143364
0.143323
0.143279
0.143233
0.143184
0.143133
0.143079
0.143024
0.142965
0.142905
0.142842
0.142777
0.14271
0.142641
0.14257
0.142498
0.142424
0.142348
0.142271
0.142194
0.142115
0.142037
0.141959
0.141881
0.141805
0.141731
0.141659
0.14159
0.141527
0.141469
0.141421
0.141384
0.141359
0.141346
0.141346
0.141359
0.141386
0.141427
0.141483
0.141553
0.141637
0.141736
0.141848
0.140092
0.140273
0.140446
0.140612
0.140771
0.140924
0.14107
0.14121
0.141345
0.141473
0.141595
0.141712
0.141824
0.141931
0.142034
0.142131
0.142224
0.142313
0.142398
0.142479
0.142557
0.142631
0.142702
0.142769
0.142833
0.142895
0.142953
0.143009
0.143062
0.143113
0.143161
0.143207
0.14325
0.143291
0.14333
0.143368
0.143403
0.143436
0.143467
0.143496
0.143524
0.143549
0.143573
0.143595
0.143616
0.143635
0.143652
0.143667
0.143681
0.143694
0.143704
0.143714
0.143721
0.143727
0.143732
0.143734
0.143736
0.143735
0.143733
0.14373
0.143725
0.143718
0.143709
0.143699
0.143687
0.143673
0.143657
0.14364
0.143621
0.143599
0.143576
0.143551
0.143523
0.143494
0.143462
0.143428
0.143392
0.143354
0.143313
0.14327
0.143224
0.143177
0.143126
0.143074
0.143019
0.142961
0.142901
0.142839
0.142774
0.142708
0.142639
0.142568
0.142495
0.142421
0.142345
0.142268
0.142189
0.142111
0.142031
0.141952
0.141873
0.141796
0.14172
0.141646
0.141576
0.141511
0.141453
0.141405
0.141368
0.141343
0.14133
0.14133
0.141344
0.141373
0.141416
0.141473
0.141546
0.141633
0.141734
0.141846
0.140092
0.140272
0.140445
0.14061
0.140769
0.140921
0.141066
0.141205
0.141338
0.141465
0.141586
0.141702
0.141812
0.141918
0.142018
0.142114
0.142206
0.142293
0.142377
0.142457
0.142533
0.142605
0.142675
0.142741
0.142804
0.142864
0.142921
0.142976
0.143028
0.143078
0.143125
0.14317
0.143213
0.143254
0.143292
0.143329
0.143363
0.143396
0.143427
0.143456
0.143483
0.143508
0.143532
0.143554
0.143574
0.143593
0.14361
0.143626
0.14364
0.143652
0.143663
0.143672
0.14368
0.143686
0.143691
0.143694