/*--------------------------------*- C++ -*----------------------------------*\
  =========                 |
  \\      /  F ield         | OpenFOAM: The Open Source CFD Toolbox
   \\    /   O peration     | Website:  https://openfoam.org
    \\  /    A nd           | Version:  8
     \\/     M anipulation  |
\*---------------------------------------------------------------------------*/
FoamFile
{
    version     2.0;
    format      ascii;
    class       volScalarField;
    location    "3";
    object      nut;
}
// * * * * * * * * * * * * * * * * * * * * * * * * * * * * * * * * * * * * * //

dimensions      [0 2 -1 0 0 0 0];

internalField   nonuniform List<scalar> 
10000
(
2.38289e+84
1.55312e+84
1.01195e+84
6.59209e+83
4.29378e+83
2.7966e+83
1.82141e+83
1.18625e+83
7.72582e+82
5.03164e+82
3.27699e+82
2.13422e+82
1.38996e+82
9.05248e+81
5.89565e+81
3.83969e+81
2.50069e+81
1.62864e+81
1.06069e+81
6.90801e+80
4.49901e+80
2.93009e+80
1.9083e+80
1.24283e+80
8.09421e+79
5.27155e+79
3.43323e+79
2.23598e+79
1.45623e+79
9.48409e+78
6.17675e+78
4.02276e+78
2.61992e+78
1.70629e+78
1.11126e+78
7.23737e+77
4.71352e+77
3.0698e+77
1.99928e+77
1.30208e+77
8.48012e+76
5.52289e+76
3.59692e+76
2.34258e+76
1.52566e+76
9.93627e+75
6.47124e+75
4.21456e+75
2.74483e+75
1.78764e+75
1.16425e+75
7.58244e+74
4.93825e+74
3.21616e+74
2.0946e+74
1.36416e+74
8.88444e+73
5.78621e+73
3.76841e+73
2.45427e+73
1.59841e+73
1.041e+73
6.77978e+72
4.4155e+72
2.8757e+72
1.87287e+72
1.21975e+72
7.94395e+71
5.17369e+71
3.3695e+71
2.19447e+71
1.4292e+71
9.30803e+70
6.06208e+70
3.94808e+70
2.57129e+70
1.67461e+70
1.09063e+70
7.10302e+69
4.62602e+69
3.01281e+69
1.96217e+69
1.27791e+69
8.3227e+68
5.42036e+68
3.53015e+68
2.2991e+68
1.49734e+68
9.75182e+67
6.35111e+67
4.13632e+67
2.69388e+67
1.75446e+67
1.14263e+67
7.44159e+66
4.84584e+66
3.16347e+66
2.14299e+66
1.83032e+66
2.43126e+66
1.55312e+84
1.01228e+84
6.59552e+83
4.29645e+83
2.79848e+83
1.82268e+83
1.1871e+83
7.73135e+82
5.03526e+82
3.27935e+82
2.13576e+82
1.39096e+82
9.059e+81
5.8999e+81
3.84246e+81
2.50249e+81
1.62981e+81
1.06145e+81
6.91299e+80
4.50225e+80
2.9322e+80
1.90967e+80
1.24372e+80
8.10004e+79
5.27535e+79
3.4357e+79
2.23759e+79
1.45728e+79
9.49092e+78
6.18119e+78
4.02566e+78
2.62181e+78
1.70752e+78
1.11206e+78
7.24258e+77
4.71691e+77
3.07201e+77
2.00072e+77
1.30302e+77
8.48623e+76
5.52687e+76
3.59951e+76
2.34427e+76
1.52676e+76
9.94342e+75
6.4759e+75
4.21759e+75
2.74681e+75
1.78893e+75
1.16508e+75
7.5879e+74
4.9418e+74
3.21847e+74
2.09611e+74
1.36514e+74
8.89083e+73
5.79038e+73
3.77113e+73
2.45604e+73
1.59956e+73
1.04175e+73
6.78466e+72
4.41868e+72
2.87777e+72
1.87422e+72
1.22063e+72
7.94967e+71
5.17742e+71
3.37192e+71
2.19605e+71
1.43023e+71
9.31473e+70
6.06645e+70
3.95092e+70
2.57314e+70
1.67582e+70
1.09142e+70
7.10814e+69
4.62935e+69
3.01498e+69
1.96358e+69
1.27883e+69
8.32869e+68
5.42427e+68
3.53269e+68
2.30075e+68
1.49842e+68
9.75884e+67
6.35568e+67
4.1393e+67
2.69582e+67
1.75572e+67
1.14346e+67
7.44704e+66
4.85001e+66
3.15822e+66
2.06168e+66
1.39748e+66
1.19887e+66
1.60057e+66
1.01195e+84
6.59552e+83
4.29723e+83
2.79925e+83
1.82326e+83
1.18749e+83
7.73397e+82
5.03697e+82
3.28045e+82
2.13647e+82
1.39143e+82
9.06203e+81
5.90187e+81
3.84374e+81
2.50333e+81
1.63035e+81
1.06181e+81
6.91529e+80
4.50375e+80
2.93318e+80
1.91031e+80
1.24413e+80
8.10273e+79
5.2771e+79
3.43684e+79
2.23833e+79
1.45777e+79
9.49407e+78
6.18325e+78
4.02699e+78
2.62268e+78
1.70809e+78
1.11243e+78
7.24499e+77
4.71848e+77
3.07303e+77
2.00139e+77
1.30345e+77
8.48905e+76
5.5287e+76
3.60071e+76
2.34505e+76
1.52727e+76
9.94673e+75
6.47805e+75
4.21899e+75
2.74772e+75
1.78952e+75
1.16547e+75
7.59042e+74
4.94345e+74
3.21954e+74
2.09681e+74
1.3656e+74
8.89379e+73
5.7923e+73
3.77238e+73
2.45686e+73
1.60009e+73
1.0421e+73
6.78691e+72
4.42015e+72
2.87873e+72
1.87484e+72
1.22104e+72
7.95231e+71
5.17914e+71
3.37304e+71
2.19678e+71
1.43071e+71
9.31783e+70
6.06847e+70
3.95224e+70
2.57399e+70
1.67638e+70
1.09178e+70
7.1105e+69
4.63089e+69
3.01598e+69
1.96423e+69
1.27925e+69
8.33146e+68
5.42607e+68
3.53386e+68
2.30152e+68
1.49892e+68
9.76208e+67
6.3578e+67
4.14067e+67
2.69672e+67
1.7563e+67
1.14384e+67
7.44951e+66
4.85169e+66
3.15974e+66
2.05752e+66
1.34334e+66
9.1217e+65
7.84882e+65
1.05835e+66
6.59209e+83
4.29645e+83
2.79925e+83
1.82341e+83
1.18764e+83
7.73497e+82
5.03761e+82
3.28085e+82
2.13672e+82
1.39159e+82
9.06301e+81
5.90249e+81
3.84414e+81
2.50359e+81
1.63052e+81
1.06192e+81
6.91599e+80
4.50421e+80
2.93348e+80
1.9105e+80
1.24426e+80
8.10355e+79
5.27764e+79
3.43719e+79
2.23856e+79
1.45791e+79
9.49503e+78
6.18387e+78
4.0274e+78
2.62294e+78
1.70826e+78
1.11255e+78
7.24572e+77
4.71896e+77
3.07334e+77
2.00159e+77
1.30358e+77
8.48991e+76
5.52926e+76
3.60107e+76
2.34529e+76
1.52743e+76
9.94773e+75
6.47871e+75
4.21942e+75
2.748e+75
1.7897e+75
1.16559e+75
7.59119e+74
4.94395e+74
3.21987e+74
2.09702e+74
1.36574e+74
8.89469e+73
5.79289e+73
3.77276e+73
2.4571e+73
1.60025e+73
1.0422e+73
6.7876e+72
4.42059e+72
2.87902e+72
1.87503e+72
1.22116e+72
7.95312e+71
5.17966e+71
3.37338e+71
2.197e+71
1.43085e+71
9.31877e+70
6.06908e+70
3.95264e+70
2.57425e+70
1.67655e+70
1.09189e+70
7.11122e+69
4.63136e+69
3.01629e+69
1.96443e+69
1.27938e+69
8.3323e+68
5.42662e+68
3.53422e+68
2.30175e+68
1.49907e+68
9.76307e+67
6.35844e+67
4.14109e+67
2.69699e+67
1.75648e+67
1.14395e+67
7.45027e+66
4.85217e+66
3.1601e+66
2.05807e+66
1.3402e+66
8.75394e+65
5.93591e+65
4.92282e+65
6.17928e+65
4.29378e+83
2.79848e+83
1.82326e+83
1.18764e+83
7.73521e+82
5.03778e+82
3.28093e+82
2.13675e+82
1.39159e+82
9.06294e+81
5.9024e+81
3.84406e+81
2.50353e+81
1.63048e+81
1.06189e+81
6.91579e+80
4.50408e+80
2.93339e+80
1.91044e+80
1.24422e+80
8.1033e+79
5.27747e+79
3.43709e+79
2.23849e+79
1.45787e+79
9.49474e+78
6.18368e+78
4.02728e+78
2.62286e+78
1.7082e+78
1.11251e+78
7.2455e+77
4.71881e+77
3.07324e+77
2.00153e+77
1.30354e+77
8.48965e+76
5.52909e+76
3.60096e+76
2.34521e+76
1.52738e+76
9.94743e+75
6.47851e+75
4.21929e+75
2.74792e+75
1.78965e+75
1.16555e+75
7.59095e+74
4.94379e+74
3.21977e+74
2.09695e+74
1.36569e+74
8.89441e+73
5.79271e+73
3.77264e+73
2.45703e+73
1.6002e+73
1.04217e+73
6.78739e+72
4.42046e+72
2.87893e+72
1.87498e+72
1.22112e+72
7.95287e+71
5.1795e+71
3.37328e+71
2.19693e+71
1.43081e+71
9.31848e+70
6.06889e+70
3.95252e+70
2.57417e+70
1.67649e+70
1.09186e+70
7.111e+69
4.63121e+69
3.01619e+69
1.96437e+69
1.27934e+69
8.33205e+68
5.42645e+68
3.53411e+68
2.30168e+68
1.49902e+68
9.76277e+67
6.35824e+67
4.14096e+67
2.6969e+67
1.75643e+67
1.14392e+67
7.45004e+66
4.85202e+66
3.16e+66
2.05803e+66
1.34033e+66
8.7284e+65
5.69957e+65
3.82949e+65
2.96018e+65
3.08863e+65
2.7966e+83
1.82268e+83
1.18749e+83
7.73497e+82
5.03778e+82
3.28093e+82
2.13672e+82
1.39154e+82
9.0625e+81
5.90203e+81
3.84377e+81
2.50332e+81
1.63033e+81
1.06179e+81
6.91512e+80
4.50363e+80
2.9331e+80
1.91025e+80
1.2441e+80
8.10247e+79
5.27693e+79
3.43673e+79
2.23826e+79
1.45772e+79
9.49376e+78
6.18305e+78
4.02686e+78
2.62259e+78
1.70803e+78
1.1124e+78
7.24476e+77
4.71833e+77
3.07293e+77
2.00132e+77
1.30341e+77
8.48877e+76
5.52852e+76
3.60059e+76
2.34497e+76
1.52722e+76
9.9464e+75
6.47784e+75
4.21885e+75
2.74763e+75
1.78946e+75
1.16543e+75
7.59017e+74
4.94329e+74
3.21944e+74
2.09674e+74
1.36555e+74
8.8935e+73
5.79211e+73
3.77226e+73
2.45678e+73
1.60004e+73
1.04206e+73
6.78669e+72
4.42e+72
2.87863e+72
1.87478e+72
1.221e+72
7.95205e+71
5.17897e+71
3.37293e+71
2.19671e+71
1.43066e+71
9.31752e+70
6.06827e+70
3.95211e+70
2.57391e+70
1.67632e+70
1.09175e+70
7.11027e+69
4.63074e+69
3.01588e+69
1.96417e+69
1.27921e+69
8.33119e+68
5.42589e+68
3.53375e+68
2.30144e+68
1.49887e+68
9.76176e+67
6.35759e+67
4.14054e+67
2.69663e+67
1.75625e+67
1.1438e+67
7.44927e+66
4.85152e+66
3.15967e+66
2.05782e+66
1.3402e+66
8.72831e+65
5.68415e+65
3.70929e+65
2.46898e+65
1.811e+65
1.7212e+65
1.82141e+83
1.1871e+83
7.73397e+82
5.03761e+82
3.28093e+82
2.13672e+82
1.39152e+82
9.06216e+81
5.90169e+81
3.84347e+81
2.50308e+81
1.63016e+81
1.06166e+81
6.91427e+80
4.50305e+80
2.93271e+80
1.90999e+80
1.24393e+80
8.10135e+79
5.2762e+79
3.43625e+79
2.23794e+79
1.45752e+79
9.49243e+78
6.18218e+78
4.0263e+78
2.62222e+78
1.70779e+78
1.11224e+78
7.24374e+77
4.71766e+77
3.07249e+77
2.00104e+77
1.30323e+77
8.48758e+76
5.52774e+76
3.60008e+76
2.34464e+76
1.52701e+76
9.945e+75
6.47693e+75
4.21826e+75
2.74725e+75
1.78921e+75
1.16527e+75
7.5891e+74
4.94259e+74
3.21898e+74
2.09644e+74
1.36536e+74
8.89225e+73
5.7913e+73
3.77172e+73
2.45643e+73
1.59981e+73
1.04192e+73
6.78574e+72
4.41938e+72
2.87823e+72
1.87452e+72
1.22083e+72
7.95093e+71
5.17824e+71
3.37246e+71
2.1964e+71
1.43046e+71
9.31621e+70
6.06741e+70
3.95155e+70
2.57355e+70
1.67609e+70
1.09159e+70
7.10927e+69
4.63008e+69
3.01546e+69
1.96389e+69
1.27903e+69
8.33002e+68
5.42513e+68
3.53325e+68
2.30112e+68
1.49866e+68
9.76039e+67
6.35669e+67
4.13995e+67
2.69625e+67
1.756e+67
1.14364e+67
7.44822e+66
4.85084e+66
3.15923e+66
2.05753e+66
1.34001e+66
8.72718e+65
5.68374e+65
3.70149e+65
2.41397e+65
1.59565e+65
1.13226e+65
1.02024e+65
1.18625e+83
7.73135e+82
5.03697e+82
3.28085e+82
2.13675e+82
1.39154e+82
9.06216e+81
5.90155e+81
3.84329e+81
2.5029e+81
1.63001e+81
1.06155e+81
6.91343e+80
4.50246e+80
2.9323e+80
1.90971e+80
1.24374e+80
8.10011e+79
5.27538e+79
3.43571e+79
2.23759e+79
1.45728e+79
9.49092e+78
6.18119e+78
4.02565e+78
2.62181e+78
1.70752e+78
1.11206e+78
7.24258e+77
4.71691e+77
3.072e+77
2.00072e+77
1.30302e+77
8.48622e+76
5.52686e+76
3.5995e+76
2.34427e+76
1.52676e+76
9.94341e+75
6.47589e+75
4.21758e+75
2.74681e+75
1.78893e+75
1.16508e+75
7.58788e+74
4.9418e+74
3.21847e+74
2.09611e+74
1.36514e+74
8.89082e+73
5.79037e+73
3.77112e+73
2.45604e+73
1.59955e+73
1.04175e+73
6.78465e+72
4.41867e+72
2.87777e+72
1.87422e+72
1.22063e+72
7.94966e+71
5.17741e+71
3.37192e+71
2.19604e+71
1.43023e+71
9.31472e+70
6.06644e+70
3.95092e+70
2.57313e+70
1.67582e+70
1.09142e+70
7.10813e+69
4.62934e+69
3.01497e+69
1.96358e+69
1.27883e+69
8.32868e+68
5.42426e+68
3.53268e+68
2.30075e+68
1.49842e+68
9.75882e+67
6.35567e+67
4.13929e+67
2.69582e+67
1.75572e+67
1.14345e+67
7.44703e+66
4.85006e+66
3.15872e+66
2.0572e+66
1.3398e+66
8.72578e+65
5.68288e+65
3.70109e+65
2.41033e+65
1.57119e+65
1.03384e+65
7.1912e+64
6.27348e+64
7.72582e+82
5.03526e+82
3.28045e+82
2.13672e+82
1.39159e+82
9.0625e+81
5.90169e+81
3.84329e+81
2.50284e+81
1.62992e+81
1.06147e+81
6.91276e+80
4.50195e+80
2.93192e+80
1.90945e+80
1.24356e+80
8.09888e+79
5.27455e+79
3.43516e+79
2.23722e+79
1.45704e+79
9.48933e+78
6.18015e+78
4.02497e+78
2.62136e+78
1.70723e+78
1.11187e+78
7.24135e+77
4.71611e+77
3.07148e+77
2.00038e+77
1.3028e+77
8.48477e+76
5.52592e+76
3.59889e+76
2.34387e+76
1.5265e+76
9.94172e+75
6.47479e+75
4.21687e+75
2.74634e+75
1.78862e+75
1.16488e+75
7.58659e+74
4.94096e+74
3.21792e+74
2.09575e+74
1.36491e+74
8.88931e+73
5.78938e+73
3.77048e+73
2.45562e+73
1.59928e+73
1.04157e+73
6.78349e+72
4.41792e+72
2.87728e+72
1.8739e+72
1.22042e+72
7.94831e+71
5.17653e+71
3.37134e+71
2.19567e+71
1.42999e+71
9.31313e+70
6.06541e+70
3.95025e+70
2.5727e+70
1.67553e+70
1.09123e+70
7.10692e+69
4.62856e+69
3.01446e+69
1.96324e+69
1.27861e+69
8.32727e+68
5.42334e+68
3.53208e+68
2.30036e+68
1.49816e+68
9.75716e+67
6.35459e+67
4.13859e+67
2.69536e+67
1.75542e+67
1.14326e+67
7.44576e+66
4.84924e+66
3.15818e+66
2.05685e+66
1.33957e+66
8.72429e+65
5.68191e+65
3.70048e+65
2.41002e+65
1.56954e+65
1.02279e+65
6.71092e+64
4.613e+64
3.94476e+64
5.03164e+82
3.27935e+82
2.13647e+82
1.39159e+82
9.06294e+81
5.90203e+81
3.84347e+81
2.5029e+81
1.62992e+81
1.06144e+81
6.91239e+80
4.5016e+80
2.93164e+80
1.90923e+80
1.2434e+80
8.09775e+79
5.27377e+79
3.43463e+79
2.23687e+79
1.4568e+79
9.48775e+78
6.17911e+78
4.02429e+78
2.62091e+78
1.70693e+78
1.11168e+78
7.24009e+77
4.71528e+77
3.07094e+77
2.00003e+77
1.30257e+77
8.48329e+76
5.52495e+76
3.59826e+76
2.34346e+76
1.52623e+76
9.93998e+75
6.47366e+75
4.21613e+75
2.74586e+75
1.78831e+75
1.16468e+75
7.58527e+74
4.94009e+74
3.21736e+74
2.09538e+74
1.36467e+74
8.88776e+73
5.78837e+73
3.76982e+73
2.45519e+73
1.599e+73
1.04139e+73
6.78231e+72
4.41715e+72
2.87678e+72
1.87357e+72
1.22021e+72
7.94692e+71
5.17563e+71
3.37076e+71
2.19529e+71
1.42974e+71
9.31151e+70
6.06435e+70
3.94956e+70
2.57225e+70
1.67524e+70
1.09104e+70
7.10568e+69
4.62775e+69
3.01393e+69
1.9629e+69
1.27839e+69
8.32581e+68
5.42239e+68
3.53147e+68
2.29995e+68
1.4979e+68
9.75546e+67
6.35348e+67
4.13786e+67
2.69489e+67
1.75511e+67
1.14306e+67
7.44446e+66
4.84839e+66
3.15763e+66
2.05649e+66
1.33934e+66
8.72277e+65
5.68092e+65
3.69984e+65
2.40961e+65
1.56931e+65
1.02203e+65
6.65869e+64
4.3615e+64
2.97706e+64
2.51478e+64
3.27699e+82
2.13576e+82
1.39143e+82
9.06301e+81
5.9024e+81
3.84377e+81
2.50308e+81
1.63001e+81
1.06147e+81
6.91239e+80
4.50148e+80
2.93148e+80
1.90909e+80
1.24328e+80
8.09683e+79
5.2731e+79
3.43415e+79
2.23653e+79
1.45658e+79
9.48622e+78
6.17809e+78
4.02361e+78
2.62046e+78
1.70664e+78
1.11149e+78
7.23882e+77
4.71446e+77
3.0704e+77
1.99968e+77
1.30234e+77
8.4818e+76
5.52398e+76
3.59763e+76
2.34304e+76
1.52597e+76
9.93822e+75
6.47251e+75
4.21539e+75
2.74537e+75
1.78799e+75
1.16447e+75
7.58393e+74
4.93922e+74
3.21679e+74
2.09501e+74
1.36443e+74
8.88619e+73
5.78735e+73
3.76915e+73
2.45475e+73
1.59872e+73
1.04121e+73
6.78111e+72
4.41637e+72
2.87627e+72
1.87324e+72
1.21999e+72
7.94551e+71
5.17471e+71
3.37016e+71
2.1949e+71
1.42948e+71
9.30986e+70
6.06328e+70
3.94886e+70
2.57179e+70
1.67494e+70
1.09085e+70
7.10442e+69
4.62693e+69
3.0134e+69
1.96255e+69
1.27816e+69
8.32434e+68
5.42143e+68
3.53084e+68
2.29955e+68
1.49764e+68
9.75373e+67
6.35236e+67
4.13713e+67
2.69441e+67
1.7548e+67
1.14286e+67
7.44314e+66
4.84753e+66
3.15707e+66
2.05612e+66
1.3391e+66
8.72122e+65
5.67991e+65
3.69918e+65
2.40919e+65
1.56904e+65
1.02188e+65
6.65504e+64
4.3353e+64
2.8367e+64
1.92829e+64
1.61682e+64
2.13422e+82
1.39096e+82
9.06203e+81
5.90249e+81
3.84406e+81
2.50332e+81
1.63016e+81
1.06155e+81
6.91276e+80
4.5016e+80
2.93148e+80
1.90903e+80
1.24321e+80
8.09623e+79
5.2726e+79
3.43377e+79
2.23626e+79
1.45638e+79
9.48484e+78
6.17714e+78
4.02297e+78
2.62003e+78
1.70635e+78
1.1113e+78
7.23758e+77
4.71364e+77
3.06987e+77
1.99932e+77
1.30211e+77
8.4803e+76
5.523e+76
3.59699e+76
2.34263e+76
1.52569e+76
9.93646e+75
6.47136e+75
4.21464e+75
2.74489e+75
1.78767e+75
1.16427e+75
7.58258e+74
4.93834e+74
3.21622e+74
2.09464e+74
1.36419e+74
8.8846e+73
5.78632e+73
3.76848e+73
2.45432e+73
1.59844e+73
1.04102e+73
6.7799e+72
4.41558e+72
2.87576e+72
1.87291e+72
1.21978e+72
7.9441e+71
5.17379e+71
3.36956e+71
2.19451e+71
1.42923e+71
9.3082e+70
6.0622e+70
3.94816e+70
2.57133e+70
1.67465e+70
1.09065e+70
7.10315e+69
4.62611e+69
3.01287e+69
1.9622e+69
1.27793e+69
8.32286e+68
5.42047e+68
3.53021e+68
2.29914e+68
1.49737e+68
9.752e+67
6.35123e+67
4.1364e+67
2.69393e+67
1.75449e+67
1.14265e+67
7.44182e+66
4.84667e+66
3.15651e+66
2.05576e+66
1.33886e+66
8.71967e+65
5.6789e+65
3.69853e+65
2.40876e+65
1.56876e+65
1.0217e+65
6.65404e+64
4.33348e+64
2.82273e+64
1.84588e+64
1.25174e+64
1.04498e+64
1.38996e+82
9.059e+81
5.90187e+81
3.84414e+81
2.50353e+81
1.63033e+81
1.06166e+81
6.91343e+80
4.50195e+80
2.93164e+80
1.90909e+80
1.24321e+80
8.09602e+79
5.27234e+79
3.43353e+79
2.23605e+79
1.45622e+79
9.48368e+78
6.17631e+78
4.02239e+78
2.61964e+78
1.70608e+78
1.11112e+78
7.23637e+77
4.71284e+77
3.06934e+77
1.99898e+77
1.30188e+77
8.4788e+76
5.52202e+76
3.59635e+76
2.34221e+76
1.52542e+76
9.93469e+75
6.47021e+75
4.21388e+75
2.7444e+75
1.78736e+75
1.16406e+75
7.58123e+74
4.93746e+74
3.21564e+74
2.09427e+74
1.36394e+74
8.88302e+73
5.78529e+73
3.76781e+73
2.45388e+73
1.59815e+73
1.04083e+73
6.77869e+72
4.41479e+72
2.87524e+72
1.87257e+72
1.21956e+72
7.94268e+71
5.17287e+71
3.36896e+71
2.19412e+71
1.42897e+71
9.30654e+70
6.06112e+70
3.94745e+70
2.57088e+70
1.67435e+70
1.09046e+70
7.10189e+69
4.62528e+69
3.01233e+69
1.96185e+69
1.27771e+69
8.32137e+68
5.4195e+68
3.52958e+68
2.29873e+68
1.4971e+68
9.75026e+67
6.3501e+67
4.13566e+67
2.69345e+67
1.75418e+67
1.14245e+67
7.44049e+66
4.8458e+66
3.15595e+66
2.05539e+66
1.33862e+66
8.71812e+65
5.67789e+65
3.69787e+65
2.40833e+65
1.56848e+65
1.02151e+65
6.65286e+64
4.33283e+64
2.82178e+64
1.83797e+64
1.20149e+64
8.13654e+63
6.77764e+63
9.05248e+81
5.8999e+81
3.84374e+81
2.50359e+81
1.63048e+81
1.06179e+81
6.91427e+80
4.50246e+80
2.93192e+80
1.90923e+80
1.24328e+80
8.09623e+79
5.27234e+79
3.43344e+79
2.23594e+79
1.45612e+79
9.48284e+78
6.17566e+78
4.02191e+78
2.61929e+78
1.70584e+78
1.11095e+78
7.23524e+77
4.71208e+77
3.06883e+77
1.99864e+77
1.30166e+77
8.47734e+76
5.52106e+76
3.59572e+76
2.3418e+76
1.52515e+76
9.93293e+75
6.46906e+75
4.21313e+75
2.74391e+75
1.78704e+75
1.16385e+75
7.57987e+74
4.93658e+74
3.21507e+74
2.09389e+74
1.3637e+74
8.88143e+73
5.78425e+73
3.76714e+73
2.45344e+73
1.59786e+73
1.04065e+73
6.77748e+72
4.414e+72
2.87473e+72
1.87224e+72
1.21934e+72
7.94126e+71
5.17194e+71
3.36836e+71
2.19373e+71
1.42872e+71
9.30488e+70
6.06003e+70
3.94675e+70
2.57042e+70
1.67405e+70
1.09026e+70
7.10062e+69
4.62445e+69
3.01179e+69
1.9615e+69
1.27748e+69
8.31989e+68
5.41853e+68
3.52895e+68
2.29832e+68
1.49684e+68
9.74852e+67
6.34896e+67
4.13492e+67
2.69297e+67
1.75386e+67
1.14225e+67
7.43916e+66
4.84494e+66
3.15539e+66
2.05502e+66
1.33838e+66
8.71656e+65
5.67688e+65
3.69721e+65
2.4079e+65
1.5682e+65
1.02133e+65
6.65167e+64
4.33206e+64
2.82136e+64
1.83744e+64
1.19678e+64
7.82184e+63
5.3054e+63
4.48973e+63
5.89565e+81
3.84246e+81
2.50333e+81
1.63052e+81
1.06189e+81
6.91512e+80
4.50305e+80
2.9323e+80
1.90945e+80
1.2434e+80
8.09683e+79
5.2726e+79
3.43353e+79
2.23594e+79
1.45608e+79
9.48239e+78
6.17524e+78
4.02156e+78
2.61902e+78
1.70564e+78
1.11081e+78
7.23423e+77
4.71138e+77
3.06836e+77
1.99832e+77
1.30144e+77
8.47591e+76
5.52012e+76
3.5951e+76
2.34139e+76
1.52489e+76
9.93118e+75
6.46792e+75
4.21239e+75
2.74342e+75
1.78672e+75
1.16364e+75
7.57852e+74
4.9357e+74
3.2145e+74
2.09352e+74
1.36346e+74
8.87985e+73
5.78322e+73
3.76646e+73
2.453e+73
1.59758e+73
1.04046e+73
6.77627e+72
4.41321e+72
2.87422e+72
1.8719e+72
1.21912e+72
7.93984e+71
5.17102e+71
3.36775e+71
2.19333e+71
1.42846e+71
9.30322e+70
6.05895e+70
3.94604e+70
2.56996e+70
1.67375e+70
1.09007e+70
7.09935e+69
4.62363e+69
3.01125e+69
1.96115e+69
1.27725e+69
8.3184e+68
5.41756e+68
3.52832e+68
2.29791e+68
1.49657e+68
9.74678e+67
6.34783e+67
4.13418e+67
2.69249e+67
1.75355e+67
1.14204e+67
7.43783e+66
4.84407e+66
3.15482e+66
2.05466e+66
1.33815e+66
8.715e+65
5.67586e+65
3.69655e+65
2.40747e+65
1.56792e+65
1.02115e+65
6.65048e+64
4.33129e+64
2.82086e+64
1.83716e+64
1.19646e+64
7.79253e+63
5.09869e+63
3.55876e+63
3.61327e+63
3.83969e+81
2.50249e+81
1.63035e+81
1.06192e+81
6.91579e+80
4.50363e+80
2.93271e+80
1.90971e+80
1.24356e+80
8.09775e+79
5.2731e+79
3.43377e+79
2.23605e+79
1.45612e+79
9.48239e+78
6.1751e+78
4.02138e+78
2.61885e+78
1.7055e+78
1.11069e+78
7.2334e+77
4.71078e+77
3.06793e+77
1.99803e+77
1.30124e+77
8.47457e+76
5.51922e+76
3.5945e+76
2.34099e+76
1.52462e+76
9.92945e+75
6.46679e+75
4.21165e+75
2.74294e+75
1.7864e+75
1.16344e+75
7.57717e+74
4.93482e+74
3.21392e+74
2.09315e+74
1.36321e+74
8.87826e+73
5.78219e+73
3.76579e+73
2.45257e+73
1.59729e+73
1.04028e+73
6.77506e+72
4.41243e+72
2.8737e+72
1.87157e+72
1.21891e+72
7.93843e+71
5.1701e+71
3.36715e+71
2.19294e+71
1.42821e+71
9.30156e+70
6.05787e+70
3.94534e+70
2.5695e+70
1.67345e+70
1.08988e+70
7.09808e+69
4.6228e+69
3.01071e+69
1.9608e+69
1.27702e+69
8.31691e+68
5.4166e+68
3.52769e+68
2.2975e+68
1.4963e+68
9.74503e+67
6.34669e+67
4.13344e+67
2.69201e+67
1.75324e+67
1.14184e+67
7.4365e+66
4.84321e+66
3.15426e+66
2.05429e+66
1.33791e+66
8.71345e+65
5.67485e+65
3.69588e+65
2.40704e+65
1.56764e+65
1.02097e+65
6.64929e+64
4.33052e+64
2.82036e+64
1.83683e+64
1.19628e+64
7.79073e+63
5.07378e+63
3.32909e+63
2.41823e+63
2.71909e+63
2.50069e+81
1.62981e+81
1.06181e+81
6.91599e+80
4.50408e+80
2.9331e+80
1.90999e+80
1.24374e+80
8.09888e+79
5.27377e+79
3.43415e+79
2.23626e+79
1.45622e+79
9.48284e+78
6.17524e+78
4.02138e+78
2.61879e+78
1.70542e+78
1.11062e+78
7.2328e+77
4.71032e+77
3.06759e+77
1.99778e+77
1.30107e+77
8.47335e+76
5.51838e+76
3.59394e+76
2.34061e+76
1.52437e+76
9.92778e+75
6.46568e+75
4.21092e+75
2.74246e+75
1.78609e+75
1.16323e+75
7.57583e+74
4.93394e+74
3.21335e+74
2.09277e+74
1.36297e+74
8.87668e+73
5.78115e+73
3.76512e+73
2.45213e+73
1.59701e+73
1.04009e+73
6.77385e+72
4.41164e+72
2.87319e+72
1.87123e+72
1.21869e+72
7.93701e+71
5.16917e+71
3.36655e+71
2.19255e+71
1.42795e+71
9.29989e+70
6.05679e+70
3.94463e+70
2.56904e+70
1.67315e+70
1.08968e+70
7.09681e+69
4.62197e+69
3.01018e+69
1.96045e+69
1.27679e+69
8.31543e+68
5.41563e+68
3.52706e+68
2.29709e+68
1.49603e+68
9.74329e+67
6.34556e+67
4.1327e+67
2.69152e+67
1.75292e+67
1.14163e+67
7.43517e+66
4.84234e+66
3.15369e+66
2.05392e+66
1.33767e+66
8.71189e+65
5.67383e+65
3.69522e+65
2.40661e+65
1.56736e+65
1.02078e+65
6.6481e+64
4.32974e+64
2.81985e+64
1.8365e+64
1.19607e+64
7.78971e+63
5.0728e+63
3.30377e+63
2.17719e+63
1.64915e+63
1.97719e+63
1.62864e+81
1.06145e+81
6.91529e+80
4.50421e+80
2.93339e+80
1.91025e+80
1.24393e+80
8.10011e+79
5.27455e+79
3.43463e+79
2.23653e+79
1.45638e+79
9.48368e+78
6.17566e+78
4.02156e+78
2.61885e+78
1.70542e+78
1.1106e+78
7.23249e+77
4.71002e+77
3.06734e+77
1.99759e+77
1.30093e+77
8.47231e+76
5.51765e+76
3.59343e+76
2.34027e+76
1.52413e+76
9.92619e+75
6.46462e+75
4.21021e+75
2.74199e+75
1.78578e+75
1.16303e+75
7.57451e+74
4.93308e+74
3.21278e+74
2.0924e+74
1.36273e+74
8.8751e+73
5.78013e+73
3.76445e+73
2.45169e+73
1.59672e+73
1.03991e+73
6.77264e+72
4.41085e+72
2.87267e+72
1.8709e+72
1.21847e+72
7.93559e+71
5.16825e+71
3.36595e+71
2.19216e+71
1.4277e+71
9.29823e+70
6.0557e+70
3.94393e+70
2.56858e+70
1.67285e+70
1.08949e+70
7.09554e+69
4.62115e+69
3.00964e+69
1.9601e+69
1.27656e+69
8.31394e+68
5.41466e+68
3.52643e+68
2.29668e+68
1.49577e+68
9.74155e+67
6.34443e+67
4.13196e+67
2.69104e+67
1.75261e+67
1.14143e+67
7.43384e+66
4.84148e+66
3.15313e+66
2.05355e+66
1.33743e+66
8.71033e+65
5.67282e+65
3.69456e+65
2.40618e+65
1.56708e+65
1.0206e+65
6.64691e+64
4.32897e+64
2.81935e+64
1.83617e+64
1.19585e+64
7.78828e+63
5.07233e+63
3.30305e+63
2.15147e+63
1.42555e+63
1.12334e+63
1.40667e+63
1.06069e+81
6.91299e+80
4.50375e+80
2.93348e+80
1.91044e+80
1.2441e+80
8.10135e+79
5.27538e+79
3.43516e+79
2.23687e+79
1.45658e+79
9.48484e+78
6.17631e+78
4.02191e+78
2.61902e+78
1.7055e+78
1.11062e+78
7.23249e+77
4.70992e+77
3.06722e+77
1.99746e+77
1.30082e+77
8.47151e+76
5.51705e+76
3.59299e+76
2.33996e+76
1.52392e+76
9.92472e+75
6.46362e+75
4.20954e+75
2.74154e+75
1.78548e+75
1.16283e+75
7.57321e+74
4.93222e+74
3.21222e+74
2.09204e+74
1.36249e+74
8.87353e+73
5.7791e+73
3.76378e+73
2.45125e+73
1.59644e+73
1.03972e+73
6.77143e+72
4.41006e+72
2.87216e+72
1.87057e+72
1.21825e+72
7.93417e+71
5.16732e+71
3.36535e+71
2.19177e+71
1.42744e+71
9.29657e+70
6.05462e+70
3.94322e+70
2.56812e+70
1.67255e+70
1.08929e+70
7.09428e+69
4.62032e+69
3.0091e+69
1.95975e+69
1.27634e+69
8.31245e+68
5.41369e+68
3.5258e+68
2.29626e+68
1.4955e+68
9.73981e+67
6.34329e+67
4.13123e+67
2.69056e+67
1.7523e+67
1.14123e+67
7.43252e+66
4.84061e+66
3.15257e+66
2.05319e+66
1.33719e+66
8.70877e+65
5.6718e+65
3.6939e+65
2.40575e+65
1.5668e+65
1.02042e+65
6.64573e+64
4.32819e+64
2.81884e+64
1.83584e+64
1.19564e+64
7.78688e+63
5.07141e+63
3.30288e+63
2.15072e+63
1.40124e+63
9.34051e+62
7.62823e+62
9.85547e+62
6.90801e+80
4.50225e+80
2.93318e+80
1.9105e+80
1.24422e+80
8.10247e+79
5.2762e+79
3.43571e+79
2.23722e+79
1.4568e+79
9.48622e+78
6.17714e+78
4.02239e+78
2.61929e+78
1.70564e+78
1.11069e+78
7.2328e+77
4.71002e+77
3.06722e+77
1.99742e+77
1.30077e+77
8.47101e+76
5.51663e+76
3.59266e+76
2.33971e+76
1.52374e+76
9.92344e+75
6.46273e+75
4.20893e+75
2.74112e+75
1.7852e+75
1.16265e+75
7.57195e+74
4.93139e+74
3.21167e+74
2.09167e+74
1.36225e+74
8.87197e+73
5.77808e+73
3.76311e+73
2.45082e+73
1.59616e+73
1.03954e+73
6.77023e+72
4.40928e+72
2.87165e+72
1.87023e+72
1.21804e+72
7.93275e+71
5.1664e+71
3.36475e+71
2.19137e+71
1.42719e+71
9.29491e+70
6.05354e+70
3.94252e+70
2.56766e+70
1.67225e+70
1.0891e+70
7.09301e+69
4.6195e+69
3.00856e+69
1.9594e+69
1.27611e+69
8.31097e+68
5.41272e+68
3.52517e+68
2.29585e+68
1.49523e+68
9.73807e+67
6.34216e+67
4.13049e+67
2.69008e+67
1.75198e+67
1.14102e+67
7.43119e+66
4.83974e+66
3.152e+66
2.05282e+66
1.33695e+66
8.70722e+65
5.67079e+65
3.69324e+65
2.40532e+65
1.56652e+65
1.02024e+65
6.64454e+64
4.32742e+64
2.81834e+64
1.83551e+64
1.19542e+64
7.78549e+63
5.07049e+63
3.30229e+63
2.15069e+63
1.40041e+63
9.12699e+62
6.12196e+62
5.16193e+62
6.82794e+62
4.49901e+80
2.9322e+80
1.91031e+80
1.24426e+80
8.1033e+79
5.27693e+79
3.43625e+79
2.23759e+79
1.45704e+79
9.48775e+78
6.17809e+78
4.02297e+78
2.61964e+78
1.70584e+78
1.11081e+78
7.2334e+77
4.71032e+77
3.06734e+77
1.99746e+77
1.30077e+77
8.47084e+76
5.51641e+76
3.59245e+76
2.33953e+76
1.5236e+76
9.9224e+75
6.46198e+75
4.20839e+75
2.74075e+75
1.78494e+75
1.16247e+75
7.57077e+74
4.9306e+74
3.21115e+74
2.09132e+74
1.36202e+74
8.87045e+73
5.77708e+73
3.76246e+73
2.45039e+73
1.59587e+73
1.03935e+73
6.76903e+72
4.40849e+72
2.87114e+72
1.8699e+72
1.21782e+72
7.93134e+71
5.16548e+71
3.36415e+71
2.19098e+71
1.42693e+71
9.29325e+70
6.05246e+70
3.94181e+70
2.5672e+70
1.67195e+70
1.0889e+70
7.09174e+69
4.61867e+69
3.00802e+69
1.95905e+69
1.27588e+69
8.30948e+68
5.41176e+68
3.52454e+68
2.29544e+68
1.49496e+68
9.73633e+67
6.34102e+67
4.12975e+67
2.6896e+67
1.75167e+67
1.14082e+67
7.42986e+66
4.83888e+66
3.15144e+66
2.05245e+66
1.33671e+66
8.70566e+65
5.66978e+65
3.69258e+65
2.40489e+65
1.56624e+65
1.02005e+65
6.64335e+64
4.32665e+64
2.81784e+64
1.83519e+64
1.19521e+64
7.7841e+63
5.06959e+63
3.30169e+63
2.15031e+63
1.40044e+63
9.11868e+62
5.94525e+62
4.01279e+62
3.48168e+62
4.69107e+62
2.93009e+80
1.90967e+80
1.24413e+80
8.10355e+79
5.27747e+79
3.43673e+79
2.23794e+79
1.45728e+79
9.48933e+78
6.17911e+78
4.02361e+78
2.62003e+78
1.70608e+78
1.11095e+78
7.23423e+77
4.71078e+77
3.06759e+77
1.99759e+77
1.30082e+77
8.47101e+76
5.51641e+76
3.59238e+76
2.33944e+76
1.52352e+76
9.92167e+75
6.4614e+75
4.20796e+75
2.74044e+75
1.78472e+75
1.16231e+75
7.56969e+74
4.92986e+74
3.21065e+74
2.09099e+74
1.3618e+74
8.86897e+73
5.7761e+73
3.76181e+73
2.44996e+73
1.5956e+73
1.03917e+73
6.76783e+72
4.40771e+72
2.87063e+72
1.86957e+72
1.2176e+72
7.92993e+71
5.16456e+71
3.36355e+71
2.19059e+71
1.42668e+71
9.29159e+70
6.05138e+70
3.94111e+70
2.56674e+70
1.67166e+70
1.08871e+70
7.09047e+69
4.61785e+69
3.00749e+69
1.9587e+69
1.27565e+69
8.308e+68
5.41079e+68
3.52391e+68
2.29503e+68
1.4947e+68
9.73459e+67
6.33989e+67
4.12901e+67
2.68912e+67
1.75136e+67
1.14061e+67
7.42853e+66
4.83802e+66
3.15088e+66
2.05209e+66
1.33647e+66
8.70411e+65
5.66876e+65
3.69192e+65
2.40446e+65
1.56596e+65
1.01987e+65
6.64216e+64
4.32587e+64
2.81733e+64
1.83486e+64
1.195e+64
7.78271e+63
5.06868e+63
3.3011e+63
2.14993e+63
1.4002e+63
9.11904e+62
5.93759e+62
3.87283e+62
2.63026e+62
2.34189e+62
3.20272e+62
1.9083e+80
1.24372e+80
8.10273e+79
5.27764e+79
3.43709e+79
2.23826e+79
1.45752e+79
9.49092e+78
6.18015e+78
4.02429e+78
2.62046e+78
1.70635e+78
1.11112e+78
7.23524e+77
4.71138e+77
3.06793e+77
1.99778e+77
1.30093e+77
8.47151e+76
5.51663e+76
3.59245e+76
2.33944e+76
1.52349e+76
9.92129e+75
6.46104e+75
4.20766e+75
2.7402e+75
1.78454e+75
1.16218e+75
7.56875e+74
4.9292e+74
3.21019e+74
2.09068e+74
1.36159e+74
8.86756e+73
5.77516e+73
3.76119e+73
2.44955e+73
1.59532e+73
1.03899e+73
6.76666e+72
4.40694e+72
2.87012e+72
1.86924e+72
1.21739e+72
7.92852e+71
5.16364e+71
3.36295e+71
2.1902e+71
1.42642e+71
9.28993e+70
6.0503e+70
3.9404e+70
2.56629e+70
1.67136e+70
1.08851e+70
7.08921e+69
4.61702e+69
3.00695e+69
1.95835e+69
1.27542e+69
8.30651e+68
5.40982e+68
3.52328e+68
2.29462e+68
1.49443e+68
9.73285e+67
6.33876e+67
4.12827e+67
2.68864e+67
1.75104e+67
1.14041e+67
7.4272e+66
4.83715e+66
3.15031e+66
2.05172e+66
1.33623e+66
8.70255e+65
5.66775e+65
3.69126e+65
2.40403e+65
1.56568e+65
1.01969e+65
6.64098e+64
4.3251e+64
2.81683e+64
1.83453e+64
1.19478e+64
7.78132e+63
5.06778e+63
3.30051e+63
2.14954e+63
1.39994e+63
9.11749e+62
5.93792e+62
3.86626e+62
2.52288e+62
1.72399e+62
1.57166e+62
2.1761e+62
1.24283e+80
8.10004e+79
5.2771e+79
3.43719e+79
2.23849e+79
1.45772e+79
9.49243e+78
6.18119e+78
4.02497e+78
2.62091e+78
1.70664e+78
1.1113e+78
7.23637e+77
4.71208e+77
3.06836e+77
1.99803e+77
1.30107e+77
8.47231e+76
5.51705e+76
3.59266e+76
2.33953e+76
1.52352e+76
9.92129e+75
6.46092e+75
4.2075e+75
2.74005e+75
1.78441e+75
1.16208e+75
7.568e+74
4.92865e+74
3.2098e+74
2.09041e+74
1.3614e+74
8.86626e+73
5.77428e+73
3.7606e+73
2.44916e+73
1.59506e+73
1.03882e+73
6.7655e+72
4.40618e+72
2.86963e+72
1.86891e+72
1.21717e+72
7.92712e+71
5.16273e+71
3.36235e+71
2.18981e+71
1.42617e+71
9.28827e+70
6.04922e+70
3.9397e+70
2.56583e+70
1.67106e+70
1.08832e+70
7.08794e+69
4.6162e+69
3.00641e+69
1.958e+69
1.2752e+69
8.30503e+68
5.40886e+68
3.52265e+68
2.29421e+68
1.49416e+68
9.73111e+67
6.33763e+67
4.12754e+67
2.68816e+67
1.75073e+67
1.14021e+67
7.42588e+66
4.83629e+66
3.14975e+66
2.05135e+66
1.33599e+66
8.70099e+65
5.66674e+65
3.6906e+65
2.4036e+65
1.5654e+65
1.01951e+65
6.63979e+64
4.32433e+64
2.81633e+64
1.8342e+64
1.19457e+64
7.77993e+63
5.06687e+63
3.29992e+63
2.14916e+63
1.39969e+63
9.11584e+62
5.93693e+62
3.86652e+62
2.51752e+62
1.64351e+62
1.12997e+62
1.05281e+62
1.47303e+62
8.09421e+79
5.27535e+79
3.43684e+79
2.23856e+79
1.45787e+79
9.49376e+78
6.18218e+78
4.02565e+78
2.62136e+78
1.70693e+78
1.11149e+78
7.23758e+77
4.71284e+77
3.06883e+77
1.99832e+77
1.30124e+77
8.47335e+76
5.51765e+76
3.59299e+76
2.33971e+76
1.5236e+76
9.92167e+75
6.46104e+75
4.2075e+75
2.74e+75
1.78435e+75
1.16202e+75
7.56747e+74
4.92824e+74
3.20949e+74
2.09018e+74
1.36123e+74
8.86511e+73
5.77348e+73
3.76005e+73
2.44878e+73
1.59481e+73
1.03865e+73
6.76439e+72
4.40545e+72
2.86914e+72
1.86859e+72
1.21696e+72
7.92574e+71
5.16182e+71
3.36176e+71
2.18943e+71
1.42592e+71
9.28663e+70
6.04814e+70
3.939e+70
2.56537e+70
1.67076e+70
1.08812e+70
7.08667e+69
4.61537e+69
3.00587e+69
1.95765e+69
1.27497e+69
8.30355e+68
5.40789e+68
3.52202e+68
2.2938e+68
1.4939e+68
9.72937e+67