/*--------------------------------*- C++ -*----------------------------------*\
  =========                 |
  \\      /  F ield         | OpenFOAM: The Open Source CFD Toolbox
   \\    /   O peration     | Website:  https://openfoam.org
    \\  /    A nd           | Version:  8
     \\/     M anipulation  |
\*---------------------------------------------------------------------------*/
FoamFile
{
    version     2.0;
    format      ascii;
    class       volVectorField;
    location    "3";
    object      U;
}
// * * * * * * * * * * * * * * * * * * * * * * * * * * * * * * * * * * * * * //

dimensions      [0 1 -1 0 0 0 0];

internalField   nonuniform List<vector> 
10000
(
(0.0405723 0.946738 0)
(0.418387 0.664031 0)
(0.564699 0.232374 2.16294e-23)
(0.579033 -0.211774 -8.92423e-26)
(0.493502 -0.601377 -1.526e-23)
(0.345179 -0.896878 0)
(0.16811 -1.08333 0)
(-0.00918509 -1.16545 0)
(-0.165946 -1.1618 0)
(-0.289993 -1.09831 0)
(-0.377142 -1.00214 0)
(-0.429543 -0.897009 0)
(-0.453483 -0.800237 0)
(-0.457146 -0.721776 0)
(-0.448734 -0.664676 0)
(-0.435148 -0.62658 0)
(-0.421272 -0.601647 0)
(-0.409788 -0.582499 0)
(-0.4014 -0.561867 0)
(-0.395291 -0.533799 0)
(-0.389694 -0.494387 -7.29572e-23)
(-0.382464 -0.442029 -6.84797e-25)
(-0.37156 -0.377342 8.25116e-23)
(-0.355417 -0.302789 0)
(-0.333165 -0.222154 0)
(-0.304723 -0.139936 -2.04282e-23)
(-0.270762 -0.0607641 6.48165e-27)
(-0.232583 0.0111268 1.20731e-23)
(-0.19193 0.0722947 0)
(-0.150772 0.120357 0)
(-0.111084 0.15411 0)
(-0.074658 0.173516 1.13207e-24)
(-0.0429446 0.179574 5.99276e-26)
(-0.0169566 0.174113 -3.58142e-24)
(0.00277851 0.159535 0)
(0.016212 0.138537 0)
(0.0237236 0.113852 0)
(0.0260388 0.0880222 0)
(0.0241258 0.0632237 -2.23225e-24)
(0.0190862 0.0411534 1.62003e-26)
(0.0120496 0.0229731 -1.31728e-24)
(0.00408192 0.00930943 2.66824e-24)
(-0.00388681 0.000299637 1.7745e-26)
(-0.0111116 -0.00432958 -4.18051e-24)
(-0.0170579 -0.00516281 4.34152e-24)
(-0.0214062 -0.00298863 -3.26809e-27)
(-0.0240369 0.00130494 -3.71246e-24)
(-0.0250024 0.0068236 0)
(-0.0244904 0.0127429 0)
(-0.0227819 0.018364 0)
(-0.0202106 0.0231481 0)
(-0.0171246 0.026731 0)
(-0.0138552 0.0289208 -4.15565e-25)
(-0.010692 0.0296805 -8.53087e-25)
(-0.00786671 0.0291025 -2.7273e-26)
(-0.00554479 0.0273762 1.19794e-24)
(-0.00382389 0.0247543 1.23977e-24)
(-0.00273809 0.02152 0)
(-0.00226662 0.0179579 0)
(-0.0023453 0.0143304 0)
(-0.00287932 0.0108601 -6.78166e-25)
(-0.00375617 0.00771859 -1.33731e-26)
(-0.00485751 0.00502208 3.82378e-25)
(-0.00606931 0.00283152 1.48217e-25)
(-0.00728982 0.00115768 7.32067e-27)
(-0.00843507 -3.06925e-05 -1.41002e-25)
(-0.0094419 -0.000796905 1.75626e-25)
(-0.0102689 -0.0012254 9.02923e-27)
(-0.0108955 -0.00141113 -3.03633e-25)
(-0.0113192 -0.00144988 3.86175e-25)
(-0.0115527 -0.00143025 1.0149e-26)
(-0.0116196 -0.00142751 -5.58216e-25)
(-0.0115503 -0.00149959 0)
(-0.0113785 -0.00168504 0)
(-0.0111376 -0.00200295 0)
(-0.0108579 -0.00245427 0)
(-0.0105651 -0.00302443 0)
(-0.0102785 -0.00368669 -1.60402e-24)
(-0.010011 -0.00440592 -1.18763e-26)
(-0.00976904 -0.00514244 1.49001e-24)
(-0.00955332 -0.00585562 0)
(-0.00935974 -0.00650711 0)
(-0.00918071 -0.00706333 0)
(-0.00900635 -0.00749747 0)
(-0.00882588 -0.00779056 0)
(-0.00862868 -0.00793211 0)
(-0.0084053 -0.00791991 0)
(-0.00814819 -0.00775953 0)
(-0.00785217 -0.00746327 0)
(-0.00751467 -0.00704895 0)
(-0.00713581 -0.00653847 0)
(-0.00671817 -0.0059564 0)
(-0.00626663 -0.00532877 0)
(-0.00578806 -0.00468226 0)
(-0.00529086 -0.00404445 0)
(-0.00478311 -0.00344632 -2.25311e-26)
(-0.00426829 -0.00293078 5.19766e-29)
(-0.00375465 -0.00254948 -6.40385e-27)
(-0.00340689 -0.00211977 0)
(-0.00371092 -0.000359133 0)
(0.383792 0.734003 0)
(0.540509 0.505007 0)
(0.662751 0.241724 9.4478e-24)
(0.712102 -0.0459692 -1.90924e-25)
(0.681356 -0.323274 -1.14286e-23)
(0.584814 -0.559002 0)
(0.44593 -0.73362 0)
(0.290017 -0.840795 0)
(0.139207 -0.885545 0)
(0.00949178 -0.88064 0)
(-0.0903368 -0.842478 0)
(-0.158193 -0.787375 0)
(-0.197195 -0.728858 0)
(-0.213701 -0.676197 0)
(-0.215386 -0.634069 0)
(-0.209648 -0.603086 0)
(-0.202534 -0.580851 0)
(-0.198175 -0.563199 0)
(-0.198664 -0.545383 0)
(-0.204277 -0.523055 0)
(-0.213879 -0.492944 -3.3177e-23)
(-0.225442 -0.453239 -1.9626e-24)
(-0.236545 -0.403686 5.0846e-23)
(-0.244828 -0.345464 0)
(-0.248338 -0.280899 0)
(-0.24576 -0.213079 -1.64437e-23)
(-0.236522 -0.145445 -6.16349e-26)
(-0.220801 -0.0813829 1.20153e-23)
(-0.199428 -0.0238872 0)
(-0.173745 0.024699 0)
(-0.145409 0.0628424 0)
(-0.1162 0.0898784 -2.23761e-24)
(-0.087833 0.105978 1.38904e-25)
(-0.061808 0.11204 -5.4115e-25)
(-0.0392955 0.109529 0)
(-0.0210729 0.100287 0)
(-0.00750654 0.0863327 0)
(0.00142513 0.0696767 0)
(0.00607623 0.0521677 -1.36347e-24)
(0.00705592 0.0353717 4.96043e-26)
(0.00514014 0.0204972 -8.92557e-25)
(0.00118254 0.00836226 1.93114e-24)
(-0.00396699 -0.000600114 6.4992e-26)
(-0.00952995 -0.00630589 -3.40483e-24)
(-0.0148493 -0.00896086 3.76748e-24)
(-0.0194207 -0.00898852 1.56083e-26)
(-0.0229052 -0.00695314 -3.76757e-24)
(-0.0251263 -0.00348563 0)
(-0.0260534 0.000782031 0)
(-0.0257766 0.00527001 0)
(-0.0244765 0.00948921 0)
(-0.0223915 0.0130649 0)
(-0.0197872 0.0157464 9.89692e-25)
(-0.0169287 0.0174043 5.15775e-25)
(-0.0140588 0.0180188 -6.3121e-26)
(-0.0113817 0.0176604 -9.49444e-26)
(-0.00905296 0.0164674 9.97175e-26)
(-0.00717576 0.0146222 0)
(-0.00580136 0.0123276 0)
(-0.00493423 0.00978689 0)
(-0.00453978 0.0071872 -1.78921e-26)
(-0.00455386 0.00468707 -2.97005e-26)
(-0.00489281 0.00240896 -1.57084e-25)
(-0.00546329 0.000435969 -1.11414e-25)
(-0.00617109 -0.00118764 1.62122e-26)
(-0.00692838 -0.00245287 1.32307e-25)
(-0.00765924 -0.00338019 -1.16627e-25)
(-0.00830321 -0.00401242 2.09736e-26)
(-0.00881706 -0.00440702 3.62298e-26)
(-0.00917493 -0.00462862 2.33598e-26)
(-0.00936709 -0.00474226 2.48836e-26)
(-0.00939775 -0.00480776 -1.63006e-25)
(-0.00928222 -0.00487553 0)
(-0.00904367 -0.00498377 0)
(-0.00871003 -0.00515722 0)
(-0.00831095 -0.0054071 0)
(-0.00787532 -0.00573222 0)
(-0.00742919 -0.00612084 -9.65264e-25)
(-0.00699436 -0.00655314 -3.37929e-26)
(-0.00658753 -0.00700388 9.94785e-25)
(-0.00621993 -0.00744516 0)
(-0.0058975 -0.00784895 0)
(-0.00562136 -0.00818933 0)
(-0.00538858 -0.00844424 0)
(-0.00519314 -0.00859679 0)
(-0.00502683 -0.008636 0)
(-0.00488029 -0.0085571 0)
(-0.00474384 -0.00836137 0)
(-0.00460825 -0.00805567 0)
(-0.00446532 -0.00765159 0)
(-0.00430832 -0.00716455 0)
(-0.00413223 -0.00661266 0)
(-0.00393384 -0.00601582 0)
(-0.00371182 -0.0053948 0)
(-0.00346692 -0.00477082 0)
(-0.00320255 -0.00416414 1.43578e-26)
(-0.00292948 -0.00358712 1.50251e-28)
(-0.00269288 -0.00302349 -1.25292e-26)
(-0.00264235 -0.00242712 0)
(-0.00295076 -0.00202729 0)
(0.599369 0.723688 -3.68252e-24)
(0.684758 0.517089 -6.27521e-24)
(0.768291 0.281357 2.1882e-24)
(0.816911 0.0229351 3.27222e-24)
(0.811137 -0.235844 3.11076e-24)
(0.750485 -0.469175 2.51081e-23)
(0.646968 -0.656683 3.54101e-23)
(0.518915 -0.787663 4.30815e-23)
(0.38554 -0.861566 4.70497e-23)
(0.262985 -0.886018 0)
(0.162092 -0.873601 4.23071e-23)
(0.087792 -0.838477 3.40682e-23)
(0.0397514 -0.793584 2.29134e-23)
(0.0137721 -0.748804 9.92604e-24)
(0.00346682 -0.710172 -3.706e-24)
(0.00183484 -0.679947 0)
(0.00250544 -0.657297 -2.84135e-23)
(0.000551866 -0.639291 -3.76877e-23)
(-0.00711896 -0.62196 -4.41396e-23)
(-0.021734 -0.601254 -4.75662e-23)
(-0.0428831 -0.573788 -5.59346e-23)
(-0.0689103 -0.537319 6.88099e-23)
(-0.0973781 -0.490984 -7.49267e-24)
(-0.125532 -0.435301 -3.56988e-23)
(-0.150713 -0.371992 -2.89289e-23)
(-0.170685 -0.303687 -3.73313e-23)
(-0.183852 -0.23356 -1.45701e-23)
(-0.189373 -0.16495 4.30522e-24)
(-0.187171 -0.101005 -3.76532e-24)
(-0.177858 -0.0443997 0)
(-0.162602 0.00287908 3.01449e-24)
(-0.142945 0.0396416 5.76427e-27)
(-0.120622 0.0655208 -2.63271e-24)
(-0.0973752 0.0809146 6.3939e-24)
(-0.0747972 0.0868658 4.23401e-24)
(-0.0542152 0.0848988 0)
(-0.0366121 0.0768359 1.63476e-24)
(-0.0225941 0.064614 2.4183e-25)
(-0.0123974 0.0501174 -9.27878e-25)
(-0.00592651 0.0350412 -2.03174e-24)
(-0.00281657 0.0207915 -3.51883e-24)
(-0.00250853 0.00842621 1.84441e-24)
(-0.0043287 -0.00136535 -3.27853e-24)
(-0.00756439 -0.00824898 -6.53431e-24)
(-0.0115295 -0.0122054 2.58253e-24)
(-0.0156163 -0.0134712 -2.25001e-24)
(-0.0193305 -0.0124698 -4.39929e-24)
(-0.0223114 -0.00973998 9.98313e-25)
(-0.024336 -0.0058684 -2.0384e-25)
(-0.0253112 -0.00143091 -4.69737e-26)
(-0.025257 0.00305373 -2.64703e-25)
(-0.024283 0.00715659 4.00618e-25)
(-0.0225618 0.0105576 5.93748e-25)
(-0.020303 0.0130517 2.87949e-24)
(-0.0177281 0.0145447 1.19481e-24)
(-0.0150497 0.0150403 1.63135e-25)
(-0.0124555 0.0146218 2.97751e-25)
(-0.0100967 0.0134307 -2.87196e-26)
(-0.00808203 0.0116447 -2.42232e-26)
(-0.00647636 0.00945632 6.28831e-25)
(-0.00530277 0.00705521 4.67744e-25)
(-0.00454786 0.00461316 4.56861e-25)
(-0.00416899 0.00227384 -1.6317e-25)
(-0.00410256 0.00014654 1.18325e-25)
(-0.00427245 -0.00169614 4.79141e-25)
(-0.00459807 -0.00321718 9.33269e-25)
(-0.00500122 -0.00441136 3.42636e-25)
(-0.00541173 -0.00529965 -4.07027e-25)
(-0.00577137 -0.00592245 1.22848e-24)
(-0.00603631 -0.00633247 8.40434e-25)
(-0.00617798 -0.00658796 -5.92441e-25)
(-0.00618268 -0.00674663 1.37028e-24)
(-0.00605014 -0.00686075 1.34944e-24)
(-0.0057913 -0.00697347 0)
(-0.00542569 -0.00711664 1.40263e-24)
(-0.00497862 -0.00730977 1.38444e-24)
(-0.00447835 -0.00756034 1.33803e-24)
(-0.00395362 -0.00786488 6.03462e-25)
(-0.00343149 -0.0082109 1.17371e-24)
(-0.00293571 -0.00857916 1.86216e-24)
(-0.00248554 -0.00894618 9.4357e-25)
(-0.00209507 -0.00928676 8.16336e-25)
(-0.00177306 -0.00957623 6.87588e-25)
(-0.00152311 -0.00979238 5.6193e-25)
(-0.0013441 -0.00991703 0)
(-0.001231 -0.00993706 3.35063e-25)
(-0.0011756 -0.00984497 2.39718e-25)
(-0.00116752 -0.00963907 1.59023e-25)
(-0.00119502 -0.00932317 9.38773e-26)
(-0.00124589 -0.00890606 4.43964e-26)
(-0.00130812 -0.00840068 0)
(-0.00137056 -0.00782315 -1.08512e-26)
(-0.00142332 -0.00719179 -1.98456e-26)
(-0.00145824 -0.00652615 -1.93961e-26)
(-0.0014696 -0.00584604 -1.21321e-26)
(-0.00145623 -0.00516888 4.39868e-26)
(-0.00142733 -0.00450141 -1.13443e-26)
(-0.00141743 -0.0038278 7.43183e-28)
(-0.00150659 -0.00318489 1.99166e-26)
(-0.00180952 -0.00303541 9.72386e-27)
(0.773941 0.691029 1.12572e-25)
(0.827617 0.509093 1.34952e-26)
(0.886493 0.302265 4.20237e-24)
(0.92793 0.0751688 8.02048e-38)
(0.932846 -0.157463 -9.53515e-24)
(0.894576 -0.375843 -2.55111e-37)
(0.817563 -0.561613 7.36718e-37)
(0.713869 -0.702491 -3.41257e-37)
(0.598827 -0.794183 -2.1344e-23)
(0.487134 -0.839903 -2.01286e-36)
(0.390101 -0.848319 4.72074e-23)
(0.314284 -0.830846 1.70795e-36)
(0.261393 -0.79907 -8.70643e-37)
(0.229106 -0.762791 -3.92096e-37)
(0.212384 -0.728896 -7.10835e-23)
(0.204904 -0.701021 9.10774e-37)
(0.200329 -0.679837 6.06293e-23)
(0.193279 -0.663735 9.61782e-37)
(0.179917 -0.64969 -1.12671e-36)
(0.158202 -0.634119 5.50771e-37)
(0.127834 -0.613632 -1.41417e-23)
(0.0900039 -0.585587 2.09021e-36)
(0.0469997 -0.548432 -7.43235e-24)
(0.00176097 -0.501848 -7.21047e-37)
(-0.0425634 -0.446697 -7.66265e-37)
(-0.0830074 -0.384845 -1.13972e-23)
(-0.117098 -0.318878 -1.68778e-37)
(-0.143063 -0.251777 1.16592e-23)
(-0.159939 -0.186587 2.28399e-23)
(-0.167573 -0.126115 2.7155e-37)
(-0.16655 -0.0726897 -1.61593e-23)
(-0.158051 -0.0279953 1.23867e-23)
(-0.143676 0.00701318 -2.91847e-38)
(-0.125254 0.0321145 -5.62839e-24)
(-0.104652 0.0477574 3.0609e-24)
(-0.0836169 0.0549453 -1.49754e-40)
(-0.0636483 0.0550856 2.78213e-26)
(-0.0459117 0.0498256 -6.09867e-25)
(-0.0311984 0.040891 -6.11312e-25)
(-0.0199229 0.0299419 2.16458e-25)
(-0.0121536 0.0184565 1.53755e-26)
(-0.007669 0.00764876 1.33114e-24)
(-0.00602766 -0.00157857 -2.29321e-24)
(-0.00664533 -0.00864738 -1.52812e-24)
(-0.00886979 -0.0132886 3.75951e-24)
(-0.0120477 -0.0155041 2.14179e-24)
(-0.0155793 -0.0155137 4.45789e-24)
(-0.0189576 -0.0136936 -2.21015e-24)
(-0.0217935 -0.0105146 -2.17691e-24)
(-0.0238251 -0.00648313 4.28005e-24)
(-0.0249155 -0.00209174 -3.94062e-24)
(-0.0250396 0.00222028 3.52418e-24)
(-0.0242653 0.00609411 1.48447e-24)
(-0.0227295 0.00926668 -3.96555e-24)
(-0.0206138 0.0115752 -1.03292e-38)
(-0.0181202 0.0129522 -1.87189e-24)
(-0.0154505 0.0134145 4.95655e-26)
(-0.0127893 0.0130459 1.34702e-24)
(-0.0102914 0.0119792 -1.1699e-24)
(-0.0080742 0.0103767 9.80235e-39)
(-0.00621434 0.0084118 9.83379e-25)
(-0.00474863 0.0062537 -1.01123e-24)
(-0.0036777 0.00405493 -1.00439e-24)
(-0.00297208 0.00194252 -4.87551e-25)
(-0.00257964 1.28433e-05 -1.45446e-39)
(-0.00243353 -0.00167003 5.15374e-25)
(-0.00245997 -0.00307325 1.10253e-24)
(-0.00258521 -0.00419169 8.01139e-39)
(-0.00274134 -0.00504295 -1.01903e-24)
(-0.00287073 -0.00566143 9.31259e-25)
(-0.00292882 -0.00609212 -1.27301e-38)
(-0.00288559 -0.00638472 -6.75645e-25)
(-0.00272558 -0.0065884 5.1827e-25)
(-0.00244684 -0.00674759 1.96692e-39)
(-0.00205908 -0.00689885 -1.78034e-25)
(-0.00158117 -0.00706902 -1.28817e-38)
(-0.00103844 -0.00727442 -1.30437e-38)
(-0.000459846 -0.00752106 -2.93965e-25)
(0.000124614 -0.00780571 -3.88635e-38)
(0.000686229 -0.00811753 5.20761e-25)
(0.00119943 -0.00844003 -2.18444e-38)
(0.00164319 -0.00875326 2.49542e-40)
(0.00200189 -0.00903595 -1.6296e-38)
(0.00226575 -0.0092674 -6.85223e-25)
(0.00243077 -0.0094292 -4.11432e-38)
(0.00249838 -0.00950645 6.37447e-25)
(0.0024748 -0.00948867 3.27803e-39)
(0.00237015 -0.00937025 1.56591e-38)
(0.00219753 -0.00915055 5.20084e-39)
(0.00197203 -0.00883364 -4.00567e-25)
(0.00170972 -0.00842778 2.0247e-39)
(0.00142684 -0.00794471 2.67567e-25)
(0.00113898 -0.00739874 1.51187e-39)
(0.000860384 -0.00680583 1.07925e-39)
(0.000603008 -0.00618242 -1.4433e-39)
(0.000374383 -0.00554292 -7.53104e-26)
(0.00017296 -0.00489404 -1.06717e-39)
(-1.93399e-05 -0.00423593 2.96702e-26)
(-0.000238552 -0.0036426 1.92298e-40)
(-0.000545247 -0.00346733 -1.32441e-40)
(0.922118 0.662084 1.1547e-24)
(0.961046 0.499673 2.63889e-24)
(1.00489 0.314848 5.11929e-24)
(1.03892 0.112031 -1.63494e-24)
(1.04749 -0.0980876 -1.73765e-23)
(1.02241 -0.300214 -1.86257e-23)
(0.963974 -0.478635 -2.96967e-23)
(0.879656 -0.621196 -4.06132e-23)
(0.781145 -0.721705 -4.99773e-23)
(0.681083 -0.780415 0)
(0.590301 -0.802943 -5.9762e-23)
(0.516074 -0.798284 -5.8991e-23)
(0.461488 -0.776606 -5.43598e-23)
(0.425737 -0.747339 -4.63014e-23)
(0.405046 -0.717865 -3.55587e-23)
(0.393878 -0.692867 0)
(0.386145 -0.67428 -9.89511e-24)
(0.376232 -0.661675 2.97595e-24)
(0.359733 -0.652906 1.46378e-23)
(0.33387 -0.644848 2.43903e-23)
(0.297617 -0.634117 8.34133e-23)
(0.251586 -0.617664 -5.48024e-23)
(0.197733 -0.593219 2.2867e-23)
(0.138963 -0.559547 3.85575e-23)
(0.0786879 -0.516537 3.64022e-23)
(0.0203982 -0.465141 2.58933e-23)
(-0.0327122 -0.407188 2.71724e-23)
(-0.0780389 -0.345136 3.26247e-23)
(-0.113758 -0.281768 1.77215e-23)
(-0.138916 -0.219902 0)
(-0.15342 -0.162121 8.64228e-24)
(-0.157949 -0.110565 -1.40031e-24)
(-0.153802 -0.066784 -1.32729e-24)
(-0.142714 -0.0316707 4.58109e-24)
(-0.126652 -0.00545709 7.4997e-26)
(-0.107629 0.0122245 0)
(-0.0875312 0.0222368 1.44203e-25)
(-0.0679904 0.0258037 7.89756e-25)
(-0.0502969 0.0243638 -5.39225e-25)
(-0.0353542 0.0194283 2.52367e-24)
(-0.0236754 0.0124544 3.35785e-24)
(-0.0154128 0.00474308 5.53465e-25)
(-0.0104125 -0.0026331 4.52387e-24)
(-0.00828442 -0.00887098 2.41173e-24)
(-0.00848021 -0.013449 5.58326e-24)
(-0.0103686 -0.0161137 4.64032e-24)
(-0.0133041 -0.0168476 -4.38413e-24)
(-0.0166838 -0.015823 -3.7137e-24)
(-0.0199897 -0.0133492 1.54344e-24)
(-0.0228152 -0.00981908 -1.36527e-24)
(-0.0248782 -0.00565844 -1.08831e-24)
(-0.0260206 -0.00128272 7.81396e-25)
(-0.0261975 0.00293701 2.1256e-24)
(-0.0254594 0.00669786 4.39208e-24)
(-0.0239301 0.00977873 6.25174e-25)
(-0.0217815 0.0120444 -2.2044e-24)
(-0.0192111 0.0134419 -1.92675e-24)
(-0.0164196 0.0139907 -1.07735e-26)
(-0.013594 0.0137687 -1.14404e-26)
(-0.0108942 0.012896 4.08111e-25)
(-0.00844417 0.0115187 1.43711e-24)
(-0.00632843 0.00979281 5.27277e-25)
(-0.00459154 0.00787077 -8.0756e-25)
(-0.00324152 0.00589061 -1.10589e-25)
(-0.00225545 0.00396812 5.4498e-25)
(-0.0015866 0.00219227 1.22377e-24)
(-0.0011723 0.000623516 -2.9633e-25)
(-0.000941756 -0.000705338 -1.53202e-25)
(-0.000823142 -0.00178626 8.62986e-25)
(-0.000749672 -0.00263171 -6.55861e-25)
(-0.000664219 -0.00326952 7.82251e-26)
(-0.000522447 -0.00373754 2.35021e-25)
(-0.00029444 -0.00407842 -4.80405e-25)
(3.5042e-05 -0.00433501 0)
(0.000467484 -0.00454656 -7.48411e-25)
(0.00099243 -0.00474594 -8.48417e-25)
(0.00158993 -0.00495778 -9.21649e-25)
(0.00223336 -0.00519774 -8.65951e-25)
(0.00289224 -0.00547252 -9.84804e-25)
(0.00353505 -0.00578067 -7.7962e-25)
(0.00413166 -0.00611389 -9.44581e-25)
(0.0046553 -0.00645871 -8.92487e-25)
(0.00508417 -0.0067983 -8.24061e-25)
(0.00540234 -0.00711434 -7.43558e-25)
(0.00560032 -0.00738864 0)
(0.00567504 -0.00760466 -5.63376e-25)
(0.00562949 -0.00774864 -4.71801e-25)
(0.00547207 -0.00781039 -3.83999e-25)
(0.00521561 -0.00778381 -3.0287e-25)
(0.00487641 -0.00766699 -2.30666e-25)
(0.00447302 -0.00746207 0)
(0.00402526 -0.00717481 -1.18479e-25)
(0.00355313 -0.00681396 -7.93936e-26)
(0.00307592 -0.0063904 -5.10832e-26)
(0.00261125 -0.00591602 -3.23604e-26)
(0.00217339 -0.00540156 7.50457e-26)
(0.00177051 -0.00485296 1.586e-26)
(0.00140367 -0.0042736 -5.05045e-26)
(0.00108206 -0.00371052 -1.08428e-26)
(0.000854319 -0.0033748 -5.91464e-27)
(1.05454 0.637139 0)
(1.08602 0.489397 0)
(1.12077 0.321865 2.0522e-24)
(1.14887 0.138495 4.46754e-38)
(1.15802 -0.0524387 -7.7066e-24)
(1.14038 -0.23881 0)
(1.09435 -0.407332 0)
(1.0244 -0.546699 0)
(0.939351 -0.649955 0)
(0.849847 -0.715501 0)
(0.765852 -0.746719 0)
(0.694819 -0.750632 0)
(0.640711 -0.736105 0)
(0.603898 -0.712096 0)
(0.581709 -0.686263 0)
(0.569386 -0.664106 0)
(0.56117 -0.648632 0)
(0.551323 -0.640471 0)
(0.534954 -0.638299 0)
(0.50857 -0.639441 0)
(0.470364 -0.640529 8.14706e-23)
(0.420239 -0.638121 -1.87334e-36)
(0.359632 -0.629208 -4.50864e-23)
(0.291195 -0.611593 0)
(0.218379 -0.584099 0)
(0.145001 -0.546639 1.71755e-25)
(0.0748187 -0.500143 -2.66589e-37)
(0.011176 -0.446384 5.13788e-24)
(-0.0432729 -0.387736 0)
(-0.0867328 -0.326895 0)
(-0.118335 -0.266604 0)
(-0.138112 -0.209397 -5.74188e-24)
(-0.146884 -0.157405 -4.29455e-38)
(-0.146102 -0.112215 3.54346e-24)
(-0.137647 -0.0748011 0)
(-0.123622 -0.0455228 0)
(-0.106158 -0.0241717 0)
(-0.0872427 -0.0100672 0)
(-0.0685947 -0.00217637 -7.79594e-25)
(-0.051573 0.000752935 3.57135e-38)
(-0.0371365 6.20768e-05 7.74882e-25)
(-0.0258414 -0.0029354 -2.49073e-25)
(-0.0178732 -0.00704899 6.29439e-38)
(-0.0131026 -0.0112801 -1.35282e-24)
(-0.0111576 -0.014863 2.2323e-24)
(-0.0115017 -0.0172799 -5.0792e-38)
(-0.0135112 -0.0182525 -3.75356e-24)
(-0.0165445 -0.0177159 0)
(-0.0199997 -0.0157802 0)
(-0.0233577 -0.0126846 0)
(-0.0262101 -0.00875049 0)
(-0.0282724 -0.00433613 0)
(-0.029384 0.000202252 4.42572e-24)
(-0.0294986 0.00454199 4.08559e-24)
(-0.0286661 0.00841654 -3.58879e-39)
(-0.0270106 0.011629 -3.30343e-24)
(-0.0247059 0.0140571 -2.92203e-24)
(-0.0219518 0.0156514 0)
(-0.0189528 0.0164276 0)
(-0.0158996 0.0164547 0)
(-0.0129564 0.0158409 1.88373e-24)
(-0.0102514 0.0147198 7.77862e-39)
(-0.00787302 0.0132352 -1.70656e-24)
(-0.00586933 0.0115295 -8.40293e-25)
(-0.00425136 0.00973345 -1.57765e-38)
(-0.00299862 0.00795829 8.4596e-25)
(-0.0020663 0.00629154 -8.52055e-25)
(-0.00139319 0.00479479 -6.20175e-39)
(-0.000909628 0.0035041 8.44623e-25)
(-0.000544698 0.00243222 -8.23982e-25)
(-0.000232443 0.00157224 -1.37155e-38)
(8.3399e-05 0.000901983 7.40753e-25)
(0.000446176 0.00038892 0)
(0.000884631 -5.13592e-06 0)
(0.00141262 -0.000319675 0)
(0.00203006 -0.000591852 0)
(0.00272475 -0.000853675 0)
(0.00347493 -0.0011301 4.95067e-25)
(0.00425215 -0.00143803 1.01252e-39)
(0.00502425 -0.00178609 -1.49449e-25)
(0.00575824 -0.00217512 0)
(0.00642281 -0.0025992 0)
(0.00699045 -0.00304701 0)
(0.00743905 -0.00350343 0)
(0.00775295 -0.00395118 0)
(0.00792342 -0.00437239 0)
(0.00794872 -0.00474999 0)
(0.00783365 -0.00506887 0)
(0.00758884 -0.00531678 0)
(0.00722977 -0.00548487 0)
(0.00677556 -0.00556799 0)
(0.00624782 -0.00556461 0)
(0.00566944 -0.00547656 0)
(0.00506351 -0.00530832 0)
(0.00445231 -0.00506607 0)
(0.00385615 -0.00475586 1.13927e-25)
(0.00329207 -0.00438099 -1.42459e-39)
(0.00277582 -0.00394277 -4.33921e-26)
(0.00234048 -0.00346828 0)
(0.00206569 -0.00313219 0)
(1.1772 0.616501 0)
(1.20472 0.479699 0)
(1.23382 0.325749 1.41873e-24)
(1.25756 0.157976 -9.81424e-38)
(1.26613 -0.0169608 -7.05303e-24)
(1.2526 -0.189163 0)
(1.21463 -0.347312 0)
(1.1549 -0.481117 0)
(1.08018 -0.583468 0)
(0.999431 -0.651661 0)
(0.92173 -0.68751 0)
(0.854462 -0.696504 0)
(0.802172 -0.686413 0)
(0.766154 -0.665728 0)
(0.74469 -0.642283 0)
(0.73375 -0.622246 0)
(0.727924 -0.609571 0)
(0.721399 -0.605862 0)
(0.708821 -0.610595 0)
(0.685969 -0.621567 0)
(0.650167 -0.635475 1.08974e-22)
(0.600465 -0.648524 -1.31012e-36)
(0.537585 -0.656999 -7.46866e-23)
(0.463698 -0.657729 0)
(0.382068 -0.648424 0)
(0.296628 -0.627865 8.4003e-24)
(0.211538 -0.595954 -9.20007e-38)
(0.130773 -0.553633 -9.90688e-25)
(0.0577807 -0.50271 0)
(-0.00477137 -0.445611 0)
(-0.0551472 -0.385104 0)
(-0.0925859 -0.324023 -3.53563e-24)
(-0.117253 -0.265016 1.89189e-38)
(-0.130116 -0.210347 2.47506e-24)
(-0.132767 -0.161753 0)
(-0.127213 -0.120371 0)
(-0.115666 -0.0867294 0)
(-0.100343 -0.0607896 0)
(-0.0832991 -0.0420328 -1.69671e-24)
(-0.0662995 -0.0295734 1.34818e-38)
(-0.0507356 -0.0222858 1.9567e-24)
(-0.0375868 -0.01893 -1.54354e-24)
(-0.0274229 -0.0182657 -1.47405e-38)
(-0.0204378 -0.0191466 1.26167e-26)
(-0.0165087 -0.0205912 9.24395e-25)
(-0.0152695 -0.0218261 6.49143e-39)
(-0.0161902 -0.0223057 -2.72755e-24)
(-0.0186545 -0.021709 0)
(-0.0220296 -0.0199188 0)
(-0.0257231 -0.0169886 0)
(-0.0292265 -0.0131012 0)
(-0.032142 -0.00852582 0)
(-0.0341958 -0.00357555 4.62139e-24)
(-0.035238 0.00143008 4.41188e-24)
(-0.0352322 0.0061959 -1.8083e-38)
(-0.0342376 0.0104738 -3.78178e-24)
(-0.0323867 0.0140773 -3.42603e-24)
(-0.0298608 0.016888 0)
(-0.0268661 0.0188551 0)
(-0.0236124 0.0199897 0)
(-0.0202949 0.0203546 2.2795e-24)
(-0.0170812 0.0200515 8.57812e-39)
(-0.0141021 0.0192081 -2.00952e-24)
(-0.0114478 0.017964 -9.72732e-25)
(-0.0091675 0.0164593 -1.88837e-38)
(-0.00727302 0.0148243 9.55218e-25)
(-0.00574428 0.0131717 -9.57984e-25)
(-0.0045367 0.0115921 -2.1952e-38)
(-0.00358931 0.0101513 9.58646e-25)
(-0.00283274 0.00888981 -9.47613e-25)
(-0.0021966 0.00782521 -2.31071e-38)
(-0.00161569 0.00695488 8.88815e-25)
(-0.0010348 0.00626026 0)
(-0.000411936 0.00571149 0)
(0.000280001 0.00527197 0)
(0.001053 0.00490273 0)
(0.00190493 0.00456618 0)
(0.00282147 0.00422912 8.70046e-25)
(0.00377874 0.00386486 1.44476e-38)
(0.00474624 0.0034545 -4.9947e-25)
(0.00568999 0.00298745 0)
(0.00657542 0.0024612 0)
(0.00736998 0.00188049 0)
(0.00804536 0.00125615 0)
(0.00857906 0.000603614 0)
(0.00895552 -5.86882e-05 0)
(0.00916657 -0.000710886 0)
(0.00921146 -0.00133315 0)
(0.00909642 -0.00190695 0)
(0.00883385 -0.0024161 0)
(0.00844124 -0.00284747 0)
(0.00793996 -0.00319136 0)
(0.007354 -0.00344164 0)
(0.00670871 -0.00359532 0)
(0.00602977 -0.00365181 0)
(0.00534222 -0.00361143 1.22832e-25)
(0.00466997 -0.00347326 -2.33124e-39)
(0.00403891 -0.00323473 -4.86062e-26)
(0.00349629 -0.00290992 0)
(0.00315345 -0.00264658 0)
(1.29353 0.599595 0)
(1.31879 0.471249 0)
(1.34429 0.328196 9.13282e-25)
(1.36494 0.173114 4.25118e-38)
(1.37268 0.0114689 -6.52781e-24)
(1.36148 -0.148442 0)
(1.32879 -0.29682 0)
(1.27624 -0.424306 0)
(1.20917 -0.523887 0)
(1.13529 -0.592194 0)
(1.06291 -0.629919 0)
(0.99931 -0.641366 0)
(0.949467 -0.6334 0)
(0.915458 -0.614097 0)
(0.896422 -0.59142 0)
(0.889024 -0.572126 0)
(0.888216 -0.561044 0)
(0.888139 -0.560733 0)
(0.882998 -0.571496 0)
(0.867808 -0.591678 0)
(0.838944 -0.618142 1.32763e-22)
(0.794452 -0.646854 -2.26876e-36)
(0.73414 -0.673475 -1.02922e-22)
(0.659464 -0.693913 0)
(0.573255 -0.704761 0)
(0.479333 -0.703614 1.73302e-23)
(0.382067 -0.68924 -1.78678e-37)
(0.285928 -0.661603 -8.3111e-24)
(0.195088 -0.621772 0)
(0.113083 -0.571721 0)
(0.042585 -0.514074 0)
(-0.014729 -0.451811 -2.25168e-26)
(-0.0581991 -0.38798 -1.22606e-37)
(-0.0881139 -0.325443 3.34612e-25)
(-0.105568 -0.266666 0)
(-0.112273 -0.213575 0)
(-0.110338 -0.167478 0)
(-0.102056 -0.129054 0)
(-0.0897055 -0.0983932 -3.4584e-24)
(-0.0753799 -0.075083 -1.47145e-39)
(-0.0608671 -0.0583212 3.69997e-24)
(-0.0475692 -0.0470425 -3.31693e-24)
(-0.0364687 -0.0400452 7.03199e-38)
(-0.0281342 -0.0361072 1.78059e-24)
(-0.0227585 -0.0340827 -7.77103e-25)
(-0.0202193 -0.0329758 -1.20451e-38)
(-0.0201542 -0.0319876 -1.30266e-24)
(-0.022041 -0.0305391 0)
(-0.0252751 -0.0282715 0)
(-0.0292384 -0.0250291 0)
(-0.0333563 -0.0208278 0)
(-0.037139 -0.0158172 0)
(-0.0402087 -0.0102379 4.50986e-24)
(-0.0423113 -0.00438022 4.46989e-24)
(-0.0433155 0.00145343 1.04386e-38)
(-0.0432022 0.00697953 -4.07554e-24)
(-0.042046 0.0119572 -3.78564e-24)
(-0.0399927 0.0162035 0)
(-0.0372348 0.0196013 0)
(-0.0339874 0.0220999 0)
(-0.0304671 0.0237098 2.6429e-24)
(-0.0268745 0.0244938 1.66808e-38)
(-0.0233803 0.0245544 -2.29935e-24)
(-0.0201175 0.024021 -1.09939e-24)
(-0.0171774 0.0230364 -2.81346e-39)
(-0.0146096 0.0217447 1.05476e-24)
(-0.0124257 0.0202811 -1.05062e-24)
(-0.0106051 0.0187635 -1.7048e-38)
(-0.0091029 0.0172878 1.05172e-24)
(-0.00785775 0.0159245 -1.0471e-24)
(-0.00680025 0.0147188 -1.03732e-38)
(-0.00586029 0.0136913 1.00919e-24)
(-0.00497336 0.0128419 0)
(-0.00408536 0.0121532 0)
(-0.00315577 0.0115956 0)
(-0.00215932 0.0111317 0)
(-0.00108612 0.0107213 0)
(5.9373e-05 0.010325 1.21918e-24)
(0.00126044 0.00990744 9.61955e-39)
(0.00249076 0.00944006 -8.42811e-25)
(0.0037175 0.00890238 0)
(0.00490445 0.00828275 0)
(0.00601509 0.00757835 0)
(0.00701523 0.00679442 0)
(0.00787524 0.00594321 0)
(0.00857177 0.0050424 0)
(0.00908875 0.00411354 0)
(0.00941799 0.00318027 0)
(0.00955914 0.00226679 0)
(0.00951919 0.00139637 0)
(0.00931164 0.00059018 0)
(0.0089554 -0.000133577 0)
(0.00847347 -0.000760153 0)
(0.00789168 -0.00127829 0)
(0.00723746 -0.00167971 0)
(0.00653893 -0.001958 1.20244e-25)
(0.00582455 -0.00210683 -1.48821e-39)
(0.00512635 -0.00211875 -4.97541e-26)
(0.00450022 -0.00199655 0)
(0.00409237 -0.00185087 0)
(1.40521 0.585575 0)
(1.42901 0.46425 0)
(1.45212 0.330305 4.87505e-25)
(1.47066 0.185819 -9.53167e-25)
(1.47774 0.0353261 -6.08376e-24)
(1.46804 -0.114074 0)
(1.43899 -0.253741 0)
(1.39157 -0.375077 0)
(1.33013 -0.471222 0)
(1.26147 -0.538349 0)
(1.19331 -0.576291 0)
(1.13285 -0.588386 0)
(1.08547 -0.580722 0)
(1.05398 -0.560995 0)
(1.03835 -0.537264 0)
(1.03594 -0.516826 0)
(1.04212 -0.505353 0)
(1.05104 -0.506377 0)
(1.05652 -0.521109 0)
(1.05281 -0.548573 0)
(1.03526 -0.585969 1.51874e-22)
(1.00081 -0.6292 -4.48294e-23)
(0.948157 -0.67347 -1.2837e-22)
(0.877803 -0.713882 0)
(0.791891 -0.745973 0)
(0.693868 -0.766149 2.64518e-23)
(0.588078 -0.771967 -1.00538e-23)
(0.4793 -0.762281 -1.64094e-23)
(0.372303 -0.737239 0)
(0.271438 -0.698158 2.01689e-23)
(0.180328 -0.647297 0)
(0.101647 -0.587575 4.67841e-24)
(0.037019 -0.522262 4.36721e-24)
(-0.0129878 -0.454676 -2.87847e-24)
(-0.0487702 -0.387915 0)
(-0.0715326 -0.324645 4.80536e-24)
(-0.0830842 -0.266956 0)
(-0.085616 -0.216286 0)
(-0.0814805 -0.173409 -6.2313e-24)
(-0.0729926 -0.138482 -1.34529e-24)
(-0.0622665 -0.111139 6.17855e-24)
(-0.051095 -0.0906012 -5.64331e-24)
(-0.0408763 -0.0758147 -2.99956e-24)
(-0.0325841 -0.0655764 4.04574e-24)
(-0.0267777 -0.0586549 -2.94378e-24)
(-0.0236429 -0.0538898 -4.85618e-24)
(-0.0230554 -0.0502669 5.58591e-25)
(-0.0246566 -0.0469684 5.27217e-24)
(-0.0279342 -0.043396 2.74661e-24)
(-0.0322989 -0.0391734 2.69402e-24)
(-0.0371526 -0.0341292 2.57701e-24)
(-0.0419442 -0.0282664 2.41071e-24)
(-0.0462096 -0.0217243 1.05639e-23)
(-0.0495974 -0.0147355 2.44008e-25)
(-0.0518793 -0.00758445 -3.56092e-24)
(-0.0529489 -0.000569383 -7.31404e-24)
(-0.0528096 0.00602966 -3.97977e-24)
(-0.0515561 0.0119749 7.91224e-26)
(-0.0493513 0.0170867 7.12023e-26)
(-0.0464019 0.0212521 0)
(-0.0429343 0.024425 3.03362e-24)
(-0.0391738 0.0266221 -1.83676e-24)
(-0.0353267 0.0279127 -2.58734e-24)
(-0.0315681 0.0284071 -1.22887e-24)
(-0.0280333 0.0282428 -1.72104e-24)
(-0.0248146 0.027571 1.15775e-24)
(-0.0219618 0.0265436 -1.14456e-24)
(-0.0194862 0.0253034 8.67296e-25)
(-0.0173664 0.023975 1.13946e-24)
(-0.015557 0.0226596 -1.13773e-24)
(-0.013996 0.0214321 7.48456e-25)
(-0.0126139 0.0203404 1.11501e-24)
(-0.011341 0.0194069 0)
(-0.0101134 0.0186316 1.52974e-24)
(-0.00887824 0.0179969 0)
(-0.0075968 0.0174715 0)
(-0.00624588 0.0170164 0)
(-0.00481804 0.0165891 1.54714e-24)
(-0.0033204 0.0161481 -1.41119e-25)
(-0.00177254 0.0156567 -1.17874e-24)
(-0.000203698 0.0150849 0)
(0.00135042 0.0144118 0)
(0.00285087 0.0136262 0)
(0.00425858 0.0127264 0)
(0.0055371 0.0117199 0)
(0.0066549 0.010622 0)
(0.00758708 0.00945402 0)
(0.00831651 0.00824193 0)
(0.00883431 0.00701425 0)
(0.00913991 0.00580031 0)
(0.0092405 0.0046287 0)
(0.00915013 0.00352587 0)
(0.00888857 0.0025153 0)
(0.00848002 0.00161699 0)
(0.00795173 0.000847619 0)
(0.00733291 0.000221262 1.02179e-25)
(0.006654 -0.000249355 -4.19301e-26)
(0.00594919 -0.000551261 -4.29905e-26)
(0.00527713 -0.00067585 0)
(0.00481733 -0.000683185 0)
(1.51276 0.573546 0)
(1.53543 0.45858 0)
(1.55686 0.33266 0)
(1.574 0.19734 -2.44702e-38)
(1.58075 0.0563961 0)
(1.57227 -0.0840063 0)
(1.546 -0.216118 0)
(1.50246 -0.331933 0)
(1.44527 -0.424702 0)
(1.38051 -0.490219 0)
(1.31548 -0.527574 0)
(1.25737 -0.539245 0)
(1.21198 -0.530593 0)
(1.18282 -0.508919 0)
(1.17072 -0.482329 0)
(1.17383 -0.4586 0)
(1.18801 -0.444225 0)
(1.20755 -0.443741 0)
(1.22597 -0.459376 0)
(1.23682 -0.491005 0)
(1.23445 -0.53639 0)
(1.21458 -0.591618 -2.07178e-36)
(1.17467 -0.651668 0)
(1.11404 -0.711037 0)
(1.03389 -0.764348 0)
(0.937012 -0.806871 1.03584e-22)
(0.827441 -0.834932 -1.02476e-36)
(0.710021 -0.846175 -7.29596e-23)
(0.58992 -0.839659 -5.94431e-23)
(0.472176 -0.815822 7.86532e-37)
(0.361304 -0.776314 3.80852e-23)
(0.260994 -0.723743 0)