/*--------------------------------*- C++ -*----------------------------------*\
  =========                 |
  \\      /  F ield         | OpenFOAM: The Open Source CFD Toolbox
   \\    /   O peration     | Website:  https://openfoam.org
    \\  /    A nd           | Version:  8
     \\/     M anipulation  |
\*---------------------------------------------------------------------------*/
FoamFile
{
    version     2.0;
    format      ascii;
    class       volScalarField;
    location    "0.07";
    object      p;
}
// * * * * * * * * * * * * * * * * * * * * * * * * * * * * * * * * * * * * * //

dimensions      [0 2 -2 0 0 0 0];

internalField   nonuniform List<scalar> 
112642
(
2.59342
2.57335
2.55305
2.53266
2.51255
2.49254
2.47251
2.45239
2.43214
2.41176
2.39122
2.37053
2.3497
2.32873
2.30762
2.28636
2.26497
2.24345
2.22179
2.20001
2.17809
2.15607
2.13393
2.11168
2.08932
2.06688
2.04434
2.02172
1.99904
1.97628
1.95347
1.9306
1.90768
1.8847
1.86167
1.83859
1.81546
1.79228
1.76904
1.74576
1.72244
1.69906
1.67562
1.65214
1.6286
1.60502
1.58139
1.55772
1.53399
1.51022
1.48641
1.46256
1.43866
1.41473
1.39076
1.36675
1.3427
1.31861
1.29447
1.27029
1.24606
1.22179
1.19747
1.1731
1.14869
1.12423
1.09972
1.07518
1.05059
1.02597
1.0013
0.976593
0.951847
0.927063
0.902241
0.877382
0.852479
0.827546
0.80257
0.777555
0.752495
0.727397
0.702257
0.677078
0.651848
0.626571
0.601259
0.575891
0.550477
0.525014
0.499499
0.47394
0.448323
0.422653
0.396928
0.371154
0.345319
0.319425
0.293473
0.267464
0.241392
0.215262
0.18907
0.162816
0.1365
0.110125
0.0836794
0.0571683
0.0305913
0.00395255
-0.0227619
-0.0495429
-0.0763932
-0.103315
-0.130297
-0.157363
-0.184498
-0.2117
-0.238982
-0.266343
-0.29379
-0.321317
-0.348934
-0.37664
-0.404451
-0.432355
-0.460361
-0.488471
-0.516685
-0.545004
-0.573425
-0.601956
-0.63059
-0.659328
-0.688177
-0.717128
-0.746183
-0.775342
-0.804606
-0.833971
-0.863431
-0.892998
-0.922666
-0.952428
-0.982294
-1.01225
-1.04231
-1.07246
-1.10271
-1.13306
-1.1635
-1.19404
-1.22468
-1.25541
-1.28623
-1.31716
-1.34819
-1.37932
-1.41055
-1.44187
-1.4733
-1.50483
-1.53647
-1.56823
-1.60009
-1.63207
-1.66416
-1.69634
-1.72864
-1.76104
-1.79353
-1.82612
-1.85879
-1.89154
-1.92435
-1.95721
-1.99013
-2.02308
-2.05607
-2.08908
-2.12213
-2.15519
-2.18828
-2.22138
-2.25452
-2.28769
-2.32088
-2.35412
-2.3874
-2.42073
-2.45411
-2.48755
-2.52109
-2.55479
-2.58874
-2.62317
-2.65841
-2.69484
-2.73187
-2.76915
2.60517
2.58552
2.56553
2.54525
2.52519
2.50521
2.48524
2.46523
2.44509
2.42483
2.40441
2.38385
2.36313
2.34225
2.32123
2.30007
2.27875
2.2573
2.2357
2.21396
2.1921
2.1701
2.14799
2.12576
2.10341
2.08097
2.05843
2.03579
2.01309
1.99031
1.96745
1.94454
1.92156
1.89852
1.87543
1.85227
1.82906
1.8058
1.78247
1.75909
1.73566
1.71217
1.68863
1.66502
1.64136
1.61765
1.59389
1.57007
1.5462
1.52228
1.49831
1.4743
1.45024
1.42614
1.40199
1.3778
1.35357
1.32928
1.30495
1.28058
1.25615
1.23168
1.20715
1.18258
1.15795
1.13328
1.10856
1.0838
1.05899
1.03414
1.00924
0.984302
0.959321
0.934298
0.909235
0.884129
0.858982
0.833794
0.808567
0.783292
0.757976
0.732615
0.707212
0.681762
0.656266
0.630719
0.60513
0.579488
0.553796
0.528053
0.502259
0.476412
0.450512
0.424553
0.398542
0.372473
0.346345
0.320161
0.29391
0.267608
0.241234
0.214809
0.188313
0.16176
0.135142
0.10846
0.081712
0.0548939
0.0280128
0.00106241
-0.0259563
-0.0530455
-0.0802046
-0.107434
-0.134731
-0.162106
-0.18955
-0.21707
-0.244665
-0.272344
-0.300103
-0.327951
-0.355883
-0.38391
-0.412032
-0.440255
-0.468573
-0.496996
-0.525521
-0.55415
-0.58288
-0.61172
-0.64066
-0.669704
-0.698851
-0.728108
-0.757461
-0.786919
-0.816479
-0.846136
-0.875896
-0.905753
-0.935711
-0.965763
-0.995911
-1.02615
-1.0565
-1.08693
-1.11745
-1.14807
-1.17879
-1.2096
-1.2405
-1.27149
-1.30258
-1.33376
-1.36504
-1.39642
-1.42788
-1.45944
-1.49111
-1.52288
-1.55474
-1.58672
-1.61879
-1.65098
-1.68326
-1.71564
-1.74812
-1.7807
-1.81337
-1.84611
-1.87893
-1.91183
-1.94477
-1.97776
-2.01079
-2.04386
-2.07695
-2.11007
-2.14319
-2.17634
-2.20949
-2.24266
-2.27585
-2.30904
-2.34227
-2.37554
-2.40882
-2.44215
-2.47553
-2.509
-2.54258
-2.57636
-2.61052
-2.64529
-2.68083
-2.71748
-2.75435
-2.79117
2.61621
2.59711
2.57752
2.55734
2.53732
2.51732
2.49743
2.47748
2.45745
2.4373
2.41699
2.39654
2.37593
2.35515
2.33423
2.31315
2.29191
2.27053
2.249
2.22733
2.20551
2.18356
2.16148
2.13928
2.11695
2.09453
2.072
2.04936
2.02664
2.00384
1.98096
1.958
1.93498
1.9119
1.88874
1.86552
1.84224
1.8189
1.7955
1.77203
1.7485
1.72491
1.70127
1.67755
1.65378
1.62995
1.60606
1.58211
1.55811
1.53406
1.50995
1.48578
1.46157
1.43731
1.413
1.38864
1.36423
1.33977
1.31525
1.29069
1.26608
1.24141
1.21669
1.19192
1.16709
1.14221
1.11729
1.09231
1.06729
1.04221
1.01709
0.991934
0.966723
0.941466
0.916165
0.890823
0.865433
0.839999
0.814523
0.788998
0.763427
0.737807
0.712147
0.686433
0.660674
0.634857
0.608999
0.583087
0.557118
0.531103
0.505026
0.478902
0.452716
0.426475
0.400177
0.373821
0.347403
0.320926
0.294384
0.267787
0.241118
0.214396
0.187603
0.16075
0.13383
0.106847
0.0797966
0.0526787
0.0254899
-0.00176098
-0.0290905
-0.0564812
-0.0839498
-0.111484
-0.139089
-0.166775
-0.194528
-0.222361
-0.250265
-0.278258
-0.306332
-0.334491
-0.362738
-0.391078
-0.419515
-0.448043
-0.476675
-0.505408
-0.53424
-0.563169
-0.592206
-0.621348
-0.650586
-0.679931
-0.709378
-0.738925
-0.768576
-0.798324
-0.828172
-0.858122
-0.888163
-0.918306
-0.948542
-0.978874
-1.0093
-1.03982
-1.07042
-1.10113
-1.13192
-1.16281
-1.19378
-1.22485
-1.256
-1.28724
-1.31858
-1.35001
-1.38153
-1.41314
-1.44483
-1.47662
-1.50851
-1.5405
-1.57258
-1.60475
-1.63703
-1.6694
-1.70187
-1.73443
-1.76709
-1.79982
-1.83264
-1.86553
-1.89848
-1.9315
-1.96456
-1.99765
-2.03079
-2.06394
-2.09713
-2.13031
-2.16352
-2.19672
-2.22994
-2.26315
-2.29638
-2.32962
-2.36287
-2.39615
-2.42946
-2.4628
-2.49621
-2.5297
-2.56336
-2.59731
-2.63167
-2.66682
-2.7027
-2.73951
-2.77602
-2.81218
2.62661
2.60815
2.58913
2.56911
2.54914
2.52916
2.50928
2.48939
2.46945
2.44939
2.4292
2.40886
2.38835
2.36768
2.34685
2.32586
2.30471
2.2834
2.26195
2.24034
2.21859
2.19669
2.17465
2.15249
2.13021
2.1078
2.08528
2.06266
2.03993
2.01712
1.99422
1.97124
1.94818
1.92504
1.90184
1.87857
1.85522
1.83181
1.80833
1.78478
1.76116
1.73748
1.71373
1.68992
1.66604
1.6421
1.61809
1.59403
1.5699
1.54572
1.52147
1.49717
1.47281
1.4484
1.42394
1.39942
1.37484
1.35021
1.32553
1.30079
1.27599
1.25114
1.22623
1.20127
1.17624
1.15117
1.12603
1.10085
1.07561
1.05033
1.02499
0.999598
0.974164
0.948675
0.923139
0.897562
0.871931
0.846252
0.82053
0.794752
0.768931
0.743055
0.717136
0.691158
0.665134
0.639054
0.612925
0.58674
0.560501
0.534205
0.507852
0.481446
0.454979
0.428453
0.401867
0.375222
0.348514
0.321744
0.294911
0.268015
0.241052
0.214029
0.186939
0.159785
0.132564
0.105278
0.0779221
0.0504992
0.0230063
-0.00455242
-0.0321859
-0.0598895
-0.0876618
-0.115508
-0.143423
-0.171417
-0.199481
-0.227628
-0.255845
-0.28415
-0.312533
-0.341009
-0.369565
-0.398219
-0.426967
-0.455804
-0.484746
-0.513787
-0.542922
-0.572161
-0.601501
-0.630938
-0.660481
-0.690121
-0.719867
-0.749705
-0.779649
-0.809686
-0.839821
-0.870055
-0.90038
-0.930799
-0.961314
-0.991916
-1.02262
-1.0534
-1.08427
-1.11524
-1.14629
-1.17743
-1.20866
-1.23998
-1.27138
-1.30286
-1.33444
-1.3661
-1.39786
-1.42969
-1.46161
-1.49362
-1.52573
-1.55792
-1.59021
-1.62258
-1.65505
-1.6876
-1.72024
-1.75298
-1.78579
-1.81867
-1.85163
-1.88465
-1.91772
-1.95085
-1.98401
-2.0172
-2.05041
-2.08364
-2.11688
-2.15014
-2.18339
-2.21665
-2.2499
-2.28317
-2.31643
-2.3497
-2.38299
-2.41629
-2.44962
-2.48299
-2.51643
-2.55
-2.58377
-2.61792
-2.65259
-2.68809
-2.72425
-2.76108
-2.79695
-2.83235
2.6366
2.61897
2.60053
2.58085
2.56103
2.54107
2.52123
2.50139
2.48153
2.46157
2.44148
2.42125
2.40085
2.38029
2.35957
2.33867
2.31762
2.29641
2.27503
2.2535
2.23182
2.20998
2.18801
2.16589
2.14365
2.12127
2.09877
2.07616
2.05344
2.03062
2.0077
1.98469
1.9616
1.93842
1.91517
1.89184
1.86843
1.84494
1.82139
1.79776
1.77406
1.75029
1.72644
1.70253
1.67855
1.65449
1.63038
1.60619
1.58194
1.55763
1.53325
1.50881
1.48431
1.45975
1.43514
1.41046
1.38572
1.36092
1.33606
1.31114
1.28617
1.26113
1.23603
1.21086
1.18564
1.16037
1.13503
1.10963
1.08418
1.05867
1.03311
1.00749
0.981824
0.956102
0.93033
0.904506
0.878632
0.852704
0.826725
0.800697
0.774617
0.748478
0.722291
0.696049
0.669755
0.643401
0.616996
0.590531
0.564013
0.537433
0.510795
0.484099
0.457343
0.430523
0.403645
0.376702
0.349697
0.322626
0.29549
0.268291
0.241024
0.213694
0.186297
0.158832
0.131302
0.103703
0.0760373
0.048299
0.0204933
-0.00738274
-0.0353307
-0.0633509
-0.0914399
-0.119605
-0.147839
-0.176153
-0.204536
-0.232999
-0.261539
-0.290167
-0.31887
-0.347661
-0.376543
-0.405515
-0.434578
-0.463738
-0.492993
-0.522348
-0.551797
-0.58135
-0.611001
-0.640748
-0.670594
-0.700543
-0.730589
-0.760728
-0.790966
-0.821302
-0.851732
-0.882251
-0.912862
-0.943568
-0.974362
-1.00525
-1.03622
-1.06728
-1.09842
-1.12965
-1.16097
-1.19236
-1.22385
-1.25541
-1.28706
-1.31879
-1.35061
-1.38251
-1.41449
-1.44655
-1.4787
-1.51094
-1.54325
-1.57566
-1.60815
-1.64072
-1.67338
-1.70612
-1.73894
-1.77183
-1.8048
-1.83783
-1.87093
-1.90407
-1.93726
-1.97048
-2.00373
-2.03701
-2.0703
-2.10359
-2.13688
-2.17018
-2.20348
-2.23677
-2.27006
-2.30335
-2.33664
-2.36994
-2.40324
-2.43657
-2.46992
-2.50333
-2.53682
-2.57049
-2.60443
-2.63883
-2.6738
-2.70965
-2.74593
-2.78248
-2.81768
-2.85202
2.64641
2.62955
2.61168
2.59252
2.57295
2.55309
2.53329
2.5135
2.49371
2.47385
2.45387
2.43375
2.41347
2.39303
2.37242
2.35164
2.33069
2.30957
2.28829
2.26685
2.24524
2.22347
2.20156
2.1795
2.1573
2.13496
2.11249
2.08989
2.06718
2.04435
2.02142
1.99839
1.97527
1.95205
1.92875
1.90536
1.88189
1.85834
1.83471
1.811
1.78722
1.76336
1.73942
1.71541
1.69132
1.66716
1.64293
1.61863
1.59426
1.56982
1.54531
1.52074
1.4961
1.47139
1.44661
1.42178
1.39688
1.37191
1.34688
1.32178
1.29662
1.27139
1.24609
1.22074
1.19531
1.16982
1.14428
1.11866
1.09299
1.06726
1.04147
1.01562
0.989718
0.963761
0.937741
0.911673
0.885544
0.859365
0.833126
0.806836
0.780488
0.754085
0.727625
0.70111
0.674537
0.647901
0.621216
0.594463
0.567656
0.540785
0.513856
0.48686
0.459808
0.432686
0.405506
0.378257
0.350945
0.323568
0.296119
0.268609
0.241027
0.213383
0.185666
0.157887
0.130037
0.102117
0.0741301
0.0460681
0.0179411
-0.0102628
-0.0385337
-0.0668806
-0.0952958
-0.123789
-0.152349
-0.180992
-0.209707
-0.238498
-0.267369
-0.296322
-0.325358
-0.354479
-0.383691
-0.412987
-0.442383
-0.471864
-0.50145
-0.531123
-0.560896
-0.590771
-0.62074
-0.650803
-0.680967
-0.711226
-0.74158
-0.772029
-0.802573
-0.833206
-0.863935
-0.894753
-0.925658
-0.956655
-0.987731
-1.0189
-1.05015
-1.08148
-1.1129
-1.1444
-1.17598
-1.20764
-1.23938
-1.2712
-1.30309
-1.33508
-1.36713
-1.39927
-1.43149
-1.46378
-1.49616
-1.52861
-1.56114
-1.59375
-1.62645
-1.65922
-1.69207
-1.72499
-1.75799
-1.79105
-1.82417
-1.85735
-1.89058
-1.92384
-1.95714
-1.99046
-2.0238
-2.05716
-2.09051
-2.12386
-2.1572
-2.19055
-2.22388
-2.25719
-2.29049
-2.32381
-2.35711
-2.39041
-2.42373
-2.45706
-2.49044
-2.52388
-2.55746
-2.59124
-2.62538
-2.66006
-2.69535
-2.7314
-2.76761
-2.80361
-2.83815
-2.87155
2.65601
2.63977
2.62256
2.60397
2.58475
2.56508
2.54536
2.52563
2.50591
2.48614
2.46627
2.44626
2.42611
2.40579
2.3853
2.36463
2.34379
2.32279
2.3016
2.28025
2.25873
2.23704
2.21519
2.1932
2.17104
2.14874
2.1263
2.10372
2.08102
2.0582
2.03525
2.01221
1.98906
1.96581
1.94246
1.91903
1.8955
1.87188
1.84819
1.82441
1.80054
1.7766
1.75257
1.72847
1.70429
1.68002
1.65568
1.63127
1.60678
1.58222
1.55758
1.53287
1.50809
1.48324
1.45831
1.43332
1.40825
1.38312
1.35791
1.33264
1.30728
1.28187
1.25638
1.23082
1.20519
1.1795
1.15374
1.12791
1.10201
1.07606
1.05003
1.02395
0.997809
0.971608
0.945344
0.919022
0.892638
0.8662
0.8397
0.81314
0.786525
0.759849
0.73311
0.706314
0.679458
0.652539
0.625561
0.598518
0.571416
0.544247
0.517018
0.489721
0.462361
0.434937
0.40744
0.379887
0.352256
0.324564
0.296798
0.268967
0.241064
0.213097
0.185056
0.156952
0.12877
0.100529
0.0722059
0.0438194
0.0153584
-0.013177
-0.0417805
-0.070461
-0.0992105
-0.128038
-0.156937
-0.185914
-0.214965
-0.244094
-0.273306
-0.302596
-0.331967
-0.361427
-0.390975
-0.420608
-0.450337
-0.480156
-0.51007
-0.540075
-0.570181
-0.600378
-0.630673
-0.661061
-0.691545
-0.722123
-0.752792
-0.783553
-0.814411
-0.845349
-0.876383
-0.907496
-0.938705
-0.969992
-1.00136
-1.03281
-1.06435
-1.09596
-1.12765
-1.15942
-1.19127
-1.22319
-1.25519
-1.28726
-1.31941
-1.35163
-1.38393
-1.41631
-1.44875
-1.48127
-1.51387
-1.54654
-1.57929
-1.61211
-1.645
-1.67797
-1.71101
-1.74411
-1.77727
-1.8105
-1.84378
-1.87709
-1.91045
-1.94384
-1.97724
-2.01066
-2.04409
-2.07751
-2.11093
-2.14433
-2.17772
-2.2111
-2.24445
-2.27778
-2.31111
-2.34442
-2.37772
-2.41103
-2.44434
-2.47769
-2.51108
-2.54457
-2.57822
-2.61217
-2.64653
-2.68148
-2.71701
-2.7531
-2.78908
-2.82443
-2.85814
-2.89083
2.66522
2.64965
2.63306
2.61513
2.59636
2.57695
2.55736
2.53771
2.51807
2.49838
2.47862
2.45874
2.43871
2.41851
2.39814
2.3776
2.35688
2.33598
2.3149
2.29364
2.27222
2.25061
2.22884
2.2069
2.1848
2.16254
2.14014
2.11759
2.0949
2.07208
2.04914
2.02608
2.00291
1.97964
1.95625
1.93278
1.9092
1.88554
1.86178
1.83793
1.81399
1.78997
1.76587
1.74167
1.7174
1.69304
1.66859
1.64407
1.61947
1.59479
1.57002
1.54518
1.52026
1.49527
1.47019
1.44505
1.41982
1.39452
1.36914
1.34368
1.31815
1.29254
1.26686
1.2411
1.21527
1.18937
1.16339
1.13734
1.11122
1.08504
1.05878
1.03246
1.00608
0.97963
0.953116
0.926539
0.899899
0.873196
0.84643
0.819601
0.792707
0.765756
0.738735
0.711655
0.684513
0.657301
0.630028
0.602688
0.575288
0.547813
0.52028
0.492674
0.465003
0.437264
0.409454
0.381578
0.35363
0.325613
0.297524
0.269366
0.241135
0.212837
0.184466
0.156027
0.127515
0.0989337
0.0702778
0.0415509
0.0127522
-0.0161228
-0.0450647
-0.0740893
-0.103178
-0.132348
-0.16159
-0.190912
-0.220305
-0.249778
-0.279335
-0.308967
-0.338688
-0.368492
-0.398382
-0.42836
-0.458428
-0.488588
-0.518841
-0.549186
-0.579624
-0.610157
-0.640782
-0.671499
-0.702311
-0.733211
-0.764204
-0.795286
-0.826451
-0.857707
-0.889046
-0.920468
-0.951974
-0.983553
-1.01522
-1.04696
-1.07878
-1.11067
-1.14264
-1.17468
-1.20679
-1.23898
-1.27124
-1.30357
-1.33596
-1.36843
-1.40097
-1.43358
-1.46625
-1.499
-1.53181
-1.5647
-1.59765
-1.63067
-1.66377
-1.69692
-1.73013
-1.76341
-1.79674
-1.83012
-1.86354
-1.89699
-1.93047
-1.96397
-1.99748
-2.03099
-2.0645
-2.098
-2.13148
-2.16493
-2.19836
-2.23177
-2.26514
-2.2985
-2.33183
-2.36515
-2.39845
-2.43175
-2.46506
-2.49842
-2.53183
-2.56537
-2.59913
-2.63325
-2.66783
-2.70301
-2.7387
-2.77469
-2.81023
-2.84481
-2.87772
-2.90953
2.67411
2.65917
2.64321
2.62596
2.60772
2.58868
2.56929
2.54976
2.53021
2.51061
2.49095
2.47119
2.45128
2.43121
2.41098
2.39056
2.36996
2.34917
2.32819
2.30704
2.2857
2.26419
2.24249
2.22062
2.19858
2.17637
2.15401
2.13149
2.10884
2.08603
2.0631
2.04004
2.01686
1.99356
1.97016
1.94664
1.92303
1.89932
1.87551
1.85161
1.8276
1.80351
1.77933
1.75505
1.73069
1.70624
1.68169
1.65707
1.63235
1.60755
1.58267
1.5577
1.53265
1.50751
1.48229
1.45698
1.4316
1.40613
1.38058
1.35495
1.32923
1.30343
1.27755
1.25159
1.22556
1.19944
1.17325
1.14698
1.12063
1.09422
1.06773
1.04117
1.01454
0.98784
0.961074
0.934238
0.907337
0.880367
0.853327
0.826227
0.799051
0.771819
0.744514
0.717142
0.689707
0.662198
0.634625
0.606984
0.579273
0.551494
0.523646
0.495724
0.467737
0.439675
0.411546
0.383342
0.355066
0.326721
0.298299
0.269806
0.24124
0.212604
0.183893
0.155115
0.126262
0.0973347
0.0683381
0.0392634
0.0101201
-0.0191029
-0.048396
-0.0777634
-0.107207
-0.136725
-0.166317
-0.195991
-0.225735
-0.255563
-0.285471
-0.315453
-0.345529
-0.37568
-0.405925
-0.436254
-0.46667
-0.497178
-0.527774
-0.558466
-0.589246
-0.620121
-0.651083
-0.682135
-0.713281
-0.744511
-0.775831
-0.807234
-0.838722
-0.870292
-0.901944
-0.933677
-0.965488
-0.997369
-1.02933
-1.06137
-1.09347
-1.12564
-1.1579
-1.19021
-1.22259
-1.25504
-1.28756
-1.32014
-1.35279
-1.38549
-1.41827
-1.45111
-1.48402
-1.51698
-1.55002
-1.58311
-1.61627
-1.64949
-1.68277
-1.7161
-1.74949
-1.78293
-1.81642
-1.84994
-1.8835
-1.91708
-1.95067
-1.98428
-2.01788
-2.05148
-2.08507
-2.11864
-2.15217
-2.18567
-2.21914
-2.25257
-2.28598
-2.31934
-2.35269
-2.386
-2.41931
-2.45261
-2.48592
-2.51928
-2.55275
-2.58636
-2.62024
-2.65455
-2.68933
-2.72468
-2.76037
-2.79607
-2.83102
-2.86475
-2.89686
-2.92782
2.68263
2.66832
2.65301
2.63644
2.61883
2.60022
2.58113
2.56177
2.54233
2.52282
2.50327
2.48361
2.46383
2.44389
2.42378
2.40349
2.38301
2.36234
2.34148
2.32042
2.29919
2.27776
2.25615
2.23435
2.21238
2.19024
2.16792
2.14545
2.12283
2.10006
2.07714
2.05409
2.03091
2.00761
1.98419
1.96065
1.93701
1.91326
1.8894
1.86544
1.84138
1.81723
1.79297
1.76862
1.74418
1.71963
1.695
1.67027
1.64545
1.62053
1.59553
1.57043
1.54524
1.51997
1.4946
1.46914
1.44359
1.41796
1.39224
1.36642
1.34053
1.31454
1.28846
1.2623
1.23606
1.20973
1.18332
1.15683
1.13026
1.1036
1.07688
1.05008
1.0232
0.996247
0.969222
0.942127
0.914957
0.887713
0.860403
0.833019
0.805567
0.778041
0.750447
0.722779
0.695044
0.667235
0.639356
0.611403
0.583381
0.555286
0.527119
0.498877
0.470563
0.442177
0.413715
0.385178
0.356571
0.327883
0.299126
0.270288
0.24138
0.212396
0.183344
0.154212
0.125011
0.0957337
0.0663812
0.0369574
0.00745627
-0.0221199
-0.0517693
-0.0814937
-0.111294
-0.141171
-0.171124
-0.201154
-0.231259
-0.261448
-0.291712
-0.322061
-0.352489
-0.383005
-0.413603
-0.444292
-0.475067
-0.505927
-0.536879
-0.567918
-0.599052
-0.630271
-0.661576
-0.692974
-0.724459
-0.756023
-0.787673
-0.819408
-0.851219
-0.883115
-0.915084
-0.947131
-0.979248
-1.01144
-1.0437
-1.07603
-1.10842
-1.14089
-1.17342
-1.20601
-1.23866
-1.27138
-1.30415
-1.337
-1.36989
-1.40285
-1.43586
-1.46894
-1.50206
-1.53524
-1.56849
-1.60179
-1.63515
-1.66856
-1.70202
-1.73553
-1.76908
-1.80269
-1.83632
-1.86998
-1.90367
-1.93736
-1.97107
-2.00477
-2.03846
-2.07214
-2.10579
-2.13941
-2.17299
-2.20654
-2.24004
-2.2735
-2.30692
-2.3403
-2.37365
-2.40698
-2.44027
-2.47359
-2.50691
-2.5403
-2.57381
-2.60754
-2.64155
-2.67603
-2.711
-2.74643
-2.78195
-2.81724
-2.85142
-2.88431
-2.91551
-2.9456
2.69082
2.67709
2.66244
2.64658
2.62961
2.61155
2.59282
2.5737
2.5544
2.53501
2.51555
2.49601
2.47635
2.45653
2.43655
2.41639
2.39603
2.37549
2.35474
2.3338
2.31267
2.29134
2.26982
2.24811
2.22622
2.20414
2.1819
2.15948
2.1369
2.11417
2.09128
2.06825
2.04508
2.02178
1.99836
1.97481
1.95114
1.92735
1.90346
1.87946
1.85536
1.83113
1.80681
1.78239
1.75787
1.73324
1.70851
1.68368
1.65876
1.63373
1.6086
1.58338
1.55806
1.53265
1.50714
1.48153
1.45582
1.43002
1.40413
1.37813
1.35205
1.32587
1.2996
1.27324
1.24678
1.22024
1.19361
1.1669
1.1401
1.11321
1.08624
1.05919
1.03206
1.00486
0.977574
0.950209
0.922769
0.895254
0.867662
0.839995
0.812253
0.784435
0.756542
0.728577
0.700535
0.672417
0.644228
0.615957
0.587619
0.559199
0.530705
0.502136
0.473491
0.444767
0.415971
0.387094
0.35814
0.329111
0.300003
0.270816
0.241557
0.21222
0.18281
0.153325
0.123763
0.0941261
0.0644166
0.034627
0.00476476
-0.0251738
-0.0551886
-0.0852812
-0.115443
-0.145691
-0.176008
-0.206406
-0.236882
-0.267434
-0.29807
-0.328786
-0.359584
-0.390465
-0.421431
-0.452482
-0.48362
-0.514847
-0.546157
-0.577555
-0.609043
-0.640613
-0.672274
-0.704021
-0.735845
-0.767755
-0.799742
-0.831812
-0.863961
-0.896179
-0.92847
-0.960838
-0.993267
-1.02577
-1.05834
-1.09096
-1.12365
-1.15642
-1.18922
-1.22209
-1.25502
-1.28801
-1.32104
-1.35414
-1.38729
-1.42048
-1.45374
-1.48704
-1.5204
-1.5538
-1.58725
-1.62077
-1.65431
-1.68791
-1.72154
-1.75523
-1.78895
-1.8227
-1.85647
-1.89026
-1.92406
-1.95787
-1.99167
-2.02546
-2.05923
-2.09297
-2.12668
-2.16035
-2.19397
-2.22754
-2.26107
-2.29455
-2.32798
-2.36138
-2.39473
-2.42805
-2.46135
-2.49467
-2.52801
-2.56145
-2.59504
-2.62886
-2.66305
-2.69769
-2.73277
-2.76815
-2.80339
-2.83804
-2.87144
-2.90341
-2.93368
-2.96296
2.69862
2.68552
2.6715
2.65633
2.64005
2.62258
2.60431
2.58549
2.56638
2.54712
2.52779
2.50836
2.48881
2.46912
2.44927
2.42924
2.40902
2.3886
2.36797
2.34716
2.32613
2.30492
2.2835
2.26189
2.24008
2.2181
2.19592
2.17357
2.15105
2.12837
2.10552
2.08252
2.05938
2.03609
2.01266
1.98911
1.96543
1.94162
1.9177
1.89366
1.8695
1.84523
1.82085
1.79636
1.77176
1.74704
1.72223
1.6973
1.67227
1.64714
1.6219
1.59656
1.5711
1.54555
1.5199
1.49414
1.46827
1.44231
1.41624
1.39007
1.3638
1.33744
1.31097
1.2844
1.25774
1.23098
1.20413
1.17719
1.15015
1.12303
1.09582
1.06852
1.04114
1.01368
0.986123
0.958494
0.930777
0.902982
0.875106
0.847152
0.819116
0.790997
0.762806
0.73453
0.706181
0.677747
0.649239
0.620651
0.591981
0.563235
0.53441
0.505503
0.476521
0.447453
0.418314
0.389087
0.359786
0.3304
0.300937
0.271393
0.241773
0.212075
0.182302
0.152449
0.122524
0.0925163
0.0624398
0.0322783
0.00204664
-0.0282661
-0.0586527
-0.089116
-0.119659
-0.150276
-0.180969
-0.211746
-0.242594
-0.273527
-0.304535
-0.33563
-0.366804
-0.398059
-0.4294
-0.460824
-0.492335
-0.523926
-0.555608
-0.587372
-0.619219
-0.651154
-0.683169
-0.71527
-0.747447
-0.779701
-0.812037
-0.844445
-0.87693
-0.909481
-0.942102
-0.974786
-1.00754
-1.04035
-1.07323
-1.10616
-1.13915
-1.1722
-1.2053
-1.23845
-1.27166
-1.30491
-1.33821
-1.37157
-1.40497
-1.43841
-1.4719
-1.50544
-1.53902
-1.57264
-1.60631
-1.64001
-1.67376
-1.70754
-1.74135
-1.77519
-1.80906
-1.84296
-1.87686
-1.91078
-1.94469
-1.97859
-2.01248
-2.04635
-2.08018
-2.11398
-2.14773
-2.18143
-2.21508
-2.24868
-2.28223
-2.31571
-2.34915
-2.38253
-2.41589
-2.4492
-2.48251
-2.51583
-2.54921
-2.58269
-2.61638
-2.65034
-2.68466
-2.71943
-2.75453
-2.78974
-2.82452
-2.85846
-2.89097
-2.92202
-2.9514
-2.97976
2.70611
2.6936
2.68018
2.66569
2.65012
2.63328
2.61554
2.5971
2.57825
2.55916
2.53996
2.52064
2.50122
2.48166
2.46195
2.44206
2.42197
2.40168
2.3812
2.36051
2.33962
2.31851
2.29721
2.27571
2.25401
2.23211
2.21003
2.18775
2.1653
2.14268
2.11988
2.09692
2.07381
2.05054
2.02712
2.00357
1.97989
1.95607
1.93212
1.90804
1.88385
1.85953
1.83509
1.81053
1.78586
1.76107
1.73617
1.71115
1.68602
1.66078
1.63543
1.60996
1.58438
1.55869
1.53289
1.50698
1.48096
1.45483
1.4286
1.40225
1.37579
1.34923
1.32257
1.2958
1.26893
1.24195
1.21488
1.18771
1.16044
1.13308
1.10562
1.07807
1.05043
1.02271
0.994888
0.966983
0.938988
0.910912
0.882746
0.854495
0.826163
0.797743
0.769244
0.740655
0.711988
0.683238
0.654401
0.625486
0.596486
0.5674
0.53824
0.508985
0.479658
0.450242
0.420746
0.391165
0.361506
0.331758
0.301932
0.27202
0.242033
0.211964
0.18182
0.151592
0.121292
0.0909094
0.0604513
0.029912
-0.000697696
-0.0313965
-0.0621604
-0.0930102
-0.123934
-0.154933
-0.186015
-0.217171
-0.248406
-0.279726
-0.311118
-0.342597
-0.374152
-0.405793
-0.437517
-0.469319
-0.501209
-0.53318
-0.565235
-0.597371
-0.629591
-0.661891
-0.694275
-0.72673
-0.759263
-0.791876
-0.824562
-0.857316
-0.890136
-0.923026
-0.955981
-0.988995
-1.02207
-1.05521
-1.08839
-1.12163
-1.15492
-1.18827
-1.22166
-1.2551
-1.28858
-1.32211
-1.35568
-1.38929
-1.42294
-1.45664
-1.49036
-1.52414
-1.55794
-1.59178
-1.62565
-1.65956
-1.69349
-1.72746
-1.76144
-1.79545
-1.82946
-1.86349
-1.89752
-1.93155
-1.96557
-1.99956
-2.03353
-2.06746
-2.10135
-2.1352
-2.16898
-2.20272
-2.23638
-2.26999
-2.30353
-2.33702
-2.37044
-2.40382
-2.43716
-2.47047
-2.50378
-2.53711
-2.57051
-2.60407
-2.63783
-2.67193
-2.70637
-2.74119
-2.77621
-2.8111
-2.84528
-2.87842
-2.90999
-2.94012
-2.96865
-2.99615
2.71327
2.7013
2.68847
2.67466
2.65978
2.64364
2.62647
2.60849
2.58996
2.57109
2.55205
2.53288
2.51359
2.49417
2.47459
2.45484
2.4349
2.41476
2.39442
2.37387
2.35311
2.33214
2.31097
2.28958
2.26799
2.2462
2.2242
2.20202
2.17964
2.15709
2.13435
2.11144
2.08837
2.06512
2.04173
2.01819
1.9945
1.97068
1.94671
1.92261
1.89837
1.87401
1.84952
1.82491
1.80017
1.7753
1.75032
1.72521
1.69999
1.67464
1.64917
1.62358
1.59788
1.57206
1.54612
1.52006
1.49388
1.46759
1.44118
1.41466
1.38802
1.36127
1.3344
1.30743
1.28035
1.25316
1.22586
1.19846
1.17096
1.14335
1.11565
1.08785
1.05995
1.03195
1.00386
0.975681
0.947406
0.919042
0.890581
0.862037
0.8334
0.80467
0.775858
0.746953
0.717964
0.688886
0.659718
0.630469
0.601126
0.571703
0.54219
0.512589
0.482904
0.453133
0.423274
0.393332
0.363302
0.333188
0.302988
0.272701
0.242337
0.211888
0.181362
0.150755
0.120067
0.0893022
0.0584549
0.02753
-0.00347282
-0.0345568
-0.0657175
-0.0969526
-0.128273
-0.159663
-0.191138
-0.22269
-0.254317
-0.286029
-0.317815
-0.349688
-0.381637
-0.413664
-0.44578
-0.477971
-0.510246
-0.542602
-0.575039
-0.607557
-0.640153
-0.67283
-0.70558
-0.738407
-0.771305
-0.804277
-0.837315
-0.870421
-0.903592
-0.93682
-0.970113
-1.00346
-1.03686
-1.07032
-1.10382
-1.13738
-1.17097
-1.20462
-1.2383
-1.27203
-1.30579
-1.33959
-1.37343
-1.40731
-1.44121
-1.47515
-1.50912
-1.54313
-1.57716
-1.61121
-1.64529
-1.67939
-1.71352
-1.74766
-1.78181
-1.81597
-1.85013
-1.88429
-1.91845
-1.95259
-1.98669
-2.02078
-2.05482
-2.08881
-2.12275
-2.15663
-2.19045
-2.22419
-2.25787
-2.29148
-2.32502
-2.35848
-2.3919
-2.42525
-2.45857
-2.49187
-2.52517
-2.55851
-2.59196
-2.62557
-2.65944
-2.69362
-2.72814
-2.76292
-2.79772
-2.83214
-2.86564
-2.89787
-2.9285
-2.95769
-2.98537
-3.01207
2.7201
2.70868
2.69642
2.68325
2.66905
2.6536
2.6371
2.61963
2.6015
2.58291
2.56408
2.54507
2.52592
2.50665
2.48722
2.46761
2.44782
2.42784
2.40766
2.38726
2.36664
2.34581
2.32476
2.3035
2.28204
2.26035
2.23847
2.21638
2.19409
2.17161
2.14894
2.12609
2.10306
2.07986
2.05649
2.03297
2.00928
1.98545
1.96147
1.93735
1.91309
1.88869
1.86415
1.83948
1.81468
1.78974
1.76468
1.73949
1.71417
1.68872
1.66315
1.63745
1.61162
1.58567
1.55958
1.53338
1.50705
1.48059
1.45402
1.42732
1.40049
1.37355
1.34649
1.31931
1.29201
1.26461
1.23709
1.20946
1.18171
1.15387
1.12592
1.09786
1.06969
1.04143
1.01307
0.984608
0.956041
0.927387
0.898629
0.869781
0.840833
0.811794
0.782659
0.753437
0.724113
0.694705
0.665199
0.635607
0.605918
0.576143
0.546276
0.516317
0.486271
0.456131
0.425907
0.395592
0.365185
0.334689
0.304112
0.273438
0.24269
0.211849
0.180937
0.149936
0.118853
0.0876918
0.0564519
0.0251266
-0.00627469
-0.0377577
-0.0693178
-0.100956
-0.132677
-0.164471
-0.196349
-0.228299
-0.260337
-0.292444
-0.324637
-0.356906
-0.38926
-0.421688
-0.454202
-0.486786
-0.519462
-0.552205
-0.585034
-0.617937
-0.650919
-0.683977
-0.717103
-0.750302
-0.783574
-0.81691
-0.850312
-0.883771
-0.917297
-0.950876
-0.984509
-1.0182
-1.05193
-1.08571
-1.11953
-1.1534
-1.18731
-1.22126
-1.25524
-1.28925
-1.32331
-1.35738
-1.39149
-1.42563
-1.45979
-1.49398
-1.52819
-1.56242
-1.59668
-1.63095
-1.66523
-1.69953
-1.73384
-1.76815
-1.80247
-1.83678
-1.87109
-1.90538
-1.93965
-1.97389
-2.00809
-2.04225
-2.07636
-2.1104
-2.14438
-2.17829
-2.21213
-2.24589
-2.27956
-2.31317
-2.34669
-2.38014
-2.41354
-2.44687
-2.48015
-2.51343
-2.54672
-2.58009
-2.61357
-2.64724
-2.68119
-2.71543
-2.74994
-2.78458
-2.81902
-2.85286
-2.8855
-2.91681
-2.94651
-2.97482
-3.00164
-3.02754
2.72664
2.71574
2.70401
2.69146
2.67792
2.66319
2.64736
2.63049
2.61282
2.59459
2.57601
2.55719
2.53822
2.5191
2.49982
2.48038
2.46075
2.44093
2.42089
2.40065
2.38019
2.3595
2.3386
2.31748
2.29613
2.27457
2.2528
2.23081
2.20862
2.18622
2.16362
2.14084
2.11786
2.09471
2.07137
2.04787
2.02421
2.00038
1.9764
1.95226
1.92797
1.90354
1.87897
1.85425
1.82939
1.80439
1.77925
1.75398
1.72857
1.70303
1.67735
1.65154
1.62559
1.5995
1.57328
1.54693
1.52045
1.49383
1.46709
1.44021
1.41321
1.38607
1.35882
1.33144
1.30393
1.2763
1.24856
1.22069
1.19272
1.16462
1.13642
1.1081
1.07967
1.05114
1.0225
0.993753
0.964899
0.935944
0.90689
0.87773
0.84847
0.819116
0.789653
0.7601
0.730445
0.700694
0.670847
0.640901
0.610865
0.580725
0.550499
0.520174
0.489756
0.459244
0.428641
0.397942
0.367153
0.336272
0.3053
0.274233
0.24309
0.211853
0.180537
0.149137
0.117653
0.0860846
0.0544368
0.0227058
-0.00910504
-0.0409979
-0.0729648
-0.105021
-0.137146
-0.169357
-0.201644
-0.23401
-0.266456
-0.298976
-0.331586
-0.364261
-0.397023
-0.429863
-0.462777
-0.495773
-0.528848
-0.561995
-0.595219
-0.628519
-0.661895
-0.695335
-0.728849
-0.76243
-0.796075
-0.829783
-0.86355
-0.89738
-0.931258
-0.965188
-0.999169
-1.0332
-1.06727
-1.10138
-1.13553
-1.16971
-1.20394
-1.23819
-1.27247
-1.30677
-1.34111
-1.37547
-1.40984
-1.44425
-1.47866
-1.5131
-1.54754
-1.58201
-1.61648
-1.65097
-1.68545
-1.71994
-1.75444
-1.78893
-1.8234
-1.85787
-1.8923
-1.92671
-1.96109
-1.99543
-2.02972
-2.06395
-2.09811
-2.13221
-2.16623
-2.20016
-2.23402
-2.26777
-2.30145
-2.33504
-2.36854
-2.40197
-2.43533
-2.46863
-2.5019
-2.53515
-2.56844
-2.60181
-2.63534
-2.66906
-2.70304
-2.73731
-2.77172
-2.80609
-2.84004
-2.87316
-2.90493
-2.93523
-2.96402
-2.99145
-3.0175
-3.04261
2.73293
2.7225
2.7113
2.69932
2.68643
2.6724
2.65728
2.64105
2.62392
2.6061
2.58783
2.56925
2.55047
2.53152
2.51241
2.49314
2.47367
2.45401
2.43414
2.41406
2.39375
2.37322
2.35247
2.33148
2.31028
2.28885
2.26719
2.24531
2.22322
2.20091
2.1784
2.15569
2.13278
2.10968
2.08639
2.06292
2.03928
2.01546
1.99148
1.96734
1.94303
1.91858
1.89397
1.86921
1.84429
1.81924
1.79403
1.76868
1.74319
1.71756
1.69177
1.66585
1.63978
1.61357
1.58723
1.56073
1.5341
1.50733
1.48041
1.45337
1.42618
1.39886
1.3714
1.34382
1.3161
1.28826
1.26029
1.23219
1.20397
1.17563
1.14717
1.11859
1.0899
1.06109
1.03217
1.00313
0.973989
0.944732
0.915369
0.885899
0.856321
0.826639
0.796849
0.766956
0.736963
0.706864
0.676665
0.646366
0.615964
0.585464
0.554865
0.524165
0.493368
0.462472
0.431484
0.400392
0.369212
0.337932
0.306559
0.275091
0.243542
0.211899
0.180172
0.148357
0.116464
0.0844772
0.0524154
0.0202654
-0.0119645
-0.044277
-0.0766681
-0.109139
-0.141692
-0.174321
-0.20703
-0.239821
-0.272686
-0.305633
-0.338658
-0.371759
-0.404939
-0.438194
-0.471526
-0.504938
-0.53842
-0.571976
-0.605608
-0.639312
-0.673082
-0.706922
-0.740824
-0.774796
-0.808823
-0.842911
-0.877052
-0.911248
-0.945488
-0.979779
-1.01411
-1.04848
-1.0829
-1.11734
-1.15182
-1.18632
-1.22086
-1.25542
-1.28999
-1.3246
-1.35922
-1.39385
-1.42851
-1.46317
-1.49784
-1.53252
-1.5672
-1.6019