/*--------------------------------*- C++ -*----------------------------------*\
  =========                 |
  \\      /  F ield         | OpenFOAM: The Open Source CFD Toolbox
   \\    /   O peration     | Website:  https://openfoam.org
    \\  /    A nd           | Version:  8
     \\/     M anipulation  |
\*---------------------------------------------------------------------------*/
FoamFile
{
    version     2.0;
    format      ascii;
    class       surfaceScalarField;
    location    "0.07";
    object      phi;
}
// * * * * * * * * * * * * * * * * * * * * * * * * * * * * * * * * * * * * * //

dimensions      [0 3 -1 0 0 0 0];

internalField   nonuniform List<scalar> 
225079
(
-0.00363636
0.0264404
-0.00844846
0.0708166
-0.0120514
0.115207
-0.0168485
0.159601
-0.0216404
0.203995
-0.0252345
0.248396
-0.0288297
0.291597
-0.032426
0.335998
-0.0360227
0.379198
-0.0396197
0.424798
-0.042017
0.466798
-0.0456144
0.511198
-0.0492118
0.555598
-0.0528093
0.597598
-0.054007
0.640798
-0.0576046
0.685198
-0.0612024
0.727198
-0.0636002
0.770398
-0.0659981
0.812398
-0.0671962
0.854398
-0.0707943
0.897598
-0.0719926
0.938399
-0.0743909
0.980399
-0.0755893
1.0224
-0.0779878
1.0632
-0.0791864
1.104
-0.0815849
1.146
-0.0827835
1.1844
-0.0839822
1.2252
-0.0863807
1.266
-0.0875793
1.3044
-0.0887779
1.344
-0.0899765
1.3824
-0.089975
1.4208
-0.0911736
1.4592
-0.0911721
1.4964
-0.0923706
1.5348
-0.093569
1.572
-0.0935675
1.608
-0.0947659
1.644
-0.0947645
1.68
-0.094763
1.716
-0.0947616
1.7496
-0.0947602
1.7856
-0.0947589
1.8192
-0.0947575
1.8528
-0.0947561
1.8864
-0.0935549
1.9188
-0.0935537
1.9512
-0.0935525
1.9836
-0.0923514
2.0136
-0.0923502
2.046
-0.0911491
2.0748
-0.090548
2.10564
-0.0897069
2.13468
-0.0887458
2.16336
-0.0877847
2.19168
-0.0868237
2.2194
-0.0856226
2.24652
-0.0844215
2.27304
-0.0832205
2.2992
-0.0818995
2.32464
-0.0804585
2.34948
-0.0790175
2.37384
-0.0775765
2.3976
-0.0760156
2.42076
-0.0743346
2.4432
-0.0727737
2.46528
-0.0710929
2.48664
-0.0692921
2.50728
-0.0674913
2.52744
-0.0655705
2.54688
-0.0636498
2.56572
-0.061609
2.58396
-0.0595683
2.6016
-0.0576476
2.61864
-0.0554869
2.63484
-0.0533263
2.65044
-0.0511656
2.66556
-0.048885
2.67984
-0.0467244
2.69364
-0.0445638
2.7066
-0.0421632
2.71884
-0.0398827
2.73072
-0.0374822
2.74164
-0.0350817
2.75196
-0.0326811
2.76168
-0.0302807
2.77068
-0.0278802
2.77896
-0.0253598
2.78652
-0.0228393
2.79348
-0.0203189
2.79972
-0.0177986
2.80536
-0.0151582
2.81004
-0.0127579
2.81436
-0.0101776
2.8178
-0.00762134
2.82058
-0.00505302
2.82266
-0.00248487
2.82404
8.34199e-05
2.82475
0.00265153
2.82475
0.00521979
2.82404
0.00778788
2.82266
0.010344
2.82058
0.0129241
2.8178
0.0153242
2.81436
0.0179642
2.81004
0.0204842
2.80536
0.0230042
2.79972
0.0255241
2.79348
0.028044
2.78652
0.0304439
2.77896
0.0328438
2.77068
0.0352436
2.76168
0.0376433
2.75196
0.0400431
2.74164
0.0423229
2.73072
0.0447226
2.71884
0.0468822
2.7066
0.0490419
2.69364
0.0513217
2.67984
0.0534814
2.66556
0.0556411
2.65044
0.0578007
2.63484
0.0597205
2.61864
0.0617601
2.6016
0.0637997
2.58396
0.0657194
2.56572
0.0676391
2.54688
0.0694387
2.52744
0.0712384
2.50728
0.0729179
2.48664
0.0744774
2.46528
0.0761569
2.4432
0.0777164
2.42076
0.0791558
2.3976
0.0805952
2.37384
0.0820346
2.34948
0.0833539
2.32464
0.0845533
2.2992
0.0857526
2.27304
0.0869518
2.24652
0.087911
2.2194
0.0888701
2.19168
0.0898292
2.16336
0.0906683
2.13468
0.0912672
2.10564
0.0924662
2.0748
0.092465
2.046
0.0936639
2.0136
0.0936627
1.9836
0.0936615
1.9512
0.0948603
1.9188
0.0948589
1.8864
0.0948575
1.8528
0.094856
1.8192
0.0948546
1.7856
0.0948531
1.7496
0.0948515
1.716
0.09485
1.68
0.0936484
1.644
0.0936468
1.608
0.0924451
1.572
0.0912434
1.5348
0.0912419
1.4964
0.0900402
1.4592
0.0900387
1.4208
0.0888371
1.3824
0.0876353
1.344
0.0864337
1.3044
0.0840319
1.266
0.0828302
1.2252
0.0816284
1.1844
0.0792264
1.146
0.0780244
1.104
0.0756222
1.0632
0.0744199
1.0224
0.0720173
0.980403
0.0708147
0.938403
0.0672116
0.897603
0.0660085
0.854403
0.063605
0.812404
0.0612013
0.770404
0.0575973
0.727204
0.053993
0.685204
0.0527888
0.640804
0.0491841
0.597605
0.0455791
0.555605
0.0419738
0.511205
0.0395684
0.466805
0.0359621
0.424806
0.0323548
0.379207
0.0287459
0.336008
0.0251344
0.291611
0.0215202
0.248414
0.0167017
0.204018
0.0118921
0.159609
0.00830051
0.11519
0.00353128
0.0707686
0.0263295
-0.00484531
0.0312888
-0.00967338
0.0756484
-0.0132612
0.118799
-0.018056
0.164398
-0.0216446
0.207585
-0.0240362
0.25079
-0.0288278
0.29639
-0.0324209
0.339592
-0.0360146
0.382793
-0.0396087
0.428393
-0.0432031
0.470394
-0.0467977
0.514794
-0.0479928
0.556794
-0.0515876
0.601194
-0.0551825
0.644394
-0.0575775
0.687594
-0.0599726
0.729594
-0.0623677
0.772794
-0.0647629
0.814794
-0.0683581
0.857994
-0.0695536
0.898794
-0.073149
0.941994
-0.0743447
0.981594
-0.0767404
1.02479
-0.0779363
1.06439
-0.0803321
1.10639
-0.0815281
1.14719
-0.083924
1.18679
-0.0851201
1.22639
-0.0851163
1.26599
-0.0863124
1.30559
-0.0875084
1.34519
-0.0887044
1.38359
-0.0899004
1.422
-0.0910964
1.46039
-0.0922924
1.4976
-0.0922885
1.5348
-0.0922845
1.57199
-0.0934805
1.6092
-0.0934765
1.644
-0.0946725
1.6812
-0.0934687
1.7148
-0.0946647
1.7508
-0.0946609
1.7856
-0.0946571
1.8192
-0.0946534
1.8528
-0.0946497
1.8864
-0.0934462
1.9176
-0.0934426
1.9512
-0.0922392
1.9824
-0.0934355
2.0148
-0.0910324
2.0436
-0.0910289
2.0748
-0.0904256
2.10504
-0.0895823
2.13384
-0.088739
2.16252
-0.0876558
2.1906
-0.0865727
2.21832
-0.0854895
2.24544
-0.0844065
2.27196
-0.0830834
2.29788
-0.0817604
2.32332
-0.0803174
2.34804
-0.0789945
2.37252
-0.0774318
2.39604
-0.0758689
2.4192
-0.0743062
2.44164
-0.0726236
2.4636
-0.070821
2.48484
-0.0690185
2.50548
-0.0672162
2.52564
-0.0652936
2.54496
-0.0634914
2.56392
-0.0615692
2.58204
-0.059527
2.59956
-0.0573648
2.61648
-0.0553227
2.6328
-0.0532807
2.6484
-0.0509987
2.66328
-0.0488369
2.67768
-0.046555
2.69136
-0.0442733
2.70432
-0.0419915
2.71656
-0.0395899
2.72832
-0.0373082
2.73936
-0.0349067
2.74956
-0.0325053
2.75928
-0.0299837
2.76816
-0.0275825
2.77656
-0.025181
2.78412
-0.0226599
2.79096
-0.0201387
2.7972
-0.0176177
2.80284
-0.0150966
2.80752
-0.0125755
2.81184
-0.00998243
2.81521
-0.00742563
2.81802
-0.00485685
2.8201
-0.00230021
2.82149
0.000268492
2.82218
0.00283705
2.82218
0.00539366
2.82149
0.00796213
2.8201
0.0105186
2.81802
0.0131108
2.81521
0.0156309
2.81184
0.0181511
2.80752
0.0206713
2.80284
0.0231913
2.7972
0.0257113
2.79096
0.028111
2.78412
0.0305109
2.77656
0.0330305
2.76816
0.0354301
2.75928
0.0378297
2.74956
0.0401091
2.73936
0.0425086
2.72832
0.0447878
2.71656
0.0470672
2.70432
0.0493464
2.69136
0.0515056
2.67768
0.0537847
2.66328
0.0558238
2.6484
0.0578628
2.6328
0.0600217
2.61648
0.0620607
2.59956
0.0639796
2.58204
0.0657785
2.56392
0.067697
2.54496
0.0694957
2.52564
0.0712943
2.50548
0.0730927
2.48484
0.0747712
2.4636
0.0763295
2.44164
0.0778876
2.4192
0.0794458
2.39604
0.0807639
2.37252
0.0822017
2.34804
0.0835196
2.32332
0.0848373
2.29788
0.0859149
2.27196
0.0869924
2.24544
0.0880699
2.21832
0.0891472
2.1906
0.0899844
2.16252
0.0908215
2.13384
0.0914184
2.10504
0.0914152
2.0748
0.0938124
2.0436
0.0926088
2.01481
0.0938055
1.9824
0.0938019
1.95121
0.0949985
1.91761
0.0949948
1.88641
0.0949911
1.85281
0.0949872
1.81921
0.0949833
1.78561
0.0937791
1.75081
0.0949752
1.71481
0.0937708
1.68121
0.0937666
1.64401
0.0925623
1.60921
0.092558
1.57201
0.0925537
1.53481
0.0913492
1.49761
0.0901447
1.46041
0.0889402
1.42201
0.0877355
1.38361
0.0865308
1.34521
0.0853261
1.30561
0.0853214
1.26601
0.0841164
1.22641
0.0817111
1.18681
0.0805059
1.14721
0.0781002
1.10641
0.0768946
1.06441
0.0744886
1.02481
0.0732825
0.981609
0.0696757
0.94201
0.068469
0.89881
0.0648616
0.858011
0.0624543
0.814811
0.0600465
0.772812
0.0576386
0.729612
0.0552303
0.687613
0.0516216
0.644413
0.0480127
0.601214
0.0468039
0.556814
0.0431942
0.514815
0.0395841
0.470415
0.0359731
0.428417
0.0323608
0.382819
0.0287468
0.339622
0.0239294
0.296428
0.0215119
0.250831
0.0178895
0.20764
0.0130774
0.164421
0.00946237
0.118806
0.00471579
0.0755154
0.0310482
-0.00481182
0.0361059
-0.00846709
0.0793087
-0.0132624
0.123599
-0.01686
0.167999
-0.0204472
0.211175
-0.0252356
0.255581
-0.0288242
0.299981
-0.0324143
0.343184
-0.036005
0.386385
-0.0383967
0.430786
-0.0431882
0.475187
-0.0455805
0.517187
-0.0491727
0.560387
-0.0527649
0.604787
-0.0551574
0.646787
-0.0575499
0.689987
-0.0611421
0.733187
-0.0635347
0.775187
-0.0659272
0.817187
-0.06712
0.859187
-0.0707125
0.902387
-0.0719055
0.943187
-0.0754981
0.985187
-0.0766913
1.02599
-0.0790843
1.06679
-0.0802777
1.10759
-0.081471
1.14839
-0.0826646
1.18799
-0.0838581
1.22759
-0.0862515
1.26839
-0.0874449
1.30679
-0.0886384
1.34639
-0.0898319
1.38479
-0.0910255
1.42319
-0.0910191
1.46039
-0.0922125
1.49879
-0.0922062
1.53479
-0.0933996
1.57319
-0.0933931
1.60919
-0.0945867
1.64519
-0.0933804
1.67999
-0.094574
1.71599
-0.0945676
1.75079
-0.0945611
1.78559
-0.0945551
1.81919
-0.0945488
1.85279
-0.0933429
1.88519
-0.0945365
1.91879
-0.0933307
1.94999
-0.0933248
1.98239
-0.0921191
2.01359
-0.0921131
2.04359
-0.0921075
2.07479
-0.0903021
2.10323
-0.0894563
2.13299
-0.088491
2.16155
-0.0875257
2.18963
-0.08656
2.21735
-0.0853549
2.24423
-0.0841495
2.27075
-0.0828245
2.29655
-0.0814995
2.32199
-0.0802945
2.34683
-0.0787295
2.37095
-0.0772848
2.39459
-0.0757201
2.41763
-0.0740357
2.43995
-0.072351
2.46191
-0.0706668
2.48315
-0.0689825
2.50379
-0.0670583
2.52371
-0.0652544
2.54315
-0.0632104
2.56187
-0.0612866
2.58011
-0.0593629
2.59763
-0.0573191
2.61443
-0.0551556
2.63063
-0.0529924
2.64624
-0.0508288
2.66111
-0.0486658
2.67552
-0.0463826
2.68908
-0.0440995
2.70204
-0.0418164
2.71428
-0.0395337
2.72604
-0.0371311
2.73696
-0.0347283
2.74716
-0.0323258
2.75688
-0.0299234
2.76576
-0.0274008
2.77404
-0.0248788
2.7816
-0.0224767
2.78856
-0.0199546
2.79468
-0.0174326
2.80032
-0.0149107
2.805
-0.0123891
2.80932
-0.00980762
2.81263
-0.00725027
2.81546
-0.00468099
2.81753
-0.00211156
2.81892
0.00045759
2.81961
0.00302657
2.81962
0.00559527
2.81892
0.00816411
2.81753
0.0107209
2.81546
0.0133015
2.81263
0.015822
2.80932
0.0183422
2.805
0.0208623
2.80032
0.0233823
2.79468
0.0257822
2.78856
0.0283022
2.7816
0.0308216
2.77404
0.0332212
2.76576
0.0356206
2.75688
0.0380197
2.74716
0.040419
2.73696
0.0426982
2.72604
0.0449769
2.71428
0.0472557
2.70204
0.0495343
2.68908
0.0516932
2.67552
0.0538514
2.66112
0.0560101
2.64624
0.0581684
2.63064
0.0602064
2.61444
0.0621246
2.59764
0.0640426
2.58013
0.0660804
2.56189
0.0678782
2.54317
0.0697957
2.52373
0.0714731
2.50381
0.0731506
2.48317
0.0748274
2.46193
0.0765047
2.43997
0.0780615
2.41765
0.0794982
2.39461
0.0810546
2.37097
0.082251
2.34685
0.0835673
2.32201
0.0848835
2.29657
0.0860793
2.27077
0.0872752
2.24425
0.0882304
2.21737
0.089186
2.18965
0.0901414
2.16157
0.0909763
2.13301
0.0927714
2.10325
0.0927663
2.07481
0.0927606
2.04361
0.0939552
2.01361
0.0939495
1.98241
0.0951439
1.95001
0.0939376
1.91881
0.0951317
1.88521
0.0951254
1.85281
0.0951193
1.81921
0.0951125
1.78561
0.0951058
1.75081
0.093899
1.71601
0.0950925
1.68001
0.0938855
1.64521
0.0938785
1.60921
0.0926712
1.57321
0.0926642
1.53481
0.0914567
1.49881
0.0914494
1.46041
0.090242
1.42321
0.0890344
1.38482
0.0878266
1.34642
0.0866186
1.30682
0.0842102
1.26842
0.083002
1.22762
0.0817936
1.18802
0.0805848
1.14842
0.0793759
1.10762
0.0769662
1.06682
0.0757566
1.02602
0.072146
0.98522
0.0709357
0.94322
0.0673244
0.902422
0.0661135
0.859222
0.0637018
0.817223
0.0612899
0.775224
0.0576773
0.733225
0.0552649
0.690025
0.0528522
0.646826
0.0492388
0.604827
0.0456253
0.560427
0.0432115
0.517228
0.0383963
0.47523
0.0359808
0.430832
0.0323632
0.386436
0.0287439
0.343241
0.0251212
0.30005
0.0202985
0.255653
0.0166744
0.211263
0.0130677
0.168026
0.00826791
0.123604
0.00476756
0.0790148
0.0358123
-0.00359074
0.0396997
-0.00843084
0.0841526
-0.0132388
0.12841
-0.0168415
0.171605
-0.0216313
0.215967
-0.0252205
0.259171
-0.0288082
0.30357
-0.0323967
0.346774
-0.0359857
0.389975
-0.0395752
0.434377
-0.0419653
0.477578
-0.0455553
0.520778
-0.0491454
0.563978
-0.0515358
0.607178
-0.0551259
0.650378
-0.0575162
0.692378
-0.0599065
0.735577
-0.0622967
0.777577
-0.0658866
0.820777
-0.0682768
0.861578
-0.0694674
0.903578
-0.0718577
0.945578
-0.074248
0.987578
-0.0754387
1.02718
-0.0778292
1.06918
-0.0790202
1.10878
-0.0814108
1.15078
-0.0826018
1.18918
-0.0849926
1.22998
-0.0861836
1.26958
-0.0873747
1.30798
-0.0873659
1.34638
-0.0885571
1.38598
-0.089748
1.42438
-0.090939
1.46158
-0.0909302
1.49878
-0.0933208
1.53718
-0.093312
1.57318
-0.0933032
1.60918
-0.0932943
1.64518
-0.0944852
1.68118
-0.0944766
1.71598
-0.094468
1.75078
-0.0944591
1.78558
-0.0944503
1.81918
-0.0944418
1.85278
-0.0944332
1.88518
-0.093225
1.91758
-0.0932167
1.94998
-0.0932081
1.98238
-0.0920004
2.01238
-0.0919922
2.04358
-0.0907841
2.07358
-0.0901762
2.10262
-0.0893286
2.13214
-0.0883608
2.16058
-0.0875131
2.18878
-0.0863057
2.21614
-0.0852181
2.24315
-0.0840109
2.26955
-0.0828035
2.29535
-0.0814762
2.32067
-0.0800292
2.34539
-0.0785827
2.36951
-0.0771357
2.39315
-0.0754491
2.41595
-0.0740026
2.43851
-0.0723166
2.46023
-0.07051
2.48135
-0.0687039
2.50199
-0.0668982
2.52191
-0.0650926
2.54135
-0.0631668
2.55995
-0.0611216
2.57807
-0.059076
2.59559
-0.0570312
2.61239
-0.0549858
2.62859
-0.052821
2.64407
-0.0507765
2.65907
-0.0484915
2.67323
-0.0462069
2.68679
-0.0439228
2.69975
-0.0417588
2.71211
-0.0393546
2.72363
-0.0369505
2.73455
-0.0345468
2.74475
-0.0321433
2.75447
-0.0297398
2.76335
-0.0272165
2.77151
-0.0248133
2.77919
-0.0222903
2.78603
-0.0197673
2.79215
-0.0172444
2.7978
-0.0147221
2.80248
-0.0120795
2.80668
-0.0096174
2.81017
-0.00704708
2.81289
-0.00448926
2.81497
-0.00191954
2.81635
0.000650073
2.81705
0.00321949
2.81705
0.00578882
2.81635
0.00834603
2.81497
0.0109147
2.8129
0.0133757
2.81017
0.0160161
2.80668
0.0185367
2.80248
0.0210568
2.7978
0.0235768
2.79216
0.0260967
2.78604
0.0284963
2.7792
0.0310159
2.77152
0.0334153
2.76336
0.0358145
2.75448
0.0382136
2.74476
0.0406122
2.73456
0.0430107
2.72364
0.0451694
2.71212
0.047448
2.69976
0.049726
2.68681
0.0520037
2.67325
0.0540418
2.65909
0.0561996
2.64409
0.0582368
2.62861
0.0602746
2.61241
0.0623116
2.59561
0.0643488
2.57809
0.0662655
2.55997
0.0680624
2.54137
0.0698591
2.52193
0.0716553
2.50201
0.0734509
2.48137
0.0751271
2.46025
0.0765627
2.43853
0.0782382
2.41597
0.0796731
2.39317
0.0811086
2.36953
0.0825435
2.34541
0.0838579
2.32069
0.085052
2.29537
0.0862464
2.26957
0.0873202
2.24317
0.0885141
2.21618
0.0893476
2.18882
0.0903009
2.16062
0.0911342
2.13218
0.0917271
2.10266
0.0929196
2.07362
0.0929119
2.04362
0.0941047
2.01242
0.0940965
1.98242
0.0940884
1.95002
0.0952804
1.91762
0.0952717
1.88522
0.0952632
1.85282
0.0952542
1.81922
0.0952451
1.78562
0.0952361
1.75082
0.095227
1.71602
0.0940172
1.68122
0.0940077
1.64522
0.0939981
1.60922
0.0939884
1.57322
0.0915778
1.53722
0.091568
1.49882
0.0903576
1.46163
0.0891469
1.42443
0.0879365
1.38603
0.087926
1.34643
0.0867151
1.30803
0.0855039
1.26963
0.0830921
1.23003
0.0818804
1.18923
0.079468
1.15083
0.0782558
1.10883
0.0758428
1.06923
0.0746297
1.02723
0.0722157
0.987634
0.0698015
0.945635
0.0685875
0.903636
0.0661726
0.861637
0.062557
0.820839
0.0601415
0.77764
0.0577259
0.735641
0.0553099
0.692441
0.0516933
0.650443
0.0492769
0.607244
0.0456597
0.564044
0.0420422
0.520846
0.0396242
0.477648
0.0360049
0.434451
0.0323839
0.390057
0.0287617
0.346863
0.0251374
0.303675
0.0215161
0.259274
0.0166975
0.216082
0.0131
0.171624
0.00832153
0.128382
0.00359761
0.0837385
0.0394137
-0.00479007
0.0444956
-0.00960297
0.088971
-0.0132178
0.13203
-0.0168234
0.175214
-0.0204177
0.219564
-0.0252074
0.263964
-0.0287947
0.30716
-0.0323818
0.350363
-0.0359689
0.393564
-0.0395563
0.437966
-0.043144
0.481167
-0.0467319
0.524367
-0.0491202
0.566367
-0.0527081
0.610767
-0.0550963
0.652767
-0.0586841
0.695966
-0.0610721
0.737966
-0.0634601
0.779966
-0.0646484
0.821966
-0.0682358
0.865166
-0.0706236
0.905966
-0.0730114
0.947966
-0.0741995
0.988766
-0.0765875
1.02957
-0.0777758
1.07037
-0.0801639
1.11117
-0.0813521
1.15197
-0.0825406
1.19037
-0.083729
1.23117
-0.0849173
1.27077
-0.0861057
1.30917
-0.088494
1.34877
-0.0896822
1.38717
-0.089671
1.42437
-0.0908593
1.46277
-0.0920477
1.49997
-0.0920363
1.53717
-0.0920252
1.57317
-0.0932135
1.61037
-0.0932022
1.64517
-0.0931908
1.68117
-0.0943791
1.71717
-0.0943678
1.75077
-0.0943566
1.78557
-0.0943454
1.81917
-0.0931348
1.85157
-0.0931238
1.88517
-0.0943127
1.91877
-0.093102
1.94877
-0.0918915
1.98117
-0.0918806
2.01237
-0.0906704
2.04237
-0.0906601
2.07357
-0.0900498
2.10201
-0.0891997
2.13129
-0.0883496
2.15973
-0.0872596
2.18769
-0.08617
2.21506
-0.0850801
2.24206
-0.0838708
2.26834
-0.0826611
2.29414
-0.0813319
2.31934
-0.0798829
2.34394
-0.0785537
2.36818
-0.0769849
2.39158
-0.0754163
2.41438
-0.0737279
2.43682
-0.0720396
2.45854
-0.0703519
2.47966
-0.0686638
2.5003
-0.066856
2.5201
-0.0648088
2.5393
-0.0630016
2.55814
-0.0610737
2.57614
-0.0590273
2.59354
-0.0569802
2.61034
-0.0548141
2.62642
-0.0526472
2.6419
-0.0504809
2.65691
-0.0483148
2.67107
-0.0460292
2.68451
-0.0437434
2.69747
-0.0414577
2.70983
-0.0390521
2.72123
-0.0367672
2.73227
-0.0343624
2.74235
-0.0319572
2.75207
-0.0294328
2.76083
-0.0271484
2.76923
-0.0245042
2.77655
-0.0221002
2.78363
-0.0195768
2.78963
-0.017053
2.79527
-0.01453
2.79995
-0.0120065
2.80415
-0.0094118
2.80757
-0.00686522
2.81035
-0.00429432
2.8124
-0.00172409
2.81378
0.000846017
2.81448
0.00341589
2.81448
0.00598563
2.81378
0.0085547
2.8124
0.0111001
2.81035
0.0136933
2.80758
0.0162138
2.80416
0.0187347
2.79996
0.0212548
2.79528
0.0237753
2.78964
0.0261751
2.78364
0.0288147
2.77656
0.0310941
2.76924
0.0336133
2.76084
0.0360118
2.75208
0.0384107
2.74236
0.0406893
2.73229
0.0430873
2.72125
0.0453651
2.70985
0.0476428
2.69749
0.0499207
2.68453
0.052078
2.67109
0.0542352
2.65693
0.0563917
2.64193
0.058549
2.62645
0.0605852
2.61037
0.0626221
2.59357
0.0645374
2.57617
0.0663334
2.55817
0.0683693
2.53933
0.0701645
2.52014
0.0718394
2.50034
0.0735145
2.4797
0.075189
2.45858
0.0768633
2.43686
0.0784173
2.41442
0.079971
2.39162
0.0812841
2.36822
0.0827175
2.34398
0.0840305
2.31938
0.0852229
2.29418
0.0864155
2.26838
0.0874874
2.2421
0.0885595
2.2151
0.089631
2.18774
0.0904622
2.15978
0.0912933
2.13135
0.091884
2.10207
0.0918747
2.07363
0.0930652
2.04243
0.0930547
2.01243
0.0942448
1.98123
0.0954344
1.94883
0.0942233
1.91883
0.0942124
1.88523
0.0954019
1.85163
0.0953903
1.81923
0.0953789
1.78563
0.095367
1.75083
0.0941545
1.71724
0.0941424
1.68124
0.0941301
1.64524
0.0929172
1.61044
0.092905
1.57324
0.0928924
1.53724
0.0916791
1.50004
0.0904657
1.46284
0.0904527
1.42444
0.0892387
1.38724
0.0868245
1.34884
0.0856104
1.30924
0.0843958
1.27084
0.0831809
1.23124
0.081966
1.19044
0.0807505
1.15205
0.0783344
1.11125
0.0771185
1.07045
0.0747016
1.02965
0.0734847
0.988851
0.0710671
0.948053
0.0686491
0.906054
0.0650301
0.865256
0.063812
0.822057
0.0613933
0.780058
0.0589743
0.73806
0.0553545
0.696061
0.052935
0.652862
0.0493146
0.610864
0.0468946
0.566464
0.0432734
0.524467
0.0396514
0.48127
0.0360285
0.438074
0.032404
0.393681
0.0287791
0.350487
0.025154
0.307299
0.0203335
0.264094
0.0167227
0.219691
0.0131305
0.175214
0.00956134
0.131949
0.00479771
0.0885011
0.0442068
-0.00479594
0.0492946
-0.00838996
0.092569
-0.0132047
0.136848
-0.0180104
0.180022
-0.0216077
0.223164
-0.0251988
0.267557
-0.0287858
0.310748
-0.0323714
0.35395
-0.0371559
0.39835
-0.0395416
0.440353
-0.0431271
0.484753
-0.0455131
0.526754
-0.0490987
0.569954
-0.0514848
0.613153
-0.0550703
0.656353
-0.0574561
0.698353
-0.0598418
0.740352
-0.0634269
0.783552
-0.0658124
0.824352
-0.0669983
0.866352
-0.0693836
0.908352
-0.0717688
0.950351
-0.0741541
0.991152
-0.0765392
1.03195
-0.0777248
1.07155
-0.08011
1.11355
-0.0812955
1.15315
-0.0836808
1.19275
-0.0848665
1.23235
-0.0860523
1.27195
-0.087238
1.31035
-0.0884234
1.34995
-0.0884096
1.38715
-0.0895952
1.42556
-0.0907808
1.46395
-0.0919664
1.50115
-0.0919524
1.53716
-0.093138
1.57436
-0.093124
1.61036
-0.0943095
1.64636
-0.0942958
1.68116
-0.0942818
1.71716
-0.0942682
1.75076
-0.0942542
1.78556
-0.0942407
1.81916
-0.0942269
1.85156
-0.0942135
1.88516
-0.0930001
1.91756
-0.0929869
1.94876
-0.0929736
1.98116
-0.0917609
2.01116
-0.0917478
2.04236
-0.0905348
2.07236
-0.0899225
2.1014
-0.0890699
2.13044
-0.0880974
2.15876
-0.0871255
2.18672
-0.0861527
2.21408
-0.084941
2.24084
-0.0837289
2.26713
-0.0825179
2.29293
-0.0811861
2.31801
-0.0798549
2.34261
-0.0782834
2.36661
-0.0767131
2.39001
-0.0752624
2.41293
-0.0736914
2.43525
-0.0720011
2.45685
-0.070311
2.47797
-0.0683815
2.49837
-0.0665723
2.51829
-0.0647622
2.53749
-0.0628333
2.55621
-0.0607845
2.57409
-0.0587355
2.5915
-0.0566871
2.6083
-0.0546389
2.62438
-0.0525909
2.63986
-0.0503031
2.65462
-0.048016
2.66878
-0.0458479
2.68234
-0.0436806
2.6953
-0.041274
2.70742
-0.0389876
2.71894
-0.0364615
2.72974
-0.034175
2.74006
-0.0317691
2.74966
-0.0293635
2.75842
-0.026838
2.7667
-0.0244328
2.77415
-0.0217878
2.78099
-0.019383
2.78723
-0.0168589
2.79275
-0.0143339
2.79743
-0.0118108
2.80163
-0.0092262
2.80499
-0.00665501
2.80778
-0.00409597
2.80984
-0.0015252
2.81121
0.00104542
2.81191
0.00361575
2.81191
0.00618593
2.81121
0.00874383
2.80984
0.0113136
2.80778
0.0138938
2.805
0.0164157
2.80164
0.0189355
2.79744
0.0214563
2.79276
0.0238563
2.78724
0.026496
2.781
0.0288955
2.77416
0.0314148
2.76672
0.0338138
2.75844
0.0362125
2.74969
0.0384905
2.74009
0.0410089
2.72977
0.0432869
2.71897
0.0456848
2.70745
0.0478418
2.69533
0.049998
2.68237
0.0522753
2.66881
0.0545517
2.65465
0.0565879
2.63989
0.0586239
2.62442
0.0606596
2.60834
0.0626945
2.59154
0.0647298
2.57414
0.0666448
2.55626
0.0684384
2.53754
0.0702328
2.51834
0.072147
2.49842
0.0738204
2.47802
0.0754934
2.4569
0.0770456
2.43531
0.0784781
2.41299
0.0800309
2.39007
0.0815822
2.36667
0.0828939
2.34267
0.0842047
2.31807
0.0853963
2.29299
0.0865865
2.26719
0.087777
2.24091
0.0887262
2.21415
0.0896761
2.18679
0.0906252
2.15884
0.0914541
2.13052
0.0920431
2.10148
0.0932311
2.07244
0.0932189
2.04244
0.0944069
2.01124
0.0943942
1.98124
0.0943813
1.94884
0.0955682
1.91764
0.0955548
1.88525
0.0955408
1.85165
0.095527
1.81925
0.0955125
1.78565
0.0954983
1.75085
0.0954834
1.71725
0.0954688
1.68125
0.0942531
1.64645
0.0942377
1.61045
0.0930216
1.57445
0.093006
1.53725
0.0917895
1.50126
0.0905729
1.46406
0.0893561
1.42566
0.0893397
1.38726
0.0881221
1.35006
0.0869046
1.31046
0.0856868
1.27206
0.0844687
1.23246
0.0820496
1.19286
0.0808305
1.15327
0.0784108
1.11367
0.0771911
1.07167
0.0747704
1.03207
0.0723496
0.991272
0.0699282
0.950474
0.0675068
0.908476
0.0662858
0.866477
0.0638638
0.824479
0.0602408
0.783681
0.0578184
0.740482
0.0553958
0.698484
0.0517723
0.656485
0.0493493
0.613287
0.0457251
0.570088
0.043301
0.526891
0.0396753
0.484895
0.0372495
0.4405
0.0324208
0.398509
0.0287933
0.354115
0.0251678
0.310924
0.0215497
0.267712
0.0179445
0.223297
0.0131526
0.180006
0.00838087
0.136721
0.00479122
0.09209
0.0490023
-0.00359916
0.0529
-0.00838431
0.0973599
-0.011995
0.140464
-0.0167994
0.184831
-0.0215981
0.227966
-0.0251904
0.271152
-0.0287775
0.314338
-0.0323621
0.357537
-0.0359453
0.401935
-0.0395286
0.443937
-0.0419122
0.487138
-0.0454955
0.530338
-0.0490789
0.573538
-0.0526621
0.616738
-0.0550458
0.658737
-0.0574294
0.700737
-0.0610122
0.743936
-0.062196
0.784736
-0.0657786
0.827935
-0.0681614
0.868735
-0.0705441
0.910735
-0.0717273
0.951535
-0.0741097
0.993535
-0.0752928
1.03314
-0.0788747
1.07514
-0.078858
1.11354
-0.0812403
1.15554
-0.0824231
1.19394
-0.083606
1.23354
-0.0847888
1.27314
-0.0871709
1.31274
-0.0871542
1.34994
-0.0895365
1.38954
-0.0907193
1.42674
-0.0907026
1.46394
-0.0906859
1.50114
-0.0918686
1.53834
-0.0930513
1.57554
-0.0930346
1.61034
-0.0930183
1.64634
-0.0942011
1.68234
-0.0929849
1.71594
-0.0941677
1.75194
-0.0941515
1.78554
-0.0929354
1.81794
-0.0941188
1.85274
-0.0941024
1.88514
-0.0928869
1.91634
-0.0928711
1.94874
-0.0928553
1.98114
-0.0928396
2.01114
-0.0916244
2.04114
-0.0904093
2.07114
-0.0897941
2.10079
-0.0888191
2.12947
-0.0879641
2.15791
-0.0869892
2.18575
-0.085895
2.21299
-0.0848009
2.23975
-0.0835865
2.26591
-0.0823722
2.29171
-0.0810386
2.31667
-0.0795847
2.34116
-0.078132
2.36516
-0.0766784
2.38856
-0.0751056
2.41136
-0.0734136
2.43356
-0.0718411
2.45528
-0.070029
2.47616
-0.068337
2.49668
-0.0664053
2.51636
-0.0645943
2.53568
-0.062543
2.55416
-0.0606125
2.57216
-0.0586822
2.58957
-0.0565121
2.60613
-0.0544616
2.62233
-0.0522919
2.63769
-0.0501225
2.65245
-0.0479532
2.66661
-0.0457848
2.68017
-0.043376
2.69289
-0.0410881
2.70513
-0.0386798
2.71653
-0.0363916
2.72745
-0.0339844
2.73766
-0.0315774
2.74726
-0.0291706
2.75602
-0.0266433
2.76418
-0.0242378
2.77174
-0.0217117
2.77846
-0.0191858
2.7847
-0.0166602
2.79022
-0.0141356
2.7949
-0.0114905
2.79899
-0.00902632
2.80253
-0.00646573
2.80522
-0.0038941
2.80727
-0.00132277
2.80864
0.00124836
2.80933
0.00381918
2.80934
0.0063898
2.80864
0.00896011
2.80727
0.0115174
2.80522
0.0139792
2.80254
0.01662
2.799
0.0191412
2.79492
0.0216614
2.79024
0.0241814
2.78472
0.026701
2.77848
0.0291011
2.77176
0.0316195
2.76421
0.0340183
2.75605
0.0364168
2.74729
0.038815
2.73769
0.0410923
2.72749
0.0434892
2.71657
0.0457667
2.70517
0.0481631
2.69293
0.0503199
2.68022
0.0524758
2.66666
0.0546315
2.6525
0.0567868
2.63774
0.0588212
2.62238
0.0609761
2.60618
0.0628906
2.58962
0.0648048
2.57223
0.066838
2.55423
0.0686315
2.53575
0.0705442
2.51643
0.0722164
2.49675
0.0740083
2.47623
0.0755599
2.45535
0.0772318
2.43363
0.0787827
2.41144
0.0802126
2.38864
0.0816435
2.36524
0.0830728
2.34124
0.0843823
2.31676
0.0855709
2.2918
0.0867592
2.266
0.0878278
2.23984
0.088896
2.21309
0.0898433
2.18585
0.0906702
2.15801
0.0916169
2.12957
0.0922031
2.10089
0.0933893
2.07125
0.0945752
2.04125
0.0945603
2.01126
0.0945451
1.98126
0.0945297
1.94886
0.0957145
1.91646
0.095698
1.88526
0.0944811
1.85286
0.0956647
1.81806
0.0956479
1.78567
0.0944297
1.75207
0.0956126
1.71607
0.094394
1.68247
0.0943762
1.64647
0.0943579
1.61047
0.0931385
1.57567
0.091919
1.53847
0.0919
1.50127
0.0918808
1.46408
0.0906605
1.42688
0.0882393
1.38968
0.0882193
1.35008
0.0857971
1.31288
0.0845757
1.27328
0.083354
1.23368
0.0821316
1.19409
0.0797084
1.15569
0.0796862
1.11369
0.0760615
1.07529
0.0748381
1.03329
0.0724133
0.993697
0.0711894
0.951698
0.0687642
0.910901
0.0663389
0.868903
0.0627128
0.828105
0.0614881
0.784906
0.0578615
0.744109
0.0554358
0.700909
0.0530097
0.658911
0.0493825
0.616914
0.0457549
0.573716
0.0421265
0.530519
0.0396981
0.487323
0.0360684
0.444129
0.0324379
0.402139
0.0288088
0.357743
0.025184
0.314548
0.0215685
0.271326
0.0167659
0.228098
0.0119732
0.184797
0.00839313
0.140298
0.00359238
0.0968895
0.0525893
-0.00479807
0.0577013
-0.00958042
0.102146
-0.0131839
0.144071
-0.0167872
0.188437
-0.0203874
0.231568
-0.023981
0.274747
-0.0287682
0.319127
-0.0323522
0.361122
-0.0359343
0.405518
-0.0395157
0.44752
-0.0430969
0.49072
-0.046678
0.533921
-0.0490597
0.575921
-0.0514413
0.61912
-0.0550221
0.662319
-0.0574034
0.703119
-0.0597845
0.746317
-0.0633648
0.788317
-0.064546
0.829117
-0.0681257
0.872315
-0.0693066
0.911916
-0.0728856
0.955114
-0.0740663
0.994716
-0.0764458
1.03552
-0.0776258
1.07632
-0.0800054
1.11592
-0.0811855
1.15672
-0.0823655
1.19512
-0.0847446
1.23592
-0.0859246
1.27432
-0.0859052
1.31272
-0.0882844
1.35232
-0.0882646
1.38952
-0.0894445
1.42792
-0.0906244
1.46512
-0.0918046
1.50232
-0.0917847
1.53832
-0.0917652
1.57552
-0.0929455
1.61152
-0.094125
1.64752
-0.0929066
1.68112
-0.0940866
1.71712
-0.0940676
1.75192
-0.0940482
1.78552
-0.0940294
1.81792
-0.0940102
1.85272
-0.092792
1.88392
-0.0939724
1.91752
-0.0927544
1.94752
-0.0915366
1.97992
-0.0915182
2.01113
-0.0914994
2.04113
-0.0902823
2.06993
-0.089664
2.10017
-0.0888069
2.12861
-0.0879493
2.15705
-0.086852
2.18465
-0.0858753
2.21201
-0.0846583
2.23853
-0.0835613
2.26482
-0.0821053
2.29026
-0.0807694
2.31534
-0.0794336
2.33982
-0.0780975
2.36382
-0.0765223
2.38698
-0.0749472
2.40978
-0.0733725
2.43198
-0.0715579
2.45347
-0.0698643
2.47447
-0.0680503
2.49487
-0.0662364
2.51455
-0.0643036
2.53375
-0.0624902
2.55235
-0.0605578
2.57023
-0.058385
2.58739
-0.0564531
2.60419
-0.0542815
2.62016
-0.0521101
2.63552
-0.0499398
2.65028
-0.0477681
2.66444
-0.0454783
2.67788
-0.0431879
2.6906
-0.0408978
2.70284
-0.0386088
2.71424
-0.0361991
2.72505
-0.0337907
2.73525
-0.0313824
2.74485
-0.0288536
2.75349
-0.0264467
2.76177
-0.0239185
2.76921
-0.0215113
2.77605
-0.0189852
2.78218
-0.0164586
2.7877
-0.0139332
2.79238
-0.0114072
2.79646
-0.0088103
2.79993
-0.00624971
2.80265
-0.0036886
2.80471
-0.00111668
2.80607
0.00145498
2.80676
0.0040263
2.80677
0.00659737
2.80607
0.00915523
2.80472
0.0117136
2.80267
0.0143077
2.79994
0.0168286
2.79648
0.01935
2.7924
0.0218702
2.78772
0.024391
2.7822
0.0267906
2.77608
0.029309
2.76924
0.0317087
2.76181
0.0342265
2.75353
0.0366247
2.74489
0.0390227
2.73529
0.0414194
2.72509
0.0436966
2.71429
0.0459727
2.7029
0.0482485
2.69066
0.0505248
2.67794
0.0526791
2.6645
0.0548348
2.65034
0.0569893
2.63559
0.0591434
2.62023
0.0610572
2.60427
0.0632099
2.58747
0.0651231
2.57031
0.0669149
2.55244
0.0688273
2.53384
0.0706185
2.51464
0.0724094
2.49496
0.0740806
2.47456
0.0758707
2.45356
0.0774203
2.43208
0.0789696
2.40989
0.0805185
2.38709
0.0818262
2.36393
0.0831343
2.33993
0.084442
2.31545
0.0858694
2.29037
0.0869355
2.26494
0.0881214
2.23866
0.0890676
2.21214
0.0901327
2.18478
0.0909573
2.15718
0.0917824
2.12875
0.0923655
2.10031
0.0935501
2.07007
0.0935323
2.04127
0.0935148
2.01127
0.0946977
1.98007
0.0958803
1.94768
0.0946606
1.91768
0.0958426
1.88408
0.0958229
1.85288
0.0958036
1.81808
0.0957834
1.78569
0.0957635
1.75209
0.0945419
1.71729
0.0957223
1.68129
0.0944996
1.64769
0.0932778
1.61169
0.093256
1.5757
0.0932335
1.5385
0.0920108
1.5025
0.0907874
1.4653
0.0895637
1.4281
0.08954
1.3897
0.0871148
1.35251
0.0870909
1.31291
0.0858659
1.27451
0.0834392
1.23611
0.0822135
1.19531
0.0809873
1.15691
0.07856
1.11612
0.0773329
1.07652
0.0749046
1.03572
0.0736776
0.994924
0.0700477
0.955328
0.0688202
0.912129
0.0651903
0.872533
0.0639623
0.829333