/*--------------------------------*- C++ -*----------------------------------*\
  =========                 |
  \\      /  F ield         | OpenFOAM: The Open Source CFD Toolbox
   \\    /   O peration     | Website:  https://openfoam.org
    \\  /    A nd           | Version:  8
     \\/     M anipulation  |
\*---------------------------------------------------------------------------*/
FoamFile
{
    version     2.0;
    format      ascii;
    class       volScalarField;
    location    "27";
    object      nuTilda;
}
// * * * * * * * * * * * * * * * * * * * * * * * * * * * * * * * * * * * * * //

dimensions      [0 2 -1 0 0 0 0];

internalField   nonuniform List<scalar> 
277560
(
0.139941
0.139828
0.139706
0.139569
0.139416
0.139245
0.13906
0.13886
0.138648
0.138425
0.138194
0.137955
0.13771
0.13746
0.137206
0.136949
0.136689
0.136426
0.136162
0.135895
0.135626
0.135355
0.135082
0.134807
0.134529
0.134249
0.133966
0.133679
0.133389
0.133096
0.1328
0.1325
0.132197
0.131891
0.131582
0.131272
0.13096
0.130647
0.130335
0.130024
0.129716
0.129412
0.129114
0.128822
0.12854
0.128269
0.128011
0.127768
0.127542
0.127335
0.127149
0.126987
0.126849
0.126739
0.126656
0.126603
0.12658
0.126588
0.126627
0.126697
0.126799
0.12693
0.127091
0.127278
0.127491
0.127726
0.127982
0.128255
0.128543
0.128843
0.129153
0.129469
0.129791
0.130115
0.13044
0.130764
0.131086
0.131404
0.131716
0.132023
0.132322
0.132613
0.132896
0.133168
0.133431
0.133684
0.133926
0.134157
0.134377
0.134586
0.134785
0.134972
0.135149
0.135315
0.135471
0.135618
0.135754
0.135882
0.136
0.136109
0.136208
0.1363
0.136383
0.136457
0.136524
0.136584
0.136636
0.136682
0.136721
0.136755
0.136783
0.136806
0.136823
0.136837
0.136846
0.136851
0.136852
0.13685
0.136845
0.136838
0.139953
0.139847
0.139725
0.139587
0.139432
0.13926
0.139072
0.13887
0.138657
0.138432
0.138199
0.137959
0.137713
0.137463
0.137208
0.136951
0.13669
0.136428
0.136163
0.135896
0.135627
0.135357
0.135084
0.134809
0.134531
0.134252
0.133969
0.133683
0.133393
0.1331
0.132804
0.132504
0.132201
0.131895
0.131587
0.131276
0.130964
0.130652
0.13034
0.130029
0.129721
0.129416
0.129118
0.128826
0.128544
0.128272
0.128014
0.12777
0.127544
0.127337
0.127151
0.126988
0.126851
0.12674
0.126657
0.126604
0.126582
0.126591
0.126631
0.126703
0.126806
0.12694
0.127104
0.127295
0.127513
0.127754
0.128016
0.128296
0.12859
0.128895
0.12921
0.129532
0.129858
0.130186
0.130516
0.130844
0.13117
0.131491
0.131808
0.132118
0.13242
0.132715
0.133
0.133276
0.133542
0.133798
0.134042
0.134276
0.134499
0.13471
0.134911
0.1351
0.135279
0.135446
0.135604
0.13575
0.135887
0.136014
0.136131
0.136239
0.136337
0.136427
0.136509
0.136582
0.136648
0.136707
0.136758
0.136803
0.136841
0.136873
0.1369
0.136922
0.136938
0.13695
0.136958
0.136962
0.136963
0.136959
0.136953
0.136944
0.139959
0.139856
0.139734
0.139593
0.139434
0.139258
0.139066
0.138861
0.138643
0.138416
0.13818
0.137938
0.13769
0.137438
0.137183
0.136925
0.136664
0.136402
0.136138
0.135872
0.135605
0.135335
0.135064
0.134791
0.134516
0.134238
0.133958
0.133674
0.133387
0.133097
0.132803
0.132505
0.132204
0.131899
0.131592
0.131283
0.130972
0.130661
0.130349
0.130038
0.12973
0.129426
0.129127
0.128835
0.128552
0.12828
0.128021
0.127777
0.12755
0.127342
0.127156
0.126992
0.126854
0.126743
0.126661
0.126608
0.126585
0.126595
0.126636
0.12671
0.126816
0.126953
0.127121
0.127318
0.127543
0.127792
0.128062
0.128349
0.12865
0.128962
0.129283
0.129611
0.129942
0.130276
0.130611
0.130945
0.131275
0.131602
0.131924
0.132239
0.132546
0.132846
0.133136
0.133417
0.133688
0.133948
0.134197
0.134435
0.134662
0.134877
0.135081
0.135274
0.135455
0.135625
0.135785
0.135933
0.136072
0.1362
0.136318
0.136427
0.136526
0.136616
0.136698
0.136771
0.136836
0.136894
0.136945
0.136989
0.137026
0.137057
0.137083
0.137103
0.137118
0.137128
0.137134
0.137135
0.137133
0.137127
0.137118
0.137106
0.13996
0.139858
0.139733
0.139588
0.139424
0.139242
0.139044
0.138833
0.13861
0.138378
0.138139
0.137895
0.137645
0.137393
0.137138
0.136881
0.136622
0.136363
0.136102
0.135841
0.135577
0.135312
0.135045
0.134775
0.134504
0.13423
0.133952
0.133672
0.133388
0.1331
0.132808
0.132513
0.132214
0.131912
0.131607
0.131299
0.130989
0.130678
0.130367
0.130057
0.129749
0.129445
0.129145
0.128853
0.128569
0.128296
0.128036
0.127791
0.127563
0.127354
0.127166
0.127002
0.126863
0.126751
0.126667
0.126614
0.126592
0.126603
0.126645
0.126721
0.126829
0.12697
0.127143
0.127346
0.127578
0.127835
0.128113
0.128408
0.128717
0.129036
0.129364
0.129698
0.130036
0.130376
0.130717
0.131057
0.131395
0.131728
0.132056
0.132377
0.132691
0.132997
0.133293
0.13358
0.133857
0.134123
0.134378
0.134621
0.134853
0.135074
0.135282
0.135479
0.135665
0.135839
0.136002
0.136154
0.136295
0.136426
0.136546
0.136656
0.136757
0.136848
0.136931
0.137005
0.13707
0.137128
0.137178
0.137221
0.137257
0.137287
0.137311
0.137329
0.137341
0.137348
0.137351
0.137349
0.137343
0.137333
0.137319
0.137302
0.13996
0.139855
0.139726
0.139575
0.139403
0.139214
0.139008
0.13879
0.138562
0.138326
0.138084
0.137838
0.13759
0.137339
0.137088
0.136835
0.136581
0.136326
0.13607
0.135813
0.135554
0.135293
0.135031
0.134766
0.134498
0.134228
0.133955
0.133678
0.133397
0.133113
0.132824
0.132532
0.132236
0.131936
0.131632
0.131326
0.131018
0.130708
0.130397
0.130087
0.129779
0.129475
0.129175
0.128882
0.128597
0.128323
0.128061
0.127814
0.127584
0.127373
0.127184
0.127018
0.126877
0.126764
0.12668
0.126626
0.126604
0.126615
0.126659
0.126736
0.126847
0.126992
0.127169
0.127378
0.127618
0.127883
0.128169
0.128471
0.128786
0.129113
0.129448
0.129789
0.130134
0.130482
0.13083
0.131177
0.131522
0.131862
0.132198
0.132527
0.132848
0.133161
0.133465
0.133759
0.134043
0.134316
0.134577
0.134827
0.135066
0.135292
0.135506
0.135709
0.1359
0.136079
0.136246
0.136402
0.136547
0.136681
0.136804
0.136916
0.137019
0.137112
0.137196
0.137271
0.137336
0.137394
0.137444
0.137486
0.137521
0.137549
0.13757
0.137586
0.137595
0.137599
0.137597
0.137591
0.13758
0.137564
0.137545
0.137521
0.139958
0.139849
0.139713
0.139554
0.139373
0.139174
0.138961
0.138736
0.138503
0.138264
0.138023
0.13778
0.137535
0.137289
0.137041
0.136793
0.136544
0.136294
0.136043
0.135791
0.135537
0.135282
0.135024
0.134765
0.134502
0.134237
0.133968
0.133695
0.133419
0.133138
0.132853
0.132564
0.132271
0.131973
0.131672
0.131368
0.131061
0.130752
0.130442
0.130133
0.129824
0.129519
0.129219
0.128924
0.128638
0.128362
0.128098
0.127849
0.127617
0.127403
0.127212
0.127043
0.1269
0.126785
0.126699
0.126644
0.126622
0.126632
0.126677
0.126756
0.126869
0.127017
0.127199
0.127414
0.12766
0.127932
0.128225
0.128534
0.128857
0.12919
0.129533
0.129881
0.130234
0.130589
0.130946
0.131301
0.131653
0.132002
0.132346
0.132683
0.133013
0.133334
0.133646
0.133948
0.13424
0.13452
0.13479
0.135047
0.135292
0.135526
0.135747
0.135955
0.136152
0.136336
0.136509
0.136669
0.136818
0.136956
0.137082
0.137198
0.137303
0.137398
0.137483
0.137559
0.137626
0.137683
0.137732
0.137773
0.137807
0.137833
0.137852
0.137864
0.13787
0.137869
0.137863
0.137852
0.137835
0.137813
0.137787
0.137757
0.139955
0.139839
0.139695
0.139526
0.139335
0.139127
0.138905
0.138675
0.138441
0.138205
0.137966
0.137726
0.137485
0.137242
0.137
0.136757
0.136513
0.136269
0.136023
0.135777
0.135529
0.13528
0.135029
0.134775
0.134518
0.134258
0.133995
0.133727
0.133455
0.133179
0.132898
0.132613
0.132322
0.132028
0.131729
0.131427
0.131122
0.130814
0.130505
0.130195
0.129887
0.129581
0.129279
0.128983
0.128695
0.128416
0.12815
0.127898
0.127663
0.127446
0.127251
0.127079
0.126934
0.126816
0.126727
0.12667
0.126646
0.126656
0.1267
0.12678
0.126895
0.127045
0.127231
0.127451
0.127703
0.127982
0.128281
0.128597
0.128927
0.129268
0.129617
0.129973
0.130334
0.130697
0.131062
0.131425
0.131787
0.132144
0.132496
0.132842
0.133181
0.133511
0.133832
0.134143
0.134443
0.134732
0.135009
0.135275
0.135528
0.135769
0.135997
0.136212
0.136415
0.136606
0.136784
0.13695
0.137103
0.137245
0.137376
0.137494
0.137602
0.1377
0.137786
0.137863
0.13793
0.137988
0.138036
0.138076
0.138108
0.138132
0.138148
0.138157
0.138159
0.138154
0.138143
0.138126
0.138103
0.138075
0.138041
0.138003
0.139951
0.139827
0.139673
0.139493
0.139291
0.139074
0.138847
0.138617
0.138384
0.138149
0.137913
0.137677
0.13744
0.137203
0.136965
0.136728
0.13649
0.136252
0.136013
0.135774
0.135533
0.13529
0.135046
0.134799
0.134548
0.134295
0.134037
0.133775
0.133509
0.133237
0.132961
0.13268
0.132393
0.132102
0.131806
0.131506
0.131202
0.130895
0.130587
0.130277
0.129968
0.129662
0.129358
0.12906
0.12877
0.128488
0.128219
0.127963
0.127724
0.127503
0.127304
0.127128
0.126978
0.126856
0.126765
0.126705
0.126678
0.126686
0.126729
0.126809
0.126925
0.127077
0.127266
0.127489
0.127747
0.128032
0.128337
0.128659
0.128995
0.129343
0.1297
0.130063
0.130432
0.130804
0.131176
0.131549
0.131919
0.132285
0.132647
0.133002
0.13335
0.133689
0.134019
0.13434
0.134649
0.134947
0.135233
0.135507
0.135768
0.136017
0.136253
0.136476
0.136686
0.136882
0.137067
0.137238
0.137397
0.137543
0.137677
0.1378
0.137911
0.13801
0.138099
0.138177
0.138245
0.138302
0.138351
0.138389
0.138419
0.138441
0.138454
0.138459
0.138457
0.138448
0.138431
0.138408
0.138379
0.138344
0.138303
0.138256
0.139947
0.139813
0.139648
0.139456
0.139244
0.13902
0.138793
0.138563
0.138332
0.138099
0.137867
0.137634
0.137402
0.13717
0.136939
0.136708
0.136477
0.136246
0.136015
0.135783
0.13555
0.135315
0.135078
0.134838
0.134595
0.134348
0.134097
0.133842
0.133581
0.133315
0.133043
0.132766
0.132484
0.132196
0.131903
0.131605
0.131303
0.130997
0.130689
0.13038
0.13007
0.129762
0.129457
0.129157
0.128863
0.128578
0.128305
0.128045
0.127802
0.127576
0.127372
0.127191
0.127036
0.126909
0.126813
0.126749
0.126718
0.126723
0.126765
0.126843
0.126959
0.127112
0.127302
0.127529
0.127791
0.128081
0.128391
0.128719
0.129061
0.129416
0.129779
0.13015
0.130527
0.130906
0.131288
0.131669
0.132048
0.132424
0.132794
0.133159
0.133517
0.133866
0.134206
0.134535
0.134854
0.135161
0.135457
0.135739
0.136009
0.136267
0.13651
0.136741
0.136958
0.137162
0.137352
0.137529
0.137694
0.137845
0.137984
0.13811
0.138224
0.138326
0.138417
0.138496
0.138565
0.138623
0.138671
0.138708
0.138737
0.138756
0.138766
0.138768
0.138761
0.138747
0.138725
0.138696
0.138661
0.138618
0.138569
0.138514
0.139942
0.139797
0.139619
0.139415
0.139196
0.138971
0.138743
0.138514
0.138285
0.138056
0.137827
0.137599
0.137372
0.137147
0.136922
0.136699
0.136476
0.136253
0.136031
0.135807
0.135583
0.135356
0.135127
0.134895
0.13466
0.134421
0.134177
0.133928
0.133673
0.133413
0.133147
0.132875
0.132596
0.132312
0.132022
0.131726
0.131426
0.131122
0.130814
0.130504
0.130194
0.129884
0.129577
0.129273
0.128976
0.128688
0.12841
0.128145
0.127896
0.127665
0.127455
0.127269
0.127108
0.126975
0.126873
0.126803
0.126768
0.126769
0.126807
0.126883
0.126997
0.12715
0.127341
0.12757
0.127835
0.128128
0.128443
0.128776
0.129124
0.129485
0.129855
0.130233
0.130617
0.131005
0.131395
0.131784
0.132172
0.132557
0.132938
0.133312
0.133679
0.134038
0.134388
0.134727
0.135056
0.135373
0.135677
0.135969
0.136248
0.136514
0.136766
0.137005
0.13723
0.13744
0.137638
0.137821
0.137991
0.138147
0.138291
0.138421
0.138539
0.138644
0.138737
0.138818
0.138887
0.138946
0.138993
0.13903
0.139057
0.139074
0.139081
0.139079
0.139069
0.13905
0.139022
0.138987
0.138945
0.138895
0.138838
0.138775
0.139937
0.139779
0.139588
0.139375
0.139152
0.138926
0.138699
0.138471
0.138245
0.138019
0.137795
0.137572
0.137352
0.137134
0.136917
0.136702
0.136488
0.136275
0.136061
0.135847
0.135631
0.135414
0.135194
0.134971
0.134744
0.134513
0.134276
0.134035
0.133787
0.133533
0.133273
0.133006
0.132732
0.132451
0.132164
0.131871
0.131573
0.13127
0.130962
0.130652
0.130341
0.130029
0.129719
0.129412
0.129111
0.128818
0.128534
0.128264
0.128009
0.127771
0.127555
0.127361
0.127193
0.127054
0.126945
0.126868
0.126827
0.126823
0.126856
0.126928
0.12704
0.127191
0.127381
0.127611
0.127877
0.128174
0.128493
0.12883
0.129183
0.129549
0.129926
0.130311
0.130702
0.131098
0.131496
0.131894
0.132291
0.132685
0.133075
0.133459
0.133836
0.134205
0.134564
0.134913
0.135252
0.135578
0.135893
0.136194
0.136483
0.136757
0.137018
0.137265
0.137497
0.137716
0.13792
0.13811
0.138286
0.138448
0.138596
0.13873
0.138852
0.13896
0.139055
0.139138
0.139209
0.139268
0.139315
0.139352
0.139377
0.139392
0.139397
0.139391
0.139377
0.139353
0.139321
0.13928
0.13923
0.139173
0.139109
0.139037
0.139931
0.13976
0.139557
0.139337
0.139112
0.138886
0.13866
0.138435
0.138211
0.13799
0.137771
0.137556
0.137343
0.137133
0.136925
0.136719
0.136515
0.136311
0.136108
0.135903
0.135698
0.13549
0.13528
0.135067
0.134849
0.134626
0.134398
0.134164
0.133924
0.133677
0.133423
0.133161
0.132892
0.132616
0.132332
0.132042
0.131745
0.131443
0.131136
0.130825
0.130512
0.130198
0.129884
0.129574
0.129268
0.128969
0.12868
0.128403
0.12814
0.127895
0.127671
0.127469
0.127293
0.127146
0.127029
0.126945
0.126897
0.126885
0.126912
0.12698
0.127087
0.127235
0.127424
0.127652
0.12792
0.128218
0.12854
0.128881
0.129238
0.129609
0.129992
0.130383
0.130781
0.131184
0.13159
0.131996
0.132402
0.132805
0.133204
0.133598
0.133984
0.134363
0.134733
0.135092
0.13544
0.135777
0.136101
0.136412
0.136709
0.136993
0.137263
0.137518
0.137759
0.137985
0.138196
0.138393
0.138575
0.138743
0.138896
0.139035
0.139161
0.139272
0.139371
0.139456
0.139528
0.139588
0.139636
0.139671
0.139696
0.139709
0.139711
0.139703
0.139684
0.139656
0.139618
0.139572
0.139516
0.139452
0.139379
0.139299
0.139925
0.139739
0.139526
0.139303
0.139077
0.138852
0.138627
0.138405
0.138186
0.13797
0.137758
0.13755
0.137345
0.137144
0.136947
0.136751
0.136557
0.136364
0.136171
0.135978
0.135784
0.135587
0.135387
0.135184
0.134976
0.134763
0.134544
0.134318
0.134086
0.133846
0.133598
0.133343
0.133079
0.132807
0.132527
0.132239
0.131945
0.131643
0.131336
0.131025
0.13071
0.130393
0.130076
0.12976
0.129449
0.129144
0.128847
0.128562
0.128291
0.128038
0.127804
0.127594
0.127408
0.127252
0.127126
0.127033
0.126976
0.126957
0.126977
0.127037
0.127139
0.127283
0.127468
0.127694
0.127961
0.12826
0.128584
0.128928
0.129289
0.129664
0.130052
0.130449
0.130853
0.131263
0.131676
0.13209
0.132505
0.132916
0.133325
0.133728
0.134124
0.134512
0.134892
0.135261
0.135619
0.135966
0.1363
0.13662
0.136927
0.13722
0.137499
0.137763
0.138012
0.138246
0.138465
0.138669
0.138857
0.139031
0.13919
0.139334
0.139464
0.139579
0.139681
0.139768
0.139842
0.139903
0.139952
0.139987
0.140011
0.140022
0.140022
0.140011
0.139989
0.139957
0.139914
0.139862
0.1398
0.139729
0.139649
0.139561
0.139918
0.139719
0.139498
0.139273
0.139047
0.138823
0.138601
0.138382
0.138168
0.137959
0.137755
0.137555
0.137361
0.13717
0.136983
0.136798
0.136616
0.136435
0.136254
0.136072
0.13589
0.135705
0.135517
0.135324
0.135127
0.134924
0.134715
0.134498
0.134274
0.134041
0.1338
0.13355
0.133291
0.133024
0.132747
0.132463
0.13217
0.13187
0.131563
0.131251
0.130934
0.130615
0.130294
0.129973
0.129655
0.129342
0.129038
0.128744
0.128463
0.1282
0.127956
0.127735
0.127539
0.127372
0.127236
0.127133
0.127067
0.127038
0.127049
0.127102
0.127196
0.127334
0.127514
0.127737
0.128001
0.1283
0.128625
0.128971
0.129334
0.129713
0.130105
0.130507
0.130917
0.131334
0.131754
0.132176
0.132598
0.133018
0.133435
0.133847
0.134253
0.134651
0.13504
0.135419
0.135787
0.136144
0.136487
0.136818
0.137135
0.137437
0.137725
0.137998
0.138255
0.138497
0.138724
0.138935
0.13913
0.13931
0.139475
0.139625
0.139759
0.139879
0.139983
0.140074
0.14015
0.140213
0.140262
0.140298
0.140321
0.140332
0.14033
0.140316
0.140291
0.140255
0.140208
0.14015
0.140082
0.140005
0.139918
0.139821
0.13991
0.139699
0.139474
0.139248
0.139023
0.1388
0.138581
0.138368
0.13816
0.137958
0.137763
0.137574
0.13739
0.13721
0.137035
0.136862
0.136692
0.136524
0.136356
0.136188
0.136018
0.135846
0.13567
0.135489
0.135302
0.135109
0.134908
0.134699
0.134481
0.134254
0.134018
0.133773
0.133519
0.133255
0.132982
0.1327
0.13241
0.132111
0.131806
0.131494
0.131177
0.130856
0.130532
0.130208
0.129885
0.129566
0.129252
0.128948
0.128657
0.128382
0.128126
0.127893
0.127686
0.127507
0.127359
0.127245
0.127167
0.127128
0.127129
0.127172
0.127259
0.127389
0.127563
0.12778
0.12804
0.128337
0.128662
0.129009
0.129375
0.129757
0.130152
0.130558
0.130974
0.131396
0.131822
0.132251
0.132681
0.133109
0.133535
0.133956
0.13437
0.134778
0.135176
0.135565
0.135943
0.136309
0.136663
0.137003
0.13733
0.137642
0.137939
0.13822
0.138487
0.138737
0.138972
0.13919
0.139393
0.13958
0.13975
0.139906
0.140045
0.140169
0.140278
0.140372
0.140451
0.140515
0.140566
0.140602
0.140625
0.140635
0.140632
0.140616
0.140589
0.140549
0.140498
0.140435
0.140362
0.140278
0.140184
0.14008
0.139902
0.139681
0.139454
0.139227
0.139003
0.138783
0.138569
0.138361
0.138162
0.137969
0.137784
0.137605
0.137433
0.137266
0.137103
0.136944
0.136788
0.136634
0.136481
0.136326
0.13617
0.136009
0.135844
0.135672
0.135493
0.135307
0.135112
0.134909
0.134697
0.134476
0.134245
0.134004
0.133753
0.133493
0.133223
0.132944
0.132656
0.132359
0.132055
0.131745
0.131428
0.131107
0.130782
0.130456
0.13013
0.129805
0.129486
0.129174
0.128872
0.128584
0.128316
0.128069
0.127848
0.127656
0.127495
0.127369
0.127279
0.127228
0.127217
0.12725
0.127326
0.127447
0.127613
0.127824
0.128078
0.128372
0.128696
0.129043
0.12941
0.129794
0.130192
0.130602
0.131022
0.131449
0.131881
0.132317
0.132753
0.133189
0.133623
0.134052
0.134475
0.134892
0.1353
0.135698
0.136086
0.136462
0.136825
0.137175
0.137511
0.137833
0.138139
0.13843
0.138705
0.138964
0.139207
0.139433
0.139643
0.139837
0.140014
0.140175
0.14032
0.140449
0.140562
0.14066
0.140742
0.140809
0.140861
0.140899
0.140922
0.140932
0.140928
0.140911
0.140881
0.140838
0.140783
0.140716
0.140638
0.140548
0.140448
0.140336
0.139894
0.139667
0.139438
0.139211
0.138989
0.138773
0.138565
0.138365
0.138174
0.137991
0.137817
0.137651
0.137491
0.137338
0.13719
0.137046
0.136905
0.136766
0.136626
0.136484
0.136337
0.136186
0.136028
0.135864
0.135692
0.135512
0.135323
0.135125
0.134918
0.134701
0.134474
0.134237
0.13399
0.133733
0.133466
0.13319
0.132904
0.13261
0.132308
0.131998
0.131682
0.131361
0.131036
0.130709
0.130381
0.130054
0.12973
0.129412
0.129103
0.128805
0.128523
0.128262
0.128027
0.12782
0.127645
0.127504
0.127401
0.127337
0.127314
0.127334
0.127399
0.12751
0.127666
0.127868
0.128115
0.128405
0.128726
0.129073
0.129439
0.129824
0.130225
0.130638
0.131061
0.131492
0.13193
0.132371
0.132814
0.133257
0.133698
0.134136
0.134568
0.134993
0.13541
0.135818
0.136215
0.1366
0.136973
0.137333
0.137679
0.13801
0.138325
0.138626
0.13891
0.139177
0.139429
0.139663
0.139881
0.140082
0.140266
0.140433
0.140584
0.140718
0.140836
0.140937
0.141023
0.141093
0.141148
0.141187
0.141211
0.141221
0.141217
0.141199
0.141167
0.141122
0.141064
0.140993
0.14091
0.140815
0.140708
0.14059
0.139887
0.139656
0.139426
0.1392
0.138981
0.13877
0.138569
0.138378
0.138197
0.138026
0.137864
0.137711
0.137566
0.137428
0.137295
0.137167
0.137041
0.136915
0.136785
0.136652
0.136514
0.13637
0.136219
0.136061
0.135894
0.135719
0.135536
0.135343
0.13514
0.134927
0.134704
0.134471
0.134227
0.133973
0.133709
0.133436
0.133152
0.13286
0.13256
0.132252
0.131937
0.131616
0.131292
0.130964
0.130635
0.130306
0.129979
0.129657
0.129342
0.129037
0.128745
0.128471
0.12822
0.127998
0.127807
0.127652
0.127533
0.127455
0.127418
0.127425
0.127477
0.127576
0.127722
0.127914
0.128153
0.128436
0.128754
0.129097
0.129463
0.129849
0.13025
0.130665
0.131091
0.131526
0.131968
0.132415
0.132864
0.133313
0.133761
0.134206
0.134646
0.13508
0.135505
0.135922
0.136329
0.136724
0.137106
0.137475
0.137831
0.138171
0.138496
0.138806
0.139099
0.139376
0.139635
0.139878
0.140104
0.140312
0.140504
0.140678
0.140834
0.140974
0.141097
0.141203
0.141293
0.141367
0.141424
0.141465
0.141492
0.141502
0.141498
0.14148
0.141446
0.141399
0.141339
0.141265
0.141178
0.141078
0.140965
0.140841
0.139883
0.139648
0.139417
0.139193
0.138979
0.138774
0.138582
0.138401
0.138232
0.138073
0.137926
0.137787
0.137658
0.137537
0.13742
0.137306
0.137191
0.137073
0.136952
0.136827
0.136695
0.136557
0.136412
0.13626
0.136098
0.135928
0.135749
0.135561
0.135362
0.135153
0.134934
0.134704
0.134463
0.134213
0.133951
0.13368
0.133399
0.133109
0.13281
0.132504
0.13219
0.131871
0.131546
0.131218
0.130888
0.130558
0.130229
0.129904
0.129585
0.129274
0.128975
0.128691
0.128427
0.128189
0.127982
0.12781
0.127676
0.127582
0.12753
0.127523
0.127561
0.127647
0.12778
0.127961
0.12819
0.128464
0.128777
0.129118
0.129482
0.129866
0.130268
0.130684
0.131112
0.13155
0.131996
0.132447
0.132901
0.133356
0.133811
0.134263
0.13471
0.135152
0.135586
0.136012
0.136427
0.136831
0.137223
0.137602
0.137966
0.138316
0.138651
0.13897
0.139272
0.139558
0.139826
0.140078
0.140312
0.140528
0.140727
0.140908
0.141071
0.141217
0.141346
0.141457
0.141551
0.141629
0.141689
0.141734
0.141762
0.141774
0.141771
0.141752
0.141718
0.14167
0.141607
0.141531
0.14144
0.141336
0.141219
0.141089
0.13988
0.139642
0.139412
0.139192
0.138983
0.138787
0.138605
0.138435
0.138279
0.138135
0.138002
0.137881
0.137769
0.137662
0.137558
0.137454
0.137347
0.137238
0.137124
0.137004
0.136879
0.136747
0.136607
0.136459
0.136303
0.136137
0.135963
0.135778
0.135583
0.135378
0.135162
0.134935
0.134698
0.13445
0.134191
0.133923
0.133644
0.133356
0.133059
0.132754
0.132441
0.132123
0.131799
0.131471
0.131141
0.130809
0.130479
0.130152
0.129829
0.129514
0.129209
0.128917
0.128643
0.128391
0.128167
0.127978
0.127827
0.127717
0.12765
0.127627
0.12765
0.127721
0.127841
0.12801
0.128226
0.12849
0.128797
0.129133
0.129495
0.129877
0.130278
0.130694
0.131124
0.131564
0.132013
0.132468
0.132926
0.133387
0.133847
0.134305
0.13476
0.135209
0.135651
0.136085
0.136509
0.136922
0.137323
0.137711
0.138085
0.138445
0.138789
0.139117
0.139429
0.139723
0.140001
0.140261
0.140503
0.140728
0.140934
0.141123
0.141293
0.141446
0.14158
0.141697
0.141796
0.141878
0.141943
0.14199
0.142021
0.142036
0.142034
0.142016
0.141982
0.141933
0.141869
0.14179
0.141697
0.141589
0.141468
0.141332
0.139878
0.139639
0.139411
0.139195
0.138994
0.138808
0.138637
0.138481
0.138339
0.13821
0.138095
0.137991
0.137893
0.137798
0.137703
0.137607
0.137508
0.137405
0.137297
0.137184
0.137064
0.136937
0.136802
0.136659
0.136507
0.136346
0.136175
0.135994
0.135803
0.135601
0.135388
0.135164
0.13493
0.134685
0.134429
0.134162
0.133886
0.1336
0.133304
0.133001
0.13269
0.132372
0.132049
0.131721
0.131391
0.131059
0.130727
0.130398
0.130073
0.129754
0.129444
0.129146
0.128864
0.128601
0.128362
0.128156
0.127988
0.12786
0.127776
0.127737
0.127744
0.1278
0.127905
0.128059
0.128263
0.128515
0.128813
0.129144
0.129502
0.129881
0.13028
0.130696
0.131126
0.131568
0.132019
0.132476
0.132939
0.133404
0.13387
0.134334
0.134795
0.135251
0.135701
0.136142
0.136575
0.136996
0.137406
0.137803
0.138187
0.138556
0.138909
0.139247
0.139568
0.139872
0.140158
0.140427
0.140678
0.140911
0.141125
0.141322
0.1415
0.141659
0.1418
0.141923
0.142028
0.142115
0.142184
0.142235
0.142269
0.142286
0.142286
0.14227
0.142237
0.142188
0.142123
0.142043
0.141947
0.141837
0.141712
0.141572
0.139877
0.139638
0.139414
0.139205
0.139013
0.138838
0.13868
0.138538
0.138412
0.138302
0.138204
0.138113
0.138026
0.13794
0.137853
0.137764
0.137671
0.137574
0.137472
0.137364
0.137249
0.137127
0.136997
0.136858
0.13671
0.136553
0.136386
0.136208
0.136021
0.135822
0.135612
0.135392
0.13516
0.134917
0.134663
0.134399
0.134125
0.133841
0.133547
0.133245
0.132935
0.132618
0.132296
0.131968
0.131638
0.131305
0.130973
0.130642
0.130314
0.129993
0.129679
0.129376
0.129087
0.128815
0.128564
0.128342
0.128156
0.128011
0.127909
0.127853
0.127843
0.127882
0.127971
0.128111
0.128301
0.12854
0.128827
0.129151
0.129503
0.129879
0.130276
0.13069
0.131119
0.131561
0.132014
0.132474
0.132939
0.133408
0.133878
0.134348
0.134815
0.135277
0.135734
0.136183
0.136623
0.137053
0.137472
0.137878
0.13827
0.138648
0.139011
0.139358
0.139688
0.140002
0.140297
0.140575
0.140835
0.141077
0.1413
0.141504
0.141689
0.141856
0.142004
0.142134
0.142245
0.142337
0.142411
0.142467
0.142505
0.142525
0.142528
0.142514
0.142482
0.142434
0.142369
0.142288
0.142191
0.142079
0.141951
0.141807
0.139876
0.13964
0.139421
0.139221
0.139039
0.138877
0.138733
0.138608
0.138501
0.138407
0.138323
0.138242
0.138163
0.138085
0.138004
0.137921
0.137835
0.137744
0.137647
0.137544
0.137434
0.137316
0.137191
0.137056
0.136912
0.136759
0.136595
0.136421
0.136236
0.136041
0.135834
0.135616
0.135387
0.135147
0.134895
0.134633
0.134361
0.134078
0.133786
0.133486
0.133177
0.132861
0.132539
0.132212
0.131882
0.131549
0.131216
0.130883
0.130554
0.13023
0.129912
0.129605
0.12931
0.12903
0.12877
0.128535
0.128332
0.128169
0.128049
0.127974
0.127947
0.127969
0.128041
0.128164
0.128339
0.128563
0.128837
0.129153
0.129499
0.12987
0.130263
0.130675
0.131103
0.131545
0.131998
0.132459
0.132927
0.133399
0.133873
0.134347
0.134819
0.135288
0.135751
0.136207
0.136655
0.137093
0.13752
0.137934
0.138335
0.138722
0.139094
0.139451
0.13979
0.140113
0.140418
0.140705
0.140974
0.141224
0.141456
0.141669
0.141862
0.142037
0.142192
0.142329
0.142446
0.142545
0.142624
0.142685
0.142728
0.142752
0.142758
0.142747
0.142717
0.14267
0.142606
0.142526
0.142428
0.142314
0.142184
0.142037
0.139877
0.139644
0.139432
0.139242
0.139074
0.138926
0.138799
0.138692
0.138602
0.138521
0.138446
0.138374
0.138303
0.138231
0.138157
0.13808
0.137999
0.137913
0.137822
0.137723
0.137618
0.137505
0.137383
0.137253
0.137113
0.136963
0.136803
0.136632
0.13645
0.136257
0.136053
0.135838
0.135611
0.135373
0.135124
0.134864
0.134593
0.134313
0.134022
0.133723
0.133415
0.133101
0.132779
0.132453
0.132123
0.13179
0.131455
0.131122
0.130791
0.130464
0.130144
0.129832
0.129532
0.129246
0.128978
0.128732
0.128514
0.128332
0.128194
0.128101
0.128055
0.128059
0.128113
0.128219
0.128377
0.128586
0.128845
0.129151
0.129489
0.129855
0.130244
0.130652
0.131078
0.131518
0.131971
0.132433
0.132902
0.133377
0.133854
0.134332
0.134809
0.135283
0.135752
0.136215
0.136669
0.137115
0.137549
0.137972
0.138382
0.138778
0.139159
0.139524
0.139873
0.140205
0.140519
0.140816
0.141094
0.141353
0.141594
0.141815
0.142017
0.1422
0.142363
0.142507
0.142631
0.142737
0.142822
0.142889
0.142937
0.142966
0.142976
0.142968
0.142941
0.142897
0.142834
0.142754
0.142657
0.142542
0.14241
0.142262
0.139878
0.139651
0.139449
0.139271
0.139116
0.138985
0.138877
0.138788
0.13871
0.13864
0.138573
0.138508
0.138443
0.138378
0.13831
0.138239
0.138163
0.138082
0.137996
0.137902
0.137801
0.137692
0.137575
0.137448
0.137312
0.137165
0.137008
0.13684
0.136662
0.136472
0.13627
0.136057
0.135833
0.135597
0.13535
0.135092
0.134823
0.134544
0.134255
0.133957
0.13365
0.133337
0.133016
0.13269
0.13236
0.132027
0.131692
0.131357
0.131025
0.130696
0.130373
0.130057
0.129753
0.129461
0.129186
0.12893
0.1287
0.128501
0.128344
0.128232
0.128168
0.128153
0.128189
0.128277
0.128417
0.128609
0.128852
0.129145
0.129475
0.129833
0.130217
0.130621
0.131043
0.131482
0.131933
0.132395
0.132865
0.133341
0.133821
0.134302
0.134783
0.135262
0.135736
0.136205
0.136666
0.137119
0.137561
0.137992
0.13841
0.138814
0.139204
0.139578
0.139936
0.140278
0.140601
0.140907
0.141195
0.141463
0.141713
0.141943
0.142154
0.142345
0.142516
0.142668
0.1428
0.142912
0.143005
0.143078
0.143131
0.143165
0.14318
0.143176
0.143153
0.143112
0.143052
0.142973
0.142877
0.142762
0.14263
0.14248
0.13988
0.139661
0.13947
0.139306
0.139168
0.139056
0.138966
0.13889
0.138822
0.13876
0.1387
0.138642
0.138584
0.138525
0.138463
0.138397
0.138327
0.138251
0.138169
0.13808
0.137984
0.137879
0.137765
0.137642
0.137509
0.137366
0.137212
0.137047
0.136871
0.136683
0.136484
0.136274
0.136052
0.135818
0.135573
0.135316
0.135049
0.134772
0.134484
0.134187
0.133882
0.133569
0.133249
0.132924
0.132594
0.13226
0.131925
0.13159
0.131256
0.130925
0.130599
0.13028
0.129971
0.129675
0.129393
0.129129
0.128888
0.128675
0.128499
0.128369
0.128285
0.128251
0.128268
0.128336
0.128458
0.128632
0.128858
0.129135
0.129455
0.129806
0.130183
0.130582
0.131
0.131435
0.131885
0.132346
0.132816
0.133293
0.133774
0.134258
0.134742
0.135225
0.135704
0.136178
0.136645
0.137105
0.137554
0.137992
0.138418
0.138831
0.139229
0.139613
0.13998
0.14033
0.140663
0.140978
0.141275
0.141553
0.141812
0.142051
0.142271
0.142471
0.142651
0.142811
0.142951
0.143071
0.143171
0.143251
0.143311
0.143351
0.143371
0.143372
0.143353
0.143315
0.143258
0.143182
0.143087
0.142974
0.142842
0.142692
0.139883
0.139675
0.139497
0.139349
0.13923
0.139137
0.13906
0.138994
0.138935
0.13888
0.138828
0.138777
0.138725
0.138671
0.138615
0.138555
0.138489
0.138419
0.138341
0.138257
0.138164
0.138064
0.137954
0.137834
0.137704
0.137564
0.137413
0.137251
0.137078
0.136893
0.136696
0.136488
0.136267
0.136036
0.135792
0.135538
0.135272
0.134996
0.13471
0.134414
0.13411
0.133798
0.133479
0.133154
0.132824
0.13249
0.132155
0.131818
0.131483
0.13115
0.130822
0.130501
0.130188
0.129886
0.129598
0.129327
0.129077
0.128852
0.128659
0.128509
0.128406
0.128353
0.12835
0.128398
0.1285
0.128656
0.128864
0.129123
0.129431
0.129773
0.130142
0.130535
0.130948
0.13138
0.131826
0.132285
0.132754
0.133231
0.133714
0.134199
0.134686
0.135172
0.135656
0.136135
0.136607
0.137072
0.137528
0.137974
0.138407
0.138828
0.139235
0.139627
0.140003
0.140363
0.140705
0.141029
0.141336
0.141623
0.141891
0.14214
0.142369
0.142578
0.142767
0.142936
0.143084
0.143212
0.14332
0.143407
0.143474
0.14352
0.143547
0.143553
0.14354
0.143506
0.143453
0.14338
0.143288
0.143177
0.143046
0.142897
0.139887
0.139691
0.13953
0.139401
0.139302
0.139223
0.139157
0.139099
0.139048
0.139001
0.138955
0.13891
0.138865
0.138817
0.138766
0.138711
0.138651
0.138585
0.138513
0.138432
0.138344
0.138247
0.138141
0.138024
0.137898
0.137761
0.137613
0.137453
0.137282
0.1371
0.136905
0.136699
0.13648
0.13625
0.136009
0.135756
0.135492
0.135217
0.134932
0.134638
0.134335
0.134023
0.133705
0.13338
0.13305
0.132717
0.132381
0.132044
0.131707
0.131373
0.131043
0.130718
0.130402
0.130096