/*--------------------------------*- C++ -*----------------------------------*\
  =========                 |
  \\      /  F ield         | OpenFOAM: The Open Source CFD Toolbox
   \\    /   O peration     | Website:  https://openfoam.org
    \\  /    A nd           | Version:  10
     \\/     M anipulation  |
\*---------------------------------------------------------------------------*/
FoamFile
{
    format      ascii;
    class       volScalarField;
    location    "0.001";
    object      p;
}
// * * * * * * * * * * * * * * * * * * * * * * * * * * * * * * * * * * * * * //

dimensions      [1 -1 -2 0 0 0 0];

internalField   nonuniform List<scalar> 
8910
(
99842.2
99842.3
99842.4
99842.5
99842.7
99842.9
99843.2
99843.5
99844
99844.6
99845.2
99846
99846.8
99848
99849.2
99850.6
99852.4
99854.2
99856.6
99859.1
99862.2
99865.8
99869.8
99874.9
99880.4
99887.5
99895.5
99905.7
99917.8
99932.5
99949
99969
99989.9
100013
100044
100060
99842.3
99842.4
99842.4
99842.6
99842.8
99843
99843.3
99843.6
99844.1
99844.7
99845.3
99846.2
99847
99848.2
99849.4
99850.9
99852.7
99854.6
99857
99859.6
99862.8
99866.5
99870.7
99875.9
99881.7
99889
99897.3
99907.8
99920.3
99935.2
99952.2
99972.4
99993.3
100017
100045
100062
99842.4
99842.5
99842.5
99842.7
99842.9
99843.1
99843.5
99843.8
99844.4
99844.9
99845.6
99846.5
99847.4
99848.6
99849.9
99851.4
99853.3
99855.3
99857.9
99860.6
99863.9
99867.8
99872.2
99877.7
99883.8
99891.5
99900.2
99911.3
99924
99939
99956.4
99976.5
99997.4
100021
100047
100064
99842.5
99842.6
99842.7
99842.9
99843.1
99843.3
99843.7
99844.1
99844.7
99845.3
99846
99846.9
99847.9
99849.1
99850.5
99852.1
99854.1
99856.2
99858.9
99861.8
99865.3
99869.4
99874
99879.8
99886.3
99894.2
99903.5
99914.9
99928.1
99943.2
99960.8
99980.6
100001
100024
100049
100066
99842.7
99842.8
99842.9
99843.1
99843.3
99843.6
99844
99844.4
99845
99845.7
99846.4
99847.4
99848.4
99849.7
99851.2
99852.9
99855
99857.2
99860
99863.1
99866.8
99871.1
99876.1
99882.1
99889
99897.3
99907.1
99918.9
99932.4
99947.6
99965.2
99984.8
100005
100028
100051
100068
99842.9
99843
99843.1
99843.3
99843.6
99843.9
99844.3
99844.8
99845.4
99846.1
99846.9
99848
99849
99850.4
99852
99853.8
99856
99858.4
99861.4
99864.6
99868.6
99873.1
99878.4
99884.8
99892.2
99900.9
99911.1
99923.1
99936.7
99952.1
99969.7
99989.1
100009
100031
100053
100070
99843.1
99843.2
99843.3
99843.6
99843.9
99844.2
99844.7
99845.2
99845.9
99846.6
99847.5
99848.6
99849.8
99851.3
99852.9
99854.9
99857.2
99859.8
99862.9
99866.4
99870.6
99875.5
99881.1
99887.9
99895.6
99904.6
99915.1
99927.4
99941.2
99956.8
99974.4
99993.5
100013
100034
100054
100071
99843.2
99843.3
99843.5
99843.6
99843.9
99844.2
99844.6
99845.1
99845.7
99846.4
99847.2
99848.2
99849.3
99850.6
99852.2
99854
99856.1
99858.5
99861.3
99864.6
99868.4
99872.9
99878.1
99884.1
99891.1
99899.1
99908.5
99919.4
99931.9
99946
99961.7
99979.2
99997.9
100017
100037
100056
100073
99843.5
99843.6
99843.8
99844
99844.3
99844.6
99845.1
99845.6
99846.2
99847
99847.9
99848.9
99850.2
99851.6
99853.3
99855.2
99857.4
99860.1
99863.1
99866.7
99870.7
99875.5
99880.9
99887.2
99894.5
99902.9
99912.7
99923.9
99936.8
99951
99966.6
99984
100002
100021
100040
100058
100074
99843.8
99843.9
99844.1
99844.4
99844.7
99845.1
99845.6
99846.2
99846.9
99847.7
99848.7
99849.8
99851.2
99852.7
99854.5
99856.5
99859
99861.8
99865.1
99868.9
99873.2
99878.2
99883.9
99890.6
99898.2
99907
99917.2
99928.8
99941.8
99956.1
99971.7
99988.9
100007
100024
100043
100059
100075
99844.1
99844.3
99844.6
99844.8
99845.2
99845.7
99846.2
99846.9
99847.6
99848.5
99849.6
99850.8
99852.3
99853.9
99855.9
99858.1
99860.8
99863.9
99867.3
99871.4
99875.9
99881.2
99887.2
99894.2
99902.3
99911.5
99921.9
99933.8
99947
99961.3
99976.9
99993.7
100011
100028
100045
100061
100076
99844.5
99844.7
99845
99845.3
99845.8
99846.3
99846.9
99847.6
99848.4
99849.4
99850.6
99851.9
99853.5
99855.3
99857.5
99860
99862.8
99866
99869.7
99874
99878.8
99884.4
99890.8
99898.2
99906.6
99916.2
99927
99939.1
99952.3
99966.6
99982.1
99998.4
100015
100031
100048
100062
100077
99845
99845.2
99845.6
99845.9
99846.4
99847
99847.7
99848.5
99849.4
99850.5
99851.7
99853.3
99855
99857
99859.3
99861.9
99864.9
99868.4
99872.3
99876.8
99882
99888
99894.7
99902.5
99911.3
99921.2
99932.3
99944.6
99957.8
99972
99987.3
100003
100019
100035
100050
100064
100077
99845.2
99845.5
99845.8
99846.2
99846.6
99847.1
99847.8
99848.5
99849.4
99850.4
99851.7
99853.1
99854.8
99856.6
99858.8
99861.2
99864
99867.3
99871
99875.2
99880
99885.5
99891.8
99899
99907.1
99916.3
99926.5
99937.8
99950.2
99963.4
99977.5
99992.4
100008
100023
100037
100052
100065
100078
99845.8
99846.1
99846.4
99846.9
99847.3
99848
99848.7
99849.5
99850.5
99851.7
99853.1
99854.6
99856.4
99858.4
99860.7
99863.4
99866.4
99869.9
99873.8
99878.4
99883.5
99889.4
99896
99903.6
99912.1
99921.5
99932.1
99943.6
99956
99969.1
99983
99997.4
100012
100026
100040
100054
100066
100078
99846.4
99846.7
99847.1
99847.6
99848.2
99848.9
99849.7
99850.7
99851.8
99853.1
99854.6
99856.2
99858.2
99860.4
99862.9
99865.7
99869
99872.7
99877
99881.8
99887.3
99893.6
99900.6
99908.5
99917.4
99927.1
99937.9
99949.5
99962
99974.8
99988.4
100002
100016
100030
100043
100055
100066
100078
99847.1
99847.5
99847.9
99848.5
99849.2
99850
99850.9
99852
99853.2
99854.6
99856.2
99858
99860.1
99862.5
99865.2
99868.3
99871.9
99875.9
99880.5
99885.7
99891.5
99898.1
99905.5
99913.8
99923
99933
99944
99955.6
99967.9
99980.4
99993.7
100007
100020
100033
100045
100057
100067
100078
99847.4
99847.9
99848.3
99848.9
99849.6
99850.4
99851.2
99852.3
99853.4
99854.8
99856.3
99858
99860
99862.3
99864.9
99867.9
99871.3
99875.1
99879.4
99884.3
99889.9
99896.1
99903.1
99910.8
99919.4
99929
99939.2
99950.2
99961.7
99973.8
99986
99998.8
100011
100024
100036
100047
100058
100068
100077
99848.3
99848.8
99849.4
99850
99850.8
99851.6
99852.6
99853.7
99855
99856.5
99858.2
99860.1
99862.3
99864.8
99867.6
99870.8
99874.5
99878.6
99883.3
99888.6
99894.5
99901
99908.4
99916.5
99925.5
99935.2
99945.5
99956.5
99967.9
99979.6
99991.5
100004
100016
100027
100038
100049
100059
100068
100077
99849.3
99849.9
99850.5
99851.2
99852
99853
99854.1
99855.3
99856.8
99858.4
99860.3
99862.4
99864.8
99867.5
99870.6
99874.1
99878.1
99882.5
99887.6
99893.2
99899.5
99906.4
99914.2
99922.6
99931.7
99941.6
99952
99962.9
99974
99985.3
99996.8
100008
100019
100030
100041
100050
100060
100068
100076
99849.8
99850.4
99851
99851.7
99852.5
99853.4
99854.5
99855.7
99857.1
99858.7
99860.5
99862.6
99864.9
99867.6
99870.6
99874
99877.8
99882.1
99886.9
99892.3
99898.2
99904.9
99912.2
99920.3
99928.9
99938.3
99948.2
99958.5
99969.2
99980
99990.9
100002
100013
100023
100033
100043
100052
100060
100068
100076
99850.9
99851.6
99852.3
99853.1
99854
99855
99856.2
99857.6
99859.2
99860.9
99863
99865.2
99867.8
99870.7
99874
99877.7
99881.8
99886.4
99891.6
99897.4
99903.8
99910.8
99918.4
99926.7
99935.6
99945
99954.9
99965.1
99975.5
99985.8
99996.3
100007
100017
100026
100036
100044
100053
100060
100067
100075
99851.5
99852.2
99852.9
99853.7
99854.6
99855.6
99856.8
99858.2
99859.7
99861.5
99863.4
99865.7
99868.2
99871
99874.2
99877.8
99881.8
99886.3
99891.3
99896.8
99903
99909.7
99917.1
99925
99933.5
99942.4
99951.9
99961.6
99971.5
99981.5
99991.5
100001
100011
100020
100029
100038
100046
100053
100061
100067
100074
99852.8
99853.6
99854.4
99855.3
99856.3
99857.5
99858.8
99860.4
99862.1
99864
99866.2
99868.7
99871.5
99874.6
99878.1
99882
99886.4
99891.2
99896.6
99902.5
99909
99916.1
99923.7
99931.8
99940.4
99949.4
99958.7
99968.3
99977.8
99987.4
99996.9
100006
100015
100024
100032
100040
100047
100054
100060
100067
100073
99854.3
99855.1
99856
99857.1
99858.3
99859.6
99861.1
99862.8
99864.8
99866.9
99869.4
99872.1
99875.2
99878.6
99882.5
99886.7
99891.4
99896.7
99902.4
99908.7
99915.5
99922.8
99930.7
99938.9
99947.5
99956.4
99965.6
99974.8
99983.9
99993
100002
100010
100019
100026
100034
100041
100048
100054
100060
100066
100072
99855.1
99856
99856.9
99857.9
99859.1
99860.5
99862
99863.7
99865.6
99867.8
99870.2
99872.9
99876
99879.3
99883.1
99887.3
99891.9
99897
99902.6
99908.7
99915.3
99922.4
99929.9
99937.9
99946.1
99954.7
99963.4
99972.3
99981
99989.7
99998.3
100006
100014
100022
100029
100036
100042
100049
100054
100060
100065
100070
99856
99856.9
99857.8
99858.9
99860.1
99861.4
99863
99864.7
99866.6
99868.8
99871.2
99873.9
99876.9
99880.3
99884
99888.1
99892.6
99897.7
99903.1
99909
99915.4
99922.3
99929.6
99937.2
99945.2
99953.4
99961.8
99970.3
99978.7
99987
99995.2
100003
100011
100018
100025
100031
100037
100043
100049
100054
100059
100064
100069
99857.8
99858.8
99859.9
99861.1
99862.5
99864.1
99865.8
99867.7
99869.9
99872.3
99875
99878
99881.4
99885
99889.1
99893.6
99898.5
99903.9
99909.7
99915.9
99922.5
99929.6
99937
99944.7
99952.6
99960.6
99968.8
99976.8
99984.8
99992.7
100000
100008
100014
100021
100027
100033
100039
100044
100049
100054
100059
100063
100068
99858.9
99859.9
99861.1
99862.3
99863.7
99865.3
99867
99869
99871.2
99873.6
99876.3
99879.3
99882.6
99886.3
99890.4
99894.9
99899.7
99904.9
99910.6
99916.7
99923.2
99930
99937.2
99944.6
99952.2
99960
99967.7
99975.5
99983.1
99990.6
99997.9
100005
100011
100018
100024
100029
100035
100040
100045
100049
100054
100058
100062
100066
99861.1
99862.3
99863.6
99865
99866.6
99868.4
99870.4
99872.6
99875.1
99877.8
99880.8
99884.1
99887.8
99891.9
99896.3
99901.1
99906.3
99911.8
99917.8
99924.1
99930.8
99937.6
99944.8
99952.2
99959.6
99967.1
99974.5
99981.8
99988.9
99996
100003
100009
100015
100021
100026
100031
100036
100040
100045
100049
100053
100057
100061
100064
99862.4
99863.7
99865
99866.5
99868.1
99869.9
99872
99874.2
99876.7
99879.5
99882.5
99885.9
99889.6
99893.6
99898
99902.8
99907.9
99913.3
99919.2
99925.3
99931.8
99938.5
99945.4
99952.5
99959.7
99966.8
99974
99980.9
99987.7
99994.4
100001
100007
100012
100018
100023
100028
100032
100037
100041
100045
100049
100052
100056
100059
100063
99863.8
99865.1
99866.5
99868
99869.7
99871.6
99873.7
99876
99878.5
99881.3
99884.4
99887.8
99891.5
99895.6
99899.9
99904.7
99909.7
99915.1
99920.8
99926.9
99933.2
99939.7
99946.4
99953.2
99960.1
99966.9
99973.7
99980.4
99986.8
99993.2
99999.3
100005
100010
100016
100020
100025
100029
100033
100037
100041
100045
100048
100052
100055
100058
100061
99865.4
99866.7
99868.2
99869.8
99871.5
99873.4
99875.6
99877.9
99880.5
99883.4
99886.5
99890
99893.7
99897.8
99902.1
99906.8
99911.8
99917.2
99922.8
99928.7
99934.8
99941.1
99947.6
99954.2
99960.7
99967.3
99973.8
99980.1
99986.3
99992.4
99998.2
100004
100009
100014
100018
100023
100027
100030
100034
100038
100041
100045
100048
100051
100054
100057
100060
99867.1
99868.5
99870
99871.7
99873.5
99875.5
99877.7
99880.1
99882.7
99885.6
99888.8
99892.3
99896.1
99900.2
99904.6
99909.2
99914.2
99919.5
99925
99930.8
99936.7
99942.8
99949.1
99955.4
99961.7
99967.9
99974.2
99980.2
99986.1
99991.9
99997.3
100002
100007
100012
100016
100021
100024
100028
100031
100035
100038
100041
100044
100047
100050
100053
100055
100058
99870.4
99872
99873.7
99875.6
99877.7
99879.9
99882.4
99885.1
99888.1
99891.4
99894.9
99898.7
99902.8
99907.2
99911.9
99916.8
99922
99927.4
99933.1
99938.9
99944.8
99950.8
99956.8
99962.9
99968.9
99974.7
99980.5
99986.1
99991.5
99996.7
100002
100006
100011
100015
100019
100022
100026
100029
100032
100035
100038
100041
100044
100046
100049
100051
100054
100056
99872.5
99874.2
99875.9
99877.9
99880
99882.4
99885
99887.8
99890.8
99894.2
99897.8
99901.6
99905.7
99910.1
99914.8
99919.6
99924.7
99930.1
99935.6
99941.2
99946.9
99952.7
99958.5
99964.3
99970
99975.6
99981
99986.4
99991.5
99996.4
100001
100005
100010
100013
100017
100021
100024
100027
100030
100033
100035
100038
100041
100043
100046
100048
100050
100052
100055
99874.7
99876.5
99878.4
99880.4
99882.6
99885.1
99887.7
99890.6
99893.8
99897.2
99900.8
99904.7
99908.8
99913.2
99917.8
99922.7
99927.7
99932.9
99938.3
99943.7
99949.3
99954.8
99960.3
99965.9
99971.3
99976.6
99981.8
99986.8
99991.6
99996.2
100001
100005
100009
100012
100016
100019
100022
100025
100028
100030
100033
100035
100038
100040
100042
100045
100047
100049
100051
100053
99875.4
99877.2
99879
99881
99883.1
99885.5
99888
99890.7
99893.7
99897
99900.4
99904.1
99908
99912.2
99916.6
99921.1
99925.9
99930.9
99935.9
99941.1
99946.4
99951.7
99957.1
99962.4
99967.6
99972.7
99977.7
99982.6
99987.4
99991.9
99996.2
100000
100004
100008
100011
100015
100018
100021
100023
100026
100029
100031
100033
100035
100038
100040
100042
100044
100046
100048
100050
100052
99878
99879.8
99881.8
99883.8
99886.1
99888.5
99891.1
99894
99897.1
99900.4
99903.9
99907.6
99911.6
99915.7
99920.1
99924.6
99929.3
99934.1
99939.1
99944.1
99949.2
99954.3
99959.4
99964.4
99969.4
99974.2
99979
99983.6
99988.1
99992.3
99996.3
100000
100004
100007
100011
100014
100017
100019
100022
100025
100027
100029
100031
100033
100035
100037
100039
100041
100043
100045
100047
100048
100050
99880.8
99882.7
99884.8
99886.9
99889.2
99891.8
99894.5
99897.5
99900.6
99904
99907.6
99911.3
99915.3
99919.4
99923.7
99928.2
99932.8
99937.6
99942.4
99947.2
99952.1
99957
99961.8
99966.6
99971.3
99975.9
99980.3
99984.7
99988.9
99992.8
99996.6
100000
100004
100007
100010
100013
100016
100018
100021
100023
100025
100027
100029
100031
100033
100035
100037
100039
100041
100042
100044
100046
100047
100049
99883.8
99885.8
99888
99890.2
99892.7
99895.3
99898.2
99901.2
99904.4
99907.8
99911.4
99915.2
99919.2
99923.3
99927.6
99932
99936.5
99941.1
99945.7
99950.4
99955.1
99959.7
99964.3
99968.8
99973.2
99977.6
99981.8
99985.8
99989.7
99993.4
99997
100000
100004
100007
100010
100012
100015
100017
100020
100022
100024
100026
100028
100030
100031
100033
100035
100037
100038
100040
100041
100043
100045
100046
100048
99887.1
99889.2
99891.4
99893.8
99896.3
99899.1
99902
99905.1
99908.4
99911.9
99915.5
99919.3
99923.2
99927.3
99931.5
99935.8
99940.2
99944.6
99949.1
99953.6
99958
99962.4
99966.8
99971
99975.2
99979.3
99983.2
99987
99990.6
99994.1
99997.4
100001
100004
100006
100009
100012
100014
100017
100019
100021
100023
100025
100026
100028
100030
100031
100033
100035
100036
100038
100039
100041
100042
100044
100045
100046
99888.4
99890.6
99892.8
99895.1
99897.6
99900.3
99903.1
99906.1
99909.3
99912.6
99916.1
99919.7
99923.5
99927.4
99931.4
99935.5
99939.7
99944
99948.2
99952.5
99956.8
99961
99965.2
99969.3
99973.3
99977.2
99981
99984.7
99988.2
99991.6
99994.8
99997.9
100001
100004
100006
100009
100011
100014
100016
100018
100020
100022
100024
100025
100027
100028
100030
100031
100033
100034
100036
100037
100039
100040
100041
100043
100044
100045
99892.1
99894.3
99896.6
99899
99901.6
99904.4
99907.3
99910.4
99913.6
99917
99920.5
99924.1
99927.8
99931.7
99935.6
99939.6
99943.6
99947.7
99951.8
99955.9
99959.9
99963.9
99967.9
99971.7
99975.5
99979.2
99982.7
99986.1
99989.4
99992.5
99995.6
99998.4
100001
100004
100006
100009
100011
100013
100015
100017
100019
100021
100023
100024
100026
100027
100029
100030
100031
100033
100034
100036
100037
100038
100039
100041
100042
100043
100044
99893.8
99896
99898.3
99900.7
99903.2
99905.9
99908.7
99911.7
99914.8
99918.1
99921.5
99924.9
99928.5
99932.2
99935.9
99939.8
99943.6
99947.5
99951.4
99955.3
99959.2
99963
99966.8
99970.5
99974.1
99977.6
99981
99984.3
99987.5
99990.6
99993.5
99996.3
99999
100002
100004
100006
100009
100011
100013
100015
100017
100018
100020
100022
100023
100025
100026
100027
100029
100030
100031
100033
100034
100035
100036
100038
100039
100040
100041
100042
100043
99897.9
99900.1
99902.5
99905
99907.6
99910.4
99913.3
99916.3
99919.4
99922.7
99926
99929.5
99933
99936.6
99940.3
99943.9
99947.6
99951.3
99955
99958.7
99962.4
99966
99969.5
99973
99976.4
99979.7
99982.9
99985.9
99988.9
99991.7
99994.5
99997.1
99999.6
100002
100004
100007
100009
100011
100013
100014
100016
100018
100019
100021
100022
100024
100025
100026
100028
100029
100030
100031
100033
100034
100035
100036
100037
100038
100039
100040
100041
100043
99899.9
99902.1
99904.5
99906.9
99909.5
99912.2
99915
99917.9
99921
99924.1
99927.4
99930.7
99934.1
99937.5
99941
99944.5
99948
99951.6
99955.1
99958.6
99962
99965.5
99968.9
99972.2
99975.4
99978.6
99981.7
99984.6
99987.5
99990.2
99992.9
99995.4
99997.9
100000
100002
100005
100007
100009
100011
100012
100014
100016
100017
100019
100020
100022
100023
100024
100026
100027
100028
100029
100030
100031
100033
100034
100035
100036
100037
100038
100039
100040
100041
100042
99902.1
99904.3
99906.6
99909
99911.5
99914.2
99916.9
99919.7
99922.7
99925.7
99928.8
99932
99935.3
99938.6
99941.9
99945.3
99948.7
99952
99955.4
99958.7
99962
99965.3
99968.4
99971.6
99974.7
99977.8
99980.7
99983.6
99986.3
99989
99991.5
99994
99996.4
99998.6
100001
100003
100005
100007
100009
100011
100012
100014
100015
100017
100018
100020
100021
100022
100024
100025
100026
100027
100028
100029
100030
100031
100033
100034
100035
100036
100036
100037
100038
100039
100040
100041
99906.6
99908.9
99911.3
99913.8
99916.3
99919
99921.7
99924.6
99927.5
99930.5
99933.6
99936.7
99939.9
99943.1
99946.3
99949.5
99952.7
99955.9
99959.1
99962.2
99965.3
99968.4
99971.3
99974.3
99977.2
99980
99982.7
99985.4
99987.9
99990.4
99992.8
99995.1
99997.3
99999.4
100001
100003
100005
100007
100009
100011
100012
100014
100015
100017
100018
100019
100021
100022
100023
100024
100025
100026
100027
100029
100030
100031
100032
100033
100033
100034
100035
100036
100037
100038
100039
100040
100041
99909.1
99911.4
99913.7
99916.1
99918.6
99921.2
99923.9
99926.6
99929.4
99932.3
99935.3
99938.3
99941.3
99944.4
99947.4
99950.5
99953.6
99956.6
99959.6
99962.6
99965.6
99968.5
99971.3
99974.1
99976.8
99979.5
99982.1
99984.6
99987.1
99989.5
99991.8
99994
99996.2
99998.2
100000
100002
100004
100006
100007
100009
100011
100012
100014
100015
100016
100018
100019
100020
100021
100023
100024
100025
100026
100027
100028
100029
100030
100031
100032
100033
100033
100034
100035
100036
100037
100038
100039
100039
100040
99911.7
99913.9
99916.2
99918.6
99921
99923.5
99926.1
99928.8
99931.5
99934.3
99937.1
99940
99942.9
99945.8
99948.7
99951.6
99954.6
99957.5
99960.3
99963.2
99966
99968.7
99971.5
99974.1
99976.7
99979.3
99981.7
99984.1
99986.5
99988.8
99991
99993.1
99995.2
99997.2
99999.2
100001
100003
100005
100006
100008
100009
100011
100012
100014
100015
100016
100018
100019
100020
100021
100022
100023
100024
100025
100026
100027
100028
100029
100030
100031
100032
100033
100033
100034
100035
100036
100037
100037
100038
100039
100040
99914.4
99916.6
99918.9
99921.2
99923.5
99926
99928.5
99931
99933.7
99936.3
99939
99941.8
99944.6
99947.3
99950.1
99952.9
99955.7
99958.4
99961.2
99963.9
99966.5
99969.2
99971.8
99974.3
99976.8
99979.2
99981.6
99983.9
99986.1
99988.3
99990.4
99992.5
99994.5
99996.4
99998.3
100000
100002
100004
100005
100007
100008
100010
100011
100013
100014
100015
100016
100018
100019
100020
100021
100022
100023
100024
100025
100026
100027
100028
100029
100029
100030
100031
100032
100033
100034
100034
100035
100036
100037
100037
100038
100039
100039
99917.3
99919.5
99921.6
99923.9
99926.2
99928.5
99930.9
99933.4
99935.9
99938.5
99941.1
99943.7
99946.3
99949
99951.6
99954.3
99956.9
99959.5
99962.1
99964.7
99967.2
99969.8
99972.2
99974.6
99977
99979.3
99981.5
99983.7
99985.9
99988
99990
99992
99993.9
99995.8
99997.6
99999.3
100001
100003
100004
100006
100007
100009
100010
100011
100013
100014
100015
100016
100018
100019
100020
100021
100022
100023
100024
100025
100026
100026
100027
100028
100029
100030
100031
100031
100032
100033
100034
100034
100035
100036
100036
100037
100038
100038
100039
99920.3
99922.4
99924.5
99926.7
99928.9
99931.2
99933.5
99935.9
99938.3
99940.7
99943.2
99945.7
99948.2
99950.7
99953.2
99955.8
99958.3
99960.7
99963.2
99965.7
99968.1
99970.5
99972.8
99975.1
99977.3
99979.5
99981.7
99983.8
99985.8
99987.8
99989.8
99991.7
99993.5
99995.3
99997
99998.7
100000
100002
100004
100005
100006
100008
100009
100011
100012
100013
100014
100015
100017
100018
100019
100020
100021
100022
100023
100024
100024
100025
100026
100027
100028
100029
100029
100030
100031
100032
100032
100033
100034
100034
100035
100036
100036
100037
100038
100038
100039
99923.4
99925.4
99927.5
99929.6
99931.7
99933.9
99936.1
99938.4
99940.7
99943
99945.4
99947.8
99950.1
99952.5
99954.9
99957.3
99959.7
99962
99964.4
99966.7
99969
99971.3
99973.5
99975.7
99977.8
99979.9
99982
99984
99985.9
99987.8
99989.7
99991.5
99993.3
99995
99996.7
99998.3
99999.9
100001
100003
100004
100006
100007
100009
100010
100011
100012
100013
100015
100016
100017
100018
100019
100020
100021
100022
100023
100023
100024
100025
100026
100027
100028
100028
100029
100030
100031
100031
100032
100033
100033
100034
100035
100035
100036
100036
100037
100038
100038
100039
99926.5
99928.5
99930.5
99932.5
99934.6
99936.7
99938.8
99941
99943.2
99945.4
99947.6
99949.9
99952.1
99954.4
99956.7
99958.9
99961.2
99963.4
99965.7
99967.9
99970.1
99972.2
99974.3
99976.4
99978.4
99980.4
99982.4
99984.3
99986.2
99988
99989.8
99991.5
99993.2
99994.9
99996.5
99998.1
99999.6
100001
100003
100004
100005
100007
100008
100009
100010
100012
100013
100014
100015
100016
100017
100018
100019
100020
100021
100022
100023
100023
100024
100025
100026
100027
100027
100028
100029
100030
100030
100031
100032
100032
100033
100033
100034
100035
100035
100036
100036
100037
100038
100038
100039
99929.8
99931.7
99933.6
99935.5
99937.5
99939.5
99941.5
99943.6
99945.7
99947.8
99949.9
99952
99954.2
99956.3
99958.5
99960.6
99962.8
99964.9
99967
99969.1
99971.2
99973.2
99975.2
99977.2
99979.1
99981
99982.9
99984.7
99986.5
99988.3
99990
99991.7
99993.3
99994.9
99996.4
99997.9
99999.4
100001
100002
100004
100005
100006
100007
100009
100010
100011
100012
100013
100014
100015
100016
100017
100018
100019
100020
100021
100022
100023
100023
100024
100025
100026
100027
100027
100028
100029
100029
100030
100031
100031
100032
100033
100033
100034
100034
100035
100035
100036
100036
100037
100037
100038
100039
99933.1
99934.9
99936.8
99938.6
99940.5
99942.4
99944.3
99946.2
99948.2
99950.2
99952.2
99954.2
99956.3
99958.3
99960.4
99962.4
99964.4
99966.5
99968.5
99970.4
99972.4
99974.3
99976.2
99978.1
99980
99981.8
99983.6
99985.3
99987
99988.7
99990.3
99991.9
99993.5
99995
99996.5
99997.9
99999.3
100001
100002
100003
100005
100006
100007
100008
100009
100011
100012
100013
100014
100015
100016
100017
100018
100019
100019
100020
100021
100022
100023
100024
100024
100025
100026
100026
100027
100028
100029
100029
100030
100030
100031
100032
100032
100033
100033
100034
100034
100035
100035
100036
100036
100037
100037
100038
100038
99934.7
99936.5
99938.2
99939.9
99941.7
99943.4
99945.2
99947
99948.9
99950.8
99952.7
99954.6
99956.5
99958.4
99960.4
99962.3
99964.2
99966.1
99968.1
99970
99971.8
99973.7
99975.5
99977.3
99979.1
99980.9
99982.6
99984.3
99985.9
99987.6
99989.2
99990.7
99992.3
99993.8
99995.2
99996.6
99998
99999.4
100001
100002
100003
100005
100006
100007
100008
100009
100010
100011
100012
100013
100014
100015
100016
100017
100018
100019
100020
100020
100021
100022
100023
100024
100024
100025
100026
100026
100027
100028
100028
100029
100030
100030
100031
100031
100032
100032
100033
100034
100034
100035
100035
100035
100036
100036
100037
100037
100038
100038
99938.2
99939.8
99941.5
99943.1
99944.7
99946.4
99948.1
99949.8
99951.6
99953.4
99955.2
99957
99958.8
99960.6
99962.4
99964.3
99966.1
99967.9
99969.7
99971.5
99973.3
99975.1
99976.8
99978.5
99980.2
99981.9
99983.5
99985.1
99986.7
99988.2
99989.8
99991.2
99992.7
99994.1
99995.5
99996.9
99998.2
99999.5
100001
100002
100003
100004
100006
100007
100008
100009
100010
100011
100012
100013
100014
100015
100016
100017
100017
100018
100019
100020
100021
100022
100022
100023
100024
100024
100025
100026
100026
100027
100028
100028
100029
100029
100030
100031
100031
100032
100032
100033
100033
100034
100034
100035
100035
100036
100036
100036
100037
100037
100038
100038
99941.7
99943.2
99944.8
99946.3
99947.8
99949.4
99951
99952.6
99954.3
99956
99957.7
99959.4
99961.1
99962.8
99964.6
99966.3
99968
99969.7
99971.4
99973.1
99974.8
99976.5
99978.1
99979.7
99981.3
99982.9
99984.5
99986
99987.5
99989
99990.4
99991.8
99993.2
99994.6
99995.9
99997.2
99998.5
99999.7
100001
100002
100003
100004
100006
100007
100008
100009
100010
100011
100012
100013
100014
100015
100015
100016
100017
100018
100019
100019
100020
100021
100022
100022
100023
100024
100024
100025
100026
100026
100027
100028
100028
100029
100029
100030
100030
100031
100031
100032
100032
100033
100033
100034
100034
100035
100035
100035
100036
100036
100037
100037
100038
100038
99945.2
99946.6
99948
99949.5
99950.9
99952.4
99953.9
99955.5
99957
99958.6
99960.2
99961.8
99963.4
99965.1
99966.7
99968.3
99969.9
99971.6
99973.2
99974.8
99976.3
99977.9
99979.5
99981
99982.5
99984
99985.5
99986.9
99988.3
99989.7
99991.1
99992.5
99993.8
99995.1
99996.4
99997.6
99998.8
100000
100001
100002
100003
100005
100006
100007
100008
100009
100010
100011
100012
100012
100013
100014
100015
100016
100017
100017
100018
100019
100020
100020
100021
100022
100023
100023
100024
100025
100025
100026
100026
100027
100027
100028
100029
100029
100030
100030
100031
100031
100032
100032
100032
100033
100033
100034
100034
100035
100035
100035
100036
100036
100037
100037
100037
100038
99947.3
99948.7
99950
99951.3
99952.6
99954
99955.4
99956.8
99958.3
99959.7
99961.2
99962.7
99964.2
99965.8
99967.3
99968.8
99970.4
99971.9
99973.4
99974.9
99976.4
99977.9
99979.4
99980.9
99982.3
99983.7
99985.1
99986.5
99987.9
99989.3
99990.6
99991.9
99993.2
99994.4
99995.7
99996.9
99998
99999.2
100000
100001
100003
100004
100005
100006
100007
100008
100009
100010
100010
100011
100012
100013
100014
100015
100016
100016
100017
100018
100019
100019
100020
100021
100021
100022
100023
100023
100024
100025
100025
100026
100026
100027
100027
100028
100028
100029
100029
100030
100030
100031
100031
100032
100032
100033
100033
100033
100034
100034
100034
100035
100035
100036
100036
100036
100037
100037
100037
99950.8
99952.1
99953.3
99954.5
99955.8
99957.1
99958.4
99959.7
99961.1
99962.4
99963.8
99965.2
99966.7
99968.1
99969.5
99971
99972.4
99973.8
99975.3
99976.7
99978.1
99979.5
99980.9
99982.3
99983.6
99985
99986.3
99987.6
99988.9
99990.2
99991.4
99992.7
99993.9
99995.1
99996.2
99997.4
99998.5
99999.6
100001
100002
100003
100004
100005
100006
100007
100008
100009
100010
100010
100011
100012
100013
100014
100014
100015
100016
100017
100017
100018
100019
100020
100020
100021
100022
100022
100023
100023
100024
100025
100025
100026
100026
100027
100027
100028
100028
100029
100029
100030
100030
100030
100031
100031
100032
100032
100032
100033
100033
100034
100034
100034
100035
100035
100035
100036
100036
100036
100037
100037
99954.3
99955.4
99956.6
99957.7
99958.9
99960.1
99961.3
99962.5
99963.8
99965.1
99966.4
99967.7
99969
99970.4
99971.7
99973.1
99974.4
99975.7
99977.1
99978.4
99979.7
99981.1
99982.4
99983.7
99984.9
99986.2
99987.5
99988.7
99989.9
99991.1
99992.3
99993.5
99994.6
99995.7
99996.8
99997.9
99999
100000
100001
100002
100003
100004
100005
100006
100007
100008
100009
100009
100010
100011
100012
100013
100013
100014
100015
100016
100016
100017
100018
100018
100019
100020
100020
100021
100022
100022
100023
100023
100024
100024
100025
100025
100026
100026
100027
100027
100028
100028
100029
100029
100030
100030
100030
100031
100031
100032
100032
100032
100033
100033
100033
100034
100034
100034
100035
100035
100035
100036
100036
100036
100037
99956.8
99957.8
99958.8
99959.8
99960.8
99961.9
99963
99964.1
99965.3
99966.5
99967.7
99968.9
99970.1
99971.4
99972.6
99973.9
99975.1
99976.4
99977.6
99978.9
99980.1
99981.4
99982.6
99983.8
99985
99986.2
99987.4
99988.6
99989.8
99990.9
99992
99993.1
99994.2
99995.3
99996.4
99997.4
99998.5
99999.5
100000
100001
100002
100003
100004
100005
100006
100007
100008
100009
100009
100010
100011
100012
100013
100013
100014
100015
100015
100016
100017
100017
100018
100019
100019
100020
100021
100021
100022
100022
100023
100023
100024
100024
100025
100025
100026
100026
100027
100027
100028
100028
100028
100029
100029
100030
100030
100030
100031
100031
100031
100032
100032
100032
100033
100033
100033
100034
100034
100034
100035
100035
100035
100036
100036
100036
99959.5
99960.3
99961.2
99962
99962.9
99963.8
99964.8
99965.8
99966.9
99968
99969.1
99970.2
99971.3
99972.5
99973.6
99974.8
99975.9
99977.1
99978.3
99979.4
99980.6
99981.8
99982.9
99984.1
99985.2
99986.4
99987.5
99988.6
99989.7
99990.8
99991.9
99992.9
99994
99995
99996
99997
99998
99999
99999.9
100001
100002
100003
100004
100004
100005
100006
100007
100008
100009
100009
100010
100011
100012
100012
100013
100014
100014
100015
100016
100016
100017
100018
100018
100019
100019
100020
100021
100021
100022
100022
100023
100023
100024
100024
100025
100025
100025
100026
100026
100027
100027
100028
100028
100028
100029
100029
100029
100030
100030
100030
100031
100031
100031
100032
100032
100032
100033
100033
100033
100034
100034
100034
100034
100035
100035
100035
100035
99963
99963.7
99964.5
99965.2
99966
99966.8
99967.7
99968.6
99969.6
99970.6
99971.6
99972.6
99973.7
99974.7
99975.8
99976.9
99978
99979
99980.1
99981.2
99982.3
99983.4
99984.5
99985.5
99986.6
99987.7
99988.7
99989.7
99990.8
99991.8
99992.8
99993.8
99994.8
99995.8
99996.7
99997.7
99998.6
99999.5
100000
100001
100002
100003
100004
100005
100005
100006
100007
100008
100009
100009
100010
100011
100011
100012
100013
100013
100014
100015
100015
100016
100017
100017
100018
100018
100019
100019
100020
100020
100021
100021
100022
100022
100023
100023
100024
100024
100025
100025
100026
100026
100026
100027
100027
100027
100028
100028
100029
100029
100029
100030
100030
100030
100030
100031
100031
100031
100032
100032
100032
100033
100033
100033
100033
100034
100034
100034
100034
100035
100035
99965.7
99966.3
99967
99967.6
99968.3
99969
99969.8
99970.5
99971.4
99972.2
99973.1
99974
99975
99975.9
99976.9
99977.9
99978.9
99979.9
99980.9
99981.9
99982.9
99983.9
99984.9
99985.9
99986.9
99987.9
99988.9
99989.9
99990.8
99991.8
99992.8
99993.7
99994.6
99995.5
99996.5
99997.4
99998.2
99999.1
100000
100001
100002
100002
100003
100004
100005
100006
100006
100007
100008
100009
100009
100010
100011
100011
100012