/*--------------------------------*- C++ -*----------------------------------*\
  =========                 |
  \\      /  F ield         | OpenFOAM: The Open Source CFD Toolbox
   \\    /   O peration     | Website:  https://openfoam.org
    \\  /    A nd           | Version:  10
     \\/     M anipulation  |
\*---------------------------------------------------------------------------*/
FoamFile
{
    format      ascii;
    class       surfaceScalarField;
    location    "0.001";
    object      phi;
}
// * * * * * * * * * * * * * * * * * * * * * * * * * * * * * * * * * * * * * //

dimensions      [1 0 -1 0 0 0 0];

internalField   nonuniform List<scalar> 
17531
(
-2.92805e-05
3.85384e-07
-2.96294e-05
3.64151e-07
-3.00716e-05
4.63083e-07
-3.05488e-05
4.89232e-07
-3.10693e-05
5.41895e-07
-3.17664e-05
7.0518e-07
-3.24497e-05
6.94503e-07
-3.32779e-05
8.38321e-07
-3.41395e-05
8.73179e-07
-3.51142e-05
9.84983e-07
-3.6267e-05
1.16324e-06
-3.74277e-05
1.17067e-06
-3.88545e-05
1.43913e-06
-4.03073e-05
1.46393e-06
-4.19647e-05
1.66934e-06
-4.38701e-05
1.91851e-06
-4.57975e-05
1.96043e-06
-4.81068e-05
2.3249e-06
-5.03359e-05
2.2545e-06
-5.29256e-05
2.59507e-06
-5.56328e-05
2.74022e-06
-5.84681e-05
2.84352e-06
-6.17533e-05
3.31293e-06
-6.51781e-05
3.4254e-06
-6.96758e-05
4.53502e-06
-7.48233e-05
5.14595e-06
-8.23949e-05
7.58059e-06
-9.14489e-05
9.05958e-06
-0.000102968
1.15258e-05
-0.000113818
1.08526e-05
-0.000125367
1.15523e-05
-0.000132561
7.19369e-06
-0.000135066
2.50467e-06
-0.000135832
7.6283e-07
-0.00011657
-1.92652e-05
-2.03608e-06
-8.58324e-05
1.63926e-06
-8.71201e-05
1.66336e-06
-8.85738e-05
1.93119e-06
-9.01168e-05
2.04216e-06
-9.18178e-05
2.25754e-06
-9.37002e-05
2.59508e-06
-9.57095e-05
2.71313e-06
-9.80242e-05
3.16193e-06
-0.000100466
3.32502e-06
-0.00010321
3.73811e-06
-0.000106206
4.16967e-06
-0.000109399
4.37245e-06
-0.000112979
5.03045e-06
-0.000116714
5.21018e-06
-0.000120899
5.86581e-06
-0.000125396
6.42785e-06
-0.000130176
6.76283e-06
-0.000135423
7.58497e-06
-0.000140813
7.66334e-06
-0.000146817
8.60869e-06
-0.000153056
9.00215e-06
-0.00015987
9.66882e-06
-0.000167257
1.07207e-05
-0.00017526
1.14361e-05
-0.000184235
1.35376e-05
-0.000193453
1.43708e-05
-0.000203378
1.75197e-05
-0.000212572
1.82628e-05
-0.000220378
1.93443e-05
-0.000224886
1.53674e-05
-0.000226221
1.28957e-05
-0.000223951
4.92804e-06
-0.000217082
-4.35952e-06
-0.000205444
-1.08753e-05
-0.000180703
-4.40057e-05
-1.6514e-05
-0.000114088
3.43462e-06
-0.00011597
3.54927e-06
-0.000118048
4.01464e-06
-0.000120235
4.23255e-06
-0.000122641
4.66925e-06
-0.000125225
5.18083e-06
-0.000127982
5.47267e-06
-0.000131036
6.2183e-06
-0.000134232
6.52367e-06
-0.000137792
7.30033e-06
-0.00014158
7.96017e-06
-0.000145625
8.41962e-06
-0.000150051
9.45913e-06
-0.000154663
9.82447e-06
-0.000159799
1.10031e-05
-0.000165204
1.18354e-05
-0.000170982
1.25496e-05
-0.000177227
1.38311e-05
-0.00018372
1.41609e-05
-0.000190904
1.57903e-05
-0.000198325
1.64299e-05
-0.000206446
1.77882e-05
-0.000214964
1.92431e-05
-0.000223861
2.03285e-05
-0.000232995
2.26784e-05
-0.000241569
2.29383e-05
-0.000249603
2.55526e-05
-0.0002556
2.42567e-05
-0.000259228
2.29712e-05
-0.000260036
1.61715e-05
-0.000257118
9.97566e-06
-0.000250202
-1.99177e-06
-0.000239033
-1.55308e-05
-0.000223772
-2.61395e-05
-0.000200462
-6.73183e-05
-3.57978e-05
-0.000135457
5.6241e-06
-0.000137755
5.8531e-06
-0.000140272
6.53805e-06
-0.000142911
6.8761e-06
-0.000145803
7.56796e-06
-0.000148879
8.26121e-06
-0.000152148
8.74704e-06
-0.000155716
9.78989e-06
-0.000159429
1.0242e-05
-0.00016354
1.14166e-05
-0.000167869
1.22934e-05
-0.000172479
1.30342e-05
-0.000177472
1.44579e-05
-0.000182655
1.50128e-05
-0.000188391
1.6745e-05
-0.000194369
1.78198e-05
-0.000200755
1.89453e-05
-0.000207595
2.06781e-05
-0.000214689
2.12627e-05
-0.000222451
2.35569e-05
-0.000230361
2.43502e-05
-0.000238875
2.63067e-05
-0.000247493
2.78705e-05
-0.000256083
2.89214e-05
-0.00026434
3.09468e-05
-0.000271657
3.02581e-05
-0.000277898
3.18009e-05
-0.000281982
2.83433e-05
-0.000283697
2.46917e-05
-0.000282776
1.52518e-05
-0.000277831
5.03434e-06
-0.000268968
-1.08555e-05
-0.00025601
-2.84869e-05
-0.000238825
-4.33259e-05
-0.000215637
-9.05065e-05
-5.75841e-05
-0.000156749
8.18106e-06
-0.000159429
8.53501e-06
-0.000162349
9.46104e-06
-0.000165396
9.92481e-06
-0.000168724
1.08984e-05
-0.000172238
1.17764e-05
-0.000175958
1.24686e-05
-0.000179985
1.38177e-05
-0.000184155
1.44129e-05
-0.00018875
1.6012e-05
-0.000193549
1.70937e-05
-0.000198641
1.81259e-05
-0.000204117
1.99345e-05
-0.00020977
2.06659e-05
-0.000215988
2.29632e-05
-0.000222412
2.42443e-05
-0.000229239
2.57758e-05
-0.000236483
2.79215e-05
-0.000243922
2.87027e-05
-0.000251944
3.15751e-05
-0.000259952
3.2361e-05
-0.00026837
3.47209e-05
-0.000276606
3.61064e-05
-0.000284529
3.6839e-05
-0.000291904
3.83226e-05
-0.000298169
3.65162e-05
-0.000303033
3.66623e-05
-0.000305734
3.10397e-05
-0.000306193
2.51477e-05
-0.000303658
1.27118e-05
-0.000297043
-1.58414e-06
-0.000286873
-2.10292e-05
-0.000272518
-4.2845e-05
-0.000253863
-6.19845e-05
-0.000230265
-0.000114106
-8.10371e-05
-0.000179292
1.11114e-05
-0.000182344
1.15913e-05
-0.000185654
1.27761e-05
-0.000189093
1.33675e-05
-0.000192833
1.46439e-05
-0.000196758
1.57052e-05
-0.000200896
1.66108e-05
-0.000205348
1.82728e-05
-0.000209931
1.90008e-05
-0.00021496
2.10436e-05
-0.000220174
2.23122e-05
-0.000225679
2.36343e-05
-0.000231559
2.58192e-05
-0.000237589
2.66995e-05
-0.000244179
2.95582e-05
-0.000250922
3.09913e-05
-0.000258031
3.28924e-05
-0.000265486
3.53804e-05
-0.000273041
3.62639e-05
-0.000281058
3.95938e-05
-0.000288892
4.02025e-05
-0.000296977
4.28073e-05
-0.000304728
4.38628e-05
-0.000311979
4.40909e-05
-0.000318431
4.47813e-05
-0.000323677
4.17625e-05
-0.000327562
4.05511e-05
-0.000329282
3.27597e-05
-0.000328479
2.43467e-05
-0.000324435
8.66723e-06
-0.000316448
-9.56989e-06
-0.000304969
-3.25106e-05
-0.000289263
-5.85511e-05
-0.000269302
-8.19474e-05
-0.000245117
-0.000138292
-0.000105851
-0.000203649
1.43941e-05
-0.000207065
1.50082e-05
-0.000210752
1.64656e-05
-0.000214563
1.71788e-05
-0.000218692
1.87745e-05
-0.000222998
2.00107e-05
-0.000227516
2.11297e-05
-0.000232348
2.31048e-05
-0.000237292
2.39465e-05
-0.000242692
2.64429e-05
-0.00024825
2.78702e-05
-0.000254086
2.94692e-05
-0.000260273
3.20059e-05
-0.000266568
3.29938e-05
-0.000273401
3.63912e-05
-0.000280313
3.79019e-05
-0.000287522
4.0103e-05
-0.000294981
4.28378e-05
-0.000302454
4.37355e-05
-0.000310304
4.74398e-05
-0.000317905
4.7803e-05
-0.000325598
5.04963e-05
-0.000332698
5.09607e-05
-0.00033919
5.05767e-05
-0.000344965
5.05543e-05
-0.00034955
4.63419e-05
-0.000352567
4.35654e-05
-0.000353217
3.3404e-05
-0.000351122
2.22495e-05
-0.000345699
3.23828e-06
-0.000336396
-1.88753e-05
-0.000323585
-4.53253e-05
-0.000306516
-7.56224e-05
-0.000285328
-0.000103138
-0.000260477
-0.000163145
-0.000131872
-0.000226508
1.68623e-05
-0.000230129
1.80197e-05
-0.000233889
1.87723e-05
-0.000237928
2.05085e-05
-0.000242076
2.13304e-05
-0.000246551
2.32546e-05
-0.000251188
2.46499e-05
-0.000256029
2.59753e-05
-0.000261175
2.8254e-05
-0.000266406
2.9181e-05
-0.00027209
3.21296e-05
-0.000277892
3.36765e-05
-0.000283946
3.55256e-05
-0.000290307
3.8371e-05
-0.000296719
3.94081e-05
-0.000303627
4.3303e-05
-0.000310544
4.48221e-05
-0.00031772
4.72845e-05
-0.000325098
5.02191e-05
-0.000332477
5.11187e-05
-0.000340132
5.50965e-05
-0.000347302
5.4977e-05
-0.000354431
5.76261e-05
-0.000361038
5.75716e-05
-0.000367108
5.66456e-05
-0.000372345
5.57948e-05
-0.000376194
5.01903e-05
-0.000378264
4.56383e-05
-0.000377822
3.29608e-05
-0.000374449
1.88775e-05
-0.00036768
-3.53327e-06
-0.000357048
-2.95072e-05
-0.000342854
-5.95214e-05
-0.000324409
-9.40681e-05
-0.000302044
-0.000125506
-0.00027648
-0.000188711
-0.000158998
-0.000254941
2.06301e-05
-0.000258856
2.19369e-05
-0.000262919
2.28353e-05
-0.000267258
2.48483e-05
-0.000271686
2.57587e-05
-0.000276443
2.80117e-05
-0.000281336
2.95427e-05
-0.000286418
3.10581e-05
-0.000291786
3.36209e-05
-0.0002972
3.45957e-05
-0.000303049
3.79768e-05
-0.000308966
3.95933e-05
-0.000315104
4.16623e-05
-0.000321511
4.47774e-05
-0.000327931
4.58254e-05
-0.000334829
5.02e-05
-0.000341716
5.1708e-05
-0.000348903
5.44711e-05
-0.00035623
5.75435e-05
-0.000363333
5.82206e-05
-0.000370578
6.23376e-05
-0.000377419
6.18171e-05
-0.000384289
6.44916e-05
-0.000390572
6.38514e-05
-0.000396188
6.22567e-05
-0.0004008
6.04045e-05
-0.000403851
5.32354e-05
-0.000404928
4.67129e-05
-0.000403352
3.13804e-05
-0.000398651
1.41737e-05
-0.000390486
-1.17022e-05
-0.000378471
-4.15241e-05
-0.000362846
-7.51498e-05
-0.000343016
-0.0001139
-0.00031951
-0.000149015
-0.000293204
-0.000215018
-0.000187154
-0.000285662
2.46486e-05
-0.000289815
2.60934e-05
-0.000294118
2.71425e-05
-0.000298688
2.94218e-05
-0.000303322
3.03959e-05
-0.000308276
3.29694e-05
-0.000313336
3.46048e-05
-0.000318562
3.6288e-05
-0.000324044
3.9106e-05
-0.000329536
4.00909e-05
-0.000335444
4.38868e-05
-0.000341386
4.55388e-05
-0.000347541
4.7819e-05
-0.000353962
5.1202e-05
-0.000360403
5.22683e-05
-0.000367374
5.71744e-05
-0.000374295
5.86311e-05
-0.000381324
6.15046e-05
-0.000388358
6.45794e-05
-0.000395263
6.51296e-05
-0.00040238
6.9455e-05
-0.000409049
6.84899e-05
-0.000415668
7.11109e-05
-0.000421568
6.97533e-05
-0.000426672
6.73602e-05
-0.000430598
6.43325e-05
-0.000432779
5.5415e-05
-0.000432777
4.67121e-05
-0.000429968
2.85706e-05
-0.000423838
8.04439e-06
-0.000414186
-2.13559e-05
-0.00040071
-5.50007e-05
-0.000383607
-9.22557e-05
-0.000362387
-0.00013512
-0.000337768
-0.000173636
-0.000310703
-0.000242085
-0.00021628
-0.000318625
2.88657e-05
-0.000322957
3.04257e-05
-0.000327434
3.16192e-05
-0.00033216
3.41481e-05
-0.000336923
3.5158e-05
-0.000341992
3.80378e-05
-0.000347132
3.97436e-05
-0.000352417
4.15737e-05
-0.000357939
4.46265e-05
-0.000363451
4.56026e-05
-0.000369383
4.98176e-05
-0.000375352
5.15069e-05
-0.000381562
5.40278e-05
-0.000388093
5.77324e-05
-0.000394629
5.88015e-05
-0.000401515
6.40593e-05
-0.000408225
6.53399e-05
-0.000415149
6.84277e-05
-0.000422152
7.15811e-05
-0.000429007
7.19828e-05
-0.000436013
7.64577e-05
-0.000442488
7.49635e-05
-0.000448811
7.74302e-05
-0.000454284
7.52237e-05
-0.000458808
7.18806e-05
-0.000461956
6.74771e-05
-0.000463152
5.66072e-05
-0.000461939
4.54964e-05
-0.000457758
2.43864e-05
-0.00045007
3.54818e-07
-0.000438926
-3.25029e-05
-0.000423798
-7.01311e-05
-0.00040517
-0.000110886
-0.000382557
-0.000157735
-0.000356852
-0.000199343
-0.000329017
-0.000269921
-0.000246321
-0.00035386
3.32228e-05
-0.000358312
3.48816e-05
-0.000362898
3.62084e-05
-0.000367714
3.89677e-05
-0.000372539
3.99846e-05
-0.000377655
4.31576e-05
-0.000382819
4.49093e-05
-0.000388124
4.68824e-05
-0.000393666
5.01716e-05
-0.000399212
5.11521e-05
-0.000405219
5.58259e-05
-0.000411312
5.76035e-05
-0.000417653
6.03704e-05
-0.000424142
6.42243e-05
-0.000430525
6.51863e-05
-0.00043736
7.08976e-05
-0.000444105
7.20866e-05
-0.000451066
7.53917e-05
-0.000458063
7.85806e-05
-0.000464858
7.87801e-05
-0.000471729
8.33308e-05
-0.000477979
8.12148e-05
-0.000483957
8.34088e-05
-0.00048893
8.01979e-05
-0.000492771
7.5722e-05
-0.000495006
6.97127e-05
-0.000495065
5.66653e-05
-0.000492473
4.29052e-05
-0.000486756
1.86684e-05
-0.000477365
-9.03642e-06
-0.000464607
-4.52627e-05
-0.000447752
-8.69864e-05
-0.000427566
-0.000131074
-0.00040356
-0.000181743
-0.000376789
-0.000226115
-0.000348185
-0.000298526
-0.000277227
-0.000391483
3.7653e-05
-0.000396001
3.94002e-05
-0.00040064
4.08471e-05
-0.00040549
4.38173e-05
-0.000410325
4.48186e-05
-0.000415454
4.82857e-05
-0.000420627
5.00812e-05
-0.000425969
5.22249e-05
-0.000431584
5.57855e-05
-0.000437261
5.68288e-05
-0.00044341
6.19731e-05
-0.000449479
6.36727e-05
-0.000455706
6.65957e-05
-0.000462176
7.06935e-05
-0.000468636
7.16446e-05
-0.000475562
7.78228e-05
-0.000482369
7.88926e-05
-0.000489365
8.23874e-05
-0.00049634
8.55538e-05
-0.000503053
8.54916e-05
-0.000509756
9.00317e-05
-0.000515726
8.71834e-05
-0.000521277
8.89569e-05
-0.00052564
8.45582e-05
-0.000528656
7.87354e-05
-0.00052981
7.08642e-05
-0.00052855
5.54026e-05
-0.000524393
3.87461e-05
-0.000516968
1.12407e-05
-0.000505729
-2.0277e-05
-0.000491249
-5.97452e-05
-0.000472609
-0.000105628
-0.00045084
-0.000152845
-0.000425443
-0.000207141
-0.000397609
-0.00025395
-0.000368238
-0.000327898
-0.000308944
-0.000427218
3.9704e-05
-0.000431668
4.21011e-05
-0.000436199
4.39346e-05
-0.000440839
4.54899e-05
-0.000445682
4.8664e-05
-0.000450512
4.96505e-05
-0.000455667
5.34443e-05
-0.000460902
5.53183e-05
-0.000466378
5.77042e-05
-0.000472122
6.15318e-05
-0.000477779
6.24883e-05
-0.00048383
6.8027e-05
-0.000489899
6.97437e-05
-0.000496234
7.29332e-05
-0.000502825
7.72867e-05
-0.000509395
7.82168e-05
-0.000516419
8.4849e-05
-0.000523282
8.57578e-05
-0.000530299
8.94075e-05
-0.000537229
9.24859e-05
-0.000543821
9.2085e-05
-0.000550292
9.65043e-05
-0.000555894
9.27866e-05
-0.000560893
9.39569e-05
-0.000564493
8.81582e-05
-0.0005665
8.07424e-05
-0.000566372
7.07367e-05
-0.000563595
5.26248e-05
-0.000557684
3.28349e-05
-0.000548384
1.94029e-06
-0.000535155
-3.35074e-05
-0.000518848
-7.60525e-05
-0.000498377
-0.0001261
-0.000475011
-0.000176212
-0.00044824
-0.000233914
-0.000419368
-0.000282824
-0.000389196
-0.000358071
-0.000341403
-0.000470157
4.39765e-05
-0.000474572
4.65197e-05
-0.000479084
4.84458e-05
-0.000483706
5.01119e-05
-0.000488556
5.35132e-05
-0.000493434
5.45275e-05
-0.000498712
5.87225e-05
-0.00050405
6.06555e-05
-0.0005095
6.3154e-05
-0.000515151
6.71818e-05
-0.000520818
6.81553e-05
-0.000526995
7.42031e-05
-0.000533201
7.59498e-05
-0.000539686
7.94167e-05
-0.000546412
8.40127e-05
-0.000553095
8.48986e-05
-0.000560212
9.19656e-05
-0.00056712
9.26646e-05
-0.000574133
9.64203e-05
-0.000580974
9.93253e-05
-0.000587377
9.84868e-05
-0.000593517
0.000102643
-0.000598621
9.78895e-05
-0.0006029
9.82337e-05
-0.000605539
9.07958e-05
-0.000606316
8.15162e-05
-0.000604682
6.91006e-05
-0.000600174
4.81156e-05
-0.000592308
2.49666e-05
-0.000580955
-9.41492e-06
-0.000565735
-4.87285e-05
-0.000547414
-9.4375e-05
-0.000525054
-0.000148461
-0.000500086
-0.000201181
-0.000471962
-0.00026204
-0.00044208
-0.000312707
-0.000411098
-0.000389055
-0.000374542
-0.000516025
4.81987e-05
-0.000520405
5.08982e-05
-0.000524919
5.29637e-05
-0.000529586
5.47817e-05
-0.000534537
5.8467e-05
-0.000539486
5.94788e-05
-0.000544718
6.39571e-05
-0.000549962
6.59022e-05
-0.000555435
6.86303e-05
-0.000561211
7.29604e-05
-0.000567026
7.39726e-05
-0.000573373
8.05525e-05
-0.00057974
8.23187e-05
-0.000586383
8.60623e-05
-0.00059325
9.08814e-05
-0.000600043
9.16939e-05
-0.00060724
9.91643e-05
-0.000614163
9.95902e-05
-0.000621122
0.000103381
-0.0006278
0.000106005
-0.00063391
0.000104598
-0.000639578
0.000108312
-0.000644011
0.000102323
-0.000647357
0.00010158
-0.000648804
9.22427e-05
-0.000648104
8.08164e-05
-0.000644718
6.57133e-05
-0.000638234
4.16317e-05
-0.000628192
1.4924e-05
-0.000614643
-2.2965e-05
-0.00059729
-6.60822e-05
-0.000576894
-0.000114771
-0.00055264
-0.000172717
-0.000526085
-0.000227737
-0.000496639
-0.000291487
-0.000465763
-0.000343584
-0.000433982
-0.000420837
-0.000408295
-0.000565124
5.23871e-05
-0.000569554
5.53317e-05
-0.000574163
5.75721e-05
-0.000578866
5.94848e-05
-0.000583737
6.33376e-05
-0.000588588
6.433e-05
-0.000593848
6.92159e-05
-0.000599212
7.12666e-05
-0.000604843
7.42609e-05
-0.000610792
7.89085e-05
-0.00061678
7.99611e-05
-0.000623314
8.70858e-05
-0.000629852
8.88568e-05
-0.000636659
9.28684e-05
-0.000643661
9.78829e-05
-0.000650546
9.8579e-05
-0.000657787
0.000106404
-0.000664671
0.000106474
-0.000671493
0.000110203
-0.000677895
0.000112406
-0.000683565
0.000110267
-0.000688575
0.00011332
-0.00069212
0.000105867
-0.000694286
0.000103745
-0.000694285
9.224e-05
-0.000691831
7.83602e-05
-0.000686402
6.02823e-05
-0.000677706
3.29346e-05
-0.000665283
2.49895e-06
-0.000649381
-3.88682e-05
-0.000629807
-8.56573e-05
-0.000607295
-0.000137285
-0.000581153
-0.00019886
-0.000553036
-0.000255855
-0.000522307
-0.000322217
-0.00049046
-0.000375432
-0.000457906
-0.000453392
-0.000442652
-0.000613712
5.54475e-05
-0.000617961
5.66374e-05
-0.000622402
5.97713e-05
-0.000626899
6.20728e-05
-0.000631501
6.40894e-05
-0.000636395
6.8234e-05
-0.000641358
6.92954e-05
-0.000646773
7.46335e-05
-0.000652307
7.68028e-05
-0.000658124
8.00809e-05
-0.000664267
8.50531e-05
-0.000670446
8.61425e-05
-0.000677177
9.38188e-05
-0.000683889
9.55715e-05
-0.000690849
9.98304e-05
-0.000697962
0.000104998
-0.000704898
0.000105517
-0.000712118
0.000113626
-0.000718874
0.000113232
-0.000725436
0.000116767
-0.000731403
0.000118374
-0.000736438
0.000115304
-0.000740556
0.000117438
-0.000742963
0.000108275
-0.000743671
0.000104453
-0.000741908
9.04762e-05
-0.000737391
7.38428e-05
-0.000729654
5.25445e-05
-0.000718496
2.17761e-05
-0.000703513
-1.24857e-05
-0.000685257
-5.71245e-05
-0.000663278
-0.000107638
-0.00063863
-0.000161934
-0.000610615
-0.000226875
-0.000580971
-0.000285501
-0.000548999
-0.00035419
-0.000516206
-0.000408227
-0.000482903
-0.000486696
-0.000477602
-0.000670507
5.96744e-05
-0.000674583
6.07172e-05
-0.000678936
6.41277e-05
-0.000683451
6.6589e-05
-0.000688155
6.87936e-05
-0.000693192
7.32708e-05
-0.000698316
7.44192e-05
-0.00070392
8.02381e-05
-0.00070965
8.25324e-05
-0.000715676
8.61068e-05
-0.000722029
9.14064e-05
-0.000728407
9.25201e-05
-0.000735334
0.000100746
-0.000742207
0.000102444
-0.00074929
0.000106914
-0.000756466
0.000112173
-0.000763381
0.000112431
-0.00077048
0.000120725
-0.000776975
0.000119727
-0.000783105
0.000122896
-0.000788428
0.000123697
-0.00079259
0.000119465
-0.000795548
0.000120395
-0.000796519
0.000109245
-0.00079541
0.000103343
-0.00079156
8.66246e-05
-0.000784662
6.69431e-05
-0.000774335
4.22168e-05
-0.000760499
7.93803e-06
-0.000742802
-3.01839e-05
-0.000722084
-7.78432e-05
-0.00069767
-0.000132053
-0.000670909
-0.000188696
-0.000641055
-0.00025673
-0.000609925
-0.000316632
-0.000576751
-0.000387365
-0.000543035
-0.000441944
-0.000509008
-0.000520725
-0.000513135
-0.000731329
6.37455e-05
-0.000735417
6.48056e-05
-0.000739874
6.85839e-05
-0.000744514
7.12321e-05
-0.000749371
7.36537e-05
-0.000754588
7.84906e-05
-0.000759903
7.97369e-05
-0.000765726
8.60626e-05
-0.000771673
8.8482e-05
-0.000777922
9.23573e-05
-0.000784491
9.79781e-05
-0.000791062
9.90922e-05
-0.000798166
0.000107852
-0.000805163
0.000109443
-0.000812312
0.000114064
-0.000819468
0.000119331
-0.000826253
0.000119218
-0.000833084
0.000127556
-0.000839135
0.000125779
-0.000844611
0.000128373
-0.000849039
0.000128126
-0.00085205
0.000122477
-0.000853504
0.000121848
-0.000852671
0.000108412
-0.000849387
0.000100058
-0.000843085
8.03223e-05
-0.000833486
5.73428e-05
-0.000820312
2.90418e-05
-0.000803615
-8.7603e-06
-0.00078311
-5.06895e-05
-0.000759846
-0.000101108
-0.000732992
-0.000158908
-0.000704155
-0.000217535
-0.000672508
-0.000288378
-0.000639937
-0.000349204
-0.000605599
-0.000421704
-0.000570967
-0.000476577
-0.000536275
-0.000555418
-0.000549267
-0.000792822
6.33155e-05
-0.000796963
6.78905e-05
-0.000801175
6.90201e-05
-0.000805782
7.31959e-05
-0.000810585
7.60361e-05
-0.000815631
7.87007e-05
-0.000821061
8.39202e-05
-0.000826594
8.52705e-05
-0.000832653
9.2122e-05
-0.00083883
9.46591e-05
-0.000845302
9.88293e-05
-0.000852077
0.000104753
-0.000858813
0.000105828
-0.000866048
0.000115088
-0.000873103
0.000116497
-0.000880224
0.000121186
-0.000887237
0.000126344
-0.000893732
0.000125712
-0.000900091
0.000133915
-0.000905467
0.000131155
-0.000910023
0.000132928
-0.000913255
0.000131358
-0.000914734
0.000123955
-0.000914296
0.000121409
-0.000911265
0.000105381
-0.0009054
9.41923e-05
-0.000896297
7.1218e-05
-0.000883705
4.47495e-05
-0.000867459
1.27945e-05
-0.000847763
-2.84581e-05
-0.000824456
-7.39973e-05
-0.000798535
-0.000127031
-0.000769264
-0.00018818
-0.000738399
-0.000248401
-0.000705015
-0.000321763
-0.00067105
-0.000383171
-0.000635587
-0.000457169
-0.000600068
-0.000512097
-0.000564698
-0.00059079
-0.000585978
-0.000863784
6.72657e-05
-0.000868032
7.21399e-05
-0.000872395
7.33853e-05
-0.000877188
7.79884e-05
-0.000882189
8.104e-05
-0.000887454
8.39683e-05
-0.000893118
8.95869e-05
-0.000898884
9.10376e-05
-0.000905186
9.84259e-05
-0.000911586
0.000101061
-0.000918262
0.000105507
-0.000925208
0.000111701
-0.000932055
0.000112677
-0.000939343
0.000122377
-0.000946349
0.000123504
-0.000953302
0.00012814
-0.000959992
0.000133034
-0.000965981
0.000131702
-0.000971619
0.000139554
-0.000976041
0.000135578
-0.000979336
0.000136223
-0.000980957
0.000132979
-0.000980507
0.000123504
-0.000977723
0.000118625
-0.000972065
9.97219e-05
-0.000963224
8.5351e-05
-0.000950994
5.89862e-05
-0.000935151
2.89053e-05
-0.000915655
-6.70221e-06
-0.000892841
-5.12733e-05
-0.000866685
-0.000100154
-0.000838133
-0.000155584
-0.000806508
-0.000219807
-0.000773677
-0.000281233
-0.000738621
-0.000356821
-0.000703313
-0.000418481
-0.00066676
-0.000493723
-0.000630383
-0.000548475
-0.000594309
-0.000626865
-0.000623251
-0.000936637
6.9667e-05
-0.000940684
7.13121e-05
-0.000945083
7.65426e-05
-0.000949646
7.79509e-05
-0.000954654
8.30007e-05
-0.000959879
8.62668e-05
-0.000965382
8.94718e-05
-0.000971292
9.54975e-05
-0.000977288
9.70351e-05
-0.000983821
0.000104959
-0.000990418
0.000107659
-0.000997252
0.000112341
-0.0010043
0.000118751
-0.00101117
0.000119544
-0.00101839
0.000129595
-0.00102518
0.000130303
-0.00103177
0.000134725
-0.0010379
0.000139166
-0.00104312
0.000136925
-0.00104773
0.000144166
-0.00105081
0.000138658
-0.00105242
0.000137827
-0.00105198
0.000132544
-0.00104912
0.000120639
-0.00104352
0.000113025
-0.00103481
9.10135e-05
-0.00102262
7.31618e-05
-0.00100697
4.33352e-05
-0.000987663
9.59415e-06
-0.000964801
-2.95654e-05
-0.000938935
-7.71406e-05
-0.000909818
-0.000129273
-0.000878673
-0.00018673
-0.000844764
-0.000253717
-0.000810039
-0.000315959
-0.000773377
-0.000393484
-0.00073677
-0.000455089
-0.000699146
-0.000531348
-0.000661959
-0.000585664
-0.000625153
-0.000663672
-0.00066109
-0.00101995
7.3781e-05
-0.00102413
7.54926e-05
-0.00102874
8.11573e-05
-0.00103353
8.27411e-05
-0.00103877
8.82428e-05
-0.00104424
9.17346e-05
-0.00104998
9.52179e-05
-0.00105613
0.000101647
-0.00106234
0.000103244
-0.00106906
0.000111685
-0.0010758
0.000114396
-0.00108271
0.000119253
-0.00108975
0.000125796
-0.0010965
0.00012629
-0.00110346
0.000136557
-0.00110983
0.000136673
-0.00111579
0.00014069
-0.00112108
0.000144454
-0.0011252
0.000141046
-0.00112834
0.000147301
-0.00112964
0.000139955
-0.00112905
0.000137239
-0.00112603
0.000129529
-0.00112026
0.000114861
-0.00111137
0.000104141
-0.00109922
7.8855e-05
-0.00108335
5.72915e-05
-0.00106403
2.40219e-05
-0.00104111
-1.33362e-05
-0.00101479
-5.58778e-05
-0.000985842
-0.000106093
-0.000953829
-0.000161288
-0.000920182
-0.000220378
-0.00088408
-0.000289821
-0.000847538
-0.000352503
-0.000809336
-0.000431688
-0.000771475
-0.000492951
-0.000732805
-0.000570021
-0.000694809
-0.000623661
-0.000657261
-0.000701222
-0.000699506
-0.00111044
7.80171e-05
-0.00111481
7.98583e-05
-0.00111967
8.60184e-05
-0.00112469
8.77663e-05
-0.00113017
9.37305e-05
-0.00113588
9.74374e-05
-0.00114184
0.000101187
-0.0011482
0.000108003
-0.00115457
0.000109611
-0.00116141
0.00011853
-0.00116819
0.000121172
-0.00117504
0.000126112
-0.00118191
0.000132667
-0.00118833
0.000132707
-0.00119479
0.000143015
-0.00120045
0.000142338
-0.00120548
0.00014572
-0.00120953
0.000148499
-0.00121208
0.000143598
-0.00121326
0.000148481
-0.00121223
0.000138919
-0.00120889
0.0001339
-0.00120275
0.000123394
-0.00119356
0.000105672
-0.00118095
9.15245e-05
-0.00116498
6.28852e-05
-0.00114516
3.74674e-05
-0.001122
8.68905e-07
-0.00109537
-3.99721e-05
-0.00106571
-8.55366e-05
-0.00103361
-0.000138194
-0.000998771
-0.000196131
-0.000962712
-0.000256439
-0.000924513
-0.000328021
-0.000886234
-0.000390784
-0.000846558
-0.000471365
-0.000807484
-0.000532026
-0.000767801
-0.000609704
-0.000728958
-0.000662506
-0.000690659
-0.000739522
-0.000738519
-0.00120442
7.78936e-05
-0.00120884
8.24399e-05
-0.00121343
8.44527e-05
-0.00121854
9.11283e-05
-0.00122379
9.30199e-05
-0.0012295
9.94414e-05
-0.00123541
0.00010335
-0.00124156
0.000107336
-0.00124805
0.000114498
-0.00125449
0.000116048
-0.00126133
0.000125375
-0.00126799
0.000127834
-0.0012746
0.000132723
-0.00128106
0.000139127
-0.00128688
0.000138528
-0.00129253
0.000148664
-0.00129714
0.000146949
-0.00130077
0.000149347
-0.00130308
0.000150804
-0.00130353
0.000144051
-0.00130215
0.0001471
-0.00129819
0.000134958
-0.00129152
0.000127228
-0.00128172
0.000113596
-0.00126864
9.25947e-05
-0.00125189
7.47729e-05
-0.00123182
4.28087e-05
-0.00120784
1.34861e-05
-0.00118075
-2.62201e-05
-0.00115042
-7.03014e-05
-0.00111739
-0.000118574
-0.00108224
-0.000173343
-0.00104469
-0.000233681
-0.00100632
-0.000294807
-0.000966125
-0.00036822
-0.000926187
-0.000430723
-0.000885096
-0.000512457
-0.00084483
-0.000572293
-0.000804187
-0.000650348
-0.000764457
-0.000702239
-0.000725377
-0.000778602
-0.000778156
-0.00130697
7.84222e-05
-0.0013113
8.22301e-05
-0.00131591
8.70478e-05
-0.00132073
8.92692e-05
-0.00132607
9.64698e-05
-0.00133152
9.8472e-05
-0.00133741
0.000105343
-0.00134347
0.000109408
-0.00134971
0.000113577
-0.00135623
0.000121018
-0.00136259
0.000122409
-0.00136925
0.000132031
-0.00137556
0.000134153
-0.00138166
0.000138816
-0.00138741
0.000144876
-0.0013923
0.00014342
-0.00139672
0.000153081
-0.00139975
0.000149982
-0.00140145
0.000151051
-0.00140141
0.00015076
-0.00139913
0.00014177
-0.00139454
0.000142509
-0.00138704
0.000127458
-0.00137645
0.000116641
-0.00136248
9.96204e-05
-0.00134509
7.52039e-05
-0.00132388
5.3561e-05
-0.00129948
1.84112e-05
-0.00127123
-1.47667e-05
-0.00124016
-5.72898e-05
-0.00120625
-0.000104214
-0.00116988
-0.000154946
-0.0011318
-0.000211428
-0.00109167
-0.000273812
-0.00105111
-0.000335368
-0.00100901
-0.000410315
-0.000967482
-0.000472256
-0.000925026
-0.000554914
-0.000883588
-0.00061373
-0.000841972
-0.000691967
-0.000801336
-0.000742876
-0.000761441
-0.0008185
-0.000818454
-0.00142315
8.26669e-05
-0.00142762
8.6708e-05
-0.00143243
9.18506e-05
-0.00143745
9.42947e-05
-0.00144297
0.000101995
-0.00144856
0.000104065
-0.00145456
0.000111344
-0.00146066
0.000115503
-0.00146685
0.000119769
-0.00147322
0.000127386
-0.00147928
0.000128474
-0.00148548
0.000138232
-0.00149116
0.000139827
-0.0014964
0.000144057
-0.00150105
0.000149529
-0.00150451
0.000146881
-0.00150713
0.000155702
-0.00150801
0.00015086
-0.00150711
0.000150157
-0.00150403
0.000147679
-0.00149834
0.000136077
-0.00148987
0.000134039
-0.00147822
0.000115803
-0.00146317
0.000101589
-0.00144456
8.10118e-05
-0.00142251
5.31592e-05
-0.00139661
2.76597e-05
-0.00136778
-1.04286e-05
-0.00133522
-4.73201e-05
-0.00130033
-9.21887e-05
-0.00126282
-0.00014172
-0.00122325
-0.000194518
-0.00118238
-0.000252302
-0.00113981
-0.00031638
-0.00109718
-0.000378002
-0.00105329
-0.00045421
-0.00101022
-0.000515328
-0.00096642
-0.00059871
-0.000923832
-0.00065632
-0.000881183
-0.000734617
-0.000839612
-0.00078445
-0.000798881
-0.000859232
-0.000859468
-0.00154521
8.35575e-05
-0.00154958
8.70379e-05
-0.00155421
9.13421e-05
-0.00155919
9.68356e-05
-0.00156436
9.94572e-05
-0.00156998
0.00010762
-0.0015756
0.000109688
-0.00158157
0.000117313
-0.00158752
0.000121459
-0.00159345
0.000125696
-0.0015994
0.000133335
-0.00160487
0.000133938
-0.00161027
0.000143639
-0.00161492
0.000144479
-0.00161885
0.000147988
-0.00162181
0.000152484
-0.00162326
0.000148335
-0.00162341
0.00015585
-0.00162141
0.000148852
-0.00161718
0.000145927
-0.00161032
0.000140824
-0.00160052
0.000126275
-0.00158751
0.000121024
-0.00157113
9.94189e-05
-0.00155113
8.15944e-05
-0.00152754
5.74129e-05
-0.0015006
2.62259e-05
-0.00146989
-3.05327e-06
-0.00143658
-4.37404e-05
-0.00139983
-8.40733e-05
-0.00136115
-0.00013087
-0.00132021
-0.000182662
-0.00127761
-0.000237121
-0.0012341
-0.000295808
-0.00118923
-0.000361249
-0.00114463
-0.000422608
-0.00109901
-0.00049983
-0.00105444
-0.000559899
-0.00100931
-0.000643842
-0.000965613
-0.000700019
-0.000921871
-0.00077836
-0.00087932
-0.000827002
-0.000837708
-0.000900845
-0.000901257
-0.00168272
8.7891e-05
-0.00168718
9.15083e-05
-0.00169193
9.60921e-05
-0.00169701
0.000101915
-0.0017022
0.000104646
-0.00170778
0.0001132
-0.00171326
0.000115171
-0.00171898
0.000123026
-0.00172453
0.000127013
-0.00172988
0.000131047
-0.00173506
0.000138517
-0.00173954
0.00013842
-0.00174371
0.000147806
-0.00174677
0.000147539
-0.00174875
0.000149964
-0.00174937
0.0001531
-0.00174806
0.000147027
-0.00174494
0.00015273
-0.00173926
0.00014317
-0.00173091
0.000137578
-0.00171953
0.000129447
-0.00170494
0.000111681
-0.00168678
0.000102861
-0.00166518
7.78202e-05
-0.00163988
5.62926e-05
-0.00161106
2.85873e-05
-0.00157912
-5.71311e-06
-0.00154358
-3.85902e-05
-0.00150588
-8.14459e-05
-0.00146507
-0.00012488
-0.00142274
-0.000173205
-0.00137854
-0.000226861
-0.00133308
-0.000282581
-0.00128709
-0.000341797
-0.00124005
-0.000408293
-0.00119356
-0.000469098
-0.00114628
-0.000547114
-0.00110024
-0.000605936
-0.0010538
-0.000690287
-0.00100891
-0.00074491
-0.000964057
-0.000823214
-0.00092048
-0.000870582
-0.000877928
-0.000943398
-0.000943893
-0.00182799
8.58141e-05
-0.00183236
9.22694e-05
-0.00183686
9.60006e-05
-0.00184162
0.000100861
-0.00184664
0.00010694
-0.00185167
0.00010967
-0.00185699
0.000118517
-0.00186206
0.000120241
-0.0018672
0.00012817
-0.00187199
0.000131801
-0.00187637
0.000135429
-0.00188034
0.000142483
-0.00188331
0.000141386
-0.00188555
0.000150037
-0.00188634
0.000148334
-0.00188562
0.000149237
-0.00188306
0.000150537
-0.00187815
0.000142121
-0.0018709
0.000145483
-0.00186072
0.000132986
-0.00184747
0.000124323
-0.00183085
0.000112829
-0.00181085
9.16869e-05
-0.00178704
7.90465e-05
-0.00175987
5.06455e-05
-0.00172903
2.54539e-05
-0.00169488
-5.56539e-06
-0.00165793
-4.26632e-05
-0.00161764
-7.88817e-05
-0.00157575
-0.000123335
-0.00153102
-0.000169614
-0.00148523
-0.000218992
-0.00143797
-0.000274122
-0.00138983
-0.000330727
-0.0013415
-0.00039013
-0.00129239
-0.000457405