/*--------------------------------*- C++ -*----------------------------------*\
  =========                 |
  \\      /  F ield         | OpenFOAM: The Open Source CFD Toolbox
   \\    /   O peration     | Website:  https://openfoam.org
    \\  /    A nd           | Version:  8
     \\/     M anipulation  |
\*---------------------------------------------------------------------------*/
FoamFile
{
    version     2.0;
    format      ascii;
    class       volScalarField;
    location    "1.75";
    object      nut;
}
// * * * * * * * * * * * * * * * * * * * * * * * * * * * * * * * * * * * * * //

dimensions      [0 2 -1 0 0 0 0];

internalField   nonuniform List<scalar> 
115200
(
0.000213357
0.000219947
0.000226095
0.000231858
0.000237295
0.000242462
0.000247412
0.000252188
0.000256805
0.000261237
0.000265424
0.000269324
0.00027294
0.000276288
0.000279379
0.000282226
0.00028484
0.000287231
0.000289409
0.000291381
0.000293155
0.000294734
0.000296121
0.000297316
0.000298315
0.000299107
0.000299679
0.000300016
0.000300138
0.000300163
0.000300087
0.000299915
0.000299653
0.000299303
0.000298868
0.000298351
0.000297752
0.000297074
0.000296318
0.000295486
0.000294578
0.000293596
0.00029254
0.000291411
0.000290211
0.00028894
0.000287599
0.000286188
0.000284709
0.000283161
0.000281545
0.000279862
0.000278111
0.000276294
0.000274411
0.000272461
0.000270445
0.000268364
0.000266216
0.000264002
0.000261722
0.000259375
0.000256961
0.00025448
0.000251931
0.000249313
0.000246626
0.000243869
0.00024104
0.000238139
0.000235163
0.000232112
0.000228984
0.000225776
0.000222486
0.000219112
0.000215651
0.0002121
0.000208454
0.000204708
0.000200858
0.000196897
0.000192821
0.000188621
0.000184289
0.000179817
0.000175193
0.000170405
0.000165438
0.000160275
0.000154896
0.000149279
0.000143398
0.000137236
0.000130792
0.000124138
0.000117533
0.000111605
0.000107332
0.000105179
0.00034436
0.000342669
0.000340445
0.000337774
0.000334795
0.000331722
0.000328905
0.000326903
0.000326511
0.000328431
0.000332107
0.000336091
0.000340042
0.000343953
0.000347832
0.000351688
0.000355528
0.000359362
0.000363197
0.000367044
0.00037091
0.000374807
0.000378747
0.000382743
0.000386805
0.000390921
0.000395083
0.000399301
0.00040355
0.00040772
0.000411823
0.000415863
0.000419842
0.000423761
0.000427623
0.000431429
0.000435179
0.000438876
0.000442519
0.000446109
0.000449646
0.000453132
0.000456565
0.000459947
0.000463277
0.000466556
0.000469783
0.000472959
0.000476084
0.000479158
0.00048218
0.000485151
0.000488071
0.00049094
0.000493757
0.000496522
0.000499236
0.000501898
0.000504509
0.000507067
0.000509574
0.000512028
0.00051443
0.00051678
0.000519077
0.000521321
0.000523513
0.000525652
0.000527739
0.000529773
0.000531754
0.000533683
0.00053556
0.000537385
0.00053916
0.000540885
0.000542563
0.000544196
0.000545784
0.000547319
0.000548802
0.000550232
0.000551612
0.00055294
0.000554219
0.00055545
0.000556633
0.000557771
0.000558864
0.000559915
0.000560923
0.000561886
0.000562805
0.000563675
0.000564487
0.000565223
0.000565857
0.000566353
0.000566682
0.000566851
0.00053058
0.000543292
0.000555973
0.000568636
0.000581282
0.000593911
0.000606512
0.000619066
0.000631537
0.00064387
0.000656004
0.000667906
0.000679576
0.000691026
0.000702263
0.000713297
0.000724135
0.000734786
0.000745255
0.000755548
0.00076567
0.000775622
0.000785406
0.00079502
0.000804464
0.00081376
0.000822931
0.000831978
0.000840899
0.000849691
0.000858352
0.000866883
0.000875286
0.000883561
0.00089171
0.000899735
0.000907637
0.000915416
0.000923075
0.000930612
0.000938031
0.00094533
0.00095251
0.000959572
0.000966515
0.000973341
0.000980048
0.000986638
0.00099311
0.000999465
0.0010057
0.00101182
0.00101782
0.0010237
0.00102947
0.00103511
0.00104064
0.00104605
0.00105134
0.00105651
0.00106157
0.0010665
0.00107131
0.00107601
0.00108058
0.00108503
0.00108936
0.00109357
0.00109766
0.00110162
0.00110547
0.00110919
0.00111279
0.00111626
0.00111961
0.00112284
0.00112595
0.00112893
0.00113179
0.00113453
0.00113714
0.00113963
0.00114199
0.00114424
0.00114635
0.00114835
0.00115022
0.00115197
0.0011536
0.00115512
0.00115651
0.00115778
0.00115892
0.00115993
0.00116081
0.00116156
0.00116217
0.00116264
0.00116297
0.00116316
0.000868427
0.000890292
0.000911706
0.000932695
0.000953271
0.00097344
0.000993211
0.0010126
0.00103161
0.00105026
0.00106858
0.00108658
0.00110428
0.00112168
0.0011388
0.00115565
0.00117222
0.00118854
0.00120461
0.00122043
0.00123601
0.00125137
0.0012665
0.00128142
0.00129613
0.00131063
0.00132492
0.00133902
0.00135291
0.0013666
0.00138009
0.00139339
0.00140649
0.0014194
0.00143212
0.00144464
0.00145698
0.00146913
0.00148109
0.00149286
0.00150445
0.00151585
0.00152707
0.0015381
0.00154895
0.00155961
0.00157009
0.00158038
0.00159049
0.00160042
0.00161016
0.00161972
0.00162909
0.00163828
0.00164728
0.00165609
0.00166472
0.00167316
0.00168142
0.00168949
0.00169738
0.00170508
0.00171259
0.00171991
0.00172705
0.00173399
0.00174075
0.00174731
0.00175369
0.00175987
0.00176586
0.00177166
0.00177727
0.00178269
0.00178791
0.00179294
0.00179778
0.00180242
0.00180687
0.00181113
0.00181519
0.00181905
0.00182272
0.0018262
0.00182948
0.00183257
0.00183546
0.00183816
0.00184065
0.00184296
0.00184506
0.00184697
0.00184868
0.00185018
0.00185149
0.0018526
0.0018535
0.00185419
0.00185468
0.00185497
0.00126971
0.00129856
0.0013269
0.00135476
0.00138215
0.0014091
0.00143561
0.00146169
0.00148737
0.00151266
0.00153756
0.00156208
0.00158625
0.00161005
0.00163352
0.00165664
0.00167943
0.00170188
0.00172401
0.00174582
0.00176731
0.00178851
0.0018094
0.00183001
0.00185032
0.00187035
0.00189011
0.00190959
0.00192879
0.00194773
0.0019664
0.0019848
0.00200293
0.00202081
0.00203842
0.00205577
0.00207286
0.00208969
0.00210626
0.00212258
0.00213864
0.00215444
0.00216999
0.00218528
0.00220032
0.0022151
0.00222963
0.0022439
0.00225791
0.00227167
0.00228517
0.00229842
0.0023114
0.00232413
0.00233661
0.00234882
0.00236078
0.00237247
0.00238391
0.00239509
0.002406
0.00241666
0.00242705
0.00243718
0.00244705
0.00245666
0.002466
0.00247507
0.00248388
0.00249243
0.00250071
0.00250872
0.00251647
0.00252395
0.00253116
0.0025381
0.00254477
0.00255117
0.00255731
0.00256317
0.00256877
0.00257409
0.00257914
0.00258392
0.00258843
0.00259267
0.00259664
0.00260033
0.00260375
0.00260689
0.00260976
0.00261236
0.00261468
0.00261672
0.00261849
0.00261998
0.00262119
0.00262212
0.00262278
0.00262316
0.00171971
0.0017558
0.00179137
0.00182642
0.00186096
0.001895
0.00192856
0.00196164
0.00199426
0.00202641
0.00205812
0.00208938
0.00212022
0.00215062
0.00218061
0.00221019
0.00223937
0.00226815
0.00229653
0.00232454
0.00235216
0.00237942
0.0024063
0.00243282
0.00245898
0.00248479
0.00251025
0.00253535
0.00256012
0.00258454
0.00260862
0.00263237
0.00265577
0.00267884
0.00270158
0.00272398
0.00274605
0.00276779
0.0027892
0.00281027
0.00283102
0.00285143
0.00287152
0.00289127
0.0029107
0.00292979
0.00294856
0.00296699
0.00298509
0.00300287
0.00302031
0.00303741
0.00305419
0.00307063
0.00308674
0.00310251
0.00311795
0.00313306
0.00314782
0.00316225
0.00317635
0.0031901
0.00320351
0.00321659
0.00322932
0.00324172
0.00325377
0.00326548
0.00327684
0.00328786
0.00329854
0.00330887
0.00331886
0.0033285
0.00333779
0.00334674
0.00335533
0.00336358
0.00337148
0.00337903
0.00338623
0.00339308
0.00339958
0.00340573
0.00341153
0.00341697
0.00342206
0.0034268
0.00343118
0.00343521
0.00343889
0.00344221
0.00344518
0.00344779
0.00345004
0.00345193
0.00345347
0.00345465
0.00345548
0.00345595
0.00221635
0.00225975
0.00230254
0.00234478
0.00238648
0.00242765
0.00246829
0.00250841
0.00254801
0.00258712
0.00262572
0.00266383
0.00270145
0.00273859
0.00277526
0.00281145
0.00284718
0.00288245
0.00291727
0.00295164
0.00298557
0.00301905
0.0030521
0.00308472
0.00311691
0.00314867
0.00318001
0.00321093
0.00324144
0.00327153
0.0033012
0.00333047
0.00335932
0.00338776
0.0034158
0.00344342
0.00347064
0.00349745
0.00352386
0.00354985
0.00357545
0.00360063
0.00362541
0.00364978
0.00367375
0.00369731
0.00372046
0.0037432
0.00376554
0.00378746
0.00380898
0.00383009
0.00385078
0.00387106
0.00389093
0.00391039
0.00392943
0.00394806
0.00396627
0.00398407
0.00400145
0.00401841
0.00403495
0.00405107
0.00406677
0.00408205
0.0040969
0.00411133
0.00412534
0.00413893
0.00415208
0.00416481
0.00417712
0.00418899
0.00420044
0.00421146
0.00422205
0.00423221
0.00424193
0.00425123
0.00426009
0.00426852
0.00427651
0.00428407
0.0042912
0.00429789
0.00430415
0.00430997
0.00431535
0.0043203
0.00432481
0.00432888
0.00433252
0.00433571
0.00433847
0.00434079
0.00434266
0.0043441
0.0043451
0.00434566
0.00275658
0.00280732
0.00285743
0.00290694
0.00295588
0.00300425
0.00305206
0.00309931
0.00314601
0.00319215
0.00323775
0.0032828
0.00332732
0.0033713
0.00341475
0.00345768
0.00350008
0.00354196
0.00358333
0.00362418
0.00366453
0.00370437
0.0037437
0.00378254
0.00382088
0.00385872
0.00389607
0.00393293
0.0039693
0.00400518
0.00404058
0.00407548
0.00410991
0.00414385
0.0041773
0.00421027
0.00424276
0.00427476
0.00430629
0.00433732
0.00436788
0.00439795
0.00442753
0.00445664
0.00448525
0.00451338
0.00454103
0.00456819
0.00459486
0.00462104
0.00464673
0.00467193
0.00469664
0.00472086
0.00474458
0.00476782
0.00479055
0.00481279
0.00483453
0.00485578
0.00487652
0.00489677
0.00491651
0.00493575
0.00495449
0.00497273
0.00499045
0.00500768
0.00502439
0.0050406
0.0050563
0.00507149
0.00508617
0.00510033
0.00511399
0.00512713
0.00513976
0.00515187
0.00516347
0.00517455
0.00518511
0.00519516
0.00520469
0.0052137
0.00522219
0.00523016
0.00523761
0.00524454
0.00525095
0.00525684
0.00526221
0.00526705
0.00527137
0.00527517
0.00527844
0.00528119
0.00528342
0.00528512
0.0052863
0.00528696
0.00333857
0.00339674
0.00345425
0.00351112
0.00356738
0.00362304
0.00367809
0.00373255
0.00378641
0.00383967
0.00389234
0.00394442
0.00399591
0.00404681
0.00409713
0.00414686
0.00419602
0.00424459
0.00429259
0.00434001
0.00438686
0.00443314
0.00447885
0.00452399
0.00456857
0.00461258
0.00465603
0.00469891
0.00474123
0.004783
0.0048242
0.00486484
0.00490492
0.00494445
0.00498341
0.00502181
0.00505966
0.00509694
0.00513366
0.00516982
0.00520542
0.00524046
0.00527494
0.00530885
0.0053422
0.00537498
0.00540719
0.00543884
0.00546992
0.00550043
0.00553037
0.00555974
0.00558854
0.00561676
0.0056444
0.00567147
0.00569797
0.00572388
0.00574921
0.00577397
0.00579814
0.00582172
0.00584473
0.00586714
0.00588897
0.00591021
0.00593087
0.00595093
0.0059704
0.00598928
0.00600756
0.00602525
0.00604234
0.00605884
0.00607474
0.00609004
0.00610474
0.00611884
0.00613235
0.00614524
0.00615754
0.00616923
0.00618032
0.00619081
0.00620069
0.00620996
0.00621863
0.00622669
0.00623414
0.00624099
0.00624723
0.00625286
0.00625788
0.00626229
0.00626609
0.00626928
0.00627187
0.00627384
0.0062752
0.00627596
0.00396117
0.00402686
0.00409184
0.00415615
0.0042198
0.0042828
0.00434517
0.00440689
0.00446797
0.00452841
0.00458821
0.00464737
0.00470589
0.00476377
0.00482101
0.0048776
0.00493357
0.00498889
0.00504357
0.00509762
0.00515103
0.00520381
0.00525595
0.00530745
0.00535833
0.00540856
0.00545817
0.00550714
0.00555548
0.00560318
0.00565025
0.00569668
0.00574249
0.00578765
0.00583218
0.00587608
0.00591934
0.00596196
0.00600394
0.00604529
0.00608599
0.00612605
0.00616547
0.00620425
0.00624238
0.00627987
0.00631671
0.0063529
0.00638844
0.00642333
0.00645757
0.00649115
0.00652408
0.00655635
0.00658796
0.00661892
0.00664921
0.00667884
0.00670781
0.00673612
0.00676375
0.00679072
0.00681702
0.00684265
0.00686761
0.00689189
0.0069155
0.00693843
0.00696069
0.00698227
0.00700317
0.00702339
0.00704292
0.00706178
0.00707995
0.00709744
0.00711424
0.00713035
0.00714578
0.00716052
0.00717457
0.00718793
0.0072006
0.00721257
0.00722386
0.00723445
0.00724435
0.00725356
0.00726207
0.00726988
0.007277
0.00728343
0.00728916
0.00729419
0.00729853
0.00730217
0.00730512
0.00730736
0.00730891
0.00730977
0.00462355
0.00469682
0.00476934
0.00484114
0.00491224
0.00498265
0.00505237
0.00512141
0.00518976
0.00525742
0.00532439
0.00539067
0.00545626
0.00552115
0.00558535
0.00564885
0.00571166
0.00577377
0.00583518
0.00589589
0.0059559
0.00601521
0.00607382
0.00613173
0.00618893
0.00624544
0.00630124
0.00635633
0.00641072
0.0064644
0.00651738
0.00656965
0.00662121
0.00667206
0.0067222
0.00677162
0.00682033
0.00686833
0.00691561
0.00696217
0.00700802
0.00705314
0.00709754
0.00714122
0.00718417
0.0072264
0.00726789
0.00730866
0.00734869
0.007388
0.00742656
0.00746439
0.00750149
0.00753784
0.00757345
0.00760832
0.00764244
0.00767582
0.00770845
0.00774033
0.00777145
0.00780183
0.00783145
0.00786032
0.00788842
0.00791577
0.00794236
0.00796819
0.00799325
0.00801755
0.00804109
0.00806385
0.00808585
0.00810708
0.00812754
0.00814723
0.00816615
0.00818429
0.00820166
0.00821825
0.00823406
0.0082491
0.00826336
0.00827684
0.00828954
0.00830146
0.0083126
0.00832296
0.00833254
0.00834133
0.00834935
0.00835657
0.00836302
0.00836868
0.00837356
0.00837765
0.00838096
0.00838349
0.00838523
0.00838619
0.00532506
0.00540598
0.00548609
0.00556544
0.00564403
0.00572189
0.00579902
0.00587541
0.00595106
0.00602598
0.00610016
0.00617359
0.00624628
0.00631821
0.0063894
0.00645983
0.00652951
0.00659843
0.00666659
0.00673399
0.00680062
0.00686649
0.00693159
0.00699593
0.00705949
0.00712228
0.00718429
0.00724553
0.007306
0.00736568
0.00742459
0.00748271
0.00754005
0.0075966
0.00765237
0.00770735
0.00776153
0.00781493
0.00786752
0.00791933
0.00797033
0.00802053
0.00806994
0.00811853
0.00816632
0.00821331
0.00825948
0.00830484
0.00834939
0.00839312
0.00843604
0.00847813
0.0085194
0.00855985
0.00859948
0.00863827
0.00867624
0.00871338
0.00874968
0.00878515
0.00881978
0.00885358
0.00888653
0.00891865
0.00894992
0.00898034
0.00900992
0.00903865
0.00906654
0.00909357
0.00911975
0.00914507
0.00916954
0.00919316
0.00921591
0.00923781
0.00925885
0.00927903
0.00929834
0.00931679
0.00933438
0.0093511
0.00936696
0.00938195
0.00939607
0.00940933
0.00942172
0.00943323
0.00944388
0.00945366
0.00946256
0.0094706
0.00947776
0.00948406
0.00948948
0.00949403
0.0094977
0.00950051
0.00950244
0.0095035
0.00606523
0.00615385
0.00624161
0.00632854
0.00641468
0.00650003
0.00658459
0.00666837
0.00675136
0.00683356
0.00691497
0.00699558
0.00707538
0.00715439
0.00723258
0.00730996
0.00738652
0.00746227
0.00753719
0.00761129
0.00768456
0.007757
0.0078286
0.00789937
0.0079693
0.00803839
0.00810663
0.00817403
0.00824058
0.00830627
0.00837112
0.0084351
0.00849823
0.00856049
0.0086219
0.00868243
0.0087421
0.0088009
0.00885882
0.00891587
0.00897204
0.00902733
0.00908174
0.00913526
0.0091879
0.00923965
0.0092905
0.00934047
0.00938953
0.0094377
0.00948496
0.00953133
0.00957679
0.00962134
0.00966498
0.00970771
0.00974953
0.00979043
0.00983041
0.00986947
0.00990761
0.00994483
0.00998112
0.0100165
0.0100509
0.0100844
0.010117
0.0101486
0.0101793
0.0102091
0.0102379
0.0102658
0.0102928
0.0103188
0.0103438
0.0103679
0.0103911
0.0104133
0.0104346
0.0104549
0.0104742
0.0104927
0.0105101
0.0105266
0.0105422
0.0105567
0.0105704
0.0105831
0.0105948
0.0106055
0.0106153
0.0106242
0.0106321
0.010639
0.0106449
0.01065
0.010654
0.0106571
0.0106592
0.0106604
0.00684371
0.00694007
0.00703551
0.00713009
0.0072238
0.00731668
0.00740871
0.0074999
0.00759026
0.00767976
0.00776842
0.00785622
0.00794316
0.00802924
0.00811445
0.00819879
0.00828225
0.00836483
0.00844653
0.00852733
0.00860724
0.00868625
0.00876436
0.00884157
0.00891786
0.00899325
0.00906772
0.00914127
0.0092139
0.00928561
0.00935638
0.00942623
0.00949514
0.00956312
0.00963016
0.00969625
0.00976139
0.00982559
0.00988884
0.00995113
0.0100125
0.0100728
0.0101323
0.0101907
0.0102482
0.0103047
0.0103602
0.0104148
0.0104684
0.010521
0.0105726
0.0106232
0.0106728
0.0107215
0.0107691
0.0108158
0.0108614
0.0109061
0.0109498
0.0109924
0.0110341
0.0110747
0.0111143
0.0111529
0.0111905
0.0112271
0.0112627
0.0112972
0.0113307
0.0113632
0.0113947
0.0114251
0.0114545
0.0114829
0.0115103
0.0115366
0.0115619
0.0115861
0.0116093
0.0116315
0.0116526
0.0116727
0.0116918
0.0117098
0.0117267
0.0117427
0.0117576
0.0117714
0.0117842
0.0117959
0.0118066
0.0118163
0.0118249
0.0118324
0.0118389
0.0118444
0.0118488
0.0118522
0.0118545
0.0118557
0.00766021
0.00776437
0.00786754
0.00796979
0.00807112
0.00817154
0.00827108
0.00836971
0.00846744
0.00856427
0.0086602
0.0087552
0.00884929
0.00894246
0.0090347
0.009126
0.00921636
0.00930577
0.00939423
0.00948174
0.00956829
0.00965387
0.00973848
0.00982212
0.00990478
0.00998646
0.0100671
0.0101468
0.0102255
0.0103033
0.01038
0.0104557
0.0105303
0.010604
0.0106767
0.0107483
0.0108189
0.0108885
0.0109571
0.0110246
0.0110911
0.0111565
0.0112209
0.0112843
0.0113466
0.0114078
0.011468
0.0115272
0.0115853
0.0116423
0.0116982
0.0117531
0.0118069
0.0118596
0.0119113
0.0119619
0.0120114
0.0120598
0.0121071
0.0121533
0.0121984
0.0122425
0.0122854
0.0123273
0.012368
0.0124077
0.0124462
0.0124836
0.01252
0.0125552
0.0125893
0.0126222
0.0126541
0.0126849
0.0127145
0.012743
0.0127704
0.0127967
0.0128218
0.0128459
0.0128687
0.0128905
0.0129112
0.0129307
0.012949
0.0129663
0.0129824
0.0129974
0.0130112
0.013024
0.0130356
0.013046
0.0130553
0.0130635
0.0130705
0.0130765
0.0130812
0.0130849
0.0130874
0.0130888
0.00851456
0.00862654
0.00873749
0.00884744
0.00895641
0.00906442
0.00917147
0.00927757
0.0093827
0.00948687
0.00959007
0.00969229
0.00979354
0.00989379
0.00999306
0.0100913
0.0101886
0.0102848
0.0103801
0.0104743
0.0105674
0.0106596
0.0107507
0.0108407
0.0109297
0.0110177
0.0111046
0.0111904
0.0112752
0.0113589
0.0114415
0.011523
0.0116035
0.0116828
0.0117611
0.0118382
0.0119143
0.0119893
0.0120631
0.0121358
0.0122075
0.012278
0.0123473
0.0124156
0.0124827
0.0125487
0.0126135
0.0126772
0.0127398
0.0128012
0.0128614
0.0129206
0.0129785
0.0130353
0.0130909
0.0131454
0.0131987
0.0132508
0.0133018
0.0133516
0.0134002
0.0134476
0.0134939
0.0135389
0.0135828
0.0136255
0.013667
0.0137073
0.0137464
0.0137843
0.013821
0.0138566
0.0138909
0.013924
0.0139559
0.0139866
0.0140161
0.0140444
0.0140714
0.0140973
0.0141219
0.0141454
0.0141676
0.0141886
0.0142084
0.0142269
0.0142443
0.0142604
0.0142753
0.014289
0.0143015
0.0143127
0.0143228
0.0143316
0.0143391
0.0143455
0.0143506
0.0143546
0.0143573
0.0143587
0.00940661
0.00952646
0.00964521
0.00976289
0.00987954
0.00999515
0.0101097
0.0102233
0.0103359
0.0104474
0.0105579
0.0106673
0.0107757
0.0108831
0.0109894
0.0110946
0.0111987
0.0113018
0.0114038
0.0115047
0.0116045
0.0117032
0.0118007
0.0118972
0.0119925
0.0120868
0.0121798
0.0122718
0.0123626
0.0124522
0.0125407
0.0126281
0.0127143
0.0127993
0.0128831
0.0129658
0.0130473
0.0131275
0.0132067
0.0132846
0.0133613
0.0134368
0.0135111
0.0135842
0.0136561
0.0137268
0.0137963
0.0138645
0.0139315
0.0139973
0.0140619
0.0141252
0.0141872
0.0142481
0.0143077
0.014366
0.0144231
0.0144789
0.0145335
0.0145868
0.0146389
0.0146897
0.0147392
0.0147875
0.0148344
0.0148802
0.0149246
0.0149677
0.0150096
0.0150502
0.0150895
0.0151276
0.0151643
0.0151997
0.0152339
0.0152668
0.0152983
0.0153286
0.0153576
0.0153853
0.0154117
0.0154367
0.0154605
0.015483
0.0155042
0.0155241
0.0155426
0.0155599
0.0155758
0.0155905
0.0156038
0.0156159
0.0156266
0.015636
0.0156441
0.0156509
0.0156564
0.0156606
0.0156635
0.0156651
0.0103363
0.010464
0.0105906
0.010716
0.0108404
0.0109636
0.0110858
0.0112068
0.0113268
0.0114457
0.0115635
0.0116801
0.0117957
0.0119101
0.0120234
0.0121356
0.0122466
0.0123565
0.0124653
0.0125728
0.0126792
0.0127844
0.0128885
0.0129913
0.013093
0.0131934
0.0132927
0.0133907
0.0134875
0.0135831
0.0136775
0.0137706
0.0138625
0.0139531
0.0140425
0.0141306
0.0142175
0.0143031
0.0143875
0.0144705
0.0145523
0.0146328
0.0147121
0.01479
0.0148666
0.014942
0.015016
0.0150888
0.0151602
0.0152303
0.0152991
0.0153666
0.0154328
0.0154976
0.0155611
0.0156233
0.0156842
0.0157437
0.0158018
0.0158586
0.0159141
0.0159683
0.016021
0.0160724
0.0161225
0.0161712
0.0162186
0.0162646
0.0163092
0.0163524
0.0163943
0.0164348
0.016474
0.0165117
0.0165481
0.0165831
0.0166168
0.016649
0.0166799
0.0167094
0.0167375
0.0167642
0.0167895
0.0168135
0.016836
0.0168572
0.016877
0.0168953
0.0169123
0.0169279
0.0169421
0.016955
0.0169664
0.0169764
0.016985
0.0169923
0.0169981
0.0170026
0.0170056
0.0170073
0.0113035
0.0114391
0.0115736
0.0117068
0.0118389
0.0119697
0.0120995
0.012228
0.0123554
0.0124817
0.0126067
0.0127306
0.0128533
0.0129749
0.0130952
0.0132143
0.0133322
0.0134489
0.0135643
0.0136786
0.0137915
0.0139033
0.0140137
0.0141229
0.0142309
0.0143375
0.0144429
0.014547
0.0146498
0.0147513
0.0148515
0.0149504
0.0150479
0.0151441
0.0152391
0.0153326
0.0154249
0.0155157
0.0156053
0.0156935
0.0157803
0.0158658
0.0159499
0.0160326
0.016114
0.0161939
0.0162725
0.0163497
0.0164256
0.0165
0.016573
0.0166446
0.0167148
0.0167836
0.016851
0.016917
0.0169816
0.0170447
0.0171064
0.0171667
0.0172256
0.017283
0.017339
0.0173936
0.0174467
0.0174984
0.0175486
0.0175974
0.0176447
0.0176906
0.017735
0.017778
0.0178195
0.0178596
0.0178982
0.0179353
0.017971
0.0180052
0.0180379
0.0180692
0.018099
0.0181273
0.0181542
0.0181796
0.0182035
0.0182259
0.0182469
0.0182664
0.0182844
0.0183009
0.018316
0.0183296
0.0183417
0.0183523
0.0183615
0.0183691
0.0183753
0.01838
0.0183833
0.018385
0.0123081
0.0124518
0.0125941
0.0127351
0.0128749
0.0130135
0.0131508
0.0132868
0.0134217
0.0135553
0.0136876
0.0138187
0.0139486
0.0140772
0.0142045
0.0143306
0.0144553
0.0145788
0.0147009
0.0148218
0.0149413
0.0150595
0.0151764
0.015292
0.0154061
0.015519
0.0156305
0.0157406
0.0158493
0.0159567
0.0160627
0.0161673
0.0162704
0.0163722
0.0164726
0.0165716
0.0166691
0.0167653
0.01686
0.0169532
0.017045
0.0171354
0.0172244
0.0173118
0.0173979
0.0174824
0.0175655
0.0176472
0.0177273
0.017806
0.0178832
0.0179589
0.0180332
0.0181059
0.0181771
0.0182469
0.0183151
0.0183819
0.0184471
0.0185108
0.018573
0.0186337
0.0186929
0.0187506
0.0188067
0.0188613
0.0189144
0.0189659
0.0190159
0.0190644
0.0191113
0.0191567
0.0192006
0.0192429
0.0192837
0.0193229
0.0193606
0.0193967
0.0194313
0.0194643
0.0194958
0.0195257
0.0195541
0.0195809
0.0196062
0.0196299
0.019652
0.0196726
0.0196916
0.0197091
0.019725
0.0197393
0.0197521
0.0197633
0.019773
0.0197811
0.0197876
0.0197926
0.019796
0.0197978
0.0133503
0.0135019
0.0136521
0.013801
0.0139485
0.0140947
0.0142396
0.0143832
0.0145255
0.0146664
0.0148061
0.0149444
0.0150814
0.015217
0.0153513
0.0154843
0.0156159
0.0157461
0.0158749
0.0160024
0.0161285
0.0162531
0.0163764
0.0164982
0.0166186
0.0167376
0.0168552
0.0169713
0.0170859
0.0171991
0.0173109
0.0174211
0.0175299
0.0176372
0.017743
0.0178473
0.0179502
0.0180515
0.0181513
0.0182496
0.0183463
0.0184416
0.0185353
0.0186275
0.0187182
0.0188073
0.0188948
0.0189808
0.0190653
0.0191482
0.0192295
0.0193093
0.0193875
0.0194641
0.0195391
0.0196126
0.0196845
0.0197548
0.0198235
0.0198906
0.0199561
0.02002
0.0200824
0.0201431
0.0202022
0.0202597
0.0203156
0.0203698
0.0204225
0.0204735
0.020523
0.0205707
0.0206169
0.0206615
0.0207044
0.0207457
0.0207853
0.0208234
0.0208598
0.0208945
0.0209277
0.0209592
0.020989
0.0210172
0.0210438
0.0210687
0.021092
0.0211137
0.0211337
0.0211521
0.0211688
0.0211839
0.0211973
0.0212091
0.0212193
0.0212278
0.0212346
0.0212398
0.0212434
0.0212453
0.0144299
0.0145895
0.0147476
0.0149043
0.0150596
0.0152135
0.0153659
0.015517
0.0156667
0.015815
0.015962
0.0161075
0.0162516
0.0163943
0.0165356
0.0166754
0.0168138
0.0169508
0.0170863
0.0172203
0.0173529
0.0174839
0.0176135
0.0177416
0.0178682
0.0179933
0.0181169
0.018239
0.0183595
0.0184785
0.0185959
0.0187118
0.0188261
0.0189389
0.0190501
0.0191597
0.0192677
0.0193742
0.0194791
0.0195823
0.019684
0.0197841
0.0198825
0.0199794
0.0200746
0.0201682
0.0202602
0.0203505
0.0204392
0.0205263
0.0206117
0.0206955
0.0207776
0.020858
0.0209368
0.021014
0.0210895
0.0211633
0.0212354
0.0213058
0.0213746
0.0214417
0.0215071
0.0215709
0.0216329
0.0216932
0.0217519
0.0218089
0.0218641
0.0219177
0.0219695
0.0220197
0.0220681
0.0221149
0.0221599
0.0222033
0.0222449
0.0222848
0.0223229
0.0223594
0.0223942
0.0224272
0.0224585
0.0224881
0.022516
0.0225421
0.0225666
0.0225893
0.0226102
0.0226295
0.022647
0.0226628
0.0226769
0.0226893
0.0226999
0.0227088
0.022716
0.0227215
0.0227252
0.0227272
0.0155469
0.0157145
0.0158806
0.0160451
0.0162081
0.0163697
0.0165297
0.0166883
0.0168454
0.0170011
0.0171553
0.017308
0.0174592
0.0176089
0.0177571
0.0179038
0.018049
0.0181926
0.0183348
0.0184753
0.0186144
0.0187518
0.0188877
0.0190221
0.0191548
0.019286
0.0194155
0.0195435
0.0196698
0.0197945
0.0199176
0.0200391
0.0201589
0.0202771
0.0203936
0.0205085
0.0206217
0.0207333
0.0208431
0.0209513
0.0210579
0.0211627
0.0212658
0.0213673
0.021467
0.0215651
0.0216614
0.021756
0.0218489
0.0219401
0.0220295
0.0221172
0.0222032
0.0222874
0.0223699
0.0224507
0.0225297
0.022607
0.0226825
0.0227562
0.0228282
0.0228984
0.0229669
0.0230336
0.0230985
0.0231617
0.0232231
0.0232827
0.0233405
0.0233965
0.0234508
0.0235033
0.023554
0.0236029
0.02365
0.0236953
0.0237388
0.0237805
0.0238205
0.0238586
0.023895
0.0239295
0.0239623
0.0239932
0.0240224
0.0240497
0.0240752
0.024099
0.0241209
0.024141
0.0241594
0.0241759
0.0241906
0.0242035
0.0242146
0.0242239
0.0242314
0.0242371
0.024241
0.0242431
0.0167013
0.016877
0.0170509
0.0172233
0.0173941
0.0175632
0.0177309
0.017897
0.0180615
0.0182245
0.0183859
0.0185457
0.018704
0.0188607
0.0190159
0.0191694
0.0193213
0.0194716
0.0196204
0.0197674
0.0199129
0.0200567
0.0201988
0.0203393
0.0204782
0.0206153
0.0207508
0.0208846
0.0210167
0.0211471
0.0212758
0.0214028
0.0215281
0.0216516
0.0217734
0.0218935
0.0220118
0.0221284
0.0222433
0.0223563
0.0224676
0.0225772
0.0226849
0.0227909
0.0228951
0.0229975
0.0230982
0.023197
0.023294
0.0233892
0.0234826
0.0235742
0.023664
0.023752
0.0238381
0.0239225
0.024005
0.0240856
0.0241644
0.0242414
0.0243166
0.0243899
0.0244614
0.024531
0.0245987
0.0246646
0.0247287
0.0247909
0.0248512
0.0249097
0.0249663
0.0250211
0.025074
0.025125
0.0251741
0.0252214
0.0252668
0.0253104
0.025352
0.0253918
0.0254297
0.0254657
0.0254999
0.0255322
0.0255625
0.025591
0.0256177
0.0256424
0.0256653
0.0256863
0.0257054
0.0257226
0.0257379
0.0257513
0.0257629
0.0257726
0.0257804
0.0257863
0.0257903
0.0257925
0.0178931
0.0180767
0.0182586
0.0184388
0.0186173
0.0187941
0.0189693
0.0191429
0.0193148
0.0194851
0.0196537
0.0198207
0.019986
0.0201497
0.0203117
0.020472
0.0206307
0.0207876
0.0209428
0.0210964
0.0212482
0.0213983
0.0215467
0.0216933
0.0218382
0.0219813
0.0221227
0.0222623
0.0224001
0.0225361
0.0226704
0.0228028
0.0229335
0.0230623
0.0231893
0.0233145
0.0234379
0.0235595
0.0236792
0.023797
0.0239131
0.0240272
0.0241396
0.02425
0.0243586
0.0244653
0.0245702
0.0246732
0.0247743
0.0248735
0.0249708
0.0250662
0.0251598
0.0252514
0.0253411
0.025429
0.0255149
0.0255989
0.025681
0.0257611
0.0258394
0.0259157
0.0259901
0.0260626
0.0261332
0.0262018
0.0262685
0.0263332
0.026396
0.0264569
0.0265158
0.0265728
0.0266278
0.0266809
0.0267321
0.0267813
0.0268285
0.0268738
0.0269171
0.0269585
0.026998
0.0270354
0.027071
0.0271045
0.0271361
0.0271658
0.0271935
0.0272192
0.027243
0.0272648
0.0272846
0.0273025
0.0273184
0.0273324
0.0273444
0.0273544
0.0273625
0.0273686
0.0273728
0.027375
0.0191221
0.0193138
0.0195036
0.0196916
0.0198778
0.0200623
0.020245
0.020426
0.0206053
0.0207828
0.0209586
0.0211327
0.021305
0.0214756
0.0216444
0.0218115
0.0219768
0.0221403
0.0223021
0.022462
0.0226202
0.0227765
0.022931
0.0230837
0.0232346
0.0233836
0.0235308
0.0236761
0.0238196
0.0239612
0.0241009
0.0242387
0.0243747
0.0245088
0.0246409
0.0247712
0.0248996
0.025026
0.0251506
0.0252732
0.0253939
0.0255126
0.0256294
0.0257443
0.0258572
0.0259682
0.0260772
0.0261842
0.0262893
0.0263925
0.0264936
0.0265928
0.02669
0.0267853
0.0268785
0.0269698
0.0270591
0.0271463
0.0272316
0.0273149
0.0273962
0.0274755
0.0275528
0.0276281
0.0277014
0.0277726
0.0278419
0.0279091
0.0279744
0.0280376
0.0280987
0.0281579
0.0282151
0.0282702
0.0283233
0.0283743
0.0284234
0.0284704
0.0285154
0.0285583
0.0285993
0.0286381
0.028675
0.0287098
0.0287426
0.0287734
0.0288021
0.0288288
0.0288534
0.028876
0.0288966
0.0289152
0.0289317
0.0289461
0.0289586
0.028969
0.0289773
0.0289837
0.028988
0.0289902
0.0203884
0.020588
0.0207857
0.0209815
0.0211754
0.0213675
0.0215577
0.0217461
0.0219327
0.0221175
0.0223004
0.0224815
0.0226608
0.0228383
0.0230139
0.0231877
0.0233596
0.0235297
0.0236978
0.0238641
0.0240285
0.024191
0.0243517
0.0245104
0.0246671
0.024822
0.0249749
0.0251259
0.0252749
0.025422
0.0255672
0.0257103
0.0258515
0.0259908
0.026128
0.0262633
0.0263966
0.0265278
0.0266571
0.0267844
0.0269096
0.0270329
0.0271541
0.0272733
0.0273905
0.0275056
0.0276187
0.0277298
0.0278388
0.0279458
0.0280507
0.0281536
0.0282544
0.0283532
0.0284499
0.0285445
0.0286371
0.0287276
0.028816
0.0289024
0.0289866
0.0290688
0.0291489
0.029227
0.0293029
0.0293768
0.0294485
0.0295182
0.0295858
0.0296513
0.0297147
0.029776
0.0298352
0.0298923
0.0299473
0.0300002
0.030051
0.0300996
0.0301462
0.0301907
0.0302331
0.0302734
0.0303115
0.0303476
0.0303815
0.0304133
0.0304431
0.0304707
0.0304962
0.0305196
0.0305409
0.03056
0.0305771
0.0305921
0.0306049
0.0306156
0.0306243
0.0306308
0.0306352
0.0306375
0.0216917
0.0218993
0.0221048
0.0223084
0.0225099
0.0227096
0.0229073
0.0231031
0.0232969
0.0234889
0.0236789
0.0238671
0.0240533
0.0242376
0.0244199
0.0246003
0.0247788
0.0249553
0.0251298
0.0253024
0.025473
0.0256416
0.0258083
0.0259729
0.0261355
0.0262961
0.0264547
0.0266113
0.0267658
0.0269184
0.0270688
0.0272172
0.0273636
0.0275079
0.0276502
0.0277903
0.0279284
0.0280645
0.0281984
0.0283302
0.02846
0.0285877
0.0287132
0.0288367
0.028958
0.0290772
0.0291944
0.0293094
0.0294222
0.029533
0.0296416
0.0297481
0.0298524
0.0299547
0.0300547
0.0301527
0.0302484
0.0303421
0.0304336
0.0305229
0.0306101
0.0306951
0.030778
0.0308587
0.0309372
0.0310136
0.0310878
0.0311599
0.0312298
0.0312975
0.031363
0.0314264
0.0314876
0.0315466
0.0316035
0.0316581
0.0317106
0.031761
0.0318091
0.0318551
0.0318989
0.0319405
0.0319799
0.0320171
0.0320522
0.0320851
0.0321158
0.0321443
0.0321706
0.0321948
0.0322167
0.0322365
0.0322541
0.0322695
0.0322828
0.0322939
0.0323027
0.0323094
0.0323139