/*--------------------------------*- C++ -*----------------------------------*\
  =========                 |
  \\      /  F ield         | OpenFOAM: The Open Source CFD Toolbox
   \\    /   O peration     | Website:  https://openfoam.org
    \\  /    A nd           | Version:  8
     \\/     M anipulation  |
\*---------------------------------------------------------------------------*/
FoamFile
{
    version     2.0;
    format      ascii;
    class       surfaceScalarField;
    location    "1.75";
    object      phi;
}
// * * * * * * * * * * * * * * * * * * * * * * * * * * * * * * * * * * * * * //

dimensions      [0 3 -1 0 0 0 0];

internalField   nonuniform List<scalar> 
229340
(
-0.00467934
0.000223783
0.00445556
-0.00489335
0.000214008
-0.00509761
0.000204264
-0.00529188
0.000194274
-0.00547608
0.0001842
-0.00565022
0.000174133
-0.00581437
0.000164149
-0.00596867
0.000154302
-0.0061133
0.000144628
-0.00624844
0.000135142
-0.00637428
0.00012584
-0.006491
0.000116721
-0.0065988
0.0001078
-0.00669789
9.90902e-05
-0.00678849
9.05985e-05
-0.00687081
8.23241e-05
-0.00694507
7.42622e-05
-0.00701148
6.64062e-05
-0.00707023
5.87486e-05
-0.00712151
5.12851e-05
-0.00716553
4.40141e-05
-0.00720247
3.69386e-05
-0.00723254
3.00716e-05
-0.00725597
2.34316e-05
-0.00727301
1.70412e-05
-0.0072839
1.0888e-05
-0.0072889
4.99858e-06
-0.00728846
-4.41578e-07
-0.00728331
-5.14481e-06
-0.00727415
-9.16245e-06
-0.00726141
-1.27433e-05
-0.00724539
-1.60199e-05
-0.0072263
-1.9082e-05
-0.00720432
-2.19885e-05
-0.00717954
-2.47758e-05
-0.00715207
-2.74694e-05
-0.00712198
-3.0086e-05
-0.00708935
-3.26367e-05
-0.00705422
-3.513e-05
-0.00701665
-3.75712e-05
-0.00697668
-3.99645e-05
-0.00693437
-4.23128e-05
-0.00688975
-4.46189e-05
-0.00684287
-4.68835e-05
-0.00679376
-4.91089e-05
-0.00674246
-5.12961e-05
-0.00668902
-5.34463e-05
-0.00663346
-5.55588e-05
-0.00657582
-5.76361e-05
-0.00651614
-5.96774e-05
-0.00645446
-6.16831e-05
-0.00639081
-6.36543e-05
-0.00632522
-6.55907e-05
-0.00625772
-6.74923e-05
-0.00618836
-6.93601e-05
-0.00611717
-7.11937e-05
-0.00604418
-7.2993e-05
-0.00596942
-7.47582e-05
-0.00589293
-7.6489e-05
-0.00581474
-7.81867e-05
-0.00573489
-7.98494e-05
-0.00565341
-8.14787e-05
-0.00557034
-8.30736e-05
-0.00548571
-8.46345e-05
-0.00539954
-8.61612e-05
-0.00531189
-8.76532e-05
-0.00522278
-8.91111e-05
-0.00513225
-9.05341e-05
-0.00504032
-9.19226e-05
-0.00494705
-9.32761e-05
-0.00485245
-9.45951e-05
-0.00475657
-9.58785e-05
-0.00465945
-9.71272e-05
-0.00456111
-9.83405e-05
-0.00446159
-9.95181e-05
-0.00436093
-0.00010066
-0.00425916
-0.000101766
-0.00415633
-0.000102836
-0.00405246
-0.000103871
-0.00394759
-0.00010487
-0.00384175
-0.000105832
-0.00373499
-0.00010676
-0.00362734
-0.000107653
-0.00351883
-0.000108511
-0.00340949
-0.000109336
-0.00329936
-0.00011013
-0.00318847
-0.000110893
-0.00307684
-0.00011163
-0.0029645
-0.000112345
-0.00285145
-0.000113043
-0.00273772
-0.000113734
-0.00262329
-0.000114427
-0.00250816
-0.000115136
-0.00239228
-0.000115878
-0.00227561
-0.000116666
-0.00215811
-0.000117499
-0.00203978
-0.000118335
-0.00192071
-0.000119064
-0.00180119
-0.000119526
-0.000119634
-0.00168155
-0.00748959
0.000334366
0.00737901
-0.00758594
0.000310358
-0.00766898
0.000287303
-0.00773985
0.000265144
-0.00779962
0.000243967
-0.00784929
0.000223804
-0.00788981
0.000204671
-0.00792208
0.000186567
-0.00794693
0.000169481
-0.00796517
0.000153383
-0.00797756
0.000138225
-0.00798478
0.000123946
-0.00798747
0.000110489
-0.00798618
9.78007e-05
-0.00798141
8.5832e-05
-0.00797362
7.45338e-05
-0.00796322
6.38602e-05
-0.00795058
5.37687e-05
-0.00793605
4.42183e-05
-0.00791994
3.51726e-05
-0.00790252
2.65962e-05
-0.00788404
1.84584e-05
-0.0078647
1.07302e-05
-0.00784466
3.38863e-06
-0.00782404
-3.57611e-06
-0.00780301
-1.01477e-05
-0.00778169
-1.63209e-05
-0.00775997
-2.21546e-05
-0.00773728
-2.78402e-05
-0.00771293
-3.35099e-05
-0.00768657
-3.90991e-05
-0.00765801
-4.45884e-05
-0.00762712
-4.99696e-05
-0.00759387
-5.52402e-05
-0.00755824
-6.04033e-05
-0.00752025
-6.54627e-05
-0.00747991
-7.0423e-05
-0.00743726
-7.5288e-05
-0.00739232
-8.00631e-05
-0.00734514
-8.47514e-05
-0.00729575
-8.93555e-05
-0.00724419
-9.38788e-05
-0.00719048
-9.83243e-05
-0.00713467
-0.000102692
-0.0070768
-0.000106987
-0.00701688
-0.000111207
-0.00695498
-0.000115355
-0.0068911
-0.000119432
-0.0068253
-0.000123439
-0.0067576
-0.000127377
-0.00668804
-0.000131245
-0.00661665
-0.000135045
-0.00654346
-0.000138777
-0.00646851
-0.000142442
-0.00639183
-0.000146038
-0.00631346
-0.000149567
-0.00623342
-0.000153029
-0.00615176
-0.000156424
-0.00606849
-0.000159751
-0.00598367
-0.000163012
-0.00589731
-0.000166205
-0.00580946
-0.000169331
-0.00572015
-0.000172389
-0.0056294
-0.00017538
-0.00553726
-0.000178303
-0.00544375
-0.000181159
-0.00534892
-0.000183946
-0.00525278
-0.000186666
-0.00515539
-0.000189318
-0.00505677
-0.0001919
-0.00495695
-0.000194415
-0.00485596
-0.000196861
-0.00475385
-0.000199238
-0.00465065
-0.000201546
-0.00454638
-0.000203785
-0.00444108
-0.000205956
-0.00433479
-0.000208056
-0.00422754
-0.000210089
-0.00411936
-0.000212052
-0.00401028
-0.000213947
-0.00390034
-0.000215773
-0.00378957
-0.000217532
-0.003678
-0.000219223
-0.00356566
-0.000220847
-0.0034526
-0.000222406
-0.00333883
-0.000223899
-0.00322439
-0.000225329
-0.00310932
-0.000226696
-0.00299367
-0.000228003
-0.00287746
-0.00022925
-0.00276075
-0.000230439
-0.00264361
-0.000231571
-0.0025261
-0.000232646
-0.00240832
-0.00023366
-0.00229038
-0.000234607
-0.0021724
-0.000235475
-0.00205449
-0.000236245
-0.00193666
-0.000236891
-0.0018188
-0.000237392
-0.000237749
-0.00170068
-0.0076882
0.00036487
0.0076577
-0.00771565
0.00033781
-0.00774066
0.000312314
-0.00776377
0.000288245
-0.00778534
0.000265539
-0.00780565
0.000244118
-0.00782488
0.000223902
-0.00784312
0.000204808
-0.00786039
0.000186753
-0.00787667
0.000169654
-0.00789187
0.00015343
-0.00790593
0.000138006
-0.00791876
0.000123316
-0.00793026
0.000109299
-0.00794033
9.5903e-05
-0.00794887
8.30785e-05
-0.00795579
7.07831e-05
-0.007961
5.89762e-05
-0.00796441
4.76215e-05
-0.00796592
3.6686e-05
-0.00796546
2.61369e-05
-0.00796294
1.5944e-05
-0.00795829
6.07648e-06
-0.00795141
-3.49594e-06
-0.00794216
-1.28234e-05
-0.00793039
-2.19205e-05
-0.0079159
-3.0811e-05
-0.00789851
-3.95439e-05
-0.00787821
-4.81415e-05
-0.00785513
-5.6588e-05
-0.00782936
-6.48665e-05
-0.00780097
-7.29776e-05
-0.00777002
-8.09235e-05
-0.00773655
-8.87104e-05
-0.0077006
-9.63457e-05
-0.00766223
-0.000103836
-0.00762147
-0.000111189
-0.00757835
-0.000118408
-0.00753291
-0.0001255
-0.00748519
-0.000132469
-0.00743523
-0.00013932
-0.00738305
-0.000146054
-0.0073287
-0.000152675
-0.00727221
-0.000159184
-0.00721361
-0.000165586
-0.00715294
-0.000171879
-0.00709022
-0.000178067
-0.00702551
-0.000184151
-0.00695882
-0.00019013
-0.00689018
-0.000196008
-0.00681965
-0.000201782
-0.00674724
-0.000207455
-0.00667299
-0.000213027
-0.00659693
-0.000218497
-0.0065191
-0.000223868
-0.00643953
-0.000229137
-0.00635826
-0.000234306
-0.00627531
-0.000239374
-0.00619072
-0.000244342
-0.00610452
-0.000249209
-0.00601675
-0.000253975
-0.00592744
-0.00025864
-0.00583663
-0.000263205
-0.00574434
-0.000267667
-0.00565061
-0.000272029
-0.00555549
-0.000276288
-0.00545899
-0.000280445
-0.00536115
-0.0002845
-0.00526202
-0.000288452
-0.00516162
-0.000292302
-0.00505998
-0.000296048
-0.00495715
-0.000299691
-0.00485316
-0.000303229
-0.00474804
-0.000306665
-0.00464183
-0.000309996
-0.00453457
-0.000313223
-0.00442628
-0.000316345
-0.004317
-0.000319362
-0.00420678
-0.000322276
-0.00409564
-0.000325084
-0.00398363
-0.000327788
-0.00387077
-0.000330387
-0.00375711
-0.000332883
-0.00364269
-0.000335274
-0.00352753
-0.000337561
-0.00341168
-0.000339745
-0.00329518
-0.000341826
-0.00317808
-0.000343805
-0.0030604
-0.000345682
-0.00294219
-0.000347456
-0.0028235
-0.000349129
-0.00270437
-0.0003507
-0.00258485
-0.000352168
-0.00246498
-0.00035353
-0.00234481
-0.000354781
-0.00222436
-0.000355916
-0.00210368
-0.000356925
-0.00198278
-0.000357799
-0.00186164
-0.00035853
-0.000359121
-0.00174027
-0.00775192
0.000398951
0.00771784
-0.00778628
0.000372161
-0.00782054
0.000346574
-0.00785445
0.00032216
-0.00788774
0.000298831
-0.00792013
0.000276508
-0.00795135
0.000255118
-0.00798113
0.000234594
-0.00800926
0.000214875
-0.00803551
0.000195904
-0.00805971
0.000177631
-0.00808171
0.000160009
-0.00810139
0.000142994
-0.00811864
0.000126549
-0.00813337
0.000110636
-0.00814552
9.52222e-05
-0.00815501
8.02776e-05
-0.00816181
6.57739e-05
-0.00816587
5.16851e-05
-0.00816717
3.79873e-05
-0.00816569
2.46586e-05
-0.00816143
1.16787e-05
-0.00815438
-9.71339e-07
-0.00814457
-1.33095e-05
-0.00813203
-2.53583e-05
-0.0081168
-3.71495e-05
-0.00809892
-4.86993e-05
-0.00807843
-6.00294e-05
-0.00805541
-7.11582e-05
-0.00802991
-8.20953e-05
-0.00800193
-9.28441e-05
-0.0079715
-0.000103409
-0.00793863
-0.000113794
-0.00790333
-0.000124003
-0.00786564
-0.00013404
-0.00782556
-0.00014391
-0.00778314
-0.000153616
-0.00773838
-0.000163163
-0.00769133
-0.000172553
-0.00764201
-0.00018179
-0.00759045
-0.000190878
-0.00753668
-0.000199819
-0.00748074
-0.000208616
-0.00742266
-0.000217269
-0.00736246
-0.000225782
-0.00730018
-0.000234156
-0.00723586
-0.000242391
-0.00716952
-0.00025049
-0.0071012
-0.000258454
-0.00703092
-0.000266282
-0.00695873
-0.000273975
-0.00688465
-0.000281534
-0.00680872
-0.000288959
-0.00673096
-0.000296251
-0.00665142
-0.000303409
-0.00657013
-0.000310434
-0.00648711
-0.000317325
-0.0064024
-0.000324083
-0.00631603
-0.000330707
-0.00622804
-0.000337197
-0.00613847
-0.000343553
-0.00604733
-0.000349774
-0.00595468
-0.000355861
-0.00586053
-0.000361812
-0.00576493
-0.000367628
-0.00566791
-0.000373307
-0.00556951
-0.000378851
-0.00546975
-0.000384258
-0.00536867
-0.000389528
-0.00526632
-0.000394659
-0.00516271
-0.000399654
-0.00505789
-0.000404509
-0.00495189
-0.000409226
-0.00484476
-0.000413804
-0.00473651
-0.000418242
-0.00462719
-0.00042254
-0.00451684
-0.000426699
-0.00440548
-0.000430717
-0.00429316
-0.000434595
-0.00417992
-0.000438331
-0.00406578
-0.000441926
-0.00395079
-0.000445381
-0.00383497
-0.000448693
-0.00371838
-0.000451865
-0.00360105
-0.000454895
-0.00348301
-0.000457783
-0.00336431
-0.00046053
-0.00324498
-0.000463134
-0.00312507
-0.000465596
-0.00300461
-0.000467915
-0.00288364
-0.000470091
-0.00276222
-0.000472123
-0.00264038
-0.000474009
-0.00251817
-0.000475746
-0.00239561
-0.000477334
-0.00227276
-0.000478768
-0.00214964
-0.000480045
-0.00202628
-0.000481163
-0.00190269
-0.000482118
-0.000482913
-0.0017789
-0.00793455
0.000439604
0.0078939
-0.00797481
0.000412418
-0.00801432
0.000386082
-0.00805272
0.000360563
-0.00808972
0.000335832
-0.00812507
0.000311858
-0.00815856
0.000288606
-0.00819001
0.000266047
-0.00821929
0.000244148
-0.00824626
0.00022288
-0.00827084
0.000202211
-0.00829295
0.000182115
-0.00831251
0.000162562
-0.00832949
0.000143527
-0.00834384
0.000124983
-0.00835552
0.000106908
-0.00836452
8.92768e-05
-0.00837082
7.2068e-05
-0.00837439
5.52591e-05
-0.00837523
3.88299e-05
-0.00837333
2.27587e-05
-0.00836868
7.02504e-06
-0.00836126
-8.38864e-06
-0.00835107
-2.35043e-05
-0.0083381
-3.83237e-05
-0.00832239
-5.28639e-05
-0.00830395
-6.71395e-05
-0.00828281
-8.11652e-05
-0.00825902
-9.49522e-05
-0.00823261
-0.000108508
-0.00820361
-0.000121841
-0.00817206
-0.000134956
-0.008138
-0.000147859
-0.00810145
-0.000160554
-0.00806244
-0.000173046
-0.00802101
-0.00018534
-0.00797719
-0.000197441
-0.007931
-0.000209351
-0.00788248
-0.000221075
-0.00783165
-0.000232617
-0.00777855
-0.000243976
-0.00772321
-0.000255159
-0.00766566
-0.000266166
-0.00760593
-0.000276998
-0.00754406
-0.00028766
-0.00748006
-0.000298149
-0.00741398
-0.000308469
-0.00734585
-0.00031862
-0.0072757
-0.000328604
-0.00720357
-0.000338419
-0.00712947
-0.000348069
-0.00705346
-0.000357551
-0.00697555
-0.000366866
-0.00689578
-0.000376016
-0.0068142
-0.000384998
-0.00673082
-0.000393814
-0.00664568
-0.000402464
-0.00655881
-0.000410946
-0.00647026
-0.000419261
-0.00638005
-0.000427408
-0.00628822
-0.000435387
-0.00619479
-0.000443197
-0.00609982
-0.000450838
-0.00600332
-0.000458309
-0.00590533
-0.000465611
-0.0058059
-0.000472741
-0.00570505
-0.0004797
-0.00560282
-0.000486487
-0.00549925
-0.000493102
-0.00539436
-0.000499544
-0.0052882
-0.000505812
-0.00518081
-0.000511906
-0.00507221
-0.000517825
-0.00496244
-0.000523568
-0.00485155
-0.000529136
-0.00473956
-0.000534528
-0.00462652
-0.000539743
-0.00451246
-0.00054478
-0.00439741
-0.00054964
-0.00428142
-0.000554321
-0.00416452
-0.000558824
-0.00404676
-0.000563148
-0.00392816
-0.000567293
-0.00380876
-0.000571258
-0.00368862
-0.000575042
-0.00356775
-0.000578647
-0.00344621
-0.000582071
-0.00332403
-0.000585313
-0.00320125
-0.000588373
-0.00307792
-0.000591252
-0.00295406
-0.000593946
-0.00282973
-0.000596457
-0.00270495
-0.000598783
-0.00257978
-0.000600922
-0.00245424
-0.000602873
-0.00232837
-0.000604635
-0.00220221
-0.000606205
-0.00207579
-0.000607582
-0.00194914
-0.000608766
-0.000609757
-0.0018223
-0.00821144
0.000482218
0.00816883
-0.00825276
0.00045373
-0.00829252
0.000425844
-0.00833055
0.000398593
-0.00836669
0.000371971
-0.00840079
0.000345966
-0.00843275
0.000320563
-0.00846245
0.000295748
-0.00848981
0.000271501
-0.00851473
0.000247807
-0.00853717
0.000224645
-0.00855705
0.000201999
-0.00857434
0.000179848
-0.00858898
0.000158175
-0.00860096
0.000136962
-0.00861025
0.00011619
-0.00861681
9.5843e-05
-0.00862065
7.59039e-05
-0.00862175
5.63576e-05
-0.0086201
3.71884e-05
-0.00861573
1.83828e-05
-0.00860863
-7.31135e-08
-0.00859883
-1.81918e-05
-0.00858634
-3.59905e-05
-0.00857118
-5.34843e-05
-0.00855336
-7.0685e-05
-0.00853289
-8.76053e-05
-0.0085098
-0.000104254
-0.00848412
-0.000120642
-0.00845585
-0.000136775
-0.00842503
-0.00015266
-0.00839168
-0.000168305
-0.00835583
-0.000183713
-0.00831749
-0.00019889
-0.0082767
-0.000213839
-0.00823347
-0.000228564
-0.00818784
-0.00024307
-0.00813984
-0.000257359
-0.00808948
-0.000271434
-0.0080368
-0.000285298
-0.00798182
-0.000298953
-0.00792458
-0.0003124
-0.0078651
-0.000325642
-0.00780342
-0.000338681
-0.00773956
-0.000351517
-0.00767356
-0.00036415
-0.00760545
-0.000376584
-0.00753525
-0.000388818
-0.007463
-0.000400851
-0.00738873
-0.000412686
-0.00731248
-0.000424322
-0.00723427
-0.000435758
-0.00715414
-0.000446995
-0.00707213
-0.000458034
-0.00698825
-0.000468873
-0.00690255
-0.000479512
-0.00681507
-0.00048995
-0.00672583
-0.000500188
-0.00663486
-0.000510225
-0.00654221
-0.00052006
-0.0064479
-0.000529692
-0.00635198
-0.000539121
-0.00625447
-0.000548347
-0.00615541
-0.000557368
-0.00605484
-0.000566183
-0.00595279
-0.000574793
-0.00584929
-0.000583195
-0.00574439
-0.00059139
-0.00563812
-0.000599378
-0.0055305
-0.000607155
-0.00542159
-0.000614723
-0.00531142
-0.00062208
-0.00520002
-0.000629225
-0.00508743
-0.000636159
-0.00497368
-0.00064288
-0.00485883
-0.000649386
-0.00474289
-0.000655679
-0.00462591
-0.000661758
-0.00450793
-0.00066762
-0.00438899
-0.000673266
-0.00426912
-0.000678696
-0.00414835
-0.000683908
-0.00402674
-0.000688903
-0.00390432
-0.000693678
-0.00378113
-0.000698235
-0.00365721
-0.000702573
-0.00353259
-0.00070669
-0.00340731
-0.000710586
-0.00328143
-0.000714261
-0.00315497
-0.000717713
-0.00302797
-0.000720943
-0.00290048
-0.000723949
-0.00277253
-0.000726731
-0.00264417
-0.000729286
-0.00251542
-0.000731616
-0.00238634
-0.000733718
-0.00225695
-0.000735592
-0.0021273
-0.000737237
-0.00199741
-0.000738652
-0.000739838
-0.00186733
-0.00851911
0.000523114
0.00847821
-0.00855839
0.000493005
-0.00859593
0.000463389
-0.00863162
0.00043428
-0.00866533
0.000405685
-0.00869697
0.000377604
-0.00872644
0.000350033
-0.00875366
0.000322967
-0.00877856
0.000296399
-0.00880107
0.000270317
-0.00882114
0.000244714
-0.00883871
0.000219575
-0.00885375
0.000194891
-0.00886623
0.000170649
-0.0088761
0.000146836
-0.00888335
0.000123439
-0.00888796
0.000100447
-0.0088899
7.78467e-05
-0.00888917
5.56252e-05
-0.00888575
3.3771e-05
-0.00887964
1.22714e-05
-0.00887083
-8.88495e-06
-0.00885931
-2.97099e-05
-0.00884509
-5.02108e-05
-0.00882818
-7.0396e-05
-0.00880859
-9.02753e-05
-0.00878633
-0.000109857
-0.00876144
-0.00012915
-0.00873392
-0.00014816
-0.0087038
-0.000166896
-0.0086711
-0.000185361
-0.00863584
-0.000203563
-0.00859805
-0.000221504
-0.00855775
-0.000239189
-0.00851497
-0.000256622
-0.00846972
-0.000273807
-0.00842205
-0.000290745
-0.00837197
-0.00030744
-0.00831951
-0.000323895
-0.00826469
-0.00034011
-0.00820756
-0.000356089
-0.00814813
-0.000371832
-0.00808643
-0.000387341
-0.00802249
-0.000402617
-0.00795635
-0.00041766
-0.00788803
-0.000432471
-0.00781756
-0.000447052
-0.00774498
-0.0004614
-0.00767031
-0.000475519
-0.00759359
-0.000489406
-0.00751485
-0.000503062
-0.00743412
-0.000516488
-0.00735144
-0.000529681
-0.00726683
-0.000542643
-0.00718033
-0.000555372
-0.00709197
-0.000567867
-0.00700179
-0.000580129
-0.00690983
-0.000592156
-0.0068161
-0.000603947
-0.00672066
-0.000615503
-0.00662353
-0.000626821
-0.00652475
-0.000637901
-0.00642436
-0.000648742
-0.00632238
-0.000659344
-0.00621886
-0.000669704
-0.00611383
-0.000679822
-0.00600733
-0.000689697
-0.00589939
-0.000699329
-0.00579005
-0.000708715
-0.00567935
-0.000717856
-0.00556733
-0.00072675
-0.00545401
-0.000735396
-0.00533944
-0.000743793
-0.00522366
-0.00075194
-0.0051067
-0.000759837
-0.00498861
-0.000767483
-0.00486941
-0.000774876
-0.00474915
-0.000782015
-0.00462787
-0.000788901
-0.00450561
-0.000795532
-0.00438239
-0.000801907
-0.00425828
-0.000808026
-0.00413329
-0.000813887
-0.00400748
-0.000819491
-0.00388088
-0.000824836
-0.00375353
-0.000829922
-0.00362547
-0.000834747
-0.00349675
-0.000839312
-0.00336739
-0.000843616
-0.00323745
-0.000847657
-0.00310696
-0.000851435
-0.00297596
-0.00085495
-0.00284449
-0.0008582
-0.00271259
-0.000861185
-0.0025803
-0.000863904
-0.00244766
-0.000866357
-0.00231471
-0.000868543
-0.00218148
-0.000870462
-0.00204802
-0.000872112
-0.000873495
-0.00191437
-0.00885415
0.000562401
0.00881487
-0.00889163
0.000530482
-0.0089272
0.000498955
-0.00896077
0.000467852
-0.00899227
0.000437183
-0.00902162
0.000406953
-0.00904874
0.000377162
-0.00907359
0.00034781
-0.00909608
0.000318896
-0.00911618
0.000290414
-0.00913383
0.00026236
-0.00914898
0.000234728
-0.0091616
0.000207511
-0.00917165
0.000180702
-0.00917911
0.000154293
-0.00918395
0.000128275
-0.00918614
0.000102642
-0.00918568
7.73846e-05
-0.00918255
5.24944e-05
-0.00917674
2.7964e-05
-0.00916826
3.78557e-06
-0.00915709
-2.00487e-05
-0.00914326
-4.35467e-05
-0.00912675
-6.67167e-05
-0.00910758
-8.95664e-05
-0.00908575
-0.000112101
-0.00906128
-0.000134329
-0.00903418
-0.000156255
-0.00900445
-0.000177884
-0.00897213
-0.000199221
-0.00893722
-0.000220271
-0.00889974
-0.000241037
-0.00885972
-0.000261524
-0.00881718
-0.000281733
-0.00877213
-0.000301668
-0.00872461
-0.000321332
-0.00867463
-0.000340725
-0.00862222
-0.000359852
-0.0085674
-0.000378711
-0.00851021
-0.000397306
-0.00845066
-0.000415637
-0.00838878
-0.000433705
-0.00832461
-0.000451512
-0.00825817
-0.000469056
-0.0081895
-0.000486338
-0.00811861
-0.00050336
-0.00804554
-0.00052012
-0.00797032
-0.000536619
-0.00789298
-0.000552856
-0.00781356
-0.00056883
-0.00773208
-0.000584542
-0.00764858
-0.000599991
-0.00756308
-0.000615175
-0.00747563
-0.000630095
-0.00738625
-0.000644748
-0.00729498
-0.000659135
-0.00720186
-0.000673255
-0.00710691
-0.000687105
-0.00701017
-0.000700685
-0.00691168
-0.000713995
-0.00681147
-0.000727032
-0.00670958
-0.000739795
-0.00660604
-0.000752284
-0.00650088
-0.000764497
-0.00639415
-0.000776434
-0.00628588
-0.000788091
-0.00617611
-0.00079947
-0.00606487
-0.000810567
-0.0059522
-0.000821383
-0.00583814
-0.000831914
-0.00572273
-0.000842162
-0.005606
-0.000852124
-0.005488
-0.000861799
-0.00536875
-0.000871186
-0.00524831
-0.000880284
-0.0051267
-0.000889091
-0.00500397
-0.000897608
-0.00488015
-0.000905832
-0.00475529
-0.000913763
-0.00462942
-0.000921399
-0.00450259
-0.00092874
-0.00437483
-0.000935785
-0.00424618
-0.000942532
-0.00411669
-0.000948982
-0.00398639
-0.000955133
-0.00385533
-0.000960983
-0.00372355
-0.000966534
-0.00359107
-0.000971783
-0.00345796
-0.00097673
-0.00332424
-0.000981374
-0.00318996
-0.000985714
-0.00305516
-0.00098975
-0.00291988
-0.000993481
-0.00278416
-0.000996906
-0.00264804
-0.00100003
-0.00251156
-0.00100284
-0.00237476
-0.00100534
-0.00223768
-0.00100754
-0.00210036
-0.00100943
-0.00101101
-0.00196284
-0.0092108
0.000599867
0.00917334
-0.00924632
0.000566004
-0.00927984
0.000532473
-0.00931129
0.000499298
-0.0093406
0.000466491
-0.0093677
0.000434061
-0.00939255
0.000402011
-0.00941509
0.000370346
-0.00943526
0.000339067
-0.00945302
0.000308173
-0.00946832
0.000277664
-0.00948113
0.000247538
-0.00949141
0.000217793
-0.00949914
0.000188425
-0.00950428
0.00015943
-0.00950681
0.000130804
-0.00950671
0.000102543
-0.00950396
7.46404e-05
-0.00949856
4.70923e-05
-0.00949049
1.98939e-05
-0.00947974
-6.96085e-06
-0.00946631
-3.34766e-05
-0.0094502
-5.96585e-05
-0.00943141
-8.55098e-05
-0.00940994
-0.000111036
-0.0093858
-0.000136241
-0.009359
-0.000161129
-0.00932955
-0.000185704
-0.00929747
-0.000209969
-0.00926276
-0.000233928
-0.00922545
-0.000257584
-0.00918555
-0.000280938
-0.00914308
-0.000303993
-0.00909806
-0.000326752
-0.00905051
-0.000349216
-0.00900046
-0.000371386
-0.00894792
-0.000393263
-0.00889292
-0.00041485
-0.00883549
-0.000436145
-0.00877564
-0.000457151
-0.00871341
-0.000477867
-0.00864882
-0.000498293
-0.00858191
-0.00051843
-0.00851269
-0.000538277
-0.00844119
-0.000557834
-0.00836745
-0.000577101
-0.00829149
-0.000596076
-0.00821335
-0.00061476
-0.00813306
-0.000633152
-0.00805064
-0.00065125
-0.00796613
-0.000669053
-0.00787955
-0.000686562
-0.00779096
-0.000703773
-0.00770036
-0.000720687
-0.00760781
-0.000737302
-0.00751333
-0.000753616
-0.00741696
-0.000769628
-0.00731872
-0.000785337
-0.00721867
-0.000800741
-0.00711682
-0.00081584
-0.00701322
-0.00083063
-0.00690791
-0.000845111
-0.00680091
-0.000859281
-0.00669227
-0.000873139
-0.00658202
-0.000886684
-0.0064702
-0.000899913
-0.00635684
-0.000912825
-0.00624199
-0.000925419
-0.00612568
-0.000937693
-0.00600795
-0.000949646
-0.00588884
-0.000961275
-0.00576838
-0.000972581
-0.00564662
-0.000983561
-0.00552359
-0.000994214
-0.00539934
-0.00100454
-0.00527389
-0.00101453
-0.00514731
-0.0010242
-0.00501961
-0.00103353
-0.00489085
-0.00104253
-0.00476106
-0.00105119
-0.00463028
-0.00105952
-0.00449856
-0.00106751
-0.00436593
-0.00107516
-0.00423243
-0.00108247
-0.00409812
-0.00108945
-0.00396302
-0.00109608
-0.00382718
-0.00110237
-0.00369064
-0.00110832
-0.00355345
-0.00111393
-0.00341563
-0.00111919
-0.00327725
-0.0011241
-0.00313833
-0.00112867
-0.00299891
-0.00113289
-0.00285905
-0.00113677
-0.00271878
-0.0011403
-0.00257814
-0.00114348
-0.00243718
-0.00114631
-0.00229592
-0.00114879
-0.00215443
-0.00115092
-0.00115271
-0.00201274
-0.00959027
0.000635807
0.00955433
-0.00962414
0.000599879
-0.0096559
0.000564225
-0.00968547
0.000528875
-0.00971282
0.000493841
-0.0097379
0.000459133
-0.00976064
0.000424757
-0.00978102
0.00039072
-0.00979898
0.000357026
-0.00981448
0.000323677
-0.00982749
0.000290677
-0.00983798
0.000258026
-0.00984591
0.000225725
-0.00985126
0.000193774
-0.009854
0.000162171
-0.00985411
0.000130917
-0.00985158
0.000100009
-0.00984638
6.94452e-05
-0.00983852
3.92245e-05
-0.00982797
9.34424e-06
-0.00981473
-2.01976e-05
-0.0097988
-4.94035e-05
-0.00978019
-7.82766e-05
-0.00975888
-0.000106818
-0.00973488
-0.000135031
-0.0097082
-0.000162919
-0.00967885
-0.000190481
-0.00964684
-0.000217721
-0.00961216
-0.000244641
-0.00957485
-0.000271241
-0.00953491
-0.000297524
-0.00949236
-0.00032349
-0.00944721
-0.00034914
-0.00939949
-0.000374476
-0.0093492
-0.000399496
-0.00929639
-0.000424203
-0.00924105
-0.000448596
-0.00918323
-0.000472675
-0.00912294
-0.000496439
-0.0090602
-0.000519889
-0.00899504
-0.000543025
-0.00892749
-0.000565845
-0.00885757
-0.000588348
-0.00878531
-0.000610535
-0.00871074
-0.000632403
-0.00863389
-0.000653953
-0.00855478
-0.000675181
-0.00847346
-0.000696089
-0.00838993
-0.000716673
-0.00830425
-0.000736933
-0.00821644
-0.000756867
-0.00812653
-0.000776473
-0.00803455
-0.00079575
-0.00794054
-0.000814696
-0.00784453
-0.00083331
-0.00774656
-0.000851589
-0.00764666
-0.000869531
-0.00754486
-0.000887136
-0.0074412
-0.000904401
-0.00733571
-0.000921325
-0.00722844
-0.000937904
-0.00711941
-0.000954139
-0.00700866
-0.000970025
-0.00689624
-0.000985563
-0.00678218
-0.00100075
-0.00666651
-0.00101558
-0.00654927
-0.00103006
-0.0064305
-0.00104418
-0.00631025
-0.00105795
-0.00618854
-0.00107135
-0.00606542
-0.00108439
-0.00594093
-0.00109707
-0.00581511
-0.00110939
-0.00568799
-0.00112133
-0.00555962
-0.00113291
-0.00543003
-0.00114412
-0.00529928
-0.00115495
-0.00516739
-0.00116542
-0.00503441
-0.00117551
-0.00490038
-0.00118522
-0.00476534
-0.00119456
-0.00462934
-0.00120351
-0.00449241
-0.00121209
-0.0043546
-0.00122029
-0.00421594
-0.0012281
-0.00407649
-0.00123554
-0.00393627
-0.00124258
-0.00379535
-0.00124925
-0.00365375
-0.00125553
-0.00351152
-0.00126142
-0.0033687
-0.00126692
-0.00322534
-0.00127203
-0.00308147
-0.00127676
-0.00293715
-0.00128109
-0.0027924
-0.00128504
-0.00264728
-0.0012886
-0.00250183
-0.00129176
-0.00235609
-0.00129453
-0.0022101
-0.00129691
-0.0012989
-0.00206391
-0.00999249
0.000670301
0.00995799
-0.0100248
0.000632187
-0.0100549
0.000594306
-0.0100827
0.000556683
-0.0101082
0.000519334
-0.0101313
0.000482268
-0.010152
0.000445494
-0.0101703
0.000409021
-0.0101862
0.000372853
-0.0101995
0.000336999
-0.0102103
0.00030146
-0.0102185
0.000266241
-0.0102241
0.000231346
-0.0102271
0.000196777
-0.0102275
0.000162536
-0.0102252
0.000128624
-0.0102202
9.50424e-05
-0.0102126
6.17922e-05
-0.0102022
2.88733e-05
-0.0101892
-3.71365e-06
-0.0101734
-3.59687e-05
-0.0101549
-6.78919e-05
-0.0101337
-9.94831e-05
-0.0101098
-0.000130743
-0.0100831
-0.000161672
-0.0100538
-0.000192268
-0.0100217
-0.000222535
-0.00998698
-0.00025247
-0.00994955
-0.000282074
-0.00990944
-0.000311347
-0.00986668
-0.000340289
-0.00982127
-0.000368899
-0.00977323
-0.000397178
-0.00972258
-0.000425124
-0.00966934
-0.000452737
-0.00961353
-0.000480016
-0.00955517
-0.000506961
-0.00949427
-0.000533569
-0.00943087
-0.000559841
-0.00936498
-0.000585774
-0.00929664
-0.000611368
-0.00922587
-0.000636621
-0.00915268
-0.000661531
-0.00907712
-0.000686097
-0.00899921
-0.000710318
-0.00891897
-0.00073419
-0.00883644
-0.000757713
-0.00875164
-0.000780885
-0.00866461
-0.000803702
-0.00857538
-0.000826165
-0.00848398
-0.00084827
-0.00839043
-0.000870015
-0.00829479
-0.000891398
-0.00819706
-0.000912417
-0.0080973
-0.00093307
-0.00799554
-0.000953354
-0.0078918
-0.000973267
-0.00778613
-0.000992807
-0.00767856
-0.00101197
-0.00756913
-0.00103076
-0.00745787
-0.00104916
-0.00734482
-0.00106719
-0.00723001
-0.00108483
-0.00711349
-0.00110208
-0.0069953
-0.00111895
-0.00687546
-0.00113542
-0.00675402
-0.0011515
-0.00663102
-0.00116718
-0.0065065
-0.00118247
-0.0063805
-0.00119736
-0.00625305
-0.00121184
-0.00612419
-0.00122592
-0.00599398
-0.0012396
-0.00586244
-0.00125287
-0.00572962
-0.00126573
-0.00559556
-0.00127818
-0.00546031
-0.00129021
-0.00532389
-0.00130183
-0.00518636
-0.00131304
-0.00504776
-0.00132382
-0.00490812
-0.00133419
-0.0047675
-0.00134414
-0.00462593
-0.00135366
-0.00448346
-0.00136276
-0.00434012
-0.00137144
-0.00419597
-0.00137969
-0.00405105
-0.00138751
-0.00390539
-0.0013949
-0.00375905
-0.00140187
-0.00361206
-0.0014084
-0.00346447
-0.00141451
-0.00331632
-0.00142018
-0.00316767
-0.00142542
-0.00301854
-0.00143022
-0.00286898
-0.0014346
-0.00271904
-0.00143853
-0.00256876
-0.00144204
-0.00241819
-0.00144511
-0.00226736
-0.00144774
-0.00144994
-0.00211633
-0.0104184
0.000703515
0.0103852
-0.0104493
0.000663096
-0.0104779
0.000622873
-0.0105041
0.000582872
-0.0105279
0.000543107
-0.0105492
0.000503591
-0.010568
0.000464334
-0.0105843
0.000425344
-0.0105981
0.00038663
-0.0106093
0.000348199
-0.0106179
0.000310059
-0.0106239
0.000272213
-0.0106272
0.000234668
-0.0106279
0.000197429
-0.0106258
0.0001605
-0.0106211
0.000123883
-0.0106136
8.75835e-05
-0.0106034
5.16032e-05
-0.0105905
1.59458e-05
-0.0105748
-1.93872e-05
-0.0105564
-5.43931e-05
-0.0105352
-8.90703e-05
-0.0105113
-0.000123416
-0.0104846
-0.00015743
-0.0104552
-0.000191109
-0.010423
-0.000224453
-0.0103881
-0.000257458
-0.0103504
-0.000290125
-0.01031
-0.000322451
-0.010267
-0.000354435
-0.0102212
-0.000386075
-0.0101727
-0.000417369
-0.0101216
-0.000448316
-0.0100678
-0.000478913
-0.0100114
-0.000509159
-0.00995232
-0.000539052
-0.00989069
-0.00056859
-0.00982648
-0.000597771
-0.00975973
-0.000626592
-0.00969046
-0.000655051
-0.00961868
-0.000683147
-0.00954442
-0.000710877
-0.00946771
-0.000738238
-0.00938858
-0.000765228
-0.00930706
-0.000791844
-0.00922316
-0.000818084
-0.00913693
-0.000843946
-0.00904839
-0.000869426
-0.00895757
-0.000894522
-0.0088645
-0.000919231
-0.00876922
-0.000943551
-0.00867176
-0.000967479
-0.00857214
-0.000991012
-0.00847041
-0.00101415
-0.0083666
-0.00103688
-0.00826074
-0.00105921
-0.00815287
-0.00108114
-0.00804302
-0.00110266
-0.00793123
-0.00112376
-0.00781754
-0.00114445
-0.00770197
-0.00116473
-0.00758458
-0.00118458
-0.0074654
-0.00120401
-0.00734446
-0.00122302
-0.00722181
-0.0012416
-0.00709748
-0.00125975
-0.00697151
-0.00127747
-0.00684395
-0.00129475
-0.00671483
-0.00131159
-0.00658419
-0.001328
-0.00645208
-0.00134396
-0.00631852
-0.00135947
-0.00618358
-0.00137454
-0.00604728
-0.00138917
-0.00590968
-0.00140334
-0.0057708
-0.00141705
-0.0056307
-0.00143031
-0.00548941
-0.00144312
-0.00534698
-0.00145546
-0.00520346
-0.00146735
-0.00505887
-0.00147877
-0.00491328
-0.00148973
-0.00476672
-0.00150022
-0.00461924
-0.00151025
-0.00447087
-0.0015198
-0.00432167
-0.00152889
-0.00417168
-0.0015375
-0.00402094
-0.00154564
-0.00386949
-0.00155331
-0.00371739
-0.00156051
-0.00356468
-0.00156722
-0.00341139
-0.00157347
-0.00325758
-0.00157923
-0.00310329
-0.00158452
-0.00294856
-0.00158932
-0.00279345
-0.00159365