/*--------------------------------*- C++ -*----------------------------------*\
  =========                 |
  \\      /  F ield         | OpenFOAM: The Open Source CFD Toolbox
   \\    /   O peration     | Website:  https://openfoam.org
    \\  /    A nd           | Version:  9
     \\/     M anipulation  |
\*---------------------------------------------------------------------------*/
FoamFile
{
    format      ascii;
    class       volScalarField;
    location    "0.005";
    object      nut;
}
// * * * * * * * * * * * * * * * * * * * * * * * * * * * * * * * * * * * * * //

dimensions      [0 2 -1 0 0 0 0];

internalField   nonuniform List<scalar> 
5057
(
0.000855379
0.000117318
1.89229e-05
4.38601e-06
1.58876e-06
7.65772e-07
5.34565e-07
5.11799e-07
4.59951e-07
3.8522e-07
3.85874e-07
4.18866e-07
7.98307e-07
4.23804e-07
3.48104e-07
0.00241885
0.000664801
0.000331094
0.000212029
0.00015141
0.000113771
9.82426e-05
9.80962e-05
9.20225e-05
8.10697e-05
6.94007e-05
5.92222e-05
5.12952e-05
4.34952e-05
3.83868e-05
0.00379735
0.00123554
0.000637503
0.000413271
0.000301172
0.000232136
0.000184125
0.000160662
0.000139242
0.000118286
9.95016e-05
8.38759e-05
7.27957e-05
6.34348e-05
5.89765e-05
0.00500206
0.00183759
0.000951267
0.00060937
0.000437199
0.000331653
0.000256259
0.000204043
0.000165657
0.000135789
0.000112264
9.51116e-05
8.79668e-05
8.2702e-05
7.86386e-05
0.0060262
0.0024101
0.00125333
0.000793626
0.000558718
0.000413217
0.000317452
0.000252153
0.000205986
0.000172042
0.000146139
0.000126064
0.000114999
0.000105256
9.60992e-05
0.00685499
0.00291085
0.00152603
0.000955882
0.000659781
0.000485414
0.000374608
0.000300497
0.000248855
0.00021094
0.00018139
0.000156369
0.000136281
0.000120035
0.000106921
0.0074618
0.00330268
0.00175136
0.00108391
0.000743069
0.000546804
0.000423802
0.0003419
0.00028479
0.00024206
0.000207507
0.000179129
0.000156001
0.00013713
0.000121553
0.007795
0.00352714
0.00187055
0.00114695
0.000784308
0.000578361
0.000449429
0.000362807
0.000301905
0.000255714
0.00021916
0.000189796
0.000165818
0.000145479
0.000128152
0.00768293
0.00345536
0.00183538
0.00112284
0.000766227
0.000565508
0.000439385
0.000354102
0.000293765
0.000248753
0.00021275
0.000183771
0.000160077
0.00014034
0.000123305
0.00734689
0.00325187
0.00173057
0.00105759
0.000719105
0.000529036
0.000411741
0.000331354
0.000273652
0.000230453
0.000196747
0.000169528
0.00014711
0.000128671
0.000111903
0.0067483
0.00290762
0.00156084
0.000957768
0.000647368
0.00047255
0.000365215
0.000293886
0.000242644
0.000202151
0.000170236
0.000144469
0.00012365
0.000106327
9.1984e-05
0.00588965
0.00240262
0.00129552
0.000812089
0.000549146
0.000396056
0.00030033
0.00023698
0.000192747
0.000159618
0.000133887
0.000110783
9.12123e-05
7.74484e-05
6.98203e-05
0.00474337
0.00174931
0.000942205
0.000602707
0.000422295
0.000307821
0.000228187
0.000172345
0.000132775
0.0001031
8.1067e-05
6.42617e-05
5.15344e-05
4.57331e-05
3.65555e-05
0.00324266
0.00102472
0.000534214
0.000346688
0.000248831
0.000185564
0.000139337
0.00010772
9.14742e-05
7.13947e-05
5.38301e-05
3.94493e-05
2.68188e-05
1.7703e-05
1.91722e-05
0.00126056
0.000232493
7.38536e-05
2.39001e-05
8.62175e-06
3.55015e-06
1.62411e-06
8.55226e-07
5.67478e-07
3.78743e-07
4.80902e-07
6.3471e-07
2.97927e-07
2.34654e-07
2.55023e-07
4.43217e-07
8.07851e-07
1.20022e-06
1.42649e-06
1.48614e-06
1.30007e-06
9.85878e-07
6.741e-07
4.42061e-07
2.89637e-07
1.98833e-07
1.37068e-07
9.17201e-08
6.21737e-08
5.50719e-08
3.89641e-05
4.31423e-05
4.71642e-05
4.97375e-05
5.05831e-05
4.95507e-05
4.63098e-05
3.58639e-05
2.63732e-05
1.88831e-05
1.304e-05
8.63257e-06
5.57004e-06
3.51746e-06
2.15834e-06
6.15251e-05
6.52912e-05
6.83383e-05
7.08374e-05
7.21821e-05
7.19863e-05
7.00131e-05
6.50698e-05
5.65387e-05
4.78154e-05
3.89391e-05
3.03366e-05
2.22735e-05
1.52368e-05
9.58734e-06
7.90263e-05
7.93844e-05
8.10262e-05
8.18815e-05
8.2133e-05
8.15306e-05
7.99488e-05
7.66396e-05
7.07822e-05
6.42056e-05
5.67733e-05
4.856e-05
3.94816e-05
3.01582e-05
2.14401e-05
9.18484e-05
9.09568e-05
8.94242e-05
8.84186e-05
8.71435e-05
8.53886e-05
8.29399e-05
7.96412e-05
7.54196e-05
7.07875e-05
6.53406e-05
5.88252e-05
5.11112e-05
4.23103e-05
3.30128e-05
0.000101938
9.8034e-05
9.45068e-05
9.13331e-05
8.77583e-05
8.42963e-05
8.07476e-05
7.70733e-05
7.36259e-05
7.00956e-05
6.63159e-05
6.19097e-05
5.6414e-05
4.9365e-05
4.11308e-05
0.000112108
0.000103806
9.68211e-05
9.0217e-05
8.4407e-05
7.91396e-05
7.44505e-05
7.04301e-05
6.71231e-05
6.43112e-05
6.17515e-05
5.91763e-05
5.58075e-05
5.11998e-05
4.50953e-05
0.000115054
0.000103692
9.39579e-05
8.54016e-05
7.79644e-05
7.14414e-05
6.59029e-05
6.13647e-05
5.77139e-05
5.49546e-05
5.29899e-05
5.15842e-05
5.01255e-05
4.80762e-05
4.47065e-05
0.000109111
9.66097e-05
8.57478e-05
7.6261e-05
6.79948e-05
6.08853e-05
5.49431e-05
5.01289e-05
4.64008e-05
4.37847e-05
4.21952e-05
4.13275e-05
4.09215e-05
4.06304e-05
3.98278e-05
9.68583e-05
8.36342e-05
7.22104e-05
6.25837e-05
5.46107e-05
4.80758e-05
4.27479e-05
3.83826e-05
3.49576e-05
3.25429e-05
3.09298e-05
3.01693e-05
3.02159e-05
3.09189e-05
3.16634e-05
7.77991e-05
6.56448e-05
5.57994e-05
4.80045e-05
4.18612e-05
3.69158e-05
3.27494e-05
2.86641e-05
2.50906e-05
2.24365e-05
2.07178e-05
1.99189e-05
2.00228e-05
2.09765e-05
2.22095e-05
5.67288e-05
4.74889e-05
4.13547e-05
3.70083e-05
3.35059e-05
3.02328e-05
2.66207e-05
2.19436e-05
1.80427e-05
1.53004e-05
1.3518e-05
1.25047e-05
1.22434e-05
1.2572e-05
1.32342e-05
2.91568e-05
2.7803e-05
2.72758e-05
2.6673e-05
2.57572e-05
2.44001e-05
2.25535e-05
1.9878e-05
1.68349e-05
1.39458e-05
1.131e-05
8.89476e-06
7.25173e-06
6.4044e-06
6.13863e-06
1.93118e-05
1.97132e-05
2.01593e-05
2.00131e-05
1.93706e-05
1.82614e-05
1.70738e-05
1.47667e-05
1.22102e-05
9.69785e-06
7.38363e-06
5.28917e-06
3.17189e-06
2.12731e-06
1.6018e-06
2.73452e-07
2.70737e-07
2.54644e-07
2.31701e-07
2.07372e-07
1.83838e-07
3.59816e-07
4.09498e-07
4.02739e-07
3.52408e-07
2.90158e-07
2.32192e-07
1.6615e-07
2.37793e-07
1.18506e-07
5.77172e-08
6.02215e-08
6.28059e-08
6.39922e-08
6.59886e-08
6.91451e-08
7.23528e-08
7.59661e-08
7.62124e-08
7.67614e-08
8.6499e-08
1.04349e-07
1.9002e-06
1.56005e-06
1.24591e-06
1.00409e-06
9.08698e-07
8.46255e-07
7.84828e-07
7.18227e-07
6.36737e-07
5.47828e-07
4.95861e-07
4.79604e-07
8.04193e-06
6.68721e-06
5.6295e-06
4.77737e-06
3.93549e-06
3.1823e-06
2.52614e-06
1.96638e-06
1.49699e-06
1.10701e-06
8.09572e-07
5.77299e-07
1.88047e-05
1.61467e-05
1.37367e-05
1.16334e-05
9.853e-06
8.27633e-06
6.7696e-06
5.38005e-06
4.144e-06
3.06952e-06
2.1991e-06
1.4776e-06
2.99463e-05
2.6684e-05
2.34173e-05
2.0281e-05
1.74077e-05
1.48869e-05
1.26141e-05
1.03866e-05
8.2753e-06
6.32687e-06
4.63815e-06
3.1833e-06
3.79323e-05
3.47283e-05
3.13425e-05
2.78758e-05
2.44556e-05
2.12329e-05
1.82981e-05
1.55009e-05
1.27075e-05
9.99533e-06
7.50454e-06
5.28131e-06
4.19877e-05
3.89298e-05
3.5839e-05
3.25621e-05
2.9155e-05
2.57342e-05
2.24272e-05
1.92947e-05
1.61093e-05
1.29023e-05
9.83387e-06
7.0377e-06
4.20336e-05
3.93136e-05
3.65241e-05
3.36029e-05
3.04911e-05
2.72362e-05
2.39224e-05
2.06417e-05
1.73495e-05
1.39732e-05
1.06851e-05
7.68803e-06
3.75952e-05
3.5348e-05
3.30071e-05
3.05078e-05
2.78263e-05
2.49526e-05
2.19104e-05
1.87632e-05
1.55784e-05
1.24238e-05
9.40918e-06
6.72175e-06
2.97273e-05
2.78185e-05
2.58536e-05
2.37866e-05
2.15933e-05
1.92613e-05
1.67977e-05
1.42374e-05
1.16535e-05
9.14278e-06
6.80353e-06
4.78365e-06
2.06225e-05
1.90352e-05
1.74374e-05
1.5796e-05
1.41002e-05
1.23553e-05
1.05749e-05
8.78443e-06
7.03428e-06
5.39431e-06
3.92727e-06
2.71125e-06
1.19812e-05
1.07729e-05
9.592e-06
8.4226e-06
7.27137e-06
6.15617e-06
5.0929e-06
4.0978e-06
3.18845e-06
2.38823e-06
1.71505e-06
1.18351e-06
5.251e-06
4.465e-06
3.75478e-06
3.11259e-06
2.54105e-06
2.04406e-06
1.62575e-06
1.27889e-06
9.9352e-07
7.61738e-07
5.80669e-07
4.43393e-07
1.2153e-06
9.29016e-07
7.09839e-07
5.43532e-07
4.19327e-07
3.67622e-07
3.51172e-07
3.45152e-07
3.414e-07
3.36337e-07
3.43196e-07
3.67818e-07
8.83848e-08
6.66282e-08
5.69188e-08
5.27741e-08
5.11033e-08
5.15165e-08
5.32977e-08
5.59093e-08
5.71203e-08
5.56264e-08
6.51039e-08
8.74627e-08
0.0140558
0.0140559
0.014056
0.0140561
0.0140561
0.0140562
0.0140563
0.0140564
0.0140565
0.0140566
0.0140566
0.0140567
0.0140568
0.0140569
0.014057
0.0140571
0.0140571
0.0140572
0.0140573
0.0140574
0.0140574
0.0140575
0.0140576
0.0140576
0.0140577
0.0140577
0.0140577
0.0140577
0.0140577
0.0140577
0.0140577
0.0140577
0.0140577
0.0140577
0.0140577
0.0140577
0.0140577
0.0140577
0.0140577
0.0140577
0.0140577
0.0140577
0.0140577
0.0140577
0.0140577
0.0140577
0.0140578
0.0140578
0.0140578
0.0140579
0.014058
0.0140581
0.0140582
0.0140583
0.0140584
0.0140585
0.0140587
0.0140588
0.014059
0.0140591
0.0140593
0.0140594
0.0140596
0.0140597
0.0140599
0.0140601
0.0140602
0.0140604
0.0140606
0.0140608
0.0140609
0.0140611
0.0140612
0.0140733
0.014074
0.0140747
0.0140754
0.0140761
0.0140767
0.0140774
0.014078
0.0140787
0.0140793
0.0140799
0.0140805
0.0140811
0.0140817
0.0140823
0.0140828
0.0140834
0.014084
0.0140845
0.014085
0.0140856
0.0140861
0.0140866
0.0140871
0.0140876
0.0140881
0.0140886
0.0140891
0.0140896
0.0140901
0.0140905
0.014091
0.0140915
0.0140919
0.0140924
0.0140928
0.0140932
0.0140937
0.0140941
0.0140945
0.0140949
0.0140954
0.0140958
0.0140962
0.0140966
0.014097
0.0140973
0.0140977
0.0140981
0.0140985
0.0140988
0.0140992
0.0140995
0.0140999
0.0141002
0.0141005
0.0141008
0.0141011
0.0141013
0.0141016
0.0141019
0.0141021
0.0141024
0.0141026
0.0141029
0.0141031
0.0141033
0.0141035
0.0141037
0.0141039
0.0141041
0.0141043
0.0141045
0.0140449
0.0140452
0.0140455
0.0140458
0.0140461
0.0140464
0.0140467
0.014047
0.0140473
0.0140476
0.0140479
0.0140482
0.0140485
0.0140488
0.0140491
0.0140494
0.0140497
0.01405
0.0140502
0.0140505
0.0140508
0.0140511
0.0140514
0.0140517
0.014052
0.0140523
0.0140526
0.0140529
0.0140532
0.0140535
0.0140538
0.0140541
0.0140544
0.0140547
0.014055
0.0140553
0.0140555
0.0140558
0.0140561
0.0140564
0.0140567
0.0140569
0.0140572
0.0140575
0.0140578
0.014058
0.0140583
0.0140585
0.0140588
0.0140591
0.0140593
0.0140596
0.0140598
0.0140601
0.0140603
0.0140606
0.0140608
0.014061
0.0140613
0.0140615
0.0140617
0.014062
0.0140622
0.0140624
0.0140626
0.0140629
0.0140631
0.0140633
0.0140635
0.0140637
0.0140639
0.0140641
0.0140643
0.0140238
0.0140241
0.0140245
0.0140248
0.0140251
0.0140255
0.0140258
0.0140261
0.0140264
0.0140266
0.0140269
0.0140272
0.0140274
0.0140277
0.0140279
0.0140281
0.0140283
0.0140285
0.0140287
0.0140289
0.014029
0.0140292
0.0140293
0.0140294
0.0140295
0.0140296
0.0140297
0.0140297
0.0140297
0.0140297
0.0140297
0.0140297
0.0140296
0.0140294
0.0140292
0.0140289
0.0140286
0.0140283
0.0140281
0.0140278
0.0140275
0.0140273
0.014027
0.0140268
0.0140265
0.0140263
0.014026
0.0140258
0.0140255
0.0140253
0.014025
0.0140248
0.0140245
0.0140243
0.0140241
0.0140238
0.0140236
0.0140233
0.0140231
0.0140229
0.0140227
0.0140225
0.0140225
0.0140224
0.0140223
0.0140223
0.0140223
0.0140222
0.0140222
0.0140222
0.0140222
0.0140222
0.0140223
0.0140033
0.0140034
0.0140036
0.0140037
0.0140038
0.0140039
0.014004
0.0140042
0.0140043
0.0140044
0.0140045
0.0140046
0.0140046
0.0140047
0.0140048
0.0140049
0.014005
0.0140051
0.0140051
0.0140052
0.0140053
0.0140053
0.0140054
0.0140055
0.0140056
0.0140056
0.0140057
0.0140058
0.0140058
0.0140059
0.014006
0.014006
0.0140061
0.0140062
0.0140062
0.0140063
0.0140064
0.0140065
0.0140065
0.0140066
0.0140067
0.0140067
0.0140068
0.0140069
0.0140069
0.014007
0.0140071
0.0140071
0.0140072
0.0140073
0.0140073
0.0140074
0.0140075
0.0140075
0.0140076
0.0140077
0.0140077
0.0140078
0.0140079
0.0140079
0.014008
0.014008
0.0140081
0.0140082
0.0140082
0.0140083
0.0140084
0.0140085
0.0140085
0.0140086
0.0140087
0.0140088
0.0140089
0.0139851
0.0139852
0.0139852
0.0139853
0.0139853
0.0139853
0.0139852
0.0139852
0.0139851
0.013985
0.0139847
0.0139844
0.013984
0.0139836
0.0139832
0.0139829
0.0139825
0.0139821
0.0139818
0.0139814
0.013981
0.0139807
0.0139803
0.01398
0.0139796
0.0139793
0.0139789
0.0139786
0.0139782
0.0139779
0.0139776
0.0139772
0.0139769
0.0139766
0.0139763
0.0139759
0.0139756
0.0139753
0.013975
0.0139747
0.0139744
0.0139741
0.0139738
0.0139735
0.0139732
0.0139729
0.0139726
0.0139723
0.013972
0.0139718
0.0139715
0.0139712
0.0139709
0.0139707
0.0139704
0.0139702
0.0139699
0.0139697
0.0139694
0.0139692
0.0139689
0.0139687
0.0139685
0.0139683
0.0139683
0.0139684
0.0139684
0.0139685
0.0139686
0.0139687
0.0139689
0.0139691
0.0139692
0.0139559
0.0139556
0.0139554
0.0139551
0.0139549
0.0139547
0.0139544
0.0139543
0.0139542
0.0139543
0.0139543
0.0139544
0.0139545
0.0139547
0.0139548
0.0139549
0.0139551
0.0139553
0.0139554
0.0139556
0.0139558
0.013956
0.0139562
0.0139564
0.0139566
0.0139568
0.013957
0.0139572
0.0139574
0.0139577
0.0139579
0.0139581
0.0139583
0.0139586
0.0139588
0.0139591
0.0139593
0.0139595
0.0139598
0.01396
0.0139603
0.0139605
0.0139607
0.013961
0.0139612
0.0139615
0.0139617
0.013962
0.0139622
0.0139625
0.0139627
0.013963
0.0139632
0.0139635
0.0139637
0.013964
0.0139642
0.0139645
0.0139647
0.013965
0.0139652
0.0139655
0.0139657
0.013966
0.0139662
0.0139665
0.0139667
0.013967
0.0139672
0.0139675
0.0139677
0.013968
0.0139683
0.0139597
0.0139594
0.0139591
0.0139588
0.0139585
0.0139582
0.0139579
0.0139576
0.0139573
0.013957
0.0139567
0.0139565
0.0139562
0.0139559
0.0139556
0.0139553
0.0139551
0.0139548
0.0139545
0.0139543
0.013954
0.0139538
0.0139535
0.0139533
0.013953
0.0139528
0.0139526
0.0139523
0.0139521
0.0139519
0.0139517
0.0139515
0.0139513
0.0139511
0.0139509
0.0139507
0.0139505
0.0139503
0.01395
0.0139496
0.0139492
0.0139489
0.0139487
0.0139487
0.0139486
0.0139486
0.0139486
0.0139487
0.0139487
0.0139488
0.0139489
0.013949
0.0139491
0.0139492
0.0139493
0.0139495
0.0139496
0.0139498
0.01395
0.0139501
0.0139503
0.0139505
0.0139507
0.0139509
0.0139511
0.0139513
0.0139515
0.0139517
0.0139519
0.0139521
0.0139523
0.0139526
0.0139528
0.0139415
0.013941
0.0139406
0.0139401
0.0139396
0.0139392
0.0139387
0.0139382
0.0139377
0.0139373
0.0139368
0.0139363
0.0139359
0.0139354
0.0139349
0.0139344
0.013934
0.0139338
0.0139336
0.0139336
0.0139335
0.0139334
0.0139334
0.0139334
0.0139334
0.0139334
0.0139335
0.0139335
0.0139336
0.0139336
0.0139337
0.0139338
0.0139339
0.013934
0.0139341
0.0139342
0.0139343
0.0139344
0.0139345
0.0139346
0.0139348
0.0139349
0.013935
0.0139352
0.0139353
0.0139354
0.0139356
0.0139357
0.0139359
0.013936
0.0139362
0.0139363
0.0139365
0.0139366
0.0139368
0.013937
0.0139371
0.0139373
0.0139374
0.0139376
0.0139377
0.0139378
0.0139379
0.0139379
0.0139379
0.0139379
0.0139379
0.0139379
0.0139378
0.0139377
0.0139376
0.0139375
0.0139374
0.0139199
0.0139194
0.0139189
0.0139185
0.013918
0.0139175
0.013917
0.0139165
0.013916
0.0139156
0.0139151
0.0139146
0.0139141
0.0139136
0.0139131
0.0139126
0.0139121
0.0139116
0.0139111
0.0139107
0.0139102
0.0139097
0.0139093
0.0139088
0.0139084
0.013908
0.0139074
0.0139068
0.0139062
0.0139057
0.0139054
0.0139052
0.013905
0.0139049
0.0139048
0.0139048
0.0139047
0.0139047
0.0139047
0.0139047
0.0139047
0.0139047
0.0139047
0.0139047
0.0139047
0.0139048
0.0139048
0.0139048
0.0139049
0.0139049
0.0139049
0.013905
0.013905
0.0139051
0.0139051
0.0139051
0.0139052
0.0139052
0.0139052
0.0139053
0.0139053
0.0139052
0.0139052
0.0139051
0.013905
0.0139049
0.0139047
0.0139045
0.0139043
0.0139041
0.0139038
0.0139035
0.0139032
0.0138893
0.0138886
0.013888
0.0138873
0.0138867
0.013886
0.0138854
0.0138847
0.013884
0.0138834
0.0138827
0.013882
0.0138814
0.0138807
0.01388
0.0138794
0.0138787
0.013878
0.0138774
0.0138769
0.0138767
0.0138765
0.0138764
0.0138763
0.0138762
0.0138762
0.0138762
0.0138761
0.0138762
0.0138762
0.0138762
0.0138762
0.0138762
0.0138761
0.013876
0.0138758
0.0138756
0.0138753
0.0138748
0.0138742
0.0138734
0.0138726
0.0138719
0.0138711
0.0138704
0.0138696
0.0138689
0.0138681
0.0138673
0.0138666
0.0138658
0.0138651
0.0138643
0.0138635
0.0138628
0.013862
0.0138613
0.0138605
0.0138597
0.013859
0.0138582
0.0138574
0.0138567
0.0138559
0.0138551
0.0138543
0.0138536
0.0138528
0.013852
0.0138512
0.0138505
0.0138497
0.013849
0.0138607
0.01386
0.0138593
0.0138585
0.0138578
0.013857
0.0138563
0.0138556
0.0138548
0.0138541
0.0138533
0.0138526
0.0138518
0.0138511
0.0138503
0.0138495
0.0138488
0.013848
0.0138473
0.0138465
0.0138457
0.013845
0.0138442
0.0138434
0.0138428
0.0138425
0.0138422
0.0138421
0.0138419
0.0138418
0.0138417
0.0138417
0.0138416
0.0138414
0.0138412
0.013841
0.0138407
0.0138403
0.0138397
0.0138389
0.013838
0.0138371
0.0138362
0.0138353
0.0138344
0.0138335
0.0138326
0.0138318
0.0138309
0.01383
0.0138291
0.0138282
0.0138273
0.0138264
0.0138255
0.0138246
0.0138237
0.0138227
0.0138218
0.0138209
0.01382
0.0138191
0.0138182
0.0138173
0.0138163
0.0138154
0.0138145
0.0138136
0.0138127
0.0138117
0.0138108
0.0138099
0.013809
0.0138349
0.0138341
0.0138332
0.0138324
0.0138315
0.0138306
0.0138298
0.0138289
0.013828
0.0138271
0.0138263
0.0138254
0.0138245
0.0138236
0.0138227
0.0138219
0.013821
0.0138201
0.0138192
0.0138183
0.0138174
0.0138165
0.0138156
0.0138147
0.0138138
0.0138129
0.013812
0.013811
0.0138101
0.0138092
0.0138083
0.0138074
0.0138065
0.0138056
0.0138047
0.0138037
0.0138028
0.0138019
0.013801
0.0138
0.0137991
0.0137982
0.0137972
0.0137963
0.0137954
0.0137944
0.0137935
0.0137925
0.0137916
0.0137906
0.0137897
0.0137887
0.0137877
0.0137868
0.0137858
0.0137848
0.0137838
0.0137829
0.0137819
0.0137809
0.0137799
0.0137789
0.0137779
0.0137769
0.0137759
0.0137749
0.0137739
0.0137729
0.0137719
0.0137709
0.0137699
0.0137689
0.0137679
0.0138094
0.0138084
0.0138075
0.0138065
0.0138055
0.0138045
0.0138035
0.0138025
0.0138015
0.0138004
0.0137994
0.0137984
0.0137974
0.0137964
0.0137954
0.0137943
0.0137933
0.0137923
0.0137912
0.0137902
0.0137892
0.0137881
0.0137871
0.013786
0.013785
0.0137839
0.0137829
0.0137818
0.0137807
0.0137797
0.0137786
0.0137775
0.0137765
0.0137754
0.0137743
0.0137732
0.0137721
0.013771
0.0137699
0.0137689
0.0137678
0.0137666
0.0137655
0.0137644
0.0137633
0.0137622
0.0137611
0.01376
0.0137588
0.0137577
0.0137566
0.0137554
0.0137543
0.0137532
0.013752
0.0137509
0.0137497
0.0137486
0.0137474
0.0137462
0.0137451
0.0137439
0.0137427
0.0137415
0.0137404
0.0137392
0.013738
0.0137368
0.0137356
0.0137344
0.0137332
0.013732
0.0137309
0.0137299
0.0137832
0.0137821
0.0137809
0.0137798
0.0137786
0.0137774
0.0137763
0.0137751
0.013774
0.0137728
0.0137716
0.0137704
0.0137692
0.0137681
0.0137669
0.0137657
0.0137645
0.0137633
0.0137621
0.0137609
0.0137597
0.0137585
0.0137572
0.013756
0.0137548
0.0137536
0.0137523
0.0137511
0.0137499
0.0137486
0.0137474
0.0137461
0.0137449
0.0137436
0.0137423
0.0137411
0.0137398
0.0137385
0.0137372
0.013736
0.0137347
0.0137334
0.0137321
0.0137308
0.0137295
0.0137282
0.0137269
0.0137256
0.0137242
0.0137229
0.0137216
0.0137202
0.0137189
0.0137176
0.0137162
0.0137149
0.0137135
0.0137122
0.0137108
0.0137094
0.0137081
0.0137067
0.0137053
0.0137039
0.0137025
0.0137011
0.0136997
0.0136983
0.0136969
0.0136955
0.0136941
0.0136927
0.0136914
0.0136902
0.0137558
0.0137545
0.0137531
0.0137518
0.0137505
0.0137491
0.0137478
0.0137464
0.0137451
0.0137437
0.0137424
0.013741
0.0137396
0.0137382
0.0137369
0.0137355
0.0137341
0.0137327
0.0137313
0.0137299
0.0137285
0.0137271
0.0137256
0.0137242
0.0137228
0.0137214
0.0137199
0.0137185
0.013717
0.0137156
0.0137141
0.0137127
0.0137112
0.0137097
0.0137082
0.0137068
0.0137053
0.0137038
0.0137023
0.0137008
0.0136993
0.0136978
0.0136962
0.0136947
0.0136932
0.0136916
0.0136901
0.0136886
0.013687
0.0136854
0.0136839
0.0136823
0.0136807
0.0136791
0.0136776
0.013676
0.0136744
0.0136728
0.0136712
0.0136695
0.0136679
0.0136663
0.0136647
0.013663
0.0136614
0.0136597
0.0136581
0.0136564
0.0136547
0.0136531
0.0136514
0.0136497
0.0136481
0.0136468
0.0137263
0.0137248
0.0137233
0.0137217
0.0137201
0.0137186
0.013717
0.0137154
0.0137139
0.0137123
0.0137107
0.0137091
0.0137075
0.0137059
0.0137043
0.0137027
0.013701
0.0136994
0.0136978
0.0136961
0.0136945
0.0136928
0.0136912
0.0136895
0.0136878
0.0136861
0.0136845
0.0136828
0.0136811
0.0136794
0.0136776
0.0136759
0.0136742
0.0136725
0.0136707
0.013669
0.0136672
0.0136655
0.0136637
0.0136619
0.0136602
0.0136584
0.0136566
0.0136548
0.013653
0.0136512
0.0136493
0.0136475
0.0136457
0.0136438
0.013642
0.0136401
0.0136382
0.0136364
0.0136345
0.0136326
0.0136307
0.0136288
0.0136269
0.013625
0.013623
0.0136211
0.0136192
0.0136172
0.0136153
0.0136133
0.0136113
0.0136093
0.0136074
0.0136054
0.0136034
0.0136014
0.0135995
0.0135978
0.0136944
0.0136926
0.0136908
0.013689
0.0136872
0.0136854
0.0136835
0.0136817
0.0136799
0.013678
0.0136761
0.0136743
0.0136724
0.0136705
0.0136686
0.0136668
0.0136649
0.0136629
0.013661
0.0136591
0.0136572
0.0136552
0.0136533
0.0136513
0.0136493
0.0136474
0.0136454
0.0136434
0.0136414
0.0136394
0.0136374
0.0136353
0.0136333
0.0136313
0.0136292
0.0136271
0.0136251
0.013623
0.0136209
0.0136188
0.0136167
0.0136146
0.0136125
0.0136103
0.0136082
0.013606
0.0136039
0.0136017
0.0135995
0.0135973
0.0135951
0.0135929
0.0135907
0.0135884
0.0135862
0.0135839
0.0135817
0.0135794
0.0135771
0.0135748
0.0135725
0.0135702
0.0135679
0.0135655
0.0135632
0.0135608
0.0135584
0.0135561
0.0135537
0.0135513
0.0135489
0.0135465
0.0135442
0.0135423
0.0136592
0.0136572
0.0136551
0.0136529
0.0136508
0.0136487
0.0136466
0.0136444
0.0136423
0.0136401
0.0136379
0.0136357
0.0136335
0.0136313
0.0136291
0.0136269
0.0136246
0.0136224
0.0136201
0.0136179
0.0136156
0.0136133
0.013611
0.0136087
0.0136064
0.013604
0.0136017
0.0135993
0.013597
0.0135946
0.0135922
0.0135898
0.0135874
0.013585
0.0135825
0.0135801
0.0135776
0.0135752
0.0135727
0.0135702
0.0135677
0.0135651
0.0135626
0.0135601
0.0135575
0.0135549
0.0135523
0.0135497
0.0135471
0.0135445
0.0135419
0.0135392
0.0135365
0.0135339
0.0135312
0.0135285
0.0135257
0.013523
0.0135203
0.0135175
0.0135147
0.0135119
0.0135091
0.0135063
0.0135035
0.0135006
0.0134978
0.0134949
0.013492
0.0134891
0.0134862
0.0134833
0.0134805
0.0134782
0.0136204
0.0136179
0.0136155
0.013613
0.0136105
0.013608
0.0136055
0.013603
0.0136005
0.0135979
0.0135954
0.0135928
0.0135902
0.0135876
0.013585
0.0135824
0.0135798
0.0135771
0.0135744
0.0135718
0.0135691
0.0135664
0.0135636
0.0135609
0.0135582
0.0135554
0.0135526
0.0135498
0.013547
0.0135442
0.0135413
0.0135385
0.0135356
0.0135327
0.0135298
0.0135269
0.013524
0.013521
0.013518
0.013515
0.013512
0.013509
0.013506
0.0135029
0.0134998
0.0134968
0.0134937
0.0134905
0.0134874
0.0134842
0.013481
0.0134778
0.0134746
0.0134714
0.0134681
0.0134649
0.0134616
0.0134583
0.0134549
0.0134516
0.0134482
0.0134448
0.0134414
0.013438
0.0134345
0.0134311
0.0134276
0.0134241
0.0134206
0.013417
0.0134135
0.0134099
0.0134066
0.0134037
0.0135771
0.0135742
0.0135713
0.0135684
0.0135655
0.0135626
0.0135596
0.0135567
0.0135537
0.0135507
0.0135477
0.0135446
0.0135416
0.0135385
0.0135354
0.0135323
0.0135292
0.0135261
0.0135229
0.0135197
0.0135166
0.0135133
0.0135101
0.0135069
0.0135036
0.0135003
0.013497
0.0134936
0.0134903
0.0134869
0.0134835
0.0134801
0.0134767
0.0134732
0.0134697
0.0134662
0.0134627
0.0134592
0.0134556
0.013452
0.0134484
0.0134448
0.0134411
0.0134374
0.0134337
0.01343
0.0134262
0.0134224
0.0134186
0.0134148
0.0134109
0.0134071
0.0134032
0.0133992
0.0133953
0.0133913
0.0133873
0.0133833
0.0133792
0.0133751
0.013371
0.0133669
0.0133627
0.0133585
0.0133543
0.01335
0.0133458
0.0133415
0.0133371
0.0133328
0.0133284
0.0133241
0.0133199
0.0133165
0.0135286
0.0135253
0.0135219
0.0135185
0.013515
0.0135116
0.0135081
0.0135046
0.0135011
0.0134976
0.013494
0.0134904
0.0134868
0.0134832
0.0134795
0.0134758
0.0134721
0.0134684
0.0134647
0.0134609
0.0134571
0.0134533
0.0134494
0.0134455
0.0134416
0.0134377
0.0134337
0.0134297
0.0134257
0.0134217
0.0134176
0.0134135
0.0134094
0.0134052
0.013401
0.0133968
0.0133926
0.0133883
0.013384
0.0133796
0.0133753
0.0133709
0.0133664
0.013362
0.0133575
0.0133529
0.0133484
0.0133438
0.0133392
0.0133345
0.0133298
0.0133251
0.0133203
0.0133155
0.0133107
0.0133058
0.0133009
0.0132959
0.013291
0.0132859
0.0132809
0.0132758
0.0132707
0.0132655
0.0132603
0.013255
0.0132498
0.0132444
0.0132391
0.0132337
0.0132283
0.0132229
0.0132177
0.0132135
0.0134743
0.0134703
0.0134663
0.0134623
0.0134583
0.0134542
0.0134501
0.013446
0.0134418
0.0134376
0.0134334
0.0134292
0.0134249
0.0134206
0.0134162
0.0134119
0.0134075
0.013403
0.0133986
0.013394
0.0133895
0.0133849
0.0133803
0.0133757
0.013371
0.0133663
0.0133615
0.0133568
0.0133519
0.0133471
0.0133422
0.0133372
0.0133323
0.0133272
0.0133222
0.0133171
0.0133119
0.0133067
0.0133015
0.0132963
0.0132909
0.0132856
0.0132802
0.0132748
0.0132693
0.0132637
0.0132582
0.0132525
0.0132469
0.0132412
0.0132354
0.0132296
0.0132237
0.0132178
0.0132119
0.0132059
0.0131998
0.0131937
0.0131876
0.0131814
0.0131751
0.0131688
0.0131625
0.013156
0.0131496
0.0131431
0.0131365
0.0131298
0.0131232
0.0131164
0.0131097
0.0131029
0.0130965
0.0130913
0.0134132
0.0134086
0.0134039
0.0133991
0.0133944
0.0133896
0.0133847
0.0133798
0.0133749
0.0133699
0.0133649
0.0133599
0.0133548
0.0133497
0.0133445
0.0133393
0.0133341
0.0133288
0.0133235
0.0133181
0.0133126
0.0133072
0.0133017
0.0132961
0.0132905
0.0132848
0.0132791
0.0132733
0.0132675
0.0132616
0.0132557
0.0132497
0.0132437
0.0132376
0.0132315
0.0132253
0.013219
0.0132127
0.0132064
0.0131999
0.0131935
0.0131869
0.0131803
0.0131737
0.0131669
0.0131601
0.0131533
0.0131464
0.0131394
0.0131324
0.0131252
0.0131181
0.0131108
0.0131035
0.0130961
0.0130887
0.0130812
0.0130736
0.0130659
0.0130582
0.0130504
0.0130425
0.0130346
0.0130266
0.0130185
0.0130103
0.013002
0.0129937
0.0129853
0.0129768
0.0129683
0.0129598
0.0129517
0.0129451
0.0133447
0.0133392
0.0133337
0.0133281
0.0133224
0.0133167
0.013311
0.0133052
0.0132994
0.0132935
0.0132876
0.0132816
0.0132756
0.0132695
0.0132633
0.0132571
0.0132508
0.0132445
0.0132381
0.0132317
0.0132252
0.0132186
0.0132119
0.0132052
0.0131985
0.0131916
0.0131847
0.0131778
0.0131707
0.0131636
0.0131564
0.0131492
0.0131419
0.0131345
0.013127
0.0131194
0.0131118
0.0131041
0.0130963
0.0130884
0.0130804
0.0130724
0.0130643
0.013056
0.0130477
0.0130394
0.0130309
0.0130223
0.0130137
0.0130049
0.0129961
0.0129872
0.0129781
0.012969
0.0129598
0.0129505
0.0129411
0.0129316
0.012922
0.0129122
0.0129024
0.0128925
0.0128825
0.0128723
0.0128621
0.0128518
0.0128413
0.0128307
0.0128201
0.0128093
0.0127984
0.0127876
0.0127773
0.012769
0.0132678
0.0132613
0.0132548
0.0132482
0.0132415
0.0132348
0.013228
0.0132211
0.0132142
0.0132072
0.0132002
0.0131931
0.0131859
0.0131786
0.0131712
0.0131638
0.0131563
0.0131487
0.0131411
0.0131333
0.0131255
0.0131176
0.0131096
0.0131015
0.0130933
0.0130851
0.0130767
0.0130682
0.0130597
0.013051
0.0130423
0.0130334
0.0130245
0.0130154
0.0130062
0.0129969
0.0129876
0.0129781
0.0129685
0.0129587
0.0129489
0.0129389
0.0129289
0.0129187
0.0129084
0.0128979
0.0128874
0.0128767
0.0128659
0.0128549
0.0128438
0.0128326
0.0128213
0.0128098
0.0127982
0.0127864
0.0127746
0.0127625
0.0127503
0.012738
0.0127256
0.012713
0.0127002
0.0126873
0.0126742
0.012661
0.0126476
0.0126341
0.0126204
0.0126066
0.0125927
0.0125788
0.0125655
0.0125549
0.0131815
0.0131738
0.0131661
0.0131583
0.0131504
0.0131425
0.0131344
0.0131263
0.013118
0.0131097
0.0131013
0.0130928
0.0130842
0.0130755
0.0130667
0.0130578
0.0130488
0.0130397
0.0130305
0.0130212
0.0130117
0.0130021
0.0129924
0.0129826
0.0129727
0.0129626
0.0129525
0.0129421
0.0129317
0.0129211
0.0129104
0.0128995
0.0128885
0.0128773
0.012866
0.0128546
0.0128429
0.0128312
0.0128192
0.0128072
0.0127949
0.0127825
0.0127699
0.0127572
0.0127442
0.0127311
0.0127179
0.0127044
0.0126908
0.012677
0.012663
0.0126488
0.0126344
0.0126199
0.0126051
0.0125902
0.012575
0.0125597
0.0125442
0.0125284
0.0125125
0.0124963
0.01248
0.0124634
0.0124466
0.0124296
0.0124124
0.012395
0.0123773
0.0123595
0.0123415
0.0123236
0.0123064
0.0122927
0.013084
0.013075
0.0130659
0.0130566
0.0130473
0.0130378
0.0130283
0.0130186
0.0130088
0.0129989
0.0129889
0.0129787
0.0129684
0.012958
0.0129474
0.0129367
0.0129259
0.0129149
0.0129038
0.0128925
0.012881
0.0128694
0.0128577
0.0128457
0.0128336
0.0128213
0.0128089
0.0127962
0.0127834
0.0127704
0.0127572
0.0127438
0.0127302
0.0127164
0.0127023
0.0126881
0.0126737
0.012659
0.0126441
0.012629
0.0126137
0.0125981
0.0125823
0.0125663
0.01255
0.0125335
0.0125167
0.0124997
0.0124824
0.0124649
0.0124471
0.012429
0.0124107
0.0123921
0.0123733
0.0123542
0.0123348
0.0123151
0.0122952
0.012275
0.0122545
0.0122337
0.0122127
0.0121913
0.0121697
0.0121478
0.0121256
0.0121031
0.0120803
0.0120573
0.012034
0.0120108
0.0119885
0.0119707
0.0129737
0.012963
0.0129522
0.0129412
0.0129302
0.0129189
0.0129076
0.0128961
0.0128844
0.0128726
0.0128606
0.0128484
0.0128361
0.0128236
0.0128109
0.012798
0.0127849
0.0127717
0.0127582
0.0127445
0.0127307
0.0127165
0.0127022
0.0126877
0.0126729
0.0126579
0.0126426
0.0126271
0.0126113
0.0125952
0.0125789
0.0125623
0.0125455
0.0125283
0.0125109
0.0124932
0.0124752
0.0124568
0.0124382
0.0124192
0.0123999
0.0123803
0.0123604
0.0123402
0.0123196
0.0122986
0.0122773
0.0122557
0.0122337
0.0122114
0.0121887
0.0121656
0.0121422
0.0121185
0.0120943
0.0120698
0.0120449
0.0120197
0.0119941
0.0119681
0.0119417
0.011915
0.0118879
0.0118604
0.0118325
0.0118043
0.0117757
0.0117467
0.0117174
0.0116877
0.0116577
0.0116278
0.011599
0.011576
0.0128485
0.0128359
0.0128231
0.0128101
0.012797
0.0127837
0.0127701
0.0127564
0.0127425
0.0127284
0.0127141
0.0126996
0.0126848
0.0126698
0.0126545
0.012639
0.0126233
0.0126073
0.012591
0.0125744
0.0125576
0.0125404
0.012523
0.0125052
0.0124871
0.0124687
0.01245
0.0124309
0.0124115
0.0123917
0.0123716
0.012351
0.0123301
0.0123088
0.0122871
0.012265
0.0122424
0.0122195
0.0121961
0.0121722
0.0121479
0.0121232
0.012098
0.0120724
0.0120463
0.0120197
0.0119926
0.0119651
0.011937
0.0119085
0.0118795
0.0118501
0.0118201
0.0117896
0.0117587
0.0117273
0.0116954
0.011663
0.0116301
0.0115967
0.0115629
0.0115286
0.0114938
0.0114586
0.0114229
0.0113867
0.0113501
0.0113131
0.0112756
0.0112377
0.0111995
0.0111613
0.0111246
0.011095
0.0127064
0.0126915
0.0126764
0.0126611