/*--------------------------------*- C++ -*----------------------------------*\
  =========                 |
  \\      /  F ield         | OpenFOAM: The Open Source CFD Toolbox
   \\    /   O peration     | Website:  https://openfoam.org
    \\  /    A nd           | Version:  9
     \\/     M anipulation  |
\*---------------------------------------------------------------------------*/
FoamFile
{
    format      ascii;
    class       volScalarField;
    location    "0.005";
    object      nut;
}
// * * * * * * * * * * * * * * * * * * * * * * * * * * * * * * * * * * * * * //

dimensions      [0 2 -1 0 0 0 0];

internalField   nonuniform List<scalar> 
7864
(
0.000854868
0.000117271
1.89755e-05
4.3963e-06
1.59051e-06
7.65621e-07
5.32841e-07
5.0989e-07
4.5792e-07
3.81825e-07
5.60672e-07
8.15834e-07
4.18383e-07
4.32157e-07
3.54523e-07
0.00241757
0.000663374
0.000330105
0.000211322
0.000150885
0.000113365
9.77561e-05
9.76024e-05
9.15539e-05
8.06521e-05
6.90902e-05
5.91574e-05
5.06818e-05
4.32804e-05
3.82746e-05
0.00379561
0.00123309
0.000635597
0.000411774
0.000299959
0.000231139
0.000183282
0.000159862
0.000138531
0.000117668
9.89331e-05
8.33882e-05
7.23428e-05
6.30908e-05
5.86918e-05
0.00500007
0.00183428
0.000948535
0.000607183
0.000435418
0.00033019
0.000255066
0.000203052
0.000164833
0.000135104
0.000111681
9.45931e-05
8.74567e-05
8.22355e-05
7.82152e-05
0.00602409
0.00240613
0.00124989
0.000790839
0.000556459
0.000411392
0.000315968
0.000250929
0.000204962
0.000171173
0.000145391
0.000125402
0.000114376
0.000104679
9.55749e-05
0.00685283
0.00290647
0.00152204
0.000952612
0.000657152
0.000483288
0.000372863
0.00029904
0.000247616
0.000209871
0.000180459
0.000155557
0.000135564
0.000119397
0.000106347
0.00745963
0.00329805
0.001747
0.00108032
0.000740166
0.000544442
0.000421847
0.000340252
0.000283376
0.000240833
0.00020644
0.000178199
0.000155184
0.000136406
0.000120908
0.00779284
0.00352236
0.00186602
0.00114321
0.000781277
0.000575879
0.000447363
0.000361061
0.000300407
0.000254417
0.000218032
0.000188809
0.00016495
0.000144714
0.000127475
0.00768079
0.0034507
0.00183096
0.0011192
0.000763279
0.000563089
0.000437369
0.000352403
0.000292311
0.000247495
0.000211659
0.000182819
0.000159243
0.000139605
0.000122657
0.0073449
0.00324745
0.00172642
0.00105418
0.000716346
0.000526774
0.000409856
0.000329767
0.000272301
0.000229292
0.000195744
0.000168657
0.000146349
0.000128003
0.000111321
0.00674644
0.00290371
0.00155708
0.000954679
0.000644888
0.000470551
0.000363565
0.000292499
0.000241465
0.000201151
0.000169387
0.000143745
0.000123027
0.000105791
9.15186e-05
0.00588794
0.00239926
0.00129245
0.000809523
0.000547083
0.000394406
0.000298998
0.000235886
0.000191838
0.000158855
0.00013325
0.000110257
9.0775e-05
7.70768e-05
6.9479e-05
0.00474186
0.00174667
0.000939963
0.000600832
0.000420748
0.000306577
0.000227212
0.000171582
0.000132182
0.00010264
8.07112e-05
6.3969e-05
5.1318e-05
4.55288e-05
3.63902e-05
0.00324149
0.00102309
0.000532931
0.000345652
0.00024799
0.000184896
0.000138823
0.000107238
9.1066e-05
7.10726e-05
5.3454e-05
3.8991e-05
2.67063e-05
1.76448e-05
1.91071e-05
0.00126003
0.000232193
7.39281e-05
2.39655e-05
8.64321e-06
3.5555e-06
1.62487e-06
8.53808e-07
5.66027e-07
3.74244e-07
3.209e-07
3.25525e-07
2.95787e-07
2.51263e-07
2.65696e-07
4.44549e-07
8.05061e-07
1.19176e-06
1.41477e-06
1.47387e-06
1.28864e-06
9.77581e-07
6.68824e-07
4.38829e-07
2.87763e-07
1.97695e-07
1.36371e-07
9.13194e-08
6.2189e-08
5.52977e-08
3.88154e-05
4.29451e-05
4.69219e-05
4.94651e-05
5.02969e-05
4.92637e-05
4.60365e-05
3.56446e-05
2.62135e-05
1.87695e-05
1.29619e-05
8.58108e-06
5.53697e-06
3.49698e-06
2.14623e-06
6.12254e-05
6.49613e-05
6.79803e-05
7.04567e-05
7.17879e-05
7.15879e-05
6.96208e-05
6.46981e-05
5.62156e-05
4.75418e-05
3.87162e-05
3.01629e-05
2.21458e-05
1.51496e-05
9.53257e-06
7.86041e-05
7.89585e-05
8.05885e-05
8.14361e-05
8.16838e-05
8.10826e-05
7.95074e-05
7.62134e-05
7.03875e-05
6.38468e-05
5.64553e-05
4.82876e-05
3.92598e-05
2.99886e-05
2.13196e-05
9.13461e-05
9.04589e-05
8.89332e-05
8.79326e-05
8.66641e-05
8.49186e-05
8.24828e-05
7.92017e-05
7.50032e-05
7.03961e-05
6.49785e-05
5.84987e-05
5.08269e-05
4.20748e-05
3.2829e-05
0.000101383
9.74967e-05
9.39867e-05
9.08318e-05
8.72766e-05
8.38336e-05
8.03041e-05
7.66504e-05
7.3222e-05
6.97107e-05
6.59515e-05
6.15688e-05
5.61028e-05
4.90921e-05
4.09032e-05
0.000111509
0.000103251
9.63011e-05
8.973e-05
8.39505e-05
7.87116e-05
7.40478e-05
7.00489e-05
6.67594e-05
6.39619e-05
6.14153e-05
5.88531e-05
5.55016e-05
5.09184e-05
4.48469e-05
0.000114444
0.00010314
9.3457e-05
8.49452e-05
7.75475e-05
7.1059e-05
6.55496e-05
6.10351e-05
5.74033e-05
5.46581e-05
5.27031e-05
5.13041e-05
4.98522e-05
4.78131e-05
4.44612e-05
0.000108536
9.60994e-05
8.52941e-05
7.58569e-05
6.76335e-05
6.05602e-05
5.46479e-05
4.98579e-05
4.61488e-05
4.35461e-05
4.19648e-05
4.11015e-05
4.06975e-05
4.04076e-05
3.9609e-05
9.63535e-05
8.31983e-05
7.18329e-05
6.22541e-05
5.43191e-05
4.78134e-05
4.2509e-05
3.81641e-05
3.47567e-05
3.23556e-05
3.07526e-05
2.99978e-05
3.00456e-05
3.0746e-05
3.14873e-05
7.74038e-05
6.5309e-05
5.55101e-05
4.77479e-05
4.16263e-05
3.6692e-05
3.25371e-05
2.84717e-05
2.49217e-05
2.2288e-05
2.0584e-05
1.97941e-05
1.99012e-05
2.08529e-05
2.20816e-05
5.64461e-05
4.72454e-05
4.11334e-05
3.67905e-05
3.32876e-05
2.99893e-05
2.63778e-05
2.17361e-05
1.78846e-05
1.5175e-05
1.34143e-05
1.24147e-05
1.21592e-05
1.24917e-05
1.31533e-05
2.90096e-05
2.76528e-05
2.71172e-05
2.64801e-05
2.55863e-05
2.41155e-05
2.22594e-05
1.96645e-05
1.66734e-05
1.38211e-05
1.12137e-05
8.82252e-06
7.18492e-06
6.35869e-06
6.09847e-06
1.92328e-05
1.96128e-05
2.00312e-05
1.97826e-05
1.95187e-05
1.78945e-05
1.63894e-05
1.42513e-05
1.1814e-05
9.40086e-06
7.17051e-06
5.14245e-06
2.99636e-06
2.04427e-06
1.55629e-06
2.7858e-07
2.73135e-07
2.55906e-07
2.3128e-07
4.34635e-07
1.65352e-07
1.49298e-07
1.40779e-07
1.29181e-07
1.12046e-07
9.37411e-08
7.76135e-08
5.8533e-08
1.3217e-07
5.41072e-08
5.81013e-08
6.0417e-08
6.27654e-08
6.37809e-08
6.56725e-08
6.87541e-08
7.1926e-08
7.54585e-08
7.57569e-08
7.63362e-08
8.59846e-08
1.03943e-07
1.41782e-07
2.24098e-07
4.02935e-07
1.88977e-06
1.55155e-06
1.23908e-06
9.9846e-07
9.03545e-07
8.41371e-07
7.80268e-07
7.14054e-07
6.33043e-07
5.44704e-07
4.92999e-07
4.77569e-07
5.26606e-07
7.37227e-07
1.28092e-06
7.99622e-06
6.64938e-06
5.59776e-06
4.75052e-06
3.91342e-06
3.16449e-06
2.51203e-06
1.95549e-06
1.48873e-06
1.10115e-06
8.05286e-07
5.74899e-07
4.43587e-07
5.61233e-07
8.76435e-07
1.86993e-05
1.60563e-05
1.366e-05
1.15686e-05
9.79826e-06
8.23052e-06
6.7323e-06
5.35068e-06
4.12158e-06
3.05342e-06
2.18798e-06
1.47135e-06
1.00211e-06
6.91746e-07
9.87692e-07
2.97798e-05
2.65358e-05
2.32874e-05
2.01687e-05
1.73115e-05
1.48049e-05
1.25449e-05
1.033e-05
8.23082e-06
6.29355e-06
4.61534e-06
3.16854e-06
2.13168e-06
1.2918e-06
1.55352e-06
3.77225e-05
3.45363e-05
3.11693e-05
2.77219e-05
2.43208e-05
2.11161e-05
1.81978e-05
1.54166e-05
1.26392e-05
9.94251e-06
7.46777e-06
5.25815e-06
3.56299e-06
2.1558e-06
1.9789e-06
4.17564e-05
3.87154e-05
3.56416e-05
3.23828e-05
2.89945e-05
2.55927e-05
2.23043e-05
1.91896e-05
1.60226e-05
1.28341e-05
9.78481e-06
7.00771e-06
4.76655e-06
2.94481e-06
2.03525e-06
4.18028e-05
3.90975e-05
3.63231e-05
3.3418e-05
3.03233e-05
2.70864e-05
2.37911e-05
2.05291e-05
1.72558e-05
1.38994e-05
1.06306e-05
7.65498e-06
5.18489e-06
3.2619e-06
1.9036e-06
3.73884e-05
3.51534e-05
3.28251e-05
3.03395e-05
2.76727e-05
2.4815e-05
2.17898e-05
1.86605e-05
1.54941e-05
1.23583e-05
9.36042e-06
6.69252e-06
4.47811e-06
2.8313e-06
1.47868e-06
2.95617e-05
2.76634e-05
2.57094e-05
2.36539e-05
2.1473e-05
1.91541e-05
1.67046e-05
1.41591e-05
1.15902e-05
9.09441e-06
6.76795e-06
4.76269e-06
3.13697e-06
1.97241e-06
9.91571e-07
2.05038e-05
1.89257e-05
1.73372e-05
1.57055e-05
1.40198e-05
1.22852e-05
1.05153e-05
8.73542e-06
6.99561e-06
5.36553e-06
3.90651e-06
2.69919e-06
1.76477e-06
1.12523e-06
6.16348e-07
1.19086e-05
1.07075e-05
9.53411e-06
8.37214e-06
7.22818e-06
6.11998e-06
5.06331e-06
4.07435e-06
3.17055e-06
2.37525e-06
1.70584e-06
1.17806e-06
8.05384e-07
5.90881e-07
4.1144e-07
5.22198e-06
4.43846e-06
3.73187e-06
3.09347e-06
2.52548e-06
2.03167e-06
1.616e-06
1.27134e-06
9.87783e-07
7.5747e-07
5.77511e-07
4.41286e-07
3.95448e-07
4.95051e-07
3.776e-07
1.20763e-06
9.23772e-07
7.0631e-07
5.40908e-07
4.17267e-07
3.65851e-07
3.49339e-07
3.43241e-07
3.39473e-07
3.34388e-07
3.4127e-07
3.66201e-07
4.66095e-07
6.59517e-07
6.21647e-07
5.29855e-08
4.74642e-08
4.69571e-08
4.76651e-08
4.84632e-08
4.99494e-08
5.22978e-08
5.51825e-08
5.65785e-08
5.50396e-08
6.46479e-08
8.71063e-08
1.41923e-07
2.15147e-07
4.54232e-07
0.0140468
0.0140469
0.0140469
0.014047
0.0140471
0.0140471
0.0140472
0.0140473
0.0140473
0.0140474
0.0140475
0.0140476
0.0140476
0.0140477
0.0140478
0.0140479
0.0140479
0.014048
0.0140481
0.0140482
0.0140482
0.0140483
0.0140484
0.0140485
0.0140485
0.0140486
0.0140487
0.0140487
0.0140488
0.0140489
0.014049
0.014049
0.0140491
0.0140492
0.0140492
0.0140493
0.0140493
0.0140494
0.0140494
0.0140495
0.0140495
0.0140496
0.0140496
0.0140496
0.0140496
0.0140496
0.0140496
0.0140496
0.0140496
0.0140496
0.0140496
0.0140496
0.0140496
0.0140496
0.0140496
0.0140496
0.0140496
0.0140496
0.0140496
0.0140496
0.0140496
0.0140497
0.0140497
0.0140497
0.0140497
0.0140497
0.0140497
0.0140497
0.0140497
0.0140497
0.0140497
0.0140497
0.0140498
0.0140498
0.0140498
0.0140498
0.0140498
0.0140498
0.0140499
0.0140499
0.0140499
0.0140499
0.01405
0.01405
0.01405
0.01405
0.0140501
0.0140501
0.0140501
0.0140684
0.0140691
0.0140697
0.0140703
0.0140709
0.0140715
0.0140721
0.0140727
0.0140733
0.0140739
0.0140745
0.014075
0.0140756
0.0140761
0.0140767
0.0140772
0.0140777
0.0140783
0.0140788
0.0140793
0.0140798
0.0140803
0.0140808
0.0140813
0.0140817
0.0140822
0.0140827
0.0140831
0.0140836
0.014084
0.0140845
0.0140849
0.0140854
0.0140858
0.0140862
0.0140866
0.0140871
0.0140875
0.0140879
0.0140883
0.0140887
0.0140891
0.0140895
0.0140898
0.0140902
0.0140905
0.0140908
0.0140911
0.0140914
0.0140917
0.0140919
0.0140922
0.0140924
0.0140926
0.0140928
0.014093
0.0140932
0.0140934
0.0140936
0.0140938
0.0140939
0.0140941
0.0140943
0.0140944
0.0140945
0.0140947
0.0140948
0.0140949
0.0140951
0.0140952
0.0140953
0.0140954
0.0140955
0.0140956
0.0140957
0.0140958
0.0140959
0.014096
0.0140961
0.0140962
0.0140963
0.0140964
0.0140964
0.0140965
0.0140966
0.0140967
0.0140967
0.0140968
0.0140968
0.0140305
0.0140308
0.0140311
0.0140314
0.0140317
0.014032
0.0140323
0.0140327
0.014033
0.0140333
0.0140336
0.0140339
0.0140342
0.0140345
0.0140348
0.0140352
0.0140355
0.0140358
0.0140361
0.0140364
0.0140367
0.0140371
0.0140374
0.0140377
0.014038
0.0140383
0.0140386
0.0140389
0.0140393
0.0140396
0.0140399
0.0140402
0.0140405
0.0140408
0.0140411
0.0140415
0.0140418
0.0140421
0.0140424
0.0140427
0.014043
0.0140433
0.0140436
0.0140439
0.0140442
0.0140445
0.0140449
0.0140452
0.0140455
0.0140458
0.0140461
0.0140464
0.0140467
0.014047
0.0140473
0.0140476
0.014048
0.0140483
0.0140486
0.0140489
0.0140492
0.0140495
0.0140498
0.0140501
0.0140504
0.0140507
0.0140511
0.0140514
0.0140517
0.014052
0.0140523
0.0140526
0.0140529
0.0140532
0.0140535
0.0140538
0.0140541
0.0140545
0.0140548
0.0140551
0.0140554
0.0140557
0.014056
0.0140563
0.0140566
0.0140569
0.0140572
0.0140575
0.0140575
0.014037
0.0140373
0.0140377
0.0140381
0.0140384
0.0140388
0.0140391
0.0140394
0.0140397
0.0140401
0.0140404
0.0140407
0.014041
0.0140413
0.0140416
0.0140418
0.0140421
0.0140423
0.0140425
0.0140427
0.0140429
0.0140431
0.0140432
0.0140434
0.0140435
0.0140436
0.0140437
0.0140437
0.0140438
0.0140438
0.0140438
0.0140438
0.0140437
0.0140436
0.0140434
0.0140432
0.0140432
0.0140432
0.0140432
0.0140433
0.0140434
0.0140435
0.0140436
0.0140438
0.014044
0.0140442
0.0140444
0.0140446
0.0140448
0.014045
0.0140453
0.0140455
0.0140457
0.0140459
0.0140462
0.0140464
0.0140467
0.0140469
0.0140472
0.0140474
0.0140477
0.014048
0.0140482
0.0140485
0.0140488
0.0140491
0.0140493
0.0140496
0.0140499
0.0140502
0.0140505
0.0140508
0.0140511
0.0140514
0.0140516
0.0140519
0.0140522
0.0140525
0.0140529
0.0140532
0.0140535
0.0140538
0.0140541
0.0140544
0.0140547
0.014055
0.0140553
0.0140556
0.0140558
0.0140275
0.0140276
0.0140277
0.0140278
0.0140279
0.014028
0.0140281
0.0140282
0.0140283
0.0140284
0.0140284
0.0140285
0.0140286
0.0140287
0.0140288
0.0140289
0.0140289
0.014029
0.0140291
0.0140292
0.0140292
0.0140293
0.0140294
0.0140295
0.0140295
0.0140296
0.0140297
0.0140297
0.0140298
0.0140299
0.0140299
0.01403
0.0140301
0.0140301
0.0140302
0.0140302
0.0140303
0.0140304
0.0140304
0.0140305
0.0140305
0.0140305
0.0140305
0.0140306
0.0140306
0.0140306
0.0140305
0.0140305
0.0140305
0.0140305
0.0140304
0.0140304
0.0140303
0.0140303
0.0140302
0.0140301
0.01403
0.0140299
0.0140298
0.0140297
0.0140296
0.0140295
0.0140293
0.0140292
0.014029
0.0140289
0.0140287
0.0140285
0.0140283
0.0140281
0.0140278
0.0140275
0.0140271
0.0140267
0.0140264
0.014026
0.0140256
0.0140253
0.0140249
0.0140246
0.0140243
0.0140241
0.0140239
0.0140237
0.0140236
0.0140234
0.0140233
0.0140231
0.0140228
0.0139973
0.0139974
0.0139976
0.0139977
0.0139978
0.013998
0.0139981
0.0139982
0.0139983
0.0139983
0.0139984
0.0139985
0.0139985
0.0139985
0.0139985
0.0139986
0.0139985
0.0139985
0.0139984
0.0139984
0.0139983
0.0139981
0.0139979
0.0139975
0.0139971
0.0139967
0.0139964
0.013996
0.0139956
0.0139952
0.0139949
0.0139945
0.0139942
0.0139938
0.0139934
0.0139931
0.0139927
0.0139924
0.013992
0.0139917
0.0139913
0.013991
0.0139906
0.0139903
0.01399
0.0139896
0.0139893
0.013989
0.0139886
0.0139883
0.013988
0.0139877
0.0139873
0.013987
0.0139867
0.0139864
0.0139861
0.0139858
0.0139855
0.0139851
0.0139848
0.0139845
0.0139842
0.013984
0.0139837
0.0139834
0.0139831
0.0139828
0.0139826
0.0139826
0.0139826
0.0139826
0.0139826
0.0139827
0.0139827
0.0139828
0.0139829
0.0139831
0.0139832
0.0139833
0.0139835
0.0139836
0.0139838
0.013984
0.0139841
0.0139843
0.0139845
0.0139847
0.013985
0.0139526
0.0139526
0.0139526
0.0139527
0.0139527
0.0139528
0.0139529
0.013953
0.0139532
0.0139533
0.0139534
0.0139536
0.0139538
0.0139539
0.0139541
0.0139543
0.0139545
0.0139546
0.0139548
0.013955
0.0139552
0.0139555
0.0139557
0.0139559
0.0139561
0.0139563
0.0139565
0.0139568
0.013957
0.0139572
0.0139574
0.0139576
0.0139579
0.0139581
0.0139583
0.0139585
0.0139588
0.013959
0.0139592
0.0139594
0.0139596
0.0139599
0.0139601
0.0139603
0.0139605
0.0139607
0.013961
0.0139612
0.0139614
0.0139616
0.0139618
0.0139621
0.0139623
0.0139625
0.0139627
0.0139629
0.0139632
0.0139634
0.0139636
0.0139638
0.0139641
0.0139643
0.0139645
0.0139647
0.0139649
0.0139652
0.0139654
0.0139656
0.0139658
0.013966
0.0139663
0.0139665
0.0139667
0.0139669
0.0139671
0.0139674
0.0139676
0.0139678
0.013968
0.0139682
0.0139684
0.0139687
0.0139689
0.0139691
0.0139693
0.0139695
0.0139697
0.01397
0.0139702
0.0139486
0.0139481
0.0139477
0.0139472
0.0139467
0.0139463
0.0139458
0.0139454
0.0139449
0.0139444
0.013944
0.0139435
0.0139431
0.0139426
0.0139422
0.0139417
0.0139413
0.0139408
0.0139404
0.0139399
0.0139395
0.0139391
0.0139386
0.0139382
0.0139378
0.0139373
0.0139369
0.0139365
0.0139361
0.0139357
0.0139353
0.0139349
0.0139345
0.0139341
0.0139337
0.0139333
0.0139329
0.0139325
0.0139322
0.0139318
0.0139314
0.0139311
0.0139307
0.0139306
0.0139305
0.0139305
0.0139306
0.0139306
0.0139307
0.0139308
0.0139309
0.013931
0.0139311
0.0139312
0.0139314
0.0139316
0.0139317
0.0139319
0.0139321
0.0139323
0.0139325
0.0139328
0.013933
0.0139332
0.0139335
0.0139337
0.0139339
0.0139342
0.0139344
0.0139347
0.013935
0.0139352
0.0139355
0.0139358
0.0139361
0.0139363
0.0139366
0.0139369
0.0139372
0.0139375
0.0139378
0.013938
0.0139383
0.0139386
0.0139389
0.0139392
0.0139395
0.0139398
0.0139401
0.0139169
0.0139165
0.0139161
0.0139157
0.0139153
0.0139149
0.0139144
0.013914
0.0139136
0.0139132
0.0139128
0.0139124
0.013912
0.0139116
0.0139114
0.0139114
0.0139114
0.0139114
0.0139114
0.0139115
0.0139115
0.0139116
0.0139117
0.0139118
0.013912
0.0139121
0.0139122
0.0139124
0.0139125
0.0139127
0.0139128
0.013913
0.0139132
0.0139134
0.0139136
0.0139138
0.013914
0.0139142
0.0139144
0.0139146
0.0139148
0.013915
0.0139153
0.0139155
0.0139157
0.0139159
0.0139162
0.0139164
0.0139166
0.0139169
0.0139171
0.0139173
0.0139176
0.0139178
0.0139181
0.0139183
0.0139186
0.0139188
0.0139191
0.0139193
0.0139196
0.0139198
0.01392
0.0139203
0.0139205
0.0139208
0.013921
0.0139213
0.0139215
0.0139218
0.013922
0.0139223
0.0139225
0.0139228
0.013923
0.0139233
0.0139235
0.0139237
0.0139239
0.0139241
0.0139243
0.0139245
0.0139247
0.0139248
0.0139249
0.013925
0.0139251
0.0139252
0.0139253
0.0139037
0.0139031
0.0139026
0.013902
0.0139014
0.0139009
0.0139003
0.0138998
0.0138992
0.0138986
0.0138981
0.0138975
0.0138969
0.0138964
0.0138958
0.0138952
0.0138947
0.0138941
0.0138935
0.013893
0.0138924
0.0138918
0.0138913
0.0138907
0.0138902
0.0138897
0.0138891
0.0138886
0.013888
0.0138875
0.0138871
0.013887
0.0138869
0.0138869
0.0138869
0.0138869
0.0138869
0.013887
0.0138871
0.0138872
0.0138873
0.0138875
0.0138876
0.0138878
0.0138879
0.0138881
0.0138883
0.0138885
0.0138887
0.0138889
0.0138891
0.0138893
0.0138895
0.0138897
0.01389
0.0138902
0.0138904
0.0138906
0.0138908
0.013891
0.0138912
0.0138914
0.0138916
0.0138918
0.013892
0.0138922
0.0138924
0.0138926
0.0138927
0.0138929
0.0138931
0.0138932
0.0138934
0.0138935
0.0138937
0.0138938
0.0138939
0.0138941
0.0138942
0.0138943
0.0138943
0.0138944
0.0138944
0.0138944
0.0138944
0.0138943
0.0138943
0.0138942
0.0138942
0.0138775
0.0138768
0.0138761
0.0138755
0.0138748
0.0138742
0.0138735
0.0138728
0.0138722
0.0138715
0.0138708
0.0138702
0.0138695
0.0138688
0.0138681
0.0138675
0.0138668
0.0138662
0.0138658
0.0138656
0.0138655
0.0138654
0.0138654
0.0138653
0.0138653
0.0138653
0.0138654
0.0138654
0.0138655
0.0138655
0.0138656
0.0138657
0.0138658
0.0138659
0.0138661
0.0138662
0.0138663
0.0138665
0.0138666
0.0138668
0.0138669
0.013867
0.0138671
0.0138671
0.0138671
0.0138671
0.013867
0.0138669
0.0138668
0.0138667
0.0138665
0.0138663
0.013866
0.0138657
0.0138653
0.0138648
0.0138641
0.0138633
0.0138625
0.0138617
0.0138609
0.0138602
0.0138594
0.0138586
0.0138578
0.013857
0.0138562
0.0138555
0.0138547
0.0138539
0.0138531
0.0138523
0.0138515
0.0138507
0.0138499
0.0138492
0.0138484
0.0138476
0.0138468
0.013846
0.0138452
0.0138444
0.0138436
0.0138428
0.013842
0.0138412
0.0138404
0.0138397
0.0138391
0.0138478
0.0138471
0.0138464
0.0138457
0.0138449
0.0138442
0.0138435
0.0138427
0.013842
0.0138412
0.0138405
0.0138398
0.013839
0.0138383
0.0138375
0.0138368
0.013836
0.0138353
0.0138345
0.0138338
0.013833
0.0138323
0.0138315
0.0138308
0.0138301
0.0138296
0.0138293
0.0138292
0.0138291
0.013829
0.0138289
0.0138289
0.0138289
0.0138289
0.0138289
0.013829
0.013829
0.0138291
0.0138291
0.0138292
0.0138292
0.0138293
0.0138293
0.0138292
0.0138291
0.013829
0.0138288
0.0138286
0.0138284
0.0138281
0.0138278
0.0138274
0.013827
0.0138265
0.0138259
0.0138252
0.0138242
0.0138233
0.0138223
0.0138213
0.0138203
0.0138193
0.0138183
0.0138173
0.0138163
0.0138153
0.0138144
0.0138134
0.0138124
0.0138114
0.0138104
0.0138094
0.0138084
0.0138075
0.0138065
0.0138055
0.0138045
0.0138035
0.0138025
0.0138015
0.0138005
0.0137995
0.0137985
0.0137975
0.0137965
0.0137955
0.0137945
0.0137936
0.0137928
0.0138207
0.0138199
0.013819
0.0138181
0.0138172
0.0138163
0.0138154
0.0138145
0.0138136
0.0138127
0.0138119
0.013811
0.0138101
0.0138091
0.0138082
0.0138073
0.0138064
0.0138055
0.0138047
0.0138039
0.0138035
0.0138033
0.013803
0.0138024
0.0138015
0.0138005
0.0137996
0.0137986
0.0137977
0.0137967
0.0137957
0.0137948
0.0137938
0.0137929
0.0137919
0.013791
0.01379
0.013789
0.0137881
0.0137871
0.0137862
0.0137852
0.0137842
0.0137833
0.0137823
0.0137813
0.0137804
0.0137794
0.0137784
0.0137774
0.0137765
0.0137755
0.0137745
0.0137735
0.0137726
0.0137716
0.0137706
0.0137696
0.0137686
0.0137676
0.0137666
0.0137656
0.0137646
0.0137636
0.0137626
0.0137615
0.0137605
0.0137595
0.0137585
0.0137574
0.0137564
0.0137554
0.0137543
0.0137533
0.0137522
0.0137512
0.0137501
0.0137491
0.013748
0.013747
0.0137459
0.0137448
0.0137438
0.0137427
0.0137416
0.0137405
0.0137395
0.0137385
0.0137376
0.0137903
0.0137892
0.0137882
0.0137872
0.0137861
0.0137851
0.0137841
0.013783
0.013782
0.0137809
0.0137799
0.0137788
0.0137778
0.0137767
0.0137757
0.0137746
0.0137735
0.0137725
0.0137714
0.0137703
0.0137692
0.0137682
0.0137671
0.0137661
0.013765
0.0137639
0.0137628
0.0137617
0.0137606
0.0137595
0.0137583
0.0137572
0.0137561
0.013755
0.0137539
0.0137528
0.0137516
0.0137505
0.0137494
0.0137482
0.0137471
0.013746
0.0137448
0.0137437
0.0137425
0.0137413
0.0137402
0.013739
0.0137378
0.0137367
0.0137355
0.0137343
0.0137331
0.0137319
0.0137308
0.0137296
0.0137284
0.0137272
0.013726
0.0137247
0.0137235
0.0137223
0.0137211
0.0137199
0.0137186
0.0137174
0.0137162
0.0137149
0.0137137
0.0137124
0.0137112
0.0137099
0.0137087
0.0137074
0.0137061
0.0137049
0.0137036
0.0137023
0.013701
0.0136997
0.0136984
0.0136972
0.0136959
0.0136945
0.0136932
0.0136919
0.0136907
0.0136894
0.0136884
0.0137579
0.0137567
0.0137555
0.0137543
0.013753
0.0137518
0.0137505
0.0137493
0.0137481
0.0137468
0.0137455
0.0137443
0.013743
0.0137417
0.0137405
0.0137392
0.0137379
0.0137366
0.0137353
0.013734
0.0137327
0.0137314
0.0137301
0.0137288
0.0137275
0.0137262
0.0137249
0.0137236
0.0137222
0.0137209
0.0137196
0.0137182
0.0137169
0.0137155
0.0137142
0.0137128
0.0137114
0.0137101
0.0137087
0.0137073
0.0137059
0.0137045
0.0137032
0.0137018
0.0137004
0.013699
0.0136975
0.0136961
0.0136947
0.0136933
0.0136919
0.0136904
0.013689
0.0136875
0.0136861
0.0136846
0.0136832
0.0136817
0.0136803
0.0136788
0.0136773
0.0136758
0.0136743
0.0136729
0.0136714
0.0136699
0.0136684
0.0136668
0.0136653
0.0136638
0.0136623
0.0136608
0.0136592
0.0136577
0.0136561
0.0136546
0.013653
0.0136515
0.0136499
0.0136483
0.0136467
0.0136452
0.0136436
0.013642
0.0136404
0.0136388
0.0136372
0.0136357
0.0136345
0.0137221
0.0137207
0.0137192
0.0137178
0.0137163
0.0137149
0.0137134
0.0137119
0.0137104
0.0137089
0.0137074
0.0137059
0.0137044
0.0137029
0.0137014
0.0136999
0.0136984
0.0136968
0.0136953
0.0136938
0.0136922
0.0136907
0.0136891
0.0136876
0.013686
0.0136844
0.0136828
0.0136813
0.0136797
0.0136781
0.0136765
0.0136749
0.0136733
0.0136716
0.01367
0.0136684
0.0136668
0.0136651
0.0136635
0.0136618
0.0136602
0.0136585
0.0136568
0.0136551
0.0136535
0.0136518
0.0136501
0.0136484
0.0136467
0.013645
0.0136432
0.0136415
0.0136398
0.013638
0.0136363
0.0136345
0.0136328
0.013631
0.0136292
0.0136275
0.0136257
0.0136239
0.0136221
0.0136203
0.0136185
0.0136167
0.0136148
0.013613
0.0136112
0.0136093
0.0136075
0.0136056
0.0136038
0.0136019
0.0136
0.0135981
0.0135962
0.0135943
0.0135924
0.0135905
0.0135886
0.0135867
0.0135847
0.0135828
0.0135808
0.0135789
0.013577
0.0135752
0.0135737
0.0136827
0.0136809
0.0136792
0.0136775
0.0136758
0.013674
0.0136723
0.0136705
0.0136688
0.013667
0.0136652
0.0136634
0.0136617
0.0136599
0.0136581
0.0136563
0.0136544
0.0136526
0.0136508
0.013649
0.0136471
0.0136453
0.0136434
0.0136416
0.0136397
0.0136378
0.0136359
0.013634
0.0136322
0.0136302
0.0136283
0.0136264
0.0136245
0.0136226
0.0136206
0.0136187
0.0136167
0.0136147
0.0136128
0.0136108
0.0136088
0.0136068
0.0136048
0.0136028
0.0136008
0.0135987
0.0135967
0.0135946
0.0135926
0.0135905
0.0135885
0.0135864
0.0135843
0.0135822
0.0135801
0.013578
0.0135759
0.0135737
0.0135716
0.0135694
0.0135673
0.0135651
0.0135629
0.0135608
0.0135586
0.0135564
0.0135542
0.0135519
0.0135497
0.0135475
0.0135452
0.013543
0.0135407
0.0135384
0.0135362
0.0135339
0.0135316
0.0135293
0.0135269
0.0135246
0.0135223
0.0135199
0.0135176
0.0135152
0.0135128
0.0135105
0.0135081
0.0135059
0.0135041
0.0136397
0.0136377
0.0136356
0.0136336
0.0136315
0.0136295
0.0136274
0.0136253
0.0136233
0.0136212
0.0136191
0.013617
0.0136149
0.0136127
0.0136106
0.0136085
0.0136063
0.0136042
0.013602
0.0135998
0.0135976
0.0135954
0.0135932
0.013591
0.0135888
0.0135865
0.0135843
0.013582
0.0135798
0.0135775
0.0135752
0.0135729
0.0135706
0.0135683
0.013566
0.0135636
0.0135613
0.0135589
0.0135566
0.0135542
0.0135518
0.0135494
0.013547
0.0135446
0.0135422
0.0135397
0.0135373
0.0135348
0.0135323
0.0135298
0.0135273
0.0135248
0.0135223
0.0135198
0.0135172
0.0135147
0.0135121
0.0135095
0.013507
0.0135044
0.0135017
0.0134991
0.0134965
0.0134938
0.0134912
0.0134885
0.0134858
0.0134831
0.0134804
0.0134777
0.0134749
0.0134722
0.0134694
0.0134667
0.0134639
0.0134611
0.0134583
0.0134555
0.0134526
0.0134498
0.0134469
0.013444
0.0134411
0.0134382
0.0134353
0.0134324
0.0134296
0.0134268
0.0134246
0.0135927
0.0135903
0.0135879
0.0135855
0.0135831
0.0135807
0.0135782
0.0135758
0.0135733
0.0135708
0.0135683
0.0135658
0.0135633
0.0135608
0.0135583
0.0135557
0.0135532
0.0135506
0.013548
0.0135454
0.0135428
0.0135402
0.0135376
0.0135349
0.0135323
0.0135296
0.0135269
0.0135242
0.0135215
0.0135188
0.0135161
0.0135133
0.0135106
0.0135078
0.013505
0.0135022
0.0134994
0.0134966
0.0134937
0.0134909
0.013488
0.0134851
0.0134822
0.0134793
0.0134763
0.0134734
0.0134704
0.0134675
0.0134645
0.0134615
0.0134584
0.0134554
0.0134523
0.0134493
0.0134462
0.0134431
0.01344
0.0134368
0.0134337
0.0134305
0.0134273
0.0134241
0.0134209
0.0134177
0.0134145
0.0134112
0.0134079
0.0134046
0.0134013
0.013398
0.0133946
0.0133913
0.0133879
0.0133845
0.013381
0.0133776
0.0133742
0.0133707
0.0133672
0.0133637
0.0133602
0.0133566
0.0133531
0.0133495
0.0133459
0.0133423
0.0133388
0.0133354
0.0133327
0.0135413
0.0135385
0.0135356
0.0135328
0.0135299
0.013527
0.0135241
0.0135212
0.0135183
0.0135154
0.0135124
0.0135095
0.0135065
0.0135035
0.0135005
0.0134975
0.0134944
0.0134914
0.0134883
0.0134852
0.0134821
0.013479
0.0134758
0.0134727
0.0134695
0.0134663
0.0134631
0.0134599
0.0134566
0.0134534
0.0134501
0.0134468
0.0134435
0.0134401
0.0134368
0.0134334
0.01343
0.0134266
0.0134232
0.0134197
0.0134163
0.0134128
0.0134092
0.0134057
0.0134022
0.0133986
0.013395
0.0133914
0.0133877
0.0133841
0.0133804
0.0133767
0.013373
0.0133692
0.0133655
0.0133617
0.0133579
0.0133541
0.0133502
0.0133463
0.0133424
0.0133385
0.0133346
0.0133306
0.0133266
0.0133226
0.0133186
0.0133145
0.0133104
0.0133063
0.0133022
0.013298
0.0132939
0.0132897
0.0132854
0.0132812
0.0132769
0.0132726
0.0132683
0.0132639
0.0132595
0.0132551
0.0132507
0.0132463
0.0132418
0.0132373
0.0132329
0.0132287
0.0132254
0.0134845
0.0134812
0.0134778
0.0134744
0.0134711
0.0134676
0.0134642
0.0134608
0.0134573
0.0134538
0.0134503
0.0134468
0.0134433
0.0134397
0.0134361
0.0134325
0.0134289
0.0134253
0.0134216
0.0134179
0.0134142
0.0134104
0.0134067
0.0134029
0.0133991
0.0133953
0.0133914
0.0133875
0.0133836
0.0133797
0.0133758
0.0133718
0.0133678
0.0133638
0.0133597
0.0133556
0.0133515
0.0133474
0.0133432
0.013339
0.0133348
0.0133306
0.0133263
0.013322
0.0133177
0.0133133
0.013309
0.0133046
0.0133001
0.0132956
0.0132911
0.0132866
0.0132821
0.0132775
0.0132729
0.0132682
0.0132635
0.0132588
0.0132541
0.0132493
0.0132445
0.0132397
0.0132348
0.0132299
0.013225
0.01322
0.013215
0.01321
0.0132049
0.0131998
0.0131947
0.0131895
0.0131843
0.0131791
0.0131738
0.0131685
0.0131632
0.0131578
0.0131524
0.0131469
0.0131414
0.0131359
0.0131304
0.0131248
0.0131192
0.0131136
0.013108
0.0131028
0.0130986
0.0134215
0.0134176
0.0134136
0.0134096
0.0134056
0.0134016
0.0133975
0.0133935
0.0133894
0.0133852
0.0133811
0.0133769
0.0133726
0.0133684
0.0133641
0.0133598
0.0133555
0.0133511
0.0133468
0.0133423
0.0133379
0.0133334
0.0133289
0.0133244
0.0133198
0.0133152
0.0133105
0.0133059
0.0133012
0.0132964
0.0132917
0.0132869
0.013282
0.0132771
0.0132722
0.0132673
0.0132623
0.0132573
0.0132522
0.0132471
0.013242
0.0132368
0.0132316
0.0132263
0.0132211
0.0132157
0.0132104
0.0132049
0.0131995
0.013194
0.0131885
0.0131829
0.0131773
0.0131716
0.0131659
0.0131602
0.0131544
0.0131485
0.0131427
0.0131368
0.0131308
0.0131248
0.0131187
0.0131126
0.0131065
0.0131003
0.013094
0.0130878
0.0130814
0.0130751
0.0130686
0.0130621
0.0130556
0.0130491
0.0130424
0.0130358
0.013029
0.0130223
0.0130155
0.0130086
0.0130017
0.0129947
0.0129877
0.0129806
0.0129735
0.0129664
0.0129593
0.0129527
0.0129474
0.0133514
0.0133467
0.013342
0.0133373
0.0133326
0.0133278
0.013323
0.0133181
0.0133132
0.0133083
0.0133034
0.0132984
0.0132934
0.0132883
0.0132832
0.0132781
0.0132729
0.0132677
0.0132624
0.0132571
0.0132518
0.0132464
0.013241
0.0132355
0.01323
0.0132245
0.0132189
0.0132132
0.0132075
0.0132018
0.013196
0.0131902
0.0131843
0.0131784
0.0131724
0.0131664
0.0131603
0.0131542
0.013148
0.0131418
0.0131355
0.0131292
0.0131228
0.0131163
0.0131098
0.0131033
0.0130967
0.01309
0.0130833
0.0130765
0.0130696
0.0130627
0.0130558
0.0130487
0.0130417
0.0130345
0.0130273
0.01302
0.0130127
0.0130053
0.0129979
0.0129904
0.0129828
0.0129751
0.0129674
0.0129596
0.0129518
0.0129439
0.0129359
0.0129279
0.0129197
0.0129116
0.0129033
0.012895
0.0128866
0.0128781
0.0128696
0.012861
0.0128523
0.0128436
0.0128348
0.0128259
0.0128169
0.0128079
0.0127988
0.0127897
0.0127807
0.0127722
0.0127655
0.0132731
0.0132676
0.013262
0.0132564
0.0132508
0.0132451
0.0132394
0.0132337
0.0132279
0.013222
0.0132161
0.0132102
0.0132042
0.0131981
0.0131921
0.0131859
0.0131797
0.0131735
0.0131672
0.0131608
0.0131544
0.0131479
0.0131414
0.0131348
0.0131282
0.0131215
0.0131147
0.0131079
0.013101
0.0130941
0.013087
0.01308
0.0130728
0.0130656
0.0130583
0.0130509
0.0130435
0.013036
0.0130284
0.0130208
0.0130131
0.0130053
0.0129974
0.0129894
0.0129814
0.0129733
0.0129651
0.0129569
0.0129485
0.0129401
0.0129316
0.012923
0.0129143
0.0129055
0.0128967
0.0128877
0.0128787
0.0128696
0.0128604
0.0128511
0.0128417
0.0128322
0.0128227
0.012813
0.0128033
0.0127934
0.0127835
0.0127734
0.0127633
0.0127531
0.0127428
0.0127323
0.0127218
0.0127112
0.0127005
0.0126897
0.0126788
0.0126678
0.0126567
0.0126455
0.0126341
0.0126227
0.0126112
0.0125996
0.0125879
0.0125761
0.0125645
0.0125535
0.012545
0.0131855
0.013179
0.0131724
0.0131658
0.0131591
0.0131524
0.0131457
0.0131388
0.0131319
0.013125
0.013118
0.0131109
0.0131037
0.0130965
0.0130892
0.0130819
0.0130745
0.013067