/*--------------------------------*- C++ -*----------------------------------*\
  =========                 |
  \\      /  F ield         | OpenFOAM: The Open Source CFD Toolbox
   \\    /   O peration     | Website:  https://openfoam.org
    \\  /    A nd           | Version:  9
     \\/     M anipulation  |
\*---------------------------------------------------------------------------*/
FoamFile
{
    format      ascii;
    class       volScalarField;
    location    "0.005";
    object      nuTilda;
}
// * * * * * * * * * * * * * * * * * * * * * * * * * * * * * * * * * * * * * //

dimensions      [0 2 -1 0 0 0 0];

internalField   nonuniform List<scalar> 
5373
(
2.3755e-05
2.16029e-05
7.39482e-05
7.17767e-05
8.67629e-05
0.000102448
2.04155e-05
2.44889e-05
2.61045e-05
2.66351e-05
2.81401e-05
2.89492e-05
2.8771e-05
2.78404e-05
2.67014e-05
2.51101e-05
2.30163e-05
2.06517e-05
1.84353e-05
1.67077e-05
1.54585e-05
1.44538e-05
1.35196e-05
1.29459e-05
1.24284e-05
1.17179e-05
7.07266e-05
7.71025e-05
8.04293e-05
8.42881e-05
8.75234e-05
8.97003e-05
9.0379e-05
8.97861e-05
8.79773e-05
8.45955e-05
7.89665e-05
7.25557e-05
6.62555e-05
6.00468e-05
5.40484e-05
4.83677e-05
4.29058e-05
3.79258e-05
3.34099e-05
2.90905e-05
9.02025e-05
9.27527e-05
9.72101e-05
0.000100383
0.000103194
0.000105339
0.000106613
0.000107104
0.000106924
0.000105924
0.000103687
9.97645e-05
9.39985e-05
8.77525e-05
8.11106e-05
7.41787e-05
6.70652e-05
5.97188e-05
5.23248e-05
4.49471e-05
0.000103568
0.000105537
0.000107303
0.000109721
0.000111508
0.000112934
0.000113868
0.000114324
0.00011439
0.000113974
0.00011305
0.000111381
0.000108273
0.00010329
9.75492e-05
9.11796e-05
8.4137e-05
7.62903e-05
6.7907e-05
5.93193e-05
0.000112563
0.000113598
0.00011478
0.000115655
0.000116584
0.000117107
0.000117341
0.000117323
0.000117072
0.000116602
0.000115934
0.000115014
0.00011348
0.000110569
0.000106135
0.000101009
9.49969e-05
8.78755e-05
7.97773e-05
7.098e-05
0.000119521
0.000119269
0.000119466
0.000119476
0.000119253
0.000118941
0.000118338
0.000117649
0.000116879
0.000116101
0.000115316
0.00011448
0.000113381
0.000111736
0.000108926
0.000105381
0.000100788
9.50365e-05
8.7906e-05
7.96698e-05
0.00012291
0.000121902
0.000120928
0.000119707
0.000118439
0.000117179
0.000115887
0.00011461
0.000113424
0.000112377
0.000111476
0.00011059
0.000109467
0.000107659
0.000105337
0.000102398
9.83865e-05
9.27599e-05
8.57385e-05
0.000121783
0.000119857
0.000118039
0.00011606
0.000114098
0.00011213
0.000110237
0.000108551
0.000107121
0.000105915
0.000104974
0.00010427
0.000103528
0.000102512
0.00010098
9.85329e-05
9.47331e-05
8.93536e-05
0.000117003
0.000114355
0.000111716
0.000109053
0.000106352
0.00010389
0.000101845
0.00010021
9.89743e-05
9.81756e-05
9.77572e-05
9.76344e-05
9.76032e-05
9.73617e-05
9.64337e-05
9.43162e-05
9.07796e-05
0.000112172
0.000108642
0.000105489
0.000102651
0.000100083
9.78275e-05
9.59118e-05
9.43284e-05
9.30436e-05
9.21305e-05
9.16806e-05
9.1668e-05
9.19414e-05
9.23829e-05
9.26579e-05
9.20613e-05
9.05306e-05
0.000102819
9.98133e-05
9.72109e-05
9.49813e-05
9.31031e-05
9.14735e-05
8.99987e-05
8.86802e-05
8.76116e-05
8.69268e-05
8.65821e-05
8.66647e-05
8.72005e-05
8.79373e-05
8.83939e-05
8.85806e-05
9.78039e-05
9.54045e-05
9.33833e-05
9.16698e-05
9.02744e-05
8.90251e-05
8.77817e-05
8.64546e-05
8.50883e-05
8.37909e-05
8.28247e-05
8.2359e-05
8.24826e-05
8.30431e-05
8.38826e-05
8.48155e-05
9.2761e-05
9.15443e-05
9.04364e-05
8.93765e-05
8.83406e-05
8.72565e-05
8.5938e-05
8.43231e-05
8.22489e-05
8.0408e-05
7.90605e-05
7.82745e-05
7.82398e-05
7.89726e-05
8.01722e-05
8.99916e-05
8.90093e-05
8.79686e-05
8.68788e-05
8.57184e-05
8.44346e-05
8.29568e-05
8.10948e-05
7.8855e-05
7.59316e-05
7.40272e-05
7.32754e-05
7.36891e-05
7.48301e-05
8.74967e-05
8.64754e-05
8.54355e-05
8.43513e-05
8.31637e-05
8.18389e-05
8.03179e-05
7.81843e-05
7.49586e-05
7.11522e-05
6.86604e-05
6.7544e-05
6.77503e-05
6.86974e-05
8.418e-05
8.3148e-05
8.20347e-05
8.08415e-05
7.93578e-05
7.75219e-05
7.52835e-05
7.23617e-05
6.80664e-05
6.43382e-05
6.19409e-05
6.08453e-05
6.08088e-05
6.13844e-05
7.76533e-05
7.6047e-05
7.43434e-05
7.24801e-05
7.02681e-05
6.77131e-05
6.47177e-05
6.10198e-05
5.76835e-05
5.52289e-05
5.36029e-05
5.26394e-05
5.25391e-05
6.86308e-05
6.71201e-05
6.57479e-05
6.46319e-05
6.30977e-05
6.14524e-05
5.95762e-05
5.72453e-05
5.45205e-05
4.98811e-05
4.53415e-05
4.27381e-05
4.15908e-05
5.76854e-05
5.60854e-05
5.60065e-05
5.43151e-05
5.24881e-05
5.04737e-05
4.80895e-05
4.51867e-05
3.96995e-05
3.30307e-05
2.93713e-05
2.74573e-05
1.38134e-05
1.30924e-05
1.94747e-05
2.07263e-05
2.08669e-05
2.05999e-05
2.01611e-05
1.94949e-05
1.1591e-05
1.00299e-05
1.03981e-05
9.41975e-06
1.15353e-05
1.14264e-05
1.13764e-05
1.13393e-05
1.13362e-05
1.14889e-05
1.1699e-05
1.19253e-05
1.21599e-05
1.24095e-05
1.26797e-05
1.299e-05
1.32998e-05
1.36577e-05
1.41392e-05
1.49104e-05
1.61351e-05
1.77905e-05
2.02551e-05
2.15167e-05
2.82025e-05
2.71085e-05
2.59157e-05
2.51872e-05
2.48485e-05
2.45847e-05
2.42885e-05
2.39374e-05
2.34797e-05
2.29471e-05
2.23937e-05
2.18665e-05
2.14033e-05
2.10683e-05
2.09891e-05
2.14117e-05
2.27203e-05
2.4696e-05
2.78477e-05
3.12143e-05
4.28788e-05
4.08871e-05
3.91371e-05
3.75742e-05
3.62163e-05
3.48033e-05
3.33389e-05
3.18652e-05
3.03855e-05
2.8905e-05
2.7433e-05
2.59861e-05
2.45803e-05
2.32412e-05
2.19898e-05
2.11462e-05
2.20075e-05
2.30978e-05
2.52644e-05
2.72068e-05
5.70407e-05
5.46217e-05
5.2251e-05
4.99402e-05
4.77512e-05
4.57375e-05
4.39158e-05
4.20958e-05
4.02087e-05
3.8273e-05
3.6303e-05
3.43156e-05
3.23239e-05
3.03535e-05
2.84099e-05
2.66197e-05
2.51896e-05
2.42863e-05
2.40022e-05
2.50483e-05
6.87075e-05
6.62545e-05
6.37191e-05
6.11216e-05
5.85188e-05
5.59982e-05
5.3627e-05
5.14279e-05
4.93619e-05
4.72009e-05
4.49625e-05
4.26643e-05
4.03178e-05
3.79513e-05
3.55652e-05
3.32577e-05
3.09677e-05
2.91356e-05
2.73479e-05
2.79178e-05
7.73512e-05
7.50111e-05
7.26152e-05
7.00699e-05
6.74174e-05
6.47307e-05
6.20835e-05
5.95401e-05
5.71464e-05
5.48815e-05
5.25048e-05
5.00311e-05
4.74692e-05
4.48444e-05
4.21594e-05
3.95058e-05
3.68017e-05
3.4459e-05
3.19574e-05
3.2197e-05
8.35268e-05
8.1276e-05
7.89851e-05
7.66418e-05
7.41438e-05
7.15353e-05
6.88708e-05
6.62095e-05
6.36133e-05
6.11284e-05
5.87039e-05
5.6147e-05
5.34624e-05
5.06702e-05
4.77776e-05
4.48712e-05
4.18951e-05
3.92231e-05
3.6417e-05
3.64831e-05
8.73346e-05
8.52718e-05
8.31429e-05
8.09642e-05
7.87174e-05
7.63217e-05
7.38068e-05
7.12123e-05
6.8589e-05
6.59925e-05
6.34581e-05
6.08864e-05
5.81443e-05
5.52481e-05
5.22123e-05
4.91178e-05
4.59552e-05
4.3041e-05
4.02229e-05
4.03432e-05
8.89676e-05
8.71586e-05
8.52782e-05
8.33278e-05
8.13007e-05
7.91734e-05
7.68907e-05
7.44718e-05
7.19458e-05
6.93574e-05
6.67609e-05
6.41636e-05
6.13977e-05
5.84359e-05
5.53007e-05
5.20679e-05
4.87849e-05
4.56876e-05
4.321e-05
4.22302e-05
8.89734e-05
8.73797e-05
8.5709e-05
8.39464e-05
8.21118e-05
8.02031e-05
7.81645e-05
7.59587e-05
7.3584e-05
7.10755e-05
6.84935e-05
6.58433e-05
6.30682e-05
6.00606e-05
5.68576e-05
5.35332e-05
5.01906e-05
4.69664e-05
4.45297e-05
4.16992e-05
8.71724e-05
8.57502e-05
8.43024e-05
8.27721e-05
8.11536e-05
7.94413e-05
7.76183e-05
7.56081e-05
7.34236e-05
7.10672e-05
6.85387e-05
6.58453e-05
6.29531e-05
5.98666e-05
5.66269e-05
5.32727e-05
4.99417e-05
4.66704e-05
4.40115e-05
4.03854e-05
8.36483e-05
8.24188e-05
8.11326e-05
7.97796e-05
7.83233e-05
7.67472e-05
7.50322e-05
7.31489e-05
7.10799e-05
6.88147e-05
6.6347e-05
6.36811e-05
6.08191e-05
5.77717e-05
5.45812e-05
5.12831e-05
4.80446e-05
4.48299e-05
4.22003e-05
3.80907e-05
7.90089e-05
7.77983e-05
7.6549e-05
7.52443e-05
7.3848e-05
7.23394e-05
7.06956e-05
6.88935e-05
6.69143e-05
6.47429e-05
6.23678e-05
5.97906e-05
5.7022e-05
5.40797e-05
5.10109e-05
4.78482e-05
4.47751e-05
4.17135e-05
3.92035e-05
3.4969e-05
7.35871e-05
7.23104e-05
7.10131e-05
6.96546e-05
6.82179e-05
6.66852e-05
6.50351e-05
6.32472e-05
6.13076e-05
5.92009e-05
5.69128e-05
5.44456e-05
5.18109e-05
4.90291e-05
4.61478e-05
4.31969e-05
4.03641e-05
3.75535e-05
3.52422e-05
3.12941e-05
6.73232e-05
6.59369e-05
6.45243e-05
6.30596e-05
6.15272e-05
5.99159e-05
5.82092e-05
5.63914e-05
5.44573e-05
5.23974e-05
5.01953e-05
4.78577e-05
4.53962e-05
4.28311e-05
4.0207e-05
3.75512e-05
3.50527e-05
3.26157e-05
3.06312e-05
2.74584e-05
5.98725e-05
5.83721e-05
5.68414e-05
5.52667e-05
5.3629e-05
5.19337e-05
5.0171e-05
4.83309e-05
4.64183e-05
4.44311e-05
4.23556e-05
4.0201e-05
3.79813e-05
3.57161e-05
3.34449e-05
3.11989e-05
2.91996e-05
2.73339e-05
2.5955e-05
2.40516e-05
5.0867e-05
4.92289e-05
4.75918e-05
4.59293e-05
4.42352e-05
4.25184e-05
4.07749e-05
3.89982e-05
3.72044e-05
3.53959e-05
3.35684e-05
3.17284e-05
2.98943e-05
2.80845e-05
2.63357e-05
2.47124e-05
2.36397e-05
2.2718e-05
2.26148e-05
2.20241e-05
3.98017e-05
3.80564e-05
3.63463e-05
3.46793e-05
3.30599e-05
3.15025e-05
3.00024e-05
2.8544e-05
2.71409e-05
2.57994e-05
2.45195e-05
2.33073e-05
2.21805e-05
2.11481e-05
2.02603e-05
1.97389e-05
2.0951e-05
2.13488e-05
2.37478e-05
2.28096e-05
2.59791e-05
2.44035e-05
2.29692e-05
2.16643e-05
2.06248e-05
2.00254e-05
1.96674e-05
1.94383e-05
1.92783e-05
1.91546e-05
1.90678e-05
1.90326e-05
1.90872e-05
1.92813e-05
1.9676e-05
2.0491e-05
2.2017e-05
2.24501e-05
2.65219e-05
2.85563e-05
1.05543e-05
1.0987e-05
1.10941e-05
1.10269e-05
1.08791e-05
1.07387e-05
1.06609e-05
1.06763e-05
1.07892e-05
1.10107e-05
1.13431e-05
1.17439e-05
1.22416e-05
1.28857e-05
1.36959e-05
1.47951e-05
1.60881e-05
1.80523e-05
2.02128e-05
2.2539e-05
0.0140163
0.0140163
0.0140162
0.0140161
0.014016
0.014016
0.0140159
0.0140158
0.0140158
0.0140061
0.0140061
0.0140061
0.0140062
0.0140062
0.0140062
0.0140062
0.0140062
0.0140061
0.0139861
0.013986
0.0139859
0.0139857
0.0139856
0.0139855
0.0139853
0.0139852
0.0139851
0.01397
0.01397
0.0139701
0.0139702
0.0139703
0.0139704
0.0139705
0.0139706
0.0139707
0.0139471
0.0139472
0.0139473
0.0139474
0.0139475
0.0139476
0.0139478
0.0139479
0.013948
0.0139206
0.0139207
0.0139208
0.0139208
0.0139209
0.013921
0.0139211
0.0139212
0.0139213
0.0138651
0.0138646
0.0138642
0.0138638
0.0138634
0.013863
0.0138626
0.0138622
0.0138618
0.0138289
0.0138283
0.0138277
0.0138271
0.0138266
0.013826
0.0138254
0.0138249
0.0138244
0.0137852
0.0137844
0.0137836
0.0137828
0.013782
0.0137813
0.0137805
0.0137798
0.0137323
0.0137312
0.0137302
0.0137291
0.013728
0.013727
0.0137259
0.013725
0.0136672
0.0136657
0.0136642
0.0136628
0.0136613
0.0136598
0.0136584
0.0136572
0.0135861
0.0135841
0.0135821
0.01358
0.013578
0.013576
0.0135741
0.0135724
0.0134841
0.0134812
0.0134784
0.0134756
0.0134728
0.01347
0.0134673
0.0134651
0.0133532
0.0133492
0.0133452
0.0133412
0.0133373
0.0133334
0.0133296
0.0133265
0.0131801
0.0131743
0.0131684
0.0131625
0.0131567
0.0131509
0.0131455
0.013141
0.0129404
0.0129314
0.0129225
0.0129135
0.0129047
0.012896
0.0128878
0.0128812
0.0125892
0.0125754
0.0125618
0.0125483
0.0125349
0.012522
0.0125099
0.0125007
0.0120731
0.0120554
0.0120383
0.0120219
0.0120061
0.0119911
0.0119775
0.0119673
0.011452
0.0114456
0.0114405
0.0114367
0.0114343
0.011433
0.011433
0.0114339
0.01106
0.0110921
0.0111276
0.0111667
0.0112108
0.0112589
0.0113074
0.0113494
0.0119549
0.012116
0.0122795
0.0124447
0.0126104
0.0127725
0.012924
0.0130459
0.0153223
0.0156667
0.0160131
0.0163594
0.0167006
0.0170291
0.0173274
0.0175551
0.0211907
0.0216491
0.0220876
0.0225026
0.0228872
0.0232292
0.0235061
0.0236771
0.0263761
0.026767
0.0271308
0.0274611
0.0277497
0.0279847
0.0281482
0.0282131
0.0292954
0.0295454
0.0297581
0.0299344
0.0300729
0.0301703
0.0302216
0.0302207
0.0301175
0.0302452
0.0303451
0.030417
0.0304606
0.0304758
0.0304624
0.0304215
0.0295128
0.0295501
0.0295649
0.0295582
0.029531
0.0294853
0.029424
0.0293504
0.0279452
0.0279036
0.0278433
0.0277658
0.0276734
0.0275696
0.0274593
0.0273485
0.025716
0.0255923
0.0254519
0.0252963
0.025128
0.0249507
0.0247709
0.0245989
0.023025
0.0228028
0.0225649
0.0223134
0.0220512
0.0217756
0.0214875
0.0212063
0.0200354
0.0196911
0.0193387
0.0189936
0.0187025
0.0184612
0.0182488
0.0180745
0.0170208
0.0166243
0.0163092
0.0160419
0.0158176
0.0156344
0.0154907
0.0154039
0.0144345
0.014051
0.0137671
0.0135437
0.0133659
0.0132331
0.0131559
0.0131432
0.0124422
0.011998
0.0116903
0.0114696
0.0113065
0.0112003
0.0111645
0.0112019
0.011049
0.0105598
0.0101241
0.00983903
0.0096313
0.0095065
0.00946085
0.00950841
0.0100046
0.00957141
0.00915505
0.00876907
0.00839445
0.00818384
0.00805387
0.00804594
0.00915351
0.00878885
0.00842233
0.00805712
0.0076915
0.00736007
0.00701306
0.006873
0.00840371
0.00810988
0.00780062
0.00747503
0.00713353
0.00678686
0.00642217
0.00609536
0.0076874
0.00746392
0.00721548
0.00693748
0.00662884
0.00629261
0.00592567
0.00555316
0.00696808
0.00680496
0.00661322
0.00638677
0.00611834
0.00580701
0.00545081
0.00505794
0.00622823
0.00611947
0.00597882
0.00579794
0.00556834
0.00528685
0.00495291
0.00456633
0.0054559
0.00539501
0.00530116
0.00516472
0.00497605
0.00473057
0.00442785
0.00407052
0.00464846
0.00462949
0.00457827
0.00448443
0.00433766
0.00413296
0.00387221
0.00356228
0.0038062
0.00382433
0.0038127
0.00376043
0.00365693
0.00349773
0.00328862
0.00304366
0.00292726
0.0029774
0.00300366
0.0029941
0.00293714
0.00282935
0.00268274
0.00252183
0.00201735
0.00208199
0.00213876
0.00217338
0.00216895
0.00212036
0.00204928
0.00199471
0.00125914
0.00129647
0.00132621
0.00134028
0.00133308
0.00131513
0.00133801
0.00144523
0.000689579
0.00070897
0.000724324
0.000733068
0.000735424
0.000740362
0.000771995
0.000863177
0.000302509
0.000315677
0.000338744
0.000382888
0.000432314
0.000469363
0.000511042
0.000567796
6.92214e-05
6.94206e-05
7.05941e-05
7.65402e-05
9.47039e-05
0.000133743
0.000177794
0.000240266
0.0140131
0.0140295
0.0140163
0.0139606
0.0139281
0.0139019
0.0138674
0.0138328
0.0138
0.013767
0.0137332
0.0136988
0.013664
0.0136291
0.0135942
0.0135599
0.0135263
0.0134941
0.0134638
0.0134357
0.0134103
0.013388
0.0133688
0.0133527
0.0133396
0.0133293
0.0133214
0.0133157
0.0133117
0.0133091
0.0133078
0.0133075
0.0133079
0.0133089
0.0133104
0.0133123
0.0133143
0.0133165
0.0133188
0.0133211
0.0133234
0.0133256
0.0133277
0.0133297
0.0133316
0.0133334
0.013335
0.0133366
0.013338
0.0133393
0.0140117
0.0140273
0.0140146
0.0139549
0.0139276
0.0139012
0.0138628
0.0138251
0.0137885
0.0137512
0.0137128
0.0136732
0.0136325
0.013591
0.0135491
0.0135071
0.0134656
0.0134254
0.0133876
0.0133531
0.0133228
0.0132974
0.0132774
0.0132626
0.0132528
0.0132474
0.0132458
0.0132472
0.0132511
0.0132569
0.0132641
0.0132723
0.0132811
0.0132904
0.0133
0.0133095
0.0133189
0.0133281
0.0133368
0.0133452
0.0133531
0.0133604
0.0133673
0.0133736
0.0133794
0.0133847
0.0133896
0.013394
0.0133981
0.0134017
0.0140117
0.0140268
0.0140122
0.0139512
0.0139286
0.0139017
0.0138589
0.0138163
0.0137759
0.0137347
0.0136917
0.0136468
0.0136
0.0135515
0.0135016
0.0134507
0.0133999
0.0133503
0.0133038
0.0132624
0.013228
0.0132023
0.0131859
0.013179
0.0131809
0.0131903
0.0132057
0.0132257
0.013249
0.0132744
0.0133011
0.0133284
0.0133557
0.0133828
0.0134092
0.0134348
0.0134592
0.0134823
0.013504
0.0135242
0.013543
0.0135603
0.0135762
0.0135907
0.0136039
0.013616
0.0136268
0.0136367
0.0136455
0.0136535
0.0140121
0.0140275
0.0140104
0.0139489
0.0139307
0.0139031
0.0138557
0.013808
0.0137644
0.0137195
0.013672
0.0136219
0.0135688
0.0135131
0.0134548
0.0133945
0.0133335
0.0132738
0.0132188
0.013172
0.0131374
0.013118
0.0131155
0.0131295
0.0131585
0.0131999
0.0132508
0.0133084
0.0133703
0.0134347
0.0134998
0.0135642
0.0136267
0.0136868
0.0137439
0.0137977
0.0138481
0.013895
0.0139384
0.0139784
0.014015
0.0140484
0.0140788
0.0141064
0.0141313
0.0141537
0.014174
0.0141922
0.0142085
0.0142232
0.0140117
0.0140305
0.0140078
0.0139491
0.0139337
0.013905
0.0138531
0.013801
0.0137543
0.0137059
0.0136542
0.0135989
0.0135397
0.0134764
0.0134092
0.0133386
0.0132662
0.0131954
0.0131315
0.0130815
0.0130523
0.01305
0.013077
0.0131329
0.0132146
0.0133175
0.0134356
0.0135629
0.0136946
0.0138267
0.013956
0.0140806
0.0141988
0.01431
0.0144136
0.0145095
0.0145977
0.0146786
0.0147523
0.0148193
0.0148801
0.0149349
0.0149843
0.0150288
0.0150687
0.0151046
0.0151366
0.0151654
0.0151911
0.0152142
0.0140109
0.0140306
0.0140053
0.0139501
0.0139371
0.0139074
0.0138511
0.013796
0.0137461
0.0136945
0.0136391
0.0135792
0.0135143
0.0134441
0.0133681
0.0132868
0.0132021
0.0131189
0.0130462
0.0129959
0.0129811
0.0130124
0.0130944
0.0132262
0.0133994
0.013604
0.0138291
0.0140643
0.0143008
0.014532
0.014753
0.0149609
0.015154
0.0153318
0.0154941
0.0156416
0.015775
0.0158953
0.0160034
0.0161005
0.0161874
0.0162651
0.0163345
0.0163965
0.0164517
0.016501
0.016545
0.0165842
0.0166193
0.0166506
0.01401
0.0140301
0.0140026
0.0139515
0.0139407
0.0139101
0.0138496
0.0137929
0.0137404
0.0136863
0.0136282
0.0135644
0.013494
0.0134162
0.0133306
0.0132372
0.0131386
0.0130418
0.0129605
0.0129147
0.0129273
0.013016
0.0131886
0.0134373
0.0137483
0.0141023
0.0144795
0.0148621
0.015236
0.0155915
0.0159226
0.0162262
0.0165017
0.0167495
0.0169712
0.0171688
0.0173443
0.0175
0.0176379
0.0177601
0.0178682
0.0179639
0.0180486
0.0181237
0.0181903
0.0182493
0.0183018
0.0183485
0.0183901
0.0184273
0.0140093
0.0140291
0.0140001
0.0139531
0.0139444
0.013913
0.0138486
0.0137909
0.0137374
0.0136818
0.0136208
0.0135527
0.0134765
0.013391
0.0132954
0.0131895
0.0130759
0.0129643
0.0128751
0.0128401
0.0128965
0.0130738
0.0133762
0.0137911
0.0142907
0.0148405
0.0154068
0.0159626
0.0164889
0.0169743
0.0174134
0.0178053
0.0181519
0.0184563
0.0187228
0.0189554
0.0191584
0.0193354
0.0194899
0.0196249
0.0197431
0.0198466
0.0199374
0.0200173
0.0200878
0.02015
0.0202051
0.020254
0.0202976
0.0203365
0.0140089
0.0140278
0.0139977
0.013955
0.013948
0.0139161
0.013848
0.01379
0.013736
0.0136789
0.0136153
0.0135432
0.0134614
0.0133685
0.013263
0.0131441
0.0130146
0.0128872
0.0127907
0.0127732
0.0128925
0.0131902
0.0136682
0.0142991
0.0150317
0.0158085
0.0165799
0.01731
0.0179778
0.0185738
0.0190965
0.0195497
0.0199396
0.0202737
0.0205593
0.0208034
0.0210121
0.0211909
0.0213446
0.0214769
0.0215912
0.0216903
0.0217766
0.0218519
0.0219179
0.021976
0.0220272
0.0220727
0.0221132
0.0221493
0.0140087
0.0140263
0.0139954
0.0139569
0.0139515
0.0139191
0.0138478
0.0137899
0.0137358
0.0136775
0.0136115
0.0135358
0.0134489
0.0133488
0.0132336
0.0131016
0.0129555
0.0128112
0.0127075
0.0127139
0.0129185
0.0133691
0.014066
0.0149537
0.0159459
0.0169572
0.0179224
0.0188016
0.0195768
0.020245
0.0208122
0.0212888
0.021687
0.0220188
0.022295
0.0225252
0.0227176
0.0228789
0.0230148
0.0231298
0.0232277
0.0233114
0.0233834
0.0234457
0.0235
0.0235475
0.0235893
0.0236264
0.0236594
0.023689
0.0140093
0.0140247
0.0139932
0.0139589
0.0139543
0.0139221
0.0138478
0.0137906
0.0137365
0.0136773
0.0136092
0.0135303
0.0134387
0.013332
0.0132074
0.0130624
0.0128993
0.0127369
0.0126259
0.012661
0.0129666
0.0136035
0.0145566
0.015727
0.0169836
0.018212
0.019337
0.0203217
0.0211572
0.0218511
0.0224193
0.0228804
0.0232524
0.023552
0.0237932
0.0239878
0.0241452
0.0242733
0.0243781
0.0244644
0.0245361
0.0245961
0.0246468
0.02469
0.0247272
0.0247595
0.0247878
0.024813
0.0248354
0.0248556
0.0140105
0.0140231
0.0139912
0.0139608
0.0139557
0.0139249
0.0138481
0.0137917
0.0137379
0.013678
0.0136083
0.0135267
0.0134308
0.013318
0.0131846
0.0130269
0.0128464
0.012665
0.0125463
0.0126138
0.0130352
0.0138853
0.0151197
0.0165805
0.0180852
0.0194949
0.0207325
0.0217715
0.0226175
0.0232917
0.023821
0.0242321
0.0245493
0.0247927
0.0249791
0.0251217
0.0252309
0.0253147
0.0253794
0.0254296
0.025469
0.0255002
0.0255253
0.0255459
0.025563
0.0255775
0.0255901
0.0256013
0.0256114
0.0256206
0.0140116
0.0140214
0.0139895
0.0139627
0.0139563
0.0139276
0.0138485
0.0137933
0.0137398
0.0136795
0.0136085
0.0135246
0.0134251
0.0133067
0.0131652
0.0129953
0.0127974
0.012596
0.0124686
0.0125706
0.0131181
0.0142003
0.0157288
0.0174718
0.0191945
0.0207405
0.0220399
0.0230835
0.0238945
0.0245096
0.0249669
0.0253012
0.0255416
0.0257117
0.0258298
0.0259101
0.0259631
0.0259967
0.0260166
0.0260272
0.0260316
0.0260307
0.0260284
0.0260249
0.0260209
0.0260167
0.0260128
0.0260094
0.0260065
0.0260043
0.0140126
0.0140198
0.0139881
0.0139645
0.0139565
0.0139295
0.013849
0.0137952
0.0137422
0.0136816
0.0136096
0.0135238
0.0134212
0.013298
0.013149
0.0129675
0.0127525
0.0125306
0.0123932
0.0125301
0.0132076
0.0145336
0.0163577
0.0183638
0.0202672
0.0219034
0.0232174
0.0242216
0.0249597
0.0254841
0.0258441
0.0260815
0.02623
0.0263155
0.0263571
0.0263689
0.0263613
0.0263415
0.0263147
0.0262848
0.0262543
0.0262246
0.0261965
0.0261705
0.0261468
0.0261255
0.0261066
0.02609
0.0260756
0.0260631
0.0140131
0.0140182
0.0139869
0.0139662
0.0139565
0.01393
0.0138496
0.0137972
0.0137447
0.0136841
0.0136114
0.0135242
0.0134191
0.0132917
0.013136
0.0129437
0.0127119
0.0124691
0.0123205
0.0124908
0.0132956
0.0148711
0.016984
0.019228
0.0212745
0.0229587
0.0242467
0.0251758
0.0258113
0.0262214
0.0264661
0.0265938
0.0266417
0.0266355
0.0265973
0.0265409
0.0264757
0.0264072
0.0263395
0.0262748
0.0262146
0.0261596
0.0261099
0.0260653
0.0260256
0.0259904
0.0259595
0.0259324
0.0259087
0.025888
0.0140133
0.0140167
0.013986
0.0139678
0.0139563
0.0139301
0.0138503
0.0137994
0.0137474
0.0136869
0.0136137
0.0135255
0.0134183
0.0132874
0.0131258
0.0129236
0.0126758
0.0124117
0.0122508
0.012448
0.0133792
0.0152024
0.0175912
0.0200465
0.0222017
0.0238984
0.0251275
0.0259535
0.0264636
0.0267419
0.0268589
0.0268657
0.0268079
0.0267131
0.0265998
0.0264801
0.0263619
0.0262498
0.0261463
0.0260524
0.0259682
0.0258935
0.0258276
0.0257703
0.0257204
0.0256767
0.0256384
0.0256047
0.0255751
0.025549
0.0140134
0.0140153
0.0139853
0.0139692
0.013956
0.0139298
0.013851
0.0138015
0.0137501
0.0136897
0.0136164
0.0135274
0.0134187
0.0132849
0.0131182
0.012907
0.0126441
0.0123588
0.0121851
0.0123996
0.0134551
0.0155199
0.0181695
0.0208112
0.0230457
0.0247259
0.0258705
0.0265719
0.0269397
0.027074
0.0270522
0.0269389
0.0267771
0.0265941
0.0264082
0.0262303
0.0260664
0.0259189
0.025789
0.0256756
0.0255753
0.0254866
0.0254079
0.0253381
0.0252762
0.0252212
0.0251724
0.025129
0.0250905
0.0250561
0.0140135
0.014014
0.0139848
0.0139705
0.0139555
0.0139295
0.0138518
0.0138036
0.0137528
0.0136926
0.0136193
0.0135299
0.01342
0.0132838
0.0131128
0.0128937
0.0126166
0.0123103
0.012125
0.0123537
0.0135203
0.015818
0.0187134
0.0215194
0.0238091
0.0254505
0.0264913
0.0270524
0.027266
0.0272446
0.0270839
0.0268491
0.026584
0.0263172
0.0260656
0.025838
0.0256441
0.025472
0.0253182
0.0251804
0.025057
0.0249465
0.0248475
0.0247589
0.0246797
0.0246089
0.0245456
0.024489
0.0244383
0.0243929
0.0140136
0.0140128
0.0139844
0.0139717
0.0139551
0.013929
0.0138526
0.0138055
0.0137553
0.0136955
0.0136222
0.0135326
0.0134219
0.013284
0.0131093
0.0128832
0.012593
0.0122661
0.0120706
0.0122987
0.0135708
0.0160939
0.0192207
0.0221722
0.024498
0.0260837
0.0270068
0.0274165
0.0274666
0.0272898
0.0269893
0.0266355
0.0262757
0.0259386
0.025643
0.0253807
0.0251452
0.0249325
0.0247404
0.0245668
0.0244103
0.0242693
0.0241427
0.024029
0.0239271
0.0238357
0.0237539
0.0236805
0.0236147
0.0235555
0.0140136
0.0140116
0.0139841
0.0139728
0.0139546
0.0139285
0.0138534
0.0138074
0.0137577
0.0136983
0.0136252
0.0135356
0.0134243
0.013285
0.0131074
0.0128752
0.0125731
0.0122261
0.0120142
0.0122389
0.0136079
0.0163483
0.0196932
0.0227732
0.0251194
0.0266371
0.0274339
0.0276874
0.0275659
0.0272294
0.026785
0.02631
0.025854
0.0254711
0.0251271
0.0248142
0.0245285
0.0242678
0.0240304
0.0238149
0.02362
0.0234442
0.023286
0.0231438
0.0230163
0.022902
0.0227995
0.0227076
0.0226251
0.022551
0.0140137
0.0140106
0.0139839
0.0139733
0.013954
0.013928
0.0138542
0.0138091
0.01376
0.0137009
0.0136281
0.0135386
0.013427
0.0132867
0.0131068
0.0128694
0.0125566
0.0121902
0.0119579
0.0121762
0.0136323
0.0165816
0.0201327
0.0233271
0.0256812
0.0271212
0.0277839
0.0278728
0.0275879
0.0270967
0.0265213
0.0259472
0.0254354
0.0249795
0.024564
0.0241828
0.023833
0.0235128
0.023221
0.0229565
0.0227174
0.022502
0.0223085
0.0221349
0.0219793
0.02184
0.0217153
0.0216036
0.0215034
0.0214134
0.0140138
0.0140097
0.0139837
0.0139734
0.0139535
0.0139275
0.0138549
0.0138108
0.0137621
0.0137033
0.0136309
0.0135415
0.0134298
0.0132889
0.0131071
0.0128654
0.012543
0.0121584
0.0119046
0.0121124
0.0136443
0.0167947
0.0205409
0.0238374
0.0261898
0.0275467
0.0280746
0.0279925
0.027536
0.0268809
0.0261604
0.0254692
0.0249019
0.0243804
0.0238971
0.0234505
0.0230389
0.0226613
0.0223168
0.0220041
0.0217215
0.0214671
0.0212386
0.0210338
0.0208506
0.0206866
0.02054
0.0204087
0.020291
0.0201854
0.0140139
0.0140088
0.0139836
0.0139734
0.013953
0.0139269
0.0138556
0.0138122
0.013764
0.0137056
0.0136335
0.0135444
0.0134328
0.0132914
0.0131081
0.0128629
0.0125321
0.0121305
0.0118547
0.0120484
0.0136446
0.0169884
0.0209195
0.0243072
0.0266498
0.0279186
0.0283102
0.028065
0.027444
0.026638
0.025798
0.0250547
0.0243891
0.0237799
0.0232165
0.022695
0.0222142
0.0217734
0.0213717
0.0210077
0.0206795
0.0203845
0.0201203
0.019884
0.019673
0.0194846
0.0193164
0.019166
0.0190315
0.0189109
0.0140139
0.0140081
0.0139835
0.0139733
0.0139525
0.0139264
0.0138562
0.0138136
0.0137657
0.0137077
0.0136359
0.0135472
0.0134356
0.013294
0.0131097
0.0128615
0.0125234
0.0121062
0.0118083
0.0119854
0.0136355
0.0171632
0.02127
0.0247395
0.0270661
0.0282423
0.0284942
0.0280855
0.027286
0.0263019
0.0252967
0.0244991
0.0237742
0.0230998
0.0224691
0.0218814
0.0213375
0.0208382
0.0203831
0.019971
0.0196
0.0192673
0.0189698
0.0187044
0.018468
0.0182574
0.0180697
0.0179023
0.0177528
0.0176191
0.014014
0.0140076
0.0139834
0.0139731
0.0139521
0.0139259
0.0138568
0.0138148
0.0137673
0.0137096
0.0136382
0.0135497
0.0134384
0.0132967
0.0131115
0.0128611
0.0125166
0.0120852
0.0117656
0.0119242
0.0136177
0.0173187
0.0215925
0.0251359
0.0274413
0.0285277
0.0286396
0.0280829
0.027125
0.025991
0.0248669
0.0239959
0.0231954
0.0224447
0.0217394
0.0210807
0.0204706
0.0199108
0.0194014
0.0189413
0.018528
0.0181584
0.0178291
0.0175363
0.0172762
0.0170452
0.01684
0.0166576
0.0164951
0.0163501
0.0140142
0.0140072
0.0139834
0.013973
0.0139517
0.0139255
0.0138573
0.0138159
0.0137687
0.0137113
0.0136402
0.0135521
0.013441
0.0132993
0.0131136
0.0128612
0.0125113
0.0120672
0.0117267
0.0118655
0.0135928
0.017454
0.0218866
0.0254975
0.0277796
0.0287823
0.0287571
0.0280548
0.0269474
0.0256736
0.0244589
0.0235043
0.0226225
0.0217932
0.0210126
0.020283
0.0196075
0.0189883
0.0184258
0.0179188
0.0174646
0.0170597
0.0167001
0.0163813
0.0160991
0.0158494
0.0156283
0.0154324
0.0152584
0.0151036
0.0140143
0.0140068
0.0139834
0.0139728
0.0139513
0.0139251
0.0138578
0.0138168
0.01377
0.0137129
0.0136421
0.0135543
0.0134435
0.0133019
0.0131158
0.0128618
0.0125073
0.0120518
0.0116916
0.01181
0.0135621
0.0175686
0.0221515
0.0258247
0.0280809
0.0289978
0.0288483
0.0279951
0.0267236
0.0252866
0.0240106
0.0229739
0.0220203
0.0211229
0.0202763
0.0194837
0.0187495
0.0180767
0.0174661
0.0169165
0.0164254
0.0159887
0.0156019
0.0152601
0.0149586
0.0146928
0.0144583
0.0142511
0.0140678
0.0139052
0.0140145
0.0140066
0.0139834
0.0139726
0.0139509
0.0139247
0.0138582
0.0138177
0.0137711
0.0137143
0.0136438
0.0135563
0.0134458
0.0133043
0.013118
0.0128628
0.0125044
0.0120387
0.01166
0.0117576
0.0135274
0.0176625
0.0223872
0.0261184
0.0283486
0.0291831
0.0289093
0.0278942
0.0264248
0.0247614
0.0234464
0.022368
0.0213668
0.0204216
0.0195286
0.018688
0.0179066
0.0171891
0.0165374
0.0159511
0.0154277
0.0149631
0.0145527
0.0141911
0.0138732
0.0135938
0.0133482
0.0131321
0.0129416
0.0127733
0.0140146
0.0140064
0.0139835
0.0139725
0.0139506
0.0139243
0.0138586
0.0138185
0.0137722
0.0137155
0.0136454
0.0135582
0.0134479
0.0133066
0.0131201
0.012864
0.0125022
0.0120276
0.0116319
0.0117086
0.0134901
0.0177362
0.0225943
0.0263804
0.028585
0.0293414
0.0289541
0.0277932
0.026154
0.024307
0.022903
0.0217877
0.0207469
0.0197566
0.0188168
0.0179344
0.0171121
0.0163549
0.0156662
0.0150463
0.0144931
0.0140028
0.0135705
0.0131907
0.0128578
0.0125662
0.0123109
0.0120872
0.0118907
0.0117179
0.0140148
0.0140063
0.0139836
0.0139723
0.0139503
0.0139239
0.013859
0.0138192
0.0137731
0.0137166
0.0136468
0.0135598
0.0134498
0.0133088
0.0131222
0.0128652
0.0125007
0.0120183
0.0116068
0.0116634
0.0134518
0.0177908
0.0227742
0.0266127
0.0287934
0.0294783
0.0289887
0.027698
0.0259082
0.0238913
0.0223579
0.0212263
0.0201619
0.01914
0.0181623
0.0172383
0.0163782
0.0155854
0.0148626
0.0142112
0.0136298
0.0131148
0.0126613
0.0122638
0.0119163
0.011613
0.0113485
0.0111175
0.0109157
0.0107389
0.0140149
0.0140062
0.0139837
0.0139722
0.01395
0.0139236
0.0138593
0.0138198
0.0137739
0.0137176
0.013648
0.0135613
0.0134516
0.0133107
0.0131241
0.0128666
0.0124997
0.0120104
0.0115845
0.0116225
0.0134135
0.0178282
0.0229285
0.0268177
0.0289764
0.0295965
0.0290164
0.0276119
0.025685
0.0235107
0.021852
0.020704
0.0196206
0.0185733
0.0175643
0.016605
0.0157071
0.0148797
0.0141255
0.0134443
0.0128357
0.0122965
0.0118221
0.0114068
0.0110447
0.0107296
0.0104557
0.0102176
0.0100104
0.0098298
0.014015
0.0140061
0.0139839
0.013972
0.0139498
0.0139234
0.0138596
0.0138204
0.0137746
0.0137185
0.0136491
0.0135626
0.0134532
0.0133125
0.0131259
0.0128679
0.012499
0.0120038
0.0115649
0.0115866
0.0133763
0.0178501
0.0230595
0.0269975
0.0291377
0.0296987
0.0290392
0.0275345
0.0254848
0.0231698
0.0214071
0.0202227
0.0191174
0.0180466
0.017011
0.0160219
0.0150918
0.0142308
0.0134455
0.0127371
0.0121029
0.0115404
0.0110454
0.0106124
0.0102355
0.00990822
0.00962464
0.00937902
0.00916618
0.00898149
0.0140151
0.0140061
0.013984
0.0139719
0.0139496
0.0139231
0.0138599
0.0138209
0.0137752
0.0137193
0.0136501
0.0135638
0.0134546
0.0133141
0.0131276
0.0128692
0.0124986
0.0119982
0.0115477
0.0115547
0.013341
0.0178589
0.0231697
0.0271547
0.0292798
0.0297861
0.0290584
0.0274641
0.0253032
0.0228554
0.0209935
0.0197571
0.0186307
0.0175415
0.0164857
0.0154733
0.0145171
0.0136279
0.0128132
0.0120771
0.0114195
0.0108355
0.010321
0.00987085
0.00947912
0.00913955
0.00884594
0.00859239
0.00837348
0.0081843
0.0140152
0.014006
0.0139841
0.0139717
0.0139494
0.0139229
0.0138601
0.0138213
0.0137758
0.01372