/*--------------------------------*- C++ -*----------------------------------*\
  =========                 |
  \\      /  F ield         | OpenFOAM: The Open Source CFD Toolbox
   \\    /   O peration     | Website:  https://openfoam.org
    \\  /    A nd           | Version:  9
     \\/     M anipulation  |
\*---------------------------------------------------------------------------*/
FoamFile
{
    format      ascii;
    class       volScalarField;
    location    "0.005";
    object      p;
}
// * * * * * * * * * * * * * * * * * * * * * * * * * * * * * * * * * * * * * //

dimensions      [1 -1 -2 0 0 0 0];

internalField   nonuniform List<scalar> 
5373
(
164287
164287
164287
164287
164286
164286
164287
164288
164288
164289
164290
164290
164290
164289
164287
164285
164281
164276
164270
164263
164254
164243
164230
164213
164190
164157
164287
164287
164287
164288
164288
164288
164288
164287
164286
164283
164280
164275
164269
164261
164251
164238
164223
164202
164175
164136
164286
164286
164287
164287
164287
164287
164286
164286
164284
164282
164278
164273
164267
164259
164248
164235
164218
164196
164167
164127
164286
164286
164286
164286
164286
164286
164285
164284
164283
164280
164277
164272
164265
164257
164246
164233
164215
164191
164160
164118
164286
164286
164286
164286
164285
164285
164284
164283
164282
164279
164276
164271
164265
164256
164245
164231
164212
164187
164153
164107
164286
164286
164286
164285
164285
164284
164284
164282
164281
164278
164275
164270
164264
164256
164245
164230
164211
164185
164149
164099
164286
164286
164285
164285
164284
164283
164282
164280
164278
164275
164270
164264
164256
164245
164230
164211
164183
164146
164092
164286
164285
164285
164284
164283
164282
164280
164278
164275
164271
164265
164257
164246
164231
164211
164183
164144
164087
164285
164285
164284
164283
164282
164280
164278
164275
164271
164265
164258
164247
164232
164212
164184
164143
164085
164285
164285
164284
164283
164282
164281
164278
164276
164272
164266
164259
164248
164234
164214
164185
164143
164083
164285
164284
164283
164282
164281
164279
164276
164272
164267
164260
164250
164236
164216
164187
164145
164082
164285
164285
164284
164283
164281
164279
164277
164273
164268
164261
164252
164238
164218
164190
164146
164082
164285
164284
164283
164282
164280
164277
164274
164269
164263
164254
164240
164221
164193
164149
164083
164284
164283
164282
164280
164278
164275
164271
164264
164256
164243
164224
164196
164152
164085
164284
164284
164282
164281
164279
164276
164272
164266
164258
164245
164227
164200
164156
164088
164285
164284
164283
164281
164279
164277
164273
164267
164260
164248
164231
164204
164160
164092
164284
164283
164282
164280
164277
164274
164269
164261
164250
164234
164208
164165
164097
164284
164283
164282
164280
164278
164275
164270
164263
164253
164237
164212
164170
164102
164284
164283
164281
164279
164276
164271
164265
164255
164240
164215
164174
164107
164284
164283
164282
164280
164277
164273
164267
164258
164244
164221
164181
164116
164109
164043
163964
163868
163750
163600
163405
163147
162799
162321
161651
160698
159319
157308
154340
150033
143733
135583
124217
115244
164088
164019
163939
163843
163725
163574
163377
163117
162765
162282
161606
160645
159257
157235
154257
149947
143657
135536
124222
115352
164079
164013
163933
163839
163722
163571
163374
163113
162761
162276
161598
160635
159243
157217
154237
149931
143656
135547
124270
115566
164067
164000
163919
163826
163709
163557
163360
163097
162743
162256
161576
160609
159215
157186
154206
149902
143637
135552
124312
115796
164056
163990
163910
163818
163702
163550
163352
163089
162734
162245
161562
160593
159195
157162
154180
149877
143622
135559
124347
116015
164046
163980
163900
163809
163693
163541
163342
163078
162721
162230
161545
160572
159171
157135
154150
149849
143605
135562
124372
116208
164037
163971
163892
163801
163686
163534
163334
163069
162711
162218
161530
160554
159149
157109
154122
149822
143588
135564
124389
116388
164028
163963
163885
163795
163679
163527
163327
163061
162701
162207
161516
160536
159127
157083
154093
149794
143568
135565
124398
116571
164020
163956
163880
163790
163674
163522
163321
163054
162693
162196
161502
160519
159106
157057
154064
149764
143546
135565
124403
116756
164013
163951
163876
163786
163670
163518
163317
163049
162686
162187
161491
160504
159086
157033
154036
149735
143523
135561
124405
116939
164008
163947
163873
163783
163667
163515
163313
163045
162680
162179
161480
160489
159067
157009
154008
149705
143498
135553
124410
117116
164005
163944
163871
163781
163665
163513
163311
163042
162676
162173
161471
160477
159050
156987
153981
149675
143472
135543
124416
117282
164003
163943
163870
163781
163665
163513
163311
163040
162673
162169
161464
160466
159034
156966
153954
149644
143444
135529
124422
117434
164002
163943
163871
163782
163666
163514
163311
163040
162672
162165
161459
160456
159020
156946
153928
149613
143413
135512
124428
117572
164003
163943
163872
163783
163668
163516
163313
163042
162672
162163
161454
160448
159006
156926
153901
149580
143380
135491
124433
117694
164004
163945
163874
163786
163671
163519
163317
163045
162674
162163
161450
160441
158994
156906
153875
149546
143345
135466
124436
117789
164007
163948
163877
163789
163674
163522
163320
163048
162676
162163
161446
160433
158980
156886
153847
149510
143306
135437
124438
117851
164013
163954
163883
163795
163680
163528
163325
163052
162680
162166
161446
160427
158970
156867
153819
149473
143264
135406
124439
117880
164014
163954
163884
163798
163683
163531
163327
163054
162681
162166
161442
160418
158956
156847
153790
149436
143222
135371
124434
117886
164029
163966
163896
163809
163694
163541
163337
163062
162688
162170
161445
160417
158943
156823
153754
149385
143162
135308
124393
117845
99993.6
99993.7
99993.8
99993.8
99993.9
99994
99994.1
99994.1
99994.2
100004
100004
100004
100004
100004
100004
100004
100004
100004
100012
100012
100012
100012
100012
100012
100012
100012
100012
100014
100014
100014
100014
100014
100014
100014
100014
100014
100022
100022
100022
100021
100021
100021
100021
100021
100021
100024
100024
100024
100024
100024
100024
100024
100024
100024
100030
100030
100030
100030
100030
100030
100030
100030
100030
100034
100034
100034
100034
100034
100034
100034
100033
100033
100039
100039
100039
100038
100038
100038
100038
100038
100043
100042
100042
100042
100042
100041
100041
100041
100046
100046
100046
100045
100045
100045
100044
100044
100049
100048
100048
100047
100047
100046
100046
100046
100050
100049
100049
100048
100048
100047
100046
100046
100049
100048
100047
100047
100046
100045
100045
100044
100045
100044
100043
100043
100042
100041
100040
100039
100038
100037
100036
100034
100034
100033
100032
100031
100026
100025
100024
100023
100021
100021
100020
100019
100008
100007
100005
100004
100003
100002
100002
100001
99984.6
99983.4
99982.3
99981.5
99980.8
99980.4
99980.1
99980.1
99951.5
99950.7
99950.2
99949.9
99949.9
99950.2
99950.6
99951.3
99909.5
99909.4
99909.9
99910.9
99912.4
99914.5
99917
99919.6
99859.6
99861.3
99863.4
99865.8
99868.7
99872
99875.7
99878
99810
99812.9
99816.3
99820.2
99824.7
99829.5
99834.4
99836.5
99776.4
99781.9
99787.8
99794
99800.7
99807.5
99813.7
99816.7
99760.3
99766.7
99773.5
99780.7
99788.2
99796
99802.7
99806.7
99750
99757.1
99764.5
99772.2
99780.3
99788.7
99795.8
99800.5
99744.7
99751.9
99759.5
99767.4
99775.7
99784.2
99791.6
99796.6
99741.5
99748.7
99756.3
99764.1
99772.3
99780.8
99788.2
99793.7
99739.9
99746.9
99754.2
99761.8
99769.6
99777.9
99785.3
99791.3
99739.5
99746.2
99753.1
99760.2
99767.5
99775.3
99782.6
99789.3
99740.1
99746.5
99752.9
99759.4
99766
99772.8
99779.6
99786.5
99741.7
99747.7
99753.5
99759.2
99764.9
99770.7
99776.5
99782.9
99744.2
99749.7
99754.9
99759.8
99764.5
99769.1
99773.6
99779.1
99747.5
99752.5
99757.1
99761.2
99765
99768.2
99771
99775.1
99751.3
99755.8
99759.8
99763.1
99766
99768.2
99768.8
99770.9
99755.6
99759.7
99763.1
99765.5
99767.6
99768.9
99767
99765.8
99760.3
99764.2
99767
99768.5
99769.5
99770.5
99765.4
99759.3
99765.4
99769.1
99771.6
99772
99772.1
99773.2
99764.5
99750.1
99770.6
99774.3
99776.7
99776.3
99775.3
99777.4
99764.4
99737.1
99775.5
99779.6
99782.3
99781.3
99779.1
99783.3
99765.8
99718.5
99779.7
99784.4
99787.8
99786.5
99783.3
99790.8
99768.7
99691.3
99782.9
99788.3
99792.8
99791.5
99787.3
99799
99771.8
99652.6
99784.7
99790.9
99796.4
99795.6
99790.4
99805.9
99772.8
99600.1
99785.1
99791.9
99798.4
99798
99791.7
99809.9
99771.1
99529.2
99784.2
99791.2
99798.4
99798.4
99790.7
99809.3
99767
99438.9
99782.3
99789.3
99796.7
99796.6
99787.2
99803
99759.5
99338
99780.4
99787.1
99794.3
99793.7
99782.3
99791.5
99748.4
99242.4
99778.8
99785.4
99792.3
99791.4
99778.1
99779.3
99737.5
99164.3
99777.8
99784.3
99791.3
99790.4
99775.9
99770.5
99728.8
99106.3
99777.3
99784
99791.4
99791.1
99777.1
99769.7
99725
99072
100000
100000
100000
100000
100001
100001
100001
100001
100001
100001
100001
100001
100001
100001
100001
100001
100001
100001
100001
100001
100001
100001
100001
100001
100001
100001
100001
100001
100001
100001
100001
100001
100001
100001
100001
100001
100001
100001
100001
100001
100001
100001
100001
100001
100001
100001
100001
100001
100001
100001
100000
100001
100001
100001
100002
100002
100002
100002
100002
100002
100002
100002
100001
100001
100001
100001
100001
100001
100001
100001
100001
100001
100001
100001
100001
100001
100001
100001
100001
100001
100001
100001
100001
100001
100001
100001
100000
100000
100000
100000
100000
100000
100000
100000
100000
100000
100000
100000
100000
100000
100000
100001
100002
100002
100003
100003
100003
100003
100003
100003
100003
100003
100003
100003
100003
100003
100003
100003
100003
100002
100002
100002
100002
100002
100002
100002
100002
100002
100002
100002
100002
100002
100002
100002
100002
100002
100002
100002
100002
100002
100002
100002
100002
100002
100002
100002
100002
100002
100002
100002
100000
100002
100003
100003
100004
100004
100004
100004
100005
100004
100004
100004
100004
100004
100004
100004
100004
100004
100003
100003
100003
100003
100003
100003
100003
100003
100003
100003
100003
100003
100003
100003
100003
100003
100003
100003
100003
100003
100003
100003
100003
100003
100003
100003
100003
100003
100003
100003
100003
100003
100000
100002
100003
100004
100005
100005
100006
100006
100006
100006
100006
100006
100006
100006
100005
100005
100005
100005
100005
100005
100004
100004
100004
100004
100004
100004
100004
100004
100004
100004
100004
100004
100004
100004
100004
100004
100004
100004
100004
100004
100004
100004
100004
100004
100004
100004
100004
100004
100004
100004
100001
100003
100004
100005
100006
100007
100007
100008
100008
100008
100008
100007
100007
100007
100007
100007
100006
100006
100006
100006
100006
100006
100005
100005
100005
100005
100005
100005
100005
100005
100005
100005
100005
100005
100005
100005
100005
100005
100005
100005
100005
100005
100005
100005
100005
100005
100005
100005
100005
100005
100000
100003
100005
100006
100008
100008
100009
100009
100009
100009
100009
100009
100009
100009
100008
100008
100008
100008
100007
100007
100007
100007
100007
100007
100006
100006
100006
100006
100006
100006
100006
100006
100006
100006
100006
100006
100006
100006
100006
100006
100006
100006
100006
100006
100006
100006
100006
100006
100006
100006
100000
100003
100006
100007
100009
100010
100011
100011
100011
100011
100011
100011
100011
100010
100010
100010
100010
100009
100009
100009
100009
100008
100008
100008
100008
100008
100008
100007
100007
100007
100007
100007
100007
100007
100007
100007
100007
100007
100007
100007
100007
100007
100007
100007
100007
100007
100007
100007
100007
100007
100000
100004
100006
100008
100010
100011
100012
100013
100013
100013
100013
100013
100013
100012
100012
100012
100011
100011
100011
100010
100010
100010
100010
100009
100009
100009
100009
100009
100009
100009
100009
100009
100008
100008
100008
100008
100008
100008
100008
100008
100008
100008
100008
100008
100008
100008
100008
100008
100008
100008
100000
100004
100007
100008
100011
100012
100014
100014
100015
100015
100015
100015
100015
100014
100014
100014
100013
100013
100013
100012
100012
100012
100011
100011
100011
100011
100011
100010
100010
100010
100010
100010
100010
100010
100010
100010
100010
100010
100010
100010
100010
100010
100010
100010
100010
100010
100010
100010
100010
100010
99999.9
100004
100007
100009
100012
100013
100015
100016
100017
100017
100017
100017
100017
100016
100016
100016
100015
100015
100014
100014
100014
100014
100013
100013
100013
100013
100012
100012
100012
100012
100012
100012
100012
100012
100012
100012
100012
100012
100012
100012
100012
100012
100012
100012
100012
100012
100012
100012
100012
100012
99999.6
100004
100008
100010
100013
100014
100016
100017
100018
100019
100019
100019
100018
100018
100018
100017
100017
100017
100016
100016
100016
100015
100015
100015
100015
100015
100015
100014
100014
100014
100014
100014
100014
100014
100014
100014
100014
100014
100014
100014
100014
100014
100014
100014
100014
100014
100014
100014
100014
100014
99999.3
100004
100008
100010
100014
100015
100018
100019
100020
100020
100021
100021
100020
100020
100020
100019
100019
100019
100018
100018
100018
100018
100017
100017
100017
100017
100017
100017
100017
100017
100017
100017
100016
100016
100016
100016
100016
100016
100016
100016
100016
100016
100016
100016
100016
100016
100016
100016
100017
100017
99999
100004
100009
100011
100015
100016
100019
100020
100022
100022
100022
100022
100022
100022
100021
100021
100021
100020
100020
100020
100020
100020
100020
100020
100019
100019
100019
100019
100019
100019
100019
100019
100019
100019
100019
100019
100019
100019
100019
100019
100019
100019
100019
100019
100019
100019
100019
100019
100019
100019
99998.7
100005
100009
100011
100015
100017
100020
100022
100023
100024
100024
100024
100024
100023
100023
100022
100022
100022
100022
100022
100022
100022
100022
100022
100022
100022
100022
100022
100022
100022
100022
100022
100022
100022
100022
100022
100022
100022
100022
100022
100022
100022
100022
100022
100022
100022
100022
100022
100022
100022
99998.4
100005
100009
100012
100016
100018
100021
100023
100024
100025
100026
100026
100025
100025
100024
100024
100023
100023
100023
100023
100023
100023
100024
100024
100024
100025
100025
100025
100025
100025
100025
100025
100025
100025
100025
100025
100025
100025
100025
100025
100025
100025
100025
100025
100025
100025
100025
100025
100025
100025
99998.1
100005
100010
100012
100017
100019
100022
100024
100026
100027
100027
100027
100027
100026
100025
100025
100024
100024
100024
100024
100024
100025
100025
100026
100026
100027
100027
100027
100027
100028
100028
100028
100028
100028
100028
100028
100028
100028
100028
100028
100027
100027
100027
100027
100027
100027
100027
100027
100027
100027
99997.8
100005
100010
100012
100017
100019
100023
100025
100027
100028
100029
100029
100028
100027
100026
100025
100024
100024
100024
100024
100024
100025
100026
100027
100028
100029
100029
100029
100030
100030
100030
100030
100030
100030
100030
100030
100030
100030
100030
100030
100030
100029
100029
100029
100029
100029
100029
100029
100029
100029
99997.5
100005
100010
100013
100018
100020
100024
100026
100028
100029
100030
100030
100029
100028
100027
100026
100024
100024
100023
100023
100024
100025
100026
100027
100028
100029
100030
100030
100031
100031
100031
100031
100031
100031
100031
100031
100031
100031
100031
100031
100030
100030
100030
100030
100030
100030
100030
100030
100030
100030
99997.2
100005
100010
100013
100018
100020
100024
100027
100029
100030
100031
100031
100031
100029
100028
100026
100024
100023
100022
100022
100022
100023
100025
100026
100028
100029
100029
100030
100030
100031
100031
100031
100031
100031
100031
100031
100030
100030
100030
100030
100030
100030
100030
100030
100030
100030
100030
100030
100030
100029
99996.9
100005
100011
100013
100018
100021
100025
100027
100030
100032
100033
100033
100032
100030
100028
100026
100023
100022
100020
100020
100020
100021
100022
100024
100025
100027
100027
100028
100028
100029
100029
100029
100029
100029
100029
100028
100028
100028
100028
100028
100028
100027
100027
100027
100027
100027
100027
100027
100027
100027
99996.6
100005
100011
100013
100019
100021
100025
100028
100031
100033
100034
100034
100033
100031
100029
100026
100023
100020
100018
100017
100016
100017
100018
100020
100021
100023
100023
100024
100024
100025
100025
100025
100025
100024
100024
100024
100024
100023
100023
100023
100023
100023
100023
100022
100022
100022
100022
100022
100022
100022
99996.4
100005
100011
100013
100019
100022
100026
100029
100032
100033
100035
100035
100034
100032
100029
100026
100022
100018
100015
100013
100011
100012
100013
100014
100016
100017
100017
100018
100018
100018
100019
100018
100018
100018
100018
100017
100017
100017
100016
100016
100016
100016
100016
100015
100015
100015
100015
100015
100015
100014
99996.2
100005
100011
100013
100019
100022
100026
100029
100032
100034
100036
100036
100035
100033
100030
100026
100021
100016
100012
100009
100006
100005
100006
100007
100008
100009
100009
100010
100010
100010
100010
100010
100010
100009
100009
100008
100008
100008
100007
100007
100007
100006
100006
100006
100006
100006
100006
100005
100005
100005
99996
100005
100011
100013
100020
100022
100027
100030
100033
100035
100037
100037
100036
100034
100030
100026
100020
100014
100008
100004
99999.4
99997.9
99997.4
99997.8
99998.4
99999
99999.4
99999.7
99999.9
99999.9
99999.8
99999.4
99998.9
99998.4
99997.9
99997.4
99996.9
99996.4
99996
99995.6
99995.3
99994.9
99994.6
99994.4
99994.1
99993.9
99993.8
99993.7
99993.5
99993
99995.8
100005
100011
100014
100020
100022
100027
100030
100033
100036
100037
100038
100037
100035
100031
100026
100019
100013
100005
99999.5
99992.8
99989.8
99988
99987.5
99987.6
99987.9
99988
99988.1
99988.1
99987.9
99987.5
99986.9
99986.3
99985.6
99985
99984.3
99983.8
99983.2
99982.7
99982.3
99981.8
99981.5
99981.1
99980.8
99980.5
99980.3
99980.1
99979.9
99979.7
99979.2
99995.6
100005
100011
100014
100020
100023
100027
100031
100034
100036
100038
100038
100038
100035
100031
100026
100019
100011
100002
99994.9
99986.1
99981.3
99977.9
99976.4
99975.8
99975.6
99975.5
99975.3
99975
99974.6
99973.9
99973
99972.1
99971.2
99970.5
99969.7
99969
99968.4
99967.8
99967.3
99966.8
99966.3
99965.9
99965.5
99965.2
99964.9
99964.7
99964.5
99964.2
99963.7
99995.5
100005
100011
100014
100020
100023
100028
100031
100034
100037
100039
100039
100039
100036
100032
100026
100018
100009
99999.4
99990.4
99979.4
99972.7
99967.4
99964.8
99963.5
99962.8
99962.3
99961.7
99961.1
99960.3
99959.2
99958
99956.8
99955.7
99954.8
99953.9
99953.1
99952.3
99951.6
99951
99950.4
99949.9
99949.4
99948.9
99948.6
99948.2
99947.9
99947.7
99947.4
99946.8
99995.3
100005
100012
100014
100020
100023
100028
100031
100035
100037
100039
100040
100039
100037
100033
100026
100018
100008
99996.8
99986.1
99973.1
99964.3
99957
99953.1
99950.9
99949.7
99948.7
99947.8
99946.8
99945.6
99944.1
99942.5
99940.9
99939.5
99938.3
99937.2
99936.2
99935.3
99934.5
99933.8
99933.1
99932.5
99931.9
99931.4
99931
99930.6
99930.2
99930
99929.6
99929
99995.2
100005
100012
100014
100020
100023
100028
100031
100035
100038
100040
100041
100040
100038
100033
100026
100017
100007
99994.4
99982.1
99967.1
99956.1
99946.7
99941.5
99938.5
99936.7
99935.3
99933.9
99932.5
99930.9
99928.9
99926.8
99924.7
99923
99921.5
99920.2
99919
99917.9
99917
99916.1
99915.4
99914.7
99914
99913.4
99912.9
99912.4
99912
99911.7
99911.3
99910.7
99995.1
100004
100012
100014
100020
100023
100028
100032
100035
100038
100040
100041
100041
100038
100034
100027
100017
100006
99992.4
99978.3
99961.7
99948.4
99936.8
99930.4
99926.6
99924.2
99922.3
99920.5
99918.5
99916.5
99914
99911.3
99908.8
99906.7
99904.8
99903.1
99901.7
99900.5
99899.4
99898.4
99897.5
99896.7
99896
99895.3
99894.7
99894.2
99893.7
99893.4
99892.9
99892.2
99995
100004
100012
100014
100021
100023
100028
100032
100036
100039
100041
100042
100041
100039
100034
100027
100017
100005
99990.5
99974.7
99956.7
99941.2
99927.5
99919.9
99915.3
99912.3
99910
99907.7
99905.2
99902.7
99899.7
99896.5
99893.5
99890.8
99888.5
99886.5
99884.9
99883.4
99882.1
99881
99880
99879.1
99878.2
99877.5
99876.8
99876.2
99875.7
99875.2
99874.6
99873.9
99994.9
100004
100012
100014
100021
100023
100029
100032
100036
100039
100041
100042
100042
100039
100035
100027
100017
100004
99988.9
99971.6
99952.4
99934.5
99918.8
99910
99904.7
99901.3
99898.5
99895.7
99892.7
99889.8
99886.3
99882.6
99879
99875.8
99873.1
99870.7
99868.7
99867
99865.5
99864.2
99863
99862
99861
99860.2
99859.4
99858.7
99858.1
99857.6
99856.9
99856.2
99994.8
100004
100012
100014
100021
100024
100029
100032
100036
100039
100042
100043
100042
100040
100035
100027
100017
100003
99987.5
99968.8
99948.5
99928.4
99910.8
99901
99895
99891.1
99887.9
99884.7
99881.2
99877.9
99873.9
99869.7
99865.6
99862
99858.8
99856
99853.6
99851.6
99849.9
99848.3
99847
99845.8
99844.7
99843.7
99842.8
99842
99841.3
99840.6
99839.8
99839.1
99994.8
100004
100012
100014
100021
100024
100029
100032
100036
100039
100042
100043
100043
100040
100036
100028
100017
100003
99986.3
99966.4
99945.2
99922.9
99903.5
99892.8
99886.2
99881.8
99878.3
99874.7
99870.8
99867
99862.6
99857.9
99853.4
99849.3
99845.7
99842.6
99839.9
99837.5
99835.5
99833.7
99832.2
99830.8
99829.5
99828.3
99827.3
99826.3
99825.4
99824.5
99823.6
99823
99994.7
100004
100012
100014
100021
100024
100029
100032
100037
100040
100042
100043
100043
100041
100036
100028
100017
100002
99985.3
99964.3
99942.2
99917.9
99896.9
99885.3
99878.2
99873.4
99869.6
99865.6
99861.4
99857.2
99852.5
99847.4
99842.6
99838.1
99834.1
99830.7
99827.7
99825.1
99822.8
99820.7
99818.9
99817.2
99815.7
99814.2
99812.8
99811.6
99810.3
99809.1
99808
99807.3
99994.6
100004
100012
100014
100021
100024
100029
100033
100037
100040
100042
100044
100044
100041
100036
100028
100017
100002
99984.4
99962.4
99939.6
99913.5
99890.9
99878.6
99871
99865.8
99861.7
99857.5
99853
99848.5
99843.5
99838.1
99833
99828.2
99824
99820.2
99816.9
99814
99811.4
99809.1
99806.9
99804.8
99802.9
99801
99799.2
99797.4
99795.8
99794.2
99792.7
99791.6
99994.6
100004
100012
100014
100021
100024
100029
100033
100037
100040
100043
100044
100044
100041
100037
100029
100017
100002
99983.7
99960.8
99937.4
99909.5
99885.5
99872.6
99864.6
99859.1
99854.7
99850.2
99845.6
99840.7
99835.5
99830
99824.6
99819.6
99815.2
99811.2
99807.7
99804.6
99801.7
99799.1
99796.5
99794.1
99791.8
99789.5
99787.3
99785.1
99782.9
99780.8
99778.6
99776.5
99994.5
100004
100012
100014
100021
100024
100029
100033
100037
100040
100043
100044
100044
100042
100037
100029
100018
100002
99983.1
99959.4
99935.5
99905.9
99880.7
99867.3
99858.9
99853.1
99848.5
99843.8
99839
99833.8
99828.5
99822.9
99817.4
99812.3
99807.7
99803.6
99800
99796.8
99793.8
99790.9
99788.1
99785.3
99782.5
99779.7
99776.8
99773.9
99771.1
99768.3
99764.6
99760.2
99994.5
100004
100012
100014
100021
100024
100029
100033
100037
100040
100043
100044
100044
100042
100037
100029
100018
100001
99982.6
99958.2
99933.8
99902.8
99876.4
99862.5
99853.9
99847.8
99843
99838.3
99833.2
99827.8
99822.5
99816.8
99811.2
99806.1
99801.5
99797.4
99793.9
99790.6
99787.6
99784.6
99781.6
99778.4
99775
99771.6
99767.9
99764.1
99760.5
99756.6
99750.4
99743.8
99994.5
100004
100012
100014
100021
100024
100029
100033
100037
100040
100043
100045
100045
100042
100038
100029
100018
100001
99982.1
99957.2
99932.3
99899.9
99872.5
99858.3
99849.4
99843.1
99838.1
99833.3
99828.1
99822.5
99817.1
99811.5
99805.9
99800.8
99796.3
99792.4
99789
99785.9
99783.1
99780.1
99777
99773.5
99769.8
99765.7
99761.2
99756.5
99752.1
99747.2
99736.6
99725.4
99994.4
100004
100012
100014
100021
100024
100029
100033
100037
100040
100043
100045
100045
100042
100038
100029
100018
100001
99981.8
99956.2
99931
99897.4
99869.1
99854.5
99845.4
99838.9
99833.8
99828.8
99823.7
99818
99812.6
99806.9
99801.5
99796.4
99792
99788.3
99785.2
99782.4
99779.8
99777
99773.8
99770.1
99765.9
99761
99755.1
99748.8
99743.5
99736.9
99715.1
99690.6
99994.4
100004
100012
100014
100021
100024
100029
100033
100037
100041
100043
100045
100045
100043
100038
100030
100018
100001
99981.4
99955.4
99929.8
99895.2
99866.1
99851.1
99841.9
99835.3
99830
99824.9
99819.8
99814
99808.6
99803.1
99797.7
99792.8
99788.5
99785
99782.2
99779.8
99777.4
99774.8
99771.5
99767.5
99762.5
99756.1
99747.2
99736.4
99728.3
99716.5
99666
99607.9
99994.4
100004
100012
100014
100021
100024
100029
100033
100037
100041
100044
100045
100045
100043
100038
100030
100018
100001
99981.2
99954.7
99928.8
99893.2
99863.3
99848.2
99838.8
99832
99826.7
99821.5
99816.4
99810.6
99805.2
99799.7
99794.5
99789.7
99785.5
99782.3
99779.8
99777.7
99775.6
99773
99769.5
99764.7
99757.9
99747.8
99731.4
99709.1
99690.7
99660.7
99546.4
99422.6
99994.4
100004
100012
100014
100021
100024
100029
100033
100037
100041
100044
100045
100045
100043
100038
100030
100018
100001
99980.9
99954.1
99928
99891.5
99860.9
99845.5
99836.1
99829.1
99823.8
99818.6
99813.6
99807.7
99802.2
99796.9
99791.7
99787.1
99783
99780
99777.7
99775.9
99774
99771.5
99767.7
99761.5
99751.6
99734.6
99703.6
99657.6
99611.6
99536.1
99313.1
99083.4
99994.4
100004
100012
100014
100021
100024
100029
100033
100037
100041
100044
100045
100045
100043
100038
100030
100018
100001
99980.7
99953.6
99927.2
99889.9
99858.7
99843.1
99833.6
99826.6
99821.2
99815.9
99811.2
99805.2
99799.6
99794.4
99789.3
99784.8
99780.9
99778
99775.9
99774.2
99772.5
99770.2
99766
99758
99742.9
99714.1
99659.2
99573.4
99469.8
99303
98937.9
98599.5
99994.3
100004
100012
100014
100021
100024
100030
100033
100038
100041
100044
100045
100045
100043
100039
100030
100018
100001
99980.6
99953.1
99926.5
99888.4
99856.7
99841
99831.4
99824.3
99818.9
99813.6
99808.9
99803.1
99797.4
99792.3
99787.3
99782.9
99779.1
99776.3
99774.3
99772.6
99771.2
99769
99764.5
99754.6
99733.1
99691
99610.7
99476.3
99285.1
98998
98555.6
98152.4
99994.3
100004
100012
100014
100021
100024
100030
100033
100038
100041
100044
100045
100046
100043
100039
100030
100018
100001
99980.5
99952.7
99926.1
99887.1
99855
99839.2
99829.6
99822.4
99816.9
99811.6
99806.8
99801.2
99795.5
99790.6
99785.5
99781.3
99777.6
99774.8
99772.7
99771
99770
99768.5
99764.8
99755.3
99732.5
99680.3
99575.3
99392.2
99100.2
98662.1
98113.6
97621.7
99994.3
100004
100012
100014
100021
100024
100030
100033
100038
100041
100044
100045
100046
100043
100039
100030
100018
100001
99980.3
99952.3
99925.5
99886.1
99853.5
99837.5
99827.9
99820.7
99815.2
99809.9
99804.9
99799.5
99793.8
99789.1
99784.1
99779.9
99776.2
99773.4
99771.2
99769.5
99768.9
99768.4
99765.5
99756.2
99731.9
99675.4
99560.6
99363.2
99027.8
98477.1
97864.9
97430.8
99994.3
100004
100012
100014
100021
100024
100030
100033
100038
100041
100044
100045
100046
100044
100039
100030
100018
100001
99980
99951.8
99924.1
99885.3
99850.9
99834.3
99824.4
99817.1
99811.9
99807.1
99802.6
99797.8
99792.6
99787.8
99782.8
99778.4
99774.7
99771.8
99769.5
99768.1
99768.7
99771
99774.1
99774.7
99761.5
99715.8
99608.8
99407.4
99046.7
98402.6
97562.1
96923.3
100001
100001
100001
100002
100002
100002
100002
100002
100002
100002
100002
100002
100002
100002
100002
100002
100002
100002
100002
100001
100001
100001
100001
100001
100001
100000
100000
100000
100000
99999.9
99999.8
99999.6
99999.5
99999.4
99999.2
99999.1
99999.1
99999
99999
99999
99999.1
99999.1
99999.1
99999.2
99999.2
99999.2
99999.2
99999.2
99999.2
99999.2
100002
100002
100002
100002
100002
100002
100002
100001
100001
100001
100001
100001
100001
100001
100001
100001
100001
100001
100001
100000
100000
100000
100000
99999.9
99999.8
99999.7
100002
100002
100002
100002
100002
100002
100002
100002
100002
100002
100001
100001
100001
100001
100001
100001
100001
100001
100001
100001
100000
100000
100000
99999.9
99999.7
99999.5
100004
100003
100003
100003
100003
100003
100003
100003
100003
100002
100002
100002
100002
100002
100002
100002
100002
100001
100001
100001
100001
100001
100000
100000
100000
99999.7
100004
100004
100004
100004
100004
100004
100004
100003
100003
100003
100003
100003
100003
100003
100002
100002
100002
100002
100002
100002
100001
100001
100001
100000
100000
99999.9
100006
100005
100005
100005
100005
100005
100005
100004
100004
100004
100004
100004
100004
100004
100003
100003
100003
100003
100002
100002
100002
100002
100001
100001
100001
100000
100007
100007
100006
100006
100006
100006
100006
100006
100006
100005
100005
100005
100005
100005
100004
100004
100004
100004
100003
100003
100003
100002
100002
100001
100001
100001
100008
100008
100008
100008
100008
100007
100007
100007
100007
100007
100007
100006
100006
100006
100006
100005
100005
100005
100004
100004
100004
100003
100003
100002
100002
100001
100010
100010
100010
100009
100009
100009
100009
100009
100009
100008
100008
100008
100008
100007
100007
100007
100006
100006
100006
100005
100005
100004
100004
100003
100002
100002
100012
100012
100012
100011
100011
100011
100011
100011
100010
100010
100010
100010
100009
100009
100009
100008
100008
100007
100007
100006
100006
100005
100005
100004
100003
100003
100014
100014
100014
100014
100013
100013
100013
100013
100013
100012
100012
100012
100011
100011
100011
100010
100010
100009
100008
100008
100007
100006
100006
100005
100004
100003
100016
100016
100016
100016
100016
100016
100015
100015
100015
100015
100014
100014
100014
100013
100013
100012
100011
100011
100010
100009
100009
100008
100007
100006
100005
100004
100003
100019
100019
100019
100019
100019
100018
100018
100018
100017
100017
100017
100016
100016
100015
100015
100014
100013
100013
100012
100011
100010
100009
100008
100007
100006
100005
100004
100022
100022
100022
100021
100021
100021
100021
100020
100020
100020
100019
100019
100018
100018
100017
100016
100015
100014
100014
100013
100011
100010
100009
100008
100007
100006
100004
100025
100025
100024
100024
100024
100024
100023
100023
100023
100022
100022
100021
100020
100020
100019
100018
100017
100016
100015
100014