/*--------------------------------*- C++ -*----------------------------------*\
  =========                 |
  \\      /  F ield         | OpenFOAM: The Open Source CFD Toolbox
   \\    /   O peration     | Website:  https://openfoam.org
    \\  /    A nd           | Version:  9
     \\/     M anipulation  |
\*---------------------------------------------------------------------------*/
FoamFile
{
    format      ascii;
    class       surfaceScalarField;
    location    "0.005";
    object      phi;
}
// * * * * * * * * * * * * * * * * * * * * * * * * * * * * * * * * * * * * * //

dimensions      [1 0 -1 0 0 0 0];

internalField   nonuniform List<scalar> 
9923
(
0.000359191
7.4773e-06
0.000345738
1.34538e-05
0.000331325
1.44122e-05
0.000316854
1.44716e-05
0.00030271
1.41439e-05
0.000289301
1.34091e-05
0.000277776
1.15252e-05
0.000268484
9.29267e-06
0.000260376
8.10808e-06
0.000252213
8.16375e-06
0.000243037
9.17736e-06
0.000231372
1.16671e-05
0.000212873
1.84993e-05
0.000177092
3.57813e-05
6.54641e-05
0.000111626
0.000366309
7.83534e-06
0.000365062
1.47009e-05
0.00036328
1.61942e-05
0.00036131
1.64416e-05
0.000359154
1.63002e-05
0.000356869
1.5694e-05
0.000353725
1.46697e-05
0.000349765
1.32532e-05
0.000345768
1.21052e-05
0.00034207
1.18624e-05
0.000338472
1.27769e-05
0.000334544
1.55974e-05
0.000330868
2.21762e-05
0.000324519
4.21309e-05
7.78435e-05
0.000312139
0.000367627
6.8749e-06
0.000369239
1.3089e-05
0.000370638
1.47952e-05
0.000371874
1.52057e-05
0.000372955
1.52194e-05
0.000373719
1.49301e-05
0.000373919
1.44691e-05
0.000373448
1.37242e-05
0.000372658
1.28948e-05
0.000371983
1.25381e-05
0.000371706
1.30538e-05
0.000371868
1.54369e-05
0.000373796
2.02477e-05
0.000380069
3.58584e-05
7.01836e-05
0.000387728
0.000368065
5.4761e-06
0.000370625
1.0529e-05
0.000373256
1.21645e-05
0.000375781
1.26803e-05
0.000378174
1.28267e-05
0.000380397
1.27072e-05
0.000382347
1.25194e-05
0.000384013
1.20585e-05
0.000385393
1.15152e-05
0.000386706
1.12256e-05
0.000388249
1.15119e-05
0.000390265
1.34219e-05
0.00039329
1.72231e-05
0.000401238
2.79105e-05
5.47771e-05
0.000416644
0.00036818
3.96193e-06
0.000371038
7.67171e-06
0.000374155
9.04676e-06
0.000377248
9.58757e-06
0.000380254
9.82096e-06
0.000383141
9.81972e-06
0.000385936
9.72529e-06
0.000388599
9.395e-06
0.000391086
9.02767e-06
0.000393474
8.83822e-06
0.000395962
9.02427e-06
0.000398895
1.04892e-05
0.000402638
1.34793e-05
0.000410156
2.03923e-05
3.90397e-05
0.000425894
0.000368152
2.47556e-06
0.000371033
4.79105e-06
0.0003743
5.77983e-06
0.000377616
6.27178e-06
0.000380885
6.55234e-06
0.00038406
6.64483e-06
0.000387187
6.59772e-06
0.000390239
6.34358e-06
0.000393174
6.09319e-06
0.000396021
5.99147e-06
0.00039892
6.12557e-06
0.000402231
7.17929e-06
0.000406299
9.4119e-06
0.00041271
1.39806e-05
2.55023e-05
0.000426248
0.000368066
1.07607e-06
0.000370836
2.02077e-06
0.00037407
2.54533e-06
0.000377434
2.90848e-06
0.00038079
3.196e-06
0.000384052
3.38231e-06
0.000387267
3.38287e-06
0.000390404
3.20725e-06
0.00039345
3.04667e-06
0.000396442
2.99997e-06
0.000399467
3.10027e-06
0.000402813
3.83315e-06
0.000406804
5.42123e-06
0.000412407
8.37766e-06
1.51556e-05
0.000422754
0.000367957
-2.15171e-07
0.000370545
-5.66543e-07
0.00037364
-5.498e-07
0.000376926
-3.7832e-07
0.000380265
-1.42756e-07
0.000383533
1.14775e-07
0.000386766
1.49624e-07
0.000389914
5.98602e-08
0.000392983
-2.1992e-08
0.000396002
-1.85863e-08
0.000399026
7.66524e-08
0.000402267
5.92095e-07
0.000406006
1.68315e-06
0.000410903
3.48047e-06
7.28705e-06
0.000418772
0.000367839
-1.38842e-06
0.000370211
-2.93863e-06
0.000373072
-3.4109e-06
0.000376155
-3.46048e-06
0.000379344
-3.33253e-06
0.000382522
-3.06314e-06
0.000385664
-2.99171e-06
0.000388742
-3.01859e-06
0.000391763
-3.04294e-06
0.00039475
-3.00597e-06
0.00039774
-2.9131e-06
0.000400869
-2.53698e-06
0.000404337
-1.78471e-06
0.000408533
-7.1518e-07
1.08607e-06
0.000414734
0.000367717
-2.43906e-06
0.000369841
-5.06274e-06
0.000372392
-5.96184e-06
0.00037514
-6.20902e-06
0.000377998
-6.18981e-06
0.000380895
-5.96054e-06
0.000383779
-5.87581e-06
0.000386628
-5.86684e-06
0.000389443
-5.85845e-06
0.000392247
-5.80893e-06
0.000395062
-5.72847e-06
0.000397969
-5.4434e-06
0.00040109
-4.90568e-06
0.000404627
-4.25254e-06
-3.79964e-06
0.000409514
0.000367579
-3.35195e-06
0.000369401
-6.8844e-06
0.000371543
-8.10409e-06
0.000373837
-8.50282e-06
0.000376233
-8.58564e-06
0.000378716
-8.44373e-06
0.000381225
-8.38501e-06
0.000383735
-8.37679e-06
0.000386238
-8.36165e-06
0.000388752
-8.3229e-06
0.00039131
-8.28617e-06
0.000393957
-8.09042e-06
0.000396756
-7.7046e-06
0.000399707
-7.20347e-06
-7.39124e-06
0.000403299
0.000367391
-4.07622e-06
0.000368798
-8.29212e-06
0.000370368
-9.6735e-06
0.000372003
-1.01376e-05
0.000373719
-1.03023e-05
0.00037557
-1.02944e-05
0.0003775
-1.03149e-05
0.000379486
-1.03628e-05
0.000381494
-1.03695e-05
0.000383545
-1.03738e-05
0.000385695
-1.0436e-05
0.000387964
-1.03598e-05
0.000390346
-1.00867e-05
0.000392763
-9.61986e-06
-1.00529e-05
0.000395425
0.00036706
-4.4692e-06
0.000367757
-8.98983e-06
0.000368379
-1.02956e-05
0.000368987
-1.07454e-05
0.000369615
-1.09301e-05
0.000370385
-1.10642e-05
0.000371259
-1.11888e-05
0.000372174
-1.1278e-05
0.000373104
-1.12993e-05
0.000374138
-1.14084e-05
0.000375371
-1.16684e-05
0.000376802
-1.1791e-05
0.00037842
-1.17046e-05
0.000380067
-1.12673e-05
-1.15819e-05
0.000381597
0.000366253
-4.05553e-06
0.000365278
-8.01392e-06
0.000363946
-8.96444e-06
0.000362523
-9.3217e-06
0.000361069
-9.47656e-06
0.000359708
-9.70319e-06
0.000358312
-9.79182e-06
0.000356699
-9.66534e-06
0.000354927
-9.52694e-06
0.000353189
-9.67078e-06
0.000351547
-1.0027e-05
0.000350022
-1.02657e-05
0.000348523
-1.0206e-05
0.000346637
-9.38122e-06
-8.94771e-06
0.000344004
0.000362613
0.000354599
0.000345635
0.000336313
0.000326836
0.000317133
0.000307341
0.000297676
0.000288149
0.000278478
0.000268451
0.000258185
0.00024798
0.000238598
0.000229651
9.95237e-05
1.21017e-05
0.000123883
-2.43604e-05
0.000166315
-4.24321e-05
0.000213568
-4.72538e-05
0.000257723
-4.41558e-05
0.000293233
-3.55106e-05
0.000322206
-2.89739e-05
0.000340802
-1.85961e-05
0.00034816
-7.35871e-06
0.000344723
3.43689e-06
0.000333076
1.16469e-05
0.000314604
1.84719e-05
0.000290586
2.40187e-05
0.00026443
2.61556e-05
2.66967e-05
0.000237733
0.000310936
1.33043e-05
0.000323804
-3.72286e-05
0.0003424
-6.10288e-05
0.000363548
-6.84018e-05
0.000383829
-6.4438e-05
0.000400821
-5.25028e-05
0.000411483
-3.96357e-05
0.000416944
-2.40575e-05
0.000417107
-7.52143e-06
0.000411627
8.91633e-06
0.000398341
2.49328e-05
0.000378219
3.85936e-05
0.000351882
5.03562e-05
0.000320735
5.73021e-05
6.53257e-05
0.000282106
0.000386498
1.4534e-05
0.000391522
-4.22521e-05
0.000401451
-7.09579e-05
0.00041331
-8.02619e-05
0.000424442
-7.55694e-05
0.000435087
-6.31487e-05
0.000441134
-4.56829e-05
0.000443117
-2.60403e-05
0.00044104
-5.44376e-06
0.000434222
1.57341e-05
0.000422513
3.66421e-05
0.000404376
5.67298e-05
0.000379835
7.48978e-05
0.000349531
8.76061e-05
0.000100039
0.000314818
0.000420648
1.053e-05
0.000423459
-4.50636e-05
0.000427203
-7.4702e-05
0.000432122
-8.51808e-05
0.000438158
-8.16065e-05
0.00044393
-6.89203e-05
0.000447397
-4.915e-05
0.000448473
-2.7116e-05
0.000446956
-3.92637e-06
0.000441751
2.09386e-05
0.000432317
4.60764e-05
0.000418231
7.0816e-05
0.000397674
9.54546e-05
0.000370106
0.000115174
0.000131981
0.000338164
0.000433193
3.2306e-06
0.000435607
-4.74772e-05
0.000436474
-7.55694e-05
0.000437836
-8.65431e-05
0.00043999
-8.37602e-05
0.00044161
-7.05406e-05
0.000443407
-5.09467e-05
0.000444207
-2.79162e-05
0.000443624
-3.3434e-06
0.000440483
2.40806e-05
0.000434135
5.24239e-05
0.000424004
8.09474e-05
0.000409279
0.000110179
0.000387371
0.000137082
0.000161092
0.00035826
0.000433753
-4.27491e-06
0.000436567
-5.02916e-05
0.00043647
-7.54721e-05
0.000435192
-8.52663e-05
0.000433943
-8.25108e-05
0.000433525
-7.01228e-05
0.0004339
-5.1322e-05
0.0004344
-2.84154e-05
0.0004346
-3.54366e-06
0.00043327
2.54111e-05
0.000429877
5.5817e-05
0.000423828
8.69968e-05
0.000414198
0.000119808
0.000399538
0.000151742
0.000184636
0.000375994
0.000429741
-1.12619e-05
0.000431754
-5.23043e-05
0.000430469
-7.41882e-05
0.000427614
-8.24109e-05
0.000424618
-7.9515e-05
0.000422422
-6.79266e-05
0.00042142
-5.03198e-05
0.000421091
-2.80865e-05
0.000421077
-3.53002e-06
0.000421079
2.54098e-05
0.000420589
5.6307e-05
0.000418513
8.90728e-05
0.000414148
0.000124173
0.000406272
0.000159618
0.000199953
0.000390955
0.000424218
-1.67081e-05
0.000424877
-5.2964e-05
0.000422272
-7.15833e-05
0.000418035
-7.81741e-05
0.00041339
-7.48701e-05
0.000409283
-6.38197e-05
0.000406111
-4.71477e-05
0.00040442
-2.63955e-05
0.000404206
-3.31566e-06
0.000405274
2.43422e-05
0.000407127
5.44542e-05
0.000409034
8.71663e-05
0.0004101
0.000123106
0.000408441
0.000161278
0.000205711
0.000402683
0.000418322
-2.02952e-05
0.000417253
-5.1895e-05
0.000413104
-6.74343e-05
0.000407251
-7.23213e-05
0.000400789
-6.84089e-05
0.000394815
-5.78453e-05
0.000390221
-4.25539e-05
0.000387582
-2.3757e-05
0.000386988
-2.7211e-06
0.000388445
2.28853e-05
0.000391808
5.10914e-05
0.000396698
8.22763e-05
0.000402347
0.000117457
0.000407554
0.00015607
0.000202782
0.000410484
0.000412385
-2.31668e-05
0.000409459
-4.89681e-05
0.000403733
-6.17084e-05
0.000396314
-6.49022e-05
0.000388302
-6.03967e-05
0.000380798
-5.03414e-05
0.00037469
-3.64455e-05
0.00037066
-1.97262e-05
0.000369113
-1.17504e-06
0.000370447
2.15517e-05
0.000374811
4.67275e-05
0.000382032
7.50542e-05
0.000391823
0.000107666
0.000403247
0.000144646
0.000191279
0.00041475
0.000405293
-2.516e-05
0.000400973
-4.46485e-05
0.000393143
-5.38779e-05
0.000384002
-5.57624e-05
0.000374262
-5.06556e-05
0.000365074
-4.1154e-05
0.0003574
-2.87718e-05
0.000352121
-1.44473e-05
0.000349766
1.18049e-06
0.00035105
2.02675e-05
0.000356254
4.15233e-05
0.000365413
6.58959e-05
0.000378861
9.42165e-05
0.000395805
0.000127703
0.000171091
0.000415993
0.000396329
-2.60638e-05
0.000390584
-3.89019e-05
0.000380787
-4.4083e-05
0.00036878
-4.37521e-05
0.000356664
-3.85424e-05
0.000345423
-2.9911e-05
0.000336016
-1.93672e-05
0.00032943
-7.85985e-06
0.000326262
4.34708e-06
0.000327627
1.89026e-05
0.000333887
3.52637e-05
0.000345104
5.46773e-05
0.000362263
7.70585e-05
0.000384758
0.000105207
0.000141442
0.000414408
0.000380273
-2.4739e-05
0.000371487
-3.01153e-05
0.000358639
-3.12354e-05
0.000343702
-2.8815e-05
0.000328716
-2.35573e-05
0.000315486
-1.66819e-05
0.00030514
-9.02276e-06
0.000298513
-1.23262e-06
0.000296076
6.78306e-06
0.000298826
1.61527e-05
0.000307258
2.6832e-05
0.000321165
4.07692e-05
0.000342484
5.57401e-05
0.000370157
7.75346e-05
0.000103078
0.00040852
0.000337298
-1.80322e-05
0.000323174
-1.59905e-05
0.000306214
-1.42758e-05
0.00028895
-1.15521e-05
0.00027356
-8.16957e-06
0.000261238
-4.36085e-06
0.000252686
-4.72088e-07
0.000248275
3.1773e-06
0.000248116
6.94137e-06
0.000252884
1.13838e-05
0.000263113
1.66037e-05
0.000281344
2.25377e-05
0.000309305
2.77796e-05
0.000344373
4.24663e-05
5.10439e-05
0.000396408
0.000211619
0.000195628
0.000181352
0.0001698
0.00016163
0.000157269
0.000156797
0.000159974
0.000166915
0.000178299
0.000194903
0.000217441
0.00024522
0.000287686
0.00033873
0.000255397
-1.76637e-05
0.000266709
-1.13119e-05
0.000275489
-8.77999e-06
0.000280231
-4.74234e-06
0.0002828
-2.56886e-06
0.000284155
-1.35466e-06
0.000284374
-2.1913e-07
0.000283497
8.77376e-07
0.00028138
2.11641e-06
0.000276882
4.49872e-06
0.000271623
5.26045e-06
1.13918e-05
0.000295075
-3.06326e-05
0.00030416
-2.03968e-05
0.000313009
-1.76291e-05
0.000320656
-1.23887e-05
0.000326852
-8.76512e-06
0.000332174
-6.67666e-06
0.000336895
-4.93969e-06
0.000341335
-3.56303e-06
0.000345779
-2.3272e-06
0.000349969
3.08334e-07
0.000355288
-5.76182e-08
8.39121e-06
0.000324529
-4.0344e-05
0.00033233
-2.81978e-05
0.000338645
-2.39434e-05
0.000344077
-1.7821e-05
0.000348142
-1.28303e-05
0.000351423
-9.95789e-06
0.000354429
-7.94533e-06
0.000357387
-6.5213e-06
0.00036088
-5.82016e-06
0.000364679
-3.49013e-06
0.000370338
-5.71448e-06
3.91816e-06
0.000342678
-4.48584e-05
0.000346415
-3.19341e-05
0.000348996
-2.65243e-05
0.00035156
-2.03849e-05
0.000353753
-1.50233e-05
0.00035576
-1.19649e-05
0.000357943
-1.01286e-05
0.000360382
-8.96055e-06
0.000363442
-8.87935e-06
0.000367231
-7.27911e-06
0.000372465
-1.09482e-05
-1.02319e-06
0.000359843
-4.64415e-05
0.000361203
-3.32943e-05
0.000361909
-2.72306e-05
0.000362832
-2.13071e-05
0.000363693
-1.58846e-05
0.000364428
-1.27002e-05
0.000365355
-1.10548e-05
0.000366613
-1.02193e-05
0.000368462
-1.07277e-05
0.000371187
-1.00039e-05
0.000374961
-1.47202e-05
-5.8154e-06
0.000374876
-4.5324e-05
0.000373886
-3.23042e-05
0.000372541
-2.58854e-05
0.000371623
-2.03893e-05
0.000371028
-1.52893e-05
0.000370604
-1.2276e-05
0.000370557
-1.10084e-05
0.000371011
-1.06726e-05
0.000372081
-1.17978e-05
0.000374118
-1.20409e-05
0.000376918
-1.75197e-05
-1.03797e-05
0.000387123
-4.14915e-05
0.0003843
-2.94819e-05
0.000381545
-2.313e-05
0.000379382
-1.82267e-05
0.000377823
-1.37301e-05
0.000376628
-1.10812e-05
0.000375845
-1.02253e-05
0.000375595
-1.04226e-05
0.000375929
-1.21314e-05
0.000377232
-1.33435e-05
0.000379117
-1.9402e-05
-1.43422e-05
0.00039669
-3.54986e-05
0.00039255
-2.53421e-05
0.000388834
-1.94136e-05
0.000385768
-1.51604e-05
0.000383465
-1.1427e-05
0.000381686
-9.30257e-06
0.00038036
-8.89972e-06
0.000379592
-9.654e-06
0.000379367
-1.19063e-05
0.000380075
-1.4051e-05
0.000381219
-2.05473e-05
-1.76689e-05
0.000403512
-2.85272e-05
0.000398499
-2.03284e-05
0.000394218
-1.51331e-05
0.000390695
-1.16369e-05
0.000388014
-8.74639e-06
0.000385901
-7.1897e-06
0.00038423
-7.22818e-06
0.000383142
-8.56642e-06
0.000382525
-1.12886e-05
0.000382757
-1.42829e-05
0.000383278
-2.10653e-05
-2.03871e-05
0.000407554
-2.13317e-05
0.000402121
-1.4895e-05
0.000397634
-1.06466e-05
0.000393943
-7.94583e-06
0.000391244
-6.04708e-06
0.000389192
-5.13775e-06
0.000387403
-5.43931e-06
0.000386159
-7.32192e-06
0.000385315
-1.04452e-05
0.000385198
-1.41651e-05
0.000385215
-2.10824e-05
-2.25525e-05
0.000408962
-1.43008e-05
0.000403548
-9.48096e-06
0.000399076
-6.17421e-06
0.000395524
-4.39348e-06
0.000392996
-3.51944e-06
0.000391153
-3.29453e-06
0.00038969
-3.97595e-06
0.000388478
-6.11016e-06
0.000387615
-9.5818e-06
0.000387321
-1.38711e-05
0.000386981
-2.07373e-05
-2.42627e-05
0.00040786
-7.75368e-06
0.000402943
-4.56375e-06
0.000398872
-2.10318e-06
0.000395762
-1.28355e-06
0.000393678
-1.43505e-06
0.00039227
-1.88677e-06
0.00039134
-3.04618e-06
0.000390437
-5.20669e-06
0.000389684
-8.82831e-06
0.000389354
-1.35408e-05
0.000388779
-2.0165e-05
-2.55521e-05
0.000403129
-2.36176e-06
0.000399333
-7.68397e-07
0.00039643
7.99861e-07
0.000394228
9.18913e-07
0.000392783
1.01621e-08
0.000392028
-1.132e-06
0.000391713
-2.73132e-06
0.000391467
-4.96012e-06
0.000391131
-8.49242e-06
0.000391015
-1.34242e-05
0.00039029
-1.94401e-05
-2.6203e-05
0.000393133
9.13215e-07
0.000390545
1.81939e-06
0.000389327
2.01827e-06
0.000388962
1.28399e-06
0.000388896
7.60258e-08
0.000389053
-1.28838e-06
0.000389395
-3.07409e-06
0.00038951
-5.07479e-06
0.000388452
-7.43457e-06
0.000386551
-1.15221e-05
0.000382805
-1.56945e-05
-2.19094e-05
0.000339644
0.000341463
0.000343481
0.000344765
0.000344841
0.000343553
0.000340479
0.000335404
0.000327969
0.000316447
0.000300753
0.30232
-0.00079914
0.302225
-0.00080168
0.302133
-0.000804221
0.302043
-0.000806763
0.301954
-0.000809305
0.301867
-0.000811848
0.301782
-0.00081439
0.301699
-0.000816934
0.301617
-0.000819477
0.301537
-0.00082202
0.301458
-0.000824564
0.301381
-0.000827108
0.301306
-0.000829651
0.301231
-0.000832195
0.301159
-0.000834738
0.301087
-0.000837281
0.301017
-0.000839824
0.300949
-0.000842367
0.300881
-0.000844909
0.300815
-0.00084745
0.30075
-0.000849991
0.300686
-0.00085253
0.300624
-0.00085507
0.300562
-0.000857608
0.300502
-0.000860145
0.300442
-0.000862681
0.300384
-0.000865216
0.300326
-0.00086775
0.30027
-0.000870282
0.300215
-0.000872813
0.30016
-0.000875343
0.300107
-0.000877871
0.300054
-0.000880397
0.300002
-0.000882922
0.299951
-0.000885445
0.299901
-0.000887966
0.299852
-0.000890485
0.299803
-0.000893003
0.299756
-0.000895518
0.299709
-0.00089803
0.299662
-0.000900541
0.299617
-0.000903049
0.299572
-0.000905555
0.299528
-0.000908058
0.299485
-0.000910559
0.299442
-0.000913057
0.2994
-0.000915552
0.299358
-0.000918044
0.299317
-0.000920533
0.299277
-0.000923026
0.299237
-0.000925519
0.299198
-0.00092801
0.29916
-0.000930498
0.299122
-0.000932982
0.299085
-0.000935462
0.299048
-0.000937938
0.299011
-0.00094041
0.298976
-0.000942877
0.29894
-0.00094534
0.298906
-0.000947799
0.298871
-0.000950253
0.298837
-0.000952703
0.298804
-0.000955149
0.298771
-0.00095759
0.298739
-0.000960026
0.298707
-0.000962458
0.298675
-0.000964885
0.298644
-0.000967307
0.298613
-0.000969725
0.298582
-0.000972137
0.298552
-0.000974545
0.298523
-0.000976947
-0.000979337
0.271508
-0.000791987
0.271502
-0.000795167
0.271496
-0.000798323
0.27149
-0.000801457
0.271486
-0.000804569
0.271481
-0.00080766
0.271478
-0.00081073
0.271475
-0.00081378
0.271472
-0.000816811
0.27147
-0.000819823
0.271468
-0.000822817
0.271467
-0.000825793
0.271466
-0.000828753
0.271465
-0.000831696
0.271465
-0.000834623
0.271465
-0.000837534
0.271466
-0.000840431
0.271467
-0.000843314
0.271468
-0.000846182
0.27147
-0.000849036
0.271472
-0.000851877
0.271474
-0.000854705
0.271476
-0.000857521
0.271479
-0.000860324
0.271482
-0.000863115
0.271485
-0.000865895
0.271489
-0.000868663
0.271492
-0.00087142
0.271496
-0.000874166
0.2715
-0.000876902
0.271505
-0.000879627
0.271509
-0.000882343
0.271514
-0.000885048
0.271519
-0.000887744
0.271524
-0.00089043
0.271529
-0.000893107
0.271534
-0.000895774
0.271539
-0.000898433
0.271545
-0.000901083
0.271551
-0.000903724
0.271557
-0.000906357
0.271562
-0.000908981
0.271568
-0.000911597
0.271575
-0.000914204
0.271581
-0.000916804
0.271587
-0.000919396
0.271594
-0.000921979
0.2716
-0.000924556
0.271607
-0.000927124
0.271613
-0.000929691
0.27162
-0.000932253
0.271627
-0.000934809
0.271634
-0.000937358
0.271641
-0.000939899
0.271648
-0.000942432
0.271655
-0.000944957
0.271662
-0.000947474
0.271669
-0.000949984
0.271676
-0.000952485
0.271683
-0.00095498
0.27169
-0.000957466
0.271698
-0.000959946
0.271705
-0.000962417
0.271712
-0.000964882
0.27172
-0.000967339
0.271727
-0.000969789
0.271734
-0.000972232
0.271742
-0.000974668
0.271749
-0.000977097
0.271756
-0.000979518
0.271764
-0.000981933
0.271771
-0.00098434
-0.00098674
0.255716
-0.000792799
0.255716
-0.000795679
0.255717
-0.000798555
0.255716
-0.000801427
0.255716
-0.000804295
0.255716
-0.00080716
0.255715
-0.000810021
0.255714
-0.000812878
0.255713
-0.000815731
0.255712
-0.00081858
0.25571
-0.000821425
0.255709
-0.000824266
0.255707
-0.000827102
0.255705
-0.000829935
0.255704
-0.000832763
0.255702
-0.000835587
0.2557
-0.000838407
0.255698
-0.000841223
0.255695
-0.000844034
0.255693
-0.00084684
0.255691
-0.000849641
0.255689
-0.000852438
0.255686
-0.00085523
0.255684
-0.000858017
0.255682
-0.000860799
0.255679
-0.000863576
0.255677
-0.000866348
0.255675
-0.000869114
0.255673
-0.000871874
0.25567
-0.000874628
0.255668
-0.000877377
0.255666
-0.000880119
0.255664
-0.000882855
0.255661
-0.000885584
0.255659
-0.000888323
0.255657
-0.000891072
0.255655
-0.000893821
0.255653
-0.000896565
0.255652
-0.000899304
0.25565
-0.000902038
0.255648
-0.000904768
0.255647
-0.000907492
0.255646
-0.000910212
0.255644
-0.000912926
0.255643
-0.000915635
0.255642
-0.000918339
0.255641
-0.000921038
0.25564
-0.000923731
0.25564
-0.000926419
0.255639
-0.000929102
0.255639
-0.000931779
0.255638
-0.000934451
0.255638
-0.000937117
0.255638
-0.000939777
0.255638
-0.000942429
0.255638
-0.000945075
0.255638
-0.000947715
0.255639
-0.000950349
0.255639
-0.000952977
0.25564
-0.000955599
0.25564
-0.000958215
0.255641
-0.000960826
0.255642
-0.00096343
0.255643
-0.000966029
0.255645
-0.000968621
0.255646
-0.000971208
0.255648
-0.000973788
0.255649
-0.000976362
0.255651
-0.00097893
0.255653
-0.000981492
0.255655
-0.000984047
0.255658
-0.000986596
-0.000989138
0.237057
-0.000775085
0.23704
-0.000778408
0.237023
-0.000781723
0.237007
-0.000785029
0.236991
-0.000788326
0.236975
-0.000791616
0.23696
-0.000794896
0.236945
-0.000798168
0.236931
-0.000801431
0.236917
-0.000804686
0.236904
-0.000807931
0.236891
-0.000811168
0.236878
-0.000814397
0.236866
-0.000817618
0.236854
-0.000820831
0.236842
-0.000824034
0.236831
-0.000827229
0.23682
-0.000830414
0.23681
-0.000833591
0.2368
-0.000836759
0.23679
-0.000839917
0.236781
-0.000843066
0.236772
-0.000846206
0.236763
-0.000849337
0.236755
-0.000852458
0.236747
-0.00085557
0.236739
-0.000858672
0.236732
-0.000861764
0.236724
-0.000864847
0.236718
-0.00086792
0.236711
-0.000870982
0.236705
-0.000874035
0.2367
-0.000877077
0.236694
-0.000880108
0.236689
-0.000883144
0.236684
-0.000886184
0.236679
-0.000889219
0.236675
-0.000892246
0.236671
-0.000895264
0.236667
-0.000898273
0.236664
-0.000901274
0.236661
-0.000904266
0.236658
-0.000907249
0.236655
-0.000910223
0.236652
-0.000913188
0.23665
-0.000916145
0.236648
-0.000919092
0.236647
-0.000922031
0.236645
-0.000924961
0.236644
-0.000927882
0.236643
-0.000930794
0.236642
-0.000933697
0.236642
-0.000936591
0.236641
-0.000939475
0.236641
-0.00094235
0.236641
-0.000945214
0.236642
-0.000948068
0.236642
-0.000950914
0.236643
-0.00095375
0.236644
-0.000956577
0.236645
-0.000959395
0.236647
-0.000962204
0.236648
-0.000965004
0.23665
-0.000967796
0.236652
-0.000970578
0.236654
-0.000973351
0.236656
-0.000976116
0.236659
-0.000978871
0.236662
-0.000981616
0.236664
-0.000984353
0.236667
-0.00098708
0.236671
-0.000989798
-0.000992505
0.220278
-0.000782402
0.220286
-0.000785644
0.220293
-0.000788882
0.2203
-0.000792116
0.220307
-0.000795346
0.220314
-0.000798571
0.220321
-0.00080179
0.220327
-0.000805003
0.220334
-0.000808211
0.220341
-0.000811413
0.220348
-0.000814609
0.220354
-0.0008178
0.220361
-0.000821016
0.220368
-0.000824236
0.220374
-0.000827453
0.220381
-0.000830666
0.220387
-0.000833875
0.220394
-0.000837079
0.220401
-0.00084028
0.220407
-0.000843476
0.220414
-0.000846668
0.220421
-0.000849855
0.220428
-0.000853038
0.220435
-0.000856215
0.220442
-0.000859388
0.220449
-0.000862556
0.220456
-0.000865719
0.220463
-0.000868876
0.22047
-0.000872029
0.220477
-0.000875176
0.220485
-0.000878318
0.220492
-0.000881454
0.2205
-0.000884584
0.220507
-0.000887709
0.220515
-0.000890828
0.220523
-0.00089394
0.22053
-0.000897046
0.220538
-0.000900146
0.220546
-0.000903239
0.220554
-0.000906326
0.220562
-0.000909407
0.220571
-0.000912482
0.220579
-0.000915549
0.220587
-0.000918611
0.220596
-0.000921665
0.220604
-0.000924713
0.220613
-0.000927754
0.220622
-0.000930787
0.220631
-0.000933814
0.22064
-0.000936834
0.220649
-0.000939846
0.220658
-0.000942851
0.220667
-0.000945849
0.220676
-0.000948839
0.220686
-0.000951822
0.220696
-0.000954797
0.220705
-0.000957765
0.220715
-0.000960725
0.220725
-0.000963677
0.220735
-0.000966621
0.220745
-0.000969557
0.220755
-0.000972486
0.220766
-0.000975423
0.220776
-0.000978359
0.220787
-0.000981288
0.220798
-0.000984208
0.220809
-0.000987119
0.22082
-0.000990019
0.220831
-0.00099291
0.220843
-0.00099579
0.220854
-0.000998661
0.220866
-0.00100152
-0.00100437
0.205018
-0.000774333
0.20501
-0.000777844
0.205002
-0.000781351
0.204995
-0.000784855
0.204988
-0.000788355
0.204981
-0.000791851
0.204975
-0.000795359
0.204969
-0.000798866
0.204963
-0.000802369
0.204957
-0.000805865
0.204952
-0.000809355
0.204947
-0.000812838
0.204943
-0.000816341
0.204938
-0.000819843
0.204934
-0.000823341
0.20493
-0.000826833
0.204927
-0.000830321
0.204923
-0.000833803
0.20492
-0.000837279
0.204918
-0.000840749
0.204915
-0.000844214
0.204913
-0.000847672
0.204911
-0.000851125
0.20491
-0.000854571
0.204908
-0.000858011
0.204907
-0.000861445
0.204906
-0.000864871
0.204906
-0.000868291
0.204905
-0.000871705
0.204905
-0.000875111
0.204905
-0.00087851
0.204906
-0.000881902
0.204907
-0.000885287
0.204907
-0.000888664
0.204909
-0.000892034
0.20491
-0.000895396
0.204912
-0.00089875
0.204914
-0.000902097
0.204916
-0.000905436
0.204918
-0.000908768
0.204921
-0.000912092
0.204924
-0.000915408
0.204927
-0.000918717
0.204931
-0.000922017
0.204934
-0.000925308
0.204938
-0.000928591
0.204942
-0.000931866
0.204947
-0.000935132
0.204951
-0.00093839
0.204956
-0.000941638
0.204961
-0.000944878
0.204966
-0.000948109
0.204972
-0.00095133
0.204977
-0.000954542
0.204983
-0.000957746
0.20499
-0.000960939
0.204996
-0.000964123
0.205002
-0.000967298
0.205009
-0.000970463
0.205016
-0.000973618
0.205023
-0.000976763
0.205031
-0.000979899
0.205038
-0.000983039
0.205046
-0.000986176
0.205054
-0.000989304
0.205063
-0.00099242
0.205071
-0.000995525
0.20508
-0.000998618
0.205088
-0.0010017
0.205097
-0.00100477
0.205106
-0.00100783
0.205116
-0.00101087
-0.0010139
0.190279
-0.000778779
0.190283
-0.000782489
0.190288
-0.000786196
0.190293
-0.000789902
0.190298
-0.000793604
0.190304
-0.000797303
0.19031
-0.000801016
0.190315
-0.000804731
0.190321
-0.000808442
0.190328
-0.00081215
0.190334
-0.000815852
0.190341
-0.00081955
0.190348
-0.000823241
0.190355
-0.000826926
0.190362
-0.000830605
0.19037
-0.00083428
0.190377
-0.000837949
0.190385
-0.000841614
0.190393
-0.000845273
0.190401
-0.000848927
0.19041
-0.000852575
0.190418
-0.000856217
0.190427
-0.000859854
0.190436
-0.000863484
0.190445
-0.000867108
0.190454
-0.000870726
0.190464
-0.000874338
0.190473
-0.000877942
0.190483
-0.00088154
0.190493
-0.000885131
0.190503
-0.000888714
0.190514
-0.000892291
0.190524
-0.000895859
0.190535
-0.00089942
0.190546
-0.000902974
0.190557
-0.000906519
0.190568
-0.000910056
0.19058
-0.000913585
0.190592
-0.000917124
0.190604
-0.000920664
0.190616
-0.000924199
0.190628
-0.000927725
0.190641
-0.00093124
0.190653
-0.000934743
0.190666
-0.000938236
0.190679
-0.000941717
0.190693
-0.000945187
0.190706
-0.000948646
0.19072
-0.000952093
0.190734
-0.00095553
0.190748
-0.000958955
0.190762
-0.00096237
0.190776
-0.000965773
0.190791
-0.000969165
0.190806
-0.000972545
0.190821
-0.000975915
0.190836
-0.000979273
0.190851
-0.000982619
0.190867
-0.000985955
0.190883
-0.000989277
0.190898
-0.000992587
0.190914
-0.000995884
0.19093
-0.000999168
0.190947
-0.00100244
0.190963
-0.0010057
0.19098
-0.00100894
0.190996
-0.00101218
0.191013
-0.0010154
0.19103
-0.0010186
0.191047
-0.0010218
0.191064
-0.00102498
0.191081
-0.00102814
-0.00103129
0.177195
-0.000776674
0.177193
-0.000780667
0.177191
-0.000784659
0.17719
-0.000788649
0.177189
-0.000792638
0.177189
-0.000796624
0.177188
-0.000800608
0.177188
-0.000804589
0.177188
-0.000808567
0.177189
-0.000812542
0.177189
-0.000816513
0.17719
-0.000820481
0.177191
-0.000824445
0.177193
-0.000828405
0.177195
-0.000832379
0.177197
-0.000836363
0.177199
-0.000840344
0.177202
-0.000844319
0.177205
-0.000848285
0.177208
-0.000852244
0.177212
-0.000856195
0.177216
-0.000860139
0.17722
-0.000864074
0.177224
-0.000868001
0.177229
-0.00087192
0.177234
-0.000875831
0.17724
-0.000879734
0.177245
-0.000883629
0.177251
-0.000887517
0.177258
-0.000891397
0.177264
-0.000895269
0.177271
-0.000899131
0.177278
-0.000902984
0.177286
-0.000906829
0.177293
-0.000910664
0.177301
-0.00091449
0.177309
-0.000918306
0.177318
-0.000922113
0.177327
-0.000925927
0.177336
-0.000929739
0.177345
-0.000933544
0.177355
-0.000937338
0.177365
-0.00094112
0.177375
-0.00094489
0.177385
-0.000948647
0.177396
-0.000952392
0.177407
-0.000956124
0.177418
-0.000959843
0.17743
-0.00096355
0.177441
-0.000967244
0.177453
-0.000970925
0.177465
-0.000974593
0.177478
-0.000978249
0.177491
-0.000981892
0.177504
-0.000985521
0.177517
-0.000989138
0.17753
-0.000992741
0.177544
-0.000996332
0.177558
-0.000999909
0.177572
-0.00100345
0.177587
-0.00100697
0.177601
-0.00101048
0.177616
-0.00101397
0.177631
-0.00101744
0.177646
-0.00102091
0.177662
-0.00102436
0.177677
-0.00102779
0.177693
-0.00103121
0.177709
-0.00103462
0.177725
-0.00103801
0.177742
-0.00104139
0.177758
-0.00104476
-0.0010481
0.164584
-0.000779645
0.164587
-0.000783959
0.164591
-0.000788271
0.164595
-0.000792581
0.164599
-0.000796888
0.164604
-0.000801193
0.164608
-0.000805494
0.164614
-0.000809792
0.164619
-0.000814086
0.164625
-0.000818377
0.164631
-0.000822663
0.164638
-0.000826944
0.164644
-0.000831221
0.164651
-0.000835493
0.164659
-0.000839777
0.164667
-0.000844068
0.164675
-0.000848354
0.164683
-0.000852634
0.164692
-0.000856905
0.1647
-0.000861167
0.16471
-0.000865421
0.164719
-0.000869667
0.164729
-0.000873904
0.164739
-0.000878132
0.16475
-0.000882351
0.16476
-0.00088656
0.164771
-0.000890772
0.164783
-0.000894996
0.164794
-0.000899216
0.164806
-0.000903426
0.164819
-0.000907626
0.164831
-0.000911808
0.164844
-0.000915974
0.164858
-0.000920125
0.164871
-0.000924262
0.164885
-0.000928386
0.164899
-0.000932495
0.164914
-0.000936591
0.164929
-0.000940672
0.164944
-0.00094474
0.164959
-0.000948793
0.164974
-0.000952832
0.16499
-0.000956857
0.165006
-0.000960869
0.165022
-0.000964868
0.165039
-0.000968853
0.165056
-0.000972823
0.165072
-0.00097678
0.16509
-0.000980723
0.165107
-0.000984651
0.165125
-0.000988564
0.165143
-0.000992463
0.165161
-0.000996347
0.165179
-0.00100022
0.165198
-0.00100407
0.165216
-0.00100791
0.165235
-0.00101173
0.165254
-0.00101554
0.165274
-0.00101933
0.165294
-0.00102308
0.165313
-0.00102679
0.165333
-0.00103048
0.165354
-0.00103415
0.165374
-0.00103781
0.165394
-0.00104145
0.165415
-0.00104508
0.165436
-0.0010487
0.165457
-0.0010523
0.165478
-0.00105588
0.1655
-0.00105946
0.165521
-0.00106301
0.165543
-0.00106656
-0.00107008
0.153174
-0.000779961
0.153175
-0.000784641
0.153176
-0.000789319
0.153178
-0.000793995
0.153179
-0.000798668
0.153181
-0.000803339
0.153184
-0.000808006
0.153187
-0.00081267
0.15319
-0.00081733
0.153194
-0.000821986
0.153198
-0.000826637
0.153202
-0.000831283
0.153207
-0.000835924
0.153212
-0.000840559
0.153217
-0.000845188
0.153223
-0.00084981
0.153229
-0.000854426
0.153235
-0.000859068
0.153242
-0.000863715
0.153249
-0.000868354
0.153257
-0.000872983
0.153265
-0.000877599
0.153273
-0.000882205
0.153282