/*--------------------------------*- C++ -*----------------------------------*\
  =========                 |
  \\      /  F ield         | OpenFOAM: The Open Source CFD Toolbox
   \\    /   O peration     | Website:  https://openfoam.org
    \\  /    A nd           | Version:  9
     \\/     M anipulation  |
\*---------------------------------------------------------------------------*/
FoamFile
{
    format      ascii;
    class       volVectorField;
    location    "0.005";
    object      U;
}
// * * * * * * * * * * * * * * * * * * * * * * * * * * * * * * * * * * * * * //

dimensions      [0 1 -1 0 0 0 0];

internalField   nonuniform List<vector> 
5373
(
(2.5847 0.067121 0)
(1.90778 -0.0210088 0)
(4.31612 0.0911448 3.69856e-16)
(3.94283 0.159062 -3.44225e-16)
(4.85628 0.167429 -2.62456e-16)
(5.35651 0.144176 -1.1539e-16)
(1.49956 -0.0958164 8.75077e-16)
(1.6071 -0.199072 -4.79916e-16)
(1.88848 -0.138762 -7.71339e-16)
(2.15624 0.0409327 2.94226e-16)
(2.38742 0.329463 2.3271e-16)
(2.58948 0.665594 0)
(2.75892 1.02108 -8.48411e-17)
(2.91511 1.40285 -2.3184e-16)
(3.10004 1.8455 1.43886e-16)
(3.31495 2.33014 1.36962e-16)
(3.54608 2.83807 1.00106e-21)
(3.78815 3.36374 1.32246e-16)
(4.04033 3.90888 1.32691e-16)
(4.29982 4.47425 -3.34714e-17)
(4.56206 5.05809 -3.43731e-17)
(4.82501 5.68336 7.19274e-17)
(5.11739 6.36394 3.82222e-17)
(5.47419 7.0832 0)
(5.99112 7.84616 2.84221e-17)
(6.74563 8.54444 -3.478e-17)
(3.71673 0.252076 2.43189e-16)
(3.71471 0.330546 -5.93632e-17)
(3.8067 0.440229 -2.80477e-16)
(3.93104 0.588284 3.21165e-16)
(4.05336 0.785671 0)
(4.16684 1.02966 3.83944e-22)
(4.27015 1.31589 -9.94851e-17)
(4.36828 1.64962 -1.97798e-16)
(4.48508 2.03379 1.48104e-16)
(4.63355 2.47047 -4.9942e-17)
(4.81052 2.95741 5.11933e-17)
(5.01115 3.48982 1.05978e-16)
(5.23409 4.0717 -2.71528e-17)
(5.48173 4.71331 5.49132e-17)
(5.76185 5.42743 -1.01848e-21)
(6.06664 6.22349 1.44427e-17)
(6.39719 7.1193 -6.04481e-17)
(6.77853 8.14128 1.60402e-17)
(7.33224 9.31609 -1.73893e-17)
(8.04797 10.5489 1.92232e-17)
(4.76357 0.242336 1.58136e-16)
(4.76332 0.309639 0)
(4.80951 0.407219 2.6324e-16)
(4.87837 0.541786 -3.06551e-22)
(4.9503 0.724805 -8.50149e-17)
(5.01935 0.951146 6.80177e-22)
(5.08657 1.21888 0)
(5.15796 1.53403 1.7067e-16)
(5.24611 1.90191 -4.31632e-17)
(5.36419 2.3265 -1.31917e-21)
(5.51789 2.8044 -9.07569e-17)
(5.70645 3.32975 -9.44706e-17)
(5.93019 3.90667 2.40681e-17)
(6.19128 4.54479 -7.27108e-17)
(6.49607 5.25658 -7.3773e-17)
(6.85751 6.05623 0)
(7.28064 6.96666 0)
(7.76126 8.01243 0)
(8.40574 9.19847 3.62772e-18)
(9.2386 10.4908 9.76251e-18)
(5.32075 0.220148 1.74969e-16)
(5.33457 0.292738 -3.87234e-17)
(5.37617 0.386065 -1.54347e-16)
(5.43312 0.50477 1.53602e-16)
(5.49505 0.657517 -3.54031e-22)
(5.5576 0.848318 4.44921e-22)
(5.62129 1.084 7.82588e-17)
(5.69097 1.36865 -7.95763e-17)
(5.77709 1.70453 8.12185e-17)
(5.89034 2.0988 -4.17319e-17)
(6.04044 2.54767 0)
(6.23137 3.04952 4.49247e-17)
(6.46629 3.60944 -6.78611e-17)
(6.74676 4.23779 -2.2515e-17)
(7.07956 4.94392 9.03117e-17)
(7.47656 5.74123 1.14012e-17)
(7.96362 6.64866 -2.32123e-17)
(8.54139 7.68717 -1.19414e-17)
(9.26125 8.88083 -3.13121e-18)
(10.1419 10.2487 -3.80854e-17)
(5.66514 0.186388 1.43353e-16)
(5.68477 0.252501 -1.06704e-16)
(5.72496 0.333746 -1.4316e-16)
(5.77856 0.43625 7.19191e-17)
(5.83895 0.568331 -7.25217e-17)
(5.90246 0.735379 7.35369e-17)
(5.96997 0.943445 -1.49841e-16)
(6.04562 1.19619 -7.66844e-17)
(6.13784 1.50035 1.57761e-16)
(6.25717 1.86158 4.07672e-17)
(6.41367 2.27728 -8.46047e-17)
(6.61422 2.7499 8.82179e-17)
(6.86464 3.28452 2.20345e-17)
(7.16962 3.88998 -1.28338e-21)
(7.53702 4.58038 -6.439e-17)
(7.97949 5.36843 3.20661e-17)
(8.5207 6.27398 -2.14327e-17)
(9.18632 7.31534 3.24745e-17)
(10.0267 8.51663 2.77803e-18)
(10.9597 9.95078 1.87289e-17)
(5.89542 0.147391 2.71098e-16)
(5.91817 0.209827 -1.00815e-16)
(5.95526 0.284866 0)
(6.00356 0.376634 1.37861e-16)
(6.05961 0.491365 -2.09937e-16)
(6.12249 0.636503 -7.13962e-17)
(6.19349 0.816944 2.19639e-16)
(6.27643 1.03798 -1.50855e-16)
(6.3773 1.30793 -7.80439e-17)
(6.50581 1.63026 2.02511e-16)
(6.67247 2.00795 -8.43384e-17)
(6.88591 2.44592 0)
(7.15426 2.95016 4.3923e-17)
(7.48539 3.52741 0)
(7.88752 4.19081 -4.18551e-17)
(8.37648 4.96018 -1.02858e-17)
(8.97918 5.85262 -3.04776e-17)
(9.72269 6.89192 0)
(10.6931 8.07983 0)
(11.7435 9.53095 0)
(6.07422 0.165699 -2.91086e-16)
(6.10884 0.232196 1.32171e-16)
(6.15218 0.31301 -6.73487e-17)
(6.20463 0.414596 6.88171e-17)
(6.26607 0.541189 0)
(6.33821 0.698208 0)
(6.4249 0.891597 0)
(6.53201 1.12829 -7.81791e-17)
(6.66792 1.41386 4.65435e-22)
(6.8434 1.75434 1.27555e-16)
(7.06973 2.15198 -4.456e-17)
(7.35612 2.61331 -2.22426e-17)
(7.71269 3.15017 -4.29811e-17)
(8.15082 3.77814 2.08198e-17)
(8.68448 4.51697 -3.03273e-17)
(9.34535 5.38976 3.27137e-22)
(10.164 6.41745 -9.62333e-18)
(11.251 7.59634 2.37332e-18)
(12.459 9.04179 1.52886e-17)
(6.20805 0.183024 -3.19422e-22)
(6.24883 0.253427 6.66935e-17)
(6.29807 0.342376 -1.37009e-16)
(6.35723 0.453182 7.06275e-17)
(6.42871 0.590228 -7.3102e-17)
(6.51661 0.758839 -7.59599e-17)
(6.6269 0.965081 3.67752e-22)
(6.76765 1.21459 4.141e-17)
(6.94833 1.5123 -8.68259e-17)
(7.18148 1.86326 4.56517e-17)
(7.48096 2.27831 -2.28722e-17)
(7.85961 2.7717 -1.27683e-21)
(8.33148 3.35786 2.10698e-17)
(8.91263 4.05612 1.01112e-17)
(9.63357 4.8972 -1.94338e-17)
(10.5255 5.904 2.80742e-17)
(11.7114 7.07564 -1.81442e-17)
(13.0979 8.49331 -1.86873e-17)
(6.30871 0.198721 -6.68041e-17)
(6.35605 0.274959 0)
(6.41275 0.370439 0)
(6.48211 0.488387 0)
(6.56862 0.633393 4.31273e-22)
(6.67836 0.81078 8.11884e-17)
(6.81958 1.0262 8.51853e-17)
(7.00273 1.28605 -8.95491e-17)
(7.24017 1.59941 9.43055e-17)
(7.54733 1.97467 2.37298e-17)
(7.94099 2.4234 -2.26777e-17)
(8.43916 2.96167 0)
(9.06183 3.61007 3.07869e-17)
(9.84175 4.39966 1.45482e-21)
(10.8136 5.36426 9.25143e-18)
(12.0844 6.52048 1.76497e-17)
(13.6562 7.9081 -1.04748e-18)
(6.34091 0.15259 -6.76623e-17)
(6.38696 0.215414 0)
(6.441 0.295866 7.30848e-17)
(6.50706 0.396317 -1.52448e-16)
(6.5903 0.520713 -3.57038e-22)
(6.69709 0.673946 -1.67174e-16)
(6.83576 0.861596 4.37187e-22)
(7.01722 1.08989 -1.34383e-22)
(7.25473 1.36582 -9.74953e-17)
(7.56501 1.69845 2.46875e-17)
(7.96805 2.10014 -2.35435e-17)
(8.48576 2.58792 0)
(9.14287 3.18286 1.05285e-17)
(9.97455 3.91539 -1.97945e-17)
(11.029 4.82199 9.28074e-18)
(12.3872 5.93425 0)
(14.1339 7.30289 0)
(6.39523 0.167166 0)
(6.44548 0.234241 7.49587e-17)
(6.50622 0.319301 1.56572e-16)
(6.58339 0.425444 8.19404e-17)
(6.68407 0.556614 8.59487e-17)
(6.81699 0.717762 -1.08631e-21)
(6.99351 0.915072 -1.10626e-21)
(7.22768 1.15548 5.02447e-17)
(7.53725 1.44811 -2.56147e-17)
(7.94486 1.80446 -1.29225e-21)
(8.47628 2.24098 -4.63066e-17)
(9.16156 2.77916 3.26465e-17)
(10.0386 3.44857 1.01592e-17)
(11.1684 4.28889 -1.88639e-17)
(12.6204 5.32792 2.18548e-18)
(14.5364 6.67044 -1.90543e-17)
(6.37793 0.12929 7.36787e-17)
(6.42228 0.183684 -7.67889e-17)
(6.47562 0.25414 -8.0178e-17)
(6.54419 0.343531 -8.39021e-17)
(6.63586 0.454958 4.39937e-17)
(6.76018 0.59233 9.24772e-17)
(6.92911 0.761297 -4.53437e-22)
(7.15743 0.968418 -5.14518e-17)
(7.46347 1.22235 5.27819e-17)
(7.87197 1.53433 -5.06332e-17)
(8.41238 1.92014 0)
(9.12008 2.40055 -1.12967e-17)
(10.0367 3.0032 -2.10257e-17)
(11.2345 3.7699 4.8476e-17)
(12.7802 4.72602 2.22249e-18)
(14.8641 6.00017 -1.00656e-18)
(6.36418 0.141574 0)
(6.40839 0.198914 8.18273e-17)
(6.46654 0.272667 -1.71178e-16)
(6.54688 0.366127 1.34648e-16)
(6.65993 0.48208 0)
(6.8188 0.62532 0)
(7.03936 0.801916 0)
(7.34004 1.01959 8.11037e-17)
(7.74722 1.28889 -1.72752e-21)
(8.2933 1.6247 -2.49487e-17)
(9.01859 2.04726 1.17746e-17)
(9.96909 2.58143 -3.29004e-17)
(11.2296 3.26904 -2.01501e-17)
(12.8605 4.13151 -1.83335e-17)
(15.1165 5.29768 1.53702e-17)
(6.30527 0.155461 0)
(6.35054 0.215645 0)
(6.41728 0.292325 0)
(6.5162 0.388175 -4.84293e-17)
(6.66111 0.507186 5.10563e-17)
(6.86918 0.654381 0)
(7.16164 0.837362 -2.77927e-17)
(7.56643 1.06648 -2.70147e-17)
(8.11616 1.35494 0)
(8.85566 1.72073 0)
(9.83494 2.18524 2.31284e-17)
(11.1531 2.78968 2.12088e-17)
(12.8618 3.54978 1.91729e-17)
(15.2854 4.5961 -1.06045e-18)
(6.15283 0.119994 0)
(6.18285 0.168976 -4.53376e-17)
(6.2347 0.231115 2.38502e-16)
(6.31935 0.309667 5.02776e-17)
(6.45086 0.407696 -1.06145e-16)
(6.64688 0.5291 5.60714e-17)
(6.92885 0.679399 -5.78383e-17)
(7.32618 0.867806 2.83649e-17)
(7.87712 1.11098 -2.75973e-17)
(8.6289 1.42266 -1.32332e-17)
(9.63338 1.81726 1.23981e-17)
(11.0043 2.33518 -2.26868e-17)
(12.7851 2.98513 0)
(15.3708 3.8943 7.83011e-18)
(5.92831 0.0915952 0)
(5.94169 0.130616 -1.43339e-16)
(5.97837 0.180395 1.00807e-16)
(6.04942 0.243549 5.32468e-17)
(6.16878 0.32272 5.63305e-17)
(6.3543 0.421624 2.98255e-17)
(6.62781 0.543849 -6.78968e-22)
(7.0202 0.698059 0)
(7.57001 0.895265 3.00548e-17)
(8.33053 1.15356 0)
(9.35757 1.48101 0)
(10.7781 1.91217 -6.18401e-18)
(12.6242 2.45079 5.5347e-18)
(15.3721 3.20604 -9.64297e-18)
(5.59177 0.101666 -1.56298e-16)
(5.61399 0.140549 -5.51796e-17)
(5.67265 0.189947 -5.84746e-17)
(5.78135 0.252177 -6.19666e-17)
(5.9579 0.330392 -3.28308e-17)
(6.22519 0.427031 -3.36632e-17)
(6.61457 0.550633 -6.71848e-17)
(7.16713 0.705421 -3.3237e-17)
(7.93931 0.905898 3.21172e-17)
(8.98759 1.16417 -3.02065e-17)
(10.458 1.50398 0)
(12.3708 1.91317 0)
(15.2731 2.48814 9.34282e-18)
(5.06093 0.0802123 -6.00779e-17)
(5.07048 0.109656 1.27503e-16)
(5.11901 0.147591 0)
(5.21907 0.195676 -7.13335e-17)
(5.38938 0.257023 7.50705e-17)
(5.65457 0.333019 3.80707e-17)
(6.04632 0.431164 3.79526e-17)
(6.60617 0.555728 3.74101e-17)
(7.39536 0.711777 -3.62398e-17)
(8.47075 0.915521 3.44254e-17)
(9.99105 1.19337 -7.90716e-18)
(11.9722 1.51686 7.03218e-18)
(15.0105 1.90468 -1.97598e-17)
(4.2004 0.0716135 2.04575e-17)
(4.24311 0.0963935 -1.72944e-16)
(4.33916 0.127615 9.05596e-17)
(4.50923 0.165862 -9.38233e-17)
(4.77571 0.213113 -1.18028e-17)
(5.17187 0.272327 0)
(5.74073 0.344137 0)
(6.55151 0.42858 0)
(7.66998 0.526385 0)
(9.26888 0.649249 -9.63687e-18)
(11.3514 0.797126 4.20505e-18)
(14.5931 0.93988 9.01525e-18)
(2.35258 0.199833 -5.49341e-16)
(2.38987 0.237433 2.68121e-16)
(2.47436 0.287462 1.37253e-16)
(2.61346 0.352628 -2.76446e-16)
(2.82743 0.435516 2.22295e-16)
(3.15024 0.539652 -1.33122e-16)
(3.62391 0.666814 1.27314e-16)
(4.3208 0.822007 -5.97746e-17)
(5.29229 0.993162 -2.76021e-17)
(6.81133 1.16481 3.75439e-17)
(8.54761 1.29096 -1.08267e-17)
(12.3671 1.22897 2.31839e-18)
(7.99984 9.20018 5.65509e-17)
(9.70142 10.0553 -2.23129e-17)
(11.4439 10.9109 -3.07816e-18)
(13.3391 11.658 1.50025e-18)
(15.45 12.3054 -1.47267e-18)
(17.8294 12.8797 0)
(20.5761 13.3969 0)
(23.7764 13.8634 0)
(27.5338 14.2632 2.20713e-17)
(31.9694 14.5835 4.32538e-17)
(37.2333 14.7967 -2.05783e-20)
(43.5079 14.8627 1.67687e-20)
(50.9627 14.7222 3.86727e-20)
(59.8714 14.3175 -3.76917e-20)
(70.209 13.4992 -9.10904e-18)
(82.5586 12.1797 -3.42203e-20)
(94.9091 10.2175 0)
(110.446 7.71427 6.98922e-21)
(115.973 4.53956 -6.9364e-21)
(126.365 0.544235 -6.60252e-19)
(9.28718 11.7482 -2.22696e-17)
(11.0197 12.9279 2.18933e-17)
(12.9908 14.125 0)
(15.2394 15.2396 -2.23069e-17)
(17.8516 16.2737 1.28904e-18)
(20.8897 17.2718 0)
(24.4448 18.2623 1.98741e-17)
(28.6349 19.2503 -1.95122e-17)
(33.6254 20.2508 -1.91391e-17)
(39.6218 21.2489 -1.87229e-17)
(46.8838 22.2086 -1.77863e-20)
(55.7516 23.077 -1.7749e-17)
(66.6107 23.7686 1.71902e-17)
(80.0073 24.1496 0)
(96.2655 24.0562 3.0151e-20)
(116.463 23.2816 -2.91751e-20)
(139.174 21.4987 6.75063e-18)
(167.526 18.443 1.25284e-20)
(189.749 14.1442 1.34197e-18)
(221.31 3.00052 2.09219e-21)
(10.6446 11.5429 -1.67817e-17)
(12.4811 12.468 1.91202e-17)
(14.5688 13.4043 0)
(16.8903 14.3016 3.86066e-17)
(19.5631 15.1603 1.74204e-17)
(22.6625 16.0176 -1.87001e-17)
(26.2858 16.885 -1.79444e-17)
(30.5636 17.7566 1.80216e-17)
(35.6663 18.6242 3.55342e-17)
(41.8129 19.4855 -1.74715e-17)
(49.2818 20.3234 0)
(58.4399 21.1022 0)
(69.717 21.754 -3.26411e-17)
(83.7202 22.2039 7.85488e-18)
(100.925 22.2278 2.88476e-20)
(122.404 21.5467 -2.79126e-20)
(147.371 19.9478 -6.43859e-18)
(178.289 16.9906 5.52839e-21)
(206.676 13.9765 -1.24915e-18)
(240.85 1.4631 0)
(11.5205 11.3334 1.92594e-17)
(13.2507 12.2541 -1.72837e-17)
(15.2401 13.1808 0)
(17.4543 14.0707 -1.62706e-17)
(20.0336 14.9223 -1.84999e-17)
(23.0692 15.7655 1.71189e-17)
(26.6497 16.6131 1.73139e-17)
(30.9021 17.46 1.74568e-17)
(35.9907 18.3086 -1.70143e-17)
(42.1344 19.1522 3.35818e-17)
(49.6147 19.9668 -1.60788e-20)
(58.8017 20.7065 1.5836e-20)
(70.1372 21.3066 1.57518e-17)
(84.2351 21.6346 -7.60841e-18)
(101.572 21.5499 2.81373e-20)
(123.222 20.8111 -2.73151e-20)
(148.449 19.3274 3.20864e-18)
(179.669 16.2993 -6.31163e-21)
(209.083 13.4521 -7.3267e-21)
(243.658 0.662902 1.83154e-21)
(12.3625 10.9935 1.94967e-18)
(14.0782 11.8158 1.97275e-18)
(16.0737 12.6263 1.48727e-17)
(18.2951 13.3984 1.49934e-17)
(20.8775 14.1429 1.61102e-17)
(23.9174 14.8871 0)
(27.4958 15.6433 -8.63109e-22)
(31.7371 16.4069 -1.60821e-17)
(36.8081 17.1759 0)
(42.9288 17.9406 -1.57844e-17)
(50.3797 18.6783 -1.51504e-20)
(59.5289 19.3498 1.49626e-20)
(70.8157 19.8894 -7.46481e-18)
(84.851 20.2017 0)
(102.109 20.1315 -6.96292e-18)
(123.675 19.428 -2.6258e-20)
(148.791 17.9834 -3.15403e-18)
(179.981 15.0097 5.37509e-21)
(209.092 12.5262 -4.97007e-21)
(243.838 -0.364746 -4.39266e-19)
(13.1944 10.5491 -1.45355e-17)
(14.8765 11.3172 0)
(16.8353 12.0701 -1.39143e-17)
(19.0149 12.7908 -1.59223e-17)
(21.5513 13.4975 -1.55935e-17)
(24.5515 14.2074 2.37781e-19)
(28.0977 14.9256 -1.4972e-17)
(32.3122 15.6475 0)
(37.3628 16.3706 1.50587e-17)
(43.4665 17.0879 0)
(50.9004 17.7777 1.42867e-20)
(60.0311 18.4001 -1.41099e-20)
(71.2917 18.8977 7.04621e-18)
(85.2937 19.1586 0)
(102.5 19.0529 6.66205e-18)
(124.002 18.3152 6.29732e-18)
(148.997 16.8912 0)
(180.16 13.919 2.77211e-18)
(208.841 11.7093 -2.27094e-21)
(243.925 -1.36413 4.26801e-19)
(13.969 10.0468 2.94122e-17)
(15.6179 10.7643 0)
(17.5508 11.4493 -1.41538e-17)
(19.7102 12.0995 1.51778e-17)
(22.2282 12.7424 -9.00439e-19)
(25.2141 13.389 -2.25813e-19)
(28.7486 14.0422 2.26095e-19)
(32.9503 14.7003 0)
(37.9865 15.3616 -1.42976e-17)
(44.0731 16.0198 0)
(51.4862 16.6532 6.94782e-18)
(60.5904 17.2236 -6.78344e-18)
(71.8169 17.6748 -2.61134e-20)
(85.7741 17.901 0)
(102.917 17.7865 6.30879e-18)
(124.345 17.0605 -6.02603e-18)
(149.198 15.7299 -1.16922e-20)
(180.362 12.7951 -2.6621e-18)
(208.522 10.8589 -1.18695e-18)
(244.382 -1.99067 0)
(14.6855 9.47986 -1.17355e-17)
(16.3058 10.1436 -1.18804e-17)
(18.2107 10.7615 1.28648e-17)
(20.35 11.3516 -1.47077e-17)
(22.8483 11.9448 1.39363e-17)
(25.8157 12.5446 0)
(29.3346 13.1497 1.39472e-17)
(33.5219 13.7595 -1.38697e-17)
(38.545 14.3707 6.86948e-18)
(44.6188 14.9763 0)
(52.0177 15.5562 1.23854e-20)
(61.104 16.0758 6.49408e-18)
(72.3054 16.4821 -6.37081e-18)
(86.2269 16.6758 -6.14104e-18)
(103.314 16.5489 2.1939e-20)
(124.683 15.8369 -3.37436e-20)
(149.381 14.5924 1.12214e-20)
(180.631 11.7071 4.81421e-21)
(207.985 9.99466 1.15643e-18)
(245.812 -2.70024 0)
(15.3405 8.86537 1.64777e-18)
(16.9324 9.47095 1.50008e-17)
(18.8076 10.0263 -1.43263e-17)
(20.9299 10.5604 -5.34491e-22)
(23.4138 11.1027 -8.55063e-19)
(26.3678 11.6516 0)
(29.8765 12.2037 -1.36333e-17)
(34.0554 12.7598 2.02928e-17)
(39.0707 13.3167 -6.6869e-18)
(45.1364 13.8668 0)
(52.5255 14.3906 -1.29209e-17)
(61.5982 14.8575 -6.28614e-18)
(72.7792 15.2176 6.1322e-18)
(86.6703 15.3774 1.19001e-17)
(103.707 15.2377 -5.75612e-18)
(125.025 14.5496 -2.19876e-20)
(149.548 13.3874 -1.0333e-20)
(181.005 10.6385 1.00547e-20)
(207 9.07608 -1.14951e-18)
(249.25 -3.30973 1.96405e-19)
(15.921 8.21014 0)
(17.4919 8.75136 1.32418e-17)
(19.3405 9.24857 1.33936e-17)
(21.4492 9.72988 0)
(23.9228 10.2216 -1.3562e-17)
(26.8662 10.7202 0)
(30.3666 11.2214 0)
(34.5396 11.7258 -6.68226e-18)
(39.5497 12.2305 0)
(45.6101 12.7271 6.48303e-18)
(52.9932 13.195 6.33527e-18)
(62.0572 13.6069 1.26952e-20)
(73.2239 13.9175 0)
(87.091 14.0408 -5.83765e-18)
(104.085 13.8856 2.18157e-20)
(125.359 13.2255 2.69187e-18)
(149.71 12.1386 1.06519e-20)
(181.422 9.59638 1.23773e-18)
(205.678 8.07565 -6.90512e-21)
(254.303 -3.89342 -3.81274e-19)
(16.4237 7.513 1.64527e-18)
(17.9821 7.99105 -1.16232e-17)
(19.8092 8.43541 -8.40418e-19)
(21.906 8.86745 -7.61567e-18)
(24.3713 9.30999 0)
(27.3062 9.75955 0)
(30.8005 10.2104 0)
(34.9706 10.6624 0)
(39.9798 11.1122 -6.59092e-18)
(46.0391 11.552 -6.47527e-18)
(53.42 11.9627 -6.33686e-18)
(62.4796 12.3182 1.236e-17)
(73.6368 12.5764 0)
(87.4853 12.6608 0)
(104.444 12.4875 2.18004e-20)
(125.675 11.8575 -2.74539e-18)
(149.898 10.8455 0)
(181.689 8.5342 -1.22944e-18)
(205.089 7.00692 1.75868e-18)
(255.522 -4.50081 1.90533e-19)
(16.8412 6.77573 -1.66705e-18)
(18.3928 7.19913 6.72428e-18)
(20.2057 7.5935 8.50147e-19)
(22.2952 7.9755 1.37085e-17)
(24.7565 8.36643 -8.17163e-18)
(27.6865 8.76511 4.29989e-19)
(31.1772 9.16519 0)
(35.3455 9.56768 0)
(40.3545 9.96755 6.67826e-18)
(46.4162 10.3506 0)
(53.7994 10.7013 6.41653e-18)
(62.8588 11.0003 -6.26448e-18)
(74.0117 11.2047 0)
(87.8471 11.2484 2.96866e-18)
(104.779 11.0564 2.90309e-18)
(125.967 10.4573 -3.25497e-20)
(150.097 9.52504 5.19823e-22)
(181.855 7.44363 1.0056e-20)
(204.913 5.92232 3.03892e-23)
(255.349 -5.01856 0)
(17.1813 6.00543 1.7006e-18)
(18.7273 6.3778 -6.86091e-18)
(20.5262 6.72829 6.9435e-18)
(22.6074 7.06867 -6.12445e-18)
(25.0661 7.41353 6.14951e-18)
(27.9952 7.76301 0)
(31.4878 8.1099 0)
(35.662 8.45015 6.93259e-18)
(40.6744 8.79505 -6.84755e-18)
(46.7383 9.12669 0)
(54.1272 9.41554 -1.28751e-20)
(63.1909 9.65688 1.26699e-20)
(74.344 9.80827 0)
(88.1719 9.81203 -3.06649e-18)
(105.084 9.60303 -2.95172e-18)
(126.235 9.03761 -2.26327e-20)
(150.287 8.19124 0)
(181.995 6.3382 4.79202e-21)
(204.769 4.84695 -7.39822e-21)
(255.286 -5.44165 -9.57366e-20)
(17.4327 5.23134 8.72611e-18)
(18.9774 5.55719 0)
(20.7706 5.86785 -6.24024e-18)
(22.8461 6.16954 -8.99387e-19)
(25.3019 6.47055 7.22816e-18)
(28.2295 6.77231 0)
(31.7224 7.06662 0)
(35.9046 7.34443 3.46748e-23)
(40.9319 7.61474 2.49294e-23)
(47.0033 7.89236 -3.49422e-18)
(54.3995 8.12688 -3.42095e-18)
(63.4722 8.30967 3.35169e-18)
(74.6307 8.41029 -2.55051e-20)
(88.4572 8.37528 2.51301e-20)
(105.357 8.15141 2.38398e-20)
(126.479 7.62165 1.44756e-18)
(150.465 6.86572 1.13789e-20)
(182.124 5.23863 4.91891e-21)
(204.621 3.79667 -6.33242e-19)
(255.278 -5.5352 1.01146e-19)
(17.5972 4.46236 -5.40457e-18)
(19.141 4.75207 -1.81847e-18)
(20.9308 5.02309 9.21606e-19)
(23.0051 5.27861 1.85865e-18)
(25.4634 5.5262 -8.40941e-18)
(28.3957 5.77065 -2.33855e-19)
(31.8939 6.0067 2.33661e-19)
(36.0818 6.22834 -7.42962e-18)
(41.124 6.43136 7.36676e-18)
(47.215 6.62587 3.64103e-18)
(54.6221 6.81022 3.58412e-18)
(63.7071 6.93433 -1.69911e-22)
(74.8758 6.98569 0)
(88.7062 6.91851 -3.33836e-18)
(105.6 6.68737 2.48366e-20)
(126.703 6.20219 -1.56276e-18)
(150.633 5.54639 1.1149e-20)
(182.245 4.14692 -5.77503e-21)
(204.497 2.76377 -5.10563e-21)
(255.302 -5.43441 0)
(17.6833 3.67983 0)
(19.229 3.92443 3.77881e-18)
(21.0145 4.16352 3.82639e-18)
(23.084 4.39386 0)
(25.5401 4.6203 0)
(28.4758 4.83438 3.88909e-18)
(31.9815 5.02794 0)
(36.1821 5.19182 0)
(41.2388 5.33304 0)
(47.3552 5.43075 0)
(54.7838 5.56288 1.45419e-20)
(63.8863 5.64115 -7.37042e-18)
(75.0735 5.64131 2.80653e-20)
(88.9174 5.5396 5.2028e-18)
(105.818 5.29335 2.57093e-20)
(126.915 4.83999 1.5597e-18)
(150.815 4.27462 0)
(182.379 3.08591 6.85274e-19)
(204.476 1.76023 0)
(255.302 -4.99184 0)
(17.6796 2.80742 1.95522e-18)
(19.2514 2.96466 -1.97092e-18)
(21.0576 3.12233 -5.97888e-18)
(23.1411 3.2792 1.00284e-18)
(25.6041 3.44509 -1.00679e-18)
(28.5402 3.61383 -4.03013e-18)
(32.0444 3.78118 0)
(36.2467 3.93007 0)
(41.312 4.03739 0)
(47.4506 4.09747 0)
(54.911 4.14762 1.91321e-18)
(64.0352 4.18852 1.90378e-18)
(75.2458 4.15301 0)
(89.1145 4.04293 -2.23989e-22)
(106.036 3.82213 0)
(127.154 3.43477 -1.61591e-18)
(151.038 2.98903 0)
(182.512 2.00484 -6.88172e-19)
(204.448 0.755888 -7.41211e-21)
(255.039 -4.16461 1.8933e-21)
(17.4801 2.18417 -2.04994e-18)
(19.0652 2.36488 -4.12147e-18)
(20.8889 2.52948 3.10538e-18)
(22.9939 2.66223 -3.11292e-18)
(25.4836 2.78254 -2.07571e-18)
(28.4489 2.90258 -2.07323e-18)
(31.9789 3.01682 -2.58288e-19)
(36.1973 3.13039 2.30757e-18)
(41.2779 3.1946 2.02968e-18)
(47.4372 3.1833 2.00203e-18)
(54.9342 3.12051 -1.98151e-18)
(64.0978 3.09049 1.93729e-18)
(75.3396 2.98685 -9.34667e-19)
(89.226 2.78735 -2.70863e-18)
(106.112 2.50229 0)
(127.146 2.10556 -1.2502e-20)
(150.631 1.71851 3.96095e-19)
(181.682 0.97359 5.26491e-21)
(202.296 -0.177786 -1.60326e-19)
(252.338 -2.93462 6.62683e-20)
(17.2008 0.937381 4.29819e-18)
(18.8051 0.988419 0)
(20.6176 1.04238 2.14775e-18)
(22.707 1.08518 2.14468e-18)
(25.1863 1.13125 -4.21487e-22)
(28.138 1.17966 2.13238e-18)
(31.6527 1.22426 -1.06008e-18)
(35.8394 1.28358 -1.0486e-18)
(40.8496 1.33525 -2.07207e-18)
(46.902 1.36999 -2.04181e-18)
(54.2439 1.35243 0)
(63.1526 1.29901 -3.05652e-20)
(73.97 1.27652 9.88725e-19)
(87.1933 1.18862 4.65284e-19)
(103.028 1.03253 0)
(122.528 0.80858 0)
(143.042 0.577869 -4.02767e-19)
(173.473 0.202619 1.87213e-19)
(185.7 -0.674696 8.37508e-20)
(228.809 -1.20568 -8.16319e-20)
(14.119 1.11294 -4.19319e-22)
(15.7317 1.09597 2.50692e-18)
(17.4496 1.09175 -2.4818e-18)
(19.3586 1.0927 1.22773e-18)
(21.5797 1.1002 1.21569e-18)
(24.1647 1.10476 0)
(27.1634 1.0971 1.19303e-18)
(30.6382 1.0676 -1.18058e-18)
(34.6898 1.0081 -3.64725e-20)
(39.4297 0.917364 3.62135e-20)
(44.9873 0.69048 -1.78232e-20)
(51.4967 0.258498 1.77099e-20)
(59.0453 -0.202485 0)
(67.7676 -0.754836 5.45851e-19)
(77.5486 -1.38033 0)
(88.6716 -1.98935 -1.57309e-20)
(99.1727 -2.49226 1.56741e-20)
(112.835 -2.58532 -2.3311e-19)
(111.494 -2.33869 1.08628e-19)
(132.974 -0.758346 0)
(30.6192 -1.28432 0)
(30.6165 -1.28388 0)
(30.6139 -1.28347 0)
(30.6113 -1.28308 0)
(30.6087 -1.28271 0)
(30.6061 -1.28235 0)
(30.6035 -1.28202 0)
(30.601 -1.28169 0)
(30.5981 -1.28139 0)
(29.549 -0.835029 0)
(29.5483 -0.838612 0)
(29.5476 -0.842181 0)
(29.5469 -0.84573 0)
(29.5462 -0.849257 0)
(29.5456 -0.852761 0)
(29.5449 -0.856233 0)
(29.5443 -0.859631 0)
(29.5436 -0.862754 0)
(29.6126 -1.12407 0)
(29.6134 -1.12597 0)
(29.6143 -1.12787 0)
(29.6152 -1.12978 0)
(29.6161 -1.13167 0)
(29.6169 -1.13356 0)
(29.6178 -1.13543 0)
(29.6186 -1.13725 0)
(29.6196 -1.13889 0)
(29.4674 -0.985965 0)
(29.4677 -0.988459 0)
(29.468 -0.99096 0)
(29.4683 -0.993458 0)
(29.4686 -0.99595 0)
(29.4689 -0.998437 0)
(29.4692 -1.00091 0)
(29.4695 -1.00336 0)
(29.4698 -1.00565 0)
(29.3131 -1.13274 0)
(29.3144 -1.13555 0)
(29.3157 -1.13836 0)
(29.3171 -1.14117 0)
(29.3184 -1.14396 0)
(29.3197 -1.14674 0)
(29.3211 -1.1495 0)
(29.3224 -1.15219 0)
(29.3237 -1.15461 0)
(29.1981 -1.13026 0)
(29.1995 -1.13324 0)
(29.2009 -1.13623 0)
(29.2023 -1.13921 0)
(29.2037 -1.14218 0)
(29.2052 -1.14513 0)
(29.2066 -1.14806 0)
(29.2081 -1.15091 0)
(29.2095 -1.15349 0)
(29.0496 -1.24388 0)
(29.052 -1.24754 0)
(29.0544 -1.25121 0)
(29.0568 -1.25486 0)
(29.0592 -1.25848 0)
(29.0616 -1.26209 0)
(29.064 -1.26567 0)
(29.0665 -1.26923 0)
(29.0688 -1.27274 0)
(28.9306 -1.31387 0)
(28.9338 -1.31786 0)
(28.9369 -1.32185 0)
(28.94 -1.3258 0)
(28.9432 -1.32972 0)
(28.9464 -1.33361 0)
(28.9496 -1.33746 0)
(28.9528 -1.34128 0)
(28.9559 -1.34505 0)
(28.8025 -1.44922 0)
(28.8072 -1.45365 0)
(28.8119 -1.45806 0)
(28.8166 -1.46242 0)
(28.8213 -1.46672 0)
(28.826 -1.47096 0)
(28.8307 -1.47515 0)
(28.8353 -1.47927 0)
(28.6873 -1.58562 0)
(28.6937 -1.59023 0)
(28.7002 -1.59478 0)
(28.7066 -1.59926 0)
(28.7131 -1.60364 0)
(28.7195 -1.60794 0)
(28.726 -1.61216 0)
(28.7323 -1.61628 0)
(28.5791 -1.76732 0)
(28.5883 -1.77172 0)
(28.5973 -1.77602 0)
(28.6064 -1.78019 0)
(28.6154 -1.78423 0)
(28.6244 -1.78814 0)
(28.6333 -1.79192 0)
(28.6421 -1.79557 0)
(28.4984 -1.97904 0)
(28.5109 -1.98243 0)
(28.5233 -1.98566 0)
(28.5356 -1.98869 0)
(28.5478 -1.99152 0)
(28.56 -1.99416 0)
(28.572 -1.99661 0)
(28.5838 -1.99887 0)
(28.4507 -2.23585 0)
(28.4678 -2.23694 0)
(28.4847 -2.23779 0)
(28.5013 -2.23838 0)
(28.5177 -2.2387 0)
(28.5339 -2.23875 0)
(28.5498 -2.23853 0)
(28.5657 -2.23811 0)
(28.458 -2.53691 0)
(28.4807 -2.53374 0)
(28.5028 -2.53019 0)
(28.5243 -2.52614 0)
(28.5452 -2.52164 0)
(28.566 -2.51677 0)
(28.5862 -2.51159 0)
(28.6061 -2.50617 0)
(28.5386 -2.87651 0)
(28.5677 -2.86548 0)
(28.5961 -2.85394 0)
(28.6236 -2.8419 0)
(28.6502 -2.82941 0)
(28.6761 -2.81652 0)
(28.701 -2.80329 0)
(28.7254 -2.78984 0)
(28.7228 -3.26321 0)
(28.759 -3.24003 0)
(28.7937 -3.21626 0)
(28.827 -3.19195 0)
(28.8587 -3.16716 0)
(28.889 -3.14195 0)
(28.9178 -3.11641 0)
(28.9457 -3.09072 0)
(29.0268 -3.66489 0)
(29.07 -3.62265 0)
(29.1107 -3.57985 0)
(29.149 -3.53659 0)
(29.1848 -3.49299 0)
(29.2183 -3.44918 0)
(29.2493 -3.40529 0)
(29.279 -3.36156 0)
(29.4842 -4.09134 0)
(29.5331 -4.02242 0)
(29.5781 -3.95331 0)
(29.6195 -3.88425 0)
(29.6572 -3.81546 0)
(29.6914 -3.74717 0)
(29.7218 -3.67954 0)
(29.7509 -3.61298 0)
(30.1704 -4.48352 0)
(30.2292 -4.38013 0)
(30.2816 -4.27718 0)
(30.3279 -4.17496 0)
(30.368 -4.07379 0)
(30.4024 -3.97398 0)
(30.4303 -3.87591 0)
(30.4574 -3.77996 0)
(31.2609 -4.96116 0)
(31.3156 -4.80455 0)
(31.3587 -4.64903 0)
(31.3907 -4.49551 0)
(31.412 -4.34485 0)
(31.4222 -4.19731 0)
(31.4213 -4.05593 0)
(31.4095 -3.92042 0)
(32.1805 -5.24081 0)
(32.1527 -4.99827 0)
(32.1083 -4.7592 0)
(32.0477 -4.52386 0)
(31.9705 -4.29149 0)
(31.8778 -4.05308 0)
(31.7671 -3.8178 0)
(31.6087 -3.59883 0)
(31.0749 -4.81538 0)
(30.8082 -4.47935 0)
(30.523 -4.14891 0)
(30.2223 -3.82345 0)
(29.9086 -3.49674 0)
(29.5833 -3.17441 0)
(29.2603 -2.84946 0)
(28.8474 -2.52309 0)
(24.8889 -2.98673 0)
(24.4099 -2.56728 0)
(23.9345 -2.17221 0)
(23.4651 -1.80116 0)
(23.0046 -1.45271 0)
(22.556 -1.12551 0)
(22.1273 -0.818423 0)
(21.5644 -0.544869 0)
(16.6497 -0.958343 0)
(16.178 -0.630771 0)
(15.7249 -0.326201 0)
(15.2904 -0.0435388 0)
(14.8753 0.218297 0)
(14.4823 0.459896 0)
(14.1063 0.680361 0)
(13.597 0.86579 0)
(9.53358 0.43682 0)
(9.13934 0.7134 0)
(8.7599 0.969086 0)
(8.39508 1.20367 0)
(8.04605 1.41696 0)
(7.71598 1.60851 0)
(7.39234 1.77685 0)
(6.94426 1.91434 0)
(3.87681 1.48733 0)
(3.54514 1.72315 0)
(3.22527 1.9391 0)
(2.91729 2.13468 0)
(2.62301 2.30932 0)
(2.34555 2.46252 0)
(2.06879 2.59423 0)
(1.68074 2.70237 0)
(-0.501382 2.24176 0)
(-0.778854 2.45246 0)
(-1.04757 2.6433 0)
(-1.30713 2.81313 0)
(-1.55487 2.96088 0)
(-1.78659 3.08593 0)
(-2.02153 3.18951 0)
(-2.34313 3.2732 0)
(-3.84229 2.78791 0)
(-4.06669 2.98264 0)
(-4.28522 3.15669 0)
(-4.49713 3.308 0)
(-4.69883 3.43453 0)
(-4.88474 3.53467 0)
(-5.07352 3.60908 0)
(-5.32018 3.66246 0)
(-6.35539 3.15757 0)
(-6.52174 3.3443 0)
(-6.6855 3.50891 0)
(-6.8456 3.64796 0)
(-6.99778 3.75765 0)
(-7.13518 3.83413 0)
(-7.27139 3.87598 0)
(-7.43878 3.89199 0)
(-8.22057 3.37625 0)
(-8.31913 3.56198 0)
(-8.41922 3.72412 0)
(-8.51954 3.8574 0)
(-8.61549 3.95555 0)
(-8.6987 4.01148 0)
(-8.77579 4.01992 0)
(-8.85477 3.98508 0)
(-9.5945 3.4601 0)
(-9.60991 3.65156 0)
(-9.63192 3.81785 0)
(-9.65874 3.95141 0)
(-9.68482 4.04256 0)
(-9.70065 4.07874 0)
(-9.70373 4.04924 0)
(-9.67925 3.95205 0)
(-10.6203 3.41662 0)
(-10.528 3.61944 0)
(-10.4487 3.79554 0)
(-10.3806 3.93433 0)
(-10.3153 4.01887 0)
(-10.2446 4.0438 0)
(-10.164 3.9743 0)
(-10.0373 3.81059 0)
(-11.4503 3.24515 0)
(-11.2143 3.46557 0)
(-11.0005 3.65777 0)
(-10.8075 3.80783 0)
(-10.6283 3.89828 0)
(-10.4579 3.91101 0)
(-10.2801 3.81516 0)
(-10.0608 3.58571 0)
(-12.2843 2.94109 0)
(-11.8583 3.18564 0)
(-11.4659 3.40369 0)
(-11.1104 3.57689 0)
(-10.7857 3.68266 0)
(-10.4869 3.70043 0)
(-10.2105 3.59713 0)
(-9.90526 3.3115 0)
(-13.3852 2.50393 0)
(-12.7211 2.77416 0)
(-12.0945 3.02515 0)
(-11.5199 3.23507 0)
(-10.9962 3.37256 0)
(-10.5236 3.41535 0)
(-10.1261 3.33273 0)
(-9.74046 3.00119 0)
(-15.0533 1.94699 0)
(-14.1187 2.23484 0)
(-13.2097 2.51701 0)
(-12.3535 2.7701 0)
(-11.5573 2.9515 0)
(-10.8308 3.04113 0)
(-10.254 3.01901 0)
(-9.77266 2.65563 0)
(-17.5638 1.30413 0)
(-16.364 1.59146 0)
(-15.1537 1.89039 0)
(-13.9737 2.17867 0)
(-12.8399 2.40492 0)
(-11.7622 2.55317 0)
(-10.9052 2.62922 0)
(-10.2649 2.2495 0)
(-21.0856 0.629954 0)
(-19.6847 0.890116 0)
(-18.2113 1.17945 0)
(-16.7137 1.48109 0)
(-15.2116 1.7362 0)
(-13.7053 1.93232 0)
(-12.4571 2.1221 0)
(-11.5516 1.72297 0)
(-25.628 -0.00938538 0)
(-24.1517 0.196327 0)
(-22.5264 0.44357 0)
(-20.7953 0.723615 0)
(-18.9687 0.974082 0)
(-17.0179 1.18607 0)
(-15.2915 1.47079 0)
(-13.9917 1.03757 0)
(-31.035 -0.550182 0)
(-29.6573 -0.419121 0)
(-28.0596 -0.243472 0)
(-26.2658 -0.0230997 0)
(-24.2603 0.179632 0)
(-21.9591 0.356043 0)
(-19.7531 0.672956 0)
(-17.9377 0.156112 0)
(-37.0202 -0.945574 0)
(-35.9319 -0.895356 0)
(-34.5843 -0.807671 0)
(-32.9732 -0.676668 0)
(-31.0415 -0.562671 0)
(-28.6234 -0.480934 0)
(-26.0848 -0.234196 0)
(-23.7424 -0.917476 0)
(-43.2329 -1.17479 0)
(-42.6006 -1.19552 0)
(-41.722 -1.19375 0)
(-40.568 -1.16249 0)
(-39.0369 -1.16131 0)
(-36.8692 -1.22491 0)
(-34.3395 -1.17236 0)
(-31.6658 -2.09532 0)
(-49.3263 -1.24368 0)
(-49.256 -1.31288 0)
(-49.0113 -1.37687 0)
(-48.5535 -1.43247 0)
(-47.7514 -1.54286 0)
(-46.2661 -1.78034 0)
(-44.2449 -2.03192 0)
(-41.7042 -3.23388 0)
(-55.0016 -1.17896 0)
(-55.5196 -1.26885 0)
(-55.9802 -1.36679 0)
(-56.3608 -1.4773 0)
(-56.5337 -1.66949 0)
(-56.1209 -2.05801 0)
(-55.1425 -2.63644 0)
(-53.4175 -4.25994 0)
(-60.0476 -1.02275 0)
(-61.0923 -1.10685 0)
(-62.2128 -1.20449 0)
(-63.4272 -1.32796 0)
(-64.6542 -1.5531 0)
(-65.5444 -2.04279 0)
(-66.0586 -2.94129 0)
(-65.9561 -4.954 0)
(-64.3385 -0.815794 0)
(-65.777 -0.877923 0)
(-67.3959 -0.95127 0)
(-69.2685 -1.05221 0)
(-71.3971 -1.25794 0)
(-73.5489 -1.77344 0)
(-75.7808 -2.91398 0)
(-78.1029 -5.17099 0)
(-67.6065 -0.589468 0)
(-69.2742 -0.621965 0)
(-71.1665 -0.65781 0)
(-73.4028 -0.713259 0)
(-76.075 -0.861561 0)
(-79.1208 -1.33641 0)
(-82.8739 -2.58219 0)
(-88.1411 -4.79918 0)
(-69.1145 -0.379248 0)
(-70.791 -0.386448 0)
(-72.6201 -0.386772 0)
(-74.7153 -0.389107 0)
(-77.2339 -0.452948 0)
(-80.3536 -0.80748 0)
(-85.0164 -1.93661 0)
(-93.6309 -3.88339 0)
(-67.1358 -0.200283 0)