/*--------------------------------*- C++ -*----------------------------------*\
  =========                 |
  \\      /  F ield         | OpenFOAM: The Open Source CFD Toolbox
   \\    /   O peration     | Website:  https://openfoam.org
    \\  /    A nd           | Version:  9
     \\/     M anipulation  |
\*---------------------------------------------------------------------------*/
FoamFile
{
    format      ascii;
    class       volVectorField;
    location    "0.005";
    object      U;
}
// * * * * * * * * * * * * * * * * * * * * * * * * * * * * * * * * * * * * * //

dimensions      [0 1 -1 0 0 0 0];

internalField   nonuniform List<vector> 
7864
(
(4.14757 -0.0154627 1.86487e-17)
(4.02886 0.018728 -6.94944e-17)
(3.85571 0.0326024 0)
(3.67597 0.0389313 0)
(3.50012 0.0461306 0)
(3.32663 0.0524883 0)
(3.16859 0.0543538 -1.33789e-15)
(3.044 0.0537625 1.37505e-15)
(2.93564 0.0555492 0)
(2.82618 0.0602151 0)
(2.70703 0.0648361 0)
(2.57321 0.0671354 0)
(2.40607 0.064315 0)
(2.15847 0.0607942 0)
(1.63523 0.00094632 0)
(4.18112 0.0170775 0)
(4.16736 0.0291798 0)
(4.14437 0.0317316 -2.01837e-16)
(4.11593 0.032848 2.70942e-16)
(4.08589 0.0334982 -6.52596e-16)
(4.05486 0.0329619 7.46902e-16)
(4.016 0.0307265 0)
(3.96579 0.0275896 -8.36838e-16)
(3.91207 0.0263426 8.71953e-16)
(3.85932 0.0270865 0)
(3.80654 0.029235 0)
(3.7505 0.0343398 0)
(3.67918 0.0459311 -2.09746e-15)
(3.59743 0.0818117 2.10708e-15)
(3.32974 0.129563 -2.03642e-15)
(4.18561 0.0145938 -5.83193e-18)
(4.1978 0.0260635 -1.73979e-17)
(4.21009 0.0304528 6.18074e-17)
(4.21827 0.0322033 0)
(4.2247 0.0336241 0)
(4.22975 0.0341994 0)
(4.23045 0.0340812 0)
(4.22063 0.0335653 0)
(4.20394 0.0335188 0)
(4.18522 0.0347392 -1.46608e-15)
(4.16618 0.0377766 1.5704e-15)
(4.14717 0.044878 0)
(4.12191 0.0555997 0)
(4.09656 0.0884933 0)
(4.0076 0.147765 0)
(4.18711 0.0116041 0)
(4.2081 0.02213 2.5057e-17)
(4.23405 0.0269755 -4.52881e-17)
(4.25742 0.0287469 0)
(4.27941 0.0301413 0)
(4.29977 0.0311155 4.12024e-16)
(4.3179 0.0320845 -4.84111e-16)
(4.33081 0.0324978 0)
(4.33893 0.032706 0)
(4.34408 0.0334707 1.32198e-15)
(4.34747 0.0354466 -1.42538e-15)
(4.35004 0.0410693 1.50915e-15)
(4.34898 0.0499026 -3.08602e-15)
(4.34476 0.076897 1.54039e-15)
(4.31646 0.13285 -1.46622e-15)
(4.18756 0.00886789 4.00409e-18)
(4.21167 0.0174443 -1.00077e-17)
(4.24347 0.0216063 0)
(4.27401 0.0232984 0)
(4.30376 0.0246965 0)
(4.33218 0.0257588 0)
(4.35894 0.0268132 4.25593e-16)
(4.38307 0.0273229 -4.89143e-16)
(4.40435 0.0277857 -5.466e-16)
(4.42311 0.0286096 5.98244e-16)
(4.43965 0.0302152 -1.2887e-15)
(4.45469 0.0350218 1.36649e-15)
(4.46701 0.0431671 0)
(4.47684 0.0621711 1.42651e-15)
(4.47598 0.109983 -1.39291e-15)
(4.18756 0.00623098 3.64222e-18)
(4.21244 0.012371 -8.60886e-18)
(4.24655 0.0154772 0)
(4.28049 0.0171442 -9.4706e-17)
(4.31407 0.0185971 1.28134e-16)
(4.34668 0.0197533 0)
(4.37777 0.0207604 0)
(4.40699 0.0213431 0)
(4.43425 0.0219798 0)
(4.45941 0.0228778 0)
(4.48237 0.0243558 0)
(4.50377 0.0283707 0)
(4.52367 0.0353547 0)
(4.54289 0.0493419 0)
(4.55865 0.0840522 0)
(4.1874 0.00353796 0)
(4.21203 0.00710215 0)
(4.24654 0.00908742 0)
(4.28192 0.010556 8.74802e-17)
(4.31752 0.0120423 1.19727e-16)
(4.3522 0.0133524 -3.03509e-16)
(4.38524 0.0143624 -3.64236e-16)
(4.41643 0.0150069 4.19776e-16)
(4.44585 0.0157458 0)
(4.47355 0.0167206 1.02696e-15)
(4.49954 0.0180638 -1.1096e-15)
(4.52414 0.0212163 0)
(4.54787 0.0267755 0)
(4.57164 0.0369984 0)
(4.59573 0.0599394 -1.33302e-15)
(4.18723 0.000876231 3.42138e-18)
(4.21113 0.00168499 -7.64882e-18)
(4.24499 0.002581 -5.54582e-17)
(4.28048 0.00372882 8.56727e-17)
(4.31683 0.00516455 2.3551e-16)
(4.35259 0.00665514 -5.97166e-16)
(4.38666 0.00770469 3.58148e-16)
(4.41892 0.00850257 0)
(4.44952 0.00938773 -4.61765e-16)
(4.47845 0.0104609 5.06289e-16)
(4.50575 0.0117817 -1.09569e-15)
(4.53161 0.0143332 2.03832e-21)
(4.55668 0.0186614 1.2392e-15)
(4.58197 0.0258243 0)
(4.60886 0.0411658 0)
(4.18708 -0.00171563 3.53743e-18)
(4.20999 -0.00372378 -7.93097e-18)
(4.2426 -0.00388108 5.73679e-17)
(4.27682 -0.00317643 -1.775e-16)
(4.31248 -0.00188314 3.66e-16)
(4.34789 -0.000242802 -3.08692e-16)
(4.3818 0.000891806 0)
(4.41407 0.00189369 4.25167e-16)
(4.44488 0.00294797 -4.75472e-16)
(4.47421 0.00413833 1.04208e-15)
(4.50214 0.00548523 -1.12663e-15)
(4.52872 0.00765427 0)
(4.55441 0.0110049 0)
(4.58012 0.0159135 0)
(4.60678 0.0253815 -1.38928e-15)
(4.18698 -0.00421203 3.79203e-18)
(4.20864 -0.00887418 -8.64855e-18)
(4.23937 -0.0101581 0)
(4.27127 -0.00988658 0)
(4.30426 -0.00878771 2.62743e-16)
(4.33718 -0.00710449 -3.31561e-16)
(4.36892 -0.00585752 0)
(4.39932 -0.00469631 0)
(4.42849 -0.00350921 0)
(4.45644 -0.00221537 0)
(4.48326 -0.000826617 0)
(4.50902 0.00111703 0)
(4.53395 0.00378705 0)
(4.5588 0.00722319 0)
(4.58447 0.0123504 0)
(4.18688 -0.0065704 0)
(4.20684 -0.0136716 0)
(4.23474 -0.0160729 7.04886e-17)
(4.26286 -0.0161455 -1.07212e-16)
(4.29165 -0.0151777 0)
(4.32047 -0.0135058 0)
(4.34848 -0.0121467 0)
(4.37561 -0.0108559 0)
(4.40175 -0.00954187 -5.55672e-16)
(4.42692 -0.00815099 6.07084e-16)
(4.45128 -0.00672983 -1.3082e-15)
(4.47499 -0.00485378 1.39698e-15)
(4.49815 -0.0025541 0)
(4.52115 0.000222488 0)
(4.54395 0.00216919 1.61399e-15)
(4.18667 -0.00885788 4.89888e-18)
(4.20389 -0.0179693 -1.22021e-17)
(4.22709 -0.0211515 0)
(4.24907 -0.0214555 0)
(4.27106 -0.0205783 0)
(4.29307 -0.0190323 0)
(4.31474 -0.0176041 0)
(4.33619 -0.0161615 0)
(4.35689 -0.0146892 0)
(4.37692 -0.013196 0)
(4.39659 -0.0117265 0)
(4.41617 -0.00989757 0)
(4.43569 -0.00772076 0)
(4.4547 -0.00577726 0)
(4.47351 -0.00513548 1.81618e-15)
(4.18613 -0.0112378 6.10382e-18)
(4.19797 -0.0214398 1.66856e-17)
(4.21161 -0.0247689 -5.7639e-17)
(4.22294 -0.0250086 -1.64843e-16)
(4.23339 -0.0241567 2.13491e-16)
(4.24342 -0.0228813 0)
(4.2533 -0.0215145 0)
(4.26332 -0.0197827 0)
(4.2715 -0.0179903 0)
(4.27952 -0.0163811 0)
(4.28834 -0.0148628 0)
(4.29806 -0.0127107 0)
(4.30847 -0.0104326 0)
(4.31926 -0.00691364 0)
(4.32881 -0.00594296 0)
(4.18437 -0.0129339 0)
(4.18167 -0.0235266 -5.4886e-17)
(4.17288 -0.0251108 9.3229e-17)
(4.16119 -0.025159 0)
(4.14812 -0.0244509 0)
(4.13362 -0.0237369 7.30922e-16)
(4.11784 -0.0229787 -8.29465e-16)
(4.10058 -0.0223356 0)
(4.07829 -0.0220686 -9.75998e-16)
(4.05505 -0.0220889 1.04459e-15)
(4.03222 -0.0224276 -2.22184e-15)
(4.00998 -0.0224109 2.34528e-15)
(3.98841 -0.0221598 0)
(3.97001 -0.0220107 0)
(3.94354 -0.024274 2.58169e-15)
(4.16555 0.00549326 0)
(4.10294 -0.0111527 0)
(4.00609 -0.012752 0)
(3.89906 -0.00961172 0)
(3.78948 -0.00484505 1.1263e-15)
(3.67691 -0.000405897 -1.23292e-15)
(3.55936 0.00494009 -1.32892e-15)
(3.43773 0.0115835 1.41286e-15)
(3.31926 0.0175959 0)
(3.19571 0.0229901 0)
(3.06476 0.0286399 0)
(2.92668 0.0353848 0)
(2.78127 0.0435949 3.58297e-15)
(2.62952 0.0546684 -3.7447e-15)
(2.49933 0.0625536 -3.85397e-15)
(1.3212 -0.0537702 5.56505e-15)
(1.37836 -0.0197624 -1.06474e-14)
(1.57402 0.136429 2.87161e-15)
(1.79496 0.392214 0)
(1.99892 0.69531 -2.00123e-15)
(2.19849 1.06416 0)
(2.43884 1.50431 0)
(2.70502 1.99713 0)
(2.98518 2.51994 -1.21314e-20)
(3.26958 3.06444 -3.88121e-16)
(3.55436 3.65264 3.9236e-16)
(3.87445 4.30024 0)
(4.26713 5.0182 -2.13566e-16)
(4.82912 5.81976 -2.29018e-16)
(5.66397 6.63333 -4.94908e-16)
(3.15871 0.210237 2.69461e-15)
(3.15471 0.31208 -3.8876e-15)
(3.21768 0.483299 4.87999e-15)
(3.30868 0.706357 -1.17129e-15)
(3.40768 0.976967 1.14421e-15)
(3.51332 1.30624 -1.13807e-15)
(3.65324 1.70085 0)
(3.83344 2.16688 0)
(4.04813 2.69935 0)
(4.29921 3.30913 0)
(4.58502 4.01199 0)
(4.90845 4.83165 0)
(5.30171 5.78755 0)
(5.86854 6.91708 -4.48115e-16)
(6.68918 8.15693 4.85404e-16)
(3.9457 0.22163 5.15478e-16)
(3.94391 0.318692 2.01508e-15)
(3.97105 0.47364 -1.9512e-15)
(4.01444 0.678503 9.60943e-16)
(4.06985 0.934566 -1.92505e-15)
(4.14275 1.24838 1.9537e-15)
(4.25156 1.63307 -5.00743e-16)
(4.41154 2.08754 5.21949e-16)
(4.62288 2.60648 0)
(4.89148 3.19683 5.60267e-16)
(5.23179 3.8738 2.79783e-16)
(5.64956 4.66487 2.82883e-16)
(6.15041 5.60143 -4.35423e-16)
(6.82587 6.69673 8.37073e-16)
(7.76934 7.91731 -4.02304e-16)
(4.30299 0.20315 1.36204e-15)
(4.31775 0.293509 1.78866e-15)
(4.34854 0.424104 -8.79265e-16)
(4.38972 0.598024 -8.79722e-16)
(4.44365 0.823341 8.93082e-16)
(4.52006 1.10699 0)
(4.63306 1.46202 -9.49948e-16)
(4.79988 1.88376 4.9757e-16)
(5.02884 2.37247 -5.26792e-16)
(5.32763 2.93882 -1.05121e-15)
(5.70832 3.59703 0)
(6.19724 4.36432 -3.87619e-16)
(6.81025 5.26848 7.80958e-16)
(7.58778 6.33754 -6.6962e-16)
(8.60674 7.59086 5.57383e-16)
(4.48365 0.175701 2.1177e-15)
(4.50694 0.255742 -2.50518e-15)
(4.54325 0.365355 -1.08343e-21)
(4.59104 0.513001 0)
(4.65374 0.708852 0)
(4.74127 0.961026 8.91897e-16)
(4.86763 1.27892 -9.32749e-16)
(5.04915 1.66132 1.47246e-15)
(5.29909 2.1119 -5.20007e-16)
(5.6295 2.64261 1.02313e-15)
(6.05615 3.26864 -2.49348e-16)
(6.60489 4.00758 1.22375e-16)
(7.31563 4.88364 -4.83761e-16)
(8.24175 5.91092 4.2529e-16)
(9.35623 7.18655 -3.09792e-16)
(4.57844 0.140118 4.03318e-16)
(4.6068 0.213377 8.00486e-16)
(4.64656 0.310632 8.07852e-16)
(4.69935 0.438073 -1.64961e-15)
(4.7705 0.605603 0)
(4.86889 0.823868 -4.58218e-21)
(5.00836 1.09989 -9.35497e-16)
(5.20487 1.43903 -1.48253e-15)
(5.47439 1.84753 1.04801e-15)
(5.8335 2.33329 -5.11247e-16)
(6.3013 2.91304 0)
(6.90697 3.61013 -4.77239e-16)
(7.69147 4.44995 -1.15991e-16)
(8.7538 5.42381 -1.14005e-16)
(10.0382 6.64492 2.83259e-17)
(4.62353 0.103279 1.34447e-15)
(4.65704 0.168797 0)
(4.69976 0.254344 0)
(4.75593 0.364223 0)
(4.83217 0.508126 0)
(4.9375 0.69512 9.02836e-16)
(5.08552 0.933291 0)
(5.29372 1.227 1.5167e-15)
(5.57869 1.58231 -1.58962e-20)
(5.96073 2.00988 -2.61217e-16)
(6.46478 2.53122 -2.49725e-16)
(7.12331 3.1729 3.58092e-16)
(7.97707 3.96026 2.28568e-16)
(9.13049 4.90176 3.85723e-16)
(10.6094 6.03548 -5.33574e-17)
(4.64086 0.0710417 -3.72773e-16)
(4.67907 0.126119 -7.70964e-16)
(4.72398 0.198996 0)
(4.78123 0.292948 8.36562e-16)
(4.85907 0.415617 -8.78961e-16)
(4.96705 0.573361 -5.40966e-21)
(5.11744 0.771959 -1.48059e-15)
(5.32842 1.01752 1.16266e-20)
(5.62068 1.31794 1.59164e-20)
(6.01791 1.68831 9.35964e-21)
(6.54992 2.14708 0)
(7.25423 2.71962 1.22295e-16)
(8.18337 3.43805 5.39293e-21)
(9.41196 4.32169 -1.09332e-16)
(11.0645 5.39488 2.06806e-16)
(4.63949 0.0470209 3.35716e-15)
(4.68016 0.0899153 -7.82172e-16)
(4.72628 0.148472 2.46326e-15)
(4.78304 0.226575 -1.72847e-15)
(4.8592 0.328629 0)
(4.96512 0.458802 1.94487e-15)
(5.11395 0.62289 -1.03747e-15)
(5.32367 0.830399 -1.10854e-15)
(5.61632 1.08726 0)
(6.01916 1.40423 0)
(6.56801 1.79884 2.72016e-16)
(7.30431 2.2954 -3.83385e-16)
(8.29621 2.92795 -2.38549e-16)
(9.60907 3.7145 1.66716e-16)
(11.4159 4.7287 -5.14935e-17)
(4.61646 0.0284827 -1.92308e-16)
(4.65802 0.062398 0)
(4.70468 0.108392 -8.60014e-16)
(4.76008 0.171632 -9.10073e-16)
(4.83272 0.256005 1.93408e-15)
(4.93365 0.364173 5.77582e-21)
(5.07666 0.500796 5.51402e-16)
(5.28035 0.672849 2.9423e-21)
(5.56788 0.885577 -6.31047e-16)
(5.96975 1.14811 0)
(6.52719 1.47833 5.80063e-16)
(7.28584 1.89742 0)
(8.32734 2.43807 2.51419e-16)
(9.71555 3.11602 2.31198e-16)
(11.6718 4.01569 -2.10397e-16)
(4.57184 0.0136724 -1.63731e-15)
(4.60969 0.0408841 0)
(4.65274 0.0758915 -2.29815e-15)
(4.70353 0.125167 2.91929e-15)
(4.76856 0.193478 -1.03465e-15)
(4.85895 0.281609 -1.10443e-15)
(4.99003 0.392963 0)
(5.18222 0.533189 6.34528e-16)
(5.46006 0.707061 1.35471e-15)
(5.85706 0.921903 0)
(6.41851 1.19318 -6.24766e-16)
(7.19363 1.53786 -1.46129e-16)
(8.27629 1.98465 2.24615e-20)
(9.72616 2.55133 -1.22653e-16)
(11.8255 3.3098 0)
(4.49529 0.00300129 -1.80156e-15)
(4.52436 0.024888 -1.89998e-15)
(4.55553 0.0521447 2.49347e-15)
(4.59124 0.0905008 -1.57712e-15)
(4.63766 0.143656 1.11663e-15)
(4.7067 0.212981 0)
(4.81647 0.301125 -6.39366e-16)
(4.99002 0.411048 6.88099e-16)
(5.25435 0.544864 -7.26849e-16)
(5.64435 0.710793 0)
(6.21019 0.921838 3.39652e-16)
(7.00326 1.19019 -1.59339e-16)
(8.13033 1.53467 -5.86973e-16)
(9.64304 1.97124 2.65588e-16)
(11.8901 2.56193 -1.1788e-16)
(4.33173 0.00166309 0)
(4.33307 0.0179488 2.66712e-16)
(4.33098 0.0381475 0)
(4.3291 0.0680863 1.16874e-15)
(4.33823 0.107819 -1.2432e-15)
(4.37373 0.160882 -1.32812e-15)
(4.45648 0.229324 1.42371e-15)
(4.61011 0.315007 0)
(4.86414 0.4182 7.8716e-16)
(5.2536 0.548396 -1.16387e-15)
(5.82936 0.713905 3.74209e-16)
(6.64234 0.928437 -3.52614e-16)
(7.81302 1.19815 1.62939e-16)
(9.38837 1.54142 7.33652e-17)
(11.7786 1.9589 3.23925e-17)
(3.88231 -0.0134813 -2.45343e-15)
(3.80684 -0.00177733 -3.20304e-16)
(3.7309 0.0126163 0)
(3.66778 0.0323577 -7.17718e-16)
(3.63448 0.0577222 0)
(3.64464 0.0915517 1.64603e-15)
(3.71644 0.132829 -2.63372e-15)
(3.8739 0.181162 9.20268e-16)
(4.14169 0.237329 0)
(4.55409 0.307635 4.59864e-16)
(5.16889 0.394458 -4.44499e-16)
(6.03714 0.500879 2.09139e-16)
(7.28603 0.624806 0)
(8.95805 0.795637 -1.70185e-16)
(11.5286 0.972346 -7.43765e-17)
(2.30113 0.0857883 3.67273e-15)
(2.1236 0.106068 0)
(2.00456 0.125529 -4.31739e-15)
(1.93551 0.148444 2.32041e-15)
(1.91171 0.17453 2.47769e-15)
(1.94275 0.211228 0)
(2.0358 0.263277 1.34077e-15)
(2.19735 0.329843 -1.33865e-15)
(2.44567 0.416747 -1.31016e-15)
(2.82032 0.525823 1.25633e-15)
(3.38901 0.66051 0)
(4.19187 0.803825 0)
(5.47445 0.956789 0)
(6.87187 1.10242 1.07372e-16)
(10.0151 1.09352 4.63977e-17)
(6.99187 7.42057 0)
(8.90286 8.31237 0)
(10.957 9.17421 0)
(13.3053 9.89598 -9.00291e-16)
(16.0951 10.4971 8.81365e-16)
(19.4888 11.0138 -6.47262e-16)
(23.7014 11.4392 4.2158e-16)
(28.9526 11.7334 2.05625e-16)
(35.6078 11.8188 0)
(43.8227 11.6093 -1.90336e-16)
(54.2477 11.0239 3.63755e-16)
(65.7004 9.66373 -8.58614e-17)
(80.4511 7.53013 -8.03616e-17)
(85.8267 4.66225 0)
(92.6529 0.90025 1.40125e-17)
(8.03797 9.35163 0)
(9.93726 10.4789 0)
(12.2011 11.613 1.28693e-17)
(14.9248 12.6548 3.92983e-16)
(18.284 13.6202 -1.99112e-16)
(22.4577 14.5712 1.9343e-16)
(27.7219 15.5192 1.47389e-18)
(34.4378 16.4308 0)
(43.1898 17.2786 -1.79229e-16)
(54.475 17.861 -1.72126e-16)
(69.5353 17.946 -1.63892e-16)
(87.8334 17.2856 3.14572e-19)
(112.732 15.4988 7.05281e-17)
(132.756 12.5044 0)
(160.274 2.67086 8.35703e-21)
(9.27943 8.92365 2.3201e-17)
(11.2586 9.77802 1.63254e-16)
(13.6216 10.6209 0)
(16.4013 11.4185 5.74268e-18)
(19.8023 12.1828 -1.88313e-16)
(24.0218 12.9553 -1.80576e-16)
(29.3451 13.7301 3.38989e-19)
(36.1517 14.4698 1.74361e-16)
(45.0297 15.1156 1.70646e-16)
(56.5845 15.6078 1.65176e-16)
(72.0345 15.7617 -7.88777e-17)
(91.3263 15.2347 7.34631e-17)
(117.305 13.2994 -6.80636e-17)
(141.911 11.445 1.14072e-19)
(171.437 0.244468 -9.87347e-18)
(10.1052 8.59512 0)
(11.9712 9.42897 -1.50615e-16)
(14.2304 10.2508 -2.16065e-17)
(16.9057 11.0401 0)
(20.2206 11.7982 0)
(24.3874 12.5494 -1.34579e-18)
(29.6794 13.2921 -1.70299e-16)
(36.4728 13.9904 -1.14569e-20)
(45.3465 14.6006 0)
(56.9118 15.0044 -1.60296e-16)
(72.4375 15.0025 3.04414e-19)
(91.7617 14.3959 -2.87712e-19)
(117.868 12.5476 6.63212e-17)
(142.519 10.7625 0)
(173.732 -0.662794 4.65035e-18)
(10.8921 8.11935 0)
(12.7308 8.83561 2.00917e-17)
(14.9846 9.52009 1.31996e-16)
(17.6586 10.1714 1.74345e-16)
(20.9679 10.8044 1.65089e-16)
(25.1288 11.438 1.64788e-16)
(30.4054 12.0732 -3.18729e-19)
(37.1698 12.6765 -1.60851e-16)
(46.0044 13.1972 0)
(57.5066 13.5411 1.53728e-16)
(72.9643 13.5124 8.81953e-21)
(92.0999 12.9662 7.08982e-17)
(118.351 11.196 -3.1882e-17)
(141.754 9.65085 1.12229e-19)
(176.74 -1.90486 -4.394e-18)
(11.6272 7.526 -5.6085e-17)
(13.4229 8.17704 3.83224e-17)
(15.6349 8.79254 -3.30419e-16)
(18.269 9.38711 -3.09697e-16)
(21.5362 9.97924 -3.2455e-16)
(25.663 10.5701 2.47874e-18)
(30.9127 11.1562 -1.57017e-16)
(37.6535 11.7042 1.54969e-16)
(46.4659 12.1628 1.51626e-16)
(57.9336 12.4486 -7.39789e-17)
(73.3626 12.3717 7.07042e-17)
(92.3327 11.8087 -6.88051e-17)
(118.853 10.0985 3.10411e-17)
(140.494 8.59424 0)
(181.573 -2.86531 0)
(12.2739 6.86858 1.45514e-16)
(14.0282 7.45396 1.86523e-17)
(16.207 7.98864 -9.48069e-18)
(18.8226 8.5028 1.43732e-16)
(22.0736 9.01964 1.56838e-16)
(26.1886 9.53033 -2.41328e-18)
(31.4288 10.0325 1.53103e-16)
(38.1559 10.502 -1.50828e-16)
(46.9481 10.89 -1.47461e-16)
(58.3818 11.1165 2.85377e-19)
(73.7735 11.0085 -4.16644e-21)
(92.5929 10.4659 -2.63673e-19)
(119.296 8.88209 1.15663e-19)
(139.457 7.39502 -1.13319e-19)
(185.098 -3.87014 0)
(12.8267 6.15701 -1.26313e-16)
(14.5524 6.66395 -7.05707e-21)
(16.7006 7.12442 1.22179e-16)
(19.3014 7.57068 9.49875e-18)
(22.5385 8.0278 0)
(26.6394 8.48188 0)
(31.8696 8.92232 2.95185e-19)
(38.5888 9.32262 -2.91481e-19)
(47.3694 9.64443 -7.28211e-17)
(58.7822 9.81265 7.08757e-17)
(74.1419 9.67418 -2.62576e-19)
(92.8611 9.14389 -3.26646e-17)
(119.598 7.68791 -3.01583e-17)
(138.994 6.18865 1.15999e-19)
(186.202 -5.05249 0)
(13.2706 5.3982 0)
(14.9816 5.82601 1.67639e-16)
(17.1061 6.22239 -1.89414e-17)
(19.6967 6.6061 0)
(22.9304 6.99374 0)
(27.0273 7.37731 -7.67397e-17)
(32.2516 7.75477 -2.96721e-19)
(38.9679 8.08649 2.93031e-19)
(47.7457 8.33378 7.35203e-17)
(59.1477 8.43928 -2.6151e-21)
(74.4809 8.27212 3.38458e-17)
(93.1268 7.75907 6.5631e-17)
(119.829 6.44389 3.03784e-17)
(138.801 4.96273 0)
(186.459 -5.89523 0)
(13.6082 4.59257 7.45043e-17)
(15.3116 4.95638 -1.33126e-16)
(17.4186 5.303 -9.67168e-18)
(19.9995 5.63156 -1.46351e-17)
(23.2319 5.95002 2.45277e-18)
(27.335 6.25724 8.06523e-17)
(32.569 6.54387 -7.72404e-17)
(39.2865 6.80916 -2.98734e-19)
(48.0653 6.98808 -7.46756e-17)
(59.4647 7.02945 7.25407e-17)
(74.781 6.839 2.64687e-19)
(93.3656 6.34899 -3.35922e-17)
(120.044 5.19149 -1.16297e-19)
(138.563 3.75243 -1.46847e-17)
(186.983 -6.4173 1.95445e-18)
(13.8348 3.80945 -5.76291e-17)
(15.5357 4.12433 -7.24905e-21)
(17.6303 4.42886 -1.9894e-17)
(20.2016 4.70809 8.02657e-17)
(23.4322 4.9656 8.05159e-17)
(27.5384 5.20082 0)
(32.7898 5.38728 -2.06092e-22)
(39.5258 5.56904 0)
(48.3146 5.69197 7.65952e-17)
(59.7227 5.67432 -7.39745e-17)
(75.0368 5.45647 -3.57664e-17)
(93.5801 4.98237 -3.38155e-17)
(120.244 3.98001 0)
(138.368 2.58487 1.45784e-17)
(187.546 -6.60429 -2.01772e-18)
(13.9797 2.95052 5.97087e-17)
(15.6861 3.18909 4.0475e-17)
(17.7795 3.4167 -3.07826e-17)
(20.3457 3.63044 -7.23223e-17)
(23.5734 3.83353 -8.27344e-17)
(27.683 4.00276 -1.28616e-18)
(32.9476 4.12152 8.2853e-17)
(39.7112 4.19813 1.56336e-19)
(48.5209 4.24386 -1.53225e-19)
(59.9452 4.17783 2.93939e-19)
(75.2721 3.95496 -1.80576e-17)
(93.8109 3.52917 3.39079e-17)
(120.464 2.71362 -1.57815e-17)
(138.459 1.3916 1.69857e-19)
(187.54 -6.33089 -3.44982e-20)
(13.942 2.26729 5.27937e-21)
(15.6585 2.48847 2.09554e-17)
(17.7641 2.6912 2.11226e-17)
(20.3464 2.863 4.76643e-17)
(23.5838 3.03436 -5.29571e-18)
(27.7008 3.17644 0)
(32.9819 3.24133 -3.23909e-19)
(39.7832 3.19207 3.18804e-19)
(48.6416 3.14438 0)
(60.1168 3.00971 2.97105e-19)
(75.4852 2.72184 3.64542e-17)
(94.0141 2.26505 -2.70776e-19)
(120.54 1.56813 2.37148e-17)
(137.92 0.333391 0)
(186.127 -4.74924 1.25136e-18)
(13.8134 1.02798 -4.3241e-17)
(15.5488 1.10342 2.16955e-17)
(17.6498 1.169 -7.60424e-17)
(20.2337 1.22121 -3.25292e-17)
(23.4779 1.29341 0)
(27.5827 1.37135 -1.33492e-18)
(32.8269 1.42654 1.31656e-18)
(39.5792 1.41138 2.06235e-17)
(48.3337 1.33519 0)
(59.5452 1.22696 0)
(74.3411 1.07372 -2.79648e-17)
(91.7882 0.789746 8.82499e-18)
(116.199 0.440016 -4.27218e-18)
(129.146 -0.574768 2.04038e-18)
(172.608 -2.73536 -1.69377e-18)
(11.7328 1.04365 -2.47218e-17)
(13.5117 1.0723 -9.02941e-21)
(15.5262 1.09663 -5.50836e-21)
(17.9199 1.1175 -2.38233e-17)
(20.8575 1.13011 2.9434e-18)
(24.4743 1.11547 -2.90613e-18)
(28.94 1.0566 3.57223e-19)
(34.4758 0.898421 -2.28929e-17)
(41.3796 0.485792 0)
(49.8312 -0.115033 0)
(59.967 -0.846844 1.08666e-17)
(70.5702 -1.61925 -1.08322e-17)
(83.4194 -2.20104 -4.60512e-18)
(83.0539 -2.39829 -2.36306e-18)
(99.8141 -1.70816 0)
(25.727 -2.06985 0)
(25.7187 -2.06984 0)
(25.7106 -2.06994 0)
(25.7027 -2.07014 0)
(25.6948 -2.07044 0)
(25.6871 -2.07083 0)
(25.6795 -2.07133 0)
(25.672 -2.07191 0)
(25.6647 -2.07259 0)
(25.6574 -2.07336 0)
(25.6503 -2.07421 0)
(25.6433 -2.07515 0)
(25.6364 -2.07617 0)
(25.6296 -2.07727 0)
(25.6229 -2.07846 0)
(25.6163 -2.07971 0)
(25.6098 -2.08105 0)
(25.6034 -2.08245 0)
(25.5971 -2.08393 0)
(25.5909 -2.08548 0)
(25.5848 -2.08709 0)
(25.5788 -2.08877 0)
(25.5729 -2.09052 0)
(25.567 -2.09233 0)
(25.5613 -2.0942 0)
(25.5556 -2.09613 0)
(25.55 -2.09812 0)
(25.5445 -2.10016 0)
(25.5391 -2.10226 0)
(25.5337 -2.10442 0)
(25.5284 -2.10663 0)
(25.5232 -2.10889 0)
(25.5181 -2.1112 0)
(25.513 -2.11356 0)
(25.508 -2.11596 0)
(25.5031 -2.11842 0)
(25.4983 -2.12091 0)
(25.4935 -2.12346 0)
(25.4887 -2.12604 0)
(25.4841 -2.12867 0)
(25.4795 -2.13133 0)
(25.4749 -2.13404 0)
(25.4705 -2.13679 0)
(25.4661 -2.13957 0)
(25.4617 -2.14239 0)
(25.4574 -2.14525 0)
(25.4531 -2.14814 0)
(25.449 -2.15106 0)
(25.4448 -2.15402 0)
(25.4407 -2.15701 0)
(25.4367 -2.16004 0)
(25.4327 -2.16309 0)
(25.4288 -2.16617 0)
(25.4249 -2.16928 0)
(25.4211 -2.17242 0)
(25.4173 -2.17559 0)
(25.4136 -2.17878 0)
(25.4099 -2.18199 0)
(25.4062 -2.18524 0)
(25.4026 -2.1885 0)
(25.3991 -2.19179 0)
(25.3955 -2.1951 0)
(25.3921 -2.19844 0)
(25.3886 -2.20179 0)
(25.3852 -2.20516 0)
(25.3819 -2.20856 0)
(25.3786 -2.21197 0)
(25.3753 -2.2154 0)
(25.372 -2.21885 0)
(25.3688 -2.22232 0)
(25.3657 -2.2258 0)
(25.3625 -2.2293 0)
(25.3594 -2.23282 0)
(25.3564 -2.23635 0)
(25.3533 -2.2399 0)
(25.3503 -2.24346 0)
(25.3473 -2.24703 0)
(25.3444 -2.25061 0)
(25.3415 -2.25421 0)
(25.3386 -2.25782 0)
(25.3358 -2.26144 0)
(25.333 -2.26508 0)
(25.3302 -2.26872 0)
(25.3274 -2.27237 0)
(25.3247 -2.27603 0)
(25.322 -2.27971 0)
(25.3193 -2.28338 0)
(25.3167 -2.287 0)
(25.3135 -2.2903 0)
(24.2818 -1.48709 0)
(24.2813 -1.49652 0)
(24.2807 -1.50595 0)
(24.2802 -1.51541 0)
(24.2797 -1.52479 0)
(24.2793 -1.53409 0)
(24.2789 -1.54329 0)
(24.2786 -1.5524 0)
(24.2783 -1.56143 0)
(24.278 -1.57036 0)
(24.2778 -1.57922 0)
(24.2776 -1.58799 0)
(24.2774 -1.59668 0)
(24.2773 -1.6053 0)
(24.2772 -1.61384 0)
(24.2771 -1.6223 0)
(24.277 -1.63069 0)
(24.277 -1.639 0)
(24.277 -1.64725 0)
(24.2771 -1.65543 0)
(24.2771 -1.66354 0)
(24.2772 -1.67159 0)
(24.2773 -1.67957 0)
(24.2775 -1.68749 0)
(24.2776 -1.69534 0)
(24.2778 -1.70314 0)
(24.278 -1.71088 0)
(24.2782 -1.71856 0)
(24.2784 -1.72618 0)
(24.2787 -1.73374 0)
(24.279 -1.74125 0)
(24.2793 -1.74871 0)
(24.2796 -1.75611 0)
(24.2799 -1.76347 0)
(24.2803 -1.77077 0)
(24.2806 -1.77802 0)
(24.281 -1.78523 0)
(24.2814 -1.79238 0)
(24.2818 -1.79949 0)
(24.2822 -1.80656 0)
(24.2826 -1.81357 0)
(24.2831 -1.82055 0)
(24.2835 -1.82753 0)
(24.284 -1.8345 0)
(24.2845 -1.84144 0)
(24.285 -1.84833 0)
(24.2854 -1.85517 0)
(24.286 -1.86197 0)
(24.2865 -1.86872 0)
(24.287 -1.87543 0)
(24.2875 -1.88209 0)
(24.2881 -1.88871 0)
(24.2886 -1.89529 0)
(24.2892 -1.90182 0)
(24.2897 -1.90832 0)
(24.2903 -1.91478 0)
(24.2909 -1.9212 0)
(24.2915 -1.92758 0)
(24.2921 -1.93392 0)
(24.2927 -1.94023 0)
(24.2933 -1.94651 0)
(24.2939 -1.95275 0)
(24.2945 -1.95895 0)
(24.2951 -1.96512 0)
(24.2957 -1.97126 0)
(24.2964 -1.97737 0)
(24.297 -1.98344 0)
(24.2976 -1.98949 0)
(24.2983 -1.9955 0)
(24.2989 -2.00148 0)
(24.2995 -2.00743 0)
(24.3002 -2.01335 0)
(24.3008 -2.01924 0)
(24.3015 -2.0251 0)
(24.3022 -2.03094 0)
(24.3028 -2.03674 0)
(24.3035 -2.04252 0)
(24.3041 -2.04826 0)
(24.3048 -2.05398 0)
(24.3055 -2.05968 0)
(24.3061 -2.06534 0)
(24.3068 -2.07098 0)
(24.3075 -2.07659 0)
(24.3081 -2.08217 0)
(24.3088 -2.08773 0)
(24.3095 -2.09326 0)
(24.3101 -2.09876 0)
(24.3108 -2.10422 0)
(24.3116 -2.10947 0)
(24.5667 -1.98714 0)
(24.5668 -1.99068 0)
(24.5669 -1.99424 0)
(24.5669 -1.99781 0)
(24.5669 -2.00138 0)
(24.5669 -2.00496 0)
(24.5669 -2.00855 0)
(24.5668 -2.01214 0)
(24.5667 -2.01573 0)
(24.5667 -2.01934 0)
(24.5666 -2.02294 0)
(24.5665 -2.02656 0)
(24.5663 -2.03018 0)
(24.5662 -2.0338 0)
(24.566 -2.03743 0)
(24.5659 -2.04107 0)
(24.5657 -2.04471 0)
(24.5655 -2.04836 0)
(24.5653 -2.05201 0)
(24.5651 -2.05567 0)
(24.5649 -2.05934 0)
(24.5647 -2.06302 0)
(24.5645 -2.0667 0)
(24.5642 -2.07038 0)
(24.564 -2.07407 0)
(24.5638 -2.07777 0)
(24.5635 -2.08148 0)
(24.5633 -2.08519 0)
(24.563 -2.08891 0)
(24.5628 -2.09263 0)
(24.5625 -2.09636 0)
(24.5623 -2.1001 0)
(24.562 -2.10384 0)
(24.5617 -2.10759 0)
(24.5615 -2.11134 0)
(24.5612 -2.1151 0)
(24.561 -2.11887 0)
(24.5607 -2.12264 0)
(24.5605 -2.12642 0)
(24.5602 -2.13021 0)
(24.56 -2.13399 0)
(24.5597 -2.13779 0)
(24.5595 -2.14159 0)
(24.5592 -2.14539 0)
(24.559 -2.1492 0)
(24.5588 -2.15302 0)
(24.5585 -2.15684 0)
(24.5583 -2.16066 0)
(24.5581 -2.16449 0)
(24.5578 -2.16832 0)
(24.5576 -2.17215 0)
(24.5574 -2.17599 0)
(24.5572 -2.17983 0)
(24.557 -2.18368 0)
(24.5569 -2.18753 0)
(24.5567 -2.19138 0)
(24.5565 -2.19524 0)
(24.5563 -2.19909 0)
(24.5562 -2.20296 0)
(24.556 -2.20682 0)
(24.5559 -2.21069 0)
(24.5558 -2.21455 0)
(24.5557 -2.21842 0)
(24.5556 -2.2223 0)
(24.5555 -2.22617 0)
(24.5554 -2.23005 0)
(24.5553 -2.23393 0)
(24.5553 -2.23781 0)
(24.5552 -2.24169 0)
(24.5552 -2.24557 0)
(24.5551 -2.24945 0)
(24.5551 -2.25334 0)
(24.5551 -2.25722 0)
(24.5551 -2.26111 0)
(24.5551 -2.26499 0)
(24.5551 -2.26888 0)
(24.5552 -2.27277 0)
(24.5552 -2.27665 0)
(24.5553 -2.28054 0)
(24.5554 -2.28443 0)
(24.5555 -2.28831 0)
(24.5556 -2.2922 0)
(24.5557 -2.29609 0)
(24.5558 -2.29997 0)
(24.556 -2.30386 0)
(24.5561 -2.30774 0)
(24.5563 -2.31162 0)
(24.5565 -2.31553 0)
(24.5567 -2.32025 0)
(24.2676 -1.53599 0)
(24.266 -1.54364 0)
(24.2644 -1.55127 0)
(24.2628 -1.55889 0)
(24.2613 -1.56649 0)
(24.2598 -1.57408 0)
(24.2583 -1.58165 0)
(24.2569 -1.58921 0)
(24.2555 -1.59674 0)
(24.2541 -1.60426 0)
(24.2528 -1.61177 0)
(24.2515 -1.61925 0)
(24.2502 -1.62672 0)
(24.249 -1.63416 0)
(24.2478 -1.64157 0)
(24.2466 -1.64895 0)
(24.2455 -1.65631 0)
(24.2444 -1.66365 0)
(24.2433 -1.67098 0)
(24.2423 -1.67828 0)
(24.2413 -1.68557 0)
(24.2403 -1.69283 0)
(24.2394 -1.70008 0)
(24.2385 -1.70731 0)
(24.2376 -1.71451 0)
(24.2367 -1.7217 0)
(24.2359 -1.72887 0)
(24.2351 -1.73601 0)
(24.2343 -1.74314 0)
(24.2336 -1.75024 0)
(24.2329 -1.75732 0)
(24.2322 -1.76438 0)
(24.2315 -1.77142 0)
(24.2309 -1.77844 0)
(24.2303 -1.78543 0)
(24.2297 -1.7924 0)
(24.2291 -1.79934 0)
(24.2286 -1.80626 0)
(24.2281 -1.81315 0)
(24.2276 -1.82002 0)
(24.2272 -1.82687 0)
(24.2268 -1.83368 0)
(24.2264 -1.84047 0)
(24.226 -1.84723 0)
(24.2256 -1.85401 0)
(24.2253 -1.86085 0)
(24.225 -1.8677 0)
(24.2247 -1.87453 0)
(24.2244 -1.88134 0)
(24.2242 -1.88813 0)
(24.224 -1.89491 0)
(24.2238 -1.90166 0)
(24.2236 -1.9084 0)
(24.2234 -1.91512 0)
(24.2233 -1.92182 0)
(24.2232 -1.9285 0)
(24.2231 -1.93516 0)
(24.223 -1.94181 0)
(24.2229 -1.94844 0)
(24.2229 -1.95504 0)
(24.2229 -1.96163 0)
(24.2229 -1.96821 0)
(24.2229 -1.97476 0)
(24.2229 -1.9813 0)
(24.223 -1.98782 0)
(24.223 -1.99432 0)
(24.2231 -2.0008 0)
(24.2232 -2.00726 0)
(24.2233 -2.01371 0)
(24.2235 -2.02014 0)
(24.2236 -2.02655 0)
(24.2238 -2.03294 0)
(24.224 -2.03932 0)
(24.2242 -2.04568 0)
(24.2244 -2.05202 0)
(24.2246 -2.05834 0)
(24.2249 -2.06465 0)
(24.2251 -2.07094 0)
(24.2254 -2.07721 0)
(24.2257 -2.08347 0)
(24.226 -2.08971 0)
(24.2263 -2.09593 0)
(24.2266 -2.10213 0)
(24.227 -2.10832 0)
(24.2273 -2.11449 0)
(24.2277 -2.12065 0)
(24.2281 -2.12679 0)
(24.2285 -2.13291 0)
(24.2289 -2.13903 0)
(24.1334 -1.85181 0)
(24.1343 -1.85778 0)
(24.1351 -1.86373 0)
(24.136 -1.86967 0)
(24.1369 -1.8756 0)
(24.1377 -1.88151 0)
(24.1386 -1.88742 0)
(24.1394 -1.8933 0)
(24.1403 -1.89918 0)
(24.1411 -1.90504 0)
(24.1419 -1.91089 0)
(24.1428 -1.91673 0)
(24.1436 -1.92255 0)
(24.1444 -1.92836 0)
(24.1453 -1.93416 0)
(24.1461 -1.93995 0)
(24.1469 -1.94572 0)
(24.1478 -1.95149 0)
(24.1486 -1.95724 0)
(24.1494 -1.96297 0)
(24.1503 -1.9687 0)
(24.1511 -1.97441 0)
(24.1519 -1.98011 0)
(24.1527 -1.9858 0)
(24.1536 -1.99147 0)
(24.1544 -1.99714 0)
(24.1552 -2.00279 0)
(24.1561 -2.00843 0)
(24.1569 -2.01406 0)
(24.1578 -2.01967 0)
(24.1587 -2.02527 0)
(24.1595 -2.03086 0)
(24.1604 -2.03643 0)
(24.1613 -2.042 0)
(24.1622 -2.04754 0)
(24.1631 -2.05308 0)
(24.164 -2.0586 0)
(24.1649 -2.06411 0)
(24.1658 -2.06959 0)
(24.1667 -2.07504 0)
(24.1676 -2.08048 0)
(24.1686 -2.08591 0)
(24.1695 -2.09133 0)
(24.1705 -2.09673 0)
(24.1715 -2.10212 0)
(24.1724 -2.1075 0)
(24.1734 -2.11286 0)
(24.1744 -2.11821 0)
(24.1754 -2.12354 0)
(24.1764 -2.12887 0)
(24.1775 -2.13417 0)
(24.1785 -2.13947 0)
(24.1795 -2.14475 0)
(24.1806 -2.15002 0)
(24.1816 -2.15528 0)
(24.1827 -2.16052 0)
(24.1838 -2.16575 0)
(24.1848 -2.17096 0)
(24.1859 -2.17616 0)
(24.187 -2.18135 0)
(24.1881 -2.18652 0)
(24.1893 -2.19168 0)
(24.1904 -2.19683 0)
(24.1915 -2.20196 0)
(24.1927 -2.20708 0)
(24.1938 -2.21218 0)
(24.195 -2.21727 0)
(24.1962 -2.22234 0)
(24.1974 -2.22741 0)
(24.1985 -2.23246 0)
(24.1998 -2.23749 0)
(24.201 -2.24251 0)
(24.2022 -2.24752 0)
(24.2035 -2.25252 0)
(24.2047 -2.2575 0)
(24.206 -2.26246 0)
(24.2073 -2.26741 0)
(24.2085 -2.27235 0)
(24.2098 -2.27727 0)
(24.2112 -2.28218 0)
(24.2125 -2.28708 0)
(24.2138 -2.29195 0)
(24.2152 -2.29682 0)
(24.2165 -2.30167 0)
(24.2179 -2.3065 0)
(24.2192 -2.31132 0)
(24.2206 -2.31612 0)
(24.222 -2.32088 0)
(24.2235 -2.32544 0)
(24.0006 -1.61503 0)
(23.9996 -1.62215 0)
(23.9986 -1.62927 0)
(23.9977 -1.6364 0)
(23.9968 -1.64353 0)
(23.9959 -1.65066 0)
(23.995 -1.65779 0)
(23.9942 -1.66493 0)
(23.9933 -1.67207 0)
(23.9926 -1.67921 0)
(23.9918 -1.68635 0)
(23.9911 -1.69348 0)
(23.9904 -1.70062 0)
(23.9897 -1.70775 0)
(23.9891 -1.71487 0)
(23.9885 -1.722 0)
(23.9879 -1.72911 0)
(23.9873 -1.73622 0)
(23.9868 -1.74333 0)
(23.9863 -1.75042 0)
(23.9858 -1.7575 0)
(23.9853 -1.76457 0)
(23.9849 -1.77163 0)
(23.9845 -1.77869 0)
(23.9841 -1.78586 0)
(23.9838 -1.79305 0)
(23.9835 -1.80024 0)
(23.9832 -1.80743 0)
(23.9829 -1.81462 0)
(23.9826 -1.8218 0)
(23.9824 -1.82897 0)
(23.9822 -1.83614 0)
(23.9821 -1.84331 0)
(23.9819 -1.85047 0)
(23.9818 -1.85763 0)
(23.9817 -1.86477 0)
(23.9817 -1.87192 0)
(23.9816 -1.87905 0)
(23.9816 -1.88618 0)
(23.9816 -1.8933 0)
(23.9816 -1.90041 0)
(23.9817 -1.90751 0)
(23.9818 -1.91461 0)
(23.9819 -1.9217 0)
(23.982 -1.92877 0)
(23.9822 -1.93584 0)
(23.9824 -1.9429 0)
(23.9826 -1.94995 0)
(23.9828 -1.95699 0)
(23.983 -1.96401 0)
(23.9833 -1.97103 0)