/*--------------------------------*- C++ -*----------------------------------*\
  =========                 |
  \\      /  F ield         | OpenFOAM: The Open Source CFD Toolbox
   \\    /   O peration     | Website:  https://openfoam.org
    \\  /    A nd           | Version:  8
     \\/     M anipulation  |
\*---------------------------------------------------------------------------*/
FoamFile
{
    version     2.0;
    format      ascii;
    class       surfaceScalarField;
    location    "0.02317";
    object      phi;
}
// * * * * * * * * * * * * * * * * * * * * * * * * * * * * * * * * * * * * * //

dimensions      [0 3 -1 0 0 0 0];

internalField   nonuniform List<scalar> 
216793
(
-0.00359989
0.0263999
-0.00840007
0.0708002
-0.0119999
0.1152
-0.0167996
0.1596
-0.0215994
0.204
-0.0251991
0.2484
-0.0287989
0.2916
-0.0323987
0.336
-0.0359985
0.3792
-0.0395983
0.4248
-0.0419981
0.4668
-0.0455979
0.5112
-0.0491976
0.5556
-0.0527974
0.5976
-0.0539971
0.6408
-0.0575969
0.6852
-0.0611967
0.7272
-0.0635964
0.7704
-0.0659962
0.8124
-0.0671959
0.8544
-0.0707957
0.8976
-0.0719954
0.9384
-0.0743952
0.9804
-0.0755949
1.0224
-0.0779946
1.0632
-0.0791944
1.104
-0.0815941
1.146
-0.0827939
1.1844
-0.0839936
1.2252
-0.0863933
1.266
-0.0875931
1.3044
-0.0887928
1.344
-0.0899925
1.3824
-0.0899923
1.4208
-0.091192
1.4592
-0.0911918
1.4964
-0.0923915
1.5348
-0.0935912
1.572
-0.093591
1.608
-0.0947907
1.644
-0.0947905
1.68
-0.0947902
1.716
-0.09479
1.7496
-0.0947897
1.7856
-0.0947895
1.8192
-0.0947892
1.8528
-0.094789
1.8864
-0.0935887
1.9188
-0.0935885
1.9512
-0.0935882
1.9836
-0.092388
2.0136
-0.0923878
2.046
-0.0911875
2.0748
-0.0905873
2.10564
-0.0897471
2.13468
-0.0887869
2.16336
-0.0878266
2.19168
-0.0868664
2.2194
-0.0856662
2.24652
-0.084466
2.27304
-0.0832658
2.2992
-0.0819456
2.32464
-0.0805054
2.34948
-0.0790652
2.37384
-0.077625
2.3976
-0.0760648
2.42076
-0.0743846
2.4432
-0.0728244
2.46528
-0.0711442
2.48664
-0.0693441
2.50728
-0.0675439
2.52744
-0.0656237
2.54688
-0.0637036
2.56572
-0.0616634
2.58396
-0.0596232
2.6016
-0.0577031
2.61864
-0.055543
2.63484
-0.0533828
2.65044
-0.0512227
2.66556
-0.0489425
2.67984
-0.0467824
2.69364
-0.0446223
2.7066
-0.0422221
2.71884
-0.039942
2.73072
-0.0375419
2.74164
-0.0351418
2.75196
-0.0327417
2.76168
-0.0303416
2.77068
-0.0279415
2.77896
-0.0254214
2.78652
-0.0229013
2.79348
-0.0203812
2.79972
-0.0178612
2.80536
-0.0152211
2.81004
-0.012821
2.81436
-0.010241
2.8178
-0.00768492
2.82058
-0.00511685
2.82266
-0.00254882
2.82404
1.92351e-05
2.82475
0.00258726
2.82475
0.00515531
2.82404
0.00772333
2.82266
0.0102794
2.82058
0.0128594
2.8178
0.0152594
2.81436
0.0178994
2.81004
0.0204194
2.80536
0.0229394
2.79972
0.0254594
2.79348
0.0279794
2.78652
0.0303794
2.77896
0.0327793
2.77068
0.0351793
2.76168
0.0375793
2.75196
0.0399792
2.74164
0.0422592
2.73072
0.0446591
2.71884
0.0468191
2.7066
0.048979
2.69364
0.051259
2.67984
0.0534189
2.66556
0.0555788
2.65044
0.0577387
2.63484
0.0596587
2.61864
0.0616986
2.6016
0.0637385
2.58396
0.0656584
2.56572
0.0675783
2.54688
0.0693781
2.52744
0.071178
2.50728
0.0728579
2.48664
0.0744178
2.46528
0.0760976
2.4432
0.0776575
2.42076
0.0790973
2.3976
0.0805372
2.37384
0.081977
2.34948
0.0832969
2.32464
0.0844967
2.2992
0.0856965
2.27304
0.0868964
2.24652
0.0878562
2.2194
0.088816
2.19168
0.0897758
2.16336
0.0906156
2.13468
0.0912154
2.10564
0.0924152
2.0748
0.092415
2.046
0.0936148
2.0136
0.0936145
1.9836
0.0936143
1.9512
0.0948141
1.9188
0.0948138
1.8864
0.0948136
1.8528
0.0948133
1.8192
0.0948131
1.7856
0.0948128
1.7496
0.0948126
1.716
0.0948123
1.68
0.093612
1.644
0.0936118
1.608
0.0924115
1.572
0.0912112
1.5348
0.0912109
1.4964
0.0900106
1.4592
0.0900103
1.4208
0.08881
1.3824
0.0876097
1.344
0.0864094
1.3044
0.0840091
1.266
0.0828088
1.2252
0.0816085
1.1844
0.0792082
1.146
0.0780078
1.104
0.0756075
1.0632
0.0744072
1.0224
0.0720069
0.9804
0.0708066
0.9384
0.0672062
0.8976
0.0660059
0.8544
0.0636056
0.8124
0.0612052
0.7704
0.0576049
0.7272
0.0540045
0.6852
0.0528042
0.6408
0.0492039
0.5976
0.0456035
0.5556
0.0420032
0.5112
0.0396028
0.4668
0.0360025
0.4248
0.0324021
0.3792
0.0288018
0.336
0.0252015
0.2916
0.0216011
0.2484
0.0168006
0.204
0.0120002
0.1596
0.00839985
0.1152
0.00360019
0.0707997
0.0264002
-0.00479938
0.0311993
-0.00959951
0.0756003
-0.0131996
0.1188
-0.0179993
0.164399
-0.0215986
0.207599
-0.0239979
0.250799
-0.0287972
0.296399
-0.0323966
0.339599
-0.035996
0.382799
-0.0395953
0.428399
-0.0431946
0.470399
-0.0467939
0.514799
-0.0479933
0.556799
-0.0515926
0.601199
-0.0551918
0.644399
-0.0575911
0.687599
-0.0599904
0.729599
-0.0623896
0.772799
-0.0647889
0.814799
-0.0683881
0.857999
-0.0695873
0.898799
-0.0731865
0.941999
-0.0743858
0.981599
-0.076785
1.0248
-0.0779842
1.0644
-0.0803834
1.1064
-0.0815826
1.1472
-0.0839818
1.1868
-0.085181
1.2264
-0.0851802
1.266
-0.0863794
1.3056
-0.0875786
1.3452
-0.0887778
1.3836
-0.089977
1.422
-0.0911762
1.4604
-0.0923754
1.4976
-0.0923746
1.5348
-0.0923738
1.572
-0.0935731
1.6092
-0.0935723
1.644
-0.0947715
1.6812
-0.0935707
1.7148
-0.0947699
1.7508
-0.0947692
1.7856
-0.0947684
1.8192
-0.0947677
1.8528
-0.0947669
1.8864
-0.0935662
1.9176
-0.0935654
1.9512
-0.0923647
1.9824
-0.093564
2.0148
-0.0911633
2.0436
-0.0911626
2.0748
-0.0905619
2.10504
-0.0897212
2.13384
-0.0888805
2.16252
-0.0877998
2.1906
-0.0867192
2.21832
-0.0856385
2.24544
-0.0845579
2.27196
-0.0832373
2.29788
-0.0819166
2.32332
-0.080476
2.34804
-0.0791554
2.37252
-0.0775948
2.39604
-0.0760342
2.4192
-0.0744737
2.44164
-0.0727931
2.4636
-0.0709926
2.48484
-0.069192
2.50548
-0.0673915
2.52564
-0.065471
2.54496
-0.0636705
2.56392
-0.06175
2.58204
-0.0597095
2.59956
-0.0575491
2.61648
-0.0555086
2.6328
-0.0534682
2.6484
-0.0511877
2.66328
-0.0490273
2.67768
-0.0467469
2.69136
-0.0444666
2.70432
-0.0421862
2.71656
-0.0397858
2.72832
-0.0375055
2.73936
-0.0351052
2.74956
-0.0327048
2.75928
-0.0301845
2.76816
-0.0277842
2.77656
-0.0253839
2.78412
-0.0228637
2.79096
-0.0203434
2.7972
-0.0178232
2.80284
-0.015303
2.80752
-0.0127828
2.81184
-0.0101906
2.81521
-0.0076344
2.81802
-0.00506624
2.8201
-0.00251011
2.82149
5.80251e-05
2.82218
0.00262613
2.82218
0.00518225
2.82149
0.00775035
2.8201
0.0103064
2.81802
0.0128985
2.81521
0.0154185
2.81184
0.0179385
2.80752
0.0204585
2.80284
0.0229785
2.7972
0.0254985
2.79096
0.0278984
2.78412
0.0302984
2.77656
0.0328183
2.76816
0.0352183
2.75928
0.0376182
2.74956
0.039898
2.73936
0.0422979
2.72832
0.0445778
2.71656
0.0468576
2.70432
0.0491374
2.69136
0.0512972
2.67768
0.053577
2.66328
0.0556168
2.6484
0.0576565
2.6328
0.0598163
2.61648
0.061856
2.59956
0.0637757
2.58204
0.0655754
2.56392
0.067495
2.54496
0.0692947
2.52564
0.0710943
2.50548
0.072894
2.48484
0.0745736
2.4636
0.0761332
2.44164
0.0776927
2.4192
0.0792523
2.39604
0.0805719
2.37252
0.0820114
2.34804
0.0833309
2.32332
0.0846504
2.29788
0.0857299
2.27196
0.0868093
2.24544
0.0878888
2.21832
0.0889682
2.1906
0.0898076
2.16252
0.090647
2.13384
0.0912464
2.10504
0.0912457
2.0748
0.0936451
2.0436
0.0924444
2.0148
0.0936437
1.9824
0.093643
1.9512
0.0948423
1.9176
0.0948416
1.8864
0.0948409
1.8528
0.0948401
1.8192
0.0948394
1.7856
0.0936385
1.7508
0.0948378
1.7148
0.0936369
1.6812
0.0936361
1.644
0.0924353
1.6092
0.0924344
1.572
0.0924336
1.5348
0.0912327
1.4976
0.0900318
1.4604
0.0888309
1.422
0.08763
1.3836
0.086429
1.3452
0.0852281
1.3056
0.0852272
1.266
0.0840263
1.2264
0.0816253
1.1868
0.0804243
1.1472
0.0780233
1.1064
0.0768224
1.0644
0.0744213
1.0248
0.0732204
0.981601
0.0696193
0.942001
0.0684183
0.898801
0.0648173
0.858001
0.0624163
0.814801
0.0600152
0.772801
0.0576142
0.729601
0.0552132
0.687601
0.0516121
0.644401
0.0480111
0.601201
0.0468101
0.556801
0.043209
0.514801
0.039608
0.470401
0.0360069
0.428401
0.0324059
0.382801
0.0288049
0.339601
0.0240038
0.296401
0.0216025
0.250802
0.0180013
0.207602
0.0132006
0.164401
0.00960093
0.1188
0.00480118
0.0755994
0.0312014
-0.00479908
0.0359984
-0.0083986
0.0791998
-0.0131989
0.1236
-0.0167988
0.167999
-0.0203981
0.211198
-0.0251969
0.255598
-0.0287957
0.299998
-0.0323946
0.343198
-0.0359936
0.386398
-0.0383925
0.430798
-0.0431914
0.475198
-0.0455902
0.517198
-0.0491891
0.560398
-0.0527879
0.604798
-0.0551867
0.646798
-0.0575855
0.689998
-0.0611842
0.733198
-0.063583
0.775198
-0.0659817
0.817198
-0.0671805
0.859198
-0.0707792
0.902398
-0.0719779
0.943198
-0.0755766
0.985198
-0.0767753
1.026
-0.0791739
1.0668
-0.0803726
1.1076
-0.0815713
1.1484
-0.08277
1.188
-0.0839687
1.2276
-0.0863673
1.2684
-0.087566
1.3068
-0.0887646
1.3464
-0.0899633
1.3848
-0.091162
1.4232
-0.0911606
1.4604
-0.0923593
1.4988
-0.092358
1.5348
-0.0935566
1.5732
-0.0935553
1.6092
-0.094754
1.6452
-0.0935527
1.68
-0.0947514
1.716
-0.0947501
1.7508
-0.0947488
1.7856
-0.0947475
1.8192
-0.0947462
1.8528
-0.093545
1.8852
-0.0947437
1.9188
-0.0935425
1.95
-0.0935413
1.9824
-0.0923401
2.0136
-0.0923388
2.0436
-0.0923376
2.0748
-0.0905365
2.10324
-0.0896953
2.133
-0.0887342
2.16156
-0.0877731
2.18964
-0.0868119
2.21736
-0.0856108
2.24424
-0.0844097
2.27076
-0.0830886
2.29656
-0.0817676
2.322
-0.0805666
2.34684
-0.0790055
2.37096
-0.0775645
2.3946
-0.0760036
2.41764
-0.0743226
2.43996
-0.0726416
2.46192
-0.0709607
2.48316
-0.0692798
2.5038
-0.0673589
2.52372
-0.0655581
2.54316
-0.0635172
2.56188
-0.0615964
2.58012
-0.0596756
2.59764
-0.0576348
2.61444
-0.055474
2.63064
-0.0533133
2.64624
-0.0511525
2.66112
-0.0489919
2.67552
-0.0467112
2.68908
-0.0444305
2.70204
-0.0421499
2.71428
-0.0398693
2.72604
-0.0374687
2.73696
-0.0350681
2.74716
-0.0326676
2.75688
-0.0302671
2.76576
-0.0277465
2.77404
-0.0252261
2.7816
-0.0228257
2.78856
-0.0203052
2.79468
-0.0177848
2.80032
-0.0152644
2.805
-0.0127441
2.80932
-0.0101638
2.81263
-0.00760751
2.81546
-0.00503925
2.81753
-0.00247096
2.81892
9.72695e-05
2.81962
0.00266546
2.81962
0.00523359
2.81892
0.00780176
2.81753
0.0103579
2.81546
0.012938
2.81263
0.0154581
2.80932
0.0179781
2.805
0.0204981
2.80032
0.0230181
2.79468
0.0254181
2.78856
0.027938
2.7816
0.0304579
2.77404
0.0328578
2.76576
0.0352577
2.75688
0.0376574
2.74716
0.0400573
2.73696
0.0423371
2.72604
0.0446168
2.71428
0.0468965
2.70204
0.0491762
2.68908
0.0513359
2.67552
0.0534955
2.66112
0.0556551
2.64624
0.0578147
2.63064
0.0598542
2.61444
0.0617738
2.59764
0.0636933
2.58012
0.0657327
2.56188
0.0675322
2.54316
0.0694516
2.52372
0.071131
2.5038
0.0728104
2.48316
0.0744896
2.46192
0.076169
2.43996
0.0777283
2.41764
0.0791675
2.3946
0.0807267
2.37096
0.0819259
2.34684
0.0832451
2.322
0.0845643
2.29656
0.0857633
2.27076
0.0869625
2.24424
0.0879214
2.21736
0.0888805
2.18964
0.0898396
2.16156
0.0906785
2.133
0.0924775
2.10324
0.0924764
2.0748
0.0924752
2.0436
0.0936741
2.0136
0.093673
1.9824
0.0948718
1.95
0.0936706
1.9188
0.0948694
1.8852
0.0948681
1.8528
0.0948669
1.8192
0.0948655
1.7856
0.0948642
1.7508
0.0936628
1.716
0.0948615
1.68
0.0936601
1.6452
0.0936587
1.6092
0.0924572
1.5732
0.0924558
1.5348
0.0912543
1.4988
0.0912528
1.4604
0.0900513
1.4232
0.0888498
1.3848
0.0876482
1.3464
0.0864467
1.3068
0.084045
1.2684
0.0828434
1.2276
0.0816419
1.188
0.0804402
1.1484
0.0792386
1.1076
0.0768369
1.0668
0.0756353
1.026
0.0720336
0.985203
0.0708319
0.943203
0.0672301
0.902403
0.0660285
0.859203
0.0636268
0.817203
0.0612251
0.775203
0.0576233
0.733203
0.0552216
0.690003
0.0528199
0.646803
0.0492181
0.604803
0.0456163
0.560403
0.0432146
0.517203
0.0384128
0.475203
0.0360111
0.430803
0.0324095
0.386403
0.0288077
0.343203
0.0252056
0.300004
0.0204035
0.255604
0.0168021
0.211203
0.0132021
0.168001
0.00840268
0.123599
0.00480179
0.0792003
0.0360032
-0.00359906
0.0395974
-0.00839784
0.0839986
-0.0131978
0.1284
-0.0167981
0.1716
-0.0215976
0.215998
-0.0251962
0.259197
-0.0287945
0.303596
-0.0323929
0.346797
-0.0359914
0.389997
-0.0395899
0.434397
-0.0419884
0.477596
-0.0455868
0.520796
-0.0491852
0.563996
-0.0515835
0.607196
-0.0551818
0.650396
-0.0575801
0.692396
-0.0599784
0.735596
-0.0623767
0.777596
-0.0659749
0.820796
-0.0683731
0.861596
-0.0695714
0.903596
-0.0719695
0.945596
-0.0743677
0.987596
-0.0755659
1.0272
-0.077964
1.0692
-0.0791622
1.1088
-0.0815603
1.1508
-0.0827584
1.1892
-0.0851565
1.23
-0.0863546
1.2696
-0.0875528
1.308
-0.0875509
1.3464
-0.088749
1.386
-0.0899471
1.4244
-0.0911452
1.4616
-0.0911434
1.4988
-0.0935414
1.5372
-0.0935396
1.5732
-0.0935377
1.6092
-0.0935359
1.6452
-0.0947339
1.6812
-0.0947321
1.716
-0.0947303
1.7508
-0.0947285
1.7856
-0.0947267
1.8192
-0.0947249
1.8528
-0.0947231
1.8852
-0.0935213
1.9176
-0.0935196
1.95
-0.0935178
1.9824
-0.0923161
2.0124
-0.0923144
2.0436
-0.0911127
2.0736
-0.090511
2.10264
-0.0896694
2.13216
-0.0887078
2.1606
-0.0878661
2.1888
-0.0866646
2.21616
-0.085583
2.24316
-0.0843815
2.26956
-0.0831799
2.29536
-0.0818584
2.32068
-0.0804169
2.3454
-0.0789756
2.36952
-0.0775341
2.39316
-0.0758527
2.41596
-0.0744113
2.43852
-0.07273
2.46024
-0.0709286
2.48136
-0.0691273
2.502
-0.0673261
2.52192
-0.0655249
2.54136
-0.0636036
2.55996
-0.0615625
2.57808
-0.0595213
2.5956
-0.0574802
2.6124
-0.0554391
2.6286
-0.053278
2.64408
-0.0512371
2.65908
-0.048956
2.67324
-0.046675
2.6868
-0.0443941
2.69976
-0.0422333
2.71212
-0.0398324
2.72364
-0.0374315
2.73456
-0.0350307
2.74476
-0.0326299
2.75448
-0.0302292
2.76336
-0.0277085
2.77152
-0.0253078
2.7792
-0.0227872
2.78604
-0.0202666
2.79216
-0.017746
2.7978
-0.0152255
2.80248
-0.0125849
2.80668
-0.0101245
2.81017
-0.00755605
2.8129
-0.00499968
2.81497
-0.00243134
2.81635
0.000136986
2.81705
0.00270526
2.81705
0.00527352
2.81635
0.00782975
2.81497
0.0103979
2.8129
0.012858
2.81017
0.0154981
2.80668
0.0180182
2.80248
0.0205382
2.7978
0.0230582
2.79216
0.0255781
2.78604
0.027978
2.7792
0.0304979
2.77152
0.0328977
2.76336
0.0352975
2.75448
0.0376973
2.74476
0.040097
2.73456
0.0424966
2.72364
0.0446563
2.71212
0.0469359
2.69976
0.0492155
2.6868
0.0514949
2.67324
0.0535345
2.65908
0.0556939
2.64408
0.0577332
2.6286
0.0597727
2.6124
0.061812
2.5956
0.0638513
2.57808
0.0657705
2.55996
0.0675697
2.54136
0.0693689
2.52192
0.071168
2.502
0.072967
2.48136
0.0746461
2.46024
0.0760851
2.43852
0.0777641
2.41596
0.079203
2.39316
0.0806419
2.36952
0.0820808
2.3454
0.0833996
2.32068
0.0845983
2.29536
0.0857971
2.26956
0.0868757
2.24316
0.0880744
2.21616
0.088913
2.1888
0.0898716
2.1606
0.0907102
2.13216
0.0913087
2.10264
0.0925071
2.0736
0.0925055
2.0436
0.093704
2.0124
0.0937023
1.9824
0.0937006
1.95
0.094899
1.9176
0.0948972
1.8852
0.0948954
1.8528
0.0948936
1.8192
0.0948917
1.7856
0.0948899
1.7508
0.094888
1.716
0.093686
1.6812
0.093684
1.6452
0.0936821
1.6092
0.09368
1.5732
0.0912779
1.5372
0.0912758
1.4988
0.0900737
1.4616
0.0888715
1.4244
0.0876694
1.386
0.0876672
1.3464
0.086465
1.308
0.0852628
1.26961
0.0828605
1.23001
0.0816582
1.18921
0.0792559
1.15081
0.0780536
1.10881
0.0756512
1.06921
0.0744489
1.02721
0.0720465
0.987605
0.0696441
0.945605
0.0684418
0.903605
0.0660394
0.861605
0.0624369
0.820806
0.0600345
0.777605
0.0576321
0.735606
0.0552297
0.692406
0.0516272
0.650406
0.0492248
0.607206
0.0456223
0.564006
0.0420198
0.520806
0.0396174
0.477606
0.0360151
0.434405
0.0324126
0.390005
0.0288099
0.346806
0.0252069
0.303606
0.0216045
0.259206
0.0168036
0.216004
0.0132042
0.1716
0.00840417
0.1284
0.00360183
0.0840026
0.039605
-0.00479898
0.0443964
-0.00959729
0.0887969
-0.0131966
0.131999
-0.0167969
0.1752
-0.0203968
0.219598
-0.0251957
0.263995
-0.0287937
0.307194
-0.0323915
0.350394
-0.0359895
0.393595
-0.0395876
0.437995
-0.0431856
0.481194
-0.0467835
0.524394
-0.0491815
0.566394
-0.0527793
0.610794
-0.0551772
0.652794
-0.058775
0.695994
-0.0611728
0.737994
-0.0635706
0.779994
-0.0647684
0.821994
-0.068366
0.865194
-0.0707637
0.905994
-0.0731614
0.947994
-0.0743591
0.988793
-0.0767567
1.02959
-0.0779543
1.07039
-0.0803519
1.11119
-0.0815495
1.15199
-0.0827471
1.19039
-0.0839447
1.23119
-0.0851423
1.27079
-0.0863398
1.30919
-0.0887374
1.34879
-0.0899349
1.38719
-0.0899325
1.42439
-0.09113
1.46279
-0.0923276
1.49999
-0.0923252
1.53719
-0.0923228
1.57319
-0.0935203
1.61039
-0.0935179
1.64519
-0.0935155
1.68119
-0.0947131
1.71719
-0.0947107
1.75079
-0.0947083
1.78559
-0.0947059
1.81919
-0.0935037
1.85159
-0.0935014
1.88519
-0.094699
1.91879
-0.0934967
1.94879
-0.0922945
1.98119
-0.0922922
2.01239
-0.09109
2.04239
-0.0910878
2.07359
-0.0904856
2.10203
-0.0896435
2.13131
-0.0888013
2.15975
-0.0877192
2.18771
-0.0866372
2.21507
-0.0855551
2.24207
-0.0843531
2.26835
-0.0831511
2.29415
-0.0818292
2.31935
-0.0803873
2.34395
-0.0790653
2.36819
-0.0775035
2.39159
-0.0759416
2.4144
-0.0742599
2.43684
-0.0725781
2.45856
-0.0708964
2.47968
-0.0692147
2.50032
-0.067413
2.52012
-0.0653715
2.53932
-0.0635699
2.55816
-0.0616482
2.57616
-0.0596068
2.59356
-0.0575653
2.61036
-0.055404
2.62644
-0.0532425
2.64192
-0.0510811
2.65692
-0.0489198
2.67108
-0.0466386
2.68452
-0.0443574
2.69748
-0.0420761
2.70984
-0.039675
2.72124
-0.0373939
2.73228
-0.0349929
2.74236
-0.0325918
2.75208
-0.0300708
2.76084
-0.0277899
2.76924
-0.025149
2.77656
-0.0227482
2.78364
-0.0202275
2.78964
-0.0177067
2.79528
-0.0151861
2.79996
-0.0126653
2.80416
-0.0100728
2.80758
-0.00752827
2.81035
-0.00495968
2.8124
-0.00239123
2.81378
0.000177187
2.81448
0.00274555
2.81448
0.00531389
2.81378
0.00788208
2.8124
0.0104263
2.81035
0.0130186
2.80758
0.0155386
2.80416
0.0180588
2.79996
0.0205788
2.79528
0.0230988
2.78964
0.0254987
2.78364
0.0281386
2.77656
0.0304184
2.76924
0.0329382
2.76084
0.0353379
2.75208
0.0377376
2.74236
0.0400173
2.73228
0.0424168
2.72124
0.0446962
2.70984
0.0469757
2.69748
0.0492552
2.68452
0.0514145
2.67108
0.0535738
2.65692
0.055733
2.64192
0.0578923
2.62644
0.0599314
2.61036
0.0619707
2.59356
0.0638896
2.57616
0.0656886
2.55816
0.0677276
2.53932
0.0695265
2.52012
0.0712053
2.50032
0.0728842
2.47968
0.0745629
2.45856
0.0762416
2.43684
0.0778003
2.4144
0.0793589
2.3916
0.0806773
2.3682
0.0821158
2.34396
0.0834343
2.31936
0.0846326
2.29416
0.085831
2.26836
0.0869093
2.24208
0.0879876
2.21508
0.0890658
2.18772
0.0899039
2.15977
0.090742
2.13133
0.09134
2.10205
0.091338
2.07361
0.092536
2.04241
0.0925338
2.01241
0.0937317
1.98121
0.0949295
1.94881
0.0937272
1.91881
0.093725
1.88521
0.0949228
1.85161
0.0949203
1.81921
0.094918
1.78561
0.0949155
1.75081
0.0937129
1.71721
0.0937104
1.68121
0.0937078
1.64521
0.0925052
1.61041
0.0925026
1.57321
0.0925
1.53721
0.0912972
1.50001
0.0900944
1.46281
0.0900917
1.42441
0.0888889
1.38721
0.086486
1.34881
0.0852831
1.30921
0.0840802
1.27081
0.0828772
1.23121
0.0816743
1.19041
0.0804713
1.15201
0.0780683
1.11121
0.0768654
1.07041
0.0744623
1.02961
0.0732593
0.988808
0.0708562
0.948008
0.0684531
0.906009
0.0648499
0.865209
0.0636469
0.822009
0.0612438
0.780009
0.0588407
0.738009
0.0552375
0.696009
0.0528343
0.652809
0.0492311
0.610809
0.046828
0.566409
0.0432248
0.524409
0.0396217
0.481209
0.0360186
0.438009
0.0324152
0.393609
0.0288115
0.35041
0.0252079
0.30721
0.0204059
0.264008
0.016806
0.219604
0.0132066
0.1752
0.00960528
0.132001
0.00480201
0.0888059
0.044407
-0.00479894
0.0491953
-0.00839711
0.0923951
-0.0131956
0.136798
-0.0179953
0.18
-0.0215956
0.223198
-0.025195
0.267595
-0.028793
0.310792
-0.0323905
0.353992
-0.0371878
0.398392
-0.0395854
0.440392
-0.043183
0.484792
-0.0455806
0.526792
-0.0491781
0.569992
-0.0515756
0.613192
-0.0551729
0.656391
-0.0575703
0.698391
-0.0599676
0.740391
-0.0635648
0.783591
-0.065962
0.824391
-0.0671593
0.866391
-0.0695565
0.908391
-0.0719536
0.950391
-0.0743507
0.991191
-0.0767478
1.03199
-0.0779449
1.07159
-0.0803419
1.11359
-0.081539
1.15319
-0.083936
1.19279
-0.085133
1.23239
-0.08633
1.27199
-0.0875271
1.31039
-0.088724
1.34999
-0.0887211
1.38719
-0.0899181
1.42559
-0.091115
1.46399
-0.092312
1.50119
-0.092309
1.53719
-0.093506
1.57439
-0.093503
1.61039
-0.0947
1.64639
-0.0946971
1.68119
-0.0946941
1.71719
-0.0946912
1.75079
-0.0946883
1.78559
-0.0946854
1.81919
-0.0946825
1.85159
-0.0946796
1.88519
-0.0934768
1.91759
-0.0934739
1.94879
-0.0934711
1.98119
-0.0922684
2.01119
-0.0922656
2.04239
-0.0910628
2.07239
-0.0904602
2.10143
-0.0896175
2.13047
-0.0886549
2.15879
-0.0876923
2.18675
-0.0867296
2.21411
-0.0855272
2.24087
-0.0843246
2.26715
-0.0831223
2.29295
-0.0817998
2.31803
-0.0804774
2.34263
-0.078915
2.36663
-0.0773528
2.39003
-0.0759105
2.41295
-0.0743482
2.43527
-0.072666
2.45687
-0.0709838
2.47799
-0.0690618
2.49839
-0.0672598
2.51831
-0.0654576
2.53751
-0.0635357
2.55623
-0.0614938
2.57411
-0.0594519
2.59151
-0.0574101
2.60831
-0.0553683
2.62439
-0.0533266
2.63987
-0.0510449
2.65463
-0.0487634
2.66879
-0.0466017
2.68235
-0.0444401
2.69532
-0.0420387
2.70744
-0.0397573
2.71896
-0.037236
2.72976
-0.0349546
2.74008
-0.0325534
2.74968
-0.0301522
2.75844
-0.0276311
2.76672
-0.02523
2.77416
-0.0225889
2.781
-0.0201879
2.78724
-0.0176671
2.79276
-0.015146
2.79744
-0.0126254
2.80164
-0.0100444
2.805
-0.0074758
2.80778
-0.00491919
2.80985
-0.00235063
2.81121
0.000217883
2.81191
0.00278634
2.81191
0.00535476
2.81121
0.00791112
2.80985
0.0104794
2.80778
0.0130595
2.805
0.0155798
2.80164
0.0180997
2.79744
0.0206198
2.79276
0.0230198
2.78724
0.0256597
2.781
0.0280595
2.77416
0.0305793
2.76672
0.032979
2.75844
0.0353787
2.74968
0.0376582
2.74008
0.0401778
2.72976
0.0424573
2.71896
0.0448568
2.70744
0.0470161
2.69532
0.0491752
2.68236
0.0514545
2.6688
0.0537337
2.65464
0.0557728
2.63988
0.0578118
2.6244
0.0598508
2.60832
0.0618896
2.59152
0.0639284
2.57412
0.0658473
2.55624
0.0676458
2.53752
0.0694445
2.51832
0.0713631
2.4984
0.0730416
2.478
0.07472
2.45688
0.0762783
2.43529
0.0777166
2.41297
0.079275
2.39005
0.0808331
2.36665
0.0821512
2.34265
0.0834692
2.31805
0.0846674
2.29297
0.0858652
2.26717
0.0870632
2.24089
0.0880208
2.21413
0.0889787
2.18677
0.0899363
2.15881
0.0907739
2.13049
0.0913716
2.10145
0.092569
2.07241
0.0925665
2.04241
0.0937639
2.01121
0.0937612
1.98121
0.0937585
1.94881
0.0949557
1.91761
0.0949529
1.88521
0.09495
1.85161
0.0949471
1.81921
0.0949441
1.78561
0.0949411
1.75081
0.094938
1.71721
0.094935
1.68121
0.0937317
1.64641
0.0937285
1.61041
0.0925251
1.57441
0.0925219
1.53721
0.0913185
1.50121
0.090115
1.46401
0.0889116
1.42561
0.0889082
1.38721
0.0877046
1.35001
0.0865011
1.31041
0.0852975
1.27201
0.084094
1.23241
0.0816903
1.19281
0.0804866
1.15321
0.0780829
1.11361
0.0768792
1.07161
0.0744754
1.03201
0.0720716
0.991212
0.0696678
0.950412
0.067264
0.908412
0.0660603
0.866412
0.0636565
0.824412
0.0600525
0.783613
0.0576487
0.740412
0.0552449
0.698413
0.0516409
0.656413
0.0492371
0.613213
0.0456332
0.570013
0.0432295
0.526813
0.0396256
0.484813
0.0372217
0.440413
0.0324172
0.398413
0.0288127
0.354014
0.0252093
0.310813
0.0216083
0.267609
0.018009
0.223203
0.0132086
0.18
0.00840568
0.136804
0.00480211
0.0924095
0.0492091
-0.00359902
0.0527944
-0.00839704
0.0971931
-0.0119949
0.140396
-0.0167939
0.184799
-0.0215941
0.227998
-0.0251939
0.271195
-0.0287924
0.314391
-0.0323897
0.357589
-0.0359866
0.401989
-0.0395836
0.443989
-0.0419808
0.487189
-0.0455779
0.530389
-0.0491749
0.573589
-0.0527718
0.616788
-0.0551688
0.658788
-0.0575657
0.700788
-0.0611625
0.743988
-0.0623594
0.784788
-0.065956
0.827988
-0.0683527
0.868788
-0.0707493
0.910787
-0.0719461
0.951587
-0.0743426
0.993587
-0.0755393
1.03319
-0.0791357
1.07519
-0.0791323
1.11359
-0.0815288
1.15559
-0.0827252
1.19399
-0.0839217
1.23359
-0.0851182
1.27319
-0.0875145
1.31279
-0.087511
1.34999
-0.0899074
1.38959
-0.0911038
1.42679
-0.0911003
1.46399
-0.0910967
1.50119
-0.0922931
1.53839
-0.0934895
1.57559
-0.093486
1.61039
-0.0934825
1.64639
-0.0946789
1.68239
-0.0934754
1.71599
-0.0946718
1.75199
-0.0946683
1.78559
-0.0934649
1.81799
-0.0946614
1.85279
-0.0946579
1.88519
-0.0934546
1.91639
-0.0934512
1.94879
-0.0934478
1.98119
-0.0934445
2.01119
-0.0922412
2.04119
-0.091038
2.07119
-0.0904348
2.10083
-0.0894716
2.12951
-0.0886284
2.15795
-0.0876652
2.18579
-0.0865822
2.21303
-0.0854992
2.23979
-0.0842962
2.26595
-0.0830932
2.29175
-0.0817703
2.31671
-0.0803273
2.34119
-0.0788846
2.36519
-0.0774418
2.38859
-0.075879
2.41139
-0.0741965
2.43359
-0.0726338
2.45531
-0.0708312
2.47619
-0.0691487
2.49671
-0.0672262
2.51639
-0.0654238
2.53571
-0.0633814
2.55419
-0.0614591
2.57219
-0.0595369
2.58959
-0.0573747
2.60615
-0.0553325
2.62235
-0.0531704
2.63771
-0.0510084
2.65247
-0.0488464
2.66663
-0.0466846
2.68019
-0.0442827
2.69291
-0.042001
2.70515
-0.0395993
2.71655
-0.0373175
2.72747
-0.034916
2.73767
-0.0325145
2.74727
-0.0301131
2.75603
-0.0275915
2.76419
-0.0251904
2.77176
-0.0226691
2.77848
-0.0201479
2.78472
-0.0176267
2.79024
-0.0151058
2.79492
-0.0124647
2.799
-0.0100039
2.80254
-0.00744693
2.80522
-0.0048782
2.80728
-0.00230953
2.80865
0.000259087
2.80934
0.00282764
2.80934
0.00539615
2.80865
0.00796459
2.80728
0.0105208
2.80523
0.0129811
2.80254
0.0156212
2.799
0.0181414
2.79492
0.0206614
2.79024
0.0231814
2.78472
0.0257012
2.77848
0.0281012
2.77176
0.0306208
2.7642
0.0330205
2.75604
0.0354201
2.74728
0.0378196
2.73768
0.040099
2.72748
0.0424982
2.71656
0.0447776
2.70516
0.0471768
2.69292
0.049336
2.6802
0.051495
2.66664
0.053654
2.65248
0.0558129
2.63772
0.0578515
2.62236
0.0600103
2.60616
0.061929
2.5896
0.0638476
2.57221
0.0658861
2.55421
0.0676846
2.53573
0.0696029
2.51641
0.0712811
2.49673
0.0730793
2.47621
0.0746374
2.45533
0.0763155
2.43361
0.0778735
2.41141
0.0793113
2.38861
0.0807492
2.36521
0.0821869
2.34121
0.0835046
2.31673
0.0847021
2.29177
0.0858995
2.26597
0.0869771
2.23981
0.0880545
2.21305
0.0890118
2.18581
0.0898489
2.15797
0.0908061
2.12953
0.0914031
2.10085
0.0926002
2.07121
0.0937972
2.04121
0.093794
2.01121
0.0937908
1.98121
0.0937875
1.94881
0.0949843
1.91641
0.0949809
1.88521
0.0937773
1.85281
0.0949739
1.81801
0.0949703
1.78561
0.0937665
1.75201
0.094963
1.71601
0.0937591
1.68241
0.0937554
1.64641
0.0937516
1.61041
0.0925476
1.57561
0.0913435
1.53841
0.0913396
1.50121
0.0913356
1.46401
0.0901315
1.42682
0.0877272
1.38962
0.0877231
1.35002
0.0853187
1.31282
0.0841145
1.27322
0.0829102
1.23362
0.0817059
1.19402
0.0793014
1.15562
0.0792972
1.11362
0.0756926
1.07522
0.0744882
1.03322
0.0720837
0.993617
0.0708793
0.951617
0.0684748
0.910817
0.0660702
0.868817
0.0624656
0.828017
0.0612612
0.784817
0.0576565
0.744017
0.055252
0.700817
0.0528475
0.658817
0.0492428
0.616817
0.0456382
0.573617
0.0420336
0.530417
0.039629
0.487217
0.0360241
0.444017
0.0324188
0.402019
0.0288141
0.357619
0.0252115
0.314416
0.0216114
0.271209
0.0168118
0.228003
0.01201
0.184802
0.00840587
0.140408
0.00360199
0.0972134
0.0528111
-0.00479883
0.0575932
-0.00959691
0.101991
-0.0131944
0.143993
-0.0167926
0.188397
-0.0203924
0.231598
-0.0239925
0.274795
-0.0287915
0.31919
-0.0323889
0.361187
-0.0359856
0.405586
-0.0395821
0.447586
-0.0431787
0.490786
-0.0467754
0.533986
-0.049172
0.575985
-0.0515686
0.619185
-0.055165
0.662385
-0.0575614
0.703185
-0.0599578
0.746384
-0.063554
0.788384
-0.0647504
0.829184
-0.0683465
0.872384
-0.0695427
0.911984
-0.0731386
0.955183
-0.0743348
0.994783
-0.0767308
1.03558
-0.0779269
1.07638
-0.0803228
1.11598
-0.0815188
1.15678
-0.0827148
1.19518
-0.0851105
1.23598
-0.0863064
1.27438
-0.0863025
1.31278
-0.0886982
1.35238
-0.0886941
1.38958
-0.0898899
1.42798
-0.0910857
1.46518
-0.0922816
1.50238
-0.0922774
1.53838
-0.0922733
1.57558
-0.0934692
1.61158
-0.0946649
1.64758
-0.0934609
1.68118
-0.0946567
1.71718
-0.0946527
1.75198
-0.0946486
1.78558
-0.0946446
1.81798
-0.0946405
1.85278
-0.0934366
1.88398
-0.0946324
1.91758
-0.0934286
1.94758
-0.0922247
1.97998
-0.0922208
2.01118
-0.0922168
2.04118
-0.0910131
2.06998
-0.0904092
2.10022
-0.0895656
2.12866
-0.0887218
2.1571
-0.0876382
2.1847
-0.0866746
2.21207
-0.085471
2.23859
-0.0843874
2.26487
-0.082944
2.29031
-0.0816207
2.31539
-0.0802973
2.33987
-0.0789739
2.36387
-0.0774107
2.38703
-0.0758475
2.40983
-0.0742843
2.43203
-0.0724812
2.45351
-0.0707983
2.47451
-0.0689953
2.49491
-0.0671924
2.51459
-0.0652696
2.53379
-0.0634667
2.55239
-0.0615441
2.57027
-0.0593813
2.58743
-0.0574588
2.60423
-0.0552963
2.62019
-0.0531338
2.63555
-0.0509716
2.65031
-0.0488091
2.66447
-0.046527
2.67791
-0.0442448
2.69063
-0.0419627
2.70287
-0.0396807
2.71427
-0.0372787
2.72507
-0.0348769
2.73527
-0.0324752
2.74487
-0.0299533
2.75351
-0.0275519
2.76179
-0.0250301
2.76923
-0.0226286
2.77607
-0.0201074
2.78219
-0.017586
2.78771
-0.0150649
2.7924
-0.0125437
2.79648
-0.00995066
2.79994
-0.00739373
2.80267
-0.0048367
2.80472
-0.00226791
2.80608
0.000300811
2.80677
0.00286946
2.80677
0.00543806
2.80608
0.0079944
2.80472
0.0105508
2.80267
0.0131432
2.79995
0.0156633
2.79648
0.0181836
2.7924
0.0207036
2.78772
0.0232236
2.7822
0.0256235
2.77608
0.0281431
2.76924
0.0305429
2.7618
0.0330624
2.75352
0.0354619
2.74488
0.0378614
2.73528
0.0402606
2.72508
0.0425399
2.71428
0.044819
2.70288
0.047098
2.69064
0.0493771
2.67792
0.0515358
2.66448
0.0536947
2.65032
0.0558534
2.63557
0.058012
2.62021
0.0599306
2.60425
0.0620889
2.58745
0.0640073
2.57029
0.0658054
2.55241
0.0677236
2.53381
0.0695216
2.51461
0.0713195
2.49493
0.0729975
2.47453
0.0747953
2.45353
0.076353
2.43205
0.0779106
2.40985
0.0794681
2.38705
0.0807854
2.36389
0.0821028
2.33989
0.0834201
2.31541
0.0848574
2.29033
0.0859343
2.26489
0.0871313
2.23861
0.0880883
2.21209
0.0891651
2.18473
0.0900018
2.15713
0.0908385
2.12869
0.0914349
2.10025
0.0926316
2.07001
0.0926278
2.04121
0.0926241
2.01122
0.0938205
1.98002
0.0950168
1.94762
0.0938126
1.91762
0.0950088
1.88402
0.0950047
1.85282
0.0950006
1.81802
0.0949964
1.78562
0.0949922
1.75202
0.0937877
1.71722
0.0949836
1.68122
0.0937789
1.64762
0.0925744
1.61162
0.0925699
1.57562
0.0925652
1.53842
0.0913606
1.50242
0.0901558
1.46522
0.0889509
1.42802
0.0889462
1.38962
0.0865411
1.35242
0.0865364
1.31282
0.0853314
1.27442
0.0829262
1.23602
0.0817212
1.19522
0.0805162
1.15682
0.0781111
1.11602
0.076906
1.07642
0.0745007
1.03562
0.0732957
0.994822
0.0696902
0.955222
0.0684852
0.912022
0.0648797
0.872422
0.0636746
0.829222
0.0600692
0.788422
0.057664
0.746422
0.0552588
0.703222
0.0516534
0.662423
0.0492481
0.619223
0.0468429
0.576022
0.0432376
0.534022
0.0396321
0.490823
0.0360262
0.447623
0.0324203
0.405624
0.028816
0.361223
0.0240143
0.319218
0.0204148
0.274809
0.0168144
0.231603
0.013211
0.188405
0.0096062
0.144013
0.00480239
0.102017