/*--------------------------------*- C++ -*----------------------------------*\
  =========                 |
  \\      /  F ield         | OpenFOAM: The Open Source CFD Toolbox
   \\    /   O peration     | Website:  https://openfoam.org
    \\  /    A nd           | Version:  8
     \\/     M anipulation  |
\*---------------------------------------------------------------------------*/
FoamFile
{
    version     2.0;
    format      ascii;
    class       volVectorField;
    location    "0.02317";
    object      U;
}
// * * * * * * * * * * * * * * * * * * * * * * * * * * * * * * * * * * * * * //

dimensions      [0 1 -1 0 0 0 0];

internalField   nonuniform List<vector> 
108547
(
(15 8.73125e-07 -6.97372e-25)
(15 1.56503e-07 -1.62547e-23)
(15 8.81589e-07 -8.66419e-23)
(15 2.48794e-06 2.61594e-23)
(14.9999 4.3042e-06 4.65906e-22)
(14.9999 5.99232e-06 -4.87579e-22)
(14.9999 7.44332e-06 -1.90193e-23)
(14.9999 8.92459e-06 2.01936e-22)
(14.9999 1.0518e-05 6.55111e-22)
(14.9999 1.22531e-05 -1.10729e-21)
(14.9999 1.39372e-05 -3.01224e-23)
(14.9999 1.56345e-05 2.03271e-21)
(14.9999 1.74229e-05 1.37342e-21)
(14.9999 1.91771e-05 1.49013e-21)
(14.9999 2.09857e-05 1.37413e-21)
(14.9999 2.27836e-05 2.36533e-21)
(14.9999 2.45871e-05 -1.81734e-21)
(14.9999 2.64845e-05 3.30104e-21)
(14.9999 2.83221e-05 -2.50894e-21)
(14.9999 3.01559e-05 -3.81629e-21)
(14.9999 3.20142e-05 -7.02657e-21)
(14.9999 3.39201e-05 -3.0625e-21)
(14.9999 3.57632e-05 -3.22978e-21)
(14.9999 3.76748e-05 -1.89296e-21)
(14.9999 3.95354e-05 1.65108e-21)
(14.9999 4.14723e-05 3.70997e-21)
(14.9999 4.33733e-05 -5.92179e-21)
(14.9999 4.52443e-05 8.02712e-21)
(14.9999 4.71564e-05 -5.62553e-23)
(14.9999 4.90733e-05 4.2891e-21)
(14.9999 5.10038e-05 4.29265e-21)
(14.9999 5.28753e-05 5.33074e-23)
(14.9999 5.47624e-05 4.48742e-21)
(14.9999 5.66623e-05 4.67506e-21)
(14.9999 5.84758e-05 -4.74787e-21)
(14.9999 6.03563e-05 5.36914e-23)
(14.9999 6.21925e-05 -7.51568e-21)
(14.9999 6.40395e-05 4.8727e-21)
(14.9999 6.59455e-05 -2.1181e-21)
(14.9999 6.77315e-05 9.96365e-21)
(14.9999 6.95802e-05 -1.00233e-20)
(14.9999 7.1374e-05 8.0697e-21)
(14.9999 7.31167e-05 1.94022e-21)
(14.9999 7.4882e-05 -4.87638e-23)
(14.9999 7.66617e-05 5.07965e-21)
(14.9999 7.83686e-05 1.70358e-21)
(14.9999 8.01518e-05 5.0216e-21)
(14.9999 8.18729e-05 -8.41397e-21)
(14.9999 8.35045e-05 -5.03705e-21)
(14.9999 8.52076e-05 1.2052e-20)
(14.9999 8.68278e-05 3.61936e-21)
(14.9999 8.84879e-05 9.8003e-21)
(14.9999 9.0081e-05 9.72743e-21)
(14.9999 9.17265e-05 -3.74288e-21)
(14.9999 9.3285e-05 -3.83469e-21)
(14.9999 9.48184e-05 -4.71985e-21)
(14.9999 9.63459e-05 -9.33261e-21)
(14.9999 9.78837e-05 3.93954e-21)
(14.9999 9.93279e-05 4.58206e-21)
(14.9999 0.000100823 -4.51491e-21)
(14.9999 0.000102275 4.44793e-21)
(14.9999 0.000103636 -3.30765e-23)
(14.9999 0.000105055 4.2956e-21)
(14.9999 0.000106405 -3.37619e-23)
(14.9999 0.000107767 4.13223e-21)
(14.9999 0.000109101 -8.3409e-21)
(14.9999 0.000110359 0)
(14.9999 0.000111694 -3.84351e-21)
(14.9999 0.00011294 3.75407e-21)
(14.9999 0.000114143 3.65846e-21)
(14.9999 0.000115327 8.04138e-21)
(14.9999 0.000116484 -4.48529e-21)
(14.9999 0.000117598 -6.77388e-21)
(14.9999 0.000118695 7.88658e-21)
(14.9999 0.000119821 -9.2554e-21)
(15 0.000120885 4.61696e-21)
(15 0.000121853 1.06029e-20)
(15 0.000122914 -1.89911e-21)
(15 0.000123867 0)
(15 0.000124806 0)
(15 0.000125671 0)
(15 0.000126582 -2.3768e-21)
(15 0.000127441 0)
(15 0.000128294 -2.7383e-21)
(15 0.000129059 9.78273e-21)
(15 0.000129788 3.836e-21)
(15 0.000130569 -1.66673e-20)
(15 0.000131254 3.32308e-21)
(15 0.000131924 3.48336e-21)
(15 0.000132563 -5.01854e-21)
(15 0.000133197 -1.27865e-21)
(15 0.000133801 1.15051e-21)
(15 0.000134337 1.0063e-21)
(15 0.000134847 9.33649e-21)
(15 0.000135307 1.10014e-20)
(15 0.000135765 -4.52356e-21)
(15 0.000136172 -1.0324e-20)
(15 0.000136579 0)
(15 0.000136914 2.07118e-22)
(15 0.000137231 5.20993e-21)
(15 0.000137521 -6.37361e-23)
(15 0.000137784 -5.02265e-21)
(15 0.00013803 0)
(15 0.000138201 1.04781e-20)
(15 0.000138372 -2.4775e-21)
(15 0.00013849 -4.48163e-21)
(15 0.000138606 -1.80104e-21)
(15 0.000138668 -5.25094e-21)
(15 0.000138702 -6.43596e-21)
(15 0.000138664 2.64182e-21)
(15 0.000138594 1.44318e-21)
(15 0.000138514 5.26994e-21)
(15 0.000138401 -1.75977e-21)
(15 0.00013827 5.28779e-21)
(15 0.000138033 -4.06594e-21)
(15 0.000137849 -3.0495e-21)
(15 0.000137624 -7.57487e-21)
(15 0.000137301 2.47937e-21)
(15 0.000136968 1.30912e-20)
(15 0.000136573 -7.93348e-21)
(15 0.000136226 -5.20229e-21)
(15 0.000135794 5.95833e-21)
(15 0.000135341 5.21065e-21)
(15.0001 0.000134765 1.9236e-21)
(15.0001 0.000134287 -1.71472e-20)
(15.0001 0.000133697 3.56808e-21)
(15.0001 0.000133032 1.45826e-21)
(15.0001 0.000132394 -1.02667e-20)
(15.0001 0.000131731 1.2996e-20)
(15.0001 0.000131012 1.018e-21)
(15.0001 0.000130257 -5.0722e-21)
(15.0001 0.000129473 -3.51262e-21)
(15.0001 0.000128634 9.46009e-21)
(15.0001 0.000127683 -9.59089e-21)
(15.0001 0.000126815 4.35199e-21)
(15.0001 0.00012585 5.0018e-21)
(15.0001 0.000124844 4.93795e-21)
(15.0001 0.000123844 -9.97793e-21)
(15.0001 0.000122753 -1.49473e-20)
(15.0001 0.000121723 4.76234e-23)
(15.0001 0.000120575 4.8314e-21)
(15.0001 0.000119365 0)
(15.0001 0.000118207 5.56484e-21)
(15.0001 0.000116925 0)
(15.0001 0.000115645 -4.73949e-21)
(15.0001 0.000114347 5.9081e-21)
(15.0001 0.000113007 -1.32869e-21)
(15.0001 0.000111548 6.02828e-21)
(15.0001 0.000110141 4.58113e-21)
(15.0001 0.000108639 -1.24103e-20)
(15.0001 0.000107173 -2.67103e-21)
(15.0001 0.00010559 1.93651e-21)
(15.0001 0.000104083 1.07724e-20)
(15.0001 0.000102449 -2.14785e-21)
(15.0001 0.000100721 0)
(15.0001 9.9075e-05 2.28942e-21)
(15.0001 9.73197e-05 1.07745e-20)
(15.0001 9.55673e-05 1.05362e-20)
(15.0001 9.3828e-05 -1.05658e-20)
(15.0001 9.20052e-05 2.63339e-21)
(15.0001 9.00915e-05 6.82771e-23)
(15.0001 8.82437e-05 3.75514e-21)
(15.0001 8.62162e-05 -3.74149e-21)
(15.0001 8.42487e-05 7.4023e-21)
(15.0001 8.2276e-05 4.37761e-22)
(15.0001 8.02223e-05 -1.33727e-20)
(15.0001 7.82401e-05 -3.33167e-21)
(15.0001 7.61169e-05 -3.01904e-21)
(15.0001 7.3989e-05 -7.48401e-23)
(15.0001 7.18601e-05 8.05036e-23)
(15.0001 6.96237e-05 2.938e-21)
(15.0001 6.73814e-05 1.28246e-25)
(15.0001 6.51197e-05 -1.7108e-20)
(15.0001 6.28912e-05 8.70235e-21)
(15.0001 6.05918e-05 -8.40437e-21)
(15.0001 5.82104e-05 7.70357e-21)
(15.0001 5.5912e-05 -7.46979e-21)
(15.0001 5.35067e-05 6.24411e-22)
(15.0001 5.11722e-05 6.72e-21)
(15.0001 4.87093e-05 -6.01207e-22)
(15.0001 4.62839e-05 -4.23719e-21)
(15.0001 4.38601e-05 3.98749e-21)
(15.0001 4.13924e-05 1.47718e-21)
(15.0001 3.87904e-05 -1.95418e-21)
(15.0001 3.62944e-05 -7.50642e-21)
(15.0001 3.37636e-05 3.42703e-21)
(15.0001 3.11695e-05 -2.51361e-21)
(15.0001 2.86151e-05 1.32826e-21)
(15.0001 2.59536e-05 2.76455e-21)
(15.0001 2.33923e-05 -1.10674e-21)
(15.0001 2.07938e-05 3.458e-22)
(15.0001 1.80499e-05 1.19532e-21)
(15.0001 1.54984e-05 -1.32072e-21)
(15.0001 1.30979e-05 7.76571e-22)
(15.0001 1.06854e-05 3.48169e-22)
(15.0001 7.75095e-06 4.9568e-22)
(15.0001 4.46846e-06 -2.43684e-22)
(15 1.59494e-06 -1.69674e-22)
(15 1.66208e-07 9.51775e-23)
(15.0001 1.72862e-06 -1.26428e-23)
(14.9996 2.04943e-06 6.87647e-24)
(14.9998 6.00164e-06 -8.12458e-23)
(14.9999 1.99131e-06 -1.86762e-23)
(14.9999 3.35725e-06 -3.19057e-22)
(14.9998 8.04583e-06 4.50202e-22)
(14.9998 1.38131e-05 -3.42409e-22)
(14.9998 1.89625e-05 -7.61637e-22)
(14.9998 2.35018e-05 2.97583e-23)
(14.9998 2.79858e-05 2.79263e-22)
(14.9998 3.29019e-05 6.8529e-23)
(14.9998 3.79654e-05 -1.0181e-21)
(14.9998 4.30624e-05 5.66334e-22)
(14.9997 4.82783e-05 1.78246e-21)
(14.9997 5.35054e-05 -1.24922e-21)
(14.9997 5.88804e-05 5.32886e-21)
(14.9997 6.42995e-05 4.90674e-22)
(14.9997 6.97244e-05 -3.75487e-21)
(14.9997 7.52918e-05 -5.46289e-22)
(14.9997 8.08459e-05 2.63406e-21)
(14.9997 8.64317e-05 -1.18554e-23)
(14.9997 9.20491e-05 -1.48992e-21)
(14.9997 9.77563e-05 -5.35829e-21)
(14.9997 0.0001034 -3.90284e-21)
(14.9997 0.000109143 -1.23739e-23)
(14.9997 0.000114829 -1.88819e-21)
(14.9997 0.000120609 3.92962e-21)
(14.9997 0.000126415 1.6824e-22)
(14.9997 0.000132162 1.36511e-22)
(14.9997 0.000137915 -2.45466e-21)
(14.9997 0.000143709 -2.36173e-21)
(14.9997 0.000149489 2.4031e-21)
(14.9997 0.000155234 1.26595e-22)
(14.9997 0.000161001 -7.92868e-21)
(14.9997 0.000166764 2.13038e-20)
(14.9997 0.000172423 2.85359e-21)
(14.9997 0.000178129 5.39326e-21)
(14.9997 0.000183753 -5.9328e-21)
(14.9997 0.000189386 -1.06696e-22)
(14.9997 0.000195107 5.63072e-21)
(14.9997 0.000200636 1.41604e-20)
(14.9997 0.000206232 8.98209e-21)
(14.9997 0.00021174 -1.17711e-21)
(14.9997 0.00021716 5.58842e-21)
(14.9997 0.000222574 0)
(14.9997 0.000227985 2.0572e-21)
(14.9997 0.000233282 -3.63279e-21)
(14.9997 0.000238655 1.28359e-20)
(14.9997 0.000243874 -7.21991e-21)
(14.9997 0.000248969 -1.30663e-20)
(14.9997 0.000254135 3.77675e-21)
(14.9997 0.000259212 5.50191e-21)
(14.9997 0.000264231 2.77933e-21)
(14.9997 0.000269139 1.85993e-20)
(14.9998 0.00027412 9.39086e-21)
(14.9998 0.000278922 -4.41544e-23)
(14.9998 0.000283678 3.17239e-21)
(14.9998 0.000288398 -4.15402e-21)
(14.9998 0.000293034 -8.5541e-21)
(14.9998 0.000297555 1.41557e-20)
(14.9998 0.0003021 9.75475e-21)
(14.9998 0.000306517 3.77318e-22)
(14.9998 0.000310814 0)
(14.9998 0.000315134 4.62e-21)
(14.9998 0.000319319 -4.52788e-21)
(14.9998 0.000323458 8.9759e-21)
(14.9998 0.000327506 2.60566e-23)
(14.9998 0.000331483 -3.34442e-23)
(14.9998 0.000335452 -8.7702e-21)
(14.9998 0.000339272 -9.44297e-21)
(14.9998 0.00034299 1.99489e-24)
(14.9998 0.000346625 9.52916e-21)
(14.9998 0.000350223 9.65694e-21)
(14.9998 0.0003537 -4.8459e-21)
(14.9998 0.00035707 2.13133e-21)
(14.9998 0.000360457 -4.90053e-21)
(14.9999 0.000363706 -8.24386e-21)
(14.9999 0.000366806 3.17533e-21)
(14.9999 0.000369961 4.99949e-21)
(14.9999 0.000372924 7.98112e-21)
(14.9999 0.000375804 -2.80847e-21)
(14.9999 0.000378543 7.77609e-21)
(14.9999 0.000381283 2.57785e-21)
(14.9999 0.000383917 -1.27369e-20)
(14.9999 0.000386486 -5.18615e-21)
(14.9999 0.00038888 5.19718e-21)
(14.9999 0.000391181 9.33495e-21)
(14.9999 0.000393476 -1.20404e-24)
(14.9999 0.00039565 5.27404e-21)
(14.9999 0.000397687 1.31423e-23)
(14.9999 0.000399656 -6.84004e-21)
(14.9999 0.000401596 -6.71622e-21)
(14.9999 0.000403376 -1.19689e-20)
(15 0.00040503 9.65833e-21)
(15 0.000406584 1.08212e-20)
(15 0.000408056 2.44351e-21)
(15 0.000409502 2.02411e-21)
(15 0.000410768 -6.00271e-21)
(15 0.000411986 -5.48501e-21)
(15 0.000413008 -1.90222e-24)
(15 0.000413985 5.42439e-21)
(15 0.000414873 5.4782e-21)
(15 0.000415672 -1.5647e-24)
(15 0.000416425 -5.54429e-21)
(15 0.000416978 -1.1111e-20)
(15 0.000417481 4.27996e-21)
(15 0.000417796 4.75382e-21)
(15 0.000418082 -6.49157e-21)
(15 0.00041828 -1.02434e-23)
(15.0001 0.000418369 4.33886e-21)
(15.0001 0.000418324 1.1132e-20)
(15.0001 0.000418105 -1.26882e-20)
(15.0001 0.000417849 -5.54632e-21)
(15.0001 0.000417514 -1.0386e-23)
(15.0001 0.000417027 2.00057e-21)
(15.0001 0.000416403 1.28367e-21)
(15.0001 0.000415763 4.57243e-21)
(15.0001 0.000415015 -5.57317e-21)
(15.0001 0.000414067 2.60177e-21)
(15.0001 0.000413039 7.76955e-23)
(15.0001 0.000411882 -2.88393e-21)
(15.0001 0.000410715 1.41342e-20)
(15.0001 0.000409381 -4.3522e-23)
(15.0002 0.000407941 -1.10273e-20)
(15.0002 0.000406274 -9.00427e-21)
(15.0002 0.000404652 1.96033e-23)
(15.0002 0.000402848 1.30002e-20)
(15.0002 0.000400872 -3.90839e-21)
(15.0002 0.000398898 5.49209e-21)
(15.0002 0.000396784 8.36112e-21)
(15.0002 0.000394513 -9.75741e-21)
(15.0002 0.00039218 -1.08883e-20)
(15.0002 0.000389729 1.55313e-20)
(15.0002 0.000387142 1.06701e-20)
(15.0002 0.000384358 -4.81658e-21)
(15.0002 0.00038154 -6.01541e-23)
(15.0002 0.000378615 -1.12298e-22)
(15.0002 0.000375558 -5.33404e-21)
(15.0003 0.00037242 -1.60121e-20)
(15.0003 0.000369094 2.9595e-22)
(15.0003 0.000365768 1.66051e-20)
(15.0003 0.000362269 1.09829e-20)
(15.0003 0.000358585 -7.05459e-22)
(15.0003 0.0003549 -4.72529e-23)
(15.0003 0.000351042 1.05067e-21)
(15.0003 0.000347048 0)
(15.0003 0.000342975 1.29412e-21)
(15.0003 0.00033881 5.10219e-21)
(15.0003 0.000334385 4.90184e-21)
(15.0003 0.000330014 -9.89029e-21)
(15.0003 0.000325463 -1.79169e-21)
(15.0003 0.000320799 4.77096e-21)
(15.0003 0.000315981 2.16516e-21)
(15.0003 0.000311209 9.23226e-21)
(15.0003 0.000306235 -7.02411e-21)
(15.0003 0.000301016 9.32856e-21)
(15.0004 0.000295848 -7.26155e-21)
(15.0004 0.000290482 1.19424e-20)
(15.0004 0.000285062 -1.19784e-20)
(15.0004 0.00027958 3.08752e-21)
(15.0004 0.00027393 7.23256e-21)
(15.0004 0.000268107 1.06014e-20)
(15.0004 0.000262317 4.18492e-21)
(15.0004 0.000256208 3.21479e-21)
(15.0004 0.000250157 4.19899e-21)
(15.0004 0.000244055 3.85378e-21)
(15.0004 0.000237776 -1.12319e-20)
(15.0004 0.000231494 -1.11672e-20)
(15.0004 0.000225 3.83793e-21)
(15.0004 0.000218428 -3.67477e-21)
(15.0004 0.000211814 8.93994e-23)
(15.0004 0.000205073 -3.61636e-21)
(15.0004 0.000198233 -2.0532e-20)
(15.0004 0.000191371 1.5053e-22)
(15.0004 0.000184434 9.94799e-21)
(15.0004 0.000177323 6.68986e-21)
(15.0004 0.000170157 5.5332e-21)
(15.0004 0.000163038 -1.48764e-20)
(15.0004 0.000155735 5.89025e-21)
(15.0004 0.000148482 3.15502e-21)
(15.0004 0.000141026 5.47683e-21)
(15.0004 0.000133598 4.32775e-21)
(15.0004 0.000126104 -2.84799e-21)
(15.0004 0.00011854 -1.92343e-21)
(15.0004 0.000110831 -5.92875e-21)
(15.0004 0.000103216 -4.62496e-21)
(15.0004 9.5477e-05 -1.60741e-21)
(15.0004 8.76661e-05 -4.31633e-21)
(15.0004 7.99458e-05 1.01926e-21)
(15.0004 7.20954e-05 -9.35065e-22)
(15.0004 6.42767e-05 8.63564e-22)
(15.0004 5.63373e-05 -5.52066e-23)
(15.0004 4.85022e-05 -1.14774e-21)
(15.0004 4.12699e-05 8.11776e-22)
(15.0004 3.37396e-05 2.31791e-21)
(15.0003 2.4807e-05 -1.9701e-22)
(15.0003 1.44455e-05 -3.35045e-23)
(15.0002 5.90168e-06 -5.91424e-22)
(15.0001 3.69581e-06 3.17913e-22)
(15.0003 1.14452e-05 -5.38685e-23)
(15.0007 4.10606e-06 -4.71428e-23)
(14.9993 1.87306e-06 8.71423e-24)
(14.9996 1.14782e-05 1.17898e-23)
(14.9998 9.07393e-06 6.243e-23)
(14.9998 6.92575e-06 -1.89738e-22)
(14.9998 1.05603e-05 -1.90589e-22)
(14.9997 1.89896e-05 8.11932e-22)
(14.9997 2.8418e-05 -2.15603e-22)
(14.9996 3.68359e-05 0)
(14.9996 4.44626e-05 -1.77306e-21)
(14.9996 5.2367e-05 2.86132e-21)
(14.9996 6.06916e-05 -2.62275e-21)
(14.9996 6.91987e-05 5.99872e-22)
(14.9996 7.77997e-05 6.50999e-22)
(14.9996 8.64927e-05 -2.68967e-21)
(14.9996 9.53951e-05 2.11309e-21)
(14.9996 0.000104395 1.05333e-21)
(14.9995 0.00011343 -5.37884e-21)
(14.9995 0.000122627 -5.72869e-21)
(14.9995 0.000131856 1.78746e-21)
(14.9995 0.000141172 1.94568e-21)
(14.9995 0.000150569 6.99587e-21)
(14.9995 0.000160037 1.64997e-21)
(14.9995 0.00016953 2.21233e-21)
(14.9995 0.000179109 -4.13691e-21)
(14.9995 0.000188636 1.96005e-21)
(14.9995 0.000198263 -8.82966e-21)
(14.9995 0.000207951 9.13355e-21)
(14.9995 0.000217566 2.18431e-21)
(14.9995 0.00022718 2.34115e-21)
(14.9995 0.000236875 -2.39066e-21)
(14.9995 0.000246518 -5.12137e-21)
(14.9995 0.000256183 7.77121e-21)
(14.9995 0.000265857 -1.31997e-20)
(14.9995 0.000275515 -8.22742e-21)
(14.9995 0.000285064 1.11386e-20)
(14.9995 0.000294668 1.08868e-20)
(14.9995 0.000304144 5.49888e-21)
(14.9995 0.000313607 -3.06686e-21)
(14.9995 0.000323141 2.40897e-21)
(14.9995 0.000332494 -1.12014e-20)
(14.9995 0.000341831 1.45529e-20)
(14.9995 0.00035114 3.40043e-21)
(14.9995 0.000360312 5.64058e-21)
(14.9995 0.000369503 5.64621e-21)
(14.9995 0.000378616 0)
(14.9995 0.00038756 -3.61966e-21)
(14.9995 0.000396535 1.68145e-21)
(14.9996 0.000405363 9.4628e-21)
(14.9996 0.000414061 -7.6954e-21)
(14.9996 0.000422735 -5.53454e-21)
(14.9996 0.00043134 7.07121e-21)
(14.9996 0.000439858 -9.45683e-21)
(14.9996 0.00044815 -6.7788e-21)
(14.9996 0.000456493 1.48096e-20)
(14.9996 0.000464661 4.12724e-21)
(14.9996 0.000472761 5.27712e-21)
(14.9996 0.000480701 1.12302e-20)
(14.9996 0.000488551 8.203e-22)
(14.9996 0.000496279 -8.68357e-21)
(14.9996 0.000503927 9.29646e-21)
(14.9996 0.000511427 1.37844e-20)
(14.9996 0.00051875 4.78754e-21)
(14.9996 0.000526034 4.49922e-21)
(14.9996 0.000533187 3.23536e-23)
(14.9997 0.00054018 -1.36785e-20)
(14.9997 0.000547038 8.87091e-21)
(14.9997 0.000553802 4.66368e-21)
(14.9997 0.000560444 4.26775e-21)
(14.9997 0.00056693 -8.9193e-21)
(14.9997 0.000573253 -5.70623e-24)
(14.9997 0.000579455 8.89443e-22)
(14.9997 0.000585577 -4.82191e-21)
(14.9997 0.000591532 -6.12246e-21)
(14.9997 0.000597269 8.52321e-21)
(14.9997 0.000602915 8.46356e-21)
(14.9997 0.000608474 -3.36798e-21)
(14.9998 0.000613836 -3.24998e-21)
(14.9998 0.000619064 -1.13056e-20)
(14.9998 0.000624124 2.0622e-21)
(14.9998 0.000629046 -2.83312e-21)
(14.9998 0.000633739 -1.03242e-20)
(14.9998 0.000638371 1.29793e-20)
(14.9998 0.000642854 2.3568e-22)
(14.9998 0.000647195 -1.04827e-20)
(14.9998 0.000651271 -1.77045e-23)
(14.9998 0.000655231 1.30792e-23)
(14.9999 0.000659081 -7.29562e-21)
(14.9999 0.000662804 5.33471e-21)
(14.9999 0.000666296 9.03323e-21)
(14.9999 0.000669653 1.57314e-21)
(14.9999 0.000672868 1.41179e-21)
(14.9999 0.00067587 7.41961e-24)
(14.9999 0.000678723 -6.60031e-21)
(14.9999 0.000681397 -9.95759e-21)
(14.9999 0.000683934 -5.50892e-21)
(14.9999 0.000686359 1.65485e-20)
(15 0.000688513 4.98116e-21)
(15 0.000690519 -5.55193e-21)
(15 0.000692304 5.30632e-21)
(15 0.000694009 1.15484e-22)
(15 0.000695515 -5.63659e-21)
(15 0.000696823 1.88647e-22)
(15 0.000698049 0)
(15 0.000699049 4.88094e-22)
(15 0.000699894 -4.98652e-21)
(15.0001 0.000700459 -7.87815e-22)
(15.0001 0.000700902 6.5801e-21)
(15.0001 0.000701198 -7.83563e-21)
(15.0001 0.000701301 -5.63372e-21)
(15.0001 0.00070124 3.79306e-25)
(15.0001 0.000700946 -4.79261e-24)
(15.0001 0.000700493 1.12955e-20)
(15.0001 0.000699885 5.61937e-21)
(15.0002 0.00069902 -5.63104e-21)
(15.0002 0.000698003 5.64335e-21)
(15.0002 0.000696855 7.94394e-21)
(15.0002 0.000695565 -1.12846e-20)
(15.0002 0.000693971 -8.61598e-21)
(15.0002 0.000692205 2.85616e-21)
(15.0002 0.000690255 1.41526e-20)
(15.0002 0.000688218 3.05242e-21)
(15.0002 0.000685906 -8.82055e-21)
(15.0003 0.000683419 0)
(15.0003 0.000680719 5.60233e-21)
(15.0003 0.000677845 9.24426e-21)
(15.0003 0.000674721 -5.57375e-21)
(15.0003 0.00067147 -5.53792e-21)
(15.0003 0.000668086 5.55551e-21)
(15.0003 0.000664422 -8.55943e-21)
(15.0003 0.000660535 -5.49639e-21)
(15.0003 0.000656521 5.51129e-21)
(15.0004 0.000652332 1.01675e-20)
(15.0004 0.000647916 -1.51459e-20)
(15.0004 0.000643281 -4.50326e-22)
(15.0004 0.00063846 -4.78502e-21)
(15.0004 0.000633489 5.2067e-21)
(15.0004 0.000628314 -1.0739e-20)
(15.0004 0.000622904 5.37578e-21)
(15.0004 0.000617292 1.09562e-20)
(15.0004 0.000611583 5.7777e-21)
(15.0005 0.000605612 -4.70595e-21)
(15.0005 0.00059941 -5.17544e-21)
(15.0005 0.000593056 1.65528e-20)
(15.0005 0.000586498 -5.00482e-23)
(15.0005 0.000579771 -5.12432e-21)
(15.0005 0.000572787 0)
(15.0005 0.000565658 1.31462e-20)
(15.0005 0.000558247 -1.33591e-20)
(15.0005 0.000550833 0)
(15.0005 0.000543069 6.86962e-21)
(15.0006 0.000535125 -6.95964e-21)
(15.0006 0.000527019 4.89962e-21)
(15.0006 0.000518807 2.20767e-21)
(15.0006 0.000510354 9.68956e-21)
(15.0006 0.000501629 -6.66041e-23)
(15.0006 0.000492865 -1.45445e-20)
(15.0006 0.000483795 4.56551e-21)
(15.0006 0.000474535 -1.76339e-20)
(15.0006 0.00046521 1.18794e-20)
(15.0006 0.000455611 -7.45434e-21)
(15.0006 0.000445879 -4.35201e-21)
(15.0006 0.000436027 -7.4108e-21)
(15.0006 0.00042583 3.18669e-21)
(15.0007 0.000415623 1.17953e-20)
(15.0007 0.000405292 -3.62592e-21)
(15.0007 0.000394672 -1.9209e-20)
(15.0007 0.000384016 -1.46893e-20)
(15.0007 0.000373089 1.10613e-20)
(15.0007 0.000362017 -1.4526e-20)
(15.0007 0.00035083 0)
(15.0007 0.000339547 -1.05842e-20)
(15.0007 0.000328052 -3.47453e-21)
(15.0007 0.000316537 1.32349e-20)
(15.0007 0.000304876 -6.67606e-21)
(15.0007 0.00029296 1.00105e-20)
(15.0007 0.000280979 -1.21059e-20)
(15.0007 0.000268985 6.21476e-21)
(15.0007 0.00025675 8.48077e-21)
(15.0007 0.00024447 8.21499e-21)
(15.0007 0.000232051 7.75476e-21)
(15.0007 0.000219551 6.93226e-22)
(15.0007 0.000206983 1.37397e-22)
(15.0007 0.00019435 -2.83039e-21)
(15.0007 0.000181556 2.56929e-21)
(15.0007 0.000168793 0)
(15.0007 0.000155863 -5.1268e-21)
(15.0007 0.000142847 6.63596e-21)
(15.0007 0.00012992 -3.00901e-21)
(15.0007 0.000116882 -1.48354e-21)
(15.0007 0.000103719 7.56388e-22)
(15.0007 9.05831e-05 -5.2493e-21)
(15.0006 7.79301e-05 6.70226e-22)
(15.0006 6.54434e-05 1.6808e-21)
(15.0006 5.10873e-05 2.69919e-22)
(15.0005 3.43826e-05 3.40904e-23)
(15.0004 1.91636e-05 -3.65366e-22)
(15.0003 1.28017e-05 1.49149e-22)
(15.0003 1.74862e-05 -2.08321e-23)
(15.0007 2.20992e-05 -2.16982e-22)
(15.0014 3.80802e-06 1.19445e-23)
(14.999 2.28226e-06 -7.03757e-24)
(14.9994 1.41335e-05 5.00387e-23)
(14.9997 1.77898e-05 0)
(14.9997 1.42443e-05 0)
(14.9997 1.39007e-05 -9.88064e-23)
(14.9996 2.17887e-05 -1.59309e-22)
(14.9995 3.4563e-05 -3.58345e-22)
(14.9995 4.74457e-05 -1.82824e-22)
(14.9995 5.88535e-05 -6.03329e-22)
(14.9995 6.98601e-05 9.88475e-22)
(14.9994 8.12749e-05 -7.15147e-22)
(14.9994 9.31096e-05 -6.4204e-22)
(14.9994 0.000105132 -1.03591e-21)
(14.9994 0.000117334 6.48709e-24)
(14.9994 0.000129748 -4.40503e-21)
(14.9994 0.000142302 3.39581e-21)
(14.9994 0.000154968 1.10773e-21)
(14.9994 0.000167805 1.71749e-21)
(14.9994 0.000180758 -4.43946e-21)
(14.9993 0.000193816 1.94478e-21)
(14.9993 0.000206947 -7.11554e-21)
(14.9993 0.000220211 6.15522e-23)
(14.9993 0.000233549 1.64795e-21)
(14.9993 0.00024701 -2.18638e-21)
(14.9993 0.000260419 4.20067e-21)
(14.9993 0.000273927 6.12248e-23)
(14.9993 0.000287507 -8.8462e-21)
(14.9993 0.000301061 -4.76921e-21)
(14.9993 0.000314584 2.36893e-21)
(14.9993 0.000328241 9.2474e-24)
(14.9993 0.000341856 0)
(14.9993 0.000355455 5.18427e-21)
(14.9993 0.000369057 7.92782e-21)
(14.9993 0.000382654 -5.32198e-21)
(14.9993 0.000396174 -5.72137e-21)
(14.9993 0.000409696 -5.53787e-21)
(14.9993 0.000423129 -5.4829e-21)
(14.9993 0.000436538 -5.65018e-21)
(14.9993 0.000449949 7.17538e-22)
(14.9993 0.000463173 -1.12829e-20)
(14.9993 0.000476379 -9.05228e-21)
(14.9993 0.000489504 2.33774e-21)
(14.9993 0.000502502 2.22719e-21)
(14.9993 0.000515516 3.5137e-21)
(14.9994 0.000528428 5.76878e-21)
(14.9994 0.000541113 -4.90489e-23)
(14.9994 0.0005538 3.74786e-21)
(14.9994 0.000566313 1.13551e-20)
(14.9994 0.000578712 5.64176e-21)
(14.9994 0.000590998 -3.88622e-21)
(14.9994 0.000603194 5.52687e-21)
(14.9994 0.000615227 -3.02757e-21)
(14.9994 0.000627111 -4.02166e-21)
(14.9994 0.000638914 -4.20035e-21)
(14.9994 0.000650511 4.21058e-21)
(14.9994 0.000662009 6.43216e-21)
(14.9994 0.000673265 -4.30082e-21)
(14.9994 0.000684439 9.50517e-21)
(14.9995 0.000695459 -7.18277e-22)
(14.9995 0.000706308 -1.44993e-20)
(14.9995 0.000716985 -4.49114e-21)
(14.9995 0.000727459 4.51035e-21)
(14.9995 0.000737805 4.5896e-21)
(14.9995 0.000747956 1.38893e-20)
(14.9995 0.000757925 -4.57377e-21)
(14.9995 0.000767737 -9.45837e-21)
(14.9995 0.000777334 3.22222e-22)
(14.9995 0.000786752 4.3336e-21)
(14.9996 0.000796023 -4.79649e-21)
(14.9996 0.000805083 4.09761e-21)
(14.9996 0.000813946 9.781e-21)
(14.9996 0.0008226 7.84552e-21)
(14.9996 0.000831093 -1.37166e-20)
(14.9996 0.000839314 -8.69153e-21)
(14.9996 0.000847338 5.02047e-21)
(14.9996 0.000855258 1.62981e-21)
(14.9997 0.000862932 5.08193e-21)
(14.9997 0.000870347 1.9301e-21)
(14.9997 0.000877546 -6.16927e-21)
(14.9997 0.00088458 7.35853e-22)
(14.9997 0.00089135 -1.08955e-20)
(14.9997 0.00089794 7.77212e-21)
(14.9997 0.000904309 -2.65492e-21)
(14.9998 0.000910483 -1.59255e-20)
(14.9998 0.000916348 3.02131e-21)
(14.9998 0.000922031 1.07182e-20)
(14.9998 0.0009275 1.08294e-23)
(14.9998 0.000932778 3.49289e-21)
(14.9998 0.000937792 -5.40266e-21)
(14.9998 0.000942593 -1.47715e-20)
(14.9999 0.000947119 1.47051e-21)
(14.9999 0.000951444 1.197e-24)
(14.9999 0.000955575 5.52377e-21)
(14.9999 0.000959413 5.55157e-21)
(14.9999 0.000963016 2.90447e-21)
(14.9999 0.000966414 4.11512e-21)
(14.9999 0.000969491 -5.01738e-21)
(15 0.000972353 -5.63051e-21)
(15 0.000974931 -5.6438e-21)
(15 0.000977386 -5.52948e-21)
(15 0.000979533 1.70031e-20)
(15 0.00098137 5.67984e-21)
(15 0.00098308 -6.01362e-21)
(15.0001 0.000984499 -5.69677e-21)
(15.0001 0.000985696 -6.32811e-21)
(15.0001 0.000986558 6.4963e-21)
(15.0001 0.000987201 -1.33235e-20)
(15.0001 0.000987592 -5.70322e-21)
(15.0001 0.000987668 1.84021e-20)
(15.0001 0.000987529 1.14187e-20)
(15.0002 0.000987165 -9.86289e-21)
(15.0002 0.000986497 -2.23283e-21)
(15.0002 0.000985586 -1.60584e-23)
(15.0002 0.000984376 1.31753e-23)
(15.0002 0.000982941 1.14274e-20)
(15.0002 0.000981254 -2.37072e-21)
(15.0003 0.000979348 -8.20602e-21)
(15.0003 0.000977082 -3.0413e-21)
(15.0003 0.000974578 8.55526e-21)
(15.0003 0.0009718 1.13684e-20)
(15.0003 0.000968796 0)
(15.0003 0.000965469 -5.68295e-21)
(15.0004 0.000961923 -2.21636e-21)
(15.0004 0.000958102 0)
(15.0004 0.000953953 -3.74479e-21)
(15.0004 0.000949487 -3.89652e-21)
(15.0004 0.000944861 -4.04263e-21)
(15.0004 0.000939968 -5.62524e-21)
(15.0005 0.000934719 -4.30981e-21)
(15.0005 0.000929239 5.56628e-21)
(15.0005 0.000923466 -5.58786e-21)
(15.0005 0.000917414 2.58695e-23)
(15.0005 0.000911063 6.13173e-21)
(15.0005 0.000904484 5.02568e-21)
(15.0005 0.000897637 4.25245e-23)
(15.0006 0.000890474 -1.07085e-20)
(15.0006 0.000883063 -5.41831e-21)
(15.0006 0.000875371 0)
(15.0006 0.000867376 -6.37721e-24)
(15.0006 0.000859156 -4.79602e-22)
(15.0006 0.000850621 -1.20301e-20)
(15.0007 0.000841799 1.76107e-20)
(15.0007 0.000832693 6.13331e-21)
(15.0007 0.000823316 -2.31411e-20)
(15.0007 0.000813755 0)
(15.0007 0.000803808 5.2049e-21)
(15.0007 0.000793648 1.45976e-21)
(15.0007 0.00078314 1.76067e-21)
(15.0008 0.000772435 5.01824e-21)
(15.0008 0.000761444 -6.96815e-21)
(15.0008 0.000750143 0)
(15.0008 0.000738626 4.94904e-21)
(15.0008 0.000726854 -2.38045e-21)
(15.0008 0.000714824 2.45387e-21)
(15.0008 0.000702454 -1.68718e-20)
(15.0008 0.000689971 7.47589e-21)
(15.0009 0.000677068 -7.36102e-23)
(15.0009 0.000663904 -7.42991e-21)
(15.0009 0.000650631 4.46716e-21)
(15.0009 0.000637057 -4.4995e-21)
(15.0009 0.000623236 -4.35872e-21)
(15.0009 0.000609251 1.62759e-20)
(15.0009 0.000594867 4.10853e-21)
(15.0009 0.000580333 3.47067e-21)
(15.0009 0.000565613 -1.16754e-20)
(15.0009 0.00055061 -1.54752e-20)
(15.0009 0.000535443 1.14502e-20)
(15.001 0.000520004 -3.74148e-21)
(15.001 0.000504378 7.57468e-23)
(15.001 0.000488576 3.55058e-21)
(15.001 0.000472566 0)
(15.001 0.0004563 1.40494e-20)
(15.001 0.000440032 -6.89021e-21)
(15.001 0.000423511 -6.74093e-21)
(15.001 0.00040674 -1.31281e-20)
(15.001 0.000389852 -3.42772e-21)
(15.001 0.000372881 8.92737e-21)
(15.001 0.000355597 -5.94187e-21)
(15.001 0.00033825 -2.52238e-21)
(15.001 0.000320759 -5.38958e-21)
(15.001 0.000303206 -8.25056e-21)
(15.001 0.000285487 7.74939e-21)
(15.001 0.000267643 7.60613e-23)
(15.001 0.000249678 -7.72434e-23)
(15.001 0.000231667 4.06128e-21)
(15.001 0.000213512 5.06528e-21)
(15.001 0.000195232 1.97707e-21)
(15.001 0.000176935 6.45468e-22)
(15.001 0.000158554 -2.52565e-21)
(15.0009 0.00014009 -2.34608e-21)
(15.0009 0.000121975 5.67014e-23)
(15.0009 0.000104168 2.18168e-21)
(15.0009 8.50719e-05 -2.60756e-21)
(15.0008 6.26076e-05 1.02823e-21)
(15.0007 3.97478e-05 3.8661e-24)
(15.0006 2.57054e-05 0)
(15.0005 2.70823e-05 -1.57645e-22)
(15.0007 3.44959e-05 -1.91667e-22)
(15.0012 2.74011e-05 3.05674e-23)
(15.002 4.67677e-06 1.66217e-23)
(14.9987 2.40469e-06 -1.34169e-23)
(14.9991 1.50801e-05 -6.87776e-23)
(14.9994 2.58055e-05 0)
(14.9996 2.48962e-05 1.9604e-22)
(14.9996 2.07226e-05 1.03444e-22)
(14.9995 2.47521e-05 -2.69562e-22)
(14.9994 3.81039e-05 -5.73962e-22)
(14.9994 5.49732e-05 -2.55816e-22)
(14.9993 7.07967e-05 2.2884e-22)
(14.9993 8.53613e-05 -1.13908e-21)
(14.9993 9.98762e-05 1.83101e-21)
(14.9993 0.000114897 -9.64959e-22)
(14.9992 0.000130279 2.44558e-21)
(14.9992 0.000145947 -7.38996e-24)
(14.9992 0.000161832 1.34847e-21)
(14.9992 0.000177952 -1.01251e-21)
(14.9992 0.000194233 5.35688e-21)
(14.9992 0.000210669 4.07353e-21)
(14.9992 0.000227287 -1.22558e-21)
(14.9992 0.000244123 -1.08765e-22)
(14.9991 0.000261055 -1.94946e-21)
(14.9991 0.000278094 -1.65882e-21)
(14.9991 0.000295293 -3.94439e-21)
(14.9991 0.000312604 -1.79526e-21)
(14.9991 0.000329909 -4.34159e-21)
(14.9991 0.000347313 8.53182e-21)
(14.9991 0.000364842 -2.44369e-21)
(14.9991 0.00038237 -4.76261e-21)
(14.9991 0.000399864 -4.88554e-21)
(14.9991 0.000417541 -7.40901e-21)
(14.9991 0.000435139 -2.5551e-21)
(14.9991 0.000452741 0)
(14.9991 0.000470352 -7.98565e-21)
(14.9991 0.000487942 -5.43894e-21)
(14.9991 0.000505495 2.76393e-22)
(14.9991 0.000523035 -2.57248e-21)
(14.9991 0.000540469 -5.61109e-21)
(14.9991 0.000557874 -8.74036e-21)
(14.9991 0.000575221 -5.74699e-21)
(14.9991 0.000592415 1.14979e-20)
(14.9991 0.00060957 -9.39315e-22)
(14.9991 0.000626678 -9.21203e-21)
(14.9991 0.000643592 -2.32468e-21)
(14.9992 0.00066048 5.27151e-23)
(14.9992 0.000677278 -4.75521e-23)
(14.9992 0.000693786 -5.73311e-21)
(14.9992 0.000710249 5.71524e-21)
(14.9992 0.0007266 -5.69661e-21)
(14.9992 0.000742729 5.68136e-21)
(14.9992 0.000758751 5.45598e-23)
(14.9992 0.000774653 3.92456e-21)
(14.9992 0.000790309 5.71855e-21)
(14.9992 0.000805843 1.39551e-21)
(14.9992 0.000821218 -1.34062e-21)
(14.9992 0.000836353 1.27692e-21)
(14.9993 0.000851341 5.37267e-21)
(14.9993 0.000866087 -5.31133e-21)
(14.9993 0.000880647 -5.33054e-21)
(14.9993 0.000895027 9.65625e-21)
(14.9993 0.000909188 0)
(14.9993 0.000923143 -5.06513e-21)
(14.9993 0.000936903 -9.96349e-21)
(14.9993 0.000950411 4.89419e-21)
(14.9994 0.000963648 -4.80659e-21)
(14.9994 0.000976712 9.44074e-21)
(14.9994 0.000989568 4.72201e-21)
(14.9994 0.00100212 4.55855e-21)
(14.9994 0.00101443 -4.1911e-22)
(14.9994 0.00102654 -4.84505e-21)
(14.9994 0.00103844 -8.46108e-21)
(14.9995 0.00105006 4.14052e-21)
(14.9995 0.00106132 3.97194e-21)
(14.9995 0.00107241 1.14592e-21)
(14.9995 0.00108325 -3.77224e-21)
(14.9995 0.00109379 -2.23499e-21)
(14.9995 0.0011041 -3.51056e-21)
(14.9996 0.00111413 -3.439e-21)
(14.9996 0.00112387 8.48212e-21)
(14.9996 0.00113332 -1.04158e-20)