/*--------------------------------*- C++ -*----------------------------------*\
  =========                 |
  \\      /  F ield         | OpenFOAM: The Open Source CFD Toolbox
   \\    /   O peration     | Website:  https://openfoam.org
    \\  /    A nd           | Version:  8
     \\/     M anipulation  |
\*---------------------------------------------------------------------------*/
FoamFile
{
    version     2.0;
    format      ascii;
    class       volScalarField;
    location    "1.6";
    object      p;
}
// * * * * * * * * * * * * * * * * * * * * * * * * * * * * * * * * * * * * * //

dimensions      [0 2 -2 0 0 0 0];

internalField   nonuniform List<scalar> 
277560
(
-0.0515233
-0.0515339
-0.0515311
-0.0515257
-0.0515182
-0.0515091
-0.0514989
-0.0514878
-0.051476
-0.0514634
-0.0514504
-0.0514368
-0.0514228
-0.0514084
-0.0513937
-0.0513787
-0.0513633
-0.0513476
-0.0513316
-0.0513154
-0.0512988
-0.051282
-0.0512648
-0.0512474
-0.0512296
-0.0512116
-0.0511931
-0.0511744
-0.0511554
-0.051136
-0.0511163
-0.0510962
-0.0510758
-0.0510551
-0.051034
-0.0510126
-0.0509908
-0.0509687
-0.0509461
-0.0509232
-0.0508999
-0.0508762
-0.0508521
-0.0508276
-0.0508027
-0.0507773
-0.0507515
-0.0507253
-0.0506986
-0.0506714
-0.0506438
-0.0506157
-0.0505871
-0.050558
-0.0505284
-0.0504983
-0.0504677
-0.0504365
-0.0504048
-0.0503726
-0.0503398
-0.0503064
-0.0502724
-0.0502379
-0.0502028
-0.0501671
-0.0501308
-0.0500938
-0.0500563
-0.0500181
-0.0499792
-0.0499398
-0.0498996
-0.0498588
-0.0498173
-0.049775
-0.0497321
-0.0496885
-0.0496441
-0.049599
-0.0495531
-0.0495065
-0.0494591
-0.0494109
-0.049362
-0.0493122
-0.0492617
-0.0492103
-0.0491581
-0.0491051
-0.0490512
-0.0489965
-0.0489409
-0.0488844
-0.048827
-0.0487686
-0.0487094
-0.0486492
-0.048588
-0.0485258
-0.0484626
-0.0483984
-0.0483331
-0.0482668
-0.0481993
-0.0481308
-0.0480611
-0.0479902
-0.0479181
-0.0478449
-0.0477704
-0.0476946
-0.0476176
-0.0475392
-0.0474595
-0.0473785
-0.0472961
-0.0472112
-0.0471238
-0.0470479
-0.0515335
-0.0515383
-0.051534
-0.0515276
-0.0515196
-0.0515102
-0.0514998
-0.0514886
-0.0514766
-0.051464
-0.0514509
-0.0514373
-0.0514233
-0.0514089
-0.0513942
-0.0513791
-0.0513637
-0.051348
-0.051332
-0.0513157
-0.0512991
-0.0512823
-0.0512651
-0.0512477
-0.0512299
-0.0512118
-0.0511934
-0.0511747
-0.0511556
-0.0511363
-0.0511166
-0.0510965
-0.0510761
-0.0510554
-0.0510343
-0.0510129
-0.0509911
-0.050969
-0.0509465
-0.0509236
-0.0509003
-0.0508766
-0.0508525
-0.0508281
-0.0508031
-0.0507778
-0.050752
-0.0507258
-0.0506992
-0.050672
-0.0506445
-0.0506164
-0.0505878
-0.0505588
-0.0505292
-0.0504991
-0.0504686
-0.0504374
-0.0504058
-0.0503736
-0.0503408
-0.0503075
-0.0502736
-0.0502392
-0.0502041
-0.0501685
-0.0501322
-0.0500953
-0.0500578
-0.0500197
-0.049981
-0.0499416
-0.0499015
-0.0498607
-0.0498193
-0.0497772
-0.0497343
-0.0496908
-0.0496465
-0.0496014
-0.0495556
-0.0495091
-0.0494618
-0.0494137
-0.0493648
-0.0493151
-0.0492647
-0.0492134
-0.0491613
-0.0491083
-0.0490545
-0.0489998
-0.0489443
-0.0488878
-0.0488305
-0.0487722
-0.048713
-0.0486529
-0.0485917
-0.0485296
-0.0484664
-0.0484022
-0.048337
-0.0482707
-0.0482033
-0.0481348
-0.0480651
-0.0479942
-0.0479222
-0.047849
-0.0477745
-0.0476987
-0.0476216
-0.0475432
-0.0474635
-0.0473824
-0.0472998
-0.0472147
-0.047127
-0.0470508
-0.0515457
-0.0515448
-0.051538
-0.0515305
-0.0515218
-0.051512
-0.0515013
-0.0514898
-0.0514777
-0.0514651
-0.0514519
-0.0514382
-0.0514242
-0.0514098
-0.051395
-0.0513799
-0.0513645
-0.0513487
-0.0513327
-0.0513164
-0.0512998
-0.051283
-0.0512658
-0.0512483
-0.0512305
-0.0512124
-0.051194
-0.0511753
-0.0511563
-0.0511369
-0.0511172
-0.0510971
-0.0510768
-0.0510561
-0.051035
-0.0510136
-0.0509919
-0.0509697
-0.0509472
-0.0509244
-0.0509011
-0.0508775
-0.0508534
-0.050829
-0.0508041
-0.0507788
-0.0507531
-0.0507269
-0.0507003
-0.0506732
-0.0506456
-0.0506176
-0.0505891
-0.05056
-0.0505305
-0.0505005
-0.05047
-0.0504389
-0.0504073
-0.0503752
-0.0503425
-0.0503092
-0.0502754
-0.050241
-0.050206
-0.0501704
-0.0501343
-0.0500975
-0.0500601
-0.050022
-0.0499834
-0.0499441
-0.0499041
-0.0498634
-0.0498221
-0.0497801
-0.0497373
-0.0496939
-0.0496497
-0.0496048
-0.0495591
-0.0495127
-0.0494655
-0.0494175
-0.0493687
-0.0493191
-0.0492688
-0.0492175
-0.0491655
-0.0491126
-0.0490589
-0.0490043
-0.0489489
-0.0488925
-0.0488352
-0.048777
-0.0487179
-0.0486578
-0.0485967
-0.0485346
-0.0484716
-0.0484074
-0.0483423
-0.048276
-0.0482087
-0.0481402
-0.0480706
-0.0479998
-0.0479278
-0.0478545
-0.0477801
-0.0477043
-0.0476273
-0.0475489
-0.0474691
-0.047388
-0.0473054
-0.0472201
-0.0471324
-0.0470561
-0.0515564
-0.0515516
-0.0515429
-0.0515342
-0.0515247
-0.0515144
-0.0515034
-0.0514917
-0.0514795
-0.0514667
-0.0514534
-0.0514397
-0.0514255
-0.0514111
-0.0513962
-0.0513811
-0.0513657
-0.0513499
-0.0513339
-0.0513176
-0.051301
-0.0512841
-0.0512669
-0.0512494
-0.0512316
-0.0512135
-0.0511951
-0.0511763
-0.0511573
-0.0511379
-0.0511182
-0.0510982
-0.0510779
-0.0510572
-0.0510362
-0.0510148
-0.0509931
-0.050971
-0.0509485
-0.0509257
-0.0509025
-0.0508789
-0.0508549
-0.0508305
-0.0508056
-0.0507804
-0.0507547
-0.0507286
-0.050702
-0.050675
-0.0506475
-0.0506196
-0.0505911
-0.0505622
-0.0505327
-0.0505028
-0.0504723
-0.0504414
-0.0504098
-0.0503778
-0.0503452
-0.0503121
-0.0502783
-0.0502441
-0.0502092
-0.0501737
-0.0501377
-0.050101
-0.0500637
-0.0500259
-0.0499873
-0.0499482
-0.0499083
-0.0498678
-0.0498267
-0.0497848
-0.0497423
-0.049699
-0.049655
-0.0496102
-0.0495647
-0.0495184
-0.0494714
-0.0494236
-0.0493749
-0.0493255
-0.0492753
-0.0492243
-0.0491724
-0.0491197
-0.0490661
-0.0490116
-0.0489563
-0.0489001
-0.0488429
-0.0487849
-0.0487258
-0.0486659
-0.0486049
-0.048543
-0.04848
-0.048416
-0.0483509
-0.0482847
-0.0482174
-0.048149
-0.0480794
-0.0480086
-0.0479366
-0.0478634
-0.0477889
-0.0477131
-0.047636
-0.0475576
-0.0474778
-0.0473966
-0.047314
-0.0472287
-0.047141
-0.0470647
-0.0515657
-0.0515583
-0.0515481
-0.0515384
-0.0515283
-0.0515175
-0.0515061
-0.0514941
-0.0514817
-0.0514687
-0.0514553
-0.0514415
-0.0514273
-0.0514128
-0.0513979
-0.0513827
-0.0513673
-0.0513515
-0.0513354
-0.0513191
-0.0513024
-0.0512855
-0.0512683
-0.0512508
-0.051233
-0.0512149
-0.0511965
-0.0511778
-0.0511587
-0.0511394
-0.0511197
-0.0510997
-0.0510794
-0.0510587
-0.0510377
-0.0510164
-0.0509947
-0.0509727
-0.0509503
-0.0509275
-0.0509043
-0.0508808
-0.0508568
-0.0508325
-0.0508077
-0.0507826
-0.0507569
-0.0507309
-0.0507044
-0.0506775
-0.05065
-0.0506222
-0.0505938
-0.050565
-0.0505356
-0.0505058
-0.0504754
-0.0504446
-0.0504132
-0.0503812
-0.0503488
-0.0503157
-0.0502822
-0.050248
-0.0502133
-0.050178
-0.0501421
-0.0501055
-0.0500684
-0.0500307
-0.0499923
-0.0499533
-0.0499136
-0.0498733
-0.0498323
-0.0497906
-0.0497482
-0.0497051
-0.0496612
-0.0496167
-0.0495713
-0.0495252
-0.0494784
-0.0494307
-0.0493823
-0.0493331
-0.049283
-0.0492321
-0.0491804
-0.0491279
-0.0490744
-0.0490202
-0.048965
-0.0489089
-0.0488519
-0.048794
-0.0487352
-0.0486753
-0.0486145
-0.0485527
-0.0484899
-0.048426
-0.048361
-0.048295
-0.0482278
-0.0481595
-0.04809
-0.0480194
-0.0479475
-0.0478744
-0.0478
-0.0477243
-0.0476473
-0.047569
-0.0474892
-0.0474081
-0.0473255
-0.0472404
-0.0471526
-0.0470764
-0.051574
-0.0515648
-0.0515535
-0.051543
-0.0515322
-0.051521
-0.0515092
-0.051497
-0.0514843
-0.0514712
-0.0514577
-0.0514438
-0.0514295
-0.0514149
-0.0514
-0.0513847
-0.0513692
-0.0513534
-0.0513373
-0.0513209
-0.0513043
-0.0512873
-0.0512701
-0.0512526
-0.0512348
-0.0512167
-0.0511983
-0.0511796
-0.0511605
-0.0511412
-0.0511216
-0.0511016
-0.0510813
-0.0510607
-0.0510398
-0.0510185
-0.0509968
-0.0509749
-0.0509525
-0.0509298
-0.0509067
-0.0508832
-0.0508593
-0.0508351
-0.0508104
-0.0507853
-0.0507598
-0.0507338
-0.0507074
-0.0506806
-0.0506533
-0.0506255
-0.0505972
-0.0505685
-0.0505393
-0.0505096
-0.0504794
-0.0504486
-0.0504174
-0.0503856
-0.0503533
-0.0503204
-0.050287
-0.050253
-0.0502184
-0.0501833
-0.0501475
-0.0501112
-0.0500743
-0.0500367
-0.0499985
-0.0499597
-0.0499202
-0.0498801
-0.0498392
-0.0497977
-0.0497555
-0.0497126
-0.049669
-0.0496246
-0.0495795
-0.0495336
-0.049487
-0.0494395
-0.0493913
-0.0493423
-0.0492925
-0.0492418
-0.0491903
-0.049138
-0.0490848
-0.0490307
-0.0489757
-0.0489198
-0.0488631
-0.0488053
-0.0487467
-0.048687
-0.0486264
-0.0485648
-0.0485021
-0.0484384
-0.0483736
-0.0483077
-0.0482408
-0.0481726
-0.0481034
-0.0480329
-0.0479612
-0.0478882
-0.0478141
-0.0477386
-0.0476617
-0.0475835
-0.047504
-0.047423
-0.0473406
-0.0472555
-0.0471679
-0.0470918
-0.0515813
-0.051571
-0.0515588
-0.0515478
-0.0515365
-0.0515248
-0.0515127
-0.0515002
-0.0514874
-0.0514741
-0.0514604
-0.0514464
-0.0514321
-0.0514174
-0.0514024
-0.0513871
-0.0513715
-0.0513557
-0.0513395
-0.0513231
-0.0513065
-0.0512895
-0.0512722
-0.0512547
-0.0512369
-0.0512188
-0.0512004
-0.0511817
-0.0511627
-0.0511434
-0.0511238
-0.0511039
-0.0510837
-0.0510631
-0.0510422
-0.051021
-0.0509994
-0.0509775
-0.0509552
-0.0509326
-0.0509095
-0.0508861
-0.0508624
-0.0508382
-0.0508136
-0.0507886
-0.0507632
-0.0507373
-0.050711
-0.0506843
-0.0506571
-0.0506295
-0.0506014
-0.0505728
-0.0505437
-0.0505141
-0.0504841
-0.0504535
-0.0504224
-0.0503908
-0.0503587
-0.050326
-0.0502927
-0.0502589
-0.0502245
-0.0501896
-0.0501541
-0.0501179
-0.0500812
-0.0500438
-0.0500058
-0.0499672
-0.0499279
-0.049888
-0.0498474
-0.0498061
-0.0497642
-0.0497215
-0.0496781
-0.049634
-0.0495891
-0.0495434
-0.049497
-0.0494499
-0.0494019
-0.0493531
-0.0493036
-0.0492531
-0.0492019
-0.0491498
-0.0490969
-0.049043
-0.0489883
-0.0489327
-0.0488762
-0.0488187
-0.0487603
-0.0487008
-0.0486405
-0.0485791
-0.0485166
-0.0484532
-0.0483886
-0.048323
-0.0482562
-0.0481883
-0.0481193
-0.048049
-0.0479776
-0.0479048
-0.0478309
-0.0477556
-0.047679
-0.047601
-0.0475217
-0.0474409
-0.0473587
-0.0472739
-0.0471865
-0.0471106
-0.051588
-0.0515768
-0.0515642
-0.0515526
-0.0515409
-0.0515289
-0.0515165
-0.0515038
-0.0514908
-0.0514773
-0.0514635
-0.0514494
-0.0514349
-0.0514202
-0.0514051
-0.0513898
-0.0513742
-0.0513583
-0.0513421
-0.0513257
-0.051309
-0.051292
-0.0512747
-0.0512572
-0.0512394
-0.0512213
-0.0512029
-0.0511842
-0.0511653
-0.051146
-0.0511265
-0.0511066
-0.0510864
-0.0510659
-0.0510451
-0.0510239
-0.0510024
-0.0509806
-0.0509584
-0.0509358
-0.0509129
-0.0508896
-0.0508659
-0.0508418
-0.0508173
-0.0507924
-0.0507671
-0.0507414
-0.0507153
-0.0506887
-0.0506616
-0.0506341
-0.0506062
-0.0505778
-0.0505488
-0.0505195
-0.0504896
-0.0504592
-0.0504283
-0.0503969
-0.0503649
-0.0503324
-0.0502994
-0.0502658
-0.0502317
-0.0501969
-0.0501616
-0.0501257
-0.0500892
-0.0500521
-0.0500143
-0.0499759
-0.0499369
-0.0498972
-0.0498569
-0.0498159
-0.0497741
-0.0497317
-0.0496886
-0.0496447
-0.0496001
-0.0495547
-0.0495086
-0.0494617
-0.049414
-0.0493656
-0.0493163
-0.0492662
-0.0492152
-0.0491634
-0.0491108
-0.0490573
-0.0490028
-0.0489475
-0.0488913
-0.0488341
-0.048776
-0.0487169
-0.0486568
-0.0485957
-0.0485336
-0.0484704
-0.0484062
-0.0483408
-0.0482743
-0.0482067
-0.0481379
-0.0480679
-0.0479967
-0.0479243
-0.0478505
-0.0477755
-0.0476992
-0.0476215
-0.0475424
-0.0474619
-0.04738
-0.0472955
-0.0472085
-0.047133
-0.051594
-0.0515824
-0.0515694
-0.0515576
-0.0515456
-0.0515333
-0.0515206
-0.0515077
-0.0514944
-0.0514809
-0.0514669
-0.0514527
-0.0514381
-0.0514233
-0.0514082
-0.0513928
-0.0513771
-0.0513612
-0.051345
-0.0513285
-0.0513118
-0.0512948
-0.0512775
-0.05126
-0.0512422
-0.0512241
-0.0512058
-0.0511871
-0.0511682
-0.051149
-0.0511295
-0.0511096
-0.0510895
-0.0510691
-0.0510483
-0.0510272
-0.0510058
-0.0509841
-0.0509619
-0.0509395
-0.0509167
-0.0508935
-0.0508699
-0.050846
-0.0508216
-0.0507968
-0.0507717
-0.0507461
-0.0507201
-0.0506937
-0.0506668
-0.0506395
-0.0506117
-0.0505834
-0.0505547
-0.0505255
-0.0504959
-0.0504657
-0.050435
-0.0504038
-0.0503721
-0.0503398
-0.050307
-0.0502737
-0.0502398
-0.0502053
-0.0501702
-0.0501346
-0.0500983
-0.0500614
-0.0500239
-0.0499858
-0.049947
-0.0499076
-0.0498675
-0.0498268
-0.0497853
-0.0497432
-0.0497003
-0.0496568
-0.0496124
-0.0495674
-0.0495215
-0.0494749
-0.0494275
-0.0493794
-0.0493304
-0.0492806
-0.0492299
-0.0491785
-0.0491261
-0.0490729
-0.0490188
-0.0489638
-0.0489079
-0.0488511
-0.0487933
-0.0487345
-0.0486748
-0.048614
-0.0485522
-0.0484894
-0.0484254
-0.0483604
-0.0482943
-0.048227
-0.0481586
-0.0480889
-0.0480181
-0.047946
-0.0478726
-0.047798
-0.047722
-0.0476447
-0.047566
-0.047486
-0.0474044
-0.0473204
-0.0472338
-0.0471588
-0.0515997
-0.0515878
-0.0515747
-0.0515626
-0.0515504
-0.0515378
-0.051525
-0.0515119
-0.0514984
-0.0514847
-0.0514706
-0.0514563
-0.0514416
-0.0514267
-0.0514115
-0.051396
-0.0513803
-0.0513643
-0.0513481
-0.0513316
-0.0513149
-0.0512979
-0.0512806
-0.0512631
-0.0512453
-0.0512273
-0.0512089
-0.0511903
-0.0511714
-0.0511523
-0.0511328
-0.0511131
-0.051093
-0.0510726
-0.051052
-0.051031
-0.0510096
-0.050988
-0.050966
-0.0509436
-0.0509209
-0.0508979
-0.0508744
-0.0508506
-0.0508264
-0.0508018
-0.0507768
-0.0507514
-0.0507255
-0.0506993
-0.0506726
-0.0506455
-0.0506179
-0.0505898
-0.0505613
-0.0505324
-0.0505029
-0.050473
-0.0504425
-0.0504116
-0.0503801
-0.0503481
-0.0503156
-0.0502825
-0.0502488
-0.0502146
-0.0501798
-0.0501444
-0.0501084
-0.0500718
-0.0500346
-0.0499968
-0.0499583
-0.0499192
-0.0498794
-0.0498389
-0.0497978
-0.0497559
-0.0497133
-0.0496701
-0.049626
-0.0495813
-0.0495357
-0.0494894
-0.0494423
-0.0493945
-0.0493458
-0.0492963
-0.049246
-0.0491949
-0.0491429
-0.04909
-0.0490363
-0.0489817
-0.0489261
-0.0488696
-0.0488122
-0.0487538
-0.0486944
-0.048634
-0.0485726
-0.0485101
-0.0484465
-0.0483819
-0.0483162
-0.0482493
-0.0481813
-0.0481121
-0.0480417
-0.04797
-0.0478972
-0.047823
-0.0477475
-0.0476707
-0.0475925
-0.047513
-0.047432
-0.0473485
-0.0472624
-0.0471878
-0.0516051
-0.0515931
-0.0515799
-0.0515677
-0.0515553
-0.0515426
-0.0515296
-0.0515163
-0.0515027
-0.0514888
-0.0514746
-0.0514601
-0.0514454
-0.0514304
-0.0514151
-0.0513996
-0.0513838
-0.0513678
-0.0513515
-0.051335
-0.0513183
-0.0513013
-0.051284
-0.0512665
-0.0512487
-0.0512307
-0.0512124
-0.0511938
-0.051175
-0.0511559
-0.0511365
-0.0511168
-0.0510969
-0.0510766
-0.051056
-0.0510351
-0.0510139
-0.0509923
-0.0509705
-0.0509482
-0.0509257
-0.0509027
-0.0508795
-0.0508558
-0.0508317
-0.0508073
-0.0507825
-0.0507572
-0.0507316
-0.0507055
-0.050679
-0.0506521
-0.0506248
-0.050597
-0.0505687
-0.0505399
-0.0505107
-0.050481
-0.0504509
-0.0504202
-0.050389
-0.0503572
-0.050325
-0.0502922
-0.0502588
-0.0502249
-0.0501904
-0.0501553
-0.0501196
-0.0500833
-0.0500464
-0.0500089
-0.0499707
-0.0499318
-0.0498924
-0.0498522
-0.0498114
-0.0497698
-0.0497276
-0.0496846
-0.0496409
-0.0495965
-0.0495513
-0.0495053
-0.0494586
-0.0494111
-0.0493628
-0.0493137
-0.0492637
-0.049213
-0.0491614
-0.0491089
-0.0490556
-0.0490013
-0.0489462
-0.0488901
-0.048833
-0.048775
-0.0487161
-0.0486561
-0.0485951
-0.0485331
-0.04847
-0.0484058
-0.0483405
-0.0482741
-0.0482066
-0.0481378
-0.0480679
-0.0479968
-0.0479244
-0.0478507
-0.0477758
-0.0476995
-0.0476219
-0.0475429
-0.0474625
-0.0473795
-0.0472941
-0.0472202
-0.0516104
-0.0515983
-0.0515852
-0.051573
-0.0515604
-0.0515476
-0.0515344
-0.0515209
-0.0515071
-0.0514931
-0.0514788
-0.0514642
-0.0514494
-0.0514343
-0.0514189
-0.0514034
-0.0513875
-0.0513715
-0.0513552
-0.0513387
-0.0513219
-0.0513049
-0.0512877
-0.0512702
-0.0512524
-0.0512344
-0.0512162
-0.0511977
-0.0511789
-0.0511599
-0.0511405
-0.0511209
-0.0511011
-0.0510809
-0.0510604
-0.0510396
-0.0510185
-0.0509971
-0.0509754
-0.0509533
-0.0509309
-0.0509081
-0.050885
-0.0508615
-0.0508376
-0.0508133
-0.0507887
-0.0507637
-0.0507382
-0.0507124
-0.0506861
-0.0506594
-0.0506323
-0.0506048
-0.0505767
-0.0505483
-0.0505193
-0.0504899
-0.05046
-0.0504296
-0.0503987
-0.0503672
-0.0503353
-0.0503028
-0.0502697
-0.0502361
-0.0502019
-0.0501671
-0.0501317
-0.0500958
-0.0500592
-0.0500219
-0.0499841
-0.0499456
-0.0499064
-0.0498666
-0.0498261
-0.0497849
-0.049743
-0.0497004
-0.0496571
-0.049613
-0.0495682
-0.0495226
-0.0494763
-0.0494292
-0.0493813
-0.0493326
-0.049283
-0.0492327
-0.0491815
-0.0491295
-0.0490766
-0.0490228
-0.048968
-0.0489124
-0.0488558
-0.0487983
-0.0487398
-0.0486803
-0.0486197
-0.0485582
-0.0484956
-0.0484319
-0.0483671
-0.0483012
-0.0482342
-0.048166
-0.0480966
-0.048026
-0.0479541
-0.047881
-0.0478066
-0.047731
-0.0476539
-0.0475756
-0.0474958
-0.0474135
-0.0473289
-0.0472556
-0.0516158
-0.0516037
-0.0515907
-0.0515784
-0.0515657
-0.0515527
-0.0515394
-0.0515258
-0.0515118
-0.0514976
-0.0514832
-0.0514685
-0.0514536
-0.0514384
-0.051423
-0.0514074
-0.0513915
-0.0513754
-0.0513591
-0.0513426
-0.0513258
-0.0513088
-0.0512916
-0.0512741
-0.0512564
-0.0512384
-0.0512202
-0.0512018
-0.0511831
-0.0511641
-0.0511449
-0.0511254
-0.0511056
-0.0510855
-0.0510652
-0.0510445
-0.0510236
-0.0510023
-0.0509807
-0.0509588
-0.0509365
-0.0509139
-0.050891
-0.0508676
-0.050844
-0.0508199
-0.0507955
-0.0507707
-0.0507455
-0.0507199
-0.0506938
-0.0506674
-0.0506405
-0.0506132
-0.0505855
-0.0505573
-0.0505286
-0.0504995
-0.0504699
-0.0504398
-0.0504092
-0.050378
-0.0503464
-0.0503142
-0.0502815
-0.0502482
-0.0502143
-0.0501798
-0.0501448
-0.0501092
-0.0500729
-0.050036
-0.0499985
-0.0499603
-0.0499215
-0.0498821
-0.0498419
-0.0498011
-0.0497596
-0.0497174
-0.0496744
-0.0496308
-0.0495864
-0.0495412
-0.0494953
-0.0494486
-0.0494011
-0.0493528
-0.0493038
-0.0492539
-0.0492031
-0.0491515
-0.049099
-0.0490457
-0.0489914
-0.0489363
-0.0488802
-0.0488231
-0.0487651
-0.0487061
-0.048646
-0.048585
-0.0485229
-0.0484597
-0.0483955
-0.0483302
-0.0482637
-0.0481961
-0.0481273
-0.0480573
-0.047986
-0.0479136
-0.0478398
-0.0477648
-0.0476884
-0.0476108
-0.0475318
-0.0474503
-0.0473664
-0.0472939
-0.0516213
-0.0516092
-0.0515963
-0.051584
-0.0515713
-0.0515581
-0.0515446
-0.0515308
-0.0515167
-0.0515024
-0.0514878
-0.051473
-0.051458
-0.0514427
-0.0514273
-0.0514116
-0.0513957
-0.0513796
-0.0513632
-0.0513467
-0.0513299
-0.0513129
-0.0512957
-0.0512783
-0.0512606
-0.0512427
-0.0512246
-0.0512062
-0.0511876
-0.0511687
-0.0511495
-0.0511302
-0.0511105
-0.0510905
-0.0510703
-0.0510498
-0.051029
-0.0510079
-0.0509864
-0.0509647
-0.0509426
-0.0509202
-0.0508974
-0.0508743
-0.0508509
-0.050827
-0.0508028
-0.0507783
-0.0507533
-0.0507279
-0.0507022
-0.050676
-0.0506494
-0.0506224
-0.0505949
-0.050567
-0.0505387
-0.0505098
-0.0504805
-0.0504507
-0.0504204
-0.0503896
-0.0503583
-0.0503264
-0.050294
-0.0502611
-0.0502275
-0.0501934
-0.0501587
-0.0501234
-0.0500875
-0.050051
-0.0500139
-0.0499761
-0.0499376
-0.0498985
-0.0498588
-0.0498184
-0.0497773
-0.0497355
-0.049693
-0.0496497
-0.0496058
-0.049561
-0.0495156
-0.0494693
-0.0494223
-0.0493745
-0.0493259
-0.0492765
-0.0492262
-0.0491751
-0.0491231
-0.0490702
-0.0490164
-0.0489617
-0.0489061
-0.0488495
-0.048792
-0.0487335
-0.048674
-0.0486135
-0.048552
-0.0484894
-0.0484257
-0.048361
-0.0482951
-0.0482281
-0.04816
-0.0480906
-0.0480201
-0.0479484
-0.0478754
-0.0478011
-0.0477255
-0.0476487
-0.0475704
-0.0474897
-0.0474067
-0.0473349
-0.0516271
-0.0516149
-0.0516022
-0.0515899
-0.051577
-0.0515637
-0.0515501
-0.0515361
-0.0515218
-0.0515073
-0.0514926
-0.0514777
-0.0514626
-0.0514472
-0.0514317
-0.051416
-0.0514
-0.0513839
-0.0513676
-0.051351
-0.0513343
-0.0513173
-0.0513001
-0.0512827
-0.0512651
-0.0512472
-0.0512292
-0.0512109
-0.0511923
-0.0511735
-0.0511545
-0.0511352
-0.0511157
-0.0510959
-0.0510758
-0.0510554
-0.0510348
-0.0510138
-0.0509926
-0.050971
-0.0509491
-0.0509269
-0.0509044
-0.0508815
-0.0508582
-0.0508347
-0.0508107
-0.0507864
-0.0507617
-0.0507366
-0.0507111
-0.0506852
-0.0506589
-0.0506322
-0.050605
-0.0505774
-0.0505494
-0.0505209
-0.0504919
-0.0504624
-0.0504325
-0.050402
-0.050371
-0.0503395
-0.0503074
-0.0502748
-0.0502416
-0.0502079
-0.0501736
-0.0501386
-0.0501031
-0.0500669
-0.0500302
-0.0499928
-0.0499547
-0.0499161
-0.0498767
-0.0498367
-0.0497961
-0.0497547
-0.0497127
-0.0496699
-0.0496264
-0.0495822
-0.0495372
-0.0494915
-0.0494449
-0.0493976
-0.0493495
-0.0493006
-0.0492508
-0.0492002
-0.0491487
-0.0490963
-0.0490431
-0.0489889
-0.0489338
-0.0488778
-0.0488208
-0.0487629
-0.048704
-0.048644
-0.0485831
-0.0485211
-0.0484581
-0.048394
-0.0483288
-0.0482624
-0.048195
-0.0481263
-0.0480565
-0.0479855
-0.0479133
-0.0478397
-0.0477649
-0.0476889
-0.0476114
-0.0475316
-0.0474495
-0.0473786
-0.0516333
-0.0516209
-0.0516083
-0.051596
-0.051583
-0.0515695
-0.0515557
-0.0515415
-0.0515271
-0.0515125
-0.0514976
-0.0514825
-0.0514673
-0.0514519
-0.0514363
-0.0514205
-0.0514046
-0.0513884
-0.0513721
-0.0513555
-0.0513388
-0.0513219
-0.0513047
-0.0512874
-0.0512698
-0.051252
-0.051234
-0.0512158
-0.0511974
-0.0511787
-0.0511598
-0.0511406
-0.0511212
-0.0511015
-0.0510816
-0.0510614
-0.0510409
-0.0510202
-0.0509991
-0.0509777
-0.0509561
-0.0509341
-0.0509118
-0.0508891
-0.0508661
-0.0508428
-0.0508191
-0.050795
-0.0507706
-0.0507458
-0.0507206
-0.050695
-0.050669
-0.0506426
-0.0506158
-0.0505885
-0.0505608
-0.0505326
-0.050504
-0.0504748
-0.0504452
-0.0504151
-0.0503844
-0.0503533
-0.0503216
-0.0502893
-0.0502565
-0.0502232
-0.0501892
-0.0501547
-0.0501195
-0.0500838
-0.0500474
-0.0500104
-0.0499728
-0.0499346
-0.0498957
-0.0498562
-0.049816
-0.0497751
-0.0497336
-0.0496913
-0.0496483
-0.0496046
-0.0495601
-0.0495149
-0.0494688
-0.0494221
-0.0493745
-0.0493261
-0.0492768
-0.0492267
-0.0491758
-0.049124
-0.0490713
-0.0490177
-0.0489632
-0.0489078
-0.0488514
-0.0487941
-0.0487357
-0.0486765
-0.0486161
-0.0485548
-0.0484924
-0.048429
-0.0483645
-0.0482989
-0.0482321
-0.0481642
-0.0480951
-0.0480249
-0.0479534
-0.0478807
-0.0478067
-0.0477315
-0.0476549
-0.047576
-0.0474949
-0.0474249
-0.0516399
-0.0516273
-0.0516148
-0.0516024
-0.0515892
-0.0515756
-0.0515615
-0.0515472
-0.0515326
-0.0515177
-0.0515027
-0.0514875
-0.0514722
-0.0514567
-0.051441
-0.0514252
-0.0514092
-0.0513931
-0.0513767
-0.0513602
-0.0513435
-0.0513266
-0.0513095
-0.0512922
-0.0512747
-0.051257
-0.0512391
-0.051221
-0.0512027
-0.0511841
-0.0511653
-0.0511463
-0.051127
-0.0511075
-0.0510878
-0.0510678
-0.0510475
-0.0510269
-0.051006
-0.0509849
-0.0509634
-0.0509417
-0.0509196
-0.0508972
-0.0508745
-0.0508514
-0.050828
-0.0508042
-0.0507801
-0.0507556
-0.0507307
-0.0507054
-0.0506798
-0.0506537
-0.0506272
-0.0506002
-0.0505728
-0.050545
-0.0505167
-0.0504879
-0.0504586
-0.0504289
-0.0503986
-0.0503678
-0.0503365
-0.0503046
-0.0502722
-0.0502392
-0.0502056
-0.0501715
-0.0501368
-0.0501015
-0.0500656
-0.050029
-0.0499919
-0.0499541
-0.0499157
-0.0498766
-0.0498369
-0.0497965
-0.0497555
-0.0497137
-0.0496712
-0.049628
-0.049584
-0.0495393
-0.0494939
-0.0494476
-0.0494005
-0.0493527
-0.049304
-0.0492545
-0.0492041
-0.0491529
-0.0491007
-0.0490477
-0.0489938
-0.048939
-0.0488833
-0.0488266
-0.0487689
-0.0487103
-0.0486506
-0.04859
-0.0485283
-0.0484656
-0.0484018
-0.048337
-0.048271
-0.0482039
-0.0481356
-0.0480662
-0.0479956
-0.0479237
-0.0478507
-0.0477764
-0.0477008
-0.0476228
-0.0475427
-0.0474737
-0.0516471
-0.0516341
-0.0516216
-0.0516091
-0.0515957
-0.0515818
-0.0515676
-0.051553
-0.0515382
-0.0515232
-0.051508
-0.0514926
-0.0514772
-0.0514616
-0.0514459
-0.05143
-0.051414
-0.0513979
-0.0513815
-0.051365
-0.0513484
-0.0513315
-0.0513145
-0.0512973
-0.0512799
-0.0512623
-0.0512444
-0.0512264
-0.0512082
-0.0511898
-0.0511711
-0.0511523
-0.0511332
-0.0511138
-0.0510943
-0.0510744
-0.0510543
-0.051034
-0.0510133
-0.0509924
-0.0509712
-0.0509497
-0.0509279
-0.0509058
-0.0508833
-0.0508605
-0.0508374
-0.0508139
-0.0507901
-0.0507659
-0.0507413
-0.0507164
-0.050691
-0.0506653
-0.0506391
-0.0506125
-0.0505855
-0.050558
-0.0505301
-0.0505016
-0.0504727
-0.0504433
-0.0504134
-0.050383
-0.0503521
-0.0503206
-0.0502886
-0.050256
-0.0502229
-0.0501892
-0.0501549
-0.05012
-0.0500846
-0.0500485
-0.0500118
-0.0499745
-0.0499366
-0.049898
-0.0498588
-0.0498189
-0.0497783
-0.0497371
-0.0496951
-0.0496525
-0.049609
-0.0495649
-0.0495199
-0.0494742
-0.0494277
-0.0493804
-0.0493323
-0.0492833
-0.0492335
-0.0491829
-0.0491314
-0.049079
-0.0490257
-0.0489716
-0.0489165
-0.0488604
-0.0488034
-0.0487455
-0.0486866
-0.0486267
-0.0485658
-0.0485038
-0.0484408
-0.0483768
-0.0483117
-0.0482454
-0.0481781
-0.0481095
-0.0480399
-0.047969
-0.0478969
-0.0478236
-0.047749
-0.047672
-0.047593
-0.0475249
-0.0516549
-0.0516414
-0.0516288
-0.0516161
-0.0516025
-0.0515883
-0.0515738
-0.051559
-0.0515439
-0.0515287
-0.0515133
-0.0514979
-0.0514823
-0.0514666
-0.0514508
-0.0514349
-0.0514189
-0.0514028
-0.0513865
-0.05137
-0.0513534
-0.0513366
-0.0513196
-0.0513025
-0.0512852
-0.0512677
-0.05125
-0.0512321
-0.051214
-0.0511957
-0.0511772
-0.0511585
-0.0511396
-0.0511204
-0.0511011
-0.0510814
-0.0510615
-0.0510414
-0.051021
-0.0510003
-0.0509794
-0.0509581
-0.0509366
-0.0509147
-0.0508926
-0.0508701
-0.0508473
-0.0508241
-0.0508006
-0.0507767
-0.0507525
-0.0507279
-0.0507029
-0.0506774
-0.0506516
-0.0506254
-0.0505987
-0.0505716
-0.050544
-0.050516
-0.0504875
-0.0504584
-0.0504289
-0.0503989
-0.0503684
-0.0503373
-0.0503057
-0.0502736
-0.0502409
-0.0502077
-0.0501738
-0.0501394
-0.0501044
-0.0500688
-0.0500327
-0.0499958
-0.0499584
-0.0499203
-0.0498816
-0.0498422
-0.0498022
-0.0497615
-0.04972
-0.0496779
-0.049635
-0.0495914
-0.049547
-0.0495019
-0.049456
-0.0494093
-0.0493618
-0.0493135
-0.0492643
-0.0492144
-0.0491635
-0.0491118
-0.0490592
-0.0490057
-0.0489513
-0.048896
-0.0488398
-0.0487826
-0.0487244
-0.0486653
-0.0486052
-0.0485441
-0.0484819
-0.0484187
-0.0483545
-0.0482891
-0.0482227
-0.0481551
-0.0480863
-0.0480164
-0.0479453
-0.047873
-0.0477994
-0.0477235
-0.0476455
-0.0475785
-0.0516634
-0.0516492
-0.0516365
-0.0516234
-0.0516095
-0.051595
-0.0515802
-0.0515651
-0.0515498
-0.0515343
-0.0515188
-0.0515032
-0.0514875
-0.0514717
-0.0514559
-0.0514399
-0.0514239
-0.0514078
-0.0513915
-0.0513751
-0.0513585
-0.0513418
-0.051325
-0.0513079
-0.0512907
-0.0512733
-0.0512557
-0.051238
-0.05122
-0.0512019
-0.0511836
-0.051165
-0.0511463
-0.0511273
-0.0511081
-0.0510887
-0.0510691
-0.0510492
-0.051029
-0.0510086
-0.0509879
-0.050967
-0.0509457
-0.0509241
-0.0509023
-0.0508801
-0.0508576
-0.0508347
-0.0508116
-0.050788
-0.0507641
-0.0507398
-0.0507152
-0.0506901
-0.0506647
-0.0506388
-0.0506125
-0.0505857
-0.0505586
-0.0505309
-0.0505028
-0.0504742
-0.0504451
-0.0504155
-0.0503854
-0.0503547
-0.0503236
-0.0502919
-0.0502597
-0.0502269
-0.0501935
-0.0501596
-0.0501251
-0.05009
-0.0500543
-0.050018
-0.0499811
-0.0499435
-0.0499053
-0.0498665
-0.049827
-0.0497868
-0.0497459
-0.0497043
-0.049662
-0.049619
-0.0495753
-0.0495308
-0.0494855
-0.0494394
-0.0493926
-0.049345
-0.0492965
-0.0492472
-0.0491971
-0.0491461
-0.0490942
-0.0490415
-0.0489879
-0.0489333
-0.0488779
-0.0488215
-0.0487641
-0.0487058
-0.0486465
-0.0485863
-0.048525
-0.0484627
-0.0483993
-0.0483348
-0.0482693
-0.0482026
-0.0481348
-0.0480659
-0.0479958
-0.0479245
-0.0478519
-0.0477771
-0.0477003
-0.0476344
-0.0516726
-0.0516575
-0.0516446
-0.0516311
-0.0516168
-0.0516019
-0.0515867
-0.0515713
-0.0515557
-0.05154
-0.0515243
-0.0515085
-0.0514927
-0.0514769
-0.051461
-0.051445
-0.051429
-0.0514129
-0.0513966
-0.0513803
-0.0513638
-0.0513472
-0.0513304
-0.0513135
-0.0512964
-0.0512791
-0.0512617
-0.0512441
-0.0512263
-0.0512083
-0.0511901
-0.0511718
-0.0511532
-0.0511345
-0.0511155
-0.0510964
-0.0510769
-0.0510573
-0.0510374
-0.0510173
-0.0509968
-0.0509762
-0.0509552
-0.0509339
-0.0509124
-0.0508905
-0.0508683
-0.0508458
-0.050823
-0.0507998
-0.0507762
-0.0507523
-0.050728
-0.0507033
-0.0506782
-0.0506527
-0.0506268
-0.0506004
-0.0505736
-0.0505464
-0.0505187
-0.0504905
-0.0504618
-0.0504326
-0.050403
-0.0503728
-0.0503421
-0.0503109
-0.0502791
-0.0502468
-0.0502139
-0.0501805
-0.0501465
-0.0501119
-0.0500768
-0.050041
-0.0500046
-0.0499676
-0.0499299
-0.0498916
-0.0498526
-0.049813
-0.0497727
-0.0497317
-0.04969
-0.0496476
-0.0496045
-0.0495606
-0.049516
-0.0494707
-0.0494245
-0.0493776
-0.0493298
-0.0492813
-0.0492319
-0.0491816
-0.0491305
-0.0490785
-0.0490257
-0.048972
-0.0489173
-0.0488617
-0.0488052
-0.0487478
-0.0486894
-0.04863
-0.0485696
-0.0485082
-0.0484458
-0.0483823
-0.0483177
-0.0482521
-0.0481853
-0.0481174
-0.0480483
-0.0479781
-0.0479066
-0.047833
-0.0477574
-0.0476925
-0.0516827
-0.0516665
-0.0516531
-0.0516391
-0.0516243
-0.051609
-0.0515934
-0.0515776
-0.0515617
-0.0515458
-0.0515299
-0.0515139
-0.051498
-0.0514821
-0.0514661
-0.0514501
-0.0514341
-0.051418
-0.0514018
-0.0513856
-0.0513692
-0.0513526
-0.051336
-0.0513192
-0.0513022
-0.0512851
-0.0512678
-0.0512503
-0.0512327
-0.0512149
-0.0511969
-0.0511788
-0.0511605
-0.0511419
-0.0511232
-0.0511043
-0.0510851
-0.0510657
-0.0510461
-0.0510262
-0.0510061
-0.0509857
-0.050965
-0.0509441
-0.0509229
-0.0509013
-0.0508795
-0.0508573
-0.0508348
-0.050812
-0.0507888
-0.0507652
-0.0507413
-0.050717
-0.0506922
-0.0506671
-0.0506416
-0.0506156
-0.0505892
-0.0505624
-0.0505351
-0.0505073
-0.0504791
-0.0504504
-0.0504212
-0.0503915
-0.0503612
-0.0503305
-0.0502992
-0.0502674
-0.0502351
-0.0502022
-0.0501687
-0.0501346
-0.0501
-0.0500647
-0.0500289
-0.0499924
-0.0499553
-0.0499175
-0.0498792
-0.0498401
-0.0498004
-0.04976
-0.049719
-0.0496772
-0.0496348
-0.0495916
-0.0495476
-0.049503
-0.0494575
-0.0494113
-0.0493643
-0.0493164
-0.0492678
-0.0492183
-0.049168
-0.0491168
-0.0490648
-0.0490119
-0.0489581
-0.0489034
-0.0488478
-0.0487912
-0.0487337
-0.0486753
-0.0486158
-0.0485554
-0.048494
-0.0484315
-0.048368
-0.0483034
-0.0482377
-0.0481709
-0.0481029
-0.0480338
-0.0479635
-0.0478909
-0.0478165
-0.0477526
-0.0516937
-0.051676
-0.0516621
-0.0516475
-0.051632
-0.0516162
-0.0516001
-0.0515839
-0.0515677
-0.0515516
-0.0515354
-0.0515193
-0.0515033
-0.0514873
-0.0514713
-0.0514553
-0.0514393
-0.0514232
-0.0514071
-0.0513909
-0.0513746
-0.0513582
-0.0513417
-0.051325
-0.0513082
-0.0512912
-0.0512741
-0.0512568
-0.0512393
-0.0512217
-0.051204
-0.051186
-0.0511679
-0.0511496
-0.0511311
-0.0511124
-0.0510935
-0.0510744
-0.0510551
-0.0510355
-0.0510157
-0.0509956
-0.0509753
-0.0509546
-0.0509337
-0.0509125
-0.050891
-0.0508692
-0.050847
-0.0508246
-0.0508017
-0.0507785
-0.050755
-0.050731